/*--------------------------------*- C++ -*----------------------------------*\
| =========                 |                                                 |
| \\      /  F ield         | OpenFOAM: The Open Source CFD Toolbox           |
|  \\    /   O peration     | Version:  4.1                                   |
|   \\  /    A nd           | Web:      www.OpenFOAM.org                      |
|    \\/     M anipulation  |                                                 |
\*---------------------------------------------------------------------------*/
FoamFile
{
    version     2.0;
    format      ascii;
    class       surfaceScalarField;
    location    "11";
    object      phi;
}
// * * * * * * * * * * * * * * * * * * * * * * * * * * * * * * * * * * * * * //

dimensions      [0 3 -1 0 0 0 0];

internalField   nonuniform List<scalar> 
13220
(
-808.349
2108.25
-1254.04
1745.89
-1705.58
1751.44
-2034.2
1628.52
-2296.16
1562.16
-2477.98
1481.72
-2586.11
1408.03
-2620.83
1334.92
-2587.37
1266.44
-2486.22
1198.75
-2314.27
1128.25
-2061.57
1047.2
-1677.1
915.43
-1034.71
657.813
265.186
-125.691
2233.94
-304.371
1924.57
-515.52
1962.59
-667.09
1780.09
-808.817
1703.88
-907.294
1580.19
-976.821
1477.55
-1011.25
1369.35
-1010.7
1265.88
-971.965
1160.02
-897.358
1053.64
-792.339
942.177
-645.413
768.502
-393.251
405.648
-128.066
-127.837
2361.77
-312.238
2108.97
-449.795
2100.14
-541.679
1871.97
-624.476
1786.68
-675.359
1631.07
-715.148
1517.34
-729.359
1383.56
-685.239
1221.76
-528.55
1003.33
-254.063
779.149
52.9181
635.183
274.616
546.79
303.577
376.665
175.512
-64.7954
2426.57
-171.369
2215.54
-254.565
2183.34
-335.215
1952.62
-423.207
1874.67
-505.437
1713.3
-599.956
1611.86
-690.578
1474.18
-752.853
1284.03
-715.538
966.013
-526.056
589.665
-217.87
327
79.5982
249.324
186.418
269.848
361.93
2.16933
2424.4
-124.394
2342.1
-194.867
2253.81
-266.569
2024.32
-342.269
1950.37
-413.458
1784.49
-491.579
1689.98
-574.18
1556.78
-681.176
1391.03
-823.399
1108.24
-966.116
732.384
-1015.04
375.924
-865.618
99.8962
-490.492
-105.281
-128.562
162.125
2262.28
73.0372
2431.19
70.0695
2256.78
85.051
2009.34
113.874
1921.55
147.654
1750.71
197.427
1640.21
250.201
1504.01
279.546
1361.69
221.447
1166.34
46.8429
906.988
-174.405
597.189
-297.304
222.812
-286.006
-116.565
-414.569
239.502
2022.77
231.932
2438.76
273.066
2215.65
340.113
1942.3
429.286
1832.38
516.16
1663.84
619.699
1536.67
729.59
1394.12
834.505
1256.77
893.739
1107.11
864.941
935.787
723.037
739.093
451.83
494.02
126.308
208.96
-288.261
186.099
1836.68
219.183
2405.68
258.313
2176.52
312.069
1888.54
383.356
1761.09
447.956
1599.24
514.537
1470.09
577.196
1331.46
633.387
1200.58
668.628
1071.87
665.916
938.5
606.892
798.119
473.134
627.78
266.368
415.732
-21.8928
102.088
1734.59
158.814
2348.95
204.901
2130.44
257.496
1835.95
319.917
1698.67
374.042
1545.12
422.203
1421.93
460.52
1293.14
491.731
1169.37
513.882
1049.72
517.099
935.283
484.284
830.937
389.179
722.888
216.258
588.66
194.366
18.1481
1716.44
106.058
2261.04
182.815
2053.68
253.316
1765.45
327.09
1624.9
405.303
1466.9
486.005
1341.23
570.376
1208.77
650.708
1089.04
716.845
983.579
742.03
910.098
694.278
878.687
547.104
870.061
309.742
826.02
504.108
-88.2997
1804.74
-15.7733
2188.52
72.472
1965.43
109.715
1728.21
151.73
1582.88
232.765
1385.87
358.911
1215.09
521.526
1046.16
695.768
914.796
841.551
837.797
899.006
852.642
824.747
952.948
614.296
1080.51
325.711
1114.61
829.818
-51.9229
1856.66
-164.643
2301.24
-240.482
2041.27
-329.537
1817.26
-415.943
1669.29
-463.072
1433
-448.132
1200.15
-384.679
982.705
-280.801
810.919
-144.966
701.961
3.08257
704.593
123.264
832.764
161.922
1041.85
102.055
1174.47
931.873
320.411
1536.25
269.648
2352
27.5851
2283.34
-198.106
2042.95
-389.931
1861.11
-594.087
1637.15
-798.369
1404.43
-990.4
1174.74
-1148.8
969.323
-1228.48
781.632
-1171.32
647.441
-947.493
608.934
-591.213
685.573
-225.282
808.542
706.591
689.241
847.012
1022.74
2018.5
873.581
2432.5
546.091
2370.44
244.853
2162.35
-30.4155
1912.42
-286.952
1660.96
-533.653
1421.44
-763.852
1199.52
-967.404
985.184
-1105.58
785.613
-1109.38
612.735
-904.956
481.15
-490.671
394.256
215.92
570.738
1546.55
2283.67
2809.06
3101.3
3177.12
3102.01
2920.75
2600.28
2181.37
1698.46
1193.83
718.912
321.44
2.29088e-05
-206.526
206.526
-206.526
-206.526
-206.526
301.874
-508.4
301.874
301.874
301.874
694.083
-392.209
694.083
694.083
969.206
-275.123
969.206
969.206
969.206
1128.92
-159.712
1128.92
1128.92
1198.9
-69.9824
1198.9
1198.9
1198.9
1188.78
10.1234
1188.78
1188.78
1188.78
1118.95
69.8263
1118.95
1118.95
1007.83
111.123
1007.83
1007.83
1007.83
879.855
127.973
879.855
879.855
746.478
133.377
746.478
746.478
746.478
623.717
122.761
623.717
623.717
623.717
563.227
60.4899
563.227
563.227
616.122
-52.8946
616.122
616.122
616.122
564.231
51.891
564.231
564.231
564.231
373.092
191.138
373.092
373.092
130.001
243.092
130.001
130.001
130.001
-274.77
404.771
-274.77
-274.77
-1182.46
907.694
-1182.46
-1182.46
-1182.46
-2517.37
1334.91
-2517.37
-2517.37
-2517.37
-4258.34
1740.96
-4258.34
-4258.34
-6360.03
2101.7
-6360.03
-6360.03
-6259.78
-6162.98
-6065.76
-8367.3
2400.76
-8258.67
-8126.37
-7979.07
-7830.58
-7680.27
-7530.05
-7373.1
-7198.36
-9692.09
2664.85
-9505.65
-9319.89
-9134.85
-8927.59
-8718.77
-8508.86
-8297.81
-8084.94
-10638.6
2772.71
-10401.2
-10161.9
-9921.29
-9679.95
-9430.78
-9167.14
-8902.35
-8634.74
-8365.69
-10829.3
2719.15
-10543.8
-10257.9
-9972.34
-9688
-9404.67
-9106.16
-8798.98
-8492.4
-10493.5
2294.5
-10197.1
-9891.58
-9568.84
-9245.06
-8919.09
-8591.96
-8261.88
-7903.66
-9451.56
1893.91
-9109.38
-8769.86
-8432.77
-8078.96
-7720.9
-7368.32
-7018.76
-6674.68
-7369.13
1042.04
-7022.3
-6678.61
-6334.34
-5990.2
-5647.42
-5317.25
-4990.33
-4667.89
-4355.37
-4359.97
315.205
-4114.09
-3903.46
-3701.68
-3511.34
-3331.14
-3199.17
-3152.68
-3103.69
-2743.66
-301.364
-2697.31
-2649.95
-2649.95
-2444.37
-205.577
-2260.33
-184.047
-2260.33
-2108.26
-152.062
-2108.26
-1987.82
-120.444
-1892.11
-95.7106
-1892.11
-1817.74
-74.3736
-1760.45
-57.2826
-1760.45
-1718.21
-42.2425
-1718.21
-1694.04
-24.1676
-1675.66
-18.3854
-1675.66
-1666.1
-9.55463
-1666.1
-1668.81
2.70343
-1668.2
-0.611354
-1668.2
-1678.31
10.1116
-1683.63
5.3233
-1683.63
-1693.35
9.71791
-1693.35
-1709.16
15.8155
-1715.73
6.56959
-1715.73
-1722.86
7.12429
-1722.86
-1732.57
9.71646
-1730.08
-2.49014
-1730.08
-1730.21
0.12153
-1720.56
-9.64338
-1720.56
-1709.02
-11.5441
-1709.02
-1698.04
-10.9792
-1678.33
-19.7067
-1678.33
-1656.4
-21.9308
-1656.4
-1635.5
-20.9041
-1605.96
-29.5408
-1605.96
-1576.5
-29.4582
-1540.91
-35.5874
-1540.91
-1502.6
-38.3147
-1502.6
-1463.72
-38.88
-1419.36
-44.3574
-1419.36
-1371.2
-48.1622
-1371.2
-1321.66
-49.5399
-1266.76
-54.8986
-1266.76
-1207.69
-59.0726
-1145.95
-61.7369
-1145.95
-1079.37
-66.5772
-1079.37
-1009.32
-70.0515
-938.161
-71.1597
-938.161
-861.296
-76.8641
-861.296
-779.99
-81.3062
-698.836
-81.1539
-698.836
-609.354
-89.482
-523.169
-86.1848
-523.169
-433.012
-90.1579
-433.012
-92.7675
-50.8641
-230.647
-50.8398
-279.37
-51.1341
-309.2
-51.5199
-338.899
-52.0788
-367.556
-52.7514
-394.707
-53.5597
-421.227
-54.4864
-446.906
-55.5369
-472.094
-56.7052
-496.802
-57.9921
-521.189
-59.3947
-545.314
-60.9123
-569.266
-62.543
-593.1
-64.2851
-616.868
-66.1364
-640.601
-68.0946
-664.321
-70.1565
-688.031
-72.3187
-711.719
-74.5769
-735.357
-76.9266
-758.906
-79.363
-782.318
-81.8813
-805.54
-84.4771
-828.525
-87.1466
-851.239
-89.887
-873.666
-92.6968
-895.818
-95.5752
-917.731
-98.5226
-939.471
-101.539
-961.121
-104.626
-982.77
-107.781
-1004.5
-111.007
-1026.4
-114.303
-1048.55
-117.675
-1071.09
-121.131
-1094.21
-124.68
-1118.19
-128.327
-1143.38
-132.069
-1170.08
-135.887
-1198.42
-139.745
-1228.32
-143.588
-1259.47
-147.35
-1291.41
-150.95
-1323.6
-154.299
-1355.49
-157.296
-1386.61
-159.82
-1416.6
-161.722
-1445.19
-162.799
-1472.1
-162.787
-1496.73
-161.35
-1517.9
-158.097
-1533.47
-152.607
-1540.14
-144.462
-1533.14
-133.254
-1505.71
-118.597
-1448.4
-100.053
-1347.65
-75.913
-1185.14
-37.6898
-903.523
17.2844
-126.669
40.1278
824.827
48.4694
1207.41
53.1343
1543
55.7891
1907.63
57.3236
2271.37
58.0167
2602.46
58.0568
2872.58
58.0972
3081.35
57.5022
3201.79
56.6655
3252.81
53.9145
3196.85
51.4267
3126.94
45.6659
2930.04
44.8025
2928.79
38.0136
2589.57
43.7386
2960.53
48.8989
2412.91
51.9829
3008.37
4403.82
-54.6026
-231.021
-54.4616
-279.511
-54.7117
-308.95
-55.0679
-338.543
-55.6218
-367.002
-56.3017
-394.027
-57.1309
-420.398
-58.0886
-445.949
-59.18
-471.002
-60.3976
-495.584
-61.7416
-519.845
-63.2086
-543.847
-64.797
-567.678
-66.5042
-591.393
-68.3278
-615.044
-70.2646
-638.665
-72.3111
-662.275
-74.4634
-685.879
-76.7166
-709.465
-79.0658
-733.008
-81.5054
-756.467
-84.0303
-779.793
-86.6354
-802.934
-89.3169
-825.844
-92.0719
-848.484
-94.8991
-870.839
-97.7986
-892.918
-100.771
-914.758
-103.819
-936.424
-106.943
-957.997
-110.144
-979.569
-113.422
-1001.23
-116.777
-1023.05
-120.213
-1045.12
-123.738
-1067.56
-127.367
-1090.58
-131.111
-1114.45
-134.975
-1139.52
-138.948
-1166.11
-142.999
-1194.37
-147.077
-1224.24
-151.116
-1255.43
-155.04
-1287.49
-158.766
-1319.88
-162.203
-1352.05
-165.256
-1383.55
-167.811
-1414.04
-169.717
-1443.29
-170.772
-1471.05
-170.709
-1496.8
-169.207
-1519.4
-165.924
-1536.75
-160.529
-1545.54
-152.709
-1540.96
-142.131
-1516.29
-128.389
-1462.15
-110.789
-1365.25
-86.7101
-1209.22
-48.3597
-941.874
17.6307
-192.659
43.6645
798.793
50.5729
1200.5
55.305
1538.26
57.2893
1905.65
57.9372
2270.72
57.8047
2602.59
57.2501
2873.13
56.825
3081.77
56.0019
3202.61
55.0976
3253.71
52.3898
3199.56
50.0787
3129.25
44.5259
2935.59
43.8574
2929.45
37.3346
2596.09
43.0097
2954.85
48.2526
2407.66
51.7966
3004.82
4365.46
-56.6138
-231.462
-56.4311
-279.693
-56.6544
-308.727
-56.998
-338.2
-57.5494
-366.451
-58.235
-393.342
-59.0767
-419.556
-60.0526
-444.973
-61.1673
-469.888
-62.4129
-494.338
-63.7892
-518.468
-65.2923
-542.344
-66.9203
-566.05
-68.6699
-589.643
-70.5385
-613.176
-72.5222
-636.681
-74.6172
-660.18
-76.8186
-683.677
-79.1212
-707.163
-81.5194
-730.61
-84.0074
-753.978
-86.5798
-777.22
-89.2318
-800.282
-91.9598
-823.116
-94.7618
-845.682
-97.6373
-867.964
-100.587
-889.968
-103.614
-911.731
-106.72
-933.318
-109.906
-954.811
-113.173
-976.302
-116.521
-997.878
-119.95
-1019.62
-123.466
-1041.6
-127.081
-1063.95
-130.811
-1086.85
-134.669
-1110.59
-138.661
-1135.52
-142.768
-1162
-146.95
-1190.19
-151.151
-1220.04
-155.297
-1251.28
-159.31
-1283.47
-163.104
-1316.08
-166.594
-1348.56
-169.689
-1380.46
-172.279
-1411.45
-174.224
-1441.34
-175.333
-1469.94
-175.367
-1496.76
-174.061
-1520.71
-171.166
-1539.65
-166.461
-1550.24
-159.712
-1547.71
-150.575
-1525.43
-138.489
-1474.23
-122.389
-1381.35
-99.0707
-1232.54
-61.8913
-979.053
13.4798
-268.03
50.0832
762.19
54.4618
1196.12
58.5961
1534.13
59.7662
1904.48
59.0613
2271.43
57.6817
2603.97
56.1774
2874.64
55.0502
3082.9
53.8411
3203.82
52.8102
3254.74
50.1558
3202.21
48.0651
3131.34
42.7919
2940.86
42.4124
2929.83
36.1925
2602.31
41.8748
2949.17
47.2311
2402.31
51.41
3000.64
4330.69
-58.9919
-231.966
-58.7695
-279.916
-58.9687
-308.528
-59.3017
-337.867
-59.8539
-365.898
-60.5489
-392.646
-61.4078
-418.697
-62.4076
-443.973
-63.5522
-468.743
-64.8333
-493.057
-66.25
-517.051
-67.7981
-540.796
-69.4752
-564.373
-71.2777
-587.841
-73.2021
-611.251
-75.2444
-634.639
-77.3997
-658.025
-79.6626
-681.415
-82.0273
-704.798
-84.4874
-728.15
-87.0367
-751.429
-89.6694
-774.588
-92.3808
-797.571
-95.1677
-820.329
-98.0287
-842.821
-100.964
-865.028
-103.977
-886.955
-107.07
-908.638
-110.246
-930.142
-113.508
-951.55
-116.855
-972.955
-120.287
-994.446
-123.806
-1016.1
-127.419
-1037.99
-131.14
-1060.23
-134.989
-1083
-138.984
-1106.59
-143.127
-1131.38
-147.395
-1157.73
-151.74
-1185.85
-156.095
-1215.69
-160.381
-1247
-164.512
-1279.34
-168.402
-1312.19
-171.969
-1345
-175.127
-1377.3
-177.78
-1408.8
-179.803
-1439.32
-181.042
-1468.7
-181.32
-1496.49
-180.475
-1521.55
-178.393
-1541.73
-174.976
-1553.66
-170.026
-1552.66
-163.07
-1532.38
-153.229
-1484.07
-138.906
-1395.67
-116.272
-1255.17
-78.2516
-1017.07
7.06279
-353.345
56.1553
713.097
60.657
1191.62
63.1644
1531.62
63.2004
1904.44
60.7952
2273.83
57.7498
2607.01
54.9734
2877.41
52.8932
3084.98
51.1363
3205.58
49.8978
3255.98
47.2904
3204.82
45.446
3133.18
40.5402
2945.77
40.5044
2929.87
34.6895
2608.12
40.4632
2943.39
45.9027
2396.87
49.7865
2996.76
4290.99
-61.2669
-232.515
-61.0195
-280.163
-61.1993
-308.348
-61.5261
-337.54
-62.0815
-365.343
-62.7881
-391.94
-63.6657
-417.819
-64.6905
-442.948
-65.866
-467.567
-67.1831
-491.74
-68.6407
-515.594
-70.234
-539.202
-71.9603
-562.647
-73.8155
-585.986
-75.7958
-609.271
-77.8963
-632.538
-80.1117
-655.809
-82.4359
-679.09
-84.8623
-702.372
-87.384
-725.628
-89.9942
-748.819
-92.687
-771.895
-95.4575
-794.8
-98.3031
-817.483
-101.223
-839.901
-104.219
-862.032
-107.294
-883.88
-110.453
-905.479
-113.7
-926.895
-117.036
-948.213
-120.464
-969.528
-123.98
-990.929
-127.589
-1012.49
-131.298
-1034.28
-135.125
-1056.4
-139.093
-1079.03
-143.223
-1102.46
-147.518
-1127.09
-151.949
-1153.3
-156.458
-1181.34
-160.97
-1211.18
-165.398
-1242.57
-169.651
-1275.09
-173.643
-1308.2
-177.295
-1341.34
-180.532
-1374.06
-183.277
-1406.05
-185.446
-1437.15
-186.954
-1467.19
-187.742
-1495.7
-187.81
-1521.48
-187.212
-1542.33
-185.94
-1554.93
-183.713
-1554.89
-179.735
-1536.36
-172.607
-1491.2
-160.086
-1408.19
-137.918
-1277.34
-98.2367
-1056.75
-4.25539
-447.326
60.5496
648.292
69.2231
1182.94
69.4555
1531.39
67.7541
1906.14
63.2719
2278.31
58.0965
2612.19
53.6634
2881.84
50.3413
3088.3
47.8401
3208.08
46.2964
3257.53
43.7097
3207.41
42.1519
3134.74
37.6706
2950.25
38.0985
2929.44
32.7279
2613.49
38.7414
2937.38
44.1842
2391.43
48.2823
2992.66
4258.12
-63.5483
-233.095
-63.2852
-280.426
-63.4505
-308.183
-63.7752
-337.215
-64.3367
-364.782
-65.0576
-391.219
-65.9563
-416.921
-67.0086
-441.896
-68.2171
-466.359
-69.5725
-490.385
-71.0733
-514.093
-72.7142
-537.561
-74.4922
-560.869
-76.4027
-584.075
-78.4414
-607.232
-80.6028
-630.377
-82.8811
-653.531
-85.2695
-676.702
-87.7605
-699.881
-90.3468
-723.042
-93.021
-746.145
-95.7768
-769.139
-98.6095
-791.968
-101.517
-814.576
-104.498
-836.92
-107.557
-858.973
-110.698
-880.739
-113.926
-902.251
-117.246
-923.574
-120.662
-944.797
-124.172
-966.017
-127.777
-987.324
-131.479
-1008.79
-135.287
-1030.47
-139.222
-1052.47
-143.313
-1074.94
-147.584
-1098.19
-152.037
-1122.63
-156.638
-1148.7
-161.32
-1176.66
-165.999
-1206.5
-170.58
-1237.99
-174.967
-1270.7
-179.074
-1304.09
-182.826
-1337.59
-186.166
-1370.72
-189.057
-1403.16
-191.487
-1434.72
-193.502
-1465.17
-195.227
-1493.97
-196.877
-1519.83
-198.662
-1540.54
-200.551
-1553.04
-201.959
-1553.48
-201.529
-1536.79
-197.165
-1495.57
-185.979
-1419.38
-163.648
-1299.67
-121.594
-1098.81
-20.1209
-548.799
63.0415
565.13
79.6071
1166.38
77.9172
1533.08
73.6245
1910.43
66.5758
2285.36
58.8136
2619.95
52.3155
2888.34
47.447
3093.17
43.9943
3211.53
42.0309
3259.49
39.4312
3210
38.1853
3135.99
34.1822
2954.25
35.18
2928.44
30.2992
2618.38
36.6892
2930.99
42.1204
2386
45.6662
2989.12
4222.48
-65.8147
-233.695
-65.5446
-280.697
-65.7002
-308.027
-66.0267
-336.889
-66.5972
-364.211
-67.335
-390.481
-68.2571
-415.999
-69.3389
-440.814
-70.5826
-465.115
-71.9784
-488.989
-73.5243
-512.547
-75.2148
-535.871
-77.0464
-559.037
-79.0142
-582.107
-81.1134
-605.133
-83.3379
-628.152
-85.6813
-651.188
-88.136
-674.247
-90.6941
-697.323
-93.3473
-720.388
-96.0879
-743.404
-98.9091
-766.318
-101.806
-789.07
-104.777
-811.605
-107.823
-833.874
-110.947
-855.849
-114.155
-877.531
-117.455
-898.952
-120.851
-920.178
-124.348
-941.3
-127.945
-962.42
-131.641
-983.628
-135.439
-1004.99
-139.348
-1026.56
-143.394
-1048.42
-147.61
-1070.72
-152.025
-1093.78
-156.642
-1118.02
-161.42
-1143.92
-166.284
-1171.79
-171.141
-1201.64
-175.884
-1233.24
-180.416
-1266.17
-184.649
-1299.86
-188.52
-1333.72
-192.004
-1367.24
-195.134
-1400.03
-198.031
-1431.82
-200.947
-1462.26
-204.269
-1490.65
-208.44
-1515.66
-213.728
-1535.25
-219.845
-1546.93
-225.618
-1547.71
-228.9
-1533.51
-226.834
-1497.63
-216.055
-1430.16
-192.617
-1323.11
-147.606
-1143.82
-39.144
-657.262
63.8342
462.151
90.9462
1139.27
88.8873
1535.14
81.1441
1918.18
70.8032
2295.7
59.9864
2630.77
51.003
2897.33
44.2666
3099.91
39.6454
3216.15
37.1331
3262
34.477
3212.66
33.5575
3136.9
30.0824
2957.73
31.7479
2926.78
27.4108
2622.71
34.3069
2924.09
39.7613
2380.54
42.7233
2986.15
4188.34
-68.0739
-234.306
-67.8042
-280.966
-67.9546
-307.877
-68.2871
-336.556
-68.8694
-363.629
-69.6269
-389.724
-70.5747
-415.051
-71.6884
-439.7
-72.9694
-463.834
-74.4077
-487.551
-76.0009
-510.954
-77.7431
-534.129
-79.6306
-557.149
-81.658
-580.08
-83.8199
-602.971
-86.1099
-625.862
-88.5209
-648.777
-91.0446
-671.724
-93.6723
-694.695
-96.3951
-717.666
-99.2047
-740.595
-102.094
-763.428
-105.058
-786.106
-108.096
-808.567
-111.208
-830.762
-114.4
-852.658
-117.678
-874.253
-121.052
-895.578
-124.528
-916.702
-128.109
-937.719
-131.796
-958.733
-135.586
-979.838
-139.481
-1001.1
-143.495
-1022.55
-147.654
-1044.26
-151.999
-1066.38
-156.563
-1089.21
-161.35
-1113.23
-166.314
-1138.96
-171.37
-1166.74
-176.413
-1196.6
-181.331
-1228.33
-186.019
-1261.49
-190.394
-1295.48
-194.416
-1329.7
-198.118
-1363.54
-201.657
-1396.5
-205.375
-1428.1
-209.825
-1457.81
-215.703
-1484.77
-223.609
-1507.75
-233.629
-1525.23
-244.883
-1535.67
-255.312
-1537.28
-261.874
-1526.95
-261.07
-1498.44
-249.369
-1441.86
-223.644
-1348.83
-175.252
-1192.21
-59.8991
-772.615
64.1515
338.101
102.651
1100.77
102.418
1535.37
90.742
1929.85
76.1263
2310.32
61.6982
2645.2
49.7978
2909.23
40.8482
3108.86
34.8273
3222.17
31.623
3265.21
28.8537
3215.43
28.2691
3137.49
25.3639
2960.64
27.7976
2924.34
24.0549
2626.45
31.6057
2916.54
37.0881
2375.06
40.5162
2982.73
4157.69
-70.3271
-234.919
-70.0641
-281.229
-70.2142
-307.727
-70.5563
-336.214
-71.1535
-363.032
-71.9333
-388.944
-72.9093
-414.075
-74.0572
-438.552
-75.3778
-462.514
-76.8608
-486.068
-78.5034
-509.311
-80.2997
-532.332
-82.2452
-555.204
-84.3345
-577.991
-86.5616
-600.744
-88.9196
-623.504
-91.4007
-646.295
-93.996
-669.128
-96.6961
-691.995
-99.4913
-714.87
-102.373
-737.713
-105.333
-760.468
-108.367
-783.072
-111.474
-805.461
-114.655
-827.58
-117.917
-849.396
-121.268
-870.901
-124.719
-892.128
-128.276
-913.145
-131.946
-934.05
-135.725
-954.954
-139.613
-975.95
-143.61
-997.099
-147.731
-1018.43
-152.006
-1039.99
-156.482
-1061.9
-161.199
-1084.49
-166.163
-1108.27
-171.322
-1133.8
-176.58
-1161.48
-181.823
-1191.35
-186.927
-1223.22
-191.786
-1256.63
-196.328
-1290.94
-200.555
-1325.47
-204.613
-1359.48
-208.871
-1392.24
-213.999
-1422.98
-220.937
-1450.87
-230.657
-1475.05
-243.69
-1494.72
-259.558
-1509.37
-276.407
-1518.82
-291.114
-1522.57
-299.853
-1518.21
-298.793
-1499.49
-284.618
-1456.03
-255.3
-1378.15
-203.49
-1244.02
-83.9537
-892.151
64.1715
189.976
114.4
1050.54
118.206
1531.57
102.808
1945.25
82.8336
2330.29
64.0444
2663.99
48.7721
2924.5
37.2427
3120.38
29.5751
3229.84
25.5231
3269.26
22.5716
3218.38
22.323
3137.74
20.0232
2962.94
23.3249
2921.04
20.2251
2629.55
28.5765
2908.19
34.1497
2369.49
36.6204
2980.25
4124.26
-72.5769
-235.527
-72.3262
-281.48
-72.4803
-307.572
-72.8359
-335.858
-73.4511
-362.416
-74.2559
-388.139
-75.2626
-413.068
-76.4472
-437.368
-77.8096
-461.151
-79.3396
-484.538
-81.034
-507.617
-82.8866
-530.48
-84.8926
-553.198
-87.0462
-575.837
-89.341
-598.449
-91.7696
-621.075
-94.3235
-643.742
-96.9933
-666.458
-99.7686
-689.219
-102.639
-712
-105.595
-734.757
-108.629
-757.434
-111.736
-779.965
-114.915
-802.282
-118.168
-824.327
-121.503
-846.061
-124.929
-867.474
-128.46
-888.598
-132.102
-909.502
-135.863
-930.29
-139.739
-951.077
-143.728
-971.961
-147.83
-992.997
-152.06
-1014.2
-156.454
-1035.59
-161.065
-1057.29
-165.941
-1079.62
-171.09
-1103.12
-176.453
-1128.43
-181.925
-1156.01
-187.379
-1185.9
-192.684
-1217.92
-197.733
-1251.58
-202.484
-1286.19
-207.028
-1320.93
-211.701
-1354.81
-217.209
-1386.73
-224.67
-1415.52
-235.428
-1440.11
-250.536
-1459.94
-270.043
-1475.21
-292.433
-1486.98
-314.593
-1496.66
-332.408
-1504.76
-341.627
-1508.99
-338.525
-1502.6
-320.314
-1474.24
-286.1
-1412.37
-231.175
-1298.95
-119.029
-1004.3
57.642
13.3042
125.739
982.442
135.583
1521.72
117.547
1963.29
91.3272
2356.51
67.1626
2688.15
47.9948
2943.67
33.5021
3134.88
23.9241
3239.42
18.8575
3274.32
15.6441
3221.6
15.7247
3137.66
14.0611
2964.6
18.3282
2916.77
15.919
2631.96
25.2169
2898.89
30.9696
2363.73
32.6285
2978.6
4090.31
-74.8256
-236.123
-74.592
-281.713
-74.7546
-307.41
-75.1273
-335.486
-75.7635
-361.78
-76.5962
-387.306
-77.6361
-412.028
-78.8598
-436.144
-80.2665
-459.745
-81.8459
-482.958
-83.5945
-505.868
-85.5057
-528.569
-87.5747
-551.129
-89.7951
-573.617
-92.1602
-596.084
-94.6622
-618.574
-97.2918
-641.112
-100.039
-663.711
-102.893
-686.366
-105.842
-709.051
-108.876
-731.723
-111.986
-754.323
-115.169
-776.783
-118.422
-799.029
-121.75
-821
-125.16
-842.65
-128.665
-863.969
-132.278
-884.985
-136.009
-905.77
-139.864
-926.435
-143.841
-947.1
-147.935
-967.868
-152.145
-988.787
-156.488
-1009.86
-161.003
-1031.08
-165.752
-1052.54
-170.792
-1074.58
-176.134
-1097.77
-181.713
-1122.86
-187.412
-1150.31
-193.091
-1180.22
-198.614
-1212.39
-203.887
-1246.3
-208.932
-1281.15
-214.004
-1315.85
-219.76
-1349.05
-227.387
-1379.1
-238.524
-1404.38
-254.778
-1423.86
-276.866
-1437.86
-303.786
-1448.29
-332.564
-1458.2
-358.826
-1470.4
-377.852
-1485.73
-385.497
-1501.34
-378.56
-1509.53
-354.957
-1497.85
-314.76
-1452.56
-256.388
-1357.32
-155.511
-1105.17
36.1345
-178.341
136.333
882.243
153.614
1504.44
134.842
1982.06
102.044
2389.31
71.2751
2718.92
47.5378
2967.4
29.6761
3152.74
17.9072
3251.19
11.6484
3280.58
8.08393
3225.16
8.47765
3137.26
7.47928
2965.6
12.8065
2911.45
11.1328
2633.64
21.557
2888.47
27.521
2357.77
29.8747
2976.24
4058.45
-77.0754
-236.703
-76.8633
-281.926
-77.0386
-307.234
-77.432
-335.092
-78.0923
-361.12
-78.9557
-386.443
-80.0315
-410.953
-81.2968
-434.879
-82.7502
-458.291
-84.3815
-481.327
-86.1867
-504.063
-88.1591
-526.596
-90.2936
-548.994
-92.5835
-571.327
-95.0217
-593.646
-97.5999
-615.995
-100.308
-638.403
-103.136
-660.884
-106.071
-683.431
-109.102
-706.02
-112.217
-728.608
-115.407
-751.133
-118.669
-773.522
-122
-795.698
-125.405
-817.595
-128.894
-839.161
-132.48
-860.383
-136.179
-881.286
-140.002
-901.947
-143.956
-922.481
-148.037
-943.018
-152.24
-963.665
-156.562
-984.465
-161.02
-1005.4
-165.66
-1026.44
-170.55
-1047.65
-175.761
-1069.37
-181.305
-1092.23
-187.111
-1117.05
-193.049
-1144.37
-198.97
-1174.3
-204.737
-1206.63
-210.298
-1240.74
-215.805
-1275.64
-221.804
-1309.86
-229.437
-1341.42
-240.502
-1368.04
-257.087
-1387.79
-280.672
-1400.27
-310.989
-1407.54
-345.41
-1413.87
-379.381
-1424.23
-407.648
-1442.14
-425.52
-1467.86
-429.495
-1497.37
-417.174
-1521.86
-387.164
-1527.86
-340.16
-1499.57
-277.037
-1420.44
-179.371
-1202.84
19.2515
-376.964
146.811
754.684
171.586
1479.67
154.21
1999.44
115.313
2428.21
76.7122
2757.52
47.4979
2996.62
25.813
3174.42
11.5572
3265.44
3.91645
3288.22
-0.0977889
3229.17
0.588344
3136.58
0.27858
2965.91
6.75692
2904.97
5.8626
2634.53
17.582
2876.75
23.8016
2351.55
24.7037
2975.34
4024.08
-79.3285
-237.262
-79.1418
-282.112
-79.334
-307.042
-79.7516
-334.675
-80.439
-360.433
-81.336
-385.546
-82.4504
-409.838
-83.76
-433.569
-85.2627
-456.789
-86.9483
-479.641
-88.8127
-502.199
-90.8489
-524.56
-93.0516
-546.792
-95.4138
-568.965
-97.928
-591.132
-100.585
-613.338
-103.376
-635.613
-106.287
-657.972
-109.307
-680.411
-112.423
-702.905
-115.622
-725.408
-118.896
-747.859
-122.24
-770.178
-125.651
-792.287
-129.137
-814.109
-132.707
-835.591
-136.378
-856.712
-140.166
-877.498
-144.085
-898.028
-148.141
-918.425
-152.332
-938.828
-156.648
-959.349
-161.086
-980.027
-165.663
-1000.82
-170.429
-1021.67
-175.465
-1042.62
-180.852
-1063.98
-186.608
-1086.47
-192.655
-1111
-198.848
-1138.18
-205.032
-1168.11
-211.09
-1200.57
-217.07
-1234.76
-223.369
-1269.34
-231
-1302.22
-241.772
-1330.65
-258.099
-1351.71
-282.187
-1363.7
-314.694
-1367.77
-353.63
-1368.6
-394.44
-1373.06
-431.328
-1387.34
-458.901
-1414.56
-473.174
-1453.59
-471.644
-1498.9
-452.788
-1540.71
-415.77
-1564.88
-361.498
-1553.84
-292.527
-1489.41
-195.505
-1299.86
9.64916
-582.119
158.009
606.324
189.095
1448.58
175.016
2013.51
131.249
2471.98
83.8798
2804.89
48.0301
3032.47
21.9614
3200.49
4.90731
3282.5
-4.31755
3297.45
-8.87951
3233.74
-7.9494
3135.65
-7.5439
2965.5
0.189349
2897.24
0.100661
2634.62
13.3112
2863.54
19.8614
2345
21.1375
2974.06
3990.32
-81.5872
-237.794
-81.4293
-282.27
-81.6425
-306.829
-82.0876
-334.23
-82.8055
-359.715
-83.739
-384.612
-84.8948
-408.682
-86.2512
-432.213
-87.8058
-455.234
-89.5485
-477.898
-91.4747
-500.273
-93.5775
-522.457
-95.8511
-544.518
-98.2884
-566.527
-100.882
-588.538
-103.622
-610.598
-106.497
-632.738
-109.496
-654.974
-112.604
-677.303
-115.808
-699.7
-119.096
-722.121
-122.457
-744.498
-125.886
-766.75
-129.381
-788.791
-132.951
-810.54
-136.606
-831.936
-140.364
-852.954
-144.244
-873.618
-148.263
-894.01
-152.426
-914.261
-156.731
-934.523
-161.166
-954.914
-165.724
-975.469
-170.423
-996.122
-175.319
-1016.77
-180.504
-1037.43
-186.073
-1058.41
-192.053
-1080.49
-198.353
-1104.7
-204.819
-1131.71
-211.302
-1161.63
-217.749
-1194.12
-224.409
-1228.1
-232.108
-1261.64
-242.546
-1291.79
-258.287
-1314.9
-282.118
-1327.88
-315.66
-1330.16
-357.856
-1325.57
-404.471
-1321.99
-449.261
-1328.27
-486.013
-1350.59
-510.05
-1390.53
-518.576
-1445.06
-510.18
-1507.29
-484.097
-1566.8
-439.889
-1609.08
-378.374
-1615.35
-302.9
-1564.89
-204.903
-1397.86
3.33294
-790.355
168.751
440.906
205.803
1411.53
196.884
2022.43
149.718
2519.14
93.1664
2861.44
49.376
3076.26
18.182
3231.69
-2.00528
3302.69
-13.0276
3308.47
-18.2464
3238.95
-17.1395
3134.54
-15.9661
2964.33
-6.93622
2888.21
-6.17171
2633.86
8.77561
2848.59
15.6445
2338.13
15.7665
2973.94
3956.55
-83.8535
-238.297
-83.7279
-282.396
-83.9659
-306.591
-84.442
-333.754
-85.1934
-358.963
-86.1664
-383.639
-87.3664
-407.483
-88.7725
-430.806
-90.3818
-453.625
-92.1842
-476.096
-94.175
-498.282
-96.3471
-520.285
-98.6946
-542.171
-101.21
-564.012
-103.886
-585.863
-106.711
-607.773
-109.675
-629.774
-112.765
-651.884
-115.965
-674.102
-119.262
-696.404
-122.642
-718.741
-126.093
-741.046
-129.611
-763.232
-133.194
-785.207
-136.851
-806.883
-140.593
-828.193
-144.442
-849.105
-148.419
-869.642
-152.541
-889.888
-156.816
-909.985
-161.24
-930.099
-165.798
-950.356
-170.481
-970.786
-175.306
-991.298
-180.335
-1011.75
-185.672
-1032.09
-191.432
-1052.65
-197.645
-1074.28
-204.215
-1098.13
-210.981
-1124.94
-217.833
-1154.78
-224.87
-1187.09
-232.716
-1220.26
-242.875
-1251.48
-257.907
-1276.76
-280.999
-1291.81
-314.64
-1294.24
-358.847
-1285.96
-410.069
-1274.35
-461.89
-1270.17
-507.246
-1282.92
-540.571
-1317.26
-558.567
-1372.53
-559.772
-1443.85
-543.704
-1523.36
-510.157
-1600.34
-458.964
-1660.28
-390.727
-1683.59
-308.753
-1646.86
-208.691
-1497.92
-5.77367
-993.272
175.399
259.733
221.833
1365.09
219.833
2024.43
170.328
2568.65
104.822
2926.95
51.8689
3129.21
14.573
3268.98
-9.14074
3326.4
-22.1878
3321.52
-28.1866
3244.95
-26.9788
3133.33
-24.9836
2962.33
-14.6499
2877.87
-12.9482
2632.15
3.99566
2831.65
11.2199
2330.91
10.5446
2974.62
3918.93
-86.1297
-238.766
-86.0396
-282.486
-86.3062
-306.325
-86.8166
-333.243
-87.6048
-358.175
-88.6203
-382.624
-89.8674
-406.235
-91.326
-429.348
-92.9928
-451.958
-94.8578
-474.231
-96.9159
-496.224
-99.1603
-518.041
-101.585
-539.746
-104.182
-561.415
-106.943
-583.102
-109.857
-604.858
-112.914
-626.717
-116.098
-648.7
-119.394
-670.806
-122.788
-693.01
-126.263
-715.266
-129.809
-737.5
-133.42
-759.622
-137.095
-781.533
-140.841
-803.137
-144.675
-824.359
-148.618
-845.162
-152.695
-865.565
-156.925
-885.658
-161.317
-905.593
-165.866
-925.55
-170.554
-945.668
-175.366
-965.973
-180.321
-986.343
-185.485
-1006.58
-190.979
-1026.6
-196.935
-1046.7
-203.394
-1067.82
-210.253
-1091.27
-217.369
-1117.83
-224.736
-1147.41
-232.767
-1179.05
-242.722
-1210.3
-257.037
-1237.17
-279.127
-1254.66
-312.213
-1258.73
-357.374
-1249.08
-411.973
-1231.36
-469.78
-1216.54
-523.051
-1216.9
-565.177
-1240.79
-592.142
-1290.3
-602.276
-1362.4
-595.264
-1450.87
-571.274
-1547.35
-530.455
-1641.16
-472.824
-1717.91
-398.776
-1757.64
-311.012
-1734.62
-208.555
-1600.38
-28.2797
-1173.55
174.233
57.2201
238.427
1300.9
243.797
2019.06
192.381
2620.06
118.859
3000.47
55.8986
3192.17
11.2965
3313.58
-16.4581
3354.15
-31.771
3336.83
-38.6869
3251.87
-37.4587
3132.1
-34.5966
2959.47
-22.9677
2866.24
-20.2076
2629.39
-0.968613
2812.41
6.55876
2323.38
7.18649
2973.99
3881.76
-88.4181
-239.198
-88.3664
-282.538
-88.6653
-306.026
-89.2134
-332.695
-90.0415
-357.347
-91.1027
-381.562
-92.3998
-404.938
-93.9139
-427.834
-95.641
-450.231
-97.5715
-472.301
-99.7001
-494.095
-102.02
-515.721
-104.524
-537.242
-107.206
-558.733
-110.056
-580.252
-113.063
-601.85
-116.216
-623.565
-119.499
-645.417
-122.896
-667.409
-126.39
-689.516
-129.965
-711.69
-133.61
-733.855
-137.317
-755.914
-141.087
-777.763
-144.928
-799.296
-148.857
-820.43
-152.897
-841.121
-157.078
-861.385
-161.42
-881.316
-165.935
-901.077
-170.615
-920.87
-175.438
-940.845
-180.387
-961.025
-185.475
-981.255
-190.777
-1001.28
-196.431
-1020.95
-202.59
-1040.54
-209.309
-1061.1
-216.49
-1084.09
-224.057
-1110.26
-232.247
-1139.22
-242.042
-1169.26
-255.663
-1196.68
-276.609
-1216.22
-308.698
-1222.58
-354.027
-1213.4
-410.946
-1192.16
-473.646
-1168.66
-533.982
-1156.2
-584.355
-1166.52
-619.811
-1205.33
-638.291
-1271.82
-639.561
-1361.13
-624.097
-1466.33
-592.439
-1579.01
-544.938
-1688.66
-481.724
-1781.12
-403.013
-1836.35
-310.702
-1826.93
-205.872
-1705.21
-55.0511
-1324.37
160.034
-157.865
257.256
1203.68
267.974
2008.34
214.951
2673.09
135.032
3080.39
61.8375
3265.37
8.60311
3366.82
-23.8999
3386.66
-41.7478
3354.68
-49.7308
3259.85