/*--------------------------------*- C++ -*----------------------------------*\
| =========                 |                                                 |
| \\      /  F ield         | OpenFOAM: The Open Source CFD Toolbox           |
|  \\    /   O peration     | Version:  4.1                                   |
|   \\  /    A nd           | Web:      www.OpenFOAM.org                      |
|    \\/     M anipulation  |                                                 |
\*---------------------------------------------------------------------------*/
FoamFile
{
    version     2.0;
    format      ascii;
    class       volScalarField;
    location    "27";
    object      p;
}
// * * * * * * * * * * * * * * * * * * * * * * * * * * * * * * * * * * * * * //

dimensions      [0 2 -2 0 0 0 0];

internalField   nonuniform List<scalar> 
225
(
523.379
469.982
418.15
369.739
324.848
282.831
243.476
206.472
171.378
138.014
107.072
78.9335
49.9045
14.9857
-14.1665
56.9443
34.6834
28.9247
25.2145
19.7404
14.0329
8.88002
4.49127
1.00734
-1.45141
-2.6427
-2.14105
-0.0446001
1.82693
2.08711
-45.8381
-52.4811
-46.7141
-42.5673
-39.4767
-35.8813
-31.995
-28.0576
-24.1532
-20.4374
-17.0918
-14.0247
-10.9479
-8.29506
-7.06082
0.295654
-2.1224
2.47041
2.79454
2.84813
3.06331
2.97418
2.59687
2.01531
1.25613
0.299382
-0.809964
-1.72026
-1.87248
-1.56202
16.7235
14.3907
15.9444
13.8464
12.4275
11.184
9.77401
8.39215
7.13471
6.04365
5.14264
4.43009
3.95251
3.9198
4.16465
7.4953
5.47224
6.44623
5.22689
5.02389
5.00812
4.92034
4.95366
5.10924
5.35274
5.67203
6.03491
6.35457
6.61128
6.78601
4.02388
2.86843
3.95402
3.63091
4.01774
4.41186
4.71083
5.06148
5.41804
5.74281
6.0325
6.2864
6.46463
6.54565
6.56136
5.70172
5.1439
5.99824
5.76922
5.96773
6.08022
6.10412
6.14942
6.174
6.16916
6.14546
6.11765
6.08399
6.03813
5.98964
6.00891
5.6835
6.19431
5.91841
5.96122
5.93039
5.85529
5.80818
5.75254
5.69195
5.63267
5.57954
5.5328
5.4867
5.43549
4.68908
4.48139
4.82705
4.65065
4.72341
4.73235
4.71944
4.72762
4.72502
4.71823
4.70863
4.69389
4.67168
4.63641
4.57867
3.31894
3.20277
3.50044
3.44655
3.56617
3.61287
3.64149
3.67646
3.69308
3.69995
3.69795
3.68542
3.66136
3.62311
3.55757
2.34484
2.28466
2.53892
2.54024
2.65858
2.69997
2.72906
2.75616
2.76372
2.76163
2.75021
2.7293
2.69943
2.66063
2.59597
1.56559
1.5306
1.73292
1.7467
1.84588
1.87228
1.89463
1.91177
1.91211
1.90526
1.89069
1.86844
1.83887
1.80412
1.74623
0.88076
0.868646
1.02958
1.03428
1.1113
1.12491
1.14275
1.15484
1.15429
1.14936
1.13848
1.12146
1.09648
1.06532
1.01108
0.438665
0.399378
0.455271
0.423191
0.459345
0.440656
0.434311
0.420246
0.399325
0.37662
0.349995
0.321296
0.290859
0.260917
0.217908
)
;

boundaryField
{
    inletFace
    {
        type            zeroGradient;
    }
    inlet
    {
        type            zeroGradient;
    }
    inletWalls
    {
        type            zeroGradient;
    }
    outletInlet
    {
        type            fixedValue;
        value           uniform 0;
    }
}


// ************************************************************************* //
