/*--------------------------------*- C++ -*----------------------------------*\
| =========                 |                                                 |
| \\      /  F ield         | OpenFOAM: The Open Source CFD Toolbox           |
|  \\    /   O peration     | Version:  4.1                                   |
|   \\  /    A nd           | Web:      www.OpenFOAM.org                      |
|    \\/     M anipulation  |                                                 |
\*---------------------------------------------------------------------------*/
FoamFile
{
    version     2.0;
    format      ascii;
    class       surfaceScalarField;
    location    "27";
    object      phi;
}
// * * * * * * * * * * * * * * * * * * * * * * * * * * * * * * * * * * * * * //

dimensions      [0 3 -1 0 0 0 0];

internalField   nonuniform List<scalar> 
420
(
-949.879
2249.78
-1573.95
1924.28
-2054
1779.95
-2424.23
1670.13
-2699.86
1575.82
-2888.37
1488.42
-2993.05
1404.58
-3013.85
1321
-2949.61
1235.66
-2797.23
1147.52
-2551.16
1054.13
-2192.99
941.735
-1687.14
794.065
-1012.67
625.706
287.236
373.328
1876.44
442.744
1854.86
437.302
1785.39
406.699
1700.74
380.582
1601.94
359.902
1509.1
345.296
1419.19
337.541
1328.76
333.488
1239.71
326.959
1154.05
309.619
1071.48
267.483
983.877
191.45
870.103
111.467
705.683
398.675
33.5752
1842.87
-97.39
1985.83
-253.61
1941.62
-371.117
1818.24
-473.181
1704.01
-567.528
1603.45
-651.745
1503.4
-725.795
1402.81
-788.071
1301.99
-837.303
1203.28
-868.221
1102.4
-856.079
971.74
-740.323
754.349
-434.268
399.627
-35.6113
28.7753
1814.09
-100.65
2115.26
-225.551
2066.53
-304.492
1897.18
-368.152
1767.67
-416.947
1652.25
-446.223
1532.68
-457.015
1413.59
-451.855
1296.83
-430.154
1181.59
-387.226
1059.47
-311.874
896.387
-192.863
635.339
-48.4074
255.164
-84.0242
169.627
1644.46
146.163
2138.73
123.741
2088.95
122.878
1898.04
126.952
1763.6
135.815
1643.38
149.112
1519.38
166.599
1396.11
186.947
1276.48
208.131
1160.4
229.129
1038.47
243.816
881.694
232.995
646.154
155.219
332.936
71.2037
223.08
1421.38
244.179
2117.62
234.747
2098.39
236.03
1896.76
240.378
1759.25
244.314
1639.45
246.556
1517.14
245.257
1397.4
241.168
1280.56
233.991
1167.57
221.376
1051.08
199.125
903.937
156.125
689.151
78.2986
410.777
149.509
203.322
1218.06
238.368
2082.57
213.617
2123.14
191.411
1918.97
177.204
1773.45
163.775
1652.88
150.042
1530.87
135.899
1411.54
121.074
1295.39
106.922
1181.72
92.8205
1065.17
75.7596
920.989
52.0135
712.902
19.0232
443.786
168.534
171.855
1046.21
221.981
2032.43
199.423
2145.7
170.41
1947.99
152.059
1791.8
137.677
1667.26
122.79
1545.76
108.59
1425.74
95.5958
1308.38
83.1167
1194.2
71.4965
1076.79
58.6421
933.839
40.3302
731.215
15.7607
468.365
184.287
146.099
900.108
210.06
1968.47
196.88
2158.88
170.059
1974.81
152.412
1809.45
139.542
1680.13
127.079
1558.23
113.873
1438.94
101.33
1320.93
89.4289
1206.1
76.9951
1089.22
63.0995
947.732
44.316
749.993
19.174
493.5
203.453
116.764
783.349
184.852
1900.38
179.63
2164.11
154.316
2000.13
137.228
1826.54
124.009
1693.35
111.38
1570.85
98.9689
1451.35
86.1149
1333.78
73.8738
1218.34
62.1069
1100.99
49.0253
960.809
32.8554
766.159
13.1845
513.168
216.638
83.1615
700.193
143.129
1840.41
144.683
2162.56
122.761
2022.05
106.154
1843.15
94.4689
1705.03
82.5889
1582.73
71.1795
1462.76
60.3965
1344.56
49.4696
1229.26
39.4345
1111.02
29.7443
970.491
18.0793
777.82
5.23782
526.012
221.881
51.2435
648.949
97.9216
1793.73
102.706
2157.77
87.3802
2037.38
73.1516
1857.38
63.144
1715.04
54.2459
1591.63
44.8668
1472.14
36.1564
1353.27
28.18
1237.24
20.4291
1118.76
13.6845
977.227
6.73897
784.758
-0.406806
533.163
221.486
25.1302
623.81
57.72
1761.13
63.5124
2151.97
53.4734
2047.43
43.8912
1866.96
36.1767
1722.76
29.5444
1598.26
23.495
1478.19
17.0477
1359.72
11.3022
1242.99
6.60054
1123.47
2.467
981.359
-1.07681
788.312
-3.67984
535.788
217.812
1.41541
622.398
24.064
1738.5
33.3737
2142.67
27.7413
2053.06
20.3815
1874.32
15.079
1728.06
9.54144
1603.8
4.5818
1483.14
0.0276141
1364.27
-4.84713
1247.86
-8.36399
1126.98
-9.67614
982.679
-9.73396
788.393
-7.13857
533.209
210.658
-11.743
-3.13612
1.45742
-0.396805
-5.09056
-8.84283
-11.791
-15.2312
-18.0957
-20.2319
-21.7958
-21.1312
-18.1451
-12.4141
)
;

boundaryField
{
    inletFace
    {
        type            calculated;
        value           nonuniform List<scalar> 
450
(
-1.24556e-14
6.33869e-13
-9.52311e-14
-1.6497e-13
1.19227e-13
-1.88915e-13
-6.67994e-14
6.73086e-14
-1.02599e-13
-2.70798e-14
5.89339e-14
-3.05502e-14
-8.39267e-15
7.69454e-15
9.05012e-16
-2.11538e-12
-2.21888e-12
1.03173e-13
-3.05825e-13
-2.46474e-13
2.01241e-14
-2.90757e-13
-1.38124e-13
8.53139e-15
-1.35452e-13
-5.8115e-14
4.52237e-14
-2.02878e-14
-3.98088e-15
-4.03686e-16
-2.27829e-12
-2.3726e-12
-5.51406e-14
-3.20176e-13
-2.14547e-13
-1.07034e-13
-2.84355e-13
-9.59948e-14
-8.78488e-14
-1.08954e-13
-3.80485e-14
-2.007e-14
-3.08008e-15
1.05594e-14
7.40678e-16
-2.56536e-12
-2.22613e-12
-1.40882e-13
-5.5216e-13
-1.85176e-13
-2.17025e-13
-4.03116e-13
-9.49442e-14
-1.43633e-13
-1.81052e-13
-2.64533e-14
-7.60085e-14
-6.81715e-14
4.39945e-14
7.35009e-14
-2.38754e-12
-2.25332e-12
-2.69758e-13
-5.48248e-13
-1.73098e-13
-2.28871e-13
-3.83631e-13
-1.19382e-13
-1.33375e-13
-1.58235e-13
-2.42037e-14
-4.86062e-14
-7.12647e-14
8.04964e-15
7.75476e-14
-2.11252e-12
-2.2935e-12
-4.8564e-13
-4.65068e-13
-1.66235e-13
-1.84093e-13
-3.52914e-13
-1.28207e-13
-1.17759e-13
-1.34427e-13
-1.08063e-14
-2.28573e-14
-6.4477e-14
2.87366e-15
9.46767e-15
-1.88005e-12
-2.35877e-12
-7.42723e-13
-4.37978e-13
-2.14535e-13
-2.04289e-13
-3.33937e-13
-1.73007e-13
-1.56502e-13
-1.30626e-13
-4.19137e-14
-8.87562e-14
-5.16595e-14
-7.07903e-14
-2.00838e-13
-1.63493e-12
-2.37709e-12
-9.61855e-13
-4.46015e-13
-2.38441e-13
-2.26449e-13
-3.17203e-13
-2.02842e-13
-1.85813e-13
-1.23593e-13
-7.87543e-14
-1.379e-13
-4.30489e-14
-1.72785e-14
-2.15449e-13
-1.38292e-12
-2.36314e-12
-1.13517e-12
-4.7624e-13
-2.4749e-13
-2.0495e-13
-3.14812e-13
-2.13654e-13
-1.60436e-13
-1.43999e-13
-8.86916e-14
-8.38603e-14
-4.62182e-14
-1.11053e-14
-4.78986e-14
-1.19305e-12
-2.30999e-12
-1.2718e-12
-5.26311e-13
-2.55579e-13
-1.84546e-13
-2.94885e-13
-2.19832e-13
-1.30552e-13
-1.48838e-13
-9.29271e-14
-4.42481e-14
-4.18265e-14
-2.55218e-14
4.35393e-14
-9.79533e-13
-2.2391e-12
-1.37767e-12
-5.54865e-13
-2.66305e-13
-1.75636e-13
-2.59644e-13
-2.22641e-13
-1.21885e-13
-1.17959e-13
-9.83373e-14
-2.7027e-14
1.29222e-14
1.04553e-15
1.29042e-13
-8.47404e-13
-2.17894e-12
-1.41982e-12
-5.94183e-13
-2.85498e-13
-1.39771e-13
-2.57145e-13
-2.32179e-13
-9.08285e-14
-1.13064e-13
-1.09164e-13
3.61924e-14
2.43802e-14
1.3379e-13
1.79799e-13
-7.83927e-13
-2.11679e-12
-1.45112e-12
-6.27211e-13
-2.99032e-13
-1.30738e-13
-2.45544e-13
-2.50595e-13
-8.37335e-14
-1.11103e-13
-1.07636e-13
4.90798e-14
2.37818e-14
1.48841e-13
1.61938e-13
-7.36428e-13
-2.06646e-12
-1.47304e-12
-6.44802e-13
-3.05619e-13
-1.35319e-13
-2.35718e-13
-2.64222e-13
-7.70745e-14
-1.13015e-13
-1.12885e-13
5.25384e-14
2.74366e-14
1.344e-13
1.36534e-13
-7.23639e-13
-1.9857e-12
-1.46008e-12
-6.57854e-13
-3.06247e-13
-1.45491e-13
-2.34528e-13
-2.48233e-13
-8.82589e-14
-1.17055e-13
-9.91384e-14
3.82132e-14
3.22707e-14
1.29484e-13
7.5822e-14
1.24556e-14
-6.33869e-13
9.52311e-14
1.6497e-13
-1.19227e-13
1.88915e-13
6.67994e-14
-6.73086e-14
1.02599e-13
2.70798e-14
-5.89339e-14
3.05502e-14
8.39267e-15
-7.69454e-15
-9.05012e-16
2.11538e-12
2.21888e-12
-1.03173e-13
3.05825e-13
2.46474e-13
-2.01241e-14
2.90757e-13
1.38124e-13
-8.53139e-15
1.35452e-13
5.8115e-14
-4.52237e-14
2.02878e-14
3.98088e-15
4.03686e-16
2.27829e-12
2.3726e-12
5.51406e-14
3.20176e-13
2.14547e-13
1.07034e-13
2.84355e-13
9.59948e-14
8.78488e-14
1.08954e-13
3.80485e-14
2.007e-14
3.08008e-15
-1.05594e-14
-7.40678e-16
2.56536e-12
2.22613e-12
1.40882e-13
5.5216e-13
1.85176e-13
2.17025e-13
4.03116e-13
9.49442e-14
1.43633e-13
1.81052e-13
2.64533e-14
7.60085e-14
6.81715e-14
-4.39945e-14
-7.35009e-14
2.38754e-12
2.25332e-12
2.69758e-13
5.48248e-13
1.73098e-13
2.28871e-13
3.83631e-13
1.19382e-13
1.33375e-13
1.58235e-13
2.42037e-14
4.86062e-14
7.12647e-14
-8.04964e-15
-7.75476e-14
2.11252e-12
2.2935e-12
4.8564e-13
4.65068e-13
1.66235e-13
1.84093e-13
3.52914e-13
1.28207e-13
1.17759e-13
1.34427e-13
1.08063e-14
2.28573e-14
6.4477e-14
-2.87366e-15
-9.46767e-15
1.88005e-12
2.35877e-12
7.42723e-13
4.37978e-13
2.14535e-13
2.04289e-13
3.33937e-13
1.73007e-13
1.56502e-13
1.30626e-13
4.19137e-14
8.87562e-14
5.16595e-14
7.07903e-14
2.00838e-13
1.63493e-12
2.37709e-12
9.61855e-13
4.46015e-13
2.38441e-13
2.26449e-13
3.17203e-13
2.02842e-13
1.85813e-13
1.23593e-13
7.87543e-14
1.379e-13
4.30489e-14
1.72785e-14
2.15449e-13
1.38292e-12
2.36314e-12
1.13517e-12
4.7624e-13
2.4749e-13
2.0495e-13
3.14812e-13
2.13654e-13
1.60436e-13
1.43999e-13
8.86916e-14
8.38603e-14
4.62182e-14
1.11053e-14
4.78986e-14
1.19305e-12
2.30999e-12
1.2718e-12
5.26311e-13
2.55579e-13
1.84546e-13
2.94885e-13
2.19832e-13
1.30552e-13
1.48838e-13
9.29271e-14
4.42481e-14
4.18265e-14
2.55218e-14
-4.35393e-14
9.79533e-13
2.2391e-12
1.37767e-12
5.54865e-13
2.66305e-13
1.75636e-13
2.59644e-13
2.22641e-13
1.21885e-13
1.17959e-13
9.83373e-14
2.7027e-14
-1.29222e-14
-1.04553e-15
-1.29042e-13
8.47404e-13
2.17894e-12
1.41982e-12
5.94183e-13
2.85498e-13
1.39771e-13
2.57145e-13
2.32179e-13
9.08285e-14
1.13064e-13
1.09164e-13
-3.61924e-14
-2.43802e-14
-1.3379e-13
-1.79799e-13
7.83927e-13
2.11679e-12
1.45112e-12
6.27211e-13
2.99032e-13
1.30738e-13
2.45544e-13
2.50595e-13
8.37335e-14
1.11103e-13
1.07636e-13
-4.90798e-14
-2.37818e-14
-1.48841e-13
-1.61938e-13
7.36428e-13
2.06646e-12
1.47304e-12
6.44802e-13
3.05619e-13
1.35319e-13
2.35718e-13
2.64222e-13
7.70745e-14
1.13015e-13
1.12885e-13
-5.25384e-14
-2.74366e-14
-1.344e-13
-1.36534e-13
7.23639e-13
1.9857e-12
1.46008e-12
6.57854e-13
3.06247e-13
1.45491e-13
2.34528e-13
2.48233e-13
8.82589e-14
1.17055e-13
9.91384e-14
-3.82132e-14
-3.22707e-14
-1.29484e-13
-7.5822e-14
)
;
    }
    inlet
    {
        type            calculated;
        value           nonuniform List<scalar> 
15
(
-1299.9
-1300.2
-1299.9
-1299.9
-1300.2
-1299.9
-1299.9
-1300.2
-1299.9
-1299.9
-1300.2
-1299.9
-1299.9
-1300.2
-1299.9
)
;
    }
    inletWalls
    {
        type            calculated;
        value           uniform 0;
    }
    outletInlet
    {
        type            calculated;
        value           nonuniform List<scalar> 
15
(
198.25
527.464
785.404
982.017
1128.55
1249.99
1367.13
1486.58
1606.75
1731.81
1879.01
2054.91
2138.08
1729.9
634.143
)
;
    }
}


// ************************************************************************* //
