/*--------------------------------*- C++ -*----------------------------------*\
| =========                 |                                                 |
| \\      /  F ield         | OpenFOAM: The Open Source CFD Toolbox           |
|  \\    /   O peration     | Version:  4.1                                   |
|   \\  /    A nd           | Web:      www.OpenFOAM.org                      |
|    \\/     M anipulation  |                                                 |
\*---------------------------------------------------------------------------*/
FoamFile
{
    version     2.0;
    format      ascii;
    class       volVectorField;
    location    "27";
    object      U;
}
// * * * * * * * * * * * * * * * * * * * * * * * * * * * * * * * * * * * * * //

dimensions      [0 1 -1 0 0 0 0];

internalField   nonuniform List<vector> 
225
(
(1.11174e-14 0.852197 15.7946)
(8.89533e-15 -4.89459 12.1215)
(-3.15062e-15 -4.19551 12.1321)
(2.86191e-15 -3.60119 11.9966)
(7.78139e-16 -3.00468 11.8778)
(-2.25051e-16 -2.55319 11.6992)
(1.95871e-15 -2.20882 11.4769)
(2.78554e-16 -1.96604 11.2116)
(-4.533e-17 -1.79855 10.916)
(9.70638e-16 -1.71239 10.5882)
(8.04183e-18 -1.83747 10.1561)
(-2.46234e-16 -2.28569 9.53761)
(3.24672e-16 -2.51304 8.96377)
(-5.32679e-17 -1.06554 8.91357)
(-6.26523e-18 1.76575 7.47093)
(1.5334e-14 -5.35014 22.493)
(1.53626e-14 -14.6049 21.394)
(-7.14245e-16 -13.2708 20.3412)
(2.49083e-15 -11.7697 19.5066)
(1.70648e-15 -11.1561 18.5043)
(-1.39315e-16 -10.6594 17.5174)
(2.12361e-15 -10.0901 16.5714)
(9.56315e-16 -9.52501 15.6236)
(-5.90611e-17 -8.96545 14.6638)
(9.21352e-16 -8.36731 13.6946)
(4.02365e-16 -7.7571 12.7179)
(-3.13074e-16 -7.30336 11.7194)
(1.3975e-16 -7.01707 10.6244)
(2.7562e-17 -5.73098 9.16116)
(2.79464e-18 -2.30503 4.58321)
(1.78179e-14 -7.71562 23.9801)
(1.60294e-14 -16.7731 24.6729)
(3.81773e-16 -13.7365 23.9372)
(3.73586e-15 -12.3062 22.6249)
(1.48527e-15 -11.6447 21.2414)
(7.41059e-16 -10.814 20.0013)
(3.10853e-15 -9.94026 18.7738)
(6.64555e-16 -9.10011 17.5247)
(6.08232e-16 -8.28338 16.2654)
(1.54342e-15 -7.47525 15.0263)
(2.63403e-16 -6.66762 13.8177)
(1.38957e-16 -5.84166 12.4301)
(5.04644e-16 -4.8139 10.2752)
(-7.31006e-17 -3.12626 6.68438)
(-5.12817e-18 -0.832111 1.68985)
(1.77525e-14 -8.50254 22.0462)
(1.54112e-14 -16.6211 24.332)
(9.52575e-16 -12.93 23.7971)
(3.82298e-15 -12.1537 21.9986)
(1.21074e-15 -11.4201 20.5028)
(1.52676e-15 -10.4936 19.1722)
(2.79105e-15 -9.6339 17.8167)
(5.78296e-16 -8.82361 16.459)
(1.02221e-15 -8.05363 15.123)
(1.23864e-15 -7.32378 13.8165)
(1.75001e-16 -6.55248 12.4394)
(5.07482e-16 -5.49088 10.583)
(4.47172e-16 -3.78522 7.50862)
(-1.11947e-16 -1.49358 2.76589)
(-7.00746e-16 0.153353 -1.77308)
(1.6317e-14 -8.47608 19.748)
(1.52551e-14 -16.3602 24.312)
(1.68918e-15 -13.099 23.6602)
(3.60082e-15 -12.628 21.5365)
(8.87393e-16 -11.8566 20.0248)
(1.36464e-15 -10.9574 18.6637)
(2.53892e-15 -10.1698 17.2587)
(5.77869e-16 -9.4028 15.8711)
(7.90998e-16 -8.65261 14.5236)
(1.02492e-15 -7.93053 13.2136)
(-5.9675e-17 -7.16588 11.8292)
(2.5183e-16 -6.11614 9.99626)
(3.87015e-16 -4.42396 7.15547)
(-4.13921e-16 -2.30516 3.2877)
(-9.0304e-16 -0.787084 0.317556)
(1.47331e-14 -8.02184 17.5536)
(1.59195e-14 -16.0195 24.5278)
(3.48945e-15 -13.6434 24.0462)
(3.21961e-15 -12.9943 21.7651)
(1.19995e-15 -12.1264 20.2158)
(1.37864e-15 -11.2247 18.847)
(2.44318e-15 -10.439 17.4341)
(9.46851e-16 -9.6489 16.0434)
(9.42834e-16 -8.86037 14.6933)
(9.30624e-16 -8.09327 13.3818)
(1.50289e-16 -7.29731 12.0171)
(4.17025e-16 -6.28455 10.2818)
(3.3616e-16 -4.73291 7.72078)
(3.37728e-16 -2.75599 4.37225)
(1.31627e-15 -0.949301 1.29721)
(1.31497e-14 -7.33732 15.2533)
(1.63508e-14 -15.491 24.3551)
(5.22635e-15 -14.0225 24.4218)
(3.03242e-15 -13.1278 22.0675)
(1.53551e-15 -12.1448 20.4401)
(1.52198e-15 -11.2358 19.0547)
(2.31207e-15 -10.4361 17.6437)
(1.26045e-15 -9.61984 16.2576)
(1.21991e-15 -8.81016 14.9066)
(9.04414e-16 -8.02724 13.5919)
(4.55042e-16 -7.22397 12.2369)
(8.9869e-16 -6.24025 10.5488)
(3.57674e-16 -4.78744 8.1074)
(1.15248e-16 -2.91402 4.94699)
(2.31327e-15 -1.01082 1.7973)
(1.11332e-14 -6.55609 13.0327)
(1.64577e-14 -14.847 23.8163)
(6.61647e-15 -14.2638 24.6691)
(3.04114e-15 -13.2372 22.3215)
(1.65084e-15 -12.1674 20.5831)
(1.45925e-15 -11.2657 19.1667)
(2.2543e-15 -10.4651 17.7586)
(1.40437e-15 -9.64316 16.3766)
(1.14871e-15 -8.83495 15.0245)
(9.30802e-16 -8.0553 13.7073)
(5.45253e-16 -7.25502 12.3576)
(7.64388e-16 -6.28692 10.6996)
(2.98013e-16 -4.891 8.33094)
(1.19627e-16 -3.0852 5.2676)
(9.94806e-16 -1.12217 2.04386)
(9.57379e-15 -5.77815 11.1234)
(1.63598e-14 -14.1745 23.0905)
(7.73369e-15 -14.4413 24.8463)
(3.29695e-15 -13.3963 22.6148)
(1.71334e-15 -12.2528 20.7553)
(1.2577e-15 -11.3493 19.2955)
(2.1794e-15 -10.5477 17.8904)
(1.4791e-15 -9.72544 16.5109)
(9.06906e-16 -8.91944 15.1561)
(9.9689e-16 -8.14024 13.8351)
(6.14001e-16 -7.33996 12.4864)
(3.00031e-16 -6.38017 10.8513)
(3.19963e-16 -5.02351 8.54669)
(7.68806e-17 -3.26573 5.55822)
(-2.92935e-16 -1.23746 2.24753)
(7.96066e-15 -5.08474 9.59887)
(1.59918e-14 -13.5191 22.3)
(8.76239e-15 -14.5349 24.9523)
(3.50683e-15 -13.5531 22.9353)
(1.76934e-15 -12.3448 20.9698)
(1.22376e-15 -11.425 19.4566)
(1.92577e-15 -10.6174 18.0506)
(1.52187e-15 -9.79445 16.6721)
(8.35723e-16 -8.98825 15.3136)
(8.8172e-16 -8.2062 13.9873)
(6.43323e-16 -7.40471 12.6355)
(2.12709e-16 -6.45143 11.0132)
(5.76171e-17 -5.12515 8.75497)
(1.76684e-16 -3.40642 5.81933)
(-9.01846e-16 -1.31894 2.43075)
(6.63107e-15 -4.53847 8.46182)
(1.55519e-14 -12.9255 21.5503)
(9.38732e-15 -14.5349 24.9758)
(3.81819e-15 -13.6654 23.221)
(1.8941e-15 -12.4128 21.1811)
(9.98478e-16 -11.4735 19.612)
(1.85595e-15 -10.659 18.2003)
(1.60472e-15 -9.83694 16.8208)
(5.6874e-16 -9.03203 15.4584)
(8.16595e-16 -8.24854 14.1268)
(7.63779e-16 -7.44645 12.7691)
(-1.90674e-16 -6.49766 11.1497)
(-8.94562e-17 -5.19245 8.91825)
(-6.73379e-16 -3.5017 6.01027)
(-1.45193e-15 -1.36366 2.54232)
(5.86648e-15 -4.1702 7.70233)
(1.51105e-14 -12.4377 20.9277)
(9.78674e-15 -14.4733 24.9366)
(4.11346e-15 -13.7316 23.4378)
(2.00188e-15 -12.4592 21.3593)
(8.85276e-16 -11.5039 19.7404)
(1.78019e-15 -10.6832 18.3206)
(1.70326e-15 -9.86354 16.9391)
(5.59384e-16 -9.06114 15.5728)
(7.82726e-16 -8.2776 14.2363)
(7.55733e-16 -7.47488 12.8709)
(-3.45848e-16 -6.52677 11.2464)
(-1.1029e-16 -5.23293 9.0263)
(-1.00922e-15 -3.55786 6.12591)
(-1.43674e-15 -1.37722 2.57251)
(5.3284e-15 -3.9731 7.27921)
(1.46274e-14 -12.0681 20.461)
(1.00682e-14 -14.3843 24.8626)
(4.30747e-15 -13.76 23.5829)
(2.07016e-15 -12.4876 21.497)
(9.0508e-16 -11.523 19.8406)
(1.67017e-15 -10.6965 18.412)
(1.83168e-15 -9.87993 17.0279)
(5.44635e-16 -9.0805 15.6584)
(7.69238e-16 -8.29716 14.3169)
(7.87316e-16 -7.49308 12.9421)
(-3.87721e-16 -6.54204 11.306)
(-1.64658e-16 -5.25081 9.08413)
(-9.47889e-16 -3.57869 6.17524)
(-1.26908e-15 -1.36513 2.53877)
(5.03373e-15 -3.90335 7.10969)
(1.42932e-14 -11.8311 20.1814)
(1.01747e-14 -14.2999 24.7901)
(4.45193e-15 -13.7668 23.6687)
(2.10301e-15 -12.502 21.5899)
(9.36772e-16 -11.5321 19.9096)
(1.64687e-15 -10.7004 18.4747)
(1.81305e-15 -9.8855 17.0884)
(5.33562e-16 -9.0879 15.7173)
(8.01587e-16 -8.30403 14.373)
(7.60503e-16 -7.49777 12.9907)
(-3.63706e-16 -6.54307 11.3433)
(-1.60906e-16 -5.25331 9.11716)
(-9.71369e-16 -3.58362 6.20154)
(-9.45179e-16 -1.3501 2.50643)
(4.99486e-15 -4.03909 7.28621)
(1.37397e-14 -11.6269 19.9519)
(1.01149e-14 -14.1917 24.6681)
(4.55424e-15 -13.7464 23.7084)
(2.11359e-15 -12.5066 21.6738)
(1.01436e-15 -11.5393 19.9773)
(1.62361e-15 -10.6995 18.535)
(1.7104e-15 -9.88694 17.1438)
(6.19806e-16 -9.09048 15.7694)
(8.1036e-16 -8.30492 14.4183)
(6.8113e-16 -7.48988 13.0147)
(-2.5869e-16 -6.51524 11.3281)
(-2.23406e-16 -5.20586 9.0611)
(-9.06581e-16 -3.50147 6.08259)
(-5.0584e-16 -1.25231 2.30705)
)
;

boundaryField
{
    inletFace
    {
        type            zeroGradient;
    }
    inlet
    {
        type            fixedValue;
        value           uniform (0 8.7 15);
    }
    inletWalls
    {
        type            noSlip;
    }
    outletInlet
    {
        type            zeroGradient;
    }
}


// ************************************************************************* //
