/*--------------------------------*- C++ -*----------------------------------*\
| =========                 |                                                 |
| \\      /  F ield         | OpenFOAM: The Open Source CFD Toolbox           |
|  \\    /   O peration     | Version:  4.1                                   |
|   \\  /    A nd           | Web:      www.OpenFOAM.org                      |
|    \\/     M anipulation  |                                                 |
\*---------------------------------------------------------------------------*/
FoamFile
{
    version     2.0;
    format      ascii;
    class       volScalarField;
    location    "13";
    object      p;
}
// * * * * * * * * * * * * * * * * * * * * * * * * * * * * * * * * * * * * * //

dimensions      [0 2 -2 0 0 0 0];

internalField   nonuniform List<scalar> 
6785
(
581.701
506.866
458.088
405.923
359.049
314.464
272.736
233.346
196.203
161.077
127.041
94.6237
67.418
37.4746
-1.19724
-15.3133
-33.796
-25.9261
-32.3853
-33.3422
-36.0804
-37.6454
-38.7556
-38.9621
-38.1705
-36.4072
-33.7331
-29.4467
-24.9513
-22.6863
-24.5473
-29.7048
-20.4257
-24.4282
-21.188
-21.727
-21.0572
-21.1868
-21.3409
-21.8113
-22.4752
-23.317
-24.121
-23.7369
-22.2855
6.49805
4.12323
8.21462
3.28526
5.06694
2.59859
2.03589
0.795299
-0.113282
-0.94915
-1.54085
-1.92843
-1.59756
-0.41633
2.46101
17.4285
16.8646
20.5138
18.3413
22.0446
21.8038
23.9702
25.1971
26.8295
28.2307
29.6224
31.1487
33.0628
34.9785
36.8119
33.1434
32.8423
35.4692
33.9087
36.704
36.0152
37.5402
37.6664
38.2185
38.368
38.4834
38.4601
38.2995
38.4092
38.2057
36.2044
33.6541
35.1727
32.557
33.8117
31.9985
32.3371
31.2201
30.7051
29.3884
27.7865
26.0176
24.8266
23.765
21.1685
6.22527
1.85961
1.67264
-1.95357
-2.61498
-5.79743
-7.27755
-10.0278
-11.8633
-13.7736
-14.9216
-15.4784
-16.0214
-17.0663
-18.0936
-22.4276
-25.6721
-25.325
-27.9543
-27.9986
-30.2101
-30.8333
-32.3602
-33.0411
-33.5139
-33.4954
-33.2886
-33.1141
-32.8827
-31.276
-19.4987
-19.6791
-18.0738
-18.7818
-17.4081
-17.6393
-16.8132
-16.5541
-16.0082
-15.4985
-14.8613
-14.2451
-13.232
-12.1838
-9.86047
0.692191
1.93233
3.73904
4.04596
5.78805
6.4434
7.77995
8.79505
9.94283
11.0532
12.2045
13.2816
14.5156
15.503
16.8492
14.3756
15.7713
17.0424
17.3462
18.6683
19.1509
20.099
20.788
21.5521
22.2753
23.0374
23.7535
24.5979
25.2302
26.1521
31.9298
32.6068
32.8751
32.6411
33.1272
32.7839
32.8591
32.764
32.8187
33.0406
33.4591
33.9737
34.6247
35.051
35.7458
38.1677
39.3402
38.2626
36.9784
36.5384
36.1297
36.3891
36.7445
37.4115
38.0398
38.5505
38.7902
38.8209
38.7658
38.5925
77.1646
74.2213
67.2829
60.0422
55.1497
49.8688
45.1719
41.4007
37.7351
34.7785
32.2569
30.2637
28.5298
27.432
25.6121
38.5692
38.9683
39.2527
39.2386
39.3689
39.7379
40.1753
40.0746
40.0197
39.94
40.2974
40.0257
39.847
40.0878
39.6724
39.568
39.6196
39.7521
39.0367
39.239
39.427
38.7035
38.609
39.1196
39.2143
38.3756
38.3161
38.9308
39.2878
38.2311
38.8199
39.4347
38.6261
38.5562
39.2619
39.8122
38.9394
39.4846
40.1174
39.5888
39.5817
40.2155
40.5945
40.2133
40.2641
40.7779
41.0278
40.7222
41.1558
41.2453
41.1186
41.2484
41.6139
41.8952
41.8522
41.9541
42.1783
42.7051
42.6935
42.8133
42.9616
42.9495
42.9434
42.7877
43.4113
43.7193
44.2847
44.0936
43.4877
45.0066
46.2175
40.9191
39.0485
42.761
44.3754
26.2753
36.9789
40.2958
1.03079
15.526
24.8814
25.0453
28.7723
19.5272
24.7779
30.0522
30.2834
31.1212
31.6965
32.0722
31.6932
33.409
36.3161
28.8818
30.3676
29.2388
28.9138
29.5943
29.7106
29.2352
31.4493
39.9087
26.9345
27.6561
26.3745
26.3676
27.4013
27.653
26.6974
25.0919
25.5474
38.8775
26.5406
25.6503
23.6381
21.3896
21.4505
22.3038
20.1138
17.1773
23.3406
21.7004
22.5479
21.5542
18.8494
16.5784
14.0992
14.1699
11.5693
17.2569
22.1947
18.2463
17.9658
16.936
14.6426
12.8541
10.5611
5.13171
10.431
20.9603
16.5696
14.7767
11.9807
9.92927
8.04851
6.72351
5.43696
2.72196
-2.4654
10.905
7.33742
7.14296
6.30887
4.48222
-0.647083
-1.70857
0.70454
-12.5848
4.56249
1.39253
-1.14267
5.44528
0.593307
3.17993
2.58566
4.48407
6.88737
3.58791
5.75277
7.24739
5.10695
5.99074
5.5266
6.3636
7.63199
5.79564
6.44939
5.96926
6.65206
7.51199
5.7454
6.69349
7.27792
6.0377
6.41649
6.04265
6.43362
7.01813
5.91774
6.22181
5.87522
6.20836
6.63182
5.5527
6.04628
6.32873
5.54976
5.72653
5.46854
5.64746
5.94062
5.2485
5.38812
5.15164
5.30282
5.49744
4.82503
5.07202
5.17377
4.67476
4.74098
4.55617
4.61987
4.71225
4.2723
4.31229
4.13892
4.18391
4.20142
3.77741
3.86539
3.81939
3.47946
3.46235
3.30282
3.28923
3.21748
2.91158
2.86268
2.65452
2.65553
2.62766
2.18307
1.9894
1.97199
1.38491
1.09042
0.911894
0.51759
0.292399
0.00152363
0.0024523
0.00377507
0.00466336
0.00561066
0.006412
0.00719082
0.00791216
0.00861399
0.00930292
0.00999785
0.0107101
0.0114481
0.0122142
0.0130055
0.0138167
0.0146446
0.0154951
0.0163902
0.0173722
0.0184995
0.0198278
0.0213819
0.0231371
0.0250365
0.0270176
0.029001
0.0308877
0.0325666
0.0339048
0.034762
0.0350206
0.0346286
0.0336599
0.0323649
0.0311779
0.0306442
0.0312363
0.0330938
0.0358647
0.0387437
0.0405442
0.0399286
0.035828
0.0276728
0.0153613
-0.000807646
-0.0195849
-0.0389006
-0.0643489
-0.134727
-0.216196
-0.249632
-0.725607
-0.785165
-0.977387
-1.13857
-1.26661
-1.30927
-1.25924
-1.14308
-0.933122
-0.727132
-0.497768
-0.268688
-0.065341
0.113854
0.251661
0.355991
0.418972
0.456958
0.459621
0.453543
0.431656
0.37234
0.4256
0.275944
0.456144
0.383699
0.00420199
0.00662486
0.0102567
0.0127072
0.01523
0.0173616
0.0193831
0.0212394
0.0230186
0.0247545
0.0264962
0.0282808
0.0301307
0.0320539
0.0340406
0.0360753
0.0381477
0.0402744
0.0425178
0.0449993
0.0478854
0.0513342
0.0554126
0.0600425
0.0650567
0.0702783
0.0754891
0.0804187
0.0847679
0.0881738
0.0902446
0.0906286
0.0891061
0.0857128
0.0808182
0.0750856
0.069253
0.0637362
0.0582374
0.0518759
0.0438794
0.0338844
0.0218807
0.00809528
-0.00749327
-0.0254725
-0.0468686
-0.0726898
-0.104431
-0.146821
-0.238993
-0.363551
-0.199933
-1.11935
-1.26008
-1.5954
-1.86652
-2.07136
-2.18443
-2.16037
-2.01129
-1.70549
-1.35528
-0.939482
-0.514014
-0.122945
0.22609
0.49761
0.695032
0.81967
0.876936
0.888181
0.860098
0.836891
0.735359
0.817266
0.618021
0.850539
1.20468
0.00656704
0.010798
0.0170243
0.0212368
0.0255864
0.0292668
0.0327686
0.0359899
0.0390844
0.0421059
0.0451387
0.0482447
0.0514621
0.0548044
0.0582553
0.0617884
0.0653861
0.0690757
0.0729616
0.0772483
0.0822179
0.0881394
0.0951277
0.103052
0.111633
0.120572
0.129502
0.137968
0.145462
0.15137
0.155032
0.155863
0.153525
0.148155
0.140528
0.132007
0.124151
0.117963
0.113076
0.107803
0.100193
0.0885806
0.0717446
0.0490498
0.0199434
-0.0164665
-0.0613563
-0.115512
-0.180298
-0.264993
-0.418625
-0.559916
-0.089964
-1.2746
-1.42926
-1.81551
-2.13377
-2.37487
-2.52807
-2.52672
-2.37184
-2.03151
-1.62254
-1.12419
-0.612249
-0.13773
0.287089
0.618013
0.856346
1.00793
1.0734
1.08687
1.0499
1.01559
0.91696
0.963837
0.827732
0.9496
1.54677
0.00874993
0.0147249
0.0234017
0.0293278
0.0354055
0.0405606
0.0454502
0.0499485
0.0542629
0.0584738
0.0626976
0.0670226
0.071502
0.0761549
0.080958
0.0858731
0.0908742
0.0959977
0.101388
0.107333
0.11423
0.122459
0.132183
0.143216
0.155162
0.16761
0.180046
0.19184
0.202289
0.210535
0.215653
0.216817
0.21354
0.206
0.195273
0.183258
0.172114
0.163151
0.155686
0.147198
0.134964
0.116939
0.0919006
0.0594296
0.0190032
-0.030637
-0.0914096
-0.165204
-0.255374
-0.373468
-0.55149
-0.657058
-0.11104
-1.6117
-1.73862
-2.15836
-2.54471
-2.83721
-3.03214
-3.04518
-2.86786
-2.46358
-1.97073
-1.36386
-0.740032
-0.160518
0.358773
0.763499
1.05461
1.24025
1.32046
1.33644
1.29341
1.2414
1.14209
1.15519
1.05449
1.11166
1.89273
0.0107182
0.0185442
0.0296763
0.0373713
0.045215
0.0518893
0.0582059
0.0640206
0.0695927
0.0750307
0.0804832
0.0860659
0.0918474
0.0978523
0.10405
0.110389
0.116834
0.123429
0.130357
0.137989
0.146844
0.157421
0.169933
0.184135
0.199516
0.215549
0.231576
0.24679
0.260292
0.270974
0.277636
0.279192
0.274986
0.265233
0.251339
0.23582
0.221545
0.210261
0.201063
0.190673
0.175623
0.15334
0.122179
0.0813179
0.0296944
-0.034614
-0.11424
-0.211833
-0.332223
-0.489401
-0.698639
-0.804205
-0.36922
-1.99266
-2.1191
-2.55102
-3.0161
-3.3669
-3.61041
-3.64175
-3.43901
-2.9627
-2.37347
-1.64177
-0.889137
-0.18831
0.44013
0.930039
1.28175
1.50666
1.60297
1.62241
1.57152
1.50236
1.39584
1.38497
1.29202
1.32469
2.11621
0.0125186
0.022234
0.0357452
0.0452187
0.054802
0.0629877
0.0707113
0.0778258
0.0846343
0.0912783
0.0979373
0.104756
0.111817
0.119153
0.126722
0.134461
0.14232
0.15035
0.158772
0.16804
0.1788
0.191676
0.206935
0.224269
0.243045
0.262625
0.282207
0.300815
0.317353
0.330462
0.338654
0.340561
0.335332
0.323195
0.30588
0.28653
0.268731
0.25462
0.242988
0.229773
0.210892
0.183461
0.14561
0.0962498
0.0338319
-0.0442647
-0.14154
-0.261773
-0.411626
-0.606204
-0.845719
-1.00309
-0.867524
-2.30393
-2.50959
-2.92062
-3.45719
-3.8637
-4.15602
-4.20831
-3.98159
-3.43676
-2.75514
-1.90232
-1.02636
-0.209278
0.523237
1.09359
1.502
1.76331
1.87361
1.89569
1.83668
1.74995
1.63869
1.6018
1.51935
1.52852
2.42642
0.0141581
0.0258365
0.0416705
0.0529506
0.0642686
0.0739779
0.0831102
0.091529
0.099575
0.107427
0.115293
0.123349
0.131694
0.140364
0.14931
0.158452
0.167725
0.177182
0.18708
0.197961
0.2106
0.225761
0.243767
0.26424
0.286423
0.309567
0.332726
0.354759
0.374371
0.389945
0.399685
0.401907
0.395535
0.380799
0.359782
0.336316
0.314763
0.297662
0.283492
0.267471
0.245048
0.213078
0.169338
0.112228
0.0394666
-0.0524417
-0.167969
-0.312086
-0.493111
-0.726616
-1.00534
-1.26198
-1.49978
-2.48426
-2.93121
-3.29431
-3.89583
-4.35887
-4.70052
-4.77535
-4.52286
-3.90714
-3.13207
-2.15678
-1.15807
-0.225658
0.609371
1.25824
1.72184
2.0182
2.14185
2.16603
2.0993
1.9937
1.87948
1.81447
1.7427
1.73036
2.55999
0.0156569
0.0293602
0.047443
0.0605484
0.073582
0.0848167
0.095347
0.105063
0.114336
0.123385
0.132448
0.141732
0.151353
0.161351
0.171668
0.182203
0.192877
0.203738
0.215079
0.227529
0.242005
0.259418
0.280156
0.30376
0.329345
0.356052
0.382792
0.408261
0.430965
0.449011
0.460269
0.462705
0.454986
0.437349
0.412278
0.384367
0.358781
0.338427
0.321429
0.302345
0.276283
0.239878
0.190492
0.125929
0.0431062
-0.0624128
-0.196168
-0.364483
-0.577241
-0.84992
-1.17441
-1.54502
-2.08237
-2.50437
-3.39481
-3.68686
-4.34717
-4.8704
-5.26418
-5.36352
-5.08228
-4.39103
-3.51813
-2.41492
-1.2899
-0.239109
0.700379
1.42864
1.94783
2.27917
2.41594
2.44206
2.36748
2.24226
2.12479
2.03196
1.9666
1.9389
2.68569
0.0170271
0.0328251
0.0530835
0.0680357
0.0827673
0.0955313
0.107451
0.118461
0.128951
0.13919
0.149442
0.159948
0.17084
0.182165
0.193851
0.205777
0.217842
0.23009
0.242842
0.256818
0.273087
0.292725
0.316187
0.342926
0.371918
0.402199
0.432536
0.46146
0.487274
0.507785
0.520495
0.522977
0.513624
0.492715
0.463223
0.430577
0.400757
0.376982
0.357024
0.334879
0.305422
0.265044
0.210559
0.139044
0.0464934
-0.0725647
-0.224831
-0.418064
-0.663541
-0.976506
-1.35221
-1.82219
-2.48694
-2.46505
-3.92136
-4.10282
-4.80749
-5.39362
-5.84269
-5.96837
-5.65511
-4.88397
-3.90934
-2.67321
-1.41932
-0.248072
0.796766
1.60428
2.17856
2.54413
2.69324
2.721
2.63814
2.49296
2.37198
2.25146
2.19053
2.15003
2.9
0.0182815
0.0362428
0.0585991
0.0754168
0.0918244
0.106119
0.119416
0.131711
0.143407
0.154824
0.166253
0.177974
0.19013
0.202778
0.215829
0.229142
0.242586
0.256197
0.270323
0.285775
0.303786
0.325615
0.351793
0.381668
0.414073
0.447939
0.481882
0.514272
0.543188
0.566111
0.580127
0.582384
0.571015
0.546417
0.51216
0.474574
0.440397
0.413091
0.390104
0.364974
0.332403
0.288468
0.229326
0.151237
0.0492053
-0.0833347
-0.254315
-0.47299
-0.751915
-1.10625
-1.53602
-2.08054
-2.74126
-2.54193
-4.52732
-4.55622
-5.27959
-5.93232
-6.43633
-6.59045
-6.2411
-5.38506
-4.30445
-2.93011
-1.54507
-0.251658
0.898881
1.78493
2.41337
2.81205
2.97248
3.00154
2.90993
2.7446
2.62001
2.47144
2.41419
2.36077
3.08521
0.0194302
0.0396257
0.064002
0.0827037
0.100764
0.116588
0.131249
0.14482
0.157709
0.170292
0.182887
0.195812
0.209228
0.223194
0.237611
0.252305
0.267119
0.282069
0.297527
0.3144
0.334097
0.358081
0.386969
0.419987
0.455814
0.493275
0.530831
0.56668
0.598656
0.623863
0.638932
0.640577
0.62673
0.598035
0.55878
0.516192
0.477652
0.446802
0.420848
0.392961
0.357692
0.310713
0.247407
0.163145
0.0518706
-0.0941258
-0.284068
-0.528722
-0.841848
-1.23886
-1.72443
-2.32712
-2.97731
-2.88223
-5.15761
-5.05786
-5.76502
-6.49462
-7.05061
-7.23506
-6.84455
-5.89748
-4.70555
-3.18658
-1.66743
-0.249592
1.00728
1.9713
2.65294
3.08358
3.25427
3.28435
3.1834
2.99794
2.86932
2.69241
2.6379
2.5717
3.25696
0.0204825
0.0429839
0.0693015
0.0899042
0.109591
0.126943
0.142952
0.157789
0.171854
0.18559
0.199337
0.213455
0.228123
0.243406
0.259185
0.275259
0.291429
0.307695
0.32444
0.34267
0.363989
0.390091
0.421684
0.457853
0.49711
0.538175
0.579333
0.618601
0.653519
0.680771
0.696501
0.697024
0.680202
0.647094
0.602795
0.555334
0.512544
0.478227
0.449473
0.41916
0.38167
0.332163
0.265158
0.175074
0.0547543
-0.104694
-0.313821
-0.584892
-0.932834
-1.37364
-1.91551
-2.56936
-3.26289
-3.54987
-5.73044
-5.60505
-6.26042
-7.08372
-7.69136
-7.90681
-7.46889
-6.42364
-5.11397
-3.44285
-1.7862
-0.241311
1.12258
2.16392
2.89773
3.359
3.53872
3.56954
3.45852
3.25316
3.11984
2.9145
2.86182
2.78334
3.44836
0.0214461
0.0463265
0.0745073
0.0970274
0.118313
0.13719
0.154529
0.170619
0.185844
0.200716
0.2156
0.230901
0.246813
0.263409
0.280551
0.298
0.315518
0.333071
0.351056
0.370573
0.393441
0.421619
0.455915
0.495245
0.537941
0.582605
0.62733
0.669911
0.707545
0.736445
0.752284
0.751087
0.730842
0.693207
0.644086
0.59208
0.545254
0.507623
0.476339
0.444023
0.404845
0.353348
0.2831
0.187529
0.0583378
-0.11457
-0.343086
-0.640929
-1.02416
-1.50953
-2.10712
-2.81142
-3.60559
-4.43972
-6.1419
-6.18266
-6.76182
-7.70031
-8.36467
-8.61071
-8.11722
-6.96557
-5.5307
-3.69904
-1.9011
-0.226099
1.24566
2.36337
3.14789
3.63828
3.8256
3.85689
3.73493
3.51015
3.37126
3.13743
3.08589
2.99408
3.64212
0.0223277
0.0496615
0.0796279
0.104081
0.126937
0.147333
0.165984
0.183311
0.199676
0.215667
0.231671
0.248141
0.26529
0.283197
0.301701
0.320525
0.339379
0.358193
0.377363
0.39809
0.422427
0.452636
0.489635
0.532136
0.578271
0.62651
0.67471
0.720396
0.760359
0.790323
0.805566
0.80203
0.778087
0.736128
0.682713
0.626657
0.576061
0.535317
0.501854
0.468026
0.427728
0.374776
0.301719
0.200961
0.0630415
-0.123343
-0.371415
-0.69627
-1.11505
-1.64522
-2.29724
-3.05485
-3.98071
-5.33787
-6.29678
-6.77625
-7.26714
-8.34366
-9.07667
-9.35345
-8.79354
-7.5259
-5.95705
-3.95559
-2.01193
-0.203268
1.3775
2.57067
3.40392
3.92136
4.11478
4.14621
4.01235
3.76883
3.62329
3.36105
3.30991
3.20439
3.82461
0.023133
0.0529964
0.0846719
0.111073
0.135468
0.157378
0.177319
0.195867
0.213351
0.230441
0.247547
0.265172
0.28355
0.302765
0.322632
0.342829
0.363011
0.383058
0.403355
0.425205
0.450922
0.483111
0.522814
0.568493
0.618057
0.669804
0.721296
0.769725
0.81142
0.841661
0.85551
0.849118
0.821521
0.775842
0.718939
0.659416
0.605311
0.561688
0.526461
0.491667
0.450845
0.39697
0.321515
0.215837
0.0693062
-0.13058
-0.398335
-0.750318
-1.20463
-1.77932
-2.48415
-3.29822
-4.34444
-6.00354
-6.23987
-7.38955
-7.77853
-9.01142
-9.83275
-10.1429
-9.50269
-8.1077
-6.39467
-4.21283
-2.11829
-0.172098
1.51882
2.78665
3.66685
4.2085
4.40602
4.43732
4.29049
4.02916
3.87567
3.58529
3.53368
3.41408
3.99565
0.0238667
0.0563379
0.0896469
0.11801
0.143914
0.167328
0.188537
0.208288
0.226867
0.245034
0.263221
0.281987
0.301584
0.322105
0.343337
0.364909
0.38641
0.40766
0.429023
0.451901
0.478895
0.513011
0.55542
0.604275
0.657226
0.712342
0.766804
0.817401
0.859996
0.889556
0.901222
0.891736
0.860984
0.812589
0.753182
0.690763
0.633363
0.587107
0.550597
0.515428
0.474699
0.420423
0.342951
0.232581
0.0775166
-0.135911
-0.423436
-0.802531
-1.29211
-1.9105
-2.66646
-3.53843
-4.66618
-6.35645
-6.21141
-8.04489
-8.30956
-9.69962
-10.6371
-10.9875
-10.2504
-8.71449
-6.84537
-4.47096
-2.21969
-0.131802
1.67037
3.01188
3.93738
4.50009
4.69915
4.72997
4.56901
4.29101
4.12805
3.80999
3.757
3.62266
4.17204
0.0245326
0.0596923
0.0945602
0.124898
0.152279
0.177189
0.19964
0.220574
0.240223
0.259444
0.278689
0.298579
0.319386
0.341212
0.363812
0.386762
0.409574
0.431999
0.454362
0.47816
0.506317
0.542299
0.587412
0.639424
0.695666
0.753891
0.810799
0.862734
0.905168
0.933005
0.941892
0.929536
0.89664
0.846833
0.785946
0.721106
0.660543
0.611913
0.574658
0.539753
0.499754
0.445584
0.366439
0.251552
0.0879796
-0.139061
-0.446417
-0.852483
-1.37678
-2.03774
-2.84326
-3.77346
-4.95151
-6.57203
-6.47218
-8.69959
-8.8774
-10.4042
-11.4931
-11.8958
-11.0434
-9.35044
-7.31106
-4.73018
-2.31568
-0.0815603
1.833
3.247
4.21588
4.79639
4.99436
5.02381
4.84752
4.5542
4.38005
4.03499
3.97955
3.83081
4.34515
0.0251339
0.0630654
0.0994188
0.131746
0.160569
0.186963
0.210632
0.232725
0.253418
0.273665
0.293946
0.314941
0.336948
0.360077
0.38405
0.408383
0.432502
0.456073
0.479363
0.503963
0.533154
0.570933
0.618739
0.67385
0.733196
0.794089
0.852661
0.904839
0.94588
0.971037
0.976969
0.962555
0.928958
0.879169
0.81773
0.750792
0.687104
0.636374
0.598977
0.565024
0.526411
0.472832
0.392308
0.273002
0.100863
-0.139921
-0.467167
-0.899967
-1.45826
-2.16043
-3.01415
-4.00281
-5.22155
-6.82103
-7.19052
-9.20875
-9.48308
-11.1209
-12.4031
-12.8765
-11.8886
-10.0205
-7.79383
-4.99077
-2.40578
-0.0205092
2.00755
3.49267
4.50266
5.09758
5.29185
5.31848
5.12563
4.81853
4.63126
4.26012
4.20093
4.03764
4.51653
0.0256728
0.0664628
0.104229
0.138557
0.168791
0.196656
0.221515
0.244742
0.266448
0.287694
0.308984
0.331065
0.354262
0.378693
0.404046
0.429767
0.455191
0.479879
0.504022
0.529292
0.559368
0.59886
0.649329
0.707412
0.769524
0.832401
0.891573
0.942664
0.981047
1.0029
1.00633
0.991229
0.958612
0.910217
0.84897
0.780073
0.713202
0.660665
0.623803
0.591543
0.554988
0.502451
0.420762
0.297019
0.116131
-0.138627
-0.48585
-0.945093
-1.53653
-2.27855
-3.1793
-4.2265
-5.49018
-7.12911
-8.14554
-9.36765
-10.1064
-11.8448
-13.3683
-13.9386
-12.7935
-10.7306
-8.29618
-5.25308
-2.4895
0.0522622
2.1949
3.74959
4.79811
5.40365
5.5918
5.61383
5.40295
5.08377
4.88126
4.48517
4.42069
4.24253
4.69528
0.026151
0.06989
0.108997
0.14534
0.176948
0.20627
0.232289
0.256626
0.279313
0.301527
0.323797
0.346943
0.371319
0.397051
0.423792
0.450912
0.47764
0.50342
0.528334
0.554125
0.584914
0.626013
0.679069
0.739881
0.804207
0.868101
0.926533
0.975071
1.00974
1.02828
1.03034
1.0163
0.986349
0.940533
0.879996
0.809091
0.738875
0.684854
0.649284
0.619516
0.585704
0.534595
0.451834
0.323466
0.133463
-0.135642
-0.502992
-0.988376
-1.61211
-2.39271
-3.33952
-4.44528
-5.76188
-7.44884
-8.89329
-9.21522
-10.7799
-12.5834
-14.3892
-15.0909
-13.7656
-11.4871
-8.82114
-5.5176
-2.5663
0.137711
2.39598
4.01844
5.10254
5.71453
5.89428
5.90976
5.67888
5.3496
5.12958
4.70995
4.63832
4.44703
4.86413
0.0265696
0.0733523
0.113728
0.152098
0.185045
0.215809
0.242958
0.268374
0.292009
0.315158
0.338378
0.362566
0.388108
0.415142
0.443281
0.471813
0.499848
0.526695
0.552295
0.578438
0.609736
0.652297
0.707786
0.770901
0.836624
0.900274
0.956413
1.001
1.03145
1.04745
1.04979
1.03865
1.01287
0.97057
0.91103
0.837877
0.764047
0.708899
0.675471
0.649052
0.618652
0.569251
0.48532
0.351888
0.152164
-0.131838
-0.519544
-1.03078
-1.686
-2.5041
-3.49625
-4.66038
-6.03493
-7.74394
-9.27358
-9.16953
-11.5602
-13.3733
-15.4677
-16.3424
-14.812
-12.2972
-9.37236
-5.78508
-2.63564
0.236841
2.61175
4.29994
5.41627
6.03009
6.19889
6.20588
5.95306
5.61566
5.37577
4.93426
4.85327
4.64887
5.04178
0.026929
0.0768551
0.118428
0.158837
0.193088
0.225276
0.253524
0.279988
0.304534
0.328582
0.352718
0.377924
0.40462
0.432957
0.462505
0.492465
0.521815
0.549706
0.5759
0.602203
0.63376
0.677572
0.735202
0.799954
0.86597
0.927856
0.980067
1.01971
1.04628
1.06119
1.06569
1.05913
1.03878
1.00067
0.942204
0.866368
0.788535
0.732659
0.702316
0.68015
0.653779
0.606179
0.520696
0.381433
0.171094
-0.128534
-0.536882
-1.07368
-1.75962
-2.61435
-3.65141
-4.8739
-6.31049
-8.03669
-9.59383
-9.63318
-12.3106
-14.2519
-16.6072
-17.7029
-15.9401
-13.1683
-9.954
-6.05663
-2.69696
0.350701
2.84322
4.59482
5.73961
6.35015
6.50521
6.50166
6.22585
5.88157
5.6194
5.15788
5.06498
4.84923
5.2092
0.0272289
0.0804036
0.123102
0.165563
0.201081
0.234675
0.263986
0.291466
0.316884
0.341792
0.36681
0.393006
0.420843
0.450485
0.481456
0.512863
0.54354
0.572455
0.599143
0.625379
0.656879
0.701618
0.760902
0.826352
0.891288
0.949689
0.996557
1.03109
1.05498
1.07067
1.07908
1.07853
1.06456
1.03111
0.973588
0.894431
0.812067
0.75591
0.729694
0.712704
0.690845
0.644843
0.557031
0.410769
0.188629
-0.127476
-0.556726
-1.11872
-1.83461
-2.72528
-3.80713
-5.08832
-6.59134
-8.35484
-10.0279
-10.6764
-12.7257
-15.2051
-17.8094
-19.1829
-17.157
-14.1082
-10.5706
-6.33383
-2.74971
0.480388
3.09141
4.9038
6.07284
6.67446
6.81274
6.7965
6.49725
6.14701
5.8601
5.3806
5.27286
5.04725
5.3705
0.0274688
0.0840034
0.127755
0.172281
0.209028
0.244008
0.274347
0.302807
0.329057
0.354784
0.380644
0.407802
0.436765
0.467714
0.500125
0.533001
0.565021
0.594944
0.622014
0.647907
0.67893
0.724102
0.784312
0.849265
0.91149
0.964678
1.00549
1.0358
1.0588
1.07707
1.0909
1.09745
1.0906
1.06209
1.00523
0.921889
0.834306
0.778371
0.757416
0.746491
0.729374
0.684324
0.592899
0.438043
0.202702
-0.130712
-0.58094
-1.16755
-1.91254
-2.83856
-3.96533
-5.30586
-6.87938
-8.70419
-10.5281
-11.7024
-12.6963
-16.2443
-19.08
-20.7922
-18.4696
-15.1248
-11.2271
-6.6186
-2.79333
0.627041
3.35741
5.22764
6.41624
7.00273
7.12093
7.08994
6.76708
6.41141
6.09756
5.6022
5.47636
5.24184
5.54335
0.0276473
0.08766
0.13239
0.178995
0.216933
0.253277
0.284609
0.314011
0.341048
0.367549
0.39421
0.422299
0.452373
0.484631
0.5185
0.552873
0.586256
0.617171
0.644491
0.669691
0.699661
0.744549
0.804735
0.867741
0.925416
0.972113
1.0073
1.03509
1.05911
1.08152
1.10191
1.11641
1.11723
1.09383
1.03718
0.948543
0.854863
0.799732
0.785247
0.781149
0.768579
0.723226
0.626326
0.460926
0.210959
-0.140347
-0.611268
-1.22161
-1.99469
-2.95545
-4.12741
-5.5283
-7.17616
-9.07928
-11.0276
-12.3345
-12.6888
-17.462
-20.4559
-22.5421
-19.8846
-16.226
-11.9286
-6.91286
-2.82734
0.791836
3.64234
5.5671
6.77005
7.33456
7.42917
7.38151
7.0359
6.67393
6.33148
5.82253
5.67492
5.43464
5.69842
0.0277626
0.0913792
0.137013
0.18571
0.224799
0.262486
0.294771
0.325076
0.352854
0.38008
0.407498
0.436483
0.467652
0.501222
0.536569
0.572468
0.607238
0.639125
0.666528
0.690569
0.718697
0.762365
0.821398
0.880684
0.932062
0.972068
1.00319
1.0305
1.05718
1.0849
1.11271
1.13582
1.14477
1.12657
1.06952
0.974182
0.873316
0.81967
0.812911
0.816129
0.807264
0.759592
0.654806
0.476777
0.21104
-0.158228
-0.649025
-1.28182
-2.08173
-3.07655
-4.294
-5.75673
-7.48342
-9.47792
-11.5396
-12.902
-13.1991
-18.7591
-22.0054
-24.4465
-21.4084
-17.4195
-12.68
-7.21825
-2.85143
0.975978
3.94733
5.92293
7.1345
7.66946
7.73677
7.67059
7.3038
6.93398
6.5616
6.04149
5.868
5.62346
5.8576
0.0278121
0.0951671
0.141627
0.192431
0.232632
0.271636
0.304834
0.335999
0.364469
0.392371
0.420497
0.450342
0.482586
0.517473
0.554319
0.591775
0.627954
0.66078
0.688036
0.710275
0.735536
0.776915
0.833411
0.886917
0.931042
0.96556
0.994802
1.02347
1.05403
1.0879
1.12377
1.15604
1.17356
1.1606
1.1024
0.998597
0.889218
0.837884
0.840082
0.850616
0.843706
0.790869
0.675447
0.482957
0.200958
-0.185598
-0.694844
-1.34838
-2.17361
-3.2016
-4.4648
-5.99129
-7.80245
-9.90156
-12.0953
-13.67
-14.4982
-19.9137
-23.7522
-26.5177
-23.0471
-18.7133
-13.4864
-7.53635
-2.86555
1.18069
4.27356
6.29591
7.5098
8.00688
8.04294
7.95656
7.57008
7.19117
6.78762
6.25904
6.05528
5.80681
6.03108
0.027793
0.0990302
0.146237
0.199162
0.240433
0.280729
0.314799
0.34678
0.37589
0.404411
0.433194
0.463858
0.49716
0.533364
0.571731
0.610775
0.648378
0.682076
0.708836
0.728401
0.749633
0.787548
0.839663
0.885556
0.922985
0.954279
0.983771
1.01516
1.05045
1.09104
1.13546
1.17742
1.20395
1.19629
1.13601
1.02157
0.902112
0.854105
0.86635
0.883399
0.875537
0.813982
0.6853
0.477274
0.17949
-0.222843
-0.748497
-1.42065
-2.26934
-3.32933
-4.63838
-6.23095
-8.1332
-10.3507
-12.7074
-14.6373
-16.2381
-20.7216
-25.6858
-28.7679
-24.8047
-20.1142
-14.3527
-7.86887
-2.86982
1.4072
4.62223
6.68681
7.89615
8.34611
8.34684
8.23876
7.83395
7.44507
7.00924
6.47533
6.23664
5.98816
6.18052
0.0277014
0.102975
0.150846
0.205907
0.248206
0.289768
0.324666
0.357416
0.38711
0.416193
0.445577
0.477017
0.511353
0.548877
0.588784
0.629439
0.668459
0.702886
0.72861
0.744437
0.760531
0.793458
0.83896
0.876598
0.909475
0.940047
0.971419
1.00643
1.04697
1.0947
1.14814
1.20034
1.2364
1.23411
1.17063
1.04289
0.911541
0.868134
0.891156
0.912681
0.899682
0.825627
0.681877
0.458448
0.146457
-0.269338
-0.808804
-1.49701
-2.36691
-3.45736
-4.81216
-6.47331
-8.47403
-10.8253
-13.3775
-15.7309
-17.9806
-21.2502
-27.8455
-31.2098
-26.6816
-21.6279
-15.2834
-8.21741
-2.86436
1.65679
4.99456
7.0964
8.2937
8.68636
8.64755
8.51648
8.09462
7.69528
7.22603
6.69037
6.41219
6.16253
6.3487
0.0275331
0.10701
0.155457
0.212671
0.255955
0.298753
0.334435
0.367905
0.398126
0.427707
0.45763
0.489799
0.525144
0.563987
0.605448
0.64772
0.688096
0.722959
0.746863
0.757902
0.767778
0.793444
0.830615
0.861248
0.892522
0.924387
0.958697
0.997854
1.04399
1.0992
1.16214
1.2252
1.27141
1.27462
1.20661
1.06232
0.917076
0.879878
0.913637
0.935829
0.912497
0.822844
0.663721
0.426434
0.102834
-0.323424
-0.873595
-1.57482
-2.46324
-3.58222
-4.98245
-6.71481
-8.82186
-11.3236
-14.1033
-16.8905
-19.5254
-21.8949
-30.4033
-33.8769
-28.6773
-23.2568
-16.2819
-8.58358
-2.84915
1.9308
5.39182
7.52546
8.7026
9.02669
8.94408
8.78897
8.35134
7.94139
7.4373
6.90423
6.58235
6.33286
6.50359
0.0272827
0.111141
0.160074
0.219458
0.263681
0.307686
0.344106
0.378243
0.40893
0.438942
0.46934
0.502185
0.53851
0.578665
0.621681
0.665541
0.707101
0.741857
0.76299
0.76843
0.770492
0.786005
0.814939
0.841538
0.873942
0.908367
0.946241
0.989852
1.04182
1.10486
1.17782
1.2525
1.30963
1.31854
1.2444
1.07959
0.918375
0.889398
0.932296
0.949173
0.910301
0.803759
0.630827
0.382509
0.0507172
-0.382455
-0.939748
-1.65051
-2.55429
-3.69955
-5.1448
-6.95118
-9.17263
-11.8422
-14.88
-18.1008
-21.0154
-23.0523
-33.5389
-36.8421
-30.7936
-25.0011
-17.3502
-8.96886
-2.82393
2.23077
5.81536
7.97475
9.12295
9.36605
9.23534
9.05536
8.6035
8.18288
7.64242
7.11684
6.7476
6.49775
6.66069
0.0269442
0.115378
0.1647
0.226271
0.271388
0.316568
0.353679
0.388429
0.419516
0.449887
0.48069
0.514152
0.551421
0.592871
0.637419
0.682764
0.725131
0.758932
0.776485
0.775655
0.767707
0.771335
0.793916
0.819385
0.854971
0.892694
0.934467
0.982711
1.04075
1.11199
1.1956
1.28278
1.35178
1.36669
1.28449
1.0943
0.915336
0.896859
0.944396
0.948192
0.890338
0.768206
0.584734
0.329163
-0.00681555
-0.442899
-1.0033
-1.71972
-2.63544
-3.80466
-5.29466
-7.1781
-9.52197
-12.3761
-15.7002
-19.3625
-22.6357
-25.0929
-37.1759
-40.1802
-33.0355
-26.8596
-18.4888
-9.37481
-2.78801
2.55851
6.26667
8.44506
9.55483
9.70324
9.5202
9.31476
8.85062
8.4189
7.84152
7.3278
6.90848
6.65611
6.83833
0.0265106
0.119731
0.169338
0.233116
0.279077
0.3254
0.363152
0.398458
0.429878
0.460531
0.49166
0.525674
0.563842
0.606555
0.652564
0.699147
0.741622
0.773456
0.786964
0.778567
0.75667
0.747497
0.769558
0.796764
0.836344
0.877716
0.923649
0.976687
1.04106
1.12094
1.21593
1.31667
1.39871
1.42005
1.32731
1.10593
0.908415
0.902059
0.945285
0.928509
0.851811
0.717905
0.52832
0.26986
-0.0658921
-0.500538
-1.05973
-1.77775
-2.70206
-3.89324
-5.42821
-7.39202
-9.86581
-12.9191
-16.5532
-20.6667
-24.416
-28.0498
-41.1809
-43.9253
-35.41
-28.8295
-19.6972
-9.80297
-2.74013
2.91627
6.74746
8.93721
9.99827
10.0369
9.79739
9.56622
9.0924
8.64839
8.0357
7.53645
7.06544
6.81329
6.98794
0.0259735
0.124208
0.173992
0.239994
0.286751
0.334182
0.372524
0.408327
0.440008
0.47086
0.502229
0.536718
0.575729
0.619642
0.666956
0.714286
0.755837
0.784802
0.793401
0.774394
0.734538
0.718941
0.742723
0.774007
0.818568
0.863716
0.914014
0.972041
1.04306
1.1321
1.23932
1.35488
1.45139
1.47968
1.37309
1.11383
0.899043
0.903121
0.928493
0.887607
0.796375
0.656143
0.465436
0.208762
-0.122105
-0.550796
-1.10444
-1.82024
-2.75032
-3.96218
-5.54295
-7.59048
-10.2006
-13.4648
-17.4261
-21.9978
-26.3495
-31.7604
-45.302
-48.033
-37.9178
-30.9035
-20.9724
-10.2543
-2.67804
3.30693
7.25976
9.45212
10.4533
10.3655
10.0656
9.80876
9.32868
8.87076
8.22556
7.74156
7.21856
6.96607
7.1586
0.0253233
0.128822
0.178662
0.246909
0.294411
0.342913
0.381793
0.418031
0.449898
0.480858
0.512372
0.547249
0.587022
0.632021
0.680326
0.727585
0.767091
0.792598
0.795226
0.761263
0.70566
0.690904
0.715039
0.752189
0.801883
0.850945
0.905846
0.969075
1.04711
1.14588
1.26631
1.39816
1.51087
1.5466
1.42133
1.11774
0.88943
0.894661
0.887569
0.826333
0.727748
0.587224
0.400525
0.150416
-0.170875
-0.589219
-1.13336
-1.84383
-2.77776
-4.0099
-5.63778
-7.77196
-10.5231
-14.0062
-18.3053
-23.3385
-28.4231
-35.9974
-49.2536
-52.3898
-40.5435
-33.0683
-22.3082
-10.7278
-2.59851
3.73392
7.80607
9.99087
10.9198
10.6874
10.3234
10.0414
9.55942
9.08609
8.40999
7.9418
7.36775
7.11278
7.35568
0.0245489
0.133584
0.183352
0.253865
0.302057
0.351593
0.390957
0.427565
0.459536
0.490507
0.522059
0.557215
0.597639
0.643522
0.692263
0.738405
0.775159
0.797019
0.791869
0.738343
0.676238
0.663525
0.686819
0.731823
0.786481
0.839687
0.899422
0.968101
1.05354
1.16271
1.29749
1.44736
1.57826
1.6214
1.47038
1.11891
0.880237
0.867032
0.819313
0.749014
0.650771
0.515948
0.338249
0.0993627
-0.207927
-0.612062
-1.14356
-1.84662
-2.78352
-4.03626
-5.71254
-7.93532
-10.8299
-14.5363
-19.1779
-24.6735
-30.6225
-40.5272
-52.87
-56.9284
-43.279
-35.3051
-23.6948
-11.2199
-2.49758
4.20127
8.38952
10.5548
11.3978
11.0007
10.5691
10.2631
9.78472
9.29472
8.58692
8.13607
7.51281
7.26392
7.51705
0.0236369
0.138508
0.188063
0.260863
0.30969
0.360219
0.400013
0.436922
0.468912
0.499786
0.531252
0.566555
0.607464
0.653878
0.702252
0.746473
0.780882
0.79997
0.779723
0.712003
0.647447
0.636545
0.658989
0.713082
0.772539
0.830249