/*--------------------------------*- C++ -*----------------------------------*\
| =========                 |                                                 |
| \\      /  F ield         | OpenFOAM: The Open Source CFD Toolbox           |
|  \\    /   O peration     | Version:  4.1                                   |
|   \\  /    A nd           | Web:      www.OpenFOAM.org                      |
|    \\/     M anipulation  |                                                 |
\*---------------------------------------------------------------------------*/
FoamFile
{
    version     2.0;
    format      ascii;
    class       surfaceScalarField;
    location    "13";
    object      phi;
}
// * * * * * * * * * * * * * * * * * * * * * * * * * * * * * * * * * * * * * //

dimensions      [0 3 -1 0 0 0 0];

internalField   nonuniform List<scalar> 
13220
(
-826.703
2126.61
-1290.5
1764
-1754.49
1763.89
-2100.24
1645.65
-2378.51
1578.46
-2579.22
1500.61
-2707.35
1428.03
-2762.83
1355.68
-2748.67
1285.74
-2665.13
1216.37
-2507.94
1143.01
-2248.06
1040.02
-1798.77
850.611
-1049.28
550.713
250.618
-156.404
2283.01
-361.751
1969.35
-613.575
2015.72
-811.136
1843.22
-1003.88
1771.21
-1158.92
1655.65
-1288.58
1557.7
-1386.74
1453.84
-1457.9
1356.9
-1502.81
1261.28
-1507.11
1147.32
-1420.87
953.778
-1126.62
556.366
-536.533
-39.3755
-285.915
-121.024
2404.04
-312.801
2161.13
-450.367
2153.28
-524.838
1917.69
-587.231
1833.6
-608.041
1676.46
-604.536
1554.19
-574.171
1423.47
-520.132
1302.86
-444.97
1186.12
-353.185
1055.53
-257.814
858.415
-171.912
470.491
-45.2838
-165.972
-331.199
88.9556
2315.08
87.6557
2162.43
131.624
2109.32
203.533
1845.78
275.899
1761.24
371.584
1580.78
477.346
1448.43
593.915
1306.91
712.722
1184.06
830.536
1068.31
937.075
948.994
984.434
811.051
843.172
611.748
289.457
387.734
-41.7416
84.1098
2230.97
129.335
2117.2
189.545
2049.11
251.746
1783.58
308.815
1704.17
376.765
1512.83
440.915
1384.28
526.907
1220.91
640.83
1070.13
768.301
940.837
858.996
858.296
863.458
806.589
719.182
756.024
430.836
676.078
389.094
-20.6537
2251.62
-24.2562
2120.8
-31.0241
2055.87
-64.0421
1816.6
-98.0796
1738.21
-145.13
1559.87
-190.427
1429.58
-179.8
1210.28
-69.0953
959.426
131.488
740.249
349.625
640.158
498.776
657.429
487.868
766.925
306.532
857.406
695.625
-80.7603
2332.38
-233.317
2273.36
-346.973
2169.53
-491.673
1961.3
-639.059
1885.59
-809.135
1729.95
-986.661
1607.1
-1140.3
1363.92
-1232.26
1051.39
-1225.46
733.446
-1088.49
503.185
-806.037
374.977
-435.779
396.665
-124.11
545.735
571.515
85.3051
2247.08
-114.787
2473.45
-236
2290.74
-344.121
2069.42
-441.171
1982.64
-542.181
1830.96
-653.352
1718.27
-803.475
1514.04
-1004.57
1252.48
-1225.71
954.577
-1390.06
667.538
-1393.97
378.88
-1128.52
131.219
-575.928
-6.86093
-4.41292
299.016
1948.06
228.941
2543.52
181.321
2338.36
184.56
2066.18
224.732
1942.47
268.684
1787
320.66
1666.29
328.445
1506.26
261.542
1319.39
113.809
1102.31
-83.6053
864.952
-296.26
591.53
-425.008
259.96
-347.96
-83.9152
-352.373
314.819
1633.24
369.908
2488.43
390.704
2317.56
450.916
2005.96
548.876
1844.51
649.403
1686.48
760.761
1554.94
856.037
1410.98
914.06
1261.36
914.831
1101.54
850.627
929.156
700.17
741.988
444.568
515.564
109.012
251.644
-243.361
179.417
1453.82
251.39
2416.46
293.83
2275.12
348.15
1951.64
424.577
1768.08
500.734
1610.32
574.708
1480.96
637.999
1347.69
682.581
1216.78
697.07
1087.05
673.767
952.459
602.356
813.398
467.421
650.497
262.54
456.521
19.1787
65.2805
1388.54
144.749
2336.99
212.697
2207.17
260.234
1904.11
308.997
1719.32
353.21
1566.11
391.968
1442.2
420.407
1319.25
439.679
1197.51
449.246
1077.48
443.711
957.994
412.584
844.528
334.044
729.039
188.956
601.614
208.135
50.4826
1338.06
132.486
2254.99
231.482
2108.18
347.914
1787.67
468.63
1598.6
577.79
1456.95
670.321
1349.67
744.275
1245.3
789.31
1152.48
800.283
1066.51
767.212
991.065
679.005
932.734
522.66
885.384
300.051
824.222
508.186
243.564
1094.5
368.741
2129.81
324.189
2152.73
219.106
1892.76
129.645
1688.06
69.7496
1516.84
56.196
1363.23
90.3695
1211.12
170.246
1072.6
281.309
955.445
390.232
882.141
435.48
887.487
357.334
963.529
186.779
994.777
694.965
512.751
1484.93
2126.66
2334.89
2331.16
2213.68
1954.55
1670.37
1352.03
1053.14
766.517
537.235
351.199
203.215
-1.1822e-05
-239.98
239.98
-239.98
-239.98
-239.98
185.562
-425.542
185.562
185.562
185.562
559.383
-373.821
559.383
559.383
868.003
-308.621
868.003
868.003
868.003
1111.6
-243.592
1111.6
1111.6
1290.35
-178.752
1290.35
1290.35
1290.35
1405.23
-114.888
1405.23
1405.23
1405.23
1455.52
-50.287
1455.52
1455.52
1442.83
12.6894
1442.83
1442.83
1442.83
1369.88
72.9483
1369.88
1369.88
1246.21
123.674
1246.21
1246.21
1246.21
1077.47
168.743
1077.47
1077.47
1077.47
930.815
146.651
930.815
930.815
830.385
100.43
830.385
830.385
830.385
630.103
200.281
630.103
630.103
630.103
329.449
300.654
329.449
329.449
-7.87338
337.323
-7.87336
-7.87338
-7.87334
-467.804
459.931
-467.804
-467.804
-1520.83
1053.03
-1520.83
-1520.83
-1520.83
-3130.21
1609.38
-3130.21
-3130.21
-3130.21
-5156.6
2026.39
-5156.6
-5156.6
-7404.34
2247.74
-7404.34
-7404.34
-7241.42
-7077.14
-6907.69
-9127.84
2392.69
-8957.46
-8761.12
-8549.19
-8336.04
-8120.37
-7901.49
-7684.97
-7474.01
-9799.76
2535.43
-9581.73
-9361.51
-9139.69
-8933.1
-8724.96
-8514.07
-8302.81
-8091.1
-10466
2579.04
-10247.1
-10026.3
-9803.46
-9579.78
-9350.95
-9112.87
-8873.57
-8633.94
-8395.81
-10648.6
2476.99
-10389.4
-10129
-9867.6
-9606.61
-9346.09
-9069.18
-8783.64
-8499.04
-10403
2173.02
-10121.4
-9830.4
-9524.11
-9218.28
-8912.88
-8610
-8309.09
-7989.5
-9356.28
1668.67
-9049.45
-8745.8
-8443.67
-8128.36
-7808.03
-7489.41
-7170.58
-6853.93
-7727.08
1188.62
-7401.36
-7080.32
-6764.17
-6455.31
-6155.37
-5849.35
-5554.63
-5271.49
-5000.73
-4710.3
-15.6571
-4469.42
-4245.5
-4026.22
-3812.31
-3601.59
-3427.95
-3324.09
-3216.69
-2816.96
-278.853
-2714.96
-2614.97
-2614.97
-2404.52
-210.457
-2201.16
-203.359
-2201.16
-2028.07
-173.082
-2028.07
-1880.4
-147.673
-1759.35
-121.048
-1759.35
-1648.3
-111.057
-1556.21
-92.0895
-1556.21
-1470.11
-86.0991
-1470.11
-1393.42
-76.6911
-1328.26
-65.1604
-1328.26
-1265.2
-63.0566
-1265.2
-1208.16
-57.0393
-1157.28
-50.8814
-1157.28
-1107.3
-49.9771
-1062.8
-44.4987
-1062.8
-1018.3
-44.5025
-1018.3
-976.852
-41.4496
-938.869
-37.9834
-938.869
-900.211
-38.6582
-900.211
-864.001
-36.21
-829.248
-34.7525
-829.248
-794.257
-34.9913
-761.174
-33.083
-761.174
-727.403
-33.7706
-727.403
-694.976
-32.4269
-663.334
-31.6419
-663.334
-630.546
-32.7886
-630.546
-598.516
-32.03
-565.937
-32.5787
-565.937
-532.44
-33.4972
-499.19
-33.2504
-499.19
-465.122
-34.0671
-465.122
-431.365
-33.7571
-397.075
-34.29
-397.075
-361.838
-35.2377
-361.838
-326.309
-35.5287
-289.085
-37.2238
-289.085
-251.088
-37.9974
-212.831
-38.2569
-212.831
-175.37
-37.4612
-175.37
-137.387
-37.9822
-97.9636
-39.4239
-97.9636
-64.7442
-33.2194
-64.7442
-25.3504
-39.3938
38.5914
-63.9418
38.5914
103.113
-64.5218
191.263
-88.1499
191.263
285.134
-93.8704
285.134
-92.2115
-103.024
-434.774
-103.356
-503.113
-104.113
-541.654
-105.052
-581.185
-106.258
-617.962
-107.654
-652.438
-109.261
-685.214
-111.053
-716.308
-113.033
-746.024
-115.192
-774.502
-117.528
-801.935
-120.039
-828.485
-122.721
-854.308
-125.575
-879.546
-128.596
-904.317
-131.784
-928.717
-135.137
-952.823
-138.655
-976.702
-142.34
-1000.44
-146.199
-1024.16
-150.243
-1048.04
-154.486
-1072.35
-158.941
-1097.36
-163.618
-1123.32
-168.521
-1150.39
-173.647
-1178.63
-178.982
-1207.97
-184.501
-1238.24
-190.168
-1269.11
-195.941
-1300.11
-201.785
-1330.61
-207.695
-1359.81
-213.754
-1386.8
-220.203
-1410.54
-227.543
-1429.93
-236.624
-1443.88
-248.672
-1451.37
-265.155
-1451.6
-287.419
-1444.27
-316.1
-1429.91
-350.551
-1410.43
-388.595
-1389.01
-426.883
-1369.21
-461.695
-1353.6
-489.755
-1342.64
-508.658
-1334.16
-516.874
-1322.98
-514.075
-1301.89
-501.946
-1267.62
-478.829
-1224.18
-417.446
-1116.27
-286.591
-654.748
-179.006
355.526
-142.716
1059.82
-110.92
1459
-79.1331
1813.21
-48.1157
2163.8
-16.8704
2513
9.37595
2800.04
28.7334
3043.32
41.9704
3255.85
48.2353
3407.33
51.3219
3553.12
52.5518
3664.69
52.6314
3716.69
52.4887
3712.53
52.3978
3641.82
52.5089
3501.6
52.2033
3283.16
51.9966
3018.8
50.1662
2650.95
48.7301
2298.79
44.3405
1760.34
43.7937
1597.97
38.5499
695.118
41.9194
1372.24
46.8876
3.62871
58.9883
896.784
3601.7
-108.918
-435.044
-109.101
-502.93
-109.804
-540.95
-110.706
-580.283
-111.906
-616.762
-113.312
-651.032
-114.946
-683.58
-116.78
-714.474
-118.815
-743.988
-121.043
-772.274
-123.462
-799.517
-126.067
-825.879
-128.859
-851.517
-131.832
-876.573
-134.985
-901.164
-138.314
-925.388
-141.818
-949.319
-145.498
-973.023
-149.357
-996.579
-153.408
-1020.11
-157.666
-1043.78
-162.146
-1067.87
-166.864
-1092.64
-171.825
-1118.36
-177.028
-1145.18
-182.464
-1173.19
-188.11
-1202.33
-193.934
-1232.42
-199.893
-1263.15
-205.949
-1294.06
-212.089
-1324.47
-218.382
-1353.52
-225.063
-1380.12
-232.648
-1402.96
-242.056
-1420.52
-254.672
-1431.26
-272.236
-1433.8
-296.46
-1427.38
-328.338
-1412.39
-367.358
-1390.89
-411.078
-1366.71
-455.475
-1344.61
-496.019
-1328.67
-528.867
-1320.75
-551.539
-1319.97
-562.859
-1322.84
-562.446
-1323.4
-550.604
-1313.73
-529.528
-1288.69
-500.919
-1252.79
-442.122
-1175.06
-295.3
-801.571
-158.199
218.425
-132.569
1034.19
-107.627
1434.06
-76.4631
1782.05
-46.4755
2133.81
-16.1083
2482.64
9.37185
2774.56
28.0932
3024.6
40.8183
3243.12
46.8469
3401.31
49.7611
3550.2
50.9674
3663.48
51.1423
3716.52
51.1514
3712.52
51.2905
3641.68
51.6532
3501.24
51.6079
3283.2
51.6678
3018.74
50.0734
2652.55
48.8468
2300.01
44.6189
1764.57
44.2449
1598.35
38.3588
701.004
43.141
1367.46
41.6858
5.08398
55.9812
882.488
3563.81
-112.112
-435.397
-112.24
-502.801
-112.913
-540.278
-113.8
-579.396
-114.999
-615.563
-116.415
-649.616
-118.067
-681.928
-119.928
-712.613
-121.998
-741.918
-124.269
-770.004
-126.738
-797.047
-129.402
-823.215
-132.259
-848.661
-135.304
-873.528
-138.534
-897.934
-141.947
-921.976
-145.539
-945.726
-149.312
-969.249
-153.274
-992.617
-157.438
-1015.94
-161.821
-1039.4
-166.442
-1063.24
-171.314
-1087.77
-176.441
-1113.23
-181.818
-1139.81
-187.432
-1167.58
-193.257
-1196.5
-199.257
-1226.42
-205.395
-1257.02
-211.645
-1287.81
-218.043
-1318.07
-224.759
-1346.8
-232.215
-1372.67
-241.216
-1393.96
-253.05
-1408.69
-269.45
-1414.86
-292.295
-1410.96
-322.979
-1396.69
-361.568
-1373.8
-406.162
-1346.3
-452.977
-1319.9
-497.314
-1300.28
-534.902
-1291.08
-562.833
-1292.82
-579.724
-1303.08
-585.268
-1317.29
-579.587
-1329.08
-563.013
-1330.31
-537.309
-1314.4
-505.541
-1284.56
-453.405
-1227.2
-320.432
-934.543
-150.812
48.8049
-113.968
997.349
-101.823
1421.91
-72.7712
1753
-43.8286
2104.87
-14.7563
2453.56
9.73695
2750.07
27.5403
3006.8
39.4901
3231.17
45.0118
3395.78
47.5924
3547.62
48.6644
3662.41
48.9036
3716.28
49.0988
3712.33
49.5351
3641.24
50.2612
3500.51
50.5971
3282.87
51.0427
3018.29
49.8059
2653.78
48.8508
2300.97
44.9174
1768.5
44.3354
1598.93
38.571
706.769
41.608
1364.42
40.6021
6.08993
52.0524
871.038
3527.72
-115.925
-435.826
-116.003
-502.724
-116.65
-539.631
-117.527
-578.519
-118.731
-614.359
-120.162
-648.184
-121.841
-680.249
-123.738
-710.717
-125.853
-739.802
-128.178
-767.679
-130.71
-794.515
-133.446
-820.479
-136.382
-845.724
-139.515
-870.395
-142.841
-894.608
-146.355
-918.462
-150.055
-942.026
-153.943
-965.361
-158.029
-988.531
-162.329
-1011.64
-166.863
-1034.87
-171.652
-1058.46
-176.709
-1082.71
-182.035
-1107.9
-187.624
-1134.22
-193.457
-1161.74
-199.506
-1190.45
-205.734
-1220.19
-212.114
-1250.64
-218.655
-1281.26
-225.478
-1311.24
-232.92
-1339.36
-241.682
-1363.9
-252.955
-1382.68
-268.445
-1393.2
-290.162
-1393.15
-319.868
-1381.25
-358.221
-1358.34
-403.94
-1328.08
-453.564
-1296.68
-502.207
-1271.25
-544.998
-1257.48
-578.373
-1257.7
-600.527
-1270.67
-611.081
-1292.53
-610.42
-1317.95
-599.05
-1340.45
-577.367
-1351.99
-546.762
-1345
-510.864
-1320.46
-462.441
-1275.62
-348.174
-1048.81
-156.348
-143.022
-92.4568
933.458
-90.9368
1420.39
-68.1827
1730.24
-40.1626
2076.85
-12.7214
2426.12
10.491
2726.85
27.1409
2990.15
38.0212
3220.29
42.8048
3391
44.8822
3545.54
45.7095
3661.58
45.976
3716.01
46.3749
3711.93
47.1646
3640.45
48.3421
3499.33
49.165
3282.05
50.1001
3017.36
49.3314
2654.55
48.7397
2301.56
45.1582
1772.08
44.527
1599.56
38.7741
712.522
41.1007
1362.1
38.9362
8.25446
47.3049
862.669
3510.5
-119.606
-436.307
-119.653
-502.677
-120.281
-539.002
-121.156
-577.645
-122.37
-613.145
-123.822
-646.732
-125.531
-678.539
-127.467
-708.782
-129.63
-737.639
-132.011
-765.298
-134.609
-791.917
-137.419
-817.67
-140.437
-842.706
-143.66
-867.171
-147.083
-891.186
-150.7
-914.845
-154.509
-938.217
-158.514
-961.356
-162.725
-984.321
-167.16
-1007.21
-171.846
-1030.18
-176.804
-1053.5
-182.047
-1077.47
-187.575
-1102.37
-193.378
-1128.42
-199.435
-1155.69
-205.715
-1184.17
-212.191
-1213.72
-218.859
-1243.97
-225.799
-1274.32
-233.277
-1303.77
-241.889
-1330.75
-252.711
-1353.08
-267.379
-1368.01
-287.947
-1372.63
-316.427
-1364.67
-353.986
-1343.69
-400.006
-1312.32
-451.538
-1276.55
-503.735
-1244.48
-551.246
-1223.74
-589.795
-1218.93
-617.031
-1230.47
-632.357
-1255.34
-636.245
-1288.64
-629.533
-1324.67
-612.931
-1357.05
-586.833
-1378.09
-552.184
-1379.65
-512.479
-1360.16
-465.92
-1322.18
-367.968
-1146.76
-165.422
-345.568
-70.9234
838.96
-73.7018
1423.17
-61.7093
1718.25
-35.5187
2050.66
-9.7697
2400.37
11.7609
2705.32
26.98
2974.93
36.4788
3210.79
40.2373
3387.24
41.6068
3544.17
42.0563
3661.13
42.2888
3715.78
42.9006
3711.31
44.0969
3639.25
45.8172
3497.61
47.238
3280.63
48.7838
3015.81
48.5956
2654.74
48.491
2301.66
45.3164
1775.26
44.8158
1600.06
38.9744
718.363
41.2368
1359.84
37.0232
12.468
43.2737
856.419
3489.83
-123.332
-436.821
-123.362
-502.647
-123.979
-538.385
-124.858
-576.766
-126.088
-611.915
-127.566
-645.254
-129.31
-676.795
-131.29
-706.802
-133.506
-735.423
-135.949
-762.855
-138.617
-789.25
-141.505
-814.781
-144.612
-839.599
-147.93
-863.853
-151.455
-887.661
-155.181
-911.119
-159.106
-934.292
-163.232
-957.23
-167.573
-979.98
-172.151
-1002.63
-176.995
-1025.34
-182.129
-1048.36
-187.567
-1072.03
-193.307
-1096.63
-199.335
-1122.39
-205.63
-1149.39
-212.166
-1177.64
-218.934
-1206.95
-225.986
-1236.92
-233.527
-1266.78
-242.057
-1295.24
-252.538
-1320.27
-266.511
-1339.11
-286.024
-1348.5
-313.245
-1345.41
-349.728
-1328.18
-395.47
-1297.95
-448.165
-1259.63
-503.259
-1221.46
-555.112
-1192.63
-598.741
-1180.11
-631.085
-1186.59
-651.167
-1210.39
-659.416
-1247.09
-656.85
-1291.21
-644.519
-1337
-623.199
-1378.37
-593.277
-1408.01
-555.36
-1417.57
-512.41
-1403.11
-466.016
-1368.58
-380.606
-1232.17
-176.525
-549.649
-51.9866
714.421
-51.2411
1422.43
-51.8846
1718.9
-29.909
2028.68
-5.74734
2376.21
13.7345
2685.84
27.1889
2961.47
34.9908
3202.99
37.4081
3384.82
37.8318
3543.75
37.7494
3661.22
37.8611
3715.67
38.6758
3710.5
40.3192
3637.61
42.6613
3495.27
44.7858
3278.5
47.0583
3013.54
47.5636
2654.23
48.0662
2301.16
45.3709
1777.95
45.1067
1600.32
39.2182
724.251
41.3143
1357.74
35.1926
18.5898
38.7017
852.91
3489.14
-127.068
-437.352
-127.094
-502.621
-127.709
-537.77
-128.598
-575.876
-129.849
-610.664
-131.359
-643.745
-133.143
-675.01
-135.172
-704.773
-137.445
-733.149
-139.954
-760.347
-142.697
-786.507
-145.669
-811.809
-148.868
-836.401
-152.287
-860.434
-155.919
-884.028
-159.76
-907.278
-163.804
-930.248
-168.058
-952.977
-172.534
-975.504
-177.259
-997.903
-182.266
-1020.33
-187.584
-1043.05
-193.224
-1066.39
-199.184
-1090.67
-205.449
-1116.12
-212.001
-1142.84
-218.826
-1170.81
-225.96
-1199.81
-233.56
-1229.32
-242.042
-1258.3
-252.255
-1285.02
-265.64
-1306.88
-284.211
-1320.54
-310.237
-1322.48
-345.549
-1310.1
-390.63
-1283.1
-443.801
-1244.78
-500.999
-1202.43
-556.577
-1165.88
-604.981
-1144.22
-642.366
-1142.73
-667.183
-1161.77
-679.689
-1197.88
-681.016
-1245.77
-672.442
-1299.78
-655.056
-1354.38
-629.629
-1403.79
-596.548
-1441.09
-556.204
-1457.91
-510.903
-1448.41
-463.942
-1415.54
-388.51
-1307.6
-191.707
-746.452
-38.9561
561.671
-26.0176
1409.49
-37.586
1730.46
-23.0142
2014.11
-0.661965
2353.86
16.6279
2668.55
27.9065
2950.2
33.669
3197.23
34.4126
3384.08
33.6214
3544.54
32.8334
3662
32.7186
3715.78
33.7072
3709.51
35.8267
3635.49
38.8567
3492.24
41.7829
3275.57
44.8922
3010.43
46.2023
2652.92
47.4323
2299.93
45.2959
1780.09
45.3716
1600.25
39.4915
730.132
41.3461
1355.88
33.8867
26.0492
35.4649
851.331
3491.38
-130.827
-437.886
-130.86
-502.588
-131.481
-537.15
-132.389
-574.968
-133.667
-609.386
-135.213
-642.198
-137.043
-673.18
-139.125
-702.691
-141.461
-730.814
-144.04
-757.767
-146.863
-783.684
-149.924
-808.747
-153.22
-833.105
-156.745
-856.909
-160.491
-880.282
-164.451
-903.318
-168.622
-926.077
-173.007
-948.591
-177.624
-970.887
-182.502
-993.025
-187.679
-1015.15
-193.186
-1037.54
-199.037
-1060.54
-205.229
-1084.48
-211.747
-1109.6
-218.583
-1136.01
-225.757
-1163.64
-233.389
-1192.18
-241.822
-1220.88
-251.803
-1248.32
-264.665
-1272.16
-282.38
-1289.17
-307.296
-1295.62
-341.47
-1288.3
-385.749
-1265.82
-438.942
-1229.91
-497.504
-1186.22
-556.042
-1143.89
-608.71
-1113.21
-650.94
-1101.99
-680.476
-1113.19
-697.215
-1145.03
-702.3
-1192.8
-697.213
-1250.85
-683.277
-1313.71
-661.524
-1376.14
-632.688
-1432.63
-597.176
-1476.6
-555.282
-1499.8
-508.722
-1494.97
-461.239
-1463.02
-394.042
-1374.8
-213.609
-926.885
-33.9623
382.024
-0.991942
1376.52
-18.3721
1747.84
-13.8898
2009.63
5.43415
2334.54
20.6151
2653.37
29.2986
2941.51
32.626
3193.9
31.3389
3385.37
29.0292
3546.85
27.3367
3663.7
26.8726
3716.25
27.9878
3708.4
30.6025
3632.88
34.3782
3488.47
38.1977
3271.76
42.2529
3006.38
44.4775
2650.7
46.56
2297.85
45.067
1781.58
45.5991
1599.72
39.7805
735.95
41.4094
1354.26
33.374
34.0845
33.4515
851.254
3485.41
-134.612
-438.411
-134.664
-502.536
-135.297
-536.516
-136.231
-574.034
-137.542
-608.075
-139.131
-640.61
-141.011
-671.3
-143.152
-700.55
-145.555
-728.411
-148.211
-755.112
-151.118
-780.777
-154.273
-805.592
-157.672
-829.706
-161.309
-853.273
-165.174
-876.417
-169.259
-899.233
-173.562
-921.775
-178.085
-944.068
-182.847
-966.124
-187.884
-987.989
-193.237
-1009.8
-198.942
-1031.83
-205.014
-1054.47
-211.451
-1078.05
-218.245
-1102.81
-225.409
-1128.84
-233.034
-1156.01
-241.399
-1183.82
-251.148
-1211.14
-263.508
-1235.96
-280.4
-1255.27
-304.247
-1265.32
-337.334
-1262.53
-380.829
-1244.81
-433.886
-1212.76
-493.325
-1170.47
-554.07
-1125.47
-610.289
-1087.67
-656.942
-1066.56
-691.061
-1067.87
-712.012
-1092.24
-720.787
-1136.26
-719.004
-1194.58
-708.218
-1261.64
-689.672
-1332.26
-664.31
-1401.5
-632.833
-1464.11
-595.691
-1513.75
-553.171
-1542.32
-506.548
-1541.59
-459.284
-1510.28
-399.537
-1434.55
-246.093
-1080.33
-39.0114
174.942
19.7228
1317.78
5.06341
1762.5
-0.923039
2015.61
12.8036
2320.81
25.7508
2640.42
31.544
2935.72
31.997
3193.45
28.2875
3389.08
24.1195
3551.02
21.294
3666.52
20.3395
3717.2
21.5163
3707.22
24.6341
3629.76
29.2057
3483.89
34.0031
3266.96
39.111
3001.27
42.3581
2647.45
45.4205
2294.79
44.6607
1782.34
45.7677
1598.61
40.0815
741.636
41.4774
1352.86
33.2037
42.3583
31.4196
853.038
3478.85
-138.428
-438.914
-138.508
-502.457
-139.162
-535.862
-140.129
-573.067
-141.48
-606.725
-143.117
-638.973
-145.053
-669.364
-147.258
-698.345
-149.733
-725.936
-152.47
-752.375
-155.467
-777.78
-158.722
-802.338
-162.23
-826.198
-165.983
-849.519
-169.974
-872.426
-174.192
-895.015
-178.631
-917.335
-183.298
-939.401
-188.213
-961.21
-193.414
-982.788
-198.95
-1004.26
-204.862
-1025.92
-211.167
-1048.16
-217.866
-1071.35
-224.969
-1095.71
-232.542
-1121.27
-240.805
-1147.75
-250.306
-1174.32
-262.155
-1199.29
-278.204
-1219.91
-300.949
-1232.52
-332.932
-1233.34
-375.679
-1219.79
-428.648
-1191.84
-488.833
-1152.58
-551.297
-1108.01
-610.322
-1066.45
-660.735
-1037.26
-699.068
-1028.23
-724.11
-1042.83
-736.525
-1079.83
-737.934
-1134.85
-730.082
-1202.43
-714.428
-1277.29
-692.092
-1354.6
-663.94
-1429.65
-630.668
-1497.38
-592.791
-1551.62
-550.656
-1584.46
-505.238
-1587.01
-459.458
-1556.06
-406.837
-1487.17
-287.072
-1200.09
-63.8274
-48.3025
32.0884
1221.87
29.6486
1764.94
17.0261
2028.23
22.3899
2315.45
32.0719
2630.74
34.7875
2933
31.933
3196.3
25.3709
3395.64
18.9675
3557.42
14.7474
3670.74
13.1425
3718.81
14.2991
3706.06
17.9155
3626.14
23.3257
3478.48
29.1782
3261.11
35.4415
2995
39.8168
2643.08
43.9855
2290.62
44.0529
1782.28
45.8563
1596.81
40.3875
747.105
41.553
1351.69
33.2477
50.6635
29.8362
856.45
3471.22
-142.28
-439.386
-142.396
-502.341
-143.08
-535.177
-144.087
-572.06
-145.483
-605.329
-147.174
-637.281
-149.172
-667.366
-151.447
-696.07
-153.999
-723.383
-156.822
-749.553
-159.915
-774.687
-163.275
-798.978
-166.898
-822.575
-170.775
-845.641
-174.898
-868.304
-179.254
-890.659
-183.838
-912.751
-188.655
-934.584
-193.728
-956.137
-199.099
-977.417
-204.826
-998.537
-210.955
-1019.79
-217.507
-1041.61
-224.496
-1064.36
-231.969
-1088.23
-240.094
-1113.14
-249.324
-1138.52
-260.641
-1163
-275.799
-1184.13
-297.343
-1198.37
-328.094
-1201.77
-370.027
-1191.4
-422.983
-1166.83
-484.056
-1130.77
-548.18
-1088.45
-609.537
-1046.65
-662.965
-1013.02
-704.869
-995.355
-733.645
-999.45
-749.557
-1026.92
-754.068
-1075.32
-748.999
-1139.92
-735.999
-1215.43
-716.364
-1296.93
-691.101
-1379.86
-661.038
-1459.71
-626.904
-1531.51
-589.308
-1589.22
-548.694
-1625.07
-505.825
-1629.88
-462.957
-1598.93
-416.785
-1533.34
-320.036
-1296.84
-95.2046
-273.133
35.2317
1091.43
51.5917
1748.58
39.1978
2040.63
35.5098
2319.13
39.875
2626.38
39.135
2933.74
32.5844
3202.85
22.7119
3405.51
13.6551
3566.48
7.74346
3676.65
5.30681
3721.24
6.34669
3705.02
10.4442
3622.04
16.7286
3472.2
23.7063
3254.13
31.2229
2987.49
36.8291
2637.47
42.229
2285.22
43.2189
1781.29
45.8479
1594.18
40.6873
752.266
41.6624
1350.72
33.5823
58.7436
28.8338
861.198
3461.8
-146.172
-439.816
-146.333
-502.18
-147.055
-534.456
-148.109
-571.006
-149.557
-603.881
-151.308
-635.53
-153.373
-665.301
-155.723
-693.72
-158.359
-720.748
-161.274
-746.638
-164.468
-771.492
-167.939
-795.507
-171.683
-818.831
-175.691
-841.633
-179.952
-864.043
-184.454
-886.156
-189.19
-908.015
-194.164
-929.611
-199.4
-950.9
-204.95
-971.868
-210.875
-992.611
-217.233
-1013.43
-224.054
-1034.79
-231.377
-1057.04
-239.328
-1080.28
-248.266
-1104.2
-259.034
-1127.75
-273.251
-1148.78
-293.461
-1163.92
-322.755
-1169.07
-363.649
-1160.88
-416.535
-1138.52
-478.697
-1104.67
-544.777
-1064.69
-608.493
-1024.74
-664.464
-990.678
-709.166
-968.315
-741.009
-963.512
-760.035
-980.425
-767.461
-1019.49
-765.045
-1077.73
-754.523
-1150.44
-737.343
-1232.61
-714.643
-1319.63
-687.362
-1407.14
-656.34
-1490.74
-622.388
-1565.46
-586.244
-1625.37
-548.452
-1662.86
-509.561
-1668.77
-471.058
-1637.44
-431.117
-1573.28
-349.486
-1378.47
-126.606
-496.013
30.8145
934.011
68.49
1710.91
63.0818
2046.04
52.8581
2329.36
49.8511
2629.38
44.7293
2938.87
34.0903
3213.49
20.4422
3419.16
8.27086
3578.65
0.332088
3684.59
-3.14075
3724.71
-2.32836
3704.21
2.22147
3617.49
9.40923
3465.01
17.5757
3245.96
26.4377
2978.63
33.3744
2630.53
40.1274
2278.46
42.1349
1779.28
45.7258
1590.59
40.9679
757.024
41.8095
1349.88
34.1555
66.3976
27.7868
867.567
3451.59
-150.11
-440.196
-150.324
-501.966
-151.091
-533.689
-152.199
-569.898
-153.706
-602.375
-155.524
-633.711
-157.662
-663.163
-160.093
-691.289
-162.818
-718.023
-165.83
-743.625
-169.132
-768.191
-172.72
-791.918
-176.592
-814.96
-180.737
-837.488
-185.144
-859.636
-189.8
-881.501
-194.694
-903.121
-199.832
-924.473
-205.24
-945.492
-210.974
-966.133
-217.109
-986.476
-223.712
-1006.83
-230.834
-1027.67
-238.572
-1049.3
-247.201
-1071.65
-257.415
-1093.99
-270.664
-1114.5
-289.415
-1130.03
-316.975
-1136.36
-356.449
-1129.6
-408.984
-1108.34
-472.289
-1075.21
-540.744
-1036.21
-607.306
-998.123
-665.919
-966.126
-712.913
-943.683
-746.982
-934.247
-768.392
-942.102
-778.293
-970.523
-778.296
-1019.49
-770.089
-1085.94
-755.174
-1165.35
-734.79
-1253
-709.965
-1344.45
-681.628
-1435.48
-650.701
-1521.66
-618.132
-1598.03
-584.801
-1658.7
-551.299
-1696.37
-517.857
-1702.21
-485.048
-1670.25
-451.459
-1606.87
-381.588
-1448.35
-163.064
-714.537
20.4488
750.498
79.659
1651.7
85.5649
2040.13
73.7984
2341.12
62.8017
2640.38
51.86
2949.81
36.5915
3228.76
18.6962
3437.06
2.91217
3594.44
-7.42832
3694.93
-12.1696
3729.46
-11.7135
3703.75
-6.75415
3612.54
1.3633
3456.89
10.7806
3236.54
21.0735
2968.33
29.4364
2622.17
37.6603
2270.24
40.7782
1776.16
45.4739
1585.89
41.2146
761.283
42.0006
1349.09
34.883
73.5151
27.1071
875.343
3441.47
-154.097
-440.518
-154.372
-501.691
-155.192
-532.868
-156.362
-568.728
-157.934
-600.803
-159.825
-631.82
-162.043
-660.946
-164.561
-688.771
-167.38
-715.203
-170.497
-740.509
-173.912
-764.776
-177.624
-788.206
-181.63
-810.953
-185.921
-833.197
-190.482
-855.075
-195.299
-876.685
-200.36
-898.059
-205.67
-919.163
-211.257
-939.905
-217.185
-960.205
-223.542
-980.12
-230.414
-999.959
-237.896
-1020.18
-246.196
-1041
-255.866
-1061.98
-268.15
-1081.71
-285.362
-1097.29
-310.915
-1104.48
-348.491
-1098.78
-400.161
-1077.93
-464.38
-1044.13
-535.499
-1004.1
-605.606
-966.106
-667.526
-936.203
-716.943
-916.708
-752.661
-907.966
-775.508
-911.399
-787.064
-930.546
-788.971
-968.616
-782.796
-1025.67
-769.96
-1098.78
-751.698
-1183.62
-729.084
-1275.61
-703.108
-1370.43
-674.769
-1463.82
-645.142
-1551.29
-615.355
-1627.82
-586.405
-1687.65
-558.778
-1723.99
-532.162
-1728.83
-506.009
-1696.4
-478.636
-1634.24
-418.863
-1508.12
-208.698
-924.703
4.30799
537.492
85.3908
1570.61
104.217
2021.3
96.5597
2348.78
79.1282
2657.81
60.9959
2967.94
40.2719
3249.48
17.6047
3459.72
-2.31889
3614.36
-15.476
3708.09
-21.7469
3735.73
-21.7924
3703.8
-16.4786
3607.22
-7.41531
3447.83
3.31502
3225.81
15.1232
2956.52
25.0033
2612.29
34.8112
2260.43
39.1276
1771.84
45.0769
1579.94
41.4101
764.95
42.2344
1348.27
35.7471
80.0024
26.3522
884.738
3432.3
-158.139
-440.773
-158.482
-501.349
-159.364
-531.987
-160.603
-567.489
-162.247
-599.158
-164.218
-629.849
-166.522
-658.642
-169.133
-686.16
-172.053
-712.283
-175.28
-737.283
-178.815
-761.241
-182.658
-784.362
-186.806
-806.805
-191.25
-828.754
-195.974
-850.351
-200.96
-871.698
-206.197
-892.822
-211.687
-913.674
-217.461
-934.13
-223.594
-954.073
-230.19
-973.523
-237.374
-992.775
-245.322
-1012.24
-254.461
-1031.86
-265.817
-1050.63
-281.468
-1066.06
-304.804
-1073.96
-339.979
-1069.3
-390.09
-1048.67
-454.675
-1013.34
-528.436
-970.365
-602.705
-929.826
-668.908
-899.903
-721.547
-883.564
-759.038
-879.217
-782.653
-884.352
-794.789
-899.262
-797.666
-927.669
-792.925
-973.358
-781.835
-1036.75
-765.49
-1115.12
-744.894
-1204.21
-721.036
-1299.47
-694.952
-1396.51
-667.806
-1490.96
-640.893
-1578.2
-615.526
-1653.19
-592.691
-1710.48
-572.502
-1744.18
-553.772
-1747.56
-534.606
-1715.57
-512.702
-1656.15
-462.279
-1558.54
-269.297
-1117.69
-19.9541
288.15
86.2095
1464.45
118.032
1989.48
119.012
2347.8
98.5195
2678.3
72.6669
2993.79
45.3987
3276.75
17.303
3487.82
-7.31559
3638.98
-23.744
3724.52
-31.8371
3743.82
-32.5455
3704.51
-26.9434
3601.62
-16.9297
3437.82
-4.82693
3213.71
8.58305
2943.11
20.0698
2600.8
31.5668
2248.94
37.1641
1766.25
44.5203
1572.58
41.5356
767.935
42.4979
1347.3
36.7819
85.7184
25.7579
895.762
3422.82
-162.242
-440.954
-162.66
-500.931
-163.612
-531.035
-164.927
-566.174
-166.651
-597.434
-168.709
-627.792
-171.104
-656.247
-173.815
-683.449
-176.843
-709.255
-180.185
-733.94
-183.847
-757.579
-187.829
-780.381
-192.127
-802.507
-196.732
-824.149
-201.627
-845.456
-206.793
-866.532
-212.215
-887.4
-217.895
-907.994
-223.867
-928.158
-230.217
-947.723
-237.082
-966.657
-244.653
-985.204
-253.271
-1003.62
-263.752
-1021.38
-277.886
-1036.49
-298.89
-1045.05
-331.218
-1041.63
-378.979
-1021.54
-443.092
-984.559
-519.088
-937.347
-597.848
-891.606
-669.302
-858.373
-726.352
-842.853
-766.494
-843.422
-790.984
-854.727
-802.939
-872.397
-805.577
-896.624
-801.204
-932.043
-791.167
-983.394
-776.354
-1051.57
-757.55
-1133.93
-735.611
-1226.15
-711.535
-1323.54
-686.517
-1421.53
-661.973
-1515.51
-639.452
-1600.72
-620.358
-1672.28
-605.411
-1725.43
-593.962
-1755.63
-583.584
-1757.94
-570.903
-1728.25
-553.064
-1673.99
-511.271
-1600.33
-351.881
-1277.07
-64.9618
1.23007
82.3511
1317.14
127.468
1944.37
139.452
2335.82
120.035
2697.72
87.2296
3026.6
52.3239
3311.66
17.9503
3522.19
-11.9736
3668.9
-32.1638
3744.71
-42.4023
3754.06
-43.9517
3706.06
-38.1372
3595.8
-27.1773
3426.86
-13.6432
3200.18
1.45256
2928.02
14.6319
2587.62
27.9184
2235.65
34.8709
1759.29
43.7907
1563.66
41.5715
770.154
42.7817
1346.09
37.9566
90.5435
25.4961
908.222
3414.02
-166.41
-441.053
-166.911
-500.43
-167.94
-530.006
-169.339
-564.775
-171.15
-595.623
-173.302
-625.641
-175.796
-653.752
-178.613
-680.632
-181.755
-706.114
-185.221
-730.474
-189.017
-753.783
-193.144
-776.253
-197.6
-798.05
-202.376
-819.374
-207.452
-840.379
-212.808
-861.176
-218.426
-881.782
-224.306
-902.115
-230.488
-921.976
-237.077
-941.134
-244.264
-959.471
-252.365
-977.103
-262.03
-993.952
-274.739
-1008.67
-293.404
-1017.83
-322.558
-1015.9
-367.182
-997.004
-429.775
-958.948
-507.211
-907.124
-590.39
-854.168
-667.828
-814.168
-730.532
-795.668
-774.64
-798.745
-800.937
-817.126
-812.833
-842.83
-814.409
-870.821
-809.063
-901.97
-798.868
-942.237
-784.78
-997.483
-767.318
-1069.03
-747.042
-1154.2
-724.759
-1248.43
-701.6
-1346.7
-679.029
-1444.1
-658.779
-1535.76
-642.598
-1616.9
-631.742
-1683.14
-626.247
-1730.92
-624.257
-1757.62
-621.844
-1760.35
-614.25
-1735.84
-598.431
-1689.8
-562.605
-1636.16
-433.089
-1406.59
-124.319
-307.54
74.4088
1118.41
133.569
1885.2
156.928
2312.46
142.438
2712.21
104.661
3064.37
61.4364
3354.88
19.768
3563.86
-16.1811
3704.85
-40.6665
3769.19
-53.403
3766.79
-55.9887
3708.64
-50.0466
3589.86
-38.1505
3414.96
-23.1289
3185.16
-6.27526
2911.16
8.68619
2572.66
23.8622
2220.47
32.2338
1750.92
42.8772
1553.02
41.4979
771.533
43.0676
1344.52
39.2386
94.3725
24.8935
922.567
3405.16
-170.65
-441.063
-171.24
-499.839
-172.355
-528.891