/*--------------------------------*- C++ -*----------------------------------*\
| =========                 |                                                 |
| \\      /  F ield         | OpenFOAM: The Open Source CFD Toolbox           |
|  \\    /   O peration     | Version:  4.1                                   |
|   \\  /    A nd           | Web:      www.OpenFOAM.org                      |
|    \\/     M anipulation  |                                                 |
\*---------------------------------------------------------------------------*/
FoamFile
{
    version     2.0;
    format      ascii;
    class       surfaceScalarField;
    location    "12";
    object      phi;
}
// * * * * * * * * * * * * * * * * * * * * * * * * * * * * * * * * * * * * * //

dimensions      [0 3 -1 0 0 0 0];

internalField   nonuniform List<scalar> 
420
(
-949.879
2249.78
-1573.96
1924.28
-2054
1779.95
-2424.23
1670.13
-2699.86
1575.83
-2888.38
1488.42
-2993.06
1404.58
-3013.86
1321
-2949.61
1235.66
-2797.23
1147.52
-2551.17
1054.13
-2193
941.735
-1687.17
794.065
-1012.67
625.704
287.229
373.336
1876.44
442.748
1854.86
437.301
1785.39
406.697
1700.74
380.579
1601.94
359.9
1509.1
345.291
1419.19
337.535
1328.76
333.482
1239.71
326.952
1154.05
309.608
1071.48
267.466
983.878
191.427
870.104
111.447
705.684
398.676
33.5761
1842.87
-97.3886
1985.83
-253.613
1941.62
-371.12
1818.24
-473.183
1704.01
-567.532
1603.45
-651.749
1503.4
-725.796
1402.8
-788.074
1301.99
-837.307
1203.28
-868.226
1102.4
-856.088
971.74
-740.336
754.351
-434.284
399.633
-35.6076
28.7765
1814.09
-100.652
2115.26
-225.56
2066.53
-304.496
1897.18
-368.157
1767.67
-416.953
1652.24
-446.229
1532.68
-457.016
1413.59
-451.854
1296.83
-430.155
1181.59
-387.228
1059.47
-311.874
896.387
-192.866
635.344
-48.408
255.177
-84.0152
169.627
1644.47
146.159
2138.72
123.734
2088.95
122.872
1898.04
126.944
1763.6
135.808
1643.38
149.105
1519.38
166.594
1396.1
186.945
1276.48
208.133
1160.4
229.133
1038.47
243.823
881.696
233.004
646.162
155.23
332.952
71.2147
223.079
1421.39
244.186
2117.62
234.749
2098.39
236.027
1896.76
240.375
1759.25
244.309
1639.45
246.551
1517.14
245.254
1397.4
241.165
1280.57
233.991
1167.57
221.385
1051.08
199.142
903.94
156.143
689.162
78.303
410.792
149.517
203.323
1218.07
238.379
2082.57
213.624
2123.14
191.412
1918.97
177.203
1773.46
163.771
1652.88
150.037
1530.87
135.895
1411.54
121.07
1295.39
106.918
1181.72
92.8218
1065.17
75.7713
920.991
52.0246
712.909
19.022
443.795
168.539
171.857
1046.21
221.984
2032.43
199.423
2145.7
170.405
1947.99
152.054
1791.81
137.673
1667.26
122.785
1545.76
108.587
1425.74
95.5923
1308.39
83.1134
1194.2
71.4933
1076.79
58.6422
933.841
40.3297
731.221
15.7523
468.373
184.293
146.095
900.114
210.055
1968.47
196.874
2158.89
170.055
1974.81
152.41
1809.46
139.545
1680.13
127.084
1558.23
113.88
1438.95
101.336
1320.93
89.4359
1206.11
77.0003
1089.23
63.102
947.742
44.3181
750.009
19.1746
493.521
203.469
116.76
783.353
184.858
1900.38
179.639
2164.11
154.327
2000.13
137.24
1826.55
124.021
1693.36
111.389
1570.86
98.9799
1451.36
86.126
1333.79
73.8844
1218.35
62.1182
1101
49.0409
960.827
32.8719
766.186
13.1958
513.199
216.659
83.1715
700.191
143.154
1840.41
144.707
2162.56
122.779
2022.06
106.165
1843.16
94.4682
1705.04
82.5822
1582.74
71.1693
1462.77
60.3856
1344.57
49.4583
1229.28
39.4249
1111.03
29.7476
970.509
18.0901
777.845
5.24975
526.041
221.896
51.2555
648.946
97.9322
1793.73
102.713
2157.77
87.3751
2037.39
73.139
1857.38
63.1253
1715.04
54.2319
1591.63
44.8504
1472.14
36.1417
1353.27
28.1682
1237.24
20.425
1118.77
13.6775
977.234
6.73009
784.771
-0.415219
533.174
221.474
25.1129
623.813
57.6849
1761.14
63.4725
2151.98
53.4221
2047.42
43.845
1866.95
36.1444
1722.76
29.5214
1598.26
23.4783
1478.19
17.0378
1359.71
11.2967
1242.98
6.59615
1123.47
2.46893
981.364
-1.07602
788.321
-3.6834
535.791
217.795
1.38361
622.401
24.0199
1738.51
33.3313
2142.68
27.7065
2053.05
20.3611
1874.32
15.0663
1728.06
9.52563
1603.8
4.57726
1483.14
0.0280792
1364.27
-4.84564
1247.86
-8.35903
1126.98
-9.66673
982.685
-9.72852
788.401
-7.13919
533.213
210.65
-11.7475
-3.14048
1.46085
-0.384028
-5.0798
-8.83215
-11.7803
-15.2203
-18.0816
-20.2144
-21.7761
-21.1126
-18.1254
-12.3947
)
;

boundaryField
{
    inletFace
    {
        type            calculated;
        value           nonuniform List<scalar> 
450
(
-2.644e-14
6.35973e-13
-8.02661e-14
-1.43561e-13
1.28333e-13
-1.90633e-13
-6.81147e-14
7.22465e-14
-1.00144e-13
-2.71864e-14
5.733e-14
-2.95685e-14
-7.35113e-15
7.8571e-15
8.26812e-16
-2.08368e-12
-2.2028e-12
1.13003e-13
-3.71262e-13
-3.17728e-13
-2.26249e-16
-2.91561e-13
-1.34799e-13
5.50787e-15
-1.39667e-13
-5.3065e-14
4.51577e-14
-2.24099e-14
-3.44433e-15
3.49853e-16
-2.24359e-12
-2.35598e-12
-7.33428e-14
-4.25871e-13
-2.91958e-13
-1.30669e-13
-2.65091e-13
-1.01195e-13
-8.57049e-14
-1.13427e-13
-2.03761e-14
-2.13365e-14
-1.66834e-14
1.08275e-14
5.44492e-15
-2.63061e-12
-2.24536e-12
-1.32046e-13
-4.48041e-13
-1.63958e-13
-2.37367e-13
-3.86725e-13
-8.85888e-14
-1.41946e-13
-1.7039e-13
-3.11048e-14
-6.17147e-14
-7.90864e-14
5.27912e-14
1.03797e-13
-2.44854e-12
-2.28561e-12
-2.14156e-13
-3.48369e-13
-1.39272e-13
-2.30819e-13
-3.68339e-13
-9.09716e-14
-1.33193e-13
-1.68623e-13
-4.71093e-14
-3.694e-14
-6.23551e-14
1.66284e-14
1.00647e-13
-2.11756e-12
-2.40418e-12
-4.22702e-13
-3.02808e-13
-1.47293e-13
-1.86711e-13
-3.28315e-13
-1.02851e-13
-1.08945e-13
-1.49174e-13
-9.98742e-15
-3.70816e-15
-4.23137e-14
2.07579e-14
6.77063e-14
-1.90322e-12
-2.47903e-12
-7.19537e-13
-3.1356e-13
-1.7183e-13
-2.27712e-13
-3.33869e-13
-1.53847e-13
-1.34898e-13
-1.14029e-13
-3.37828e-14
-5.88541e-14
-3.2593e-14
-5.42481e-14
-1.37506e-13
-1.67353e-12
-2.47425e-12
-9.65522e-13
-3.44931e-13
-1.9618e-13
-2.59799e-13
-3.32666e-13
-1.73658e-13
-1.3456e-13
-1.04226e-13
-7.92139e-14
-1.48149e-13
-3.79207e-14
-7.02595e-15
-2.38864e-13
-1.40586e-12
-2.44135e-12
-1.14197e-12
-4.0556e-13
-2.1793e-13
-2.29661e-13
-3.08616e-13
-1.89685e-13
-1.11839e-13
-1.14901e-13
-9.09242e-14
-1.12104e-13
-6.90435e-14
-4.66817e-15
-4.73832e-14
-1.20721e-12
-2.3785e-12
-1.28634e-12
-4.71091e-13
-2.24037e-13
-1.83603e-13
-2.8754e-13
-2.06214e-13
-1.03615e-13
-1.18498e-13
-8.98721e-14
-4.67299e-14
-6.35801e-14
-4.91067e-14
7.56233e-14
-1.01818e-12
-2.30132e-12
-1.40449e-12
-5.28191e-13
-2.34214e-13
-1.77037e-13
-2.57515e-13
-2.12337e-13
-9.70874e-14
-8.19615e-14
-8.45733e-14
-2.0315e-14
3.78964e-14
-2.32537e-14
9.1254e-14
-8.6643e-13
-2.23342e-12
-1.44531e-12
-5.86464e-13
-2.74719e-13
-1.5258e-13
-2.4904e-13
-2.25383e-13
-5.56211e-14
-5.57121e-14
-8.92161e-14
3.41341e-14
4.72517e-14
1.58414e-13
1.63134e-13
-7.92899e-13
-2.16654e-12
-1.48191e-12
-6.25942e-13
-3.06957e-13
-1.37143e-13
-2.40514e-13
-2.44734e-13
-5.20317e-14
-5.51939e-14
-8.93645e-14
4.13492e-14
3.99708e-14
1.75973e-13
1.86993e-13
-7.47843e-13
-2.11164e-12
-1.50776e-12
-6.48672e-13
-3.12257e-13
-1.42374e-13
-2.3326e-13
-2.60273e-13
-5.23017e-14
-6.80515e-14
-9.39793e-14
4.80444e-14
4.52321e-14
1.43633e-13
1.52277e-13
-7.38473e-13
-2.0319e-12
-1.49853e-12
-6.68894e-13
-3.13507e-13
-1.55476e-13
-2.32422e-13
-2.45381e-13
-6.69658e-14
-7.57002e-14
-7.9355e-14
3.96507e-14
4.44749e-14
1.3882e-13
8.18273e-14
2.644e-14
-6.35973e-13
8.02661e-14
1.43561e-13
-1.28333e-13
1.90633e-13
6.81147e-14
-7.22465e-14
1.00144e-13
2.71864e-14
-5.733e-14
2.95685e-14
7.35113e-15
-7.8571e-15
-8.26812e-16
2.08368e-12
2.2028e-12
-1.13003e-13
3.71262e-13
3.17728e-13
2.26249e-16
2.91561e-13
1.34799e-13
-5.50787e-15
1.39667e-13
5.3065e-14
-4.51577e-14
2.24099e-14
3.44433e-15
-3.49853e-16
2.24359e-12
2.35598e-12
7.33428e-14
4.25871e-13
2.91958e-13
1.30669e-13
2.65091e-13
1.01195e-13
8.57049e-14
1.13427e-13
2.03761e-14
2.13365e-14
1.66834e-14
-1.08275e-14
-5.44492e-15
2.63061e-12
2.24536e-12
1.32046e-13
4.48041e-13
1.63958e-13
2.37367e-13
3.86725e-13
8.85888e-14
1.41946e-13
1.7039e-13
3.11048e-14
6.17147e-14
7.90864e-14
-5.27912e-14
-1.03797e-13
2.44854e-12
2.28561e-12
2.14156e-13
3.48369e-13
1.39272e-13
2.30819e-13
3.68339e-13
9.09716e-14
1.33193e-13
1.68623e-13
4.71093e-14
3.694e-14
6.23551e-14
-1.66284e-14
-1.00647e-13
2.11756e-12
2.40418e-12
4.22702e-13
3.02808e-13
1.47293e-13
1.86711e-13
3.28315e-13
1.02851e-13
1.08945e-13
1.49174e-13
9.98742e-15
3.70816e-15
4.23137e-14
-2.07579e-14
-6.77063e-14
1.90322e-12
2.47903e-12
7.19537e-13
3.1356e-13
1.7183e-13
2.27712e-13
3.33869e-13
1.53847e-13
1.34898e-13
1.14029e-13
3.37828e-14
5.88541e-14
3.2593e-14
5.42481e-14
1.37506e-13
1.67353e-12
2.47425e-12
9.65522e-13
3.44931e-13
1.9618e-13
2.59799e-13
3.32666e-13
1.73658e-13
1.3456e-13
1.04226e-13
7.92139e-14
1.48149e-13
3.79207e-14
7.02595e-15
2.38864e-13
1.40586e-12
2.44135e-12
1.14197e-12
4.0556e-13
2.1793e-13
2.29661e-13
3.08616e-13
1.89685e-13
1.11839e-13
1.14901e-13
9.09242e-14
1.12104e-13
6.90435e-14
4.66817e-15
4.73832e-14
1.20721e-12
2.3785e-12
1.28634e-12
4.71091e-13
2.24037e-13
1.83603e-13
2.8754e-13
2.06214e-13
1.03615e-13
1.18498e-13
8.98721e-14
4.67299e-14
6.35801e-14
4.91067e-14
-7.56233e-14
1.01818e-12
2.30132e-12
1.40449e-12
5.28191e-13
2.34214e-13
1.77037e-13
2.57515e-13
2.12337e-13
9.70874e-14
8.19615e-14
8.45733e-14
2.0315e-14
-3.78964e-14
2.32537e-14
-9.1254e-14
8.6643e-13
2.23342e-12
1.44531e-12
5.86464e-13
2.74719e-13
1.5258e-13
2.4904e-13
2.25383e-13
5.56211e-14
5.57121e-14
8.92161e-14
-3.41341e-14
-4.72517e-14
-1.58414e-13
-1.63134e-13
7.92899e-13
2.16654e-12
1.48191e-12
6.25942e-13
3.06957e-13
1.37143e-13
2.40514e-13
2.44734e-13
5.20317e-14
5.51939e-14
8.93645e-14
-4.13492e-14
-3.99708e-14
-1.75973e-13
-1.86993e-13
7.47843e-13
2.11164e-12
1.50776e-12
6.48672e-13
3.12257e-13
1.42374e-13
2.3326e-13
2.60273e-13
5.23017e-14
6.80515e-14
9.39793e-14
-4.80444e-14
-4.52321e-14
-1.43633e-13
-1.52277e-13
7.38473e-13
2.0319e-12
1.49853e-12
6.68894e-13
3.13507e-13
1.55476e-13
2.32422e-13
2.45381e-13
6.69658e-14
7.57002e-14
7.9355e-14
-3.96507e-14
-4.44749e-14
-1.3882e-13
-8.18273e-14
)
;
    }
    inlet
    {
        type            calculated;
        value           nonuniform List<scalar> 
15
(
-1299.9
-1300.2
-1299.9
-1299.9
-1300.2
-1299.9
-1299.9
-1300.2
-1299.9
-1299.9
-1300.2
-1299.9
-1299.9
-1300.2
-1299.9
)
;
    }
    inletWalls
    {
        type            calculated;
        value           uniform 0;
    }
    outletInlet
    {
        type            calculated;
        value           nonuniform List<scalar> 
15
(
198.252
527.472
785.413
982.023
1128.55
1249.99
1367.13
1486.58
1606.75
1731.81
1879.01
2054.91
2138.09
1729.91
634.144
)
;
    }
}


// ************************************************************************* //
