/*--------------------------------*- C++ -*----------------------------------*\
| =========                 |                                                 |
| \\      /  F ield         | OpenFOAM: The Open Source CFD Toolbox           |
|  \\    /   O peration     | Version:  4.1                                   |
|   \\  /    A nd           | Web:      www.OpenFOAM.org                      |
|    \\/     M anipulation  |                                                 |
\*---------------------------------------------------------------------------*/
FoamFile
{
    version     2.0;
    format      ascii;
    class       volVectorField;
    location    "12";
    object      U;
}
// * * * * * * * * * * * * * * * * * * * * * * * * * * * * * * * * * * * * * //

dimensions      [0 1 -1 0 0 0 0];

internalField   nonuniform List<vector> 
225
(
(1.12142e-14 0.852193 15.7946)
(8.88077e-15 -4.89458 12.1215)
(-3.25422e-15 -4.19551 12.1321)
(2.71369e-15 -3.60118 11.9966)
(7.15104e-16 -3.00468 11.8778)
(-2.13157e-16 -2.55319 11.6992)
(1.96781e-15 -2.20881 11.4769)
(2.44368e-16 -1.96603 11.2116)
(-6.23262e-17 -1.79855 10.916)
(9.71375e-16 -1.71238 10.5882)
(1.91446e-17 -1.83746 10.1561)
(-2.5303e-16 -2.28567 9.53762)
(3.1746e-16 -2.51301 8.96378)
(-5.43933e-17 -1.06552 8.91357)
(-5.72387e-18 1.76574 7.47091)
(1.51145e-14 -5.35014 22.493)
(1.52513e-14 -14.6049 21.394)
(-7.82294e-16 -13.2708 20.3412)
(2.94384e-15 -11.7697 19.5066)
(2.19982e-15 -11.1561 18.5044)
(1.56628e-18 -10.6594 17.5174)
(2.12918e-15 -10.0901 16.5714)
(9.33291e-16 -9.525 15.6236)
(-3.81299e-17 -8.96544 14.6638)
(9.34178e-16 -8.36731 13.6946)
(3.674e-16 -7.75709 12.7179)
(-3.12617e-16 -7.30335 11.7194)
(1.54441e-16 -7.01705 10.6244)
(2.38472e-17 -5.73095 9.16116)
(-2.42196e-18 -2.30499 4.58318)
(1.75777e-14 -7.71563 23.9801)
(1.63101e-14 -16.7731 24.6729)
(5.07797e-16 -13.7365 23.9372)
(4.08773e-15 -12.3062 22.6249)
(2.02117e-15 -11.6447 21.2414)
(9.04704e-16 -10.814 20.0013)
(2.97517e-15 -9.94025 18.7738)
(7.00553e-16 -9.10011 17.5247)
(5.93388e-16 -8.28338 16.2654)
(1.3771e-15 -7.47524 15.0263)
(1.4106e-16 -6.66762 13.8176)
(1.47726e-16 -5.84165 12.4301)
(5.98818e-16 -4.8139 10.2753)
(-7.49567e-17 -3.12625 6.68442)
(-3.76985e-17 -0.832103 1.68986)
(1.82043e-14 -8.50255 22.0462)
(1.55443e-14 -16.6211 24.332)
(9.14139e-16 -12.93 23.7971)
(3.10209e-15 -12.1536 21.9985)
(1.06385e-15 -11.4201 20.5028)
(1.6919e-15 -10.4936 19.1722)
(2.67756e-15 -9.63388 17.8167)
(5.34299e-16 -8.82359 16.459)
(1.01053e-15 -8.05363 15.123)
(1.16482e-15 -7.32378 13.8165)
(2.07203e-16 -6.55247 12.4394)
(4.17885e-16 -5.49087 10.583)
(5.22743e-16 -3.78524 7.50866)
(-1.72844e-16 -1.49363 2.76599)
(-1.03343e-15 0.153303 -1.77303)
(1.67393e-14 -8.4761 19.748)
(1.56516e-14 -16.3601 24.312)
(1.30427e-15 -13.099 23.6602)
(2.21713e-15 -12.628 21.5365)
(6.53199e-16 -11.8565 20.0248)
(1.37812e-15 -10.9574 18.6637)
(2.43306e-15 -10.1698 17.2587)
(3.81169e-16 -9.40278 15.8711)
(7.89735e-16 -8.65259 14.5236)
(1.09684e-15 -7.93052 13.2136)
(9.89123e-17 -7.16588 11.8292)
(1.7107e-16 -6.11615 9.99627)
(3.25338e-16 -4.42402 7.15554)
(-4.73302e-16 -2.30527 3.28787)
(-1.42912e-15 -0.787178 0.317708)
(1.48837e-14 -8.02186 17.5536)
(1.66857e-14 -16.0195 24.5277)
(3.05369e-15 -13.6434 24.0462)
(2.0963e-15 -12.9943 21.7651)
(1.06882e-15 -12.1264 20.2158)
(1.44879e-15 -11.2247 18.847)
(2.27288e-15 -10.439 17.4341)
(7.71313e-16 -9.64889 16.0434)
(9.45565e-16 -8.86036 14.6933)
(1.03271e-15 -8.09326 13.3818)
(1.4462e-16 -7.29731 12.0171)
(2.84439e-16 -6.2846 10.2818)
(1.82729e-16 -4.73302 7.72091)
(2.13903e-16 -2.75613 4.37245)
(5.3915e-16 -0.949375 1.29733)
(1.331e-14 -7.33734 15.2534)
(1.71833e-14 -15.491 24.3551)
(5.06583e-15 -14.0226 24.4218)
(2.17099e-15 -13.1279 22.0676)
(1.23987e-15 -12.1448 20.4401)
(1.68414e-15 -11.2358 19.0547)
(2.3116e-15 -10.4361 17.6437)
(1.12782e-15 -9.61985 16.2576)
(1.07034e-15 -8.81017 14.9066)
(7.89502e-16 -8.02724 13.5919)
(3.98752e-16 -7.22396 12.2369)
(7.86429e-16 -6.24028 10.5488)
(2.25663e-16 -4.78753 8.10751)
(7.33591e-19 -2.91411 4.94714)
(2.22431e-15 -1.01084 1.79736)
(1.14004e-14 -6.55611 13.0328)
(1.71304e-14 -14.847 23.8163)
(6.64186e-15 -14.2639 24.6691)
(2.38784e-15 -13.2372 22.3215)
(1.35824e-15 -12.1674 20.5832)
(1.69012e-15 -11.2657 19.1667)
(2.30294e-15 -10.4651 17.7586)
(1.20232e-15 -9.64316 16.3766)
(7.93912e-16 -8.83496 15.0246)
(7.21526e-16 -8.05531 13.7073)
(5.48435e-16 -7.25502 12.3576)
(8.35336e-16 -6.28692 10.6996)
(2.62512e-16 -4.89103 8.33098)
(4.8644e-17 -3.08523 5.26766)
(1.15698e-15 -1.12217 2.0439)
(9.73263e-15 -5.77819 11.1235)
(1.69012e-14 -14.1745 23.0905)
(7.78075e-15 -14.4413 24.8463)
(2.80764e-15 -13.3963 22.6148)
(1.50871e-15 -12.2528 20.7553)
(1.42878e-15 -11.3493 19.2955)
(2.13651e-15 -10.5477 17.8904)
(1.31317e-15 -9.72547 16.511)
(5.70434e-16 -8.91948 15.1562)
(7.95448e-16 -8.14027 13.8352)
(6.29457e-16 -7.34 12.4864)
(4.95593e-16 -6.38021 10.8513)
(4.7798e-16 -5.02357 8.54678)
(3.23172e-17 -3.26582 5.55837)
(-6.08722e-16 -1.23753 2.24766)
(8.15857e-15 -5.08477 9.59895)
(1.64661e-14 -13.5191 22.3)
(8.86304e-15 -14.535 24.9523)
(3.17023e-15 -13.5532 22.9353)
(1.55098e-15 -12.3448 20.9699)
(1.21722e-15 -11.4251 19.4566)
(1.87492e-15 -10.6174 18.0506)
(1.4276e-15 -9.7945 16.6721)
(6.49239e-16 -8.98831 15.3136)
(6.71657e-16 -8.20627 13.9874)
(6.22174e-16 -7.40479 12.6357)
(2.29894e-16 -6.45155 11.0133)
(9.22667e-17 -5.12533 8.75524)
(3.3996e-16 -3.40663 5.81966)
(-8.2372e-16 -1.31908 2.43097)
(6.84226e-15 -4.53845 8.46182)
(1.59826e-14 -12.9254 21.5502)
(9.57299e-15 -14.535 24.9758)
(3.65649e-15 -13.6655 23.2211)
(1.67191e-15 -12.4129 21.1813)
(1.00818e-15 -11.4736 19.6122)
(1.78269e-15 -10.659 18.2004)
(1.53338e-15 -9.83701 16.821)
(3.97073e-16 -9.0321 15.4586)
(5.67393e-16 -8.24861 14.127)
(6.68483e-16 -7.44653 12.7692)
(-2.37135e-16 -6.49779 11.1499)
(-2.62345e-16 -5.19266 8.91859)
(-5.0511e-16 -3.50194 6.01067)
(-1.19022e-15 -1.3638 2.54258)
(5.99819e-15 -4.17016 7.70226)
(1.54876e-14 -12.4377 20.9276)
(9.96322e-15 -14.4734 24.9366)
(4.06002e-15 -13.7316 23.4379)
(1.95266e-15 -12.4592 21.3594)
(9.7396e-16 -11.5039 19.7405)
(1.72408e-15 -10.6833 18.3207)
(1.65622e-15 -9.86359 16.9392)
(3.50361e-16 -9.06119 15.5729)
(3.85689e-16 -8.27765 14.2364)
(6.17633e-16 -7.47494 12.871)
(-3.31597e-16 -6.52685 11.2466)
(-2.68627e-16 -5.23305 9.02652)
(-1.17969e-15 -3.55799 6.12615)
(-1.46908e-15 -1.37725 2.57254)
(5.39052e-15 -3.97314 7.27926)
(1.49718e-14 -12.0681 20.4611)
(1.02813e-14 -14.3843 24.8627)
(4.29868e-15 -13.7599 23.5829)
(2.12502e-15 -12.4874 21.4969)
(9.49425e-16 -11.5229 19.8405)
(1.63534e-15 -10.6965 18.412)
(1.7911e-15 -9.87987 17.0278)
(3.25166e-16 -9.08047 15.6583)
(3.82145e-16 -8.29715 14.3169)
(6.60829e-16 -7.49308 12.9421)
(-3.34204e-16 -6.54206 11.3061)
(-2.76745e-16 -5.25088 9.08426)
(-1.13573e-15 -3.57873 6.17532)
(-1.44253e-15 -1.36506 2.53858)
(5.12986e-15 -3.9034 7.10979)
(1.4606e-14 -11.8311 20.1816)
(1.04151e-14 -14.2998 24.7901)
(4.47872e-15 -13.7667 23.6686)
(2.14897e-15 -12.5019 21.5898)
(9.85609e-16 -11.532 19.9096)
(1.62986e-15 -10.7003 18.4746)
(1.78571e-15 -9.88544 17.0884)
(3.62068e-16 -9.08788 15.7173)
(4.90316e-16 -8.30401 14.3729)
(6.29608e-16 -7.49777 12.9906)
(-3.32595e-16 -6.54311 11.3434)
(-2.84098e-16 -5.25337 9.11725)
(-1.0353e-15 -3.58361 6.20153)
(-1.05417e-15 -1.35002 2.50623)
(5.09755e-15 -4.03909 7.28619)
(1.40596e-14 -11.6269 19.952)
(1.03811e-14 -14.1917 24.6681)
(4.63067e-15 -13.7464 23.7083)
(2.16385e-15 -12.5066 21.6738)
(1.0835e-15 -11.5393 19.9774)
(1.60903e-15 -10.6995 18.5351)
(1.69066e-15 -9.88697 17.1438)
(4.7238e-16 -9.09051 15.7695)
(5.24063e-16 -8.30496 14.4184)
(5.44172e-16 -7.48993 13.0148)
(-2.68643e-16 -6.51531 11.3281)
(-3.07894e-16 -5.20594 9.0612)
(-9.71211e-16 -3.50155 6.08268)
(-5.47418e-16 -1.25236 2.30707)
)
;

boundaryField
{
    inletFace
    {
        type            zeroGradient;
    }
    inlet
    {
        type            fixedValue;
        value           uniform (0 8.7 15);
    }
    inletWalls
    {
        type            noSlip;
    }
    outletInlet
    {
        type            zeroGradient;
    }
}


// ************************************************************************* //
