/*--------------------------------*- C++ -*----------------------------------*\
| =========                 |                                                 |
| \\      /  F ield         | OpenFOAM: The Open Source CFD Toolbox           |
|  \\    /   O peration     | Version:  4.1                                   |
|   \\  /    A nd           | Web:      www.OpenFOAM.org                      |
|    \\/     M anipulation  |                                                 |
\*---------------------------------------------------------------------------*/
FoamFile
{
    version     2.0;
    format      ascii;
    class       volScalarField;
    location    "9";
    object      p;
}
// * * * * * * * * * * * * * * * * * * * * * * * * * * * * * * * * * * * * * //

dimensions      [0 2 -2 0 0 0 0];

internalField   nonuniform List<scalar> 
6785
(
598.381
520.421
473.9
420.89
374.476
329.691
287.909
248.268
210.715
175.156
140.934
107.769
79.6418
50.7004
9.07258
-1.92136
-20.0632
-9.94661
-17.1546
-16.3118
-18.6697
-19.1047
-19.426
-18.7223
-17.0966
-14.459
-10.7343
-5.18276
0.303316
2.15358
2.78478
-2.97041
5.00675
-0.910337
1.50394
-1.10492
-1.78422
-3.75552
-5.53054
-7.68359
-9.80444
-11.1444
-11.6554
-12.4202
-12.2602
-2.82016
-6.5777
-4.55132
-10.4435
-9.86663
-14.0229
-15.5163
-18.3025
-20.3689
-22.5004
-24.0777
-24.82
-24.0393
-23.5026
-21.9855
-6.00995
-7.5154
-4.18812
-6.72271
-3.17578
-4.16842
-2.10823
-1.43268
0.01137
1.29593
2.85344
4.27859
6.34156
7.75457
10.6065
18.7031
19.0971
22.5416
21.5182
25.1301
25.1354
27.4627
28.6419
30.3021
31.8159
33.4565
34.9696
36.7465
38.0091
39.9174
40.6281
41.4311
43.9742
43.1157
45.7726
45.5973
47.2365
47.9304
49.0195
50.0283
51.0697
52.0357
53.165
53.9789
55.2659
56.0415
57.1455
58.9796
58.7267
60.9202
61.0702
62.5966
62.865
63.2447
62.9244
62.4072
62.1802
62.5019
63.0664
63.5849
67.3922
67.1479
67.9968
66.7748
67.5667
66.2531
66.0194
64.588
63.4113
61.9293
60.6936
59.7414
59.0703
59.0928
57.9335
57.2527
53.5772
53.5878
50.839
50.3989
48.2805
47.3402
45.4419
43.7406
41.3838
38.8918
36.6253
35.6642
34.9574
31.036
6.50151
0.600215
-1.09318
-5.60747
-8.34734
-12.7243
-16.0857
-19.8631
-22.7677
-25.2515
-26.6531
-26.9394
-27.0829
-27.9975
-28.6162
-29.7299
-32.7091
-33.1387
-35.5665
-36.2467
-38.1748
-38.9132
-39.6548
-39.5212
-38.9964
-37.9713
-36.7782
-35.4314
-34.3054
-31.9078
-8.82855
-7.73833
-6.75346
-6.83255
-5.80909
-5.67117
-5.01268
-4.50976
-3.82923
-3.14712
-2.31146
-1.53396
-0.198655
1.09422
4.06498
15.5415
18.8079
19.0566
19.1263
19.7936
20.4909
21.7088
22.8321
23.9758
24.989
25.9834
26.8578
27.9203
28.7725
29.9343
63.2295
62.1393
57.178
50.7904
45.3962
42.302
40.1793
38.7368
37.6603
36.9705
35.8861
34.7118
33.564
32.7967
31.2259
26.0333
26.0323
26.1011
26.0267
26.0336
26.0365
26.0382
25.9983
25.995
25.9676
25.9822
25.9062
25.8954
25.9139
25.8031
25.7945
25.8
25.8335
25.6648
25.7253
25.7824
25.6045
25.5966
25.6794
25.7729
25.5768
25.5622
25.6468
25.7961
25.5729
25.6579
25.8016
25.6303
25.6043
25.6871
25.7936
25.6137
25.6788
25.7447
25.6204
25.5769
25.647
25.5955
25.4796
25.4242
25.468
25.3684
25.2158
25.252
25.1458
25.0572
24.9878
25.0081
24.9797
24.9392
24.8801
24.8942
24.9966
24.9726
24.934
25.0978
25.0834
25.0695
25.03
25.2488
25.3528
25.8835
25.244
24.3553
25.1497
26.0813
21.5623
19.2727
21.5984
23.9188
8.21459
14.9353
19.5197
-11.5809
-2.24886
2.71723
1.28687
4.63164
-6.14943
1.62149
5.68129
6.37698
7.44023
8.37207
9.35315
10.9545
13.9975
7.07476
10.9929
13.2505
15.6871
18.2967
19.8471
21.52
23.2043
25.9309
20.7886
24.5843
27.6749
29.3511
31.78
34.5715
36.711
38.0299
39.5273
40.525
42.5855
41.9724
44.5297
45.6123
46.7311
48.7896
51.4837
52.5427
50.9498
55.6543
53.9926
57.2377
57.8991
57.6104
57.1193
56.3509
58.3836
55.6154
63.9435
60.9575
57.6582
57.8582
57.9205
55.1701
53.116
50.8626
43.9407
56.2119
56.0041
49.4204
45.8607
40.8614
37.4082
33.5013
29.7817
26.0419
19.3073
17.9941
22.7202
16.4151
14.6451
11.9772
8.63154
1.14784
-1.23276
0.819793
-10.9902
4.89181
0.907271
-2.01179
6.73615
-2.14377
1.84024
-0.318438
2.2498
6.37465
-0.67738
3.01124
5.867
0.730737
2.59292
0.985977
2.47614
5.58939
0.5204
2.29198
0.564626
2.20614
5.00158
-0.725453
2.1982
4.41388
-0.112236
1.51275
-0.0913819
1.37319
4.30799
-0.57079
1.12219
-0.504967
1.02532
4.15217
-1.73282
1.12899
3.81761
-0.996132
0.620413
-0.834966
0.508191
4.04354
-1.30736
0.529636
-1.08684
0.532215
4.09954
-2.2649
0.916057
3.81366
-1.2052
0.58444
-0.860151
0.60726
4.10643
-1.09522
0.824678
-0.701036
0.95237
4.0656
-1.48887
1.4115
3.64351
-0.378461
1.17637
0.00460125
1.24726
3.52559
-0.0675736
1.31758
0.24881
1.3699
2.96973
-0.281631
1.36656
2.20781
0.0359049
0.786002
-0.0248939
0.488688
1.91284
0.000202477
0.00037919
0.000639378
0.000846329
0.00109139
0.00132693
0.00158247
0.00184234
0.00211662
0.00240038
0.00269743
0.0030065
0.0033294
0.0036662
0.00401809
0.00438568
0.00477004
0.00517207
0.00559288
0.00603358
0.00649537
0.0069795
0.00748727
0.00801999
0.00857891
0.00916514
0.00977953
0.0104225
0.0110937
0.011792
0.0125145
0.0132568
0.0140119
0.0147702
0.0155188
0.0162421
0.0169222
0.0175403
0.0180793
0.0185269
0.0188792
0.0191428
0.0193365
0.0194895
0.0196365
0.019812
0.0200431
0.0203457
0.0207284
0.0211998
0.021765
0.0223987
0.0229905
0.0232863
0.0228943
0.0213926
0.0183772
0.0134359
0.00631029
-0.00321484
-0.0147988
-0.0282696
-0.0418565
-0.0500081
-0.0662276
-0.0737351
-0.20471
-0.363997
-0.468445
-0.559848
-0.582872
-0.579798
-0.492444
-0.477277
-0.29391
-0.40451
-0.170594
-0.256858
-0.946395
0.000590154
0.00110423
0.00185163
0.00246179
0.00316754
0.00385045
0.00458414
0.0053306
0.00611475
0.00692505
0.00777095
0.00864982
0.00956622
0.0105207
0.0115163
0.012555
0.0136394
0.0147721
0.0159561
0.0171943
0.0184899
0.0198462
0.0212666
0.0227546
0.0243135
0.0259459
0.0276542
0.0294389
0.0312991
0.0332306
0.0352255
0.0372706
0.0393462
0.0414245
0.0434696
0.0454375
0.0472783
0.0489405
0.0503783
0.0515606
0.0524809
0.0531652
0.0536744
0.0540997
0.0545497
0.0551316
0.0559318
0.0570065
0.0583932
0.0601352
0.0622757
0.0647827
0.0673953
0.0694559
0.0699271
0.067708
0.0617423
0.0508984
0.0343736
0.0112751
-0.0180433
-0.0542663
-0.0938391
-0.124284
-0.177527
-0.180476
-0.408371
-0.701579
-0.90492
-1.08284
-1.14951
-1.1499
-1.02774
-0.94243
-0.682062
-0.644623
-0.351752
-0.242184
-0.285047
0.000922401
0.00178269
0.00305086
0.0040786
0.00527015
0.00642085
0.00765789
0.00891581
0.0102376
0.0116034
0.0130295
0.0145112
0.0160565
0.0176662
0.0193457
0.0210979
0.0229278
0.0248396
0.0268382
0.0289288
0.0311169
0.0334081
0.0358082
0.0383232
0.0409587
0.0437195
0.0466093
0.0496296
0.0527787
0.05605
0.0594303
0.0628975
0.0664185
0.0699469
0.0734221
0.0767698
0.0799054
0.0827414
0.0851995
0.0872256
0.0888065
0.0899834
0.0908563
0.0915763
0.0923235
0.0932756
0.0945748
0.0963118
0.098544
0.101339
0.104764
0.108756
0.112864
0.115954
0.116235
0.11181
0.100835
0.081351
0.051957
0.0111511
-0.0404505
-0.103873
-0.172429
-0.226419
-0.309211
-0.279748
-0.549897
-0.891254
-1.13522
-1.35049
-1.43188
-1.43017
-1.28539
-1.16752
-0.861173
-0.766233
-0.417937
-0.290151
-0.00583348
0.00124341
0.00244829
0.00422102
0.00566418
0.00733134
0.00894287
0.0106726
0.0124316
0.0142787
0.0161868
0.0181785
0.0202476
0.0224049
0.0246518
0.0269957
0.0294408
0.0319939
0.034661
0.0374489
0.0403648
0.0434163
0.0466113
0.0499579
0.0534644
0.0571384
0.0609869
0.065015
0.0692248
0.0736139
0.0781732
0.0828844
0.0877169
0.0926246
0.0975428
0.102387
0.107054
0.111425
0.115377
0.118802
0.121623
0.123821
0.125456
0.126666
0.127666
0.128709
0.130045
0.131875
0.134324
0.137475
0.141424
0.146275
0.151961
0.157863
0.162404
0.163067
0.1572
0.142206
0.115311
0.0744733
0.0174597
-0.0551612
-0.145296
-0.24357
-0.324996
-0.437694
-0.387319
-0.727927
-1.14274
-1.43684
-1.69788
-1.79508
-1.78834
-1.60718
-1.45408
-1.075
-0.945912
-0.507183
-0.364738
-0.0272971
0.00153591
0.00309074
0.00536985
0.0072334
0.00938037
0.0114574
0.0136842
0.0159488
0.0183256
0.0207809
0.0233429
0.0260043
0.0287788
0.0316683
0.0346823
0.0378263
0.041109
0.044538
0.0481224
0.0518712
0.0557942
0.0599016
0.0642039
0.0687117
0.073435
0.0783827
0.0835614
0.0889741
0.0946179
0.100481
0.106541
0.112758
0.119074
0.125405
0.131643
0.137654
0.143287
0.148382
0.152798
0.156436
0.159269
0.161372
0.162925
0.164204
0.165537
0.167247
0.169593
0.172736
0.176776
0.181841
0.188078
0.195422
0.203096
0.209063
0.210044
0.202612
0.183366
0.148678
0.0958116
0.0217512
-0.0730933
-0.191651
-0.321606
-0.434532
-0.581543
-0.513745
-0.939727
-1.42618
-1.77338
-2.0823
-2.19738
-2.18425
-1.96574
-1.76907
-1.3162
-1.13405
-0.609965
-0.444575
0.123736
0.00181214
0.00372001
0.00649691
0.00878222
0.011406
0.0139477
0.0166688
0.0194368
0.0223401
0.0253392
0.0284677
0.0317172
0.0351042
0.0386312
0.0423097
0.0461467
0.0501526
0.0543367
0.0587102
0.0632839
0.06807
0.0730808
0.0783292
0.083828
0.0895895
0.0956248
0.101942
0.108545
0.11543
0.122584
0.129978
0.137566
0.145276
0.153007
0.160627
0.167972
0.174857
0.181086
0.186483
0.190926
0.194383
0.196941
0.198824
0.20037
0.201984
0.204066
0.206932
0.210777
0.215722
0.221925
0.229589
0.238672
0.248261
0.255861
0.257413
0.248717
0.225554
0.183423
0.118847
0.0279379
-0.0892765
-0.237087
-0.400356
-0.549707
-0.738038
-0.664334
-1.17954
-1.71944
-2.11226
-2.46167
-2.58988
-2.56695
-2.31108
-2.06897
-1.5458
-1.30894
-0.705227
-0.505746
0.174688
0.0020699
0.00433607
0.00760484
0.0103146
0.0134145
0.0164222
0.0196378
0.0229096
0.0263394
0.0298821
0.0335767
0.0374138
0.0414127
0.0455766
0.0499188
0.0544478
0.0591758
0.064114
0.0692752
0.0746726
0.0803202
0.0862329
0.0924256
0.0989137
0.105712
0.112833
0.120287
0.128079
0.136204
0.144648
0.153378
0.162338
0.171445
0.18058
0.189587
0.198274
0.206418
0.213789
0.220175
0.225428
0.229508
0.232518
0.234723
0.236525
0.238409
0.240853
0.244233
0.248776
0.254618
0.261952
0.27105
0.281914
0.293512
0.302891
0.305171
0.295378
0.268435
0.218941
0.142626
0.0346584
-0.105527
-0.283839
-0.482416
-0.673522
-0.90866
-0.846423
-1.45261
-2.03813
-2.47209
-2.85683
-2.99289
-2.9557
-2.65929
-2.36884
-1.77321
-1.4832
-0.799828
-0.58125
0.203915
0.0023132
0.0049425
0.00869483
0.0118307
0.0154044
0.0188783
0.0225867
0.0263614
0.0303159
0.0344006
0.0386592
0.0430816
0.0476898
0.0524877
0.0574906
0.0627082
0.0681548
0.0738431
0.0797879
0.0860044
0.0925089
0.0993183
0.10645
0.113922
0.12175
0.129951
0.138535
0.147509
0.156869
0.166596
0.176656
0.186983
0.197484
0.208021
0.218415
0.228444
0.23785
0.246364
0.253739
0.2598
0.264498
0.26795
0.270462
0.272505
0.274645
0.277441
0.281331
0.286572
0.293312
0.30178
0.312331
0.325043
0.338792
0.350161
0.35341
0.342791
0.312334
0.255719
0.167834
0.0428173
-0.120726
-0.330611
-0.56654
-0.805098
-1.09209
-1.06043
-1.75898
-2.38741
-2.86007
-3.27663
-3.41474
-3.35789
-3.01732
-2.674
-2.00346
-1.65795
-0.89578
-0.667889
0.254401
0.00254284
0.00554075
0.00976856
0.0133325
0.0173778
0.0213181
0.0255183
0.0297953
0.0342732
0.0388986
0.0437196
0.0487257
0.0539412
0.059371
0.0650322
0.070936
0.0770984
0.0835339
0.0902592
0.0972915
0.104649
0.112352
0.120418
0.128869
0.137724
0.147
0.15671
0.166862
0.177451
0.188459
0.199845
0.211539
0.223432
0.235373
0.247159
0.258535
0.269209
0.278873
0.287242
0.294113
0.299424
0.303307
0.306112
0.308378
0.310756
0.313892
0.318285
0.32422
0.331854
0.341449
0.353465
0.368089
0.384137
0.397718
0.402182
0.391012
0.357298
0.293781
0.19446
0.0523662
-0.134981
-0.377556
-0.653046
-0.944969
-1.28844
-1.30758
-2.09731
-2.76735
-3.27645
-3.72183
-3.85485
-3.77127
-3.38241
-2.98128
-2.23391
-1.82984
-0.991363
-0.722379
0.249316
0.00276077
0.00613266
0.0108273
0.0148208
0.019335
0.0237417
0.0284319
0.0332102
0.0382099
0.0433743
0.0487556
0.0543432
0.0601636
0.0662226
0.0725393
0.0791262
0.0860011
0.0931802
0.100682
0.108526
0.116733
0.125324
0.13432
0.143746
0.153621
0.163966
0.174797
0.186121
0.197935
0.210218
0.222927
0.235985
0.249271
0.262617
0.275796
0.288525
0.300474
0.311294
0.320661
0.328342
0.33426
0.338563
0.341642
0.344109
0.346706
0.350166
0.355055
0.361681
0.370202
0.380917
0.39441
0.411018
0.429533
0.445585
0.451553
0.440153
0.403489
0.33335
0.222798
0.0636788
-0.14784
-0.424131
-0.741466
-1.09275
-1.49725
-1.58871
-2.46746
-3.18035
-3.7243
-4.19698
-4.31718
-4.19801
-3.75544
-3.29088
-2.46417
-1.99871
-1.08669
-0.794285
0.230306
0.00296813
0.00671952
0.0118725
0.0162968
0.0212769
0.02615
0.0313284
0.0366069
0.0421266
0.0478285
0.053768
0.0599349
0.0663577
0.0730434
0.0800127
0.0872796
0.0948637
0.102783
0.111058
0.11971
0.128761
0.138235
0.148157
0.158552
0.169443
0.180852
0.192798
0.205289
0.218323
0.231878
0.245907
0.260326
0.275005
0.289759
0.304337
0.318426
0.331658
0.343642
0.354014
0.362504
0.369025
0.373733
0.377065
0.379709
0.382501
0.386268
0.391643
0.398957
0.408356
0.420178
0.435153
0.453818
0.474986
0.493794
0.501579
0.4903
0.451017
0.374561
0.253015
0.0769625
-0.159053
-0.470012
-0.831556
-1.24816
-1.71826
-1.90467
-2.86894
-3.62879
-4.20673
-4.70726
-4.80701
-4.64177
-4.13854
-3.6039
-2.69479
-2.16473
-1.18107
-0.881963
0.253664
0.0031662
0.00730249
0.0129052
0.0177616
0.0232044
0.0285433
0.034208
0.0399855
0.0460231
0.0522605
0.058756
0.0654998
0.0725224
0.0798318
0.0874507
0.0953944
0.103684
0.11234
0.121384
0.130839
0.14073
0.151084
0.161926
0.173284
0.185185
0.197653
0.210708
0.22436
0.238609
0.253431
0.268777
0.284557
0.30063
0.316794
0.332777
0.348234
0.362759
0.375916
0.387298
0.3966
0.403716
0.408814
0.412376
0.415168
0.418128
0.422182
0.428034
0.436029
0.446297
0.459207
0.475663
0.496461
0.520487
0.542366
0.552314
0.541547
0.500012
0.417589
0.285335
0.0925088
-0.168247
-0.514701
-0.922863
-1.41058
-1.95095
-2.2563
-3.30064
-4.11458
-4.7259
-5.25693
-5.32899
-5.10593
-4.5334
-3.92074
-2.92568
-2.32668
-1.27385
-0.918719
0.245462
0.00335596
0.00788249
0.0139266
0.0192159
0.0251181
0.0309223
0.0370711
0.0433461
0.0498996
0.0566705
0.0637195
0.0710377
0.0786573
0.0865876
0.0948528
0.10347
0.112462
0.12185
0.131659
0.141913
0.15264
0.163867
0.175624
0.187941
0.200846
0.214367
0.228525
0.243333
0.258792
0.274877
0.291537
0.308675
0.326143
0.343722
0.361116
0.37795
0.393779
0.408121
0.420522
0.430638
0.438341
0.443811
0.447576
0.450485
0.453581
0.457901
0.464218
0.47289
0.484015
0.497985
0.515914
0.538919
0.566027
0.591324
0.603813
0.593983
0.550594
0.462587
0.319962
0.110585
-0.175066
-0.55769
-1.01489
-1.57914
-2.19475
-2.64483
-3.76116
-4.63992
-5.28383
-5.8501
-5.88789
-5.59425
-4.94211
-4.24189
-3.15674
-2.48423
-1.36568
-0.994697
0.204935
0.00353835
0.00846032
0.0149376
0.0206607
0.0270187
0.0332875
0.039918
0.0466889
0.0537559
0.0610581
0.0686582
0.0765481
0.0847617
0.0933098
0.102218
0.111505
0.121195
0.131311
0.141881
0.152929
0.164487
0.176583
0.189249
0.202519
0.216422
0.23099
0.246245
0.262204
0.278867
0.296211
0.314181
0.332678
0.351542
0.37054
0.389354
0.407576
0.424721
0.44026
0.453689
0.46462
0.472904
0.478726
0.482665
0.485655
0.488853
0.493412
0.500184
0.509527
0.521492
0.536491
0.555872
0.581157
0.61159
0.640684
0.656124
0.647693
0.602881
0.509717
0.357107
0.131477
-0.179107
-0.598388
-1.10699
-1.75252
-2.44876
-3.07198
-4.2487
-5.20779
-5.88277
-6.49086
-6.48861
-6.11095
-5.36742
-4.56817
-3.38796
-2.63665
-1.45457
-1.03823
0.224838
0.00371414
0.00903661
0.0159391
0.0220966
0.0289068
0.0356392
0.042749
0.0500141
0.0575922
0.0654233
0.0735716
0.0820305
0.0908351
0.0999976
0.109545
0.119498
0.129883
0.140724
0.152049
0.163887
0.17627
0.18923
0.2028
0.217016
0.231912
0.24752
0.263867
0.28097
0.298832
0.31743
0.336708
0.356562
0.376824
0.397246
0.417488
0.43711
0.455586
0.472337
0.486803
0.498553
0.507409
0.513564
0.517643
0.520673
0.523935
0.528706
0.535919
0.545929
0.558718
0.5747
0.595501
0.623134
0.657158
0.690459
0.709294
0.702763
0.656989
0.559132
0.396978
0.155473
-0.179947
-0.636153
-1.19832
-1.92884
-2.71163
-3.53875
-4.75922
-5.82134
-6.52518
-7.18328
-7.13596
-6.66036
-5.81247
-4.90065
-3.61934
-2.78313
-1.53965
-1.09497
0.148098
0.00388404
0.00961193
0.016932
0.0235243
0.030783
0.037978
0.0455643
0.0533216
0.0614083
0.0697658
0.0784596
0.0874843
0.0968767
0.10665
0.116834
0.127449
0.138524
0.150084
0.162161
0.174784
0.187987
0.201805
0.216273
0.23143
0.247312
0.263954
0.281385
0.299627
0.318682
0.33853
0.359113
0.380323
0.401986
0.423838
0.445517
0.466554
0.486376
0.504354
0.519871
0.532443
0.541863
0.548326
0.552509
0.555535
0.558817
0.563769
0.571411
0.582085
0.595678
0.612589
0.634758
0.664803
0.702703
0.740658
0.763367
0.759273
0.713029
0.610984
0.439778
0.182863
-0.177132
-0.670273
-1.28778
-2.10536
-2.98095
-4.04093
-5.27998
-6.48042
-7.21352
-7.93166
-7.83457
-7.24691
-6.28068
-5.2407
-3.85069
-2.92422
-1.61827
-1.16404
0.165543
0.00404865
0.0101867
0.0179171
0.0249445
0.0326478
0.040304
0.0483642
0.0566116
0.0652041
0.0740854
0.0833215
0.0929092
0.102886
0.113267
0.124083
0.135356
0.147117
0.159393
0.172216
0.185619
0.199637
0.214306
0.229667
0.245758
0.262619
0.280288
0.298798
0.318171
0.338414
0.359507
0.381392
0.403959
0.427024
0.450313
0.473441
0.495905
0.517092
0.536314
0.552896
0.566296
0.57627
0.583016
0.587263
0.590235
0.593489
0.598589
0.606648
0.617984
0.632359
0.650131
0.673597
0.706108
0.748196
0.791285
0.818382
0.8173
0.771108
0.665419
0.485709
0.213941
-0.170178
-0.699943
-1.37388
-2.27832
-3.25237
-4.56119
-5.78564
-7.17742
-7.94936
-8.7407
-8.58901
-7.87507
-6.77565
-5.59003
-4.0817
-3.06071
-1.68814
-1.17705
0.193099
0.0042085
0.0107613
0.0188949
0.0263576
0.0345017
0.0426177
0.0511488
0.0598841
0.0689794
0.0783818
0.0881572
0.0983044
0.108862
0.119847
0.131291
0.143218
0.15566
0.168647
0.182212
0.196389
0.211216
0.226732
0.242979
0.259997
0.277831
0.296521
0.316102
0.3366
0.358025
0.380358
0.403542
0.427464
0.451935
0.476667
0.501256
0.525165
0.547735
0.568222
0.585883
0.600117
0.610636
0.617639
0.621905
0.624769
0.627942
0.633153
0.641617
0.653616
0.66875
0.687301
0.711968
0.746985
0.793597
0.842337
0.874377
0.876921
0.831328
0.722575
0.534962
0.249002
-0.158562
-0.724246
-1.45476
-2.44308
-3.51892
-5.06624
-6.25357
-7.90096
-8.73313
-9.61561
-9.40386
-8.54922
-7.30106
-5.95052
-4.31229
-3.19271
-1.74991
-1.21046
0.110194
0.00436403
0.0113361
0.0198662
0.0277641
0.0363452
0.0449194
0.0539183
0.0631391
0.0727342
0.0826546
0.092966
0.103669
0.114804
0.126389
0.138457
0.151034
0.164153
0.177846
0.192147
0.207094
0.222724
0.23908
0.256206
0.274145
0.292945
0.312648
0.333293
0.35491
0.37751
0.401078
0.425559
0.450836
0.476715
0.502899
0.52896
0.554332
0.578307
0.60008
0.618839
0.633912
0.644967
0.652197
0.656436
0.659131
0.662163
0.667444
0.676303
0.68897
0.704839
0.724071
0.749812
0.78736
0.838863
0.893809
0.931386
0.938204
0.893788
0.782585
0.587716
0.288332
-0.14174
-0.742174
-1.5284
-2.59542
-3.77282
-5.52151
-6.69603
-8.64622
-9.56494
-10.5623
-10.2839
-9.27366
-7.86063
-6.32404
-4.54277
-3.3191
-1.80174
-1.25692
0.129663
0.00451563
0.0119114
0.0208313
0.0291644
0.0381785
0.0472091
0.0566727
0.0663764
0.0764683
0.0869036
0.0977475
0.109003
0.120712
0.132893
0.14558
0.158803
0.172594
0.186988
0.20202
0.21773
0.234158
0.251348
0.269346
0.2882
0.307957
0.328666
0.350368
0.373096
0.396866
0.421664
0.447437
0.474069
0.501361
0.529003
0.556551
0.583404
0.608808
0.631891
0.651767
0.667689
0.67927
0.686697
0.690854
0.693315
0.69614
0.701448
0.710693
0.724039
0.740618
0.760414
0.787064
0.827148
0.883941
0.945685
0.989439
1.00122
0.958576
0.845562
0.644121
0.332183
-0.119177
-0.752678
-1.59266
-2.73209
-4.00917
-5.91402
-7.13279
-9.39429
-10.443
-11.5868
-11.2343
-10.0525
-8.45807
-6.71234
-4.77357
-3.43805
-1.84175
-1.22771
0.193689
0.00466363
0.0124873
0.0217909
0.0305589
0.0400021
0.0494872
0.0594122
0.0695961
0.0801813
0.0911284
0.102501
0.114306
0.126584
0.139357
0.15266
0.166523
0.180982
0.196071
0.211829
0.228296
0.245516
0.263533
0.282397
0.302157
0.322866
0.344573
0.367324
0.391156
0.416088
0.442111
0.469172
0.497158
0.525866
0.554976
0.584026
0.612381
0.639237
0.663658
0.684673
0.701453
0.713553
0.721141
0.725161
0.727313
0.72986
0.735146
0.74477
0.758813
0.776079
0.796301
0.823655
0.866253
0.928773
0.997947
1.04857
1.06603
1.02577
0.91159
0.704262
0.380722
-0.0904292
-0.754801
-1.64546
-2.85114
-4.23064
-6.24337
-7.57206
-10.1003
-11.362
-12.6957
-12.2608
-10.8901
-9.09695
-7.11707
-5.00522
-3.54889
-1.87169
-1.23888
0.102425
0.0048083
0.0130641
0.0227453
0.0319478
0.0418161
0.0517537
0.0621367
0.0727979
0.0838731
0.0953285
0.107227
0.119577
0.13242
0.14578
0.159694
0.174194
0.189315
0.205094
0.221572
0.238791
0.256796
0.275634
0.295356
0.316016
0.337667
0.360364
0.384157
0.409085
0.435172
0.462414
0.490761
0.5201
0.550227
0.580814
0.61138
0.641259
0.669596
0.695384
0.717562
0.735214
0.747821
0.755537
0.759357
0.76112
0.763308
0.76852
0.77852
0.793287
0.811221
0.831706
0.859504
0.904565
0.973291
1.05057
1.1088
1.13268
1.09543
0.980678
0.76809
0.433916
-0.0553048
-0.747904
-1.68523
-2.95135
-4.4368
-6.51688
-8.03584
-10.7446
-12.3236
-13.8948
-13.3692
-11.7906
-9.78067
-7.53985
-5.2381
-3.65082
-1.88783
-1.20283
0.206553
0.00494986
0.0136419
0.0236948
0.0333315
0.0436209
0.0540087
0.0648463
0.0759818
0.0875434
0.0995035
0.111923
0.124814
0.138218
0.152162
0.166683
0.181813
0.197591
0.214056
0.231248
0.249212
0.267995
0.287647
0.308221
0.329772
0.352359
0.376038
0.400863
0.426879
0.454114
0.482568
0.512196
0.542888
0.574438
0.606511
0.63861
0.670036
0.699885
0.727071
0.750441
0.768977
0.782084
0.789889
0.793442
0.794728
0.796467
0.801549
0.811925
0.827455
0.846041
0.866603
0.894524
0.941957
1.01742
1.10352
1.17015
1.20122
1.16752
1.05268
0.835293
0.491369
-0.0140845
-0.73194
-1.71128
-3.03283
-4.6221
-6.75677
-8.58422
-11.3226
-13.3345
-15.1887
-14.565
-12.7587
-10.5124
-7.98227
-5.47239
-3.74288
-1.8902
-1.17436
0.156973
0.00508849
0.0142209
0.0246399
0.0347101
0.0454166
0.0562523
0.0675408
0.0791476
0.0911919
0.103653
0.11659
0.130018
0.143979
0.158501
0.173623
0.18938
0.20581
0.222954
0.240854
0.259558
0.279112
0.299571
0.320988
0.343423
0.366936
0.391589
0.417438
0.444534
0.472909
0.502569
0.533474
0.565517
0.598493
0.632063
0.665711
0.698711
0.730102
0.758721
0.783314
0.802752
0.816349
0.824204
0.827418
0.828129
0.829321
0.83421
0.844968
0.861313
0.880545
0.900968
0.928617
0.978288
1.06108
1.15675
1.23264
1.27161
1.24188
1.12716
0.905116
0.552103
0.0322533
-0.707699
-1.72415
-3.09681
-4.78582
-6.99306
-9.21691
-11.7872
-14.3867
-16.5856
-15.8535
-13.7989
-11.2952
-8.44588
-5.70805
-3.82433
-1.87687
-1.14719
0.230823
0.00522434
0.0148012
0.0255807
0.0360837
0.0472033
0.0584845
0.0702203
0.0822949
0.0948181
0.107776
0.121227
0.135187
0.149701
0.164797
0.180516
0.196893
0.213969
0.231786
0.250389
0.269825
0.290145
0.311402
0.333656
0.356966
0.381398
0.407014
0.433879
0.462045
0.491553
0.522412
0.554589
0.587982
0.622387
0.657462
0.692679
0.727278
0.760246
0.790338
0.816188
0.836546
0.850628
0.858489
0.861285
0.861316
0.86185
0.866476
0.877627
0.894861
0.914744
0.93478
0.961674
1.0134
1.10418
1.21022
1.29625
1.34371
1.31805
1.20318
0.976138
0.614372
0.0819186
-0.676863
-1.72552
-3.14562
-4.93056
-7.2417
-9.79247
-12.1768
-15.5095
-18.0923
-17.2388
-14.9158
-12.1317
-8.93207
-5.94476
-3.894
-1.84546
-1.04506
0.359337
0.00535749
0.015383
0.0265175
0.0374527
0.0489812
0.0607053
0.0728846
0.0854235
0.0984216
0.111873
0.125833
0.140322
0.155383
0.171048
0.187358
0.20435
0.222068
0.240552
0.259851
0.280013
0.30109
0.32314
0.346221
0.370398
0.395739
0.422311
0.450181
0.479409
0.51004
0.542091
0.575535
0.610276
0.646114
0.682704
0.719507
0.755733
0.790316
0.821922
0.849068
0.870369
0.884928
0.892752
0.895046
0.894278
0.894033
0.898319
0.909882
0.9281
0.948655
0.968023
0.993575
1.0471
1.14662
1.26384
1.36085
1.41708
1.39504
1.27909
1.0461
0.675645
0.132423
-0.641824
-1.718
-3.18267
-5.06163
-7.50457
-10.2666
-12.5931
-16.7045
-19.7076
-18.7248
-16.1135
-13.0246
-9.44203
-6.18193
-3.95097
-1.79749
-0.962252
0.357949
0.00548803
0.0159662
0.0274504
0.0388169
0.0507504
0.0629145
0.0755334
0.0885331
0.102002
0.115943
0.130407
0.14542
0.161024
0.177253
0.194149
0.211752
0.230104
0.24925
0.269238
0.290119
0.311947
0.33478
0.358681
0.383717
0.409957
0.437475
0.466341
0.496621
0.528366
0.561601
0.596306
0.632392
0.669666
0.707782
0.746189
0.784073
0.82031
0.853476
0.88196
0.90423
0.919262
0.927003
0.928703
0.927007
0.925846
0.929708
0.94171
0.961034
0.982305
1.00069
1.02419
1.0792
1.18827
1.31746
1.42609
1.49079
1.47112
1.35229
1.11193
0.732857
0.180943
-0.605263
-1.70456
-3.21187
-5.18635
-7.78637
-10.7279
-13.1836
-17.9673
-21.4626
-20.3141
-17.3949
-13.9756
-9.9766
-6.41871
-3.99402
-1.73015
-0.882911
0.48156
0.00561598
0.0165512
0.0283797
0.0401765
0.0525108
0.0651121
0.0781666
0.0916234
0.105559
0.119985
0.134949
0.150481
0.166622
0.183411
0.200888
0.219094
0.238076
0.257877
0.278548
0.300141
0.322712
0.346321
0.371033
0.396918
0.424049
0.452502
0.482355
0.513676
0.546525
0.580935
0.616895
0.654324
0.693035
0.732687
0.772719
0.812292
0.850226
0.885001
0.91487
0.93814
0.953641
0.96125
0.962259
0.959494
0.957263
0.960606
0.973082
0.993671
1.01573
1.03277
1.05336
1.10946
1.22899
1.37075
1.49121
1.56317
1.54351
1.41929
1.17014
0.782933
0.22485
-0.569594
-1.68785
-3.237
-5.31221
-8.09331
-11.2355
-14.0558
-19.3727
-23.4131
-22.0104
-18.7608
-14.9857
-10.5361
-6.65384
-4.02031
-1.6399
-0.715806
0.670202
0.00574135
0.0171378
0.0293054
0.0415316
0.0542624
0.067298
0.0807839
0.0946939
0.109092
0.123998
0.139457
0.155504
0.172178
0.18952
0.207573
0.226378
0.245982
0.266432
0.287779
0.310076
0.333382
0.357759
0.383274
0.409999
0.438011
0.46739
0.498217
0.53057
0.564513
0.600089
0.637296
0.676064
0.716215
0.757412
0.799089
0.840383
0.880059
0.916498
0.947804
0.972108
0.988077
0.995505
0.995717
0.991728
0.988257
0.990971
1.00397
1.02602
1.04899
1.06428
1.08093
1.1376
1.26852
1.42308
1.55474
1.63145
1.60836
1.47615
1.21747
0.82341
0.26226
-0.536405
-1.66968
-3.26081
-5.44545
-8.42994
-11.8316
-15.2917
-20.9447
-25.6035
-23.8194
-20.2101
-16.0542
-11.1204
-6.88592
-4.02702
-1.52928
-0.580953
0.693615
0.00586413
0.0177262
0.0302275
0.042882
0.0560052
0.0694718
0.0833851
0.0977442
0.1126
0.127982
0.143932
0.160488
0.17769
0.19558
0.214202
0.2336
0.25382
0.274913
0.296929
0.319923
0.343957
0.369093
0.395401
0.422956
0.451839
0.482133
0.513924
0.547297
0.582324
0.619056
0.657503
0.697606
0.739197
0.781948
0.825291
0.86834
0.909806
0.947967
0.980769
1.00615
1.02259
1.02978
1.02908
1.0237
1.01879
1.02076
1.03434
1.0581
1.08214
1.09525
1.10671
1.16327
1.30637
1.47325
1.61424
1.69161
1.66116
1.51934
1.2517
0.852956
0.292477
-0.506057
-1.65053
-3.2845
-5.58967
-8.79894
-12.5393
-16.8946
-22.6525
-28.066
-25.7522
-21.7404
-17.1788
-11.7286
-7.1132
-4.01126
-1.39271
-0.392274
0.928984
0.00598424
0.0183165
0.0311462
0.0442278
0.057739
0.0716334
0.0859697
0.100774
0.116083
0.131936
0.148372
0.165432
0.183156
0.201589
0.220775
0.240759
0.26159
0.283317
0.305995
0.32968
0.354432
0.380319
0.407412
0.435787
0.46553
0.496728
0.529472
0.563853
0.599952
0.63783
0.677508
0.71894
0.761973
0.806286
0.851315
0.896155
0.939463
0.979409
1.01377
1.04027
1.05718
1.06409
1.06236
1.05539
1.04884
1.04991
1.06415
1.08993
1.11527
1.12571
1.13047
1.186
1.34172
1.51932
1.66594
1.73858
1.69783
1.54675
1.27209
0.871661
0.316195
-0.477567
-1.62954
-3.3075
-5.74524
-9.20146
-13.3683
-18.7822
-24.4847
-30.8562
-27.8266
-23.3493
-18.3554
-12.3589
-7.3334
-3.96956
-1.22889
-0.204332
1.03647
0.00610164
0.0189088
0.0320614
0.0455688
0.0594637
0.0737826
0.0885375
0.103782
0.11954
0.13586
0.152776
0.170334
0.188576
0.207546
0.227289
0.247854
0.269288
0.291644
0.314976
0.339343
0.364806
0.391435
0.419302
0.448488
0.47908
0.51117
0.544856
0.580233
0.617392
0.656403
0.697303
0.740058
0.784532
0.830416
0.877151
0.923818
0.969022
1.01082
1.04681
1.07448
1.09188
1.09845
1.09556
1.08681
1.07836
1.07838
1.09335
1.12154
1.1485
1.15572
1.15192
1.20505
1.37326
1.55831
1.70458
1.76736
1.71601
1.55816
1.27953
0.88103
0.335381
-0.44885
-1.60476
-3.32772
-5.90938
-9.6349
-14.3171
-20.8459
-26.5237
-34.0701
-30.064
-25.035
-19.5775
-13.0086
-7.54366
-3.89864
-1.03455
-0.00679127
1.27803
0.00621621
0.0195031
0.032973
0.0469051
0.0611792
0.0759189
0.0910879
0.106769
0.12297
0.139751
0.157143
0.175195
0.193948
0.213449
0.233744
0.254882
0.276913
0.299891
0.32387
0.34891
0.375077
0.402438
0.43107
0.461056
0.492486
0.525457
0.560071
0.596431
0.634637
0.67477
0.716881
0.760952
0.806864
0.854327
0.902789
0.95132
0.998477
1.04221
1.07991
1.1088
1.12669
1.13287
1.1287
1.11792
1.1073
1.10608
1.12189
1.15295
1.18196
1.18535
1.17064
1.21943
1.39926
1.58565
1.72415
1.77479
1.7158
1.55522
1.2763
0.883663
0.352811
-0.417246
-1.57356
-3.34191
-6.07675
-10.0919
-15.3766
-23.0401
-28.927
-37.824
-32.4881
-26.7967
-20.8361
-13.6736
-7.74047
-3.79477
-0.80477
0.272801
1.56284
0.00632783
0.0200994
0.0338811
0.0482364
0.0628851
0.0780421
0.0936205
0.109733
0.126373
0.143611
0.161473
0.180012
0.19927
0.219297
0.240137
0.261843
0.284464
0.308055
0.332674
0.35838
0.38524
0.413325
0.442712
0.473487
0.505744
0.539583
0.575112
0.612442
0.651681
0.692924
0.736233
0.781612
0.82896
0.878007
0.928215
0.97865
1.02782
1.07356
1.11305
1.14324
1.16165
1.16738
1.16177
1.14873
1.13563
1.13294
1.14971
1.18421
1.21582
1.21461
1.18593
1.22811
1.41717
1.59496
1.72002
1.76087
1.69956
1.54099
1.26561
0.882664
0.371416
-0.38011
-1.53312
-3.34601
-6.24012
-10.5616
-16.5345
-25.3727
-31.864
-42.2052
-35.1252
-28.6346
-22.1201
-14.3488
-7.9197
-3.65444
-0.539753
0.539316
1.76063
0.00643636
0.0206979
0.0347856
0.0495625
0.0645813
0.0801517
0.0961347
0.112674
0.129748
0.147437
0.165763
0.184785
0.204543
0.225088
0.246467
0.268733
0.291938
0.316136
0.341386
0.367749
0.395294
0.424092
0.454224
0.485778
0.518849
0.553544
0.589975
0.62826
0.668519
0.710856
0.755352
0.802029
0.850808
0.901444
0.953417
1.00579
1.05704
1.10487
1.14626
1.17782
1.19676
1.202
1.1948
1.17922
1.16328
1.15887
1.17673
1.21535
1.25024
1.24333
1.19705
1.23047
1.42239
1.57961
1.69131
1.72852
1.67113
1.5193
1.25094
0.880961
0.393706
-0.335183
-1.48056
-3.33534
-6.39069
-11.0305
-17.7727
-27.8417
-35.4206
-47.2451
-37.9995
-30.5495
-23.4176
-15.0273
-8.0766
-3.47425
-0.235359
0.810882
2.09093
0.00654162
0.0212986