/*--------------------------------*- C++ -*----------------------------------*\
| =========                 |                                                 |
| \\      /  F ield         | OpenFOAM: The Open Source CFD Toolbox           |
|  \\    /   O peration     | Version:  4.1                                   |
|   \\  /    A nd           | Web:      www.OpenFOAM.org                      |
|    \\/     M anipulation  |                                                 |
\*---------------------------------------------------------------------------*/
FoamFile
{
    version     2.0;
    format      ascii;
    class       volVectorField;
    location    "9";
    object      U;
}
// * * * * * * * * * * * * * * * * * * * * * * * * * * * * * * * * * * * * * //

dimensions      [0 1 -1 0 0 0 0];

internalField   nonuniform List<vector> 
6785
(
(1.53738e-14 -2.26705 16.4363)
(1.12927e-14 -7.90194 12.8741)
(-2.93763e-15 -5.11091 13.6779)
(4.25887e-15 -5.07273 13.176)
(8.94138e-16 -4.28401 13.0281)
(5.66789e-17 -3.86634 12.7295)
(3.10305e-15 -3.44693 12.4395)
(6.77427e-16 -3.15415 12.1289)
(-4.2981e-16 -2.96155 11.8414)
(2.06472e-15 -2.90807 11.5834)
(1.9751e-16 -2.94839 11.3613)
(-3.99608e-16 -3.05005 11.1101)
(9.7992e-16 -3.54817 10.4587)
(7.34333e-18 -3.65837 9.31957)
(-4.13327e-16 -0.0420205 7.5866)
(1.97695e-14 -10.3204 26.8281)
(1.26863e-14 -16.0933 23.1777)
(-2.5834e-15 -11.0743 23.5319)
(4.39779e-15 -11.7737 21.7454)
(6.7042e-16 -10.0299 20.9261)
(8.00465e-16 -9.35608 19.7393)
(1.85318e-15 -8.34018 18.7256)
(2.36393e-18 -7.52851 17.685)
(-8.5558e-17 -6.68378 16.6374)
(5.69292e-16 -5.82527 15.4114)
(-5.7803e-16 -4.86972 13.8303)
(-5.53635e-16 -3.91737 11.7191)
(1.26073e-16 -3.26724 9.03981)
(-3.90842e-16 -2.77313 6.08115)
(-6.31901e-16 -1.08308 2.34044)
(2.0145e-14 -13.216 28.8435)
(1.0405e-14 -16.9214 25.5479)
(-1.75605e-15 -12.2537 25.5057)
(3.724e-15 -13.2357 23.0809)
(3.62084e-16 -11.1106 22.1151)
(1.26107e-15 -10.6814 20.4612)
(1.08993e-15 -9.56616 19.2467)
(-3.57417e-16 -8.87973 17.9397)
(2.68981e-16 -8.00399 16.6088)
(2.79263e-16 -6.84864 14.5811)
(1.68525e-16 -4.60613 10.7086)
(3.56211e-15 -0.903538 3.90865)
(4.34769e-15 2.76958 -3.06642)
(-8.39723e-16 3.60317 -4.52712)
(-3.0946e-15 2.18638 -3.74151)
(2.03265e-14 -14.2286 29.0742)
(1.04858e-14 -17.4983 26.2548)
(-1.80565e-15 -13.0605 25.8052)
(3.71935e-15 -14.502 23.0035)
(6.69566e-16 -12.1066 22.1115)
(1.01082e-15 -12.1005 20.1281)
(1.35782e-15 -10.9277 18.8606)
(5.62958e-16 -10.4217 17.3811)
(1.32399e-16 -9.67788 16.0129)
(5.96889e-16 -8.82138 14.2413)
(1.16677e-15 -7.27934 11.4231)
(1.6674e-15 -4.51847 6.88514)
(2.54461e-15 -1.86123 2.60914)
(8.74385e-15 2.17921 -1.49853)
(-2.78802e-15 2.29294 -6.50563)
(2.03442e-14 -14.1592 27.8249)
(1.2118e-14 -17.6208 26.8297)
(-1.2059e-15 -13.3424 25.4035)
(3.34429e-15 -14.4243 22.496)
(1.30688e-15 -12.1867 21.4831)
(6.74358e-16 -12.0882 19.3765)
(1.38325e-15 -10.9008 17.9516)
(1.16708e-15 -10.2753 16.291)
(1.82168e-16 -9.48781 14.7633)
(4.3721e-16 -8.6834 13.117)
(8.59986e-16 -7.6818 11.1017)
(4.16426e-16 -6.02218 8.44589)
(6.11262e-17 -4.20054 5.3136)
(-1.81735e-16 -1.06405 1.55775)
(2.23255e-15 1.02297 -4.00111)
(2.03011e-14 -13.5873 25.8911)
(1.36803e-14 -17.2113 26.8408)
(1.04102e-16 -13.2857 24.633)
(2.71715e-15 -13.7414 21.6559)
(1.98849e-15 -11.8061 20.5022)
(1.1988e-15 -11.4987 18.4381)
(1.3095e-15 -10.3572 16.9143)
(1.70669e-15 -9.61102 15.2171)
(1.31135e-15 -8.78243 13.6643)
(4.57246e-16 -7.96994 12.1466)
(9.56361e-16 -7.15568 10.5498)
(1.63407e-15 -6.05271 8.79585)
(5.2889e-16 -4.806 6.56647)
(2.14596e-16 -2.56102 3.68162)
(9.24021e-15 -0.323252 -1.40389)
(2.13869e-14 -13.0358 24.494)
(1.54511e-14 -16.6209 26.3962)
(2.35401e-15 -13.1427 23.9456)
(2.18094e-15 -13.1648 20.8921)
(3.27265e-15 -11.4468 19.6363)
(3.45167e-15 -11.0569 17.6649)
(1.79561e-15 -10.0475 16.2109)
(2.53578e-15 -9.38385 14.6844)
(4.19004e-15 -8.66926 13.2693)
(2.14464e-15 -7.96484 11.8946)
(1.46541e-15 -7.29174 10.5499)
(3.62104e-15 -6.52407 9.30597)
(2.64646e-15 -5.71962 7.97228)
(-1.03911e-15 -4.27741 6.31964)
(8.21505e-15 -1.93291 2.08586)
(2.03248e-14 -12.7112 23.8364)
(1.56062e-14 -15.7686 25.3945)
(1.94613e-15 -12.5577 23.0045)
(2.43925e-15 -12.4451 19.9164)
(3.75536e-15 -10.5864 18.6895)
(3.15182e-15 -10.239 16.6042)
(2.18634e-15 -9.07013 15.1648)
(2.75437e-15 -8.53923 13.4625)
(2.79586e-15 -7.91105 12.0269)
(2.17619e-15 -7.53993 10.7991)
(1.36557e-15 -7.32643 10.0517)
(1.28082e-15 -7.28579 9.88284)
(1.69704e-15 -7.16085 10.0443)
(-1.43694e-15 -6.50342 9.71235)
(2.8679e-15 -4.29947 6.70333)
(1.98388e-14 -13.1879 24.4868)
(1.17131e-14 -14.8136 24.7238)
(-5.01493e-16 -12.1968 22.6549)
(2.73949e-15 -11.7466 20.2002)
(2.47769e-15 -9.89891 18.7941)
(1.13413e-15 -8.78159 16.1998)
(2.55587e-15 -6.77741 13.5)
(2.23127e-15 -5.365 10.6146)
(1.6996e-15 -4.24147 8.60816)
(3.95949e-15 -4.0897 7.81619)
(2.59383e-15 -4.94744 8.7821)
(-2.57679e-16 -6.58955 10.9714)
(1.11784e-15 -7.9939 13.2141)
(-1.47864e-15 -8.70805 14.028)
(-1.39199e-15 -6.38172 11.3669)
(1.8775e-14 -14.8451 27.3812)
(7.53564e-15 -15.363 26.0852)
(-1.41397e-15 -12.9241 24.5213)
(1.76482e-15 -12.5501 22.9437)
(1.22266e-15 -10.8085 21.6091)
(8.51295e-16 -9.2271 18.8867)
(2.31663e-15 -6.68431 15.5946)
(3.54687e-15 -4.463 12.1595)
(5.28585e-15 -2.32403 9.18247)
(7.90378e-15 -0.60445 6.52052)
(8.48603e-15 0.365565 4.89348)
(6.00514e-15 -0.30973 5.40068)
(3.01109e-15 -2.83614 8.31304)
(7.93568e-16 -5.84472 11.591)
(-1.06283e-15 -5.21436 10.568)
(1.89356e-14 -15.4384 28.0356)
(9.08585e-15 -18.1864 29.9243)
(-1.50303e-17 -14.7928 27.0789)
(1.74306e-15 -14.5949 25.3747)
(4.75342e-16 -13.1186 24.2704)
(2.56109e-15 -12.0455 21.8992)
(2.51779e-15 -9.81171 18.95)
(3.31846e-15 -7.73296 15.5558)
(8.20528e-15 -5.43498 12.3305)
(7.86708e-15 -3.17976 8.92518)
(1.18205e-14 -0.7904 5.37698)
(1.8397e-14 1.38946 1.78489)
(1.71235e-14 2.81565 -0.829376)
(1.4038e-14 2.31488 -0.911832)
(1.80421e-15 0.292155 0.808639)
(1.77798e-14 -13.3247 23.3375)
(1.35725e-14 -19.4816 31.3824)
(4.97593e-15 -16.8847 28.7781)
(2.48746e-15 -15.7466 25.748)
(-5.61355e-17 -14.4233 24.0779)
(2.91254e-15 -13.7058 22.1157)
(3.08073e-15 -12.3824 19.9477)
(1.12453e-15 -10.9766 17.3865)
(4.64083e-15 -9.31604 14.7403)
(5.14657e-15 -7.52995 11.9429)
(5.46724e-15 -5.52763 8.93934)
(1.07463e-14 -3.18228 5.61671)
(8.90133e-15 -0.350194 1.6922)
(7.35817e-15 3.68431 -3.13384)
(2.24957e-15 2.08015 -6.08285)
(1.61184e-14 -10.2097 17.1808)
(1.6894e-14 -18.4017 29.8048)
(9.34028e-15 -17.6007 29.054)
(4.37034e-15 -15.9142 25.3708)
(8.76345e-16 -14.3801 22.6954)
(1.75229e-15 -13.4691 20.4999)
(2.44917e-15 -12.509 18.5548)
(1.98257e-15 -11.4955 16.5485)
(2.68648e-15 -10.3497 14.4649)
(3.12503e-15 -9.0714 12.3193)
(3.36834e-15 -7.70399 10.0872)
(4.01834e-15 -6.09685 7.77696)
(3.41605e-15 -4.39116 5.15735)
(3.86411e-15 -1.87615 2.3092)
(8.9424e-16 0.201066 -2.51889)
(1.40594e-14 -7.53364 11.9234)
(1.78895e-14 -16.4489 27.1348)
(9.54279e-15 -16.5299 27.2772)
(2.90466e-15 -14.1518 23.0632)
(3.83594e-16 -12.3243 20.1902)
(1.51971e-15 -11.4405 18.4411)
(2.74797e-15 -10.7691 17.1198)
(1.75025e-15 -10.1403 15.7629)
(3.88168e-16 -9.45842 14.3151)
(2.38933e-16 -8.66112 12.7781)
(-4.03833e-16 -7.7915 11.1496)
(-4.50186e-16 -6.70534 9.45717)
(2.72372e-16 -5.50133 7.469)
(-3.02958e-16 -3.64113 5.07116)
(-1.32271e-15 -1.36503 0.792751)
(1.01297e-14 -5.89267 10.3273)
(1.86558e-14 -16.3357 26.0709)
(1.58236e-14 -19.4833 29.3663)
(9.1995e-15 -18.9632 26.7733)
(3.15744e-15 -16.9734 22.8017)
(7.36217e-16 -14.8326 19.2304)
(6.86418e-16 -12.924 16.4161)
(2.80062e-15 -11.3222 14.2284)
(6.274e-15 -9.89674 12.4453)
(8.73417e-15 -8.75673 11.1337)
(8.98853e-15 -7.8953 10.1948)
(7.35423e-15 -7.18808 9.37092)
(6.62082e-15 -6.45209 8.75287)
(5.51995e-15 -5.64562 7.82308)
(4.7664e-15 -3.01455 5.07955)
(5.19634e-16 2.79051 0.319809)
(1.74808e-15 0.786376 -0.125456)
(1.85687e-15 -0.0489825 -0.236299)
(2.18166e-15 0.157695 -0.32883)
(2.72559e-15 0.153667 -0.417858)
(3.59919e-15 0.233503 -0.660837)
(2.92693e-15 0.229045 -0.530358)
(3.12841e-15 0.293952 -0.592097)
(2.98755e-15 0.326824 -0.66022)
(4.34594e-15 0.454465 -0.86587)
(4.25228e-15 0.405446 -0.665171)
(4.13822e-15 0.479968 -0.689186)
(4.98518e-15 0.62011 -0.878211)
(3.43231e-15 0.527698 -0.662974)
(3.31884e-15 0.618161 -0.692975)
(3.06902e-15 0.638391 -0.712449)
(4.16115e-15 0.78839 -0.871528)
(3.25053e-15 0.673309 -0.648692)
(2.96117e-15 0.752394 -0.642148)
(4.39798e-15 0.905731 -0.760884)
(3.11016e-15 0.733604 -0.56657)
(2.94961e-15 0.835817 -0.572897)
(2.75842e-15 0.836308 -0.573071)
(4.07765e-15 0.989659 -0.650742)
(2.58529e-15 0.781978 -0.495918)
(2.42029e-15 0.882354 -0.493852)
(1.79723e-15 0.878965 -0.486572)
(2.62389e-15 1.00623 -0.526251)
(1.53634e-15 0.793495 -0.393149)
(1.40836e-15 0.859393 -0.370924)
(2.14981e-15 0.985838 -0.353746)
(1.28342e-15 0.743455 -0.258613)
(1.28945e-15 0.826125 -0.238226)
(1.07826e-15 0.809478 -0.227355)
(1.53627e-15 0.909999 -0.167892)
(1.14132e-15 0.704109 -0.113135)
(1.07021e-15 0.743326 -0.105985)
(1.66633e-15 0.855584 -5.87017e-05)
(1.0371e-15 0.630298 0.0158117)
(9.86808e-16 0.69069 0.0379932)
(1.20043e-15 0.65138 0.0447199)
(2.25087e-15 0.782459 0.182202)
(1.53076e-15 0.60375 0.187907)
(1.73319e-15 0.650274 0.213523)
(1.91584e-15 0.594524 0.212118)
(3.52784e-15 0.726816 0.336679)
(2.47622e-15 0.617607 0.345114)
(2.41969e-15 0.594751 0.343619)
(3.33541e-15 0.727326 0.495219)
(2.7894e-15 0.576804 0.438902)
(2.76308e-15 0.594973 0.475208)
(2.5317e-15 0.522771 0.484843)
(3.2665e-15 0.591693 0.57945)
(2.61552e-15 0.433158 0.414315)
(2.08039e-15 0.438953 0.415373)
(2.08221e-15 0.36958 0.510139)
(4.12076e-15 0.383456 -0.00739509)
(5.63829e-15 0.210536 -0.447331)
(1.44511e-15 0.184264 -0.539986)
(4.58453e-15 0.386202 -2.54675)
(5.14316e-15 -0.0767695 -2.43442)
(3.12133e-15 -0.0634995 -2.19954)
(1.18708e-15 0.32577 -2.03941)
(-5.41077e-15 0.151893 -1.33827)
(-1.11284e-14 -0.624222 0.660798)
(-1.03888e-14 -0.364048 0.638659)
(-1.67022e-14 -0.989531 2.3647)
(-1.50556e-14 -1.48992 2.95757)
(-1.4798e-14 -1.67436 2.92815)
(-1.48638e-14 -1.65472 3.02559)
(-2.09905e-14 -2.7609 5.16964)
(-1.58696e-14 -3.08795 4.5144)
(-1.50126e-14 -3.50039 4.54119)
(-1.39257e-14 -3.40553 4.6732)
(-1.75151e-14 -5.17256 7.55496)
(-1.16067e-14 -5.33727 6.24699)
(-1.0683e-14 -5.37482 6.75912)
(-1.2916e-14 -7.54472 10.2937)
(-8.3719e-15 -7.47768 8.13462)
(-7.68259e-15 -7.77406 8.85213)
(-7.6664e-15 -8.40727 10.6695)
(-7.21885e-15 -8.26994 10.3829)
(-8.14064e-15 -8.32426 10.6764)
(-1.45964e-14 -9.67701 12.7715)
(-1.31602e-14 -9.04911 11.8565)
(-1.53469e-14 -9.2019 12.2987)
(-1.68649e-14 -9.18875 12.3134)
(-1.81437e-14 -9.24423 12.2543)
(-1.88228e-14 -9.27738 12.143)
(-1.88307e-14 -9.32585 12.0264)
(-1.81423e-14 -9.36187 11.9961)
(-1.71273e-14 -9.34744 12.0954)
(-1.88608e-14 -10.2912 13.5574)
(-1.36327e-14 -10.0101 12.8329)
(-1.16851e-14 -10.0996 13.0123)
(-1.06521e-14 -10.086 13.1462)
(-1.01082e-14 -10.1644 13.3305)
(-1.03985e-14 -10.1708 13.4033)
(-1.13831e-14 -10.2295 13.4558)
(-1.29676e-14 -10.2659 13.5593)
(-1.48376e-14 -10.2752 13.721)
(-2.21449e-14 -11.19 15.3865)
(-1.8838e-14 -10.8645 14.4848)
(-2.07199e-14 -10.9583 14.742)
(-2.10249e-14 -10.9584 14.9731)
(-2.10789e-14 -11.0093 15.392)
(-2.05768e-14 -11.0384 15.9324)
(-1.98386e-14 -11.1179 16.5128)
(-1.9007e-14 -11.1662 16.9639)
(-1.82803e-14 -11.2533 17.4117)
(-1.8045e-14 -11.3429 17.8221)
(-2.13881e-14 -11.8456 19.6717)
(-1.81103e-14 -11.5761 18.6877)
(-1.91263e-14 -11.6799 19.2101)
(-1.99923e-14 -11.6947 19.5305)
(-2.06632e-14 -11.7909 19.9478)
(-2.06799e-14 -11.831 20.3397)
(-1.99694e-14 -11.9462 20.8229)
(-1.79229e-14 -11.9885 21.062)
(-1.52905e-14 -12.1281 21.1827)
(-9.70087e-15 -11.808 21.4527)
(-5.71375e-15 -11.735 20.403)
(-1.80088e-15 -11.8117 20.6263)
(2.95001e-16 -11.8588 20.8511)
(2.15718e-15 -11.8683 20.9731)
(3.26644e-15 -11.9323 21.2097)
(4.00879e-15 -11.9871 21.4497)
(4.48657e-15 -11.9736 21.7274)
(4.85169e-15 -12.242 22.2336)
(6.43575e-15 -10.5331 20.6651)
(6.0036e-15 -11.0458 20.6349)
(6.64444e-15 -11.0367 20.5051)
(7.08328e-15 -11.0298 20.3854)
(7.63583e-15 -11.0655 20.5004)
(7.78632e-15 -11.0336 20.2221)
(7.70379e-15 -10.9722 19.7571)
(7.50322e-15 -10.9032 19.2031)
(7.24103e-15 -10.9715 18.5087)
(6.84666e-15 -8.32913 14.3548)
(7.00305e-15 -9.25207 16.0272)
(6.59491e-15 -9.01238 14.8399)
(6.5592e-15 -9.03393 14.1968)
(6.62813e-15 -8.88347 13.4982)
(6.88279e-15 -8.76658 13.0203)
(7.83764e-15 -8.64417 12.9306)
(7.34692e-15 -8.42036 12.3705)
(7.39311e-15 -8.24299 12.0511)
(7.22349e-15 -8.15353 11.5686)
(4.94484e-15 -4.6023 6.2347)
(7.18762e-15 -6.33988 10.1654)
(6.92524e-15 -5.78071 9.17342)
(6.56906e-15 -5.89217 8.72754)
(6.03307e-15 -5.54546 7.78177)
(5.29653e-15 -5.46069 6.56108)
(4.10612e-15 -5.24413 4.37829)
(3.0189e-15 -4.8617 2.24155)
(2.99007e-15 -4.86117 2.05114)
(8.90593e-16 -3.97574 -0.940065)
(2.53807e-15 -4.16812 1.05481)
(2.01459e-15 -4.13007 0.16329)
(-2.20958e-16 -3.00734 -1.93036)
(1.17397e-15 -4.80458 -1.00173)
(5.30389e-16 -3.67852 -1.084)
(4.72307e-16 -3.39829 -0.665561)
(5.18913e-16 -4.26015 -0.974003)
(3.44854e-16 -3.00345 -0.561612)
(4.64495e-16 -3.81187 -0.832916)
(4.00867e-16 -3.52321 -0.612947)
(3.05225e-16 -2.92949 -0.427943)
(4.17859e-16 -3.49893 -0.644575)
(3.49768e-16 -3.29356 -0.492333)
(2.92152e-16 -2.82277 -0.341645)
(3.95855e-16 -3.73372 -0.497727)
(2.90864e-16 -2.60566 -0.298351)
(4.43308e-16 -3.37383 -0.444742)
(3.89189e-16 -3.06449 -0.357946)
(2.78685e-16 -2.68371 -0.250228)
(3.27826e-16 -3.57016 -0.365749)
(1.96688e-16 -2.48601 -0.219872)
(2.22165e-16 -3.2577 -0.310584)
(9.73322e-17 -3.11315 -0.270529)
(3.53697e-17 -2.57978 -0.18357)
(-2.86326e-18 -3.15311 -0.266541)
(-3.03383e-17 -3.0588 -0.222575)
(-1.4833e-18 -2.62606 -0.140478)
(5.29799e-17 -3.55677 -0.185836)
(9.5711e-17 -2.49605 -0.0887319)
(2.42594e-16 -3.28075 -0.0807697)
(3.44121e-16 -3.04731 -0.0544869)
(3.02521e-16 -2.67396 0.00702564)
(4.44763e-16 -3.61449 0.0362634)
(3.30151e-16 -2.54394 0.0824217)
(4.55851e-16 -3.36984 0.184762)
(3.19153e-16 -3.22138 0.151688)
(1.97726e-16 -2.70422 0.166612)
(1.82247e-16 -3.33527 0.245777)
(1.77784e-17 -3.20252 0.181136)
(-6.55911e-17 -2.78152 0.172138)
(-2.03171e-16 -3.77733 0.203761)
(-2.26105e-16 -2.66786 0.158124)
(-4.11204e-16 -3.52117 0.233159)
(-4.21862e-16 -3.22114 0.134752)
(-3.51688e-16 -2.84292 0.12849)
(-4.86226e-16 -3.83403 0.140161)
(-3.34532e-16 -2.68926 0.116908)
(-4.46254e-16 -3.56095 0.185277)
(-3.03691e-16 -3.35157 0.0945707)
(-2.22827e-16 -2.8078 0.100637)
(-2.54176e-16 -3.44618 0.106296)
(-1.68973e-16 -3.26718 0.0243671)
(-1.34261e-16 -2.81891 0.0307164)
(-1.9094e-16 -3.80303 -0.0219447)
(-1.56899e-16 -2.64884 -0.0248801)
(-2.66759e-16 -3.47935 -0.0720677)
(-2.27423e-16 -3.12915 -0.15422)
(-2.26552e-16 -2.73246 -0.120985)
(-3.38425e-16 -3.65167 -0.230648)
(-2.67669e-16 -2.50859 -0.171405)
(-4.056e-16 -3.29682 -0.276418)
(-3.52573e-16 -3.04305 -0.321823)
(-2.91355e-16 -2.50129 -0.254934)
(-4.02073e-16 -3.03281 -0.430197)
(-2.85936e-16 -2.82254 -0.438037)
(-2.4667e-16 -2.37656 -0.347768)
(-3.36902e-16 -3.18394 -0.528793)
(-2.59277e-16 -2.1322 -0.385703)
(-3.94213e-16 -2.79362 -0.5967)
(-3.48266e-16 -2.43761 -0.573821)
(-2.87995e-16 -2.06883 -0.460292)
(-3.90352e-16 -2.76062 -0.67542)
(-2.89853e-16 -1.78924 -0.493653)
(-4.33071e-16 -2.36904 -0.754602)
(-3.33902e-16 -2.0991 -0.715301)
(-2.98615e-16 -1.63944 -0.582873)
(-4.52949e-16 -1.99521 -0.89325)
(-4.66902e-16 -1.76881 -0.823123)
(-3.93036e-16 -1.38978 -0.663456)
(-5.55797e-16 -1.9431 -0.946795)
(-4.48113e-16 -1.1209 -0.699007)
(-6.92806e-16 -1.40946 -1.07437)
(1.98179e-54 0.125099 0.13142)
(3.93975e-53 0.161284 0.129256)
(1.50794e-52 0.18522 0.13018)
(1.62891e-52 0.20819 0.130494)
(-1.5384e-51 0.230858 0.131881)
(-9.68525e-51 0.252411 0.133369)
(-1.81379e-50 0.273755 0.135448)
(8.39308e-50 0.294624 0.137825)
(6.68836e-49 0.315359 0.140651)
(1.30784e-48 0.335934 0.143832)
(-6.58044e-48 0.356501 0.147415)
(-4.983e-47 0.377097 0.151368)
(-7.60531e-47 0.39781 0.155706)
(6.16763e-46 0.418689 0.160416)
(3.74567e-45 0.439796 0.165505)
(2.78396e-45 0.461181 0.170969)
(-5.82575e-44 0.482893 0.176811)
(-2.65566e-43 0.504977 0.183032)
(8.63659e-44 0.527479 0.189637)
(5.09073e-42 0.550439 0.19663)
(1.67795e-41 0.573899 0.204015)
(-2.96077e-41 0.597898 0.2118)
(-3.9642e-40 0.622474 0.219991)
(-8.94229e-40 0.647664 0.228597)
(3.51853e-39 0.673506 0.237626)
(2.70447e-38 0.700032 0.247087)
(3.72092e-38 0.727276 0.256989)
(-2.98901e-37 0.755266 0.267342)
(-1.60538e-36 0.784028 0.278152)
(-1.00179e-36 0.813579 0.289425)
(2.01743e-35 0.843929 0.301165)
(8.30365e-35 0.875076 0.31337)
(1.20286e-36 0.907003 0.326034)
(-1.1171e-33 0.939672 0.339142)
(-3.78316e-33 0.973024 0.352672)
(1.43978e-33 1.00697 0.36659)
(5.12454e-32 1.04141 0.380849)
(1.54622e-31 1.07619 0.395391)
(-6.94036e-32 1.11115 0.410145)
(-1.94016e-30 1.14612 0.425027)
(-5.7427e-30 1.18094 0.439945)
(7.33719e-31 1.21545 0.454801)
(5.92484e-29 1.24953 0.469496)
(1.91087e-28 1.28314 0.483928)
(9.57112e-29 1.31626 0.497998)
(-1.36815e-27 1.34896 0.511601)
(-5.40093e-27 1.38131 0.524624)
(-6.90182e-27 1.41343 0.536938)
(1.94923e-26 1.44539 0.548387)
(1.17973e-25 1.47729 0.55878)
(2.53299e-25 1.50915 0.567874)
(1.85211e-26 1.54095 0.575334)
(-1.65076e-24 1.57243 0.580669)
(-5.62849e-24 1.6029 0.58313)
(-8.50936e-24 1.63098 0.581621)
(4.9094e-24 1.65443 0.574641)
(6.35573e-23 1.67018 0.560247)
(1.83048e-22 1.67419 0.536066)
(2.86454e-22 1.6613 0.49934)
(9.33113e-23 1.62495 0.447099)
(-9.24916e-22 1.55679 0.376325)
(-3.40508e-21 1.4448 0.284857)
(-7.76686e-21 1.27438 0.171583)
(-1.351e-20 1.01764 0.0391365)
(-1.56589e-20 0.617431 -0.0976823)
(2.76305e-21 -0.191837 -0.300753)
(2.65602e-21 -0.804244 -0.343296)
(7.84742e-25 -1.32827 -0.365)
(-1.27677e-22 -1.78573 -0.390914)
(-2.87541e-23 -2.21236 -0.394737)
(-6.63834e-23 -2.55591 -0.409533)
(1.17137e-22 -2.89032 -0.373745)
(-4.42467e-22 -3.08789 -0.381052)
(2.04805e-21 -3.43649 -0.28812)
(-1.15347e-20 -3.43271 -0.364797)
(1.51964e-19 -4.02685 -0.165239)
(-2.44454e-18 -3.60287 -0.491906)
(4.04566e-17 -4.65751 -0.12748)
(-8.33199e-17 -5.7157 -0.709949)
(-2.46838e-54 0.125551 0.145286)
(1.18348e-52 0.161551 0.142145)
(5.70199e-52 0.185068 0.143003)
(1.0648e-51 0.207949 0.143101)
(-3.59921e-51 0.230423 0.1445)
(-3.31057e-50 0.251858 0.145997)
(-8.85649e-50 0.273056 0.148176)
(1.66542e-49 0.293801 0.15068)
(2.19948e-48 0.314405 0.153684)
(6.15903e-48 0.334857 0.157075)
(-1.37587e-47 0.355299 0.160906)
(-1.63435e-46 0.375772 0.165137)
(-3.87393e-46 0.396363 0.169784)
(1.46374e-45 0.417121 0.174833)
(1.25106e-44 0.438107 0.180289)
(2.00386e-44 0.45937 0.186148)
(-1.52407e-43 0.48096 0.192413)
(-9.16431e-43 0.502922 0.199083)
(-5.81905e-43 0.525299 0.206163)
(1.42055e-41 0.548134 0.213657)
(6.08836e-41 0.571467 0.221571)
(-3.1509e-41 0.595337 0.229909)
(-1.15671e-39 0.619781 0.238681)
(-3.52414e-39 0.644837 0.247893)
(6.93558e-39 0.670541 0.257556)
(8.16533e-38 0.696928 0.267676)
(1.71658e-37 0.724029 0.278264)
(-6.87123e-37 0.751874 0.289326)
(-4.98775e-36 0.780489 0.30087)
(-6.80403e-36 0.809891 0.312898)
(4.941e-35 0.840093 0.32541)
(2.6434e-34 0.871093 0.338402)
(2.1525e-34 0.902877 0.351859)
(-2.80642e-33 0.935409 0.36576)
(-1.22482e-32 0.968634 0.380073)
(-5.96591e-33 1.00247 0.394751)
(1.2868e-31 1.03681 0.409737)
(5.01323e-31 1.07151 0.42496)
(2.21021e-31 1.10642 0.440337)
(-4.73909e-30 1.14137 0.455776)
(-1.81846e-29 1.1762 0.471182)
(-1.27255e-29 1.21074 0.486458)
(1.35316e-28 1.2449 0.501513)
(5.73345e-28 1.27861 0.516258)
(6.94267e-28 1.31187 0.530606)
(-2.68515e-27 1.34473 0.544469)
(-1.48806e-26 1.37729 0.55774)
(-2.82561e-26 1.40965 0.570291)
(2.14037e-26 1.44192 0.581964)
(2.85453e-25 1.47419 0.592557)
(8.05856e-25 1.50653 0.601811)
(7.1364e-25 1.53892 0.609352)
(-3.02172e-24 1.57121 0.614593)
(-1.47154e-23 1.60279 0.616619)
(-3.05095e-23 1.6324 0.614089)
(-1.52986e-23 1.65795 0.605226)
(1.1847e-22 1.67651 0.587801)
(4.71484e-22 1.68414 0.559159)
(9.73597e-22 1.6758 0.516283)
(1.0426e-21 1.64497 0.455996)
(-7.50489e-22 1.58317 0.375075)
(-6.76549e-21 1.47809 0.271536)
(-2.00546e-20 1.31425 0.144369)
(-4.263e-20 1.06178 -0.00312292)
(-6.29523e-20 0.671797 -0.150933)
(-1.94446e-20 -0.176565 -0.392275)
(2.13294e-21 -0.823575 -0.396066)
(1.59347e-22 -1.35174 -0.390832)
(-1.37669e-22 -1.81011 -0.404776)
(-3.10748e-23 -2.2376 -0.402575)
(-6.60729e-23 -2.58404 -0.411897)
(1.16358e-22 -2.91669 -0.372226)
(-4.42023e-22 -3.11763 -0.37713)
(2.05472e-21 -3.4545 -0.282855)
(-1.17215e-20 -3.45936 -0.358328)
(1.56052e-19 -4.02027 -0.1607)
(-2.50972e-18 -3.61369 -0.481828)
(4.04232e-17 -4.63038 -0.123936)
(-8.05465e-17 -5.60381 -0.710514)
(-2.77226e-53 0.125841 0.152699)
(2.60286e-52 0.161735 0.14918)
(1.55928e-51 0.185007 0.149997)
(3.81729e-51 0.207836 0.149983)
(-5.37971e-51 0.230202 0.15139)
(-8.31654e-50 0.251574 0.152895)
(-2.79338e-49 0.272696 0.155131)
(1.63152e-49 0.293376 0.157706)
(5.32905e-48 0.313912 0.16081)
(1.88671e-47 0.334299 0.164318)
(-1.68044e-47 0.354677 0.168285)
(-3.94304e-46 0.375088 0.17267)
(-1.21342e-45 0.395616 0.177487)
(2.41338e-45 0.416312 0.182722)
(3.05554e-44 0.437236 0.188379)
(6.91458e-44 0.458437 0.194454)
(-2.93267e-43 0.479965 0.200949)
(-2.28451e-42 0.501864 0.207865)
(-2.97378e-42 0.524179 0.215205)
(2.95705e-41 0.546951 0.222972)
(1.56075e-40 0.570219 0.231173)
(3.87637e-41 0.594023 0.239814)
(-2.51679e-39 0.618401 0.248902)
(-9.40671e-39 0.64339 0.258444)
(8.84303e-39 0.669025 0.268451)
(1.82674e-37 0.695341 0.27893)
(4.88608e-37 0.722371 0.28989)
(-1.15856e-36 0.750144 0.301339)
(-1.13732e-35 0.778686 0.313281)
(-2.16272e-35 0.808016 0.325718)
(9.0545e-35 0.838147 0.338649)
(6.10561e-34 0.869078 0.352065)
(8.28899e-34 0.900795 0.365949)
(-5.29036e-33 0.933268 0.380275)
(-2.84491e-32 0.966439 0.395005)
(-2.98129e-32 1.00023 0.410088)
(2.42077e-31 1.03454 0.425457)
(1.15768e-30 1.06922 0.441036)
(1.16151e-30 1.10413 0.456737)
(-8.63985e-30 1.13909 0.472464)
(-4.105e-29 1.17393 0.488122)
(-5.06218e-29 1.20851 0.503617)
(2.2814e-28 1.24272 0.518865)
(1.2385e-27 1.27648 0.533785)
(2.10856e-27 1.3098 0.548301)
(-3.65047e-27 1.34274 0.562328)
(-2.99436e-26 1.3754 0.575766)
(-7.15786e-26 1.40788 0.588486)
(-8.66528e-27 1.44029 0.600326)
(5.08231e-25 1.47274 0.611081)
(1.78027e-24 1.5053 0.620485)
(2.46627e-24 1.538 0.628143)
(-3.62737e-24 1.57073 0.633413)
(-2.8059e-23 1.60294 0.635276)
(-7.17291e-23 1.63345 0.632251)
(-7.52922e-23 1.66022 0.622415)
(1.47845e-22 1.6804 0.603394)
(8.88662e-22 1.6901 0.572386)
(2.2301e-21 1.68431 0.526244)
(3.3049e-21 1.65652 0.461677)
(1.26108e-21 1.59814 0.375317)
(-9.72285e-21 1.49667 0.265264)
(-3.90356e-20 1.33607 0.130395)
(-9.60876e-20 1.08503 -0.0257674)
(-1.59173e-19 0.697454 -0.180457)
(-9.47076e-20 -0.149685 -0.432279)
(-1.54379e-21 -0.817658 -0.47248)
(7.76013e-22 -1.33867 -0.434756)
(-1.38092e-22 -1.79552 -0.427729)
(-3.77084e-23 -2.22388 -0.415808)
(-6.56383e-23 -2.57498 -0.416916)
(1.15374e-22 -2.90965 -0.370877)
(-4.4143e-22 -3.11765 -0.371786)
(2.06309e-21 -3.4493 -0.275232)
(-1.19524e-20 -3.46615 -0.348329)
(1.61118e-19 -4.00326 -0.153067)
(-2.5854e-18 -3.6143 -0.468082)
(4.03988e-17 -4.60372 -0.112323)
(-7.79639e-17 -5.51904 -0.722959)
(-1.27351e-52 0.126302 0.161304)
(5.04868e-52 0.162021 0.157437)
(4.02918e-51 0.18494 0.158223)
(1.21956e-50 0.207681 0.158111)
(-2.59948e-51 0.229884 0.159538)
(-1.96648e-49 0.251157 0.161068)
(-8.13562e-49 0.272159 0.16338)
(-2.86053e-49 0.29274 0.16605)
(1.21335e-47 0.313171 0.169279)
(5.34553e-47 0.33346 0.172933)
(4.5727e-48 0.353739 0.177069)
(-8.97538e-46 0.374054 0.181643)
(-3.46777e-45 0.394486 0.186669)
(2.74446e-45 0.415087 0.192132)
(7.07238e-44 0.435917 0.198035)
(2.07732e-43 0.457024 0.204373)
(-4.9738e-43 0.478457 0.211149)
(-5.40447e-42 0.500262 0.218362)
(-1.03643e-41 0.52248 0.226017)
(5.74314e-41 0.545155 0.234116)
(3.78436e-40 0.568325 0.242666)
(3.35515e-40 0.592029 0.251672)
(-5.20454e-39 0.616306 0.261143)
(-2.35045e-38 0.641191 0.271086)
(4.12932e-39 0.666721 0.28151)
(3.90901e-37 0.69293 0.292423)
(1.27178e-36 0.71985 0.303834)
(-1.67736e-36 0.747513 0.31575)
(-2.48375e-35 0.775944 0.328175)
(-5.96856e-35 0.805163 0.34111)
(1.53239e-34 0.835183 0.354549)
(1.34889e-33 0.866007 0.368483)
(2.47469e-33 0.897622 0.38289)
(-9.38842e-33 0.929999 0.397739)
(-6.30532e-32 0.963086 0.412985)
(-9.58202e-32 0.996806 0.428569)
(4.30634e-31 1.03105 0.444418)
(2.54619e-30 1.0657 0.460447)
(3.73546e-30 1.10059 0.476561)
(-1.48136e-29 1.13556 0.492659)
(-8.82718e-29 1.17043 0.508645)
(-1.48162e-28 1.20505 0.524427)
(3.51436e-28 1.23932 0.539926)
(2.55422e-27 1.27317 0.555072)
(5.45657e-27 1.30659 0.569797)
(-3.62004e-27 1.33965 0.584027)
(-5.76096e-26 1.37245 0.597667)
(-1.65778e-25 1.40511 0.610589)
(-1.14737e-25 1.43775 0.622629)
(8.52315e-25 1.47047 0.63358)
(3.71836e-24 1.50337 0.64317)
(6.65412e-24 1.53654 0.650985)
(-2.4548e-24 1.56991 0.656331)
(-5.11926e-23 1.60306 0.658077)
(-1.57141e-22 1.63488 0.654586)
(-2.25872e-22 1.66345 0.643765)
(1.24249e-22 1.686 0.623059)
(1.62072e-21 1.69874 0.58949)
(4.82746e-21 1.69672 0.539743)
(8.56319e-21 1.67343 0.470368)
(7.14178e-21 1.62018 0.377802)
(-1.31121e-20 1.52419 0.260146)
(-7.67406e-20 1.36865 0.115959)
(-2.10808e-19 1.12066 -0.0507651)
(-3.71805e-19 0.736362 -0.216133)
(-3.05389e-19 -0.106312 -0.484106)
(-1.59093e-20 -0.821119 -0.561778)
(2.80836e-21 -1.34427 -0.500266)
(-4.85218e-23 -1.7964 -0.462635)
(-6.02862e-23 -2.22338 -0.435018)
(-6.56929e-23 -2.57732 -0.425296)
(1.14391e-22 -2.91223 -0.370219)
(-4.40721e-22 -3.12463 -0.365632)
(2.07181e-21 -3.45036 -0.265579)
(-1.21922e-20 -3.47572 -0.335815)
(1.66352e-19 -3.99177 -0.142663)
(-2.65791e-18 -3.617 -0.451477)
(4.03739e-17 -4.58046 -0.0985737)
(-7.52212e-17 -5.45232 -0.681796)
(-4.59549e-52 0.126746 0.169429)
(7.67352e-52 0.1623 0.165344)
(9.75753e-51 0.184897 0.166106)
(3.57138e-50 0.20755 0.165923)
(2.31112e-50 0.229603 0.167377)
(-4.30403e-49 0.250782 0.16894)
(-2.20704e-48 0.271675 0.171331)
(-2.45635e-48 0.292164 0.174099)
(2.54517e-47 0.312499 0.177455)
(1.41113e-46 0.332699 0.181255)
(1.24759e-46 0.352888 0.18556)
(-1.89563e-45 0.373116 0.190321)
(-9.17007e-45 0.393461 0.195553)
(-1.17449e-45 0.413977 0.20124)
(1.53246e-43 0.434721 0.207384)
(5.65689e-43 0.455742 0.21398)
(-6.52074e-43 0.477091 0.221031)
(-1.20307e-41 0.498809 0.228535)
(-3.05033e-41 0.520942 0.236497)
(1.00642e-40 0.543529 0.244921)
(8.63854e-40 0.566611 0.25381)
(1.26343e-39 0.590226 0.263173)
(-1.00615e-38 0.614411 0.273017)
(-5.50375e-38 0.639203 0.28335)
(-2.45769e-38 0.664639 0.29418)
(7.91117e-37 0.690752 0.305517)
(3.06661e-36 0.717575 0.317368)
(-1.69196e-36 0.74514 0.329739)
(-5.14957e-35 0.773472 0.342634)
(-1.49209e-34 0.802593 0.356053)
(2.2833e-34 0.832518 0.36999)
(2.8306e-33 0.863249 0.384428)
(6.44514e-33 0.894778 0.399346)
(-1.52712e-32 0.927076 0.414705)
(-1.32626e-31 0.960095 0.430455)
(-2.57272e-31 0.993761 0.446531)
(7.0825e-31 1.02797 0.462851)
(5.3101e-30 1.0626 0.479322)
(9.94634e-30 1.09749 0.495842)
(-2.32563e-29 1.13247 0.512307)
(-1.80013e-28 1.16738 0.528616)
(-3.73208e-28 1.20206 0.544683)
(4.65593e-28 1.23639 0.560433)
(5.00131e-27 1.27031 0.575806)
(1.27114e-26 1.30382 0.590745)
(2.48204e-29 1.33699 0.605186)
(-1.05149e-25 1.36991 0.619039)
(-3.56325e-25 1.40272 0.632177)
(-3.95466e-25 1.43555 0.644435)
(1.32144e-24 1.4685 0.655605)
(7.34566e-24 1.5017 0.665414)
(1.57062e-23 1.53528 0.673437)
(3.7709e-24 1.56925 0.678931)
(-8.9005e-23 1.60327 0.680661)
(-3.23673e-22 1.63635 0.676839)
(-5.60184e-22 1.66664 0.665206)
(-4.68499e-23 1.69147 0.64304)
(2.87186e-21 1.70711 0.607192)
(9.94313e-21 1.70865 0.554183)
(1.96789e-20 1.68961 0.480399)
(2.06426e-20 1.64117 0.382067)
(-1.7908e-20 1.55032 0.257221)
(-1.53438e-19 1.39948 0.103921)
(-4.4843e-19 1.15432 -0.0733933)
(-8.1175e-19 0.771759 -0.251236)
(-8.1065e-19 -0.0557123 -0.535927)
(-6.11603e-20 -0.826857 -0.65246)
(8.04908e-21 -1.36021 -0.588231)
(4.43265e-22 -1.8083 -0.514883)
(-1.21168e-22 -2.23176 -0.462152)
(-6.86919e-23 -2.58747 -0.438031)
(1.13611e-22 -2.92159 -0.371023)
(-4.39837e-22 -3.13732 -0.359011)
(2.0804e-21 -3.4558 -0.254061)
(-1.24291e-20 -3.48871 -0.320738)
(1.71498e-19 -3.98204 -0.129353)
(-2.72301e-18 -3.6217 -0.432295)
(4.03682e-17 -4.55682 -0.0794759)
(-7.35856e-17 -5.37925 -0.689157)
(-1.45363e-51 0.127241 0.177475)
(4.76842e-52 0.162604 0.173249)
(2.20448e-50 0.184861 0.173998)
(9.74161e-50 0.207412 0.17377)
(1.30344e-49 0.229297 0.175258)
(-8.56375e-49 0.25037 0.176868)
(-5.6208e-48 0.271142 0.179345)
(-1.00574e-47 0.291528 0.18222)
(4.80349e-47 0.311757 0.18571)
(3.49595e-46 0.331858 0.189664)
(5.58384e-46 0.351947 0.194144)
(-3.65476e-45 0.372079 0.199099)
(-2.26692e-44 0.392328 0.204544)
(-2.05329e-44 0.412749 0.210461)
(3.08439e-43 0.433398 0.216854)
(1.42484e-42 0.454326 0.223716)
(-2.95631e-43 0.47558 0.231048)
(-2.514e-41 0.497204 0.238851)
(-8.05307e-41 0.519242 0.247128)
(1.5098e-40 0.541733 0.255883)
(1.85871e-39 0.564717 0.265121)
(3.74834e-39 0.588233 0.274848)
(-1.79824e-38 0.612318 0.285073)
(-1.21361e-37 0.637008 0.295804)
(-1.19638e-37 0.662339 0.30705)
(1.51043e-36 0.688347 0.318819)
(6.92291e-36 0.715063 0.331118)
(3.53407e-37 0.742519 0.343955)
(-1.01412e-34 0.770743 0.357332)
(-3.45215e-34 0.799757 0.371247)
(2.73427e-34 0.829576 0.385691)
(5.65419e-33 0.860206 0.400648)
(1.5269e-32 0.89164 0.416089)
(-2.21598e-32 0.923853 0.431974)
(-2.65628e-31 0.9568 0.448244)
(-6.17691e-31 0.990408 0.464828)
(1.05871e-30 1.02458 0.481636)
(1.05445e-29 1.05919 0.498567)
(2.3607e-29 1.09408 0.515511)
(-3.25997e-29 1.12909 0.53236)
(-3.49731e-28 1.16404 0.54901)
(-8.50613e-28 1.19878 0.565378)
(4.63713e-28 1.23318 0.581395)
(9.34095e-27 1.26719 0.59701)
(2.73528e-26 1.3008 0.612179)
(1.25935e-26 1.33407 0.626846)
(-1.82949e-25 1.36713 0.640929)
(-7.19909e-25 1.4001 0.654303)
(-1.02947e-24 1.43313 0.666801)
(1.88358e-24 1.46633 0.678217)
(1.38385e-23 1.49986 0.688282)
(3.37713e-23 1.53387 0.696564)
(2.08788e-23 1.56849 0.702281)
(-1.49357e-22 1.60348 0.704097)
(-6.33798e-22 1.63795 0.700071)
(-1.2341e-21 1.67016 0.687782)