/*--------------------------------*- C++ -*----------------------------------*\
| =========                 |                                                 |
| \\      /  F ield         | OpenFOAM: The Open Source CFD Toolbox           |
|  \\    /   O peration     | Version:  4.1                                   |
|   \\  /    A nd           | Web:      www.OpenFOAM.org                      |
|    \\/     M anipulation  |                                                 |
\*---------------------------------------------------------------------------*/
FoamFile
{
    version     2.0;
    format      ascii;
    class       volScalarField;
    location    "9";
    object      k;
}
// * * * * * * * * * * * * * * * * * * * * * * * * * * * * * * * * * * * * * //

dimensions      [0 2 -2 0 0 0 0];

internalField   uniform 0.648;

boundaryField
{
    inletFace
    {
        type            calculated;
        value           uniform 0.648;
    }
    inlet
    {
        type            calculated;
        value           uniform 0.648;
    }
    inletWalls
    {
        type            calculated;
        value           uniform 0.648;
    }
    outletInlet
    {
        type            calculated;
        value           uniform 0.648;
    }
}


// ************************************************************************* //
