/*--------------------------------*- C++ -*----------------------------------*\
| =========                 |                                                 |
| \\      /  F ield         | OpenFOAM: The Open Source CFD Toolbox           |
|  \\    /   O peration     | Version:  4.1                                   |
|   \\  /    A nd           | Web:      www.OpenFOAM.org                      |
|    \\/     M anipulation  |                                                 |
\*---------------------------------------------------------------------------*/
FoamFile
{
    version     2.0;
    format      ascii;
    class       surfaceScalarField;
    location    "9";
    object      phi;
}
// * * * * * * * * * * * * * * * * * * * * * * * * * * * * * * * * * * * * * //

dimensions      [0 3 -1 0 0 0 0];

internalField   nonuniform List<scalar> 
420
(
-949.879
2249.78
-1573.96
1924.28
-2054
1779.95
-2424.23
1670.13
-2699.86
1575.83
-2888.38
1488.42
-2993.06
1404.58
-3013.86
1321
-2949.61
1235.66
-2797.23
1147.52
-2551.17
1054.13
-2193
941.735
-1687.17
794.065
-1012.67
625.704
287.229
373.335
1876.44
442.748
1854.86
437.3
1785.39
406.697
1700.74
380.579
1601.94
359.899
1509.1
345.291
1419.19
337.534
1328.76
333.482
1239.71
326.951
1154.05
309.608
1071.48
267.465
983.877
191.427
870.103
111.447
705.684
398.676
33.5756
1842.87
-97.389
1985.83
-253.614
1941.62
-371.12
1818.24
-473.184
1704.01
-567.533
1603.45
-651.75
1503.4
-725.797
1402.8
-788.075
1301.99
-837.308
1203.28
-868.228
1102.4
-856.09
971.74
-740.336
754.35
-434.284
399.632
-35.6081
28.7757
1814.09
-100.653
2115.26
-225.561
2066.53
-304.497
1897.18
-368.158
1767.67
-416.955
1652.24
-446.231
1532.68
-457.018
1413.59
-451.856
1296.83
-430.157
1181.59
-387.229
1059.47
-311.875
896.385
-192.866
635.342
-48.4081
255.174
-84.0163
169.627
1644.47
146.158
2138.72
123.732
2088.95
122.87
1898.04
126.942
1763.6
135.806
1643.38
149.104
1519.38
166.593
1396.1
186.944
1276.47
208.133
1160.4
229.133
1038.47
243.824
881.695
233.005
646.16
155.229
332.95
71.2126
223.079
1421.39
244.185
2117.62
234.749
2098.39
236.029
1896.76
240.378
1759.25
244.313
1639.45
246.555
1517.14
245.258
1397.4
241.169
1280.57
233.994
1167.57
221.387
1051.08
199.144
903.94
156.145
689.161
78.3051
410.792
149.518
203.321
1218.07
238.382
2082.57
213.628
2123.14
191.418
1918.97
177.209
1773.46
163.775
1652.88
150.04
1530.88
135.896
1411.54
121.07
1295.39
106.916
1181.72
92.8208
1065.17
75.7698
920.99
52.0237
712.907
19.0215
443.795
168.539
171.857
1046.21
221.986
2032.43
199.424
2145.7
170.4
1947.99
152.047
1791.81
137.662
1667.26
122.773
1545.76
108.574
1425.74
95.5809
1308.38
83.1034
1194.2
71.4843
1076.79
58.6363
933.84
40.3264
731.219
15.7517
468.371
184.291
146.099
900.106
210.051
1968.47
196.868
2158.89
170.043
1974.81
152.399
1809.45
139.536
1680.13
127.077
1558.23
113.878
1438.95
101.335
1320.93
89.4387
1206.1
77.0038
1089.23
63.1051
947.74
44.319
750.007
19.1737
493.518
203.465
116.756
783.357
184.849
1900.38
179.631
2164.11
154.328
2000.13
137.246
1826.54
124.036
1693.35
111.408
1570.86
99.0018
1451.36
86.1472
1333.79
73.9052
1218.35
62.1374
1101
49.0565
960.826
32.8839
766.185
13.2039
513.203
216.669
83.154
700.214
143.146
1840.41
144.703
2162.56
122.791
2022.06
106.18
1843.15
94.4865
1705.04
82.5979
1582.74
71.1794
1462.77
60.394
1344.57
49.4622
1229.28
39.43
1111.03
29.7483
970.508
18.0889
777.846
5.24453
526.048
221.913
51.2436
648.97
97.9304
1793.73
102.713
2157.77
87.3711
2037.39
73.1308
1857.39
63.1041
1715.06
54.2022
1591.64
44.8147
1472.15
36.105
1353.28
28.1299
1237.25
20.3855
1118.77
13.6485
977.242
6.71116
784.781
-0.427284
533.184
221.486
25.1294
623.832
57.6854
1761.16
63.4685
2151.98
53.4029
2047.43
43.8212
1866.97
36.1051
1722.77
29.4842
1598.27
23.4452
1478.19
17.0029
1359.72
11.2662
1242.99
6.56121
1123.48
2.44477
981.375
-1.09334
788.331
-3.69187
535.794
217.794
1.39175
622.435
23.9904
1738.54
33.2889
2142.69
27.6644
2053.06
20.3245
1874.31
15.0473
1728.05
9.52251
1603.79
4.58593
1483.14
0.0443044
1364.26
-4.82217
1247.86
-8.33043
1126.98
-9.654
982.679
-9.73811
788.391
-7.16373
533.198
210.63
-11.7703
-3.17264
1.41834
-0.407484
-5.09233
-8.829
-11.779
-15.2176
-18.0789
-20.2149
-21.7793
-21.114
-18.1216
-12.387
)
;

boundaryField
{
    inletFace
    {
        type            calculated;
        value           nonuniform List<scalar> 
450
(
-2.26265e-14
5.7336e-13
-2.58435e-13
-1.18884e-13
2.03468e-13
-2.83109e-13
-1.91199e-13
8.69145e-14
-5.36065e-14
1.80806e-14
2.83216e-14
-7.33019e-14
-1.51288e-14
1.99259e-14
1.13208e-15
-2.11501e-12
-2.27195e-12
-9.10291e-14
-7.203e-13
-2.30302e-13
7.3991e-14
-3.86968e-13
-1.82477e-13
-3.95665e-14
-1.51949e-13
-7.10925e-14
2.21601e-14
-8.63318e-14
-1.12037e-14
-1.55621e-15
-2.2696e-12
-2.40526e-12
-2.71905e-13
-6.20709e-13
-1.30168e-13
-7.27424e-14
-2.25888e-13
-1.73083e-13
-7.10809e-14
-8.21073e-14
-6.05824e-14
-4.8937e-14
-4.15584e-14
2.41715e-15
1.17375e-15
-2.58191e-12
-2.34146e-12
-3.43215e-13
-6.24959e-13
-1.16862e-13
-1.31674e-13
-4.07147e-13
-1.69705e-13
-1.46345e-13
-1.07775e-13
-5.2671e-14
-1.0037e-13
-9.57872e-14
2.69069e-14
5.14877e-14
-2.3889e-12
-2.36988e-12
-4.1525e-13
-5.93e-13
-1.0972e-13
-7.56559e-14
-3.56379e-13
-1.26243e-13
-1.26137e-13
-1.79328e-13
-5.1318e-14
-2.2368e-14
-8.29608e-14
-7.31275e-15
6.70962e-14
-2.14022e-12
-2.37432e-12
-5.79479e-13
-5.44822e-13
-1.3202e-13
-6.61829e-14
-2.91117e-13
-8.73169e-14
-1.23697e-13
-1.59185e-13
-1.17045e-14
1.46136e-14
2.98723e-15
2.92656e-14
4.43566e-14
-1.92029e-12
-2.43792e-12
-8.30034e-13
-5.50886e-13
-2.03313e-13
-1.50556e-13
-2.61783e-13
-1.77748e-13
-1.66244e-13
-1.41901e-13
-4.19569e-14
-1.75928e-14
3.9238e-14
-4.18391e-14
-1.40266e-13
-1.65191e-12
-2.45472e-12
-1.04991e-12
-5.35085e-13
-2.4452e-13
-1.72855e-13
-2.80659e-13
-2.2507e-13
-1.95532e-13
-1.42782e-13
-8.80726e-14
-7.7017e-14
-2.21919e-14
2.52741e-15
-2.34159e-13
-1.41227e-12
-2.43612e-12
-1.24412e-12
-5.4499e-13
-2.65911e-13
-1.80085e-13
-2.88472e-13
-2.33127e-13
-2.17852e-13
-1.85447e-13
-1.04307e-13
-6.99438e-14
-4.96878e-14
-3.65907e-15
-5.21618e-14
-1.18926e-12
-2.38538e-12
-1.37892e-12
-6.26397e-13
-3.01214e-13
-1.42958e-13
-2.77383e-13
-2.5492e-13
-2.32499e-13
-2.07524e-13
-1.13805e-13
-2.01122e-14
2.79754e-14
-1.8441e-14
4.47806e-14
-9.76542e-13
-2.30424e-12
-1.4707e-12
-6.69373e-13
-3.00848e-13
-1.17224e-13
-2.46065e-13
-2.14586e-13
-1.59402e-13
-2.00451e-13
-1.21754e-13
-5.12243e-14
3.06614e-14
-7.33639e-15
5.28876e-14
-8.66615e-13
-2.23512e-12
-1.50202e-12
-7.01839e-13
-2.93506e-13
-1.21507e-13
-2.12233e-13
-1.97745e-13
-1.14595e-13
-1.92101e-13
-1.37477e-13
2.81061e-14
-1.99467e-14
1.15784e-13
9.17982e-14
-8.00588e-13
-2.17965e-12
-1.53154e-12
-7.37597e-13
-3.23331e-13
-1.18634e-13
-2.01103e-13
-2.53266e-13
-1.2792e-13
-1.64048e-13
-1.36218e-13
7.17632e-14
2.60822e-14
1.27037e-13
1.31656e-13
-7.50111e-13
-2.13258e-12
-1.56886e-12
-7.49982e-13
-3.41862e-13
-1.1336e-13
-1.94438e-13
-2.66031e-13
-1.17403e-13
-1.60225e-13
-1.34726e-13
5.36566e-14
1.28905e-14
1.13979e-13
1.16446e-13
-7.48524e-13
-2.06536e-12
-1.56499e-12
-7.61633e-13
-3.43505e-13
-1.27774e-13
-1.96827e-13
-2.45058e-13
-1.25258e-13
-1.5785e-13
-1.18331e-13
3.44177e-14
2.03149e-14
1.13285e-13
6.34195e-14
2.26265e-14
-5.7336e-13
2.58435e-13
1.18884e-13
-2.03468e-13
2.83109e-13
1.91199e-13
-8.69145e-14
5.36065e-14
-1.80806e-14
-2.83216e-14
7.33019e-14
1.51288e-14
-1.99259e-14
-1.13208e-15
2.11501e-12
2.27195e-12
9.10291e-14
7.203e-13
2.30302e-13
-7.3991e-14
3.86968e-13
1.82477e-13
3.95665e-14
1.51949e-13
7.10925e-14
-2.21601e-14
8.63318e-14
1.12037e-14
1.55621e-15
2.2696e-12
2.40526e-12
2.71905e-13
6.20709e-13
1.30168e-13
7.27424e-14
2.25888e-13
1.73083e-13
7.10809e-14
8.21073e-14
6.05824e-14
4.8937e-14
4.15584e-14
-2.41715e-15
-1.17375e-15
2.58191e-12
2.34146e-12
3.43215e-13
6.24959e-13
1.16862e-13
1.31674e-13
4.07147e-13
1.69705e-13
1.46345e-13
1.07775e-13
5.2671e-14
1.0037e-13
9.57872e-14
-2.69069e-14
-5.14877e-14
2.3889e-12
2.36988e-12
4.1525e-13
5.93e-13
1.0972e-13
7.56559e-14
3.56379e-13
1.26243e-13
1.26137e-13
1.79328e-13
5.1318e-14
2.2368e-14
8.29608e-14
7.31275e-15
-6.70962e-14
2.14022e-12
2.37432e-12
5.79479e-13
5.44822e-13
1.3202e-13
6.61829e-14
2.91117e-13
8.73169e-14
1.23697e-13
1.59185e-13
1.17045e-14
-1.46136e-14
-2.98723e-15
-2.92656e-14
-4.43566e-14
1.92029e-12
2.43792e-12
8.30034e-13
5.50886e-13
2.03313e-13
1.50556e-13
2.61783e-13
1.77748e-13
1.66244e-13
1.41901e-13
4.19569e-14
1.75928e-14
-3.9238e-14
4.18391e-14
1.40266e-13
1.65191e-12
2.45472e-12
1.04991e-12
5.35085e-13
2.4452e-13
1.72855e-13
2.80659e-13
2.2507e-13
1.95532e-13
1.42782e-13
8.80726e-14
7.7017e-14
2.21919e-14
-2.52741e-15
2.34159e-13
1.41227e-12
2.43612e-12
1.24412e-12
5.4499e-13
2.65911e-13
1.80085e-13
2.88472e-13
2.33127e-13
2.17852e-13
1.85447e-13
1.04307e-13
6.99438e-14
4.96878e-14
3.65907e-15
5.21618e-14
1.18926e-12
2.38538e-12
1.37892e-12
6.26397e-13
3.01214e-13
1.42958e-13
2.77383e-13
2.5492e-13
2.32499e-13
2.07524e-13
1.13805e-13
2.01122e-14
-2.79754e-14
1.8441e-14
-4.47806e-14
9.76542e-13
2.30424e-12
1.4707e-12
6.69373e-13
3.00848e-13
1.17224e-13
2.46065e-13
2.14586e-13
1.59402e-13
2.00451e-13
1.21754e-13
5.12243e-14
-3.06614e-14
7.33639e-15
-5.28876e-14
8.66615e-13
2.23512e-12
1.50202e-12
7.01839e-13
2.93506e-13
1.21507e-13
2.12233e-13
1.97745e-13
1.14595e-13
1.92101e-13
1.37477e-13
-2.81061e-14
1.99467e-14
-1.15784e-13
-9.17982e-14
8.00588e-13
2.17965e-12
1.53154e-12
7.37597e-13
3.23331e-13
1.18634e-13
2.01103e-13
2.53266e-13
1.2792e-13
1.64048e-13
1.36218e-13
-7.17632e-14
-2.60822e-14
-1.27037e-13
-1.31656e-13
7.50111e-13
2.13258e-12
1.56886e-12
7.49982e-13
3.41862e-13
1.1336e-13
1.94438e-13
2.66031e-13
1.17403e-13
1.60225e-13
1.34726e-13
-5.36566e-14
-1.28905e-14
-1.13979e-13
-1.16446e-13
7.48524e-13
2.06536e-12
1.56499e-12
7.61633e-13
3.43505e-13
1.27774e-13
1.96827e-13
2.45058e-13
1.25258e-13
1.5785e-13
1.18331e-13
-3.44177e-14
-2.03149e-14
-1.13285e-13
-6.34195e-14
)
;
    }
    inlet
    {
        type            calculated;
        value           nonuniform List<scalar> 
15
(
-1299.9
-1300.2
-1299.9
-1299.9
-1300.2
-1299.9
-1299.9
-1300.2
-1299.9
-1299.9
-1300.2
-1299.9
-1299.9
-1300.2
-1299.9
)
;
    }
    inletWalls
    {
        type            calculated;
        value           uniform 0;
    }
    outletInlet
    {
        type            calculated;
        value           nonuniform List<scalar> 
15
(
198.243
527.464
785.4
982.012
1128.54
1249.99
1367.12
1486.58
1606.74
1731.8
1879
2054.9
2138.1
1729.95
634.206
)
;
    }
}


// ************************************************************************* //
