/*--------------------------------*- C++ -*----------------------------------*\
| =========                 |                                                 |
| \\      /  F ield         | OpenFOAM: The Open Source CFD Toolbox           |
|  \\    /   O peration     | Version:  4.1                                   |
|   \\  /    A nd           | Web:      www.OpenFOAM.org                      |
|    \\/     M anipulation  |                                                 |
\*---------------------------------------------------------------------------*/
FoamFile
{
    version     2.0;
    format      ascii;
    class       volVectorField;
    location    "9";
    object      U;
}
// * * * * * * * * * * * * * * * * * * * * * * * * * * * * * * * * * * * * * //

dimensions      [0 1 -1 0 0 0 0];

internalField   nonuniform List<vector> 
225
(
(1.11878e-14 0.852193 15.7946)
(3.8605e-16 -4.89458 12.1215)
(-2.02078e-15 -4.19551 12.1321)
(4.22275e-17 -3.60118 11.9966)
(1.94953e-16 -3.00468 11.8778)
(4.27037e-16 -2.55319 11.6992)
(2.82001e-15 -2.20881 11.4769)
(1.42825e-16 -1.96603 11.2116)
(-3.84499e-16 -1.79855 10.916)
(6.57964e-16 -1.71238 10.5882)
(2.19964e-16 -1.83746 10.1561)
(4.97292e-17 -2.28567 9.53762)
(8.40231e-17 -2.51301 8.96378)
(-1.37943e-16 -1.06552 8.91357)
(-7.83721e-18 1.76574 7.4709)
(1.53314e-14 -5.35014 22.493)
(1.57301e-14 -14.6049 21.394)
(6.30176e-16 -13.2708 20.3412)
(7.04166e-15 -11.7697 19.5066)
(1.59452e-15 -11.1561 18.5044)
(-5.12225e-16 -10.6594 17.5174)
(2.78966e-15 -10.0901 16.5714)
(1.2634e-15 -9.525 15.6236)
(2.73911e-16 -8.96544 14.6638)
(1.03556e-15 -8.36731 13.6946)
(4.92216e-16 -7.75709 12.7179)
(-1.5341e-16 -7.30335 11.7194)
(5.96959e-16 -7.01705 10.6244)
(7.75697e-17 -5.73094 9.16116)
(1.07734e-17 -2.30499 4.58318)
(1.77577e-14 -7.71562 23.9801)
(1.66512e-14 -16.7731 24.6729)
(1.88256e-15 -13.7365 23.9372)
(9.23492e-15 -12.3062 22.6249)
(9.01131e-16 -11.6447 21.2414)
(5.0364e-16 -10.814 20.0013)
(2.70378e-15 -9.94025 18.7738)
(-7.16323e-16 -9.1001 17.5247)
(4.92137e-16 -8.28337 16.2654)
(1.16028e-15 -7.47523 15.0263)
(2.44265e-15 -6.66761 13.8176)
(3.38821e-16 -5.84165 12.4301)
(-4.37281e-16 -4.81389 10.2752)
(-1.67335e-17 -3.12625 6.68441)
(-8.12659e-18 -0.8321 1.68986)
(1.78672e-14 -8.50255 22.0462)
(1.62097e-14 -16.6211 24.332)
(2.37603e-15 -12.93 23.7971)
(4.32701e-15 -12.1536 21.9985)
(7.37815e-16 -11.4201 20.5028)
(1.17909e-15 -10.4936 19.1722)
(2.81896e-15 -9.63387 17.8167)
(1.09586e-15 -8.82359 16.459)
(1.04098e-15 -8.05363 15.123)
(7.31299e-16 -7.32377 13.8164)
(3.56503e-16 -6.55246 12.4394)
(6.76133e-16 -5.49087 10.583)
(6.38374e-16 -3.78523 7.50864)
(6.34961e-18 -1.49362 2.76597)
(-5.48399e-16 0.15331 -1.77303)
(1.63264e-14 -8.47609 19.748)
(1.60621e-14 -16.3601 24.312)
(2.69637e-15 -13.099 23.6602)
(3.91063e-15 -12.628 21.5365)
(4.486e-16 -11.8565 20.0248)
(3.03977e-16 -10.9574 18.6637)
(2.35027e-15 -10.1698 17.2587)
(1.74438e-15 -9.40277 15.8711)
(7.40892e-16 -8.65258 14.5236)
(1.17095e-15 -7.93051 13.2136)
(1.28051e-16 -7.16588 11.8292)
(8.32078e-16 -6.11614 9.99626)
(4.67985e-16 -4.424 7.15551)
(-3.07548e-16 -2.30525 3.28784)
(-8.3067e-16 -0.787163 0.317682)
(1.50406e-14 -8.02185 17.5536)
(1.6479e-14 -16.0195 24.5277)
(4.13916e-15 -13.6434 24.0462)
(3.35617e-15 -12.9943 21.7651)
(9.63084e-16 -12.1264 20.2158)
(1.08247e-15 -11.2247 18.847)
(2.01537e-15 -10.439 17.4341)
(6.63772e-16 -9.64889 16.0434)
(1.0477e-15 -8.86036 14.6933)
(1.10202e-15 -8.09326 13.3817)
(1.56507e-16 -7.29731 12.0171)
(1.57585e-16 -6.28459 10.2818)
(-1.30884e-16 -4.73301 7.72089)
(1.55005e-16 -2.75612 4.37244)
(1.71124e-15 -0.949374 1.29733)
(1.34283e-14 -7.33734 15.2534)
(1.70903e-14 -15.491 24.3551)
(5.83079e-15 -14.0226 24.4218)
(3.81416e-15 -13.1279 22.0676)
(1.45782e-15 -12.1448 20.4401)
(1.68857e-15 -11.2358 19.0547)
(1.8125e-15 -10.4361 17.6437)
(1.35603e-15 -9.61985 16.2576)
(1.35558e-15 -8.81017 14.9066)
(9.8248e-16 -8.02724 13.5919)
(4.55341e-16 -7.22396 12.2368)
(1.35351e-15 -6.24027 10.5488)
(-2.71671e-16 -4.78752 8.1075)
(-8.51729e-17 -2.91411 4.94713)
(2.24344e-15 -1.01084 1.79737)
(1.07591e-14 -6.55611 13.0328)
(1.69952e-14 -14.847 23.8163)
(7.22604e-15 -14.2639 24.6691)
(3.65774e-15 -13.2372 22.3215)
(1.69292e-15 -12.1674 20.5832)
(1.08823e-15 -11.2657 19.1667)
(1.41721e-15 -10.4651 17.7587)
(1.55827e-15 -9.64314 16.3766)
(1.216e-15 -8.83494 15.0246)
(3.11553e-16 -8.05529 13.7073)
(6.09768e-16 -7.255 12.3576)
(3.42914e-16 -6.2869 10.6996)
(1.35077e-15 -4.89101 8.33096)
(-1.74984e-17 -3.08522 5.26765)
(1.12438e-15 -1.12217 2.0439)
(9.77697e-15 -5.77817 11.1234)
(1.6865e-14 -14.1745 23.0905)
(8.48805e-15 -14.4413 24.8463)
(3.7729e-15 -13.3963 22.6148)
(1.84087e-15 -12.2528 20.7553)
(1.08553e-15 -11.3493 19.2955)
(1.99706e-15 -10.5477 17.8904)
(1.61391e-15 -9.72545 16.5109)
(6.92733e-16 -8.91946 15.1562)
(1.28383e-15 -8.14027 13.8352)
(7.22104e-16 -7.34 12.4864)
(1.13896e-15 -6.38021 10.8513)
(3.43983e-16 -5.02356 8.54677)
(2.53313e-17 -3.2658 5.55833)
(-2.63383e-16 -1.2375 2.24761)
(8.51464e-15 -5.08475 9.59889)
(1.65137e-14 -13.5191 22.3)
(9.50396e-15 -14.5349 24.9523)
(3.78825e-15 -13.5531 22.9353)
(2.08527e-15 -12.3448 20.9699)
(8.8201e-16 -11.4251 19.4566)
(1.8046e-15 -10.6174 18.0506)
(1.76478e-15 -9.79453 16.6721)
(1.54149e-15 -8.98834 15.3136)
(1.28804e-15 -8.2063 13.9874)
(7.87858e-16 -7.40483 12.6357)
(4.56241e-17 -6.45158 11.0133)
(6.18163e-16 -5.12536 8.75524)
(1.27665e-16 -3.40665 5.81966)
(-6.10192e-16 -1.3191 2.431)
(6.61039e-15 -4.5385 8.46196)
(1.62256e-14 -12.9255 21.5503)
(1.00314e-14 -14.535 24.9758)
(4.63385e-15 -13.6655 23.2211)
(2.58633e-15 -12.4129 21.1812)
(5.94112e-16 -11.4736 19.6121)
(1.70342e-15 -10.6591 18.2004)
(2.11841e-15 -9.83702 16.821)
(8.28461e-16 -9.03211 15.4586)
(7.11484e-16 -8.24861 14.127)
(9.25903e-16 -7.44652 12.7692)
(9.21263e-16 -6.49777 11.1499)
(-1.2598e-15 -5.19265 8.91856)
(-6.15303e-16 -3.50198 6.01072)
(-6.28968e-16 -1.36385 2.54274)
(5.99947e-15 -4.17027 7.70255)
(1.54993e-14 -12.4377 20.9277)
(1.05523e-14 -14.4734 24.9366)
(4.85875e-15 -13.7316 23.4379)
(2.31137e-15 -12.4592 21.3594)
(7.86303e-16 -11.5039 19.7406)
(1.46926e-15 -10.6832 18.3207)
(1.46488e-15 -9.86355 16.9392)
(1.07136e-15 -9.06114 15.573)
(1.32989e-15 -8.27759 14.2364)
(9.51735e-16 -7.47487 12.871)
(1.38829e-16 -6.52678 11.2466)
(1.9658e-16 -5.23302 9.02654)
(-8.84568e-16 -3.55802 6.12625)
(-1.2988e-15 -1.3773 2.57272)
(5.2746e-15 -3.97325 7.27947)
(1.50625e-14 -12.0682 20.4612)
(1.06249e-14 -14.3844 24.8627)
(5.07174e-15 -13.7599 23.5829)
(2.23838e-15 -12.4875 21.4971)
(8.21291e-16 -11.5229 19.8407)
(1.36247e-15 -10.6965 18.4121)
(1.85017e-15 -9.87989 17.028)
(8.50535e-16 -9.08049 15.6585)
(1.13581e-15 -8.29718 14.3171)
(9.85191e-16 -7.49312 12.9422)
(-5.44756e-16 -6.54212 11.3062)
(-1.80584e-16 -5.25097 9.08445)
(-7.96951e-16 -3.5788 6.17545)
(-1.05944e-15 -1.36511 2.53869)
(5.21452e-15 -3.9036 7.11008)
(1.4751e-14 -11.8314 20.1819)
(1.0838e-14 -14.2999 24.7903)
(5.18006e-15 -13.7667 23.6687)
(2.35394e-15 -12.5019 21.59)
(7.84753e-16 -11.532 19.9096)
(1.36111e-15 -10.7003 18.4746)
(1.82557e-15 -9.88549 17.0884)
(8.12742e-16 -9.08795 15.7174)
(1.1284e-15 -8.30411 14.373)
(9.11716e-16 -7.49788 12.9907)
(-3.71447e-16 -6.54321 11.3435)
(-6.02091e-17 -5.25343 9.11729)
(-8.29983e-16 -3.58356 6.20145)
(-8.06115e-16 -1.34993 2.50605)
(5.16712e-15 -4.03945 7.28681)
(1.42912e-14 -11.6271 19.9523)
(1.08412e-14 -14.1917 24.6682)
(5.27269e-15 -13.7463 23.7082)
(2.37153e-15 -12.5065 21.6736)
(8.91697e-16 -11.5392 19.9772)
(1.36261e-15 -10.6995 18.535)
(1.68841e-15 -9.88692 17.1437)
(8.75976e-16 -9.09048 15.7694)
(1.09278e-15 -8.30492 14.4183)
(8.14001e-16 -7.48988 13.0147)
(-2.32411e-16 -6.51523 11.328)
(-1.40638e-16 -5.20584 9.06101)
(-7.94435e-16 -3.50147 6.08252)
(-4.19967e-16 -1.2523 2.30691)
)
;

boundaryField
{
    inletFace
    {
        type            zeroGradient;
    }
    inlet
    {
        type            fixedValue;
        value           uniform (0 8.7 15);
    }
    inletWalls
    {
        type            noSlip;
    }
    outletInlet
    {
        type            zeroGradient;
    }
}


// ************************************************************************* //
