/*--------------------------------*- C++ -*----------------------------------*\
| =========                 |                                                 |
| \\      /  F ield         | OpenFOAM: The Open Source CFD Toolbox           |
|  \\    /   O peration     | Version:  4.1                                   |
|   \\  /    A nd           | Web:      www.OpenFOAM.org                      |
|    \\/     M anipulation  |                                                 |
\*---------------------------------------------------------------------------*/
FoamFile
{
    version     2.0;
    format      ascii;
    class       surfaceScalarField;
    location    "21";
    object      phi;
}
// * * * * * * * * * * * * * * * * * * * * * * * * * * * * * * * * * * * * * //

dimensions      [0 3 -1 0 0 0 0];

internalField   nonuniform List<scalar> 
13220
(
-906.851
2206.74
-1504.67
1898.01
-1985.13
1780.36
-2354.96
1669.71
-2630.29
1575.53
-2818.73
1488.33
-2923.54
1404.7
-2944.52
1321.17
-2880.34
1235.72
-2727.9
1147.45
-2482.52
1054.82
-2127.51
944.891
-1626.95
799.332
-956.075
629.315
343.825
423.545
1783.17
466.621
1854.91
450.419
1796.53
410.962
1709.14
378.508
1607.95
352.378
1514.43
333.11
1423.94
321.401
1332.85
313.966
1243.12
304.648
1156.74
285.315
1074.13
242.204
987.959
165.725
875.764
88.458
706.531
432.281
181.139
1602.01
20.9748
2015.04
-140.034
1957.51
-258.645
1827.72
-362.916
1712.19
-459.969
1611.45
-547.07
1511
-624.611
1410.35
-690.776
1309.25
-743.127
1209.04
-777.343
1108.3
-774.735
985.27
-684.843
785.767
-432.802
454.359
-0.522228
215.925
1386.06
135.98
2094.96
1.93388
2091.52
-93.4801
1923.1
-169.606
1788.28
-229.652
1671.45
-269.542
1550.85
-289.49
1430.26
-291.488
1311.2
-276.013
1193.52
-241.838
1074.09
-184.194
927.587
-101.226
702.745
-9.8256
362.888
-10.3492
282.584
1103.45
349.151
2028.37
326.216
2114.44
305.713
1943.57
296.276
1797.69
292.734
1674.97
292.794
1550.77
296.775
1426.26
303.456
1304.5
310.902
1186.05
318.518
1066.47
320.464
925.565
297.101
726.027
215.814
444.085
205.465
248.952
854.486
359.398
1917.91
370.354
2103.46
351.032
1962.88
335.902
1812.81
324.914
1685.94
313.528
1562.15
299.443
1440.33
283.577
1320.36
265.921
1203.71
245.052
1087.33
219.165
951.527
177.889
767.384
109.203
512.853
314.668
131.225
723.248
214.447
1834.68
239.194
2078.71
216.815
1985.25
193.423
1836.2
173.709
1705.66
155.125
1580.73
137.037
1458.43
119.147
1338.25
102.836
1220.02
88.1932
1101.99
75.4196
964.221
61.3637
781.366
44.5637
529.583
359.233
35.8864
687.361
85.763
1784.8
125.734
2038.74
115.566
1995.42
100.26
1851.52
88.4394
1717.48
76.6977
1592.49
65.8959
1469.23
56.3979
1347.77
47.2989
1229.14
39.5026
1109.79
35.9165
967.917
32.7258
784.664
28.5716
533.838
387.803
11.6092
675.75
49.592
1746.82
93.8922
1994.44
93.9798
1995.33
84.6644
1860.83
76.893
1725.25
69.7932
1599.58
62.1588
1476.87
55.0612
1354.86
48.3502
1235.84
41.3977
1116.75
38.9715
970.246
37.4876
786.059
29.0027
542.241
416.807
26.1114
649.654
67.0721
1705.87
105.454
1956.07
106.438
1994.35
96.9308
1870.35
86.5415
1735.65
77.2718
1608.86
68.7935
1485.35
59.9573
1363.71
51.8143
1244.01
44.3661
1124.2
41.5175
973.211
39.8282
787.862
28.9906
553.185
445.798
35.5008
614.183
74.0128
1667.38
106.06
1924.05
106.634
1993.81
97.018
1879.99
86.4006
1746.3
75.6847
1619.61
65.9869
1495.09
56.8828
1372.85
47.7551
1253.17
40.3242
1131.68
39.1744
974.344
38.3142
788.724
26.5883
564.915
472.387
0.273113
613.952
13.6525
1654.03
29.5274
1908.21
22.1263
2001.25
9.0686
1893.09
-3.65727
1759.07
-13.1679
1629.17
-20.8585
1502.82
-25.6379
1377.68
-27.4594
1255.04
-26.3256
1130.58
-14.7845
962.925
1.28445
772.774
8.62068
557.688
481.008
-41.1483
655.14
-35.2868
1648.2
-31.8213
1904.77
-32.3635
2001.82
-37.3765
1898.13
-47.2541
1768.97
-56.8359
1638.78
-64.1772
1510.19
-70.8331
1384.36
-73.5356
1257.77
-63.6735
1120.74
-41.092
940.357
-16.4014
748.107
-12.9421
554.252
468.066
-336.435
991.599
-547.183
1858.97
-680.679
2038.28
-755.248
2076.4
-789.641
1932.54
-805.326
1784.67
-804.913
1638.38
-789.464
1494.75
-751.519
1346.43
-680.185
1186.45
-550.017
990.583
-380.664
771.034
-198.938
566.41
-64.6219
419.963
403.444
-513.805
-594.361
-721.498
-808.401
-930.352
-1038.62
-1127.5
-1176.16
-1186.47
-1116.95
-1012.07
-850.596
-637.834
-398.014
-0.000275099
970.314
-970.315
970.314
970.314
970.313
1371.87
-401.561
1371.87
1371.87
1371.87
1407.74
-35.8702
1407.74
1407.74
1319.22
88.5186
1319.22
1319.22
1319.22
1150.98
168.236
1150.98
1150.98
1017.24
133.739
1017.24
1017.24
1017.24
965.166
52.0761
965.165
965.165
965.165
999.207
-34.0428
999.206
999.206
1102.43
-103.221
1102.43
1102.43
1102.43
1240.62
-138.194
1240.62
1240.62
1391.85
-151.228
1391.85
1391.85
1391.85
1535.96
-144.119
1535.96
1535.96
1535.96
1655.76
-119.797
1655.76
1655.76
1733.65
-77.8896
1733.65
1733.65
1733.65
1758.77
-25.1173
1758.77
1758.77
1758.76
1721.57
37.1898
1721.57
1721.57
1618.89
102.685
1618.89
1618.89
1618.89
1447.39
171.501
1447.39
1447.38
1209.86
237.526
1209.86
1209.86
1209.86
904.409
305.447
904.407
904.406
904.404
509.22
395.185
509.216
509.219
-138.234
647.45
-138.229
-138.232
-145.653
-142.775
-150.308
-1326.7
1166
-1299.78
-1273.67
-1242.52
-1210.22
-1177.53
-1141.81
-1093
-1035.25
-2642.73
1657.53
-2562.82
-2485.68
-2407.73
-2300.49
-2191.05
-2077.9
-1957.35
-1835.44
-3903.11
2204.69
-3736.1
-3568.27
-3398.92
-3227.63
-3044.62
-2841.85
-2635.48
-2421.24
-2203.78
-4772.25
2781.13
-4523.44
-4271.87
-4017.46
-3761.32
-3503.8
-3230.14
-2942.12
-2649.35
-5561.87
3198.64
-5267.35
-4963.35
-4644.84
-4322.71
-3998.39
-3672.52
-3339.99
-2984.28
-6084.39
3450.67
-5731.99
-5376.61
-5019.36
-4645.62
-4263.39
-3879.63
-3492.49
-3102.39
-6165.7
3459.48
-5765.18
-5360.36
-4954.68
-4548.64
-4142.94
-3731.73
-3321.69
-2915.55
-2512.77
-4809.29
2702.61
-4434.42
-4060.1
-3692.92
-3329.92
-2971.19
-2638.65
-2353.12
-2067.53
-2776.01
1022.83
-2529.53
-2290.02
-2290.02
-2655.88
365.865
-2643.88
-12.0084
-2643.88
-2325.48
-318.392
-2325.48
-2038.07
-287.416
-1892.31
-145.758
-1892.31
-1819.62
-72.6941
-1765.14
-54.4755
-1765.14
-1730.32
-34.8254
-1730.32
-1724.26
-6.06271
-1718.51
-5.74309
-1718.51
-1730.47
11.9529
-1730.47
-1771.63
41.1582
-1814.05
42.4256
-1814.05
-1887.22
73.167
-1951.18
63.9613
-1951.18
-2027.54
76.3584
-2027.54
-2122.92
95.3834
-2197.34
74.4135
-2197.34
-2279.09
81.7555
-2279.09
-2372.74
93.6515
-2440.36
67.6135
-2440.36
-2522.56
82.2013
-2576.76
54.2068
-2576.76
-2635.71
58.9437
-2635.71
-2698.22
62.5147
-2733.6
35.3809
-2733.6
-2765.71
32.1039
-2765.71
-2790.13
24.4258
-2797.25
7.11959
-2797.25
-2788.07
-9.18206
-2769.81
-18.2578
-2769.81
-2728.97
-40.8385
-2728.97
-2661.6
-67.3717
-2592.41
-69.1936
-2592.41
-2498.17
-94.2401
-2498.17
-2385.4
-112.772
-2262.47
-122.921
-2262.47
-2122.52
-139.957
-1942.04
-180.473
-1942.04
-1743.69
-198.356
-1743.69
-1516.27
-227.418
-1242.11
-274.162
-1242.11
-895.746
-346.363
-895.746
-438.895
-456.85
247.761
-686.656
247.761
979.574
-731.813
1859.59
-880.02
1859.59
2792.75
-933.156
2792.75
-990.43
-1760.99
121.63
-1765.38
126.107
-1769.02
134.773
-1773.01
143.926
-1777.14
156.085
-1781.55
171.104
-1786.26
189.513
-1791.36
211.748
-1796.91
238.341
-1803
269.909
-1809.71
307.163
-1817.14
350.95
-1825.4
402.224
-1834.62
462.184
-1844.93
532.13
-1856.46
613.639
-1869.38
708.483
-1883.81
818.674
-1899.93
946.518
-1917.86
1094.59
-1937.7
1265.77
-1959.52
1463.29
-1983.3
1690.48
-2008.93
1950.89
-2036.19
2248.07
-2064.68
2585.39
-2093.87
2965.83
-2123.03
3391.59
-2151.4
3863.81
-2178.23
4382.31
-2203.1
4945.59
-2226.29
5551.38
-2249.19
6197.93
-2274.76
6886.35
-2307.67
7623.55
-2353.91
8424.75
-2419.7
9313.59
-2509.69
10317.6
-2624.99
11458
-2761.81
12736.3
-2911.18
14120.1
-3059.72
15533.3
-3191.17
16850.3
-3288.22
17895.9
-3335.37
18451.9
-3323.71
18264.1
-3225.09
16945.7
-2837.03
13490.3
-1869.71
6614.39
-1210.29
1902.56
-1427.62
4485.75
-1709.39
5367.88
-1733.83
5478.78
-1872.69
4841.12
-2187.05
4521.44
-2468.15
4666.54
-2599.93
4507.2
-2640.76
3812.47
-2660.55
2780.78
-2670
1664.88
-2658.39
570.213
-2591.42
-880.667
-2469.02
-2237.42
-2293.99
-3376
-2075.68
-4293.35
-1822.23
-4943.51
-1542.67
-5294.72
-1245.18
-5303.88
-936.733
-4933.07
-635.493
-4225.48
-381.014
-3330.06
-231.291
-2409.22
-22.3499
-1329.17
465.5
-891.037
914.77
-298.024
1091.87
809.204
1122.73
1148.88
1135.68
969.245
823.783
-1783.74
125.267
-1788.1
130.462
-1791.91
138.582
-1795.97
147.992
-1800.17
160.289
-1804.63
175.56
-1809.38
194.266
-1814.5
216.865
-1820.05
243.891
-1826.11
275.967
-1832.77
313.821
-1840.12
358.303
-1848.26
410.366
-1857.33
471.249
-1867.43
542.232
-1878.7
624.909
-1891.27
721.054
-1905.28
832.688
-1920.87
962.106
-1938.16
1111.89
-1957.24
1284.85
-1978.14
1484.2
-2000.85
1713.19
-2025.25
1975.29
-2051.1
2273.92
-2078.03
2612.33
-2105.53
2993.33
-2132.95
3419.01
-2159.6
3890.46
-2184.89
4407.59
-2208.58
4969.28
-2231.17
5573.97
-2254.3
6221.07
-2281.16
6913.21
-2316.55
7658.94
-2366.46
8474.65
-2436.85
9383.98
-2531.87
10412.6
-2652.03
11578.2
-2792.89
12877.1
-2944.88
14272.1
-3094.1
15682.5
-3223.68
16979.9
-3315.82
17988
-3355.75
18491.9
-3328.77
18237.1
-3149.59
16766.6
-2534.54
12875.3
-1521.68
5601.53
-1348.56
1729.44
-1520.31
4657.49
-1716.07
5563.65
-1735.1
5497.82
-1897.93
5003.94
-2239.85
4863.36
-2516.12
4942.81
-2646.71
4637.79
-2723.35
3889.11
-2813.47
2870.89
-2887.88
1739.3
-2896.71
579.038
-2823.94
-953.441
-2702.36
-2359
-2523.98
-3554.38
-2294.83
-4522.5
-2022.71
-5215.63
-1717.67
-5599.77
-1390.35
-5631.19
-1050.24
-5273.19
-716.305
-4559.41
-426.908
-3619.45
-228.356
-2607.77
-28.0539
-1529.47
268.898
-1187.99
612.79
-641.916
920.24
501.755
1050.79
1018.33
1050.11
969.931
940.734
-1813.97
129.052
-1818.34
134.824
-1822.24
142.484
-1826.34
152.094
-1830.57
164.515
-1835.02
180.016
-1839.76
198.999
-1844.83
221.935
-1850.3
249.365
-1856.25
281.917
-1862.77
320.339
-1869.94
365.476
-1877.87
418.293
-1886.66
480.042
-1896.43
552.002
-1907.29
635.771
-1919.37
733.136
-1932.8
846.115
-1947.69
976.994
-1964.15
1128.34
-1982.24
1302.94
-2001.99
1503.94
-2023.35
1734.55
-2046.2
1998.13
-2070.29
2298.01
-2095.28
2637.31
-2120.66
3018.71
-2145.86
3444.22
-2170.3
3914.9
-2193.55
4430.84
-2215.6
4991.33
-2237.2
5595.57
-2260.31
6244.17
-2288.33
6941.24
-2326.21
7696.82
-2379.83
8528.27
-2454.77
9458.92
-2554.59
10512.4
-2679.04
11702.6
-2823.02
13021.1
-2976.43
14425.5
-3124.97
15831
-3251.47
17106.4
-3338.43
18075
-3371.98
18525.4
-3326.71
18191.9
-3061.02
16500.9
-2260.19
12074.4
-1270.81
4612.15
-1357.67
1816.31
-1596.36
4896.18
-1730.08
5697.36
-1768.58
5536.31
-1983.37
5218.73
-2326.85
5206.85
-2583.4
5199.36
-2733.06
4787.45
-2855.65
4011.71
-2964.59
2979.83
-3019.77
1794.48
-3006.73
565.992
-2934.46
-1025.71
-2818.85
-2474.6
-2648.03
-3725.2
-2423.37
-4747.16
-2149.79
-5489.21
-1836.21
-5913.34
-1493.49
-5973.92
-1131.38
-5635.29
-772.146
-4918.65
-453.647
-3937.95
-220.892
-2840.53
-33.453
-1716.91
94.6089
-1316.05
334.98
-882.287
694.03
142.704
905.847
806.512
950.508
925.27
1011.22
-1846.85
132.905
-1851.1
139.073
-1854.98
146.368
-1859.03
156.137
-1863.2
168.683
-1867.58
184.403
-1872.24
203.656
-1877.22
226.92
-1882.6
254.74
-1888.44
287.754
-1894.81
326.709
-1901.78
372.451
-1909.47
425.983
-1917.96
488.532
-1927.36
561.405
-1937.78
646.186
-1949.32
744.678
-1962.1
858.891
-1976.21
991.104
-1991.73
1143.87
-2008.73
1319.94
-2027.21
1522.42
-2047.1
1754.45
-2068.27
2019.31
-2090.48
2320.23
-2113.39
2660.22
-2136.54
3041.87
-2159.44
3467.11
-2181.62
3937.08
-2202.83
4452.05
-2223.29
5011.79
-2244.04
5616.33
-2267.32
6267.44
-2296.77
6970.69
-2337.42
7737.47
-2394.98
8585.83
-2474.6
9538.55
-2579.17
10617
-2707.68
11831.1
-2854.31
13167.7
-3008.44
14579.6
-3155.35
15977.9
-3277.69
17228.7
-3358.63
18155.9
-3384.2
18551
-3310.41
18118.1
-2939.93
16130.4
-1995.1
11129.6
-1145.92
3762.97
-1412.57
2082.95
-1652.07
5135.68
-1741.49
5786.78
-1817.09
5611.92
-2079.82
5481.46
-2423.26
5550.3
-2674.87
5450.96
-2847.47
4960.05
-2986.92
4151.16
-3085.79
3078.7
-3126.89
1835.58
-3107.05
546.153
-3041.75
-1091.01
-2936.72
-2579.63
-2777.76
-3884.15
-2561.11
-4963.81
-2288.44
-5761.88
-1968.12
-6233.66
-1611.72
-6330.32
-1231.59
-6015.42
-852.508
-5297.73
-509.014
-4281.45
-238.746
-3110.8
-22.8532
-1932.81
63.7566
-1402.66
214.237
-1032.77
491.109
-134.168
733.153
564.469
827.732
830.691
1107.14
-1881.51
136.786
-1885.55
143.107
-1889.3
150.116
-1893.17
160.016
-1897.18
172.69
-1901.4
188.621
-1905.88
208.137
-1910.69
231.725
-1915.87
259.925
-1921.5
293.387
-1927.64
332.844
-1934.34
379.157
-1941.73
433.366
-1949.86
496.664
-1958.84
570.387
-1968.76
656.109
-1979.72
755.637
-1991.81
870.973
-2005.1
1004.39
-2019.65
1158.43
-2035.51
1335.8
-2052.67
1539.57
-2071.04
1772.82
-2090.48
2038.75
-2110.76
2340.5
-2131.55
2681.01
-2152.46
3062.77
-2173.06
3487.71
-2193.03
3957.04
-2212.3
4471.32
-2231.33
5030.83
-2251.46
5636.45
-2275.17
6291.16
-2306.35
7001.87
-2350.02
7781.14
-2411.71
8647.51
-2496.06
9622.9
-2605.25
10726.2
-2737.51
11963.4
-2886.33
13316.6
-3040.52
14733.8
-3184.96
16122.4
-3302.28
17346
-3376.63
18230.3
-3391.57
18565.9
-3277.29
18003.8
-2793.15
15646.3
-1758.1
10094.6
-1091.85
3096.72
-1479.1
2470.2
-1688.38
5344.97
-1754.57
5852.97
-1881.03
5738.38
-2187.51
5787.93
-2530.99
5893.79
-2781.71
5701.68
-2962.58
5140.91
-3094.61
4283.19
-3173.47
3157.57
-3198.6
1860.7
-3169.69
517.245
-3113.27
-1147.44
-3024.41
-2668.48
-2884.7
-4023.87
-2684.1
-5164.42
-2419.51
-6026.47
-2097.47
-6555.7
-1730.26
-6697.52
-1334.24
-6411.44
-935.906
-5696.06
-570.299
-4647.05
-274.461
-3406.64
-36.3612
-2170.91
52.5779
-1491.6
129.503
-1109.69
314.42
-319.085
549.53
329.36
690.945
689.276
1111.43
-1917.7
140.6
-1921.47
146.875
-1925.01
153.651
-1928.66
163.667
-1932.43
176.466
-1936.41
192.599
-1940.64
212.365
-1945.17
236.258
-1950.07
264.82
-1955.38
298.701
-1961.17
338.635
-1967.51
385.498
-1974.49
440.341
-1982.16
504.342
-1990.63
578.853
-1999.97
665.449
-2010.26
765.925
-2021.57
882.283
-2033.97
1016.79
-2047.49
1171.95
-2062.16
1350.47
-2077.94
1555.35
-2094.75
1789.63
-2112.43
2056.43
-2130.76
2358.83
-2149.43
2699.68
-2168.1
3081.44
-2186.46
3506.07
-2204.31
3974.9
-2221.79
4488.8
-2239.6
5048.64
-2259.35
5656.2
-2283.8
6315.6
-2316.97
7035.04
-2363.9
7828.07
-2429.82
8713.43
-2518.85
9711.93
-2632.44
10839.8
-2768.07
12099
-2918.55
13467
-3072.14
14887.4
-3213.34
16263.6
-3325.05
17457.7
-3392.34
18297.5
-3393.08
18566.7
-3226.99
17837.7
-2630.18
15049.5
-1556.36
9020.73
-1079.43
2619.79
-1535.25
2926.02
-1707.2
5516.92
-1775.7
5921.47
-1963.5
5926.18
-2306.99
6131.42
-2644.86
6231.66
-2888.26
5945.08
-3060.38
5313.04
-3169.89
4392.69
-3222.91
3210.59
-3229.96
1867.75
-3192.29
479.57
-3147.78
-1191.95
-3080.51
-2735.75
-2967.2
-4137.17
-2790.78
-5340.83
-2542.42
-6274.84
-2225.62
-6872.5
-1852.42
-7070.72
-1442.14
-6821.72
-1023.58
-6114.63
-635.917
-5034.71
-317.162
-3725.39
-62.3057
-2425.76
53.1773
-1607.08
115.968
-1172.48
236.497
-439.614
391.809
174.048
540.35
540.736
1194.93
-1954.99
144.187
-1958.45
150.334
-1961.72
156.922
-1965.1
167.042
-1968.6
179.964
-1972.28
196.285
-1976.2
216.286
-1980.41
240.466
-1984.96
269.366
-1989.9
303.638
-1995.29
344.024
-2001.2
391.407
-2007.69
446.835
-2014.84
511.488
-2022.71
586.723
-2031.37
674.118
-2040.9
775.454
-2051.35
892.732
-2062.77
1028.21
-2075.18
1184.36
-2088.59
1363.87
-2102.93
1569.7
-2118.12
1804.82
-2134
2072.31
-2150.35
2375.18
-2166.91
2716.23
-2183.39
3097.92
-2199.58
3522.26
-2215.44
3990.76
-2231.3
4504.66
-2248.12
5065.46
-2267.77
5675.85
-2293.23
6341.07
-2328.67
7070.48
-2379.03
7878.43
-2449.23
8783.63
-2542.83
9805.53
-2660.55
10957.5
-2799.12
12237.6
-2950.71
13618.6
-3103.04
15039.7
-3240.33
16400.9
-3346.02
17563.4
-3405.64
18357.2
-3387.62
18548.6
-3159.92
17610
-2458.2
14347.7
-1388.58
7951.11
-1097.25
2328.46
-1571.94
3400.71
-1715.55
5660.53
-1811.97
6017.89
-2064.94
6179.15
-2432.69
6499.17
-2755.52
6554.49
-2981.84
6171.39
-3130.55
5461.75
-3206.55
4468.7
-3228.26
3232.3
-3214.66
1854.15
-3169.02
433.933
-3139.09
-1221.88
-3098.38
-2776.45
-3018.48
-4217.08
-2874.78
-5484.53
-2651.81
-6497.81
-2348.49
-7175.83
-1975.45
-7443.76
-1554.28
-7242.89
-1116.43
-6552.48
-705.761
-5445.38
-363.476
-4067.67
-95.9491
-2693.29
47.0692
-1750.1
105.522
-1230.94
185.02
-519.111
270.676
88.392
416.776
394.636
1265.34
-1992.99
147.39
-1996.1
153.443
-1999.07
159.889
-2002.13
170.106
-2005.31
183.145
-2008.67
199.644
-2012.25
219.867
-2016.1
244.317
-2020.27
273.534
-2024.8
308.172
-2029.76
348.978
-2035.19
396.843
-2041.16
452.805
-2047.73
518.051
-2054.95
593.943
-2062.88
682.054
-2071.59
784.159
-2081.11
902.25
-2091.47
1038.58
-2102.7
1195.58
-2114.76
1375.94
-2127.61
1582.55
-2141.13
1818.34
-2155.18
2086.35
-2169.54
2389.54
-2184
2730.69
-2198.34
3112.27
-2212.46
3536.38
-2226.48
4004.77
-2240.93
4519.11
-2257
5081.54
-2276.83
5695.67
-2303.59
6367.83
-2341.52
7108.41
-2395.45
7932.37
-2469.94
8858.12
-2567.94
9903.53
-2689.48
11079.1
-2830.56
12378.7
-2982.7
13770.8
-3133.12
15190.1
-3265.93
16533.7
-3365.35
17662.9
-3416.33
18408.1
-3374.06
18506.4
-3076.7
17312.6
-2281.55
13552.6
-1251.48
6921.05
-1135.55
2212.53
-1589.96
3855.12
-1723.18
5793.75
-1868.33
6163.04
-2181.01
6491.82
-2556.14
6874.31
-2854.57
6852.92
-3053.68
6370.5
-3165.82
5573.9
-3199.39
4502.26
-3185.5
3218.42
-3149.64
1818.28
-3097.95
382.245
-3084.41
-1235.42
-3074.12
-2786.74
-3033.67
-4257.53
-2931.02
-5587.18
-2743.11
-6685.73
-2462.48
-7456.46
-2097.07
-7809.16
-1669.7
-7670.27
-1214.79
-7007.38
-781.409
-5878.76
-415.887
-4433.2
-135.57
-2973.61
31.0406
-1916.71
107.734
-1307.63
191.501
-602.878
230.794
49.1003
314.612
310.818
1305.79
-2031.4
150.101
-2034.13
156.174
-2036.77
162.527
-2039.5
172.834
-2042.34
185.985
-2045.35
202.651
-2048.56
223.083
-2052.03
247.784
-2055.79
277.296
-2059.89
312.272
-2064.38
353.465
-2069.3
401.766
-2074.71
458.213
-2080.65
523.993
-2087.18
600.47
-2094.34
689.215
-2102.17
791.993
-2110.71
910.788
-2119.98
1047.85
-2129.96
1205.56
-2140.64
1386.62
-2151.94
1593.85
-2163.76
1830.16
-2175.95
2098.54
-2188.33
2401.92
-2200.73
2743.09
-2213.01
3124.55
-2225.18
3548.55
-2237.52
4017.11
-2250.77
4532.36
-2266.37
5097.14
-2286.65
5715.95
-2314.98
6396.16
-2355.61
7149.04
-2413.22
7989.97
-2491.94
8936.84
-2594.16
10005.7
-2719.17
11204.1
-2862.29
12521.8
-3014.43
13922.9
-3162.34
15338
-3290.21
16661.6
-3383.13
17755.8
-3423.93
18448.9
-3351.19
18433.6
-2977.9
16939.3
-2102.91
12677.6
-1143.19
5961.33
-1182.81
2252.16
-1596.69
4268.99
-1739.7
5936.76
-1945.52
6368.87
-2303.87
6850.16
-2669.69
7240.13
-2935.6
7118.82
-3096.88
6531.79
-3160.7
5637.71
-3145.36
4486.92
-3093.66
3166.71
-3035.35
1759.98
-2980.4
327.29
-2983.87
-1231.95
-3005.87
-2764.73
-3009.07
-4254.33
-2954.7
-5641.55
-2811.27
-6829.16
-2563.31
-7704.41
-2214.43
-8158.04
-1787.04
-8097.65
-1318.25
-7476.17
-862.166
-6334.85
-471.913
-4823.45
-175.93
-3269.59
9.29207
-2101.93
107.746
-1406.08
214.939
-710.071
252.591
11.448
236.232
327.178
1314.61
-2069.98
152.278
-2072.32
158.513
-2074.61
164.825
-2076.99
175.213
-2079.48
188.47
-2082.12
205.29
-2084.95
225.914
-2088.01
250.847
-2091.34
280.629
-2094.98
315.913
-2098.97
357.456
-2103.35
406.148
-2108.17
463.026
-2113.45
529.278
-2119.25
606.269
-2125.6
695.563
-2132.53
798.918
-2140.05
918.31
-2148.17
1055.97
-2156.88
1214.27
-2166.14
1395.88
-2175.87
1603.58
-2185.98
1840.27
-2196.31
2108.88
-2206.74
2412.35
-2217.14
2753.48
-2227.45
3134.87
-2237.82
3558.91
-2248.67
4027.96
-2260.96
4544.65
-2276.34
5112.52
-2297.36
5736.97
-2327.5
6426.3
-2371.01
7192.55
-2432.35
8051.31
-2515.23
9019.72
-2621.42
10111.9
-2749.53
11332.2
-2894.22
12666.5
-3045.79
14074.5
-3190.62
15482.9
-3313.2
16784.1
-3399.35
17841.9
-3427.76
18477.4
-3317.85
18323.7
-2864.23
16485.7
-1924.69
11738
-1062.52
5099.16
-1228.92
2418.56
-1601.2
4641.27
-1771.75
6107.31
-2039.76
6636.88
-2425.06
7235.46
-2767.77
7582.84
-2993.45
7344.5
-3105.71
6644.04
-3111.79
5643.8
-3044.65
4419.78
-2955.92
3077.99
-2877.35
1681.4
-2822.6
272.547
-2842.13
-1212.42
-2895.32
-2711.54
-2943.3
-4206.35
-2942.14
-5642.71
-2851.6
-6919.7
-2646.62
-7909.39
-2324.16
-8480.51
-1904.11
-8517.7
-1425.8
-7954.49
-948.298
-6812.35
-532.654
-5239.09
-218.462
-3583.78
-18.0792
-2302.32
97.4595
-1521.62
187.492
-800.103
219.611
-20.6703
192.193
354.597
1308.45
-2108.45
153.951
-2110.4
160.456
-2112.35
166.776
-2114.37
177.235
-2116.49
190.592
-2118.76
207.552
-2121.19
228.351
-2123.84
253.493
-2126.73
283.517
-2129.89
319.077
-2133.36
360.93
-2137.18
409.966
-2141.38
467.222
-2145.98
533.883
-2151.03
611.314
-2156.54
701.071
-2162.53
804.906
-2169
924.789
-2175.97
1062.93
-2183.38
1221.68
-2191.2
1403.7
-2199.36
1611.74
-2207.75
1848.66
-2216.26
2117.39
-2224.79
2420.88
-2233.26
2761.96
-2241.73
3143.33
-2250.45
3567.63
-2260.03
4037.54
-2271.61
4556.23
-2287.05
5127.96
-2309.07
5758.99
-2341.25
6458.48
-2387.78
7239.08
-2452.87
8116.4
-2539.77
9106.63
-2649.66
10221.8
-2780.48
11463
-2926.24
12812.2
-3076.67
14224.9
-3217.9
15624.1
-3334.92
16901.2
-3413.85
17920.9
-3426.96
18490.5
-3272.96
18169.7
-2736.73
15949.5
-1749.74
10751.1
-1007.24
4356.65
-1268.78
2680.1
-1611.09
4983.58
-1821.57
6317.79
-2144.35
6959.66
-2537.49
7628.6
-2846.29
7891.64
-3023.44
7521.66
-3075.88
6696.49
-3018.71
5586.62
-2901.62
4302.7
-2780.97
2957.33
-2687.48
1587.92
-2636.87
221.933
-2669.3
-1179.99
-2748.63
-2632.22
-2838.21
-4116.77
-2891.57
-5589.35
-2860.21
-6951.06
-2708.04
-8061.56
-2422.56
-8765.99
-2018.64
-8921.61
-1536.54
-8436.58
-1039.54
-7309.36
-597.427
-5681.21
-261.86
-3919.35
-47.2867
-2516.89
80.4747
-1649.38
174.37
-893.999
201.345
-47.6449
169.589
386.353
1297.56
-2146.58
155.2
-2148.14
162.014
-2149.75
168.384
-2151.41
178.903
-2153.17
192.352
-2155.06
209.437
-2157.1
230.391
-2159.32
255.718
-2161.76
285.956
-2164.44
321.756
-2167.39
363.878
-2170.63
413.21
-2174.2
470.787
-2178.11
537.792
-2182.38
615.587
-2187.03
705.724
-2192.07
809.944
-2197.49
930.211
-2203.28
1068.72
-2209.39
1227.8
-2215.78
1410.1
-2222.37
1618.33
-2229.08
1855.36
-2235.81
2124.13
-2242.51
2427.58
-2249.17
2768.62
-2255.94
3150.1
-2263.19
3574.89
-2271.72
4046.07
-2282.84
4567.35
-2298.61
5143.73
-2321.89
5782.27
-2356.31
6492.9
-2405.96
7288.73
-2474.76
8185.2
-2565.52
9197.38
-2678.79
10335.1
-2811.9
11596.1
-2958.2
12958.6
-3106.94
14373.6
-3244.13
15761.3
-3355.38
17012.4
-3426.37
17991.8
-3420.54
18484.6
-3215.74
17964.9
-2596.97
15330.7
-1581.55
9735.64
-974.125
3749.23
-1302.87
3008.84
-1631.24
5311.95
-1887.5
6574.05
-2251.85
7324.01
-2635.88
8012.63
-2901.79
8157.55
-3021.34
7641.21
-3005.38
6680.52
-2884.9
5466.15
-2725.83
4143.62
-2583.55
2815.06
-2483.87
1488.24
-2441.16
179.229
-2480.88
-1140.28
-2576.92
-2536.18
-2699.61
-3994.08
-2803.86
-5485.1
-2834.56
-6920.36
-2743.49
-8152.63
-2505.67
-9003.81
-2127.9
-9299.38
-1649.11
-8915.38
-1135.83
-7822.64
-667.155
-6149.88
-307.298
-4279.21
-77.1097
-2747.08
59.7642
-1786.26
161.051
-995.285
194.49
-81.0834
162.771
418.073
1320.38
-2184.11
156.124
-2185.31
163.212
-2186.58
169.658
-2187.91
180.227
-2189.31
193.759
-2190.83
210.951
-2192.48
232.04
-2194.29
257.527
-2196.28
287.947
-2198.47
323.952
-2200.9
366.299
-2203.56
415.878
-2206.49
473.718
-2209.7
541.002
-2213.2
619.087
-2217
709.516
-2221.08
814.027
-2225.44
934.573
-2230.05
1073.32
-2234.87
1232.62
-2239.85
1415.07
-2244.91
1623.39
-2249.98
1860.44
-2255
2129.15
-2259.97
2432.54
-2264.94
2773.59
-2270.17
3155.33
-2276.17
3580.89
-2283.88
4053.78
-2294.81
4578.28
-2311.17
5160.09
-2335.93
5807.03
-2372.74
6529.71
-2425.57
7341.56
-2498.02
8257.65
-2592.41
9291.77
-2708.73
10451.4
-2843.67
11731
-2989.99
13104.9
-3136.5
14520.1
-3269.27
15894.1
-3374.55
17117.7
-3436.51
18053.8
-3407.51
18455.6
-3145.71
17703.1
-2446.98
14632
-1424.01
8712.66
-960.245
3285.47
-1334.6
3383.2
-1663.72
5641.08
-1965.37
6875.7
-2355.61
7714.24
-2716.39
8373.42
-2930.96
8372.11
-2983.83
7694.08
-2895.17
6591.86
-2718.49
5289.47
-2532.14
3957.27
-2383.48
2666.4
-2288.59
1393.35
-2256.51
147.148
-2295.94
-1100.85
-2395.63
-2436.49
-2537.57
-3852.14
-2683.16
-5339.52
-2774.01
-6829.51
-2749.59
-8177.05
-2569.5
-9183.9
-2228.78
-9640.1
-1761.72
-9382.44
-1236.86
-8347.5
-742.247
-6644.49
-355.065
-4666.39
-106.26
-2995.88
39.43
-1931.95
148.331
-1104.19
196.933
-129.686
172.198
442.807
1369.65
-2220.84
156.819
-2221.71
164.083
-2222.67
170.617
-2223.67
181.226
-2224.74
194.828
-2225.9
212.111
-2227.17
233.313
-2228.57
258.932
-2230.13
289.503
-2231.85
325.675
-2233.76
368.204
-2235.86
417.978
-2238.16
476.023
-2240.68
543.519
-2243.41
621.818
-2246.35
712.457
-2249.49
817.164
-2252.8
937.888
-2256.25
1076.78
-2259.81
1236.17
-2263.41
1418.67
-2266.98
1626.97
-2270.49
1863.94
-2273.9
2132.56
-2277.24
2435.88
-2280.68
2777.02
-2284.55
3159.2
-2289.51
3585.85
-2296.65
4060.92
-2307.64
4589.27
-2324.83
5177.28
-2351.29
5833.48
-2390.62
6569.05
-2446.63
7397.57
-2522.6
8333.62
-2620.37
9389.54
-2739.36
10570.4
-2875.65
11867.3
-3021.48
13250.7
-3165.26
14663.9
-3293.3
16022.1
-3392.36
17216.8
-3443.8
18105.2
-3386.92
18398.8
-3062.76
17378.9
-2289.16
13858.4
-1281.08
7704.59
-963.341
2967.72
-1367.56
3787.42
-1708.17
5981.69
-2049.98
7217.5
-2450.35
8114.62
-2775.95
8699.01
-2930.5
8526.66
-2909.23
7672.82
-2750.08
6432.71
-2532.34
5071.72
-2339.28
3764.21
-2202.04
2529.16
-2122.75
1314.06
-2101.91
126.315
-2133.27
-1069.49
-2222.29
-2347.47
-2365.76
-3708.67
-2537.29
-5167.98
-2680.52
-6686.29
-2724.23
-8133.34
-2610.29
-9297.84
-2317.74
-9932.65
-1872.13
-9828.05
-1341.93
-8877.7
-823.029
-7163.39
-406.336
-5083.08
-135.74
-3266.48
19.9932
-2087.68
135.542
-1219.73
195.741
-189.884
182.326
456.222
1439.21
-2256.6
157.353
-2257.18
164.667
-2257.85
171.285
-2258.54
181.924
-2259.3
195.582
-2260.12
212.936
-2261.04
234.228
-2262.06
259.952
-2263.2
290.641
-2264.46
326.942
-2265.87
369.609
-2267.42
419.526
-2269.11
477.718
-2270.95
545.36
-2272.93
623.799
-2275.04
714.564
-2277.26
819.378
-2279.55
940.182
-2281.88
1079.11
-2284.21
1238.5
-2286.48
1420.94
-2288.65
1629.14
-2290.68
1865.97
-2292.58
2134.46
-2294.44
2437.75
-2296.51
2779.09
-2299.22
3161.91
-2303.37
3590
-2310.19
4067.74
-2321.49
4600.57
-2339.74
5195.53
-2368.05
5861.79
-2409.98
6610.98
-2469.15
7456.73
-2548.47
8412.94
-2649.32
9490.4
-2770.57
10691.6
-2907.74
12004.5
-3052.53
13395.5
-3193.14
14804.5
-3316.2
16145.2
-3408.69
17309.2
-3447.67
18144.2
-3357.91
18309
-2967.04
16988.1
-2126.09
13017.5
-1156.32
6734.82
-981.276
2792.68
-1404.21
4210.35
-1762.57
6340.05
-2136.18
7591.11
-2532.12
8510.56
-2811.82
8978.72
-2897.64
8612.48
-2798.57
7573.75
-2579.22
6213.36
-2343
4835.5
-2166.23
3587.44
-2056.33
2419.26
-1999.95
1257.68
-1988.5
114.861
-2006.11
-1051.88
-2072.53
-2281.05
-2199.41
-3581.79
-2377.29
-4990.09
-2559.03
-6504.55
-2667.11
-8025.26
-2624.93
-9340.02
-2391.15
-10166.4
-1977.7
-10241.5
-1449.8
-9405.6
-909.436
-7703.75
-461.932
-5530.59
-166.462
-3561.95
1.0975
-2255.24
121.619
-1340.26
189.688
-257.953
181.56
464.35
1526.53
-2291.26
157.761
-2291.6
165.005
-2292
171.69
-2292.43
182.35
-2292.89
196.048
-2293.41
213.455
-2294
234.812
-2294.66
260.612
-2295.4
291.385
-2296.24
327.776
-2297.16
370.536
-2298.18
420.546
-2299.29
478.828
-2300.49
546.552
-2301.75
625.058
-2303.05
715.87
-2304.38
820.706
-2305.69
941.496
-2306.95
1080.37
-2308.12
1239.67
-2309.14
1421.96
-2309.97
1629.97
-2310.63
1866.63
-2311.15
2134.99
-2311.7
2438.29
-2312.58
2779.97
-2314.35
3163.69
-2317.92
3593.57
-2324.66
4074.48
-2336.5
4612.41
-2356
5215.03
-2386.29
5892.09
-2430.87
6655.56
-2493.1
7518.96
-2575.57
8495.4
-2679.17
9594
-2802.25
10814.7
-2939.79
12142.1
-3083.04
13538.7
-3220.07
14941.6
-3337.95
16263
-3423.37
17394.7
-3447.49
18168.3
-3319.72
18181.2
-2859
16527.4
-1960.32
12118.8
-1052.25
5826.75
-1011.47
2751.9
-1445.62
4644.49
-1824.05
6718.49
-2219.44
7986.5
-2597.8
8888.92
-2821.41
9202.33
-2830.8
8621.87
-2656.35
7399.31
-2395.6
5952.61
-2167.82
4607.71
-2027.35
3446.97
-1954.07
2345.98
-1922.17
1225.77
-1916.54
109.232
-1918.56
-1049.86
-1956.07
-2243.54
-2052.18
-3485.68
-2216.02
-4826.26
-2417.41
-6303.16
-2580.2
-7862.47
-2611.35
-9308.87
-2445.51
-10332.3
-2075.54
-10611.5
-1558.85
-9922.29
-1001.29
-8261.32
-522.67
-6009.21
-199.791
-3884.83
-17.8327
-2437.2
106.091
-1464.18
179.036
-330.898
179.476
463.911
1636.81
-2324.76
158.046
-2324.89
165.138
-2325.07
171.867
-2325.26
182.538
-2325.47
196.258
-2325.71
213.698
-2325.99
235.095
-2326.32
260.943
-2326.7
291.767
-2327.14
328.209
-2327.62
371.018
-2328.14
421.071
-2328.7
479.386
-2329.28
547.129
-2329.85
625.633
-2330.4
716.416
-2330.89
821.192
-2331.27
941.884
-2331.52
1080.62
-2331.6
1239.74
-2331.45
1421.81
-2331.07
1629.59
-2330.48
1866.03
-2329.77
2134.28
-2329.17
2437.69
-2329.06
2779.86
-2330.11
3164.73
-2333.33
3596.8
-2340.21
4081.37
-2352.8
4625
-2373.72
5235.94
-2406.09
5924.46
-2453.3
6702.76
-2518.47
7584.14
-2603.83
8580.76
-2709.82
9699.99
-2834.28
10939.2
-2971.68
12279.5
-3112.89
13680
-3245.98
15074.7
-3358.49
16375.6
-3436.14
17472.3
-3442.62
18174.8
-3271.71
18010.3
-2739.25
15994.9
-1794.26
11173.8
-969.841
5002.32
-1050.62
2832.68
-1491.7
5085.58
-1889.58
7116.37
-2296.02
8392.94
-2644.69
9237.59
-2802.33
9359.97
-2730.47
8550
-2490.9
7159.74
-2214.64
5676.35
-2021.08
4414.15
-1928.47
3354.37
-1892.08
2309.59
-1880.59
1214.29
-1877
105.643
-1865.41
-1061.45
-1874.63
-2234.32
-1933.06
-3427.25
-2065.9
-4693.42
-2265.67
-6103.39
-2467.85
-7660.29
-2568.89
-9207.83
-2477.75
-10423.4
-2162.54
-10926.7
-1667.17
-10417.7
-1098.14
-8830.35
-588.942
-6518.4
-236.356
-4237.41
-37.8816
-2635.67
88.3751
-1590.44
163.872
-406.395
171.928
455.854
1741.37
-2357.1
158.197
-2357.07
165.104
-2357.05
171.848
-2357.03
182.523
-2357.02
196.246
-2357.02
213.699
-2357.04
235.112
-2357.07
260.979
-2357.13
291.819
-2357.19
328.274
-2357.26
371.089
-2357.33
421.137
-2357.37
479.431
-2357.38
547.132
-2357.31
625.569
-2357.15
716.252
-2356.85
820.894
-2356.38
941.412
-2355.69
1079.93
-2354.76
1238.8
-2353.55
1420.6
-2352.06
1628.11
-2350.36
1864.34
-2348.59
2132.51
-2347.02
2436.12
-2346.13
2778.97
-2346.67
3165.27
-2349.76
3599.89