/*--------------------------------*- C++ -*----------------------------------*\
| =========                 |                                                 |
| \\      /  F ield         | OpenFOAM: The Open Source CFD Toolbox           |
|  \\    /   O peration     | Version:  4.1                                   |
|   \\  /    A nd           | Web:      www.OpenFOAM.org                      |
|    \\/     M anipulation  |                                                 |
\*---------------------------------------------------------------------------*/
FoamFile
{
    version     2.0;
    format      ascii;
    class       volScalarField;
    location    "7";
    object      p;
}
// * * * * * * * * * * * * * * * * * * * * * * * * * * * * * * * * * * * * * //

dimensions      [0 2 -2 0 0 0 0];

internalField   nonuniform List<scalar> 
6785
(
534.189
480.792
428.96
380.549
335.658
293.641
254.286
217.282
182.187
148.823
117.881
89.7418
60.7129
25.7939
-3.35935
67.7561
45.4945
39.7356
36.0252
30.5511
24.8434
19.6903
15.3013
11.8171
9.35805
8.16648
8.66787
10.7641
12.6356
12.8957
-35.0255
-41.6691
-35.9025
-31.7557
-28.6655
-25.0709
-21.1852
-17.2486
-13.3449
-9.62975
-6.28491
-3.21856
-0.14246
2.50979
3.74351
11.1082
8.68905
13.28
13.6026
13.6549
13.8691
13.7794
13.4016
12.8196
12.0602
11.1032
9.99358
9.08264
8.9295
9.23917
27.5305
25.195
26.7465
24.6479
23.2292
21.9861
20.5765
19.1948
17.9375
16.8463
15.945
15.232
14.7536
14.72
14.9642
18.3152
16.29
17.2636
16.0456
15.8424
15.8251
15.7352
15.7659
15.9188
16.1592
16.4754
16.8354
17.1528
17.4081
17.5824
14.8965
13.7372
14.8164
14.4864
14.8629
15.247
15.5364
15.8779
16.2262
16.5437
16.8271
17.076
17.2508
17.3298
17.344
16.6225
16.0545
16.8859
16.6353
16.8117
16.9074
16.9169
16.9492
16.9631
16.9493
16.9183
16.8843
16.8454
16.7953
16.7432
17.0015
16.6578
17.1242
16.8125
16.8234
16.7701
16.6741
16.6074
16.5346
16.4583
16.3846
16.3184
16.2605
16.2059
16.1475
15.7872
15.5612
15.8383
15.6039
15.6231
15.5893
15.5336
15.5003
15.4603
15.4184
15.3767
15.333
15.2877
15.2368
15.1672
14.7886
14.6393
14.8144
14.646
14.6544
14.6065
14.5419
14.4897
14.4277
14.362
14.2949
14.2255
14.1545
14.0816
13.9884
13.8392
13.7809
13.871
13.678
13.6093
13.5003
13.3871
13.2812
13.1677
13.0526
12.9382
12.8238
12.7138
12.6137
12.4982
14.87
14.7343
14.532
14.0946
13.7804
13.4436
13.0981
12.766
12.4422
12.1388
11.8553
11.6
11.3691
11.1801
11.0087
11.9583
12.4528
12.8313
12.6519
12.2693
11.8022
11.3561
10.9465
10.5488
10.152
9.75588
9.35352
8.9577
8.57739
8.17806
30.9099
30.4228
29.5546
26.9583
23.1863
19.3676
15.8041
12.6362
9.74674
7.30419
5.21819
3.4935
2.15223
1.19801
0.555768
43.8276
42.7318
43.6801
43.0441
42.6526
41.5429
42.4714
41.4244
40.707
39.7342
40.5
38.6252
36.3299
37.5848
35.6641
34.018
33.4363
34.3251
31.0915
28.5336
30.3046
27.7376
25.4325
25.5743
27.2648
24.093
21.6464
22.2223
24.6079
21.3134
19.2356
22.3072
20.4025
18.3939
18.9472
21.9959
19.8749
18.7262
22.0891
21.164
20.0196
20.855
23.9612
23.2203
22.5144
23.5413
26.5543
26.1744
26.3434
29.1353
29.3321
29.2684
30.0162
32.0522
32.0443
31.9133
32.4234
34.2872
34.3607
34.2828
36.164
36.4254
36.2898
36.1529
37.5858
37.8194
37.7422
37.8885
37.6501
38.3531
39.0722
36.3268
35.6341
36.2793
33.7959
28.6416
31.6459
25.1874
5.956
12.0112
15.7744
15.7031
16.0724
9.36663
11.2557
14.632
15.5367
15.7617
15.5181
15.774
17.1853
18.2828
16.941
11.7535
12.3488
14.2788
15.8041
15.8556
15.8064
15.422
15.217
15.6447
13.4271
13.6806
13.6753
14.4751
15.9417
16.7573
16.6397
15.9057
14.9445
16.5674
16.208
16.1803
15.8175
15.665
16.6376
17.5406
16.4131
14.22
13.9942
17.5048
18.3857
18.6132
17.9623
17.3401
16.5872
15.6556
14.3405
17.3059
19.6699
18.1927
17.9631
17.6467
16.7374
15.0461
12.0617
9.44499
11.3848
17.0493
15.1131
14.0121
12.0709
9.14177
6.96674
5.46805
3.47796
2.19058
-2.12445
4.12528
3.08562
3.60774
3.72689
2.23683
-0.536111
-1.44095
-0.886456
-7.47253
-1.82401
-3.28262
-4.6512
-2.21173
-1.39012
0.911686
2.41241
4.82523
6.32874
7.68005
9.68297
10.5322
11.8754
13.2368
13.5478
14.6324
14.9375
16.565
16.7923
16.1171
16.7417
16.7528
18.8728
18.183
15.9382
18.4914
17.6477
15.6366
15.8806
15.5414
19.2361
16.6788
13.1598
13.3512
13.3074
18.1272
15.2059
9.85273
14.8611
12.7781
9.07053
9.24605
9.011
15.5154
11.1971
5.70018
6.0513
6.52335
14.0821
10.0052
2.73389
9.96195
7.50765
2.98146
3.48079
3.64485
12.3387
7.02844
0.314131
0.840824
1.7242
11.1475
6.35016
-2.23687
6.41385
3.60035
-1.55785
-0.921829
-0.527171
9.66598
3.56111
-4.12997
-3.69933
-2.78531
7.94082
2.33412
-7.49744
2.22378
-1.46899
-7.56963
-7.5597
-6.20517
-0.00271483
-0.00497571
-0.00675329
-0.00836662
-0.00992734
-0.0114806
-0.0129803
-0.0143887
-0.015888
-0.0173317
-0.0187796
-0.0202355
-0.021756
-0.0233401
-0.025026
-0.0267856
-0.0286258
-0.0305573
-0.0323956
-0.0344569
-0.036682
-0.0390622
-0.0415643
-0.0442724
-0.047128
-0.0503421
-0.0536985
-0.057562
-0.0614219
-0.0662065
-0.0707342
-0.0760867
-0.0797592
-0.0836595
-0.0841877
-0.0808803
-0.0702636
-0.0480402
-0.0118921
0.0572241
0.167041
0.363933
0.646925
1.00048
1.24962
0.862945
0.529028
0.884697
0.925811
1.09646
1.15823
0.593741
0.581394
-0.248554
-1.36322
-1.17103
-0.534171
0.19646
0.0524785
0.100344
-0.0988281
-0.334764
-0.412198
-0.224688
-0.125026
-0.221428
-0.242475
-0.176096
-0.0577364
-0.0256313
-0.024591
-0.0147965
0.0142937
0.011501
0.141821
0.502513
0.457701
0.103267
0.0177698
-0.00439669
-0.00818535
-0.0113616
-0.0140433
-0.0165699
-0.0189733
-0.0212428
-0.0233321
-0.0256487
-0.027725
-0.0298082
-0.0319064
-0.0341306
-0.0364253
-0.0388166
-0.041185
-0.0435265
-0.0457492
-0.0475321
-0.0495443
-0.0517323
-0.0539552
-0.0562141
-0.0582389
-0.0603506
-0.0622307
-0.0639754
-0.0654133
-0.0664247
-0.0674315
-0.0673833
-0.0671171
-0.0641551
-0.0608123
-0.0538963
-0.0435396
-0.0285024
-0.00455014
0.0278193
0.0895642
0.193483
0.416133
0.809136
1.41404
1.97335
1.55834
0.972982
1.09397
1.12114
1.34109
1.67765
1.16358
1.03711
0.174552
0.482149
-1.22139
-0.828865
0.259696
0.246717
0.181861
-0.0495739
-0.352513
-0.487532
-0.269232
-0.168532
-0.365758
-0.379734
-0.297532
-0.163681
-0.144121
-0.129041
-0.0990442
-0.0518065
-0.039422
0.196301
0.68998
0.593371
0.364589
0.168857
-0.00392705
-0.00838729
-0.0119742
-0.0151872
-0.0182289
-0.0210326
-0.0236015
-0.0258614
-0.0282527
-0.0304224
-0.032553
-0.0346475
-0.0368826
-0.0391688
-0.0415244
-0.0437879
-0.0459715
-0.0478822
-0.0492441
-0.0505018
-0.051763
-0.0528412
-0.0538696
-0.0542712
-0.0544838
-0.0539208
-0.0529027
-0.0509153
-0.0481257
-0.0445581
-0.039404
-0.0331933
-0.0237257
-0.0131124
0.00138477
0.0197032
0.0419375
0.072116
0.109138
0.174027
0.280233
0.505885
0.895612
1.47529
1.99524
1.54585
1.11018
1.48985
1.41228
1.57626
2.0244
1.67166
1.41473
0.705098
1.2714
-0.620903
-0.533799
0.416476
0.399282
0.277732
0.0964868
-0.248528
-0.409599
-0.235492
-0.198886
-0.437797
-0.464067
-0.399482
-0.277937
-0.255244
-0.229733
-0.189696
-0.131107
-0.0954067
0.233147
0.752058
0.665335
0.578974
0.444115
-0.0033567
-0.00837717
-0.0123048
-0.0159123
-0.0193588
-0.0225163
-0.0254153
-0.0279412
-0.0304511
-0.032702
-0.0348735
-0.0369226
-0.0390649
-0.041183
-0.0433265
-0.0453034
-0.0471601
-0.0486298
-0.0495221
-0.0500761
-0.0504864
-0.0504508
-0.0502536
-0.0491976
-0.0477938
-0.0451851
-0.0418586
-0.0370942
-0.0313065
-0.0242507
-0.0153462
-0.00490498
0.0091004
0.0247893
0.044795
0.0695498
0.098876
0.137798
0.186283
0.267038
0.393256
0.630917
0.980108
1.41568
1.75356
1.22813
0.975649
1.71232
1.71786
1.93384
2.38121
2.09234
1.75001
1.21069
1.61527
-0.112821
-0.151044
0.575841
0.497132
0.353439
0.207946
-0.158663
-0.336263
-0.243468
-0.270684
-0.498883
-0.542109
-0.49685
-0.384492
-0.358117
-0.324304
-0.272888
-0.202208
-0.13637
0.273651
0.822531
0.777919
0.790208
0.628986
-0.0030269
-0.00855994
-0.0128974
-0.0169131
-0.0207257
-0.0241885
-0.0273903
-0.0302172
-0.0329552
-0.0353814
-0.0376986
-0.0398296
-0.0419869
-0.044022
-0.0460016
-0.0477152
-0.0492142
-0.0502056
-0.0505658
-0.0504133
-0.049995
-0.0489029
-0.0474411
-0.0448935
-0.0418751
-0.037325
-0.0318192
-0.0245038
-0.0160019
-0.00586489
0.00627741
0.0202943
0.0380392
0.0578858
0.0823954
0.112587
0.148146
0.195461
0.255777
0.353856
0.503793
0.763139
1.09707
1.44413
1.70781
1.21805
1.05653
1.93936
1.96972
2.27552
2.73442
2.44875
2.04164
1.65005
1.83541
0.0522544
0.0347939
0.663579
0.561116
0.410639
0.267568
-0.104352
-0.298275
-0.291101
-0.35694
-0.554709
-0.615693
-0.585519
-0.48163
-0.45228
-0.41111
-0.350679
-0.267154
-0.16949
0.301106
0.875341
0.88283
0.966786
1.03757
-0.00291158
-0.00894808
-0.0137196
-0.0181718
-0.0223599
-0.0261233
-0.0296074
-0.0327074
-0.0356916
-0.0383353
-0.0408643
-0.0431762
-0.045476
-0.0475703
-0.0495253
-0.0510936
-0.0523136
-0.0528593
-0.0526809
-0.0518097
-0.0505545
-0.0483855
-0.0456067
-0.0414462
-0.0366474
-0.0300018
-0.0221468
-0.0121214
-0.000713445
0.0126885
0.0283107
0.0461864
0.0680591
0.0925142
0.122135
0.158358
0.200766
0.256846
0.328713
0.442967
0.615705
0.902785
1.25242
1.58802
1.89829
1.53787
1.37278
2.23355
2.1729
2.57319
3.05422
2.74917
2.3078
2.00847
2.03116
0.136908
0.117453
0.700916
0.605121
0.448902
0.300323
-0.0715661
-0.279367
-0.346602
-0.43503
-0.605178
-0.684756
-0.668107
-0.573633
-0.541717
-0.4936
-0.423859
-0.324636
-0.194376
0.317609
0.926355
0.995704
1.16424
1.1893
-0.00291698
-0.0094408
-0.0146328
-0.0195097
-0.0240506
-0.0280901
-0.0318157
-0.0351277
-0.0382996
-0.0411153
-0.0438231
-0.0463121
-0.0487843
-0.0510125
-0.0530523
-0.0546139
-0.0556917
-0.0559073
-0.0552499
-0.0536954
-0.0516098
-0.048357
-0.0442209
-0.0383666
-0.0316229
-0.0226999
-0.0122693
0.000707058
0.015321
0.0322917
0.0517295
0.0738092
0.100155
0.129557
0.164609
0.20714
0.256693
0.321744
0.405209
0.535215
0.730389
1.04918
1.43289
1.79088
2.18235
1.9639
1.73142
2.51314
2.34354
2.82734
3.32423
2.97883
2.54884
2.28357
2.18489
0.345668
0.226501
0.72661
0.630867
0.469615
0.318161
-0.0481402
-0.263498
-0.389883
-0.496145
-0.64787
-0.746722
-0.743169
-0.659395
-0.62598
-0.571635
-0.493357
-0.378682
-0.220662
0.329307
0.978812
1.10949
1.37585
1.44735
-0.00302464
-0.010067
-0.0157017
-0.0210182
-0.0259245
-0.030249
-0.0342145
-0.0377161
-0.0410417
-0.0439798
-0.0468117
-0.0494271
-0.0520418
-0.0544047
-0.0565759
-0.0582277
-0.0593147
-0.0593765
-0.0584154
-0.0563373
-0.0535838
-0.0493948
-0.0440305
-0.0365682
-0.0278942
-0.0166603
-0.00357779
0.0124513
0.0304195
0.0511214
0.0745593
0.101016
0.132033
0.166529
0.207188
0.256139
0.313086
0.387475
0.48311
0.629752
0.848359
1.19993
1.61856
1.99305
2.43932
2.33629
2.01607
2.72919
2.52663
3.06034
3.55937
3.16833
2.77605
2.51234
2.32201
0.677141
0.38417
0.750713
0.639925
0.477854
0.324223
-0.0300145
-0.246564
-0.420121
-0.543978
-0.686037
-0.80462
-0.814475
-0.741008
-0.706402
-0.647006
-0.559639
-0.428349
-0.243408
0.33998
1.02705
1.22057
1.5497
1.90777
-0.00317159
-0.0107408
-0.0168153
-0.0225706
-0.0278404
-0.03245
-0.0366466
-0.0403185
-0.0437643
-0.046774
-0.0496577
-0.0523152
-0.0549833
-0.0574035
-0.0596467
-0.061368
-0.0624927
-0.0624887
-0.0613399
-0.0588792
-0.0556115
-0.0506775
-0.0442858
-0.0354135
-0.0249435
-0.0114886
0.0042156
0.0233009
0.0446822
0.0691973
0.0967266
0.127616
0.16329
0.2028
0.248854
0.303914
0.367936
0.451395
0.559167
0.722211
0.962802
1.34297
1.78865
2.1596
2.6179
2.60667
2.21865
2.8986
2.73726
3.28232
3.77354
3.33157
2.98531
2.70589
2.47561
1.03112
0.544098
0.771224
0.639214
0.479538
0.317617
-0.0166239
-0.230928
-0.441541
-0.580741
-0.718795
-0.855948
-0.880051
-0.817102
-0.781902
-0.718563
-0.623394
-0.476656
-0.264837
0.343915
1.06394
1.33082
1.75198
2.07991
-0.00335178
-0.0114897
-0.018026
-0.0242423
-0.029904
-0.0348307
-0.039288
-0.0431535
-0.046738
-0.0498228
-0.0527406
-0.0553978
-0.0580596
-0.0604658
-0.0627094
-0.0644369
-0.0655692
-0.0655132
-0.0642379
-0.0614895
-0.0578351
-0.0523356
-0.0451547
-0.035148
-0.0231574
-0.00772723
0.0103894
0.0323625
0.0570404
0.0853036
0.116922
0.152269
0.19268
0.237296
0.288922
0.350261
0.421644
0.514518
0.63474
0.81426
1.07526
1.47807
1.93839
2.285
2.71771
2.78591
2.37097
3.03503
2.966
3.50102
3.96889
3.48973
3.20061
2.89857
2.68343
1.3703
0.687504
0.780542
0.636894
0.476466
0.300093
-0.00845798
-0.220097
-0.459948
-0.612107
-0.750284
-0.90286
-0.94266
-0.889778
-0.853904
-0.787803
-0.685036
-0.522041
-0.282026
0.343479
1.09614
1.43725
1.96721
2.28185
-0.00353342
-0.0122475
-0.0192319
-0.0259005
-0.0319506
-0.0372001
-0.0419248
-0.0459917
-0.0497224
-0.0528882
-0.0558336
-0.0584661
-0.0610747
-0.0634041
-0.0655689
-0.0672162
-0.0682694
-0.0680971
-0.0666535
-0.0636094
-0.0595684
-0.0535613
-0.0457112
-0.0347643
-0.0214864
-0.00433021
0.0159621
0.0406099
0.0684202
0.100315
0.135965
0.175754
0.22089
0.270629
0.327813
0.395453
0.474259
0.57666
0.70954
0.905192
1.1844
1.60405
2.07116
2.38312
2.76544
2.90253
2.50089
3.12097
3.19539
3.70223
4.12665
3.64933
3.419
3.09056
2.95209
1.68889
0.812938
0.777194
0.632612
0.46593
0.277818
-0.00519839
-0.215471
-0.476368
-0.639718
-0.778507
-0.943484
-1.00018
-0.958014
-0.921903
-0.854042
-0.74495
-0.565833
-0.299389
0.339305
1.12889
1.54422
2.16833
2.59577
-0.00373113
-0.0130649
-0.0205114
-0.027643
-0.0340969
-0.0396916
-0.0447107
-0.0490081
-0.0529193
-0.0562014
-0.0592074
-0.0618366
-0.0643982
-0.0666376
-0.0686949
-0.0702168
-0.071141
-0.0708013
-0.0691529
-0.0657919
-0.061337
-0.0548319
-0.0463712
-0.0346118
-0.0202479
-0.00161291
0.0205681
0.0475959
0.0782557
0.113532
0.153031
0.197154
0.247018
0.301956
0.364941
0.439233
0.526032
0.638712
0.785094
0.997837
1.29535
1.72923
2.19819
2.47187
2.78655
2.97962
2.62624
3.17217
3.42832
3.89001
4.26283
3.81694
3.62948
3.2905
3.30352
2.00604
0.938704
0.767323
0.627339
0.452666
0.256628
-0.00469527
-0.215868
-0.490722
-0.667122
-0.806484
-0.981967
-1.05526
-1.02318
-0.986726
-0.918191
-0.803542
-0.606937
-0.314547
0.337957
1.16758
1.65105
2.37481
2.8232
-0.003928
-0.0138876
-0.0217781
-0.0293545
-0.0361946
-0.0421242
-0.0474312
-0.0519585
-0.0560538
-0.059464
-0.0625454
-0.0651864
-0.0677077
-0.069854
-0.0717838
-0.0731464
-0.0738939
-0.0733345
-0.0714236
-0.0676985
-0.062753
-0.0556986
-0.0465925
-0.0340393
-0.0186629
0.00131985
0.0252072
0.0543996
0.0876878
0.126129
0.169283
0.217593
0.272068
0.332151
0.40088
0.481863
0.576814
0.700132
0.860761
1.09135
1.40724
1.8536
2.32364
2.56268
2.8
3.02903
2.74991
3.2157
3.65716
4.08596
4.39259
3.9699
3.80099
3.48414
3.68464
2.31422
1.06538
0.753979
0.618083
0.439017
0.237984
-0.00580972
-0.220156
-0.501315
-0.693337
-0.832821
-1.01778
-1.10605
-1.0839
-1.04791
-0.979695
-0.861164
-0.64772
-0.330629
0.336858
1.20795
1.76123
2.55874
3.25996
-0.00414414
-0.0147736
-0.0231237
-0.0311525
-0.0383847
-0.0446572
-0.0502629
-0.055035
-0.0593344
-0.0628986
-0.0660865
-0.0687731
-0.0712882
-0.0733688
-0.0751902
-0.0763996
-0.0769703
-0.0761826
-0.0739958
-0.0698933
-0.0644265
-0.0567865
-0.047008
-0.0336656
-0.0173209
0.00390907
0.0293412
0.0604855
0.0961519
0.13749
0.184048
0.236329
0.295307
0.360517
0.435157
0.523129
0.62679
0.761595
0.937608
1.18779
1.52392
1.98328
2.45415
2.6642
2.81907
3.06559
2.87038
3.27818
3.86907
4.28706
4.52817
4.09264
3.91377
3.67765
4.04656
2.61154
1.1997
0.740158
0.606451
0.428144
0.222103
-0.00641215
-0.226494
-0.507837
-0.716889
-0.858729
-1.05145
-1.15464
-1.1411
-1.10578
-1.03913
-0.917842
-0.688114
-0.346575
0.336662
1.24252
1.86579
2.762
3.4731
-0.00436667
-0.0156714
-0.0244661
-0.032929
-0.040532
-0.0471278
-0.0530139
-0.058016
-0.062508
-0.0662221
-0.0695188
-0.072261
-0.0747834
-0.0768139
-0.0785373
-0.0795978
-0.079986
-0.0789615
-0.0764779
-0.0719793
-0.0659611
-0.0576765
-0.0471703
-0.0330014
-0.0156611
0.00679618
0.0337239
0.0667224
0.10464
0.148725
0.198519
0.254614
0.317941
0.38819
0.468656
0.563644
0.676162
0.822842
1.01513
1.28605
1.6434
2.11549
2.58804
2.77784
2.85201
3.09361
2.97074
3.36375
4.02932
4.46248
4.6486
4.16279
3.98567
3.8873
4.36909
2.88741
1.33369
0.723346
0.589694
0.419059
0.206862
-0.00705629
-0.234468
-0.510681
-0.734401
-0.880628
-1.0802
-1.19855
-1.19353
-1.15984
-1.09582
-0.97376
-0.729958
-0.365337
0.329084
1.26602
1.96825
2.98464
3.78899
-0.00461334
-0.0166386
-0.0258999
-0.0348083
-0.0427892
-0.049713
-0.0558838
-0.0611201
-0.0658109
-0.0696846
-0.0731055
-0.0759237
-0.0784802
-0.0804908
-0.0821485
-0.0830899
-0.0833258
-0.082091
-0.079332
-0.0744541
-0.0678955
-0.0589459
-0.0476907
-0.0326798
-0.0143429
0.00931251
0.0376674
0.0724051
0.112414
0.159051
0.211876
0.271584
0.339131
0.414365
0.500799
0.603091
0.725018
0.88443
1.09413
1.38776
1.76874
2.25502
2.72999
2.90871
2.90662
3.13381
3.06948
3.45282
4.15396
4.60575
4.74009
4.17413
4.00121
4.07755
4.66608
3.14669
1.47385
0.705891
0.568271
0.411465
0.192935
-0.00666896
-0.242649
-0.51125
-0.745199
-0.898688
-1.10522
-1.23836
-1.24113
-1.20942
-1.14927
-1.02821
-0.772408
-0.385967
0.317306
1.28609
2.06584
3.17064
4.29971
-0.00486991
-0.0176222
-0.0273389
-0.0366785
-0.0450195
-0.0522533
-0.0586892
-0.0641402
-0.0690101
-0.0730274
-0.0765605
-0.0794487
-0.0820388
-0.0840365
-0.0856392
-0.0864762
-0.0865741
-0.0851478
-0.0821274
-0.0768829
-0.0697891
-0.0601488
-0.0481098
-0.0322131
-0.0128439
0.0120337
0.0418257
0.078279
0.12033
0.169443
0.225202
0.288422
0.360067
0.440215
0.532542
0.642198
0.773724
0.946314
1.17443
1.49206
1.89804
2.39863
2.87614
3.05242
2.98239
3.1882
3.15625
3.54163
4.27765
4.72242
4.80322
4.18508
4.01561
4.19093
4.89744
3.38957
1.61457
0.684928
0.542396
0.403176
0.177958
-0.00600158
-0.251175
-0.511363
-0.750191
-0.911244
-1.12511
-1.27132
-1.28217
-1.25406
-1.19872
-1.08117
-0.816441
-0.410012
0.30367
1.3058
2.1683
3.38923
4.57371
-0.00515057
-0.0186776
-0.0288742
-0.0386611
-0.047373
-0.0549247
-0.0616313
-0.0673012
-0.0723536
-0.0765171
-0.0801664
-0.0831298
-0.0857634
-0.0877626
-0.0893312
-0.0900903
-0.0900847
-0.088509
-0.0852762
-0.0797137
-0.0721329
-0.061811
-0.048996
-0.0321956
-0.011789
0.0143101
0.045521
0.0836347
0.127631
0.179086
0.237621
0.304186
0.379816
0.464818
0.563168
0.680476
0.822189
1.00889
1.25668
1.60048
2.03422
2.55087
3.03067
3.21221
3.08422
3.2572
3.24814
3.64047
4.3882
4.8226
4.83087
4.2185
4.06565
4.33946
5.07855
3.6259
1.76535
0.665901
0.514308
0.394884
0.16338
-0.00211408
-0.2589
-0.511624
-0.751357
-0.919813
-1.1411
-1.29764
-1.31655
-1.29308
-1.24359
-1.13164
-0.86079
-0.435905
0.290614
1.32753
2.26765
3.62191
4.88353
-0.00544045
-0.0197503
-0.0304153
-0.0406366
-0.049705
-0.0575598
-0.0645214
-0.0703948
-0.075613
-0.0799054
-0.0836533
-0.0866758
-0.0893387
-0.0913292
-0.0928576
-0.0935396
-0.0934357
-0.0917306
-0.0883162
-0.082475
-0.0744551
-0.0634672
-0.049881
-0.0321505
-0.0106752
0.0166869
0.0493684
0.0891786
0.135144
0.18894
0.250222
0.320094
0.399637
0.48946
0.593776
0.718824
0.870965
1.07235
1.34101
1.71251
2.17559
2.7083
3.18811
3.37875
3.20495
3.33486
3.35115
3.71401
4.44971
4.87819
4.82736
4.28541
4.15682
4.50947
5.22911
3.86451
1.92087
0.64646
0.481122
0.389125
0.150983
0.00298576
-0.266228
-0.512943
-0.750794
-0.925132
-1.15243
-1.3166
-1.34355
-1.32676
-1.28423
-1.18006
-0.905916
-0.464617
0.276418
1.34934
2.37251
3.84589
5.29423
-0.00575218
-0.020894
-0.032052
-0.0427254
-0.0521633
-0.0603315
-0.0675575
-0.0736437
-0.0790361
-0.0834629
-0.0873127
-0.0903964
-0.0930903
-0.0950731
-0.0965654
-0.0971773
-0.0969883
-0.0951803
-0.0916301
-0.0855686
-0.0771868
-0.0655985
-0.0512817
-0.0326489
-0.0101183
0.0185033
0.0526612
0.0941626
0.142069
0.198148
0.262089
0.335157
0.418538
0.513137
0.623552
0.756629
0.919813
1.13692
1.42784
1.82939
2.32463
2.87495
3.35233
3.55374
3.35467
3.43318
3.46967
3.78742
4.48275
4.87491
4.80749
4.3681
4.30194
4.71041
5.40201
4.1176
2.09112
0.633702
0.445081
0.386904
0.145108
0.0104445
-0.271572
-0.514453
-0.749045
-0.928476
-1.1596
-1.32867
-1.36183
-1.35348
-1.31997
-1.2249
-0.949632
-0.493923
0.261182
1.36582
2.47335
4.07098
5.63187
-0.00607152
-0.0220543
-0.0336921
-0.0448044
-0.0545986
-0.0630668
-0.0705452
-0.0768334
-0.0823892
-0.0869386
-0.0908778
-0.0940093
-0.0967192
-0.0986787
-0.100118
-0.100644
-0.100353
-0.0984367
-0.0947613
-0.0885107
-0.0798225
-0.0677056
-0.052691
-0.0331893
-0.00961283
0.0202782
0.0559565
0.0992145
0.149145
0.207591
0.274267
0.3506
0.43785
0.53729
0.653833
0.795116
0.969692
1.20324
1.51788
1.95126
2.48028
3.04788
3.51791
3.72477
3.52828
3.54331
3.58984
3.87118
4.50507
4.82371
4.78532
4.45931
4.49609
4.91686
5.58937
4.38526
2.26879
0.624246
0.408562
0.386729
0.143963
0.0162647
-0.276085
-0.51654
-0.7473
-0.930328
-1.16056
-1.33099
-1.37001
-1.37188
-1.35107
-1.26696
-0.992417
-0.52365
0.243367
1.3764
2.5806
4.27574
6.14231
-0.00641045
-0.0232845
-0.0354267
-0.0469942
-0.0571567
-0.065936
-0.0736777
-0.0801801
-0.0859115
-0.0905936
-0.0946324
-0.0978185
-0.10055
-0.102488
-0.103877
-0.104313
-0.103915
-0.101888
-0.0981013
-0.0916941
-0.0827601
-0.0702024
-0.0545473
-0.0342554
-0.00969603
0.021414
0.0585755
0.103579
0.155528
0.21634
0.285744
0.365328
0.45647
0.560803
0.683702
0.833576
1.02028
1.27147
1.61144
2.07916
2.64473
3.23096
3.68948
3.89421
3.72973
3.66572
3.71001
3.94325
4.51614
4.75743
4.75279
4.53953
4.70695
5.10116
5.7511
4.66812
2.46399
0.626549
0.377554
0.388629
0.146401
0.021884
-0.277372
-0.517314
-0.744162
-0.929859
-1.15544
-1.32141
-1.36793
-1.37975
-1.37542
-1.30458
-1.03256
-0.552043
0.222998
1.3846
2.68697
4.49315
6.47442
-0.00675506
-0.0245318
-0.0371633
-0.049169
-0.0596864
-0.0687634
-0.0767569
-0.0834642
-0.0893629
-0.0941695
-0.0983015
-0.101535
-0.104279
-0.106187
-0.10751
-0.107842
-0.107314
-0.105151
-0.101233
-0.094669
-0.0855134
-0.0725778
-0.0563173
-0.0353001
-0.00980433
0.0224867
0.0611155
0.107895
0.161937
0.225227
0.2975
0.380506
0.475698
0.585133
0.714566
0.873374
1.07274
1.34255
1.7096
2.21367
2.81741
3.42181
3.8631
4.05046
3.9265
3.77957
3.81317
3.96635
4.49386
4.68892
4.70454
4.60591
4.88901
5.28476
5.86333
4.96368
2.66827
0.636349
0.349234
0.392247
0.147654
0.0220587
-0.276663
-0.517551
-0.740236
-0.927222
-1.14509
-1.30226
-1.35653
-1.37761
-1.39317
-1.33956
-1.07184
-0.580271
0.201988
1.39151
2.80479
4.72971
6.88232
-0.00711648
-0.0258481
-0.0389929
-0.051452
-0.0623353
-0.0717201
-0.0799754
-0.0868999
-0.0929798
-0.097924
-0.102162
-0.105457
-0.108223
-0.11011
-0.111376
-0.111606
-0.110946
-0.108637
-0.104581
-0.09786
-0.0885039
-0.0752456
-0.0584365
-0.0367623
-0.010406
0.0229784
0.0629835
0.111474
0.167556
0.233298
0.308437
0.394883
0.494202
0.608862
0.745149
0.913389
1.1263
1.41612
1.81207
2.35517
2.99966
3.62349
4.04402
4.19812
4.1198
3.89363
3.9087
3.99459
4.46208
4.61168
4.63191
4.66238
5.04273
5.50965
6.00418
5.27785
2.89355
0.663246
0.320058
0.394069
0.147729
0.0223355
-0.269051
-0.51572
-0.733042
-0.920807
-1.12972
-1.2759
-1.33415
-1.36237
-1.40153
-1.37064
-1.10925
-0.608568
0.180633
1.39634
2.91311
4.9141
7.44087
-0.00748113
-0.0271787
-0.0408221
-0.053718
-0.0649512
-0.0746304
-0.0831358
-0.090268
-0.0965234
-0.101601
-0.105939
-0.109291
-0.112074
-0.113938
-0.115142
-0.115264
-0.114459
-0.11198
-0.107758
-0.100859
-0.091292
-0.0777307
-0.0604209
-0.0381089
-0.0109328
0.0234959
0.0648327
0.115022
0.173172
0.241448
0.319591
0.409676
0.51335
0.63355
0.777007
0.955207
1.18244
1.49355
1.92052
2.50492
3.19182
3.83479
4.23006
4.33081
4.29462
3.99499
3.99511
4.0284
4.4272
4.52012
4.57531
4.71446
5.17669
5.7228
6.18053
5.60726
3.13076
0.70214
0.288793
0.393502
0.142793
0.0169897
-0.26049
-0.514527
-0.724543
-0.911649
-1.1102
-1.24562
-1.30147
-1.33559
-1.40162
-1.39989
-1.14731
-0.639877
0.159599
1.40009
3.00505
5.10881
7.82003
-0.00786071
-0.0285738
-0.0427416
-0.056089
-0.0676816
-0.077665
-0.0864299
-0.0937812
-0.100226
-0.105452
-0.109903
-0.11333
-0.116143
-0.117995
-0.119149
-0.119175
-0.118235
-0.115583
-0.111188
-0.104101
-0.0943212
-0.080473
-0.0627126
-0.039782
-0.011844
0.0235567
0.0661327
0.117931
0.178058
0.248799
0.329904
0.423627
0.531738
0.657635
0.808655
0.997426
1.24004
1.5741
2.0342
2.66278
3.39453
4.058
4.42694
4.45691
4.45044
4.10638
4.08174
4.05448
4.39368
4.41913
4.54211
4.7662
5.34665
5.91247
6.38026
5.95587
3.39395
0.765578
0.258294
0.391805
0.141998
0.00683431
-0.249303
-0.512656
-0.713567
-0.898278
-1.08763
-1.21396
-1.25787
-1.2937
-1.38878
-1.42382
-1.18495
-0.67455
0.135012
1.39181
3.05451
5.28893
8.21036
-0.00824139
-0.0299759
-0.0446544
-0.0584364
-0.070376
-0.0806477
-0.0896602
-0.0972201
-0.103849
-0.109219
-0.113777
-0.117277
-0.120119
-0.121956
-0.123058
-0.122986
-0.121906
-0.119071
-0.114484
-0.10719
-0.0971784
-0.0830383
-0.064851
-0.0412918
-0.0126117
0.023746
0.0675452
0.12094
0.183069
0.25634
0.340534
0.438101
0.550905
0.682879
0.841877
1.0419
1.30089
1.6595
2.15521
2.83046
3.60877
4.29254
4.63365
4.57742
4.58766
4.22801
4.15936
4.07874
4.35106
4.32695
4.52642
4.79476
5.589
6.11842
6.6035
6.31793
3.67347
0.848626
0.230754
0.390196
0.152484
-0.00488857
-0.237972
-0.509179
-0.703941
-0.883185
-1.06312
-1.18153
-1.20678
-1.23827
-1.36597
-1.44584
-1.22492
-0.713024
0.106089
1.37044
3.0895
5.44944
8.66975
-0.0086341
-0.0314326
-0.0466509
-0.0608832
-0.0731818
-0.0837494
-0.0930172
-0.100797
-0.107623
-0.113153
-0.117836
-0.121423
-0.124313
-0.126149
-0.127211
-0.127055
-0.125849
-0.122839
-0.118057
-0.110554
-0.100308
-0.085878
-0.0672894
-0.0431216
-0.0137195
0.0235577
0.0685275
0.123438
0.187486
0.263206
0.35042
0.45179
0.569333
0.707514
0.874878
1.0868
1.36333
1.74829
2.28188
3.00668
3.83366
4.5386
4.85455
4.70611
4.7121
4.37606
4.27357
4.15041
4.31249
4.26062
4.5141
4.79625
5.88163
6.41264
6.83753
6.7008
3.98561
0.965197
0.211254
0.38929
0.178428
-0.00343864
-0.221176
-0.498839
-0.69273
-0.865293
-1.03525
-1.14628
-1.14882
-1.16994
-1.33032
-1.46302
-1.26555
-0.753151
0.0686843
1.33964
3.10554
5.59039
9.03642
-0.00902459
-0.0328841
-0.0486314
-0.0632979
-0.0759454
-0.0867958
-0.0963056
-0.104294
-0.11131
-0.116998
-0.121805
-0.125476
-0.128417
-0.130251
-0.131271
-0.131028
-0.129696
-0.126509
-0.121518
-0.11379
-0.103293
-0.0885615
-0.0695769
-0.0448224
-0.0146693
0.0235393
0.0697047
0.126152
0.192182
0.270444
0.36083
0.466238
0.588815
0.733645
0.909883
1.13453
1.4298
1.84296
2.41719
3.19412
4.0714
4.79709
5.08994
4.84906
4.82889
4.5224
4.3942
4.24878
4.28267
4.21295
4.50181
4.78185
6.13209
6.69556
7.10429
7.0963
4.32035
1.10909
0.202382
0.388899
0.211471
0.0108361
-0.200057
-0.481904
-0.679517
-0.846786
-1.0045
-1.10708
-1.08782
-1.09546
-1.28253
-1.47696
-1.30834
-0.794029
0.0270606
1.31345
3.12461
5.69602
9.48525
-0.00942492
-0.0343753
-0.0506833
-0.0657999
-0.0788106
-0.0899554
-0.0997177
-0.107923
-0.115138
-0.120998
-0.125947
-0.129721
-0.132732
-0.134582
-0.135577
-0.13526
-0.133815
-0.130463
-0.125268
-0.117312
-0.106564
-0.0915316
-0.0721626
-0.046858
-0.0159473
0.0231742
0.070513
0.128459
0.196422
0.277173
0.370685
0.480102
0.607768
0.759389
0.944926
1.18301
1.49828
1.94163
2.55884
3.3906
4.31996
5.06623
5.34029
5.02951
4.95283
4.62516
4.47959
4.34451
4.27681
4.17573
4.4768
4.79094
6.32811
6.92034
7.42033
7.51132
4.69556
1.29559
0.211648
0.390563
0.253586
0.037899
-0.172466
-0.455006
-0.657268
-0.823933
-0.969142
-1.06202
-1.02376
-1.01285
-1.22046
-1.48586
-1.3508
-0.834419
-0.019622
1.2767
3.11844
5.75301
9.76728
-0.00982335
-0.0358421
-0.0527036
-0.0682554
-0.081623
-0.0930517
-0.103059
-0.111469
-0.11887
-0.124897
-0.129988
-0.133864
-0.136945
-0.138817
-0.139788
-0.139397
-0.137835
-0.134318
-0.128912
-0.120712
-0.109697
-0.0943526
-0.0745915
-0.0487528
-0.0170614
0.0230021
0.0715667
0.131083
0.201091
0.284487
0.381342
0.495082
0.628221
0.787184
0.982657
1.23517
1.57185
2.04744
2.71047
3.59941
4.58224
5.34775
5.60304
5.24295
5.06996
4.67509
4.51127
4.41798
4.29869
4.16438
4.47039
4.83613
6.47461
7.12848
7.78118
7.93202
5.09838
1.51794
0.243317
0.39381
0.294392
0.0657771
-0.146963
-0.423973
-0.626552
-0.796672
-0.929724
-1.01014
-0.956989
-0.926988
-1.15452
-1.49452
-1.39346
-0.872126
-0.0650204
1.22195
3.08323
5.77146
10.0308
-0.0102288
-0.0373225
-0.0547788
-0.0707814
-0.0845218
-0.0962483
-0.106514
-0.115141
-0.122739
-0.128943
-0.134189
-0.13819
-0.141358
-0.143275
-0.144242
-0.143795
-0.142131
-0.138459
-0.132855
-0.124408
-0.113123
-0.0974633
-0.0773127
-0.050959
-0.0185061
0.0225057
0.072289
0.133373
0.205412
0.291439
0.391626
0.509687
0.648373
0.814831
1.02067
1.28832
1.64768
2.15741
2.86836
3.81651
4.85378
5.63671
5.86827
5.48128
5.17902
4.69424
4.54549
4.49153
4.34382
4.17468
4.50157
4.94015
6.60066
7.35938
8.18796
8.36816
5.54546
1.79222
0.307153
0.404466
0.340972
0.103303
-0.120238
-0.389633
-0.589791
-0.763026
-0.884667
-0.949583
-0.885867
-0.841094
-1.0839
-1.49455
-1.43021
-0.905773
-0.115043
1.13242
2.9751
5.66868
10.2902
-0.0106216
-0.038748
-0.0568028
-0.0732398
-0.087349
-0.099367
-0.109885
-0.118725
-0.126512
-0.132884
-0.138278
-0.142401
-0.14566
-0.147625
-0.148594
-0.148097
-0.146332
-0.142505
-0.136696
-0.127993
-0.116417
-0.100423
-0.0798671
-0.0529895
-0.01978
0.02224
0.0733112
0.136077
0.210305
0.299191
0.403015
0.525817
0.670559
0.845213
1.06222
1.34617
1.72975
2.27574
3.03729
4.04637
5.13883
5.93683
6.13073
5.72564
5.27873
4.72013
4.60122
4.56263
4.40321
4.1989
4.57156
5.09837
6.7037
7.58351
8.59653
8.80413
6.02756
2.11113
0.40503
0.423214
0.386333
0.143894
-0.0931459
-0.356384
-0.555605
-0.729559
-0.837422
-0.881902
-0.810911
-0.759958
-1.00893
-1.48446
-1.45916
-0.931096
-0.162318
1.01509
2.79988
5.503
10.3818
-0.011013
-0.0401608
-0.0588615
-0.0757448
-0.0902396
-0.102566
-0.113353
-0.122421
-0.130412
-0.136967
-0.142521
-0.146779
-0.150147
-0.152179
-0.153173
-0.152646
-0.150803
-0.146837
-0.140835
-0.13188
-0.120006
-0.103668
-0.0827018
-0.0552956
-0.0213497
0.0216981
0.0740675
0.138545
0.214982
0.306763
0.414269
0.541875
0.692817
0.875883
1.10456
1.40555
1.81458
2.39856
3.21233
4.2834
5.43073
6.24092
6.37988
5.95999
5.37579
4.75971
4.67229
4.63804
4.47459
4.23851
4.66762
5.28877
6.7903
7.76464
8.96049
9.24925
6.56717
2.4916
0.547585
0.456707
0.440713
0.19354
-0.0569446
-0.316686
-0.520741
-0.696083
-0.787498
-0.807329
-0.729047
-0.677019
-0.922103
-1.4606
-1.47739
-0.946727
-0.208935
0.856707
2.53378
5.22812
10.3304
-0.0113927
-0.0414919
-0.0608492
-0.0781583
-0.0930336
-0.105664
-0.116717
-0.126009
-0.1342
-0.140934