/*--------------------------------*- C++ -*----------------------------------*\
| =========                 |                                                 |
| \\      /  F ield         | OpenFOAM: The Open Source CFD Toolbox           |
|  \\    /   O peration     | Version:  4.1                                   |
|   \\  /    A nd           | Web:      www.OpenFOAM.org                      |
|    \\/     M anipulation  |                                                 |
\*---------------------------------------------------------------------------*/
FoamFile
{
    version     2.0;
    format      ascii;
    class       surfaceScalarField;
    location    "7";
    object      phi;
}
// * * * * * * * * * * * * * * * * * * * * * * * * * * * * * * * * * * * * * //

dimensions      [0 3 -1 0 0 0 0];

internalField   nonuniform List<scalar> 
13220
(
-949.867
2249.77
-1573.94
1924.27
-2053.98
1779.94
-2424.2
1670.12
-2699.81
1575.82
-2888.32
1488.41
-2992.99
1404.57
-3013.78
1320.99
-2949.53
1235.65
-2797.14
1147.51
-2551.07
1054.13
-2192.91
941.736
-1687.08
794.067
-1012.6
625.715
287.304
373.407
1876.38
442.79
1854.89
437.371
1785.39
406.761
1700.74
380.669
1601.94
359.981
1509.1
345.397
1419.19
337.629
1328.76
333.59
1239.71
327.057
1154.05
309.722
1071.48
267.565
983.896
191.493
870.153
111.463
705.763
398.771
33.7134
1842.7
-97.3039
1985.91
-253.467
1941.6
-370.949
1818.23
-472.934
1703.99
-567.254
1603.44
-651.412
1503.41
-725.431
1402.82
-787.654
1302.01
-836.825
1203.31
-867.749
1102.47
-855.604
971.947
-739.996
754.779
-434.16
400.186
-35.389
28.9986
1813.76
-100.409
2115.35
-225.23
2066.51
-304.138
1897.18
-367.726
1767.67
-416.502
1652.26
-445.698
1532.72
-456.47
1413.64
-451.236
1296.88
-429.53
1181.66
-386.597
1059.61
-311.388
896.745
-192.616
636.043
-48.3217
255.93
-83.7098
170.044
1643.76
146.647
2138.75
124.264
2088.96
123.373
1898.06
127.533
1763.6
136.38
1643.4
149.732
1519.44
167.155
1396.18
187.498
1276.57
208.616
1160.52
229.435
1038.69
244.178
882.174
233.317
647.006
155.53
333.81
71.8161
224.097
1419.76
245.528
2117.35
236.186
2098.46
237.421
1896.85
241.929
1759.23
245.882
1639.44
248.241
1517.17
246.916
1397.46
242.867
1280.64
235.597
1167.67
223.055
1051.26
200.387
904.386
156.859
690.015
78.5307
411.648
150.351
205.43
1214.48
241.45
2081.36
216.725
2123.31
194.301
1919.29
180.169
1773.46
166.698
1652.9
152.91
1531
138.593
1411.74
123.53
1295.65
109.171
1182.06
94.4977
1065.69
77.4941
921.95
53.4766
714.523
19.8986
445.658
170.24
176.317
1038.28
229.143
2028.5
206.924
2145.71
177.375
1948.77
159.037
1791.87
144.541
1667.27
129.557
1545.94
115.106
1426.03
101.909
1308.76
89.0029
1194.66
77.2384
1077.48
63.0503
935.129
43.0227
733.455
16.7648
470.93
187.014
154.925
883.304
225.209
1957.99
212.586
2158.31
184.136
1977.03
165.896
1810.19
152.452
1680.55
139.488
1558.95
125.391
1439.96
111.928
1322.18
99.0695
1207.62
85.0525
1091.23
70.4528
950.9
50.0749
754.926
22.4466
499.53
209.445
133.808
749.206
215.129
1876.13
212.037
2161.42
183.134
2005.5
163.981
1829.36
149.252
1694.91
135.599
1572.63
121.766
1453.5
107.692
1336.19
93.7846
1220.99
80.8319
1104.3
63.9574
965.966
42.6677
774.375
17.198
523.33
226.655
112.256
636.474
199.517
1788
206.797
2153.93
179.382
2032.14
159.634
1848.86
146.024
1707.75
132.38
1585.99
117.971
1467.12
103.849
1349.87
89.0794
1235.49
73.4248
1118.82
59.3701
981.881
40.4938
794.598
17.883
547.119
244.502
99.679
536.242
188.778
1697.86
205.431
2137.19
178.315
2058.4
151.559
1875.2
132.808
1725.68
117.912
1600.17
103.604
1480.79
90.7139
1362.02
78.7836
1246.16
68.1454
1129.41
52.7073
993.137
32.9339
810.37
10.6874
565.734
255.239
89.062
448.472
218.799
1568.31
262.22
2094.76
254.976
2065.71
251.08
1879.57
251.185
1725.31
246.263
1605.18
233.967
1492.43
214.995
1380.23
192.867
1268.75
163.635
1155.47
137.367
1026.4
102.267
850.712
54.1213
618.405
309.16
106.005
343.131
210.23
1462.34
251.205
2054.07
200.357
2114.91
127.045
1951.68
71.8782
1778.15
41.4963
1632.58
28.4869
1502.23
24.5162
1379.8
25.0745
1262.12
30.2537
1146.29
20.796
1019.12
-3.06129
852.018
-21.6063
615.768
287.153
-282.934
155.096
735.96
1219.3
1459.37
1579.71
1563.68
1500.36
1364.59
1211.99
1029.19
822.956
584.678
287.543
-1.27408
615.341
-616.063
613.01
612.621
611.346
1300.05
-688.57
1299.09
1298.44
1298.1
1965
-668.401
1964.42
1963.07
2565.62
-601.551
2563.86
2564.57
2563.22
3066.3
-501.748
3066.64
3067.52
3467.76
-399.392
3468.46
3469.79
3469.83
3760.64
-289.052
3760.85
3762.74
3762.31
3941.51
-179.516
3940.64
3940.98
4014.43
-74.0994
4015.88
4014.55
4016.54
3956.07
59.1611
3957.7
3955.68
3764.46
193.126
3762.43
3763.03
3761.24
3421.49
340.055
3419
3419.35
3417.01
2953.52
464.254
2951.14
2952.74
2428.54
522.012
2430.32
2428.87
2430.41
1948.41
480.359
1949.88
1948.32
1949.54
1472.14
476.456
1471.6
1471.44
895.023
575.302
895.959
895.06
896.933
198.093
698.39
202.879
203.662
-708.058
913.9
-703.582
-702.115
-698.474
-2213.28
1512.57
-2209.76
-2212.44
-2211.31
-4172.59
1959.37
-4176.74
-4176.6
-6459.45
2280.39
-6457.77
-6459.84
-6357.26
-6245.58
-6123.79
-8525.26
2517.06
-8414.97
-8272.7
-8100.48
-7926.93
-7750.75
-7580.5
-7402.39
-7204
-9680.36
2674.32
-9469.66
-9263.38
-9060.93
-8833.46
-8605.09
-8371.93
-8138.47
-7907.4
-10371.6
2700.48
-10120.1
-9867.75
-9615.88
-9365.77
-9110.34
-8843.14
-8572.73
-8298.91
-8030.02
-10344.4
2573.91
-10062.5
-9777.15
-9493.48
-9209.64
-8930.6
-8633.43
-8328.96
-8026.76
-9997.56
2257.58
-9707.09
-9412.32
-9104.44
-8796.67
-8489.34
-8181.29
-7872.92
-7550.64
-9038.69
1800.73
-8727.47
-8419.01
-8111.9
-7793.54
-7468.18
-7143.58
-6819.47
-6505.79
-7407.07
1215.79
-7093.86
-6784.54
-6476.9
-6172.47
-5870.98
-5586.82
-5301.99
-5024.93
-4757.6
-4936.37
452.212
-4718.33
-4520.68
-4329.69
-4135.78
-3939.34
-3765.42
-3647.44
-3537.83
-3556.78
140.605
-3449.44
-3335.4
-3329.51
-3210.85
-102.494
-3021.24
-187.898
-3007.41
-2782.28
-226.037
-2765.95
-2500.73
-262.545
-2176.31
-301.448
-2178.12
-1859.83
-292.21
-1536.93
-328.278
-1516.78
-1238.59
-286.324
-1213.38
-948.511
-269.337
-641.606
-279.547
-652.748
-389.128
-230.922
-406.419
-104.121
-279.342
257.958
-381.594
267.527
614.802
-363.446
1000.69
-375.558
987.833
1332.04
-337.659
1321.16
1617.73
-297.556
1889.59
-282.791
1885.99
2141.31
-263.634
2137.46
2360
-229.796
2562.94
-205.142
2559.13
2753.67
-198.951
2926.12
-174.958
2920.48
3084.76
-165.09
3079.45
3227.51
-148.805
3343.43
-120.432
3343.91
3467.99
-128.278
3469.33
3579.08
-113.927
3664.72
-83.5881
3661.21
3764.72
-102.235
3836.51
-75.2
3837.73
3916.99
-81.586
3918.6
3996.61
-80.2677
4048.85
-50.1551
4046.22
4122.07
-73.8765
4120.06
4190.97
-69.593
4228.86
-39.1779
4230.73
4300.63
-70.8224
4347.68
-45.2417
4346.5
4407.72
-59.9082
4407.07
4473.7
-65.6598
4511.5
-37.4271
4512.22
4584.74
-72.3366
4585.38
4660.24
-75.2415
4710.03
-49.1937
4709.88
4801.53
-91.2314
4875.73
-73.9421
4876.03
4977.57
-101.34
4977.63
-122.01
-302.884
87.0686
-303.078
104.752
-303.121
115.056
-303.167
124.82
-303.197
133.858
-303.211
142.396
-303.217
150.595
-303.204
158.547
-303.175
166.428
-303.12
174.109
-303.042
181.83
-302.94
189.627
-302.813
197.624
-302.651
205.861
-302.445
214.454
-302.176
223.508
-301.803
233.152
-301.286
243.488
-300.588
254.632
-299.697
267.052
-298.554
280.763
-297.096
296.061
-295.246
313.206
-292.932
332.718
-290.046
355.036
-286.479
380.796
-282.075
410.507
-276.682
444.982
-270.084
484.646
-262.114
530.683
-252.539
583.092
-241.248
643.12
-228.114
710.081
-213.311
786.465
-197.199
872.019
-180.74
970.124
-165.638
1087.4
-154.646
1234.79
-151.741
1445.92
-160.523
1763.38
-181.624
2238.89
-208.869
2849.18
-230.037
3426.98
-230.083
3625.06
-190.828
3067.89
-105.419
1786.73
-40.9554
767.818
-10.9275
1636.42
43.7302
1598.73
90.5508
1462.01
119.668
278.747
10.2209
-1578.7
-123.815
-1869.55
-67.5331
1890.8
61.3091
6564.53
88.5117
9432.76
72.5749
6855.51
50.6939
3903.07
-102.441
-110.739
-131.957
52.7579
-148.289
823.427
-152.235
1290.66
-134.624
1748.31
-97.4131
1630.25
-93.3216
815.521
-122.44
698.71
-130.061
757.712
-122.604
625.837
-111.521
178.389
-104.41
-224.175
-125.916
-769.75
-151.951
-1232.44
-167.665
-1621.13
-149.812
-1798.6
-90.4659
-1761.56
-11.2684
-1863.62
47.2956
-2317.53
95.4146
-2644
-3557.08
-301.746
89.1675
-302.214
105.115
-302.315
115.013
-302.39
124.731
-302.463
133.667
-302.5
142.139
-302.542
150.266
-302.548
158.158
-302.535
165.953
-302.486
173.585
-302.414
181.25
-302.298
188.997
-302.144
196.936
-301.935
205.12
-301.658
213.652
-301.299
222.632
-300.816
232.179
-300.192
242.39
-299.392
253.414
-298.377
265.645
-297.049
279.134
-295.41
294.151
-293.336
310.98
-290.83
330.089
-287.693
351.92
-283.919
377.043
-279.261
405.996
-273.673
439.5
-266.848
478.076
-258.742
522.739
-249.073
573.747
-237.882
632.161
-224.96
697.798
-210.706
772.838
-195.365
857.739
-180.143
956.156
-166.353
1075.26
-157.055
1227.42
-156.346
1446.64
-167.513
1776.23
-191.753
2263.78
-221.372
2879.79
-242.753
3448.88
-238.076
3621.22
-186.517
3021.4
-94.4324
1702.91
-50.3038
737.448
-6.01853
1600.95
52.827
1551.75
115.746
1412.54
159.246
256.601
27.3053
-1435.82
-94.6064
-1736.35
-27.4106
1837.89
54.3086
6484.77
88.3488
9400.36
70.9902
6873.28
44.6849
3929.07
-105.141
48.2007
-132.675
90.7487
-139.859
833.315
-152.255
1304.04
-136.666
1732.05
-89.8249
1582.2
-83.2317
807.828
-111.766
726.407
-129.025
774.954
-120.11
617.319
-113.059
168.448
-95.7216
-241.988
-114.786
-751.453
-142.429
-1204.97
-161.568
-1600.54
-149.108
-1809.43
-95.4413
-1816.1
-18.3212
-1941.92
37.4031
-2374.73
72.0332
-2680.27
-3585.75
-300.869
90.9575
-301.386
105.64
-301.554
115.175
-301.665
124.846
-301.766
133.743
-301.816
142.184
-301.863
150.287
-301.859
158.142
-301.831
165.887
-301.755
173.478
-301.647
181.093
-301.483
188.784
-301.269
196.659
-300.985
204.768
-300.615
213.21
-300.142
222.08
-299.528
231.486
-298.761
241.533
-297.793
252.372
-296.587
264.348
-295.054
277.542
-293.203
292.219
-290.908
308.655
-288.174
327.298
-284.805
348.574
-280.8
373.025
-275.914
401.192
-270.116
433.739
-263.106
471.255
-254.89
514.639
-245.187
564.327
-234.089
621.232
-221.386
685.564
-207.556
759.332
-192.857
843.544
-178.49
942.224
-165.783
1063.05
-157.807
1220.01
-158.685
1447.54
-171.581
1789.43
-197.44
2288.99
-227.926
2909.9
-248.587
3468.71
-240.016
3611.46
-180.984
2963.68
-86.9085
1610.33
-51.244
701.989
-7.97549
1557.61
50.1561
1496.02
119.56
1346.21
143.333
231.607
15.1974
-1325.11
-75.2047
-1659.23
-14.1015
1777.52
54.781
6414.17
87.5904
9367.42
69.2925
6891.11
39.5836
3958.79
-85.2711
165.034
-121.574
125.179
-133.016
844.799
-149.632
1320.95
-135.113
1717.39
-87.3965
1534.39
-84.4564
805.934
-115.048
758.307
-129.672
790.274
-116.103
604.794
-102.028
155.268
-88.8046
-253.58
-105.312
-733.456
-132.348
-1177.47
-152.075
-1581.19
-142.9
-1819.24
-96.1965
-1861.82
-27.0968
-2008.88
28.8459
-2428.45
73.7314
-2723.11
-3586
-299.563
92.1548
-300.097
106.07
-300.338
115.264
-300.494
124.825
-300.631
133.599
-300.704
141.948
-300.761
149.959
-300.755
157.731
-300.718
165.382
-300.621
172.904
-300.483
180.444
-300.276
188.062
-300.008
195.854
-299.652
203.876
-299.193
212.215
-298.611
220.96
-297.87
230.22
-296.961
240.097
-295.832
250.75
-294.455
262.477
-292.742
275.392
-290.706
289.739
-288.215
305.801
-285.279
323.987
-281.7
344.722
-277.489
368.508
-272.397
395.885
-266.421
427.48
-259.264
463.929
-250.974
506.056
-241.265
554.435
-230.287
609.915
-217.821
673.076
-204.41
745.809
-190.312
829.708
-176.729
929.063
-165.02
1052.2
-158.259
1214.52
-160.572
1450.85
-174.938
1805.3
-201.969
2316.8
-232.778
2941.96
-252.235
3488.89
-239.898
3599.75
-175.402
2903.39
-80.5296
1522.25
-51.7508
683.563
-10.1979
1522.38
45.4695
1449.82
115.271
1287.25
145.179
217.794
29.2952
-1201.7
-61.1635
-1560.33
-4.10392
1731.94
55.03
6356.37
87.1635
9336.84
68.1563
6910.57
39.6033
3987.13
-69.0278
281.076
-110.628
176.177
-128.573
865.517
-147.642
1341.37
-132.751
1702.33
-87.0383
1488.05
-89.4011
808.101
-116.916
785.622
-125.373
799.304
-110.42
591.164
-92.164
136.6
-81.513
-263.579
-95.873
-719.234
-122.344
-1150.78
-142.695
-1558.77
-136.46
-1823.21
-95.5093
-1903.21
-28.4708
-2076.34
26.3644
-2484.41
59.0913
-2757.23
-3616.71
-297.707
93.0686
-298.247
106.627
-298.548
115.574
-298.743
125.049
-298.914
133.774
-299.008
142.08
-299.077
150.051
-299.071
157.773
-299.03
165.366
-298.915
172.83
-298.751
180.306
-298.505
187.847
-298.186
195.55
-297.766
203.466
-297.227
211.68
-296.552
220.279
-295.708
229.366
-294.687
239.049
-293.436
249.48
-291.933
260.928
-290.089
273.525
-287.917
287.505
-285.282
303.143
-282.197
320.836
-278.462
340.99
-274.098
364.094
-268.857
390.682
-262.762
421.365
-255.512
456.805
-247.193
497.777
-237.516
544.947
-226.688
599.132
-214.477
661.171
-201.49
732.934
-187.977
816.43
-175.154
916.354
-164.432
1041.62
-158.875
1209.17
-162.588
1454.29
-178.297
1821.06
-206.223
2343.94
-236.977
2972.19
-254.854
3505.74
-238.836
3582.14
-170.134
2835.2
-75.6496
1427.76
-53.2828
658.186
-14.2484
1481.11
39.331
1396.16
107.99
1218.7
136.542
181.751
36.6156
-1120.35
-59.8388
-1476.56
-2.67238
1672.63
56.43
6294.67
86.9024
9305.88
67.0419
6929.8
39.9581
4013.99
-55.8655
369.677
-100.984
217.379
-125.271
889.133
-145.48
1361.68
-129.948
1686.73
-87.1473
1445.38
-92.921
815.221
-115.884
810.075
-119.5
803.709
-105.427
578.474
-83.9227
116.605
-74.0642
-272.25
-86.0635
-706.059
-111.45
-1125.16
-132.404
-1538.1
-128.661
-1827.52
-90.2973
-1940.92
-27.4207
-2137.25
24.0873
-2533.7
67.1007
-2798.36
-3599.03
-295.349
93.7045
-295.876
107.04
-296.214
115.736
-296.437
125.067
-296.632
133.654
-296.74
141.846
-296.818
149.706
-296.812
157.327
-296.765
164.814
-296.636
172.186
-296.448
179.567
-296.169
187.012
-295.807
194.61
-295.333
202.413
-294.732
210.501
-293.987
218.954
-293.069
227.878
-291.969
237.374
-290.632
247.596
-289.042
258.783
-287.108
271.083
-284.843
284.715
-282.11
299.952
-278.925
317.167
-275.088
336.759
-270.627
359.194
-265.3
385.001
-259.144
414.781
-251.861
449.206
-243.563
489.035
-233.967
535.003
-223.324
587.965
-211.395
649.003
-198.843
720.004
-185.91
803.46
-173.843
904.36
-164.101
1032.38
-159.738
1205.69
-164.817
1459.99
-181.759
1839.18
-210.377
2373.07
-240.832
3003.64
-256.943
3522.27
-237.366
3562.62
-165.222
2766.26
-71.5408
1339.22
-55.3323
648.897
-19.389
1449.44
32.4456
1352.19
99.37
1160.88
127.076
165.442
45.8124
-1034.25
-54.7262
-1369.32
1.69599
1624.52
58.1224
6238.89
87.1817
9278.17
66.1377
6951.18
40.1085
4039.9
-44.438
461.279
-92.9583
274.467
-122.508
921.602
-142.785
1383.58
-126.887
1670.95
-87.374
1405.59
-94.8558
823.075
-113.311
828.745
-112.994
804.46
-100.071
567.823
-76.5006
95.333
-66.8415
-280.637
-76.3796
-696.269
-100.181
-1100.85
-121.445
-1514.16
-119.925
-1826.19
-84.7816
-1976.15
-26.261
-2195.62
22.1777
-2583.06
61.2662
-2838.69
-3610.58
-292.625
94.2708
-293.121
107.565
-293.469
116.113
-293.702
125.361
-293.907
133.9
-294.019
142.044
-294.096
149.861
-294.082
157.426
-294.027
164.852
-293.882
172.157
-293.674
179.462
-293.368
186.818
-292.974
194.313
-292.462
201.996
-291.819
209.946
-291.029
218.242
-290.063
226.985
-288.914
236.278
-287.523
246.264
-285.878
257.167
-283.887
269.14
-281.564
282.396
-278.772
297.2
-275.529
313.913
-271.635
332.92
-267.126
354.684
-261.765
379.723
-255.601
408.638
-248.335
442.112
-240.104
480.887
-230.63
525.762
-220.203
577.622
-208.579
637.717
-196.465
708.012
-184.106
791.314
-172.782
893.091
-164.01
1023.65
-160.825
1202.57
-167.214
1465.98
-185.277
1857.13
-214.41
2401.29
-244.395
3032.92
-258.612
3535.24
-235.526
3537.63
-160.421
2691.2
-68.3823
1246.2
-57.7956
633.421
-25.3778
1413.54
25.2098
1300.03
90.2363
1094.09
119.079
125.539
57.3731
-990.288
-36.3795
-1286.69
18.1729
1566.23
59.5576
6194.38
87.9268
9249.08
65.4169
6972.92
39.5268
4065.28
-36.2859
530.24
-87.3525
320.27
-120.124
952.96
-139.776
1403.06
-123.654
1654.7
-87.3843
1369.54
-95.3651
832.505
-109.262
844.193
-105.721
801.769
-94.7408
558.436
-70.343
72.5003
-60.0056
-290.332
-66.9286
-688.625
-88.6755
-1079.2
-109.708
-1493.4
-109.796
-1826.69
-78.2862
-2007.46
-24.4741
-2247.8
20.9682
-2626.41
48.5876
-2864.7
-3635
-289.706
94.6671
-290.153
107.893
-290.487
116.263
-290.711
125.373
-290.911
133.77
-291.011
141.794
-291.076
149.493
-291.046
156.95
-290.975
164.265
-290.811
171.468
-290.581
178.669
-290.251
185.918
-289.832
193.3
-289.293
200.861
-288.623
208.68
-287.806
216.828
-286.812
225.407
-285.636
234.512
-284.214
244.285
-282.541
254.927
-280.52
266.601
-278.17
279.51
-275.35
293.912
-272.084
310.149
-268.17
328.6
-263.655
349.714
-258.301
374.002
-252.168
402.063
-244.96
434.576
-236.831
472.3
-227.514
516.079
-217.33
566.88
-206.029
626.131
-194.364
695.891
-182.578
779.394
-172.002
882.448
-164.191
1016.19
-162.162
1201.24
-169.811
1473.99
-188.883
1877.09
-218.368
2431
-247.695
3062.95
-259.873
3547.51
-233.295
3510.61
-155.659
2616.03
-66.1164
1160.52
-60.7817
632.363
-32.0634
1387.54
18.7298
1255.8
82.5893
1037.9
110.79
105.645
61.0994
-937.794
-22.2471
-1198.08
32.2982
1517.26
60.7075
6166.05
89.0535
9221.79
64.9734
6997.14
38.1826
4091.88
-32.4378
607.45
-84.4227
379.888
-117.781
989.12
-136.369
1423.33
-120.196
1638.68
-86.9947
1336.15
-94.729
840.779
-104.507
854.26
-98.2891
796.83
-88.646
551.711
-64.7017
52.8423
-53.5617
-300.061
-57.9654
-683.921
-77.3559
-1059.25
-97.6625
-1469.99
-98.5669
-1822.54
-69.2833
-2036.74
-20.5545
-2296.08
21.8193
-2669.71
61.6615
-2905.97
-3607.82
-286.748
95.0255
-287.133
108.321
-287.438
116.614
-287.637
125.665
-287.816
134.022
-287.893
142.003
-287.933
149.659
-287.877
157.063
-287.781
164.32
-287.589
171.458
-287.335
178.583
-286.978
185.743
-286.535
193.022
-285.972
200.464
-285.281
208.147
-284.444
216.138
-283.435
224.538
-282.243
233.439
-280.808
242.975
-279.124
253.333
-277.093
264.681
-274.738
277.216
-271.917
291.189
-268.655
306.931
-264.753
324.812
-260.262
345.277
-254.949
368.833
-248.88
396.077
-241.761
427.7
-233.764
464.459
-224.631
507.258
-214.706
557.117
-203.742
615.586
-192.525
684.863
-181.312
768.445
-171.478
872.685
-164.62
1009.37
-163.728
1200.36
-172.569
1482.37
-192.53
1896.84
-222.186
2459.65
-250.668
3090.6
-260.652
3556.1
-230.589
3478.4
-150.87
2536.04
-65.1002
1073.05
-64.072
625.216
-39.1985
1358.32
12.0271
1201.85
73.771
973.03
97.9238
68.0519
56.5819
-912.954
-20.9273
-1130.61
32.6829
1458.98
61.806
6133.53
90.4335
9192.3
64.8026
7021.89
37.4922
4118.44
-28.7822
666.984
-82.019
427.114
-115.566
1020.6
-132.581
1439.91
-116.534
1622.39
-86.0532
1305.89
-93.0018
849.177
-99.1017
861.901
-90.5042
789.117
-82.1133
544.92
-60.1456
31.7459
-47.5181
-312.533
-49.454
-681.794
-66.1245
-1043.1
-85.4397
-1451.03
-87.3293
-1821.34
-60.0533
-2064.35
-15.5347
-2339.34
23.6438
-2707.07
58.6917
-2939.93
-3616.15
-283.855
95.2381
-284.175
108.522
-284.438
116.687
-284.602
125.61
-284.749
133.828
-284.792
141.687
-284.799
149.224
-284.707
156.517
-284.577
163.664
-284.352
170.698
-284.066
177.717
-283.678
184.769
-283.208
191.935
-282.621
199.255
-281.909
206.809
-281.055
214.657
-280.033
222.897
-278.832
231.617
-277.393
240.947
-275.709
251.055
-273.684
262.115
-271.34
274.317
-268.534
287.906
-265.298
303.195
-261.43
320.544
-256.989
340.393
-251.741
363.238
-245.76
389.679
-238.754
420.399
-230.911
456.187
-221.982
497.988
-212.331
546.921
-201.714
604.684
-190.955
673.62
-180.318
757.639
-171.233
863.467
-165.322
1003.74
-165.541
1201.17
-175.508
1492.56
-196.229
1918.27
-225.88
2489.33
-253.311
3118.52
-260.966
3563.66
-227.511
3444.24
-146.235
2456.89
-65.0815
995.122
-67.8077
630.559
-47.2744
1339.53
3.59895
1156.4
64.9974
918.138
89.4343
50.6872
52.2561
-874.482
-24.6562
-1050.48
28.1264
1409.39
63.2183
6098.09
92.1625
9164.16
64.9231
7049.14
37.3371
4145.81
-22.5784
733.115
-77.8232
489.358
-113.292
1058.74
-128.344
1456.65
-112.628
1606.76
-84.632
1277.67
-90.4709
855.53
-93.7673
865.397
-83.4358
780.063
-74.4868
539.161
-55.4518
17.6627
-41.7962
-324.842
-41.5578
-681.954
-55.1979
-1029.05
-72.8818
-1429.92
-75.8532
-1814.86
-52.339
-2087.94
-10.8535
-2380.33
26.6907
-2745.81
51.604
-2966.76
-3621.36
-281.095
95.4197
-281.349
108.831
-281.565
116.972
-281.688
125.863
-281.797
134.049
-281.799
141.869
-281.765
149.367
-281.631
156.611
-281.461
163.706
-281.196
170.679
-280.872
177.63
-280.449
184.599
-279.948
191.67
-279.332
198.879
-278.596
206.305
-277.725
214.005
-276.689
222.075
-275.481
230.6
-274.04
239.702
-272.363
249.536
-270.351
260.28
-268.029
272.12
-265.253
285.292
-262.057
300.101
-258.241
316.9
-253.867
336.126
-248.703
358.273
-242.829
383.939
-235.956
413.825
-228.285
448.726
-219.575
489.651
-210.209
537.778
-199.948
594.914
-189.646
663.575
-179.588
747.908
-171.249
855.246
-166.276
998.847
-167.574
1202.5
-178.584
1503.13
-199.93
1939.4
-229.385
2517.8
-255.573
3143.87
-260.798
3567.45
-224.102
3405.31
-141.795
2374.23
-66.3793
917.683
-72.2275
629.977
-55.6307
1318.22
-4.62666
1102.2
59.4331
850.591
91.7628
3.78032
52.9831
-849.883
-30.389
-976.821
23.4175
1350.82
64.9954
6053.08
94.2786
9133.98
65.3124
7077.14
37.1081
4172.99
-16.9962
780.652
-74.125
540.237
-110.837
1092.9
-123.785
1468.96
-108.544
1591.19
-82.7518
1252.12
-86.9817
861.218
-87.4493
867.386
-75.9515
769.488
-66.6703
531.423
-51.0312
1.95226
-36.2513
-339.846
-34.1534
-684.301
-44.608
-1019.47
-60.0783
-1414.84
-63.6946
-1811.96
-43.6739
-2108.74
-5.01061
-2418.04
31.1633
-2780.43
61.2092
-2996.21
-3607.07
-278.489
95.4822
-278.684
108.915
-278.853
116.955
-278.933
125.731
-279.001
133.78
-278.959
141.48
-278.882
148.859
-278.701
155.995
-278.488
162.982
-278.178
169.853
-277.813
176.7
-277.35
183.565
-276.814
190.524
-276.167
197.617
-275.405
204.918
-274.512
212.482
-273.463
220.4
-272.247
228.753
-270.806
237.661
-269.138
247.261
-267.144
257.734
-264.85
269.262
-262.112
282.074
-258.967
296.46
-255.214
312.764
-250.921
331.416
-245.854
352.9
-240.101
377.818
-233.375
406.864
-225.889
440.876
-217.412
480.897
-208.341
528.214
-198.444
584.779
-188.609
653.277
-179.136
738.285
-171.553
847.517
-167.505
995.078
-169.843
1205.39
-181.815
1515.23
-203.643
1961.82
-232.723
2546.77
-257.476
3168.97
-260.203
3569.98
-220.515
3364.77
-137.707
2293.4
-68.3305
851.215
-77.0549
640.218
-63.0102
1305.11
-11.5092
1054.96
56.6188
787.636
101.761
-35.592
64.0733
-812.464
-36.4787
-875.675
17.5361
1298.09
67.0728
6002.85
96.8932
9104.72
66.0343
7107.89
36.3131
4202.4
-14.1171
836.664
-71.9938
604.313
-108.029
1131.21
-118.875
1481.37
-104.226
1576.48
-80.3757
1227.92
-82.6228
863.924
-80.4099
865.28
-68.4657
758.745
-59.0458
525.103
-45.6541
-7.43607
-30.7067
-353.566
-27.304
-688.056
-34.7158
-1012.03
-47.4937
-1398.5
-50.7185
-1805.14
-32.0995
-2127.74
4.07287
-2453.87
36.9027
-2814.88
55.8404
-3017.8
-3619.03
-276.049
95.5264
-276.191
109.124
-276.315
117.166
-276.353
125.929
-276.381
133.951
-276.295
141.615
-276.173
148.956
-275.946
156.046
-275.686
162.984
-275.331
169.801
-274.922
176.585
-274.418
183.374
-273.844
190.247
-273.163
197.236
-272.372
204.419
-271.457
211.846
-270.392
219.606
-269.168
227.774
-267.726
236.468
-266.069
245.812
-264.095
255.985
-261.834
267.168
-259.138
279.582
-256.051
293.512
-252.37
309.292
-248.167
327.35
-243.208
348.174
-237.589
372.364
-231.021
400.636
-223.733
433.84
-215.5
473.086
-206.732
519.725
-197.207
575.812
-187.842
644.233
-178.959
729.795
-172.127
840.85
-168.993
992.072
-172.331
1208.79
-185.166
1527.66
-207.332
1983.79
-235.848
2574.33
-258.988
3191.27
-259.176
3568.68
-216.77
3320
-133.84
2210
-70.5856
785.484
-82.3709
645.28
-70.5359
1288.22
-21.761
1002.57
49.3593
712.772
106.845
-108.286
80.9496
-798.509
-35.8393
-768.523
14.25
1243.39
69.1787
5944.63
99.9976
9073.06
67.1352
7139.77
35.3396
4232.99
-13.2068
878.766
-70.6339
655.511
-104.874
1162.51
-113.698
1489.42
-99.6916
1562.09
-77.4706
1206.01
-77.4553
865.475
-72.7645
862.185
-60.2384
747.265
-51.02
517.529
-39.9125
-19.0781
-24.9555
-368.947
-20.7239
-692.903
-25.3679
-1008.61
-35.2752
-1389.05
-37.6345
-1803.59
-19.553
-2147.14
14.8933
-2487.75
44.7373
-2843.58
71.3895
-3044.52
-3589.35
-273.763
95.4796
-273.863
109.119
-273.947
117.066
-273.945
125.717
-273.935
133.599
-273.807
141.139
-273.642
148.361
-273.369
155.34
-273.065
162.171
-272.664
168.887
-272.212
175.569
-271.665
182.255
-271.053
189.021
-270.338
195.898
-269.518
202.962
-268.579
210.259
-267.498
217.875
-266.265
225.882
-264.824
234.393
-263.179
243.523
-261.228
253.442
-259.001
264.335
-256.353
276.417
-253.329
289.958
-249.725
305.285
-245.62
322.818
-240.777
343.035
-235.298
366.542
-228.9
394.047
-221.819
426.448
-213.838
464.89
-205.382
510.833
-196.24
566.483
-187.357
634.919
-179.074
721.395
-173.003
834.642
-170.767
990.138
-175.052
1213.61
-188.658
1541.35
-211.014
2006.66
-238.793
2601.88
-260.14
3212.84
-257.758
3566.01
-212.951
3274.18
-130.405
2129.3
-73.3095
730.937
-89.2742
661.877
-79.2061
1278.34
-34.924
961.455
42.8498
639.408
117.109
-178.333
102.777
-785.963
-21.7042
-646.075
21.105
1201.25
70.9645
5894.15
103.664
9040.79
68.695
7174.62
34.1253
4267.27
-13.3019
931.232
-69.0136
716.921
-101.284
1196.76
-108.152
1497.74
-94.8552
1548.6
-74.2281
1184.97
-72.0148
863.724
-65.5455
855.827
-52.7289
735.614
-43.4327
511.145
-33.1813
-26.4642
-18.8704
-382.082
-14.359
-698.25
-16.6397
-1006.77
-23.3524
-1378.75
-24.5173
-1798.88
-7.794
-2164.74
25.1864
-2520.76
52.9766
-2873.65
74.3946
-3069.59
-3582.3
-271.628
95.4281
-271.693
109.26
-271.741
117.22
-271.704
125.872
-271.658
133.728
-271.491
141.233
-271.286
148.416
-270.97
155.35
-270.623
162.134
-270.178
168.797
-269.685
175.422
-269.097
182.04
-268.449
188.726
-267.7
195.51
-266.851
202.467
-265.889
209.638
-264.793
217.11
-263.552
224.946
-262.111
233.26
-260.478
242.154
-258.552
251.795
-256.363
262.363
-253.766
274.072
-250.809
287.18
-247.289
302.013
-243.287
318.983
-238.567
338.577
-233.239
361.399
-227.018
388.189
-220.155
419.857
-212.437
457.62
-204.303
503.006
-195.551
558.332
-187.156
626.891
-179.481
714.166
-174.165
829.538
-172.81
988.971
-177.996
1218.91
-192.266
1555.28
-214.665
2028.93
-241.518
2627.87
-260.897
3231.47
-255.925
3559.6
-209.052
3224.92
-127.399
2047.21
-76.5956
677.627
-96.3702
675.259
-85.4793
1262.44
-44.2164
916.82
38.6819
552.935
138.241
-296.449
123.565
-780.627
-7.14594
-527.842
26.2966
1163.59
72.7576
5844.57
107.962
9004.83
70.7654
7210.79
33.0248
4303.6
-14.1512
972.341
-67.6675
764.566
-97.7434
1223.73
-102.32
1501.52
-89.771
1535.67
-70.8362
1166.43
-66.4245
860.974
-58.0387
849.073
-44.3984
723.161
-34.1832
502.845
-25.3862
-35.6745
-12.2979
-395.722
-7.89718
-703.489
-8.1922
-1007.89
-11.6022
-1375.7
-11.256
-1799.9
3.93944
-2181.51
34.9673
-2551.32
61.4443
-2899.22
71.5415
-3080.18
-3587.45
-269.631
95.3141
-269.67
109.205
-269.689
117.061
-269.619
125.604
-269.542
133.317
-269.338
140.696
-269.096
147.758
-268.74
154.582
-268.354
161.258
-267.869
167.821
-267.336
174.346
-266.711
180.864
-266.028
187.447
-265.248
194.123
-264.373
200.966
-263.39
208.015
-262.279
215.352
-261.032
223.038
-259.594
231.183
-257.976
239.88
-256.078
249.288
-253.93
259.587
-251.387
270.988
-248.501
283.74
-245.069
298.157
-241.177
314.65
-236.586
333.691
-231.415
355.898
-225.381
381.998
-218.744
412.956
-211.299
450.019
-203.496
494.83
-195.147
549.862
-187.255
618.618
-180.198
707.049
-175.646
824.883
-175.152
988.826
-181.178
1225.5
-196.013
1570.18
-218.3
2051.68
-244.052
2653.31
-261.288
3248.8
-253.713
3551.61
-205.139
3175.09
-124.772
1968.46
-79.8722
634.544
-102.751
697.785
-90.6935
1249.77
-54.0424
882.395
16.9803
485.681
102.339
-379.413
83.8222
-763.191
-25.1575
-426.496
18.0086
1120.86
75.0199
5787.17
112.975
8967.21
73.4298
7250.24
31.6085
4345.16
-16.5074
1024.92
-66.8688
820.186
-94.1181
1252.55
-96.2063
1504.94
-84.4033
1523.58
-67.4507
1149.05
-61.0899
855.167
-50.8267
839.033
-36.5124
710.119
-25.3332
494.756
-16.7041
-42.1011
-5.24765
-405.948
-1.31425
-708.701
-0.115183
-1010.01
-0.16768
-1372.14
2.51967
-1799.18
17.327
-2197.82
46.822
-2581.31
72.2525
-2927.58
91.5634
-3104.22
-3544.52
-267.776
95.2019
-267.794
109.308
-267.785
117.171
-267.686
125.724
-267.579
133.412
-267.341
140.755
-267.065
147.777
-266.673
154.556
-266.251
161.187
-265.728
167.7
-265.16
174.171
-264.501
180.626
-263.787
187.137
-262.978
193.728
-262.08
200.472
-261.078
207.405
-259.957
214.61
-258.706
222.138
-257.273
230.101
-255.672
238.583
-253.805
247.736
-251.701
257.732
-249.217
268.784
-246.407
281.132
-243.068
295.087
-239.292
311.051
-234.839
329.511
-229.834
351.084
-223.997
376.533
-217.597
406.836
-210.436
443.32
-202.975
487.699
-195.04
542.561
-187.659
611.64
-181.23
701.107
-177.435
821.333
-177.78
989.406
-184.594
1232.47
-199.881
1585.17
-221.906
2073.64
-246.365
2676.95
-261.28
3263.01
-251.091
3539.98
-201.147
3122.68
-122.388
1889.23
-83.5937
593.07
-109.36
717.444
-99.0614
1234.56
-71.1495
851.391
-13.7901
424.628
49.0178
-464.706
111.585
-833.42
3.67105
-341.574
6.97362
1114.32
77.6067
5713.51
118.703
8925.48
76.7744
7291.16
30.1305
4390.28
-20.5652
1069.98
-66.4459
860.561
-89.949
1272.81
-89.9969
1504.21
-78.8347
1512.09
-64.0321
1134.81
-55.9164
848.957
-43.0069
827.968
-27.0265
695.691
-11.3543
481.483
-5.0756
-47.7949
2.31495
-413.752
5.65129
-712.981
7.93987
-1013.83
10.892
-1375.41
16.3855
-1805.35
32.1194
-2215.53
60.9178
-2609.89
84.4417
-2950.59
97.5821
-3118.45
-3530.43
-266.06
95.0429
-266.063
109.224
-266.03
116.963
-265.904
125.401
-265.769
132.941
-265.5
140.155
-265.192
147.055
-264.766
153.722
-264.311
160.245
-263.754
166.657
-263.154
173.028
-262.463
179.385
-261.722
185.794
-260.888
192.28
-259.971
198.914
-258.953
205.731
-257.824
212.81
-256.573
220.199
-255.15
228.005
-253.57
236.309
-251.737
245.251
-249.682
255
-247.261
265.772
-244.533
277.796
-241.294
291.375
-237.64
306.909
-233.333
324.875
-228.503
345.903
-222.873
370.744
-216.72
400.435
-209.854
436.328
-202.748
480.259
-195.242
534.976
-188.39
604.44
-182.598
695.297
-179.567
818.225
-180.726
990.96
-188.26
1240.59
-203.893
1600.85
-225.494
2095.66
-248.48
2699.51
-260.899
3275.37
-248.085
3526.6
-197.18
3070.18