/*--------------------------------*- C++ -*----------------------------------*\
| =========                 |                                                 |
| \\      /  F ield         | OpenFOAM: The Open Source CFD Toolbox           |
|  \\    /   O peration     | Version:  4.1                                   |
|   \\  /    A nd           | Web:      www.OpenFOAM.org                      |
|    \\/     M anipulation  |                                                 |
\*---------------------------------------------------------------------------*/
FoamFile
{
    version     2.0;
    format      ascii;
    class       volVectorField;
    location    "7";
    object      U;
}
// * * * * * * * * * * * * * * * * * * * * * * * * * * * * * * * * * * * * * //

dimensions      [0 1 -1 0 0 0 0];

internalField   nonuniform List<vector> 
6785
(
(9.24717e-15 0.852191 15.7947)
(1.31402e-14 -4.89462 12.1215)
(-2.29303e-15 -4.19555 12.1321)
(2.75055e-15 -3.60125 11.9966)
(8.81371e-16 -3.00476 11.8778)
(1.5228e-16 -2.55328 11.6992)
(2.05802e-15 -2.20891 11.4769)
(2.46079e-16 -1.96615 11.2116)
(-6.97751e-16 -1.79868 10.916)
(3.31415e-15 -1.71251 10.5882)
(1.58237e-16 -1.83759 10.1561)
(-5.01282e-16 -2.28584 9.53765)
(6.7172e-16 -2.51324 8.96382)
(-3.69891e-17 -1.06571 8.9137)
(-2.09256e-16 1.76584 7.47124)
(1.38181e-14 -5.35019 22.4926)
(9.15715e-15 -14.6049 21.3939)
(-1.12845e-15 -13.271 20.341)
(2.99873e-15 -11.7699 19.5064)
(1.79297e-15 -11.1562 18.5042)
(3.12075e-16 -10.6596 17.5172)
(3.45888e-15 -10.0903 16.5712)
(1.36725e-15 -9.52517 15.6234)
(-7.65395e-16 -8.96561 14.6636)
(2.76715e-15 -8.36749 13.6944)
(7.44651e-16 -7.75727 12.7176)
(-5.26581e-16 -7.30343 11.719)
(2.63583e-15 -7.01691 10.6237)
(3.05692e-16 -5.73076 9.16029)
(-9.00446e-17 -2.30471 4.58317)
(1.57617e-14 -7.71548 23.9789)
(1.5886e-14 -16.7731 24.6733)
(7.19998e-17 -13.737 23.937)
(3.74098e-15 -12.3065 22.6248)
(1.82885e-15 -11.6451 21.2413)
(6.01838e-16 -10.8145 20.0012)
(4.66622e-15 -9.94087 18.7737)
(3.00792e-15 -9.10082 17.5247)
(-1.19513e-16 -8.28417 16.2655)
(1.19264e-15 -7.47612 15.0263)
(4.19513e-16 -6.66858 13.8177)
(-8.40423e-17 -5.8429 12.4307)
(4.53003e-17 -4.81577 10.2769)
(6.51727e-16 -3.12854 6.68721)
(-1.89511e-17 -0.83333 1.69206)
(1.60901e-14 -8.50195 22.0434)
(1.03709e-14 -16.6217 24.333)
(7.99338e-16 -12.9309 23.7968)
(2.95969e-15 -12.1544 21.9985)
(1.57907e-15 -11.421 20.5028)
(1.12676e-15 -10.4948 19.1724)
(2.07114e-15 -9.63517 17.817)
(9.09412e-16 -8.82502 16.4594)
(7.31297e-16 -8.05519 15.1235)
(8.31967e-16 -7.32555 13.8171)
(-1.0768e-15 -6.55481 12.4409)
(2.08708e-15 -5.49462 10.587)
(3.14841e-17 -3.79105 7.51646)
(-1.36449e-15 -1.49997 2.77541)
(-4.76046e-16 0.150825 -1.77126)
(1.43092e-14 -8.47477 19.7427)
(1.2295e-14 -16.3607 24.3131)
(-7.92362e-16 -13.101 23.66)
(2.556e-15 -12.629 21.5365)
(-4.2602e-17 -11.8579 20.0248)
(-5.86957e-17 -10.9589 18.6639)
(2.26268e-15 -10.1715 17.2591)
(1.61192e-15 -9.40457 15.8717)
(5.58558e-17 -8.65444 14.5244)
(6.6558e-16 -7.93253 13.2147)
(-4.46224e-16 -7.16835 11.8313)
(2.9602e-15 -6.12015 10.001)
(-8.18639e-16 -4.43047 7.16434)
(-5.37186e-15 -2.31208 3.29727)
(4.75063e-16 -0.792114 0.323805)
(1.32675e-14 -8.01832 17.542)
(1.34515e-14 -16.0193 24.5271)
(3.05307e-15 -13.6477 24.0463)
(2.2924e-15 -12.9962 21.7653)
(3.1044e-16 -12.1289 20.2155)
(1.24027e-15 -11.2276 18.847)
(2.02262e-15 -10.4421 17.4345)
(-7.23671e-16 -9.65244 16.0441)
(2.55754e-16 -8.86418 14.6943)
(5.76959e-16 -8.09738 13.3831)
(-2.69716e-16 -7.3022 12.0196)
(-7.77807e-17 -6.29118 10.2872)
(3.85597e-15 -4.7416 7.73047)
(-3.27612e-16 -2.76439 4.38174)
(5.66089e-15 -0.955582 1.30485)
(1.2137e-14 -7.32823 15.2277)
(1.54525e-14 -15.4882 24.3491)
(4.90641e-15 -14.0311 24.4229)
(2.355e-15 -13.1323 22.0691)
(1.85438e-15 -12.1498 20.44)
(7.29557e-16 -11.2414 19.055)
(1.85745e-15 -10.4419 17.6448)
(5.18417e-16 -9.62612 16.2593)
(1.42962e-15 -8.81657 14.9089)
(9.18001e-16 -8.03385 13.5947)
(2.84986e-16 -7.23093 12.2411)
(1.65967e-15 -6.24916 10.5567)
(-1.76481e-16 -4.80024 8.12123)
(-1.30129e-15 -2.92858 4.96309)
(5.06485e-15 -1.02123 1.81257)
(8.55819e-15 -6.53332 12.9739)
(1.52565e-14 -14.8364 23.7925)
(6.55795e-15 -14.2815 24.6702)
(2.61068e-15 -13.2497 22.3261)
(9.71503e-16 -12.1798 20.5827)
(1.56247e-15 -11.2781 19.1665)
(1.66695e-15 -10.4779 17.76)
(7.98847e-16 -9.65672 16.379)
(1.62962e-15 -8.84885 15.0279)
(8.05114e-16 -8.06955 13.7117)
(5.08444e-16 -7.27044 12.3643)
(1.79921e-15 -6.30506 10.7121)
(3.0093e-17 -4.91273 8.35201)
(-9.74684e-16 -3.10732 5.29111)
(1.81595e-15 -1.13719 2.06635)
(9.0413e-15 -5.72672 11.0002)
(1.53081e-14 -14.1454 23.0248)
(7.25332e-15 -14.475 24.8475)
(3.0167e-15 -13.4263 22.6313)
(1.39594e-15 -12.2797 20.7608)
(1.21721e-15 -11.3742 19.2999)
(1.8994e-15 -10.5727 17.8975)
(9.54672e-16 -9.75127 16.52)
(-6.98132e-16 -8.94497 15.1669)
(6.78015e-16 -8.16559 13.8475)
(5.75978e-16 -7.36585 12.5024)
(4.79472e-16 -6.41019 10.8768)
(2.6832e-16 -5.06211 8.58775)
(-8.51132e-16 -3.3098 5.60972)
(-2.0757e-15 -1.26953 2.29956)
(4.78688e-15 -4.9637 9.32678)
(1.52152e-14 -13.4365 22.1224)
(8.15423e-15 -14.5874 24.9374)
(2.67329e-15 -13.6145 22.9694)
(1.34234e-15 -12.3957 20.9804)
(6.50238e-16 -11.4682 19.4606)
(1.01542e-15 -10.6607 18.0589)
(9.46842e-16 -9.83975 16.6847)
(-2.02742e-15 -9.03387 15.3297)
(-1.57335e-16 -8.25228 14.0072)
(6.56112e-16 -7.45349 12.6625)
(-4.58446e-16 -6.50685 11.0564)
(-2.8834e-15 -5.18949 8.82219)
(-1.88966e-16 -3.47346 5.89985)
(-3.10637e-15 -1.36536 2.50933)
(4.27934e-15 -4.30568 7.97307)
(1.57481e-14 -12.7512 21.1805)
(7.05255e-15 -14.623 24.9387)
(3.11382e-15 -13.8043 23.3214)
(1.42236e-15 -12.5373 21.247)
(-1.59198e-15 -11.58 19.6568)
(3.45343e-15 -10.7639 18.2469)
(2.13669e-15 -9.94361 16.8728)
(-3.95272e-16 -9.1364 15.5144)
(-3.66154e-16 -8.35061 14.1864)
(1.82132e-15 -7.5485 12.8388)
(-3.6913e-15 -6.61007 11.2485)
(-1.06895e-15 -5.32775 9.06725)
(-8.66941e-15 -3.65274 6.20018)
(-4.05593e-15 -1.47681 2.73627)
(4.41923e-15 -3.65152 6.62381)
(1.41041e-14 -12.0005 20.0605)
(8.33034e-15 -14.5395 24.7567)
(4.12924e-15 -13.9311 23.5545)
(2.13386e-15 -12.6206 21.4104)
(-7.37642e-16 -11.6186 19.7452)
(6.39966e-17 -10.795 18.338)
(1.28474e-15 -9.98364 16.9786)
(2.7273e-16 -9.18649 15.6317)
(-1.06106e-16 -8.40944 14.3134)
(-2.52969e-17 -7.61982 12.9745)
(-3.08301e-15 -6.69586 11.4014)
(1.18712e-15 -5.43029 9.25158)
(-6.72039e-15 -3.77389 6.40422)
(-3.51865e-15 -1.53647 2.86984)
(3.9155e-15 -3.32296 6.07651)
(1.32979e-14 -11.4704 19.2213)
(1.05504e-14 -14.57 24.6472)
(5.40725e-15 -14.303 24.0276)
(2.69095e-15 -13.0603 21.9336)
(-1.5263e-16 -12.0284 20.1572)
(-1.07429e-15 -11.1763 18.6656)
(1.81096e-15 -10.3481 17.2596)
(-2.03495e-15 -9.52445 15.8719)
(-2.06116e-16 -8.71375 14.5161)
(5.64647e-16 -7.88888 13.1555)
(-2.8485e-15 -6.95028 11.595)
(-1.39782e-15 -5.71806 9.53514)
(-3.06351e-15 -4.07443 6.75929)
(-4.71609e-15 -1.74842 3.15519)
(4.83503e-16 -1.86086 2.53785)
(1.05447e-14 -9.90473 16.4879)
(1.05102e-14 -13.8903 23.398)
(4.12237e-15 -13.9181 23.4228)
(9.98099e-16 -12.5339 21.254)
(-3.05663e-16 -11.4194 19.4944)
(1.6105e-16 -10.6603 18.2685)
(1.83668e-15 -9.97086 17.1234)
(-2.41078e-16 -9.2924 15.9682)
(5.73238e-17 -8.62199 14.8058)
(5.76953e-16 -7.93749 13.593)
(-2.03206e-15 -7.13313 12.2009)
(-1.36545e-15 -6.00671 10.2433)
(-2.93884e-15 -4.54079 7.70259)
(-3.15049e-15 -2.17308 4.25121)
(3.77725e-15 -4.76411 9.86739)
(1.245e-14 -11.0837 18.9887)
(1.30449e-14 -15.2136 25.0572)
(8.18011e-15 -16.6157 26.0875)
(4.20143e-15 -16.1688 24.3456)
(1.20191e-15 -15.0711 21.9503)
(-1.04935e-16 -13.8272 19.6524)
(2.95206e-16 -12.6197 17.6684)
(-2.22186e-16 -11.4169 15.8435)
(-3.94984e-16 -10.245 14.1385)
(-2.65066e-16 -9.0789 12.6073)
(-1.0328e-15 -7.83617 10.8689)
(-1.46092e-15 -6.36849 8.96038)
(-3.24173e-15 -4.15907 6.00463)
(-2.65935e-15 -0.853976 1.26677)
(-5.57608e-16 0.69683 -3.15819)
(-8.13969e-16 0.344377 -3.34588)
(-5.99956e-16 0.361306 -2.84466)
(-5.62235e-16 0.703563 -2.80011)
(-5.15957e-16 1.22714 -2.66244)
(-7.86644e-16 1.4999 -3.6399)
(-5.84659e-16 1.43633 -2.90337)
(-5.54879e-16 1.77223 -2.8145)
(-5.80912e-16 2.07148 -2.68838)
(-5.41121e-16 3.06034 -3.5378)
(-2.5729e-16 2.41868 -2.70334)
(-1.77949e-16 2.69407 -2.50087)
(-5.02944e-16 4.32203 -3.20398)
(-3.84225e-16 3.14508 -2.36164)
(-3.65282e-16 3.5252 -2.26631)
(-3.17601e-16 3.59334 -2.17637)
(-7.12002e-16 5.20552 -2.74744)
(-4.40005e-16 3.88204 -1.98956)
(-3.81411e-16 4.02479 -1.84207)
(-7.4925e-16 6.08461 -2.2823)
(-5.10173e-16 4.34763 -1.60676)
(-5.00712e-16 4.71799 -1.54927)
(-1.7506e-16 4.67359 -1.5059)
(-8.14289e-16 6.41038 -1.91276)
(-5.55149e-16 4.7347 -1.34626)
(-5.37906e-16 5.13408 -1.29778)
(-2.69626e-16 5.08816 -1.26979)
(1.98958e-16 6.58551 -1.50253)
(-8.82762e-16 5.08381 -1.02772)
(-5.82402e-16 5.09651 -0.987832)
(-7.47743e-16 6.87094 -1.02055)
(-6.78127e-16 5.15777 -0.680998)
(-7.3058e-16 5.38572 -0.660077)
(-6.16434e-16 5.3203 -0.67229)
(-8.50861e-16 6.45732 -0.555774)
(-6.24852e-16 5.11999 -0.377313)
(-5.72648e-16 5.0965 -0.408797)
(-7.87976e-16 6.27977 -0.0783033)
(-5.0605e-16 4.86619 -0.113299)
(-5.09645e-16 4.9949 -0.110945)
(-5.11578e-16 4.93864 -0.168862)
(-6.83333e-16 5.60704 0.312355)
(-4.42744e-16 4.40057 0.071998)
(-4.38118e-16 4.51911 0.0693328)
(-3.91077e-16 4.48681 -0.0031772)
(-5.06657e-16 4.84477 0.592304)
(-3.88186e-16 3.79828 0.199414)
(-4.03954e-16 3.7886 0.0867511)
(-4.07177e-16 4.02819 0.846487)
(-2.60652e-16 3.13563 0.263423)
(-3.43585e-16 3.15886 0.251084)
(-3.7933e-16 3.16122 0.149331)
(-5.08073e-16 3.33989 1.05519)
(-3.64928e-16 2.49186 0.386245)
(-3.83726e-16 2.53384 0.377626)
(-2.73781e-16 2.54019 0.264687)
(-3.60362e-16 2.6535 1.32661)
(-2.07719e-16 1.87618 0.540772)
(-3.11312e-16 1.8569 0.38693)
(-3.65462e-16 1.86006 1.47393)
(-1.47675e-16 1.13627 0.413263)
(-1.59596e-16 1.08465 0.37178)
(-3.45921e-16 1.15827 0.305896)
(8.92721e-15 1.16307 0.672)
(9.37074e-16 0.0513139 -0.688727)
(8.69156e-16 0.225628 -0.779297)
(-4.98723e-16 0.564912 0.58662)
(-1.20365e-15 -1.07727 2.25206)
(-8.62317e-16 -0.927395 2.28919)
(-9.12398e-16 -0.786461 2.48157)
(-1.35346e-15 -2.17072 5.63029)
(-9.78542e-16 -2.80933 5.46603)
(-9.96996e-16 -2.98293 5.55403)
(-9.83271e-16 -3.09632 5.75094)
(-1.2421e-15 -5.89694 9.53659)
(-6.2855e-16 -5.25659 7.72202)
(-6.89432e-16 -5.48371 8.1926)
(-7.74042e-16 -9.08294 12.4524)
(-4.07909e-16 -8.00888 9.48781)
(-4.92151e-16 -8.39871 10.1644)
(-8.13571e-16 -9.15647 11.6797)
(-6.68544e-16 -9.05248 11.6287)
(-6.29e-16 -9.23642 11.9219)
(2.59728e-16 -11.6371 15.3511)
(-1.56878e-16 -10.1181 13.1352)
(-9.12398e-17 -10.5103 13.8758)
(-7.9668e-17 -10.4974 14.023)
(8.97883e-18 -10.5721 14.1469)
(7.46836e-17 -10.659 14.294)
(1.52063e-16 -10.7198 14.473)
(3.21457e-16 -10.7935 14.8184)
(5.4291e-16 -10.9457 15.2513)
(1.19723e-15 -11.8627 17.1738)
(8.87583e-16 -11.4483 15.7311)
(9.93053e-16 -11.6013 15.9819)
(1.06097e-15 -11.5858 16.0979)
(1.17494e-15 -11.7523 16.4774)
(1.20185e-15 -11.7205 16.4977)
(1.26107e-15 -11.7893 16.637)
(1.32761e-15 -11.8308 16.7564)
(1.39346e-15 -11.9083 16.9147)
(2.18259e-15 -12.2931 18.484)
(1.94127e-15 -12.1319 17.3129)
(2.01708e-15 -12.2198 17.4979)
(2.06928e-15 -12.2607 17.5602)
(2.13653e-15 -12.3 17.6736)
(2.21988e-15 -12.3431 17.8544)
(2.32173e-15 -12.411 18.0581)
(2.39892e-15 -12.3997 18.1022)
(2.47702e-15 -12.4522 18.2009)
(2.57189e-15 -12.511 18.2931)
(3.72872e-15 -12.2405 18.8911)
(2.91512e-15 -12.3372 18.1994)
(3.03229e-15 -12.3538 18.2913)
(3.09652e-15 -12.3885 18.3135)
(3.18674e-15 -12.4166 18.3607)
(3.27758e-15 -12.3992 18.4273)
(3.41947e-15 -12.4392 18.6392)
(3.54406e-15 -12.4454 18.6816)
(3.66448e-15 -12.4859 18.6483)
(4.59574e-15 -11.3716 17.8675)
(3.92938e-15 -11.8447 17.7828)
(4.09352e-15 -11.7833 17.873)
(4.18266e-15 -11.8222 17.9696)
(4.29543e-15 -11.7574 17.8509)
(4.41591e-15 -11.7451 17.7895)
(4.55494e-15 -11.7005 17.7105)
(4.72366e-15 -11.6615 17.6668)
(5.02402e-15 -11.7401 17.8282)
(5.42309e-15 -9.61564 15.2872)
(5.12184e-15 -10.6561 16.3319)
(5.24756e-15 -10.4789 16.0426)
(5.35062e-15 -10.441 15.9191)
(5.69359e-15 -10.3884 15.9181)
(5.75773e-15 -10.268 15.6889)
(5.75365e-15 -10.1356 15.3643)
(5.76216e-15 -10.0556 15.0274)
(5.75334e-15 -9.96159 14.617)
(5.31933e-15 -7.26777 11.0194)
(6.11906e-15 -8.74361 13.1216)
(5.91367e-15 -8.40607 12.4427)
(5.79896e-15 -8.33387 12.0684)
(5.66079e-15 -8.17736 11.5532)
(5.59289e-15 -8.08515 11.0042)
(5.94271e-15 -7.78117 10.2926)
(5.46638e-15 -7.68278 9.84223)
(5.17967e-15 -7.45225 9.25043)
(4.78603e-15 -7.25267 8.60764)
(2.2798e-15 -4.25026 3.98885)
(3.96512e-15 -6.32636 6.22959)
(3.42868e-15 -5.82748 5.21461)
(3.22761e-15 -5.83135 4.97953)
(2.90248e-15 -5.58437 4.48126)
(2.5111e-15 -5.50333 3.93954)
(1.67248e-15 -5.29789 2.93875)
(8.05819e-16 -4.92491 1.90847)
(9.52062e-16 -4.86186 1.87522)
(-7.63565e-16 -1.95783 0.357048)
(6.54029e-16 -4.80625 0.962108)
(5.30224e-16 -4.5127 0.548294)
(-1.27795e-16 -2.15318 -1.32756)
(-6.77537e-17 -5.26293 -0.3013)
(3.14451e-17 -4.23031 -0.784336)
(1.97881e-16 -3.71423 -0.739432)
(7.24418e-16 -4.75391 -0.917449)
(1.54013e-17 -3.1562 -0.81317)
(1.47803e-16 -4.18763 -1.15235)
(-1.02607e-15 -3.45373 -1.06071)
(-2.94896e-16 -2.56354 -0.919855)
(-6.11206e-17 -3.28624 -1.30717)
(-2.45634e-16 -2.66109 -1.2436)
(-3.62206e-16 -1.86763 -1.05663)
(-5.27788e-16 -2.83177 -1.36917)
(-4.55142e-16 -1.37776 -1.22753)
(-4.74809e-16 -1.63123 -1.33992)
(-1.11373e-17 -1.87381 -1.12307)
(-9.1869e-16 -0.913936 -1.42617)
(-1.27471e-15 -1.11138 -1.13156)
(-9.13164e-16 -0.993263 -1.52057)
(-1.76558e-16 0.185469 -1.29163)
(-1.35172e-16 0.126979 -1.94351)
(-1.54614e-17 -0.0745379 -1.3023)
(4.30879e-16 0.858617 -1.53699)
(4.0927e-15 1.4363 -1.77235)
(-1.0599e-15 0.880739 -1.10299)
(-8.23218e-16 1.77573 -1.46647)
(-6.17889e-16 1.70927 -1.07562)
(-8.0959e-16 2.07908 -1.27115)
(-8.85271e-16 2.82128 -1.36578)
(-6.1323e-16 1.90199 -0.88324)
(-7.5676e-16 3.35672 -1.13569)
(-5.64469e-16 2.73141 -0.841732)
(-6.27878e-16 3.22644 -0.991452)
(-2.28254e-15 3.92682 -1.03307)
(-6.45752e-16 2.76987 -0.686992)
(-7.32327e-16 3.93194 -0.799935)
(-9.68613e-16 4.79955 -0.838337)
(-6.47443e-16 3.14235 -0.546842)
(-9.51483e-16 4.98308 -0.703914)
(-6.86633e-16 3.82235 -0.527598)
(-8.70252e-16 4.49747 -0.630954)
(-9.41969e-16 5.28407 -0.651464)
(-5.75804e-16 3.58168 -0.429372)
(-1.11435e-15 5.69182 -0.55086)
(-5.85685e-16 4.34536 -0.419932)
(-6.40703e-16 5.02914 -0.517364)
(-1.31678e-15 5.72459 -0.524619)
(-8.99345e-16 4.06376 -0.353374)
(-8.57339e-16 5.43818 -0.416777)
(-1.09748e-15 6.34366 -0.418081)
(-7.53948e-16 4.20986 -0.28495)
(-8.25617e-16 6.4239 -0.366287)
(-6.91438e-16 4.83843 -0.290104)
(-7.81621e-16 5.63832 -0.364334)
(-1.16225e-15 6.44625 -0.368506)
(-8.35183e-16 4.38498 -0.241899)
(-1.21906e-15 6.80171 -0.327781)
(-8.19326e-16 5.14663 -0.252643)
(-1.02106e-15 5.9116 -0.344512)
(-1.20557e-15 6.62349 -0.350587)
(-8.28541e-16 4.7252 -0.22561)
(-1.17651e-15 6.22067 -0.287165)
(-1.12027e-15 7.1706 -0.290716)
(-7.15528e-16 4.80737 -0.192506)
(-8.49696e-16 7.21198 -0.273805)
(-7.25448e-16 5.44275 -0.217731)
(-7.71975e-16 6.30378 -0.301574)
(-1.13951e-15 7.17842 -0.324243)
(-8.14836e-16 4.91724 -0.202273)
(-1.17329e-15 7.54809 -0.317674)
(-8.2696e-16 5.71749 -0.234039)
(-1.0401e-15 6.55494 -0.356259)
(-1.13294e-15 7.35231 -0.406937)
(-7.52786e-16 5.29876 -0.252431)
(-9.46471e-16 6.8938 -0.35437)
(-1.16505e-15 7.97961 -0.433082)
(-7.6115e-16 5.4158 -0.271723)
(-1.11599e-15 8.11473 -0.462977)
(-7.91893e-16 6.08808 -0.336503)
(-1.11214e-15 7.32012 -0.569896)
(-1.14853e-15 -0.10697 2.01683)
(-1.14876e-15 -0.127908 2.02033)
(-1.14878e-15 -0.139797 2.0206)
(-1.14885e-15 -0.151094 2.02099)
(-1.14889e-15 -0.161602 2.02125)
(-1.14892e-15 -0.171544 2.02138)
(-1.14892e-15 -0.181174 2.02144)
(-1.14891e-15 -0.190662 2.02143)
(-1.14887e-15 -0.200203 2.0213)
(-1.14881e-15 -0.209551 2.02103)
(-1.14872e-15 -0.219074 2.02058)
(-1.14861e-15 -0.228793 2.01998)
(-1.14845e-15 -0.238851 2.01922)
(-1.14823e-15 -0.249268 2.01828)
(-1.14794e-15 -0.260158 2.01707)
(-1.14755e-15 -0.271657 2.01553)
(-1.14705e-15 -0.283976 2.01348)
(-1.14639e-15 -0.297233 2.01057)
(-1.14556e-15 -0.311646 2.00654)
(-1.14451e-15 -0.327821 2.00131)
(-1.14318e-15 -0.345806 1.99464)
(-1.14152e-15 -0.366016 1.98609)
(-1.13947e-15 -0.388785 1.97518)
(-1.13696e-15 -0.414746 1.96145)
(-1.1339e-15 -0.444639 1.94429)
(-1.1302e-15 -0.479177 1.923)
(-1.12572e-15 -0.51923 1.8967)
(-1.12034e-15 -0.565736 1.86433)
(-1.11389e-15 -0.619546 1.8247)
(-1.10621e-15 -0.681924 1.77649)
(-1.09712e-15 -0.753252 1.71832)
(-1.08646e-15 -0.834919 1.64898)
(-1.0741e-15 -0.92654 1.56757)
(-1.05999e-15 -1.03099 1.47409)
(-1.04424e-15 -1.14839 1.37005)
(-1.02717e-15 -1.28285 1.25937)
(-1.00951e-15 -1.44302 1.15059)
(-9.92523e-16 -1.6425 1.05794)
(-9.78225e-16 -1.92474 1.00438)
(-9.68937e-16 -2.34704 1.01885)
(-9.65629e-16 -2.98041 1.12198)
(-9.65022e-16 -3.80211 1.29938)
(-9.58658e-16 -4.59583 1.48521)
(-9.37088e-16 -4.90468 1.58036)
(-8.95623e-16 -4.23123 1.482)
(-8.34079e-16 -2.57642 1.0695)
(-7.60588e-16 -1.2019 0.355566)
(-7.16539e-16 -2.36122 0.164567)
(-7.37677e-16 -2.35233 -0.0108435)
(-7.3762e-16 -2.19741 -0.576707)
(-7.33653e-16 -0.783472 -0.6547)
(-7.14434e-16 2.23484 -0.779746)
(-6.20322e-16 2.5555 0.540983)
(-5.85204e-16 -2.51394 1.07214)
(-5.54781e-16 -8.80963 -0.159818)
(-4.13918e-16 -12.5724 -0.662667)
(-3.21022e-16 -9.10074 -0.518605)
(-2.73266e-16 -5.18883 -0.457037)
(-3.14914e-16 0.279006 0.130365)
(-3.49439e-16 -0.151864 0.853084)
(-3.45816e-16 -1.03095 0.945434)
(-3.43619e-16 -1.63272 1.03747)
(-3.41227e-16 -2.28513 0.993183)
(-3.31569e-16 -2.1846 0.79509)
(-3.16085e-16 -1.05372 0.497991)
(-3.14087e-16 -0.816837 0.757517)
(-3.16574e-16 -0.918579 0.875468)
(-3.18461e-16 -0.778937 0.857341)
(-3.20641e-16 -0.202784 0.764582)
(-3.20871e-16 0.310816 0.682978)
(-3.19731e-16 1.05924 0.756289)
(-3.19384e-16 1.67835 0.924924)
(-3.20748e-16 2.18083 1.09752)
(-3.21535e-16 2.38303 1.14024)
(-3.18532e-16 2.29978 0.869909)
(-3.12176e-16 2.38561 0.320256)
(-3.06451e-16 3.03011 -0.163476)
(-3.51122e-16 3.48479 -0.468603)
(-1.27261e-16 4.71604 -0.906348)
(-1.14866e-15 -0.124028 2.00346)
(-1.14893e-15 -0.149442 2.01411)
(-1.14889e-15 -0.164675 2.01491)
(-1.14895e-15 -0.179197 2.01571)
(-1.14895e-15 -0.192584 2.01621)
(-1.14894e-15 -0.205224 2.01657)
(-1.14891e-15 -0.217296 2.01683)
(-1.14886e-15 -0.228883 2.01701)
(-1.14878e-15 -0.240208 2.01699)
(-1.14867e-15 -0.25122 2.01678)
(-1.14853e-15 -0.262172 2.01638)
(-1.14835e-15 -0.273126 2.01575)
(-1.14811e-15 -0.284273 2.01487)
(-1.1478e-15 -0.295698 2.01368)
(-1.1474e-15 -0.307593 2.01209)
(-1.14689e-15 -0.320113 2.01003)
(-1.14624e-15 -0.333407 2.0073)
(-1.14544e-15 -0.347635 2.00365)
(-1.14444e-15 -0.362929 1.99894)
(-1.14319e-15 -0.37988 1.99297)
(-1.14166e-15 -0.398464 1.98525)
(-1.13979e-15 -0.419082 1.97547)
(-1.13753e-15 -0.442063 1.96321)
(-1.1348e-15 -0.468224 1.94809)
(-1.13152e-15 -0.497943 1.92945)
(-1.1276e-15 -0.532279 1.90663)
(-1.12292e-15 -0.571667 1.87877)
(-1.11735e-15 -0.617422 1.84491)
(-1.11074e-15 -0.669784 1.80382)
(-1.10294e-15 -0.730735 1.75436)
(-1.09377e-15 -0.799878 1.6954)
(-1.0831e-15 -0.8792 1.62608)
(-1.07081e-15 -0.967203 1.54562)
(-1.05686e-15 -1.06762 1.45468)
(-1.04136e-15 -1.17952 1.35502)
(-1.02465e-15 -1.3076 1.2511)
(-1.00745e-15 -1.46034 1.15085)
(-9.91005e-16 -1.65294 1.06836)
(-9.77314e-16 -1.93104 1.02823)
(-9.68602e-16 -2.35105 1.05853)
(-9.65647e-16 -2.98161 1.18092)
(-9.64947e-16 -3.78629 1.37614)
(-9.58002e-16 -4.53874 1.569)
(-9.3555e-16 -4.77257 1.64947)
(-8.92941e-16 -3.98268 1.49789)
(-8.29975e-16 -2.23974 1.00975)
(-7.56982e-16 -0.891312 0.355512)
(-7.16492e-16 -2.02091 0.175797)
(-7.37583e-16 -1.93955 -0.0598318)
(-7.37769e-16 -1.72401 -0.649692)
(-7.34962e-16 -0.000834932 -1.00178)
(-7.19925e-16 1.92646 -0.818427)
(-6.25488e-16 2.43042 0.251368)
(-5.84829e-16 -2.53533 0.8382)
(-5.54856e-16 -8.76967 -0.188034)
(-4.14702e-16 -12.5827 -0.639864)
(-3.21632e-16 -9.16556 -0.515341)
(-2.73499e-16 -5.21135 -0.457991)
(-3.12929e-16 0.026905 0.141092)
(-3.50667e-16 0.00990291 0.918387)
(-3.45594e-16 -1.14826 0.907704)
(-3.43567e-16 -1.79359 1.0134)
(-3.40812e-16 -2.36953 1.00278)
(-3.30741e-16 -2.16787 0.775774)
(-3.15624e-16 -1.11217 0.438171)
(-3.1428e-16 -1.00561 0.682938)
(-3.16878e-16 -1.08167 0.846958)
(-3.18985e-16 -0.87965 0.855171)
(-3.21322e-16 -0.25183 0.78951)
(-3.21526e-16 0.306352 0.620311)
(-3.20017e-16 1.00793 0.685302)
(-3.19117e-16 1.61959 0.851214)
(-3.20158e-16 2.14642 1.03923)
(-3.20762e-16 2.40679 1.12033)
(-3.17382e-16 2.3842 0.895031)
(-3.11882e-16 2.58702 0.351103)
(-3.07979e-16 3.14685 -0.0999816)
(-3.52041e-16 3.55069 -0.405418)
(-1.28624e-16 4.76602 -0.687458)
(-1.14824e-15 -0.122327 1.99881)
(-1.14865e-15 -0.142871 2.00846)
(-1.14863e-15 -0.156112 2.00965)
(-1.1487e-15 -0.169289 2.01077)
(-1.14871e-15 -0.181399 2.01149)
(-1.14869e-15 -0.192869 2.01199)
(-1.14864e-15 -0.203865 2.01231)
(-1.14855e-15 -0.214536 2.01246)
(-1.14843e-15 -0.225102 2.01236)
(-1.14827e-15 -0.235451 2.01201)
(-1.14805e-15 -0.245852 2.0114)
(-1.14777e-15 -0.256376 2.0105)
(-1.14742e-15 -0.267167 2.00925)
(-1.14697e-15 -0.278287 2.00762)
(-1.14642e-15 -0.289862 2.00548)
(-1.14575e-15 -0.302012 2.00273)
(-1.14492e-15 -0.31487 1.99917)
(-1.14392e-15 -0.328565 1.99462)
(-1.1427e-15 -0.343277 1.98889)
(-1.14122e-15 -0.359547 1.98171)
(-1.13945e-15 -0.377467 1.97265)
(-1.13733e-15 -0.397393 1.96147)
(-1.13482e-15 -0.419674 1.94778)
(-1.13184e-15 -0.444908 1.93116)
(-1.12831e-15 -0.473695 1.91097)
(-1.12415e-15 -0.506764 1.8866)
(-1.11925e-15 -0.544836 1.85721)
(-1.11348e-15 -0.588815 1.82187)
(-1.1067e-15 -0.639454 1.7794)
(-1.09879e-15 -0.698007 1.72892)
(-1.08957e-15 -0.764924 1.66944)
(-1.07892e-15 -0.841507 1.60031)
(-1.06674e-15 -0.927763 1.52079)
(-1.05301e-15 -1.02654 1.43192)
(-1.03784e-15 -1.13876 1.33581)
(-1.02159e-15 -1.26964 1.23686)
(-1.00495e-15 -1.42906 1.14314)
(-9.89188e-16 -1.63463 1.06848)
(-9.76242e-16 -1.93208 1.03831)
(-9.68225e-16 -2.37933 1.07976)
(-9.65677e-16 -3.03682 1.21418)
(-9.64828e-16 -3.85967 1.41844)
(-9.57145e-16 -4.60732 1.6132)
(-9.33596e-16 -4.8085 1.68362)
(-8.89584e-16 -3.96185 1.48934)
(-8.25021e-16 -2.16727 0.940181)
(-7.52887e-16 -0.928453 0.337695)
(-7.1645e-16 -2.10334 0.193909)
(-7.37475e-16 -2.02642 -0.0493274)
(-7.37934e-16 -1.82766 -0.622159)
(-7.36271e-16 -0.288015 -1.04737)
(-7.16656e-16 1.86962 -0.612943)
(-6.25056e-16 2.24945 0.209335)
(-5.84218e-16 -2.4276 0.649838)
(-5.54974e-16 -8.58513 -0.192158)
(-4.15612e-16 -12.5234 -0.638648)
(-3.22358e-16 -9.18973 -0.505543)
(-2.73783e-16 -5.26192 -0.443382)
(-3.09071e-16 -0.139207 0.0870116)
(-3.50841e-16 -0.14365 0.822327)
(-3.45349e-16 -1.13861 0.84811)
(-3.43491e-16 -1.77316 0.979693)
(-3.40241e-16 -2.31926 0.998657)
(-3.29645e-16 -2.0865 0.759217)
(-3.15088e-16 -1.08181 0.429076)
(-3.14652e-16 -1.01721 0.701529)
(-3.17362e-16 -1.06505 0.872224)
(-3.19615e-16 -0.823169 0.848142)
(-3.22022e-16 -0.219471 0.718054)
(-3.22021e-16 0.329607 0.57213)
(-3.20227e-16 0.990272 0.628816)
(-3.18874e-16 1.58923 0.783273)
(-3.19703e-16 2.12243 0.969903)
(-3.20446e-16 2.42286 1.06711)
(-3.17199e-16 2.45444 0.873575)
(-3.10929e-16 2.59101 0.380718)
(-3.07261e-16 3.17112 -0.0188289)
(-3.5175e-16 3.59903 -0.37368)
(-1.27976e-16 4.78697 -0.601031)
(-1.14698e-15 -0.122488 1.99184)
(-1.14757e-15 -0.141407 1.99966)
(-1.1476e-15 -0.15385 2.00137)
(-1.14773e-15 -0.166646 2.00282)
(-1.14778e-15 -0.178402 2.00382)
(-1.14778e-15 -0.189561 2.00451)
(-1.14774e-15 -0.20025 2.00495)
(-1.14764e-15 -0.21059 2.00512)
(-1.14749e-15 -0.220771 2.00498)
(-1.14727e-15 -0.230776 2.00454)
(-1.14698e-15 -0.240809 2.00376)
(-1.14661e-15 -0.250948 2.00261)
(-1.14615e-15 -0.261338 2.00105)
(-1.14558e-15 -0.272052 1.999)
(-1.14489e-15 -0.283214 1.99633)
(-1.14406e-15 -0.294944 1.99292)
(-1.14307e-15 -0.307387 1.98857)
(-1.14188e-15 -0.320674 1.98312)
(-1.14045e-15 -0.335003 1.97638)
(-1.13876e-15 -0.350773 1.96809)
(-1.13677e-15 -0.368148 1.95785)
(-1.13443e-15 -0.387479 1.94545)
(-1.13169e-15 -0.409142 1.93049)
(-1.12848e-15 -0.43367 1.91254)
(-1.12473e-15 -0.461632 1.89098)
(-1.12036e-15 -0.493713 1.86521)
(-1.11525e-15 -0.530651 1.83443)
(-1.10931e-15 -0.573282 1.79777)
(-1.1024e-15 -0.622447 1.75418)
(-1.0944e-15 -0.679245 1.70294)
(-1.08515e-15 -0.744411 1.64316)
(-1.07455e-15 -0.819068 1.57438)
(-1.06252e-15 -0.90385 1.49597)
(-1.04904e-15 -1.00128 1.40927)
(-1.03424e-15 -1.11321 1.31657)
(-1.01846e-15 -1.24522 1.22221)
(-1.00243e-15 -1.40804 1.13443)
(-9.8737e-16 -1.62139 1.06709)
(-9.75193e-16 -1.93145 1.04596)
(-9.67879e-16 -2.3969 1.09733)
(-9.65715e-16 -3.07226 1.24129)
(-9.6467e-16 -3.90401 1.45095)
(-9.56193e-16 -4.64113 1.64432)
(-9.31486e-16 -4.80891 1.70316)
(-8.86007e-16 -3.91118 1.47011)
(-8.19917e-16 -2.08628 0.874591)
(-7.48932e-16 -0.916331 0.327942)
(-7.16442e-16 -2.05122 0.209403)
(-7.3737e-16 -1.96975 -0.0367148)
(-7.38034e-16 -1.77144 -0.575735)
(-7.37311e-16 -0.31651 -1.00461)
(-7.17201e-16 1.68281 -0.714423)
(-6.27099e-16 2.14984 0.120021)
(-5.83297e-16 -2.33469 0.545681)
(-5.55131e-16 -8.50108 -0.200086)
(-4.1653e-16 -12.465 -0.641873)
(-3.23059e-16 -9.20088 -0.496412)
(-2.74053e-16 -5.29755 -0.429911)
(-3.07061e-16 -0.287605 0.023649)
(-3.50619e-16 -0.196618 0.7212)
(-3.45145e-16 -1.12992 0.800707)
(-3.43377e-16 -1.76928 0.960591)
(-3.39564e-16 -2.27632 0.988735)
(-3.28441e-16 -2.00811 0.742465)
(-3.1464e-16 -1.06703 0.4466)
(-3.15139e-16 -1.02987 0.735856)
(-3.17865e-16 -1.05829 0.868924)
(-3.20207e-16 -0.794191 0.804848)
(-3.22689e-16 -0.199551 0.658844)
(-3.22587e-16 0.34302 0.523835)
(-3.20522e-16 0.967258 0.571594)
(-3.18639e-16 1.55194 0.715696)
(-3.19163e-16 2.09417 0.902365)
(-3.20058e-16 2.42877 1.01211)
(-3.17294e-16 2.51238 0.849297)
(-3.11165e-16 2.75508 0.394523)
(-3.073e-16 3.30619 -0.0156553)
(-3.5099e-16 3.65598 -0.353324)
(-1.26353e-16 4.80118 -0.586566)
(-1.14475e-15 -0.123265 1.98066)
(-1.1455e-15 -0.141568 1.98716)
(-1.14561e-15 -0.153665 1.98931)
(-1.14582e-15 -0.166364 1.99102)
(-1.14592e-15 -0.178048 1.99228)
(-1.14597e-15 -0.189179 1.99315)
(-1.14594e-15 -0.199863 1.9937)
(-1.14585e-15 -0.210204 1.99391)
(-1.14569e-15 -0.220352 1.99376)
(-1.14544e-15 -0.230314 1.99324)
(-1.1451e-15 -0.24028 1.99231)
(-1.14466e-15 -0.250326 1.99095)
(-1.14412e-15 -0.260591 1.98909)
(-1.14345e-15 -0.271156 1.98666)
(-1.14265e-15 -0.282147 1.98351)
(-1.1417e-15 -0.293687 1.97952)
(-1.14057e-15 -0.305923 1.97452)
(-1.13923e-15 -0.318989 1.96836)
(-1.13764e-15 -0.333087 1.96083)
(-1.13578e-15 -0.348578 1.9517)
(-1.13362e-15 -0.365629 1.94061)
(-1.13111e-15 -0.384558 1.92733)
(-1.12819e-15 -0.40575 1.91142)
(-1.1248e-15 -0.42974 1.8925)
(-1.12088e-15 -0.457057 1.86992)
(-1.11634e-15 -0.488357 1.84312)
(-1.11108e-15 -0.524353 1.81131)
(-1.10501e-15 -0.565871 1.77372)
(-1.09801e-15 -0.61377 1.72939)
(-1.08995e-15 -0.669115 1.67772)
(-1.08071e-15 -0.732741 1.61792)
(-1.07019e-15 -0.805759 1.54971)
(-1.05832e-15 -0.889136 1.47259)
(-1.04511e-15 -0.985353 1.38815)
(-1.03069e-15 -1.09685 1.2988)
(-1.01541e-15 -1.22959 1.2089)
(-9.99976e-16 -1.39507 1.12692)
(-9.85628e-16 -1.61488 1.06687)
(-9.74213e-16 -1.93579 1.05464)
(-9.67579e-16 -2.41671 1.1156)
(-9.65759e-16 -3.10669 1.26783)
(-9.64472e-16 -3.94317 1.48063)
(-9.55173e-16 -4.66525 1.66982)
(-9.29286e-16 -4.7937 1.71468)
(-8.82321e-16 -3.83902 1.44431)
(-8.14814e-16 -1.99526 0.814177)
(-7.45236e-16 -0.928417 0.334938)
(-7.16484e-16 -2.00394 0.234473)
(-7.37274e-16 -1.89223 -0.0154522)
(-7.38094e-16 -1.66932 -0.521884)
(-7.38348e-16 -0.27192 -0.938533)
(-7.16038e-16 1.53616 -0.701309)
(-6.28702e-16 2.0222 0.0377865)
(-5.83344e-16 -2.29474 0.574189)
(-5.55362e-16 -8.43838 -0.217035)
(-4.17441e-16 -12.4234 -0.647978)
(-3.23729e-16 -9.22266 -0.488045)
(-2.74304e-16 -5.33221 -0.41712)
(-3.06047e-16 -0.432896 -0.0316706)
(-3.50287e-16 -0.255272 0.636725)
(-3.44998e-16 -1.16096 0.76218)
(-3.43214e-16 -1.79741 0.944836)
(-3.38798e-16 -2.25609 0.97443)
(-3.27206e-16 -1.95123 0.724022)
(-3.14323e-16 -1.08035 0.467535)
(-3.15633e-16 -1.06438 0.752552)
(-3.18327e-16 -1.07016 0.845256)
(-3.20767e-16 -0.781224 0.759087)
(-3.23381e-16 -0.171517 0.614365)
(-3.23186e-16 0.355065 0.477074)
(-3.20879e-16 0.948685 0.513212)
(-3.18419e-16 1.51679 0.644046)
(-3.18554e-16 2.06511 0.828665)
(-3.19505e-16 2.43399 0.949671)
(-3.17523e-16 2.56232 0.810304)
(-3.12543e-16 2.80697 0.370773)
(-3.07523e-16 3.3356 -0.0114137)
(-3.50037e-16 3.70433 -0.330391)
(-1.24879e-16 4.80815 -0.456684)
(-1.14155e-15 -0.124305 1.96565)
(-1.14244e-15 -0.14221 1.97128)
(-1.14263e-15 -0.153969 1.97369)
(-1.14291e-15 -0.166498 1.97556)
(-1.14308e-15 -0.178037 1.977)
(-1.14317e-15 -0.189042 1.97799)
(-1.14319e-15 -0.199614 1.97862)
(-1.14312e-15 -0.209864 1.97886)
(-1.14296e-15 -0.21993 1.97869)
(-1.1427e-15 -0.22982 1.9781)
(-1.14234e-15 -0.23971 1.97705)
(-1.14187e-15 -0.249668 1.9755)
(-1.14128e-15 -0.259817 1.97339)
(-1.14056e-15 -0.270233 1.97064)
(-1.13969e-15 -0.281036 1.9671)
(-1.13865e-15 -0.292345 1.96267)
(-1.13743e-15 -0.304313 1.95719)
(-1.13598e-15 -0.317084 1.95051)
(-1.13428e-15 -0.330866 1.94243)
(-1.1323e-15 -0.345993 1.93273)
(-1.13001e-15 -0.362649 1.92105)
(-1.12737e-15 -0.381133 1.90716)
(-1.12431e-15 -0.401814 1.89061)
(-1.1208e-15 -0.425211 1.87102)
(-1.11675e-15 -0.45185 1.84777)
(-1.11209e-15 -0.482356 1.82029)
(-1.10674e-15 -0.517427 1.78785)
(-1.10059e-15 -0.557868 1.74974)
(-1.09353e-15 -0.604562 1.70508)
(-1.08547e-15 -0.658522 1.65335)
(-1.07627e-15 -0.720683 1.59386)
(-1.06587e-15 -0.792157 1.52649)
(-1.05419e-15 -0.874228 1.4509)
(-1.04126e-15 -0.969386 1.36883)
(-1.02723e-15 -1.08064 1.28285)
(-1.01245e-15 -1.21443 1.19735)
(-9.97621e-16 -1.38312 1.12111)
(-9.83977e-16 -1.61013 1.06834)
(-9.7331e-16 -1.94279 1.06491)
(-9.67325e-16 -2.43989 1.13512)
(-9.65803e-16 -3.14445 1.29466)
(-9.64233e-16 -3.9843 1.50904)
(-9.54091e-16 -4.68745 1.69225)
(-9.27018e-16 -4.76867 1.72168)
(-8.78557e-16 -3.74579 1.41572)
(-8.09733e-16 -1.86673 0.759369)
(-7.41799e-16 -0.893457 0.349167)
(-7.1658e-16 -1.95661 0.264239)
(-7.37251e-16 -1.82722 0.0109021)
(-7.3825e-16 -1.58095 -0.461032)