/*--------------------------------*- C++ -*----------------------------------*\
| =========                 |                                                 |
| \\      /  F ield         | OpenFOAM: The Open Source CFD Toolbox           |
|  \\    /   O peration     | Version:  4.1                                   |
|   \\  /    A nd           | Web:      www.OpenFOAM.org                      |
|    \\/     M anipulation  |                                                 |
\*---------------------------------------------------------------------------*/
FoamFile
{
    version     2.0;
    format      ascii;
    class       volScalarField;
    location    "15";
    object      p;
}
// * * * * * * * * * * * * * * * * * * * * * * * * * * * * * * * * * * * * * //

dimensions      [0 2 -2 0 0 0 0];

internalField   nonuniform List<scalar> 
6785
(
574.771
499.986
451.225
399.12
352.299
307.79
266.148
226.865
189.847
154.867
121.012
88.6613
61.1189
30.8209
-7.70071
-22.4048
-40.5357
-32.6324
-38.9034
-39.7956
-42.4304
-43.9328
-44.9873
-45.1742
-44.4103
-42.6871
-40.1284
-36.1483
-31.3934
-28.2357
-24.5898
-28.8615
-19.1278
-22.4422
-18.6014
-18.3773
-16.9646
-16.225
-15.4818
-14.9667
-14.5951
-14.4754
-14.2219
-13.7472
-11.4813
18.8309
17.5857
21.824
17.8221
20.2017
18.5162
18.8372
18.3568
18.2574
17.9794
17.6581
17.2933
17.578
18.1747
20.2536
25.221
24.1031
26.834
24.2763
27.107
26.1066
27.4929
27.6983
28.411
28.8609
29.3028
29.6435
29.9605
30.4729
30.7662
23.6919
20.8837
22.7674
19.9786
21.7181
20.0249
20.7433
20.0353
20.0378
19.3925
18.4581
17.2209
16.1991
14.9494
12.5301
-3.28525
-7.35276
-7.08945
-10.6234
-10.8297
-13.9532
-15.1724
-17.8863
-19.8549
-22.0237
-23.5247
-24.4794
-25.423
-26.4976
-26.7283
-26.8788
-29.6576
-28.7646
-31.3335
-30.8105
-32.921
-33.1595
-34.5236
-35.1053
-35.53
-35.2351
-34.5042
-33.5261
-32.5581
-30.6759
-18.0629
-18.0961
-16.1042
-16.7796
-14.9309
-14.998
-13.7586
-13.1632
-12.2329
-11.3493
-10.3361
-9.38108
-8.15033
-7.10973
-4.85321
1.04996
2.20318
4.13594
4.26386
6.16681
6.72218
8.1224
9.11456
10.2697
11.3684
12.4946
13.523
14.6598
15.5163
16.6961
15.7202
16.8813
18.264
18.3669
19.7876
20.1339
21.0978
21.7364
22.4642
23.1505
23.8627
24.5302
25.3316
25.9255
26.8593
26.609
27.7752
28.7334
28.8208
29.9164
30.1287
30.8789
31.3384
31.9168
32.4994
33.122
33.7526
34.5023
35.0361
35.8971
44.4204
44.5509
44.4848
44.3195
44.8289
44.5177
44.6428
44.274
43.8994
43.324
42.7463
42.4642
42.4686
42.7182
42.854
42.6424
42.6462
40.9375
38.7811
37.1701
35.4717
34.6539
33.8116
33.3918
32.962
32.6634
32.4203
32.2024
32.2213
31.4801
71.9859
68.4933
61.3014
54.3988
49.2807
43.8529
39.7205
36.4056
33.1492
30.5929
28.2553
26.1552
24.4345
23.5141
22.0447
37.3257
37.8264
38.3445
38.2802
38.5464
39.4362
40.2495
40.0726
39.961
39.8464
40.5723
40.0607
39.7534
40.0892
39.4086
39.1644
39.2966
39.3334
38.219
38.5544
38.6278
37.6336
37.4257
38.1312
38.0846
37.0087
36.8664
37.6486
37.935
36.6193
37.3715
37.911
36.9524
36.8585
37.6974
38.2437
37.1959
37.8321
38.5805
37.9105
37.8889
38.5866
39.144
38.6052
38.6425
39.2259
39.6448
39.1541
39.6837
40.0203
39.746
39.9062
40.4548
41.0479
40.9133
41.0627
41.4641
42.3939
42.3837
42.4977
43.4345
43.4417
43.3783
43.314
43.9707
44.1501
45.0117
45.2508
44.6342
46.0862
47.8515
43.0999
41.3161
45.0117
47.8878
30.3203
40.9208
45.7979
8.19107
22.4849
32.4222
33.4946
37.9777
32.4648
35.4579
42.0816
43.2293
45.0059
46.2672
46.7852
45.9064
48.1384
54.44
40.3693
40.5543
39.0794
37.7672
36.5343
35.1629
32.6368
34.4513
44.4811
26.3163
25.3863
22.6425
21.4621
22.1183
21.3976
19.1494
17.0666
17.2702
31.1593
19.0665
17.4405
15.248
12.8576
13.0375
14.3743
13.0347
10.0317
15.4092
16.8988
18.1242
17.6715
15.0975
12.8719
10.7008
11.7202
8.94681
15.8745
20.9688
16.4215
16.1172
14.992
12.5515
10.9195
9.01571
2.99882
8.33622
20.4643
16.0924
14.7112
12.2718
9.42688
7.28661
6.63006
5.50628
2.87439
-1.49695
10.2127
7.17836
7.58901
7.38695
6.28554
1.78136
1.19266
3.74572
-9.24079
7.08544
4.28489
1.99331
8.73948
2.88071
5.80416
4.74575
7.195
9.93938
5.7203
8.50412
10.2892
7.58509
8.73769
8.11374
9.19076
10.6968
8.50255
9.30332
8.74029
9.51361
10.4507
8.51049
9.50853
10.0624
8.77742
9.13338
8.75445
9.06876
9.52564
8.48765
8.71355
8.38405
8.58073
8.80904
7.91789
8.20828
8.2777
7.6605
7.70884
7.48132
7.497
7.5292
7.02988
7.02749
6.82911
6.8035
6.74843
6.31594
6.32847
6.21198
5.8643
5.79393
5.63061
5.57128
5.43416
5.01183
4.99614
4.96365
4.69643
4.60821
4.34152
4.1758
4.15104
3.84366
3.6818
3.58632
3.40283
3.3031
3.05049
2.89144
2.7743
2.59454
2.46591
2.18803
1.94772
1.83803
1.49473
1.16298
0.892222
0.505338
0.204142
0.00220651
0.00410614
0.00594039
0.00754664
0.00904886
0.010507
0.0118775
0.0132404
0.014574
0.0159548
0.0174127
0.0190126
0.0207731
0.0227051
0.0248061
0.0270775
0.0295091
0.0320845
0.0347664
0.0374845
0.0401308
0.0425604
0.0446143
0.0461709
0.047222
0.0479501
0.0487473
0.0501157
0.052432
0.0556684
0.059227
0.061973
0.062492
0.0596337
0.0530369
0.0432089
0.0311388
0.0177381
0.00347168
-0.011686
-0.027943
-0.0452395
-0.064265
-0.0926748
-0.157657
-0.194381
-0.743647
-0.743983
-0.669942
-0.801583
-0.939734
-1.07493
-1.19812
-1.28948
-1.31759
-1.27979
-1.17029
-1.01904
-0.760461
-0.46887
-0.188115
0.0882227
0.287785
0.437979
0.53882
0.594157
0.614637
0.603241
0.573934
0.518011
0.453361
0.376943
0.278004
0.26459
0.129227
0.130231
0.189438
0.117489
0.304793
0.00576848
0.0105937
0.0155983
0.0199482
0.0238772
0.0277149
0.0312409
0.0347418
0.038129
0.0416375
0.0453471
0.0494452
0.0539782
0.0589694
0.064405
0.0702847
0.0765762
0.0832336
0.0901503
0.0971187
0.103795
0.109658
0.114
0.115971
0.114718
0.109648
0.100752
0.0888296
0.0754168
0.062354
0.0512502
0.0430148
0.037569
0.0340738
0.0313597
0.0281143
0.022999
0.014736
0.00216694
-0.0157612
-0.0401998
-0.0731588
-0.117169
-0.170496
-0.275493
-0.407173
-1.11469
-1.15811
-1.05262
-1.27876
-1.50619
-1.73227
-1.93291
-2.06377
-2.07942
-1.97646
-1.75322
-1.44455
-1.01725
-0.559524
-0.114024
0.305706
0.63381
0.88901
1.06437
1.16625
1.20555
1.18675
1.12716
1.02131
0.890706
0.747884
0.57804
0.570029
0.36064
0.397708
0.487538
0.370731
1.34547
0.00913538
0.0175359
0.0261608
0.033645
0.040442
0.0470665
0.0531758
0.0592367
0.0651092
0.0711843
0.0776005
0.0846737
0.0924842
0.101072
0.110418
0.120521
0.131331
0.142773
0.154672
0.16669
0.178271
0.188594
0.196579
0.201001
0.200752
0.195257
0.184911
0.171261
0.156634
0.143273
0.132475
0.124107
0.116651
0.108086
0.0968106
0.0817578
0.0621215
0.0370045
0.00522239
-0.0347331
-0.0847037
-0.147319
-0.226392
-0.327195
-0.534738
-0.784298
-1.11406
-1.26002
-1.1417
-1.40641
-1.67094
-1.93531
-2.16667
-2.31226
-2.3206
-2.18933
-1.91796
-1.54556
-1.05583
-0.540088
-0.0353022
0.433598
0.806969
1.10161
1.30547
1.42549
1.47263
1.45166
1.38074
1.25473
1.10051
0.93213
0.751048
0.753592
0.610188
0.656322
0.816533
0.634436
1.79275
0.0121424
0.0239246
0.0359556
0.0464547
0.0559412
0.0652007
0.0737193
0.0821658
0.0903374
0.0987847
0.107704
0.117538
0.1284
0.140341
0.153332
0.167373
0.182393
0.198293
0.21483
0.231533
0.247621
0.261932
0.27293
0.278865
0.278154
0.269977
0.25487
0.234935
0.213289
0.192882
0.175436
0.161012
0.148177
0.134969
0.119664
0.100663
0.0762573
0.0444908
0.00315876
-0.050163
-0.1182
-0.204581
-0.314538
-0.455973
-0.736162
-1.1055
-1.06931
-1.52927
-1.35167
-1.64793
-1.96984
-2.289
-2.5669
-2.74177
-2.74994
-2.58968
-2.26105
-1.81175
-1.22646
-0.612355
-0.00910563
0.54983
0.996492
1.35083
1.59683
1.7425
1.80091
1.77776
1.69447
1.54391
1.36223
1.16037
0.959932
0.962141
0.851877
0.917083
1.11686
0.903129
2.03
0.0148839
0.0302324
0.0456802
0.0592881
0.0715273
0.0834979
0.0944929
0.105391
0.115922
0.126799
0.138279
0.150938
0.164918
0.180283
0.196994
0.215051
0.234367
0.254815
0.276087
0.297572
0.318252
0.336601
0.350608
0.35802
0.35688
0.34633
0.327337
0.302834
0.276837
0.252823
0.232476
0.215415
0.199605
0.182552
0.162119
0.13633
0.103103
0.0600594
0.00446416
-0.0667651
-0.157078
-0.270715
-0.414152
-0.599815
-0.94258
-1.37484
-0.987088
-1.85707
-1.6028
-1.92556
-2.31694
-2.70067
-3.03427
-3.24427
-3.25257
-3.05825
-2.66315
-2.12295
-1.42688
-0.698554
0.0188087
0.681137
1.21383
1.63775
1.93294
2.10878
2.18043
2.15478
2.05686
1.87779
1.66299
1.42108
1.19222
1.18693
1.09373
1.17534
1.41517
1.17994
2.22025
0.0173557
0.0363134
0.0550569
0.0717774
0.0867194
0.101379
0.11481
0.128119
0.14096
0.154211
0.168193
0.183619
0.200661
0.219387
0.239748
0.261745
0.285271
0.310178
0.336086
0.362234
0.387339
0.409473
0.426106
0.434464
0.43225
0.418654
0.39516
0.365536
0.334568
0.306061
0.281579
0.260511
0.240668
0.219471
0.194574
0.163515
0.123523
0.0714212
0.0036497
-0.0836878
-0.194808
-0.334563
-0.510482
-0.736528
-1.11337
-1.55247
-0.960675
-2.19748
-1.84553
-2.17522
-2.63515
-3.08136
-3.46846
-3.71143
-3.71761
-3.48805
-3.02774
-2.39928
-1.5985
-0.763308
0.0605138
0.817949
1.43056
1.91886
2.25929
2.4627
2.54611
2.51777
2.40582
2.19972
1.95389
1.67364
1.41917
1.40627
1.33237
1.43343
1.70444
1.46419
2.49972
0.01959
0.0422801
0.0642236
0.0840996
0.101732
0.119097
0.134965
0.150687
0.165827
0.181437
0.197907
0.21609
0.236186
0.258263
0.282265
0.308187
0.335906
0.36525
0.395757
0.426496
0.45588
0.481531
0.50038
0.50917
0.505402
0.488514
0.460694
0.426602
0.391681
0.359839
0.332349
0.308312
0.285345
0.260663
0.231555
0.195004
0.147599
0.0854877
0.00441791
-0.100211
-0.233271
-0.400094
-0.608977
-0.873432
-1.26832
-1.7055
-1.1079
-2.56404
-2.11136
-2.42044
-2.95188
-3.46131
-3.90241
-4.17923
-4.18263
-3.91686
-3.39113
-2.67478
-1.76928
-0.827016
0.103047
0.955246
1.64716
2.19874
2.58329
2.81331
2.90794
2.877
2.75175
2.51958
2.24429
1.92621
1.64719
1.62527
1.56999
1.69029
1.98962
1.7559
2.78269
0.0215976
0.0481254
0.0731386
0.0961972
0.116481
0.136552
0.154834
0.172949
0.190356
0.208288
0.227204
0.24811
0.27123
0.296626
0.32423
0.354033
0.385891
0.419603
0.454608
0.489766
0.52314
0.551855
0.572309
0.580862
0.574997
0.554604
0.522669
0.484638
0.446331
0.411494
0.381033
0.353904
0.327725
0.299639
0.2666
0.224983
0.170655
0.0989989
0.00500568
-0.116632
-0.271392
-0.465028
-0.706262
-1.00608
-1.41148
-1.87795
-1.49092
-2.89017
-2.40332
-2.66783
-3.27834
-3.85424
-4.35167
-4.6652
-4.66576
-4.36208
-3.76888
-2.96198
-1.94824
-0.894887
0.144992
1.09492
1.86863
2.48492
2.91427
3.17122
3.27712
3.24376
3.10549
2.8474
2.54278
2.18585
1.88062
1.84735
1.80642
1.94649
2.27033
2.05339
3.03945
0.0233948
0.0538895
0.0818367
0.108113
0.131013
0.153793
0.174474
0.194967
0.214612
0.234828
0.256156
0.279756
0.305878
0.334569
0.365746
0.39939
0.435334
0.473332
0.512691
0.552015
0.588956
0.620122
0.641445
0.649078
0.640737
0.616965
0.581549
0.540497
0.499704
0.462555
0.4296
0.399791
0.370836
0.339784
0.303161
0.256657
0.195391
0.113998
0.0067735
-0.13221
-0.308914
-0.529413
-0.802464
-1.13532
-1.55169
-2.0785
-2.04795
-3.07549
-2.70691
-2.91146
-3.6096
-4.2556
-4.81038
-5.16282
-5.15991
-4.81609
-4.15325
-3.2533
-2.12881
-0.961938
0.189807
1.23866
2.09526
2.77656
3.25052
3.53407
3.65095
3.61524
3.46425
3.18059
2.84694
2.45055
2.11761
2.07165
2.04221
2.20192
2.54838
2.35368
3.28772
0.0249911
0.0595874
0.0903183
0.119844
0.145314
0.170805
0.193863
0.216712
0.238559
0.261015
0.28471
0.310971
0.340067
0.372021
0.406733
0.444166
0.484115
0.526264
0.569741
0.612828
0.652718
0.685532
0.706881
0.712975
0.702032
0.67536
0.63738
0.594311
0.55182
0.512809
0.477564
0.44522
0.413691
0.379946
0.340028
0.288882
0.220845
0.129795
0.00935785
-0.146934
-0.345408
-0.592348
-0.896174
-1.25991
-1.69056
-2.28569
-2.62841
-3.04811
-3.01976
-3.15269
-3.94517
-4.66683
-5.27907
-5.672
-5.66471
-5.27817
-4.54331
-3.54771
-2.30998
-1.02754
0.238003
1.38657
2.3268
3.073
3.59097
3.90053
4.0279
3.98994
3.82659
3.51795
3.15576
2.71962
2.35766
2.2982
2.27781
2.45676
2.82492
2.65427
3.52653
0.0263953
0.0652418
0.0985973
0.131407
0.159399
0.187601
0.213011
0.238195
0.262203
0.286851
0.312865
0.341752
0.373795
0.408979
0.447185
0.488338
0.532177
0.578271
0.6255
0.67176
0.713775
0.747285
0.767825
0.771981
0.758711
0.730032
0.690661
0.646645
0.603199
0.562741
0.525444
0.490816
0.457048
0.420989
0.378109
0.322532
0.247786
0.147017
0.0132559
-0.160383
-0.380444
-0.653279
-0.986671
-1.37959
-1.82786
-2.47007
-3.06794
-2.87253
-3.36081
-3.39892
-4.28582
-5.09198
-5.76213
-6.19657
-6.18379
-5.75162
-4.94188
-3.84744
-2.49324
-1.09254
0.289191
1.53905
2.56375
3.375
3.93644
4.27143
4.40879
4.36867
4.19338
3.86035
3.47005
2.99386
2.60133
2.52767
2.51385
2.71108
3.10066
2.95476
3.81719
0.0276125
0.0708694
0.10668
0.142809
0.173268
0.204181
0.231917
0.25941
0.285535
0.312319
0.340598
0.372072
0.407031
0.445409
0.487053
0.531829
0.57938
0.629094
0.679527
0.728146
0.771267
0.804453
0.823496
0.825697
0.81084
0.781381
0.74189
0.697904
0.654092
0.612458
0.57325
0.536532
0.500822
0.462803
0.417269
0.357452
0.27606
0.16554
0.0184179
-0.172473
-0.413738
-0.711657
-1.07319
-1.4939
-1.96195
-2.61888
-3.3148
-2.77444
-3.73839
-3.65852
-4.62991
-5.5331
-6.26312
-6.73938
-6.71924
-6.23804
-5.35012
-4.15306
-2.67866
-1.15663
0.343685
1.69715
2.80686
3.68314
4.28745
4.64715
4.79392
4.75173
4.56488
4.20815
3.79012
3.27361
2.84882
2.76051
2.75097
2.96498
3.37545
3.25445
4.1259
0.0286457
0.0764877
0.114576
0.154059
0.186927
0.220549
0.250583
0.280358
0.308551
0.337408
0.367893
0.401913
0.439755
0.481282
0.526287
0.574541
0.625527
0.678374
0.731241
0.781183
0.824261
0.856172
0.873369
0.874103
0.858833
0.830015
0.791633
0.748501
0.704758
0.662124
0.621115
0.582523
0.54521
0.505622
0.457749
0.393854
0.305822
0.185464
0.0249213
-0.183095
-0.445094
-0.767164
-1.1554
-1.60294
-2.0933
-2.74902
-3.4776
-2.9571
-4.05429
-3.93324
-4.97404
-5.9908
-6.7854
-7.30324
-7.27286
-6.7386
-5.76878
-4.46475
-2.866
-1.21935
0.402194
1.86166
3.05717
3.99799
4.64411
5.0277
5.18313
5.13893
4.94095
4.56128
4.11594
3.5589
3.10012
2.99695
2.98966
3.21851
3.64952
3.55095
4.37671
0.0294951
0.0821126
0.122289
0.165166
0.200378
0.236707
0.26901
0.301037
0.331243
0.362105
0.394728
0.431249
0.471937
0.516551
0.564808
0.616314
0.670315
0.72559
0.779883
0.829934
0.871812
0.901766
0.917275
0.917548
0.903336
0.876593
0.840386
0.798725
0.755326
0.711766
0.669018
0.628757
0.590193
0.549427
0.499505
0.431642
0.336915
0.206589
0.0325775
-0.192371
-0.474544
-0.819756
-1.23331
-1.70712
-2.22303
-2.88055
-3.64728
-3.43746
-4.1187
-4.21964
-5.31764
-6.46512
-7.33299
-7.89232
-7.84727
-7.25489
-6.19907
-4.78313
-3.05534
-1.28046
0.465303
2.03318
3.31562
4.32061
5.00684
5.41307
5.57633
5.53015
5.32149
4.91974
4.44755
3.84982
3.35518
3.23712
3.23024
3.47169
3.92287
3.84515
4.68362
0.030158
0.0877604
0.129826
0.176136
0.213625
0.252659
0.287198
0.321446
0.353605
0.386394
0.421083
0.460054
0.503539
0.551156
0.602491
0.656901
0.7133
0.770061
0.82456
0.87343
0.913133
0.940926
0.955492
0.956716
0.945124
0.921753
0.88856
0.848785
0.805867
0.761371
0.716913
0.675198
0.635752
0.594208
0.542489
0.47069
0.369118
0.228627
0.0410795
-0.200578
-0.502332
-0.869706
-1.30739
-1.8071
-2.35146
-3.0193
-3.81394
-3.93698
-3.90614
-4.5543
-5.66891
-6.95577
-7.90916
-8.5113
-8.44604
-7.78879
-6.64229
-5.10888
-3.24678
-1.33973
0.533578
2.21241
3.58292
4.65199
5.37645
5.80337
5.97345
5.92525
5.70639
5.28351
4.78497
4.14639
3.61383
3.48091
3.47272
3.72447
4.19509
4.13445
4.89587
0.0306288
0.0934472
0.137189
0.186977
0.22667
0.268405
0.30515
0.341584
0.375632
0.410262
0.446932
0.488296
0.534511
0.585
0.639144
0.695936
0.75388
0.810953
0.864309
0.910799
0.947769
0.973824
0.988706
0.99248
0.984978
0.966049
0.936475
0.898812
0.856389
0.810874
0.764701
0.721748
0.681803
0.639861
0.586517
0.510686
0.401992
0.251056
0.0498961
-0.208215
-0.528943
-0.917585
-1.37844
-1.90382
-2.47848
-3.16355
-3.95984
-4.2519
-3.72445
-4.97103
-6.0432
-7.46047
-8.51523
-9.16349
-9.07291
-8.34259
-7.09975
-5.44266
-3.44039
-1.39683
0.607658
2.40011
3.85983
4.99284
5.75378
6.19895
6.37424
6.32399
6.09544
5.65251
5.12816
4.44853
3.87577
3.72801
3.71688
3.97674
4.46714
4.41731
5.1468
0.0308984
0.0991901
0.144383
0.197692
0.239513
0.283947
0.322865
0.361449
0.397316
0.433688
0.472246
0.51593
0.564777
0.617933
0.674467
0.732897
0.791296
0.847339
0.89821
0.941451
0.975762
1.00112
1.01787
1.02576
1.02361
1.00994
0.984374
0.948894
0.906881
0.860192
0.812269
0.768304
0.728251
0.686241
0.631314
0.551174
0.434916
0.27317
0.0583216
-0.215946
-0.55504
-0.964173
-1.4475
-1.99848
-2.60461
-3.31263
-4.10489
-4.48231
-3.89483
-5.32741
-6.44861
-7.97775
-9.15793
-9.85511
-9.73195
-8.91879
-7.57304
-5.78515
-3.63625
-1.45147
0.688229
2.59708
4.14717
5.34379
6.13949
6.60026
6.77851
6.72607
6.48837
6.02654
5.47704
4.75612
4.14055
3.97793
3.96225
4.22833
4.73875
4.69741
5.48868
0.0309544
0.105007
0.151407
0.208288
0.252157
0.299284
0.340345
0.381041
0.41865
0.456653
0.496987
0.542896
0.594221
0.649717
0.708024
0.76711
0.824679
0.878289
0.92556
0.965275
0.997696
1.02381
1.04404
1.05743
1.06163
1.05382
1.03246
0.999102
0.957328
0.90924
0.859508
0.814768
0.774992
0.733148
0.676468
0.591492
0.467046
0.294066
0.0655021
-0.224543
-0.581372
-1.01033
-1.51572
-2.09247
-2.73103
-3.46764
-4.27131
-4.74937
-4.44475
-5.38458
-6.89344
-8.51024
-9.84426
-10.5965
-10.4301
-9.52067
-8.06395
-6.13711
-3.83449
-1.50335
0.776002
2.80415
4.44579
5.70554
6.53396
7.00772
7.18644
7.13107
6.88483
6.4054
5.8315
5.06899
4.40766
4.23004
4.20825
4.47903
5.00928
4.97564
5.79532
0.03078
0.110918
0.158263
0.218769
0.2646
0.314418
0.357589
0.400358
0.439624
0.47913
0.521104
0.569101
0.622655
0.679995
0.739225
0.797773
0.853119
0.90301
0.946078
0.982742
1.01459
1.04305
1.0682
1.0882
1.09953
1.098
1.08092
1.04952
1.00773
0.957947
0.906326
0.861073
0.821932
0.780313
0.721399
0.630761
0.497339
0.312718
0.0705396
-0.234772
-0.608649
-1.05684
-1.58411
-2.18708
-2.85905
-3.6286
-4.45978
-5.03392
-4.99951
-5.17736
-7.44011
-9.07199
-10.5735
-11.394
-11.1761
-10.1537
-8.57467
-6.49948
-4.03523
-1.55214
0.871725
3.02219
4.75659
6.0788
6.93755
7.42159
7.59792
7.53847
7.28442
6.78879
6.19138
5.3869
4.67648
4.4836
4.45424
4.72861
5.27816
5.25156
6.07502
0.0303536
0.116944
0.164948
0.229136
0.276841
0.329346
0.374597
0.419398
0.460225
0.501081
0.544522
0.5944
0.649793
0.708261
0.767344
0.824021
0.875771
0.921055
0.960077
0.994842
1.02769
1.05996
1.0912
1.1187
1.13774
1.14278
1.12995
1.10025
1.05811
1.00626
0.952663
0.907187
0.868971
0.827348
0.765305
0.667861
0.52461
0.328087
0.072622
-0.24726
-0.637409
-1.10428
-1.6534
-2.28333
-2.98994
-3.7958
-4.66396
-5.31263
-5.37264
-5.09673
-8.1335
-9.68639
-11.3433
-12.2488
-11.9763
-10.824
-9.10895
-6.87324
-4.23867
-1.59752
0.976183
3.25214
5.0805
6.4643
7.35065
7.84185
8.01289
7.94799
7.68666
7.17641
6.55652
5.70959
4.94633
4.73776
4.69949
4.97683
5.54514
5.52735
6.3476
0.0296482
0.123111
0.171461
0.239392
0.288878
0.344065
0.391367
0.438155
0.480436
0.522456
0.567128
0.618567
0.675211
0.73387
0.791575
0.844994
0.892032
0.932531
0.96846
1.00286
1.03819
1.07548
1.11373
1.14941
1.17664
1.18845
1.17977
1.15142
1.10852
1.05414
0.998493
0.953122
0.915968
0.873669
0.807101
0.701484
0.54767
0.33929
0.0711735
-0.262366
-0.667902
-1.15287
-1.72393
-2.38178
-3.12479
-3.97066
-4.88318
-5.60689
-5.75985
-5.48059
-8.8543
-10.373
-12.1518
-13.1618
-12.8337
-11.5372
-9.67174
-7.25985
-4.44511
-1.63915
1.09021
3.49496
5.41854
6.8628
7.77362
8.2684
8.4314
8.35953
8.09106
7.56786
6.92676
6.03679
5.21646
4.9915
4.94323
5.2234
5.8096
5.80249
6.67216
0.02863
0.129446
0.177796
0.249539
0.300705
0.358571
0.407897
0.456621
0.500228
0.543172
0.588745
0.64126
0.698345
0.756084
0.811087
0.859972
0.901778
0.938197
0.972523
1.00809
1.04714
1.09038
1.13633
1.18073
1.21657
1.23534
1.23063
1.20319
1.15902
1.10157
1.04383
0.998921
0.962669
0.918386
0.845412
0.730262
0.565517
0.345767
0.0659813
-0.280087
-0.700019
-1.2025
-1.79565
-2.48259
-3.26432
-4.15485
-5.11987
-5.9363
-6.29015
-6.39139
-9.41994
-11.1356
-13.0008
-14.1356
-13.7493
-12.2973
-10.2676
-7.66188
-4.65487
-1.67671
1.21467
3.75171
5.77176
7.27507
8.20682
8.70106
8.85313
8.77253
8.49695
7.96272
7.30189
6.36817
5.48613
5.24365
5.18463
5.46805
6.07078
6.07791
6.95259
0.0272577
0.135982
0.183949
0.259574
0.312318
0.372857
0.424178
0.474782
0.519554
0.563102
0.609097
0.661997
0.718527
0.774127
0.825093
0.868592
0.905555
0.939313
0.973647
1.01168
1.05537
1.10522
1.15942
1.21305
1.2579
1.2838
1.28283
1.25577
1.20969
1.14853
1.08875
1.04463
1.00857
0.960199
0.878674
0.753007
0.577558
0.347421
0.0572773
-0.3
-0.733239
-1.25263
-1.86808
-2.58549
-3.40871
-4.34943
-5.37593
-6.30347
-6.92706
-7.51577
-9.71872
-11.9817
-13.9005
-15.1743
-14.7242
-13.1059
-10.9006
-8.0824
-4.86849
-1.70989
1.35048
4.02347
6.14128
7.70194
8.65064
9.13962
9.2776
9.18638
8.90373
8.3605
7.68175
6.7034
5.75457
5.49295
5.42283
5.7104
6.3283
6.35368
7.25678
0.0254805
0.142756
0.189913
0.269495
0.323708
0.386911
0.440198
0.492608
0.538333
0.582041
0.627784
0.680184
0.735049
0.787214
0.83302
0.871116
0.904521
0.937322
0.973057
1.0145
1.06347
1.12043
1.18336
1.24672
1.30102
1.33424
1.33672
1.30936
1.2606
1.19499
1.13336
1.0902
1.0527
0.997392
0.905396
0.76899
0.58376
0.344683
0.045765
-0.321252
-0.766646
-1.30236
-1.94046
-2.68991
-3.55779
-4.55477
-5.6526
-6.70561
-7.60373
-8.54694
-9.82286
-12.9532
-14.8667
-16.2824
-15.761
-13.963
-11.5741
-8.52397
-5.08734
-1.73846
1.4986
4.31141
6.5283
8.14426
9.10543
9.58377
9.70428
9.60072
9.31116
8.76069
8.06616
7.04213
6.02103
5.73799
5.65694
5.95008
6.58129
6.62642
7.55615
0.0232362
0.149812
0.195677
0.279297
0.334862
0.400716
0.455934
0.510044
0.556427
0.599675
0.64428
0.695186
0.747188
0.794634
0.834801
0.86852
0.900157
0.933543
0.971699
1.01719
1.0719
1.13638
1.20851
1.28213
1.34638
1.38714
1.39268
1.3642
1.31174
1.2409
1.17786
1.1353
1.09344
1.02805
0.924545
0.778164
0.584715
0.338505
0.0325945
-0.342592
-0.798974
-1.3505
-2.01176
-2.79508
-3.71106
-4.77059
-5.94991
-7.13864
-8.27609
-9.35759
-9.9901
-14.1166
-15.9199
-17.4629
-16.8631
-14.8683
-12.2899
-8.98833
-5.3134
-1.76219
1.66002
4.61679
6.93412
8.60292
9.57156
10.0331
10.1325
10.015
9.71893
9.1628
8.45496
7.38402
6.28483
5.97731
5.8861
6.18665
6.82941
6.89864
7.8246
0.0204495
0.157199
0.201231
0.28897
0.345765
0.414246
0.471341
0.526995
0.573605
0.615556
0.657999
0.706379
0.754202
0.795992
0.83112
0.862264
0.893884
0.929002
0.970248
1.0202
1.08097
1.15336
1.23521
1.31971
1.39452
1.44305
1.45115
1.42043
1.363
1.2862
1.22242
1.17889
1.1285
1.05057
0.935898
0.78123
0.581597
0.330296
0.0192915
-0.362468
-0.828728
-1.39572
-2.08086
-2.90012
-3.8678
-4.99608
-6.26677
-7.59897
-8.9394
-10.0553
-10.4767
-15.4999
-17.0842
-18.7171
-18.0337
-15.8227
-13.0489
-9.47695
-5.54811
-1.78092
1.83579
4.94095
7.36011
9.07885
10.0494
10.4873
10.5616
10.4284
10.1262
9.56625
8.84797
7.72868
6.54536
6.20936
6.10947
6.41962
7.07228
7.17033
8.1314
0.0170281
0.164978
0.206563
0.2985
0.356392
0.427459
0.486344
0.54329
0.589509
0.629146
0.668386
0.713098
0.755443
0.791574
0.823328
0.85388
0.88683
0.924418
0.96916
1.02385
1.09098
1.1717
1.26384
1.35995
1.44601
1.50258
1.51255
1.47809
1.414
1.33091
1.26696
1.21886
1.15538
1.06422
0.940172
0.779557
0.576046
0.321818
0.00764097
-0.379155
-0.85434
-1.43668
-2.14667
-3.0041
-4.02709
-5.22997
-6.60099
-8.08301
-9.60903
-10.8278
-11.4746
-16.9865
-18.3754
-20.0449
-19.2744
-16.8276
-13.8511
-9.99102
-5.79174
-1.79481
2.02697
5.28532
7.80778
9.57306
10.5393
10.9456
10.9908
10.84
10.5321
9.97035
9.24501
8.0757
6.8021
6.43262
6.3263
6.64837
7.30915
7.4372
8.436
0.0128602
0.173216
0.211656
0.307867
0.366709
0.440288
0.500812
0.558641
0.603651
0.639929
0.674924
0.71463
0.750727
0.782474
0.813044
0.844629
0.879777
0.920263
0.96875
1.0284
1.10221
1.19172
1.29484
1.40341
1.50152
1.56641
1.57725
1.53687
1.46417
1.37524
1.31048
1.25195
1.17227
1.06953
0.93891
0.775002
0.570024
0.315035
-0.000472295
-0.390943
-0.87435
-1.47219
-2.20825
-3.10614
-4.18787
-5.47058
-6.94947
-8.58565
-10.2931
-11.7289
-13.0145
-18.4594
-19.8035
-21.4496
-20.5845
-17.885
-14.6968
-10.5308
-6.0444
-1.80434
2.23468
5.65149
8.27875
10.0866
11.0416
11.4074
11.4192
11.2488
10.9359
10.3746
9.64587
8.42458
7.05465
6.64561
6.53597
6.87216
7.53989
7.70274
8.69844
0.00780927
0.181991
0.216489
0.317039
0.376662
0.452626
0.51452
0.572614
0.615492
0.64747
0.676985
0.710458
0.740732
0.770313
0.801693
0.835386
0.873223
0.916847
0.969259
1.0341
1.11494
1.2138
1.32868
1.45069
1.56181
1.63522
1.64535
1.59592
1.51285
1.4193
1.3502
1.27465
1.17894
1.0682
0.934196
0.769713
0.565642
0.311945
-0.00325753
-0.396329
-0.887587
-1.50139
-2.26486
-3.20544
-4.34899
-5.716
-7.30863
-9.10118
-10.9928
-12.7469
-14.9292
-19.7654
-21.3463
-22.9393
-21.9631
-18.9961
-15.5866
-11.0959
-6.30649
-1.80975
2.46013
6.04121
8.77483
10.6206
11.5568
11.872
11.8459
11.6537
11.3372
10.7789
10.0503
8.77468
7.30268
6.84688
6.73794
7.09003
7.76425
7.9619
9.01606
0.00170964
0.191392
0.221039
0.32597
0.386172
0.464302
0.52711
0.584651
0.62455
0.651226
0.673602
0.700438
0.726846
0.756756
0.79029
0.826683
0.867473
0.914389
0.9709
1.04119
1.12948
1.23833
1.36588
1.50247
1.62764
1.70962
1.71646
1.65366
1.55972
1.46221
1.38147
1.28478
1.177
1.06263
0.928369
0.765924
0.564967
0.31437
0.00077865
-0.394197
-0.893285
-1.52373
-2.316
-3.30128
-4.50928
-5.96417
-7.67471
-9.62394
-11.7058
-13.8423
-16.9568
-20.7364
-22.9577
-24.5251
-23.4111
-20.1621
-16.5207
-11.6856
-6.57832
-1.81055
2.70469
6.45646
9.29803
11.1762
12.0851
12.3384
12.2698
12.0535
11.735
11.1829
10.458
9.12514
7.54586
7.03502
6.93174
7.3009
7.98184
8.21819
9.28811
-0.00564037
0.201516
0.225272
0.334594
0.395114
0.475041
0.538074
0.594193
0.630447
0.650707
0.664914
0.686095
0.710704
0.742886
0.779431
0.818844
0.862731
0.913078
0.973895
1.04995
1.14616
1.26573
1.40698
1.55943
1.69981
1.78995
1.78922
1.70806
1.60494
1.5006
1.39921
1.28284
1.16937
1.05543
0.923784
0.765751
0.569818
0.323758
0.0126579
-0.38393
-0.891125
-1.53902
-2.36135
-3.39298
-4.66749
-6.21295
-8.04392
-10.1487
-12.4264
-14.9538
-18.7834
-21.3114
-24.6112
-26.223
-24.9312
-21.3842
-17.4995
-12.2987
-6.8598
-1.80543
2.96994
6.89956
9.85066
11.7548
12.6271
12.8056
12.6899
12.4469
12.1282
11.586
10.8685
9.47471
7.78367
7.20905
7.11716
7.50347
8.19271
8.46972
9.58293
-0.0144857
0.212472
0.229144
0.34281
0.403298
0.484438
0.546823
0.600802
0.632691
0.644685
0.648885
0.66828
0.694094
0.729599
0.769399
0.812037
0.859158
0.91311
0.978476
1.06065
1.16533
1.29642
1.45253
1.62229
1.77899
1.87589
1.86091
1.75745
1.64802
1.52806
1.40065
1.27204
1.15928
1.04913
0.922598
0.77099
0.58157
0.341011
0.0328304
-0.365427
-0.881175
-1.54727
-2.40066
-3.47987
-4.82235
-6.4601
-8.41247
-10.6706
-13.1468
-16.0179
-20.1494
-21.6388
-26.3653
-28.0571
-26.5262
-22.6643
-18.5227
-12.9338
-7.15016
-1.79256
3.25774
7.37323
10.4354
12.3579
13.183
13.2724
13.1049
12.8326
12.5156
11.9879
11.2813
9.82159
8.01482
7.36916
7.29411
7.69633
8.39636
8.7078
9.87677
-0.025123
0.224366
0.232593
0.350475
0.410438
0.491993
0.552844
0.603832
0.629631
0.630861
0.628119
0.649211
0.677151
0.717268
0.760439
0.806438
0.856933
0.914691
0.984879
1.07356
1.18728
1.33078
1.50304
1.69167
1.86558
1.96586
1.92766
1.80146
1.68544
1.53736
1.38742
1.2568
1.14964
1.04594
0.926566
0.782919
0.600988
0.366406
0.0611857
-0.339002
-0.86374
-1.54857
-2.43364
-3.56116
-4.97245
-6.70326
-8.77648
-11.1849
-13.858
-16.9984
-21.0614
-22.0833
-28.3238
-30.0641
-28.1988
-24.0041
-19.5898
-13.589
-7.44775
-1.76994
3.5702
7.88064
11.0555
12.9869
13.7533
13.7373
13.5136
13.2092
12.8959
12.3879
11.6952
10.1632
8.23602
7.5157
7.4619
7.878
8.59292
8.93918
10.1189
-0.0379087
0.2373
0.235534
0.357376
0.416154
0.497259
0.555903
0.603083
0.621037
0.610829
0.60719
0.630396
0.661073
0.706186
0.752678
0.802218
0.856252
0.918031
0.993321
1.08891
1.2123
1.36917
1.55895
1.76807
1.95925
2.05629
1.98577
1.84032
1.70943
1.52467
1.36499
1.24119
1.14279
1.04757
0.936847
0.802153
0.628168
0.399632
0.0971885
-0.305199
-0.839167
-1.54293
-2.45986
-3.63593
-5.11625
-6.93988
-9.13192
-11.6864
-14.5522
-17.9054
-21.8202
-22.9806
-30.4991
-32.2916
-29.9527
-25.4055
-20.7002
-14.262
-7.75024
-1.73571
3.90973
8.42552
11.7148
13.644
14.3384
14.1988
13.9146
13.5751
13.2677
12.7857
12.1089
10.4961
8.44173
7.64816
7.61878
8.04662
8.7824
9.16052
10.3851
-0.0532635
0.251348
0.237843
0.363225
0.420059
0.500116
0.55642
0.599489
0.605821
0.589377
0.587273
0.611213
0.646292
0.696421
0.746296
0.799569
0.857299
0.923317
1.00399
1.10689
1.24059
1.41184
1.62061
1.85167
2.05831
2.14146
2.03361
1.87102
1.71041
1.49283
1.33988
1.22792
1.14038
1.05502
0.953877
0.828604
0.66261
0.439965
0.140108
-0.264559
-0.807665
-1.53014
-2.4787
-3.70309
-5.25204
-7.16719
-9.47462
-12.1705
-15.224
-18.768
-22.6802
-24.5879
-32.6924
-34.7721
-31.7905
-26.8705
-21.8549
-14.9504
-8.0548
-1.68774
4.27904
9.0122
12.4182
14.3315
14.9386
14.6551
14.3064
13.929
13.6296
13.181
12.5208
10.8157
8.62421
7.76506
7.76172
8.19983
8.96406
9.36135
10.6377
-0.0716633
0.266524
0.239355
0.367697
0.42196
0.500908
0.555637
0.591592
0.587164
0.569046
0.568102
0.592061
0.633179
0.688091
0.741498
0.798672
0.86025
0.930712
1.01702
1.12764
1.2723
1.45896
1.68817
1.94199
2.15872
2.21519
2.07225
1.88399
1.68196
1.45015
1.3172
1.21852
1.14325
1.0685
0.977382
0.861607
0.703444
0.486542
0.189272
-0.217418
-0.769174
-1.50975
-2.48931
-3.76137
-5.37793
-7.38222
-9.80038
-12.6328
-15.8691
-19.6062
-23.7115
-26.8687
-34.6857
-37.503
-33.7191
-28.402
-23.0554
-15.6528
-8.35839
-1.62322
4.68121
9.64563
13.1718
15.0522
15.5545
15.1041
14.6874
14.2693
13.9803
13.5736
12.9288
11.1154
8.77478
7.86312
7.88566
8.33435
9.13715
9.54902
10.8165
-0.0936005
0.282728
0.239867
0.370562
0.42205
0.500361
0.553537
0.578569
0.569157
0.549573
0.550286
0.573626
0.62212
0.681393
0.738516
0.799705
0.865263
0.940342
1.03252
1.15121
1.30745
1.51054
1.76147
2.03727
2.25351
2.27373
2.10257
1.87015
1.62926
1.40464
1.29829
1.21351
1.15147
1.08754
1.00658
0.900198
0.749729
0.538628
0.24428
-0.163791
-0.723318
-1.48102
-2.49063
-3.80937
-5.4919
-7.58181
-10.1053
-13.0698
-16.4859
-20.4334
-24.8995
-29.5099
-36.2543
-40.4487
-35.7391
-30.0009
-24.3042
-16.3689
-8.65819
-1.53858
5.11981
10.3313
13.9828
15.8102
16.1866
15.5437
15.0559
14.5945
14.3183
13.9634
13.3306
11.3852
8.88687
7.93716
7.98392
8.44573