/*--------------------------------*- C++ -*----------------------------------*\
| =========                 |                                                 |
| \\      /  F ield         | OpenFOAM: The Open Source CFD Toolbox           |
|  \\    /   O peration     | Version:  4.1                                   |
|   \\  /    A nd           | Web:      www.OpenFOAM.org                      |
|    \\/     M anipulation  |                                                 |
\*---------------------------------------------------------------------------*/
FoamFile
{
    version     2.0;
    format      ascii;
    class       surfaceScalarField;
    location    "15";
    object      phi;
}
// * * * * * * * * * * * * * * * * * * * * * * * * * * * * * * * * * * * * * //

dimensions      [0 3 -1 0 0 0 0];

internalField   nonuniform List<scalar> 
13220
(
-828.236
2128.14
-1291.42
1763.38
-1755.22
1763.7
-2100.31
1645
-2377.71
1577.59
-2577.19
1499.38
-2703.13
1425.84
-2754.32
1351.4
-2732.37
1277.94
-2637.26
1204.8
-2469.75
1132.69
-2213.3
1043.45
-1788.25
874.85
-1064.21
576.161
235.695
-136.194
2264.33
-319.384
1946.57
-548.569
1992.89
-719.357
1815.78
-884.115
1742.35
-1008.57
1623.83
-1105.62
1522.89
-1170.66
1416.44
-1209.58
1316.86
-1225.18
1220.4
-1210.79
1118.3
-1141.48
974.136
-956.654
690.02
-567.185
186.691
-331.49
-100.916
2365.25
-258.568
2104.23
-372.205
2106.52
-417.136
1860.72
-454.091
1779.31
-443.433
1613.18
-410.118
1489.58
-351.54
1357.86
-278.863
1244.18
-194.916
1136.45
-97.7619
1021.15
4.96939
871.408
75.9237
619.07
77.4378
185.182
-254.053
49.3423
2315.9
51.1838
2102.38
78.3961
2079.31
126.707
1812.4
171.648
1734.36
237.635
1547.19
305.954
1421.25
395.199
1268.62
517.674
1121.71
678.075
976.046
834.992
864.231
926.698
779.697
868.053
677.71
536.951
516.277
282.898
-2.00996
2317.91
-20.6633
2121.03
-28.0741
2086.72
-56.6388
1840.97
-86.477
1764.2
-126.799
1587.51
-180.281
1474.73
-207.643
1295.98
-149.597
1063.66
27.2154
799.23
267.329
624.114
472.652
574.369
525.386
624.971
342.875
698.782
625.773
-58.9158
2376.83
-207.471
2269.59
-311.951
2191.19
-442.384
1971.4
-577.165
1898.98
-727.694
1738.04
-894.443
1641.48
-1056.99
1458.52
-1179.45
1186.11
-1209.07
828.847
-1107.45
522.495
-853.173
320.093
-490.938
262.735
-165.65
373.492
460.123
85.312
2291.51
-89.3714
2444.27
-179.65
2281.47
-259.713
2051.46
-329.773
1969.04
-400.911
1809.17
-469.412
1709.98
-558.348
1547.46
-700.723
1328.49
-898.852
1026.97
-1089.81
713.45
-1168.75
399.031
-1022.71
116.687
-598.969
-50.2568
-138.846
267.195
2024.32
206.065
2505.4
195.663
2291.87
223.285
2023.83
281.402
1910.92
340.713
1749.86
417.818
1632.88
478.493
1486.78
482.791
1324.19
384.867
1124.9
199.602
898.715
-45.7102
644.347
-256.643
327.625
-228.591
-78.3026
-367.438
273.002
1751.31
309.842
2468.56
341.495
2260.22
405.73
1959.6
497.703
1818.95
588.559
1659
692.019
1529.42
790.054
1388.75
867.289
1246.95
894.132
1098.05
856.045
936.803
740.26
760.123
523.708
544.166
161.501
283.888
-205.936
160.171
1591.14
219.486
2409.24
258.301
2221.41
308.657
1909.24
375.984
1751.62
437.617
1597.37
498.206
1468.83
551.1
1335.86
590.913
1207.14
608.919
1080.05
595.628
950.094
539.479
816.28
424.791
658.865
240.597
468.105
34.6604
55.835
1535.31
128.022
2337.06
185.257
2164.17
237.025
1857.47
299.428
1689.22
356.593
1540.21
405.702
1419.72
445.48
1296.08
476.321
1176.3
496.092
1060.28
497.921
948.267
466.082
848.119
375.916
749.03
211.438
632.584
246.098
-12.0627
1547.37
74.7107
2250.28
182.779
2056.11
259.56
1780.7
321.577
1627.21
385.2
1476.59
449.916
1355.01
515.471
1230.53
579.255
1112.52
634.516
1005.02
658.892
923.892
623.331
883.686
496.742
875.625
283.184
846.152
529.283
34.9233
1512.45
49.1655
2236.04
84.2098
2021.06
159.725
1705.18
257.879
1529.05
376.159
1358.31
513.252
1217.91
663.283
1080.5
801.19
974.612
892.676
913.533
892.573
923.997
776.297
999.962
551.426
1100.5
274.546
1123.03
803.829
361.637
1150.82
491.332
2106.35
358.415
2153.98
127.627
1935.97
-91.9362
1748.62
-278.126
1544.5
-402.141
1341.93
-464.899
1143.26
-464.685
974.399
-408.332
857.181
-307.833
823.499
-196.2
888.331
-127.003
1031.3
-89.188
1085.22
714.641
634.662
1654.86
2251.15
2443.45
2441.6
2272.55
1941.38
1563.59
1116.76
693.23
341.509
130.282
64.7044
89.9719
-2.15964e-06
-356.793
356.793
-356.793
-356.793
-356.793
245.238
-602.031
245.238
245.238
245.238
731.689
-486.451
731.689
731.689
1100.48
-368.788
1100.48
1100.48
1100.48
1346.81
-246.337
1346.81
1346.81
1502.09
-155.281
1502.09
1502.09
1502.09
1583.15
-81.0578
1583.15
1583.15
1583.15
1604.31
-21.1555
1604.31
1604.31
1568.58
35.7238
1568.58
1568.58
1568.58
1485.96
82.6245
1485.96
1485.96
1364.78
121.175
1364.78
1364.78
1364.78
1225.49
139.298
1225.49
1225.49
1225.49
1146.57
78.9215
1146.57
1146.57
1093.68
52.889
1093.68
1093.68
1093.68
903.3
190.376
903.3
903.3
903.3
571.723
331.578
571.723
571.723
154.917
416.806
154.917
154.917
154.917
-342.702
497.619
-342.702
-342.702
-1442.12
1099.42
-1442.12
-1442.12
-1442.12
-3081.54
1639.42
-3081.54
-3081.54
-3081.54
-5135.78
2054.24
-5135.78
-5135.78
-7431.39
2295.61
-7431.39
-7431.39
-7285.74
-7140.13
-6989.18
-9253.23
2420.72
-9099.57
-8920.29
-8724.24
-8527.54
-8327.79
-8123.37
-7920.98
-7723.78
-10090.9
2566.57
-9880.78
-9669.51
-9455.53
-9249.76
-9042.94
-8833.63
-8626.33
-8421.91
-10818.3
2597.96
-10597.1
-10374.5
-10150.2
-9926.07
-9695.15
-9451.16
-9205.71
-8960.35
-8717.45
-10967.1
2477
-10701.3
-10434.6
-10167.4
-9901.05
-9635.78
-9353.21
-9061.63
-8771.82
-10609
2111.37
-10324.4
-10029.4
-9716.27
-9402.15
-9086.86
-8772.76
-8459.28
-8123.68
-9476.77
1671.85
-9155.48
-8837.87
-8522.71
-8194.61
-7862.47
-7533.25
-7204.57
-6878.89
-7662.11
1109.02
-7330.69
-7001.32
-6673.65
-6349.92
-6032.6
-5718.46
-5412.63
-5117.46
-4835.58
-4679.29
123.632
-4441.68
-4227.67
-4020.99
-3822.68
-3629.56
-3473.37
-3384.57
-3290.74
-2923.72
-256.77
-2833.89
-2742.79
-2742.79
-2566.85
-175.947
-2391.68
-175.164
-2391.68
-2235.16
-156.525
-2235.16
-2095.74
-139.418
-1970.26
-125.477
-1970.26
-1849.89
-120.377
-1740.84
-109.043
-1740.84
-1634.67
-106.173
-1634.67
-1534.88
-99.7909
-1444.34
-90.5339
-1444.34
-1354.52
-89.8294
-1354.52
-1268.92
-85.5927
-1190.34
-78.5816
-1190.34
-1110.37
-79.9753
-1038.33
-72.036
-1038.33
-965.266
-73.0636
-965.266
-893.731
-71.5353
-829.893
-63.8375
-829.893
-764.443
-65.4503
-764.443
-699.666
-64.7766
-641.266
-58.4004
-641.266
-579.511
-61.7551
-524.914
-54.5966
-524.914
-468.591
-56.3232
-468.591
-412.04
-56.5507
-362.018
-50.022
-362.018
-310.242
-51.7765
-310.242
-257.073
-53.1687
-208.445
-48.6283
-208.445
-155.641
-52.8043
-108.047
-47.5936
-108.047
-60.7618
-47.2853
-60.7618
-12.7387
-48.0231
37.8868
-50.6255
37.8868
79.1142
-41.2274
79.1142
110.63
-31.5153
150.472
-39.8422
150.472
186.459
-35.9875
226.347
-39.8874
226.347
264.678
-38.3312
264.678
297.117
-32.4397
331.716
-34.5986
331.716
366.084
-34.3681
366.084
401.542
-35.458
440.853
-39.3104
440.853
476.751
-35.8983
528.372
-51.6207
528.372
595.096
-66.7244
595.096
-71.373
-149.543
-591.098
-150.443
-667.112
-151.82
-707.258
-153.498
-750.155
-155.541
-789.111
-157.878
-826.249
-160.519
-861.445
-163.441
-895.272
-166.642
-927.8
-170.119
-959.4
-173.873
-990.259
-177.912
-1020.73
-182.244
-1051.09
-186.879
-1081.63
-191.829
-1112.62
-197.104
-1144.25
-202.714
-1176.72
-208.667
-1210.13
-214.973
-1244.51
-221.662
-1279.76
-228.807
-1315.52
-236.594
-1351.1
-245.412
-1385.27
-255.972
-1416.18
-269.385
-1441.25
-287.138
-1457.49
-310.871
-1461.94
-341.962
-1452.54
-381.003
-1428.91
-427.343
-1392.97
-478.847
-1349.16
-532.005
-1304.06
-582.523
-1265.14
-626.315
-1238.61
-660.474
-1227.54
-683.738
-1231.28
-696.283
-1246.31
-699.123
-1267.71
-693.502
-1290.21
-680.499
-1308.33
-660.981
-1315.94
-636.229
-1307.22
-607.928
-1282.27
-570.116
-1238.73
-494.751
-1063.02
-383.225
-388.34
-316.33
658.803
-288.71
1175.03
-263.108
1482.71
-237.081
1774.97
-210.782
2077.08
-184.313
2384.03
-157.651
2693.01
-130.11
2999.51
-102.075
3288.23
-73.8554
3550.81
-46.3126
3775.58
-18.7499
3972.72
4.72557
4049.48
22.7112
4046.03
35.6953
3997.12
42.6733
3872.13
46.6861
3770.61
48.7777
3660.95
49.7491
3525.36
50.4399
3366.96
51.0865
3173.02
51.888
2937.56
52.3093
2635.53
52.8244
2311.59
52.1132
1863.61
51.632
1447.04
51.0803
653.088
56.1155
174.924
36.5417
-1052.67
39.1144
-1367.84
12.3948
-1554.89
12.492
-1851.64
3004.06
-157.194
-591.033
-157.97
-666.337
-159.348
-705.88
-161.054
-748.449
-163.172
-786.993
-165.608
-823.812
-168.375
-858.678
-171.445
-892.203
-174.815
-924.43
-178.483
-955.732
-182.455
-986.287
-186.739
-1016.44
-191.345
-1046.48
-196.283
-1076.7
-201.565
-1107.33
-207.2
-1138.62
-213.198
-1170.72
-219.575
-1203.76
-226.359
-1237.73
-233.628
-1272.49
-241.577
-1307.57
-250.621
-1342.05
-261.537
-1374.36
-275.583
-1402.13
-294.467
-1422.37
-320.092
-1431.86
-354.014
-1428.02
-396.774
-1409.78
-447.387
-1378.3
-503.179
-1337.18
-560.078
-1292.26
-613.329
-1250.81
-658.554
-1219.92
-692.807
-1204.36
-715.079
-1205.27
-726.011
-1220.35
-727.125
-1245.2
-720.097
-1274.74
-706.337
-1303.97
-686.86
-1327.81
-662.342
-1340.46
-633.733
-1335.83
-603.1
-1312.9
-567.669
-1274.16
-498.326
-1132.36
-370.722
-515.944
-299.066
587.147
-282.183
1158.15
-260.058
1460.59
-233.785
1748.7
-207.967
2051.26
-182.178
2358.24
-156.186
2667.01
-129.378
2972.7
-102.017
3260.87
-74.3709
3523.16
-47.2797
3748.49
-20.0975
3945.54
3.18366
4026.2
21.136
4028.08
34.2134
3984.05
41.4152
3864.93
45.6801
3766.35
48.0423
3658.59
49.2778
3524.13
50.218
3366.02
51.1087
3172.13
52.1468
2936.53
52.8433
2634.84
53.651
2310.79
53.3159
1863.94
53.3912
1446.96
53.3518
653.128
60.261
168.015
35.9085
-1028.32
36.6309
-1368.57
12.8277
-1531.09
10.7746
-1849.58
2948.11
-161.401
-591.037
-162.133
-665.605
-163.516
-704.497
-165.248
-746.717
-167.414
-784.828
-169.913
-821.313
-172.757
-855.835
-175.915
-889.045
-179.386
-920.958
-183.169
-951.949
-187.272
-982.185
-191.702
-1012.01
-196.471
-1041.71
-201.588
-1071.58
-207.065
-1101.86
-212.913
-1132.77
-219.146
-1164.49
-225.793
-1197.11
-232.919
-1230.61
-240.683
-1264.72
-249.443
-1298.81
-259.893
-1331.6
-273.204
-1361.05
-291.047
-1384.29
-315.378
-1398.04
-347.898
-1399.34
-389.341
-1386.58
-438.89
-1360.23
-494.047
-1323.14
-550.995
-1280.23
-605.286
-1237.97
-652.709
-1203.39
-690.149
-1182.48
-716.155
-1178.35
-730.899
-1190.53
-735.615
-1215.64
-731.894
-1248.92
-721.215
-1285.42
-704.772
-1320.41
-683.452
-1349.13
-657.877
-1366.04
-628.841
-1364.86
-598.298
-1343.44
-565.448
-1307.01
-504.589
-1193.22
-372.564
-647.968
-280.495
495.078
-267.388
1145.04
-255.064
1448.26
-229.785
1723.42
-204.03
2025.51
-179.106
2333.31
-154.025
2641.93
-128.201
2946.87
-101.808
3234.48
-75.0089
3496.37
-48.5945
3722.07
-21.9119
3918.85
1.07044
4003.22
18.9351
4010.21
32.1178
3970.86
39.56
3857.49
44.1397
3761.77
46.8581
3655.87
48.459
3522.53
49.7573
3364.72
50.9999
3170.89
52.3936
2935.13
53.4801
2633.75
54.697
2309.57
54.8696
1863.77
55.2487
1446.58
56.0537
652.323
61.9758
162.093
36.5167
-1002.86
35.9915
-1368.04
16.3069
-1511.4
12.6384
-1845.91
2909.13
-166.439
-591.095
-167.141
-664.903
-168.541
-703.097
-170.311
-744.947
-172.541
-782.597
-175.121
-818.733
-178.062
-852.894
-181.331
-885.777
-184.928
-917.361
-188.851
-948.025
-193.112
-977.924
-197.72
-1007.41
-202.686
-1036.74
-208.02
-1066.24
-213.735
-1096.14
-219.846
-1126.66
-226.377
-1157.96
-233.385
-1190.1
-241.004
-1222.99
-249.539
-1256.19
-259.612
-1288.74
-272.319
-1318.9
-289.317
-1344.05
-312.658
-1360.95
-344.275
-1366.42
-385.184
-1358.43
-434.772
-1336.99
-490.587
-1304.41
-548.768
-1264.96
-604.869
-1224.13
-654.695
-1188.14
-695.015
-1163.07
-724.056
-1153.44
-741.621
-1160.79
-748.734
-1183.41
-747
-1217.37
-738.053
-1257.87
-723.276
-1300.2
-703.77
-1339.92
-680.386
-1372.51
-653.762
-1392.66
-624.617
-1394.01
-594.762
-1373.3
-564.645
-1337.13
-512.203
-1245.66
-382.555
-777.617
-266.243
378.766
-248.127
1126.92
-245.781
1445.92
-225.165
1702.8
-199.49
1999.83
-175.225
2309.05
-151.236
2617.94
-126.592
2922.23
-101.397
3209.29
-75.6863
3470.65
-50.1444
3696.53
-24.1282
3892.84
-1.55638
3980.64
16.1577
3992.5
29.4224
3957.6
37.1352
3849.77
42.0799
3756.82
45.2323
3652.72
47.2919
3520.47
49.0449
3362.97
50.7375
3169.2
52.582
2933.29
54.1586
2632.17
55.8784
2307.85
56.6366
1863.01
57.3871
1445.83
58.4186
651.291
63.9099
156.602
37.5608
-976.51
35.5163
-1366
19.1325
-1495.02
14.0906
-1840.87
2887.32
-171.346
-591.182
-172.04
-664.209
-173.466
-701.672
-175.283
-743.13
-177.583
-780.297
-180.25
-816.066
-183.293
-849.851
-186.676
-882.393
-190.402
-913.636
-194.47
-943.957
-198.892
-973.502
-203.68
-1002.62
-208.846
-1031.58
-214.401
-1060.69
-220.36
-1090.18
-226.746
-1120.28
-233.607
-1151.1
-241.053
-1182.65
-249.343
-1214.7
-259.023
-1246.51
-271.104
-1276.66
-287.199
-1302.8
-309.437
-1321.81
-339.988
-1330.4
-380.207
-1326.2
-429.745
-1308.9
-486.179
-1280.55
-545.476
-1245.12
-603.007
-1207.43
-654.554
-1172.59
-696.953
-1145.74
-728.393
-1131.63
-748.468
-1133.36
-757.962
-1151.29
-758.364
-1183.01
-751.337
-1224.4
-738.372
-1270.83
-720.688
-1317.88
-699.288
-1361.32
-675.017
-1396.78
-648.565
-1419.11
-620.632
-1421.94
-592.8
-1401.13
-566.209
-1363.72
-522.804
-1289.07
-401.235
-899.186
-258.209
235.74
-228.058
1096.77
-231.273
1449.13
-218.462
1689.99
-194.446
1975.82
-170.566
2285.17
-147.716
2595.09
-124.484
2899
-100.724
3185.53
-76.3589
3446.29
-51.9261
3672.1
-26.7655
3867.68
-4.74187
3958.62
12.7362
3975.02
26.0522
3944.28
34.0532
3841.77
39.419
3751.45
43.0919
3649.04
45.7156
3517.84
48.0358
3360.65
50.2912
3166.94
52.6986
2930.88
54.8768
2630
57.2142
2305.51
58.6622
1861.56
59.9317
1444.56
61.0798
650.143
65.9442
151.737
38.6915
-949.257
35.2351
-1362.54
21.6043
-1481.39
15.0155
-1834.28
2863.03
-176.347
-591.277
-177.051
-663.506
-178.513
-700.209
-180.388
-741.255
-182.769
-777.916
-185.531
-813.304
-188.684
-846.697
-192.192
-878.886
-196.054
-909.773
-200.275
-939.736
-204.867
-968.91
-209.846
-997.64
-215.223
-1026.2
-221.012
-1054.9
-227.235
-1083.96
-233.93
-1113.58
-241.188
-1143.84
-249.225
-1174.62
-258.51
-1205.41
-269.959
-1235.06
-285.113
-1261.5
-306.148
-1281.77
-335.472
-1292.49
-374.844
-1291.02
-424.3
-1276.75
-481.531
-1251.66
-542.269
-1219.82
-601.488
-1185.9
-654.722
-1154.19
-698.829
-1128.48
-732.138
-1112.43
-754.269
-1109.5
-765.868
-1121.76
-768.259
-1148.9
-763.038
-1188.23
-751.739
-1235.7
-735.67
-1286.9
-715.933
-1337.62
-693.504
-1383.75
-669.284
-1421
-644.052
-1444.34
-618.512
-1447.48
-593.975
-1425.67
-571.812
-1385.88
-537.926
-1322.95
-430.963
-1006.15
-262.795
67.5727
-210.21
1044.19
-212.623
1451.55
-208.051
1685.42
-188.404
1956.17
-165.305
2262.07
-143.428
2573.22
-121.797
2877.36
-99.7091
3163.44
-76.9307
3423.51
-53.8478
3649.02
-29.7461
3843.58
-8.42524
3937.3
8.71341
3957.88
22.0286
3930.97
30.3141
3833.49
36.1416
3745.63
40.4105
3644.78
43.698
3514.56
46.6953
3357.65
49.6248
3164.01
52.7082
2927.8
55.5965
2627.11
58.6596
2302.45
60.9013
1859.32
62.7726
1442.69
64.0359
648.88
68.1464
147.627
39.9816
-921.092
35.1632
-1357.72
23.3978
-1469.62
15.0614
-1825.95
2842.63
-181.4
-591.361
-182.13
-662.776
-183.64
-698.699
-185.583
-739.313
-188.052
-775.446
-190.919
-810.437
-194.192
-843.425
-197.83
-875.248
-201.838
-905.766
-206.219
-935.356
-210.99
-964.138
-216.168
-992.462
-221.768
-1020.6
-227.807
-1048.86
-234.318
-1077.45
-241.374
-1106.52
-249.149
-1136.06
-258.04
-1165.73
-268.855
-1194.6
-283.036
-1220.88
-302.759
-1241.78
-330.646
-1253.88
-368.905
-1254.23
-418.092
-1241.84
-476.17
-1218.67
-538.674
-1189.16
-600.025
-1158.47
-655.215
-1130.71
-700.9
-1108.51
-735.557
-1093.82
-759.068
-1088.92
-772.197
-1096.37
-776.213
-1117.75
-772.605
-1152.51
-762.857
-1197.98
-748.3
-1250.25
-730.09
-1305.11
-709.274
-1358.43
-686.864
-1406.16
-663.853
-1444.01
-641.113
-1467.08
-619.307
-1469.29
-599.37
-1445.6
-582.534
-1402.72
-558.161
-1347.33
-468.614
-1095.7
-282.99
-118.051
-197.098
958.294
-191.834
1446.28
-193.196
1686.78
-180.195
1943.17
-159.415
2241.29
-138.432
2552.23
-118.442
2857.37
-98.2695
3143.27
-77.3108
3402.55
-55.8143
3627.52
-32.9936
3820.75
-12.5514
3916.86
4.12663
3941.21
17.3677
3917.73
25.9173
3824.94
32.2343
3739.31
37.1648
3639.85
41.2093
3510.51
44.9899
3353.87
48.7022
3160.3
52.5711
2923.93
56.2726
2623.41
60.1613
2298.56
63.2909
1856.19
65.8202
1440.16
67.1825
647.518
70.5892
144.22
41.6894
-892.192
35.4149
-1351.45
25.237
-1459.44
15.2896
-1816
2823.55
-186.522
-591.417
-187.294
-662.005
-188.862
-697.131
-190.884
-737.291
-193.452
-772.878
-196.433
-807.456
-199.833
-840.025
-203.612
-871.469
-207.773
-901.604
-212.323
-930.805
-217.283
-959.179
-222.672
-987.073
-228.507
-1014.77
-234.817
-1042.55
-241.658
-1070.61
-249.168
-1099.01
-257.671
-1127.56
-267.864
-1155.53
-281.063
-1181.4
-299.387
-1202.55
-325.617
-1215.55
-362.419
-1217.08
-410.993
-1205.65
-469.785
-1183.05
-534.283
-1154.17
-598.306
-1125.14
-656.046
-1100.73
-703.625
-1083.13
-739.474
-1072.66
-763.793
-1069.5
-777.73
-1074.99
-782.757
-1091.34
-780.363
-1120.14
-771.946
-1160.93
-758.766
-1211.16
-741.965
-1267.06
-722.608
-1324.47
-701.762
-1379.28
-680.533
-1427.38
-660.027
-1464.52
-641.157
-1485.95
-624.434
-1486.01
-610.255
-1459.78
-599.361
-1413.61
-583.641
-1363.05
-508.894
-1170.44
-311.671
-315.274
-190.535
837.158
-171.038
1426.78
-174.355
1690.1
-168.527
1937.34
-152.346
2225.11
-132.8
2532.69
-114.366
2838.94
-96.313
3125.21
-77.4237
3383.66
-57.748
3607.84
-36.4465
3799.45
-17.0825
3897.49
-1.00548
3925.13
12.0715
3904.65
20.8475
3816.16
27.6721
3732.49
33.3237
3634.19
38.2142
3505.62
42.8837
3349.2
47.4869
3155.7
52.251
2919.16
56.8673
2618.79
61.6832
2293.74
65.7931
1852.08
69.0642
1436.89
70.533
646.049
73.3311
141.422
43.8984
-862.76
36.1164
-1343.67
27.454
-1450.78
16.0622
-1804.61
2805.02
-191.719
-591.428
-192.545
-661.178
-194.184
-695.491
-196.296
-735.18
-198.972
-770.202
-202.076
-804.352
-205.614
-836.487
-209.542
-867.541
-213.865
-897.281
-218.594
-926.076
-223.753
-954.02
-229.364
-981.462
-235.454
-1008.68
-242.067
-1035.94
-249.31
-1063.37
-257.439
-1090.89
-267.038
-1117.96
-279.272
-1143.3
-296.149
-1164.52
-320.527
-1178.18
-355.492
-1180.58
-402.975
-1169.6
-462.127
-1146.5
-528.636
-1116.54
-595.799
-1087.01
-656.845
-1064.09
-707.029
-1050.54
-744.41
-1045.75
-769.348
-1047.72
-783.461
-1055.39
-788.698
-1069.75
-786.818
-1093.22
-779.252
-1127.71
-767.17
-1173.01
-751.608
-1226.72
-733.574
-1285.09
-714.127
-1343.91
-694.425
-1398.98
-675.704
-1446.1
-659.15
-1481.07
-645.604
-1499.5
-635.221
-1496.39
-627.637
-1467.37
-622.841
-1418.41
-614.671
-1371.22
-552.984
-1232.13
-349.755
-518.503
-191.81
679.213
-152.464
1387.44
-153.007
1690.64
-152.719
1937.05
-143.086
2215.48
-126.411
2516.01
-109.589
2822.12
-93.7462
3109.37
-77.1911
3367.11
-59.5754
3590.23
-40.037
3779.91
-21.9694
3879.43
-6.65487
3909.81
6.14993
3891.84
15.0986
3807.21
22.4361
3725.15
28.861
3627.77
34.681
3499.8
40.3421
3343.54
45.944
3150.09
51.7129
2913.4
57.3463
2613.16
63.1949
2287.9
68.3811
1846.9
72.5108
1432.76
74.125
644.435
76.3993
139.148
46.6049
-832.965
37.2604
-1334.32
29.6799
-1443.2
17.047
-1791.97
2789.62
-196.996
-591.379
-197.891
-660.284
-199.613
-693.77
-201.825
-732.968
-204.62
-767.406
-207.858
-801.114
-211.542
-832.803
-215.629
-863.454
-220.125
-892.785
-225.042
-921.159
-230.411
-948.651
-236.262
-975.611
-242.633
-1002.31
-249.605
-1028.96
-257.377
-1055.59
-266.42
-1081.84
-277.735
-1106.65
-293.166
-1127.87
-315.554
-1142.13
-348.318
-1145.41
-394.146
-1134.76
-453.099
-1110.64
-521.366
-1078.24
-591.925
-1045.98
-657
-1021.93
-710.718
-1010.37
-750.421
-1010.84
-776.343
-1019.83
-790.441
-1033.62
-795.226
-1050.6
-792.991
-1071.98
-785.482
-1100.73
-773.929
-1139.26
-759.26
-1187.68
-742.339
-1243.64
-724.128
-1303.3
-705.76
-1362.28
-688.536
-1416.21
-673.816
-1460.83
-662.762
-1492.13
-655.933
-1506.33
-652.858
-1499.47
-652.178
-1468.05
-652.98
-1417.6
-650.833
-1373.36
-601.351
-1281.61
-399.149
-720.705
-202.541
482.605
-138.274
1323.17
-131.31
1683.68
-133.121
1938.86
-130.548
2212.9
-118.762
2504.23
-104.133
2807.49
-90.509
3095.75
-76.5232
3353.12
-61.2263
3574.93
-43.6949
3762.38
-27.1554
3862.89
-12.7859
3895.44
-0.378546
3879.44
8.67216
3798.16
16.5142
3717.31
23.7561
3620.53
30.5821
3492.97
37.3331
3336.79
44.0394
3143.39
50.9214
2906.51
57.6746
2606.4
64.6648
2280.91
71.0275
1840.53
76.1542
1427.63
77.9984
642.59
79.8563
137.29
49.8222
-802.931
38.8096
-1323.31
31.5168
-1435.91
17.8202
-1778.28
2769.11
-202.363
-591.257
-203.338
-659.308
-205.154
-691.953
-207.478
-730.643
-210.403
-764.481
-213.786
-797.731
-217.627
-828.962
-221.884
-859.197
-226.561
-888.108
-231.679
-916.042
-237.273
-943.057
-243.385
-969.499
-250.079
-995.612
-257.508
-1021.54
-266.039
-1047.06
-276.504
-1071.38
-290.542
-1092.61
-310.877
-1107.53
-341.14
-1111.87
-384.728
-1101.82
-442.764
-1076.72
-512.263
-1041.14
-586.183
-1004.32
-655.819
-976.342
-714.006
-963.746
-757.071
-967.308
-784.824
-983.086
-799.326
-1005.32
-803.518
-1029.43
-800.273
-1053.85
-791.893
-1080.36
-779.967
-1112.66
-765.508
-1153.72
-749.26
-1203.93
-732.005
-1260.9
-714.754
-1320.55
-698.787
-1378.25
-685.558
-1429.43
-676.46
-1469.92
-672.431
-1496.16
-673.458
-1505.3
-678.142
-1494.79
-683.969
-1462.22
-689.131
-1412.44
-690.946
-1371.55
-653.382
-1319.18
-463.097
-910.99
-225.97
245.478
-130.107
1227.31
-111.539
1665.11
-111.083
1938.41
-114.09
2215.91
-108.989
2499.13
-97.8699
2796.37
-86.5902
3084.47
-75.3263
3341.86
-62.6298
3562.24
-47.3546
3747.11
-32.5818
3848.11
-19.3602
3882.22
-7.49448
3867.57
1.57417
3789.09
9.8978
3708.98
17.9908
3612.43
25.8924
3485.07
33.8256
3328.86
41.7386
3135.47
49.8398
2898.41
57.8148
2598.43
66.0571
2272.66
73.701
1832.89
79.9719
1421.36
82.1841
640.378
83.7627
135.711
53.5758
-772.744
40.7317
-1310.46
33.1223
-1428.3
18.4738
-1763.63
2747.7
-207.825
-591.048
-208.892
-658.241
-210.815
-690.03
-213.264
-728.195
-216.33
-761.415
-219.869
-794.192
-223.878
-824.952
-228.314
-854.761
-233.186
-883.236
-238.516
-910.711
-244.354
-937.219
-250.761
-963.092
-257.854
-988.519
-265.916
-1013.47
-275.613
-1037.36
-288.352
-1058.64
-306.655
-1074.31
-334.212
-1079.98
-375.02
-1071.06
-431.333
-1045.51
-501.3
-1006.75
-578.234
-964.21
-652.685
-929.864
-716.111
-912.916
-763.592
-916.265
-794.261
-936.638
-810.066
-967.282
-814.183
-1001.21
-809.901
-1033.71
-800.054
-1063.7
-786.789
-1093.63
-771.525
-1127.92
-755.129
-1170.11
-738.271
-1220.79
-721.762
-1277.41
-706.752
-1335.56
-694.697
-1390.3
-687.14
-1436.99
-685.31
-1471.75
-689.609
-1491.86
-699.11
-1495.8
-711.269
-1482.63
-722.423
-1451.07
-730.057
-1404.81
-733.387
-1368.22
-707.125
-1345.44
-546.104
-1072.01
-271.632
-28.9939
-128.644
1084.32
-95.1787
1631.64
-88.5648
1931.79
-93.8908
2221.24
-96.123
2501.36
-90.37
2790.62
-81.9781
3076.08
-73.5221
3333.4
-63.7049
3552.42
-50.9552
3734.36
-38.1894
3835.35
-26.3355
3870.37
-15.1767
3856.41
-6.18884
3780.1
2.58062
3700.21
11.5498
3603.46
20.5894
3476.03
29.7902
3319.66
39.0073
3126.26
48.4299
2888.99
57.7265
2589.13
67.3315
2263.06
76.3644
1823.86
83.9269
1413.8
86.682
637.623
88.1439
134.249
57.8661
-742.466
42.9969
-1295.6
34.7488
-1420.05
19.2482
-1748.13
2730.96
-213.391
-590.739
-214.562
-657.07
-216.605
-687.987
-219.189
-725.611
-222.408
-758.195
-226.115
-790.486
-230.305
-820.762
-234.933
-850.133
-240.011
-878.159
-245.571
-905.15
-251.68
-931.11
-258.439
-956.333
-266.064
-980.894
-275.077
-1004.46
-286.641
-1025.8
-303.006
-1042.27
-327.772
-1049.54
-365.36
-1042.39
-419.129
-1017.29
-488.619
-976.02
-567.924
-927.449
-647.141
-884.993
-716.335
-860.67
-769.135
-860.117
-803.787
-881.612
-821.975
-918.45
-826.979
-962.279
-822.325
-1005.86
-811.162
-1044.88
-796.075
-1078.78
-779.032
-1110.67
-761.365
-1145.59
-743.927
-1187.55
-727.448
-1237.27
-712.889
-1291.97
-701.598
-1346.85
-695.166
-1396.74
-695.035
-1437.12
-701.942
-1464.85
-715.369
-1478.43
-733.184
-1477.98
-751.664
-1464.15
-766.246
-1436.48
-774.052
-1397
-776.204
-1366.07
-758.376
-1363.27
-631.233
-1199.16
-334.938
-325.289
-134.941
884.323
-82.3
1579
-67.5431
1917.04
-71.0034
2224.7
-79.4951
2509.85
-80.8805
2792
-76.5499
3071.74
-71.0606
3327.91
-64.3542
3545.71
-54.433
3724.44
-43.9196
3824.83
-33.6657
3860.12
-23.4004
3846.15
-14.6093
3771.31
-5.44185
3691.05
4.42074
3593.6
14.6546
3465.8
25.2005
3309.11
35.8126
3115.65
46.6538
2878.15
57.3681
2578.42
68.4447
2251.98
78.9773
1813.32
87.9757
1404.8
91.4603
634.138
92.9885
132.721
62.6651
-712.143
45.5712
-1278.5
36.3192
-1410.8
20.3106
-1732.12
2711.43
-219.068
-590.318
-220.354
-655.784
-222.529
-685.812
-225.262
-722.879
-228.648
-754.81
-232.535
-786.598
-236.918
-816.379
-241.752
-845.299
-247.052
-872.859
-252.865
-899.337
-259.289
-924.687
-266.501
-949.121
-274.901
-972.494
-285.425
-993.937
-300.006
-1011.22
-322.013
-1020.27
-356.079
-1015.47
-406.544
-991.923
-474.505
-949.332
-555.277
-895.248
-638.908
-843.818
-714.148
-809.753
-772.97
-801.848
-812.507
-820.579
-834.069
-860.05
-841.001
-911.518
-837.004
-966.275
-825.369
-1017.5
-808.836
-1061.41
-789.697
-1097.92
-769.817
-1130.55
-750.58
-1164.83
-732.993
-1205.14
-718
-1252.26
-706.81
-1303.16
-700.958
-1352.7
-702.002
-1395.69
-710.94
-1428.18
-727.586
-1448.2
-750.133
-1455.88
-775.138
-1452.98
-797.931
-1441.35
-813.55
-1420.86
-819.156
-1391.4
-817.457
-1367.77
-803.723
-1377
-704.561
-1298.32
-404.266
-625.584
-150.147
630.204
-72.3665
1501.22
-49.3347
1894
-47.1349
2222.5
-59.1118
2521.83
-68.5257
2801.42
-69.9738
3073.19
-67.9134
3325.85
-64.4805
3542.28
-57.7097
3717.67
-49.714
3816.84
-41.3014
3851.7
-32.1363
3836.98
-23.6762
3762.85
-14.1706
3681.54
-3.407
3582.84
8.07261
3454.32
20.0356
3297.15
32.1247
3103.56
44.4757
2865.8
56.6986
2566.19
69.3538
2239.33
81.4997
1801.18
92.078
1394.22
96.4735
629.743
98.2546
130.94
67.9066
-681.795
48.4194
-1259.01
37.9506
-1400.33
21.4106
-1715.58
2701.32
-224.866
-589.77
-226.276
-654.374
-228.598
-683.49
-231.492
-719.984
-235.058
-751.244
-239.14
-782.516
-243.73
-811.789
-248.786
-840.244
-254.328
-867.317
-260.429
-893.236
-267.243
-917.872
-275.091
-941.273
-284.703
-962.882
-297.687
-980.953
-317.072
-991.836
-347.476
-989.862
-394.003
-968.946
-459.35
-926.576
-540.471
-868.211
-627.873
-807.846
-709.187
-762.504
-774.549
-744.391
-819.696
-756.702
-845.417
-794.858
-855.137
-850.33
-852.784
-913.871
-841.767
-977.292
-824.816
-1034.45
-804.203
-1082.02
-781.993
-1120.13
-760.087
-1152.46
-740.098
-1184.81
-723.371
-1221.87
-711.21
-1264.42
-705.108
-1309.26
-706.647
-1351.17
-716.999
-1385.34
-736.24
-1408.94
-762.809
-1421.63
-793.421
-1425.27
-823.505
-1422.9
-847.961
-1416.9
-862.056
-1406.77
-863.348
-1390.1
-855.544
-1375.57
-841.573
-1390.97
-767.474
-1372.42
-487.558
-905.499
-180.529
323.175
-65.209
1385.9
-34.2598
1863.05
-24.2376
2212.47
-35.8487
2533.44
-52.6469
2818.21
-61.6735
3082.22
-64.0265
3328.21
-64.0212
3542.27
-60.687
3714.33
-55.506
3811.66
-49.1892
3845.39
-41.3501
3829.14
-33.3742
3754.88
-23.6025
3671.77
-11.9408
3571.18
0.830868
3441.55
14.2794
3283.7
27.9201
3089.92
41.8636
2851.85
55.6805
2552.38
70.0187
2224.99
83.895
1787.3
96.2001
1381.92
101.677
624.266
103.89
128.727
73.5037
-651.408
51.4982
-1237.01
39.843
-1388.67
22.893
-1698.63
2682.99
-230.792
-589.085
-232.338
-652.827
-234.82
-681.008
-237.889
-716.915
-241.649
-747.484
-245.941
-778.224
-250.756
-806.974
-256.052
-834.947
-261.866
-861.503
-268.312
-886.79
-275.654
-910.53
-284.47
-932.458
-296.054
-951.297
-313.03
-963.978
-339.791
-965.075
-381.92
-947.733
-443.619
-907.248
-523.813
-846.382
-614.061
-777.963
-701.23
-720.678
-773.496
-690.237
-824.852
-693.035
-855.338
-726.216
-868.448
-781.748
-868.449
-850.33
-858.97
-923.35
-842.735
-993.527
-821.84
-1055.34
-798.162
-1105.7
-773.681
-1144.61
-750.51
-1175.63
-730.696
-1204.63
-716.107
-1236.46
-708.497
-1272.03
-709.543
-1308.21
-720.526
-1340.18
-741.7
-1364.17
-771.677
-1378.97
-807.236
-1386.07
-843.738
-1388.77
-875.997
-1390.64
-899.167
-1393.73
-909.328
-1396.61
-904.652
-1394.78
-889.1
-1391.12
-870.714
-1409.36
-817.659
-1425.47
-591.224
-1131.93
-240.262
-27.7877
-62.1671
1207.81
-21.6623
1822.55
-3.90702
2194.72
-11.2613
2540.79
-33.0285
2839.98
-50.8193
3100.01
-59.1844
3336.57
-62.963
3546.05
-63.2602
3714.63
-61.21
3809.61
-57.2689
3841.44
-51.0009
3822.87
-43.683
3747.56
-33.7301
3661.82
-21.1849
3558.63
-7.08211
3427.45
7.92208
3268.69
23.1819
3074.66
38.7906
2836.25
54.2807
2536.89
70.4036
2208.87
86.1315
1771.57
100.317
1367.73
107.034
617.549
109.854
125.907
79.4021
-620.957
54.7556
-1212.36
41.5833
-1375.5
24.2989
-1681.35
2656.66
-236.855
-588.248
-238.547
-651.135
-241.204
-678.351
-244.464
-713.656
-248.433
-743.515
-252.953
-773.705
-258.011
-801.916
-263.575
-829.383
-269.707
-855.372
-276.599
-879.898
-284.716
-902.413
-295.092
-922.082
-309.917
-936.472
-333.197
-940.698
-370.672
-927.6
-427.815
-890.59
-505.719
-829.344
-597.62
-754.481
-690.156
-685.427
-769.547
-641.287
-827.65
-632.134
-863.413
-657.272
-880.316
-709.313
-883.075
-778.989
-875.706
-857.699
-861.041
-938.015
-841.021
-1013.55
-817.199
-1079.16
-791.212
-1131.69
-765.144
-1170.68
-741.537
-1199.23
-723.093
-1223.07
-712.353
-1247.2
-711.482
-1272.9
-722.002
-1297.69
-744.297
-1317.89
-777.051
-1331.41
-817.013
-1339
-859.367
-1343.72
-898.638
-1349.5
-929.757
-1359.52
-948.775
-1374.71
-952.961
-1392.42
-941.149
-1406.59
-916.836
-1415.43
-890.369
-1435.82
-849.207
-1466.63
-682.474
-1298.67
-315.819
-394.443
-66.168
958.157
-9.96559
1766.35
13.1484
2171.6
12.8173
2541.12
-10.0869
2862.88
-36.4251
3126.35
-52.7946
3352.94
-61.2619
3554.52
-65.3448
3718.71
-66.718
3810.98
-65.4688
3840.2
-61.0406
3818.45
-54.5762
3741.09
-44.5414
3651.78
-31.1357
3545.23
-15.6689
3411.98
0.955808
3252.07
17.8973
3057.71
35.237
2818.91
52.4716
2519.65
70.4773
2190.86
88.1825
1753.87
104.41
1351.51
112.518
609.441
116.124
122.3
85.6215
-590.454
58.1869
-1184.93
43.2601
-1360.57
25.1208
-1663.21
2633.76
-243.065
-587.246
-244.914
-649.285
-247.762
-675.504
-251.227
-710.191