/*--------------------------------*- C++ -*----------------------------------*\
| =========                 |                                                 |
| \\      /  F ield         | OpenFOAM: The Open Source CFD Toolbox           |
|  \\    /   O peration     | Version:  4.1                                   |
|   \\  /    A nd           | Web:      www.OpenFOAM.org                      |
|    \\/     M anipulation  |                                                 |
\*---------------------------------------------------------------------------*/
FoamFile
{
    version     2.0;
    format      ascii;
    class       volScalarField;
    location    "13";
    object      p;
}
// * * * * * * * * * * * * * * * * * * * * * * * * * * * * * * * * * * * * * //

dimensions      [0 2 -2 0 0 0 0];

internalField   nonuniform List<scalar> 
6785
(
594.448
519.097
471.49
419.504
373.179
328.916
287.499
248.288
211.157
175.916
141.762
108.778
80.213
49.4647
9.43377
6.12558
-11.5916
-2.59854
-8.87616
-8.80365
-11.0311
-11.8676
-12.4282
-12.1055
-10.8262
-8.49625
-5.20093
-0.0884224
5.87026
8.03796
10.6074
5.03973
13.8309
9.07707
12.1092
10.9282
11.2535
10.6606
10.1528
9.37927
8.68266
8.57548
8.53024
7.82806
7.00755
12.0989
7.7344
9.69729
3.54617
3.40249
-0.922496
-3.14348
-6.4626
-9.30026
-12.2211
-14.6703
-16.1047
-16.8862
-17.6085
-16.8543
-10.1186
-13.0375
-10.5739
-14.044
-11.7496
-13.7147
-12.9554
-13.4468
-13.2826
-13.2193
-12.8578
-12.1493
-10.6427
-9.47668
-7.23224
6.72505
6.33229
9.66759
8.39949
11.7496
11.6485
13.7881
14.9162
16.5067
18.0036
19.6179
21.1311
22.9152
24.1743
26.3615
28.7545
29.4385
32.2231
31.4838
34.2263
34.3144
35.998
36.9194
38.088
39.1801
40.3092
41.3737
42.6147
43.547
44.8651
45.452
46.3357
48.3371
47.725
49.7553
49.6385
50.8297
51.2545
51.951
52.6334
53.4091
54.2384
55.1929
55.8919
56.892
57.4669
58.3828
59.7165
59.532
61.2269
61.3811
62.5655
62.934
63.4215
63.3779
63.0385
62.6667
62.5067
62.7745
62.9477
66.8742
66.1159
66.8971
65.6659
66.2164
65.0085
64.6667
63.2421
61.8492
59.9902
58.2007
56.6534
55.6819
55.5481
54.1756
52.1577
48.4858
47.8238
45.0597
44.2805
42.104
41.0831
39.4742
38.3161
36.7782
35.2147
33.8104
33.1832
32.3167
29.1325
16.1182
11.5541
9.83896
6.50741
4.28802
1.0194
-1.61399
-4.65009
-7.29593
-9.83194
-11.6959
-12.6279
-13.2647
-14.0745
-14.1981
0.473519
-1.96141
-3.85107
-6.62184
-8.3273
-10.762
-12.4898
-14.0174
-14.7209
-14.7723
-14.0198
-12.6648
-10.8682
-9.48405
-7.4918
5.42645
7.49773
8.6221
8.82303
9.44681
10.0076
11.082
12.1508
13.3095
14.4378
15.5721
16.5419
17.5714
18.1964
19.5816
53.0714
53.0559
52.151
47.6981
42.6669
39.0774
35.7782
32.8022
30.5099
28.8028
27.2133
26.1131
25.4111
24.9845
24.1532
42.5658
42.9629
43.2047
43.2051
43.3135
43.6292
44.2032
44.0433
43.9517
43.8445
44.1634
43.7408
43.5266
43.7296
43.1466
42.9757
42.9775
43.1209
42.2302
42.3707
42.6275
41.8067
41.6261
42.0656
42.2457
41.4151
41.2808
41.821
42.1511
41.224
41.7618
42.0823
41.4698
41.3687
41.9092
42.1429
41.5443
41.9133
42.1277
41.798
41.6963
42.0005
41.95
41.6878
41.5774
41.7484
41.5406
41.2247
41.3499
41.1925
41.0218
40.9191
41.0163
41.0461
40.9573
40.8683
40.9102
41.2206
41.1504
41.1449
41.455
41.4453
41.4144
41.3393
41.6639
41.8341
42.4679
41.6215
40.4834
41.619
42.5354
36.6816
33.8364
36.7967
38.7341
19.4987
27.7955
32.4187
-6.20524
4.10796
9.25607
7.44845
11.0597
4.66656
6.62812
11.7116
12.0672
13.0642
13.6513
14.6246
16.4441
19.6762
20.5583
15.5729
17.37
20.2012
23.0831
23.6013
24.9696
25.7038
27.3847
31.6339
28.2718
30.495
30.994
32.7031
35.3286
36.9363
37.6922
38.6937
37.9999
43.5104
42.3485
43.9578
44.5823
45.0535
46.5992
49.0307
49.8383
46.8357
51.7874
53.0168
55.0661
55.6356
54.9799
54.2575
53.6013
55.0739
51.5015
58.5988
60.2401
56.812
56.887
56.3531
53.741
51.7437
49.2756
42.4745
52.4254
54.6386
48.2036
44.9175
40.3347
35.8014
31.5611
28.5397
24.7031
19.4561
19.1769
21.6469
16.4212
15.3998
13.7283
11.156
4.64578
2.51101
5.03246
-3.36698
7.76823
5.80943
5.54531
11.1785
6.22378
8.83912
8.00292
9.87837
12.4914
8.67062
10.9295
12.5548
10.0234
10.9675
10.327
11.1356
12.6536
10.3562
11.0922
10.4063
11.1401
12.3121
9.88382
11.0676
11.918
10.0988
10.6073
9.9696
10.4848
11.4294
9.63756
10.108
9.44874
9.97108
10.7542
8.80075
9.65624
10.2232
8.74331
9.0846
8.51946
8.86105
9.50753
8.08322
8.38924
7.83992
8.16821
8.67785
7.18672
7.74895
8.07192
6.95381
7.14219
6.69601
6.86579
7.19604
6.17177
6.31524
5.89701
6.03156
6.20842
5.21506
5.46632
5.48326
4.73171
4.74759
4.40805
4.39717
4.35493
3.68784
3.63835
3.31408
3.26366
3.07051
2.3691
2.42728
2.25249
1.38232
1.18393
1.06821
0.499509
0.269807
0.00117555
0.00192243
0.00309857
0.00390839
0.00483282
0.00563978
0.00645706
0.00721613
0.00794659
0.0086254
0.00925656
0.00983218
0.0103539
0.0108235
0.0112488
0.0116412
0.0120161
0.0123913
0.0127849
0.0132115
0.0136797
0.0141904
0.014739
0.0153212
0.0159434
0.0166326
0.0174429
0.0184526
0.0197425
0.0213523
0.023233
0.0252519
0.0272596
0.0291054
0.030619
0.0316639
0.0321369
0.0319948
0.0312957
0.0302003
0.0289535
0.0278052
0.0268943
0.0261446
0.0252911
0.0240141
0.0219164
0.0184242
0.012786
0.00406153
-0.00856197
-0.0246279
-0.0428529
-0.0714533
-0.123249
-0.0709733
-0.681696
-0.640326
-0.794025
-0.969463
-1.03819
-1.0638
-1.04281
-0.930699
-0.783375
-0.583762
-0.355182
-0.141694
0.0726758
0.247262
0.396928
0.494951
0.57316
0.588874
0.620082
0.612129
0.568028
0.677937
0.39035
0.00332314
0.00535154
0.00861811
0.0109058
0.0134401
0.0156594
0.0178675
0.0199055
0.0218383
0.0236131
0.0252357
0.0266885
0.0279754
0.0291045
0.0300987
0.0309923
0.0318308
0.0326664
0.0335511
0.0345272
0.0356187
0.036827
0.0381371
0.0395363
0.0410415
0.0427295
0.0447549
0.0473413
0.0507193
0.0549998
0.0600367
0.0654457
0.0708064
0.0757051
0.0796743
0.0823474
0.0834482
0.0828649
0.0807634
0.0775862
0.0739844
0.0705602
0.0674774
0.0641047
0.0591114
0.0510558
0.0387287
0.0213583
-0.00116067
-0.0286208
-0.0606511
-0.0959181
-0.133518
-0.175586
-0.2173
-0.160821
-0.975213
-1.00801
-1.30956
-1.65488
-1.85406
-1.9696
-1.97506
-1.78639
-1.51425
-1.13156
-0.691202
-0.270355
0.141634
0.482073
0.751111
0.948462
1.06879
1.14167
1.17214
1.21267
1.18169
1.2979
1.10695
0.00519019
0.00869068
0.014266
0.0181675
0.0224991
0.0262924
0.0300738
0.0335689
0.0368919
0.0399512
0.0427581
0.0452821
0.0475297
0.0495141
0.0512734
0.0528648
0.0543646
0.0558605
0.0574399
0.0591745
0.0611046
0.0632328
0.0655337
0.0679847
0.0706136
0.0735486
0.0770503
0.081497
0.0872813
0.0945945
0.103191
0.112424
0.121583
0.129967
0.136785
0.141411
0.143372
0.142471
0.138988
0.13368
0.127683
0.122089
0.117299
0.11242
0.105406
0.0939842
0.0760997
0.0501267
0.0151927
-0.0292686
-0.0835283
-0.146511
-0.217411
-0.294533
-0.392267
-0.471428
-1.00987
-1.16296
-1.52575
-1.95451
-2.22252
-2.38541
-2.40592
-2.17815
-1.84682
-1.37449
-0.834009
-0.315993
0.188423
0.604958
0.928325
1.16925
1.30705
1.39837
1.4367
1.46996
1.48983
1.52576
1.56113
0.00694692
0.0118848
0.0196554
0.0251384
0.0311912
0.036503
0.0417852
0.0466687
0.051306
0.0555736
0.0594851
0.0629994
0.0661251
0.0688808
0.0713202
0.0735233
0.0755971
0.0776648
0.0798492
0.0822508
0.0849262
0.0878781
0.0910695
0.0944663
0.098105
0.102163
0.107005
0.113163
0.121197
0.131379
0.143364
0.156238
0.169011
0.180705
0.190214
0.196667
0.199398
0.198128
0.193239
0.185794
0.177392
0.169581
0.162932
0.15617
0.146395
0.130415
0.105387
0.0691333
0.0205842
-0.0408419
-0.115408
-0.202477
-0.301957
-0.405478
-0.550013
-0.854416
-1.05728
-1.41856
-1.83591
-2.3722
-2.71627
-2.92568
-2.95787
-2.67664
-2.26973
-1.6859
-1.02027
-0.382459
0.238035
0.749917
1.14592
1.44116
1.60794
1.71533
1.76828
1.78521
1.84857
1.82559
2.15554
0.0085363
0.0149829
0.0249544
0.0320587
0.0398626
0.0467282
0.0535442
0.0598506
0.0658362
0.0713462
0.0763964
0.0809345
0.0849711
0.0885303
0.0916806
0.0945255
0.0972029
0.099872
0.102692
0.105793
0.109248
0.11306
0.117178
0.121556
0.126235
0.13144
0.137641
0.145532
0.155847
0.168954
0.184404
0.201006
0.217489
0.23259
0.244885
0.25325
0.256811
0.255198
0.248886
0.239241
0.228342
0.218217
0.209638
0.200968
0.188499
0.168226
0.13665
0.091092
0.0301522
-0.0471287
-0.141538
-0.253479
-0.383792
-0.521971
-0.731954
-1.2071
-1.00642
-1.71947
-2.18634
-2.84204
-3.27504
-3.53837
-3.58553
-3.24337
-2.7513
-2.04108
-1.23396
-0.460446
0.290926
0.910479
1.38741
1.74473
1.94279
2.07215
2.13721
2.14574
2.24544
2.17348
2.60353
0.0100085
0.0179909
0.030105
0.038838
0.0483729
0.0567878
0.0651238
0.072843
0.080163
0.0869021
0.0930754
0.098621
0.103551
0.107894
0.111734
0.115199
0.118457
0.121704
0.125136
0.128914
0.133128
0.13778
0.142803
0.148135
0.153819
0.160125
0.16763
0.177194
0.189739
0.205738
0.224635
0.24495
0.265133
0.283635
0.298711
0.308986
0.313371
0.311392
0.303605
0.291674
0.278162
0.265594
0.254938
0.24417
0.228752
0.203911
0.165585
0.110701
0.0375817
-0.055104
-0.168736
-0.304917
-0.465367
-0.640085
-0.905876
-1.41142
-0.915957
-2.05191
-2.53528
-3.29756
-3.81994
-4.13573
-4.19679
-3.79045
-3.21432
-2.37835
-1.43387
-0.529169
0.347865
1.06983
1.62298
2.03908
2.26507
2.4154
2.49059
2.48951
2.624
2.50154
2.96596
0.0113618
0.0209301
0.0351456
0.045528
0.0567916
0.0667681
0.0766292
0.0857699
0.0944308
0.102406
0.109708
0.116266
0.122091
0.12722
0.131751
0.135833
0.139669
0.143491
0.147533
0.151988
0.156964
0.16246
0.168392
0.174676
0.181355
0.188742
0.197517
0.208719
0.223473
0.242373
0.264751
0.288822
0.312755
0.334711
0.352621
0.364854
0.370087
0.367727
0.358393
0.344039
0.327723
0.312491
0.299533
0.286426
0.267813
0.238254
0.193263
0.129436
0.0447455
-0.0627175
-0.195214
-0.355742
-0.547035
-0.762198
-1.07581
-1.52759
-0.921543
-2.41585
-2.90982
-3.76258
-4.37619
-4.74347
-4.81666
-4.34011
-3.67781
-2.71261
-1.63017
-0.594374
0.407671
1.23068
1.85904
2.33284
2.58577
2.7559
2.8404
2.82737
2.99396
2.82321
3.36138
0.0126147
0.0238101
0.040072
0.0521177
0.0650972
0.0766395
0.0880216
0.0985842
0.108583
0.117792
0.126219
0.133784
0.140499
0.146405
0.151615
0.156303
0.160703
0.165085
0.169725
0.174847
0.180577
0.186911
0.193745
0.200969
0.208619
0.217047
0.227041
0.239824
0.256748
0.278545
0.304429
0.332287
0.360009
0.385462
0.406246
0.420469
0.426558
0.423776
0.412779
0.395799
0.376409
0.358215
0.34265
0.32688
0.304749
0.27027
0.218654
0.146187
0.0503853
-0.0714153
-0.222553
-0.407512
-0.630225
-0.888234
-1.24496
-1.64976
-1.15683
-2.78423
-3.33044
-4.24884
-4.95817
-5.37799
-5.46199
-4.90736
-4.15457
-3.05353
-1.82921
-0.659124
0.470263
1.39548
2.09974
2.63176
2.91108
3.10134
3.19354
3.16866
3.36341
3.14696
3.72071
0.0137747
0.0266435
0.0448984
0.0586233
0.0733074
0.0864226
0.0993246
0.111313
0.122651
0.133096
0.142648
0.151219
0.158819
0.165497
0.171379
0.176663
0.181614
0.186546
0.191773
0.197555
0.204035
0.211207
0.218941
0.227096
0.235698
0.245129
0.256288
0.270594
0.28965
0.314351
0.343782
0.375476
0.407047
0.436056
0.459773
0.47603
0.482981
0.479709
0.466874
0.446982
0.424148
0.402593
0.384027
0.365197
0.339202
0.299658
0.24158
0.160893
0.0544998
-0.0812282
-0.250922
-0.460667
-0.715888
-1.0189
-1.41928
-1.82763
-1.65912
-3.13233
-3.80432
-4.75444
-5.56499
-6.03845
-6.131
-5.48905
-4.64108
-3.3973
-2.02789
-0.721131
0.536816
1.56426
2.34406
2.93405
3.2384
3.44914
3.54679
3.51069
3.72944
3.47119
4.04823
0.0148523
0.0294387
0.0496299
0.0650479
0.0814226
0.0961157
0.110534
0.123951
0.136628
0.148308
0.158982
0.168556
0.177037
0.184478
0.191021
0.196887
0.202377
0.207843
0.213644
0.220076
0.227301
0.235308
0.243938
0.253015
0.262543
0.272934
0.285194
0.300954
0.322097
0.349709
0.382732
0.418318
0.453803
0.486435
0.513143
0.531474
0.539266
0.535385
0.520455
0.497258
0.470509
0.445109
0.423075
0.400747
0.370572
0.325928
0.26167
0.173243
0.0567618
-0.0925556
-0.280817
-0.515838
-0.804817
-1.15431
-1.60197
-2.07122
-2.33083
-3.38528
-4.3299
-5.28156
-6.20003
-6.729
-6.82664
-6.08636
-5.13763
-3.74321
-2.22537
-0.779585
0.607882
1.7372
2.5919
3.23933
3.56709
3.79866
3.89919
3.8526
4.09134
3.79293
4.41213
0.015855
0.0322041
0.0542753
0.0714
0.0894505
0.105727
0.121659
0.136506
0.150521
0.163438
0.175233
0.185807
0.195163
0.20336
0.210552
0.216987
0.222999
0.228983
0.235344
0.242416
0.250381
0.259222
0.268748
0.278737
0.289166
0.300469
0.313761
0.330897
0.354077
0.384611
0.421284
0.460827
0.500304
0.536634
0.566396
0.586827
0.595402
0.590715
0.573323
0.546317
0.515092
0.485298
0.459287
0.433038
0.398474
0.348857
0.278838
0.18322
0.0571553
-0.105462
-0.312385
-0.573313
-0.897478
-1.29482
-1.79507
-2.35879
-2.96999
-3.48479
-4.90525
-5.83475
-6.8686
-7.45709
-7.55515
-6.70342
-5.64711
-4.09269
-2.42237
-0.834541
0.683725
1.91476
2.84384
3.54816
3.89766
4.15061
4.25115
4.19525
4.44974
4.11176
4.75293
0.01679
0.034946
0.0588407
0.0776847
0.0973951
0.115259
0.132701
0.14898
0.164333
0.178487
0.191402
0.202972
0.213196
0.222139
0.229969
0.236957
0.243473
0.249958
0.256862
0.264562
0.273264
0.282939
0.293359
0.304252
0.315555
0.327717
0.34196
0.360382
0.385543
0.419015
0.459405
0.50298
0.546534
0.586639
0.61951
0.642036
0.651263
0.645459
0.625111
0.593692
0.55738
0.522626
0.49214
0.461642
0.422656
0.368378
0.293138
0.190922
0.0557658
-0.119908
-0.345645
-0.63319
-0.994009
-1.44066
-1.99873
-2.66
-3.42351
-3.53229
-5.55159
-6.41984
-7.57444
-8.23008
-8.32238
-7.34355
-6.17152
-4.44627
-2.61884
-0.88559
0.764864
2.09736
3.10012
3.86076
4.23005
4.50514
4.60244
4.53898
4.80437
4.43232
5.06029
0.0176632
0.0376705
0.0633329
0.0839082
0.105262
0.124717
0.143665
0.161378
0.178068
0.193459
0.207492
0.220056
0.231142
0.240821
0.249274
0.256798
0.263799
0.270764
0.278194
0.286512
0.295944
0.306454
0.31777
0.329558
0.341708
0.354671
0.369778
0.389385
0.416462
0.45289
0.497075
0.544765
0.592491
0.636445
0.672455
0.697005
0.706639
0.699263
0.67534
0.638852
0.596859
0.556619
0.52125
0.486346
0.443116
0.384658
0.30483
0.19663
0.052855
-0.135674
-0.380425
-0.695342
-1.09429
-1.59198
-2.21282
-2.9641
-3.74898
-3.68766
-6.25845
-7.04647
-8.32012
-9.05616
-9.13496
-8.01017
-6.71274
-4.80428
-2.81475
-0.932304
0.852153
2.28569
3.36112
4.17706
4.56417
4.86221
4.95271
4.88385
5.15532
4.74889
5.40995
0.01848
0.0403824
0.0677577
0.0900753
0.113055
0.134105
0.154554
0.173704
0.191731
0.208359
0.223507
0.23706
0.249001
0.259406
0.268467
0.276509
0.283973
0.291396
0.299333
0.308255
0.318413
0.32976
0.341975
0.354651
0.367619
0.381322
0.397194
0.41787
0.44679
0.4862
0.534268
0.586163
0.638156
0.686015
0.725138
0.751529
0.761161
0.751597
0.723397
0.681215
0.633051
0.586923
0.546421
0.507168
0.460074
0.398052
0.314326
0.200763
0.0488153
-0.152403
-0.416398
-0.759447
-1.19794
-1.74871
-2.43726
-3.27417
-4.06702
-4.092
-6.96403
-7.73066
-9.10738
-9.94448
-10.0009
-8.7076
-7.27317
-5.16744
-3.01032
-0.974332
0.946402
2.4806
3.62822
4.49748
4.89979
5.22181
5.30174
5.23003
5.50245
5.06547
5.71629
0.0192449
0.043086
0.0721204
0.0961909
0.120779
0.143427
0.165372
0.18596
0.205323
0.223189
0.239451
0.253989
0.266777
0.277895
0.287549
0.296089
0.303993
0.311849
0.320273
0.329784
0.340664
0.352851
0.365969
0.379528
0.393285
0.407663
0.42419
0.445805
0.476484
0.518906
0.570956
0.627152
0.683498
0.735272
0.777379
0.805253
0.814276
0.801766
0.768589
0.72024
0.66562
0.61339
0.567704
0.524372
0.473957
0.409078
0.322173
0.203855
0.0441517
-0.169621
-0.453103
-0.825017
-1.30439
-1.91039
-2.67101
-3.5916
-4.42529
-4.80328
-7.64542
-8.48858
-9.93741
-10.9045
-10.9296
-9.44088
-7.85554
-5.53672
-3.20551
-1.01111
1.04819
2.68259
3.9025
4.82261
5.23714
5.58403
5.64923
5.57776
5.84561
5.38004
6.0245
0.0199616
0.0457852
0.0764261
0.102259
0.128438
0.152685
0.176122
0.19815
0.218848
0.237952
0.255327
0.270846
0.284472
0.296292
0.306521
0.315536
0.323855
0.332119
0.341005
0.351091
0.362688
0.375721
0.389749
0.404188
0.418706
0.433687
0.450749
0.473153
0.505497
0.550967
0.607107
0.667696
0.728452
0.784059
0.828849
0.857615
0.865208
0.848929
0.810224
0.755529
0.694458
0.636119
0.585383
0.538418
0.485341
0.418365
0.329006
0.206522
0.0394484
-0.186766
-0.489968
-0.891423
-1.41287
-2.07615
-2.91202
-3.91587
-4.84356
-5.78958
-8.25879
-9.32311
-10.8114
-11.9458
-11.9313
-10.2158
-8.46287
-5.91293
-3.40017
-1.04203
1.15812
2.89216
4.18425
5.15253
5.57807
5.94859
5.99502
5.92722
6.18487
5.69155
6.33695
0.0206336
0.0484831
0.0806791
0.108284
0.136035
0.161884
0.186808
0.210277
0.23231
0.252653
0.271137
0.287632
0.302089
0.314597
0.325384
0.33485
0.343555
0.352199
0.361522
0.372166
0.384476
0.398362
0.41331
0.428629
0.443879
0.459389
0.476852
0.499877
0.533777
0.582336
0.642682
0.70774
0.772891
0.832089
0.879008
0.907801
0.912983
0.892191
0.847741
0.786945
0.719727
0.65544
0.599926
0.549903
0.494897
0.426612
0.335512
0.209423
0.0353383
-0.203212
-0.526345
-0.95792
-1.52247
-2.2447
-3.15768
-4.24588
-5.31771
-6.89451
-8.6868
-10.2114
-11.7323
-13.0788
-13.0176
-11.0391
-9.09878
-6.29671
-3.5941
-1.0665
1.27683
3.10989
4.47383
5.48734
5.92411
6.31525
6.33899
6.27844
6.52008
6.00536
6.62383
0.0212633
0.0511827
0.0848835
0.114269
0.143574
0.171027
0.197432
0.222343
0.245711
0.267292
0.286885
0.304352
0.31963
0.332813
0.344136
0.354029
0.363092
0.372083
0.381816
0.393
0.40602
0.420767
0.436649
0.452849
0.468806
0.484766
0.502484
0.525936
0.561268
0.612962
0.677628
0.747182
0.816583
0.878879
0.927056
0.954745
0.956496
0.93075
0.880872
0.814672
0.741837
0.671849
0.611915
0.559496
0.503338
0.43454
0.342394
0.213235
0.0324756
-0.218305
-0.561531
-1.02369
-1.63211
-2.41449
-3.40518
-4.57998
-5.81665
-7.83774
-8.88563
-11.1463
-12.7036
-14.3148
-14.2016
-11.9184
-9.76754
-6.68888
-3.78713
-1.08389
1.40498
3.33633
4.77161
5.82717
6.27528
6.68412
6.68016
6.63183
6.85111
6.31569
6.91913
0.0218531
0.0538865
0.089043
0.120217
0.151057
0.180115
0.207996
0.234351
0.259053
0.281875
0.302574
0.321008
0.337098
0.35094
0.36278
0.373072
0.38246
0.391764
0.401877
0.413583
0.427309
0.442929
0.459761
0.47685
0.493488
0.509817
0.527628
0.551288
0.587907
0.642784
0.711859
0.785838
0.859121
0.923683
0.9719
0.997178
0.994671
0.964106
0.909742
0.839197
0.761364
0.68592
0.621966
0.567879
0.511374
0.442859
0.350343
0.218623
0.0315111
-0.231384
-0.594815
-1.08788
-1.74065
-2.58375
-3.65185
-4.91555
-6.30511
-8.44704
-9.04297
-12.1315
-13.728
-15.6667
-15.497
-12.8622
-10.4741
-7.09059
-3.97907
-1.09354
1.54324
3.57206
5.07795
6.17215
6.63137
7.05439
7.02002
6.9874
7.17809
6.62135
7.22693
0.0224046
0.0565968
0.0931606
0.126131
0.158488
0.18915
0.218502
0.246303
0.272339
0.296401
0.318205
0.337602
0.354494
0.368981
0.381315
0.391978
0.401656
0.411237
0.421697
0.433903
0.448332
0.464839
0.482642
0.500631
0.517929
0.534542
0.55227
0.575887
0.613622
0.67172
0.745234
0.823386
0.899854
0.965455
1.01218
1.03377
1.02671
0.992236
0.934874
0.861203
0.778942
0.698228
0.630673
0.575697
0.519675
0.452242
0.360012
0.226223
0.0330669
-0.241821
-0.625527
-1.14968
-1.84698
-2.75073
-3.89543
-5.25039
-6.77318
-8.86906
-9.39589
-13.0987
-14.8242
-17.1468
-16.9183
-13.8798
-11.224
-7.50337
-4.16972
-1.09476
1.69226
3.81765
5.39313
6.52238
6.9923
7.42498
7.36293
7.34355
7.50097
6.93134
7.51188
0.022919
0.0593157
0.0972392
0.132013
0.165868
0.198136
0.228953
0.258201
0.285571
0.310875
0.333782
0.354137
0.371821
0.386936
0.399742
0.410745
0.420676
0.430494
0.441265
0.453948
0.469077
0.486488
0.505289
0.524195
0.542135
0.558945
0.576396
0.59968
0.638327
0.699649
0.777504
0.859293
0.937846
1.00285
1.04639
1.06339
1.05235
1.01564
0.957057
0.881436
0.795177
0.709283
0.638557
0.58353
0.528845
0.463302
0.372004
0.23662
0.0377017
-0.249083
-0.653122
-1.20845
-1.95015
-2.91398
-4.13427
-5.58287
-7.22646
-9.28896
-10.2058
-13.9944
-16.0329
-18.7677
-18.4799
-14.9809
-12.0231
-7.92908
-4.35891
-1.08685
1.85274
4.07368
5.71741
6.87796
7.35789
7.79551
7.71084
7.69917
7.81954
7.23409
7.80837
0.0233973
0.0620451
0.101281
0.137865
0.1732
0.207073
0.23935
0.270045
0.298751
0.325298
0.349308
0.370615
0.389082
0.404808
0.418061
0.429371
0.439515
0.449527
0.46057
0.473706
0.489533
0.507867
0.527697
0.547542
0.566113
0.583034
0.599993
0.622608
0.661908
0.726377
0.808253
0.892764
0.971852
1.03427
1.0731
1.08547
1.07201
1.03521
0.977182
0.900597
0.81058
0.719484
0.646032
0.591863
0.539413
0.476587
0.386858
0.25032
0.0458553
-0.252811
-0.677302
-1.26384
-2.04962
-3.07262
-4.36759
-5.91171
-7.67259
-9.79116
-11.462
-14.7118
-17.3602
-20.5491
-20.1972
-16.1758
-12.8779
-8.36993
-4.54654
-1.06907
2.02535
4.34071
6.05103
7.23897
7.72782
8.16565
8.06337
8.05458
8.13393
7.53701
8.10205
0.02384
0.0647865
0.105288
0.143689
0.180485
0.215962
0.249694
0.281839
0.31188
0.339672
0.364783
0.387038
0.406277
0.422597
0.436272
0.447855
0.45817
0.468328
0.4796
0.493161
0.509684
0.528967
0.549863
0.570677
0.589873
0.606817
0.62305
0.644598
0.684201
0.751588
0.836843
0.922727
1.00034
1.05806
1.09137
1.10028
1.08666
1.05199
0.996086
0.919272
0.825532
0.729092
0.653391
0.60108
0.551824
0.492572
0.405026
0.267698
0.0577607
-0.252956
-0.698174
-1.316
-2.14548
-3.2267
-4.59569
-6.23696
-8.11995
-10.3756
-12.7759
-15.0802
-18.7771
-22.5151
-22.0878
-17.4749
-13.7948
-8.82824
-4.73265
-1.0407
2.21076
4.61929
6.39417
7.60547
8.10166
8.53501
8.42011
8.41006
8.44405
7.8366
8.38116
0.0242472
0.0675416
0.109262
0.149485
0.187725
0.224804
0.259986
0.293581
0.324959
0.353999
0.38021
0.403409
0.423409
0.440306
0.454375
0.466195
0.476635
0.486888
0.498343
0.512301
0.529518
0.549775
0.571781
0.593603
0.613427
0.630308
0.645551
0.665547
0.704959
0.774784
0.862397
0.94783
1.02154
1.0729
1.1012
1.10881
1.09753
1.067
1.01448
0.937908
0.84027
0.738221
0.660794
0.611463
0.56644
0.511641
0.42683
0.288918
0.0733142
-0.249935
-0.716425
-1.36579
-2.23867
-3.37727
-4.82004
-6.56032
-8.57357
-10.9921
-13.7064
-15.3161
-20.2865
-24.6866
-24.1715
-18.8892
-14.7804
-9.30625
-4.91744
-1.00102
2.40966
4.90996
6.74697
7.97748
8.47886
8.90322
8.78059
8.76576
8.74999
8.13537
8.68453
0.0246188
0.0703118
0.113205
0.155255
0.194919
0.233599
0.270227
0.305273
0.33799
0.36828
0.395591
0.419729
0.44048
0.457935
0.472371
0.484389
0.494906
0.5052
0.516786
0.531107
0.549017
0.57028
0.593446
0.616323
0.636788
0.65352
0.667471
0.685301
0.723796
0.795275
0.883834
0.96641
1.03378
1.07835
1.10353
1.11249
1.10586
1.08111
1.0329
0.956812
0.85489
0.746833
0.668279
0.6232
0.583536
0.534063
0.452391
0.3138
0.0919075
-0.244813
-0.733499
-1.41489
-2.33101
-3.52639
-5.04319
-6.88502
-9.0374
-11.6215
-14.3975
-15.8195
-21.7916
-27.1224
-26.4683
-20.4291
-15.8411
-9.80587
-5.10128
-0.949316
2.6227
5.21323
7.10952
8.35496
8.85874
9.26993
9.14408
9.12195
9.05165
8.44616
8.96248
0.0249542
0.0730983
0.117116
0.161
0.202068
0.242348
0.280415
0.316916
0.350974
0.382516
0.410928
0.436001
0.457491
0.475485
0.49026
0.502436
0.512977
0.523253
0.534914
0.549562
0.568164
0.59047
0.614854
0.638843
0.659969
0.676463
0.688757
0.703607
0.740161
0.812248
0.899811
0.976577
1.03608
1.0752
1.10002
1.11283
1.1127
1.09499
1.05177
0.976177
0.869362
0.754753
0.675768
0.636385
0.603288
0.559931
0.481512
0.341655
0.112241
-0.239467
-0.75168
-1.46578
-2.42509
-3.67685
-5.26831
-7.21509
-9.51581
-12.2742
-15.1461
-17.0635
-23.2245
-29.9176
-28.9927
-22.1032
-16.9827
-10.3287
-5.28469
-0.884948
2.85055
5.52957
7.48188
8.73784
9.24055
9.63476
9.50966
9.47854
9.34883
8.75963
9.22972
0.0252527
0.0759024
0.120998
0.16672
0.209173
0.25105
0.290552
0.328508
0.363909
0.396707
0.426221
0.452225
0.474444
0.492958
0.508042
0.520334
0.530844
0.541037
0.552712
0.567647
0.58694
0.610328
0.635996
0.661164
0.682981
0.699132
0.709293
0.720065
0.753419
0.824803
0.908564
0.976742
1.02879
1.0652
1.09242
1.1111
1.11889
1.10915
1.07137
0.996112
0.883552
0.761678
0.68308
0.651026
0.625736
0.589065
0.513514
0.371091
0.132157
-0.236655
-0.774036
-1.52155
-2.52387
-3.83165
-5.49872
-7.55438
-10.0116
-12.9632
-16.0915
-19.0596
-24.4227
-33.1317
-31.7679
-23.9185
-18.2104
-10.8763
-5.46812
-0.807297
3.09382
5.85944
7.86403
9.12596
9.62338
9.99736
9.87622
9.8348
9.6419
9.07224
9.52432
0.0255133
0.0787251
0.124849
0.172413
0.216233
0.259703
0.300635
0.340048
0.376797
0.410855
0.441472
0.468403
0.49134
0.510354
0.525717
0.538081
0.548502
0.558542
0.570164
0.585342
0.605324
0.62984
0.656865
0.683287
0.705823
0.721478
0.728833
0.734152
0.763035
0.831693
0.908065
0.966508
1.01362
1.05041
1.08229
1.1083
1.12503
1.12397
1.09195
1.01668
0.897243
0.767188
0.689945
0.667031
0.650724
0.620877
0.547042
0.399831
0.148564
-0.239928
-0.804105
-1.58538
-2.63021
-3.99351
-5.73727
-7.90598
-10.5269
-13.6999
-17.2318
-21.2152
-25.2606
-36.8625
-34.8293
-25.8817
-19.5292
-11.4499
-5.65169
-0.715738
3.35314
6.20324
8.25592
9.51912
10.0062
10.3573
10.2425
10.1895
9.93156
9.39981
9.79087
0.0257345
0.0815674
0.12867
0.178081
0.223246
0.268307
0.310664
0.351537
0.389637
0.42496
0.456682
0.484537
0.508181
0.527675
0.543285
0.555676
0.565945
0.575758
0.587252
0.602624
0.623293
0.648986
0.677448
0.705201
0.728465
0.743349
0.746928
0.745445
0.76857
0.831034
0.896909
0.947168
0.992928
1.03271
1.07082
1.10516
1.13158
1.13977
1.11373
1.03794
0.910149
0.770755
0.696013
0.684188
0.6778
0.65418
0.579867
0.424611
0.157526
-0.253272
-0.845358
-1.66003
-2.74629
-4.1644
-5.9859
-8.27172
-11.0632
-14.4887
-18.4871
-22.9656
-26.0841
-41.3261
-38.1896
-28.0017
-20.9435
-12.0506
-5.83488
-0.609561
3.6291
6.56133
8.65744
9.91703
10.388
10.7142
10.6073
10.5412
10.2193
9.72135
10.0596
0.0259149
0.0844303
0.13246
0.183721
0.230212
0.27686
0.320637
0.362972
0.402427
0.439021
0.471851
0.500627
0.524967
0.544922
0.560748
0.573117
0.583168
0.592673
0.603958
0.619469
0.640821
0.667744
0.697727
0.726877
0.750807
0.764374
0.762996
0.753814
0.768926
0.820632
0.875407
0.921224
0.968948
1.01351
1.05886
1.1022
1.13891
1.15684
1.13696
1.05995
0.921931
0.771754
0.700859
0.702117
0.706073
0.686992
0.608747
0.441237
0.154631
-0.28049
-0.900536
-1.74726
-2.87329
-4.3452
-6.2453
-8.652
-11.6214
-15.3315
-19.8283
-24.5736
-27.4024
-46.3672
-41.8815
-30.2829
-22.4565
-12.678
-6.01622
-0.487857
3.92236
6.93403
9.06841
10.3193
10.7675
11.0675
10.9692
10.8885
10.5083
10.0482
10.3322
0.0260525
0.0873145
0.13622
0.189334
0.237129
0.28536
0.330552
0.374351
0.415167
0.453038
0.486979
0.516673
0.5417
0.562095
0.578104
0.590403
0.600166
0.609274
0.620261
0.635849
0.657881
0.686089
0.717667
0.748241
0.772582
0.783875
0.776668
0.759131
0.761695
0.799146
0.845871
0.891482
0.943356
0.993765
1.04699
1.09979
1.14734
1.17553
1.16196
1.08283
0.932205
0.769471
0.703992
0.720196
0.734032
0.716344
0.629402
0.444916
0.135671
-0.324429
-0.971081
-1.84753
-3.0111
-4.53542
-6.51457
-9.04551
-12.2008
-16.2297
-21.2546
-26.2809
-29.8002
-51.8417
-45.9777
-32.7258
-24.0684
-13.3302
-6.19336
-0.349424
4.23361
7.32163
9.48857
10.7256
11.1434
11.4165
11.327
11.23
10.8006
10.3708
10.5871
0.0261452
0.0902209
0.139947
0.194916
0.243995
0.293803
0.340406
0.385672
0.427854
0.467009
0.502066
0.532677
0.55838
0.579195
0.595354
0.607531
0.616933
0.62555
0.63614
0.651735
0.674438
0.703983
0.737212
0.769118
0.793207
0.800977
0.788043
0.761064
0.745847
0.767496
0.811056
0.859826
0.91726
0.974148
1.0356
1.09828
1.15721
1.19625
1.18914
1.10678
0.940547
0.76312
0.704855
0.73745
0.75934
0.738155
0.636747
0.430964
0.0975433
-0.386332
-1.05684
-1.95984
-3.15815
-4.73297
-6.79095
-9.44883
-12.7986
-17.1798
-22.7615
-28.1987
-33.3622
-57.653
-50.4808
-35.3221
-25.7723
-14.0039
-6.36324
-0.192641
4.56373
7.72442
9.91761
11.1353
11.5142
11.7604
11.6793
11.5643
11.0973
10.6873
10.8745
0.0261908
0.0931502
0.14364
0.200467
0.250807
0.302186
0.350195
0.396931
0.440487
0.480934
0.517112
0.548638
0.575007
0.596222
0.612498
0.624502
0.633465
0.641488
0.651571
0.667094
0.690452
0.721375
0.756247
0.789116
0.811713
0.814982
0.79634
0.754942
0.713945
0.729235
0.773132
0.827901
0.891181
0.955026
1.02501
1.09799
1.16895
1.21948
1.21904
1.13206
0.946502
0.751872
0.702821
0.752414
0.778616
0.747263
0.625539
0.39584
0.0390414
-0.465533
-1.156
-2.08165
-3.31124
-4.93386
-7.06942
-9.85591
-13.4085
-18.173
-24.3406
-30.3817
-38.0378
-63.5786
-55.3445
-38.0545
-27.5542
-14.6949
-6.52233
-0.0153495
4.91386
8.14274
10.3552
11.5479
11.8784
12.0982
12.0248
11.8902
11.3994
11.0153
11.1329
0.0261866
0.0961031
0.147298
0.205983
0.257562
0.310505
0.359915
0.408125
0.453061
0.494811
0.532115
0.564556
0.59158
0.613176
0.629536
0.641314
0.649756
0.657075
0.666529
0.681886
0.705873
0.738181
0.774535
0.807481
0.827021
0.825283
0.798909
0.735314
0.670747
0.688855
0.731995
0.796224
0.865579
0.936705
1.01552
1.09929
1.18302
1.24586
1.25234
1.15907
0.94959
0.734894
0.697218
0.762941
0.787182
0.737833
0.591521
0.338154
-0.03879
-0.559506
-1.2652
-2.20885
-3.46535
-5.13187
-7.3423
-10.2576
-14.02
-19.1942
-25.978
-32.8403
-43.7509
-69.4486
-60.5513
-40.9097
-29.3981
-15.3989
-6.66666
0.18526
5.28558
8.57707
10.8008
11.9628
12.2341
12.4286
12.3623
12.2065
11.7075
11.333
11.3912
0.0261297
0.0990801
0.15092
0.211463
0.264255
0.318756
0.369561
0.419248
0.465575
0.508636
0.547075
0.580429
0.608101
0.630057
0.646469
0.657965
0.665801
0.672295
0.680985
0.696066
0.720629
0.754258
0.791595
0.823127
0.838596
0.831999
0.794029
0.699331
0.625982
0.648845
0.690636
0.765542
0.840674
0.919531
1.00749
1.10263
1.2
1.27614
1.28992
1.18834
0.949291
0.711452
0.687411
0.765812
0.778953
0.704478
0.532767
0.259168
-0.132796
-0.664107
-1.37954
-2.33564
-3.6134
-5.31838
-7.59907
-10.6413
-14.6186
-20.2223
-27.6529
-35.5493
-50.4168
-75.19
-66.0716
-43.8718
-31.2881
-16.111
-6.7915
0.412693
5.68094
9.02813
11.2541
12.3793
12.5795
12.7501
12.6904
12.5124
12.0222
11.6406
11.6868
0.0260171
0.102082
0.154502
0.216903
0.270884
0.326934
0.379129
0.430297
0.478023
0.522408
0.561989
0.596257
0.624566
0.646864
0.663295
0.674456
0.681594
0.687133
0.694903
0.709573
0.734621
0.769331
0.806613
0.835193
0.847332
0.837498
0.77504
0.656508
0.580258
0.607185
0.649412
0.735973
0.816858
0.903895
1.00132
1.10852
1.22055
1.31121
1.33284
1.22053
0.944994
0.681179
0.672823
0.755927
0.747066
0.644032
0.450512
0.162594
-0.238132
-0.773798
-1.49267
-2.45445
-3.74627
-5.48246
-7.82686
-10.9921
-15.1864
-21.2319
-29.3372
-38.4554
-57.8429
-80.797
-71.8072
-46.9121
-33.2048
-16.8238
-6.89084
0.671059
6.10263
9.49703
11.7149
12.7965
12.9123
13.0611
13.008
12.8075
12.3442
11.966
11.9483
0.0258454
0.105109
0.158042
0.222299
0.277443
0.335032