/*--------------------------------*- C++ -*----------------------------------*\
| =========                 |                                                 |
| \\      /  F ield         | OpenFOAM: The Open Source CFD Toolbox           |
|  \\    /   O peration     | Version:  4.1                                   |
|   \\  /    A nd           | Web:      www.OpenFOAM.org                      |
|    \\/     M anipulation  |                                                 |
\*---------------------------------------------------------------------------*/
FoamFile
{
    version     2.0;
    format      ascii;
    class       volVectorField;
    location    "5";
    object      U;
}
// * * * * * * * * * * * * * * * * * * * * * * * * * * * * * * * * * * * * * //

dimensions      [0 1 -1 0 0 0 0];

internalField   nonuniform List<vector> 
6785
(
(6.21386e-14 -0.60522 16.1055)
(5.81374e-14 -6.49985 12.4968)
(-9.43563e-15 -4.73602 12.835)
(1.4958e-14 -4.20064 12.6183)
(5.00377e-15 -3.58811 12.4605)
(-5.10459e-15 -3.11401 12.2516)
(1.55365e-14 -2.72613 12.0114)
(4.69313e-15 -2.43827 11.7275)
(-4.37912e-15 -2.24396 11.3964)
(2.52652e-14 -2.10938 11.0363)
(3.54546e-15 -2.04189 10.6718)
(-6.18055e-15 -2.23677 10.2329)
(1.62255e-14 -2.62389 9.64969)
(-5.92539e-15 -1.75817 9.10543)
(-3.41104e-14 0.918261 6.90335)
(1.3113e-13 -7.38337 26.1527)
(8.30071e-14 -16.5839 21.8111)
(2.03453e-15 -11.6907 22.2815)
(1.09093e-13 -11.8914 20.9098)
(2.15939e-15 -10.9422 19.9345)
(1.92857e-14 -10.212 18.9057)
(8.77285e-14 -9.4663 17.884)
(7.96061e-15 -8.74163 16.8458)
(3.26553e-14 -8.04391 15.7903)
(8.73948e-14 -7.38898 14.8202)
(1.39883e-14 -6.82599 14.1032)
(4.90418e-14 -6.4911 13.3105)
(6.74203e-14 -6.18493 11.318)
(-3.8545e-14 -4.87724 7.82013)
(-5.72755e-14 -2.68311 8.21549)
(5.01658e-14 -10.3016 28.271)
(7.87544e-14 -17.758 24.5402)
(-9.23474e-15 -12.0318 25.0871)
(-2.67791e-15 -12.8009 22.9835)
(1.09082e-14 -11.2964 21.8632)
(-2.34362e-15 -10.4645 20.4716)
(-1.84322e-14 -9.53867 19.1454)
(1.61907e-14 -8.68146 17.8354)
(-1.19533e-14 -7.88539 16.5866)
(-3.30643e-14 -7.10077 15.3405)
(8.50997e-15 -5.99807 13.4777)
(-8.20322e-14 -3.80408 9.43109)
(-2.72477e-13 0.0566363 2.30343)
(-3.01815e-13 3.39231 -3.99549)
(-2.03307e-13 1.80729 -3.10976)
(7.36759e-14 -11.3352 27.5875)
(3.57475e-14 -17.7398 24.3561)
(1.89354e-14 -11.9677 24.8774)
(-1.7325e-14 -13.6135 22.1402)
(-2.79876e-14 -11.6574 21.1577)
(4.06517e-14 -11.1707 19.4877)
(-4.05322e-14 -10.2607 18.0905)
(-4.34956e-14 -9.534 16.6664)
(4.35604e-14 -8.84852 15.3439)
(-4.86671e-14 -8.21341 14.0702)
(-7.23751e-14 -7.33668 12.3721)
(-1.03127e-14 -5.48267 9.04393)
(-8.69926e-14 -2.29315 3.41566)
(-5.21066e-13 1.08923 -0.681319)
(-2.66762e-13 1.75498 -5.28403)
(4.80361e-14 -11.5098 26.1949)
(-5.11088e-14 -17.6944 24.8554)
(-3.6675e-14 -12.2361 24.6018)
(-4.97004e-14 -13.9019 21.6801)
(-9.93621e-14 -11.8752 20.7329)
(-2.44563e-14 -11.4679 18.9566)
(-6.8743e-14 -10.5729 17.4933)
(-1.72101e-13 -9.81734 16.0055)
(-7.3796e-14 -9.09125 14.5914)
(-6.4881e-14 -8.40481 13.2454)
(-1.66209e-13 -7.64453 11.7654)
(-1.61547e-13 -6.38697 9.57229)
(-1.0044e-13 -4.33045 5.99124)
(-5.2713e-13 -1.46168 2.38723)
(-3.916e-14 0.421489 -2.77187)
(7.92811e-14 -11.3298 24.5396)
(-3.52928e-14 -17.4468 25.3379)
(3.8891e-14 -12.3999 24.3691)
(-4.97621e-14 -13.6695 21.3945)
(-1.01885e-13 -11.6694 20.4537)
(1.34828e-14 -11.2387 18.6578)
(-5.75446e-14 -10.2986 17.1886)
(-1.46833e-13 -9.47375 15.6833)
(-3.33133e-15 -8.67247 14.2141)
(-6.15425e-14 -7.89488 12.8099)
(-1.30789e-13 -7.13408 11.402)
(-7.22815e-14 -6.15113 9.73824)
(-8.46731e-14 -4.71991 7.16516)
(-2.44937e-13 -2.35059 3.898)
(1.26824e-12 -0.175243 -1.79544)
(1.63662e-13 -11.042 22.986)
(9.68594e-15 -17.0115 25.461)
(9.42811e-14 -12.5542 24.1064)
(-3.51339e-14 -13.3356 21.1205)
(-5.08307e-14 -11.5038 20.1162)
(9.8193e-14 -11.0297 18.3753)
(-1.8654e-14 -10.1051 16.9121)
(-5.09952e-14 -9.26587 15.4195)
(4.53682e-14 -8.455 13.9583)
(-2.49498e-14 -7.65457 12.5699)
(-2.32786e-14 -6.89193 11.2091)
(8.18479e-14 -6.01869 9.77645)
(-1.58037e-14 -4.92694 7.77935)
(-2.5184e-13 -2.99262 5.02613)
(8.61616e-13 -0.700988 -0.673085)
(9.37765e-14 -10.7904 21.8695)
(4.01695e-14 -16.4825 25.1259)
(8.92546e-14 -12.6199 23.7658)
(-2.22371e-14 -13.0668 20.7968)
(-6.31028e-14 -11.4205 19.7119)
(5.79917e-14 -10.9227 18.0491)
(6.37381e-15 -10.0766 16.6244)
(-5.10596e-14 -9.30925 15.239)
(2.55044e-14 -8.58774 13.9002)
(-1.07168e-14 -7.85295 12.606)
(-8.57207e-15 -7.1277 11.3076)
(5.94761e-14 -6.33215 10.0008)
(4.02368e-14 -5.45449 8.4269)
(-1.4785e-13 -3.957 6.38075)
(1.97205e-13 -1.81284 1.40658)
(1.10905e-13 -10.7961 21.3851)
(3.31474e-14 -15.8663 24.3694)
(7.20174e-15 -12.3544 23.275)
(-1.56905e-14 -12.8481 20.2857)
(-5.64891e-14 -11.107 19.2782)
(-3.76665e-14 -10.7693 17.5918)
(1.6359e-14 -9.95316 16.3334)
(-2.51728e-14 -9.36929 15.0694)
(-6.84898e-14 -8.77071 13.811)
(5.57771e-14 -8.15043 12.5795)
(6.0526e-14 -7.56657 11.4516)
(-5.93253e-14 -6.96928 10.4569)
(4.65394e-14 -6.31965 9.4425)
(-4.3851e-14 -5.22955 8.11123)
(-2.5641e-13 -3.27843 4.05662)
(5.95735e-14 -11.2376 21.4966)
(2.26096e-14 -15.1149 23.5837)
(-1.35512e-14 -12.0015 22.6818)
(-1.11793e-13 -12.5284 19.7723)
(-4.64869e-14 -10.5871 18.8183)
(-5.19821e-14 -10.3199 16.8491)
(-1.05685e-13 -9.1469 15.375)
(-2.84035e-14 -8.58239 13.8112)
(-1.06912e-13 -8.11117 12.6749)
(-1.03844e-13 -7.83046 11.7756)
(4.0943e-14 -7.60428 11.2212)
(-1.54382e-14 -7.47516 11.0236)
(2.05754e-14 -7.24546 10.9062)
(1.06121e-13 -6.63764 10.2658)
(-2.09413e-13 -4.77637 7.06212)
(-4.38972e-14 -12.0153 22.3192)
(4.79234e-14 -14.7552 23.5933)
(-1.46935e-13 -11.9502 22.5097)
(-1.01274e-13 -12.1848 20.0319)
(-2.26957e-14 -10.2991 18.9013)
(-1.96442e-13 -9.66549 16.8871)
(-1.32667e-13 -7.90273 14.7409)
(-2.09863e-13 -6.43371 11.825)
(-5.05595e-13 -5.70493 10.3106)
(-4.23187e-13 -5.82737 10.0761)
(-4.08552e-13 -6.25871 10.5613)
(-4.58017e-13 -7.06833 11.6097)
(-1.27759e-13 -7.80727 12.6485)
(-1.41516e-13 -7.91133 12.6324)
(-3.69969e-13 -5.7437 9.50013)
(-2.52801e-14 -12.3697 22.8315)
(7.26442e-14 -15.4581 25.2746)
(-2.37891e-13 -12.1658 23.2227)
(-7.14819e-14 -12.1257 21.1625)
(-5.14624e-14 -10.2996 20.0587)
(-2.81792e-13 -9.42832 18.1218)
(-1.22093e-13 -7.48256 15.8253)
(-3.04922e-13 -5.48156 12.5752)
(-7.52759e-13 -3.69031 10.1079)
(-9.13798e-13 -2.9505 9.00625)
(-1.12878e-12 -2.76348 8.69837)
(-9.63882e-13 -3.41095 9.31891)
(-5.11828e-13 -4.919 10.9321)
(-3.77029e-13 -6.21579 12.2118)
(-3.50991e-13 -4.674 9.55799)
(-9.77673e-14 -11.9072 22.3895)
(3.40158e-14 -17.3227 28.4116)
(-1.76024e-13 -14.2104 26.0532)
(-1.12661e-13 -13.6995 23.6232)
(-4.50094e-14 -11.9437 22.3494)
(-2.56874e-13 -11.1731 20.5188)
(-1.68841e-13 -9.55521 18.5116)
(-1.1635e-13 -7.7332 15.7432)
(-6.23605e-13 -5.48257 12.808)
(-8.33938e-13 -3.77501 10.4823)
(-1.11246e-12 -2.24516 8.26527)
(-1.02829e-12 -0.391658 5.27887)
(-3.75358e-13 1.73891 1.83171)
(-1.06683e-14 2.06607 0.203202)
(-9.10975e-14 0.529769 0.107215)
(-1.90878e-13 -9.39514 16.9648)
(-1.14377e-15 -16.2795 27.1409)
(-2.01587e-13 -14.3194 25.9642)
(-1.86132e-13 -13.2527 23.14)
(-2.9666e-14 -11.7713 22.1528)
(-2.14961e-13 -11.3202 20.8218)
(-1.44345e-13 -10.161 19.4192)
(-2.51049e-14 -9.01716 17.4699)
(-4.43325e-13 -7.43383 15.1293)
(-5.36661e-13 -6.22809 12.9949)
(-5.97823e-13 -5.28052 10.9248)
(-6.61954e-13 -3.99236 8.54066)
(-5.09686e-13 -1.42822 4.80923)
(-4.7881e-13 3.79633 -2.49318)
(-6.88588e-14 2.56309 -11.3775)
(-2.92005e-13 -11.7082 24.8836)
(-7.64533e-14 -20.2612 33.5078)
(-1.13247e-13 -20.4153 32.7864)
(-1.82314e-13 -19.2218 29.6074)
(-1.23118e-13 -17.4426 26.341)
(-1.29701e-13 -16.029 23.5402)
(-1.53507e-13 -14.4618 20.8305)
(-7.6828e-14 -12.8338 18.1276)
(-1.18397e-13 -10.9596 15.2462)
(-2.15134e-13 -9.02448 12.3051)
(-3.20147e-13 -6.99659 9.22336)
(-3.33324e-13 -4.66859 5.42463)
(-3.18325e-13 -2.48281 1.11556)
(-4.89776e-13 3.74445 -8.68235)
(-1.73145e-13 0.862142 -11.4813)
(-1.21164e-15 -0.0184251 0.0144804)
(-1.27339e-14 0.164979 0.0436199)
(-8.55481e-15 0.178712 -0.402594)
(-5.64939e-15 0.251642 -0.454813)
(-3.76234e-15 0.210716 -0.338072)
(-1.299e-14 0.644084 -0.860862)
(-8.08639e-15 0.647634 -0.494027)
(-5.4925e-15 0.759376 -0.414788)
(-1.24624e-14 0.683369 -0.334381)
(4.69532e-14 1.28896 -1.23847)
(6.75486e-14 1.29143 -0.72548)
(6.47991e-14 1.30707 -0.542033)
(5.86379e-14 2.13389 -1.28333)
(3.95371e-14 1.81729 -0.706934)
(3.57209e-14 2.06774 -0.550775)
(3.17999e-14 1.91239 -0.406022)
(2.44432e-14 2.81225 -0.891541)
(2.47318e-14 2.41729 -0.439722)
(2.18776e-14 2.45284 -0.333539)
(1.84886e-14 3.53536 -0.568512)
(1.27903e-14 2.74749 -0.247029)
(9.52906e-15 3.05091 -0.197675)
(1.45969e-14 2.83586 -0.1468)
(1.54347e-14 3.95696 -0.189754)
(9.97539e-15 3.03097 -0.00955156)
(1.0688e-14 3.33469 0.0177549)
(3.92491e-15 3.11636 0.0370589)
(1.60408e-14 4.13896 0.136549)
(-5.74177e-15 3.25141 0.197221)
(-7.25132e-15 3.26763 0.17455)
(-9.05078e-15 4.44872 0.400389)
(-1.35628e-14 3.244 0.315889)
(-1.27802e-14 3.52347 0.282887)
(-1.75022e-14 3.30511 0.250371)
(-2.54067e-14 4.27847 0.53209)
(-1.79196e-14 3.25096 0.386551)
(-1.58208e-14 3.26134 0.313778)
(-2.13862e-14 4.35699 0.646701)
(-1.46953e-14 3.08866 0.387027)
(-1.55144e-14 3.34207 0.320382)
(-7.82736e-15 3.13963 0.276707)
(-8.27899e-15 4.06135 0.635156)
(-4.6723e-15 2.88864 0.349061)
(-3.28126e-15 3.13937 0.30354)
(-2.22974e-15 2.95696 0.279791)
(1.83047e-15 3.71256 0.650124)
(-5.47569e-15 2.69425 0.337511)
(-5.4396e-15 2.71237 0.264147)
(-1.32881e-14 3.51975 0.618498)
(8.59394e-16 2.38004 0.277868)
(4.7227e-15 2.57171 0.26271)
(6.35039e-15 2.43423 0.219889)
(1.01094e-14 3.03078 0.549845)
(7.19852e-15 2.01708 0.222939)
(-2.60071e-15 2.20819 0.119183)
(1.48863e-14 2.09362 0.0119828)
(3.82283e-14 2.56386 0.31557)
(3.18733e-14 1.65174 -0.224889)
(2.14763e-15 1.72906 -0.246209)
(-1.00982e-14 2.122 0.06232)
(-2.40079e-15 1.23947 -0.797065)
(1.19468e-15 1.44912 -1.07431)
(6.98073e-15 1.40759 -0.960216)
(1.44624e-13 1.80402 -0.970264)
(9.36691e-14 1.12621 -0.541675)
(4.76014e-14 1.21277 0.129366)
(8.59823e-15 1.36032 1.64826)
(-5.04711e-14 0.976628 3.13753)
(-3.61338e-14 0.808457 3.79017)
(-3.20701e-14 0.60104 3.91453)
(-4.29794e-14 0.289416 6.10771)
(-4.01812e-14 0.0119612 5.70117)
(-4.32332e-14 -0.457005 5.80751)
(-5.03141e-14 -0.642693 5.73808)
(-9.27249e-14 -1.29289 7.92923)
(-4.39728e-14 -2.11026 5.7369)
(-4.68295e-14 -2.23914 5.17683)
(-5.48276e-14 -3.61212 6.25388)
(-2.59814e-14 -3.37603 4.06477)
(-1.13396e-14 -3.15783 4.06244)
(-2.07558e-14 -4.03168 4.0166)
(-2.25016e-14 -4.28212 5.06538)
(-2.70688e-14 -4.80721 5.98605)
(-3.75318e-14 -4.7788 11.3413)
(-6.87859e-14 -5.8179 9.27142)
(-1.13982e-13 -6.20219 10.2392)
(-1.17379e-13 -6.51151 10.022)
(-1.1639e-13 -6.75838 10.0258)
(-1.18771e-13 -6.98238 10.0653)
(-1.165e-13 -7.17653 10.1368)
(-1.03395e-13 -7.45325 10.5871)
(-8.64037e-14 -8.01203 11.3652)
(-6.16616e-14 -7.33172 13.5303)
(-9.24768e-14 -8.30468 12.3809)
(-9.138e-14 -8.55969 12.6594)
(-9.15087e-14 -8.58678 12.8439)
(-9.1575e-14 -8.82426 13.5349)
(-9.18189e-14 -8.83551 13.6123)
(-9.12127e-14 -8.9639 13.8855)
(-9.21139e-14 -9.0663 14.159)
(-9.39999e-14 -9.29678 14.5236)
(-6.36874e-14 -8.887 17.187)
(-6.74458e-14 -9.59598 16.4428)
(-5.97188e-14 -9.66811 16.9915)
(-5.17414e-14 -9.71882 17.3679)
(-4.48763e-14 -9.79581 17.7531)
(-3.62935e-14 -9.85839 18.1797)
(-2.74043e-14 -9.98106 18.5189)
(-2.72461e-14 -9.98177 18.4598)
(-2.5522e-14 -10.0266 18.447)
(-2.43529e-14 -10.256 18.4215)
(5.81725e-15 -9.27127 19.6978)
(-1.5777e-14 -10.3765 19.124)
(-1.30942e-14 -10.3475 19.2533)
(-1.2122e-14 -10.4005 19.3206)
(-1.25053e-14 -10.4429 19.4311)
(-1.51161e-14 -10.4605 19.5306)
(-1.79666e-14 -10.5182 19.7921)
(-1.96081e-14 -10.4639 19.757)
(-2.16269e-14 -10.6639 19.5947)
(-2.00211e-14 -9.02498 19.3498)
(-2.99517e-14 -10.5428 19.1303)
(-3.7896e-14 -10.3639 19.3196)
(-4.80537e-14 -10.442 19.553)
(-4.89423e-14 -10.3489 19.5175)
(-5.2735e-14 -10.3749 19.5499)
(-5.53135e-14 -10.3398 19.5387)
(-5.73238e-14 -10.2337 19.5639)
(-5.51051e-14 -10.4607 19.8578)
(-3.63334e-14 -7.83726 17.9921)
(-3.89366e-14 -9.98115 18.6388)
(-4.00787e-14 -9.63015 18.572)
(-4.24139e-14 -9.65589 18.7191)
(-4.49279e-14 -9.56518 19.0441)
(-4.59832e-14 -9.50195 19.0754)
(-4.69068e-14 -9.38669 18.9665)
(-4.80498e-14 -9.26375 18.8031)
(-4.81525e-14 -9.27902 18.5078)
(-2.88453e-14 -6.22706 15.5376)
(-4.17546e-14 -8.64301 16.9589)
(-3.94408e-14 -8.05302 16.3349)
(-3.87215e-14 -8.12622 16.1055)
(-3.63855e-14 -7.90212 15.8021)
(-3.19432e-14 -7.75878 15.6636)
(-1.83673e-14 -7.64031 15.9357)
(-2.14115e-14 -7.40107 15.6175)
(-2.04041e-14 -7.19212 15.578)
(-2.03852e-14 -7.03958 15.3449)
(-1.88441e-15 -3.00016 9.40529)
(-2.40577e-14 -6.09021 11.7659)
(-2.08571e-14 -5.19583 10.3726)
(-2.1354e-14 -5.32336 9.71403)
(-2.18026e-14 -4.86725 8.51269)
(-2.50139e-14 -4.68665 7.14771)
(-4.20029e-14 -4.32673 5.18897)
(-7.04427e-14 -3.91595 3.70642)
(-8.59839e-14 -3.68954 4.35202)
(-3.70463e-14 -1.24687 0.242153)
(-3.57079e-14 -3.03601 1.43339)
(-3.00865e-14 -2.51272 -1.41891)
(3.65059e-14 -1.71568 -9.2565)
(2.53272e-14 -1.33663 -9.26318)
(-3.42336e-15 0.441882 -9.62591)
(-5.97599e-15 0.331782 -5.31005)
(-3.44548e-14 3.11872 -8.61915)
(-3.0924e-14 2.8567 -5.77216)
(-4.20749e-14 4.51302 -7.41664)
(-5.48049e-14 6.54919 -7.87123)
(-4.01683e-14 6.01057 -4.80213)
(-4.53011e-14 8.02346 -5.71868)
(-4.99769e-14 10.1137 -5.82245)
(-3.48053e-14 8.06375 -3.5393)
(-4.36132e-14 12.4751 -4.48888)
(-2.95408e-14 9.8764 -2.90383)
(-3.7363e-14 11.7441 -3.48565)
(-3.64955e-14 13.9745 -3.54973)
(-2.12475e-14 10.7719 -2.15822)
(-2.88277e-14 16.0857 -2.84351)
(-2.03654e-14 12.3739 -1.81076)
(-2.22869e-14 14.5955 -2.28568)
(-2.4591e-14 16.4255 -2.38364)
(-1.74348e-14 13.228 -1.4338)
(-1.92513e-14 16.3934 -1.86099)
(-2.7356e-14 18.4697 -1.95523)
(-1.99132e-14 13.8083 -1.22087)
(-2.70785e-14 20.3614 -1.81381)
(-1.92091e-14 15.5112 -1.1649)
(-2.48745e-14 17.9011 -1.60233)
(-2.50118e-14 20.5406 -1.71349)
(-1.60964e-14 15.4279 -1.05923)
(-2.01677e-14 22.6835 -1.63901)
(-1.45615e-14 17.1498 -1.03909)
(-1.57567e-14 19.9675 -1.5086)
(-2.13356e-14 22.1481 -1.62156)
(-1.5524e-14 17.542 -0.949173)
(-1.73109e-14 21.6785 -1.34272)
(-2.17834e-14 24.1496 -1.39834)
(-1.44585e-14 17.7986 -0.877915)
(-1.92467e-14 26.1829 -1.43527)
(-1.34371e-14 19.7816 -0.902387)
(-1.64446e-14 22.7197 -1.33762)
(-1.42997e-14 25.8767 -1.37868)
(-8.09288e-15 19.2476 -0.841987)
(-1.08292e-14 28.2776 -1.3594)
(-9.25828e-15 21.2331 -0.824092)
(-9.80956e-15 24.6197 -1.26556)
(-1.27702e-14 27.1572 -1.28392)
(-7.89119e-15 21.3031 -0.710175)
(-9.45134e-15 26.3464 -1.06723)
(-1.09226e-14 29.1775 -1.02312)
(-7.61677e-15 21.2963 -0.635135)
(-8.88671e-15 31.3207 -1.12329)
(-6.33672e-15 23.5325 -0.675071)
(-8.03204e-15 26.9526 -1.08213)
(-1.00296e-14 30.5436 -1.04069)
(-6.73506e-15 22.5573 -0.62389)
(-9.69531e-15 33.1444 -1.09475)
(-6.72729e-15 24.7751 -0.635532)
(-7.48647e-15 28.6516 -1.07519)
(-8.26045e-15 31.5182 -1.06394)
(-5.39191e-15 24.568 -0.561216)
(-6.66003e-15 30.4123 -0.924092)
(-5.82533e-15 33.6271 -0.847568)
(-3.25867e-15 24.3891 -0.514511)
(-3.69489e-15 35.9058 -1.02683)
(-2.44867e-15 26.9125 -0.6055)
(-2.47203e-15 30.7813 -1.0517)
(-4.07191e-15 34.868 -1.03778)
(-2.77081e-15 25.6441 -0.621292)
(-3.44294e-15 37.7427 -1.19653)
(-2.388e-15 28.1751 -0.712338)
(-3.30374e-15 32.5529 -1.25236)
(-2.01029e-15 35.8531 -1.35988)
(-1.00238e-15 27.8585 -0.760343)
(-1.11498e-15 34.5231 -1.25147)
(-1.10986e-15 38.3126 -1.36413)
(-6.51419e-16 27.6245 -0.859538)
(-6.77944e-16 41.0784 -1.6747)
(-3.11886e-16 30.3071 -1.05817)
(-2.0039e-16 36.3969 -1.9285)
(-1.20587e-38 4.6714 5.08177)
(-2.2226e-38 5.78951 5.16407)
(1.34218e-38 6.39464 5.23485)
(2.34354e-37 7.06185 5.33142)
(8.4129e-37 7.67974 5.43877)
(1.19067e-36 8.28195 5.55545)
(-4.14113e-36 8.85101 5.66882)
(-3.65614e-35 9.36832 5.77179)
(-1.58588e-34 9.78656 5.87068)
(-5.26861e-34 10.0631 6.0049)
(-1.5144e-33 10.1889 6.23568)
(-3.99026e-33 10.2073 6.60164)
(-9.81484e-33 10.1784 7.08021)
(-2.23627e-32 10.1054 7.61435)
(-4.63319e-32 9.92799 8.15416)
(-8.56565e-32 9.61298 8.6411)
(-1.39978e-31 9.15596 9.00648)
(-2.0341e-31 8.55306 9.18795)
(-2.71031e-31 7.80689 9.15082)
(-3.45562e-31 6.90683 8.88695)
(-4.15144e-31 5.74524 8.37998)
(-3.94875e-31 3.77021 7.37637)
(-1.82528e-31 0.175153 5.27511)
(-2.29968e-32 -2.98818 3.51956)
(-1.00028e-32 -5.05922 2.93363)
(-5.70941e-33 -6.71939 2.4283)
(-2.79346e-33 -8.31319 1.79035)
(-1.23421e-33 -9.82726 1.07067)
(-6.75396e-34 -11.827 0.433812)
(-4.5477e-34 -14.7161 -0.102367)
(-2.97719e-34 -17.9157 -0.171344)
(-1.69318e-34 -20.5832 -0.795024)
(-5.27393e-35 -23.2288 -0.987284)
(1.30122e-34 -26.0542 -1.62436)
(4.19279e-34 -28.8613 -1.79289)
(7.47208e-34 -30.7867 -2.27782)
(2.60107e-34 -33.0206 -1.90935)
(-6.767e-35 -38.1602 -2.32527)
(-1.89174e-34 -39.2131 -3.09147)
(-6.33813e-35 -38.5466 -2.167)
(-3.48873e-32 -42.5677 -1.74448)
(4.67712e-29 -47.9778 -1.38482)
(-7.23098e-26 -51.2001 -0.870148)
(2.52627e-22 -51.7402 -0.0884237)
(2.26766e-20 -45.8887 1.13602)
(-7.10461e-19 -26.619 2.72589)
(-7.90798e-18 2.36642 15.6123)
(1.70052e-18 -2.87852 19.2556)
(-7.72945e-19 1.09529 16.8626)
(-4.33003e-19 10.942 14.9895)
(-5.23816e-19 19.2169 10.0214)
(-4.8146e-19 26.3845 1.82973)
(-4.13842e-19 29.9007 -5.11304)
(-3.60325e-19 31.2206 -10.5396)
(-2.1512e-19 31.6718 -1.51388)
(-2.30124e-20 21.0437 -1.64101)
(5.70314e-22 -12.3652 -7.5112)
(1.36369e-22 -30.2774 -9.98048)
(2.93432e-25 -35.2924 -10.9349)
(-6.76791e-25 -35.6328 -11.294)
(-1.75858e-26 -32.8739 -11.2946)
(-8.0546e-27 -28.5956 -11.1762)
(8.43178e-26 -23.9915 -11.0355)
(-4.79717e-25 -19.5589 -10.9021)
(1.8521e-24 -15.3779 -10.7488)
(-1.02701e-24 -11.0122 -10.5194)
(-4.23687e-23 -5.67307 -10.001)
(3.02061e-22 3.16962 -8.46056)
(-6.457e-22 13.0776 -7.77201)
(-3.49017e-21 20.6404 -8.51179)
(1.01439e-20 25.7892 -9.55297)
(2.6135e-20 29.0426 -10.2375)
(-2.61048e-20 30.9297 -10.4262)
(-4.43666e-19 31.8511 -10.1782)
(-8.84938e-19 32.1596 -9.50454)
(-3.81714e-18 32.2538 -8.40007)
(6.67162e-18 32.4952 -7.00846)
(-4.75125e-17 33.2736 -5.36089)
(7.4119e-17 34.9483 -4.50343)
(-1.89381e-38 4.65226 5.39156)
(-3.77865e-38 5.76006 5.44949)
(1.16999e-38 6.36094 5.51782)
(3.53602e-37 7.02198 5.6147)
(1.33976e-36 7.63593 5.72752)
(2.02871e-36 8.23657 5.8562)
(-6.23359e-36 8.80731 5.98795)
(-5.83392e-35 9.32687 6.11792)
(-2.56649e-34 9.74077 6.25903)
(-8.54964e-34 9.99764 6.46243)
(-2.44407e-33 10.0881 6.79488)
(-6.36772e-33 10.0684 7.28492)
(-1.54517e-32 10.0137 7.88938)
(-3.47718e-32 9.93212 8.5361)
(-7.14183e-32 9.7631 9.16559)
(-1.31541e-31 9.47631 9.70945)
(-2.15304e-31 9.06796 10.0944)
(-3.1484e-31 8.52898 10.2587)
(-4.23732e-31 7.85388 10.1738)
(-5.48692e-31 7.02856 9.83413)
(-6.80751e-31 5.97967 9.23374)
(-6.97505e-31 4.25764 8.16943)
(-3.90066e-31 0.94031 5.96781)
(-3.2443e-32 -2.92473 3.42586)
(-7.24512e-33 -5.18449 2.74491)
(-5.58035e-33 -6.81804 2.3152)
(-2.77064e-33 -8.41554 1.67898)
(-1.23128e-33 -9.93183 0.981476)
(-6.73089e-34 -11.9805 0.336019)
(-4.54922e-34 -15.0005 -0.221119)
(-2.98095e-34 -18.2342 -0.278068)
(-1.6985e-34 -20.9106 -0.876519)
(-5.35357e-35 -23.5652 -1.05045)
(1.28511e-34 -26.3881 -1.66457)
(4.16747e-34 -29.1958 -1.81433)
(7.46141e-34 -31.1569 -2.2797)
(2.64989e-34 -33.3626 -1.92252)
(-6.58879e-35 -38.3609 -2.30859)
(-1.89354e-34 -39.5065 -3.03685)
(6.86723e-35 -38.905 -2.12789)
(-1.2404e-31 -42.8189 -1.70603)
(1.24404e-28 -48.1801 -1.34346)
(-1.65593e-25 -51.4142 -0.794223)
(5.78895e-22 -51.9142 -0.0209947)
(3.82998e-20 -46.1548 1.34782)
(-1.13879e-18 -27.0656 2.87649)
(-1.27745e-17 -0.566808 13.9338)
(2.48003e-18 -2.82241 18.8312)
(-8.8361e-19 1.90943 16.9885)
(-5.69057e-19 12.1558 15.3188)
(-6.63016e-19 21.3738 9.9337)
(-5.77898e-19 28.8564 0.492044)
(-4.81405e-19 31.9236 -7.6935)
(-4.08635e-19 30.718 -14.1937)
(-3.06661e-19 30.2715 -6.87082)
(-4.19503e-20 21.3364 -1.80584)
(6.97516e-22 -10.5464 -7.57484)
(2.77515e-22 -29.6881 -10.5993)
(2.95839e-24 -35.1997 -11.2752)
(-1.49838e-24 -35.7518 -11.4497)
(-5.79545e-26 -33.0909 -11.3402)
(-4.35042e-27 -28.8264 -11.1572)
(8.59267e-26 -24.2032 -10.9681)
(-4.99929e-25 -19.7473 -10.7654)
(2.09133e-24 -15.5507 -10.4836)
(-2.85839e-24 -11.1814 -9.99432)
(-3.74858e-23 -5.78097 -8.92997)
(3.78776e-22 3.16521 -7.01136)
(-7.54024e-22 13.2187 -6.80675)
(-4.68192e-21 20.9369 -8.03803)
(1.11292e-20 26.032 -9.4605)
(3.56236e-20 29.1319 -10.409)
(-3.81117e-21 30.8624 -10.7318)
(-5.95495e-19 31.6424 -10.5234)
(-1.61219e-18 31.8138 -9.83748)
(-5.06135e-18 31.7941 -8.688)
(4.17665e-18 31.9526 -7.22471)
(-4.93232e-17 32.7329 -5.51927)
(8.16352e-17 34.4203 -3.85143)
(-2.91993e-38 4.65646 5.59552)
(-5.94109e-38 5.75823 5.63688)
(1.31308e-38 6.35493 5.70407)
(5.3332e-37 7.01243 5.80115)
(2.04603e-36 7.62328 5.91801)
(3.08156e-36 8.22174 6.05628)
(-9.86506e-36 8.79114 6.20564)
(-9.10674e-35 9.30748 6.36596)
(-3.98302e-34 9.71088 6.55809)
(-1.31598e-33 9.94639 6.84103)
(-3.71526e-33 10.0091 7.27673)
(-9.5192e-33 9.96644 7.87309)
(-2.2673e-32 9.90112 8.56619)
(-5.01385e-32 9.82078 9.27684)
(-1.01538e-31 9.66446 9.94184)
(-1.85327e-31 9.40236 10.4902)
(-3.02326e-31 9.02915 10.8532)
(-4.43267e-31 8.53126 10.9765)
(-6.02172e-31 7.89863 10.8409)
(-7.93985e-31 7.11594 10.4437)
(-1.01787e-30 6.12398 9.78064)
(-1.10917e-30 4.51672 8.67355)
(-7.11603e-31 1.34465 6.43863)
(-7.45504e-32 -2.61084 3.47367)
(-2.31023e-33 -4.95645 2.51439)
(-4.99805e-33 -6.61492 2.14313)
(-2.70886e-33 -8.18445 1.5296)
(-1.23475e-33 -9.68972 0.860208)
(-6.68747e-34 -11.7476 0.20971)
(-4.55278e-34 -14.8465 -0.38146)
(-2.9874e-34 -18.0784 -0.426953)
(-1.70634e-34 -20.7339 -0.993997)
(-5.46327e-35 -23.3845 -1.14659)
(1.26367e-34 -26.2105 -1.73235)
(4.13436e-34 -29.0386 -1.8612)
(7.44725e-34 -31.0624 -2.3)
(2.71181e-34 -33.2777 -1.9446)
(-6.35987e-35 -38.1639 -2.29724)
(-1.89681e-34 -39.464 -2.98907)
(4.63693e-34 -39.0047 -2.0882)
(-3.86084e-31 -42.8726 -1.65791)
(3.22577e-28 -48.2533 -1.29182)
(-3.71928e-25 -51.5595 -0.696873)
(1.36941e-21 -52.142 0.0555445)
(6.05053e-20 -46.5689 1.60826)
(-1.70302e-18 -28.4528 3.08441)
(-1.3842e-17 -1.78871 13.4833)
(2.57147e-18 -3.15582 17.7724)
(-8.97411e-19 1.93942 16.5121)
(-6.75346e-19 12.6332 15.2365)
(-7.56482e-19 22.5851 9.71879)
(-6.25096e-19 30.3804 -0.431533)
(-5.06977e-19 33.2306 -9.43971)
(-4.17651e-19 30.9111 -16.181)
(-3.58143e-19 29.0886 -12.5121)
(-7.9315e-20 21.4276 -3.32495)
(1.82603e-22 -9.90925 -8.35094)
(5.86038e-22 -29.4213 -11.6081)
(1.34679e-23 -35.085 -11.8195)
(-3.29454e-24 -35.6631 -11.7158)
(-1.75163e-25 -33.0163 -11.4317)
(3.41318e-27 -28.762 -11.1124)
(9.2937e-26 -24.1634 -10.7657)
(-5.66261e-25 -19.753 -10.3564)
(2.59096e-24 -15.6374 -9.81144)
(-5.02673e-24 -11.4464 -8.96791)
(-3.93548e-23 -6.41164 -7.43666)
(4.66602e-22 2.77925 -5.59522)
(-8.17783e-22 13.3171 -6.0058)
(-5.49785e-21 21.2208 -7.67054)
(9.78366e-21 26.3028 -9.38792)
(4.47349e-20 29.3088 -10.5287)
(4.81545e-20 30.9376 -10.9411)
(-7.81787e-19 31.6325 -10.7482)
(-2.78448e-18 31.7279 -10.0444)
(-7.02423e-18 31.6456 -8.86457)
(1.19078e-18 31.7597 -7.35834)
(-6.01156e-17 32.4957 -5.61095)
(1.23128e-16 34.0957 -3.63453)
(-4.44427e-38 4.65056 5.81252)
(-9.25511e-38 5.74429 5.84329)
(1.1117e-38 6.33447 5.91018)
(7.88425e-37 6.98655 6.00922)
(3.06395e-36 7.59244 6.13255)
(4.54176e-36 8.18687 6.28451)
(-1.56702e-35 8.75298 6.45872)
(-1.41071e-34 9.26352 6.66179)
(-6.11741e-34 9.65231 6.92361)
(-2.0012e-33 9.86068 7.30916)
(-5.57135e-33 9.89015 7.86959)
(-1.40142e-32 9.8215 8.58538)
(-3.27001e-32 9.74591 9.36988)
(-7.09652e-32 9.67043 10.1403)
(-1.41655e-31 9.53334 10.8327)
(-2.56315e-31 9.30499 11.3754)
(-4.1712e-31 8.97816 11.7073)
(-6.13457e-31 8.53404 11.7825)
(-8.40209e-31 7.95729 11.5916)
(-1.12506e-30 7.23126 11.1363)
(-1.487e-30 6.31458 10.4158)
(-1.72135e-30 4.86942 9.27747)
(-1.25972e-30 1.94705 7.03406)
(-1.89467e-31 -2.18784 3.65546)
(4.77647e-33 -4.74375 2.32825)
(-3.98087e-33 -6.47227 1.92752)
(-2.5276e-33 -8.02395 1.34218)
(-1.20538e-33 -9.52144 0.712153)
(-6.72812e-34 -11.5663 0.0899735)
(-4.56004e-34 -14.6906 -0.554069)
(-2.99659e-34 -17.9186 -0.600335)
(-1.71634e-34 -20.5525 -1.13451)
(-5.5939e-35 -23.1968 -1.26541)
(1.23903e-34 -26.0239 -1.82043)
(4.09707e-34 -28.8686 -1.92805)
(7.431e-34 -30.9434 -2.33688)
(2.77901e-34 -33.1702 -1.97555)
(-6.10581e-35 -37.967 -2.29298)
(-1.92147e-34 -39.3967 -2.95224)
(1.43186e-33 -39.0591 -2.0539)
(-8.87292e-31 -42.8961 -1.60805)
(6.36038e-28 -48.3012 -1.23715)
(-6.2652e-25 -51.678 -0.59252)
(2.48683e-21 -52.3512 0.131607)
(6.65924e-20 -46.9405 1.85613)
(-1.92787e-18 -29.77 3.26403)
(-7.11538e-18 -3.26421 12.8474)
(1.49673e-18 -3.46878 16.8498)
(-8.54769e-19 2.20289 16.0969)
(-7.93289e-19 13.4114 15.1644)
(-8.56953e-19 24.2942 9.42491)
(-6.70679e-19 32.4948 -1.63034)
(-5.28358e-19 34.9578 -11.7038)
(-4.23705e-19 31.3465 -19.0565)
(-3.84072e-19 27.8347 -18.2478)
(-1.33503e-19 20.7115 -6.11844)
(-2.15537e-21 -8.97739 -9.82428)
(1.17179e-21 -29.2155 -12.9968)
(4.74939e-23 -35.1244 -12.5909)
(-6.75586e-24 -35.7247 -12.1039)
(-4.9647e-25 -33.0928 -11.5264)
(1.58349e-26 -28.8431 -10.9345)
(1.09077e-25 -24.251 -10.3121)
(-6.77422e-25 -19.8508 -9.62977)
(3.23052e-24 -15.761 -8.82624)
(-7.05948e-24 -11.6238 -7.73242)
(-4.36442e-23 -6.58789 -5.98585)
(5.97555e-22 2.78502 -4.35562)
(-1.00143e-21 13.5983 -5.33415)
(-5.74576e-21 21.5997 -7.41189)
(5.87252e-21 26.6074 -9.42022)
(5.59951e-20 29.4621 -10.7422)
(1.4715e-19 30.94 -11.2266)
(-1.10329e-18 31.5101 -11.0288)
(-4.8742e-18 31.4969 -10.2883)
(-1.06037e-17 31.3271 -9.06557)
(-2.81098e-18 31.3808 -7.50714)
(-8.00346e-17 32.0985 -5.72372)
(1.72654e-16 33.6203 -4.17627)
(-6.67619e-38 4.65026 6.01992)
(-1.42559e-37 5.73631 6.0443)
(2.3026e-39 6.31922 6.11201)
(1.14385e-36 6.96564 6.21462)
(4.49613e-36 7.56552 6.34646)
(6.4554e-36 8.15395 6.51584)
(-2.50211e-35 8.71321 6.72241)
(-2.16779e-34 9.21238 6.98206)
(-9.28273e-34 9.57939 7.33462)
(-2.99829e-33 9.75499 7.84702)
(-8.21135e-33 9.75121 8.54999)
(-2.02295e-32 9.66299 9.38813)
(-4.61267e-32 9.58589 10.2521)
(-9.8027e-32 9.52327 11.0614)
(-1.92627e-31 9.41238 11.7568)
(-3.4538e-31 9.22271 12.2695)
(-5.60783e-31 8.94406 12.5507)
(-8.27153e-31 8.55236 12.5648)
(-1.14029e-30 8.02783 12.3136)
(-1.54587e-30 7.35349 11.8041)
(-2.10159e-30 6.50257 11.0397)
(-2.58237e-30 5.19739 9.89279)
(-2.14683e-30 2.51392 7.68896)
(-4.82733e-31 -1.74171 3.9725)
(1.57004e-32 -4.55008 2.19039)
(-2.55026e-33 -6.38347 1.70013)
(-2.2751e-33 -7.9264 1.1258)
(-1.10905e-33 -9.4182 0.536568)
(-6.94164e-34 -11.4551 -0.0317073)
(-4.57434e-34 -14.6194 -0.741779)
(-3.00832e-34 -17.868 -0.804258)
(-1.72867e-34 -20.4924 -1.3037)
(-5.74653e-35 -23.1366 -1.41209)
(1.21123e-34 -25.9668 -1.93332)
(4.05578e-34 -28.8269 -2.01806)
(7.4126e-34 -30.948 -2.3932)
(2.85051e-34 -33.1824 -2.02062)
(-5.83445e-35 -37.8891 -2.29863)
(-1.90316e-34 -39.4315 -2.92394)
(2.35119e-33 -39.1968 -2.02321)
(-1.5819e-30 -42.9898 -1.55707)
(1.03952e-27 -48.405 -1.17832)
(-8.20255e-25 -51.835 -0.4799)
(3.8197e-21 -52.5814 0.214553)
(6.06702e-20 -47.2869 2.09182)
(-1.99035e-18 -30.8495 3.37821)
(-3.65934e-18 -4.65772 12.0071)
(7.11193e-19 -3.76748 15.9727)
(-8.699e-19 2.25852 15.5467)
(-9.1051e-19 14.0595 14.9537)
(-9.45034e-19 25.9806 8.97486)
(-6.97933e-19 34.6889 -2.99234)
(-5.31893e-19 36.7746 -14.1775)
(-4.13871e-19 32.137 -22.2949)
(-3.78505e-19 26.6205 -23.685)
(-1.97928e-19 19.3794 -10.2843)
(-8.49513e-21 -8.08446 -11.8577)
(2.10665e-21 -29.066 -14.7822)
(1.39123e-22 -35.2755 -13.6345)
(-1.23385e-23 -35.8879 -12.5823)
(-1.29501e-24 -33.2669 -11.5297)
(2.87084e-26 -29.0167 -10.5428)
(1.35775e-25 -24.4302 -9.60479)
(-8.22781e-25 -20.0466 -8.67308)
(3.97108e-24 -16.0024 -7.67401)
(-9.23174e-24 -11.9634 -6.41202)
(-5.03393e-23 -6.96574 -4.51866)
(7.91031e-22 2.74123 -3.19129)
(-1.3778e-21 13.9455 -4.78142)
(-4.642e-21 22.0436 -7.26751)
(-3.6356e-21 26.968 -9.54513)
(7.12864e-20 29.6619 -11.0201)
(3.33883e-19 30.9812 -11.5496)
(-1.67211e-18 31.4265 -11.3231)
(-8.604e-18 31.3122 -10.5285)
(-1.69827e-17 31.0626 -9.25601)
(-8.67487e-18 31.0627 -7.64617)
(-1.10583e-16 31.7414 -5.82341)
(2.23927e-16 33.1719 -3.52155)
(-9.9036e-38 4.64854 6.22363)
(-2.16981e-37 5.7265 6.24555)
(-1.92223e-38 6.30114 6.31532)
(1.62713e-36 6.94096 6.42363)
(6.45465e-36 7.53321 6.56701)
(8.77984e-36 8.11294 6.75921)
(-4.01039e-35 8.66097 7.00818)
(-3.30246e-34 9.14244 7.34161)
(-1.39008e-33 9.48042 7.80893)
(-4.41825e-33 9.61847 8.47239)
(-1.1868e-32 9.58296 9.33086)
(-2.85569e-32 9.48249 10.2866)
(-6.34631e-32 9.41277 11.2112)
(-1.31765e-31 9.37083 12.0339)
(-2.54486e-31 9.29306 12.7055)
(-4.5181e-31 9.14734 13.1637)
(-7.3185e-31 8.91999 13.3753)
(-1.08226e-30 8.58199 13.3169)
(-1.49833e-30 8.10949 13.0006)
(-2.04732e-30 7.48567 12.4408)
(-2.85108e-30 6.69693 11.6468)
(-3.71267e-30 5.52693 10.5173)
(-3.49088e-30 3.10907 8.40507)
(-1.1541e-30 -1.17302 4.46405)
(2.61826e-32 -4.29297 2.09668)
(3.19461e-34 -6.27095 1.48526)
(-2.11751e-33 -7.82094 0.904656)
(-9.73976e-34 -9.31294 0.348336)
(-7.13112e-34 -11.3363 -0.183675)
(-4.57679e-34 -14.5488 -0.945545)
(-3.02113e-34 -17.8373 -1.04137)
(-1.74404e-34 -20.457 -1.50428)
(-5.92574e-35 -23.1021 -1.58953)
(1.17971e-34 -25.9353 -2.07392)
(4.00976e-34 -28.8104 -2.13423)
(7.39159e-34 -30.9778 -2.47175)
(2.92706e-34 -33.2182 -2.08246)
(-5.52511e-35 -37.8305 -2.31688)
(-2.13615e-34 -39.4844 -2.90629)
(8.33584e-33 -39.3528 -1.99713)
(-3.18652e-30 -43.0977 -1.50606)
(1.41536e-27 -48.5221 -1.11595)
(-1.03916e-24 -52.0028 -0.360546)
(5.15576e-21 -52.8265 0.307461)
(4.58444e-20 -47.627 2.31641)
(-1.93492e-18 -31.8009 3.43498)
(-2.33484e-18 -5.95421 11.1355)
(2.98091e-19 -4.16456 15.2136)
(-9.25191e-19 2.3068 14.951)
(-1.02571e-18 14.7468 14.6235)
(-1.00869e-18 27.8258 8.34075)
(-7.0085e-19 37.1296 -4.57253)
(-5.14699e-19 38.8242 -16.9569)
(-3.87334e-19 33.1846 -26.0221)
(-3.46195e-19 25.568 -28.8059)
(-2.58477e-19 17.9165 -15.8671)
(-2.16148e-20 -7.51467 -14.4378)
(3.27011e-21 -29.0423 -16.9514)
(3.46737e-22 -35.5578 -14.9184)
(-1.86008e-23 -36.1505 -13.0549)
(-3.01751e-24 -33.5168 -11.3646)
(2.28549e-26 -29.2413 -9.93646)
(1.73484e-25 -24.6389 -8.70953)