/*--------------------------------*- C++ -*----------------------------------*\
| =========                 |                                                 |
| \\      /  F ield         | OpenFOAM: The Open Source CFD Toolbox           |
|  \\    /   O peration     | Version:  4.1                                   |
|   \\  /    A nd           | Web:      www.OpenFOAM.org                      |
|    \\/     M anipulation  |                                                 |
\*---------------------------------------------------------------------------*/
FoamFile
{
    version     2.0;
    format      ascii;
    class       volVectorField;
    location    "2";
    object      U;
}
// * * * * * * * * * * * * * * * * * * * * * * * * * * * * * * * * * * * * * //

dimensions      [0 1 -1 0 0 0 0];

internalField   nonuniform List<vector> 
225
(
(9.51871e-15 0.857332 15.7836)
(1.34628e-14 -4.89165 12.1149)
(-1.3664e-15 -4.20006 12.1282)
(-2.44275e-16 -3.60706 11.9946)
(5.3755e-16 -3.01272 11.8751)
(-6.72412e-17 -2.56233 11.6971)
(2.1131e-15 -2.21867 11.4758)
(6.85136e-16 -1.97671 11.2113)
(6.22849e-16 -1.80996 10.9163)
(-4.80644e-16 -1.72401 10.5897)
(-7.91702e-17 -1.84894 10.1591)
(-3.83113e-17 -2.29867 9.54193)
(5.5523e-16 -2.53049 8.96886)
(-9.26429e-17 -1.08263 8.92447)
(-9.81026e-18 1.77176 7.49896)
(1.38923e-14 -5.34292 22.5082)
(8.57226e-15 -14.6241 21.3905)
(-1.77639e-16 -13.294 20.3612)
(3.35833e-15 -11.8093 19.5191)
(1.65032e-15 -11.1893 18.513)
(-2.50199e-16 -10.6865 17.5287)
(3.40744e-15 -10.1227 16.5826)
(1.40919e-15 -9.56223 15.6343)
(8.69382e-16 -9.00352 14.6744)
(2.51059e-15 -8.40438 13.7042)
(7.0731e-16 -7.79007 12.7264)
(-1.22234e-16 -7.33028 11.7294)
(5.20013e-16 -7.05095 10.6319)
(2.01044e-16 -5.76518 9.16748)
(2.30229e-17 -2.31848 4.6567)
(1.49062e-14 -7.72901 24.0869)
(1.62138e-14 -16.8265 24.6452)
(1.66636e-15 -13.8098 23.9496)
(7.65166e-15 -12.3516 22.6523)
(-1.93566e-15 -11.6564 21.2798)
(6.30032e-16 -10.8227 20.0405)
(3.37538e-15 -9.94532 18.8137)
(1.48933e-15 -9.09437 17.5659)
(1.38742e-15 -8.26667 16.3092)
(3.87641e-15 -7.447 15.0805)
(6.80114e-16 -6.63356 13.8829)
(3.51591e-16 -5.81589 12.4873)
(6.4425e-16 -4.79471 10.3078)
(-6.65265e-17 -3.11655 6.70556)
(6.97654e-17 -0.875645 1.75671)
(1.57872e-14 -8.56348 22.2388)
(1.25401e-14 -16.6693 24.3154)
(2.54814e-15 -12.9456 23.863)
(6.41629e-15 -12.1195 22.0672)
(2.3317e-15 -11.3805 20.5565)
(1.4836e-15 -10.4556 19.2132)
(3.07228e-15 -9.57875 17.8541)
(1.36662e-15 -8.75629 16.4917)
(1.84851e-15 -7.98643 15.1533)
(1.1937e-15 -7.25277 13.8464)
(7.12868e-16 -6.44525 12.4322)
(5.18162e-16 -5.29126 10.4151)
(5.0513e-16 -3.44168 6.99591)
(-6.22661e-17 -1.07401 1.93841)
(-8.69269e-16 0.39777 -1.93423)
(1.42951e-14 -8.54542 19.9667)
(1.22138e-14 -16.3815 24.3102)
(2.74237e-15 -12.9942 23.7381)
(5.22739e-15 -12.5482 21.5983)
(2.24171e-15 -11.8028 20.0576)
(1.49241e-15 -10.9059 18.6799)
(2.72185e-15 -10.1022 17.2676)
(8.12559e-16 -9.33459 15.8697)
(6.70168e-16 -8.60049 14.515)
(1.3548e-15 -7.89353 13.1965)
(3.81587e-16 -7.1115 11.7669)
(7.106e-16 -5.95754 9.77802)
(3.99756e-16 -4.0725 6.61093)
(-4.70469e-16 -1.86957 2.52433)
(-1.78532e-16 -0.414756 -0.333929)
(1.26804e-14 -8.09739 17.7993)
(1.36026e-14 -16.0315 24.5243)
(3.53992e-15 -13.506 24.0546)
(4.86929e-15 -12.9563 21.749)
(2.28959e-15 -12.1343 20.1798)
(1.60532e-15 -11.2227 18.8077)
(2.31615e-15 -10.4236 17.3917)
(9.91858e-16 -9.63956 15.993)
(1.02274e-15 -8.86215 14.6421)
(7.41163e-16 -8.10431 13.3288)
(7.14815e-16 -7.29355 11.9284)
(6.14033e-16 -6.19744 10.0822)
(-6.2814e-16 -4.50834 7.32079)
(4.2773e-16 -2.49615 3.92801)
(1.33925e-15 -0.712475 0.836727)
(1.23573e-14 -7.42177 15.4997)
(1.46668e-14 -15.531 24.3666)
(4.88911e-15 -13.9789 24.3907)
(4.30455e-15 -13.1827 22.017)
(2.49416e-15 -12.2233 20.3837)
(1.74377e-15 -11.2766 19.011)
(2.11159e-15 -10.461 17.5993)
(1.28503e-15 -9.65099 16.2051)
(1.16455e-15 -8.8398 14.8577)
(1.53094e-15 -8.04788 13.5479)
(1.12201e-15 -7.22757 12.1662)
(1.24719e-15 -6.16925 10.3904)
(8.21167e-16 -4.57004 7.79027)
(7.62911e-16 -2.61241 4.55423)
(3.12861e-15 -0.713485 1.3144)
(1.04067e-14 -6.60799 13.1672)
(1.52305e-14 -14.879 23.8085)
(6.84511e-15 -14.3027 24.6462)
(4.10231e-15 -13.324 22.2967)
(2.58247e-15 -12.233 20.5536)
(1.91474e-15 -11.2735 19.1489)
(1.9613e-15 -10.4611 17.7311)
(1.38137e-15 -9.64193 16.3347)
(1.34885e-15 -8.82016 14.983)
(1.36621e-15 -8.02129 13.6682)
(1.17269e-15 -7.1998 12.289)
(1.30034e-15 -6.1772 10.542)
(8.65521e-16 -4.67829 8.03758)
(8.06324e-16 -2.83709 4.92829)
(1.3044e-15 -0.94373 1.73847)
(8.88274e-15 -5.74887 11.0451)
(1.54332e-14 -14.1408 23.0032)
(7.9385e-15 -14.4897 24.8303)
(4.1503e-15 -13.4566 22.6219)
(2.59876e-15 -12.2615 20.749)
(1.97723e-15 -11.3021 19.287)
(1.80341e-15 -10.5025 17.8594)
(1.61034e-15 -9.68518 16.4608)
(1.07018e-15 -8.86694 15.1026)
(1.37503e-15 -8.07393 13.7799)
(1.22717e-15 -7.26048 12.4021)
(2.663e-15 -6.25734 10.681)
(7.58926e-16 -4.80665 8.24629)
(6.11941e-16 -3.00974 5.20301)
(-1.4459e-15 -1.10273 1.99516)
(7.2127e-15 -4.97322 9.34742)
(1.51917e-14 -13.4103 22.1272)
(8.48387e-15 -14.5518 24.9278)
(4.22749e-15 -13.5765 22.9576)
(2.55364e-15 -12.3108 20.971)
(1.56138e-15 -11.3518 19.4396)
(1.21184e-15 -10.5608 18.0023)
(1.59814e-15 -9.74313 16.6054)
(9.66558e-16 -8.92709 15.2434)
(1.61419e-15 -8.13902 13.9142)
(1.13542e-15 -7.32928 12.537)
(5.62465e-16 -6.34806 10.8396)
(8.62074e-16 -4.96552 8.48222)
(6.92605e-16 -3.24005 5.54755)
(-4.19487e-16 -1.29461 2.3199)
(5.43775e-15 -4.39682 8.19177)
(1.4672e-14 -12.7828 21.3508)
(9.15907e-15 -14.519 24.9442)
(4.52748e-15 -13.664 23.2497)
(2.20805e-15 -12.3651 21.1879)
(1.39697e-15 -11.4068 19.5902)
(1.70919e-15 -10.6188 18.1452)
(2.31571e-15 -9.80021 16.7535)
(4.64164e-16 -8.9887 15.391)
(3.34584e-16 -8.20751 14.0581)
(4.01694e-16 -7.40337 12.6831)
(9.02796e-16 -6.43525 11.0078)
(1.70342e-15 -5.09293 8.70969)
(1.72018e-15 -3.40995 5.84132)
(-5.89264e-16 -1.39643 2.5582)
(5.542e-15 -4.07333 7.56939)
(1.50261e-14 -12.3205 20.7849)
(1.00316e-14 -14.4375 24.9108)
(4.76899e-15 -13.7101 23.4617)
(2.81372e-15 -12.4085 21.3675)
(1.08655e-15 -11.4537 19.7181)
(1.48538e-15 -10.6623 18.2685)
(1.62428e-15 -9.84085 16.8831)
(5.96994e-16 -9.03448 15.5208)
(1.09886e-15 -8.25959 14.1855)
(1.17835e-15 -7.45944 12.8091)
(-3.35356e-16 -6.50306 11.1457)
(-1.90591e-17 -5.20389 8.89633)
(-6.13449e-16 -3.57563 6.09171)
(-1.69889e-15 -1.4988 2.76617)
(5.07788e-15 -3.97306 7.35571)
(1.45666e-14 -12.0285 20.4501)
(1.02414e-14 -14.3409 24.8545)
(4.8278e-15 -13.7152 23.5842)
(2.68319e-15 -12.4303 21.4913)
(1.18734e-15 -11.4816 19.8112)
(1.44406e-15 -10.6803 18.3611)
(1.47563e-15 -9.85353 16.9816)
(5.60396e-16 -9.05064 15.6194)
(8.4453e-16 -8.27896 14.2812)
(1.21456e-15 -7.47502 12.9003)
(-4.60378e-16 -6.51647 11.2338)
(-3.07058e-18 -5.23533 9.00048)
(-9.98798e-16 -3.6319 6.20782)
(-1.50076e-15 -1.49271 2.79479)
(5.09422e-15 -4.06136 7.45616)
(1.44403e-14 -11.8767 20.3191)
(1.03056e-14 -14.2623 24.8139)
(4.83357e-15 -13.704 23.6416)
(2.68073e-15 -12.4433 21.5668)
(1.20267e-15 -11.5035 19.8736)
(1.47481e-15 -10.69 18.4238)
(1.87321e-15 -9.85897 17.0455)
(4.04126e-16 -9.06189 15.6814)
(8.73739e-16 -8.29153 14.3403)
(1.11406e-15 -7.48315 12.9516)
(-4.32462e-16 -6.51447 11.2727)
(6.2246e-18 -5.23058 9.03772)
(-9.77763e-16 -3.62463 6.24036)
(-1.1188e-15 -1.43285 2.69269)
(5.38968e-15 -4.38907 7.87729)
(1.3957e-14 -11.7907 20.2533)
(1.00783e-14 -14.1786 24.6859)
(4.80671e-15 -13.6693 23.5993)
(2.65989e-15 -12.441 21.5642)
(1.20249e-15 -11.5059 19.8706)
(1.50487e-15 -10.674 18.4338)
(1.76255e-15 -9.84491 17.0606)
(5.0553e-16 -9.05522 15.6945)
(8.70091e-16 -8.28295 14.3484)
(9.40158e-16 -7.4609 12.9387)
(-3.22905e-16 -6.46434 11.2159)
(-1.47005e-16 -5.14813 8.92286)
(-9.75061e-16 -3.45502 5.98563)
(-5.92281e-16 -1.21303 2.24548)
)
;

boundaryField
{
    inletFace
    {
        type            zeroGradient;
    }
    inlet
    {
        type            fixedValue;
        value           uniform (0 8.7 15);
    }
    inletWalls
    {
        type            noSlip;
    }
    outletInlet
    {
        type            zeroGradient;
    }
}


// ************************************************************************* //
