/*--------------------------------*- C++ -*----------------------------------*\
| =========                 |                                                 |
| \\      /  F ield         | OpenFOAM: The Open Source CFD Toolbox           |
|  \\    /   O peration     | Version:  4.1                                   |
|   \\  /    A nd           | Web:      www.OpenFOAM.org                      |
|    \\/     M anipulation  |                                                 |
\*---------------------------------------------------------------------------*/
FoamFile
{
    version     2.0;
    format      ascii;
    class       volScalarField;
    location    "2";
    object      p;
}
// * * * * * * * * * * * * * * * * * * * * * * * * * * * * * * * * * * * * * //

dimensions      [0 2 -2 0 0 0 0];

internalField   nonuniform List<scalar> 
6785
(
546.86
475.909
426.486
375.809
329.596
285.97
245.077
206.528
170.14
135.494
101.725
69.6355
41.2521
8.65759
-28.6835
-21.6107
-39.1732
-32.5722
-37.7195
-39.1713
-41.654
-43.3871
-44.6382
-45.0878
-44.5508
-43.0972
-40.7445
-36.5427
-31.3683
-29.4243
-31.3001
-36.7635
-26.8947
-29.6149
-25.9111
-25.0141
-23.2898
-22.0647
-20.9313
-19.9773
-19.0443
-18.0625
-17.2987
-16.8818
-16.8679
-3.25371
-7.39584
-4.16541
-9.70301
-9.62033
-12.8903
-14.7538
-17.2221
-19.3899
-21.4841
-23.0093
-23.7194
-24.4931
-25.6276
-26.2801
-33.4377
-37.5969
-35.9031
-40.128
-39.2105
-41.6498
-42.2446
-43.5536
-44.4964
-45.4153
-46.0658
-46.3085
-46.7221
-47.1456
-46.3349
-40.6588
-42.9021
-40.3179
-42.6202
-40.4403
-41.4461
-40.6399
-40.6147
-40.3453
-40.1377
-39.8657
-39.4593
-38.7356
-37.919
-36.2445
-25.0551
-25.5652
-22.9321
-24.0408
-21.6745
-21.8496
-20.4899
-19.8098
-18.8746
-17.9787
-17.0336
-16.1263
-15.0902
-14.2474
-13.0092
-12.2732
-12.2937
-10.3531
-11.1548
-9.31616
-9.5032
-8.39624
-7.945
-7.23486
-6.61312
-5.96818
-5.39004
-4.78544
-4.34206
-3.87414
-5.85403
-5.86774
-4.46375
-5.22858
-3.87071
-4.18419
-3.40708
-3.21313
-2.7778
-2.43442
-2.06347
-1.749
-1.39218
-1.1632
-0.84581
-1.58295
-1.50553
-0.284764
-0.984147
0.148978
-0.101958
0.510581
0.69512
1.05437
1.36284
1.7072
2.00277
2.38741
2.60848
3.07882
4.46117
4.68732
5.8244
5.24483
6.2694
6.17722
6.71198
6.98983
7.36055
7.72094
8.1182
8.46947
8.93455
9.20733
9.80784
11.1335
11.4699
12.5008
12.0693
13.0278
13.0377
13.5394
13.8656
14.244
14.6226
15.0324
15.3993
15.8732
16.1598
16.7615
20.9454
20.8685
21.6589
20.9592
21.6062
21.404
21.6364
21.75
21.8872
22.0335
22.1977
22.3336
22.5478
22.639
22.936
23.9875
23.5407
22.9346
22.1793
22.8799
22.6613
22.9689
22.7954
22.7117
22.5341
22.3902
22.2433
22.1981
22.116
22.2178
40.996
36.8684
34.0955
34.3305
34.1803
32.2517
31.0583
29.7693
28.7982
27.9744
27.2261
26.6045
26.0101
25.543
24.6891
0.134553
0.0302219
0.0342674
0.0371496
0.0358062
0.0398084
0.0561939
0.0577136
0.0663988
0.0802707
0.113046
0.0942263
0.0551281
0.0852405
0.047658
0.00459877
-0.0278235
0.0259729
-0.0382987
-0.108111
-0.0536722
-0.112616
-0.192483
-0.26046
-0.201098
-0.284887
-0.377472
-0.432225
-0.403766
-0.565368
-0.615481
-0.58335
-0.740281
-0.84839
-0.843967
-0.810222
-1.05084
-1.09544
-1.02081
-1.23496
-1.40029
-1.42305
-1.28263
-1.537
-1.74971
-1.75135
-1.59305
-1.91745
-1.90935
-1.80264
-2.18203
-2.288
-2.08044
-2.00753
-2.18305
-2.91416
-3.72649
-1.79062
-1.9392
-3.54178
-2.33192
-2.23297
-2.31083
-2.24756
-1.5295
-1.69204
-1.77956
-1.14132
-1.12964
-1.16704
-1.15926
-1.49868
-2.11269
-2.06607
-1.49906
-6.53341
-5.73511
-3.71044
-19.4279
-15.2815
-11.7756
-11.9218
-11.5402
-24.2552
-10.6872
-8.4948
-7.86412
-7.56489
-7.31846
-6.94413
-6.10373
-6.27776
-15.9933
-6.28241
-5.43799
-3.96105
-2.87996
-2.15453
-1.28764
-0.0562779
-0.150556
-9.51862
1.05248
2.44408
3.96596
5.39748
6.92141
8.05641
9.23711
10.8024
10.6413
1.87191
11.9383
13.5912
15.3169
16.8767
18.3572
19.9593
21.8105
21.6156
13.7581
22.5561
24.3332
25.9577
27.2963
28.3297
29.3777
31.2012
31.1368
26.1218
31.0459
31.2377
32.2328
32.9965
32.9385
32.7583
32.0553
30.454
33.1127
33.3228
31.3405
29.3488
26.6891
26.3738
24.423
20.5409
16.3661
11.7822
11.8391
9.79805
4.17868
0.815154
-1.99396
-5.87383
-11.8758
-13.7506
-12.5109
-22.9223
-11.3248
-15.3401
-19.5674
-13.7969
-20.8658
-19.1341
-21.1751
-18.6766
-15.638
-22.4051
-18.5675
-15.684
-20.5836
-19.0618
-20.1226
-17.966
-14.5883
-18.8245
-17.1874
-17.8603
-15.7031
-13.042
-16.7764
-13.8248
-11.7316
-13.9978
-12.61
-12.718
-11.1202
-9.29393
-10.7637
-9.57627
-9.5323
-8.26203
-7.22602
-8.12146
-6.82999
-6.21468
-6.57468
-5.99937
-6.00725
-5.44892
-5.2435
-5.74784
-5.68137
-5.80118
-5.92796
-6.01566
-6.45227
-6.65432
-6.66227
-6.85785
-7.26817
-7.21171
-7.147
-7.24758
-6.66176
-7.40804
-7.399
-7.10947
-7.2471
-5.92136
-6.81716
-7.49194
-4.91769
-6.03508
-6.31285
-5.19126
-5.22647
-2.02743
-3.11216
-3.39264
-2.06529
-2.29681
0.642142
-0.951505
-2.66974
1.02458
-1.27912
-2.18965
-1.65488
-1.77027
9.61852e-06
2.18023e-05
3.77461e-05
5.27773e-05
7.03623e-05
8.87585e-05
0.000109136
0.000130999
0.000154821
0.000180549
0.000208459
0.00023867
0.000271428
0.00030694
0.000345475
0.000387305
0.000432744
0.000482128
0.000535827
0.000594245
0.00065782
0.000727032
0.000802401
0.000884491
0.000973917
0.00107134
0.00117749
0.00129314
0.00141914
0.00155641
0.00170592
0.00186875
0.00204605
0.00223906
0.00244911
0.00267764
0.00292618
0.00319639
0.00349004
0.00380899
0.00415523
0.00453088
0.00493813
0.00537926
0.0058566
0.00637248
0.00692914
0.00752858
0.00817246
0.00886174
0.00959635
0.0103746
0.0111927
0.0120431
0.0129142
0.0137878
0.0146376
0.0154268
0.0161058
0.0166099
0.0168577
0.0167501
0.0161718
0.0149887
0.0130686
0.0102335
0.00640573
0.00134594
-0.00473876
-0.0119941
-0.0195094
-0.0267228
-0.0320347
-0.0959574
-0.147575
-0.304769
-0.311353
-0.91774
-0.819258
2.81827e-05
6.47964e-05
0.000112295
0.000157639
0.000210067
0.000265051
0.000325699
0.000390778
0.000461571
0.000538001
0.000620851
0.000710508
0.000807685
0.000913013
0.00102728
0.0011513
0.001286
0.00143238
0.00159153
0.00176464
0.00195302
0.00215807
0.00238132
0.00262446
0.00288927
0.00317773
0.00349196
0.00383426
0.00420711
0.00461321
0.00505545
0.00553697
0.00606115
0.00663163
0.00725232
0.00792742
0.00866145
0.00945923
0.0103259
0.011267
0.0122883
0.0133959
0.0145963
0.0158961
0.0173022
0.0188214
0.0204602
0.0222246
0.0241194
0.0261478
0.0283099
0.0306012
0.0330111
0.0355194
0.0380932
0.0406821
0.0432126
0.0455823
0.0476527
0.049244
0.0501298
0.0500353
0.0486406
0.0455716
0.0404549
0.0327753
0.0222702
0.00818367
-0.00909889
-0.0302465
-0.053295
-0.0766728
-0.0988288
-0.204433
-0.313449
-0.576101
-0.650101
-1.29826
-1.29344
4.45286e-05
0.000105185
0.000185162
0.00026118
0.000348995
0.000441022
0.000542474
0.000651305
0.00076966
0.000897419
0.00103589
0.00118573
0.00134812
0.00152412
0.00171505
0.00192228
0.00214734
0.00239191
0.00265781
0.00294704
0.00326177
0.00360436
0.00397737
0.00438359
0.00482605
0.00530802
0.00583305
0.00640499
0.00702799
0.00770656
0.00844554
0.00925017
0.0101261
0.0110795
0.0121167
0.013245
0.0144717
0.0158051
0.0172536
0.0188266
0.0205337
0.0223852
0.0243919
0.0265649
0.0289156
0.0314555
0.0341955
0.0371457
0.0403142
0.0437061
0.0473217
0.0511537
0.0551841
0.0593791
0.0636834
0.0680124
0.0722427
0.0762016
0.0796561
0.0823023
0.0837575
0.0835557
0.0811532
0.0759129
0.0671933
0.0541176
0.0362148
0.0122091
-0.0173259
-0.0535423
-0.0933411
-0.134171
-0.176852
-0.282854
-0.407062
-0.702347
-0.804696
-1.37987
-1.35846
6.0329e-05
0.000145143
0.000257316
0.000364169
0.000487271
0.000616326
0.000758441
0.000910885
0.00107659
0.00125545
0.00144926
0.00165896
0.0018862
0.00213248
0.00239963
0.00268956
0.00300445
0.00334661
0.00371862
0.00412325
0.00456355
0.00504281
0.00556463
0.0061329
0.00675184
0.00742605
0.00816048
0.00896051
0.00983196
0.0107811
0.0118147
0.0129402
0.0141654
0.0154987
0.0169495
0.0185275
0.0202431
0.0221079
0.0241337
0.0263334
0.0287206
0.0313098
0.0341159
0.0371545
0.0404416
0.0439932
0.0478246
0.05195
0.0563809
0.0611245
0.0661814
0.0715418
0.0771808
0.0830519
0.0890786
0.0951434
0.101075
0.106634
0.111495
0.115235
0.11732
0.117098
0.113808
0.106554
0.0944271
0.0761876
0.0511266
0.01742
-0.0243112
-0.0757912
-0.133114
-0.193165
-0.259176
-0.369635
-0.516307
-0.860155
-0.988544
-1.61917
-1.66653
7.50906e-05
0.000184095
0.000328486
0.000466372
0.000624858
0.000791072
0.000973928
0.00117006
0.00138318
0.00161317
0.00186236
0.00213194
0.00242406
0.00274062
0.003084
0.00345665
0.00386135
0.0043011
0.0047792
0.00529923
0.00586507
0.00648099
0.00715159
0.00788188
0.00867729
0.0095437
0.0104875
0.0115156
0.0126354
0.0138551
0.0151834
0.0166296
0.0182039
0.0199173
0.0217815
0.0238091
0.0260136
0.0284097
0.0310127
0.0338391
0.0369064
0.0402332
0.0438387
0.0477429
0.0519665
0.05653
0.0614532
0.0667543
0.0724484
0.0785449
0.0850449
0.0919363
0.0991877
0.10674
0.114497
0.122307
0.129954
0.137129
0.143419
0.148279
0.151023
0.150814
0.146667
0.137425
0.121902
0.0984844
0.0661944
0.0226364
-0.0316286
-0.0989478
-0.174852
-0.256111
-0.348398
-0.468381
-0.646813
-1.05155
-1.21698
-1.90531
-2.02819
8.92229e-05
0.000222542
0.00039894
0.000567993
0.000761838
0.000965253
0.00118881
0.00142861
0.00168905
0.0019701
0.00227454
0.00260387
0.0029607
0.00334736
0.00376676
0.0042219
0.00471617
0.00525324
0.00583712
0.0064722
0.00716324
0.00791541
0.00873435
0.00962617
0.0105975
0.0116555
0.0128081
0.0140635
0.015431
0.0169204
0.0185423
0.0203082
0.0222306
0.0243227
0.0265989
0.0290746
0.0317664
0.0346919
0.03787
0.0413209
0.045066
0.0491277
0.0535297
0.0582965
0.0634532
0.0690249
0.0750361
0.0815091
0.0884623
0.095908
0.103848
0.112267
0.12113
0.130364
0.139853
0.149417
0.15879
0.167602
0.175348
0.181367
0.184822
0.184689
0.179762
0.168623
0.149799
0.121298
0.0818432
0.028436
-0.0385527
-0.12216
-0.217656
-0.322205
-0.444252
-0.572966
-0.785145
-1.24686
-1.45139
-2.17592
-2.44046
0.000102724
0.000260497
0.000468703
0.000669043
0.000898229
0.00113889
0.00140313
0.00168656
0.00199429
0.00232632
0.00268592
0.0030749
0.0034963
0.00395292
0.00444818
0.00498562
0.00556925
0.00620341
0.00689284
0.0076427
0.00845862
0.00934672
0.0103136
0.0113666
0.0125135
0.0137626
0.0151234
0.0166056
0.0182201
0.0199785
0.0218934
0.0239782
0.0262477
0.0287176
0.0314048
0.0343275
0.0375052
0.0409588
0.0447106
0.0487843
0.0532053
0.058
0.0631964
0.0688235
0.074911
0.0814886
0.0885853
0.0962276
0.104438
0.113231
0.122609
0.132556
0.143031
0.15395
0.165179
0.176506
0.187624
0.198096
0.207331
0.214551
0.218771
0.21878
0.21315
0.200196
0.178156
0.144649
0.0980667
0.0347781
-0.0451682
-0.145577
-0.261759
-0.391836
-0.546459
-0.682538
-0.931251
-1.44819
-1.69224
-2.46214
-2.82287
0.000115736
0.000298126
0.000537886
0.0007696
0.00103407
0.00131199
0.00161686
0.00194388
0.00229879
0.0026817
0.00309633
0.00354479
0.00403061
0.00455699
0.00512788
0.00574739
0.00642012
0.00715108
0.00794573
0.00881002
0.00975045
0.0107741
0.0118885
0.0131021
0.0144239
0.0158637
0.017432
0.0191403
0.021001
0.0230276
0.0252344
0.0276372
0.0302527
0.0330991
0.036196
0.0395642
0.0432262
0.0472061
0.0515296
0.0562241
0.0613187
0.066844
0.0728322
0.0793168
0.0863321
0.0939124
0.102091
0.1109
0.120364
0.130501
0.141315
0.15279
0.164877
0.177486
0.190461
0.203564
0.216445
0.228604
0.239366
0.247838
0.252885
0.253113
0.24687
0.232204
0.207055
0.168647
0.115009
0.0418435
-0.0512613
-0.168967
-0.306957
-0.464898
-0.654097
-0.79955
-1.08915
-1.66209
-1.94942
-2.74668
-3.19847
0.000128322
0.000335501
0.000606554
0.000869707
0.00116939
0.00148457
0.00182999
0.00220053
0.00260252
0.00303619
0.0035057
0.00401349
0.00456352
0.00515945
0.00580575
0.00650705
0.0072686
0.00809604
0.00899557
0.00997392
0.0110385
0.0121971
0.0134586
0.0148324
0.0163285
0.0179582
0.0197334
0.021667
0.0237731
0.0260669
0.0285648
0.0312844
0.0342448
0.0374664
0.0409715
0.0447836
0.0489283
0.0534328
0.058326
0.0636392
0.069405
0.0756584
0.0824357
0.0897749
0.0977149
0.106295
0.115553
0.125524
0.136239
0.147718
0.159967
0.172968
0.18667
0.200972
0.215702
0.230596
0.24526
0.259138
0.271469
0.281248
0.287193
0.287726
0.280968
0.264702
0.236563
0.193371
0.132766
0.0497428
-0.0567104
-0.192204
-0.353179
-0.541397
-0.766834
-0.923418
-1.26008
-1.88977
-2.22662
-3.05367
-3.6242
0.00014056
0.000372702
0.000674777
0.000969413
0.00130422
0.00165662
0.00204251
0.00245649
0.00290542
0.00338971
0.00391393
0.00448085
0.00509488
0.00576012
0.00648154
0.00726435
0.00811439
0.00903796
0.010042
0.011134
0.0123222
0.0136154
0.0150234
0.0165566
0.0182265
0.0200454
0.0220267
0.0241848
0.0265354
0.0290955
0.0318833
0.0349185
0.0382224
0.0418179
0.0457297
0.0499841
0.0546096
0.0596365
0.0650974
0.0710267
0.0774614
0.08444
0.0920035
0.100194
0.109056
0.118632
0.128965
0.140096
0.152059
0.164877
0.178559
0.193086
0.208405
0.224404
0.2409
0.257599
0.274071
0.289702
0.303648
0.314796
0.321717
0.322648
0.315486
0.297745
0.266749
0.218912
0.151451
0.0586178
-0.0613461
-0.2151
-0.400274
-0.621269
-0.884154
-1.05547
-1.44638
-2.13247
-2.52427
-3.39458
-4.00083
0.000152508
0.000409786
0.000742611
0.00106876
0.00143858
0.00182816
0.00225441
0.00271171
0.00320745
0.00374219
0.00432093
0.00494677
0.00562455
0.00635883
0.00715509
0.00801908
0.00895726
0.00997657
0.0110847
0.0122899
0.0136012
0.0150284
0.0165823
0.0182745
0.0201174
0.0221247
0.0243113
0.0266929
0.0292871
0.0321123
0.0351888
0.0385384
0.0421844
0.0461523
0.050469
0.0551639
0.0602682
0.0658155
0.0718417
0.0783848
0.0854854
0.0931865
0.101533
0.110572
0.120351
0.13092
0.142325
0.154612
0.167819
0.181974
0.197087
0.213141
0.230078
0.247781
0.266052
0.284575
0.302881
0.320301
0.335915
0.348498
0.356479
0.357912
0.350467
0.331387
0.297683
0.245355
0.171173
0.0686068
-0.0649991
-0.237464
-0.448089
-0.704454
-1.00616
-1.19936
-1.65183
-2.39258
-2.84249
-3.72062
-4.32243
0.000164216
0.000446799
0.000810108
0.00116777
0.00157248
0.00199918
0.00246566
0.00296616
0.00350854
0.00409356
0.0047266
0.00541111
0.00615238
0.0069554
0.00782618
0.00877101
0.00979693
0.0109116
0.0121233
0.0134412
0.0148751
0.0164358
0.0181349
0.0199852
0.0220004
0.0241954
0.0265863
0.0291906
0.0320271
0.0351164
0.0384804
0.0421429
0.0461296
0.0504681
0.0551881
0.0603215
0.0659025
0.0719679
0.0785568
0.0857109
0.0934747
0.101895
0.111021
0.120905
0.131598
0.143155
0.155629
0.169068
0.183516
0.199005
0.215547
0.233127
0.251685
0.271098
0.291156
0.311521
0.33169
0.350941
0.368277
0.382368
0.391502
0.393548
0.38595
0.36568
0.32943
0.272786
0.192045
0.0798571
-0.0674814
-0.259073
-0.496429
-0.790861
-1.13351
-1.35835
-1.88033
-2.67279
-3.18194
-4.06675
-4.66151
0.000175729
0.000483777
0.000877311
0.00126647
0.00170594
0.00216967
0.00267625
0.0032198
0.00380864
0.00444372
0.00513083
0.00587376
0.00667822
0.00754968
0.00849462
0.00951989
0.0106331
0.0118427
0.0131575
0.0145875
0.0161434
0.0178369
0.0196807
0.0216884
0.0238751
0.0262568
0.0288511
0.0316769
0.0347547
0.0381067
0.0417568
0.0457308
0.0500566
0.054764
0.0598853
0.0654551
0.0715107
0.0780917
0.0852407
0.093003
0.101427
0.110563
0.120466
0.13119
0.142794
0.155335
0.168873
0.18346
0.199146
0.215965
0.233935
0.25304
0.273222
0.294353
0.31621
0.338437
0.360499
0.381624
0.400742
0.41642
0.426804
0.429583
0.421974
0.400675
0.362055
0.30129
0.214179
0.0925201
-0.0685917
-0.279685
-0.545064
-0.880345
-1.26692
-1.5368
-2.1345
-2.97619
-3.54314
-4.41821
-4.98498
0.000187082
0.000520748
0.000944258
0.0013649
0.00183897
0.00233964
0.00288614
0.00347259
0.00410768
0.00479261
0.00553353
0.00633459
0.00720193
0.00814147
0.0091602
0.0102655
0.0114657
0.0127695
0.014187
0.0157286
0.0174059
0.0192315
0.0212191
0.0233835
0.0257407
0.0283082
0.0311048
0.0341511
0.037469
0.0410824
0.0450172
0.0493011
0.0539641
0.0590385
0.0645592
0.0705633
0.0770909
0.084185
0.0918913
0.100259
0.109339
0.119188
0.129863
0.141424
0.153934
0.167456
0.182053
0.197785
0.214704
0.232851
0.252246
0.272878
0.294686
0.317541
0.34121
0.36532
0.389308
0.412353
0.433317
0.450665
0.462406
0.466046
0.458575
0.436419
0.395623
0.330948
0.237688
0.106753
-0.0681118
-0.299027
-0.59372
-0.972673
-1.407
-1.73822
-2.41509
-3.30582
-3.92674
-4.77252
-5.27574
0.000198307
0.000557731
0.00101098
0.00146306
0.00197157
0.00250906
0.00309533
0.00372448
0.00440561
0.00514013
0.00593458
0.00679347
0.00772336
0.00873061
0.00982272
0.0110076
0.0122942
0.0136919
0.0152114
0.016864
0.018662
0.020619
0.0227496
0.0250698
0.0275967
0.0303489
0.0333469
0.0366123
0.040169
0.0440424
0.0482603
0.0528524
0.057851
0.0632905
0.0692082
0.0756443
0.0826415
0.0902458
0.0985066
0.107476
0.11721
0.127768
0.139211
0.151605
0.165017
0.179515
0.195167
0.212038
0.230186
0.249657
0.270476
0.292633
0.316071
0.340658
0.366153
0.39217
0.418116
0.443132
0.466008
0.485115
0.498324
0.502963
0.49579
0.472961
0.430193
0.361843
0.262684
0.122715
-0.0658012
-0.316794
-0.642064
-1.0675
-1.55413
-1.96387
-2.72204
-3.66481
-4.33479
-5.13978
-5.57423
0.00020943
0.000594744
0.0010775
0.00156097
0.00210376
0.00267794
0.00330377
0.00397543
0.00470235
0.0054862
0.0063339
0.00725028
0.00824236
0.00931693
0.010482
0.011746
0.0131185
0.0146095
0.0162304
0.0179933
0.0199113
0.021999
0.0242718
0.0267468
0.0294424
0.0323784
0.0355764
0.0390598
0.0428538
0.0469858
0.0514852
0.0563838
0.0617159
0.0675184
0.073831
0.0806965
0.0881606
0.0962724
0.105084
0.114652
0.125036
0.136299
0.148506
0.161729
0.176038
0.191507
0.208209
0.226216
0.245589
0.266381
0.28862
0.312303
0.337374
0.363699
0.391035
0.418982
0.446923
0.473959
0.49882
0.519779
0.534575
0.540356
0.533652
0.510344
0.465824
0.394051
0.289276
0.140571
-0.0614067
-0.332646
-0.689691
-1.16435
-1.70862
-2.21521
-3.05568
-4.05674
-4.76993
-5.50336
-5.80001
0.000220473
0.000631797
0.00114384
0.00165864
0.00223553
0.00284624
0.00351143
0.00422538
0.00499784
0.00583075
0.00673136
0.00770489
0.00875877
0.00990023
0.0111378
0.0124805
0.0139383
0.015522
0.0172437
0.0191162
0.0211535
0.023371
0.0257852
0.0284141
0.0312772
0.0343958
0.0377927
0.0414927
0.0455227
0.0499116
0.0546908
0.059894
0.0655576
0.0717209
0.0784261
0.0857184
0.0936466
0.102263
0.111623
0.121786
0.132816
0.144779
0.157747
0.171793
0.186994
0.203429
0.221177
0.240313
0.260907
0.283016
0.306674
0.331883
0.358589
0.386661
0.415852
0.445752
0.475726
0.504837
0.531755
0.554665
0.571173
0.578249
0.572192
0.548611
0.502572
0.427648
0.317573
0.160484
-0.0546675
-0.346212
-0.736124
-1.26261
-1.87083
-2.49402
-3.416
-4.486
-5.23533
-5.8785
-5.98062
0.000231453
0.000668898
0.00121003
0.00175607
0.00236687
0.00301395
0.00371829
0.0044743
0.00529202
0.00617367
0.00712686
0.00815717
0.00927244
0.0104804
0.0117899
0.0132107
0.0147533
0.0164292
0.018251
0.0202323
0.0223881
0.0247346
0.0272891
0.030071
0.0331006
0.0364006
0.0399951
0.0439103
0.0481747
0.0528188
0.057876
0.0633818
0.0693749
0.0758967
0.0829918
0.0907083
0.0990977
0.108215
0.11812
0.128874
0.140546
0.153206
0.166929
0.181794
0.197883
0.215279
0.234067
0.254328
0.276138
0.299559
0.324633
0.351367
0.379711
0.409538
0.440599
0.472478
0.504522
0.535763
0.564817
0.58978
0.608132
0.616662
0.611441
0.587802
0.540489
0.462705
0.347679
0.182618
-0.0453111
-0.357094
-0.780803
-1.36155
-2.04114
-2.80165
-3.80209
-4.9576
-5.73537
-6.27665
-6.21289
0.000242384
0.000706052
0.00127606
0.00185327
0.00249778
0.00318106
0.00392431
0.00472211
0.0055848
0.00651488
0.00752029
0.00860699
0.00978321
0.0110571
0.0124382
0.0139365
0.0155633
0.0173306
0.0192518
0.0213413
0.0236148
0.0260892
0.0287833
0.0317169
0.0349119
0.038392
0.0421827
0.0463117
0.0508088
0.0557066
0.0610398
0.0668462
0.0731665
0.0800443
0.0875269
0.0956647
0.104512
0.114127
0.124573
0.135915
0.148224
0.161576
0.17605
0.191729
0.2087
0.227052
0.246874
0.268255
0.291275
0.316005
0.342492
0.370749
0.400735
0.432324
0.46527
0.499153
0.533308
0.566737
0.598006
0.625129
0.645461
0.655615
0.651427
0.627955
0.579625
0.499289
0.379692
0.207137
-0.0330556
-0.364869
-0.823093
-1.46032
-2.21989
-3.13799
-4.21258
-5.47699
-6.27513
-6.68807
-6.36037
0.000253279
0.000743262
0.00134195
0.00195023
0.00262825
0.00334753
0.00412944
0.00496878
0.00587612
0.00685429
0.00791154
0.00905421
0.0102909
0.0116303
0.0130824
0.0146576
0.016368
0.0182261
0.020246
0.0224428
0.024833
0.0274346
0.030267
0.0333514
0.0367106
0.0403695
0.044355
0.0486961
0.0534244
0.0585738
0.0641812
0.070286
0.0769311
0.0841625
0.0920297
0.100586
0.109888
0.119998
0.130981
0.142906
0.155849
0.169888
0.185108
0.201596
0.219443
0.238745
0.259595
0.28209
0.306315
0.332349
0.360246
0.390026
0.421655
0.455014
0.489861
0.525773
0.562078
0.597754
0.631322
0.660717
0.683172
0.695124
0.692174
0.669104
0.620025
0.537461
0.413706
0.2342
-0.0176116
-0.369095
-0.862289
-1.55801
-2.40718
-3.5013
-4.64483
-6.04972
-6.86045
-7.1226
-6.42546
0.000264146
0.000780528
0.00140771
0.00204695
0.00275827
0.00351334
0.00433365
0.00521424
0.00616591
0.0071918
0.00830049
0.00949869
0.0107954
0.0121998
0.0137222
0.0153739
0.0171671
0.0191153
0.0212331
0.0235363
0.0260424
0.0287701
0.0317399
0.0349738
0.0384959
0.0423323
0.0465111
0.0510628
0.0560204
0.0614197
0.0672991
0.0737001
0.0806677
0.08825
0.0964989
0.10547
0.115224
0.125825
0.137341
0.149845
0.163417
0.178139
0.1941
0.21139
0.230109
0.250354
0.272227
0.295829
0.321254
0.348586
0.377889
0.409191
0.442465
0.477601
0.514363
0.552332
0.590827
0.62881
0.664762
0.696546
0.721272
0.735204
0.733706
0.711282
0.661731
0.577275
0.449806
0.263962
0.00131594
-0.36931
-0.897628
-1.65364
-2.60276
-3.88735
-5.09716
-6.68324
-7.49995
-7.58716
-6.62338
0.000274993
0.000817849
0.00147334
0.00214341
0.00288782
0.00367847
0.00453689
0.00545842
0.00645408
0.00752732
0.00868702
0.00994031
0.0112966
0.0127654
0.0143576
0.016085
0.0179604
0.0199979
0.0222128
0.0246216
0.0272427
0.0300955
0.0332014
0.0365837
0.0402674
0.0442798
0.0486503
0.0534109
0.0585961
0.0642432
0.0703925
0.0770874
0.0843748
0.0923053
0.100933
0.110317
0.120518
0.131606
0.143651
0.156731
0.170927
0.186326
0.203022
0.22111
0.240693
0.261876
0.284765
0.309468
0.336087
0.364713
0.395417
0.428238
0.46316
0.50008
0.538771
0.578821
0.619548
0.659901
0.698325
0.732615
0.759767
0.775868
0.776045
0.754518
0.704779
0.618781
0.488067
0.29657
0.0240259
-0.365008
-0.928262
-1.74617
-2.80592
-4.29003
-5.574
-7.38949
-8.20254
-8.08401
-6.708
0.000285825
0.000855223
0.00153884
0.00223963
0.00301688
0.00384287
0.00473912
0.00570128
0.00674056
0.00786074
0.00907103
0.0103789
0.0117942
0.0133269
0.0149883
0.0167907
0.0187476
0.0208737
0.0231848
0.0256983
0.0284333
0.0314101
0.0346511
0.0381804
0.0420244
0.0462113
0.050772
0.0557397
0.0611505
0.0670434
0.0734603
0.0804467
0.0880514
0.0963271
0.105331
0.115123
0.125769
0.13734
0.14991
0.16356
0.178375
0.194447
0.211872
0.230752
0.251193
0.273307
0.297206
0.323003
0.350809
0.380722
0.412824
0.447162
0.483732
0.522442
0.563078
0.605234
0.648235
0.691019
0.732004
0.768923
0.798661
0.817128
0.819209
0.798838
0.749202
0.662019
0.528555
0.332161
0.050816
-0.355611
-0.95321
-1.83447
-3.0155
-4.7046
-6.08748
-8.18525
-8.97971
-8.62299
-6.97713
0.000296645
0.000892648
0.0016042
0.00233557
0.00314544
0.00400651
0.00494029
0.00594274
0.00702526
0.00819198
0.0094524
0.0108144
0.0122881
0.0138841
0.0156141
0.0174909
0.0195285
0.0217422
0.0241487
0.026766
0.0296139
0.0327136
0.0360884
0.0397635
0.0437663
0.0481262
0.0528753
0.0580484
0.0636829
0.0698194
0.0765016
0.0837769
0.0916961
0.100314
0.10969
0.119888
0.130975
0.143024
0.156115
0.170331
0.18576
0.202499
0.220648
0.240313
0.261606
0.284644
0.309545
0.33643
0.365416
0.396611
0.430105
0.465957
0.504175
0.544681
0.587274
0.631563
0.676878
0.722156
0.765794
0.805468
0.837955
0.858992
0.863216
0.844266
0.795028
0.707021
0.571319
0.370852
0.0819735
-0.340439
-0.971304
-1.91728
-3.23002
-5.12988
-6.65518
-9.0904
-9.84557
-9.21123
-7.32995
0.000307455
0.00093012
0.00166943
0.00243123
0.00327347
0.00416937
0.00514035
0.00618274
0.00730811
0.00852092
0.00983099
0.0112466
0.0127782
0.0144368
0.0162347
0.0181852
0.0203028
0.0226034
0.0251043
0.0278244
0.030784
0.0340055
0.0375129
0.0413324
0.0454925
0.0500238
0.0549597
0.0603362
0.0661923
0.0725702
0.0795153
0.0870769
0.0953079
0.104265
0.11401
0.124609
0.136133
0.148658
0.162265
0.177041
0.19308
0.21048
0.229346
0.24979
0.271929
0.295883
0.32178
0.349745
0.379903
0.412372
0.447253
0.484616
0.524482
0.566789
0.611353
0.657797
0.705467
0.753304
0.799687
0.842244
0.87765
0.901467
0.908079
0.89082
0.842278
0.753809
0.616395
0.412743
0.117762
-0.318779
-0.981242
-1.99316
-3.44778
-5.56732
-7.29597
-10.1225
-10.8154
-9.85149
-7.79063
0.000318258
0.000967633
0.00173452
0.00252658
0.00340094
0.0043314
0.00533925
0.00642121
0.00758901
0.00884747
0.0102067
0.0116753
0.0132643
0.0149849
0.01685
0.0188734
0.0210701
0.0234568
0.0260512
0.028873
0.0319434
0.0352854
0.0389241
0.0428866
0.0472024
0.0519035
0.0570243
0.0626023
0.0686779
0.0752949
0.0825005
0.0903457
0.0988854
0.108179
0.11829
0.129287
0.141243
0.154238
0.168357
0.183689
0.200331
0.218386
0.237964
0.259181
0.282157
0.307021
0.333905
0.362942
0.394266
0.428002
0.464264
0.503133
0.544645
0.588758
0.635304
0.683928
0.733992
0.78445
0.833672
0.879243
0.917743
0.944558
0.95381
0.93852
0.890969
0.802395
0.663802
0.457904
0.158419
-0.289965
-0.981735
-2.06058
-3.66678
-6.01846
-8.02404
-11.2965
-11.9063
-10.5508
-8.3988
0.000329051
0.00100518
0.00179945
0.00262163
0.00352784
0.00449255
0.00553693
0.00665808
0.00786789
0.00917152
0.0105794
0.0121005
0.0137462
0.0155282
0.0174598
0.0195553
0.0218304
0.0243021
0.0269891
0.0299115
0.0330915
0.0365528
0.0403214
0.0444255
0.0488956
0.0537646
0.0590685
0.0648459
0.0711389
0.0779926
0.085456
0.093582
0.102427
0.112054
0.122527
0.133918
0.146303
0.159764
0.174389
0.190271
0.207512
0.226216
0.246499
0.268481
0.292288
0.318054
0.345917
0.376019
0.408499
0.443495
0.48113
0.521501
0.564658
0.610579
0.659118
0.709943
0.762442
0.815583
0.867737
0.916458
0.95823
0.988265
1.00042
0.987379
0.941115
0.852782
0.713536
0.506376
0.204152
-0.253362
-0.971541
-2.11793
-3.88457
-6.48349
-8.84914
-12.6296
-13.1362
-11.3162
-9.04693
0.000339835
0.00104276
0.00186422
0.00271633
0.00365412
0.00465279
0.00573333
0.00689328
0.00814464
0.00949297
0.0109489
0.0125219
0.0142237
0.0160664
0.0180638
0.0202306
0.0225832
0.0251391
0.0279176
0.0309396
0.034228
0.0378073
0.0417045
0.0459486
0.0505712
0.0556065
0.0610915
0.0670664
0.0735743
0.0806623
0.088381
0.0967849
0.105933
0.115889
0.12672
0.138501
0.151311
0.165233
0.18036
0.196787
0.214619
0.233967
0.254949
0.277689
0.302319
0.328979
0.357813
0.38897
0.422598
0.458846
0.497847
0.539713
0.584513
0.632243
0.682784
0.735833
0.790803
0.846689
0.90187
0.953874
0.999102
1.03259
1.04791
1.03741
0.992722
0.90496
0.765573
0.558165
0.255129
-0.208328
-0.949355
-2.16338
-4.09811
-6.96164
-9.78385
-14.1401
-14.5242
-12.146
-9.70422
0.000350607
0.00108037
0.00192881
0.00281068
0.00377975
0.00481208
0.00592841
0.00712673
0.00841919
0.0098117
0.0113152
0.0129395
0.0146968
0.0165995
0.0186618
0.0208992
0.0233283
0.0259674
0.0288364
0.0319569
0.0353524
0.0390485
0.0430728
0.0474554
0.0522289
0.0574286
0.0630928
0.0692628
0.0759835
0.0833033
0.0912743
0.0999532
0.109401
0.119682
0.130869
0.143036
0.156265
0.170644
0.186267
0.203234
0.221652
0.241637
0.26331
0.2868
0.312246
0.339792
0.369588
0.401791
0.436559
0.474049
0.514408
0.557763
0.604201
0.653742
0.706293
0.761583
0.819061
0.877753
0.936055
0.99148
1.04035
1.07753
1.0963
1.08862
1.04579
0.958907
0.819865
0.613231
0.311474
-0.154228
-0.913622
-2.19456
-4.30362
-7.45151
-10.8438
-15.8497
-16.0927
-13.0567
-10.3688
0.000361365
0.001118
0.00199322
0.00290465
0.00390472
0.00497035
0.00612209
0.00735836
0.00869144
0.0101276
0.0116781
0.0133531
0.0151651
0.0171271
0.0192537
0.0215607
0.0240655
0.0267868
0.0297452
0.0329631
0.0364645
0.0402759
0.0444258
0.0489453
0.053868
0.0592302
0.0650715
0.0714346
0.0783655
0.0859144
0.0941351
0.103086
0.112829
0.123433
0.134971
0.147519
0.161164
0.175995
0.192109
0.209609
0.228608
0.249222
0.271579
0.295813
0.322066
0.350489
0.381238
0.414478
0.450376
0.489099
0.530807
0.575643
0.623714
0.675064
0.729632
0.787181
0.847201
0.908757
0.970274
1.02926
1.08196
1.12308
1.14558
1.14102
1.10032
1.01459
0.876334
0.671489
0.373241
-0.0904711
-0.862428
-2.20826
-4.49654
-7.95113
-12.048
-17.781
-17.8688
-14.0435
-11.1359
0.000372104
0.00115564
0.00205742
0.00299821
0.00402896
0.00512758
0.00631431
0.00758808
0.0089613
0.0104406
0.0120375
0.0137626
0.0156286
0.0176491
0.0198391
0.022215
0.0247945
0.027597
0.0306437
0.0339577
0.0375637
0.0414891
0.0457631
0.0504179
0.0554879
0.0610107
0.067027
0.0735808
0.0807196
0.0884949
0.0969623
0.106182
0.116218
0.127141
0.139025
0.151951
0.166006
0.181284
0.197883
0.215912
0.235483
0.256721
0.279755
0.304724
0.331776
0.361067
0.39276
0.427027
0.464044
0.50399
0.547038
0.593346
0.643044
0.696202
0.75279
0.812613
0.875207
0.939683
1.00451
1.06719
1.12393
1.16923
1.19576
1.19461
1.15631
1.07197
0.934879
0.732798
0.440405
-0.0165489
-0.793877
-2.20096
-4.67166
-8.458
-13.4195
-19.9573
-19.8808
-15.1136
-11.9518
0.000382821
0.00119328
0.00212141
0.00309134
0.00415246
0.0052837
0.00650502
0.00781583
0.00922866
0.0107505
0.0123932
0.0141677
0.0160871
0.0181654
0.020418
0.0228617
0.025515
0.0283977
0.0315316
0.0349404
0.0386498
0.0426876
0.0470842
0.0518725
0.057088
0.0627695
0.0689586
0.0757008
0.0830449
0.0910439
0.099755
0.10924
0.119565
0.130803
0.14303
0.156329
0.17079
0.186509
0.203588
0.222138
0.242277
0.264131
0.287834
0.313531
0.341373
0.371522
0.404149
0.439433
0.477559
0.518717
0.563093
0.610865
0.662182
0.717143
0.775754
0.837864
0.90306
0.970511
1.03873
1.10525
1.16622
1.21597
1.24683
1.2494
1.21374
1.13098
0.995364
0.796954
0.512848
0.0679585
-0.706359
-2.16925
-4.82336
-8.96892
-14.9849
-22.4041
-22.1628
-16.2703
-12.757
0.00039351
0.00123092
0.00218516
0.00318401
0.00427517
0.00543866
0.00669413
0.00804152
0.00949344
0.0110573
0.0127452
0.0145683
0.0165404
0.0186756
0.02099
0.0235007
0.0262267
0.0291885
0.0324085
0.0359109
0.0397222
0.0438711
0.0483886
0.0533087
0.0586679
0.0645059
0.0708657
0.0777938
0.0853406
0.0935605
0.102512
0.112259
0.12287
0.134418
0.146984
0.160651
0.175513
0.191668
0.209222
0.228288
0.248987
0.271449
0.295814
0.32223
0.350853
0.381851
0.415402