/*--------------------------------*- C++ -*----------------------------------*\
| =========                 |                                                 |
| \\      /  F ield         | OpenFOAM: The Open Source CFD Toolbox           |
|  \\    /   O peration     | Version:  4.1                                   |
|   \\  /    A nd           | Web:      www.OpenFOAM.org                      |
|    \\/     M anipulation  |                                                 |
\*---------------------------------------------------------------------------*/
FoamFile
{
    version     2.0;
    format      ascii;
    class       volVectorField;
    location    "2";
    object      U;
}
// * * * * * * * * * * * * * * * * * * * * * * * * * * * * * * * * * * * * * //

dimensions      [0 1 -1 0 0 0 0];

internalField   nonuniform List<vector> 
6785
(
(1.32605e-14 -1.40146 16.2656)
(1.09145e-14 -7.25757 12.6556)
(-2.62552e-15 -4.96855 13.2146)
(3.7258e-15 -4.65007 12.8674)
(7.20761e-16 -3.99891 12.6884)
(-4.70946e-16 -3.55861 12.4312)
(2.16785e-15 -3.18577 12.1498)
(4.48032e-16 -2.91039 11.8227)
(3.97004e-17 -2.72157 11.4394)
(1.28732e-15 -2.60164 11.0062)
(1.89101e-16 -2.50793 10.5818)
(-1.68931e-16 -2.57658 10.1421)
(4.27181e-16 -3.05734 9.49715)
(-7.98289e-18 -2.70118 8.8698)
(6.27276e-17 0.502603 7.30352)
(1.8147e-14 -8.63077 26.2577)
(1.41334e-14 -16.4924 22.1905)
(-2.82125e-15 -11.2469 22.646)
(4.97337e-15 -11.9078 20.9639)
(4.56168e-16 -10.5674 20.0117)
(-6.29595e-17 -9.88928 18.8411)
(1.52623e-15 -9.05548 17.7236)
(1.78507e-16 -8.32408 16.6237)
(-2.83911e-16 -7.6941 15.6574)
(-5.85547e-16 -7.25411 14.8726)
(-1.45953e-15 -6.92049 14.1391)
(-1.88667e-15 -6.5239 13.1377)
(-1.25506e-15 -5.97334 11.353)
(-1.03583e-16 -4.51195 7.69563)
(2.73645e-16 -0.789046 0.950825)
(1.87013e-14 -11.4069 27.5924)
(1.1089e-14 -16.9926 24.3931)
(-1.37007e-15 -11.6525 24.552)
(4.78788e-15 -12.6061 22.2172)
(-4.59536e-17 -10.698 21.1508)
(8.56896e-16 -10.001 19.5861)
(1.35691e-15 -8.94691 18.2588)
(-1.7919e-16 -8.05932 16.8914)
(4.66798e-16 -7.02539 15.3183)
(1.40881e-15 -5.73314 13.1222)
(2.86141e-15 -4.37071 10.4176)
(4.7139e-15 -3.6628 8.24561)
(3.56431e-15 -3.85862 7.23558)
(5.83142e-16 -3.8112 5.78735)
(2.84343e-16 -2.39346 2.72662)
(1.87869e-14 -12.707 27.8944)
(8.70848e-15 -17.0401 24.9098)
(-1.29161e-15 -12.2187 24.9986)
(4.20058e-15 -13.5392 22.3459)
(-1.58492e-16 -11.2966 21.4167)
(7.38505e-16 -10.9288 19.6598)
(1.20394e-15 -9.79389 18.4202)
(-1.16275e-16 -9.04872 17.0577)
(1.31589e-16 -7.93088 15.3822)
(2.75818e-15 -6.09102 12.363)
(7.92796e-15 -3.17621 7.44668)
(1.54112e-14 -0.261732 2.21372)
(1.95183e-14 0.960732 -0.0776619)
(8.8368e-15 0.427008 0.467431)
(-2.78546e-15 -0.568305 1.79879)
(1.91245e-14 -13.1675 27.7832)
(1.05994e-14 -17.7565 26.2979)
(-8.71671e-16 -12.9354 25.7063)
(4.51827e-15 -14.453 22.9413)
(1.70818e-15 -12.0738 22.1127)
(1.6278e-15 -11.9833 20.2266)
(2.05419e-15 -10.84 19.0058)
(2.41977e-15 -10.2439 17.6264)
(1.29459e-15 -9.37476 16.1856)
(2.59977e-15 -8.04978 13.9018)
(8.17137e-15 -5.64695 10.0644)
(1.44177e-14 -2.26879 4.75998)
(2.419e-14 1.39244 -0.0132558)
(1.85153e-14 3.09905 -2.84072)
(9.25127e-16 1.46264 -3.27094)
(1.77359e-14 -12.8034 26.0193)
(1.28894e-14 -18.0569 27.2107)
(-9.20474e-16 -13.388 25.6022)
(4.04802e-15 -14.4584 22.7062)
(2.52474e-15 -12.3387 21.7593)
(5.11109e-16 -12.1674 19.8292)
(1.87227e-15 -11.1107 18.4641)
(2.95329e-15 -10.4767 16.9699)
(8.20213e-16 -9.7527 15.5373)
(1.12044e-15 -8.88574 13.8453)
(3.53921e-15 -7.58412 11.525)
(4.48121e-15 -5.59596 8.37264)
(9.20506e-15 -3.08513 4.62502)
(6.85573e-15 0.0147229 0.803874)
(-3.18845e-15 1.21478 -4.28111)
(1.53197e-14 -12.0091 23.6222)
(1.39818e-14 -17.8104 27.3857)
(-4.4615e-16 -13.4458 25.1241)
(3.39457e-15 -13.9555 22.0105)
(2.74543e-15 -12.0072 20.9644)
(-4.58269e-16 -11.7151 19.0189)
(1.40341e-15 -10.6328 17.5773)
(2.70703e-15 -9.90428 15.9962)
(4.49484e-16 -9.12518 14.5088)
(1.77315e-16 -8.32327 12.993)
(1.37402e-15 -7.42072 11.269)
(1.62529e-15 -6.14102 9.17101)
(3.00025e-15 -4.54138 6.41806)
(3.94836e-15 -2.00613 2.91179)
(4.90772e-15 0.303369 -2.56264)
(1.34432e-14 -11.2562 21.7433)
(1.42441e-14 -17.452 27.3899)
(1.32389e-16 -13.4542 24.8966)
(2.85819e-15 -13.5214 21.5954)
(2.95149e-15 -11.6291 20.5)
(-6.79778e-16 -11.2966 18.5656)
(6.44838e-16 -10.148 17.1414)
(2.54464e-15 -9.38293 15.5289)
(1.08586e-15 -8.52481 14.0323)
(3.44912e-16 -7.69295 12.5616)
(1.60017e-15 -6.87253 11.0346)
(2.30733e-15 -5.85174 9.36194)
(2.5591e-15 -4.64571 7.18643)
(3.83323e-15 -2.67633 4.2226)
(8.52101e-15 -0.0462636 -1.23706)
(1.22837e-14 -10.7352 20.5499)
(1.4431e-14 -17.1065 27.3122)
(9.31832e-16 -13.596 24.9184)
(2.31981e-15 -13.2911 21.5078)
(3.40079e-15 -11.4683 20.3035)
(2.38155e-16 -11.0963 18.4213)
(6.65736e-16 -9.95655 17.0305)
(2.98052e-15 -9.19005 15.4364)
(2.83424e-15 -8.30243 13.953)
(2.21189e-15 -7.44627 12.49)
(3.53418e-15 -6.62213 11.0097)
(4.8942e-15 -5.67257 9.48436)
(4.77663e-15 -4.62864 7.57964)
(5.82046e-15 -2.9202 5.00628)
(8.09894e-15 -0.00618973 -0.986711)
(1.45528e-14 -10.4527 19.8234)
(1.60814e-14 -16.6181 26.8965)
(2.85169e-15 -13.7641 24.8548)
(2.19931e-15 -13.1551 21.4808)
(4.31163e-15 -11.4699 20.0567)
(2.93485e-15 -10.9974 18.2644)
(2.43517e-15 -9.9816 16.8917)
(4.19403e-15 -9.23094 15.3877)
(5.27231e-15 -8.3976 13.9638)
(4.7713e-15 -7.56577 12.5581)
(5.37008e-15 -6.75517 11.1303)
(7.21805e-15 -5.82839 9.68193)
(7.18238e-15 -4.86999 7.92514)
(8.39408e-15 -3.33037 5.75354)
(9.10638e-15 -0.619483 0.0338297)
(2.00784e-14 -10.4164 19.5154)
(2.066e-14 -15.8899 26.0086)
(6.02142e-15 -13.7328 24.4287)
(2.58919e-15 -12.9799 21.2814)
(5.23507e-15 -11.4616 19.6392)
(5.29725e-15 -10.8761 17.9357)
(4.47501e-15 -10.0137 16.5924)
(5.25135e-15 -9.3093 15.233)
(5.33586e-15 -8.58295 13.9425)
(4.2536e-15 -7.83937 12.688)
(4.00273e-15 -7.10543 11.413)
(4.79548e-15 -6.24768 10.1123)
(5.63318e-15 -5.3691 8.53203)
(6.58606e-15 -3.99011 6.72199)
(6.75531e-15 -1.41311 1.36256)
(2.39913e-14 -10.5487 19.4665)
(2.66857e-14 -14.9816 24.7082)
(7.40563e-15 -13.3068 23.4616)
(1.77724e-15 -12.5742 20.6318)
(4.44686e-15 -11.2193 18.9644)
(4.26446e-15 -10.6156 17.3809)
(3.43785e-15 -9.87987 16.1286)
(3.98883e-15 -9.25853 14.9374)
(1.81174e-15 -8.6509 13.8295)
(-1.54399e-15 -8.02786 12.7807)
(-2.7675e-15 -7.41225 11.7275)
(-3.07255e-15 -6.67645 10.648)
(-1.00049e-15 -5.90916 9.31216)
(7.59509e-16 -4.70655 7.82003)
(3.17134e-15 -2.20612 2.8359)
(1.68673e-14 -10.7343 19.5919)
(3.08843e-14 -14.3733 23.7406)
(9.69683e-15 -12.8221 22.5292)
(2.43294e-15 -12.2937 20.0134)
(3.53616e-15 -11.0795 18.3719)
(2.88455e-16 -10.4555 16.8805)
(-2.41235e-15 -9.79449 15.7239)
(2.22805e-16 -9.24227 14.7277)
(-4.67407e-15 -8.74491 13.8428)
(-1.11593e-14 -8.24577 13.0365)
(-1.23755e-14 -7.75965 12.2426)
(-1.36897e-14 -7.18056 11.4263)
(-1.17017e-14 -6.56046 10.4103)
(-7.3896e-15 -5.6187 9.2672)
(-2.27547e-15 -3.22672 4.90576)
(-2.45869e-15 -10.4677 18.5144)
(1.78037e-14 -14.231 23.1326)
(-6.13556e-15 -11.1759 20.086)
(-1.39158e-14 -10.9095 17.9017)
(-1.17919e-14 -9.92412 17.2781)
(-1.22237e-14 -9.79822 16.2032)
(-1.01859e-14 -9.26109 15.4056)
(-7.77983e-15 -8.94094 14.5591)
(-1.55441e-14 -8.56225 13.8208)
(-2.25095e-14 -8.19081 13.1403)
(-2.34883e-14 -7.82184 12.4883)
(-2.48692e-14 -7.36616 11.846)
(-2.24193e-14 -6.87534 11.0374)
(-1.63947e-14 -6.11229 10.1557)
(-9.35529e-15 -3.83592 6.19595)
(-2.1361e-14 -8.86877 15.8595)
(-7.10779e-15 -16.7392 25.798)
(1.21321e-14 -15.8687 24.065)
(1.5965e-14 -13.6615 19.9586)
(5.67307e-15 -11.6451 17.2571)
(-9.99789e-15 -10.8086 15.3864)
(-1.64056e-14 -10.1502 14.3195)
(-1.29927e-14 -9.77627 13.7018)
(-1.99999e-14 -9.49455 13.3757)
(-2.91363e-14 -9.24198 13.1855)
(-3.24777e-14 -8.96423 13.0458)
(-3.79317e-14 -8.65392 12.8425)
(-3.53087e-14 -8.23741 12.6275)
(-3.47273e-14 -7.8755 12.3108)
(-2.07803e-14 -5.32587 8.98578)
(5.30546e-17 -3.48444 -12.8547)
(2.48624e-15 2.98025 1.85118)
(2.81346e-15 0.953549 1.65792)
(2.84256e-15 0.189721 0.269139)
(2.66156e-15 0.269714 -0.0449924)
(3.22707e-15 0.080919 0.04389)
(1.39501e-15 -0.0165305 0.0403358)
(8.98721e-16 0.0784104 -0.127528)
(9.16651e-16 0.0804222 -0.271691)
(2.59888e-15 0.189581 -0.461832)
(7.31975e-16 0.158791 -0.29005)
(-1.00309e-15 0.168806 -0.28719)
(-8.53236e-16 0.394498 -0.455695)
(-1.10387e-15 0.271686 -0.407814)
(-2.2177e-15 0.331071 -0.390381)
(-3.59639e-15 0.322096 -0.263845)
(-5.03846e-15 0.490652 -0.275126)
(-3.88933e-15 0.38915 -0.371684)
(-3.8398e-15 0.400381 -0.391398)
(-4.38995e-15 0.619107 -0.4709)
(-2.78959e-15 0.462521 -0.467421)
(-2.4444e-15 0.531942 -0.515112)
(-2.10102e-15 0.52963 -0.404935)
(-1.89186e-15 0.740302 -0.345243)
(-6.73268e-16 0.567493 -0.323796)
(-8.88763e-17 0.633732 -0.421154)
(4.39976e-16 0.626575 -0.398255)
(1.40359e-15 0.853668 -0.361999)
(1.41757e-15 0.679224 -0.284846)
(1.37699e-15 0.701026 -0.303498)
(1.88516e-15 0.964727 -0.360692)
(1.07287e-15 0.735338 -0.336046)
(7.19664e-16 0.820706 -0.408445)
(2.62737e-16 0.802841 -0.381161)
(9.01917e-17 1.03814 -0.372684)
(-8.71221e-17 0.839614 -0.37317)
(1.12426e-17 0.876506 -0.430793)
(5.14709e-16 1.16711 -0.51853)
(7.11819e-16 0.883963 -0.53377)
(9.615e-16 0.992417 -0.703981)
(1.09733e-15 0.999103 -0.723728)
(1.64888e-15 1.27293 -0.781011)
(1.20223e-15 0.998968 -0.584626)
(1.10582e-15 1.11901 -0.662629)
(9.369e-16 1.1108 -0.660153)
(1.10827e-15 1.40563 -0.724234)
(7.06862e-16 1.12613 -0.560852)
(5.97521e-16 1.19622 -0.574373)
(8.02432e-16 1.46472 -0.705151)
(6.56069e-16 1.14375 -0.614146)
(8.18071e-16 1.28889 -0.686347)
(1.0982e-15 1.2899 -0.678653)
(2.1739e-15 1.51396 -0.704168)
(2.05115e-15 1.18392 -0.643924)
(2.16092e-15 1.28794 -0.773607)
(1.97141e-15 1.42836 -0.825893)
(2.10354e-15 1.49552 -0.978469)
(6.47816e-16 1.22747 -0.662277)
(-1.34947e-16 1.17585 -0.60474)
(-1.09035e-15 1.61345 -0.721723)
(-8.68212e-16 1.1227 -0.56646)
(-9.62028e-16 1.11908 -0.323106)
(-1.05417e-15 1.1451 -0.113656)
(-1.31176e-15 1.12338 -0.131613)
(-1.86686e-16 0.732757 -0.242935)
(-3.50154e-16 0.719335 0.0131476)
(3.37456e-15 0.956475 -0.556688)
(4.2887e-15 0.1436 -0.374966)
(3.17744e-15 0.175436 0.367501)
(2.60957e-15 0.192045 0.879527)
(-1.0353e-14 0.131397 2.9507)
(-1.85368e-14 -0.840818 4.59521)
(-1.89426e-14 -1.03357 4.65292)
(-1.8827e-14 -1.22963 4.88562)
(-2.53653e-14 -2.22545 8.11936)
(-1.81174e-14 -2.89823 7.56925)
(-1.55079e-14 -3.10355 8.01527)
(-1.68665e-14 -4.70949 11.8511)
(-1.12204e-14 -5.05425 9.66636)
(-1.21392e-14 -5.37118 10.4782)
(-1.6816e-14 -6.09919 12.9417)
(-1.64727e-14 -5.85774 12.4779)
(-1.73982e-14 -5.986 12.7019)
(-1.71775e-14 -6.26372 13.59)
(-1.9111e-14 -6.18513 13.2606)
(-2.20662e-14 -6.21801 13.8064)
(-2.1971e-14 -6.21357 13.9176)
(-2.18084e-14 -6.20952 13.9123)
(-2.0972e-14 -6.23487 13.8981)
(-1.94879e-14 -6.23972 13.8663)
(-1.78064e-14 -6.22233 13.8776)
(-1.63036e-14 -6.25521 13.9423)
(-8.53636e-15 -6.10944 14.4954)
(-9.92973e-15 -6.4582 14.4293)
(-8.42342e-15 -6.40819 14.6311)
(-8.92965e-15 -6.43324 14.7062)
(-1.03929e-14 -6.45633 14.7472)
(-1.14462e-14 -6.471 14.7346)
(-1.36146e-14 -6.48591 14.7039)
(-1.53719e-14 -6.46421 14.69)
(-1.62213e-14 -6.51388 14.7043)
(-1.14231e-14 -6.4348 15.2925)
(-1.4383e-14 -6.75795 14.983)
(-1.40231e-14 -6.73557 15.07)
(-1.28634e-14 -6.77314 15.0963)
(-1.14981e-14 -6.77944 15.1042)
(-9.87458e-15 -6.80141 15.1005)
(-8.2066e-15 -6.83111 15.1011)
(-6.68365e-15 -6.83863 15.107)
(-4.96718e-15 -6.8177 15.133)
(-3.64187e-15 -6.89296 15.1844)
(6.53061e-16 -6.82326 15.8369)
(-3.92332e-15 -7.16234 15.3343)
(-6.06093e-15 -7.16465 15.3342)
(-8.60772e-15 -7.19533 15.2668)
(-1.07399e-14 -7.20951 15.2101)
(-1.24821e-14 -7.23409 15.1702)
(-1.31267e-14 -7.24897 15.1925)
(-1.421e-14 -7.22311 15.2541)
(-1.45799e-14 -7.30904 15.336)
(-1.68585e-14 -7.19824 15.9028)
(-1.37172e-14 -7.53588 15.2537)
(-1.00338e-14 -7.54511 15.2211)
(-6.50508e-15 -7.5686 15.1784)
(-3.18836e-15 -7.56464 15.1363)
(-7.79365e-16 -7.58725 15.1598)
(3.96268e-16 -7.59627 15.2645)
(4.92622e-16 -7.56535 15.4613)
(1.52172e-16 -7.68841 15.8013)
(-8.94124e-15 -7.21616 15.9182)
(-1.0317e-14 -7.67581 15.4315)
(-1.19514e-14 -7.64612 15.5354)
(-1.24594e-14 -7.63318 15.688)
(-1.2228e-14 -7.64029 16.0933)
(-1.48406e-14 -7.61945 16.3919)
(-1.8279e-14 -7.60345 16.7576)
(-2.18991e-14 -7.62624 17.2454)
(-2.5403e-14 -7.70766 17.7416)
(-3.90358e-14 -6.65235 17.9744)
(-3.01607e-14 -7.16839 18.1928)
(-3.28271e-14 -7.00024 18.8137)
(-3.53696e-14 -7.01824 19.3519)
(-4.07918e-14 -6.99272 19.9387)
(-4.83083e-14 -6.89752 20.5353)
(-5.75223e-14 -7.03919 21.4098)
(-6.42304e-14 -6.82797 21.0104)
(-6.63974e-14 -6.87802 20.6275)
(-6.34866e-14 -6.78524 19.7485)
(-4.98688e-14 -3.97516 14.5773)
(-2.37944e-14 -5.43164 14.6301)
(-3.32899e-15 -5.13592 12.2831)
(9.8468e-15 -5.19555 10.2107)
(1.5668e-14 -4.9377 8.14911)
(1.46627e-14 -4.83621 6.40101)
(8.41558e-15 -4.64819 4.68357)
(1.84415e-15 -4.27568 3.55535)
(-9.28739e-16 -4.26941 3.83597)
(-6.68774e-16 -3.04949 0.805556)
(-5.51005e-15 -3.67614 2.603)
(-4.91246e-15 -3.56984 1.37483)
(3.91855e-15 -2.16294 -2.13267)
(3.76377e-16 -4.56582 -0.22482)
(8.55279e-16 -3.64825 -0.520879)
(1.08961e-15 -3.40042 -0.322179)
(1.36175e-15 -4.51676 -0.538467)
(8.74755e-16 -3.10843 -0.348166)
(1.35599e-15 -4.24309 -0.522066)
(1.03972e-15 -3.93909 -0.381438)
(6.74065e-16 -3.20757 -0.258057)
(9.57716e-16 -4.05595 -0.362446)
(6.92177e-16 -3.73035 -0.282795)
(4.80019e-16 -3.22372 -0.22504)
(5.40803e-16 -4.31911 -0.348182)
(3.49044e-16 -2.92829 -0.2301)
(5.30772e-16 -3.93096 -0.340602)
(3.95586e-16 -3.428 -0.326883)
(3.50843e-16 -2.98609 -0.277036)
(4.27951e-16 -3.95547 -0.434695)
(2.57991e-16 -2.64487 -0.314782)
(4.44433e-16 -3.57287 -0.46042)
(4.02319e-16 -3.15917 -0.421275)
(3.97372e-16 -2.53963 -0.338162)
(6.37674e-16 -3.16372 -0.535795)
(4.87766e-16 -2.79796 -0.538373)
(1.25914e-16 -2.35447 -0.449925)
(7.03655e-17 -3.10169 -0.635004)
(1.61893e-17 -2.01953 -0.454687)
(1.84469e-16 -2.68366 -0.674366)
(1.23089e-16 -2.2305 -0.639939)
(2.10968e-16 -1.86691 -0.545674)
(4.08647e-16 -2.43713 -0.764243)
(3.52937e-16 -1.51949 -0.547575)
(4.29766e-16 -2.05171 -0.764491)
(2.92435e-16 -1.70118 -0.728291)
(1.6579e-16 -1.25591 -0.656291)
(3.08924e-16 -1.55717 -0.937389)
(1.50536e-16 -1.24198 -0.812711)
(-1.20822e-16 -0.93059 -0.645977)
(-1.57703e-16 -1.28964 -0.792165)
(-1.74693e-16 -0.567561 -0.62562)
(-4.73049e-16 -0.967267 -1.00593)
(-9.45811e-16 -0.565723 -1.05537)
(-3.52621e-16 -0.184687 -0.828064)
(3.18726e-16 -0.857473 -1.09285)
(-5.83001e-19 0.329069 -0.795964)
(-2.39655e-16 -0.0799961 -0.991752)
(-1.65985e-16 0.071179 -1.31043)
(-2.96628e-16 0.474161 -0.850069)
(-5.68243e-16 0.455165 -1.03036)
(-9.33103e-16 0.710215 -1.25909)
(-7.41422e-16 0.860793 -0.768412)
(-1.18434e-15 1.09132 -1.06133)
(-8.75427e-16 1.12308 -0.685777)
(-7.56636e-16 1.25536 -0.825243)
(-3.85574e-16 1.57938 -0.944224)
(-1.30447e-16 1.42637 -0.545598)
(-1.32176e-16 1.9378 -0.757091)
(-1.08459e-16 1.68999 -0.453549)
(-2.35812e-16 1.91878 -0.553485)
(-6.36526e-16 2.19413 -0.610791)
(-6.42494e-16 1.95311 -0.328268)
(-8.06306e-16 2.26341 -0.41182)
(-9.58143e-16 2.56439 -0.452544)
(-5.32453e-16 2.05789 -0.255214)
(-4.65754e-16 2.83323 -0.362125)
(-1.82616e-16 2.27567 -0.210159)
(-5.69597e-17 2.51968 -0.255955)
(-7.11804e-17 2.80199 -0.233215)
(-1.29629e-16 2.19919 -0.139699)
(-3.86036e-16 3.04927 -0.169472)
(-4.02648e-16 2.38666 -0.089345)
(-5.64703e-16 2.70398 -0.102836)
(-7.01361e-16 2.95654 -0.0611938)
(-4.46861e-16 2.50417 0.00879229)
(-4.89085e-16 2.9555 -0.039575)
(-2.74335e-16 3.34524 -0.0834049)
(1.43128e-18 2.64091 -0.0205658)
(2.92509e-16 3.708 -0.151145)
(3.85055e-16 2.93014 -0.0767811)
(5.9217e-16 3.46968 -0.235637)
(-1.96088e-74 0.0179473 0.0175903)
(-8.0545e-74 0.0260501 0.0168424)
(-2.94794e-73 0.0319243 0.0168373)
(-1.09123e-72 0.0373674 0.016671)
(-4.04257e-72 0.0427781 0.0167106)
(-1.49224e-71 0.0479735 0.0167593)
(-5.47524e-71 0.0531495 0.0169144)
(-1.99519e-70 0.0582721 0.0171224)
(-7.21836e-70 0.0634131 0.017411)
(-2.59274e-69 0.068581 0.0177648)
(-9.24605e-69 0.0738122 0.0181917)
(-3.27359e-68 0.0791245 0.0186872)
(-1.15057e-67 0.0845431 0.0192533)
(-4.01366e-67 0.0900874 0.019889)
(-1.38948e-66 0.0957785 0.020595)
(-4.77493e-66 0.101636 0.0213714)
(-1.63072e-65 0.107679 0.022219)
(-5.54657e-65 0.113926 0.0231386)
(-1.88224e-64 0.120397 0.0241313)
(-6.34811e-64 0.127111 0.0251985)
(-2.08367e-63 0.134086 0.0263422)
(-6.27412e-63 0.141342 0.0275641)
(-1.48077e-62 0.148899 0.0288668)
(-1.16943e-62 0.156776 0.0302529)
(1.0375e-61 0.164993 0.0317252)
(2.79137e-61 0.173572 0.0332871)
(-5.39918e-60 0.182534 0.0349422)
(-7.69936e-59 0.191899 0.0366943)
(-5.73852e-58 0.201692 0.0385477)
(-2.59702e-57 0.211936 0.040507)
(-2.43804e-57 0.222654 0.0425772)
(7.94614e-56 0.233872 0.0447634)
(8.58332e-55 0.245617 0.0470712)
(5.06086e-54 0.257914 0.0495068)
(1.4339e-53 0.270793 0.0520764)
(-6.35975e-53 0.284282 0.0547869)
(-1.17268e-51 0.298412 0.0576452)
(-8.55169e-51 0.313216 0.060659)
(-3.24908e-50 0.328726 0.063836)
(5.86993e-50 0.344977 0.0671844)
(1.94017e-48 0.362004 0.0707128)
(1.40725e-47 0.379845 0.0744299)
(2.69003e-47 0.398539 0.0783444)
(-4.03155e-46 0.418125 0.0824651)
(-3.52197e-45 0.438644 0.0868006)
(-1.46088e-45 0.460137 0.0913589)
(1.43163e-43 0.482644 0.0961469)
(6.76643e-43 0.506206 0.10117)
(-3.41024e-42 0.530861 0.106431)
(-4.42829e-41 0.556641 0.111929)
(-9.74635e-41 0.583572 0.117659)
(6.06456e-40 0.611671 0.123606)
(4.10773e-39 0.640935 0.129747)
(4.46947e-38 0.671341 0.136043)
(6.06566e-37 0.702833 0.142437)
(2.04289e-36 0.735308 0.148846)
(-3.43789e-35 0.768605 0.155149)
(-4.02861e-34 0.802478 0.161182)
(-8.85007e-34 0.83658 0.166721)
(1.38681e-32 0.870421 0.171465)
(1.25414e-31 0.903339 0.175017)
(2.13346e-31 0.93445 0.176864)
(-3.24894e-30 0.962588 0.176349)
(-2.54188e-29 0.986224 0.172651)
(-4.08516e-29 1.00339 0.164744)
(4.8722e-28 1.0114 0.151449)
(3.47751e-27 1.00703 0.131259)
(5.72634e-27 0.985088 0.102894)
(-4.3885e-26 0.940579 0.064326)
(-3.01759e-25 0.862093 0.0156496)
(-6.78015e-25 0.742164 -0.0448766)
(2.39333e-24 0.549001 -0.109426)
(4.18752e-24 0.239337 -0.191023)
(2.12429e-22 -0.327385 -0.215903)
(-8.61394e-22 -0.617436 -0.292354)
(9.03593e-21 -1.06761 -0.109719)
(-1.27286e-19 -1.2544 -0.398488)
(5.03053e-18 -2.03984 0.0497063)
(-4.3261e-17 -2.04415 -1.46722)
(-5.95489e-74 0.0181048 0.0208856)
(-2.47987e-73 0.026194 0.019866)
(-9.16633e-73 0.0319671 0.0198313)
(-3.41958e-72 0.0373963 0.0196089)
(-1.27472e-71 0.0427704 0.0196475)
(-4.72814e-71 0.0479447 0.0196996)
(-1.74138e-70 0.0530939 0.0198809)
(-6.36448e-70 0.0581939 0.020125)
(-2.30803e-69 0.0633108 0.0204644)
(-8.3059e-69 0.0684559 0.0208801)
(-2.96661e-68 0.0736639 0.0213811)
(-1.0517e-67 0.0789534 0.0219617)
(-3.7005e-67 0.0843491 0.0226244)
(-1.29211e-66 0.0898707 0.0233676)
(-4.47671e-66 0.095539 0.0241922)
(-1.53941e-65 0.101373 0.0250981)
(-5.25981e-65 0.107393 0.0260863)
(-1.7896e-64 0.113617 0.0271576)
(-6.0756e-64 0.120064 0.0283132)
(-2.05165e-63 0.126754 0.0295549)
(-6.75838e-63 0.133704 0.0308844)
(-2.05275e-62 0.140935 0.0323042)
(-4.95078e-62 0.148465 0.0338167)
(-4.47549e-62 0.156314 0.035425)
(3.31228e-61 0.164504 0.0371323)
(1.14361e-60 0.173053 0.0389423)
(-1.48699e-59 0.181984 0.040859)
(-2.3304e-58 0.191318 0.0428868)
(-1.80336e-57 0.201077 0.0450303)
(-8.52917e-57 0.211286 0.0472946)
(-1.12929e-56 0.221968 0.0496853)
(2.28714e-55 0.233148 0.052208)
(2.63491e-54 0.244853 0.0548691)
(1.61119e-53 0.257108 0.0576752)
(4.94754e-53 0.269943 0.0606332)
(-1.64786e-52 0.283386 0.0637506)
(-3.50702e-51 0.297468 0.0670351)
(-2.64605e-50 0.31222 0.0704948)
(-1.05991e-49 0.327677 0.0741385)
(1.14219e-49 0.343871 0.0779747)
(5.52909e-48 0.36084 0.0820127)
(4.2854e-47 0.37862 0.0862617)
(1.07797e-46 0.397249 0.090731)
(-1.00479e-45 0.416768 0.0954296)
(-1.06264e-44 0.437218 0.100366)
(-1.59403e-44 0.458639 0.105549)
(3.71866e-43 0.481072 0.110983)
(2.32207e-42 0.50456 0.116674)
(-6.86816e-42 0.529139 0.122623)
(-1.39581e-40 0.554845 0.128824)
(-4.54249e-40 0.581706 0.135268)
(2.28342e-39 0.60974 0.141935)
(2.55815e-38 0.638951 0.14879)
(1.44454e-37 0.669319 0.155783)
(9.14662e-37 0.700796 0.162838)
(5.01547e-37 0.733289 0.169846)
(-8.3439e-35 0.76665 0.176657)
(-7.93595e-34 0.800652 0.183063)
(-1.04808e-33 0.834966 0.188787)
(3.28786e-32 0.869134 0.193459)
(2.52022e-31 0.902525 0.1966)
(2.14394e-31 0.934299 0.197592)
(-7.542e-30 0.963339 0.195654)
(-4.7578e-29 0.988173 0.189823)
(-3.51647e-29 1.0069 0.178892)
(1.03957e-27 1.01689 0.161513)
(5.85997e-27 1.01496 0.135904)
(5.88685e-27 0.996005 0.100685)
(-8.21648e-26 0.954814 0.0534221)
(-4.68394e-25 0.879945 -0.00539452)
(-9.04751e-25 0.762822 -0.0778026)
(4.06311e-24 0.572253 -0.154837)
(-4.81019e-24 0.265881 -0.250978)
(2.49601e-22 -0.357403 -0.281584)
(-8.24903e-22 -0.668451 -0.340589)
(9.17205e-21 -1.10143 -0.137759)
(-1.43963e-19 -1.3113 -0.429003)
(5.73413e-18 -1.97123 0.0367128)
(-5.38143e-17 -2.08806 -1.51565)
(-1.56107e-73 0.0181982 0.0226851)
(-6.64781e-73 0.0262748 0.0215561)
(-2.49594e-72 0.0319893 0.0215059)
(-9.42719e-72 0.0374085 0.0212542)
(-3.54808e-71 0.0427615 0.0212935)
(-1.32576e-70 0.047923 0.0213492)
(-4.91053e-70 0.0530567 0.0215464)
(-1.80261e-69 0.0581433 0.0218124)
(-6.55958e-69 0.063246 0.0221817)
(-2.36707e-68 0.0683775 0.0226334)
(-8.47315e-68 0.0735717 0.0231772)
(-3.0093e-67 0.0788477 0.0238067)
(-1.06045e-66 0.0842298 0.0245245)
(-3.70747e-66 0.0897378 0.025329)
(-1.28584e-65 0.0953924 0.0262209)
(-4.42522e-65 0.101213 0.0272002)
(-1.51288e-64 0.107219 0.0282678)
(-5.15002e-64 0.113429 0.0294246)
(-1.74997e-63 0.119862 0.030672)
(-5.92315e-63 0.126536 0.0320116)
(-1.96176e-62 0.133472 0.0334455)
(-6.02386e-62 0.140687 0.0349761)
(-1.48449e-61 0.148201 0.0366062)
(-1.45763e-61 0.156035 0.0383389)
(1.01228e-60 0.164207 0.0401775)
(4.53618e-60 0.172739 0.0421261)
(-3.28318e-59 0.181651 0.0441889)
(-6.21941e-58 0.190966 0.0463703)
(-5.10678e-57 0.200706 0.0486754)
(-2.56617e-56 0.210894 0.0511096)
(-4.66994e-56 0.221555 0.0536786)
(5.63123e-55 0.232712 0.0563885)
(7.20743e-54 0.244393 0.0592458)
(4.6384e-53 0.256623 0.0622575)
(1.56968e-52 0.269432 0.0654309)
(-3.32506e-52 0.282848 0.0687738)
(-9.25798e-51 0.296902 0.0722943)
(-7.33988e-50 0.311624 0.0760009)
(-3.12998e-49 0.32705 0.0799024)
(9.87027e-50 0.343212 0.0840081)
(1.38124e-47 0.360146 0.0883273)
(1.15291e-46 0.37789 0.0928696)
(3.5972e-46 0.396483 0.0976444)
(-2.04064e-45 0.415964 0.102661)
(-2.7374e-44 0.436373 0.107928)
(-7.10114e-44 0.457753 0.113453)
(7.72144e-43 0.480146 0.119242)
(6.41004e-42 0.503592 0.125299)
(-8.16286e-42 0.52813 0.131622)
(-3.49264e-40 0.553797 0.138207)
(-1.51009e-39 0.580622 0.145039)
(5.70644e-39 0.608626 0.152095)
(8.88771e-38 0.637813 0.159335)
(4.17406e-37 0.668171 0.166701)
(6.81013e-37 0.699654 0.174106)
(-1.02833e-35 0.732177 0.181428)
(-1.73256e-34 0.765601 0.188497)
(-1.16483e-33 0.799709 0.195083)
(2.42422e-34 0.834187 0.200878)
(6.17625e-32 0.868592 0.205474)
(3.9765e-31 0.902319 0.208347)
(6.60707e-33 0.934549 0.208823)
(-1.3657e-29 0.964197 0.206057)
(-7.35515e-29 0.989825 0.199008)
(-2.94501e-30 1.00956 0.186376)
(1.78764e-27 1.02083 0.166719)
(8.51729e-27 1.02045 0.138103)
(3.93457e-27 1.00335 0.0990875)
(-1.30934e-25 0.964177 0.0469873)
(-6.42864e-25 0.891408 -0.0175388)
(-1.02079e-24 0.775699 -0.09677)
(6.25487e-24 0.585947 -0.181816)
(-2.12965e-23 0.279456 -0.281989)
(4.01398e-22 -0.3337 -0.345668)
(-1.05223e-21 -0.668516 -0.416734)
(1.12195e-20 -1.07998 -0.188671)
(-1.96417e-19 -1.31187 -0.464298)
(7.19463e-18 -1.83834 0.0234389)
(-6.33423e-17 -2.04384 -1.32597)
(-4.02285e-73 0.0183461 0.0247097)
(-1.76253e-72 0.0263994 0.0234885)
(-6.74546e-72 0.0320308 0.0234286)
(-2.58543e-71 0.0374321 0.0231518)
(-9.83946e-71 0.0427538 0.0231952)
(-3.70744e-70 0.0478956 0.0232586)
(-1.38193e-69 0.0530066 0.0234767)
(-5.09767e-69 0.0580734 0.0237701)
(-1.86203e-68 0.0631557 0.0241759)
(-6.73935e-68 0.0682676 0.0246712)
(-2.41822e-67 0.0734421 0.0252662)
(-8.60539e-67 0.0786987 0.0259541)
(-3.03742e-66 0.0840615 0.0267375)
(-1.06338e-65 0.0895502 0.0276146)
(-3.69223e-65 0.0951855 0.0285861)
(-1.2718e-64 0.100987 0.0296522)
(-4.35069e-64 0.106973 0.0308136)
(-1.48171e-63 0.113163 0.0320714)
(-5.03866e-63 0.119575 0.033427)
(-1.70908e-62 0.12623 0.0348823)
(-5.69113e-62 0.133144 0.0364393)
(-1.76782e-61 0.140338 0.0381006)
(-4.46412e-61 0.14783 0.0398693)
(-4.86086e-61 0.15564 0.0417485)
(2.98248e-60 0.163788 0.0437421)
(1.63338e-59 0.172295 0.0458541)
(-6.48669e-59 0.181182 0.0480891)
(-1.62854e-57 0.19047 0.0504518)
(-1.42894e-56 0.200182 0.0529476)
(-7.62494e-56 0.210341 0.0555822)
(-1.73837e-55 0.220971 0.0583617)
(1.3301e-54 0.232097 0.0612925)
(1.94487e-53 0.243744 0.0643816)
(1.32147e-52 0.25594 0.0676363)
(4.88503e-52 0.268712 0.0710644)
(-5.4786e-52 0.28209 0.0746739)
(-2.40606e-50 0.296103 0.0784736)
(-2.01773e-49 0.310784 0.0824722)
(-9.13967e-49 0.326166 0.0866792)
(-3.14755e-49 0.342281 0.0911041)
(3.39456e-47 0.359168 0.0957566)
(3.05705e-46 0.376862 0.100647)
(1.12198e-45 0.395402 0.105784)
(-3.70205e-45 0.414829 0.111178)
(-6.77679e-44 0.435182 0.116838)
(-2.47904e-43 0.456505 0.122771)
(1.4094e-42 0.478839 0.128982)
(1.62375e-41 0.502226 0.135475)
(2.55237e-42 0.526707 0.142247)
(-7.93443e-40 0.552318 0.149291)
(-4.33804e-39 0.579091 0.15659)
(1.14423e-38 0.60705 0.164116)
(2.50082e-37 0.636204 0.171823)
(1.16741e-36 0.666543 0.179645)
(-6.21049e-37 0.698032 0.187483)
(-4.49058e-35 0.730593 0.195201)
(-3.71375e-34 0.764098 0.202607)
(-1.4471e-33 0.798347 0.209446)
(5.42048e-33 0.833045 0.215375)
(1.13258e-31 0.867773 0.219945)
(5.74252e-31 0.901955 0.222579)
(-6.75196e-31 0.934807 0.22254)
(-2.35753e-29 0.965284 0.218908)
(-1.08885e-28 0.991999 0.210553)
(7.10905e-29 1.01313 0.196064)
(2.95157e-27 1.02615 0.173891)
(1.23536e-26 1.02792 0.141921)
(2.63324e-28 1.0134 0.0986203)
(-2.04943e-25 0.97707 0.0410109)
(-9.06948e-25 0.90732 -0.0301359)
(-1.21705e-24 0.793919 -0.117403)
(9.52982e-24 0.60595 -0.211875)
(-4.44158e-23 0.300937 -0.319077)
(6.22266e-22 -0.31278 -0.397125)
(-1.82682e-21 -0.674854 -0.499127)
(1.86798e-20 -1.07228 -0.25994)
(-3.27233e-19 -1.32259 -0.508404)
(9.78072e-18 -1.75192 0.00262535)
(-5.83314e-17 -2.03699 -1.277)
(-1.01035e-72 0.0184879 0.0266098)
(-4.59688e-72 0.0265156 0.0253313)
(-1.80236e-71 0.0320708 0.0252662)
(-7.03248e-71 0.0374527 0.0249713)
(-2.7117e-70 0.042744 0.0250212)
(-1.03166e-69 0.0478659 0.0250948)
(-3.87326e-69 0.0529546 0.0253349)
(-1.43658e-68 0.0580018 0.0256569)
(-5.2695e-68 0.0630638 0.0260995)
(-1.91352e-67 0.0681564 0.0266385)
(-6.88424e-67 0.0733115 0.0272845)
(-2.45508e-66 0.078549 0.0280301)
(-8.68112e-66 0.0838926 0.0288781)
(-3.04375e-65 0.0893622 0.0298265)
(-1.05816e-64 0.0949783 0.0308762)
(-3.64838e-64 0.10076 0.032027)
(-1.24891e-63 0.106727 0.0332801)
(-4.2553e-63 0.112897 0.0346364)
(-1.44795e-62 0.11929 0.0360975)
(-4.9208e-62 0.125924 0.0376653)
(-1.64731e-61 0.132817 0.039342)
(-5.17895e-61 0.139989 0.0411305)
(-1.34319e-60 0.147459 0.0430338)
(-1.63951e-60 0.155247 0.0450555)
(8.45866e-60 0.163372 0.0471994)
(5.52879e-59 0.171854 0.04947)
(-9.96569e-59 0.180716 0.0518721)
(-4.15846e-57 0.189978 0.0544107)
(-3.93959e-56 0.199662 0.0570914)
(-2.23442e-55 0.209793 0.0599203)
(-6.07124e-55 0.220393 0.0629039)
(2.94675e-54 0.231487 0.0660488)
(5.15745e-53 0.243102 0.0693625)
(3.71759e-52 0.255263 0.0728527)
(1.49255e-51 0.268 0.0765274)
(-4.07518e-52 0.28134 0.0803953)
(-6.12338e-50 0.295314 0.0844653)
(-5.4817e-49 0.309954 0.0887468)
(-2.63698e-48 0.325292 0.0932495)
(-2.45743e-48 0.341364 0.0979834)
(8.16472e-47 0.358203 0.102959)
(7.98483e-46 0.375849 0.108185)
(3.33646e-45 0.394338 0.113674)
(-5.33971e-45 0.413712 0.119434)
(-1.60956e-43 0.434012 0.125474)
(-7.63197e-43 0.45528 0.131801)
(2.01545e-42 0.477558 0.138421)
(3.77481e-41 0.500889 0.145336)
(5.69433e-41 0.525315 0.152542)
(-1.62126e-39 0.550874 0.160031)
(-1.10774e-38 0.5776 0.167783)
(1.77219e-38 0.605519 0.175765)
(6.12498e-37 0.634646 0.183927)
(3.059e-36 0.664975 0.192194)
(-3.85654e-36 0.696478 0.200457)
(-1.35191e-34 0.729087 0.208563)
(-8.18313e-34 0.762686 0.216305)
(-1.30568e-33 0.797092 0.223401)
(2.05274e-32 0.832027 0.229476)
(2.07902e-31 0.867099 0.234043)
(7.25853e-31 0.901758 0.236475)
(-2.57041e-30 0.935257 0.235977)
(-3.94641e-29 0.966591 0.231556)
(-1.49019e-28 0.994419 0.222003)
(2.43519e-28 1.01696 0.205801)
(4.69678e-27 1.03178 0.181296)
(1.72702e-26 1.03571 0.146203)
(-7.51097e-27 1.02379 0.0988802)
(-3.12476e-25 0.990342 0.0360588)
(-1.27115e-24 0.923623 -0.0414726)
(-1.47165e-24 0.812547 -0.136652)
(1.40585e-23 0.626239 -0.240684)
(-8.01712e-23 0.322316 -0.355761)
(7.88335e-22 -0.292945 -0.454328)
(-1.7814e-21 -0.686852 -0.574946)
(1.77899e-20 -1.07942 -0.346063)
(-2.7655e-19 -1.35026 -0.562818)
(7.80479e-18 -1.69685 -0.0354947)
(-5.26803e-17 -2.04463 -1.01245)
(-2.44992e-72 0.0186432 0.0284697)
(-1.1745e-71 0.0266398 0.0271564)
(-4.75121e-71 0.032116 0.0270905)
(-1.89504e-70 0.037475 0.0267839)
(-7.4222e-70 0.0427331 0.0268429)
(-2.85557e-69 0.0478323 0.0269296)
(-1.08093e-68 0.0528963 0.0271939)
(-4.03378e-68 0.0579216 0.0275464)
(-1.48656e-67 0.0629614 0.0280277)
(-5.41787e-67 0.0680325 0.0286122)
(-1.95482e-66 0.0731662 0.0293107)
(-6.98773e-66 0.0783826 0.0301156)
(-2.47566e-65 0.0837051 0.0310298)
(-8.69427e-65 0.0891537 0.032051)
(-3.02666e-64 0.0947487 0.0331803)
(-1.04467e-63 0.100509 0.0344175)
(-3.57874e-63 0.106455 0.0357637)
(-1.21987e-62 0.112603 0.03722)
(-4.15285e-62 0.118974 0.038788)
(-1.41368e-61 0.125585 0.0404698)
(-4.75657e-61 0.132456 0.0422678)
(-1.51385e-60 0.139605 0.044185)
(-4.03867e-60 0.14705 0.0462245)
(-5.53969e-60 0.154813 0.0483903)
(2.29958e-59 0.162912 0.0506863)
(1.78575e-58 0.171368 0.0531173)
(-3.93329e-59 0.180201 0.0556883)
(-1.03019e-56 0.189434 0.0584046)
(-1.06873e-55 0.199088 0.0612723)
(-6.45376e-55 0.209187 0.0642976)
(-2.02484e-54 0.219754 0.0674873)
(5.88557e-54 0.230815 0.0708487)
(1.34116e-52 0.242393 0.0743893)
(1.03188e-51 0.254518 0.0781173)
(4.47975e-51 0.267215 0.0820413)
(2.06958e-51 0.280514 0.0861702)
(-1.52049e-49 0.294445 0.0905135)