/*--------------------------------*- C++ -*----------------------------------*\
| =========                 |                                                 |
| \\      /  F ield         | OpenFOAM: The Open Source CFD Toolbox           |
|  \\    /   O peration     | Version:  4.1                                   |
|   \\  /    A nd           | Web:      www.OpenFOAM.org                      |
|    \\/     M anipulation  |                                                 |
\*---------------------------------------------------------------------------*/
FoamFile
{
    version     2.0;
    format      ascii;
    class       volScalarField;
    location    "11";
    object      p;
}
// * * * * * * * * * * * * * * * * * * * * * * * * * * * * * * * * * * * * * //

dimensions      [0 2 -2 0 0 0 0];

internalField   nonuniform List<scalar> 
225
(
523.377
469.98
418.149
369.738
324.847
282.83
243.475
206.471
171.377
138.013
107.071
78.9322
49.9033
14.9845
-14.1677
56.9431
34.6821
28.9235
25.2132
19.7392
14.0317
8.87879
4.49003
1.00611
-1.45264
-2.64393
-2.14228
-0.0458405
1.82569
2.08586
-45.8392
-52.4823
-46.7153
-42.5684
-39.4778
-35.8825
-31.9962
-28.0588
-24.1544
-20.4386
-17.093
-14.0259
-10.9491
-8.2963
-7.06205
0.294464
-2.12357
2.46921
2.79338
2.84696
3.06216
2.97303
2.59574
2.01418
1.25501
0.298274
-0.811061
-1.72135
-1.87358
-1.56312
16.7223
14.3896
15.9433
13.8453
12.4265
11.183
9.77299
8.39114
7.13371
6.04266
5.14166
4.42913
3.95154
3.91882
4.16368
7.49426
5.47124
6.44522
5.2259
5.02288
5.00711
4.91933
4.95266
5.10825
5.35175
5.67104
6.03392
6.35358
6.61029
6.78503
4.02265
2.86722
3.95279
3.6297
4.01652
4.41066
4.70966
5.06033
5.4169
5.74168
6.03138
6.28529
6.46351
6.54454
6.56024
5.70037
5.14258
5.99694
5.76796
5.96651
6.07903
6.10295
6.14825
6.17284
6.168
6.14429
6.11647
6.08281
6.03695
5.98846
6.00793
5.68256
6.19341
5.91754
5.96035
5.92949
5.85436
5.80721
5.75153
5.69091
5.63161
5.57846
5.53171
5.48561
5.43439
4.68828
4.48058
4.82621
4.64974
4.72241
4.73129
4.71833
4.72649
4.72387
4.71708
4.70748
4.69275
4.67053
4.63525
4.5775
3.31748
3.20125
3.49882
3.44483
3.56442
3.61114
3.63982
3.67485
3.69154
3.69847
3.69652
3.68404
3.66001
3.62177
3.55622
2.34286
2.28265
2.53691
2.53826
2.65672
2.69821
2.7274
2.75455
2.76215
2.76008
2.74867
2.72776
2.6979
2.65913
2.59449
1.56432
1.52938
1.73185
1.74578
1.84509
1.87153
1.89389
1.91099
1.91129
1.9044
1.8898
1.86753
1.83795
1.80321
1.74535
0.880625
0.868578
1.02959
1.03431
1.11126
1.12477
1.14252
1.15453
1.15392
1.14893
1.13801
1.12097
1.09598
1.06483
1.01063
0.438845
0.39957
0.455396
0.423197
0.459236
0.440497
0.434128
0.420069
0.399175
0.376498
0.349897
0.32122
0.290798
0.260856
0.217844
)
;

boundaryField
{
    inletFace
    {
        type            zeroGradient;
    }
    inlet
    {
        type            zeroGradient;
    }
    inletWalls
    {
        type            zeroGradient;
    }
    outletInlet
    {
        type            fixedValue;
        value           uniform 0;
    }
}


// ************************************************************************* //
