/*--------------------------------*- C++ -*----------------------------------*\
| =========                 |                                                 |
| \\      /  F ield         | OpenFOAM: The Open Source CFD Toolbox           |
|  \\    /   O peration     | Version:  4.1                                   |
|   \\  /    A nd           | Web:      www.OpenFOAM.org                      |
|    \\/     M anipulation  |                                                 |
\*---------------------------------------------------------------------------*/
FoamFile
{
    version     2.0;
    format      ascii;
    class       volVectorField;
    location    "11";
    object      U;
}
// * * * * * * * * * * * * * * * * * * * * * * * * * * * * * * * * * * * * * //

dimensions      [0 1 -1 0 0 0 0];

internalField   nonuniform List<vector> 
225
(
(1.11368e-14 0.852191 15.7946)
(8.96461e-15 -4.89458 12.1215)
(-3.08133e-15 -4.19551 12.1321)
(2.9979e-15 -3.60119 11.9966)
(7.7793e-16 -3.00468 11.8778)
(-2.23526e-16 -2.55319 11.6992)
(1.94902e-15 -2.20881 11.4769)
(2.74784e-16 -1.96603 11.2116)
(-2.67446e-17 -1.79855 10.916)
(1.00702e-15 -1.71238 10.5882)
(9.5037e-17 -1.83746 10.1561)
(1.77407e-17 -2.28568 9.53762)
(6.33699e-16 -2.51301 8.96378)
(-1.36378e-16 -1.06552 8.91357)
(-1.36441e-19 1.76574 7.47092)
(1.52959e-14 -5.35016 22.493)
(1.5336e-14 -14.6049 21.394)
(-6.61892e-16 -13.2708 20.3411)
(1.88681e-15 -11.7697 19.5066)
(1.51445e-15 -11.1561 18.5043)
(-1.28374e-16 -10.6594 17.5174)
(2.0924e-15 -10.0901 16.5714)
(9.56296e-16 -9.525 15.6236)
(-3.61891e-17 -8.96544 14.6638)
(1.29947e-15 -8.36731 13.6946)
(5.00958e-16 -7.75709 12.7179)
(-1.32266e-16 -7.30335 11.7194)
(5.75954e-16 -7.01705 10.6244)
(7.60948e-17 -5.73093 9.16113)
(2.09207e-17 -2.30501 4.5832)
(1.78453e-14 -7.71565 23.9801)
(1.62129e-14 -16.7731 24.6729)
(2.47664e-16 -13.7365 23.9372)
(2.7937e-15 -12.3062 22.6249)
(1.37116e-15 -11.6447 21.2414)
(7.60729e-16 -10.814 20.0013)
(3.17131e-15 -9.94025 18.7738)
(7.9057e-16 -9.10011 17.5247)
(3.09885e-16 -8.28338 16.2654)
(1.05641e-15 -7.47524 15.0263)
(4.12922e-16 -6.66762 13.8176)
(3.55782e-16 -5.84165 12.4301)
(7.76851e-16 -4.8139 10.2753)
(-3.89425e-17 -3.12627 6.68444)
(-9.57448e-18 -0.832142 1.68992)
(1.78784e-14 -8.50259 22.0462)
(1.57392e-14 -16.621 24.332)
(7.98784e-16 -12.93 23.7971)
(3.34193e-15 -12.1536 21.9985)
(1.27845e-15 -11.4201 20.5028)
(1.75313e-15 -10.4936 19.1722)
(2.82473e-15 -9.63387 17.8167)
(4.72018e-16 -8.82359 16.459)
(5.15821e-16 -8.05363 15.123)
(6.24063e-16 -7.32377 13.8164)
(2.16728e-16 -6.55246 12.4394)
(5.85081e-16 -5.49087 10.583)
(6.80541e-16 -3.78526 7.50868)
(8.83784e-18 -1.49367 2.76605)
(-6.98699e-16 0.153275 -1.77299)
(1.64046e-14 -8.47615 19.748)
(1.57e-14 -16.3601 24.312)
(1.59103e-15 -13.099 23.6602)
(2.9149e-15 -12.628 21.5365)
(1.03407e-15 -11.8565 20.0248)
(1.23954e-15 -10.9574 18.6637)
(2.47761e-15 -10.1698 17.2587)
(4.35309e-16 -9.40277 15.8711)
(8.78896e-16 -8.65258 14.5236)
(9.84122e-16 -7.93051 13.2135)
(3.01383e-16 -7.16587 11.8292)
(3.77177e-16 -6.11614 9.99626)
(4.21998e-16 -4.42402 7.15554)
(-3.35258e-16 -2.30529 3.2879)
(-7.7418e-16 -0.787207 0.317751)
(1.48211e-14 -8.02193 17.5537)
(1.63159e-14 -16.0195 24.5277)
(3.40012e-15 -13.6434 24.0462)
(2.6001e-15 -12.9943 21.7651)
(1.17654e-15 -12.1264 20.2158)
(1.09226e-15 -11.2247 18.847)
(2.27391e-15 -10.439 17.4341)
(8.78749e-16 -9.64888 16.0434)
(1.10807e-15 -8.86035 14.6933)
(9.6548e-16 -8.09324 13.3817)
(5.57029e-16 -7.2973 12.0171)
(4.9205e-16 -6.28458 10.2818)
(3.85789e-16 -4.73301 7.7209)
(3.48053e-16 -2.75614 4.37247)
(1.34586e-15 -0.949414 1.2974)
(1.32329e-14 -7.33745 15.2535)
(1.67955e-14 -15.491 24.355)
(5.00738e-15 -14.0225 24.4218)
(2.51067e-15 -13.1278 22.0675)
(1.36002e-15 -12.1447 20.4401)
(1.48816e-15 -11.2358 19.0547)
(2.15263e-15 -10.4361 17.6437)
(1.22348e-15 -9.61983 16.2576)
(6.75248e-16 -8.81015 14.9066)
(1.05147e-15 -8.02722 13.5919)
(6.53528e-16 -7.22394 12.2368)
(9.49533e-16 -6.24026 10.5488)
(3.98505e-16 -4.78752 8.1075)
(1.34767e-16 -2.91412 4.94715)
(1.98805e-15 -1.01089 1.79744)
(1.12369e-14 -6.55628 13.033)
(1.6878e-14 -14.847 23.8164)
(6.45157e-15 -14.2638 24.669)
(2.56987e-15 -13.2372 22.3215)
(1.43932e-15 -12.1674 20.5832)
(1.42129e-15 -11.2657 19.1667)
(2.13257e-15 -10.4651 17.7586)
(1.36345e-15 -9.64314 16.3766)
(7.49034e-16 -8.83494 15.0246)
(7.82043e-16 -8.05529 13.7073)
(7.10811e-16 -7.255 12.3576)
(1.02833e-15 -6.28689 10.6995)
(5.66763e-16 -4.89101 8.33095)
(1.93127e-16 -3.08523 5.26766)
(9.08069e-16 -1.12222 2.04397)
(9.72758e-15 -5.7784 11.1239)
(1.66848e-14 -14.1745 23.0906)
(7.66984e-15 -14.4412 24.8462)
(2.87082e-15 -13.3963 22.6148)
(1.49886e-15 -12.2528 20.7553)
(1.22832e-15 -11.3493 19.2955)
(1.98482e-15 -10.5477 17.8904)
(1.46365e-15 -9.72543 16.5109)
(8.6889e-16 -8.91944 15.1561)
(5.95052e-16 -8.14023 13.8351)
(7.28207e-16 -7.33996 12.4864)
(1.96808e-16 -6.38016 10.8513)
(5.7863e-16 -5.02352 8.54671)
(2.04509e-16 -3.26579 5.55833)
(-3.28986e-16 -1.23756 2.2477)
(7.93514e-15 -5.08504 9.59944)
(1.62514e-14 -13.5192 22.3001)
(8.82623e-15 -14.5349 24.9522)
(3.19496e-15 -13.5531 22.9352)
(1.54598e-15 -12.3447 20.9698)
(1.07848e-15 -11.425 19.4566)
(2.07335e-15 -10.6174 18.0506)
(1.53618e-15 -9.79445 16.6721)
(5.53085e-16 -8.98827 15.3136)
(8.66089e-16 -8.20623 13.9874)
(7.36993e-16 -7.40475 12.6356)
(4.64928e-16 -6.4515 11.0133)
(3.31404e-16 -5.12527 8.75514)
(-1.33322e-17 -3.40659 5.8196)
(-1.24428e-15 -1.31911 2.43101)
(6.43411e-15 -4.53887 8.46255)
(1.5744e-14 -12.9256 21.5505)
(9.63393e-15 -14.5349 24.9757)
(3.60452e-15 -13.6653 23.2209)
(1.61261e-15 -12.4128 21.1811)
(1.12371e-15 -11.4735 19.6121)
(1.85513e-15 -10.659 18.2004)
(1.59337e-15 -9.83696 16.8209)
(2.45734e-16 -9.03206 15.4585)
(9.16954e-16 -8.24858 14.1269)
(8.32845e-16 -7.44649 12.7692)
(2.32567e-16 -6.49774 11.1498)
(2.35281e-16 -5.19263 8.91853)
(-4.48344e-17 -3.50193 6.01065)
(-1.57307e-15 -1.36384 2.54265)
(5.83886e-15 -4.17065 7.70303)
(1.52897e-14 -12.4379 20.9279)
(9.97843e-15 -14.4733 24.9365)
(3.96406e-15 -13.7315 23.4378)
(1.85052e-15 -12.4592 21.3593)
(1.11888e-15 -11.5039 19.7405)
(1.55179e-15 -10.6832 18.3206)
(1.67123e-15 -9.86356 16.9391)
(4.36788e-16 -9.06116 15.5729)
(7.074e-16 -8.27761 14.2364)
(8.21223e-16 -7.4749 12.8709)
(-4.88555e-16 -6.52682 11.2465)
(2.35247e-16 -5.23306 9.0265)
(-8.42265e-17 -3.55799 6.12615)
(-1.18291e-15 -1.37732 2.57267)
(5.33301e-15 -3.9734 7.27971)
(1.48174e-14 -12.0682 20.4612)
(1.02493e-14 -14.3843 24.8625)
(4.166e-15 -13.76 23.5828)
(1.97643e-15 -12.4876 21.497)
(9.82636e-16 -11.5229 19.8406)
(1.63362e-15 -10.6965 18.412)
(1.78648e-15 -9.87993 17.0279)
(4.63648e-16 -9.0805 15.6584)
(6.96876e-16 -8.29715 14.3169)
(8.11329e-16 -7.49308 12.9421)
(-3.54417e-16 -6.54205 11.306)
(2.05313e-16 -5.25084 9.08418)
(-4.64591e-16 -3.57875 6.17532)
(-1.0113e-15 -1.36517 2.53874)
(5.01967e-15 -3.9036 7.11019)
(1.44862e-14 -11.8311 20.1815)
(1.0318e-14 -14.2998 24.79)
(4.36743e-15 -13.7668 23.6686)
(1.95059e-15 -12.5018 21.5898)
(1.00795e-15 -11.532 19.9095)
(1.62021e-15 -10.7003 18.4746)
(1.7804e-15 -9.88546 17.0883)
(5.16436e-16 -9.08791 15.7173)
(7.22627e-16 -8.30406 14.373)
(7.73337e-16 -7.49781 12.9906)
(-1.94697e-16 -6.5431 11.3433)
(1.65162e-16 -5.25333 9.11716)
(-5.08532e-16 -3.58364 6.20156)
(-7.26675e-16 -1.35008 2.50629)
(5.10442e-15 -4.03945 7.28674)
(1.39947e-14 -11.627 19.9522)
(1.02913e-14 -14.1917 24.668)
(4.48883e-15 -13.7462 23.7081)
(1.98641e-15 -12.5064 21.6736)
(1.07419e-15 -11.5392 19.9772)
(1.61601e-15 -10.6994 18.5349)
(1.71913e-15 -9.8869 17.1437)
(6.02121e-16 -9.09047 15.7694)
(7.33953e-16 -8.30495 14.4183)
(7.04317e-16 -7.4899 13.0147)
(-1.07902e-16 -6.51529 11.3281)
(8.29566e-17 -5.20597 9.06119)
(-4.82009e-16 -3.50154 6.08269)
(-3.89679e-16 -1.25238 2.30713)
)
;

boundaryField
{
    inletFace
    {
        type            zeroGradient;
    }
    inlet
    {
        type            fixedValue;
        value           uniform (0 8.7 15);
    }
    inletWalls
    {
        type            noSlip;
    }
    outletInlet
    {
        type            zeroGradient;
    }
}


// ************************************************************************* //
