/*--------------------------------*- C++ -*----------------------------------*\
| =========                 |                                                 |
| \\      /  F ield         | OpenFOAM: The Open Source CFD Toolbox           |
|  \\    /   O peration     | Version:  4.1                                   |
|   \\  /    A nd           | Web:      www.OpenFOAM.org                      |
|    \\/     M anipulation  |                                                 |
\*---------------------------------------------------------------------------*/
FoamFile
{
    version     2.0;
    format      ascii;
    class       volScalarField;
    location    "15";
    object      p;
}
// * * * * * * * * * * * * * * * * * * * * * * * * * * * * * * * * * * * * * //

dimensions      [0 2 -2 0 0 0 0];

internalField   nonuniform List<scalar> 
6785
(
1270.05
1203.95
1153.26
1103.55
1057.58
1014.39
973.877
935.783
899.934
865.757
832.608
801.737
773.631
739.876
704.138
728.56
711.196
715.246
710.869
708.123
705.141
702.619
700.707
699.638
699.537
700.285
702.19
706.101
710.388
711.791
692.09
686.392
696.444
695.401
699.14
701.432
704.049
706.427
708.623
710.588
712.338
713.977
715.319
716.209
716.64
735.174
731.831
736.024
731.331
731.302
728.796
726.91
724.672
722.47
720.277
718.463
717.366
716.418
715.432
714.929
714.53
711.029
712.766
708.519
708.943
706.804
705.804
704.56
703.537
702.657
702.077
701.853
701.437
701.069
701.585
701.043
698.907
701.072
698.512
700.147
699.24
699.539
699.528
699.612
699.734
699.942
700.267
700.712
701.157
702.317
708.802
708.359
710.743
709.28
711.193
710.932
711.705
712.188
712.715
713.269
713.863
714.462
715.215
715.83
716.975
720.352
720.885
722.989
722.034
723.815
723.822
724.688
725.313
725.976
726.671
727.392
728.087
728.872
729.512
730.354
730.373
731.383
733.101
732.395
734.001
734.039
734.839
735.39
735.978
736.582
737.199
737.798
738.462
738.982
739.727
739.788
741.077
742.358
741.92
743.303
743.288
744.028
744.403
744.854
745.282
745.736
746.208
746.741
747.162
747.778
749.241
750.267
751.107
750.736
751.785
751.62
752.186
752.276
752.482
752.574
752.688
752.84
753.041
753.279
753.547
754.018
754.208
754.408
753.734
754.275
753.676
753.807
753.452
753.262
752.889
752.53
752.209
752.002
751.964
751.685
757.489
756.32
754.955
753.273
752.455
750.996
750.231
749.209
748.486
747.635
746.802
746.017
745.419
744.924
744.012
747.836
747.837
746.208
743.668
741.511
738.999
737.015
735.052
733.413
731.946
730.858
730.181
729.941
729.555
728.494
775.121
773.49
768.009
759.775
750.911
742.644
735.288
729.115
724.845
723.585
724.663
725.123
724.305
722.939
720.577
745.254
745.194
745.258
745.254
745.261
745.219
745.277
745.274
745.3
745.24
745.311
745.28
745.329
745.32
745.305
745.336
745.318
745.367
745.29
745.437
745.355
745.305
745.32
745.38
745.361
745.279
745.295
745.34
745.366
745.191
745.422
745.311
745.167
745.174
745.228
745.273
745.043
745.286
745.198
745.024
745.004
745.103
745.092
744.917
744.891
744.964
745.015
744.755
744.947
744.976
744.786
744.739
744.797
744.951
744.805
744.758
744.818
745.05
744.91
744.891
745.365
745.246
745.212
745.214
745.55
745.411
745.713
745.679
744.889
745.381
745.269
741.127
739.011
740.528
738.386
724.762
730.427
727.476
695.338
703.531
709.081
709.003
711.552
695.588
702.354
706.868
707.286
707.718
707.463
707.624
709.753
712.114
701.986
699.425
699.919
703.145
705.394
704.795
705.063
705.499
706.651
700.277
701.24
701.753
701.45
702.505
705.169
706.187
706.047
706.396
705.55
701.072
705.707
705.588
705.37
704.874
706.242
708.446
708.735
706.014
698.005
710.956
712.498
713.404
712.636
712.044
711.712
712.617
710.881
707.41
720.288
717.843
718.275
718.003
716.949
716.14
714.557
710.974
708.457
725.293
722.287
721.877
720.269
717.13
715.435
715.861
715.669
715.425
707.152
722.101
720.899
723.105
725.098
725.276
721.286
721.243
725.433
714.194
729.094
728.507
731.56
736.322
733.433
740.199
737.101
740.891
736.925
735.606
732.143
720.94
725.118
711.96
697.605
697.437
683.904
703.64
679.301
659.069
664.614
652.587
686.545
664.304
632.346
679.355
660.231
638.484
650.336
644.722
680.143
662.389
646.9
657.588
655.243
678.989
670.255
657.875
678.114
674.087
667.656
672.634
672.254
680.259
677.624
674.921
677.171
677.036
680.311
678.623
677.502
682.238
678.519
675.652
674.403
668.54
674.419
670.001
660.007
665.816
661.219
676.043
683.793
675.686
701.364
714.563
708.789
735.258
736.549
765.322
784.642
718.794
843.036
886.155
488.28
741.08
1004.97
80.8036
-42.6983
-698.082
-561.083
917.109
-0.000341167
-0.00362789
0.00118161
0.00334172
0.00527138
0.00744599
0.00972484
0.0123008
0.0152057
0.0184606
0.0221109
0.0254785
0.0281361
0.0308086
0.0341281
0.0380119
0.0420026
0.0506383
0.079984
0.132845
0.188169
0.217646
0.207473
0.170468
0.126212
0.0876939
0.0591061
0.0484353
0.0560404
0.0799563
0.126065
0.190215
0.26597
0.328655
0.365188
0.387324
0.407762
0.407771
0.392112
0.388101
0.407091
0.440674
0.483191
0.529458
0.583714
0.653101
0.751342
0.893186
1.08981
1.31767
1.50631
1.60967
1.67383
1.76945
1.91102
2.08692
2.31053
2.59856
2.91237
3.16616
3.41324
3.84449
4.31901
4.44931
4.14876
3.4962
2.7057
2.45834
3.39149
3.10405
2.72095
2.75916
3.81631
7.12506
14.4824
31.8806
69.7314
114.621
171.188
0.00210609
-0.00458011
0.00948625
0.0160754
0.0221877
0.0291994
0.0366618
0.0451393
0.0547447
0.0654434
0.0772889
0.0888404
0.0989344
0.109482
0.12262
0.141041
0.168519
0.207025
0.257229
0.302777
0.352848
0.41312
0.453157
0.469612
0.458396
0.427948
0.390971
0.352879
0.343718
0.364955
0.441627
0.549146
0.669251
0.769144
0.837683
0.883646
0.936695
0.969835
1.00497
1.06544
1.15714
1.27076
1.40131
1.54798
1.7246
1.94551
2.23209
2.59698
3.04091
3.52838
4.00741
4.47172
4.99626
5.64699
6.42471
7.31347
8.29436
9.2893
10.0974
10.4296
10.4615
11.0822
12.407
13.393
13.362
11.5903
7.46349
3.33334
4.49614
5.71303
6.57682
6.68887
6.46651
6.80375
6.88333
7.02658
6.47719
-14.2217
416.087
0.00277144
-0.00737044
0.0145941
0.0260171
0.0366141
0.0486716
0.0614239
0.075793
0.091998
0.109953
0.129761
0.149571
0.167502
0.186319
0.209402
0.240074
0.281971
0.338417
0.418929
0.513127
0.623961
0.740558
0.818313
0.848737
0.82305
0.759926
0.686159
0.613112
0.609718
0.658366
0.795217
0.986893
1.20591
1.39563
1.53436
1.63217
1.73405
1.80303
1.8768
1.99601
2.17184
2.38749
2.63513
2.91511
3.25427
3.68134
4.23137
4.91844
5.74411
6.6579
7.57617
8.4617
9.40247
10.4977
11.7591
13.161
14.6809
16.2315
17.5249
18.115
18.3706
19.7599
22.2928
24.106
23.9675
20.6431
13.212
5.61919
7.14672
9.76485
10.7792
11.2738
12.3394
14.275
16.462
20.7135
32.5529
33.8997
722.823
0.00440461
-0.00798186
0.0215153
0.0379181
0.0530548
0.0702608
0.088474
0.108926
0.131982
0.157456
0.185349
0.213486
0.239459
0.266804
0.300219
0.344719
0.405645
0.485162
0.59018
0.709265
0.854245
1.01406
1.13572
1.19918
1.17822
1.09823
0.997427
0.886789
0.879626
0.948089
1.13492
1.3923
1.6806
1.92953
2.11448
2.24617
2.386
2.49066
2.61468
2.79937
3.05588
3.36331
3.7147
4.11354
4.59623
5.19969
5.96799
6.9192
8.05124
9.29693
10.5651
11.8335
13.2175
14.8212
16.6449
18.6541
20.8162
23.0113
24.8519
25.7479
26.2274
28.1988
31.5885
34.0253
33.9146
29.4249
19.128
8.35904
9.81647
13.3033
14.9207
16.1325
18.6644
23.8441
32.6862
52.2657
103.958
172.455
836.419
0.00573012
-0.00824381
0.0280426
0.0495797
0.0694368
0.0919291
0.115756
0.142421
0.172444
0.205524
0.2415
0.277985
0.31224
0.348467
0.39254
0.450454
0.528383
0.629218
0.762581
0.918013
1.10629
1.31008
1.47226
1.5609
1.53613
1.43395
1.29958
1.14582
1.13506
1.23244
1.477
1.80733
2.17024
2.4802
2.71145
2.88058
3.0637
3.20786
3.38511
3.6372
3.97721
4.38006
4.83989
5.36317
5.99562
6.78258
7.77727
9.00286
10.4545
12.0506
13.6863
15.3403
17.1471
19.2227
21.5661
24.135
26.891
29.7004
32.1003
33.3819
34.2358
36.9137
41.1904
44.2622
44.1983
38.6259
25.7446
12.1349
13.3569
17.4403
19.4965
21.2732
24.9934
32.6324
46.7971
78.5211
159.411
267.13
771.168
0.00743784
-0.00741239
0.0353081
0.0621296
0.0868027
0.11464
0.144196
0.17721
0.214351
0.255208
0.299382
0.344334
0.387135
0.432557
0.487607
0.559556
0.655718
0.778843
0.938839
1.12644
1.35398
1.59895
1.80268
1.91965
1.89327
1.77165
1.60148
1.39997
1.38014
1.50925
1.81253
2.21214
2.64072
3.00114
3.26994
3.47111
3.69509
3.87913
4.11432
4.436
4.85855
5.35362
5.91763
6.56076
7.33657
8.29688
9.50296
10.9843
12.7314
14.6475
16.6204
18.6443
20.8782
23.441
26.322
29.4696
32.8399
36.2896
39.2895
41.0269
42.3367
45.7084
50.7572
54.3956
54.4442
48.0168
32.9145
16.7006
17.3553
21.6407
24.1774
26.8158
31.9459
42.2723
61.8408
104.359
206.624
346.416
754.507
0.00912576
-0.0059863
0.0427862
0.0750135
0.104652
0.137933
0.173336
0.212829
0.257212
0.305981
0.358451
0.411982
0.463573
0.518527
0.584881
0.670926
0.78497
0.930313
1.1181
1.34018
1.60827
1.89382
2.13831
2.28157
2.25113
2.11002
1.89908
1.64403
1.61049
1.7758
2.1426
2.61288
3.10437
3.51009
3.81217
4.04544
4.31269
4.53912
4.83617
5.22932
5.73508
6.32225
6.99018
7.753
8.67146
9.80339
11.2178
12.9501
14.9857
17.2147
19.5191
21.9082
24.5618
27.6012
31.0085
34.7221
38.6935
42.7802
46.4021
48.6595
50.5152
54.618
60.4307
64.6654
64.9181
57.8301
40.8385
22.2434
22.0754
26.3216
29.2522
32.7715
39.5791
53.3057
79.7622
135.092
258.895
424.278
682.33
0.0109739
-0.00388156
0.050709
0.0884871
0.123236
0.162047
0.203391
0.249466
0.301201
0.358022
0.418921
0.48119
0.541833
0.606633
0.684598
0.785083
0.917403
1.08523
1.30045
1.55649
1.86477
2.19031
2.47579
2.64505
2.60978
2.45013
2.19397
1.87883
1.82627
2.0297
2.46366
3.00418
3.55356
3.99794
4.3284
4.59258
4.90364
5.17444
5.53612
6.0018
6.59018
7.26754
8.03695
8.91676
9.97407
11.272
12.8869
14.8597
17.1703
19.696
22.3167
25.0625
28.1348
31.6539
35.591
39.8714
44.442
49.1709
53.4407
56.2804
58.7556
63.6062
70.1656
75.0189
75.5792
68.0659
49.5563
28.7913
27.4827
31.3953
34.6725
39.2441
47.9912
65.7123
100.209
169.301
311.623
495.185
640.078
0.012879
-0.00127824
0.0589218
0.102395
0.142421
0.186881
0.234271
0.287018
0.346195
0.411191
0.480657
0.55182
0.621755
0.696723
0.786611
0.901714
1.05233
1.24279
1.48586
1.77644
2.12541
2.4909
2.81742
3.0113
2.96996
2.79225
2.48554
2.10281
2.02634
2.26875
2.77385
3.38526
3.98889
4.46667
4.82221
5.11815
5.47485
5.79341
6.22168
6.76081
7.43151
8.19785
9.06715
10.0622
11.2559
12.7162
14.5266
16.7328
19.3086
22.1201
25.0481
28.1451
31.6322
35.6273
40.0901
44.9295
50.0874
55.4532
60.3891
63.8672
67.0293
72.6558
79.9831
85.5169
86.5165
78.8303
59.1909
36.4913
33.7644
37.1219
40.6439
46.4004
57.4508
79.8038
123.099
205.502
361.745
559.775
600.029
0.0149606
0.00183384
0.0674412
0.116775
0.162258
0.212496
0.266041
0.325535
0.392223
0.46549
0.543692
0.623912
0.703362
0.788799
0.890928
1.02092
1.19002
1.40328
1.67423
1.99944
2.38947
2.79521
3.16309
3.38043
3.33263
3.13728
2.77379
2.31539
2.21038
2.49131
3.07054
3.75305
4.40733
4.91368
5.29191
5.62095
6.02456
6.39416
6.89024
7.50317
8.25533
9.10886
10.0758
11.1836
12.5103
14.1287
16.1286
18.5598
21.3902
24.4752
27.7
31.1423
35.0419
39.5124
44.4997
49.8916
55.6236
61.6183
67.2355
71.4046
75.3141
81.7468
89.8766
96.1648
97.7523
90.1715
69.8256
45.4679
41.0523
43.635
47.3163
54.4646
68.2648
95.9755
148.662
243.523
409.484
616.209
579.531
0.0173195
0.00547318
0.0762086
0.131559
0.182698
0.238861
0.298688
0.365008
0.439262
0.520877
0.607977
0.697418
0.786594
0.882768
0.997461
1.14256
1.33025
1.56649
1.86555
2.22564
2.65726
3.10388
3.51341
3.75291
3.69916
3.4859
3.05836
2.51551
2.37797
2.69646
3.35183
4.1054
4.80744
5.3385
5.7384
6.10304
6.55502
6.97901
7.54393
8.23079
9.06347
10.0025
11.065
12.2833
13.7399
15.5123
17.6965
20.3453
23.4207
26.7686
30.2817
34.0639
38.3726
43.3159
48.8241
54.7579
61.0453
67.654
73.9622
78.8694
83.582
90.8596
99.8466
106.984
109.331
102.155
81.5565
55.8763
49.5631
51.1983
54.9423
63.7134
80.7609
114.518
176.865
282.9
453.329
655.838
618.614
0.0202045
0.00982028
0.0852563
0.146719
0.203733
0.265983
0.332232
0.405463
0.487334
0.577356
0.673486
0.772312
0.871443
0.978596
1.10614
1.26662
1.47303
1.73242
2.05975
2.45488
2.92861
3.41689
3.86841
4.12915
4.0712
3.83881
3.33909
2.70204
2.52884
2.88442
3.61657
4.44023
5.18738
5.74021
6.16202
6.56541
7.06684
7.54849
8.18271
8.94323
9.85509
10.8776
12.0335
13.3595
14.9427
16.865
19.2278
22.0867
25.3974
28.9981
32.7908
36.9077
41.6218
47.0359
53.0612
59.5249
66.3449
73.548
80.5519
86.2388
91.8071
99.9758
109.889
117.986
121.278
114.827
94.4613
67.8618
59.5053
60.0435
63.8085
74.469
95.2784
135.626
207.41
322.667
492.421
674.43
673.553
0.0239294
0.0151752
0.0946814
0.162223
0.225323
0.293841
0.366668
0.446909
0.536452
0.634928
0.740179
0.848543
0.957867
1.07625
1.21689
1.39302
1.61828
1.901
2.2568
2.68711
3.20349
3.73425
4.22822
4.50984
4.45017
4.19695
3.61597
2.87415
2.66318
3.05651
3.86508
4.75657
5.54613
6.11869
6.56392
7.00989
7.56168
8.10415
8.80764
9.64125
10.6308
11.7347
12.9815
14.4127
16.1193
18.1873
20.7234
23.7849
27.3219
31.1658
35.2302
39.6764
44.7918
50.6732
57.2105
64.1894
71.5152
79.2875
86.9856
93.4872
99.961
109.076
119.999
129.182
133.619
128.224
108.606
81.5629
71.1107
70.4328
74.2383
87.0725
112.127
159.385
239.864
361.844
527.625
678.059
695.898
0.028883
0.0219472
0.104704
0.178111
0.247439
0.322423
0.401999
0.489364
0.586638
0.6936
0.808022
0.926059
1.04582
1.17571
1.32966
1.52167
1.76592
2.07215
2.45666
2.92228
3.48174
4.0559
4.59304
4.89589
4.83718
4.56164
3.88968
3.03259
2.78259
3.21499
4.09898
5.05455
5.88325
6.47431
6.9456
7.43845
8.04145
8.64705
9.41928
10.3251
11.3905
12.5737
13.9089
15.4425
17.269
19.4784
22.1821
25.4389
29.1935
33.2715
37.5999
42.3696
47.8815
54.2265
61.2698
68.7474
76.549
84.8609
93.2453
100.589
108.016
118.141
130.173
140.578
146.367
142.368
124.031
97.0859
84.592
82.6187
86.5659
101.855
131.547
185.736
273.705
399.402
558.271
677.164
704.894
0.0353085
0.030546
0.115671
0.194518
0.270072
0.351709
0.43822
0.532834
0.637906
0.753379
0.876983
1.00481
1.13524
1.27692
1.44441
1.65251
1.91588
2.24579
2.65928
3.16034
3.76324
4.38184
4.96307
5.28814
5.2335
4.93446
4.16179
3.17977
2.89003
3.36291
4.32104
5.33543
6.19916
6.80812
7.30914
7.8533
8.50848
9.17836
10.0185
10.9954
12.1346
13.3947
14.8157
16.4489
18.3918
20.7383
23.6039
27.0487
31.0123
35.316
39.901
44.9881
50.8908
57.6946
65.2371
73.1952
81.4398
90.2576
99.3133
107.517
115.942
127.153
140.407
152.18
159.533
157.269
140.756
114.495
100.132
96.8472
101.109
119.102
153.676
214.466
308.304
434.566
584.351
677.602
704.28
0.0430796
0.041296
0.128037
0.211713
0.29329
0.381682
0.475323
0.577321
0.690266
0.814272
0.947043
1.08474
1.22607
1.37986
1.56112
1.78544
2.06808
2.42182
2.86457
3.40128
4.04788
4.712
5.33838
5.68729
5.64056
5.31714
4.43455
3.31922
2.98948
3.5043
4.53502
5.60135
6.49493
7.12178
7.65707
8.25624
8.96461
9.6991
10.6059
11.6524
12.8632
14.1977
15.7019
17.4317
19.4876
21.9665
24.9881
28.6137
32.7781
37.2993
42.1338
47.5316
53.8186
61.0757
69.1093
77.529
86.1823
95.4691
105.174
114.247
123.714
136.093
150.694
163.989
173.117
172.924
158.771
133.803
117.852
113.322
118.135
139.021
178.524
245.212
342.976
466.802
605.86
680.679
703.126
0.0518017
0.0542733
0.142263
0.230083
0.317268
0.412353
0.513289
0.622819
0.743722
0.876286
1.0182
1.16582
1.31825
1.48446
1.67974
1.92035
2.22239
2.60011
3.07242
3.64504
4.3356
5.04633
5.71898
6.09392
6.05981
5.71145
4.7109
3.45566
3.08637
3.64461
4.7452
5.85502
6.77215
7.41754
7.99231
8.64902
9.41143
10.2103
11.1824
12.2968
13.5767
14.9831
16.5678
18.3912
20.5562
23.163
26.3345
30.1335
34.4908
39.2216
44.2991
50.0002
56.6637
64.3674
72.8836
81.7454
90.7729
100.489
110.813
120.758
131.308
144.947
161.031
176.004
187.114
189.314
178.037
154.963
137.796
132.181
137.832
161.709
205.96
277.495
377.032
495.734
622.914
686.456
700.61
0.0610772
0.0691819
0.158659
0.250067
0.342283
0.443804
0.552101
0.669312
0.798269
0.939421
1.09044
1.24802
1.41173
1.5907
1.80026
2.05718
2.37873
2.7805
3.28268
3.89153
4.62631
5.38472
6.10476
6.50836
6.49252
6.11906
4.99449
3.59547
3.18828
3.79086
4.9561
6.09948
7.03293
7.6983
8.3187
9.0334
9.85058
10.7131
11.7487
12.9289
14.2754
15.7509
17.4133
19.3273
21.5976
24.3274
27.6427
31.6078
36.1502
41.0833
46.3972
52.3934
59.4247
67.5669
76.5563
85.8417
95.2095
105.313
116.222
127.032
138.705
153.702
171.407
188.218
201.512
206.411
198.49
177.866
159.921
153.472
160.276
187.137
235.711
310.745
409.821
521.158
635.897
697.013
696.784
0.0706031
0.0854914
0.177186
0.272029
0.368658
0.476197
0.591763
0.716775
0.853894
1.00367
1.16378
1.33132
1.50647
1.69853
1.92265
2.1959
2.53697
2.96285
3.49513
4.14062
4.91989
5.727
6.49557
6.93074
6.93958
6.54145
5.2898
3.74716
3.30513
3.95128
5.17227
6.33778
7.27982
7.96761
8.64009
9.41123
10.2835
11.2084
12.3054
13.5494
14.9596
16.5015
18.2388
20.2401
22.6119
25.4596
28.9124
33.0362
37.7562
42.8846
48.4282
54.7107
62.0995
70.6711
80.1238
89.8156
99.4916
109.938
121.391
133.056
145.893
162.345
181.813
200.621
216.293
224.176
220.038
202.347
184.095
177.139
185.425
215.143
267.382
344.351
440.799
542.917
644.238
716.691
695.029
0.0801652
0.102667
0.197477
0.296081
0.396708
0.509748
0.632328
0.765182
0.910578
1.06904
1.23821
1.4157
1.60242
1.80791
2.04689
2.33648
2.69697
3.14698
3.70953
4.39205
5.21612
6.0729
6.89109
7.36093
7.4014
6.97978
5.60213
3.92168
3.44908
4.13468
5.39809
6.57253
7.51589
8.22944
8.95889
9.78448
10.7114
11.6971
12.8533
14.1586
15.6296
17.2352
19.0445
21.1299
23.5991
26.5596
30.1433
34.4185
39.3088
44.6258
50.3919
56.9516
64.6859
73.6763
83.5819
93.6652
103.62
114.364
126.317
138.821
152.863
170.867
192.233
213.195
231.429
242.557
242.565
228.189
210.113
203.026
213.106
245.432
300.486
377.708
469.5
560.883
647.032
736.27
691.43
0.0896135
0.120278
0.219038
0.322028
0.426617
0.544671
0.673901
0.814526
0.9683
1.1355
1.31374
1.50116
1.69956
1.91884
2.17296
2.4789
2.85861
3.33268
3.92558
4.6455
5.51466
6.42194
7.29079
7.79857
7.87776
7.43476
5.93732
4.13201
3.63373
4.34971
5.63714
6.80562
7.74473
8.48852
9.2765
10.1551
11.1354
12.18
13.3931
14.757
16.2858
17.9522
19.8307
21.9968
24.5592
27.6273
31.3355
35.7546
40.8079
46.3067
52.288
59.1149
67.1815
76.5783
86.9259
97.3889
107.597
118.591
130.997
144.324
159.612
179.255
202.651
225.918
246.887
261.494
265.937
255.136
237.719
230.895
243.03
277.605
334.478
410.259
495.602
575.627
645.184
732.941
684.318
0.098857
0.138054
0.241393
0.349519
0.458369
0.581132
0.716628
0.86484
1.02704
1.20305
1.39036
1.5877
1.79789
2.03129
2.30086
2.62313
3.02176
3.51976
4.14295
4.90057
5.81503
6.77345
7.69387
8.24295
8.36761
7.90643
6.30118
4.39171
3.87235
4.60339
5.89156
7.03811
7.97039
8.74947
9.59411
10.5244
11.5565
12.6579
13.9254
15.345
16.9285
18.6529
20.5977
22.841
25.4924
28.6627
32.489
37.0446
42.2536
47.9274
54.116
61.1988
69.5834
79.3725
90.1509
100.985
111.425
122.622
135.431
149.565
166.136
187.498
213.043
238.759
262.625
280.914
290.008
282.911
266.633
260.449
274.808
311.185
368.801
441.525
518.82
587.203
642.652
717.39
678.918
0.107861
0.155882
0.264175
0.378145
0.491805
0.619232
0.760648
0.916196
1.08677
1.27166
1.46807
1.67533
1.8974
2.14528
2.43058
2.76915
3.18634
3.708
4.36128
5.15675
6.1166
7.12651
8.09922
8.6929
8.86897
8.3938
6.69847
4.71256
4.17485
4.899
6.16101
7.2709
8.19787
9.0152
9.91303
10.8936
11.9757
13.1315
14.4509
15.9231
17.5581
19.3377
21.3457
23.6627
26.3988
29.666
33.6037
38.2885
43.6458
49.4875
55.875
63.2017
71.8889
82.054
93.251
104.451
115.104
126.458
139.621
154.548
172.432
195.58
223.384
251.683
278.593
300.741
314.628
311.225
296.552
291.372
307.986
345.66
402.918
471.106
539.026
595.709
641.939
701.574
674.49
0.116638
0.173783
0.287188
0.40753
0.526676
0.658986
0.806068
0.968685
1.14751
1.34132
1.54686
1.76406
1.99812
2.26083
2.56211
2.91693
3.35225
3.89717
4.58017
5.41347
6.41862
7.47998
8.50538
9.14675
9.37886
8.89444
7.13173
5.10129
4.54449
5.23445
6.44294
7.50735
8.43234
9.28659
10.2344
11.2633
12.3938
13.6015
14.9701
16.4916
18.1749
20.0068
22.0753
24.4623
27.2787
30.6374
34.68
39.4864
44.9845
50.9869
57.5643
65.1222
74.0954
84.6171
96.2197
107.783
118.637
130.103
143.572
159.276
178.495
203.482
233.642
264.647
294.734
320.894
339.647
339.777
327.1
323.338
342.072
380.514
436.334
498.693
556.325
601.647
642.054
687.256
671.308
0.12524
0.191871
0.310403
0.437413
0.562698
0.700303
0.852969
1.0224
1.20929
1.412
1.62671
1.85389
2.10009
2.37799
2.69544
3.06642
3.51939
4.08701
4.79917
5.67009
6.72018
7.83255
8.91059
9.60219
9.89332
9.4043
7.59998
5.5566
4.97682
5.60293
6.7356
7.75062
8.67545
9.56365
10.5588
11.6345
12.8114
14.0685
15.4835
17.0508
18.7792
20.6608
22.7866
25.24
28.1321
31.577
35.718
40.6387
46.2699
52.425
59.183
66.9586
76.1995
87.0564
99.0495
110.974
122.02
133.558
147.289
163.755
184.32
211.186
243.787
277.606
310.988
341.289
364.922
368.303
357.825
355.981
376.579
415.26
468.618
524.071
570.922
605.621
641.631
674.07
668.429
0.13374
0.210298
0.333908
0.467681
0.599617
0.743017
0.901387
1.07742
1.27217
1.48369
1.7076
1.94484
2.20338
2.49682
2.83057
3.21757
3.68766
4.27724
5.01782
5.92588
7.02022
8.18267
9.31279
10.0564
10.4076
9.91775
8.09796
6.06865
5.46186
5.99392
7.03622
7.99986
8.92581
9.84647
10.8869
12.0078
13.229
14.5327
15.9913
17.601
19.3714
21.2998
23.48
25.9961
28.9595
32.4852
36.7181
41.7457
47.502
53.8017
60.7302
68.7094
78.1979
89.3661
101.732
114.016
125.248
136.823
150.775
167.987
189.899
218.672
253.785
290.505
327.282
361.836
390.319
396.636
388.347
388.878
411.056
449.457
499.423
547.129
583.053
608.158
640.152
662.24
664.722
0.142216
0.229221
0.357851
0.498335
0.637262
0.786937
0.951292
1.1338
1.33623
1.5564
1.78949
2.03691
2.30805
2.61741
2.96752
3.37031
3.85692
4.46757
5.23557
6.17998
7.31754
8.52861
9.70968
10.5062
10.9164
10.428
8.6165
6.62399
5.98101
6.39534
7.33919
8.25346
9.18227
10.1353
11.2191
12.3836
13.647
14.9946
16.494
18.1426
19.9518
21.9243
24.156
26.7309
29.7611
33.3622
37.6807
42.8075
48.6807
55.1165
62.2055
70.3733
80.0877
91.5412
104.258
116.894
128.311
139.898
154.033
171.976
195.225
225.919
263.597
303.289
343.546
382.432
415.7
424.696
418.486
421.632
445.112
482.726
528.487
567.858
593.023
609.711
637.079
651.645
660.011
0.150741
0.24878
0.38238
0.529444
0.675563
0.831898
1.0026
1.19157
1.40151
1.63014
1.87237
2.13012
2.41421
2.73987
3.10628
3.52456
4.02703
4.65768
5.45187
6.43146
7.61072
8.8684
10.0988
10.9481
11.4145
10.9282
9.14415
7.20591
6.51001
6.79695
7.64052
8.51101
9.44464
10.4301
11.5557
12.762
14.0657
15.4546
16.9918
18.6757
20.5207
22.5346
24.8147
27.4446
30.5371
34.2085
38.6063
43.8246
49.8062
56.3695
63.6082
71.9497
81.8662
93.5766
106.617
119.594
131.192
142.775
157.065
175.72
200.286
232.906
273.189
315.906
359.706
402.961
440.906
452.424
448.193
453.957
478.422
514.745
555.636
586.335
601.201
610.67
632.007
641.883
653.883
0.159374
0.269095
0.407621
0.561112
0.714529
0.877784
1.0552
1.25075
1.46806
1.70493
1.95621
2.22449
2.52197
2.86431
3.24686
3.68018
4.19782
4.84724
5.66609
6.67926
7.89818
9.19991
10.4773
11.3782
11.897
11.412
9.67002
7.79145
7.0315
7.19147
7.93898
8.7721
9.71299
10.7312
11.8966
13.1434
14.4854
15.9129
17.4848
19.2007
21.0784
23.1311
25.4566
28.1377
31.288
35.0244
39.4952
44.7976
50.8786
57.56
64.9374
73.4376
83.5317
95.467
108.799
122.093
133.869
145.442
159.864
179.213
205.072
239.612
282.524
328.311
375.69
423.287
465.741
479.725
477.425
485.658
510.725
545.263
580.769
602.703
607.98
611.323
625.206
632.375
647.025
0.168162
0.290273
0.433671
0.593443
0.754207
0.924539
1.10896
1.31131
1.53587
1.78078
2.04099
2.32002
2.63143
2.9909
3.38926
3.83707
4.36906
5.03586
5.87752
6.92221
8.17813
9.52084
10.8426
11.7932
12.3596
11.8748
10.1859
8.35906
7.53547
7.57435
8.23416
9.0361
9.98734
11.0385
12.2422
13.5281
14.9064
16.3697
17.9732
19.7178
21.6251
23.714
26.0818
28.8103
32.0141
35.8104
40.3482
45.727
51.898
58.6878
66.1935
74.8364
85.0834
97.2085
110.79
124.368
136.313
147.879
162.418
182.443
209.569
246.018
291.57
340.463
391.427
443.267
489.969
506.46
506.069
516.547
541.797
574.093
603.855
617.166
613.764
611.717
617.362
622.976
638.325
0.177133
0.312414
0.460604
0.626517
0.794669
0.972158
1.1638
1.37318
1.60496
1.85767
2.12666
2.41675
2.74275
3.11978
3.53347
3.99505
4.54051
5.22312
6.08538
7.15903
8.44866
9.82874
11.1918
12.1893
12.7988
12.3135
10.6844
8.89811
8.01531
7.94313
8.52564
9.30269
10.2677
11.352
12.5927
13.9165
15.329
16.8252
18.457
20.2271
22.1612
24.2837
26.6908
29.4629
32.7158
36.5669
41.1657
46.6135
52.8646
59.7538
67.3776
76.1463
86.5223
98.7987
112.58
126.392
138.488
150.058
164.707
185.389
213.758
252.103
300.296
352.324
406.858
462.768
513.344
532.467
533.978
546.41
571.448
601.105
624.92
629.971
618.93
611.881
610.061
614.193
628.458
0.186309
0.335615
0.488471
0.660385
0.835991
1.02067
1.21966
1.43629
1.67529
1.93556
2.21317
2.5147
2.85607
3.2511
3.67947
4.15393
4.71186
5.4085
6.28878
7.38828
8.70769
10.1211
11.5219
12.5635
13.2122
12.7269
11.1602
9.40622
8.4687
8.29711
8.81313
9.5718
10.5541
11.6716
12.9484
14.3088
15.7533
17.2793
18.9362
20.7287
22.6869
24.8405
27.2837
30.0957
33.3935
37.2947
41.9486
47.4577
53.7791
60.7589
68.4886
77.3703
87.8501
100.237
114.161
128.145
140.357
151.943
166.702
188.022
217.617
257.848
308.683
363.859
421.927
481.68
535.636
557.57
561.015
575.024
599.517
626.216
644.045
641.399
623.826
611.911
604.146
606.531
619.272
0.195703
0.359977
0.517309
0.695078
0.878233
1.07012
1.27651
1.50054
1.7468
2.01435
2.30043
2.61391
2.97157
3.385
3.82721
4.31349
4.88274
5.59143
6.4867
7.6084
8.95306
10.3954
11.8303
12.9128
13.5975
13.1148
11.6118
9.88342
8.89666
8.63674
9.09642
9.84353
10.8463
11.9976
13.3095
14.7052
16.1794
17.7319
19.4107
21.2229
23.2025
25.3845
27.8608
30.709
34.0476
37.9942
42.6977
48.2607
54.6422
61.7005
69.5232
78.5127
89.0687
101.527
115.531
129.609
141.889
153.494
168.365
190.305
221.113
263.234
316.713
375.04
436.585
499.911
556.68
581.56
587.054
602.203
625.88
649.387
661.352
651.739
628.726
612.107
600.06
600.497
612.212
0.205324
0.385606
0.547144
0.730605
0.921429
1.12052
1.33436
1.56586
1.8194
2.09393
2.38834
2.71437
3.08942
3.52158
3.97662
4.47345
5.05269
5.77121
6.67795
7.81766
9.18258
10.6493
12.1146
13.2347
13.9536
13.4777
12.0397
10.3322
9.30141
8.96291
9.37532
10.118
11.1441
12.3298
13.6762
15.1057
16.6071
18.183
19.8806
21.7096
23.7081
25.9162
28.4222
31.3031
34.6785
38.666
43.4137
49.0234
55.4529
62.5765
70.4876
79.573
90.1821
102.674
116.693
130.778
143.059
154.678
169.656
192.192
224.208
268.239
324.376
385.847
450.79
517.393
576.419
604.24
611.95
627.809
650.449
670.617
676.995
661.277
633.814
612.761
597.779
596.404
606.927
0.21518
0.412613
0.577991
0.766962
0.965586
1.17191
1.3932
1.63219
1.89295
2.17413
2.47677
2.81616
3.20981
3.66088
4.12756
4.63348
5.22116
5.94702
6.86121
8.01424
9.39415
10.8808
12.3726
13.5273
14.2793
13.8163
12.4454
10.7567
9.68541
9.27653
9.64972
10.3954
11.4475
12.6684
14.0484
15.5104
17.0363
18.6324
20.3458
22.1889
24.204
26.4356
28.9683
31.8784
35.2868
39.3108
44.0978
49.7471
56.2118
63.3938
71.3986
80.5453
91.201
103.688
117.655
131.659
143.863
155.473
170.546
193.643
226.86
272.838
331.665
396.269
464.5
534.069
594.86
625.519
635.556
651.754
673.173
689.942
691.152
670.272
639.215
613.991
596.802
594.123
603.944
0.225275
0.441113
0.609854
0.804128
1.0107
1.22428
1.45302
1.69947
1.96732
2.25475
2.5656
2.91939
3.33293
3.80286
4.27983
4.79316
5.38746
6.11785
7.03498
8.19634
9.5859
11.0884
12.6029
13.7889
14.574
14.1317
12.8297
11.1604
10.0509
9.57825
9.91963
10.676
11.7562
13.013
14.4262
15.9191
17.4668
19.0798
20.8061
22.6609
24.6904
26.9429
29.4991
32.435
35.8728
39.9294
44.7508
50.4331
56.9234
64.1637
72.2656
81.4356
92.1385
104.577
118.435
132.271
144.317
155.885
171.024
194.631
229.029
277.001
338.578
406.305
477.681
549.886
612.012
645.375
657.767
673.991
694.034
707.425
704.01
678.953
645.03
615.848
596.73
593.275
603.45
0.235613
0.471225
0.642719
0.842068
1.05674
1.2776
1.51378
1.7676
2.04231
2.33552
2.65472
3.02419
3.4589
3.94737
4.4331
4.95197
5.55072
6.2825
7.19775
8.36227
9.7564
11.271
12.8044
14.0185
14.8373
14.4247
13.194
11.5459
10.3993
9.86842
10.1853
10.9601
12.0699
13.3633
14.8092
16.3315
17.8982
19.5251
21.2615
23.1256
25.1673
27.4382
30.0147
32.9733
36.4371
40.5223
45.374
51.0831
57.5932
64.8929
73.0864
82.2697
92.9947
105.356
119.053
132.65
144.464
155.951
171.115
195.158
230.687
280.699
345.108
415.966
490.313
564.807
627.877
663.792
678.517
694.511
713.041
723.155
715.755
687.517
651.359
618.298
597.151
593.402
605.747
0.246195
0.503064
0.676553
0.880738
1.10365
1.3318
1.57543
1.83647
2.11771
2.41616
2.74401
3.13075
3.58774
4.09405
4.58683
5.10921
5.7099
6.43958
7.348
8.51067
9.90482
11.4286
12.9766
14.2156
15.0689
14.6952
13.5396
11.9146
10.7314
10.1472
10.4475
11.2476
12.3883
13.719
15.197
16.7474
18.3303
19.968
21.7118
23.5828
25.6349
27.9216
30.5155
33.4935
36.9801
41.0904
45.9683
51.6978
58.2263
65.5862
73.8606
83.0661
93.7577
106.043
119.538
132.842
144.371
155.745
170.886
195.269
231.834
283.907
351.245
425.267
502.392
578.811
642.462
680.733
697.763
713.326
730.231
737.244
726.566
696.136
658.316
621.367
598.051
594.05
608.587
0.257026
0.536737
0.711299
0.92007
1.15135
1.38678
1.63786
1.90593
2.19327
2.49635
2.83337
3.23921
3.71922
4.24228
4.74025
5.26401
5.86375
6.58763
7.48445
8.64076
10.0311
11.5615
13.1196
14.3801
15.2692
14.9434
13.8666
12.267
11.0472
10.4147
10.7071
11.5391
12.7113
14.0796
15.5894
17.1663
18.7624
20.4082
22.1569
24.0325
26.0932
28.3931
31.0014
33.996
37.5023
41.6344
46.5349
52.2785
58.8278
66.2477
74.5909
83.8213
94.4373
106.663
119.919
132.901
144.118
155.365
170.438
195.052
232.505
286.611
356.976
434.213
513.936
591.899
655.791
696.157
715.463
730.467
745.662
749.825
736.617
704.956
666.004
625.082
599.569
595.313
613.092
0.268107
0.572331
0.746863
0.959973
1.19973
1.44239
1.70091
1.97575
2.26865
2.57565
2.92274
3.34969
3.85285
4.39102
4.8923
5.41536
6.01097
6.72521
7.60624
8.75248
10.1361
11.6712
13.234
14.5126
15.4387
15.1689
14.1747
12.6024
11.346
10.6711
10.9653
11.8352
13.0387
14.4446
15.9856
17.5877
19.1943
20.8454
22.5967
24.4747
26.5423
28.8526
31.4725
34.481
38.0041
42.155
47.0749
52.8284
59.4017
66.8793
75.2804
84.5304
95.0676
107.22
120.224
132.881
143.791
154.921
169.896
194.624
232.772
288.814
362.281
442.795
524.976
604.096