/*--------------------------------*- C++ -*----------------------------------*\
| =========                 |                                                 |
| \\      /  F ield         | OpenFOAM: The Open Source CFD Toolbox           |
|  \\    /   O peration     | Version:  4.1                                   |
|   \\  /    A nd           | Web:      www.OpenFOAM.org                      |
|    \\/     M anipulation  |                                                 |
\*---------------------------------------------------------------------------*/
FoamFile
{
    version     2.0;
    format      ascii;
    class       surfaceScalarField;
    location    "15";
    object      phi;
}
// * * * * * * * * * * * * * * * * * * * * * * * * * * * * * * * * * * * * * //

dimensions      [0 3 -1 0 0 0 0];

internalField   nonuniform List<scalar> 
13220
(
-882.045
2181.93
-1361.32
1779.46
-1817.83
1756.39
-2161.28
1643.34
-2423.48
1562.39
-2605.28
1481.68
-2708.06
1402.67
-2731.13
1323.26
-2674.76
1243.53
-2541.22
1166.36
-2337.13
1096.1
-2056.56
1019.32
-1652.43
895.747
-1043.2
690.96
256.696
3.48334
2178.42
-30.4796
1813.4
-145.889
1871.78
-226.477
1723.91
-308.589
1644.48
-369.752
1542.82
-411.576
1444.47
-431.068
1342.73
-427.55
1239.99
-396.346
1135.14
-330.317
1030.06
-242.766
931.751
-176.525
829.478
-128.512
642.883
128.176
-152.703
2331.11
-371.172
2031.85
-573.693
2074.29
-715.955
1866.15
-850.736
1779.24
-952.901
1644.97
-1037.6
1529.16
-1105.8
1410.91
-1148.43
1282.61
-1122.18
1108.84
-950.561
858.418
-601.378
582.436
-216.819
444.713
-0.493828
426.039
127.684
-62.9805
2394.09
-192.052
2160.92
-291.094
2173.32
-362.104
1937.16
-439.593
1856.73
-498.448
1703.82
-555.285
1585.99
-607.277
1462.89
-656.022
1331.34
-680.956
1133.77
-627.071
804.505
-417.069
372.494
-92.6651
120.374
157.967
175.512
285.65
63.5448
2330.55
-18.6034
2243.08
-40.3074
2195.04
-54.3138
1951.18
-73.8608
1876.28
-87.4568
1717.43
-103.416
1601.96
-120.054
1479.55
-146.378
1357.68
-208.313
1195.72
-338.178
934.429
-517.794
552.03
-587.146
189.689
-411.122
-0.54937
-125.469
154.092
2176.48
104.94
2292.25
124.897
2175.1
153.084
1923.01
187.302
1842.1
222.781
1681.98
264.783
1559.99
310.868
1433.48
358.503
1310.07
381.159
1173.1
324.332
991.251
131.917
744.591
-114.418
436.312
-169.544
54.9379
-295.011
167.739
2008.77
159.859
2300.16
190.136
2144.85
229.746
1883.43
280.395
1791.48
327.503
1634.89
379.333
1508.18
435.422
1377.42
494.852
1250.66
545.815
1122.16
559.749
977.334
497.473
806.897
346.987
586.853
104.765
297.26
-190.246
126.306
1882.49
150.404
2276.08
181.747
2113.53
215.311
1849.89
259.265
1747.55
297.079
1597.1
334.056
1471.23
369.553
1341.94
403.078
1217.16
429.265
1095.99
437.596
969.014
411.37
833.145
332.411
665.837
181.449
448.294
-8.79213
72.5569
1809.95
128.303
2220.36
168.796
2073.06
207.801
1810.91
250.622
1704.75
288.564
1559.18
321.773
1438.04
346.736
1316.99
364.386
1199.52
374.9
1085.5
372.568
971.358
349.06
856.722
287.845
727.131
165.988
570.342
157.194
18.9464
1791.01
103.416
2135.89
158.818
2017.67
209.599
1760.14
257.295
1657.06
308.306
1508.18
352.873
1393.48
395.94
1273.94
433.222
1162.25
462.019
1056.69
469.898
963.494
441.632
884.927
359.504
809.205
216.861
712.899
374.056
-23.268
1814.28
34.5301
2078.09
100.479
1951.71
138.805
1721.8
174.868
1620.99
230.066
1452.97
303.507
1320.03
402.731
1174.7
500.495
1064.47
576.327
980.858
606.337
933.464
568.097
923.2
446.131
931.19
259.631
899.424
633.686
46.1389
1768.12
-36.4746
2160.69
-47.5006
1962.72
-58.4427
1732.73
-73.0701
1635.59
-70.4997
1450.38
-21.1215
1270.62
82.4509
1071.1
203.132
943.761
312.362
871.588
383.497
862.321
390.241
916.374
315.653
1005.72
176.419
1038.59
810.105
331.109
1437
287.994
2203.79
130.465
2120.23
5.05676
1858.12
-64.464
1705.1
-135.948
1521.85
-197.708
1332.37
-228.033
1101.41
-222.358
938.072
-189.524
838.742
-131.709
804.49
-59.2625
843.929
2.21728
944.231
18.3476
1022.45
828.452
685.883
751.103
1009.48
1880.19
917.289
2212.42
645.751
2129.65
391.976
1958.86
148.125
1765.69
-90.4469
1570.93
-339.689
1350.64
-565.815
1164.19
-738.52
1011.44
-819.205
885.173
-768.47
793.172
-578.877
754.623
-290.534
734.086
537.918
521.837
1555.59
2373.89
2890.19
3114.8
3160.34
3049.31
2787.6
2391.52
1917.39
1416.95
935.265
556.552
280.235
-0.000294858
91.5537
-91.5544
91.5534
91.553
91.5527
149.968
-58.4158
149.968
149.967
149.967
204.852
-54.885
204.851
204.851
257.703
-52.8525
257.703
257.702
257.702
312.681
-54.9791
312.68
312.68
366.086
-53.4067
366.086
366.086
366.085
416.395
-50.3105
416.395
416.395
416.394
462.934
-46.5403
462.934
462.934
502.89
-39.9566
502.89
502.889
502.889
534.987
-32.099
534.987
534.987
558.143
-23.1565
558.142
558.142
558.142
581.853
-23.7116
581.853
581.852
581.852
599.738
-17.8861
599.737
599.737
576.359
23.377
576.359
576.359
576.358
529.667
46.6912
529.666
529.666
529.666
462.144
67.5207
462.144
462.143
303.67
158.473
303.669
303.668
303.668
45.5919
258.076
45.5908
45.591
-849.221
894.811
-849.221
-849.222
-849.222
-2387.44
1538.22
-2387.44
-2387.44
-2387.44
-4481.5
2094.06
-4481.5
-4481.5
-7001.24
2519.73
-7001.24
-7001.24
-6853.02
-6705.54
-6548.83
-9180.46
2789.26
-9024.4
-8848.42
-8659.31
-8468.69
-8276.72
-8086.58
-7892.7
-7682.41
-10475.9
2999.34
-10257.5
-10039.6
-9822.88
-9586.09
-9347.26
-9107.48
-8867.12
-8624.16
-11411.5
3031.7
-11151.9
-10890.6
-10628.8
-10366.6
-10097.8
-9816.91
-9535.69
-9253.19
-8969.83
-11499.6
2798.38
-11206.8
-10913.1
-10620
-10328
-10037.1
-9733.31
-9422.5
-9112.17
-11108.6
2292.36
-10813.8
-10511.9
-10196.6
-9881.45
-9565.76
-9250.45
-8934.44
-8597.64
-10028.9
1757.3
-9710.44
-9393.63
-9078.45
-8750.69
-8419.36
-8091.61
-7766.31
-7445.53
-8098.67
971.924
-7789.5
-7485.77
-7185.58
-6889.35
-6598.69
-6323.67
-6054.3
-5791.15
-5535.42
-5204.46
-73.6596
-5011.48
-4845.6
-4685.64
-4531.09
-4378.04
-4261.74
-4225.85
-4181.32
-3484.56
-645.539
-3451.86
-3412.5
-3412.5
-2548.26
-864.247
-1434.14
-1114.12
-1434.14
-165.108
-1269.04
-165.11
1100.79
-1265.9
2468.35
-1367.56
2468.35
3707.82
-1239.47
4858.11
-1150.3
4858.11
5831.49
-973.373
5831.49
6631.9
-800.418
7250.45
-618.547
7250.45
7720.98
-470.529
7720.98
8061.65
-340.674
8197.99
-136.337
8197.99
8263.17
-65.1804
8109.47
153.697
8109.47
7875.29
234.177
7875.29
7570.98
304.314
7080.44
490.545
7080.44
6575.36
505.078
6575.36
6066.83
508.525
5452.48
614.354
5452.48
4905.23
547.249
4291.61
613.622
4291.61
3737.46
554.141
3737.46
3238.9
498.565
2743.95
494.948
2743.95
2346.01
397.935
2346.01
2061.41
284.599
1913.85
147.563
1913.85
2054.07
-140.217
2784.63
-730.562
2784.63
3486.8
-702.171
3486.8
3882.67
-395.87
4085.8
-203.131
4085.8
3997.9
87.8983
3997.9
3575.43
422.473
2955.78
619.648
2955.78
1952.25
1003.53
670.853
1281.4
670.852
-1363.81
2034.67
-1363.81
-4511.66
3147.85
-8720.43
4208.77
-8720.43
-13883.8
5163.38
-13883.8
-20250.3
6366.52
-27172.2
6921.87
-27172.2
-35486.9
8314.68
-43986.7
8499.78
-43986.7
-53599.8
9613.14
-53599.8
11104.6
278.87
-353.373
283.686
-347.852
288.891
-355.221
294.105
-371.013
299.34
-392.751
304.652
-420.721
310.101
-454.991
315.749
-496.157
321.648
-544.996
327.753
-601.966
333.823
-667.231
339.637
-739.238
345.293
-816.021
351.036
-897.866
357.192
-986.818
365.051
-1083.13
377.829
-1186.04
395.811
-1318.64
405.552
-1573.33
388.508
-2032.69
347.559
-2619.13
303.282
-3141.4
270.224
-3495.51
253.699
-3629.63
254.856
-3549.06
272.678
-3363.48
302.633
-3160.93
334.297
-2952.75
358.083
-2730.74
370.544
-2545.99
370.276
-2466.78
353.04
-2511.01
315.219
-2664.15
259.734
-2835.02
192.212
-2860.2
115.503
-2693.73
35.3094
-2538.02
-37.7689
-2522.35
-96.4976
-2516.47
-144.63
-2509.71
-189.442
-2544.24
-234.742
-2612.93
-281.966
-2714.38
-330.426
-2836.55
-380.017
-2978.28
-431.984
-3156.45
-489.507
-3398.38
-557.855
-3708.43
-644.229
-4051.94
-751.217
-4390.7
-866.837
-4759.54
-969.365
-5268.25
-1045.19
-5995.08
-1093.65
-6922.54
-1117.08
-7985.95
-1117.42
-9120.75
-1101.87
-10246.7
-1084.27
-11249.6
-1079.51
-11989.4
-1101.32
-12295.5
-1162.95
-12020.2
-1259.3
-11313.8
-1351.65
-10795.5
-1397.38
-11000.1
-1389.9
-11805.8
-1371.61
-12502
-1417.29
-11838.4
-1575.17
-8523.42
-1840.42
-3920.09
-2126.8
-1496.3
-2327.48
-361.083
-2523.79
1207.87
-2887.88
3157.72
-3509.96
5889.66
-4484.78
10222.3
-5965.34
17215.4
-8085.13
28354.8
-10540.6
44348.2
60843.2
295.067
-355.646
299.338
-352.123
303.947
-359.83
308.63
-375.696
313.403
-397.524
318.304
-425.623
323.401
-460.087
328.768
-501.524
334.451
-550.679
340.38
-607.895
346.28
-673.131
351.92
-744.878
357.42
-821.521
363.056
-903.502
369.19
-992.952
376.969
-1090.91
388.981
-1198.05
405.239
-1334.9
414.168
-1582.26
398.908
-2017.43
360.254
-2580.48
316.326
-3097.47
281.358
-3460.54
261.707
-3609.98
261.21
-3548.57
280.989
-3383.25
315.186
-3195.12
350.046
-2987.61
374.433
-2755.13
385.08
-2556.64
381.214
-2462.91
359.612
-2489.41
317.878
-2622.41
258.98
-2776.12
187.95
-2789.16
108.89
-2614.67
29.2666
-2458.4
-42.2064
-2450.87
-100.556
-2458.12
-149.459
-2460.8
-195.584
-2498.11
-242.419
-2566.09
-291.408
-2665.39
-342.026
-2785.93
-394.344
-2925.96
-449.509
-3101.28
-510.573
-3337.31
-583.008
-3636
-674.1
-3960.85
-785.403
-4279.4
-903.551
-4641.39
-1007.51
-5164.29
-1085.93
-5916.66
-1138.83
-6869.64
-1167.63
-7957.16
-1174.59
-9113.78
-1169.54
-10251.7
-1169.31
-11249.9
-1190.04
-11968.7
-1244.84
-12240.7
-1342.01
-11923
-1460.84
-11195
-1546.61
-10709.7
-1561.83
-10984.9
-1522.53
-11845.1
-1488.75
-12535.8
-1533.67
-11793.5
-1669.34
-8387.74
-1847.34
-3742.1
-2060.5
-1283.13
-2298.09
-123.496
-2573.05
1482.83
-2986.32
3570.99
-3647.99
6551.32
-4674.79
11249.1
-6244.99
18785.6
-8464.73
30574.6
-10724.8
46608.3
59731.4
304.4
-357.87
308.327
-356.049
312.628
-364.132
317.038
-380.105
321.564
-402.049
326.24
-430.299
331.156
-465.003
336.391
-506.759
341.964
-556.252
347.784
-613.715
353.6
-678.948
359.216
-750.493
364.727
-827.032
370.367
-909.142
376.454
-999.039
383.973
-1098.43
395.15
-1209.23
410.057
-1349.8
418.537
-1590.74
404.925
-2003.82
368.63
-2544.18
325.76
-3054.6
289.985
-3424.76
268.18
-3588.17
266.212
-3546.6
287.081
-3404.12
323.914
-3231.96
360.636
-3024.33
385.272
-2779.76
394.58
-2565.94
388.113
-2456.45
363.357
-2464.65
318.799
-2577.85
257.462
-2714.78
184.005
-2715.71
103.23
-2533.89
23.7492
-2378.92
-46.885
-2380.24
-105.276
-2399.73
-155.02
-2411.06
-202.385
-2450.75
-250.686
-2517.79
-301.275
-2614.8
-353.744
-2733.46
-408.323
-2871.38
-466.117
-3043.49
-530.149
-3273.28
-606.221
-3559.93
-701.451
-3865.62
-815.741
-4165.11
-934.351
-4522.78
-1037.62
-5061.02
-1116.5
-5837.79
-1171.28
-6814.86
-1202.81
-7925.62
-1214.35
-9102.24
-1218
-10248.1
-1232.41
-11235.5
-1273.68
-11927.4
-1352.93
-12161.4
-1471.26
-11804.7
-1594.71
-11071.5
-1664.02
-10640.4
-1655.69
-10993.2
-1603.01
-11897.7
-1570.53
-12568.3
-1623.37
-11740.7
-1761.83
-8249.28
-1929.84
-3574.09
-2124.68
-1088.3
-2355.21
107.034
-2656.5
1784.12
-3111.62
4026.11
-3819.61
7259.31
-4926.53
12356.1
-6637.8
20496.9
-8937.77
32874.5
-10692.5
48363
57538.8
314.921
-360.058
318.553
-359.681
322.569
-368.148
326.719
-384.255
331.016
-406.346
335.498
-434.782
340.267
-469.772
345.396
-511.888
350.869
-561.726
356.576
-619.421
362.288
-684.66
367.835
-756.04
373.299
-832.496
378.884
-914.727
384.877
-1005.03
392.132
-1105.68
402.523
-1219.62
416.11
-1363.39
424.072
-1598.7
411.991
-1991.73
378.007
-2510.2
336.176
-3012.77
299.488
-3388.08
275.365
-3564.05
271.985
-3543.22
294.375
-3426.51
334.326
-3271.91
373.07
-3063.08
397.742
-2804.44
405.305
-2573.51
395.744
-2446.88
367.246
-2436.15
319.253
-2529.86
254.978
-2650.51
178.795
-2639.53
96.3206
-2451.42
17.3002
-2299.9
-52.1294
-2310.81
-110.251
-2341.6
-160.573
-2360.74
-208.947
-2402.37
-258.518
-2468.22
-310.554
-2562.77
-364.731
-2679.28
-421.398
-2814.72
-481.651
-2983.23
-548.553
-3206.38
-628.184
-3480.29
-727.347
-3766.46
-844.486
-4047.97
-964.047
-4403.22
-1067.79
-4957.27
-1148.38
-5757.2
-1206.11
-6757.12
-1241.51
-7890.23
-1258.97
-9084.78
-1273.16
-10233.9
-1304.74
-11203.9
-1369.45
-11862.7
-1474.65
-12056.2
-1612.16
-11667.1
-1736.3
-10947.4
-1788.16
-10588.5
-1759.71
-11021.7
-1698.09
-11959.4
-1669.52
-12596.8
-1728.96
-11681.3
-1861.96
-8116.28
-2013.18
-3422.86
-2198.93
-902.552
-2436.03
344.127
-2761.71
2109.81
-3255.52
4519.92
-4023.84
8027.64
-5241.66
13573.9
-7100.23
22355.5
-9383.42
35157.7
-10645.3
49624.9
55208.1
324.887
-362.2
328.255
-363.048
332.01
-371.904
335.94
-388.185
340.068
-410.474
344.433
-439.147
349.126
-474.464
354.193
-516.955
359.588
-567.12
365.188
-625.022
370.798
-690.27
376.279
-761.522
381.696
-837.913
387.213
-920.244
393.077
-1010.9
400.026
-1112.63
409.625
-1229.22
421.905
-1375.67
429.255
-1606.05
418.569
-1981.05
386.968
-2478.6
346.459
-2972.26
309.161
-3350.78
282.89
-3537.78
278.207
-3538.53
302.224
-3450.53
345.189
-3314.87
385.638
-3103.53
409.998
-2828.8
415.488
-2579
402.48
-2433.88
369.913
-2403.59
318.246
-2478.19
250.971
-2583.23
172.206
-2560.76
88.345
-2367.56
10.0966
-2221.65
-57.9299
-2242.78
-115.661
-2283.87
-166.471
-2309.93
-215.759
-2353.08
-266.503
-2417.47
-319.888
-2509.38
-375.676
-2623.5
-434.305
-2756.09
-496.866
-2920.67
-566.505
-3136.74
-649.551
-3397.25
-752.386
-3663.62
-872.024
-3928.33
-992.341
-4282.9
-1096.64
-4852.97
-1179.13
-5674.71
-1240
-6696.25
-1279.53
-7850.71
-1303.54
-9060.77
-1329.4
-10208.1
-1379.66
-11153.6
-1468.81
-11773.5
-1598.56
-11926.5
-1750.07
-11515.6
-1868.63
-10828.8
-1901.11
-10556
-1856.36
-11066.4
-1792.17
-12023.6
-1772.86
-12616.1
-1840.46
-11613.7
-1965.58
-7991.16
-2098.05
-3290.39
-2276.18
-724.418
-2525.04
592.978
-2878.4
2463.17
-3417.01
5058.53
-4265.94
8876.57
-5617.61
14925.5
-7596.8
24334.7
-9746.91
37307.8
-10372.8
50250.8
51757.1
334.701
-364.303
337.848
-366.196
341.385
-375.44
345.141
-391.941
349.158
-414.491
353.467
-443.456
358.128
-479.125
363.154
-521.981
368.473
-572.44
373.972
-630.52
379.487
-695.785
384.907
-766.941
390.267
-843.274
395.685
-925.662
401.375
-1016.59
407.985
-1119.24
416.824
-1238.06
427.891
-1386.74
434.615
-1612.78
425.142
-1971.57
395.824
-2449.28
356.749
-2933.19
319.038
-3313.07
290.775
-3509.51
284.945
-3532.7
310.739
-3476.32
356.656
-3360.79
398.54
-3145.41
422.237
-2852.49
425.277
-2582.04
408.408
-2417.01
371.387
-2366.57
315.765
-2422.57
245.403
-2512.87
164.205
-2479.56
79.3141
-2282.67
2.19019
-2144.52
-64.2293
-2176.36
-121.412
-2226.69
-172.555
-2258.79
-222.614
-2303.03
-274.396
-2365.69
-329.002
-2454.78
-386.26
-2566.24
-446.678
-2695.67
-511.366
-2855.99
-583.603
-3064.5
-669.902
-3310.95
-776.126
-3557.4
-897.999
-3806.46
-1019.16
-4161.74
-1124.49
-4747.64
-1209.38
-5589.82
-1273.78
-6631.86
-1317.91
-7806.58
-1349.23
-9029.44
-1387.9
-10169.4
-1458.16
-11083.3
-1572.28
-11659.4
-1724.49
-11774.3
-1884.74
-11355.4
-1993.03
-10720.5
-2006.63
-10542.4
-1950.67
-11122.4
-1889.71
-12084.5
-1883.58
-12622.3
-1960.3
-11536.9
-2075.67
-7875.78
-2187.63
-3178.44
-2359.25
-552.798
-2622.7
856.431
-3007.86
2848.33
-3602.65
5653.33
-4552.03
9825.94
-6042.12
16415.6
-8081.55
26374.1
-9980.07
39206.4
-9984.06
50254.8
48139.6
344.288
-366.373
347.261
-369.168
350.625
-378.804
354.261
-395.577
358.224
-418.454
362.526
-447.758
367.184
-483.783
372.178
-526.975
377.429
-577.69
382.836
-635.928
388.27
-701.219
393.631
-772.302
398.921
-848.564
404.212
-930.953
409.697
-1022.07
415.95
-1125.5
424.049
-1246.16
433.958
-1396.65
440.024
-1618.84
431.594
-1963.14
404.454
-2422.14
366.922
-2895.65
329.026
-3275.17
298.966
-3479.45
292.165
-3525.9
319.832
-3503.99
368.546
-3409.5
411.503
-3188.37
434.1
-2875.09
434.224
-2582.16
413.005
-2395.79
371.139
-2324.7
311.372
-2362.8
237.983
-2439.48
154.632
-2396.21
69.1862
-2197.22
-6.39583
-2068.94
-71.0036
-2111.76
-127.497
-2170.2
-178.844
-2207.44
-229.55
-2252.32
-282.248
-2312.99
-337.953
-2399.07
-396.556
-2507.63
-458.62
-2633.6
-525.301
-2789.3
-600.026
-2989.78
-689.42
-3221.56
-798.764
-3448.06
-922.636
-3682.59
-1044.69
-4039.68
-1151.35
-4640.99
-1238.99
-5502.18
-1307.23
-6563.61
-1356.4
-7757.41
-1395.73
-8990.12
-1448.19
-10116.9
-1539.41
-10992.1
-1678.31
-11520.5
-1850.12
-11602.5
-2013.96
-11191.5
-2108.67
-10625.8
-2105.13
-10546
-2042.96
-11184.6
-1990.2
-12137.3
-2000.69
-12611.8
-2088.13
-11449.5
-2194.06
-7769.85
-2285.27
-3087.23
-2450.95
-387.124
-2732.35
1137.83
-3156.92
3272.9
-3822.1
6318.51
-4886.06
10889.9
-6499.22
18028.8
-8525.66
28400.5
-10086.9
40767.6
-9452.25
49620.2
43850.7
353.671
-368.427
356.526
-372.023
359.785
-382.063
363.366
-399.158
367.324
-422.412
371.646
-452.08
376.311
-488.449
381.276
-531.94
386.465
-582.879
391.799
-641.261
397.164
-706.585
402.465
-777.602
407.664
-853.763
412.801
-936.09
418.054
-1027.32
423.936
-1131.38
431.331
-1253.55
440.165
-1405.48
445.564
-1624.24
437.991
-1955.57
412.862
-2397.01
376.906
-2859.7
339.018
-3237.28
307.375
-3447.81
299.802
-3518.33
329.411
-3533.6
380.701
-3460.8
424.308
-3231.97
445.288
-2896.07
441.938
-2578.81
415.836
-2369.69
368.757
-2277.62
304.757
-2298.8
228.542
-2363.26
143.446
-2311.12
58.0213
-2111.79
-15.5831
-1995.34
-78.2059
-2049.13
-133.88
-2114.52
-185.295
-2156.02
-236.513
-2201.1
-289.989
-2259.52
-346.661
-2342.4
-406.481
-2447.81
-470.051
-2570.03
-538.598
-2720.76
-615.699
-2912.67
-708.014
-3129.24
-820.206
-3335.86
-945.881
-3556.91
-1068.93
-3916.63
-1177.27
-4532.65
-1268.01
-5411.44
-1340.45
-6491.17
-1395.11
-7702.75
-1443.07
-8942.16
-1510.1
-10049.9
-1622.77
-10879.5
-1785.57
-11357.7
-1973.57
-11414.5
-2136.42
-11028.7
-2215.74
-10546.5
-2197.82
-10563.9
-2134.35
-11248
-2094.07
-12177.6
-2124.09
-12581.8
-2224.28
-11349.3
-2323.03
-7671.09
-2395.91
-3014.35
-2557.7
-225.341
-2860.94
1441.08
-3333.67
3745.63
-4082.49
7067.33
-5265
12072.4
-6968
19731.8
-8903.19
30335.7
-10059
41923.4
-8809.43
48370.6
39250.1
362.876
-370.479
365.677
-374.824
368.907
-385.293
372.494
-402.745
376.479
-426.397
380.826
-456.427
385.495
-493.117
390.433
-536.878
395.576
-588.022
400.854
-646.54
406.161
-711.892
411.392
-782.832
416.478
-858.85
421.437
-941.049
426.443
-1032.33
431.953
-1136.89
438.678
-1260.28
446.507
-1413.31
451.234
-1628.97
444.342
-1948.68
421.03
-2373.7
386.636
-2825.3
348.907
-3199.55
315.898
-3414.8
307.762
-3510.19
339.342
-3565.18
392.921
-3514.37
436.662
-3275.71
455.389
-2914.8
447.886
-2571.31
416.326
-2338.13
363.724
-2225.02
295.563
-2230.64
216.908
-2284.61
130.611
-2224.82
45.865
-2027.05
-25.3151
-1924.16
-85.7987
-1988.65
-140.533
-2059.79
-191.886
-2104.67
-243.492
-2149.5
-297.618
-2205.39
-355.134
-2284.88
-416.046
-2386.9
-480.994
-2505.09
-551.287
-2650.46
-630.652
-2833.31
-725.713
-3034.18
-840.493
-3221.08
-967.803
-3429.6
-1091.96
-3792.47
-1202.27
-4422.34
-1296.44
-5317.27
-1373.4
-6414.21
-1434
-7642.15
-1491.16
-8885
-1573.28
-9967.77
-1707.34
-10745.4
-1892.48
-11172.6
-2093.17
-11213.8
-2251.42
-10870.5
-2315.04
-10482.9
-2286.14
-10592.8
-2225.69
-11308.5
-2201.32
-12201.9
-2253.33
-12529.8
-2368.84
-11233.8
-2464.76
-7575.17
-2524.31
-2954.8
-2685.51
-64.1354
-3015.29
1770.86
-3545.11
4275.45
-4386.18
7908.4
-5678.5
13364.7
-7424.92
21478.2
-9195.55
32106.4
-9905.25
42633.1
-8079.39
46544.7
34318.5
371.953
-372.542
374.763
-377.634
378.036
-388.567
381.675
-406.383
385.697
-430.419
390.063
-460.793
394.73
-497.784
399.65
-541.798
404.765
-593.136
410.004
-651.779
415.253
-717.142
420.398
-787.977
425.349
-863.801
430.115
-945.814
434.867
-1037.08
440.009
-1142.03
446.102
-1266.37
453.002
-1420.21
457.056
-1633.02
450.67
-1942.29
428.959
-2351.99
396.054
-2792.4
358.58
-3162.08
324.41
-3380.63
315.916
-3501.7
349.455
-3598.72
404.955
-3569.87
448.211
-3318.97
463.917
-2930.5
451.466
-2558.86
413.855
-2300.52
355.523
-2166.69
283.482
-2158.6
202.984
-2204.11
116.164
-2138
32.8132
-1943.7
-35.5139
-1855.83
-93.7366
-1930.43
-147.417
-2006.11
-198.584
-2053.5
-250.455
-2097.62
-305.103
-2150.74
-363.339
-2226.65
-425.22
-2325.02
-491.418
-2438.89
-563.342
-2578.54
-644.856
-2751.8
-742.486
-2936.55
-859.605
-3103.97
-988.408
-3300.8
-1113.79
-3667.09
-1226.36
-4309.77
-1324.27
-5219.36
-1406.11
-6332.37
-1473.08
-7575.18
-1539.91
-8818.17
-1637.31
-9870.36
-1792.14
-10590.6
-1997.5
-10967.2
-2207.52
-11003.8
-2358.84
-10719.1
-2407.77
-10433.9
-2371.45
-10629.1
-2317.65
-11362.3
-2311.81
-12207.8
-2387.9
-12453.7
-2521.72
-11100
-2620.73
-7476.15
-2674.34
-2901.19
-2840.02
101.539
-3201.42
2132.26
-3795.31
4869.33
-4730.07
8843.16
-6111.33
14746
-7848.08
23215
-9392.46
33650.7
-9638.92
42879.6
-7286.5
44192.3
29066.7
380.985
-374.627
383.847
-380.497
387.208
-391.927
390.916
-410.091
394.974
-434.478
399.35
-465.169
404.018
-502.452
408.933
-546.714
414.035
-598.238
419.241
-656.985
424.427
-722.328
429.467
-793.017
434.266
-868.6
438.831
-950.379
443.33
-1041.58
448.114
-1146.81
453.614
-1271.87
459.653
-1426.25
463.037
-1636.41
456.994
-1936.25
436.651
-2331.64
405.114
-2760.86
367.928
-3124.89
332.773
-3345.48
324.111
-3493.04
359.529
-3634.14
416.479
-3626.82
458.5
-3360.99
470.276
-2942.28
451.99
-2540.57
407.759
-2256.29
343.653
-2102.58
268.272
-2083.22
186.752
-2122.59
100.197
-2051.45
18.9849
-1862.49
-46.0995
-1790.75
-101.974
-1874.55
-154.498
-1953.58
-205.363
-2002.64
-257.383
-2045.6
-312.43
-2095.7
-371.263
-2167.81
-433.992
-2262.29
-501.315
-2371.57
-574.757
-2505.1
-658.301
-2668.25
-758.321
-2836.53
-877.545
-2984.74
-1007.72
-3170.63
-1134.44
-3540.37
-1249.54
-4194.66
-1351.48
-5117.42
-1438.56
-6245.3
-1512.34
-7501.4
-1589.17
-8741.34
-1701.7
-9757.82
-1876.07
-10416.2
-2099.09
-10744.2
-2315.53
-10787.3
-2458.98
-10575.7
-2495.36
-10397.5
-2455.09
-10669.4
-2410.68
-11406.7
-2425.23
-12193.2
-2527.14
-12351.8
-2682.52
-10944.6
-2791.69
-7366.98
-2848.38
-2844.51
-3024.83
277.995
-3422.79
2530.21
-4084.27
5530.82
-5105.95
9864.84
-6545.73
16185.8
-8218.66
24887.9
-9488.19
34920.3
-9269.75
42661.1
-6488.05
41410.6
23860.1
390.076
-376.725
392.989
-383.41
396.435
-395.373
400.208
-413.864
404.297
-438.566
408.686
-469.559
413.364
-507.129
418.287
-551.637
423.384
-603.335
428.555
-662.156
433.666
-727.439
438.587
-797.938
443.221
-873.234
447.585
-954.742
451.839
-1045.84
456.28
-1151.25
461.227
-1276.82
466.468
-1431.49
469.184
-1639.12
463.329
-1930.39
444.117
-2312.43
413.784
-2730.53
376.849
-3087.96
340.837
-3309.46
332.161
-3484.36
369.283
-3671.26
427.068
-3684.61
466.949
-3400.87
473.763
-2949.1
448.709
-2515.51
397.378
-2204.95
327.68
-2032.88
249.809
-2005.35
168.3
-2041.08
82.8782
-1966.02
4.53812
-1784.14
-56.9813
-1729.23
-110.46
-1821.07
-161.737
-1902.31
-212.193
-1952.18
-264.257
-1993.54
-319.582
-2040.37
-378.891
-2108.5
-442.347
-2198.84
-510.672
-2303.24
-585.515
-2430.26
-670.96
-2582.81
-773.185
-2734.31
-894.288
-2863.64
-1025.72
-3039.19
-1153.91
-3412.19
-1271.79
-4076.78
-1378.06
-5011.16
-1470.74
-6152.62
-1551.75
-7420.39
-1638.79
-8654.3
-1765.93
-9630.69
-1958.02
-10224.1
-2195.84
-10506.4
-2416.39
-10566.8
-2552.31
-10439.8
-2579.13
-10370.7
-2538.14
-10710.4
-2505.05
-11439.8
-2541.13
-12157.2
-2670.22
-12222.7
-2850.49
-10764.3
-2977.34
-7240.13
-3046.93
-2774.92
-3241.25
472.316
-3679.58
2968.54
-4407.64
6258.88
-5501.75
10958.9
-6963.68
17647.7
-8521.71
26445.9
-9478.88
35877.4
-8802.2
41984.4
-5700.63
38309
19163
399.321
-378.809
402.23
-386.319
405.717
-398.86
409.541
-417.688
413.663
-442.689
418.077
-473.972
422.777
-511.829
427.716
-556.577
432.806
-608.425
437.932
-667.283
442.955
-732.462
447.746
-802.729
452.214
-877.702
456.381
-958.91
460.402
-1049.86
464.52
-1155.37
468.952
-1281.25
473.452
-1435.99
475.502
-1641.17
469.692
-1924.59
451.376
-2294.12
422.041
-2701.19
385.248
-3051.17
348.446
-3272.66
339.85
-3475.77
378.362
-3709.77
436.165
-3742.41
472.832
-3437.54
473.552
-2949.82
440.824
-2482.79
382.084
-2146.21
307.288
-1958.09
228.128
-1926.19
147.836
-1960.79
64.4443
-1882.63
-10.3356
-1709.37
-68.0642
-1671.5
-119.141
-1770
-169.094
-1852.36
-219.05
-1902.23
-271.059
-1941.53
-326.547
-1984.88
-386.213
-2048.84
-450.276
-2134.77
-519.481
-2234.03
-595.6
-2354.14
-682.803
-2495.6
-787.033
-2630.07
-909.798
-2740.87
-1042.41
-2906.58
-1172.17
-3282.42
-1293.06
-3955.89
-1403.95
-4900.27
-1502.63
-6053.94
-1591.29
-7331.73
-1688.62
-8556.97
-1829.44
-9489.86
-2036.94
-10016.6
-2286.46
-10256.9
-2509.38
-10343.9
-2639.19
-10310
-2660.07
-10349.8
-2621.36
-10749.1
-2600.89
-11460.3
-2659.01
-12099
-2816.21
-12065.5
-3024.47
-10556.1
-3176.39
-7088.21
-3268.71
-2682.6
-3487.88
691.488
-3968.43
3449.08
-4757.21
7047.66
-5903.1
12104.8
-7348.41
19093
-8746.21
27843.7
-9366.45
36497.7
-8260.76
40878.7
-4928.01
34976.3
14854.6
408.775
-380.836
411.597
-389.141
415.061
-402.324
418.914
-421.541
423.078
-446.853
427.53
-478.424
432.261
-516.56
437.214
-561.53
442.286
-613.497
447.354
-672.35
452.279
-737.387
456.937
-807.387
461.244
-882.008
465.227
-962.893
469.028
-1053.66
472.844
-1159.19
476.802
-1285.21
480.612
-1439.8
481.997
-1642.56
476.101
-1918.69
458.448
-2276.46
429.87
-2672.62
393.041
-3014.34
355.44
-3235.06
346.927
-3467.25
386.329
-3749.17
443.077
-3799.16
475.27
-3469.73
468.7
-2943.25
427.498
-2441.58
361.304
-2080.02
282.317
-1879.1
203.453
-1847.32
125.688
-1883.03
45.1936
-1802.14
-25.4199
-1638.75
-79.2508
-1617.67
-127.962
-1721.28
-176.529
-1803.79
-225.907
-1852.85
-277.777
-1889.66
-333.317
-1929.35
-393.222
-1988.93
-457.773
-2070.22
-527.733
-2164.07
-604.992
-2276.88
-693.787
-2406.81
-799.804
-2524.06
-924.011
-2616.67
-1057.71
-2772.89
-1189.16
-3150.96
-1313.3
-3831.76
-1429.11
-4784.45
-1534.21
-5948.85
-1630.93
-7235.01
-1738.49
-8449.42
-1891.75
-9336.6
-2111.87
-9796.5
-2369.88
-9998.84
-2593.87
-10119.9
-2719.68
-10184.1
-2738.56
-10331
-2705.01
-10782.7
-2698.09
-11467.2
-2778.3
-12018.8
-2964.01
-11879.7
-3202.89
-10317.2
-3386.5
-6904.61
-3510.46
-2558.64
-3760.52
941.555
-4282.74
3971.3
-5122.05
7886.97
-6295.01
13277.8
-7685.54
20483.5
-8885.56
29043.8
-9156.88
36769
-7660.07
39381.9
-4180.5
31496.7
11096.6
418.453
-382.782
421.118
-391.806
424.492
-405.698
428.345
-425.394
432.552
-451.06
437.051
-482.924
441.814
-521.322
446.771
-566.487
451.811
-618.536
456.807
-677.346
461.628
-742.209
466.157
-811.915
470.315
-886.166
474.13
-966.708
477.729
-1057.26
481.267
-1162.73
484.788
-1288.73
487.958
-1442.97
488.68
-1643.28
482.574
-1912.58
465.355
-2259.24
437.265
-2644.53
400.157
-2977.23
361.664
-3196.57
353.116
-3458.71
392.665
-3788.72
446.973
-3853.47
473.223
-3495.98
458.156
-2928.18
407.887
-2391.31
334.559
-2006.69
252.806
-1797.35
176.225
-1770.74
102.284
-1809.08
25.4289
-1725.28
-40.5373
-1572.79
-90.4647
-1567.74
-136.866
-1674.88
-184.004
-1756.65
-232.745
-1804.11
-284.4
-1838
-339.887
-1873.86
-399.915
-1928.9
-464.835
-2005.3
-535.422
-2093.49
-613.674
-2198.63
-703.867
-2316.61
-811.417
-2416.51
-936.831
-2491.25
-1071.53
-2638.19
-1204.79
-3017.7
-1332.41
-3704.14
-1453.48
-4663.38
-1565.44
-5836.89
-1670.63
-7129.81
-1788.25
-8331.8
-1952.42
-9172.43
-2182.07
-9566.84
-2445.29
-9735.62
-2669.27
-9895.9
-2793.4
-10060
-2814.27
-10310.1
-2788.78
-10808.1
-2796.34
-11459.6
-2898.35
-11916.8
-3112.46
-11665.6
-3383.87
-10045.8
-3604.43
-6684.04
-3767.12
-2395.95
-4052.49
1226.92
-4613.48
4532.29
-5489.7
8763.19
-6663.14
14451.2
-7963.65
21784.1
-8937.35
30017.5
-8860.77
36692.4
-7022.36
37543.5
-3459.75
27934.1
7724.72
428.346
-384.657
430.825
-394.285
434.049
-408.921
437.86
-429.206
442.096
-455.296
446.641
-487.468
451.427
-526.109
456.373
-571.433
461.362
-623.526
466.278
-682.262
470.997
-746.928
475.408
-816.326
479.435
-890.193
483.1
-970.373
486.516
-1060.67
489.8
-1166.01
492.924
-1291.85
495.497
-1445.54
495.56
-1643.34
489.133
-1906.16
472.119
-2242.23
444.224
-2616.63
406.538
-2939.54
366.974
-3157
358.126
-3449.86
396.78
-3827.38
446.887
-3903.57
465.508
-3514.6
440.801
-2903.47
381.196
-2331.71
301.537
-1927.03
219.077
-1714.89
147.105
-1698.77
78.1201
-1740.1
5.45175
-1652.61
-55.5318
-1511.8
-101.643
-1521.63
-145.8
-1630.73
-191.483
-1710.97
-239.54
-1756.05
-290.918
-1786.63
-346.253
-1818.52
-406.29
-1868.87
-471.461
-1940.13
-542.545
-2022.4
-621.628
-2119.54
-712.993
-2225.25
-821.777
-2307.72
-948.137
-2364.89
-1083.77
-2502.56
-1218.96
-2882.5
-1350.31
-3572.8
-1476.98
-4536.7
-1596.27
-5717.6
-1710.38
-7015.71
-1837.82
-8204.35
-2011.14
-8999.11
-2247.04
-9330.94
-2512.16
-9470.5
-2735.09
-9672.96
-2859.67
-9935.42
-2886.21
-10283.5
-2871.75
-10822.6
-2894.93
-11436.4
-3018.42
-11793.3
-3260.32
-11423.7
-3565.15
-9740.93
-3826.16
-6423.04
-4032.34
-2189.77
-4355.39
1549.98
-4950.08
5126.98
-5847.42
9660.53
-6994.76
15598.6
-8174.59
22963.9
-8902.95
30745.8
-8491.3
36280.8
-6366.33
35418.6
-2774.48
24342.3
4747.11
438.409
-386.498
440.727
-396.603
443.767
-411.961
447.489
-432.927
451.721
-459.528
456.291
-492.038
461.084
-530.901
466
-576.349
470.928
-628.455
475.762
-687.095
480.386
-751.553
484.695
-820.634
488.61
-894.109
492.146
-973.909
495.402
-1063.93
498.457
-1169.07
501.219
-1294.61
503.239
-1447.56
502.649
-1642.76
495.798
-1899.31
478.764
-2225.2
450.748
-2588.61
412.14
-2900.93
371.243
-3116.11
361.663
-3440.28
398.017
-3863.73
441.746
-3947.3
450.849
-3523.71
415.528
-2868.15
346.769
-2262.95
262.229
-1842.49
181.854
-1634.51
116.963
-1633.88
53.7095
-1676.85
-14.4307
-1584.47
-70.2513
-1455.98
-112.732
-1479.15
-154.716
-1588.74
-198.935
-1666.75
-246.277
-1708.71
-297.322
-1735.58
-352.412
-1763.43
-412.347
-1808.93
-477.651
-1874.83
-549.102
-1950.95
-628.841
-2039.8
-721.113
-2132.98
-830.785
-2198.05
-957.797
-2237.88
-1094.28
-2366.07
-1231.57
-2745.22
-1366.92
-3437.45
-1499.54
-4404.08
-1626.66
-5590.49
-1750.12
-6892.24
-1887.11
-8067.36
-2067.75
-8818.47
-2306.55
-9092.14
-2570.33
-9206.73
-2791.12
-9452.17
-2917.78
-9808.76
-2953.11
-10248.2
-2952.56
-10823.2
-2992.89
-11396.1
-3137.59
-11648.6
-3406.13
-11155.2
-3744.15
-9402.91
-4047.11
-6120.08
-4299.02
-1937.86
-4659.97
1910.93
-5281.53
5748.54
-6183.11
10562.1
-7279.37
16694.8
-8313.62
23998.1
-8787.26
31219.5
-8062.82
35556.3
-5702.88
33058.6
-2108
20747.4
2243.24
448.582
-388.346
450.795
-398.817
453.659
-414.825
457.249
-436.517
461.429
-463.709
465.99
-496.599
470.767
-535.678
475.638