/*--------------------------------*- C++ -*----------------------------------*\
| =========                 |                                                 |
| \\      /  F ield         | OpenFOAM: The Open Source CFD Toolbox           |
|  \\    /   O peration     | Version:  4.1                                   |
|   \\  /    A nd           | Web:      www.OpenFOAM.org                      |
|    \\/     M anipulation  |                                                 |
\*---------------------------------------------------------------------------*/
FoamFile
{
    version     2.0;
    format      ascii;
    class       volScalarField;
    location    "16";
    object      p;
}
// * * * * * * * * * * * * * * * * * * * * * * * * * * * * * * * * * * * * * //

dimensions      [0 2 -2 0 0 0 0];

internalField   nonuniform List<scalar> 
225
(
523.378
469.981
418.15
369.739
324.848
282.831
243.476
206.472
171.378
138.014
107.072
78.9332
49.9043
14.9855
-14.1668
56.944
34.6831
28.9244
25.2142
19.7401
14.0326
8.87969
4.49093
1.007
-1.45177
-2.64307
-2.14143
-0.0449974
1.82653
2.08671
-45.8384
-52.4814
-46.7145
-42.5676
-39.477
-35.8817
-31.9954
-28.058
-24.1536
-20.4378
-17.0922
-14.0251
-10.9483
-8.29552
-7.06128
0.295249
-2.12281
2.46999
2.79413
2.84771
3.06289
2.97376
2.59645
2.01489
1.2557
0.298955
-0.810392
-1.7207
-1.87293
-1.56247
16.7231
14.3903
15.944
13.846
12.4271
11.1836
9.77362
8.39177
7.13433
6.04328
5.14228
4.42974
3.95215
3.91943
4.16429
7.49489
5.47183
6.44582
5.22648
5.02348
5.00772
4.91994
4.95326
5.10885
5.35235
5.67164
6.03452
6.35418
6.61089
6.78563
4.02344
2.86798
3.95357
3.63047
4.01728
4.4114
4.71038
5.06102
5.41758
5.74234
6.03203
6.28593
6.46416
6.54518
6.56089
5.70125
5.14343
5.99777
5.76875
5.96725
6.07973
6.10362
6.14891
6.17348
6.16864
6.14493
6.11712
6.08346
6.0376
5.98911
6.00846
5.68304
6.19384
5.91793
5.96074
5.92991
5.85482
5.80771
5.75208
5.6915
5.63223
5.5791
5.53238
5.48628
5.43506
4.68842
4.48071
4.82636
4.64996
4.72273
4.7317
4.71881
4.72702
4.72444
4.71768
4.7081
4.69338
4.67118
4.63591
4.57818
3.31803
3.20186
3.49956
3.44572
3.56539
3.61213
3.6408
3.6758
3.69246
3.69936
3.69739
3.68489
3.66085
3.62261
3.55707
2.34421
2.28405
2.5384
2.53978
2.65817
2.69958
2.72869
2.75579
2.76335
2.76126
2.74984
2.72892
2.69905
2.66026
2.59562
1.56569
1.53074
1.73313
1.74693
1.8461
1.87249
1.89484
1.91196
1.91228
1.9054
1.8908
1.86853
1.83894
1.80419
1.74632
0.881295
0.869201
1.0301
1.03474
1.11173
1.12531
1.14313
1.1552
1.15464
1.14968
1.13878
1.12175
1.09676
1.06561
1.0114
0.438939
0.399632
0.455452
0.423321
0.459459
0.440761
0.434404
0.420338
0.39943
0.376744
0.350137
0.321462
0.291043
0.261105
0.218088
)
;

boundaryField
{
    inletFace
    {
        type            zeroGradient;
    }
    inlet
    {
        type            zeroGradient;
    }
    inletWalls
    {
        type            zeroGradient;
    }
    outletInlet
    {
        type            fixedValue;
        value           uniform 0;
    }
}


// ************************************************************************* //
