/*--------------------------------*- C++ -*----------------------------------*\
| =========                 |                                                 |
| \\      /  F ield         | OpenFOAM: The Open Source CFD Toolbox           |
|  \\    /   O peration     | Version:  4.1                                   |
|   \\  /    A nd           | Web:      www.OpenFOAM.org                      |
|    \\/     M anipulation  |                                                 |
\*---------------------------------------------------------------------------*/
FoamFile
{
    version     2.0;
    format      ascii;
    class       surfaceScalarField;
    location    "16";
    object      phi;
}
// * * * * * * * * * * * * * * * * * * * * * * * * * * * * * * * * * * * * * //

dimensions      [0 3 -1 0 0 0 0];

internalField   nonuniform List<scalar> 
420
(
-949.879
2249.78
-1573.96
1924.28
-2054
1779.95
-2424.23
1670.13
-2699.86
1575.83
-2888.38
1488.42
-2993.06
1404.58
-3013.86
1321
-2949.61
1235.66
-2797.23
1147.52
-2551.16
1054.13
-2193
941.735
-1687.16
794.065
-1012.67
625.702
287.229
373.335
1876.44
442.749
1854.86
437.302
1785.39
406.699
1700.74
380.582
1601.94
359.902
1509.1
345.295
1419.19
337.539
1328.76
333.486
1239.71
326.957
1154.05
309.612
1071.48
267.471
983.878
191.431
870.105
111.445
705.687
398.674
33.5764
1842.87
-97.3874
1985.83
-253.612
1941.62
-371.117
1818.24
-473.181
1704.01
-567.529
1603.45
-651.747
1503.4
-725.793
1402.8
-788.072
1301.99
-837.306
1203.28
-868.226
1102.4
-856.088
971.742
-740.333
754.356
-434.278
399.64
-35.6044
28.7765
1814.09
-100.652
2115.26
-225.56
2066.53
-304.495
1897.18
-368.156
1767.67
-416.953
1652.24
-446.228
1532.68
-457.016
1413.59
-451.853
1296.83
-430.154
1181.59
-387.226
1059.47
-311.875
896.388
-192.87
635.346
-48.4121
255.178
-84.0164
169.626
1644.47
146.159
2138.72
123.734
2088.95
122.871
1898.04
126.942
1763.6
135.804
1643.38
149.101
1519.38
166.589
1396.11
186.939
1276.48
208.127
1160.4
229.128
1038.47
243.82
881.696
233.003
646.162
155.23
332.95
71.2134
223.08
1421.39
244.184
2117.62
234.746
2098.39
236.023
1896.76
240.37
1759.25
244.303
1639.45
246.545
1517.14
245.248
1397.4
241.158
1280.57
233.985
1167.57
221.378
1051.08
199.138
903.939
156.142
689.16
78.3033
410.791
149.517
203.322
1218.07
238.377
2082.57
213.622
2123.14
191.411
1918.98
177.205
1773.46
163.773
1652.88
150.041
1530.88
135.898
1411.54
121.073
1295.39
106.921
1181.73
92.8237
1065.17
75.7734
920.993
52.0273
712.91
19.0241
443.798
168.541
171.855
1046.21
221.987
2032.43
199.429
2145.7
170.414
1947.99
152.064
1791.81
137.683
1667.26
122.795
1545.77
108.595
1425.74
95.601
1308.39
83.1201
1194.21
71.4994
1076.8
58.6448
933.847
40.3294
731.227
15.7512
468.377
184.292
146.096
900.116
210.061
1968.47
196.878
2158.89
170.059
1974.81
152.41
1809.46
139.542
1680.13
127.077
1558.23
113.874
1438.95
101.327
1320.93
89.4267
1206.11
76.9895
1089.23
63.094
947.744
44.3114
750.01
19.1704
493.518
203.462
116.76
783.355
184.852
1900.38
179.625
2164.11
154.308
2000.13
137.216
1826.54
123.996
1693.35
111.363
1570.86
98.9563
1451.36
86.1012
1333.78
73.863
1218.34
62.1027
1100.99
49.0247
960.813
32.8548
766.167
13.181
513.18
216.643
83.1622
700.19
143.131
1840.41
144.684
2162.56
122.751
2022.06
106.141
1843.16
94.4479
1705.04
82.5667
1582.74
71.1536
1462.77
60.3727
1344.56
49.4477
1229.27
39.4199
1111.02
29.7393
970.49
18.0783
777.82
5.23613
526.015
221.88
51.2439
648.944
97.9195
1793.73
102.71
2157.77
87.3781
2037.39
73.153
1857.38
63.1401
1715.05
54.2451
1591.64
44.8593
1472.15
36.1474
1353.28
28.1692
1237.25
20.4129
1118.77
13.6742
977.238
6.73299
784.769
-0.408629
533.164
221.471
25.1211
623.821
57.7034
1761.15
63.4916
2151.97
53.4643
2047.41
43.8915
1866.95
36.1847
1722.75
29.5613
1598.26
23.5199
1478.19
17.0786
1359.72
11.3337
1242.99
6.63226
1123.47
2.49829
981.372
-1.05418
788.325
-3.67548
535.788
217.795
1.40675
622.415
24.0445
1738.52
33.3396
2142.68
27.7123
2053.05
20.3528
1874.31
15.0586
1728.05
9.52263
1603.79
4.57851
1483.13
0.0355921
1364.26
-4.83006
1247.85
-8.33495
1126.98
-9.64416
982.676
-9.71263
788.391
-7.13737
533.211
210.658
-11.7337
-3.13152
1.46012
-0.400553
-5.09877
-8.84775
-11.7999
-15.236
-18.0983
-20.228
-21.791
-21.1212
-18.1288
-12.3917
)
;

boundaryField
{
    inletFace
    {
        type            calculated;
        value           nonuniform List<scalar> 
450
(
-1.60014e-14
6.25919e-13
-1.03464e-13
-1.8364e-13
1.18837e-13
-1.89681e-13
-6.58763e-14
6.77457e-14
-1.06025e-13
-3.41675e-14
4.64853e-14
-6.8293e-14
-1.49814e-14
1.98296e-14
1.20611e-15
-2.11227e-12
-2.31573e-12
8.14505e-14
-1.53006e-13
-2.85686e-13
6.66909e-15
-2.92914e-13
-1.42324e-13
4.3807e-15
-9.67186e-14
-5.23651e-14
2.14828e-14
-9.03433e-14
-1.33957e-14
-2.14519e-15
-2.27912e-12
-2.25245e-12
-8.47475e-14
-3.13007e-13
-6.73951e-14
-1.46623e-13
-2.93349e-13
-1.03486e-13
-1.3185e-13
-1.69022e-13
1.90873e-15
-3.76983e-14
-4.04141e-14
2.63872e-15
2.22738e-15
-2.57714e-12
-2.03126e-12
-1.86551e-13
-6.71168e-13
-1.2652e-14
-2.33914e-13
-4.1744e-13
-1.4638e-13
-1.95072e-13
-2.53834e-13
9.51442e-15
-6.80013e-14
-8.30339e-14
3.30678e-14
6.70186e-14
-2.38988e-12
-2.22501e-12
-3.35424e-13
-4.60971e-13
-1.55002e-13
-2.13794e-13
-3.66918e-13
-7.21635e-14
-2.12456e-13
-1.78173e-13
-4.53918e-14
-4.78955e-14
-5.62753e-14
1.35532e-14
7.78518e-14
-2.10342e-12
-2.28348e-12
-5.15141e-13
-4.03765e-13
-1.40296e-13
-1.93787e-13
-3.43381e-13
-4.43812e-14
-1.21383e-13
-1.59687e-13
-6.23439e-14
-4.73434e-14
-4.50103e-14
1.41706e-14
1.46991e-14
-1.89162e-12
-2.36393e-12
-7.7379e-13
-3.75954e-13
-1.81369e-13
-2.33985e-13
-3.487e-13
-1.1129e-13
-9.47264e-14
-1.49976e-13
-6.65508e-14
-5.4725e-14
-4.49132e-14
-6.16821e-14
-1.25453e-13
-1.65921e-12
-2.38394e-12
-9.77824e-13
-4.14133e-13
-2.11634e-13
-2.35699e-13
-3.1377e-13
-1.35203e-13
-1.27551e-13
-1.38095e-13
-9.79998e-14
-8.86157e-14
-4.30136e-14
-1.08378e-14
-1.92781e-13
-1.38835e-12
-2.37389e-12
-1.16236e-12
-4.52818e-13
-2.26723e-13
-2.13101e-13
-3.20069e-13
-1.8308e-13
-1.46475e-13
-1.36829e-13
-1.00076e-13
-8.67194e-14
-8.22082e-14
-7.64352e-15
-2.22224e-14
-1.18846e-12
-2.33015e-12
-1.27437e-12
-5.12805e-13
-2.41085e-13
-1.92001e-13
-2.76443e-13
-1.94586e-13
-1.11279e-13
-1.03692e-13
-7.35913e-14
-2.25776e-14
1.56012e-14
-1.20017e-14
9.26449e-14
-9.92365e-13
-2.24865e-12
-1.36832e-12
-5.49158e-13
-2.53524e-13
-1.82513e-13
-2.19129e-13
-1.9944e-13
-4.6381e-14
-1.02996e-13
-1.15976e-13
-4.9638e-14
4.83402e-14
1.06214e-14
1.27614e-13
-8.61299e-13
-2.18037e-12
-1.42036e-12
-5.72671e-13
-2.7504e-13
-1.4651e-13
-2.31618e-13
-2.09903e-13
-2.02391e-14
-1.25627e-13
-1.44964e-13
-1.95989e-14
-3.59109e-14
1.08019e-13
1.74264e-13
-7.93e-13
-2.13055e-12
-1.4488e-12
-6.18543e-13
-2.96049e-13
-1.37929e-13
-2.24505e-13
-2.29597e-13
-4.35176e-14
-9.30239e-14
-1.11213e-13
2.93408e-14
6.35669e-15
1.22454e-13
1.31893e-13
-7.46463e-13
-2.08137e-12
-1.48123e-12
-6.3776e-13
-3.05802e-13
-1.4296e-13
-2.17649e-13
-2.46498e-13
-4.49972e-14
-9.02754e-14
-1.06808e-13
3.79523e-14
1.12365e-14
1.02776e-13
1.15286e-13
-7.38841e-13
-2.00843e-12
-1.47826e-12
-6.60878e-13
-3.13119e-13
-1.55389e-13
-2.19898e-13
-2.33646e-13
-5.89179e-14
-9.17555e-14
-8.71739e-14
2.87444e-14
1.59238e-14
1.00171e-13
6.28705e-14
1.60014e-14
-6.25919e-13
1.03464e-13
1.8364e-13
-1.18837e-13
1.89681e-13
6.58763e-14
-6.77457e-14
1.06025e-13
3.41675e-14
-4.64853e-14
6.8293e-14
1.49814e-14
-1.98296e-14
-1.20611e-15
2.11227e-12
2.31573e-12
-8.14505e-14
1.53006e-13
2.85686e-13
-6.66909e-15
2.92914e-13
1.42324e-13
-4.3807e-15
9.67186e-14
5.23651e-14
-2.14828e-14
9.03433e-14
1.33957e-14
2.14519e-15
2.27912e-12
2.25245e-12
8.47475e-14
3.13007e-13
6.73951e-14
1.46623e-13
2.93349e-13
1.03486e-13
1.3185e-13
1.69022e-13
-1.90873e-15
3.76983e-14
4.04141e-14
-2.63872e-15
-2.22738e-15
2.57714e-12
2.03126e-12
1.86551e-13
6.71168e-13
1.2652e-14
2.33914e-13
4.1744e-13
1.4638e-13
1.95072e-13
2.53834e-13
-9.51442e-15
6.80013e-14
8.30339e-14
-3.30678e-14
-6.70186e-14
2.38988e-12
2.22501e-12
3.35424e-13
4.60971e-13
1.55002e-13
2.13794e-13
3.66918e-13
7.21635e-14
2.12456e-13
1.78173e-13
4.53918e-14
4.78955e-14
5.62753e-14
-1.35532e-14
-7.78518e-14
2.10342e-12
2.28348e-12
5.15141e-13
4.03765e-13
1.40296e-13
1.93787e-13
3.43381e-13
4.43812e-14
1.21383e-13
1.59687e-13
6.23439e-14
4.73434e-14
4.50103e-14
-1.41706e-14
-1.46991e-14
1.89162e-12
2.36393e-12
7.7379e-13
3.75954e-13
1.81369e-13
2.33985e-13
3.487e-13
1.1129e-13
9.47264e-14
1.49976e-13
6.65508e-14
5.4725e-14
4.49132e-14
6.16821e-14
1.25453e-13
1.65921e-12
2.38394e-12
9.77824e-13
4.14133e-13
2.11634e-13
2.35699e-13
3.1377e-13
1.35203e-13
1.27551e-13
1.38095e-13
9.79998e-14
8.86157e-14
4.30136e-14
1.08378e-14
1.92781e-13
1.38835e-12
2.37389e-12
1.16236e-12
4.52818e-13
2.26723e-13
2.13101e-13
3.20069e-13
1.8308e-13
1.46475e-13
1.36829e-13
1.00076e-13
8.67194e-14
8.22082e-14
7.64352e-15
2.22224e-14
1.18846e-12
2.33015e-12
1.27437e-12
5.12805e-13
2.41085e-13
1.92001e-13
2.76443e-13
1.94586e-13
1.11279e-13
1.03692e-13
7.35913e-14
2.25776e-14
-1.56012e-14
1.20017e-14
-9.26449e-14
9.92365e-13
2.24865e-12
1.36832e-12
5.49158e-13
2.53524e-13
1.82513e-13
2.19129e-13
1.9944e-13
4.6381e-14
1.02996e-13
1.15976e-13
4.9638e-14
-4.83402e-14
-1.06214e-14
-1.27614e-13
8.61299e-13
2.18037e-12
1.42036e-12
5.72671e-13
2.7504e-13
1.4651e-13
2.31618e-13
2.09903e-13
2.02391e-14
1.25627e-13
1.44964e-13
1.95989e-14
3.59109e-14
-1.08019e-13
-1.74264e-13
7.93e-13
2.13055e-12
1.4488e-12
6.18543e-13
2.96049e-13
1.37929e-13
2.24505e-13
2.29597e-13
4.35176e-14
9.30239e-14
1.11213e-13
-2.93408e-14
-6.35669e-15
-1.22454e-13
-1.31893e-13
7.46463e-13
2.08137e-12
1.48123e-12
6.3776e-13
3.05802e-13
1.4296e-13
2.17649e-13
2.46498e-13
4.49972e-14
9.02754e-14
1.06808e-13
-3.79523e-14
-1.12365e-14
-1.02776e-13
-1.15286e-13
7.38841e-13
2.00843e-12
1.47826e-12
6.60878e-13
3.13119e-13
1.55389e-13
2.19898e-13
2.33646e-13
5.89179e-14
9.17555e-14
8.71739e-14
-2.87444e-14
-1.59238e-14
-1.00171e-13
-6.28705e-14
)
;
    }
    inlet
    {
        type            calculated;
        value           nonuniform List<scalar> 
15
(
-1299.9
-1300.2
-1299.9
-1299.9
-1300.2
-1299.9
-1299.9
-1300.2
-1299.9
-1299.9
-1300.2
-1299.9
-1299.9
-1300.2
-1299.9
)
;
    }
    inletWalls
    {
        type            calculated;
        value           uniform 0;
    }
    outletInlet
    {
        type            calculated;
        value           nonuniform List<scalar> 
15
(
198.266
527.475
785.4
982.008
1128.54
1249.99
1367.12
1486.58
1606.74
1731.81
1879.01
2054.91
2138.09
1729.92
634.154
)
;
    }
}


// ************************************************************************* //
