/*--------------------------------*- C++ -*----------------------------------*\
| =========                 |                                                 |
| \\      /  F ield         | OpenFOAM: The Open Source CFD Toolbox           |
|  \\    /   O peration     | Version:  4.1                                   |
|   \\  /    A nd           | Web:      www.OpenFOAM.org                      |
|    \\/     M anipulation  |                                                 |
\*---------------------------------------------------------------------------*/
FoamFile
{
    version     2.0;
    format      ascii;
    class       volScalarField;
    location    "13";
    object      p;
}
// * * * * * * * * * * * * * * * * * * * * * * * * * * * * * * * * * * * * * //

dimensions      [0 2 -2 0 0 0 0];

internalField   nonuniform List<scalar> 
6785
(
610.061
531.945
485.353
432.382
386.072
341.496
299.994
260.703
223.506
188.188
154.066
120.742
91.669
61.6729
20.7347
3.53636
-13.7124
-3.55627
-10.318
-9.43751
-11.6713
-12.1874
-12.6617
-12.2509
-10.9585
-8.50289
-5.3567
-0.967958
5.41797
8.82414
34.2016
30.4138
39.7962
35.5751
39.7999
39.0823
40.3852
40.4986
40.8642
41.0657
41.5253
42.0268
42.2911
42.519
43.0311
50.6932
46.6303
48.7905
42.9649
43.5201
39.6611
38.3633
35.802
34.0449
32.2173
30.9062
29.9043
28.6472
26.4744
24.3783
6.20853
1.8312
2.52083
-1.93321
-1.53121
-5.06411
-6.01426
-8.60833
-10.4288
-12.5878
-14.3091
-15.5704
-16.6572
-17.7066
-16.6098
-7.3445
-9.45384
-7.19889
-9.75393
-7.57867
-9.43383
-8.44573
-9.15795
-8.95615
-9.00294
-8.47333
-7.37767
-5.44158
-3.93131
-1.12446
17.1083
17.5199
20.5241
19.8532
23.0529
23.1468
25.4746
26.618
28.403
29.9864
31.7308
33.3495
35.2547
36.58
38.9946
39.2763
40.2948
42.5262
42.214
44.6724
44.8365
46.5395
47.3819
48.6033
49.6635
50.7965
51.8119
52.9913
53.7873
55.0094
54.2517
55.3362
57.0374
56.8258
58.7144
58.8388
60.1188
60.7795
61.6917
62.5114
63.3654
64.172
65.1869
65.9276
67.1515
70.2976
71.5877
72.8774
72.9904
74.5062
74.6326
75.5638
75.6151
75.7317
75.6347
75.7102
76.2157
77.082
77.7929
78.5456
80.5828
81.0106
81.5057
81.0767
81.6304
81.1029
81.139
80.6695
80.4011
80.013
79.6268
79.1854
78.4932
78.3128
77.426
81.9364
79.4138
79.3004
77.5949
77.1146
75.3834
74.0364
71.6798
68.9321
65.4043
61.6888
58.4242
56.618
56.0136
52.8543
48.7944
43.0011
40.3302
35.9585
32.4215
28.1987
24.7888
21.4789
19.0221
17.1834
16.1506
15.9061
16.0662
15.5209
13.2192
14.7955
12.5641
9.82717
6.04972
3.13399
0.091385
-1.94723
-3.69252
-4.94262
-5.98988
-6.86263
-7.66268
-8.36871
-9.22398
-9.03235
48.8587
47.5513
42.6834
36.0758
28.0247
20.3341
14.6267
9.71386
5.57063
3.35069
1.84002
1.09737
1.43866
2.02252
3.31892
46.0893
46.0745
49.6336
45.797
46.0172
47.02
45.9294
45.1321
45.0149
44.8863
44.5346
43.4885
43.7692
43.4015
42.4584
42.2233
42.6428
42.5066
41.2921
42.044
41.844
41.0155
40.829
41.5095
41.3106
40.6192
40.4842
40.9835
41.035
40.3105
40.7513
40.8272
40.3873
40.2907
40.546
40.6853
40.2618
40.4331
40.5717
40.317
40.2348
40.3523
40.4124
40.2199
40.1477
40.2352
40.146
39.9119
40.0497
39.9316
39.765
39.699
39.7875
39.8467
39.748
39.6822
39.7163
40.0073
39.9428
39.8652
40.2444
40.2174
40.1766
40.1199
40.4163
40.5287
41.0596
40.3548
39.3538
40.3666
40.7808
36.1543
33.6642
36.4284
38.1386
21.2871
28.9185
32.4434
-0.744863
8.41639
12.2089
10.0846
13.5314
8.89717
6.08513
10.7621
10.8342
11.8364
12.2442
13.3025
15.8464
19.4925
20.5517
13.6309
15.8959
19.7845
23.8248
24.7785
26.9631
28.556
30.6468
36.3618
32.3964
36.3102
37.7353
40.7956
45.1462
48.0624
49.7453
52.0991
51.1607
61.8875
57.2922
59.8663
60.8948
62.0148
64.3112
67.8369
69.7982
65.4811
72.3072
72.5225
75.6045
76.5352
75.899
75.0184
74.0203
76.0507
70.2376
79.6631
78.1182
73.3901
72.8179
71.5547
67.9684
65.2985
62.7146
52.9903
62.3605
65.5214
58.397
54.9164
49.6633
43.9922
38.5979
35.1707
30.8135
23.8255
25.1387
24.8443
19.2399
18.5021
16.8168
14.6988
8.31438
6.39283
8.63308
0.0578511
11.2761
8.47034
6.5879
13.7054
6.91241
10.1653
8.64668
10.7558
13.9202
8.80188
11.5803
13.6374
10.0949
11.4214
10.4153
11.4013
13.6491
10.1612
11.3343
10.2391
11.2425
13.3605
9.27491
11.2065
12.9232
9.60087
10.642
9.52431
10.4045
12.6398
8.90962
10.0719
8.75917
9.86112
12.0873
7.51469
9.6618
11.4191
7.74672
8.90241
7.58509
8.58977
10.754
6.90838
8.1261
6.7453
7.85678
9.8497
5.57656
7.55359
9.0165
5.76515
6.7733
5.62161
6.44833
8.11991
4.98881
5.94998
4.84225
5.65846
7.02534
3.85991
5.24561
6.1062
3.81069
4.44989
3.61697
4.09617
4.93017
2.91278
3.42162
2.66631
3.04462
3.51554
1.6931
2.29517
2.39463
1.09588
1.25128
0.655375
0.723541
1.09036
0.000699044
0.00116043
0.00192146
0.00245291
0.00308746
0.00365871
0.00426658
0.00486069
0.00547176
0.00608502
0.00670987
0.00734175
0.00798266
0.00862971
0.00928086
0.0099314
0.0105754
0.0112047
0.0118093
0.0123782
0.0128994
0.0133621
0.0137577
0.0140816
0.0143346
0.0145235
0.0146618
0.0147688
0.0148676
0.014981
0.0151263
0.0153113
0.015535
0.0157957
0.0161078
0.0165184
0.0171111
0.0179881
0.0192202
0.0207855
0.0225213
0.024186
0.0255814
0.0264909
0.0267742
0.0263799
0.025303
0.0236038
0.021299
0.0182872
0.0142617
0.00870796
0.00103015
-0.00933583
-0.022949
-0.0398642
-0.0594728
-0.0849587
-0.106499
-0.128605
-0.522066
-0.492845
-0.554405
-0.705494
-0.810707
-0.864839
-0.836995
-0.754684
-0.599451
-0.421594
-0.218152
-0.0391668
0.141411
0.223474
0.367333
0.337925
0.380983
0.530294
0.0214726
0.00201206
0.00329791
0.00542667
0.006953
0.00872091
0.0103234
0.0120039
0.0136442
0.0153176
0.016991
0.0186864
0.0203939
0.0221174
0.0238496
0.0255839
0.0273069
0.0290011
0.030643
0.0322042
0.0336525
0.0349544
0.0360795
0.0370043
0.0377169
0.0382213
0.0385391
0.0387109
0.0387937
0.0388549
0.0389609
0.0391618
0.0394797
0.0399102
0.040448
0.0411342
0.0421036
0.0435973
0.0459099
0.0492463
0.0535467
0.058351
0.0629852
0.0669248
0.0695986
0.0706685
0.070062
0.0678527
0.0643271
0.0596837
0.0538283
0.0461177
0.0353125
0.0198606
-0.00193001
-0.0321608
-0.0720521
-0.121962
-0.192465
-0.247267
-0.362281
-0.916565
-0.913516
-1.05467
-1.35633
-1.56466
-1.6746
-1.62317
-1.46068
-1.16546
-0.820326
-0.454861
-0.101105
0.198948
0.429487
0.635206
0.7329
0.844148
0.987394
0.977898
0.00313541
0.00532806
0.0089586
0.0115492
0.0145588
0.0172825
0.0201427
0.0229342
0.0257844
0.0286359
0.0315269
0.0344403
0.0373834
0.0403438
0.0433107
0.0462618
0.049168
0.0519898
0.0546796
0.0571832
0.0594445
0.0614115
0.0630444
0.0643228
0.0652524
0.0658691
0.06624
0.0664609
0.0666449
0.0669035
0.0673212
0.0679347
0.0687359
0.0697139
0.0709361
0.0726286
0.0751986
0.0791462
0.0848216
0.0921252
0.100274
0.108124
0.114778
0.119252
0.12096
0.119748
0.115713
0.1093
0.100794
0.0899676
0.0756459
0.0556391
0.0272582
-0.0123595
-0.0666078
-0.137151
-0.224697
-0.344289
-0.428692
-0.664989
-1.11495
-1.12557
-1.3062
-1.68826
-1.94537
-2.0779
-2.00837
-1.80266
-1.43364
-1.00502
-0.55777
-0.120134
0.238463
0.532573
0.77554
0.908461
1.08681
1.1548
1.39429
0.00420892
0.0072927
0.0123553
0.0159939
0.0201993
0.0240116
0.0280058
0.0319048
0.0358816
0.0398592
0.0438896
0.04795
0.0520503
0.0561736
0.0603048
0.0644131
0.0684577
0.0723838
0.0761246
0.0796046
0.082745
0.0854733
0.0877337
0.0894974
0.0907725
0.0916091
0.0921015
0.0923837
0.0926148
0.0929516
0.0935126
0.0943486
0.0954457
0.0967849
0.0984567
0.100776
0.104317
0.109787
0.11769
0.127892
0.139286
0.150266
0.15958
0.165851
0.168269
0.166623
0.161067
0.152244
0.140582
0.125797
0.106255
0.0788859
0.0399147
-0.0147071
-0.0897526
-0.187558
-0.310219
-0.475302
-0.587474
-0.979148
-1.35304
-1.41016
-1.62767
-2.11243
-2.43524
-2.59645
-2.50418
-2.24433
-1.78079
-1.24579
-0.689865
-0.145265
0.296548
0.6623
0.962921
1.1196
1.36645
1.39935
1.68664
0.00517877
0.00918877
0.0156903
0.0203988
0.0258181
0.0307394
0.0358872
0.0409139
0.0460376
0.0511622
0.0563536
0.0615835
0.0668643
0.072175
0.0774964
0.0827891
0.088001
0.0930615
0.0978851
0.102374
0.106427
0.109951
0.112872
0.115153
0.116804
0.117889
0.11853
0.118898
0.119201
0.119642
0.120373
0.12146
0.122881
0.124605
0.126741
0.129693
0.134205
0.141208
0.151374
0.164541
0.179261
0.19345
0.205493
0.213595
0.216713
0.214569
0.207364
0.195942
0.180879
0.161821
0.136639
0.101321
0.0509634
-0.019682
-0.116663
-0.242798
-0.401783
-0.609968
-0.753983
-1.32182
-1.57913
-1.72341
-1.97779
-2.57909
-2.97751
-3.16998
-3.05173
-2.73168
-2.16355
-1.51148
-0.837899
-0.174767
0.355186
0.80557
1.16288
1.35909
1.6719
1.67078
2.16497
0.00608462
0.0110346
0.0189398
0.0247221
0.0313422
0.0373683
0.043659
0.0498046
0.0560635
0.0623235
0.0686624
0.0750479
0.0814944
0.0879772
0.094473
0.100934
0.107297
0.113476
0.119366
0.124848
0.129798
0.134099
0.137663
0.140442
0.14245
0.143762
0.144528
0.14496
0.145312
0.145834
0.146718
0.148039
0.149767
0.151851
0.154416
0.157952
0.163379
0.171865
0.184269
0.200409
0.218479
0.235904
0.250706
0.260662
0.264509
0.261894
0.25309
0.239165
0.220877
0.197836
0.16743
0.124698
0.0636207
-0.022218
-0.140043
-0.293136
-0.487084
-0.733812
-0.917276
-1.67036
-1.75899
-2.02904
-2.31785
-3.03767
-3.51143
-3.73066
-3.58252
-3.20155
-2.52894
-1.76318
-0.976133
-0.198554
0.413991
0.947015
1.35537
1.59067
1.96518
1.93177
2.51065
0.00692031
0.0128367
0.0221225
0.0289899
0.0368089
0.0439462
0.0513812
0.0586493
0.0660451
0.0734426
0.0809308
0.0884736
0.0960877
0.103745
0.111418
0.119051
0.126569
0.133872
0.140835
0.147316
0.153169
0.158254
0.162466
0.165748
0.168113
0.169652
0.170541
0.171032
0.171428
0.17203
0.173066
0.174626
0.176662
0.179102
0.182077
0.186163
0.192463
0.202399
0.217043
0.236205
0.257696
0.278427
0.296057
0.307907
0.312498
0.309395
0.298954
0.282487
0.260961
0.233978
0.198426
0.148366
0.0766791
-0.0241638
-0.162407
-0.34174
-0.569537
-0.850885
-1.08324
-1.99824
-1.87822
-2.33149
-2.66474
-3.5107
-4.06342
-4.30587
-4.1227
-3.67751
-2.89583
-2.01462
-1.11241
-0.219333
0.475555
1.09159
1.54926
1.82267
2.25425
2.18897
2.87449
0.00769921
0.0146039
0.0252376
0.0331974
0.0422062
0.0504554
0.0590298
0.0674179
0.0759457
0.0844763
0.0931081
0.101803
0.110579
0.119405
0.12825
0.13705
0.145719
0.154142
0.162175
0.169653
0.176406
0.182272
0.187127
0.190905
0.193618
0.195372
0.196369
0.196904
0.197329
0.197999
0.199179
0.200972
0.203311
0.206091
0.209445
0.21403
0.221141
0.232476
0.249355
0.271588
0.29657
0.320682
0.341208
0.354996
0.360353
0.356759
0.344666
0.325662
0.300963
0.270192
0.229737
0.172665
0.0908028
-0.0243968
-0.182033
-0.386219
-0.645929
-0.958697
-1.2451
-2.24925
-1.9205
-2.62353
-3.02406
-4.00815
-4.6451
-4.90666
-4.68212
-4.168
-3.27059
-2.27022
-1.24955
-0.238028
0.539685
1.24153
1.74622
2.06052
2.54391
2.4465
3.2376
0.00842463
0.0163423
0.0282927
0.0373534
0.0475442
0.0569078
0.0666184
0.0761259
0.0857832
0.0954448
0.105218
0.115062
0.124997
0.13499
0.145004
0.154971
0.164792
0.174335
0.18344
0.191918
0.199573
0.206222
0.21172
0.215991
0.219047
0.221008
0.222102
0.222667
0.223108
0.223835
0.225153
0.227178
0.229819
0.232929
0.236631
0.241661
0.249516
0.262197
0.281308
0.306678
0.335245
0.362832
0.386343
0.402123
0.408269
0.404165
0.390382
0.368805
0.340944
0.306476
0.261278
0.197414
0.105727
-0.0232351
-0.199266
-0.426974
-0.716699
-1.05918
-1.39801
-2.39376
-1.9335
-2.9229
-3.39605
-4.5313
-5.2577
-5.53178
-5.25787
-4.66957
-3.64941
-2.52683
-1.38515
-0.253239
0.606688
1.3966
1.94473
2.30321
2.83175
2.7168
3.53848
0.00910325
0.0180576
0.0312914
0.04146
0.0528226
0.0633017
0.0741436
0.0847685
0.0955509
0.10634
0.117249
0.128239
0.139329
0.150484
0.161666
0.172796
0.183767
0.194432
0.204609
0.214087
0.222646
0.230077
0.236217
0.240976
0.244368
0.246523
0.2477
0.248278
0.248718
0.249487
0.250937
0.253192
0.256132
0.259559
0.263572
0.268985
0.277503
0.291464
0.312805
0.34139
0.373649
0.404819
0.431415
0.449245
0.456207
0.451573
0.436049
0.411851
0.380822
0.342729
0.292934
0.222507
0.121398
-0.020614
-0.213892
-0.46369
-0.781554
-1.15326
-1.54204
-2.47913
-1.9779
-3.22635
-3.78659
-5.08545
-5.90828
-6.18597
-5.85253
-5.18379
-4.03269
-2.78447
-1.51878
-0.264487
0.676978
1.55728
2.14494
2.55101
3.11747
2.98173
3.87199
0.00973929
0.0197545
0.0342386
0.0455219
0.058046
0.0696415
0.0816095
0.0933498
0.105253
0.117166
0.129208
0.141338
0.15358
0.165895
0.178241
0.190534
0.202654
0.214441
0.225693
0.236175
0.24564
0.253855
0.260635
0.265879
0.269599
0.271937
0.27318
0.273752
0.274172
0.27497
0.276543
0.279029
0.282269
0.285998
0.290284
0.296009
0.305099
0.320267
0.343836
0.375729
0.411802
0.446683
0.476479
0.496428
0.504232
0.499037
0.481697
0.454781
0.420507
0.378773
0.324432
0.247574
0.137385
-0.0169936
-0.226418
-0.497005
-0.841482
-1.24319
-1.68212
-2.54762
-2.11433
-3.49487
-4.20449
-5.67663
-6.60588
-6.87609
-6.47025
-5.71351
-4.42184
-3.04389
-1.65059
-0.27162
0.751045
1.72424
2.34706
2.80498
3.40181
3.24063
4.21558
0.0103372
0.021437
0.0371381
0.0495424
0.0632164
0.0759284
0.0890167
0.10187
0.114889
0.127922
0.141091
0.154359
0.167747
0.181218
0.194726
0.208179
0.22145
0.23436
0.246689
0.258177
0.268552
0.277552
0.284972
0.290697
0.294735
0.297243
0.298534
0.299079
0.299458
0.300268
0.301957
0.304673
0.308214
0.312234
0.31675
0.322707
0.332266
0.348551
0.374347
0.409655
0.449684
0.488419
0.521543
0.543689
0.552364
0.546561
0.527291
0.497487
0.459791
0.41428
0.355312
0.272049
0.153061
-0.013015
-0.237536
-0.527764
-0.897756
-1.33106
-1.82107
-2.62426
-2.38095
-3.73726
-4.66473
-6.31027
-7.35923
-7.60893
-7.11458
-6.26069
-4.81736
-3.30515
-1.78013
-0.274072
0.828945
1.89808
2.55158
3.06592
3.68461
3.52085
4.50919
0.0109006
0.0231084
0.0399939
0.0535248
0.0683369
0.0821652
0.0963673
0.11033
0.12446
0.138609
0.152901
0.167301
0.181831
0.196455
0.211122
0.225735
0.240155
0.25419
0.267599
0.280098
0.291386
0.301174
0.309234
0.315434
0.319783
0.322445
0.323766
0.32426
0.324575
0.325377
0.327174
0.330123
0.333968
0.338267
0.342967
0.349069
0.358977
0.376278
0.404298
0.443146
0.48729
0.530044
0.566639
0.591069
0.600638
0.594151
0.572766
0.539788
0.498333
0.448727
0.384873
0.295088
0.167513
-0.00961774
-0.248281
-0.557231
-0.952144
-1.41891
-1.96119
-2.73796
-2.81697
-3.96679
-5.18159
-6.99202
-8.17783
-8.39233
-7.78974
-6.82752
-5.2198
-3.56831
-1.90706
-0.271719
0.912187
2.07923
2.75744
3.33501
3.96559
3.78487
4.83434
0.0114328
0.0247716
0.0428094
0.0574722
0.0734098
0.0883535
0.103663
0.118732
0.133967
0.149227
0.164636
0.180163
0.195832
0.211604
0.227427
0.243198
0.258769
0.273932
0.288425
0.301939
0.314144
0.324724
0.333422
0.340094
0.344742
0.347545
0.348872
0.349289
0.349514
0.350289
0.352184
0.355369
0.359526
0.364094
0.368931
0.37508
0.385201
0.403397
0.433638
0.47617
0.524606
0.571563
0.611789
0.638595
0.649069
0.641765
0.617964
0.581349
0.535588
0.481348
0.412154
0.315625
0.179677
-0.00785103
-0.259788
-0.586771
-1.00651
-1.50868
-2.10547
-2.90201
-3.35139
-4.13928
-5.75381
-7.72881
-9.07228
-9.23522
-8.50095
-7.41675
-5.6299
-3.83395
-2.03104
-0.264925
1.00306
2.26696
2.96817
3.61131
4.24544
4.06268
5.14714
0.0119366
0.0264291
0.045588
0.0613873
0.0784377
0.0944954
0.110904
0.127076
0.14341
0.159775
0.176296
0.192946
0.209747
0.226664
0.243641
0.260569
0.277291
0.293584
0.309166
0.323702
0.33683
0.348203
0.357541
0.36468
0.369618
0.372543
0.373853
0.374166
0.374271
0.374997
0.376981
0.380407
0.384886
0.389715
0.394637
0.400725
0.410907
0.429859
0.462316
0.508696
0.56162
0.612989
0.657019
0.686293
0.697644
0.689283
0.662585
0.621641
0.570779
0.511124
0.435982
0.332481
0.18846
-0.00875179
-0.273169
-0.617723
-1.06266
-1.60234
-2.25674
-3.10408
-3.79992
-4.26963
-6.40273
-8.52699
-10.0545
-10.1474
-9.2542
-8.03155
-6.0485
-4.10277
-2.15166
-0.2533
1.1021
2.46016
3.1894
3.89354
4.52361
4.33563
5.4312
0.0124144
0.028083
0.0483327
0.0652728
0.0834226
0.100593
0.118093
0.135363
0.152789
0.170255
0.187881
0.205647
0.223577
0.241634
0.259762
0.277846
0.29572
0.313147
0.329823
0.345386
0.359443
0.371616
0.381594
0.389196
0.394412
0.397441
0.398709
0.398886
0.398839
0.39949
0.401553
0.405229
0.410044
0.41513
0.420085
0.425994
0.436061
0.455607
0.490272
0.540689
0.598319
0.654333
0.702349
0.734163
0.746275
0.736442
0.706123
0.659892
0.602874
0.536835
0.455116
0.344551
0.192926
-0.0131751
-0.289335
-0.651193
-1.1221
-1.70174
-2.41731
-3.33305
-4.15169
-4.44557
-7.13144
-9.39578
-11.1377
-11.1395
-10.056
-8.67569
-6.4767
-4.37497
-2.26849
-0.236237
1.20968
2.65948
3.42089
4.18309
4.80044
4.60369
5.76883
0.0128685
0.0297352
0.0510462
0.0691308
0.0883668
0.106647
0.125231
0.143593
0.162106
0.180666
0.19939
0.218268
0.23732
0.256514
0.275789
0.295029
0.314056
0.332621
0.350397
0.366994
0.381988
0.394964
0.405583
0.413643
0.419127
0.42224
0.423439
0.423445
0.423211
0.42376
0.425893
0.429829
0.434999
0.440341
0.445275
0.450875
0.460631
0.48058
0.517443
0.572113
0.63469
0.695604
0.747783
0.782146
0.794739
0.782763
0.74781
0.695076
0.630651
0.55721
0.468449
0.35099
0.192436
-0.0216799
-0.308892
-0.687956
-1.18592
-1.80838
-2.58991
-3.58999
-4.49901
-4.78104
-7.90645
-10.3539
-12.3352
-12.2224
-10.9135
-9.35355
-6.91565
-4.65068
-2.38111
-0.213227
1.32638
2.86551
3.66238
4.47915
5.07859
4.8946
6.08332
0.0133005
0.0313872
0.053731
0.0729636
0.0932722
0.112659
0.132318
0.151768
0.171359
0.191007
0.210823
0.230806
0.250975
0.271301
0.29172
0.312115
0.332298
0.352004
0.370887
0.388527
0.404465
0.418251
0.429513
0.438026
0.443766
0.446943
0.448042
0.447841
0.447381
0.447797
0.449989
0.454198
0.459749
0.465351
0.47021
0.475361
0.48458
0.504711
0.543761
0.60293
0.670716
0.736802
0.793278
0.830061
0.842591
0.827474
0.786595
0.725958
0.652843
0.571157
0.475219
0.351346
0.186733
-0.0344551
-0.332073
-0.728389
-1.25473
-1.92323
-2.77677
-3.87641
-4.87604
-5.33771
-8.73313
-11.4223
-13.6596
-13.4068
-11.8339
-10.0701
-7.36647
-4.92997
-2.4891
-0.183749
1.45275
3.07865
3.91456
4.78025
5.36017
5.17818
6.37191
0.0137121
0.0330406
0.0563895
0.076773
0.0981407
0.118631
0.139357
0.159888
0.180549
0.201279
0.22218
0.243261
0.26454
0.285993
0.307555
0.329103
0.350443
0.371296
0.391292
0.409985
0.426876
0.441478
0.453386
0.462348
0.468331
0.471551
0.472518
0.472069
0.47134
0.471589
0.473829
0.47833
0.484293
0.490167
0.494896
0.499444
0.507875
0.527927
0.569148
0.633098
0.706377
0.777898
0.838693
0.877508
0.889064
0.869472
0.821178
0.751253
0.668384
0.577983
0.475136
0.345615
0.17597
-0.0513081
-0.358739
-0.772467
-1.32865
-2.04666
-2.9791
-4.19171
-5.30532
-6.15135
-9.61835
-12.6243
-15.1246
-14.7029
-12.8245
-10.8308
-7.83062
-5.2129
-2.59202
-0.147227
1.58927
3.2994
4.17793
5.08708
5.64704
5.45784
6.7195
0.0141046
0.0346966
0.0590237
0.0805609
0.102974
0.124564
0.146346
0.167954
0.189677
0.21148
0.233459
0.255631
0.278015
0.30059
0.32329
0.345991
0.36849
0.390495
0.411614
0.431368
0.449223
0.464649
0.477205
0.486613
0.492826
0.496065
0.496866
0.496125
0.495079
0.495125
0.4974
0.502214
0.508631
0.514795
0.51934
0.52312
0.530477
0.550149
0.593523
0.662575
0.741631
0.818788
0.88369
0.923757
0.933007
0.907329
0.850156
0.769887
0.67666
0.577525
0.4684
0.334221
0.160678
-0.0717024
-0.388415
-0.819812
-1.40735
-2.17843
-3.19694
-4.53385
-5.80123
-7.22573
-10.5372
-13.9749
-16.7479
-16.1216
-13.893
-11.6414
-8.30994
-5.49961
-2.6894
-0.103068
1.73641
3.5283
4.4528
5.4005
5.94045
5.77874
7.04454
0.0144791
0.0363563
0.0616356
0.0843288
0.107773
0.130459
0.153288
0.175964
0.198742
0.221611
0.244659
0.267915
0.291397
0.315089
0.338924
0.362777
0.386437
0.409599
0.431849
0.452677
0.471507
0.487766
0.500973
0.510822
0.517253
0.520487
0.521086
0.520005
0.51859
0.51839
0.520689
0.525841
0.532763
0.539244
0.543556
0.54639
0.552351
0.571288
0.616793
0.691305
0.776389
0.859213
0.927612
0.967654
0.972855
0.939423
0.872321
0.781289
0.677638
0.570138
0.455642
0.317941
0.141684
-0.0948377
-0.420369
-0.869751
-1.49015
-2.31778
-3.42931
-4.89998
-6.36625
-8.46923
-11.4165
-15.4687
-18.5511
-17.6747
-15.0469
-12.5077
-8.8065
-5.79035
-2.78076
-0.0506747
1.89463
3.76592
4.73939
5.72032
6.23975
6.0809
7.33604
0.0148364
0.0380208
0.0642268
0.0880781
0.11254
0.136317
0.160183
0.183921
0.207743
0.231671
0.255779
0.280112
0.304684
0.329487
0.354453
0.379457
0.404282
0.428608
0.451999
0.473911
0.493728
0.510831
0.524693
0.534981
0.541615
0.54482
0.545178
0.543704
0.541864
0.541372
0.54368
0.549202
0.556688
0.563527
0.567559
0.569258
0.573458
0.591249
0.638856
0.719203
0.810449
0.898633
0.969371
1.00756
1.00672
0.964248
0.887014
0.785544
0.671828
0.556589
0.437805
0.297791
0.120007
-0.119748
-0.453696
-0.921389
-1.57605
-2.46348
-3.6744
-5.28703
-6.9902
-9.70612
-12.2527
-17.131
-20.556
-19.3745
-16.2934
-13.4353
-9.32231
-6.0855
-2.86564
0.0105576
2.06432
4.01282
5.03791
6.04661
6.54661
6.40861
7.67913
0.0151771
0.0396912
0.0667989
0.09181
0.117275
0.142138
0.167031
0.191823
0.21668
0.241658
0.266818
0.292219
0.317874
0.343782
0.369876
0.39603
0.422021
0.447517
0.47206
0.495071
0.515889
0.533846
0.548369
0.559091
0.565916
0.569066
0.56914
0.567218
0.564889
0.564052
0.566354
0.572285
0.580409
0.587657
0.591371
0.591733
0.593762
0.609924
0.659586
0.746114
0.843391
0.936107
1.00737
1.04138
1.03268
0.980879
0.89436
0.783346
0.660133
0.537902
0.416009
0.274907
0.0967496
-0.145397
-0.487388
-0.973666
-1.66381
-2.61393
-3.92969
-5.69144
-7.65925
-10.8394
-13.1512
-19.0322
-22.7892
-21.2333
-17.6385
-14.4292
-9.85907
-6.38567
-2.94355
0.0812295
2.24589
4.26958
5.34844
6.37939
6.86105
6.73316
7.9501
0.0155019
0.0413682
0.0693532
0.0955258
0.12198
0.147923
0.173833
0.19967
0.225554
0.251572
0.277775
0.304235
0.330966
0.357972
0.385189
0.412492
0.439652
0.466326
0.492031
0.516156
0.53799
0.556812
0.572002
0.583156
0.590159
0.593226
0.592974
0.590543
0.587654
0.586416
0.588695
0.595077
0.603926
0.611652
0.615019
0.613832
0.613225
0.627189
0.678813
0.771736
0.874451
0.970209
1.03944
1.06675
1.04935
0.98933
0.895204
0.775782
0.643657
0.515204
0.391417
0.250429
0.0730008
-0.170739
-0.520378
-1.02538
-1.75194
-2.76714
-4.19196
-6.10877
-8.36309
-11.9014
-14.2323
-21.1397
-25.2879
-23.2637
-19.0865
-15.4936
-10.4181
-6.69162
-3.01404
0.161931
2.43968
4.53675
5.67103
6.71847
7.18404
7.0532
8.29675
0.0158109
0.0430528
0.0718908
0.0992263
0.126656
0.153674
0.180589
0.207463
0.234362
0.261411
0.288647
0.316157
0.343955
0.372054
0.400389
0.428839
0.457171
0.48503
0.511911
0.537164
0.560031
0.579733
0.595597
0.607181
0.614347
0.617303
0.616679
0.613673
0.610148
0.608442
0.610679
0.617563
0.62724
0.635531
0.638534
0.63558
0.63181
0.642893
0.696271
0.7955
0.902455
0.998958
1.06294
1.08169
1.05647
0.990543
0.890844
0.764106
0.623534
0.489586
0.365125
0.225417
0.0497871
-0.19474
-0.551538
-1.0752
-1.83875
-2.92075
-4.45729
-6.53381
-9.09149
-12.9044
-15.5621
-23.3707
-28.0946
-25.4807
-20.6413
-16.6316
-11.0001
-7.00416
-3.07665
0.253235
2.64601
4.81485
6.00562
7.06401
7.51665
7.41344
8.62784
0.0161044
0.0447458
0.0744129
0.102913
0.131304
0.159389
0.187298
0.215201
0.243105
0.271175
0.299433
0.327984
0.35684
0.386024
0.415473
0.445068
0.474574
0.503626
0.531695
0.558095
0.582012
0.602609
0.619155
0.631167
0.638484
0.641301
0.640255
0.636604
0.632358
0.63011
0.632282
0.639727
0.650353
0.659318
0.661958
0.65701
0.649476
0.656833
0.711514
0.81652
0.925802
1.01971
1.07522
1.08542
1.05499
0.986045
0.882728
0.749544
0.600787
0.462
0.338089
0.200811
0.0280659
-0.21637
-0.579677
-1.12168
-1.9224
-3.07216
-4.72129
-6.96099
-9.83203
-13.8521
-17.1624
-25.6627
-31.2592
-27.9025
-22.3064
-17.8456
-11.6055
-7.32395
-3.13093
0.355696
2.86515
5.10431
6.3521
7.41583
7.85817
7.7572
8.898
0.0163824
0.046448
0.0769203
0.106585
0.135923
0.16507
0.193962
0.222882
0.25178
0.280861
0.310131
0.339713
0.369618
0.399878
0.430435
0.461175
0.491858
0.522111
0.551382
0.578946
0.603934
0.625441
0.642679
0.655118
0.662572
0.665222
0.663704
0.65933
0.654269
0.651397
0.653478
0.661551
0.673268
0.683038
0.68534
0.678168
0.666165
0.668695
0.723842
0.83368
0.942279
1.02932
1.07471
1.07875
1.04667
0.977529
0.872234
0.733167
0.576243
0.433202
0.3111
0.177442
0.00875427
-0.23457
-0.603547
-1.16335
-2.00105
-3.21871
-4.97957
-7.38502
-10.5711
-14.7652
-19.12
-28.0011
-34.8638
-30.5499
-24.0849
-19.1363
-12.2337
-7.65116
-3.17639
0.469862
3.09732
5.4055
6.71027
7.7736
8.20976
8.08988
9.24648
0.0166447
0.0481602
0.0794137
0.110245
0.140516
0.170716
0.200579
0.230508
0.260388
0.290469
0.320739
0.351341
0.382284
0.413613
0.445273
0.477153
0.509016
0.540479
0.570968
0.599716
0.625795
0.648232
0.666171
0.679037
0.686617
0.689069
0.687026
0.681848
0.675869
0.672278
0.674237
0.683014
0.695985
0.706723
0.708737
0.699102
0.681766
0.677969
0.732433
0.845618
0.948754
1.02521
1.06177
1.06372
1.03355
0.966569
0.860538
0.715821
0.550492
0.403738
0.284803
0.156071
-0.00723172
-0.248254
-0.621912
-1.19884
-2.07313
-3.35814
-5.2286
-7.80162
-11.2949
-15.6887
-21.5419
-30.3551
-38.9937
-33.4458
-25.9795
-20.5031
-12.8833
-7.98522
-3.2124
0.596288
3.34267
5.71864
7.07988
8.13764
8.5728
8.47279
9.58414
0.0168912
0.0498831
0.0818939
0.113892
0.145081
0.176327
0.207149
0.238076
0.268927
0.299996
0.331255
0.362865
0.394837
0.427225
0.45998
0.493
0.526045
0.558727
0.590449
0.620402
0.647596
0.670982
0.689634
0.702928
0.710621
0.712846
0.710222
0.704152
0.69714
0.692724
0.694524
0.704092
0.718506
0.730405
0.73221
0.719849
0.696023
0.683991
0.73668
0.850141
0.941657
1.00682
1.0386
1.04277
1.01745
0.954483
0.848572
0.698114
0.52389
0.373976
0.259742
0.137438
-0.0189593
-0.256352
-0.633696
-1.22722
-2.13779
-3.48928
-5.46672
-8.20859
-11.9946
-16.6777
-24.3645
-32.5927
-43.6852
-36.6127
-27.9919
-21.9434
-13.5516
-8.32469
-3.23809
0.73558
3.60131
6.04382
7.46058
8.50787
8.945
8.82301
9.84829
0.0171213
0.0516175
0.0843612
0.117527
0.149619
0.181903
0.213672
0.245585
0.277395
0.30944
0.341676
0.374282
0.407272
0.44071
0.474553
0.508708
0.542938
0.576848
0.609819
0.641
0.669335
0.693693
0.71307
0.726794
0.734587
0.736557
0.733296
0.726239
0.718068
0.712704
0.714302
0.724759
0.740833
0.754118
0.755818
0.740362
0.708405
0.686444
0.735994
0.843676
0.918798
0.976174
1.00814
1.01813
0.99989
0.942297
0.837029
0.680439
0.496588
0.344143
0.236412
0.12229
-0.0255095
-0.257946
-0.638268
-1.24839
-2.19547
-3.61286
-5.69509
-8.60692
-12.6697
-17.7648
-27.1897
-34.7583
-49.0858
-40.0691
-30.1215
-23.4537
-14.2351
-8.66705
-3.25221
0.888453
3.87328
6.38097
7.85193
8.8842
9.32836
9.19835
10.1999
0.0173347
0.0533642
0.086816
0.12115
0.15413
0.187445
0.220146
0.253036
0.285791
0.318799
0.351999
0.385589
0.419584
0.454062
0.488986
0.524273
0.559689
0.594836
0.629074
0.661509
0.691011
0.716363
0.736481
0.750636
0.758521
0.760207
0.756249
0.748105
0.738635
0.732186
0.733529
0.744986
0.762965
0.77789
0.779574
0.760317
0.718243
0.685859
0.728179
0.822409
0.881077
0.936768
0.973112
0.991535
0.98199
0.930778
0.826415
0.663019
0.468575
0.314374
0.215286
0.111371
-0.0260772
-0.252515
-0.635861
-1.26365
-2.24861
-3.7322
-5.9182
-9.00107
-13.3276
-18.9589
-29.7263
-37.0764
-55.3684
-43.8193
-32.364
-25.0292
-14.9294
-9.00888
-3.25311
1.0558
4.15861
6.72982
8.2534
9.26691
9.72165
9.55883
10.462
0.0175307
0.0551238
0.0892587
0.124761
0.158615
0.19295
0.226572
0.260425
0.294113
0.328071
0.362222
0.396783
0.431771
0.467277
0.503274
0.539687
0.576291
0.612684
0.648209
0.681922
0.712622
0.738994
0.759869
0.774458
0.782425
0.783799
0.779085
0.769746
0.758822
0.751131
0.752156
0.764736
0.784897
0.801724
0.803314
0.778871
0.725577
0.682648
0.708381
0.78479
0.832217
0.892057
0.935542
0.964288
0.964575
0.920503
0.81711
0.645953
0.4397
0.284727
0.196812
0.105354
-0.0201666
-0.240316
-0.628103
-1.27632
-2.30213
-3.85346
-6.14333
-9.39806
-13.9803
-20.2661
-32.0293
-39.8449
-62.3338
-47.866
-34.7088
-26.6641
-15.6292
-9.34579
-3.23853
1.23878
4.45733
7.08993
8.66436
9.6561
10.1248
9.91141
10.7975
0.0177085
0.0568971
0.0916894
0.128361
0.163073
0.19842
0.232949
0.267752
0.302359
0.337254
0.372341
0.407859
0.443827
0.480349
0.517409
0.554944
0.592737
0.630386
0.667215
0.702236
0.734164
0.761586
0.783233
0.798262
0.806304
0.80734
0.801809
0.79116
0.778614
0.769501
0.770131
0.78397
0.806605
0.825535
0.826359
0.79495
0.731953
0.676097
0.674167
0.733534
0.775945
0.844608
0.896917
0.937269
0.948256
0.911943
0.809431
0.629245
0.409678
0.255184
0.181381
0.104711
-0.00791198
-0.222902
-0.618578
-1.29216
-2.36358
-3.98501
-6.37929
-9.80586
-14.6412
-21.6872
-34.145
-43.2671
-69.8835
-52.2249
-37.1412
-28.3508
-16.3283
-9.67243
-3.20566
1.43894
4.76957
7.46069
9.08405
10.0521
10.5382
10.3086
11.1279
0.0178673
0.0586848
0.0941081
0.131949
0.167503
0.203852
0.239274
0.275016
0.310527
0.346344
0.382353
0.418814
0.455747
0.493273
0.531386
0.570037
0.609019
0.647933
0.686087
0.722444
0.755637
0.784137
0.806576
0.82205
0.830159
0.830834
0.824425
0.812347
0.797989
0.78725
0.787391
0.802632
0.828031
0.848944
0.847214
0.808271
0.737838
0.657558
0.6155
0.673785
0.716712
0.795828
0.858141
0.911123
0.933524
0.905538
0.803687
0.61282
0.378079
0.225627
0.169246
0.109485
0.00945747
-0.203673
-0.613272
-1.31949
-2.44236
-4.13584
-6.63464
-10.2318
-15.3233
-23.2183
-36.1244
-47.52
-77.9071
-56.907
-39.6441
-30.0795
-17.0196
-9.98263
-3.15124
1.65824
5.09561
7.84134
9.51158
10.455
10.9587
10.6781
11.3859
0.0180061
0.0604877
0.0965147
0.135525
0.171905
0.209246
0.245547
0.282213
0.318615
0.355339
0.392255
0.429643
0.467527
0.506044
0.545197
0.584956
0.625127
0.665316
0.704816
0.742542
0.777035
0.806647
0.829898
0.845824
0.853996
0.854287
0.846941
0.833306
0.816931
0.804329
0.803864
0.820644
0.848991
0.870882
0.864028
0.818839
0.739117
0.614805
0.542419
0.605829
0.654472
0.74686
0.819739
0.886297
0.920861
0.901761
0.800206
0.596522
0.344307
0.195809
0.1604
0.118913
0.0290643
-0.188331
-0.620738
-1.36849
-2.54793
-4.31375
-6.9162
-10.6814
-16.038
-24.852
-38.0078
-52.6815
-86.2415
-61.8992
-42.1959
-31.8373
-17.6954
-10.2693
-3.07163
1.89916
5.43603
8.23103
9.94591
10.8645
11.3866
11.034
11.732
0.0181239
0.0623066
0.0989092
0.13909
0.176279
0.214602
0.251767
0.289344
0.326621
0.364237
0.402043
0.440342
0.479162
0.518653
0.558836
0.599695
0.641052
0.682525
0.723392
0.762521
0.798355
0.829114
0.853199
0.869582
0.877815
0.877705
0.869365
0.85404
0.83542
0.820684
0.819458
0.83788
0.86892
0.889396
0.875979
0.826153
0.727662
0.548335
0.468439
0.533198
0.59201
0.698063
0.782238
0.863271
0.910781
0.901159
0.799373
0.580112