/*--------------------------------*- C++ -*----------------------------------*\
| =========                 |                                                 |
| \\      /  F ield         | OpenFOAM: The Open Source CFD Toolbox           |
|  \\    /   O peration     | Version:  4.1                                   |
|   \\  /    A nd           | Web:      www.OpenFOAM.org                      |
|    \\/     M anipulation  |                                                 |
\*---------------------------------------------------------------------------*/
FoamFile
{
    version     2.0;
    format      ascii;
    class       surfaceScalarField;
    location    "13";
    object      phi;
}
// * * * * * * * * * * * * * * * * * * * * * * * * * * * * * * * * * * * * * //

dimensions      [0 3 -1 0 0 0 0];

internalField   nonuniform List<scalar> 
13220
(
-790.867
2090.77
-1221.21
1730.54
-1663.58
1742.27
-1979.56
1615.88
-2232.11
1552.75
-2403.48
1471.27
-2503.06
1399.48
-2531.32
1328.46
-2495.38
1263.95
-2396.59
1201.12
-2230.28
1133.89
-1984.06
1053.67
-1612.66
928.507
-1001.93
689.463
297.974
-166.571
2257.34
-384.545
1948.52
-620.226
1977.95
-800.114
1795.77
-969.699
1722.33
-1097.98
1599.55
-1200.78
1502.28
-1267.27
1394.96
-1283.87
1280.55
-1222.77
1140.01
-1072.02
983.141
-860.502
842.159
-626.576
694.582
-326.866
389.754
-28.8917
-178.783
2436.12
-397.606
2167.34
-568.461
2148.81
-702.681
1929.99
-829.243
1848.89
-928.513
1698.82
-1021.3
1595.08
-1091.29
1464.95
-1102.23
1291.49
-976.963
1014.74
-673.357
679.536
-259.932
428.734
119.973
314.68
286.666
223.067
257.774
-90.2351
2526.36
-214.569
2291.68
-313.159
2247.4
-405.13
2021.96
-503.776
1947.54
-592.753
1787.8
-691.322
1693.65
-788.716
1562.34
-887.886
1390.66
-955.968
1082.83
-937.205
660.774
-790.066
281.597
-528.792
53.4076
-248.06
-57.6615
9.7143
36.5952
2489.76
-53.8407
2382.11
-77.9942
2271.56
-93.593
2037.56
-103.697
1957.65
-101.653
1785.75
-91.9427
1683.94
-76.6592
1547.06
-84.462
1398.47
-165.471
1163.84
-332.409
827.712
-510.345
459.537
-577.989
121.056
-472.397
-163.25
-462.682
177.921
2311.84
140.308
2419.73
190.656
2221.21
258.615
1969.61
342.154
1874.11
430.603
1697.31
537.704
1576.84
651.454
1433.31
756.19
1293.73
792.41
1127.62
699.479
920.645
483.575
675.439
220.766
383.863
26.4226
31.0919
-436.26
190.991
2120.85
193.513
2417.21
246.19
2168.53
315.562
1900.23
399.967
1789.7
479.107
1618.17
567.287
1488.66
656.668
1343.93
741.314
1209.08
797.988
1070.94
796.001
922.631
713.229
758.216
545.087
552.01
282.355
293.833
-153.905
135.177
1985.68
167.718
2384.66
210.647
2125.6
263.851
1847.03
331.439
1722.12
389.085
1560.52
443.826
1433.92
490.122
1297.63
528.863
1170.34
553.974
1045.83
555.985
920.62
517.549
796.648
414.568
654.987
231.029
477.363
77.124
76.2727
1909.41
145.363
2315.57
209.191
2061.78
279.975
1776.25
356.769
1645.32
427.033
1490.26
493.193
1367.76
554.47
1236.36
613.269
1111.54
664.85
994.252
688.174
897.297
652.938
831.888
524.783
783.146
296.044
706.109
373.168
-11.4562
1920.86
81.7409
2222.38
161.287
1982.23
221.345
1716.19
295.694
1570.97
400.389
1385.56
542.077
1226.07
714.537
1063.9
888.869
937.213
1022.4
860.72
1058.88
860.813
963.136
927.632
726.424
1019.85
396.588
1035.94
769.757
-154.265
2075.12
-124.364
2192.48
-117.527
1975.39
-180.124
1778.78
-218.82
1609.67
-202.035
1368.78
-119.436
1143.47
16.2743
928.183
191.541
761.944
379.515
672.744
531.242
709.083
577.646
881.229
473.076
1124.42
250.267
1258.75
1020.02
-137.204
2212.33
-372.055
2427.32
-577.5
2180.84
-811.106
2012.39
-1050.5
1849.05
-1272.35
1590.63
-1459.33
1330.44
-1606.7
1075.56
-1683.62
838.855
-1644.15
633.276
-1443.1
508.034
-1068.05
506.175
-596.819
653.185
-209.244
871.167
810.78
360.501
1851.83
219.978
2567.85
-33.752
2434.56
-226.349
2204.98
-396.956
2019.66
-603.634
1797.3
-843.431
1570.24
-1104.3
1336.42
-1369.11
1103.67
-1600.02
864.183
-1718.7
626.712
-1619.6
407.07
-1234.32
267.905
-597.175
234.025
213.605
827.131
1024.69
1141.91
2253.07
1017.74
2558.74
805.836
2416.88
651.003
2174.49
528.964
1919.34
418.412
1680.79
297.642
1457.19
159.228
1242.09
-6.88748
1030.3
-194.241
814.065
-375.895
588.722
-470.741
362.748
-351.017
114.298
-137.412
699.182
1757.26
2522.94
3089.38
3417.25
3530.95
3513.64
3408.3
3164.45
2830.6
2416.79
1925.47
1351.36
682.725
6.19094e-06
474.275
-474.275
474.275
474.275
474.275
926.77
-452.495
926.77
926.77
926.77
1220.49
-293.717
1220.49
1220.49
1379.89
-159.399
1379.89
1379.89
1379.89
1427.19
-47.3056
1427.19
1427.19
1384.85
42.3464
1384.85
1384.85
1384.85
1273.37
111.471
1273.37
1273.37
1273.37
1134.02
139.351
1134.02
1134.02
986.298
147.725
986.298
986.298
986.298
848.9
137.398
848.9
848.9
719.732
129.168
719.732
719.732
719.732
617.95
101.782
617.95
617.95
617.95
639.826
-21.8758
639.826
639.826
636.925
2.90078
636.925
636.925
636.925
517.604
119.321
517.604
517.604
517.604
293.943
223.661
293.943
293.943
81.5097
212.434
81.5097
81.5097
81.5097
-394.379
475.888
-394.379
-394.379
-1319.24
924.862
-1319.24
-1319.24
-1319.24
-2621.07
1301.83
-2621.07
-2621.07
-2621.07
-4310.56
1689.49
-4310.56
-4310.56
-6350.58
2040.01
-6350.58
-6350.58
-6249.46
-6150.51
-6051.14
-8302.81
2350.53
-8191.71
-8058.85
-7913.66
-7767.47
-7619.51
-7470.59
-7314.94
-7143.64
-9591.21
2615.35
-9409.26
-9227.05
-9045.38
-8844.68
-8642.87
-8440.09
-8236.43
-8030.82
-10541.4
2722.01
-10312.8
-10081.5
-9848.17
-9613.27
-9370.89
-9115.35
-8858.47
-8598.77
-8337.05
-10830.4
2742.5
-10552
-10272.6
-9993.28
-9715
-9437.66
-9146.14
-8846.86
-8547.99
-10605.9
2343.31
-10316.5
-10017.8
-9702.5
-9386
-9067.14
-8746.91
-8423.67
-8071.38
-9701.04
1968.98
-9364.26
-9029.95
-8698.2
-8348.34
-7993.73
-7645.19
-7300.31
-6960.96
-7706
1089.37
-7358.54
-7014.49
-6669.58
-6324.5
-5979.51
-5633.63
-5290.36
-4949.94
-4618.06
-4722.37
435.538
-4450.25
-4209.89
-3978.75
-3759.41
-3551.36
-3398
-3339.48
-3279.98
-2910.84
-302.111
-2855.94
-2802.34
-2802.34
-2599.26
-203.076
-2406.76
-192.506
-2406.76
-2251.33
-155.43
-2251.33
-2129.11
-122.217
-2031.33
-97.7831
-2031.33
-1957.18
-74.1443
-1899.83
-57.3561
-1899.83
-1859.38
-40.4475
-1859.38
-1838.36
-21.015
-1821.98
-16.3836
-1821.98
-1815.46
-6.51831
-1815.46
-1821.86
6.39986
-1823.04
1.18151
-1823.04
-1835.9
12.8578
-1842.27
6.3666
-1842.27
-1853.42
11.1563
-1853.42
-1870.62
17.1954
-1876.71
6.08945
-1876.71
-1883.24
6.53459
-1883.24
-1892.2
8.95637
-1887.45
-4.74686
-1887.45
-1885.82
-1.63514
-1873.64
-12.1746
-1873.64
-1860.2
-13.4419
-1860.2
-1847.87
-12.3297
-1826.01
-21.8634
-1826.01
-1802.34
-23.6656
-1802.34
-1780.18
-22.1593
-1748.45
-31.7373
-1748.45
-1717.29
-31.1581
-1679.32
-37.9729
-1679.32
-1638.91
-40.4051
-1638.91
-1598.26
-40.6549
-1551.5
-46.7595
-1551.5
-1501.19
-50.3013
-1501.19
-1450.01
-51.1824
-1392.89
-57.1227
-1392.89
-1332.01
-60.8834
-1268.1
-63.9038
-1268.1
-1199.58
-68.5192
-1199.58
-1128.03
-71.5566
-1055.04
-72.9874
-1055.04
-976.527
-78.5121
-976.527
-894.198
-82.3293
-811.737
-82.4604
-811.737
-721.389
-90.3477
-634.158
-87.2313
-634.158
-542.708
-91.45
-542.708
-94.0166
-49.7254
-226.212
-49.6955
-274.682
-49.9836
-304.583
-50.3603
-334.196
-50.9089
-362.872
-51.5686
-390.001
-52.3624
-416.538
-53.2724
-442.227
-54.3043
-467.44
-55.452
-492.176
-56.7164
-516.6
-58.0947
-540.769
-59.5862
-564.775
-61.1892
-588.672
-62.9023
-612.518
-64.7234
-636.347
-66.6503
-660.185
-68.6802
-684.04
-70.8094
-707.904
-73.0339
-731.75
-75.3485
-755.538
-77.7479
-779.213
-80.2259
-802.71
-82.7766
-825.961
-85.394
-848.905
-88.0731
-871.489
-90.8095
-893.685
-93.6003
-915.489
-96.4439
-936.93
-99.3395
-958.069
-102.287
-978.991
-105.286
-999.793
-108.337
-1020.57
-111.437
-1041.41
-114.589
-1062.4
-117.798
-1083.68
-121.073
-1105.47
-124.431
-1128.14
-127.882
-1152.12
-131.43
-1177.86
-135.057
-1205.65
-138.726
-1235.42
-142.374
-1266.87
-145.921
-1299.47
-149.269
-1332.54
-152.309
-1365.38
-154.91
-1397.36
-156.921
-1427.96
-158.142
-1456.73
-158.309
-1483.11
-157.072
-1506.14
-153.992
-1524.08
-148.572
-1534.1
-140.3
-1531.94
-128.713
-1511.4
-113.452
-1463.64
-94.2508
-1375.51
-70.2132
-1229.05
-37.5224
-989.8
11.7206
-376.704
40.8206
677.926
48.3986
1112.89
52.7268
1451.68
55.3848
1818.93
56.9013
2189.06
57.4716
2530.13
57.4728
2813.3
57.4216
3035.7
56.7919
3170.6
56.1054
3238.2
53.4601
3193.47
51.3146
3138.65
45.5935
2942.3
45.2261
2960.07
38.7088
2614.18
44.6984
3011.54
51.4929
2468.56
52.4031
2993.44
4513.75
-53.4412
-226.585
-53.2931
-274.83
-53.5375
-304.338
-53.8839
-333.85
-54.4273
-362.329
-55.0936
-389.335
-55.9078
-415.724
-56.8479
-441.287
-57.9199
-466.368
-59.1159
-490.98
-60.4366
-515.28
-61.8783
-539.327
-63.4398
-563.213
-65.1187
-586.993
-66.9127
-610.724
-68.819
-634.441
-70.8344
-658.17
-72.9548
-681.92
-75.1756
-705.683
-77.4913
-729.434
-79.8958
-753.134
-82.3826
-776.726
-84.9453
-800.147
-87.5775
-823.329
-90.274
-846.208
-93.0303
-868.733
-95.8438
-890.871
-98.7134
-912.619
-101.639
-934.004
-104.623
-955.085
-107.665
-975.949
-110.766
-996.692
-113.924
-1017.41
-117.14
-1038.19
-120.418
-1059.12
-123.767
-1080.33
-127.206
-1102.03
-130.754
-1124.59
-134.426
-1148.44
-138.217
-1174.07
-142.093
-1201.77
-145.999
-1231.51
-149.856
-1263.02
-153.573
-1295.76
-157.045
-1329.07
-160.16
-1362.26
-162.795
-1394.72
-164.794
-1425.96
-165.953
-1455.57
-165.985
-1483.08
-164.516
-1507.61
-161.105
-1527.49
-155.302
-1539.9
-146.715
-1540.53
-135.044
-1523.07
-120.085
-1478.6
-101.552
-1394.05
-77.7851
-1252.82
-44.743
-1022.84
12.9
-434.347
44.9298
645.896
50.4838
1107.33
54.8981
1447.27
56.9843
1816.84
57.6325
2188.41
57.3702
2530.4
56.7703
2813.9
56.237
3036.23
55.3711
3171.47
54.6039
3238.97
51.9872
3196.09
50.0057
3140.63
44.4717
2947.83
44.2909
2960.25
38.0086
2620.46
43.9619
3005.59
50.799
2461.72
52.1967
2992.04
4474.49
-55.4384
-227.025
-55.2476
-275.021
-55.4655
-304.121
-55.7988
-333.517
-56.3397
-361.788
-57.0112
-388.663
-57.8374
-414.898
-58.7951
-440.329
-59.8899
-465.273
-61.1134
-489.757
-62.4657
-513.927
-63.943
-537.85
-65.5435
-561.613
-67.2645
-585.273
-69.1033
-608.885
-71.0564
-632.488
-73.1202
-656.106
-75.29
-679.75
-77.5604
-703.412
-79.9253
-727.07
-82.378
-750.681
-84.9117
-774.192
-87.5197
-797.539
-90.1957
-820.653
-92.9348
-843.469
-95.7335
-865.935
-98.5898
-888.015
-101.504
-909.705
-104.477
-931.03
-107.512
-952.051
-110.609
-972.852
-113.769
-993.533
-116.99
-1014.19
-120.273
-1034.91
-123.623
-1055.77
-127.055
-1076.9
-130.589
-1098.5
-134.251
-1120.93
-138.054
-1144.64
-141.986
-1170.14
-146.004
-1197.75
-150.043
-1227.48
-154.015
-1259.04
-157.824
-1291.95
-161.364
-1325.53
-164.526
-1359.1
-167.188
-1392.06
-169.196
-1423.95
-170.343
-1454.43
-170.339
-1483.08
-168.824
-1509.12
-165.415
-1530.9
-159.785
-1545.53
-151.709
-1548.61
-141.03
-1533.75
-127.57
-1492.06
-110.811
-1410.81
-88.4172
-1275.21
-56.2891
-1054.97
8.78438
-499.421
50.8379
603.842
54.7357
1103.44
58.1876
1443.81
59.5915
1815.44
58.9539
2189.05
57.4456
2531.9
55.8905
2815.45
54.6299
3037.49
53.3551
3172.74
52.4349
3239.89
49.8475
3198.68
48.0586
3142.42
42.7882
2953.1
42.8631
2960.18
36.8723
2626.45
42.8344
2999.62
49.7039
2454.85
52.0149
2989.73
4439.28
-57.7995
-227.526
-57.5681
-275.252
-57.7623
-303.926
-58.0844
-333.194
-58.6258
-361.247
-59.3062
-387.983
-60.1492
-414.055
-61.1302
-439.348
-62.2542
-464.149
-63.5124
-488.498
-64.9045
-512.535
-66.426
-536.329
-68.0751
-559.963
-69.8483
-583.499
-71.7426
-606.991
-73.7541
-630.476
-75.8782
-653.982
-78.1096
-677.519
-80.4422
-701.08
-82.8691
-724.643
-85.383
-748.167
-87.9763
-771.599
-90.6421
-794.873
-93.3741
-817.921
-96.1677
-840.676
-99.0199
-863.082
-101.93
-885.105
-104.9
-906.735
-107.931
-927.999
-111.028
-948.954
-114.192
-969.688
-117.423
-990.302
-120.72
-1010.89
-124.084
-1031.54
-127.521
-1052.33
-131.05
-1073.37
-134.697
-1094.85
-138.492
-1117.13
-142.45
-1140.68
-146.551
-1166.04
-150.744
-1193.56
-154.949
-1223.27
-159.071
-1254.92
-163.004
-1288.02
-166.641
-1321.89
-169.874
-1355.87
-172.582
-1389.35
-174.617
-1421.92
-175.77
-1453.27
-175.772
-1483.08
-174.319
-1510.58
-171.157
-1534.06
-166.156
-1550.53
-159.29
-1555.47
-150.488
-1542.55
-139.423
-1503.12
-125.1
-1425.13
-104.413
-1295.9
-72.1925
-1087.19
0.0254684
-571.639
55.1963
548.672
61.2857
1097.35
62.8365
1442.26
63.1962
1815.08
60.9537
2191.29
57.7712
2535.09
54.9208
2818.3
52.6635
3039.75
50.7994
3174.61
49.6342
3241.06
47.0599
3201.25
45.4899
3143.99
40.5671
2958.02
40.9648
2959.78
35.3599
2632.05
41.4219
2993.56
48.3223
2447.95
50.3283
2987.73
4399.26
-60.057
-228.071
-59.8
-275.509
-59.975
-303.751
-60.2905
-332.879
-60.8348
-360.702
-61.5263
-387.291
-62.3874
-413.194
-63.3928
-438.343
-64.5469
-462.995
-65.8404
-487.205
-67.2725
-511.103
-68.8386
-534.763
-70.5362
-558.266
-72.3616
-581.674
-74.3113
-605.041
-76.3807
-628.407
-78.5648
-651.798
-80.8576
-675.226
-83.2521
-698.685
-85.7407
-722.154
-88.3153
-745.592
-90.968
-768.946
-93.6914
-792.15
-96.4792
-815.133
-99.3272
-837.828
-102.233
-860.176
-105.197
-882.141
-108.222
-903.71
-111.312
-924.908
-114.472
-945.794
-117.703
-966.457
-121.006
-986.999
-124.379
-1007.52
-127.823
-1028.1
-131.347
-1048.81
-134.972
-1069.74
-138.731
-1091.09
-142.659
-1113.2
-146.771
-1136.57
-151.043
-1161.77
-155.412
-1189.19
-159.787
-1218.9
-164.061
-1250.65
-168.124
-1283.95
-171.865
-1318.15
-175.175
-1352.56
-177.94
-1386.59
-180.015
-1419.84
-181.216
-1452.07
-181.334
-1482.96
-180.203
-1511.71
-177.795
-1536.47
-174.241
-1554.09
-169.677
-1560.04
-163.929
-1548.3
-156.234
-1510.82
-144.846
-1436.52
-125.936
-1314.81
-93.0229
-1120.1
-14.4906
-650.171
57.4872
476.694
69.9738
1084.86
69.3594
1442.88
67.9981
1816.44
63.7648
2195.52
58.4372
2540.41
53.8891
2822.85
50.3297
3043.31
47.6642
3177.27
46.1465
3242.58
43.5513
3203.85
42.2375
3145.31
37.7164
2962.54
38.5595
2958.94
33.3774
2637.24
39.6878
2987.25
46.5533
2441.09
49.0611
2985.22
4365.86
-62.3199
-228.646
-62.0467
-275.783
-62.2073
-303.591
-62.5201
-332.566
-63.0702
-360.152
-63.7754
-386.586
-64.6571
-412.312
-65.6892
-437.311
-66.8757
-461.809
-68.2067
-485.874
-69.6812
-509.629
-71.294
-533.15
-73.0426
-556.517
-74.9226
-579.794
-76.9301
-603.033
-79.0602
-626.277
-81.307
-649.551
-83.6639
-672.869
-86.1232
-696.226
-88.6765
-719.601
-91.315
-742.954
-94.0301
-766.231
-96.8141
-789.366
-99.6608
-812.286
-102.566
-834.923
-105.528
-857.214
-108.549
-879.12
-111.633
-900.627
-114.784
-921.757
-118.009
-942.569
-121.311
-963.155
-124.689
-983.621
-128.141
-1004.07
-131.669
-1024.57
-135.282
-1045.19
-139.006
-1066.02
-142.88
-1087.22
-146.944
-1109.14
-151.217
-1132.3
-155.668
-1157.32
-160.222
-1184.64
-164.778
-1214.34
-169.218
-1246.21
-173.423
-1279.75
-177.279
-1314.29
-180.679
-1349.16
-183.512
-1383.76
-185.655
-1417.7
-186.988
-1450.74
-187.442
-1482.51
-187.102
-1512.05
-186.261
-1537.31
-185.301
-1555.05
-184.335
-1561
-182.764
-1549.87
-179.036
-1514.55
-170.473
-1445.08
-152.762
-1332.52
-118.388
-1154.48
-33.8911
-734.668
57.6716
385.131
80.0905
1062.44
78.2317
1444.74
74.2426
1820.43
67.4725
2202.29
59.5376
2548.35
52.8683
2829.52
47.6886
3048.49
44.0003
3180.96
42.0054
3244.57
39.3494
3206.5
38.3112
3146.34
34.2447
2966.61
35.6368
2957.54
30.9256
2641.95
37.6185
2980.56
44.4501
2434.26
46.3663
2983.3
4329.9
-64.5668
-229.241
-64.2864
-276.063
-64.4372
-303.44
-64.7514
-332.252
-65.3101
-359.594
-66.0316
-385.865
-66.936
-411.408
-67.997
-436.25
-69.2178
-460.588
-70.5883
-484.503
-72.107
-508.11
-73.7686
-531.488
-75.5699
-554.716
-77.5065
-577.857
-79.5739
-600.966
-81.7666
-624.084
-84.0783
-647.239
-86.5015
-670.446
-89.0279
-693.7
-91.6482
-716.98
-94.353
-740.249
-97.1329
-763.451
-99.98
-786.519
-102.888
-809.379
-105.853
-831.958
-108.874
-854.193
-111.954
-876.04
-115.098
-897.483
-118.313
-918.542
-121.606
-939.276
-124.981
-959.78
-128.437
-980.165
-131.971
-1000.53
-135.585
-1020.96
-139.29
-1041.49
-143.114
-1062.19
-147.105
-1083.23
-151.309
-1104.94
-155.747
-1127.86
-160.384
-1152.68
-165.133
-1179.89
-169.881
-1209.59
-174.497
-1241.59
-178.855
-1275.39
-182.837
-1310.31
-186.333
-1345.66
-189.25
-1380.84
-191.521
-1415.43
-193.164
-1449.1
-194.382
-1481.29
-195.633
-1510.8
-197.564
-1535.38
-200.648
-1551.97
-204.616
-1557.04
-208.016
-1546.47
-208.233
-1514.33
-201.697
-1451.62
-184.039
-1350.18
-147.393
-1191.12
-57.4814
-824.579
55.9056
271.744
90.7337
1027.61
89.6875
1445.78
82.2961
1827.82
72.1926
2212.39
61.161
2559.38
51.9358
2838.74
44.7993
3055.62
39.8567
3185.9
37.2437
3247.18
34.4759
3209.27
33.7225
3147.1
30.158
2970.17
32.1974
2955.5
28.0105
2646.13
35.2155
2973.35
42.0654
2427.41
43.4834
2981.88
4294.87
-66.8056
-229.846
-66.5252
-276.344
-66.6709
-303.294
-66.9906
-331.932
-67.5607
-359.023
-68.3012
-385.124
-69.2307
-410.478
-70.3227
-435.157
-71.58
-459.331
-72.9921
-483.091
-74.5571
-506.545
-76.2695
-529.776
-78.1258
-552.86
-80.121
-575.862
-82.2505
-598.837
-84.5082
-621.826
-86.8872
-644.86
-89.3793
-667.954
-91.9753
-691.104
-94.6653
-714.29
-97.439
-737.475
-100.287
-760.603
-103.199
-783.606
-106.171
-806.407
-109.198
-828.93
-112.281
-851.11
-115.422
-872.899
-118.629
-894.276
-121.911
-915.26
-125.274
-935.913
-128.725
-956.33
-132.262
-976.628
-135.882
-996.912
-139.585
-1017.25
-143.383
-1037.69
-147.31
-1058.27
-151.42
-1079.12
-155.767
-1100.59
-160.377
-1123.25
-165.209
-1147.85
-170.164
-1174.93
-175.115
-1204.64
-179.92
-1236.79
-184.442
-1270.87
-188.556
-1306.2
-192.159
-1342.06
-195.198
-1377.8
-197.734
-1412.89
-200.06
-1446.77
-202.802
-1478.55
-206.883
-1506.72
-213.177
-1529.08
-221.864
-1543.28
-231.784
-1547.12
-240.266
-1537.99
-243.585
-1511.01
-237.591
-1457.61
-218.38
-1369.39
-178.81
-1230.69
-86.1855
-917.204
53.3635
132.195
101.412
979.564
103.596
1443.6
92.5855
1838.83
78.1383
2226.84
63.4003
2574.12
51.1692
2850.97
41.7145
3065.08
35.2714
3192.35
31.8843
3250.57
28.9398
3212.22
28.474
3147.56
25.4496
2973.2
28.2377
2952.72
24.6244
2649.75
32.493
2965.49
39.3698
2420.53
41.6134
2979.64
4263.49
-69.0376
-230.454
-68.7637
-276.617
-68.9088
-303.149
-69.2376
-331.603
-69.8222
-358.439
-70.5843
-384.362
-71.5412
-409.521
-72.6666
-434.032
-73.9625
-458.035
-75.4183
-481.636
-77.0318
-504.931
-78.7971
-528.011
-80.7105
-550.946
-82.7668
-573.806
-84.9607
-596.643
-87.2857
-619.501
-89.7344
-642.412
-92.298
-665.39
-94.9664
-688.435
-97.7289
-711.528
-100.574
-734.63
-103.492
-757.685
-106.474
-780.624
-109.512
-803.368
-112.604
-825.838
-115.751
-847.964
-118.956
-869.693
-122.229
-891.003
-125.579
-911.91
-129.016
-932.475
-132.546
-952.8
-136.167
-973.006
-139.876
-993.204
-143.67
-1013.46
-147.565
-1033.8
-151.596
-1054.23
-155.827
-1074.89
-160.321
-1096.09
-165.11
-1118.46
-170.147
-1142.81
-175.318
-1169.76
-180.486
-1199.47
-185.492
-1231.78
-190.186
-1266.17
-194.438
-1301.94
-198.169
-1338.33
-201.429
-1374.54
-204.539
-1409.78
-208.249
-1443.06
-213.753
-1473.05
-222.37
-1498.1
-234.823
-1516.63
-250.403
-1527.7
-266.56
-1530.96
-279.289
-1525.26
-284.052
-1506.25
-276.641
-1465.02
-254.073
-1391.96
-211.214
-1273.55
-123.59
-1004.83
43.0638
-34.459
111.8
910.828
119.437
1435.96
105.463
1852.8
85.6486
2246.66
66.368
2593.4
50.6453
2866.7
38.4885
3077.23
30.2825
3200.55
25.9522
3254.9
22.7534
3215.41
22.5707
3147.75
20.1182
2975.65
23.7549
2949.08
20.7627
2652.74
29.4374
2956.81
36.4114
2413.56
37.6012
2978.45
4229.54
-71.2652
-231.056
-71.0033
-276.879
-71.1522
-303
-71.494
-331.262
-72.096
-357.837
-72.8824
-383.576
-73.8692
-408.535
-75.0303
-432.871
-76.3671
-456.698
-77.8689
-480.134
-79.5331
-503.267
-81.3535
-526.19
-83.3263
-548.974
-85.4459
-571.686
-87.7066
-594.382
-90.1016
-617.106
-92.6227
-639.891
-95.2604
-662.752
-98.0041
-685.692
-100.842
-708.69
-103.762
-731.71
-106.753
-754.694
-109.806
-777.571
-112.914
-800.26
-116.074
-822.679
-119.287
-844.751
-122.559
-866.421
-125.9
-887.663
-129.321
-908.489
-132.835
-928.961
-136.448
-949.188
-140.157
-969.297
-143.958
-989.403
-147.847
-1009.57
-151.84
-1029.8
-155.978
-1050.1
-160.331
-1070.54
-164.977
-1091.45
-169.953
-1113.49
-175.204
-1137.56
-180.606
-1164.36
-186.003
-1194.07
-191.22
-1226.56
-196.092
-1261.3
-200.494
-1297.54
-204.418
-1334.4
-208.142
-1370.82
-212.446
-1405.48
-218.736
-1436.77
-228.792
-1462.99
-243.979
-1482.91
-264.198
-1496.41
-287.192
-1504.71
-308.787
-1509.36
-323.947
-1510.1
-327.926
-1502.27
-317
-1475.95
-289.379
-1419.58
-242.407
-1320.52
-157.278
-1089.96
21.39
-213.127
121.165
811.053
136.31
1420.82
121.058
1868.05
95.1626
2272.55
70.2307
2618.33
50.4379
2886.49
35.1747
3092.5
24.9261
3210.8
19.4724
3260.35
15.9303
3218.96
16.0184
3147.66
14.1649
2977.51
18.7474
2944.5
16.4238
2655.06
26.0467
2947.19
33.2209
2406.38
33.6465
2978.02
4194.66
-73.4906
-231.648
-73.2457
-277.124
-73.4028
-302.843
-73.7611
-330.903
-74.3835
-357.215
-75.197
-382.762
-76.2162
-407.515
-77.4155
-431.672
-78.7955
-455.318
-80.3455
-478.584
-82.0626
-501.55
-83.9406
-524.312
-85.9751
-546.939
-88.1604
-569.501
-90.4905
-592.052
-92.958
-614.639
-95.5543
-637.294
-98.2691
-660.037
-101.091
-682.87
-104.007
-705.774
-107.005
-728.712
-110.073
-751.626
-113.201
-774.444
-116.381
-797.08
-119.612
-819.448
-122.894
-841.469
-126.235
-863.08
-129.647
-884.251
-133.143
-904.992
-136.737
-925.368
-140.435
-945.49
-144.236
-965.496
-148.133
-985.507
-152.12
-1005.58
-156.214
-1025.71
-160.46
-1045.85
-164.939
-1066.06
-169.741
-1086.65
-174.91
-1108.32
-180.388
-1132.08
-186.034
-1158.71
-191.673
-1188.44
-197.108
-1221.13
-202.164
-1256.25
-206.754
-1292.95
-211.052
-1330.1
-215.766
-1366.1
-222.384
-1398.86
-233.081
-1426.07
-249.94
-1446.13
-273.658
-1459.19
-302.477
-1467.59
-332.182
-1475
-357.238
-1484.31
-372.288
-1495.05
-373.077
-1501.48
-356.745
-1492.28
-322.632
-1453.69
-270.396
-1372.76
-184.115
-1176.24
3.4682
-400.71
129.041
685.48
153.267
1396.59
139.125
1882.2
107.111
2304.57
75.2507
2650.19
50.6293
2911.11
31.8247
3111.3
19.2362
3223.39
12.4677
3267.12
8.48323
3222.94
8.82045
3147.32
7.59072
2978.73
13.214
2938.87
11.6024
2656.67
22.3572
2936.43
29.7668
2398.97
31.2623
2976.53
4162.02
-75.7162
-232.223
-75.4925
-277.348
-75.6619
-302.674
-76.0404
-330.525
-76.6861
-356.569
-77.5296
-381.918
-78.5838
-406.461
-79.8236
-430.432
-81.2492
-453.892
-82.8498
-476.983
-84.6223
-499.778
-86.5602
-522.374
-88.6589
-544.84
-90.9125
-567.247
-93.3146
-589.65
-95.8574
-612.096
-98.5318
-634.62
-101.327
-657.243
-104.23
-679.966
-107.228
-702.776
-110.307
-725.632
-113.455
-748.479
-116.66
-771.238
-119.917
-793.824
-123.221
-816.144
-126.575
-838.114
-129.988
-859.667
-133.474
-880.766
-137.047
-901.419
-140.724
-921.691
-144.512
-941.702
-148.409
-961.598
-152.406
-981.51
-156.495
-1001.49
-160.692
-1021.51
-165.048
-1041.49
-169.654
-1061.45
-174.617
-1081.68
-179.99
-1102.94
-185.707
-1126.36
-191.611
-1152.81
-197.501
-1182.54
-203.158
-1215.47
-208.417
-1250.99
-213.32
-1288.05
-218.417
-1325.01
-225.133
-1359.39
-235.873
-1388.12
-253.406
-1408.54
-279.404
-1420.13
-312.884
-1425.71
-349.785
-1430.69
-384.093
-1440.69
-409.714
-1458.69
-421.85
-1482.91
-417.275
-1506.06
-394.097
-1515.46
-352.446
-1495.34
-293.933
-1431.27
-205.988
-1264.18
-10.4867
-596.211
136.781
538.212
169.718
1363.65
159.08
1892.84
121.767
2341.88
81.7952
2690.16
51.3364
2941.57
28.4899
3134.15
13.2467
3238.63
4.9594
3275.41
0.422621
3227.48
0.982154
3146.76
0.394994
2979.32
7.14802
2932.12
6.29204
2657.53
18.3405
2924.39
26.0355
2391.28
25.8423
2976.72
4126.98
-77.944
-232.777
-77.7455
-277.546
-77.9313
-302.488
-78.3333
-330.123
-79.0055
-355.897
-79.8817
-381.042
-80.9735
-405.37
-82.2565
-429.149
-83.7302
-452.418
-85.3839
-475.329
-87.2142
-497.947
-89.2145
-520.374
-91.38
-542.675
-93.7045
-564.923
-96.1814
-587.173
-98.8024
-609.475
-101.558
-631.865
-104.436
-654.364
-107.424
-676.979
-110.507
-699.692
-113.671
-722.469
-116.902
-745.248
-120.189
-767.951
-123.524
-790.489
-126.905
-812.763
-130.335
-834.684
-133.823
-856.179
-137.385
-877.204
-141.039
-897.765
-144.802
-917.928
-148.684
-937.82
-152.682
-957.601
-156.783
-977.41
-160.978
-997.299
-165.281
-1017.21
-169.748
-1037.03
-174.484
-1056.72
-179.612
-1076.55
-185.199
-1097.36
-191.169
-1120.39
-197.341
-1146.64
-203.488
-1176.4
-209.374
-1209.58
-214.915
-1245.45
-220.457
-1282.51
-227.234
-1318.23
-237.684
-1348.94
-255.095
-1370.71
-282.169
-1381.47
-319.013
-1383.29
-362.033
-1382.69
-404.839
-1387.88
-440.484
-1405.05
-463.404
-1435.77
-470.063
-1476.25
-458.468
-1517.65
-427.56
-1546.37
-377.834
-1545.07
-312.19
-1496.92
-222.252
-1354.12
-21.373
-797.09
144.877
371.962
185.329
1323.2
180.388
1897.78
139.154
2383.11
90.2809
2739.04
52.7448
2979.11
25.2253
3161.67
6.99053
3256.87
-3.03244
3285.43
-8.23078
3232.68
-7.50454
3146.04
-7.42875
2979.25
0.560892
2924.13
0.483015
2657.61
14.0196
2910.85
22.0924
2383.2
22.6191
2976.2
4092.48
-80.1762
-233.305
-80.0065
-277.716
-80.2126
-302.282
-80.6415
-329.694
-81.3433
-355.195
-82.2551
-380.13
-83.3872
-404.237
-84.7159
-427.82
-86.2402
-450.894
-87.9496
-473.62
-89.8402
-496.057
-91.9055
-518.309
-94.1405
-540.44
-96.5388
-562.525
-99.0933
-584.618
-101.796
-606.773
-104.635
-629.025
-107.6
-651.399
-110.677
-673.902
-113.849
-696.521
-117.101
-719.216
-120.419
-741.93
-123.79
-764.58
-127.208
-787.071
-130.669
-809.302
-134.177
-831.176
-137.744
-852.613
-141.385
-873.562
-145.123
-894.027
-148.976
-914.074
-152.956
-933.84
-157.059
-953.498
-161.269
-973.199
-165.574
-992.994
-169.986
-1012.8
-174.567
-1032.45
-179.434
-1051.85
-184.733
-1071.26
-190.544
-1091.55
-196.778
-1114.16
-203.225
-1140.19
-209.631
-1169.99
-215.79
-1203.42
-221.845
-1239.39
-228.757
-1275.6
-238.817
-1308.17
-255.6
-1332.15
-282.728
-1343.58
-321.59
-1342.6
-369.478
-1335.4
-419.888
-1332.28
-464.969
-1342.8
-498.166
-1371.85
-515.377
-1418.55
-514.607
-1477.02
-494.964
-1537.29
-455.985
-1585.35
-398.221
-1602.83
-325.019
-1570.12
-232.575
-1446.57
-36.1415
-993.524
148.459
187.362
200.021
1271.64
202.865
1894.93
159.01
2426.97
101.067
2796.98
55.1346
3025.04
22.1039
3194.7
0.506353
3278.47
-11.4817
3297.42
-17.4627
3238.66
-16.6469
3145.22
-15.8597
2978.46
-6.59091
2914.86
-5.85115
2656.87
9.42166
2895.58
17.861
2374.76
16.9377
2977.12
4058.23
-82.415
-233.804
-82.2773
-277.854
-82.5075
-302.052
-82.9668
-329.235
-83.7012
-354.46
-84.6515
-379.18
-85.8267
-403.062
-87.2038
-426.443
-88.7814
-449.317
-90.5491
-471.852
-92.5027
-494.103
-94.6357
-516.176
-96.943
-538.133
-99.4178
-560.05
-102.053
-581.983
-104.84
-603.986
-107.767
-626.097
-110.823
-648.344
-113.991
-670.734
-117.255
-693.256
-120.599
-715.872
-124.008
-738.521
-127.469
-761.119
-130.972
-783.567
-134.517
-805.757
-138.107
-827.586
-141.755
-848.965
-145.479
-869.838
-149.304
-890.202
-153.251
-910.127
-157.334
-929.757
-161.547
-949.285
-165.872
-968.874
-170.291
-988.575
-174.816
-1008.27
-179.511
-1027.75
-184.512
-1046.85
-189.988
-1065.78
-196.032
-1085.5
-202.538
-1107.65
-209.261
-1133.47
-215.942
-1163.31
-222.524
-1196.84
-229.669
-1232.25
-239.379
-1265.89
-255.29
-1292.26
-281.738
-1305.7
-321.406
-1303.91
-372.808
-1291.2
-429.749
-1278.46
-483.585
-1278.45
-526.576
-1299.81
-553.798
-1344.63
-563.033
-1409.32
-553.652
-1486.4
-525.547
-1565.4
-478.637
-1632.25
-413.399
-1668.07
-332.935
-1650.58
-237.704
-1541.8
-67.832
-1163.4
137.659
-18.1294
215.168
1194.13
226.399
1883.7
180.755
2472.61
114.333
2863.4
58.8743
3080.5
19.245
3234.33
-6.16611
3303.88
-20.3631
3311.62
-27.2611
3245.56
-26.4428
3144.4
-24.8934
2976.91
-14.3409
2904.31
-12.7059
2655.23
4.56833
2878.3
13.431
2365.9
11.6621
2978.89
4019.59
-84.6625
-234.27
-84.5599
-277.956
-84.818
-301.794
-85.3109
-328.742
-86.0811
-353.69
-87.0729
-378.188
-88.2939
-401.841
-89.7223
-425.015
-91.3559
-447.683
-93.1845
-470.024
-95.2039
-492.084
-97.4075
-513.972
-99.7898
-535.75
-102.344
-557.495
-105.064
-579.264
-107.938
-601.111
-110.957
-623.079
-114.106
-645.195
-117.37
-667.471
-120.731
-689.895
-124.171
-712.431
-127.675
-735.018
-131.228
-757.566
-134.822
-779.973
-138.454
-802.125
-142.13
-823.911
-145.862
-845.233
-149.672
-866.028
-153.587
-886.287
-157.633
-906.081
-161.824
-925.567
-166.153
-944.955
-170.598
-964.429
-175.137
-984.037
-179.777
-1003.63
-184.589
-1022.94
-189.725
-1041.71
-195.382
-1060.12
-201.666
-1079.22
-208.444
-1100.88
-215.444
-1126.47
-222.485
-1156.27
-229.912
-1189.42
-239.359
-1222.8
-254.317
-1250.93
-279.616
-1266.96
-319.144
-1266.18
-372.792
-1250.27
-435.061
-1228.93
-496.827
-1216.69
-549.093
-1226.18
-585.851
-1263.05
-604.455
-1326.03
-604.392
-1409.38
-585.971
-1504.82
-549.542
-1601.83
-495.264
-1686.53
-423.517
-1739.82
-336.804
-1737.3
-238.107
-1640.49
-94.5811
-1306.92
119.384
-232.095
233.372
1080.14
250.391
1866.68
203.517
2519.48
130.005
2936.91
64.3722
3146.13
16.8451
3281.85
-12.9772
3333.7
-29.647
3328.29
-37.6113
3253.52
-36.8824
3143.67
-34.5288
2974.56
-22.7055
2892.49
-20.0665
2652.59
-0.474929
2858.71
8.76911
2356.66
8.71753
2978.94
3981.55
-86.921
-234.7
-86.8563
-278.021
-87.1459
-301.504
-87.6757
-328.212
-88.4849
-352.881
-89.5211
-377.152
-90.791
-400.571
-92.2734
-423.532
-93.9658
-445.99
-95.8583
-468.131
-97.9463
-489.996
-100.223
-511.695
-102.684
-533.29
-105.321
-554.858
-108.127
-576.457
-111.093
-598.145
-114.207
-619.965
-117.454
-641.948
-120.818
-664.107
-124.28
-686.433
-127.821
-708.89
-131.424
-731.415
-135.074
-753.916
-138.762
-776.285
-142.485
-798.402
-146.249
-820.146
-150.069
-841.413
-153.969
-862.128
-157.979
-882.277
-162.127
-901.932
-166.431
-921.263
-170.883
-940.503
-175.455
-959.856
-180.119
-979.373
-184.878
-998.875
-189.809
-1018.01
-195.081
-1036.44
-200.922
-1054.28
-207.444
-1072.7
-214.487
-1093.83
-221.8
-1119.16
-229.48
-1148.59
-238.724
-1180.17
-252.715
-1208.81
-276.552
-1227.09
-315.224
-1228.29
-370.086
-1211.31
-436.554
-1183.8
-505.31
-1160.18
-566.242
-1155.76
-612.071
-1180.35
-639.483
-1235.64
-647.978
-1317.53
-638.208
-1419.15
-610.973
-1532.06
-566.85
-1645.95
-506.136
-1747.25
-429.098
-1816.86
-337.441
-1828.95
-234.542
-1743.39
-100.783
-1440.68
116.194
-449.072
254.116
942.223
273.571
1847.23
226.356
2566.7
147.784
3015.49
71.9855
3221.93
15.1935
3338.65
-19.8567
3368.75