/*--------------------------------*- C++ -*----------------------------------*\
| =========                 |                                                 |
| \\      /  F ield         | OpenFOAM: The Open Source CFD Toolbox           |
|  \\    /   O peration     | Version:  4.1                                   |
|   \\  /    A nd           | Web:      www.OpenFOAM.org                      |
|    \\/     M anipulation  |                                                 |
\*---------------------------------------------------------------------------*/
FoamFile
{
    version     2.0;
    format      ascii;
    class       volVectorField;
    location    "13";
    object      U;
}
// * * * * * * * * * * * * * * * * * * * * * * * * * * * * * * * * * * * * * //

dimensions      [0 1 -1 0 0 0 0];

internalField   nonuniform List<vector> 
6785
(
(1.4964e-14 -2.29277 16.5229)
(1.1782e-14 -7.92683 12.9464)
(-2.93139e-15 -5.12709 13.7387)
(4.66225e-15 -5.08912 13.2296)
(8.87461e-16 -4.30946 13.0785)
(-3.5689e-17 -3.9072 12.7814)
(2.89214e-15 -3.50885 12.4911)
(6.45255e-16 -3.22842 12.1549)
(-6.54847e-16 -3.01463 11.7788)
(2.00852e-15 -2.88456 11.3538)
(2.55527e-16 -2.81362 10.9289)
(-5.02872e-16 -2.81931 10.5566)
(1.04987e-15 -3.25926 10.0054)
(1.50188e-16 -3.37885 9.15433)
(-7.42969e-16 -0.0552168 7.46275)
(2.17815e-14 -10.1375 26.7444)
(1.43648e-14 -16.2175 22.8656)
(-2.67818e-15 -11.0571 23.2446)
(5.38729e-15 -11.9364 21.3344)
(8.17685e-16 -10.2046 20.453)
(1.23614e-15 -9.62299 19.1691)
(2.59389e-15 -8.66733 18.0693)
(2.38592e-16 -7.966 16.9817)
(2.77362e-16 -7.33048 16.0511)
(1.22982e-15 -6.87809 15.2028)
(-8.38484e-17 -6.49621 14.2418)
(2.53386e-16 -5.97127 12.9228)
(9.93642e-16 -5.10429 10.7829)
(-3.77393e-16 -3.47558 6.60172)
(-6.74848e-16 -0.332078 0.0629767)
(2.13417e-14 -12.722 27.8203)
(1.18459e-14 -16.449 24.6132)
(-1.84544e-15 -11.7247 24.4711)
(3.25198e-15 -12.6815 21.9798)
(8.14981e-16 -10.5304 20.9709)
(1.07443e-15 -10.0328 19.2715)
(1.06844e-16 -8.85677 17.9846)
(9.43244e-17 -7.98485 16.489)
(-5.356e-17 -6.80614 14.6846)
(-9.06522e-16 -5.45908 12.2245)
(-3.39382e-16 -4.2533 9.56539)
(-1.72711e-15 -3.77644 7.69466)
(-4.53108e-15 -3.75502 6.5774)
(-1.80834e-15 -2.81363 4.06812)
(-1.67325e-15 -2.25878 2.30081)
(2.13649e-14 -14.0726 28.5905)
(8.76038e-15 -16.6029 25.5512)
(-7.77916e-16 -12.6459 25.2295)
(2.57817e-15 -13.5809 22.656)
(-1.42194e-17 -11.3016 21.7473)
(1.39365e-15 -11.0503 19.969)
(-4.07075e-16 -9.77033 18.8373)
(-6.82327e-16 -8.9812 17.3027)
(1.53048e-16 -7.43107 15.0968)
(-4.11876e-16 -5.06821 11.1532)
(6.63458e-16 -2.02197 6.04152)
(3.28087e-15 0.117522 2.05317)
(4.06021e-15 0.758233 0.382804)
(3.98613e-15 0.323673 0.627896)
(3.251e-15 -0.912184 2.74157)
(2.08792e-14 -14.8464 29.3986)
(8.88858e-15 -17.4781 26.9891)
(-8.33629e-16 -13.5055 26.2873)
(2.85495e-15 -14.6808 23.6529)
(3.01049e-16 -12.2482 22.8408)
(1.4219e-15 -12.379 20.9068)
(9.76826e-17 -11.0325 19.8599)
(-7.93854e-17 -10.5776 18.3381)
(2.56402e-16 -9.34059 16.5351)
(1.49987e-16 -7.49657 13.2814)
(1.99791e-15 -4.44385 8.46072)
(4.40554e-15 -1.31953 3.44534)
(8.26905e-15 1.31961 -0.50591)
(1.10157e-14 3.20623 -3.38821)
(9.68852e-15 2.3732 -4.35253)
(2.01283e-14 -14.5887 27.9883)
(1.11929e-14 -17.9999 27.9364)
(-4.93097e-16 -13.9527 26.1006)
(2.60504e-15 -14.7893 23.3241)
(1.13804e-15 -12.6792 22.3164)
(1.12581e-15 -12.6612 20.2943)
(7.51187e-16 -11.4986 18.9996)
(6.33023e-16 -11.0011 17.3918)
(3.21654e-16 -10.152 15.7942)
(1.1709e-16 -9.08562 13.6839)
(8.73659e-16 -7.44409 10.8574)
(1.74838e-15 -5.20418 7.48483)
(2.69432e-15 -2.79992 3.73131)
(1.08682e-15 0.754271 -0.343406)
(9.85501e-15 2.04047 -5.90187)
(2.07429e-14 -13.6896 25.4992)
(1.40084e-14 -17.749 28.0289)
(1.30844e-15 -13.8948 25.3126)
(2.21901e-15 -14.0764 22.3008)
(2.31289e-15 -12.2494 21.1006)
(2.54244e-15 -11.9522 19.0704)
(1.36624e-15 -10.8365 17.594)
(1.72427e-15 -10.1519 15.8964)
(2.49947e-15 -9.31814 14.2945)
(1.08768e-15 -8.44207 12.5934)
(1.2368e-15 -7.43101 10.6785)
(3.19269e-15 -6.01381 8.47162)
(3.07664e-15 -4.39308 5.68651)
(-9.19897e-16 -1.63538 2.22923)
(6.59179e-15 0.584803 -3.19766)
(1.9783e-14 -12.8247 23.477)
(1.58544e-14 -17.212 27.7787)
(2.62832e-15 -13.7942 24.7409)
(1.93279e-15 -13.3947 21.5688)
(2.61088e-15 -11.7707 20.2106)
(2.64391e-15 -11.2998 18.2664)
(1.8564e-15 -10.2288 16.7533)
(2.05318e-15 -9.46238 15.1005)
(2.45318e-15 -8.61919 13.5728)
(2.42197e-15 -7.79092 12.0791)
(1.84049e-15 -6.977 10.5559)
(1.93745e-15 -5.95677 8.94528)
(3.28976e-15 -4.83487 6.93887)
(8.29109e-16 -2.86175 4.33378)
(-3.94654e-15 -0.509759 -0.654645)
(2.02638e-14 -12.2765 22.3017)
(1.73338e-14 -16.6079 27.2239)
(2.38032e-15 -13.7004 24.2807)
(1.96356e-15 -12.9423 21.0083)
(2.85602e-15 -11.4795 19.4924)
(1.10542e-15 -10.9622 17.7047)
(2.34809e-15 -10.0511 16.2873)
(2.68531e-15 -9.35682 14.8026)
(2.65437e-16 -8.6207 13.3932)
(1.88089e-15 -7.89475 12.0095)
(2.64284e-15 -7.20281 10.6497)
(-1.50435e-16 -6.4402 9.39788)
(1.74544e-15 -5.68849 8.12728)
(1.95125e-15 -4.36455 6.61911)
(-6.89896e-15 -1.98963 2.28437)
(1.94085e-14 -11.9999 21.8023)
(1.77637e-14 -15.7934 26.2397)
(2.15438e-15 -13.1623 23.3412)
(-5.18583e-16 -12.2737 20.03)
(2.98902e-15 -10.8089 18.5188)
(3.52494e-16 -10.3478 16.7392)
(-1.09548e-15 -9.48432 15.3332)
(1.93585e-15 -8.9327 13.7785)
(-8.94823e-16 -8.32878 12.316)
(-4.04066e-15 -7.83285 10.9967)
(-5.36321e-16 -7.47602 10.1155)
(-1.65779e-15 -7.29943 9.86485)
(-3.97355e-15 -7.14844 10.0166)
(5.32626e-16 -6.48413 9.76291)
(-4.96342e-15 -4.25176 6.49875)
(1.67248e-14 -12.4355 22.5344)
(1.44204e-14 -14.6823 25.0635)
(-3.56645e-15 -12.4626 22.4081)
(3.88341e-16 -11.4406 19.5958)
(1.44316e-15 -9.76587 17.7591)
(-4.57451e-15 -8.66478 15.2638)
(1.02665e-15 -7.22273 13.0171)
(1.87805e-15 -6.30294 10.8749)
(-4.96611e-15 -5.68879 9.48602)
(1.24626e-15 -5.80406 9.11694)
(1.60846e-15 -6.5152 9.97183)
(-7.5969e-15 -7.69716 11.695)
(-5.67317e-15 -8.66142 13.6265)
(-6.26455e-15 -8.976 14.2466)
(-8.69868e-15 -6.55282 11.3895)
(1.68384e-14 -14.1728 25.5065)
(9.88399e-15 -14.899 25.6798)
(-5.99657e-15 -12.5005 23.3286)
(9.4622e-16 -11.696 21.5962)
(-1.0916e-16 -9.77316 19.5384)
(-2.7509e-15 -7.88178 16.4747)
(3.78856e-15 -5.7157 13.5137)
(6.2478e-15 -3.90391 10.685)
(6.55905e-15 -2.239 8.21567)
(8.23843e-15 -1.20121 6.47191)
(3.95815e-15 -1.30064 6.39155)
(-1.83748e-15 -3.01798 8.59122)
(-2.83293e-15 -5.87106 12.2713)
(-7.28275e-15 -8.25758 14.8037)
(-7.55271e-15 -6.37874 12.1314)
(1.51629e-14 -14.4731 25.4475)
(1.16145e-14 -18.4719 30.2207)
(-2.57792e-15 -15.3377 26.8676)
(1.22927e-16 -14.2677 24.6885)
(-1.30679e-16 -12.6497 22.9451)
(-6.77881e-16 -10.9432 20.036)
(3.12408e-15 -8.68454 16.9799)
(5.86579e-15 -6.62965 13.9202)
(8.12223e-15 -4.46097 10.9444)
(9.1292e-15 -2.36932 7.96441)
(7.00268e-15 -0.429789 5.17595)
(2.8078e-15 0.886511 2.95947)
(-1.13917e-15 0.673881 2.69208)
(-2.78741e-15 -1.56974 5.16074)
(-2.5329e-15 -2.73514 6.34041)
(1.16181e-14 -10.2448 16.9592)
(1.55147e-14 -18.5639 28.8785)
(5.92756e-15 -18.3982 29.174)
(1.5386e-15 -16.5049 26.0767)
(-2.79662e-16 -14.5849 23.5566)
(-3.08248e-16 -13.23 21.3419)
(1.7127e-15 -11.7372 19.1808)
(2.97014e-15 -10.2461 16.8447)
(4.62899e-15 -8.60924 14.4164)
(5.9328e-15 -6.84623 11.796)
(6.33731e-15 -4.85533 8.93418)
(4.67629e-15 -2.70037 5.82155)
(1.39304e-15 -0.679366 2.73036)
(3.05798e-15 1.65371 -0.669085)
(7.37835e-15 1.67619 -2.65)
(5.53016e-15 -4.49239 7.60171)
(1.59732e-14 -15.4656 23.4396)
(1.5904e-14 -20.6349 30.0857)
(1.12817e-14 -21.5377 29.836)
(6.09541e-15 -20.3845 26.7468)
(2.6112e-15 -18.5915 23.0321)
(1.04853e-15 -16.6761 19.6491)
(2.92174e-16 -14.9353 16.8299)
(2.43055e-16 -13.2322 14.2753)
(6.19114e-16 -11.4725 12.0209)
(9.62845e-16 -9.72493 9.97413)
(2.4257e-15 -7.91923 8.01208)
(4.45499e-15 -6.02735 6.01943)
(6.00218e-15 -3.78204 3.88749)
(9.12935e-15 -1.10366 0.513292)
(-1.02957e-16 30.9659 2.3773)
(-1.27344e-14 8.45602 -1.49757)
(-1.13425e-14 -0.879688 -1.84212)
(-1.08806e-14 1.09845 -1.84243)
(-9.51742e-15 0.833244 -1.63313)
(-1.41399e-14 1.00336 -2.3938)
(-9.71905e-15 1.07598 -1.52683)
(-9.02593e-15 1.33761 -1.39252)
(-7.88254e-15 1.30604 -1.21571)
(-1.02638e-14 1.72843 -1.56294)
(-6.78623e-15 1.55118 -0.930476)
(-5.52846e-15 1.65348 -0.790619)
(-7.5889e-15 2.10754 -0.880869)
(-4.66488e-15 1.71474 -0.470588)
(-4.0454e-15 1.91142 -0.390739)
(-3.14184e-15 1.81957 -0.328963)
(-4.35617e-15 2.20443 -0.231634)
(-2.03668e-15 1.83901 -0.0143511)
(-1.23669e-15 1.88698 0.0194783)
(-1.50767e-15 2.28246 0.274934)
(3.36348e-17 1.76663 0.303319)
(5.10048e-16 1.9187 0.33794)
(1.1279e-15 1.78278 0.319148)
(1.79764e-15 2.12768 0.626237)
(2.27186e-15 1.63018 0.473183)
(2.64735e-15 1.75155 0.458926)
(2.68531e-15 1.63242 0.389829)
(3.8424e-15 1.87065 0.644609)
(3.29381e-15 1.4661 0.431729)
(3.20215e-15 1.49031 0.344167)
(4.48032e-15 1.71093 0.565869)
(3.29329e-15 1.26087 0.328842)
(3.27907e-15 1.35735 0.286071)
(2.8825e-15 1.27817 0.216931)
(3.77648e-15 1.43656 0.387842)
(2.7672e-15 1.09183 0.205484)
(2.5033e-15 1.12362 0.14249)
(3.29575e-15 1.27521 0.295191)
(2.35202e-15 0.912185 0.129283)
(2.19159e-15 0.99145 0.100808)
(2.30504e-15 0.938925 0.063149)
(3.24328e-15 1.07601 0.185053)
(2.30222e-15 0.779044 0.0803138)
(2.28331e-15 0.853077 0.0675034)
(2.11286e-15 0.80107 0.0586919)
(3.35484e-15 0.968487 0.036235)
(2.07412e-15 0.833811 0.0644107)
(1.82543e-15 0.841191 0.0858996)
(2.20836e-15 1.01351 0.172778)
(1.64838e-15 0.825693 0.185684)
(1.35675e-15 0.87887 0.208216)
(1.01539e-15 0.818019 0.238877)
(1.03811e-15 0.893828 0.353632)
(8.29213e-16 0.676162 0.251635)
(7.83062e-16 0.700726 0.269671)
(1.19171e-15 0.655122 0.371958)
(2.09713e-15 0.600307 0.0747534)
(3.14584e-15 0.383555 -0.385626)
(2.92988e-15 0.365677 -0.322114)
(5.42759e-15 0.541226 -2.01787)
(4.42929e-15 -0.0666657 -2.31473)
(3.87629e-15 0.0268743 -2.08736)
(3.81224e-15 0.318137 -1.80482)
(1.7369e-15 0.270999 -1.10713)
(-3.8251e-15 -0.701463 0.895109)
(-3.83339e-15 -0.388522 0.633112)
(-6.97251e-15 -1.12075 2.13223)
(-6.43343e-15 -1.63379 2.59681)
(-6.21372e-15 -1.79039 2.46974)
(-6.13876e-15 -1.71604 2.54763)
(-8.46298e-15 -2.93752 4.71402)
(-6.39776e-15 -3.27464 4.29003)
(-6.24827e-15 -3.66956 4.43496)
(-6.09705e-15 -3.54808 4.62601)
(-8.46719e-15 -5.47531 7.64805)
(-6.46054e-15 -5.66647 6.32232)
(-7.13885e-15 -5.67206 6.82339)
(-1.06257e-14 -8.0457 10.5664)
(-8.63154e-15 -7.9429 8.44603)
(-9.68249e-15 -8.28057 9.19814)
(-1.05208e-14 -8.91193 10.615)
(-1.13346e-14 -8.86657 10.5232)
(-1.18467e-14 -8.94958 10.7822)
(-1.50928e-14 -10.7869 13.8381)
(-1.19633e-14 -9.96168 12.1115)
(-1.23029e-14 -10.2225 12.6961)
(-1.20942e-14 -10.2133 12.8358)
(-1.18975e-14 -10.3253 12.9981)
(-1.17295e-14 -10.4045 13.2005)
(-1.16534e-14 -10.5101 13.439)
(-1.17192e-14 -10.6123 13.785)
(-1.19155e-14 -10.7059 14.2036)
(-1.31013e-14 -11.7401 16.5455)
(-1.08503e-14 -11.3724 15.1573)
(-1.0632e-14 -11.5821 15.4068)
(-1.00824e-14 -11.5505 15.4787)
(-9.57719e-15 -11.7412 15.8424)
(-8.37271e-15 -11.7307 15.8814)
(-7.02927e-15 -11.8518 16.0196)
(-5.48837e-15 -11.9124 16.1527)
(-4.00422e-15 -12.0092 16.3512)
(-9.84851e-16 -12.7465 18.3927)
(2.97975e-17 -12.3537 17.2488)
(1.52566e-15 -12.5055 17.653)
(2.24732e-15 -12.5261 17.8527)
(2.94227e-15 -12.6177 18.0883)
(3.40038e-15 -12.665 18.3764)
(3.72488e-15 -12.7814 18.7016)
(3.96251e-15 -12.8068 18.839)
(4.15068e-15 -12.8847 19.0536)
(4.33256e-15 -13.0317 19.2582)
(5.26896e-15 -12.9868 20.317)
(4.26897e-15 -12.8678 19.3742)
(4.39519e-15 -12.9849 19.5063)
(4.43986e-15 -12.999 19.4569)
(4.51342e-15 -13.0835 19.4209)
(4.5342e-15 -13.1 19.3856)
(4.5237e-15 -13.1758 19.5748)
(4.49847e-15 -13.1481 19.5921)
(4.51242e-15 -13.3164 19.5561)
(5.20346e-15 -12.3114 18.8149)
(4.38744e-15 -12.556 18.6564)
(4.65171e-15 -12.557 18.949)
(4.88836e-15 -12.5751 19.2877)
(5.05565e-15 -12.5301 19.374)
(5.22106e-15 -12.5578 19.5762)
(5.36334e-15 -12.5576 19.7809)
(5.52563e-15 -12.4843 20.0548)
(5.86981e-15 -12.7773 20.6045)
(6.12983e-15 -10.3303 17.933)
(5.94286e-15 -11.2737 18.9002)
(5.91019e-15 -11.1627 18.6572)
(5.87022e-15 -11.142 18.4472)
(6.13733e-15 -11.1066 18.4184)
(6.04886e-15 -11.0313 17.952)
(5.91496e-15 -10.9013 17.3554)
(5.89475e-15 -10.7558 16.8019)
(5.93707e-15 -10.8421 16.2246)
(5.85696e-15 -7.58466 11.8255)
(6.98734e-15 -8.94873 14.8918)
(7.10088e-15 -8.5665 14.4094)
(7.33238e-15 -8.55267 14.4816)
(7.57293e-15 -8.32116 14.4344)
(7.93948e-15 -8.24758 14.4439)
(8.78352e-15 -8.03798 14.3726)
(8.46725e-15 -7.89666 14.0538)
(8.44105e-15 -7.69403 13.6331)
(8.08936e-15 -7.62632 12.856)
(5.0007e-15 -3.72552 6.32335)
(6.82813e-15 -5.7443 9.70754)
(5.98162e-15 -5.20336 7.85813)
(5.45775e-15 -5.38937 7.03604)
(4.7502e-15 -5.02766 5.70124)
(3.90633e-15 -4.96132 4.25726)
(2.50846e-15 -4.74249 1.99975)
(1.25806e-15 -4.37958 0.0546611)
(1.3222e-15 -4.41941 0.230965)
(-8.20245e-17 -3.88014 -1.86056)
(9.16344e-16 -3.91136 -0.355625)
(4.92685e-16 -3.89065 -0.813347)
(-6.44261e-16 -2.91675 -1.80233)
(-6.1891e-17 -4.29024 -1.64822)
(-4.47323e-16 -3.36391 -1.38335)
(-3.0692e-16 -3.01365 -0.93353)
(-3.9631e-16 -3.74741 -1.30105)
(-1.92881e-16 -2.5972 -0.767597)
(-2.68284e-16 -3.26868 -1.11225)
(-9.88172e-17 -2.97404 -0.765926)
(-5.79515e-17 -2.46011 -0.519936)
(-1.36407e-16 -2.92374 -0.728537)
(-1.70448e-16 -2.73032 -0.476911)
(-1.72649e-16 -2.33403 -0.299137)
(-3.08405e-16 -3.09714 -0.404432)
(-3.02482e-16 -2.15254 -0.19391)
(-5.20923e-16 -2.81164 -0.272469)
(-3.57983e-16 -2.54308 -0.16073)
(-3.69549e-16 -2.23855 -0.0787298)
(-5.17536e-16 -3.00225 -0.126592)
(-4.13799e-16 -2.09441 -0.0348778)
(-7.27437e-16 -2.77115 -0.0467808)
(-6.81271e-16 -2.62812 -0.0300159)
(-5.74631e-16 -2.19842 0.0134074)
(-8.12992e-16 -2.70366 0.000514806)
(-6.51491e-16 -2.59983 0.00310947)
(-4.1812e-16 -2.24909 0.0336451)
(-5.82613e-16 -3.05959 0.0150791)
(-4.32582e-16 -2.14786 0.0345612)
(-6.16042e-16 -2.83779 0.0411363)
(-3.12439e-16 -2.61532 -0.00221525)
(-2.9553e-16 -2.30078 0.0113011)
(-4.08381e-16 -3.11666 -0.0336573)
(-3.16109e-16 -2.16946 -0.0199889)
(-4.85351e-16 -2.87537 -0.0479248)
(-4.15161e-16 -2.74127 -0.106255)
(-2.91732e-16 -2.26989 -0.0751308)
(-4.76997e-16 -2.78703 -0.153563)
(-4.35779e-16 -2.67563 -0.178475)
(-3.00723e-16 -2.28814 -0.130181)
(-4.50528e-16 -3.10573 -0.218428)
(-3.35991e-16 -2.14331 -0.151496)
(-4.91103e-16 -2.8234 -0.23517)
(-4.16956e-16 -2.57738 -0.247716)
(-4.32613e-16 -2.23646 -0.18621)
(-5.61794e-16 -3.01913 -0.288571)
(-3.48959e-16 -2.06 -0.199072)
(-5.53229e-16 -2.72688 -0.296621)
(-4.41183e-16 -2.56651 -0.302675)
(-3.2983e-16 -2.09564 -0.228747)
(-4.99968e-16 -2.56439 -0.359078)
(-4.31733e-16 -2.43028 -0.342341)
(-3.57783e-16 -2.0477 -0.259467)
(-4.94701e-16 -2.78328 -0.381773)
(-4.51396e-16 -1.87184 -0.267297)
(-6.39155e-16 -2.47839 -0.402287)
(-4.50851e-16 -2.2153 -0.384896)
(-3.26711e-16 -1.89425 -0.298447)
(-4.23714e-16 -2.56651 -0.435241)
(-2.55471e-16 -1.69303 -0.308487)
(-4.04251e-16 -2.26224 -0.462149)
(-3.31765e-16 -2.07563 -0.444276)
(-2.52713e-16 -1.65531 -0.349478)
(-2.73606e-16 -2.03406 -0.535452)
(-1.87131e-16 -1.87788 -0.495829)
(-3.22633e-16 -1.53716 -0.388242)
(-4.11763e-16 -2.121 -0.555573)
(-3.75851e-16 -1.33503 -0.399611)
(-5.3686e-16 -1.81657 -0.605868)
(-4.4931e-16 -1.54666 -0.559519)
(-3.44192e-16 -1.27203 -0.443858)
(-4.78108e-16 -1.77478 -0.63178)
(-3.39655e-16 -1.04624 -0.457586)
(-4.14455e-16 -1.48088 -0.693747)
(-2.98582e-16 -1.26868 -0.64158)
(-4.0666e-16 -0.922802 -0.514114)
(-5.80945e-16 -1.20231 -0.775868)
(-6.20622e-16 -1.01373 -0.699236)
(-5.19021e-16 -0.732434 -0.545861)
(-7.4173e-16 -1.18014 -0.759827)
(-6.31753e-16 -0.507863 -0.538478)
(-9.48891e-16 -0.787584 -0.826153)
(3.19282e-43 0.301285 0.332969)
(5.52423e-43 0.366157 0.330102)
(-9.04807e-43 0.406417 0.332481)
(-8.44259e-42 0.446011 0.333981)
(-2.44354e-41 0.484455 0.337483)
(-1.35827e-41 0.520761 0.341306)
(1.81363e-40 0.556306 0.346273)
(7.81828e-40 0.590697 0.351893)
(9.98763e-40 0.624461 0.358404)
(-4.09809e-39 0.65758 0.365654)
(-2.32658e-38 0.690286 0.373706)
(-3.72499e-38 0.722647 0.382512)
(9.68499e-38 0.754789 0.392083)
(6.31894e-37 0.786786 0.402399)
(1.03338e-36 0.818711 0.413457)
(-2.24136e-36 0.850612 0.42524)
(-1.36126e-35 0.882523 0.437738)
(-1.63872e-35 0.914453 0.450933)
(4.719e-35 0.946389 0.464803)
(1.10169e-34 0.978299 0.479323)
(-4.29942e-34 1.01012 0.494462)
(-1.19572e-33 1.04179 0.510185)
(8.67487e-33 1.07322 0.526453)
(5.64723e-32 1.10431 0.543226)
(7.5318e-32 1.13498 0.560462)
(-5.50119e-31 1.16516 0.578125)
(-3.24307e-30 1.19483 0.596183)
(-5.98015e-30 1.22396 0.614611)
(1.48969e-29 1.25261 0.633394)
(1.27419e-28 1.28086 0.652525)
(3.49504e-28 1.30882 0.672002)
(8.19337e-29 1.33662 0.691826)
(-3.1827e-27 1.36438 0.711992)
(-1.38301e-26 1.39222 0.732495)
(-2.67968e-26 1.42027 0.753332)
(1.78773e-26 1.44871 0.774522)
(3.24876e-25 1.47785 0.796115)
(1.22551e-24 1.50817 0.818198)
(2.30736e-24 1.54025 0.840876)
(-1.16484e-24 1.5747 0.864217)
(-2.58783e-23 1.61183 0.888181)
(-1.0164e-22 1.65158 0.912584)
(-2.11616e-22 1.6935 0.937091)
(-3.80632e-23 1.73685 0.961224)
(1.59192e-21 1.7807 0.984384)
(6.99797e-21 1.82412 1.00588)
(1.686e-20 1.86625 1.02491)
(1.76433e-20 1.90635 1.04057)
(-4.81479e-20 1.94378 1.05171)
(-3.18205e-19 1.9777 1.05685)
(-9.79904e-19 2.00674 1.05394)
(-1.97723e-18 2.02847 1.04035)
(-2.11542e-18 2.03906 1.01288)
(2.80959e-18 2.03282 0.968075)
(2.29509e-17 2.00152 0.902597)
(7.77671e-17 1.93354 0.813583)
(1.98244e-16 1.81138 0.69907)
(4.28496e-16 1.61034 0.5577)
(8.33766e-16 1.28173 0.378538)
(1.37643e-15 0.438397 0.108475)
(6.44774e-16 -0.904595 -0.24638)
(1.03986e-16 -1.47479 -0.303492)
(-6.11027e-19 -1.92531 -0.341603)
(-3.9426e-18 -2.41285 -0.360767)
(-7.381e-19 -2.90575 -0.377723)
(-1.2455e-20 -3.36056 -0.380902)
(1.86566e-20 -3.73922 -0.385496)
(2.4367e-21 -4.03764 -0.380782)
(-2.80052e-22 -4.21923 -0.384976)
(-9.46438e-23 -4.31164 -0.372246)
(-6.54613e-23 -4.2522 -0.375946)
(1.10309e-22 -4.1819 -0.336795)
(-4.3957e-22 -3.91837 -0.347651)
(2.16447e-21 -3.94938 -0.259857)
(-1.45982e-20 -3.48358 -0.3438)
(2.14451e-19 -4.02691 -0.17165)
(-3.42363e-18 -3.305 -0.424184)
(3.87181e-17 -3.99998 -0.264334)
(-3.48282e-17 -6.06644 -0.430109)
(6.86727e-43 0.301912 0.358616)
(1.43667e-42 0.366341 0.354119)
(-9.47809e-43 0.405873 0.35639)
(-1.63041e-41 0.445267 0.357477)
(-5.53392e-41 0.483329 0.360959)
(-6.13223e-41 0.519391 0.364747)
(2.91649e-40 0.554642 0.369831)
(1.66287e-39 0.588781 0.375609)
(3.21972e-39 0.62228 0.382362)
(-4.59171e-39 0.65515 0.389903)
(-4.73002e-38 0.687604 0.398308)
(-1.20805e-37 0.71972 0.407513)
(3.06034e-38 0.751619 0.41753)
(1.22658e-36 0.783377 0.428334)
(3.92469e-36 0.815067 0.439915)
(2.77423e-36 0.846737 0.452254)
(-2.33351e-35 0.878422 0.465333)
(-1.06765e-34 0.910133 0.479126)
(-2.26273e-34 0.941858 0.493605)
(-8.86535e-35 0.973566 0.508736)
(1.77209e-33 1.0052 0.524481)
(1.12016e-32 1.03669 0.540797)
(3.9247e-32 1.06795 0.557639)
(4.43295e-32 1.09888 0.574966)
(-3.6162e-31 1.12942 0.592736)
(-2.38598e-30 1.15947 0.610918)
(-6.1586e-30 1.18901 0.629487)
(2.98024e-30 1.21804 0.648431)
(8.81132e-29 1.24657 0.667748)
(3.44505e-28 1.27471 0.687445)
(4.80579e-28 1.30255 0.707529)
(-1.68792e-27 1.33024 0.728006)
(-1.21628e-26 1.35789 0.748871)
(-3.42265e-26 1.38562 0.770119)
(-2.42082e-26 1.41356 0.791755)
(2.29575e-25 1.44187 0.813822)
(1.20862e-24 1.47087 0.836412)
(3.01182e-24 1.501 0.859665)
(1.73984e-24 1.53287 0.883719)
(-1.99046e-23 1.5671 0.908624)
(-1.00663e-22 1.60407 0.934257)
(-2.55e-22 1.64374 0.960312)
(-2.21272e-22 1.68571 0.986336)
(1.1905e-21 1.72929 1.01175)
(6.78136e-21 1.77358 1.03589)
(1.89346e-20 1.81767 1.05805)
(2.71616e-20 1.86074 1.07744)
(-2.59653e-20 1.90211 1.09317)
(-2.96458e-19 1.94123 1.10409)
(-1.0359e-18 1.97741 1.10861)
(-2.309e-18 2.00945 1.10452)
(-3.00146e-18 2.03513 1.08902)
(1.40569e-18 2.05071 1.05903)
(2.25144e-17 2.05051 1.01164)
(8.34254e-17 2.02618 0.944545)
(2.21699e-16 1.96586 0.85604)
(4.87575e-16 1.85193 0.744969)
(9.39347e-16 1.66125 0.609419)
(1.65488e-15 1.35014 0.426944)
(2.51606e-15 0.548784 0.155584)
(7.40009e-16 -0.916066 -0.29836)
(1.16228e-16 -1.49833 -0.317183)
(-2.01406e-18 -1.94846 -0.355062)
(-4.43232e-18 -2.43995 -0.374556)
(-7.92913e-19 -2.93373 -0.385394)
(-1.10752e-20 -3.38804 -0.38279)
(2.03378e-20 -3.76411 -0.382562)
(2.68145e-21 -4.05858 -0.374341)
(-2.92647e-22 -4.23631 -0.37595)
(-1.02513e-22 -4.32392 -0.362474)
(-6.5717e-23 -4.26312 -0.365752)
(1.10037e-22 -4.18717 -0.327605)
(-4.39587e-22 -3.92551 -0.339226)
(2.1753e-21 -3.94382 -0.253506)
(-1.48682e-20 -3.48464 -0.337497)
(2.19521e-19 -4.00588 -0.168619)
(-3.49451e-18 -3.28001 -0.417393)
(3.85158e-17 -3.98223 -0.260863)
(-3.26783e-17 -5.98651 -0.435433)
(1.15311e-42 0.302349 0.372298)
(2.8276e-42 0.366543 0.367164)
(5.21674e-44 0.405652 0.369359)
(-2.43957e-41 0.444939 0.37024)
(-9.75669e-41 0.482795 0.373716)
(-1.53777e-40 0.518731 0.377494)
(3.41269e-40 0.553831 0.382648)
(2.79234e-39 0.587842 0.388521)
(7.06738e-39 0.621208 0.395412)
(-1.84561e-39 0.653952 0.403121)
(-7.84372e-38 0.68628 0.411724)
(-2.68479e-37 0.718275 0.421153)
(-1.78184e-37 0.750054 0.43142)
(2.10743e-36 0.781695 0.442494)
(9.63267e-36 0.81327 0.454365)
(1.43106e-35 0.84483 0.467011)
(-4.53674e-35 0.876409 0.480408)
(-3.26701e-34 0.908017 0.494528)
(-8.29893e-34 0.939647 0.509338)
(1.00253e-34 0.971265 0.5248)
(9.63476e-33 1.00282 0.54087)
(4.09959e-32 1.03423 0.557504)
(6.97056e-32 1.06542 0.574654)
(-1.76955e-31 1.09629 0.592277)
(-1.64298e-30 1.12677 0.610335)
(-5.25164e-30 1.15677 0.628799)
(-3.75455e-30 1.18626 0.64765)
(4.5355e-29 1.21522 0.666883)
(2.42548e-28 1.2437 0.686505)
(5.45111e-28 1.27178 0.706528)
(-3.08233e-28 1.29956 0.726966)
(-7.17685e-27 1.32718 0.747823)
(-2.76236e-26 1.35477 0.769094)
(-4.52114e-26 1.38244 0.790772)
(8.20603e-26 1.41031 0.812869)
(7.94077e-25 1.43854 0.835444)
(2.61849e-24 1.46742 0.85862)
(3.75421e-24 1.49742 0.882567)
(-8.11143e-24 1.52915 0.907438)
(-6.87349e-23 1.56324 0.933266)
(-2.21048e-22 1.60012 0.959863)
(-3.41831e-22 1.63978 0.986849)
(4.26701e-22 1.68182 1.01371)
(4.60273e-21 1.72558 1.03982)
(1.58081e-20 1.77015 1.0645)
(3.01268e-20 1.81463 1.08703)
(6.87771e-21 1.8582 1.10666)
(-1.87102e-19 1.90022 1.12252)
(-8.12376e-19 1.94019 1.13344)
(-2.08002e-18 1.97751 1.1378)
(-3.34024e-18 2.01108 1.13338)
(-1.03637e-18 2.03869 1.11759)
(1.4982e-17 2.05656 1.08793)
(6.63042e-17 2.05888 1.04252)
(1.89932e-16 2.03716 0.980259)
(4.37763e-16 1.97949 0.900145)
(8.6786e-16 1.86856 0.800611)
(1.53332e-15 1.68342 0.677549)
(2.50226e-15 1.38191 0.499237)
(3.59588e-15 0.613704 0.244947)
(1.14512e-15 -0.834464 -0.341069)
(1.68409e-16 -1.47404 -0.352068)
(-8.28114e-18 -1.92714 -0.376706)
(-5.71645e-18 -2.42169 -0.396124)
(-8.39959e-19 -2.91839 -0.398683)
(-5.16661e-21 -3.37501 -0.387063)
(2.25058e-20 -3.75315 -0.379408)
(2.99263e-21 -4.0494 -0.365749)
(-3.08525e-22 -4.2298 -0.363226)
(-1.1274e-22 -4.31955 -0.348365)
(-6.60922e-23 -4.2636 -0.350927)
(1.09732e-22 -4.18902 -0.314024)
(-4.39632e-22 -3.93446 -0.326698)
(2.18872e-21 -3.94694 -0.243741)
(-1.51939e-20 -3.49831 -0.3281)
(2.25689e-19 -4.00272 -0.162693)
(-3.57757e-18 -3.27687 -0.40929)
(3.82782e-17 -3.98751 -0.251925)
(-3.07117e-17 -5.9386 -0.444275)
(1.84838e-42 0.303033 0.388385)
(5.31742e-42 0.36684 0.382647)
(3.16871e-42 0.405342 0.384775)
(-3.32622e-41 0.44445 0.385469)
(-1.62636e-40 0.481993 0.388953)
(-3.30375e-40 0.51773 0.392744)
(2.90635e-40 0.552596 0.397996)
(4.39973e-39 0.586408 0.403998)
(1.36647e-38 0.619567 0.411068)
(5.25761e-39 0.652118 0.418989)
(-1.25458e-37 0.684252 0.427842)
(-5.17826e-37 0.716058 0.437551)
(-5.22223e-37 0.747652 0.448128)
(3.83877e-36 0.779111 0.459539)
(1.99884e-35 0.81051 0.471771)
(3.04426e-35 0.841898 0.484797)
(-1.15114e-34 0.87331 0.49859)
(-7.88686e-34 0.904759 0.513118)
(-1.70608e-33 0.936238 0.528343)
(2.50042e-33 0.967714 0.54422)
(2.99174e-32 0.999134 0.560702)
(9.21069e-32 1.03043 0.577739)
(2.9386e-32 1.0615 0.595281)
(-9.52241e-31 1.09227 0.613283)
(-4.35724e-30 1.12265 0.631708)
(-7.54292e-30 1.15256 0.650531)
(1.75203e-29 1.18196 0.669739)
(1.60415e-28 1.21084 0.689334)
(4.95917e-28 1.23923 0.709332)
(3.83208e-28 1.26721 0.729755)
(-3.67629e-27 1.2949 0.750623)
(-1.99078e-26 1.32243 0.771941)
(-4.79017e-26 1.34993 0.793704)
(-4.82913e-27 1.37751 0.815902)
(4.55673e-25 1.40527 0.838554)
(2.01294e-24 1.43338 0.861737)
(4.31303e-24 1.46211 0.885604)
(-3.57242e-25 1.49191 0.910363)
(-4.13277e-23 1.52343 0.936195)
(-1.73796e-22 1.55733 0.963118)
(-3.75827e-22 1.59408 0.990881)
(-9.53168e-23 1.6337 1.01902)
(2.75154e-21 1.67585 1.04696)
(1.23049e-20 1.71985 1.07399)
(2.95701e-20 1.76482 1.09941)
(2.89055e-20 1.80987 1.12249)
(-9.73181e-20 1.85419 1.14251)
(-6.02169e-19 1.89718 1.1586)
(-1.80335e-18 1.93844 1.16962)
(-3.45733e-18 1.97748 1.17397)
(-2.92406e-18 2.01327 1.16963)
(8.49188e-18 2.04363 1.15459)
(5.08316e-17 2.06467 1.12748)
(1.60533e-16 2.0704 1.08791)
(3.91514e-16 2.05231 1.03596)
(8.07816e-16 1.9986 0.97054)
(1.46544e-15 1.89261 0.888218)
(2.39637e-15 1.71604 0.780765)
(3.64448e-15 1.42922 0.607536)
(4.95535e-15 0.712646 0.35574)
(1.97267e-15 -0.7676 -0.341978)
(2.91468e-16 -1.466 -0.407681)
(-2.09158e-17 -1.92063 -0.408958)
(-8.53781e-18 -2.41717 -0.424907)
(-8.91207e-19 -2.91701 -0.418038)
(1.12404e-20 -3.37491 -0.394332)
(2.53538e-20 -3.75317 -0.376628)
(3.32074e-21 -4.04929 -0.355573)
(-3.28869e-22 -4.22993 -0.347337)
(-1.24092e-22 -4.31955 -0.33022)
(-6.65365e-23 -4.26602 -0.331753)
(1.09456e-22 -4.19084 -0.29613)
(-4.39706e-22 -3.94103 -0.310287)
(2.20256e-21 -3.94728 -0.230548)
(-1.55206e-20 -3.50659 -0.316094)
(2.31964e-19 -3.99651 -0.15412)
(-3.65857e-18 -3.26977 -0.399871)
(3.80423e-17 -3.98636 -0.241888)
(-2.86526e-17 -5.89435 -0.42893)
(2.63942e-42 0.303711 0.40367)
(9.03006e-42 0.367165 0.397536)
(1.03619e-41 0.405114 0.399607)
(-3.44055e-41 0.44405 0.40016)
(-2.31144e-40 0.481306 0.403665)
(-5.93754e-40 0.516861 0.407489)
(-8.08016e-41 0.551515 0.412848)
(5.53953e-39 0.585147 0.418989)
(2.11701e-38 0.618121 0.426244)
(1.83493e-38 0.650497 0.434382)
(-1.61907e-37 0.682458 0.443487)
(-7.60672e-37 0.714097 0.453479)
(-7.58443e-37 0.745526 0.464367)
(6.34041e-36 0.776826 0.476114)
(3.1042e-35 0.808068 0.488706)
(3.02124e-35 0.839306 0.50211)
(-2.8428e-34 0.870574 0.516298)
(-1.43337e-33 0.901888 0.531232)
(-1.76284e-33 0.933238 0.546869)
(1.15167e-32 0.964596 0.563159)
(6.76643e-32 0.995908 0.580051)
(1.26821e-31 1.0271 0.597489)
(-3.18606e-31 1.05809 0.615421)
(-2.84681e-30 1.08878 0.633801)
(-8.03775e-30 1.11908 0.652593)
(-4.30626e-31 1.14892 0.671774)
(9.03654e-29 1.17825 0.691338)
(3.8886e-28 1.20705 0.711295)
(6.62888e-28 1.23536 0.731671)
(-1.3712e-27 1.26326 0.752496)
(-1.295e-26 1.29086 0.773795)
(-4.15493e-26 1.3183 0.795578)
(-4.68653e-26 1.34571 0.817834)
(2.15313e-25 1.3732 0.840554)
(1.39586e-24 1.40086 0.863759)
(3.95573e-24 1.42884 0.887543)
(3.80786e-24 1.45741 0.912093)
(-2.05991e-23 1.487 0.937658)
(-1.2377e-22 1.51829 0.96445)
(-3.45884e-22 1.552 0.992473)
(-3.88686e-22 1.58863 1.02141)
(1.31321e-21 1.62824 1.05073)
(8.76866e-21 1.67051 1.07975)
(2.61268e-20 1.71478 1.10774)
(4.04273e-20 1.76015 1.13393)
(-2.87266e-20 1.80573 1.15762)
(-4.09488e-19 1.85074 1.17808)
(-1.47838e-18 1.89461 1.19447)
(-3.3228e-18 1.93699 1.20573)
(-4.1705e-18 1.97748 1.21047)
(3.1233e-18 2.01504 1.20729)
(3.66878e-17 2.04737 1.19539)
(1.31741e-16 2.07035 1.17519)
(3.43286e-16 2.07788 1.148)
(7.4042e-16 2.06163 1.11435)
(1.38891e-15 2.01034 1.07135)
(2.32389e-15 1.90849 1.01157)
(3.53537e-15 1.74069 0.920889)
(5.02959e-15 1.47027 0.752529)
(6.4861e-15 0.811728 0.495967)
(3.29709e-15 -0.689223 -0.298673)
(5.26042e-16 -1.45847 -0.476585)
(-3.55599e-17 -1.9231 -0.457067)
(-1.41123e-17 -2.42062 -0.462649)
(-1.14218e-18 -2.92419 -0.444389)
(4.51163e-20 -3.38325 -0.40544)
(3.12821e-20 -3.76048 -0.374566)
(3.68531e-21 -4.05519 -0.343849)
(-3.69169e-22 -4.23455 -0.328118)
(-1.36693e-22 -4.32249 -0.30769)
(-6.69537e-23 -4.27019 -0.307789)
(1.09229e-22 -4.19303 -0.273456)
(-4.39797e-22 -3.94717 -0.289466)
(2.21605e-21 -3.94596 -0.213479)
(-1.58281e-20 -3.51288 -0.30104)
(2.38035e-19 -3.98729 -0.142511)
(-3.73352e-18 -3.25931 -0.389091)
(3.78262e-17 -3.98187 -0.227289)
(-2.8241e-17 -5.84237 -0.432619)
(2.82285e-42 0.304472 0.41892)
(1.25791e-41 0.367523 0.412518)
(2.41317e-41 0.404885 0.414545)
(7.983e-43 0.443622 0.415002)
(-1.99318e-40 0.480561 0.418543)
(-8.13504e-40 0.515911 0.422422)
(-1.42144e-39 0.55033 0.427902)
(1.86834e-39 0.583762 0.434199)
(1.86255e-38 0.616529 0.441652)
(4.19378e-38 0.648713 0.450024)
(-3.96301e-38 0.680482 0.459396)
(-4.19587e-37 0.711936 0.469686)
(-1.69134e-37 0.743183 0.4809)
(5.81834e-36 0.774306 0.493)
(1.75028e-35 0.805377 0.505967)
(-5.21654e-35 0.83645 0.519767)
(-5.34676e-34 0.867561 0.534367)
(-1.3555e-33 0.898725 0.549725)
(2.87362e-33 0.929936 0.565793)
(3.32695e-32 0.961165 0.582516)
(1.0175e-31 0.99236 0.599838)
(-2.61322e-32 1.02345 0.617697)
(-1.47842e-30 1.05434 0.63604)
(-6.02333e-30 1.08494 0.654819)
(-7.43153e-30 1.11516 0.673997)
(4.09268e-29 1.14492 0.693556)
(2.63428e-28 1.17417 0.713496)
(6.67353e-28 1.20289 0.733835)
(-5.36321e-29 1.23111 0.754607)
(-7.48541e-27 1.25891 0.775853)
(-3.18389e-26 1.28641 0.797604)
(-6.01972e-26 1.31375 0.819872)
(6.3296e-26 1.34106 0.842645)
(8.77743e-25 1.36845 0.865908)
(3.19686e-24 1.396 0.889685)
(5.43171e-24 1.42384 0.914088)
(-6.72637e-24 1.45222 0.939338)
(-7.97914e-23 1.48157 0.965731)
(-2.83428e-22 1.51259 0.993513)
(-5.0543e-22 1.54607 1.02268)
(3.13992e-22 1.58257 1.05286)
(5.62816e-21 1.62218 1.08342)
(2.11333e-20 1.66459 1.11361)
(4.35683e-20 1.70916 1.14263)
(1.86539e-20 1.75498 1.16969)
(-2.44967e-19 1.80116 1.19406)
(-1.13901e-18 1.84692 1.21502)
(-2.99716e-18 1.89174 1.23182)
(-4.82889e-18 1.93529 1.24359)
(-1.07411e-18 1.97718 1.24957)
(2.4169e-17 2.01625 1.24963)
(1.04253e-16 2.04995 1.24503)
(2.94485e-16 2.07395 1.23842)
(6.6823e-16 2.08227 1.23222)
(1.30044e-15 2.0672 1.22558)
(2.23979e-15 2.01852 1.21124)
(3.47768e-15 1.92223 1.17573)
(4.94608e-15 1.76548 1.09844)
(6.6122e-15 1.51586 0.931012)
(8.14108e-15 0.924655 0.663363)