/*--------------------------------*- C++ -*----------------------------------*\
| =========                 |                                                 |
| \\      /  F ield         | OpenFOAM: The Open Source CFD Toolbox           |
|  \\    /   O peration     | Version:  4.1                                   |
|   \\  /    A nd           | Web:      www.OpenFOAM.org                      |
|    \\/     M anipulation  |                                                 |
\*---------------------------------------------------------------------------*/
FoamFile
{
    version     2.0;
    format      ascii;
    class       surfaceScalarField;
    location    "1";
    object      phi;
}
// * * * * * * * * * * * * * * * * * * * * * * * * * * * * * * * * * * * * * //

dimensions      [0 3 -1 0 0 0 0];

internalField   nonuniform List<scalar> 
420
(
-937.937
2242.15
-1549.65
1916.14
-2010.9
1765.23
-2366.84
1659.7
-2632.89
1570.1
-2813.66
1484.19
-2910.52
1400.17
-2923.74
1316.5
-2853.09
1231.97
-2695.54
1145.27
-2446.33
1053.02
-2084.56
941.572
-1581.99
801.128
-929.479
651.499
370.6
366.255
1896.87
458.798
1846.86
482.175
1767.02
466.044
1700.36
446.3
1615.72
429.731
1525.54
420.348
1436.07
411.815
1347.03
409.092
1260.05
398.3
1177.48
369.716
1097.46
328.793
1012.9
247.542
915.666
151.012
780.32
522.643
16.6444
1890.37
-90.3112
1962.89
-248.128
1936.41
-383.752
1847.24
-489.692
1738.86
-586.092
1635.21
-668.965
1537.08
-751.365
1441.46
-820.17
1347.16
-873.899
1257.62
-938.449
1170.71
-908.597
1057.61
-777.081
862.212
-429.537
517.044
92.6413
49.2872
1837.93
-97.5902
2106.48
-254.933
2091
-366.161
1956.11
-450.433
1819.09
-512.596
1698.41
-560.5
1583.59
-582.072
1470.05
-589.224
1358.14
-583.419
1250.65
-542.718
1142.95
-522.727
995
-429.944
725.512
-236.679
277.14
-144.217
165.349
1661.16
107.125
2154.52
46.759
2137.99
21.0277
1970.29
8.20731
1817.72
3.16609
1690.3
2.32866
1569.98
7.09112
1449.09
20.8634
1329.77
39.5477
1215.78
58.8243
1103.71
88.7317
959.591
91.7763
699.655
79.0642
266.741
-65.6225
202.673
1447.84
196.925
2149.99
171.875
2152.65
172.196
1958.01
182.404
1794.26
193.706
1665.85
202.096
1545.86
214.23
1425.96
220.529
1306.27
228.678
1191.47
244.655
1081.57
215.356
948.524
147.084
716.515
37.8077
322.817
-27.9416
202.755
1238.72
233.827
2112.11
214.795
2166.14
208.928
1956.9
214.675
1782.79
216.502
1656.93
216.993
1539.45
214.612
1420.97
211.485
1303.37
206.929
1188.97
202.874
1079.57
191.334
953.649
154.238
741.209
82.4117
381.626
54.3856
189.587
1045.26
246.126
2050.26
231.578
2177.93
213.136
1970.02
206.098
1786.51
196.842
1661.5
184.571
1547.58
172.107
1430.3
156.873
1313.54
141.64
1200.57
126.84
1091.24
105.248
968.245
68.5508
768.924
8.36033
432.667
62.6735
169.911
872.148
246.448
1969.62
239.79
2182.05
218.046
1987.59
204.117
1797.36
190.492
1671.1
176.68
1558.16
161.679
1441.85
147.198
1324.73
132.869
1211.32
119.27
1101.68
104.414
978.401
82.6551
783.336
50.942
457.055
113.569
141.613
726.882
226.23
1881.13
225.398
2179.56
199.13
2009.86
177.926
1814.89
157.98
1687.02
138.783
1573.7
120.143
1456.8
100.978
1340.19
82.495
1226.46
65.6309
1116.07
47.562
992.683
27.0219
798.734
0.93041
477.962
114.353
118.697
603.264
206.492
1789.3
214.721
2167.45
188.744
2031.91
164.177
1834.97
145.112
1702.53
126.296
1588.23
111.517
1469.64
97.0573
1351.74
82.029
1237.82
72.8176
1125.82
51.4573
999.79
30.7711
803.581
13.5931
479.96
128.052
99.1643
500.784
190.28
1696.54
203.507
2150.86
177.581
2056.68
146.961
1863.03
123.755
1724.85
103.612
1607.41
83.4788
1488.2
64.9716
1369.36
48.5665
1254.89
28.7493
1143.12
23.6264
1016.52
17.494
821.345
1.38039
506.77
129.129
84.7465
419.793
177.471
1606.26
202.214
2128.87
181
2079.8
157.722
1889.2
140.417
1744.24
127.738
1621.84
120.037
1499.63
113.042
1379.13
104.013
1261.85
110.686
1146.9
78.0183
1017.36
48.0257
820.613
16.3982
508.578
145.882
46.2008
381.084
145.27
1511
185.339
2093.47
163.121
2105.42
132.593
1925.86
107.928
1771.73
93.0712
1644.07
73.2636
1519.35
58.6394
1398.15
45.0813
1281.85
19.1217
1166.75
36.815
1038.98
45.8407
849.484
27.9608
561.695
173.488
24.7625
95.8826
123.908
116.936
90.7676
78.0712
60.3237
54.2968
41.0222
40.894
38.1815
34.8406
20.5338
20.3813
)
;

boundaryField
{
    inletFace
    {
        type            calculated;
        value           nonuniform List<scalar> 
450
(
2.43302e-13
6.45617e-13
-1.75455e-13
-1.09765e-13
9.04078e-14
-2.00595e-13
-6.52041e-14
7.66189e-14
-1.05205e-13
-3.40975e-14
5.14595e-14
-2.3755e-14
4.19385e-15
-1.57697e-14
8.94731e-15
-1.80529e-12
-1.18912e-12
1.76011e-13
-2.11158e-14
-1.58654e-13
2.13623e-14
-3.00952e-13
-1.0357e-13
1.44049e-14
-9.90248e-14
-4.85543e-14
2.12872e-14
2.22464e-14
5.08598e-14
-1.42466e-14
-1.98529e-12
-1.88826e-12
5.51095e-14
-1.708e-13
-1.80089e-13
-1.16362e-13
-3.23701e-13
-2.43449e-13
-3.72051e-14
-6.95629e-14
-3.56497e-14
-1.31946e-13
-1.24532e-13
-5.12282e-14
2.11033e-14
-2.4512e-12
-1.81192e-12
-1.81613e-13
-7.32344e-13
-2.04151e-13
-2.61444e-13
-4.89841e-13
-3.39442e-13
-3.59187e-13
-2.08364e-13
1.70825e-14
-1.25102e-13
-2.9691e-13
-4.19002e-14
-2.74446e-13
-2.10766e-12
-1.85986e-12
-1.64397e-13
-8.15456e-13
-2.62465e-13
-1.02119e-13
-5.09027e-13
-2.34912e-13
-3.51819e-13
-2.45852e-13
-2.634e-13
-1.10666e-13
-2.80111e-13
-2.24686e-13
-2.25747e-13
-1.88501e-12
-2.18679e-12
-4.42942e-13
-7.08783e-13
-3.28993e-13
-1.82086e-13
-4.16383e-13
-3.81844e-13
-1.95812e-13
-3.04977e-13
-4.26141e-13
-4.09115e-13
-3.3615e-13
-3.14054e-13
1.43983e-13
-1.60149e-12
-2.3511e-12
-8.08514e-13
-6.6532e-13
-4.48141e-13
-2.86659e-13
-4.1817e-13
-3.37413e-13
-2.32686e-13
-2.86684e-13
-1.98191e-13
-2.49723e-13
-2.57479e-13
-6.81326e-14
3.73847e-14
-1.39298e-12
-2.32594e-12
-1.01457e-12
-6.81977e-13
-4.62371e-13
-2.75761e-13
-4.09e-13
-3.04975e-13
-1.96742e-13
-1.67062e-13
-1.72354e-13
-6.32201e-14
-1.75612e-13
-8.68602e-14
8.93805e-14
-1.222e-12
-2.31457e-12
-1.14531e-12
-6.81259e-13
-4.44123e-13
-2.45844e-13
-4.05971e-13
-3.89449e-13
-1.75784e-13
-1.68013e-13
-2.295e-13
-1.3876e-13
-1.45763e-13
-1.68306e-13
-5.82005e-14
-9.88237e-13
-2.24834e-12
-1.3252e-12
-7.655e-13
-4.67503e-13
-2.31981e-13
-3.34273e-13
-3.79432e-13
-2.10486e-13
-1.97485e-13
-2.0982e-13
-2.39616e-13
-2.52885e-13
-2.90708e-13
-1.92789e-13
-8.72535e-13
-2.2229e-12
-1.5467e-12
-8.005e-13
-4.71283e-13
-2.70316e-13
-3.4276e-13
-3.49748e-13
-2.00288e-13
-2.06213e-13
-2.61013e-13
-1.75131e-13
-2.79575e-13
-1.93934e-13
-2.16246e-13
-8.22732e-13
-2.16115e-12
-1.6367e-12
-8.3828e-13
-4.73296e-13
-3.41155e-13
-3.91292e-13
-3.60475e-13
-2.43339e-13
-2.24695e-13
-2.48241e-13
-1.80847e-13
-1.83509e-13
-1.4411e-13
-1.87556e-13
-6.71251e-13
-2.04591e-12
-1.71468e-12
-9.41829e-13
-5.01993e-13
-3.81586e-13
-3.88218e-13
-4.48997e-13
-2.8152e-13
-2.19918e-13
-2.30746e-13
-2.26669e-13
-1.69199e-13
-2.85137e-13
-1.46531e-13
-6.07086e-13
-1.94425e-12
-1.7975e-12
-1.01556e-12
-5.3068e-13
-4.07468e-13
-4.0345e-13
-4.18547e-13
-3.17974e-13
-2.42323e-13
-2.2512e-13
-2.27523e-13
-2.08945e-13
-2.88335e-13
-1.60784e-13
-5.54297e-13
-1.80426e-12
-1.85683e-12
-1.16822e-12
-5.96365e-13
-4.295e-13
-4.14201e-13
-3.67129e-13
-3.38187e-13
-2.63485e-13
-2.22628e-13
-2.62196e-13
-2.31474e-13
-2.64708e-13
-1.52908e-13
-2.43302e-13
-6.45617e-13
1.75455e-13
1.09765e-13
-9.04078e-14
2.00595e-13
6.52041e-14
-7.66189e-14
1.05205e-13
3.40975e-14
-5.14595e-14
2.3755e-14
-4.19385e-15
1.57697e-14
-8.94731e-15
1.80529e-12
1.18912e-12
-1.76011e-13
2.11158e-14
1.58654e-13
-2.13623e-14
3.00952e-13
1.0357e-13
-1.44049e-14
9.90248e-14
4.85543e-14
-2.12872e-14
-2.22464e-14
-5.08598e-14
1.42466e-14
1.98529e-12
1.88826e-12
-5.51095e-14
1.708e-13
1.80089e-13
1.16362e-13
3.23701e-13
2.43449e-13
3.72051e-14
6.95629e-14
3.56497e-14
1.31946e-13
1.24532e-13
5.12282e-14
-2.11033e-14
2.4512e-12
1.81192e-12
1.81613e-13
7.32344e-13
2.04151e-13
2.61444e-13
4.89841e-13
3.39442e-13
3.59187e-13
2.08364e-13
-1.70825e-14
1.25102e-13
2.9691e-13
4.19002e-14
2.74446e-13
2.10766e-12
1.85986e-12
1.64397e-13
8.15456e-13
2.62465e-13
1.02119e-13
5.09027e-13
2.34912e-13
3.51819e-13
2.45852e-13
2.634e-13
1.10666e-13
2.80111e-13
2.24686e-13
2.25747e-13
1.88501e-12
2.18679e-12
4.42942e-13
7.08783e-13
3.28993e-13
1.82086e-13
4.16383e-13
3.81844e-13
1.95812e-13
3.04977e-13
4.26141e-13
4.09115e-13
3.3615e-13
3.14054e-13
-1.43983e-13
1.60149e-12
2.3511e-12
8.08514e-13
6.6532e-13
4.48141e-13
2.86659e-13
4.1817e-13
3.37413e-13
2.32686e-13
2.86684e-13
1.98191e-13
2.49723e-13
2.57479e-13
6.81326e-14
-3.73847e-14
1.39298e-12
2.32594e-12
1.01457e-12
6.81977e-13
4.62371e-13
2.75761e-13
4.09e-13
3.04975e-13
1.96742e-13
1.67062e-13
1.72354e-13
6.32201e-14
1.75612e-13
8.68602e-14
-8.93805e-14
1.222e-12
2.31457e-12
1.14531e-12
6.81259e-13
4.44123e-13
2.45844e-13
4.05971e-13
3.89449e-13
1.75784e-13
1.68013e-13
2.295e-13
1.3876e-13
1.45763e-13
1.68306e-13
5.82005e-14
9.88237e-13
2.24834e-12
1.3252e-12
7.655e-13
4.67503e-13
2.31981e-13
3.34273e-13
3.79432e-13
2.10486e-13
1.97485e-13
2.0982e-13
2.39616e-13
2.52885e-13
2.90708e-13
1.92789e-13
8.72535e-13
2.2229e-12
1.5467e-12
8.005e-13
4.71283e-13
2.70316e-13
3.4276e-13
3.49748e-13
2.00288e-13
2.06213e-13
2.61013e-13
1.75131e-13
2.79575e-13
1.93934e-13
2.16246e-13
8.22732e-13
2.16115e-12
1.6367e-12
8.3828e-13
4.73296e-13
3.41155e-13
3.91292e-13
3.60475e-13
2.43339e-13
2.24695e-13
2.48241e-13
1.80847e-13
1.83509e-13
1.4411e-13
1.87556e-13
6.71251e-13
2.04591e-12
1.71468e-12
9.41829e-13
5.01993e-13
3.81586e-13
3.88218e-13
4.48997e-13
2.8152e-13
2.19918e-13
2.30746e-13
2.26669e-13
1.69199e-13
2.85137e-13
1.46531e-13
6.07086e-13
1.94425e-12
1.7975e-12
1.01556e-12
5.3068e-13
4.07468e-13
4.0345e-13
4.18547e-13
3.17974e-13
2.42323e-13
2.2512e-13
2.27523e-13
2.08945e-13
2.88335e-13
1.60784e-13
5.54297e-13
1.80426e-12
1.85683e-12
1.16822e-12
5.96365e-13
4.295e-13
4.14201e-13
3.67129e-13
3.38187e-13
2.63485e-13
2.22628e-13
2.62196e-13
2.31474e-13
2.64708e-13
1.52908e-13
)
;
    }
    inlet
    {
        type            calculated;
        value           nonuniform List<scalar> 
15
(
-1299.9
-1300.2
-1299.9
-1299.9
-1300.2
-1299.9
-1299.9
-1300.2
-1299.9
-1299.9
-1300.2
-1299.9
-1299.9
-1300.2
-1299.9
)
;
    }
    inletWalls
    {
        type            calculated;
        value           uniform 0;
    }
    outletInlet
    {
        type            calculated;
        value           nonuniform List<scalar> 
15
(
193.869
527.068
826.899
1021.2
1153.51
1272.06
1392.31
1517.53
1645.15
1778.94
1939.27
2107.81
2054.88
1433.32
341.327
)
;
    }
}


// ************************************************************************* //
