/*--------------------------------*- C++ -*----------------------------------*\
| =========                 |                                                 |
| \\      /  F ield         | OpenFOAM: The Open Source CFD Toolbox           |
|  \\    /   O peration     | Version:  4.1                                   |
|   \\  /    A nd           | Web:      www.OpenFOAM.org                      |
|    \\/     M anipulation  |                                                 |
\*---------------------------------------------------------------------------*/
FoamFile
{
    version     2.0;
    format      ascii;
    class       volVectorField;
    location    "1";
    object      U;
}
// * * * * * * * * * * * * * * * * * * * * * * * * * * * * * * * * * * * * * //

dimensions      [0 1 -1 0 0 0 0];

internalField   nonuniform List<vector> 
225
(
(9.40959e-15 0.913651 15.6816)
(1.34134e-14 -4.82731 11.9959)
(-2.64945e-15 -4.18213 12.0349)
(6.74707e-15 -3.60733 11.9168)
(1.00775e-15 -3.0364 11.7935)
(-1.74994e-16 -2.60185 11.6149)
(1.9802e-15 -2.27148 11.3943)
(2.31711e-16 -2.0424 11.1304)
(-4.67218e-17 -1.88737 10.8371)
(1.04119e-15 -1.81112 10.5156)
(7.25502e-17 -1.94575 10.0961)
(-3.0923e-16 -2.41935 9.49157)
(8.0617e-16 -2.69507 8.93224)
(2.0481e-17 -1.22905 8.95831)
(2.25348e-16 1.84182 7.72784)
(7.91571e-15 -5.21355 22.4442)
(8.23298e-15 -14.5132 21.3958)
(-1.21849e-15 -13.2536 20.4994)
(2.16545e-15 -11.9179 19.6114)
(1.09845e-15 -11.2834 18.5821)
(-1.47887e-16 -10.7491 17.6028)
(1.65732e-15 -10.2115 16.6539)
(7.17075e-16 -9.68148 15.7087)
(-9.97221e-17 -9.14418 14.7581)
(5.61174e-16 -8.56469 13.8)
(3.3617e-16 -7.95833 12.8303)
(-1.47367e-16 -7.47617 11.811)
(-3.21329e-16 -7.14455 10.6048)
(-3.52132e-16 -6.00131 9.02763)
(9.86264e-17 -2.24518 5.35978)
(1.3208e-14 -7.55968 24.2664)
(1.30721e-14 -16.92 24.5245)
(-3.81557e-16 -14.292 23.9296)
(-3.36819e-16 -12.7474 22.7399)
(-2.51494e-15 -11.9262 21.4443)
(8.05646e-16 -11.1288 20.2338)
(3.74891e-15 -10.3108 19.0469)
(2.06385e-15 -9.49374 17.8546)
(2.57594e-16 -8.67598 16.6534)
(5.52567e-15 -7.86 15.474)
(2.46796e-16 -7.07638 14.3574)
(9.13546e-16 -6.41752 13.1785)
(2.26408e-15 -5.70958 11.4961)
(-2.82934e-15 -4.27572 8.52435)
(-1.46111e-16 -1.63188 3.57732)
(1.62311e-14 -8.48847 22.5597)
(1.3292e-14 -17.1369 24.445)
(8.94942e-16 -13.7004 24.0366)
(5.07051e-15 -12.5544 22.4501)
(2.13705e-15 -11.7646 20.9798)
(1.44104e-15 -10.9094 19.66)
(3.3915e-15 -10.0529 18.3717)
(1.17597e-15 -9.23542 17.0785)
(2.28237e-15 -8.45784 15.8049)
(1.44265e-15 -7.71608 14.596)
(5.71017e-16 -7.01002 13.3925)
(-1.85049e-15 -6.1406 11.8115)
(2.05571e-15 -4.60349 8.98497)
(1.69586e-15 -2.07993 4.27242)
(2.73805e-16 -0.323546 -0.727611)
(1.47994e-14 -8.53963 20.2848)
(1.32243e-14 -16.9017 24.6976)
(1.31754e-15 -13.5117 24.1771)
(5.84118e-15 -12.6765 22.2112)
(2.24262e-15 -11.986 20.6068)
(-2.06893e-16 -11.1596 19.2055)
(3.76795e-15 -10.3428 17.837)
(2.15082e-15 -9.56177 16.4716)
(2.71833e-15 -8.82398 15.1323)
(2.00516e-15 -8.12419 13.8651)
(2.79722e-15 -7.40786 12.6038)
(1.48787e-15 -6.47232 10.912)
(2.38519e-15 -4.83043 7.91595)
(3.20487e-15 -2.19561 3.19845)
(7.78428e-16 -0.712816 -1.04234)
(1.36719e-14 -8.10634 17.9118)
(1.5055e-14 -16.4592 24.8822)
(2.89754e-15 -13.6998 24.4777)
(4.90682e-15 -12.8469 22.2747)
(2.1789e-15 -12.1759 20.5932)
(1.99405e-15 -11.3449 19.181)
(2.88257e-15 -10.5359 17.796)
(2.40686e-15 -9.76305 16.4148)
(9.77731e-16 -9.02272 15.0626)
(2.11132e-15 -8.32662 13.7719)
(2.66049e-15 -7.62333 12.5173)
(3.78125e-15 -6.69651 10.941)
(2.32712e-15 -5.03643 8.13818)
(1.38128e-15 -2.42494 3.3634)
(-3.45226e-15 -0.325855 -0.806314)
(1.0986e-14 -7.41313 15.4775)
(1.69487e-14 -15.8882 24.6432)
(5.43153e-15 -14.0187 24.7404)
(4.60646e-15 -13.0439 22.3944)
(2.02299e-15 -12.3238 20.6272)
(2.71557e-15 -11.4561 19.2264)
(2.89527e-15 -10.6261 17.8551)
(2.09783e-15 -9.83614 16.4817)
(2.50855e-15 -9.07093 15.1354)
(1.98491e-15 -8.34769 13.8438)
(2.57454e-15 -7.63545 12.5906)
(2.89633e-15 -6.7497 11.0934)
(1.7827e-15 -5.24174 8.57194)
(8.28575e-16 -2.90787 4.42548)
(-2.26448e-15 -0.946048 0.577705)
(9.77635e-15 -6.57634 13.1317)
(1.61036e-14 -15.1976 24.0443)
(7.10553e-15 -14.3162 24.9573)
(4.72111e-15 -13.2464 22.5828)
(3.20121e-15 -12.4294 20.7014)
(2.01414e-15 -11.5131 19.2972)
(2.83138e-15 -10.6571 17.9378)
(2.11148e-15 -9.84919 16.5691)
(1.49309e-15 -9.05904 15.2259)
(1.15651e-15 -8.30528 13.9323)
(1.19329e-15 -7.56939 12.6807)
(6.11721e-16 -6.68594 11.2193)
(1.21571e-15 -5.22421 8.80018)
(6.01374e-16 -2.90615 4.69205)
(9.93144e-17 -0.528895 0.447213)
(8.45973e-15 -5.68867 10.9783)
(1.60235e-14 -14.4218 23.1765)
(8.41971e-15 -14.5356 25.1009)
(4.71627e-15 -13.4685 22.8423)
(3.07461e-15 -12.5401 20.8324)
(1.91234e-15 -11.5775 19.3956)
(2.81049e-15 -10.7081 18.0388)
(2.69611e-15 -9.89692 16.6677)
(8.23162e-16 -9.09906 15.3185)
(1.16313e-15 -8.33013 14.0175)
(1.5888e-15 -7.58971 12.754)
(4.38179e-16 -6.72297 11.3151)
(1.0091e-15 -5.32376 9.02216)
(1.16516e-15 -3.13372 5.2065)
(6.42443e-16 -0.818062 1.1591)
(6.66321e-15 -4.85889 9.13872)
(1.5565e-14 -13.6214 22.1867)
(8.8452e-15 -14.6312 25.1454)
(5.03237e-15 -13.659 23.1265)
(3.23647e-15 -12.6183 21.008)
(1.18144e-15 -11.5991 19.5183)
(1.97273e-15 -10.7162 18.1522)
(2.62676e-15 -9.90014 16.773)
(1.52415e-15 -9.08927 15.4139)
(1.58736e-15 -8.30078 14.1002)
(1.45256e-15 -7.53998 12.8223)
(9.36582e-16 -6.66423 11.3726)
(9.75473e-16 -5.26899 9.08552)
(2.01253e-15 -3.10129 5.27359)
(1.24013e-15 -0.685498 1.22593)
(5.59316e-15 -4.12826 7.60766)
(1.52922e-14 -12.8354 21.1537)
(1.02098e-14 -14.6287 25.0859)
(6.34096e-15 -13.8268 23.4035)
(3.1646e-15 -12.6957 21.2109)
(1.23473e-15 -11.6236 19.6533)
(2.9421e-15 -10.7344 18.2678)
(2.914e-15 -9.92335 16.8778)
(4.50268e-16 -9.11344 15.5075)
(1.42754e-15 -8.31624 14.1818)
(1.72686e-15 -7.55544 12.8867)
(2.28438e-16 -6.67579 11.4235)
(1.9354e-15 -5.26243 9.14741)
(-1.4449e-15 -3.10169 5.40941)
(1.38909e-15 -0.757786 1.40073)
(5.69567e-15 -3.49112 6.35491)
(1.53732e-14 -12.0727 20.1367)
(1.10399e-14 -14.5529 24.9595)
(5.80331e-15 -13.9622 23.681)
(3.66639e-15 -12.7552 21.4481)
(1.99207e-15 -11.6235 19.8144)
(2.70887e-15 -10.7242 18.4032)
(2.37224e-15 -9.90776 17.0034)
(1.41569e-15 -9.08284 15.6262)
(1.55554e-15 -8.27015 14.2916)
(1.71854e-15 -7.48231 12.9851)
(5.1723e-16 -6.58604 11.4985)
(1.71979e-15 -5.16371 9.19138)
(2.88696e-16 -3.01055 5.44743)
(1.56169e-15 -0.677533 1.37633)
(4.59842e-15 -2.85801 5.20047)
(1.39471e-14 -11.2466 18.9868)
(1.20381e-14 -14.3893 24.706)
(6.39138e-15 -14.088 23.9506)
(3.47524e-15 -12.851 21.7283)
(2.64167e-15 -11.6767 20.0024)
(2.46677e-15 -10.7756 18.5516)
(3.58463e-15 -9.97329 17.1393)
(1.82031e-15 -9.16299 15.7515)
(1.52264e-15 -8.35572 14.4059)
(1.74938e-15 -7.59475 13.085)
(1.40263e-15 -6.70238 11.5905)
(1.17148e-15 -5.23624 9.31104)
(2.29541e-15 -3.04706 5.65647)
(9.59423e-16 -0.808995 1.54804)
(4.0208e-15 -2.411 4.53458)
(1.33445e-14 -10.5559 18.0773)
(1.23688e-14 -14.2136 24.4786)
(6.94485e-15 -14.1969 24.2307)
(3.58e-15 -12.9234 22.0284)
(2.82077e-15 -11.6829 20.2099)
(2.91772e-15 -10.7675 18.73)
(2.7676e-15 -9.96092 17.318)
(2.20123e-15 -9.13515 15.9371)
(1.81633e-15 -8.3143 14.5925)
(1.40576e-15 -7.51561 13.2734)
(1.57507e-15 -6.63001 11.7762)
(1.55324e-15 -5.23979 9.50632)
(1.83578e-15 -3.13274 5.98357)
(1.11306e-15 -0.862274 1.73514)
(3.8242e-15 -2.09475 4.02947)
(1.24551e-14 -9.58072 16.5861)
(1.28707e-14 -13.7685 23.7861)
(8.08743e-15 -14.2586 24.4274)
(4.08775e-15 -13.075 22.4511)
(3.00919e-15 -11.7871 20.5179)
(2.86747e-15 -10.8514 18.9323)
(2.4589e-15 -10.0457 17.4773)
(2.43089e-15 -9.22197 16.0692)
(1.82407e-15 -8.40101 14.7027)
(1.53159e-15 -7.6204 13.3474)
(1.82602e-15 -6.74148 11.8336)
(1.60247e-15 -5.37465 9.61038)
(1.81401e-15 -3.34785 6.22689)
(1.09895e-15 -1.12724 2.17074)
)
;

boundaryField
{
    inletFace
    {
        type            zeroGradient;
    }
    inlet
    {
        type            fixedValue;
        value           uniform (0 8.7 15);
    }
    inletWalls
    {
        type            noSlip;
    }
    outletInlet
    {
        type            zeroGradient;
    }
}


// ************************************************************************* //
