/*--------------------------------*- C++ -*----------------------------------*\
| =========                 |                                                 |
| \\      /  F ield         | OpenFOAM: The Open Source CFD Toolbox           |
|  \\    /   O peration     | Version:  4.1                                   |
|   \\  /    A nd           | Web:      www.OpenFOAM.org                      |
|    \\/     M anipulation  |                                                 |
\*---------------------------------------------------------------------------*/
FoamFile
{
    version     2.0;
    format      ascii;
    class       surfaceScalarField;
    location    "27";
    object      phi;
}
// * * * * * * * * * * * * * * * * * * * * * * * * * * * * * * * * * * * * * //

dimensions      [0 3 -1 0 0 0 0];

internalField   nonuniform List<scalar> 
13220
(
-797.708
2097.61
-1251.12
1753.61
-1715.01
1763.79
-2057.87
1642.76
-2339.92
1582.25
-2544.74
1504.73
-2680.52
1435.67
-2746.83
1366.51
-2747.88
1300.94
-2680.9
1232.93
-2531.94
1151.24
-2260.88
1028.84
-1781.03
820.044
-1008.75
527.925
291.147
-219.811
2317.42
-489.367
2023.16
-783.893
2058.31
-1019.52
1878.38
-1245.96
1808.69
-1427.29
1686.05
-1581.49
1589.87
-1700.77
1485.8
-1791.02
1391.19
-1845.26
1287.17
-1833.91
1139.88
-1685.41
880.34
-1281.06
415.696
-598.64
-154.501
-307.493
-125.577
2442.99
-321.001
2218.59
-451.957
2189.26
-526.434
1952.85
-586.567
1868.82
-604.355
1703.84
-598.801
1584.31
-563.475
1450.47
-501.674
1329.38
-416.517
1202.01
-318.115
1041.48
-222.312
784.525
-135.098
328.458
-103.45
-186.177
-410.942
108.644
2334.35
92.0519
2235.18
139.148
2142.17
206.941
1885.06
281.675
1794.08
371.808
1613.7
473.052
1483.07
584.161
1339.36
701.998
1211.54
818.228
1085.78
910.681
949.022
915.79
779.417
709.199
535.05
224.092
298.932
-186.851
123.914
2210.43
164.017
2195.07
236.271
2069.91
315.323
1806.01
393.944
1715.46
483.772
1523.88
569.298
1397.54
655.641
1253.02
735.108
1132.08
803.497
1017.39
842.526
909.994
813.538
808.402
654.22
694.366
383.371
569.777
196.52
41.0121
2169.42
92.3715
2143.71
140.31
2021.97
174.532
1771.78
207.14
1682.85
242.613
1488.4
298.003
1342.15
412.941
1138.08
581.818
963.2
762.932
836.275
878.736
794.19
867.641
819.503
696.455
865.559
408.671
857.57
605.191
-89.3399
2258.76
-128.096
2182.47
-177.825
2071.7
-273.107
1867.07
-372.058
1781.81
-491.671
1608.02
-571.039
1421.52
-560.647
1127.69
-449.339
851.893
-259.514
646.45
-26.1497
560.828
183.012
610.338
274.071
774.497
203.078
928.561
808.269
-85.3239
2344.08
-300.025
2397.17
-463.632
2235.31
-651.156
2054.59
-847.027
1977.68
-1065.77
1826.76
-1292.56
1648.31
-1510.99
1346.11
-1691.61
1032.52
-1784.99
739.825
-1714.16
489.998
-1412.5
308.682
-904.743
266.748
-355.869
379.694
452.401
196.169
2147.91
2.91484
2590.43
-139.069
2377.29
-233.049
2148.57
-299.068
2043.7
-367.047
1894.74
-462.497
1743.76
-622.483
1506.1
-832.328
1242.37
-1059.23
966.731
-1253.97
684.74
-1326.68
381.388
-1155.9
95.9633
-679.199
-97.0073
-226.798
418.263
1729.65
430.929
2577.76
393.795
2414.43
425.138
2117.23
516.023
1952.81
615.556
1795.21
704.323
1655
727.792
1482.63
676.313
1293.85
553.508
1089.54
366.948
871.3
116.354
631.989
-127.595
339.927
-164.33
-60.2574
-391.127
339.899
1389.75
440.924
2476.74
474.679
2380.67
541.852
2050.06
652.843
1841.82
773.451
1674.6
891.553
1536.89
982.412
1391.77
1033.14
1243.12
1032.58
1090.11
974.923
928.954
846.867
760.045
625.989
560.805
246.821
318.911
-144.306
159.229
1230.53
246.899
2389.07
304.891
2322.68
355.515
1999.43
415.245
1782.09
474.848
1615
531.132
1480.61
574.136
1348.77
599
1218.26
600.457
1088.65
573.348
956.063
512.342
821.054
403.956
669.196
232.649
490.228
88.3433
113.017
1117.51
217.65
2284.44
305.405
2234.93
400.957
1903.88
508.215
1674.84
601.883
1521.33
671.701
1410.79
714.088
1306.38
726.189
1206.15
708.403
1106.44
659.482
1004.99
576.33
904.206
449.342
796.185
262.754
676.818
351.097
256.663
860.848
437.661
2103.44
440.912
2231.68
361.467
1983.33
296.224
1740.08
258.219
1559.34
248.893
1420.12
266.08
1289.19
307.756
1164.48
371.796
1042.4
445.726
931.056
488.557
861.376
430.934
853.808
256.252
851.5
607.35
408.414
1413.87
2217.51
2539.45
2559.45
2491.05
2298.18
2051.12
1786.02
1514.75
1217.92
929.873
651.843
353.523
-3.53368e-07
-320.972
320.972
-320.972
-320.972
-320.972
251.32
-572.292
251.32
251.32
251.32
771.674
-520.354
771.674
771.674
1209.02
-437.348
1209.02
1209.02
1209.02
1548.26
-339.239
1548.26
1548.26
1777.98
-229.722
1777.98
1777.98
1777.98
1899.47
-121.489
1899.47
1899.47
1899.47
1922.46
-22.9868
1922.46
1922.46
1856.92
65.5413
1856.92
1856.92
1856.92
1721.07
135.844
1721.07
1721.07
1529.81
191.261
1529.81
1529.81
1529.81
1323.96
205.852
1323.96
1323.96
1323.96
1196.95
127.013
1196.95
1196.95
1031.29
165.66
1031.29
1031.29
1031.29
747.368
283.918
747.368
747.368
747.368
349.815
397.553
349.815
349.815
-68.4051
418.22
-68.4051
-68.4052
-68.4051
-790.777
722.372
-790.777
-790.777
-2100.14
1309.37
-2100.14
-2100.14
-2100.14
-3879.47
1779.33
-3879.47
-3879.47
-3879.47
-5942.43
2062.96
-5942.43
-5942.43
-8168.66
2226.22
-8168.65
-8168.65
-7989.64
-7812.57
-7634.64
-9787.68
2332.87
-9603.46
-9400.22
-9186.38
-8971.09
-8753.96
-8534.78
-8319.72
-8110.61
-10380.6
2475.32
-10164.6
-9947.76
-9731.03
-9519.73
-9305.22
-9088.13
-8870.03
-8650.79
-10937.9
2501.66
-10707.6
-10475
-10241.4
-10007.8
-9769.43
-9521.03
-9272
-9021.7
-8771.2
-10890.4
2355.71
-10624.9
-10358
-10090
-9821.63
-9552.27
-9268.36
-8975.85
-8682.55
-10559.1
2155.02
-10270.2
-9974.3
-9667.69
-9363.39
-9060.91
-8761.39
-8463.33
-8147.92
-9486.61
1639.86
-9182.27
-8879.43
-8576.34
-8258.07
-7932.99
-7608.58
-7283.42
-6959.94
-7865.13
1226.24
-7536.57
-7217.31
-6906.92
-6607.65
-6320.79
-6032
-5756.46
-5492.2
-5238.73
-4504.88
-469.249
-4275.01
-4062.78
-3853.57
-3649.41
-3449.57
-3290.73
-3209.49
-3126.95
-2303.76
-730.533
-2223.31
-2147.75
-2147.75
-1623.5
-524.244
-1142.31
-481.189
-1142.31
-728.847
-413.467
-728.847
-386.928
-341.919
-133.816
-253.112
-133.816
106.998
-240.814
322.48
-215.482
322.48
499.529
-177.049
499.529
651.044
-151.516
787.968
-136.924
787.968
907.482
-119.514
907.482
1015.64
-108.163
1107.76
-92.1199
1107.76
1194.77
-87.0038
1265.9
-71.1288
1265.9
1335.97
-70.0732
1335.97
1408.57
-72.6011
1466.18
-57.608
1466.18
1522.72
-56.5385
1522.72
1579.64
-56.9265
1616.95
-37.305
1616.95
1659.16
-42.2066
1678.4
-19.2427
1678.4
1696.85
-18.4468
1696.85
1716.08
-19.2375
1711.9
4.17894
1711.9
1709.21
2.6949
1709.21
1711.26
-2.0515
1693.55
17.7108
1693.55
1688.21
5.34422
1662.31
25.8948
1662.31
1642.91
19.403
1642.91
1625.78
17.1276
1594.1
31.6815
1594.1
1570.2
23.8994
1570.2
1552.29
17.9084
1531.45
20.8369
1531.45
1521.77
9.68703
1509.55
12.2136
1509.55
1507.31
2.24271
1507.31
1511.54
-4.23198
1513.41
-1.86916
1513.41
1523.05
-9.63682
1523.05
1539.56
-16.508
1550.99
-11.4286
1550.99
1572.3
-21.3121
1583.9
-11.6057
1583.9
1600.78
-16.876
1600.78
-26.1321
-707.14
-834.129
-796.095
-908.372
-851.8
-869.396
-893.948
-921.514
-919.505
-966.685
-933.282
-1034.05
-938.31
-1105.74
-937.316
-1183.14
-931.797
-1262.22
-922.477
-1341.71
-909.509
-1419.28
-892.843
-1492.11
-872.566
-1556.03
-849.356
-1605.15
-825.054
-1631.61
-803.123
-1626.09
-788.455
-1580.28
-785.923
-1491.25
-798.209
-1366.21
-824.017
-1225.25
-853.303
-1088.8
-856.681
-912.558
-805.213
-527.857
-738.914
102.009
-705.661
556.071
-683.578
791.462
-663.084
990.187
-643.305
1207.75
-624.206
1438.55
-605.654
1673
-587.52
1905.39
-569.596
2130.02
-551.843
2342.29
-534.272
2539.74
-516.819
2720.72
-499.41
2884.01
-481.992
3029.08
-464.498
3155.82
-446.807
3264.34
-428.802
3354.12
-410.496
3424.71
-391.947
3477.23
-373.064
3513.63
-353.664
3533.71
-333.716
3535.5
-313.348
3519.31
-292.624
3488.74
-271.445
3446.64
-249.656
3392.28
-227.194
3322.72
-204.035
3235.77
-180.233
3129.73
-155.845
3005.65
-130.727
2862.82
-105.001
2694.01
-78.9699
2507.68
-52.8903
2319.5
-26.5189
2098.17
-1.59787
1709.85
20.9195
1286.21
39.8444
890.56
53.4197
471.779
61.9609
168.252
67.6391
43.4716
77.5733
8.8746
91.9863
2.05909
104.328
18.2046
111.561
44.3712
116.149
67.4761
120.886
92.0738
123.581
88.6214
116.118
2.29207
92.6593
-230.236
81.0592
-400.432
82.065
-273.222
29.9002
-779.365
-64.414
-2266.37
-69.7306
-1868.8
-806.234
-822.57
-776.636
-893.98
-836.962
-925.782
-837.593
-946.509
-900.787
-954.378
-958.815
-955.669
-1032.76
-952.368
-1109.04
-945.957
-1189.55
-936.66
-1271.51
-924.294
-1354.08
-908.441
-1435.14
-888.817
-1511.74
-865.642
-1579.2
-840.248
-1630.54
-815.81
-1656.04
-797.745
-1644.16
-792.685
-1585.34
-805.346
-1478.59
-835.118
-1336.44
-875.763
-1184.6
-914.309
-1050.25
-918.854
-908.014
-846.913
-599.797
-739.643
-5.26141
-689.839
506.267
-672.027
773.651
-654.808
972.968
-636.415
1189.36
-618.61
1420.74
-601.273
1655.67
-584.173
1888.29
-567.08
2112.92
-549.989
2325.2
-532.948
2522.7
-515.911
2703.68
-498.822
2866.92
-481.649
3011.91
-464.337
3138.51
-446.771
3246.77
-428.851
3336.2
-410.604
3406.46
-392.093
3458.71
-373.223
3494.76
-353.817
3514.3
-333.85
3515.54
-313.46
3498.92
-292.714
3467.99
-271.508
3425.44
-249.689
3370.46
-227.19
3300.22
-203.986
3212.56
-180.13
3105.88
-155.66
2981.18
-130.387
2837.55
-104.393
2668.02
-77.9419
2481.23
-51.119
2292.67
-23.5337
2070.58
3.04877
1683.26
27.5416
1261.72
48.7818
869.32
63.9089
456.652
73.37
158.791
84.8598
31.9817
105.468
-11.734
126.758
-19.2306
139.752
5.21129
143.253
40.87
141.56
69.1686
142.129
91.5049
145.511
85.2394
139.529
8.27423
110.803
-201.51
91.2826
-380.911
92.2862
-274.226
30.5004
-717.579
-73.4302
-2162.44
-82.2754
-1859.96
-905.385
-868.01
-729.619
-920.535
-784.438
-940.339
-817.79
-953.567
-887.558
-957.389
-954.993
-956.905
-1033.24
-952.762
-1113.19
-945.705
-1196.61
-935.55
-1281.67
-921.981
-1367.64
-904.589
-1452.53
-883.257
-1533.07
-858.616
-1603.84
-832.828
-1656.33
-810.407
-1678.47
-798.25
-1656.31
-803.407
-1580.18
-828.451
-1453.54
-868.248
-1296.64
-912.724
-1140.13
-950.161
-1012.82
-955.737
-902.438
-884.511
-671.023
-752.894
-136.878
-675.51
428.882
-654.668
752.809
-642.182
960.481
-626.67
1173.84
-610.634
1404.71
-594.888
1639.92
-579.256
1872.66
-563.416
2097.08
-547.342
2309.12
-531.112
2506.47
-514.715
2687.28
-498.128
2850.33
-481.34
2995.12
-464.312
3121.48
-446.948
3229.41
-429.168
3318.42
-411.02
3388.32
-392.57
3440.27
-373.724
3475.92
-354.311
3494.89
-334.322
3495.55
-313.904
3478.5
-293.123
3447.21
-271.874
3404.19
-250.003
3348.59
-227.443
3277.66
-204.167
3189.29
-180.223
3081.93
-155.618
2956.57
-130.117
2812.05
-103.741
2641.64
-76.6635
2454.16
-48.7541
2264.76
-19.4453
2041.27
9.54182
1654.28
36.9633
1234.3
61.5665
844.717
79.8003
438.419
93.2324
145.359
111.704
13.5099
137.897
-37.9272
159.434
-40.7677
170.402
-5.75636
172.076
39.1958
168.647
72.5974
166.081
94.071
164.49
86.8307
154.76
18.004
124.188
-170.937
101.078
-357.802
99.0006
-272.148
33.3119
-651.89
-72.8895
-2056.24
-77.8906
-1854.96
-994.881
-914.269
-692.902
-949.982
-748.725
-959.584
-808.188
-965.804
-881.337
-965.086
-955.712
-961.657
-1036.67
-955.329
-1119.51
-946.387
-1205.55
-934.345
-1293.71
-918.746
-1383.24
-899.169
-1472.1
-875.698
-1556.54
-849.542
-1630
-824.028
-1681.85
-805.403
-1697.09
-802.066
-1659.65
-820.532
-1561.72
-859.491
-1414.58
-908.285
-1247.85
-953.844
-1094.57
-987.294
-979.367
-992.553
-897.179
-926.452
-737.125
-777.853
-285.476
-667.909
318.938
-635.712
720.613
-625.695
950.463
-614.095
1162.24
-600.706
1391.32
-586.896
1626.11
-573.022
1858.79
-558.786
2082.85
-544.069
2294.4
-528.927
2491.33
-513.391
2671.75
-497.48
2834.42
-481.215
2978.85
-464.575
3104.84
-447.487
3212.32
-429.902
3300.84
-411.891
3370.31
-393.526
3421.9
-374.712
3457.1
-355.293
3475.47
-335.278
3475.53
-314.823
3458.05
-293.993
3426.38
-272.68
3382.87
-250.732
3326.64
-228.082
3255.01
-204.703
3165.91
-180.635
3057.86
-155.847
2931.78
-130.05
2786.25
-103.191
2614.78
-75.3183
2426.28
-46.0485
2235.49
-14.6033
2009.83
17.3879
1622.29
48.5505
1203.14
77.5644
815.703
100.224
415.759
119.317
126.266
144.521
-11.6943
173.652
-67.0582
194.389
-61.5042
202.908
-14.2757
201.722
40.3824
195.33
78.9889
189.195
100.206
184.119
91.9065
172.753
29.3704
141.009
-139.193
114.096
-330.888
108.827
-266.879
38.1021
-581.165
-74.0667
-1944.07
-73.8709
-1855.15
-1090.06
-945.282
-667.246
-966.116
-727.891
-968.977
-805.326
-970.778
-879.537
-967.562
-958.927
-962.501
-1041.74
-954.759
-1127.26
-944.306
-1216
-930.493
-1307.52
-912.842
-1400.9
-891.058
-1493.89
-865.622
-1581.98
-838.643
-1656.98
-815.047
-1705.44
-803.078
-1709.06
-812.041
-1650.69
-846.002
-1527.76
-897.712
-1362.87
-951.033
-1194.53
-992.054
-1053.55
-1016.53
-954.89
-1018.52
-895.189
-962.379
-793.266
-811.121
-436.734
-669.668
177.485
-618.152
669.098
-606.556
938.867
-598.385
1154.07
-588.452
1381.39
-577.197
1614.86
-565.401
1846.99
-553.068
2070.51
-540.045
2281.38
-526.311
2477.59
-511.895
2657.33
-496.865
2819.39
-481.284
2963.27
-465.156
3088.71
-448.439
3195.6
-431.118
3283.52
-413.291
3352.48
-395.039
3403.65
-376.272
3438.34
-356.851
3456.05
-336.807
3455.49
-316.305
3437.54
-295.409
3405.48
-274.01
3361.48
-251.96
3304.59
-229.191
3232.24
-205.674
3142.39
-181.438
3033.63
-156.413
2906.76
-130.248
2760.08
-102.797
2587.33
-73.9581
2397.44
-43.0532
2204.59
-9.04185
1975.82
26.5736
1586.67
62.3021
1167.41
96.7179
781.287
125.115
387.361
150.352
101.029
180.995
-42.3375
211.061
-97.1241
230.247
-80.6903
236.112
-20.1403
231.961
44.5332
222.291
88.6585
212.355
110.142
203.644
100.617
190.702
42.3126
159.174
-107.665
128.971
-300.685
119.042
-256.95
44.0667
-506.19
-74.4623
-1825.54
-80.6768
-1848.94
-1182.17
-966.057
-650.983
-975.94
-718.008
-974.896
-806.371
-973.775
-880.658
-968.774
-963.929
-962.147
-1048.36
-952.754
-1136.65
-940.421
-1228.34
-924.451
-1323.49
-904.429
-1420.92
-880.295
-1518.02
-853.152
-1609.12
-826.394
-1683.73
-806.991
-1724.84
-805.15
-1710.9
-829.702
-1626.14
-879.72
-1477.74
-940.709
-1301.88
-992.906
-1142.33
-1024.59
-1021.87
-1036.83
-942.643
-1032.32
-899.704
-986.496
-839.088
-848.426
-574.804
-683.068
12.1272
-604.458
590.488
-586.446
920.854
-580.049
1147.68
-573.607
1374.94
-565.547
1606.8
-556.305
1837.75
-546.159
2060.37
-535.111
2270.33
-523.093
2465.58
-510.084
2644.32
-496.167
2805.47
-481.451
2948.56
-465.979
3073.24
-449.741
3179.37
-432.767
3266.54
-415.185
3334.9
-397.084
3385.55
-378.386
3419.64
-358.974
3436.63
-338.903
3435.42
-318.349
3416.99
-297.375
3384.51
-275.871
3339.97
-253.695
3282.42
-230.779
3209.33
-207.092
3118.71
-182.651
3009.19
-157.341
2881.45
-130.742
2733.48
-102.608
2559.19
-72.6616
2367.5
-39.8912
2171.82
-2.95756
1938.88
36.8007
1546.91
77.7798
1126.43
118.362
740.705
153.616
352.107
185.043
69.6025
219.57
-76.8649
249.484
-127.037
266.739
-97.946
269.84
-23.2404
262.614
51.7588
249.528
101.745
235.705
123.965
223.374
112.948
208.875
56.811
178.261
-77.0512
145.443
-267.867
130.58
-242.087
51.5792
-427.189
-74.3338
-1699.63
-78.3738
-1844.9
-1277.05
-978.544
-642.2
-980.893
-715.659
-977.667
-809.597
-974.39
-883.934
-967.876
-970.442
-959.611
-1056.63
-948.361
-1147.9
-933.886
-1242.81
-915.509
-1341.87
-892.952
-1443.47
-866.556
-1544.42
-838.367
-1637.31
-813.557
-1708.54
-801.503
-1736.9
-813.743
-1698.66
-856.262
-1583.62
-920.49
-1413.51
-985.026
-1237.35
-1030.01
-1097.35
-1048.74
-1003.13
-1047.12
-944.267
-1033.39
-913.429
-994.379
-878.103
-879.263
-689.919
-704.283
-162.853
-596.254
482.46
-566.912
891.511
-560.027
1140.79
-556.282
1371.2
-551.668
1602.18
-545.523
1831.6
-537.945
2052.79
-529.134
2261.52
-519.105
2455.55
-507.793
2633.01
-495.251
2792.93
-481.61
2934.92
-466.955
3058.58
-451.327
3163.74
-434.799
3250.02
-417.532
3317.63
-399.632
3367.65
-381.034
3401.04
-361.649
3417.25
-341.558
3415.33
-320.949
3396.38
-299.888
3363.45
-278.264
3318.35
-255.941
3260.09
-232.852
3186.24
-208.967
3094.82
-184.286
2984.51
-158.647
2855.81
-131.56
2706.4
-102.667
2530.3
-71.4963
2336.33
-36.6703
2136.99
3.47663
1898.74
47.8019
1502.59
94.5934
1079.64
141.939
693.359
184.923
309.123
222.698
31.8269
260.028
-114.195
288.963
-155.972
303.845
-112.828
304.005
-23.4001
293.586
62.1771
276.949
118.382
259.123
141.792
243.011
129.06
226.801
73.0217
197.698
-47.9488
163.188
-233.357
143.167
-222.066
60.5797
-344.602
-74.2455
-1564.8
-89.1561
-1829.99
-1375.84
-985.091
-638.763
-982.784
-717.966
-978.241
-814.14
-973.104
-889.071
-965.011
-978.536
-954.833
-1066.8
-941.401
-1161.33
-924.455
-1259.76
-903.405
-1362.92
-878.22
-1468.66
-849.879
-1572.76
-821.801
-1665.39
-801.478
-1728.87
-800.732
-1737.64
-830.822
-1668.57
-891.652
-1522.79
-965.322
-1339.84
-1026.21
-1176.46
-1058.69
-1064.87
-1062.71
-999.114
-1047.46
-959.524
-1023.41
-937.475
-986.164
-915.349
-893.117
-782.966
-723.601
-332.37
-593.106
351.965
-549.373
847.778
-539.4
1130.82
-536.969
1368.77
-535.499
1600.71
-532.801
1828.91
-528.246
2048.23
-521.993
2255.27
-514.203
2447.76
-504.858
2623.67
-493.968
2782.04
-481.641
2922.59
-467.993
3044.93
-453.122
3148.87
-437.158
3234.05
-420.295
3300.77
-402.656
3350.01
-384.198
3382.58
-364.864
3397.92
-344.768
3395.23
-324.108
3375.72
-302.952
3342.29
-281.195
3296.59
-258.705
3237.6
-235.422
3162.96
-211.311
3070.71
-186.359
2959.56
-160.352
2829.8
-132.728
2678.77
-103.011
2500.58
-70.5199
2303.84
-33.4796
2099.95
10.1293
1855.13
59.4008
1453.32
112.494
1026.54
167.102
638.751
218.367
257.859
262.653
-12.4599
301.953
-153.494
329.314
-183.334
341.439
-124.953
338.441
-20.402
324.693
75.9247
304.408
138.667
282.496
163.704
262.423
149.132
244.176
91.2686
216.833
-20.6054
181.64
-198.164
156.824
-197.25
71.6859
-259.464
-72.3866
-1420.73
-92.5728
-1809.8
-1470.29
-987.62
-639.001
-982.491
-723.094
-976.766
-819.865
-969.703
-896.134
-959.754
-988.485
-947.323
-1079.24
-931.377
-1177.28
-911.673
-1279.46
-887.779
-1386.81
-860.07
-1496.37
-830.498
-1602.33
-804.403
-1691.48
-792.055
-1741.21
-807.077
-1722.62
-857.591
-1618.06
-934.058
-1446.32
-1009.84
-1264.06
-1059.9
-1126.39
-1076.45
-1048.32
-1065.8
-1009.76
-1038.51
-986.821
-1004.76
-971.225
-965.577
-954.527
-889.387
-859.156
-735.913
-485.845
-592.637
208.69
-534.522
789.662
-519.266
1115.56
-516.436
1365.94
-517.292
1601.57
-518.015
1829.63
-516.845
2047.06
-513.535
2251.96
-508.265
2442.49
-501.13
2616.53
-492.154
2773.06
-481.401
2911.84
-468.979
3032.51
-455.041
3134.93
-439.775
3218.79
-423.42
3284.41
-406.117
3332.7
-387.851
3364.32
-368.604
3378.67
-348.521
3375.15
-327.818
3355.02
-306.565
3321.04
-284.664
3274.69
-261.992
3214.93
-238.493
3139.46
-214.132
3046.35
-188.881
2934.3
-162.473
2803.39
-134.273
2650.57
-103.681
2469.99
-69.7903
2269.95
-30.4053
2060.57
16.8882
1807.83
71.4595
1398.74
131.28
966.722
193.65
576.382
252.466
199.043
303.12
-63.1145
344.101
-194.475
370.087
-209.32
379.422
-134.287
373.089
-14.0694
355.823
93.1913
331.769
162.72
305.677
189.796
281.453
173.356
260.791
111.931
235.118
5.06826
199.991
-163.038
170.969
-168.228
85.3433
-173.839
-67.9835
-1267.4
-93.8528
-1783.93
-1568.37
-987.262
-641.761
-980.268
-730.089
-973.101
-827.031
-963.886
-905.349
-951.727
-1000.64
-936.694
-1094.27
-917.927
-1196.04
-895.238
-1302.15
-868.463
-1413.59
-838.617
-1526.21
-809.082
-1631.87
-787.732
-1712.83
-787.749
-1741.2
-822.75
-1687.62
-893.776
-1547.03
-979.76
-1360.34
-1048.99
-1194.83
-1082.63
-1092.76
-1082.17
-1048.78
-1058.39
-1033.54
-1021.41
-1023.8
-979.843
-1012.8
-937.329
-997.041
-872.63
-923.855
-740.261
-618.214
-591.919
60.3483
-521.536
719.279
-500.465
1094.49
-495.607
1361.08
-497.534
1603.5
-501.249
1833.34
-503.586
2049.4
-503.575
2251.95
-501.158
2440.07
-496.486
2611.86
-489.661
2766.24
-480.736
2902.91
-469.784
3021.56
-456.978
3122.12
-442.571
3204.38
-426.844
3268.69
-409.968
3315.83
-391.958
3346.31
-372.843
3359.55
-352.803
3355.11
-332.07
3334.28
-310.722
3299.69
-288.67
3252.64
-265.802
3192.06
-242.068
3115.72
-217.437
3021.72
-191.862
2908.73
-165.026
2776.56
-136.218
2621.77
-104.712
2438.49
-69.3639
2234.6
-27.5257
2018.73
23.6586
1756.65
83.871
1338.53
150.811
899.782
221.61
505.583
286.816
133.837
342.462
-118.761
385.188
-237.201
410.607
-234.739
417.601
-141.281
407.919
-4.38682
386.899
114.211
358.903
190.716
328.516
220.183
300.023
201.849
276.563
135.391
252.054
29.5779
217.107
-128.091
184.556
-135.677
102.102
-91.3842
-59.5818
-1105.72
-102.037
-1741.48
-1668.17
-984.586
-646.461
-975.965
-738.71
-966.912
-836.083
-955.237
-917.024
-940.498
-1015.38
-922.549
-1112.22
-900.721
-1217.87
-874.94
-1327.93
-845.469
-1443.06
-814.296
-1557.39
-786.816
-1659.35
-774
-1725.65
-791.306
-1723.89
-849.04
-1629.89
-937.047
-1459.02
-1023.59
-1273.79
-1078.21
-1140.21
-1092.53
-1078.44
-1076.24
-1065.07
-1041.84
-1067.93
-997.854
-1067.79
-950.893
-1059.76
-905.464
-1042.47
-848.298
-981.021
-736.961
-729.55
-589.031
-87.5824
-508.474
638.722
-482.871
1068.89
-475.322
1353.53
-476.894
1605.07
-482.78
1839.23
-488.448
2055.07
-491.944
2255.45
-492.722
2440.85
-490.805
2609.94
-486.363
2761.8
-479.499
2896.05
-470.262
3012.32
-458.817
3110.68
-445.452
3191.01
-430.496
3253.73
-414.153
3299.48
-396.481
3328.63
-377.554
3340.63
-357.594
3335.15
-336.853
3313.54
-315.417
3278.26
-293.21
3230.43
-270.136
3168.99
-246.153
3091.74
-221.233
2996.8
-195.314
2882.81
-168.027
2749.27
-138.588
2592.33
-106.143
2406.04
-69.2939
2197.75
-24.9089
1974.34
30.3709
1701.37
96.5772
1272.33
171.036
825.323
251.111
425.508
322.497
62.451
381.478
-177.742
425.275
-280.998
450.474
-259.938
455.692
-146.5
442.855
8.45057
417.878
139.188
385.701
222.893
350.853
255.031
318.078
234.623
291.63
161.839
267.187
54.021
231.411
-92.3148
195.444
-99.7106
121.679
-17.6191
-44.4165
-939.625
-101.424
-1684.47
-1757.38
-979.637
-652.938
-969.194
-749.154
-957.795
-847.482
-943.348
-931.471
-925.704
-1033.03
-904.601
-1133.32
-879.578
-1242.89
-850.78
-1356.73
-819.117
-1474.72
-788.011
-1588.49
-765.549
-1681.81
-766.025
-1725.17
-805.222
-1684.69
-885.489
-1549.62
-982.97
-1361.54
-1060.01
-1196.75
-1094.41
-1105.82
-1089.57
-1083.27
-1060.26
-1094.38
-1018.25
-1109.94
-969.919
-1116.12
-920.025
-1109.65
-872.918
-1089.58
-820.835
-1033.1
-726.527
-823.858
-581.902
-232.207
-493.152
549.972
-465.218
1040.96
-455.954
1344.27
-456.159
1605.27
-463.068
1846.14
-471.562
2063.56
-478.558
2262.44
-482.792
2445.08
-483.951
2611.1
-482.148
2759.99
-477.562
2891.46
-470.272
3005.03
-460.426
3100.83
-448.313
3178.9
-434.292
3239.71
-418.609
3283.8
-401.369
3311.39
-382.703
3321.96
-362.873
3315.32
-342.152
3292.82
-320.642
3256.75
-298.282
3208.07
-274.994
3145.7
-250.75
3067.5
-225.527
2971.58
-199.247
2856.53
-171.493
2721.52
-141.407
2562.24
-108.009
2372.64
-69.6304
2159.37
-22.613
1927.33
36.9809
1641.78
109.572
1199.73
192
742.896
282.321
335.187
360.076
-15.3036
421.255
-238.921
465.067
-324.81
489.713
-284.583
493.407
-150.194
477.71
24.148
448.683
168.215
412.052
259.524
372.566
294.517
335.721
271.468
306.271
191.29
279.981
80.3107
241.234
-53.5675
201.061
-59.5377
139.475
43.9668
-21.5979
-778.552
-94.5709
-1611.5
-1842.26
-972.185
-661.309
-959.504
-761.835
-945.359
-861.627
-927.867
-948.963
-907.078
-1053.82
-882.697
-1157.7
-854.513
-1271.08
-823.026
-1388.22
-790.117
-1507.63
-761.246
-1617.36
-747.839
-1695.22
-766.92
-1706.09
-830.895
-1620.72
-929.29
-1451.23
-1025.69
-1265.14
-1084.43
-1138.01
-1096.58
-1093.67
-1075.3
-1104.55
-1036.64
-1133.04
-990.076
-1156.51
-939.866
-1166.33
-889.173
-1160.34
-841.646
-1137.1
-793.145
-1081.61
-711.803
-905.2
-571.279
-372.731
-474.311
453.004
-445.848
1012.49
-437.079
1335.5
-435.962
1604.15
-442.735
1852.91
-453.216
2074.05
-463.449
2272.68
-471.245
2452.88
-475.767
2615.62
-476.895
2761.12
-474.815
2889.38
-469.683
2999.9
-461.667
3092.82
-451.033
3168.27
-438.139
3226.81
-423.263
3268.93
-406.57
3294.7
-388.25
3303.64
-368.611
3295.68
-347.95
3272.16
-326.387
3235.18
-303.881
3185.57
-280.377
3122.2
-255.864
3042.98
-230.326
2946.04
-203.673
2829.88
-175.439
2693.28
-144.701
2531.5
-110.347
2338.29
-70.42
2119.44
-20.6848
1877.59
43.474
1577.62
122.912
1120.3
213.91
651.897
313.682
235.415
398.403
-100.024
461.659
-302.177
505.004
-368.156
528.542
-308.12
530.568
-152.221
512.229
42.4872
479.163
201.281
437.83
300.857
393.641
338.707
353.026
312.082
320.053
224.264
289.334
111.029
244.908
-9.14164
199.156
-13.7857
151.841
91.2816
8.13935
-634.85
-86.0216
-1517.34
-1907.44
-961.856
-671.822
-946.475
-777.216
-929.295
-878.807
-908.567
-969.691
-884.522
-1077.86
-856.901
-1185.32
-825.803
-1302.18
-792.295
-1421.73
-759.676
-1540.25
-736.165
-1640.88
-736.856
-1694.52
-779.458
-1663.49
-867.695
-1532.48
-975.344
-1343.58
-1059.3
-1181.18
-1094.34
-1102.97
-1085.85
-1102.16
-1052.39
-1138.01
-1008.19
-1177.25
-959.827
-1204.87
-909.76
-1216.39
-859.822
-1210.28
-812.699
-1184.23
-766.545
-1127.76
-695.223
-976.522
-559.834
-508.12
-452.485
345.655
-423.55
983.558
-417.495
1329.44
-416.36
1603.02
-422.416
1858.97
-433.864
2085.49
-446.776
2285.59
-458.046
2464.15
-466.114
2623.69
-470.464
2765.47
-471.153
2890.07
-468.389
2997.14
-462.413
3086.84
-453.484
3159.34
-441.926
3215.26
-428.03
3255.03
-412.018
3278.69
-394.148
3285.77
-374.776
3276.31
-354.227
3251.61
-332.64
3213.6
-310.003
3162.93
-286.287
3098.48
-261.499
3018.2
-235.638
2920.18
-208.604
2802.84
-179.883
2664.56
-148.492
2500.11
-113.191
2302.99
-71.7036
2077.96
-19.1567
1825.05
49.8716
1508.59
136.726
1033.44
237.41
551.213
344.194
128.631
434.581
-190.411
500.982
-368.579
544.774
-411.947
567.117
-330.463
567.176
-152.28
546.198
63.4657
509.123
238.356
462.921
347.059
414.067
387.561
369.684
356.465
332.149
261.798
294.047
149.131
240.979
43.9265
191.157
36.0365
160.193
122.246
42.3378
-516.996
-63.1176
-1411.88
-1952.65
-948.282
-684.743
-929.803
-795.695
-909.435
-899.175
-885.404
-993.722
-858.161
-1105.1
-827.534
-1215.95
-794.04
-1335.67
-759.609
-1456.16
-729.569
-1570.29
-715.627
-1654.82
-736.028
-1674.12
-805.117
-1594.4
-912.352
-1425.25
-1017.2
-1238.73
-1079.38
-1119
-1089.77
-1092.57
-1064.93
-1127
-1023.99
-1178.95
-977.639
-1223.6
-929.68
-1252.83
-881.135
-1264.94
-832.772
-1258.65
-786.27
-1230.73
-741.128
-1172.9
-677.242
-1040.41
-549.207
-636.155
-429.011
225.459
-398.031
952.577
-395.779
1327.19
-396.669
1603.91
-402.472
1864.77
-414.074
2097.1
-428.842
2300.35
-443.254
2478.56
-454.905
2635.34
-462.71
2773.28
-466.45
2893.81
-466.291
2996.98
-462.555
3083.1
-455.54
3152.32
-445.536
3205.25
-432.815
3242.31
-417.641
3263.51
-400.343
3268.47
-381.331
3257.3
-360.957
3231.24
-339.387
3192.03
-316.642
3140.19
-292.722
3074.56
-267.661
2993.13
-241.473
2893.99
-214.049
2775.42
-184.839
2635.35
-152.803
2468.08
-116.571
2266.76
-73.5157
2034.9
-18.0447
1769.57
56.2376
1434.31
151.241
938.439
263.598
438.857
376.139
16.0892
468.892
-283.163
538.153
-437.84
583.552
-457.346
605.297
-352.208
603.282
-150.266
579.485
87.2627
538.386
279.455
487.247
398.197
433.73
441.078
385.158
405.037
341.608
305.348
293.501
197.238
231.586
105.842
181.605
86.0181
165.094
138.757
75.7512
-427.653
-40.3996
-1295.73
-1969.15
-931.197
-700.282
-909.361
-817.531
-885.811
-922.726
-858.571
-1020.96
-828.381
-1135.3
-795.203
-1249.13
-760.145
-1370.73
-726.436
-1489.87
-702.199
-1594.52
-703.066
-1653.95
-748.329
-1628.86
-843.065
-1499.66
-959.131
-1309.18
-1048.69
-1149.18
-1084.12
-1083.57
-1072.99
-1103.7
-1037.33
-1162.66
-993.213
-1223.07
-947.313
-1269.5
-901.185
-1298.96
-854.773
-1311.35
-808.047
-1305.37
-761.815
-1276.96
-716.285
-1218.43
-657.271
-1099.42
-539.421
-754.006
-405.58
91.6182
-369.659
916.656
-370.909
1328.44
-375.737
1608.74
-382.744
1871.78
-394.355
2108.71
-410.094
2316.09
-427.04
2495.51
-442.121
2650.42
-453.509
2784.67
-460.564
2900.86
-463.281
2999.7
-462
3081.82
-457.09
3147.41
-448.846
3197.01
-437.508
3230.97
-423.354
3249.36
-406.773
3251.89
-388.228
3238.75
-368.108
3211.12
-346.609
3170.53
-323.787
3117.36
-299.68
3050.45
-274.351
2967.81
-247.836
2867.47
-220.021
2747.6
-190.322
2605.65
-157.651
2435.41
-120.514
2229.62
-75.8838
1990.27
-17.3463
1711.04
62.6858
1354.28
166.811
834.313
292.534
313.134
410.919
-102.296
503.423
-375.667
573.606
-508.023
620.696
-504.437
642.596
-374.108
638.752
-146.422
611.982
114.033
566.803
324.634
510.738
454.262
452.45
499.366
398.958
458.529
348.022
356.285
289.901
255.358
222.254
173.489
174.307
133.965
167.643
145.421
105.411
-365.421
-8.79925
-1181.52
-1946.27
-910.516
-718.534
-885.25
-842.797
-858.697
-949.279
-828.523
-1051.14
-795.828
-1167.99
-760.786
-1284.17
-725.371
-1406.14
-694.731
-1520.51
-680.6
-1608.65
-702.102
-1632.45
-775.232
-1555.73
-889.538
-1385.36
-1001.04
-1197.68
-1065.67
-1084.55
-1074.61
-1074.63
-1047.7
-1130.61
-1006.63
-1203.73
-962.617
-1267.08
-918.794
-1313.32
-875.061
-1342.69
-830.639
-1355.77
-784.983
-1351.03
-738.285
-1323.66
-691.072
-1265.65
-634.445
-1156.05
-528.348
-860.103
-384.597
-52.1325
-339.3
871.359
-342.559
1331.7
-352.442
1618.62
-362.539
1881.88
-374.908
2121.07
-391.054
2332.24
-409.715
2514.17
-427.83
2668.54
-442.786
2799.62
-453.358
2911.44
-459.231
3005.57
-460.656
3083.25
-458.045
3144.8
-451.747
3190.71
-441.996
3221.22
-429.061
3236.43
-413.362
3236.19
-395.414
3220.8
-375.642
3191.35
-354.28
3149.17
-331.424
3094.51
-307.156
3026.18
-281.572
2942.22
-254.733
2840.63
-226.527
2719.4
-196.343
2575.47
-163.057
2402.12
-125.046
2191.61
-78.8289
1944.05
-17.0387
1649.25
69.3893
1267.85
184.227
719.476
321.007
176.354
444.565
-225.854
537.896
-468.998
608.018
-578.145
656.066
-552.485
678.476
-396.517
673.238
-141.184
643.504
143.767
594.215
373.923
533.289
515.188
470.039
562.616
410.809
517.758
351.706
415.387
285.061
322.004
215.182
243.368
170.335
178.812
168.528
147.228
126.853
-323.747
23.3081
-1077.97
-1905.84
-886.39
-739.458
-857.828
-871.359
-828.618
-978.489
-795.948
-1083.81
-761.367
-1202.57
-725.393
-1320.14
-691.303
-1440.23
-666.98
-1544.83
-668.319
-1607.32
-715.785
-1584.98
-815.625
-1455.89
-938.17
-1262.81
-1031.72
-1104.13
-1067.07
-1049.2
-1054.11
-1087.59
-1017.92
-1166.79
-975.787
-1245.87
-933.909
-1308.96
-892.759
-1354.47
-851.181
-1384.27
-808.005
-1398.95