/*--------------------------------*- C++ -*----------------------------------*\
| =========                 |                                                 |
| \\      /  F ield         | OpenFOAM: The Open Source CFD Toolbox           |
|  \\    /   O peration     | Version:  4.1                                   |
|   \\  /    A nd           | Web:      www.OpenFOAM.org                      |
|    \\/     M anipulation  |                                                 |
\*---------------------------------------------------------------------------*/
FoamFile
{
    version     2.0;
    format      ascii;
    class       volVectorField;
    location    "22";
    object      U;
}
// * * * * * * * * * * * * * * * * * * * * * * * * * * * * * * * * * * * * * //

dimensions      [0 1 -1 0 0 0 0];

internalField   nonuniform List<vector> 
6785
(
(1.69883e-14 0.684593 15.7418)
(1.2849e-14 -5.1303 12.0537)
(-2.32917e-15 -4.29251 12.1841)
(1.29843e-14 -3.72378 12.0221)
(1.73003e-15 -3.11933 11.901)
(-3.52614e-16 -2.66649 11.7153)
(4.36834e-15 -2.31765 11.4881)
(1.58578e-15 -2.07348 11.2168)
(-1.35327e-15 -1.90799 10.9138)
(6.73243e-15 -1.81725 10.5843)
(8.60007e-16 -1.92247 10.165)
(-3.04688e-16 -2.37185 9.56009)
(2.49341e-15 -2.6898 8.96979)
(9.46244e-17 -1.33558 8.92614)
(-3.87927e-15 1.73306 7.64152)
(2.58633e-14 -5.63788 22.1818)
(2.29079e-14 -14.767 21.3399)
(1.58677e-15 -13.2426 20.4985)
(2.71338e-15 -11.8214 19.622)
(5.65342e-15 -11.2269 18.5971)
(6.39686e-16 -10.7093 17.6049)
(1.13057e-14 -10.1209 16.6522)
(5.23098e-15 -9.54489 15.6955)
(4.85895e-16 -8.97916 14.7276)
(2.23815e-14 -8.3764 13.7518)
(-1.09831e-15 -7.75134 12.7738)
(3.63782e-16 -7.27681 11.7831)
(-6.52268e-15 -7.01214 10.6938)
(4.42864e-15 -5.78428 8.97405)
(-2.99337e-15 -1.73333 4.85347)
(1.58627e-14 -7.89601 22.1873)
(2.43283e-14 -16.7498 24.7015)
(1.67584e-15 -13.8114 23.9907)
(1.28166e-15 -12.4976 22.6552)
(-1.5096e-15 -11.8331 21.2612)
(-9.49498e-16 -10.9891 20.0207)
(6.61495e-15 -10.1074 18.7902)
(8.39941e-16 -9.26111 17.5388)
(-3.89343e-15 -8.43698 16.2754)
(-1.83402e-14 -7.62033 15.0228)
(-5.74084e-15 -6.79724 13.8037)
(-3.1977e-15 -5.96887 12.4329)
(-8.57813e-15 -4.99174 10.3274)
(-5.07355e-15 -3.27637 6.89206)
(-2.38114e-16 -0.663137 2.40089)
(2.37625e-14 -8.14327 17.9881)
(1.97533e-14 -16.3387 24.455)
(6.58133e-15 -13.4357 23.9539)
(6.58861e-15 -12.5306 22.1187)
(-6.99637e-15 -11.7971 20.6142)
(3.8259e-15 -10.8464 19.2822)
(-3.65661e-15 -9.9676 17.9221)
(-7.74416e-15 -9.13814 16.5573)
(2.40673e-15 -8.34542 15.2041)
(-2.27815e-15 -7.59652 13.8761)
(-2.36252e-15 -6.8362 12.5329)
(2.10445e-14 -5.87502 10.8644)
(-9.45322e-15 -4.38709 8.19916)
(1.14952e-14 -2.24565 3.97835)
(3.65777e-14 0.0131889 -1.35076)
(1.67441e-14 -7.32373 13.9203)
(1.43948e-14 -15.3608 23.7147)
(7.44907e-15 -13.9036 24.0465)
(2.95073e-17 -13.0903 21.9524)
(-9.94556e-15 -12.2988 20.3349)
(-2.287e-15 -11.3792 18.9616)
(-5.68692e-15 -10.5626 17.5521)
(-2.58896e-14 -9.76962 16.1493)
(-2.39996e-15 -8.98415 14.7763)
(-7.61639e-15 -8.22653 13.4377)
(-1.6765e-14 -7.46106 12.0842)
(-1.51697e-14 -6.5169 10.4504)
(-1.6126e-14 -5.04647 8.04655)
(1.0955e-14 -3.1726 4.5714)
(-5.07675e-14 -1.17717 1.48161)
(2.00572e-14 -6.12534 10.8754)
(1.73705e-14 -14.1708 22.682)
(1.88626e-14 -14.3382 24.3344)
(-3.37515e-16 -13.525 22.4677)
(-4.65158e-15 -12.5711 20.7485)
(-1.89315e-14 -11.6365 19.3228)
(-5.40823e-15 -10.8156 17.9002)
(-1.50131e-15 -9.99667 16.4886)
(2.59157e-15 -9.17068 15.1058)
(-6.0305e-15 -8.36479 13.756)
(-1.56052e-14 -7.55774 12.4009)
(-7.63345e-15 -6.63284 10.819)
(-9.61657e-15 -5.23857 8.63771)
(-2.24275e-14 -3.6666 5.60055)
(-2.1437e-14 -1.44498 3.03252)
(3.35934e-14 -5.1252 8.85136)
(1.5064e-14 -13.0094 21.5935)
(1.34023e-14 -14.2968 24.2387)
(1.6335e-15 -13.578 22.8785)
(7.67274e-15 -12.5368 21.1356)
(1.45499e-14 -11.5995 19.6449)
(-2.15492e-15 -10.7696 18.2082)
(-2.76655e-15 -9.93095 16.7927)
(1.20622e-14 -9.09174 15.3999)
(-9.15499e-15 -8.27847 14.0373)
(-9.50679e-15 -7.46779 12.6746)
(1.24304e-14 -6.5754 11.0948)
(-2.19131e-15 -5.18552 8.98629)
(-2.50488e-14 -3.9289 6.09008)
(1.9363e-14 -1.5216 3.97852)
(1.78782e-14 -4.65834 8.07052)
(2.55683e-14 -12.2187 20.8706)
(1.89591e-14 -14.039 23.8129)
(2.04539e-14 -13.4583 23.0197)
(-1.1415e-14 -12.4612 21.3199)
(1.01294e-14 -11.5521 19.7824)
(-1.09366e-15 -10.7231 18.3359)
(-1.47501e-15 -9.88439 16.9175)
(1.01023e-14 -9.05417 15.5176)
(-2.16581e-14 -8.25123 14.1477)
(-6.1519e-15 -7.44472 12.7777)
(7.55366e-15 -6.56951 11.1661)
(-4.51004e-15 -5.09589 9.05665)
(-2.15002e-14 -4.06412 6.14623)
(1.15418e-14 -1.53405 4.34525)
(1.71507e-14 -4.55206 7.94332)
(2.47631e-14 -11.7549 20.4148)
(7.57384e-15 -13.7964 23.2681)
(4.639e-15 -13.3614 23.0272)
(-3.86819e-15 -12.4772 21.4116)
(-3.69082e-15 -11.5853 19.8553)
(-4.0755e-15 -10.7484 18.4067)
(-1.32131e-15 -9.9108 16.9874)
(-6.52121e-16 -9.08686 15.584)
(1.35508e-14 -8.28819 14.2114)
(-2.97818e-15 -7.47549 12.836)
(1.1728e-14 -6.6071 11.1749)
(-2.55556e-15 -5.01812 9.0513)
(-2.06861e-14 -4.20203 6.18021)
(1.35144e-14 -1.60107 4.62923)
(2.10484e-15 -4.51539 7.78937)
(2.08586e-14 -11.4218 20.0083)
(9.04228e-15 -13.6127 22.7749)
(-2.60198e-15 -13.318 23.0071)
(3.4697e-16 -12.5584 21.5039)
(-4.87066e-15 -11.6606 19.9466)
(-2.22189e-14 -10.8069 18.4952)
(-1.29194e-15 -9.96737 17.0737)
(-3.1082e-15 -9.14308 15.6686)
(-5.05184e-15 -8.34287 14.2939)
(-3.45908e-15 -7.51628 12.9129)
(2.96431e-15 -6.65147 11.1927)
(-2.4478e-14 -4.95376 9.05608)
(-1.81177e-14 -4.35275 6.28705)
(-3.45963e-14 -1.71743 4.95559)
(-1.73749e-14 -4.39076 7.38437)
(2.11984e-14 -11.0748 19.5439)
(-3.23917e-16 -13.4356 22.3806)
(-1.28573e-14 -13.2801 23.0022)
(1.20226e-14 -12.6413 21.6304)
(2.44406e-15 -11.7322 20.0792)
(2.39093e-14 -10.8627 18.6155)
(7.93612e-16 -10.0196 17.1836)
(-2.05397e-14 -9.18997 15.7705)
(-8.91668e-15 -8.38576 14.3859)
(1.72238e-15 -7.5384 12.9934)
(-2.97408e-14 -6.6759 11.2053)
(-4.75596e-14 -4.88374 9.0478)
(-2.51007e-14 -4.4778 6.38862)
(-5.31707e-14 -1.82288 5.24596)
(-1.4756e-14 -4.32137 7.12586)
(2.5211e-14 -10.7715 19.2695)
(-8.96226e-15 -13.2256 22.1015)
(2.75186e-15 -13.155 23.021)
(-5.95027e-15 -12.6184 21.7453)
(-6.52751e-15 -11.6957 20.2188)
(-5.63351e-15 -10.8238 18.7485)
(-2.10527e-14 -9.98305 17.3105)
(-2.95507e-14 -9.15536 15.8956)
(-1.04222e-14 -8.35747 14.5023)
(-7.05094e-16 -7.49648 13.0838)
(-4.28291e-14 -6.62919 11.2069)
(-1.49409e-15 -4.75776 9.03943)
(-4.72785e-14 -4.60007 6.49118)
(-2.4206e-14 -1.90754 5.53744)
(-2.864e-14 -4.46549 7.34733)
(2.2887e-14 -10.6412 19.2011)
(1.33608e-15 -13.1071 21.9721)
(-1.38486e-14 -13.0659 23.1395)
(2.36904e-15 -12.6136 21.8814)
(-2.97135e-14 -11.6384 20.3437)
(-1.1195e-14 -10.7382 18.8186)
(1.91078e-14 -9.85516 17.3205)
(-3.72375e-14 -8.97882 15.8397)
(-1.07819e-14 -8.13387 14.3884)
(1.62264e-15 -7.2319 12.8877)
(-5.18592e-14 -6.26391 10.849)
(-2.00748e-14 -4.37691 8.57121)
(-5.15621e-14 -4.33657 6.21991)
(-6.63024e-14 -1.72804 5.25431)
(-3.0904e-14 -4.62298 8.21746)
(1.2672e-14 -10.1676 19.4932)
(-6.63748e-15 -12.3148 22.319)
(-7.07522e-15 -12.2659 23.3373)
(-6.8287e-15 -11.8073 22.1102)
(-2.48871e-14 -10.8738 20.6604)
(-4.24999e-17 -10.044 19.1656)
(5.42709e-15 -9.23272 17.6955)
(-2.8022e-14 -8.45382 16.2545)
(-1.89265e-15 -7.70698 14.7788)
(-1.63759e-14 -6.86338 13.0393)
(-4.76875e-14 -5.784 10.7446)
(-2.3007e-14 -4.27121 8.42041)
(-6.48861e-14 -4.33661 6.39337)
(-5.94944e-14 -1.64441 5.10083)
(-2.01156e-14 -8.79444 18.5202)
(7.72807e-15 -14.207 24.8495)
(-4.26214e-15 -14.4684 25.1377)
(-7.3898e-15 -13.0815 24.5391)
(-1.45064e-14 -11.6047 22.2545)
(-1.18406e-14 -9.94052 20.1835)
(-2.91457e-15 -8.64414 18.1951)
(-1.32163e-14 -7.36443 16.2927)
(-2.03025e-14 -6.21179 14.3175)
(-2.16772e-14 -5.02878 12.1914)
(-3.90871e-14 -3.82306 9.83395)
(-4.22249e-14 -2.60906 7.64112)
(-4.66657e-14 -1.70697 5.80611)
(-5.4658e-14 -1.40662 4.16874)
(-1.86525e-14 -0.266765 2.22431)
(-3.1234e-15 0.306472 -2.48763)
(-5.84087e-15 0.461431 -3.75897)
(-4.52652e-15 0.642566 -2.69335)
(-4.47086e-15 1.01705 -2.63718)
(-4.23614e-15 1.18281 -2.47627)
(-6.18454e-15 1.96473 -3.54627)
(-4.63522e-15 1.69848 -2.38147)
(-4.73172e-15 2.05833 -2.3146)
(-4.59954e-15 2.15746 -2.16547)
(-3.2e-15 3.13858 -3.08447)
(-1.47582e-15 2.62874 -2.05987)
(-1.32617e-15 2.83476 -1.89019)
(-3.06623e-15 4.23301 -2.67333)
(-2.24365e-15 3.3642 -1.75277)
(-2.26972e-15 3.68571 -1.70214)
(-2.08409e-15 3.69986 -1.5933)
(-2.88788e-15 4.98643 -2.19804)
(-3.50955e-15 4.04798 -1.42387)
(-3.02164e-15 4.13219 -1.31)
(-3.57023e-15 5.84665 -1.75874)
(-2.58977e-15 4.56311 -1.10292)
(-1.916e-15 4.86894 -1.06104)
(-1.69343e-15 4.81547 -0.9957)
(-3.16057e-15 6.32812 -1.27389)
(-2.18682e-15 4.93265 -0.76013)
(-1.89615e-15 5.25539 -0.711508)
(-2.02005e-15 5.18248 -0.660877)
(-3.44577e-15 6.71153 -0.778508)
(-2.05518e-15 5.31241 -0.39826)
(-1.56005e-15 5.28155 -0.359184)
(-2.78262e-15 7.16547 -0.318015)
(-1.44462e-15 5.4671 -0.0695419)
(-1.25257e-15 5.72787 -0.0409987)
(-1.31807e-15 5.61708 -0.0412108)
(-2.24807e-15 7.10685 0.120718)
(-1.45345e-15 5.56297 0.248723)
(-1.26884e-15 5.48196 0.229089)
(-2.21716e-15 7.36216 0.53597)
(-1.63301e-15 5.50883 0.540112)
(-1.53652e-15 5.75147 0.54194)
(-1.27788e-15 5.60665 0.493594)
(-2.39835e-15 7.1163 0.878859)
(-1.72648e-15 5.33742 0.778049)
(-1.80452e-15 5.57446 0.771604)
(-1.6986e-15 5.42799 0.704057)
(-3.17307e-15 6.813 1.1585)
(-2.31367e-15 5.15937 0.984835)
(-2.1034e-15 5.05679 0.897064)
(-2.55468e-15 6.72352 1.45894)
(-2.15449e-15 4.85805 1.18353)
(-2.38473e-15 5.0653 1.14816)
(-2.22576e-15 4.93282 1.04485)
(-3.23163e-15 6.10241 1.64583)
(-2.18373e-15 4.44339 1.29909)
(-2.22252e-15 4.62647 1.2584)
(-1.67332e-15 4.5035 1.14396)
(-2.3058e-15 5.46836 1.79955)
(-2.02283e-15 3.98256 1.39673)
(-1.73414e-15 3.90886 1.26414)
(-1.6744e-15 5.04857 2.03084)
(-9.98471e-16 3.44054 1.52628)
(-1.11841e-15 3.58348 1.46525)
(-1.3593e-15 3.50004 1.33064)
(2.86813e-16 4.08099 2.11626)
(1.17725e-15 2.80525 1.57505)
(1.15036e-15 2.76999 1.41563)
(1.62277e-15 3.42944 2.30758)
(5.99501e-16 2.09833 1.66281)
(5.81017e-16 2.18241 1.58742)
(5.03017e-16 2.14654 1.43122)
(9.24546e-16 2.33142 2.35657)
(9.79822e-16 1.2428 1.66193)
(1.06192e-15 1.301 1.58495)
(1.24036e-15 1.30109 1.43006)
(-2.0718e-15 1.3075 2.39994)
(-2.04316e-15 0.249455 1.70822)
(-1.65045e-15 0.323948 1.53283)
(-6.79192e-16 0.195906 2.47622)
(-3.79218e-16 -0.715293 1.48959)
(4.54241e-17 -0.637422 1.39344)
(-1.91955e-15 -0.510919 1.05875)
(-2.29286e-15 -0.527949 0.579165)
(-2.18434e-15 -1.03923 0.0897318)
(-7.82384e-15 -1.31581 -1.83776)
(-2.51802e-14 -0.79924 -2.54663)
(-3.19994e-14 -1.20317 -2.27366)
(-3.69205e-14 -1.0792 -1.75857)
(-4.01645e-14 -0.96852 -1.2192)
(-4.26786e-14 -0.931086 -0.593847)
(-4.48709e-14 -0.854384 0.172895)
(-4.67738e-14 -0.970568 1.14831)
(-4.83834e-14 -1.47705 2.3093)
(-4.68697e-14 -1.32016 4.99109)
(-4.56131e-14 -1.13681 5.0406)
(-4.51168e-14 -1.49367 5.29956)
(-4.44964e-14 -1.40813 5.61934)
(-4.3448e-14 -1.46456 6.16893)
(-4.36287e-14 -1.42762 6.43946)
(-4.38922e-14 -1.367 6.803)
(-4.42303e-14 -1.42791 7.29069)
(-4.45519e-14 -1.81578 7.92916)
(-4.12263e-14 -1.71434 10.2779)
(-3.40004e-14 -1.68236 10.0245)
(-3.30959e-14 -1.88236 10.2941)
(-3.17855e-14 -1.85422 10.5386)
(-3.00587e-14 -1.86294 10.8679)
(-2.73003e-14 -1.89391 11.3539)
(-2.42811e-14 -1.95305 11.8788)
(-2.33235e-14 -1.84911 12.1195)
(-2.17871e-14 -1.86116 12.4961)
(-1.95626e-14 -2.19795 13.0257)
(-1.34331e-14 -1.86523 15.5258)
(-1.79998e-14 -2.30711 15.3713)
(-1.74925e-14 -2.37729 15.64)
(-1.71703e-14 -2.38879 15.8781)
(-1.66995e-14 -2.45672 16.1958)
(-1.60607e-14 -2.48989 16.6089)
(-1.47836e-14 -2.48126 17.2553)
(-1.36372e-14 -2.36932 17.704)
(-1.23485e-14 -2.59806 18.0939)
(-8.62525e-15 -2.24849 19.8884)
(-1.03673e-14 -2.97171 19.3691)
(-8.8525e-15 -2.93436 19.887)
(-7.82374e-15 -2.99811 20.2936)
(-8.27723e-15 -2.98724 20.5013)
(-8.54079e-15 -3.05488 20.8233)
(-9.06896e-15 -2.98196 21.2291)
(-9.94458e-15 -2.81516 21.8043)
(-1.20414e-14 -3.1022 22.7127)
(-9.59205e-15 -2.15227 23.9474)
(-1.16936e-14 -3.57038 23.3011)
(-1.22524e-14 -3.39795 23.6358)
(-1.26266e-14 -3.43846 23.9185)
(-1.31713e-14 -3.53248 24.4136)
(-1.31228e-14 -3.53259 24.6629)
(-1.27276e-14 -3.42015 24.8361)
(-1.21888e-14 -3.22298 25.0735)
(-1.1312e-14 -3.16307 25.3573)
(-7.33664e-15 -2.23054 26.8908)
(-6.41408e-15 -4.07813 26.4832)
(-6.27473e-15 -3.66888 26.5506)
(-6.13185e-15 -3.7701 26.5765)
(-6.065e-15 -3.70566 26.5886)
(-6.10402e-15 -3.64925 26.5764)
(-6.35827e-15 -3.758 26.5671)
(-6.15926e-15 -3.56436 26.2822)
(-5.99443e-15 -3.2478 25.8531)
(-5.69879e-15 -2.73885 25.1342)
(-5.01301e-15 -1.63413 22.1067)
(-4.82113e-15 -3.99568 21.427)
(-4.94142e-15 -3.24256 20.5388)
(-6.06124e-15 -3.34026 19.6295)
(-7.22008e-15 -3.16512 18.3818)
(-8.93274e-15 -3.19458 16.7012)
(-1.22093e-14 -3.05656 14.2454)
(-1.48987e-14 -2.33452 11.5284)
(-1.2719e-14 -1.60182 9.63841)
(-4.60352e-15 -1.8955 2.92023)
(-6.18418e-15 -3.52742 3.10899)
(-4.25438e-15 -2.15919 0.647926)
(2.31258e-15 -1.14051 -4.69249)
(-1.2267e-15 -2.56733 -2.52062)
(-8.17428e-16 -2.25184 -2.06841)
(-5.48554e-16 -1.55483 0.549334)
(-3.50422e-15 -2.24534 0.62158)
(-8.50745e-16 -1.30637 0.997779)
(-3.54765e-15 -2.17787 1.16409)
(-1.70272e-15 -2.02039 1.05052)
(-6.64219e-16 -1.65857 0.77248)
(-9.76395e-16 -2.35614 1.06939)
(-6.24945e-16 -2.3941 0.768899)
(-4.34236e-16 -2.13502 0.63198)
(-5.32482e-16 -2.99675 0.805016)
(-3.01288e-16 -2.11364 0.58517)
(-3.00627e-15 -3.12308 0.85494)
(-9.87773e-16 -3.12054 0.728853)
(-5.68132e-16 -2.7493 0.595124)
(-8.18319e-16 -3.83489 0.844769)
(-4.75402e-16 -2.76784 0.614815)
(-7.24795e-16 -4.12937 0.957971)
(-6.19281e-16 -3.95304 0.804504)
(-5.44006e-16 -3.2167 0.645705)
(-7.73546e-16 -4.55716 0.962629)
(-6.52688e-16 -4.38172 0.789922)
(-4.91478e-16 -3.80496 0.655086)
(-6.83601e-16 -5.2056 0.891658)
(-6.85746e-16 -3.65347 0.640725)
(-2.38197e-16 -5.33773 0.933948)
(-2.08732e-16 -4.95659 0.717125)
(-3.10288e-16 -4.26582 0.597398)
(-4.57186e-16 -5.81145 0.772438)
(-3.55431e-16 -4.01049 0.550374)
(-5.14819e-16 -5.92874 0.770288)
(-4.48521e-16 -5.35181 0.541585)
(-3.2434e-16 -4.24974 0.423149)
(-5.9552e-16 -6.01907 0.55798)
(-6.05262e-16 -5.554 0.346429)
(-1.91942e-16 -4.69839 0.285334)
(-3.61514e-16 -6.42157 0.350225)
(-2.93582e-16 -4.29316 0.197683)
(-2.86931e-16 -6.36047 0.287297)
(-2.99592e-16 -5.73768 0.0841939)
(-6.81831e-16 -4.88643 0.0590256)
(-1.49627e-16 -6.62046 0.0705676)
(-2.00223e-16 -4.45306 -0.0132961)
(-4.78539e-16 -6.56381 0.00118746)
(-3.32669e-16 -5.77864 -0.155407)
(-1.78799e-16 -4.57063 -0.172459)
(-3.57688e-16 -6.40244 -0.241269)
(-2.4755e-16 -5.7871 -0.352002)
(-1.39901e-16 -4.88563 -0.293764)
(-2.14526e-16 -6.495 -0.406661)
(-1.39724e-16 -4.32914 -0.359991)
(-1.91885e-16 -6.2421 -0.533073)
(-7.15852e-16 -5.47426 -0.597768)
(-6.59287e-17 -4.63396 -0.492535)
(2.82903e-17 -6.03737 -0.71266)
(5.97308e-17 -4.01865 -0.556606)
(1.65437e-17 -5.69725 -0.891402)
(1.65905e-16 -4.81589 -0.899829)
(-1.26632e-16 -3.69173 -0.776378)
(-6.83817e-17 -4.95506 -1.23955)
(-3.29978e-16 -4.24676 -1.21718)
(-6.78515e-16 -3.43332 -1.00947)
(1.16188e-15 -4.35168 -1.50465)
(3.28039e-16 -2.70997 -1.1352)
(8.6824e-17 -3.71043 -1.86624)
(2.42885e-16 -2.86556 -1.75034)
(5.32643e-16 -2.02624 -1.45923)
(8.07279e-16 -2.52722 -2.19181)
(4.88641e-16 -1.33959 -1.61557)
(8.3706e-16 -1.97405 -2.66113)
(-1.32848e-15 -1.19959 -2.30726)
(1.06281e-15 0.372261 -1.70839)
(1.85289e-15 -0.0779985 -3.66705)
(1.12827e-15 0.0559102 -5.18658)
(5.58806e-16 1.59299 -3.3809)
(3.61259e-16 2.30263 -5.31215)
(2.48649e-16 2.79266 -3.71034)
(4.38883e-17 3.83205 -5.5718)
(-3.78668e-15 -0.831561 12.5713)
(-3.76964e-15 -0.87199 12.6188)
(-3.76009e-15 -0.906802 12.6414)
(-3.74827e-15 -0.947324 12.6708)
(-3.73639e-15 -0.997443 12.6996)
(-3.72379e-15 -1.05719 12.7301)
(-3.71048e-15 -1.12816 12.7623)
(-3.6963e-15 -1.21142 12.7964)
(-3.68109e-15 -1.30829 12.833)
(-3.66468e-15 -1.42013 12.8723)
(-3.64688e-15 -1.54844 12.9148)
(-3.62749e-15 -1.69482 12.961)
(-3.60628e-15 -1.86107 13.0115)
(-3.583e-15 -2.04909 13.0668)
(-3.55739e-15 -2.26069 13.1275)
(-3.52916e-15 -2.49773 13.1943)
(-3.49805e-15 -2.76206 13.2679)
(-3.46377e-15 -3.05536 13.3487)
(-3.42608e-15 -3.37908 13.4375)
(-3.38478e-15 -3.73427 13.5345)
(-3.33976e-15 -4.12143 13.6402)
(-3.29104e-15 -4.5405 13.7543)
(-3.23885e-15 -4.99021 13.8766)
(-3.18365e-15 -5.46807 14.0061)
(-3.1263e-15 -5.96991 14.1415)
(-3.06808e-15 -6.48951 14.2807)
(-3.01091e-15 -7.01828 14.4217)
(-2.95744e-15 -7.54497 14.5621)
(-2.91126e-15 -8.05581 14.7008)
(-2.87715e-15 -8.53523 14.8384)
(-2.86141e-15 -8.96729 14.9797)
(-2.87217e-15 -9.33827 15.1357)
(-2.91979e-15 -9.63972 15.3255)
(-3.01686e-15 -9.87083 15.5781)
(-3.17771e-15 -10.0374 15.9296)
(-3.41682e-15 -10.1444 16.418)
(-3.74614e-15 -10.1808 17.0723)
(-4.17138e-15 -10.0977 17.9006)
(-4.6881e-15 -9.78604 18.8785)
(-5.27926e-15 -9.0499 19.9403)
(-5.86691e-15 -7.41317 20.7912)
(-5.66353e-15 -2.86668 18.8742)
(-9.07448e-16 6.75773 2.8981)
(1.63501e-15 5.66618 -4.28551)
(1.62578e-15 3.2667 -2.99923)
(1.87686e-15 2.63052 -0.884075)
(1.09733e-15 -2.25638 4.11479)
(3.55093e-16 -4.20786 6.53703)
(-1.78176e-17 -6.3915 7.89996)
(-5.85056e-16 -8.0915 10.3369)
(-1.10782e-15 -10.0797 11.4507)
(-1.75072e-15 -11.2784 12.1691)
(-2.8322e-15 -12.2144 13.5891)
(-4.10238e-15 -13.6644 15.5972)
(-4.94575e-15 -14.724 17.0078)
(-5.34149e-15 -14.7073 17.614)
(-5.51248e-15 -13.8382 17.8953)
(-5.51328e-15 -12.5641 18.3086)
(-5.22502e-15 -11.0253 18.9243)
(-4.69753e-15 -9.09297 19.537)
(-4.28592e-15 -6.5951 19.9957)
(-4.22372e-15 -3.4773 20.2906)
(-4.26219e-15 -0.00941199 20.3546)
(-4.33679e-15 3.27221 20.4499)
(-4.71346e-15 6.57374 20.9488)
(-5.31031e-15 9.68933 21.5405)
(-5.98729e-15 12.2459 21.7194)
(-6.46084e-15 13.6058 20.7906)
(-6.31485e-15 12.9428 17.9819)
(-5.12645e-15 9.54149 12.6852)
(-2.80673e-15 3.62254 5.06509)
(-5.44177e-16 -1.36942 -1.46669)
(-5.45636e-16 -1.95044 -1.02355)
(-7.65196e-16 -1.11631 -0.514326)
(-8.17218e-16 -0.160518 -0.305975)
(-6.10866e-16 -3.76246 -1.56625)
(-4.71699e-16 -5.67471 -3.66163)
(-3.89014e-16 -5.71086 -5.18136)
(-4.02145e-16 -3.82039 -6.55669)
(-3.76654e-15 -0.867216 12.6162)
(-3.7494e-15 -0.90986 12.6699)
(-3.73978e-15 -0.945312 12.6916)
(-3.72789e-15 -0.988512 12.7212)
(-3.71593e-15 -1.04118 12.7497)
(-3.70325e-15 -1.10398 12.78)
(-3.68986e-15 -1.17833 12.8117)
(-3.67557e-15 -1.26536 12.8455)
(-3.66025e-15 -1.36636 12.8816)
(-3.64373e-15 -1.4827 12.9205)
(-3.62581e-15 -1.61582 12.9626)
(-3.60629e-15 -1.76739 13.0086)
(-3.58495e-15 -1.9391 13.0588)
(-3.56153e-15 -2.1326 13.1141)
(-3.53578e-15 -2.34961 13.175)
(-3.50744e-15 -2.59183 13.2423)
(-3.47622e-15 -2.86081 13.3166)
(-3.44188e-15 -3.15787 13.3986)
(-3.40417e-15 -3.48412 13.4889)
(-3.36293e-15 -3.84014 13.5879)
(-3.31808e-15 -4.22594 13.696)
(-3.26967e-15 -4.64086 13.813)
(-3.21797e-15 -5.08304 13.9384)
(-3.16351e-15 -5.54934 14.0711)
(-3.1072e-15 -6.03494 14.2097)
(-3.05043e-15 -6.53298 14.3523)
(-2.99519e-15 -7.03429 14.4964)
(-2.94427e-15 -7.52717 14.6401)
(-2.90145e-15 -7.9977 14.7823)
(-2.87175e-15 -8.4305 14.9242)
(-2.86178e-15 -8.81049 15.0715)
(-2.88016e-15 -9.12556 15.2363)
(-2.93781e-15 -9.3696 15.4396)
(-3.048e-15 -9.54444 15.7117)
(-3.2256e-15 -9.65775 16.0894)
(-3.48533e-15 -9.71407 16.6092)
(-3.83863e-15 -9.6976 17.2952)
(-4.28924e-15 -9.54807 18.1437)
(-4.82689e-15 -9.13435 19.0999)
(-5.39937e-15 -8.18807 19.9466)
(-5.6885e-15 -5.83832 19.5653)
(-4.18886e-15 0.450276 13.3147)
(1.43467e-15 4.33205 -3.98349)
(8.34966e-16 -0.580837 -0.325757)
(1.17614e-15 1.08479 -1.22741)
(1.63949e-15 0.188093 0.787127)
(9.58281e-16 -3.36711 4.69981)
(2.77357e-16 -5.02784 6.78463)
(-1.11763e-16 -7.02165 8.29206)
(-6.69569e-16 -8.70491 10.5219)
(-1.1968e-15 -10.5262 11.567)
(-1.90471e-15 -11.6672 12.3658)
(-3.03855e-15 -12.74 13.8814)
(-4.26003e-15 -14.1878 15.8417)
(-5.02952e-15 -15.0681 17.1371)
(-5.38298e-15 -14.8937 17.6754)
(-5.52456e-15 -13.9771 17.9674)
(-5.46529e-15 -12.7185 18.4319)
(-5.10194e-15 -11.1777 19.0807)
(-4.56357e-15 -9.19064 19.6684)
(-4.17563e-15 -6.61205 19.9664)
(-3.94575e-15 -3.48856 19.8218)
(-3.69807e-15 -0.191568 19.4053)
(-3.78509e-15 3.0374 19.5566)
(-4.17948e-15 6.31508 20.2073)
(-4.84296e-15 9.50554 21.1158)
(-5.67341e-15 12.304 21.7963)
(-6.40912e-15 14.1236 21.5316)
(-6.615e-15 14.12 19.4716)
(-5.78059e-15 11.4108 14.8641)
(-3.59811e-15 5.65056 7.42736)
(-5.27682e-16 -1.25644 -1.62318)
(-5.03499e-16 -2.17984 -1.25075)
(-7.30586e-16 -1.31937 -0.600088)
(-8.22934e-16 0.00951164 -0.188723)
(-6.25053e-16 -3.39944 -1.46393)
(-4.82335e-16 -5.37049 -3.48689)
(-3.95723e-16 -5.5416 -4.9385)
(-4.11965e-16 -3.86061 -6.21593)
(-3.74163e-15 -0.874425 12.6855)
(-3.7243e-15 -0.915297 12.7383)
(-3.71458e-15 -0.949931 12.7597)
(-3.70258e-15 -0.993951 12.7894)
(-3.6905e-15 -1.04719 12.8175)
(-3.67769e-15 -1.11079 12.8475)
(-3.66416e-15 -1.18598 12.8789)
(-3.64972e-15 -1.27387 12.9122)
(-3.63425e-15 -1.37575 12.9478)
(-3.61756e-15 -1.49297 12.9862)
(-3.59947e-15 -1.6271 13.0278)
(-3.57977e-15 -1.77974 13.0733)
(-3.55825e-15 -1.95236 13.1231)
(-3.53467e-15 -2.14691 13.1781)
(-3.50877e-15 -2.36502 13.2388)
(-3.48029e-15 -2.60843 13.306)
(-3.44898e-15 -2.87865 13.3804)
(-3.4146e-15 -3.17706 13.4626)
(-3.37693e-15 -3.50474 13.5534)
(-3.33584e-15 -3.86225 13.6532)
(-3.29127e-15 -4.24962 13.7622)
(-3.24333e-15 -4.66606 13.8803)
(-3.19235e-15 -5.10964 14.007)
(-3.13892e-15 -5.57706 14.1412)
(-3.08404e-15 -6.06336 14.2813)
(-3.02919e-15 -6.56151 14.4255)
(-2.97652e-15 -7.06222 14.5714)
(-2.92896e-15 -7.55384 14.7174)
(-2.89052e-15 -8.0227 14.8627)
(-2.86654e-15 -8.45409 15.0097)
(-2.86406e-15 -8.8341 15.1652)
(-2.89229e-15 -9.15231 15.3435)
(-2.96287e-15 -9.40456 15.5677)
(-3.08979e-15 -9.5941 15.8705)
(-3.28854e-15 -9.7281 16.2898)
(-3.57397e-15 -9.80711 16.86)
(-3.957e-15 -9.80622 17.5983)
(-4.4404e-15 -9.64986 18.4863)
(-5.00709e-15 -9.1752 19.4221)
(-5.53448e-15 -7.98718 19.9464)
(-5.37484e-15 -4.87837 18.0162)
(-2.65236e-15 1.92218 7.93966)
(1.6432e-15 3.67386 -3.6723)
(2.69028e-16 -1.16116 2.18337)
(9.58375e-16 -2.74577 1.01721)
(1.19583e-15 -1.12854 2.80636)
(7.62375e-16 -3.64848 5.26612)
(1.84543e-16 -5.50291 7.08508)
(-2.26963e-16 -7.42526 8.75328)
(-7.72882e-16 -9.12067 10.7399)
(-1.31793e-15 -10.7639 11.6964)
(-2.10805e-15 -11.9187 12.615)
(-3.28869e-15 -13.1317 14.2368)
(-4.44171e-15 -14.5535 16.1159)
(-5.12437e-15 -15.2633 17.27)
(-5.42893e-15 -14.9658 17.7365)
(-5.52813e-15 -14.036 18.0522)
(-5.38914e-15 -12.8161 18.5801)
(-4.94535e-15 -11.2865 19.2504)
(-4.39007e-15 -9.24821 19.7319)
(-3.96224e-15 -6.56591 19.7054)
(-3.59379e-15 -3.38456 19.1498)
(-3.35851e-15 -0.165933 18.6905)
(-3.47177e-15 2.94943 18.9007)
(-3.8485e-15 6.1516 19.5911)
(-4.51186e-15 9.31932 20.6186)
(-5.3922e-15 12.1932 21.5396)
(-6.25897e-15 14.2287 21.6563)
(-6.68467e-15 14.5966 20.095)
(-6.12869e-15 12.3863 16.0588)
(-4.20873e-15 7.12261 9.22019)
(-1.33563e-15 0.111573 0.745928)
(-5.39307e-16 -2.12415 -1.26446)
(-7.0312e-16 -1.43731 -0.628527)
(-8.26557e-16 0.14169 0.156884)
(-6.40639e-16 -2.96761 -1.31012)
(-4.95884e-16 -4.95969 -3.24769)
(-4.03585e-16 -5.26739 -4.61084)
(-4.62163e-16 -3.83015 -5.64128)
(-3.71491e-15 -0.878009 12.7655)
(-3.69743e-15 -0.917154 12.8153)
(-3.68766e-15 -0.950835 12.837)
(-3.67559e-15 -0.994838 12.8665)
(-3.66344e-15 -1.04792 12.8943)
(-3.65055e-15 -1.11145 12.9239)
(-3.63692e-15 -1.18659 12.9548)
(-3.62239e-15 -1.27446 12.9877)
(-3.6068e-15 -1.37635 13.0228)
(-3.58999e-15 -1.49362 13.0607)
(-3.57177e-15 -1.62784 13.1019)
(-3.55194e-15 -1.78045 13.1468)
(-3.53028e-15 -1.95304 13.1963)
(-3.50657e-15 -2.14759 13.2508)
(-3.48055e-15 -2.36566 13.3111)
(-3.45198e-15 -2.60896 13.378)
(-3.42062e-15 -2.87904 13.4521)
(-3.38625e-15 -3.17727 13.5343)
(-3.34868e-15 -3.50467 13.6252)
(-3.3078e-15 -3.86182 13.7252)
(-3.2636e-15 -4.24867 13.8345)
(-3.21625e-15 -4.6644 13.953)
(-3.16611e-15 -5.10703 14.0802)
(-3.11388e-15 -5.57323 14.2149)
(-3.06062e-15 -6.05799 14.3557)
(-3.00794e-15 -6.55434 14.5005)
(-2.95812e-15 -7.05312 14.6473)
(-2.91428e-15 -7.543 14.7947)
(-2.88069e-15 -8.01094 14.9427)
(-2.86301e-15 -8.44328 15.0945)
(-2.8688e-15 -8.82765 15.2587)
(-2.90785e-15 -9.15565 15.4516)
(-2.99256e-15 -9.42523 15.6989)
(-3.13766e-15 -9.64111 16.0354)
(-3.35915e-15 -9.81018 16.4992)
(-3.67206e-15 -9.92974 17.1212)
(-4.08748e-15 -9.96811 17.9091)
(-4.60768e-15 -9.83626 18.818)
(-5.19438e-15 -9.32263 19.6327)
(-5.57808e-15 -7.84224 19.4437)
(-4.68698e-15 -3.86371 15.0968)
(-5.87026e-16 3.43585 1.21165)
(9.02265e-16 3.75449 -0.636015)
(4.13732e-16 -1.43012 2.2451)
(9.05006e-16 -3.12605 2.52568)
(9.36992e-16 -2.38215 4.04542)
(5.70512e-16 -4.16083 5.82122)
(8.63625e-17 -5.93347 7.46253)
(-3.45053e-16 -7.7509 9.20911)
(-8.81175e-16 -9.40927 10.9506)
(-1.45946e-15 -10.9194 11.8443)
(-2.33417e-15 -12.1244 12.8945)
(-3.5413e-15 -13.4503 14.597)
(-4.61451e-15 -14.7972 16.3688)
(-5.21269e-15 -15.3488 17.3775)
(-5.46926e-15 -14.9685 17.7839)
(-5.51669e-15 -14.0554 18.1363)
(-5.29071e-15 -12.878 18.7242)
(-4.77187e-15 -11.3448 19.3685)
(-4.18186e-15 -9.23121 19.6291)
(-3.68038e-15 -6.45164 19.2031)
(-3.23859e-15 -3.29013 18.3823)
(-3.03018e-15 -0.206135 17.9392)
(-3.13376e-15 2.81876 18.1438)
(-3.48809e-15 5.94387 18.8727)
(-4.13889e-15 9.09222 20.0134)
(-5.05987e-15 12.0593 21.1838)
(-6.05773e-15 14.3512 21.7109)
(-6.716e-15 15.1515 20.69)
(-6.45985e-15 13.4918 17.2479)
(-4.80709e-15 8.70238 10.9372)
(-2.00554e-15 1.69081 2.6571)
(-5.71134e-16 -1.99044 -1.25982)
(-6.88264e-16 -1.53617 -0.618396)
(-8.298e-16 0.155004 0.732253)
(-6.54312e-16 -2.56725 -1.12094)
(-5.10404e-16 -4.56411 -2.9857)
(-4.042e-16 -5.00483 -4.2607)
(-5.78087e-16 -3.85126 -5.05824)
(-3.68644e-15 -0.883735 12.8521)
(-3.66891e-15 -0.921939 12.8997)
(-3.65913e-15 -0.954882 12.9215)
(-3.64706e-15 -0.998798 12.9506)
(-3.6349e-15 -1.05171 12.978)
(-3.622e-15 -1.11518 13.0071)
(-3.60836e-15 -1.19028 13.0375)
(-3.59381e-15 -1.27818 13.0699)
(-3.5782e-15 -1.38018 13.1045)
(-3.56136e-15 -1.49765 13.1419)
(-3.54311e-15 -1.63198 13.1826)
(-3.52324e-15 -1.78474 13.227)
(-3.50156e-15 -1.95774 13.2759)
(-3.47781e-15 -2.15267 13.3298)
(-3.45178e-15 -2.37119 13.3896)
(-3.42323e-15 -2.61495 13.456)
(-3.39193e-15 -2.88558 13.5298)
(-3.35767e-15 -3.18437 13.6116)
(-3.32031e-15 -3.51232 13.7022)
(-3.27976e-15 -3.87 13.802)
(-3.23605e-15 -4.25728 13.9112)
(-3.18941e-15 -4.6733 14.0297)
(-3.14026e-15 -5.11601 14.1567)
(-3.08937e-15 -5.58203 14.2914)
(-3.0379e-15 -6.06635 14.4321)
(-2.98759e-15 -6.56204 14.5769)
(-2.94084e-15 -7.0601 14.724)
(-2.901e-15 -7.54957 14.8723)
(-2.87258e-15 -8.01807 15.0226)
(-2.86165e-15 -8.45304 15.1793)
(-2.87623e-15 -8.84367 15.3527)
(-2.92679e-15 -9.18348 15.5614)
(-3.02643e-15 -9.4723 15.8337)
(-3.19055e-15 -9.71602 16.2059)
(-3.43557e-15 -9.92074 16.7155)
(-3.77671e-15 -10.0803 17.3892)
(-4.22536e-15 -10.1558 18.2221)
(-4.7801e-15 -10.0367 19.1246)
(-5.35878e-15 -9.42566 19.698)
(-5.49905e-15 -7.48006 18.4928)
(-3.79835e-15 -2.39376 11.5377)
(1.05248e-15 5.06211 -3.66267)
(3.87709e-16 3.75498 1.31598)
(4.49323e-16 -1.42824 2.82803)
(8.2531e-16 -2.79508 2.99297)
(7.69825e-16 -2.82772 4.74304)
(4.12841e-16 -4.5017 6.32677)
(-1.69342e-17 -6.17097 7.8671)
(-4.61508e-16 -7.95446 9.63033)
(-9.93618e-16 -9.59479 11.1384)
(-1.61941e-15 -11.0526 12.0075)
(-2.57343e-15 -12.349 13.1912)
(-3.7842e-15 -13.7631 14.9408)
(-4.77092e-15 -15.0156 16.5841)
(-5.29077e-15 -15.4318 17.4516)
(-5.5006e-15 -15.002 17.8166)
(-5.48795e-15 -14.1201 18.2185)
(-5.17144e-15 -12.9716 18.8482)
(-4.57929e-15 -11.3977 19.3914)
(-3.93922e-15 -9.16841 19.3332)
(-3.37087e-15 -6.29928 18.5347)
(-2.9172e-15 -3.19708 17.5994)
(-2.74999e-15 -0.227956 17.1941)
(-2.8448e-15 2.70327 17.3888)
(-3.15995e-15 5.73426 18.1183)
(-3.77058e-15 8.83168 19.316)
(-4.69661e-15 11.847 20.6743)
(-5.79181e-15 14.344 21.5663)
(-6.66209e-15 15.5348 21.0699)
(-6.70825e-15 14.4133 18.2342)
(-5.35327e-15 10.1545 12.492)
(-2.61029e-15 3.20558 4.34294)
(-5.53072e-16 -1.62569 -1.38342)
(-5.89862e-16 -1.66794 -0.889214)
(-7.93342e-16 -0.0405315 0.987631)
(-6.64898e-16 -2.18366 -0.904911)
(-5.26183e-16 -4.21452 -2.7089)
(-4.08794e-16 -4.78772 -3.9048)
(-7.27824e-16 -3.9535 -4.58525)
(-3.65628e-15 -0.889839 12.9457)
(-3.6388e-15 -0.92756 12.9915)
(-3.62906e-15 -0.960059 13.0131)
(-3.61703e-15 -1.00406 13.0418)
(-3.60492e-15 -1.05708 13.0687)
(-3.59208e-15 -1.12077 13.0973)
(-3.57849e-15 -1.19611 13.1271)
(-3.56399e-15 -1.2843 13.1588)
(-3.54843e-15 -1.38663 13.1928)
(-3.53165e-15 -1.50448 13.2296)
(-3.51345e-15 -1.63926 13.2695)
(-3.49365e-15 -1.79262 13.3132)
(-3.47203e-15 -1.96634 13.3612)
(-3.44836e-15 -2.16207 13.4144)
(-3.42243e-15 -2.38153 13.4734)
(-3.39401e-15 -2.6264 13.5391)
(-3.36289e-15 -2.89825 13.6122)
(-3.32889e-15 -3.19839 13.6934)
(-3.29187e-15 -3.5278 13.7834)
(-3.25178e-15 -3.88701 13.8825)
(-3.20872e-15 -4.27586 13.9911)
(-3.16295e-15 -4.6934 14.109)
(-3.11495e-15 -5.13753 14.2355)
(-3.06557e-15 -5.60483 14.3695)
(-3.01609e-15 -6.09023 14.5095)
(-2.96835e-15 -6.58684 14.6538)
(-2.92492e-15 -7.08584 14.8006)
(-2.88936e-15 -7.57663 14.9495)
(-2.86646e-15 -8.04752 15.102)
(-2.8627e-15 -8.48701 15.2638)
(-2.88663e-15 -8.88588 15.4472)
(-2.94936e-15 -9.2395 15.6732)
(-3.06469e-15 -9.54951 15.9723)
(-3.24861e-15 -9.82258 16.382)
(-3.51791e-15 -10.0637 16.9388)
(-3.88807e-15 -10.2629 17.6639)
(-4.37021e-15 -10.3709 18.5365)
(-4.95226e-15 -10.2408 19.4022)
(-5.48342e-15 -9.44861 19.6365)
(-5.30241e-15 -6.8702 17.2952)
(-2.96021e-15 -0.704907 8.27999)
(9.39339e-16 5.79602 -3.39766)
(1.34683e-16 3.34227 2.49008)
(4.57598e-16 -1.11031 3.61059)
(7.37946e-16 -2.82911 3.59871)
(6.10251e-16 -3.03731 5.28527)
(2.78087e-16 -4.61746 6.79491)
(-1.254e-16 -6.29781 8.29512)
(-5.76506e-16 -8.10166 9.99909)
(-1.11313e-15 -9.74594 11.299)
(-1.79769e-15 -11.2006 12.1835)
(-2.82011e-15 -12.6015 13.495)
(-4.01286e-15 -14.0719 15.2559)
(-4.91e-15 -15.2276 16.7549)
(-5.35836e-15 -15.5292 17.4926)
(-5.52108e-15 -15.0726 17.8387)
(-5.43986e-15 -14.2248 18.298)
(-5.02958e-15 -13.0804 18.9331)
(-4.36368e-15 -11.4197 19.2903)
(-3.67084e-15 -9.04153 18.8632)
(-3.06568e-15 -6.1003 17.7814)