/*--------------------------------*- C++ -*----------------------------------*\
| =========                 |                                                 |
| \\      /  F ield         | OpenFOAM: The Open Source CFD Toolbox           |
|  \\    /   O peration     | Version:  4.1                                   |
|   \\  /    A nd           | Web:      www.OpenFOAM.org                      |
|    \\/     M anipulation  |                                                 |
\*---------------------------------------------------------------------------*/
FoamFile
{
    version     2.0;
    format      ascii;
    class       volScalarField;
    location    "18";
    object      p;
}
// * * * * * * * * * * * * * * * * * * * * * * * * * * * * * * * * * * * * * //

dimensions      [0 2 -2 0 0 0 0];

internalField   nonuniform List<scalar> 
225
(
523.377
469.98
418.149
369.737
324.846
282.83
243.475
206.471
171.377
138.013
107.071
78.9321
49.9032
14.9844
-14.1678
56.943
34.682
28.9233
25.2131
19.739
14.0315
8.87866
4.4899
1.00598
-1.45277
-2.64406
-2.14241
-0.0459697
1.82556
2.08574
-45.8394
-52.4824
-46.7155
-42.5686
-39.478
-35.8826
-31.9963
-28.059
-24.1546
-20.4387
-17.0932
-14.0261
-10.9493
-8.29646
-7.06221
0.294304
-2.12373
2.46905
2.79322
2.84681
3.06201
2.97289
2.5956
2.01405
1.25489
0.298154
-0.811178
-1.72147
-1.8737
-1.56324
16.7222
14.3895
15.9432
13.8452
12.4264
11.1828
9.77289
8.39105
7.13363
6.04259
5.14159
4.42906
3.95148
3.91876
4.16362
7.49412
5.4711
6.44508
5.22577
5.02278
5.00701
4.91924
4.95257
5.10816
5.35166
5.67096
6.03383
6.3535
6.61021
6.78495
4.02267
2.86725
3.95284
3.62976
4.01658
4.4107
4.70969
5.06035
5.41691
5.74168
6.03138
6.2853
6.46353
6.54456
6.56027
5.70049
5.14271
5.99705
5.76805
5.96657
6.07907
6.10299
6.14829
6.17288
6.16806
6.14436
6.11656
6.08291
6.03705
5.98857
6.0078
5.68241
6.19323
5.91735
5.96018
5.92937
5.8543
5.80721
5.75158
5.691
5.63174
5.57862
5.53188
5.48578
5.43457
4.68809
4.4804
4.82607
4.64967
4.72244
4.7314
4.71851
4.72671
4.72411
4.71734
4.70774
4.693
4.67079
4.63552
4.57779
3.31811
3.20195
3.49962
3.44572
3.56536
3.61205
3.64069
3.67566
3.69229
3.69917
3.69718
3.68466
3.66062
3.62237
3.55685
2.34433
2.28417
2.53845
2.53975
2.65809
2.69948
2.72856
2.75564
2.76319
2.76109
2.74967
2.72876
2.69891
2.66013
2.59549
1.56537
1.53042
1.73276
1.74655
1.84572
1.87211
1.89446
1.91158
1.91189
1.90503
1.89044
1.86818
1.83862
1.80388
1.746
0.880704
0.868596
1.02952
1.03422
1.11124
1.12485
1.14269
1.15478
1.15423
1.14928
1.13838
1.12136
1.09636
1.06519
1.01095
0.43865
0.399324
0.455176
0.423078
0.459232
0.440545
0.434198
0.420138
0.399232
0.376537
0.349912
0.321204
0.290756
0.260807
0.217795
)
;

boundaryField
{
    inletFace
    {
        type            zeroGradient;
    }
    inlet
    {
        type            zeroGradient;
    }
    inletWalls
    {
        type            zeroGradient;
    }
    outletInlet
    {
        type            fixedValue;
        value           uniform 0;
    }
}


// ************************************************************************* //
