/*--------------------------------*- C++ -*----------------------------------*\
| =========                 |                                                 |
| \\      /  F ield         | OpenFOAM: The Open Source CFD Toolbox           |
|  \\    /   O peration     | Version:  4.1                                   |
|   \\  /    A nd           | Web:      www.OpenFOAM.org                      |
|    \\/     M anipulation  |                                                 |
\*---------------------------------------------------------------------------*/
FoamFile
{
    version     2.0;
    format      ascii;
    class       surfaceScalarField;
    location    "18";
    object      phi;
}
// * * * * * * * * * * * * * * * * * * * * * * * * * * * * * * * * * * * * * //

dimensions      [0 3 -1 0 0 0 0];

internalField   nonuniform List<scalar> 
420
(
-949.879
2249.78
-1573.95
1924.28
-2054
1779.95
-2424.23
1670.13
-2699.86
1575.82
-2888.38
1488.42
-2993.05
1404.58
-3013.85
1321
-2949.61
1235.66
-2797.23
1147.52
-2551.16
1054.13
-2193
941.735
-1687.16
794.065
-1012.67
625.704
287.235
373.337
1876.44
442.749
1854.86
437.301
1785.39
406.698
1700.74
380.581
1601.94
359.901
1509.1
345.293
1419.19
337.537
1328.76
333.485
1239.71
326.955
1154.05
309.61
1071.48
267.469
983.877
191.434
870.103
111.453
705.685
398.681
33.5753
1842.87
-97.389
1985.83
-253.613
1941.62
-371.119
1818.24
-473.182
1704.01
-567.53
1603.45
-651.746
1503.4
-725.793
1402.8
-788.07
1301.99
-837.301
1203.28
-868.22
1102.4
-856.083
971.74
-740.331
754.352
-434.281
399.636
-35.6033
28.775
1814.09
-100.653
2115.25
-225.561
2066.52
-304.496
1897.18
-368.157
1767.67
-416.953
1652.24
-446.228
1532.68
-457.015
1413.59
-451.852
1296.83
-430.152
1181.59
-387.223
1059.47
-311.87
896.388
-192.862
635.348
-48.4083
255.183
-84.0102
169.623
1644.47
146.156
2138.72
123.732
2088.95
122.869
1898.04
126.941
1763.6
135.804
1643.38
149.101
1519.38
166.59
1396.1
186.943
1276.47
208.132
1160.4
229.133
1038.47
243.825
881.697
233.007
646.166
155.235
332.957
71.2193
223.074
1421.4
244.177
2117.62
234.741
2098.39
236.02
1896.76
240.368
1759.25
244.302
1639.45
246.545
1517.14
245.25
1397.4
241.162
1280.56
233.989
1167.57
221.384
1051.07
199.141
903.936
156.141
689.157
78.2973
410.787
149.515
203.314
1218.08
238.362
2082.57
213.609
2123.14
191.402
1918.97
177.194
1773.45
163.763
1652.88
150.029
1530.87
135.887
1411.54
121.061
1295.39
106.909
1181.72
92.8116
1065.16
75.7605
920.981
52.0135
712.896
19.0153
443.783
168.537
171.845
1046.24
221.968
2032.44
199.409
2145.7
170.397
1947.99
152.044
1791.8
137.662
1667.26
122.771
1545.76
108.57
1425.74
95.5745
1308.38
83.0933
1194.2
71.4714
1076.79
58.6203
933.832
40.3137
731.21
15.7466
468.366
184.295
146.086
900.153
210.044
1968.48
196.861
2158.88
170.042
1974.81
152.395
1809.45
139.525
1680.13
127.062
1558.23
113.857
1438.95
101.314
1320.93
89.4143
1206.1
76.9798
1089.23
63.0855
947.737
44.3114
750.004
19.1774
493.518
203.47
116.753
783.398
184.837
1900.4
179.614
2164.1
154.3
2000.12
137.213
1826.54
123.994
1693.35
111.37
1570.85
98.9649
1451.35
86.1162
1333.78
73.8792
1218.34
62.1187
1100.99
49.0408
960.817
32.8709
766.174
13.1954
513.186
216.649
83.1566
700.238
143.117
1840.43
144.671
2162.55
122.746
2022.04
106.138
1843.14
94.4525
1705.03
82.5742
1582.73
71.1682
1462.75
60.3922
1344.55
49.4705
1229.26
39.4429
1111.01
29.7637
970.489
18.0967
777.823
5.24471
526.017
221.882
51.242
649.001
97.9124
1793.75
102.697
2157.76
87.3676
2037.37
73.1399
1857.37
63.1309
1715.04
54.2299
1591.62
44.8482
1472.13
36.1394
1353.25
28.1667
1237.22
20.4206
1118.75
13.6838
977.211
6.74013
784.743
-0.410768
533.149
221.474
25.1257
623.885
57.711
1761.17
63.4978
2151.96
53.4621
2047.41
43.8833
1866.95
36.1695
1722.75
29.5366
1598.26
23.4853
1478.18
17.0338
1359.71
11.2872
1242.97
6.58587
1123.45
2.45346
981.341
-1.08927
788.291
-3.69423
535.767
217.801
1.40544
622.463
24.051
1738.53
33.3567
2142.66
27.7289
2053.05
20.3724
1874.31
15.0725
1728.06
9.54032
1603.8
4.58712
1483.14
0.0344552
1364.27
-4.84498
1247.86
-8.36793
1126.98
-9.68476
982.679
-9.74349
788.393
-7.14328
533.212
210.67
-11.7289
-3.12896
1.46606
-0.385731
-5.07435
-8.82089
-11.7628
-15.1962
-18.0521
-20.1855
-21.7516
-21.0935
-18.1128
-12.3875
)
;

boundaryField
{
    inletFace
    {
        type            calculated;
        value           nonuniform List<scalar> 
450
(
-5.20483e-15
6.33853e-13
-9.05957e-14
-1.56619e-13
1.23988e-13
-1.88585e-13
-6.44314e-14
7.01407e-14
-1.01997e-13
-2.68183e-14
5.80229e-14
-2.92724e-14
-6.74057e-15
7.45054e-15
-3.2348e-16
-2.10926e-12
-2.22765e-12
1.01079e-13
-3.24967e-13
-2.40142e-13
2.8479e-14
-2.85325e-13
-1.37817e-13
7.79207e-15
-1.31475e-13
-5.19975e-14
4.56118e-14
-1.84411e-14
-2.37348e-15
-8.37314e-16
-2.2917e-12
-2.35682e-12
-8.05306e-14
-3.42175e-13
-2.14946e-13
-1.06675e-13
-2.92198e-13
-1.07661e-13
-9.282e-14
-1.15276e-13
-2.25644e-14
-2.3832e-14
-1.71747e-14
1.27618e-14
4.70065e-15
-2.58325e-12
-2.25182e-12
-1.55154e-13
-5.38067e-13
-2.02218e-13
-2.23381e-13
-4.07705e-13
-1.02783e-13
-1.5356e-13
-1.89206e-13
-2.15078e-14
-6.57511e-14
-8.41394e-14
3.85452e-14
7.63579e-14
-2.39796e-12
-2.30195e-12
-2.51167e-13
-4.89465e-13
-1.99214e-13
-2.38528e-13
-3.77201e-13
-1.08293e-13
-1.51713e-13
-1.7049e-13
-3.61486e-14
-4.27458e-14
-6.63491e-14
2.84698e-15
6.37363e-14
-2.10826e-12
-2.35416e-12
-4.46124e-13
-4.11056e-13
-1.72323e-13
-1.83177e-13
-3.35475e-13
-1.12232e-13
-1.16722e-13
-1.55878e-13
-3.51413e-14
-1.0093e-14
-4.28146e-14
1.53868e-14
2.63502e-14
-1.89131e-12
-2.42541e-12
-7.24744e-13
-3.94841e-13
-1.97046e-13
-2.02434e-13
-3.21731e-13
-1.59344e-13
-1.42816e-13
-1.56351e-13
-6.69869e-14
-6.7168e-14
-3.15277e-14
-5.86013e-14
-1.31377e-13
-1.66052e-12
-2.4415e-12
-9.65391e-13
-4.05994e-13
-2.14996e-13
-2.25139e-13
-3.07096e-13
-2.00682e-13
-1.82366e-13
-1.4901e-13
-1.03988e-13
-1.33448e-13
-4.16464e-14
-1.36887e-14
-1.85738e-13
-1.39511e-12
-2.41824e-12
-1.14893e-12
-4.47687e-13
-2.24556e-13
-2.02668e-13
-3.0106e-13
-2.1396e-13
-1.59403e-13
-1.58193e-13
-1.13811e-13
-1.01298e-13
-7.12684e-14
-1.48723e-14
-3.93251e-14
-1.19582e-12
-2.35955e-12
-1.29246e-12
-5.0599e-13
-2.33718e-13
-1.74544e-13
-2.85665e-13
-2.20312e-13
-1.37379e-13
-1.53347e-13
-1.16305e-13
-7.13216e-14
-6.16157e-14
-2.40288e-14
4.9177e-14
-9.87795e-13
-2.28505e-12
-1.40049e-12
-5.50694e-13
-2.45245e-13
-1.6669e-13
-2.53204e-13
-2.23079e-13
-1.32028e-13
-1.20118e-13
-1.11432e-13
-5.24844e-14
-7.23096e-15
-1.14981e-14
8.35722e-14
-8.59126e-13
-2.21898e-12
-1.44983e-12
-6.06167e-13
-2.699e-13
-1.36112e-13
-2.42454e-13
-2.30384e-13
-8.97525e-14
-1.23135e-13
-1.14626e-13
4.33144e-15
-7.13675e-15
1.0026e-13
1.32463e-13
-7.98548e-13
-2.15745e-12
-1.48494e-12
-6.50691e-13
-2.90571e-13
-1.28344e-13
-2.33649e-13
-2.39262e-13
-8.29439e-14
-1.21771e-13
-1.14596e-13
1.2191e-14
-1.38664e-14
1.12989e-13
1.22296e-13
-7.54194e-13
-2.1072e-12
-1.51233e-12
-6.72536e-13
-3.03098e-13
-1.30798e-13
-2.22775e-13
-2.5391e-13
-8.31727e-14
-1.24226e-13
-1.24251e-13
1.48995e-14
-3.23468e-15
1.0114e-13
1.09897e-13
-7.49538e-13
-2.0318e-12
-1.50736e-12
-6.95279e-13
-3.14034e-13
-1.43164e-13
-2.23397e-13
-2.42542e-13
-9.36624e-14
-1.27079e-13
-1.12318e-13
6.79623e-15
3.55251e-15
9.52179e-14
6.53243e-14
5.20483e-15
-6.33853e-13
9.05957e-14
1.56619e-13
-1.23988e-13
1.88585e-13
6.44314e-14
-7.01407e-14
1.01997e-13
2.68183e-14
-5.80229e-14
2.92724e-14
6.74057e-15
-7.45054e-15
3.2348e-16
2.10926e-12
2.22765e-12
-1.01079e-13
3.24967e-13
2.40142e-13
-2.8479e-14
2.85325e-13
1.37817e-13
-7.79207e-15
1.31475e-13
5.19975e-14
-4.56118e-14
1.84411e-14
2.37348e-15
8.37314e-16
2.2917e-12
2.35682e-12
8.05306e-14
3.42175e-13
2.14946e-13
1.06675e-13
2.92198e-13
1.07661e-13
9.282e-14
1.15276e-13
2.25644e-14
2.3832e-14
1.71747e-14
-1.27618e-14
-4.70065e-15
2.58325e-12
2.25182e-12
1.55154e-13
5.38067e-13
2.02218e-13
2.23381e-13
4.07705e-13
1.02783e-13
1.5356e-13
1.89206e-13
2.15078e-14
6.57511e-14
8.41394e-14
-3.85452e-14
-7.63579e-14
2.39796e-12
2.30195e-12
2.51167e-13
4.89465e-13
1.99214e-13
2.38528e-13
3.77201e-13
1.08293e-13
1.51713e-13
1.7049e-13
3.61486e-14
4.27458e-14
6.63491e-14
-2.84698e-15
-6.37363e-14
2.10826e-12
2.35416e-12
4.46124e-13
4.11056e-13
1.72323e-13
1.83177e-13
3.35475e-13
1.12232e-13
1.16722e-13
1.55878e-13
3.51413e-14
1.0093e-14
4.28146e-14
-1.53868e-14
-2.63502e-14
1.89131e-12
2.42541e-12
7.24744e-13
3.94841e-13
1.97046e-13
2.02434e-13
3.21731e-13
1.59344e-13
1.42816e-13
1.56351e-13
6.69869e-14
6.7168e-14
3.15277e-14
5.86013e-14
1.31377e-13
1.66052e-12
2.4415e-12
9.65391e-13
4.05994e-13
2.14996e-13
2.25139e-13
3.07096e-13
2.00682e-13
1.82366e-13
1.4901e-13
1.03988e-13
1.33448e-13
4.16464e-14
1.36887e-14
1.85738e-13
1.39511e-12
2.41824e-12
1.14893e-12
4.47687e-13
2.24556e-13
2.02668e-13
3.0106e-13
2.1396e-13
1.59403e-13
1.58193e-13
1.13811e-13
1.01298e-13
7.12684e-14
1.48723e-14
3.93251e-14
1.19582e-12
2.35955e-12
1.29246e-12
5.0599e-13
2.33718e-13
1.74544e-13
2.85665e-13
2.20312e-13
1.37379e-13
1.53347e-13
1.16305e-13
7.13216e-14
6.16157e-14
2.40288e-14
-4.9177e-14
9.87795e-13
2.28505e-12
1.40049e-12
5.50694e-13
2.45245e-13
1.6669e-13
2.53204e-13
2.23079e-13
1.32028e-13
1.20118e-13
1.11432e-13
5.24844e-14
7.23096e-15
1.14981e-14
-8.35722e-14
8.59126e-13
2.21898e-12
1.44983e-12
6.06167e-13
2.699e-13
1.36112e-13
2.42454e-13
2.30384e-13
8.97525e-14
1.23135e-13
1.14626e-13
-4.33144e-15
7.13675e-15
-1.0026e-13
-1.32463e-13
7.98548e-13
2.15745e-12
1.48494e-12
6.50691e-13
2.90571e-13
1.28344e-13
2.33649e-13
2.39262e-13
8.29439e-14
1.21771e-13
1.14596e-13
-1.2191e-14
1.38664e-14
-1.12989e-13
-1.22296e-13
7.54194e-13
2.1072e-12
1.51233e-12
6.72536e-13
3.03098e-13
1.30798e-13
2.22775e-13
2.5391e-13
8.31727e-14
1.24226e-13
1.24251e-13
-1.48995e-14
3.23468e-15
-1.0114e-13
-1.09897e-13
7.49538e-13
2.0318e-12
1.50736e-12
6.95279e-13
3.14034e-13
1.43164e-13
2.23397e-13
2.42542e-13
9.36624e-14
1.27079e-13
1.12318e-13
-6.79623e-15
-3.55251e-15
-9.52179e-14
-6.53243e-14
)
;
    }
    inlet
    {
        type            calculated;
        value           nonuniform List<scalar> 
15
(
-1299.9
-1300.2
-1299.9
-1299.9
-1300.2
-1299.9
-1299.9
-1300.2
-1299.9
-1299.9
-1300.2
-1299.9
-1299.9
-1300.2
-1299.9
)
;
    }
    inletWalls
    {
        type            calculated;
        value           uniform 0;
    }
    outletInlet
    {
        type            calculated;
        value           nonuniform List<scalar> 
15
(
198.274
527.486
785.422
982.029
1128.56
1250
1367.13
1486.58
1606.74
1731.81
1879
2054.9
2138.07
1729.92
634.183
)
;
    }
}


// ************************************************************************* //
