/*--------------------------------*- C++ -*----------------------------------*\
| =========                 |                                                 |
| \\      /  F ield         | OpenFOAM: The Open Source CFD Toolbox           |
|  \\    /   O peration     | Version:  4.1                                   |
|   \\  /    A nd           | Web:      www.OpenFOAM.org                      |
|    \\/     M anipulation  |                                                 |
\*---------------------------------------------------------------------------*/
FoamFile
{
    version     2.0;
    format      ascii;
    class       volVectorField;
    location    "18";
    object      U;
}
// * * * * * * * * * * * * * * * * * * * * * * * * * * * * * * * * * * * * * //

dimensions      [0 1 -1 0 0 0 0];

internalField   nonuniform List<vector> 
225
(
(1.10672e-14 0.852191 15.7946)
(8.89544e-15 -4.89458 12.1215)
(-3.18271e-15 -4.19551 12.1321)
(2.80409e-15 -3.60119 11.9966)
(7.45184e-16 -3.00468 11.8778)
(-2.27336e-16 -2.55319 11.6992)
(1.94231e-15 -2.20881 11.4769)
(2.58947e-16 -1.96603 11.2116)
(-4.94994e-17 -1.79856 10.916)
(9.68827e-16 -1.71238 10.5882)
(1.43484e-17 -1.83746 10.1561)
(-2.5508e-16 -2.28568 9.53762)
(3.13233e-16 -2.51302 8.96378)
(-5.15787e-17 -1.06553 8.91356)
(2.23939e-18 1.76574 7.47092)
(1.52916e-14 -5.35016 22.493)
(1.54233e-14 -14.6049 21.394)
(-6.9975e-16 -13.2708 20.3411)
(2.43652e-15 -11.7697 19.5066)
(1.66265e-15 -11.1561 18.5043)
(-1.97155e-16 -10.6594 17.5174)
(2.08601e-15 -10.0901 16.5714)
(9.5419e-16 -9.525 15.6236)
(-5.39429e-17 -8.96544 14.6638)
(8.93823e-16 -8.36731 13.6946)
(3.6001e-16 -7.75709 12.7179)
(-3.15761e-16 -7.30335 11.7194)
(1.26267e-16 -7.01706 10.6244)
(1.6433e-17 -5.73095 9.16114)
(5.79655e-18 -2.30502 4.58322)
(1.79107e-14 -7.71565 23.9801)
(1.63158e-14 -16.7731 24.6729)
(5.57563e-16 -13.7365 23.9372)
(3.88816e-15 -12.3062 22.6249)
(1.48803e-15 -11.6447 21.2414)
(7.3858e-16 -10.814 20.0013)
(3.16283e-15 -9.94025 18.7738)
(7.45317e-16 -9.10011 17.5247)
(6.4265e-16 -8.28338 16.2654)
(1.58718e-15 -7.47524 15.0263)
(1.56209e-16 -6.66762 13.8176)
(1.65004e-16 -5.84165 12.4301)
(6.0222e-16 -4.8139 10.2752)
(-8.83478e-17 -3.12627 6.68444)
(-3.25455e-17 -0.83215 1.68994)
(1.78764e-14 -8.50259 22.0462)
(1.55891e-14 -16.621 24.332)
(1.07411e-15 -12.93 23.7971)
(3.7254e-15 -12.1536 21.9985)
(1.32872e-15 -11.4201 20.5028)
(1.57076e-15 -10.4936 19.1722)
(2.82282e-15 -9.63387 17.8167)
(6.32562e-16 -8.82359 16.459)
(1.09093e-15 -8.05363 15.123)
(1.2951e-15 -7.32378 13.8164)
(1.40764e-16 -6.55247 12.4394)
(4.36471e-16 -5.49089 10.583)
(5.57729e-16 -3.78526 7.5087)
(-7.42223e-17 -1.49367 2.76605)
(-8.43543e-16 0.153267 -1.77299)
(1.63891e-14 -8.47615 19.748)
(1.55918e-14 -16.3601 24.312)
(1.56048e-15 -13.099 23.6602)
(3.19389e-15 -12.628 21.5365)
(1.06821e-15 -11.8565 20.0248)
(1.43149e-15 -10.9574 18.6637)
(2.49441e-15 -10.1698 17.2587)
(5.01093e-16 -9.40277 15.8711)
(9.17941e-16 -8.65258 14.5236)
(1.10977e-15 -7.93051 13.2136)
(9.87753e-17 -7.16589 11.8292)
(2.11261e-16 -6.11617 9.99629)
(3.52988e-16 -4.42406 7.1556)
(-3.7788e-16 -2.30533 3.28797)
(-8.07403e-16 -0.787233 0.317787)
(1.48193e-14 -8.02193 17.5537)
(1.63394e-14 -16.0195 24.5277)
(3.21586e-15 -13.6434 24.0461)
(2.84569e-15 -12.9943 21.7651)
(1.2421e-15 -12.1264 20.2158)
(1.42432e-15 -11.2247 18.847)
(2.32245e-15 -10.439 17.4341)
(8.36254e-16 -9.64887 16.0434)
(9.35652e-16 -8.86035 14.6933)
(1.07912e-15 -8.09324 13.3817)
(3.18758e-16 -7.2973 12.0171)
(3.28647e-16 -6.28459 10.2818)
(1.86196e-16 -4.73302 7.72092)
(2.51089e-16 -2.75613 4.37245)
(8.25461e-16 -0.949376 1.29734)
(1.32276e-14 -7.33744 15.2535)
(1.68121e-14 -15.491 24.355)
(5.10188e-15 -14.0225 24.4218)
(2.73375e-15 -13.1278 22.0675)
(1.41444e-15 -12.1447 20.4401)
(1.50914e-15 -11.2358 19.0547)
(2.22756e-15 -10.436 17.6437)
(1.22862e-15 -9.61981 16.2576)
(1.19339e-15 -8.81012 14.9066)
(1.08253e-15 -8.02719 13.5918)
(6.28623e-16 -7.2239 12.2368)
(7.49244e-16 -6.24021 10.5487)
(2.18287e-16 -4.78744 8.10739)
(3.08581e-17 -2.91401 4.947)
(1.83233e-15 -1.01082 1.79732)
(1.12341e-14 -6.55627 13.033)
(1.69036e-14 -14.847 23.8164)
(6.64095e-15 -14.2638 24.669)
(2.81056e-15 -13.2372 22.3215)
(1.48852e-15 -12.1674 20.5831)
(1.45018e-15 -11.2657 19.1666)
(2.18434e-15 -10.4651 17.7586)
(1.38942e-15 -9.64311 16.3765)
(1.12485e-15 -8.8349 15.0245)
(1.10675e-15 -8.05524 13.7073)
(7.19961e-16 -7.25493 12.3575)
(7.33565e-16 -6.2868 10.6994)
(4.08021e-16 -4.89089 8.33081)
(9.47736e-17 -3.08513 5.26752)
(7.8922e-16 -1.12218 2.04389)
(9.65821e-15 -5.77841 11.1239)
(1.67412e-14 -14.1745 23.0906)
(7.82898e-15 -14.4412 24.8462)
(3.09928e-15 -13.3963 22.6148)
(1.55457e-15 -12.2528 20.7553)
(1.24189e-15 -11.3493 19.2955)
(2.0842e-15 -10.5477 17.8904)
(1.48122e-15 -9.72542 16.5109)
(8.99755e-16 -8.91943 15.1562)
(1.09515e-15 -8.14022 13.8351)
(7.87903e-16 -7.33994 12.4864)
(5.14301e-16 -6.38014 10.8512)
(4.93383e-16 -5.0235 8.54671)
(1.02959e-16 -3.26581 5.55835)
(-3.5224e-16 -1.23758 2.24772)
(7.97979e-15 -5.08506 9.59944)
(1.63349e-14 -13.5192 22.3001)
(8.86323e-15 -14.5349 24.9522)
(3.41185e-15 -13.5531 22.9352)
(1.618e-15 -12.3447 20.9698)
(1.15451e-15 -11.425 19.4566)
(1.86193e-15 -10.6174 18.0506)
(1.52519e-15 -9.79445 16.6721)
(8.82982e-16 -8.98827 15.3136)
(9.12939e-16 -8.20624 13.9874)
(8.05166e-16 -7.40476 12.6356)
(4.00139e-16 -6.45152 11.0133)
(1.94643e-16 -5.1253 8.75518)
(1.66349e-16 -3.40659 5.8196)
(-6.40639e-16 -1.31908 2.43094)
(6.68829e-15 -4.53879 8.46238)
(1.58453e-14 -12.9256 21.5505)
(9.54531e-15 -14.5348 24.9757)
(3.81228e-15 -13.6653 23.2209)
(1.74829e-15 -12.4127 21.1811)
(9.36545e-16 -11.4735 19.612)
(1.75285e-15 -10.6589 18.2003)
(1.60775e-15 -9.83689 16.8208)
(6.38951e-16 -9.03201 15.4584)
(9.06668e-16 -8.24853 14.1268)
(8.54438e-16 -7.44646 12.7691)
(-1.4441e-17 -6.49772 11.1497)
(5.00576e-17 -5.19257 8.91839)
(-5.86512e-16 -3.5018 6.01043)
(-1.13709e-15 -1.36373 2.5424)
(5.94763e-15 -4.17051 7.70283)
(1.53877e-14 -12.4378 20.9279)
(9.99451e-15 -14.4733 24.9365)
(4.19642e-15 -13.7315 23.4377)
(1.89389e-15 -12.4591 21.3592)
(8.59938e-16 -11.5038 19.7404)
(1.67848e-15 -10.6831 18.3205)
(1.65886e-15 -9.86345 16.9389)
(5.51934e-16 -9.06105 15.5727)
(8.52449e-16 -8.27751 14.2362)
(7.93541e-16 -7.47479 12.8707)
(-1.25255e-16 -6.5267 11.2463)
(1.07899e-16 -5.2329 9.02623)
(-7.77099e-16 -3.55783 6.12588)
(-1.10897e-15 -1.37722 2.57246)
(5.42964e-15 -3.97352 7.27991)
(1.49089e-14 -12.0683 20.4614)
(1.03023e-14 -14.3843 24.8626)
(4.45833e-15 -13.7598 23.5827)
(2.01159e-15 -12.4875 21.4969)
(8.88508e-16 -11.5229 19.8405)
(1.58781e-15 -10.6965 18.4119)
(1.75322e-15 -9.87984 17.0278)
(5.39168e-16 -9.08039 15.6582)
(8.43101e-16 -8.29703 14.3167)
(8.355e-16 -7.49294 12.9419)
(-1.32346e-16 -6.54187 11.3058)
(9.60068e-17 -5.25063 9.08386)
(-6.99696e-16 -3.5785 6.17496)
(-9.94642e-16 -1.36502 2.53856)
(5.17383e-15 -3.90393 7.11074)
(1.45753e-14 -11.8314 20.1819)
(1.04467e-14 -14.2998 24.79)
(4.64392e-15 -13.7667 23.6685)
(2.08556e-15 -12.5019 21.5898)
(9.05472e-16 -11.532 19.9095)
(1.55728e-15 -10.7003 18.4746)
(1.74165e-15 -9.88547 17.0884)
(5.75777e-16 -9.08789 15.7173)
(8.79194e-16 -8.30399 14.3729)
(8.39196e-16 -7.4977 12.9905)
(-1.03144e-16 -6.54297 11.3432)
(5.14213e-17 -5.25316 9.11694)
(-7.41097e-16 -3.58348 6.20134)
(-7.6078e-16 -1.35009 2.50639)
(5.17416e-15 -4.03937 7.28667)
(1.40589e-14 -11.627 19.9521)
(1.04422e-14 -14.1916 24.6679)
(4.81333e-15 -13.7464 23.7082)
(2.1675e-15 -12.5066 21.6737)
(9.98253e-16 -11.5393 19.9773)
(1.54655e-15 -10.6995 18.535)
(1.671e-15 -9.887 17.1438)
(6.57219e-16 -9.09059 15.7695)
(8.79754e-16 -8.30505 14.4184)
(7.72368e-16 -7.49001 13.0148)
(-4.11687e-17 -6.51539 11.3282)
(-2.45936e-17 -5.20603 9.06131)
(-6.69361e-16 -3.50167 6.08285)
(-4.33158e-16 -1.25252 2.30735)
)
;

boundaryField
{
    inletFace
    {
        type            zeroGradient;
    }
    inlet
    {
        type            fixedValue;
        value           uniform (0 8.7 15);
    }
    inletWalls
    {
        type            noSlip;
    }
    outletInlet
    {
        type            zeroGradient;
    }
}


// ************************************************************************* //
