/*--------------------------------*- C++ -*----------------------------------*\
| =========                 |                                                 |
| \\      /  F ield         | OpenFOAM: The Open Source CFD Toolbox           |
|  \\    /   O peration     | Version:  4.1                                   |
|   \\  /    A nd           | Web:      www.OpenFOAM.org                      |
|    \\/     M anipulation  |                                                 |
\*---------------------------------------------------------------------------*/
FoamFile
{
    version     2.0;
    format      ascii;
    class       surfaceScalarField;
    location    "23";
    object      phi;
}
// * * * * * * * * * * * * * * * * * * * * * * * * * * * * * * * * * * * * * //

dimensions      [0 3 -1 0 0 0 0];

internalField   nonuniform List<scalar> 
13220
(
-881.18
2181.08
-1359.14
1778.16
-1814.35
1755.11
-2156.35
1641.91
-2417
1560.85
-2597.07
1479.97
-2697.99
1400.83
-2719.08
1321.29
-2660.75
1241.57
-2526.04
1165.19
-2322.82
1096.99
-2044.77
1021.85
-1642.18
897.302
-1032.74
690.767
267.157
2.64457
2178.44
-33.4326
1814.24
-151.379
1873.06
-235.482
1726.02
-321.65
1647.02
-387.59
1545.91
-434.977
1448.22
-461.056
1347.37
-464.861
1245.38
-438.776
1139.11
-368.177
1026.39
-259.941
913.627
-164.024
801.397
-103.394
630.157
163.759
-161.092
2339.55
-386.993
2040.16
-597.058
2083.14
-746.702
1875.67
-889.192
1789.52
-999.268
1656
-1092.34
1541.29
-1169.89
1424.93
-1224.6
1300.1
-1214.46
1128.96
-1057.33
869.269
-697.638
553.861
-262.061
365.732
2.67716
365.216
166.442
-60.5659
2400.15
-191.238
2170.87
-289.717
2181.66
-360.233
1946.23
-436.12
1865.44
-493.793
1713.71
-548.309
1595.85
-597.482
1474.13
-644.771
1347.41
-678.02
1162.25
-658.245
849.508
-511.027
406.788
-237.597
92.5054
35.2643
92.7184
201.711
78.5176
2321.7
4.82456
2244.63
-5.49984
2192.06
-6.89736
1947.71
-11.9906
1870.61
-10.5914
1712.39
-9.41711
1594.74
-6.82743
1471.61
-10.5854
1351.23
-47.9671
1199.7
-161.242
962.868
-358.623
604.299
-491.364
225.472
-389.331
-9.0489
-187.616
160.044
2161.74
119.29
2285.48
145.362
2166.08
180.365
1912.8
221.024
1830.05
263.23
1670.27
311.495
1546.56
364.228
1418.95
420.556
1294.98
458.34
1161.98
428.929
992.311
268.337
764.983
18.7153
475.304
-111.026
121.005
-298.631
161.112
2000.72
157.237
2289.44
187.732
2135.67
226.443
1874.18
275.481
1781.1
320.41
1625.42
368.94
1498.11
420.795
1367.16
475.478
1240.34
523.841
1113.71
541.587
974.589
492.534
814.302
360.533
607.678
146.41
335.811
-152.229
116.147
1884.64
145.898
2259.76
179.239
2102.4
213.516
1839.97
257.186
1737.48
294.567
1588.09
330.286
1462.42
363.068
1334.41
392.296
1211.14
414.045
1091.94
420.117
968.537
395.872
838.388
323.11
680.254
181.804
476.64
29.5951
63.0497
1821.66
125.835
2197.03
171.247
2057.04
215.215
1796.06
259.688
1693.09
301.399
1546.44
336.773
1427.12
363.492
1307.74
382.524
1192.16
394.539
1080.05
393.109
970.021
369.141
862.702
304.672
745.111
179.075
603.047
208.656
7.55412
1814.1
87.1627
2117.43
143.731
2000.48
194.821
1744.99
241.096
1646.81
295.704
1491.85
347.712
1375.12
405.738
1249.73
460.469
1137.44
504.581
1035.85
519.917
954.702
487.888
894.357
392.229
840.404
235.21
759.499
443.868
-44.602
1858.64
6.33617
2066.42
59.8882
1946.83
84.0547
1720.72
111.203
1619.55
159.572
1443.36
241.246
1293.31
362.298
1128.54
489.368
1010.25
591.811
933.338
635.234
911.146
592.866
936.855
454.368
978.962
251.372
962.563
695.232
-51.1586
1909.67
-136.79
2151.95
-165.919
1975.84
-229.098
1783.78
-282.067
1672.36
-312.932
1474.09
-289.81
1270.01
-218.12
1056.71
-122.298
914.249
-17.2466
828.057
83.1943
810.579
149.939
869.621
148.603
979.858
77.3876
1033.27
772.62
59.4926
1850.05
-114.927
2326.26
-245.963
2106.74
-372.812
1910.52
-511.988
1811.43
-665.215
1627.22
-815.516
1420.23
-954.552
1195.66
-1072.97
1032.62
-1147.96
902.99
-1144.18
806.76
-1031.31
756.758
-772.31
720.862
-358.333
619.29
414.287
191.981
1657.97
31.8478
2486.34
-228.139
2366.65
-454.727
2137.06
-624.72
1981.34
-789.636
1792.1
-966.67
1597.2
-1155.75
1384.72
-1318.73
1195.56
-1424.19
1008.39
-1452.58
835.146
-1359.4
663.508
-1077.34
438.807
-523.639
65.6032
-109.349
412.501
1088.43
1423.82
1614.42
1706.39
1714.01
1641.17
1483.13
1268.93
1032.65
761.32
492.151
241.302
-16.1007
-0.00352119
-62.3034
62.2956
-62.308
-62.3118
-62.3165
-108.971
46.6511
-108.976
-108.98
-108.984
-170.683
61.6956
-170.689
-170.692
-221.152
50.4552
-221.155
-221.161
-221.164
-238.891
17.721
-238.894
-238.9
-240.927
2.02385
-240.933
-240.935
-240.942
-238.926
-2.01845
-238.932
-238.935
-238.942
-224.682
-14.2611
-224.689
-224.691
-179.011
-45.6875
-179.012
-179.02
-179.021
-98.0068
-81.0236
-98.0085
-98.0179
27.5035
-125.523
27.4936
27.4931
27.483
138.931
-111.448
138.92
138.921
138.91
247.983
-109.069
247.971
247.976
289.051
-41.0884
289.057
289.044
289.05
326.203
-37.1682
326.211
326.197
326.207
377.479
-51.2878
377.49
377.472
384.445
-6.96104
384.429
384.443
384.422
313.914
70.5324
313.898
313.925
-190.941
504.835
-190.909
-190.933
-190.901
-1162.11
971.181
-1162.08
-1162.11
-1162.06
-2585.99
1423.88
-2585.93
-2586.02
-4419.71
1833.72
-4419.8
-4419.79
-4458.8
-4476.7
-4526.1
-6800.29
2217.74
-6762.72
-6711.54
-6647.3
-6581.99
-6516.29
-6466.93
-6395.81
-6271.93
-8563.18
2410.35
-8420.66
-8283.97
-8150.41
-7977.13
-7803.09
-7629.11
-7452.86
-7274.38
-9809.67
2725.36
-9601.88
-9393.19
-9184.1
-8974.41
-8757.01
-8525.59
-8293.7
-8058.97
-7821.52
-10548.7
2960.96
-10287.3
-10023.8
-9759.24
-9494.11
-9228.63
-8948.91
-8658.86
-8365.07
-11104
3027.73
-10816.1
-10519.5
-10208.2
-9895.64
-9581.74
-9268.29
-8952.17
-8610.38
-11216.6
2944.66
-10886.3
-10555.2
-10224.8
-9877.75
-9523.71
-9170.97
-8816.6
-8459.91
-10698.4
2602.38
-10335.9
-9971.9
-9607.77
-9244.43
-8882.2
-8494.28
-8109.84
-7727.06
-7346.76
-8797.44
1830.37
-8446.7
-8097.87
-7756.96
-7420.59
-7085.15
-6783.89
-6552.59
-6316.1
-7118.78
1048.38
-6903.06
-6683.07
-6683.07
-7829.65
1146.57
-8616.98
787.332
-8616.98
-9381.27
764.294
-9381.27
-10159.9
778.594
-10574.5
414.687
-10574.5
-11147.4
572.815
-11036.8
-110.565
-11036.8
-10404.5
-632.308
-10404.5
-9573.23
-831.25
-8477.78
-1095.46
-8477.78
-7042.98
-1434.81
-7042.98
-5304.15
-1738.83
-3409.15
-1895
-3409.15
-1214.26
-2194.9
835.769
-2050.04
835.768
2900.55
-2064.79
2900.55
4874.04
-1973.5
6811.88
-1937.83
6811.87
8507.21
-1695.33
8507.21
9932.82
-1425.62
11099.5
-1166.68
11099.5
12043.2
-943.669
12764.5
-721.306
12764.5
13318.6
-554.087
13318.6
13688.5
-369.932
13706
-17.5017
13706
13615.7
90.3446
13615.7
13560
55.6875
13598.5
-38.5316
13598.5
14638.9
-1040.45
17578.3
-2939.4
17578.3
20284
-2705.68
20284
21835.7
-1551.73
22406.6
-570.834
22406.6
21584.6
821.943
21584.6
19056.4
2528.23
15515.7
3540.66
15515.7
10072.8
5442.96
3671.59
6401.2
3671.59
-6159.74
9831.33
-6159.74
-22768.9
16609.1
-46450.4
23681.5
-46450.4
-76275.5
29825.1
-76275.5
-113725
37449.7
-155145
41420.2
-155145
-205143
49997.1
-256704
51561.5
-256704
-315097
58392.8
-315097
67429.7
-1153.14
-5452.48
-1139.84
-6921.61
-1134.5
-7873.9
-1132.98
-8814.78
-1137.02
-9720.33
-1144.31
-10561.4
-1153.54
-11366.7
-1161.83
-12129
-1168.49
-12856.8
-1175.71
-13544.9
-1189.65
-14191.6
-1220.43
-14804.4
-1280.5
-15410
-1378.79
-16018.2
-1512.75
-16623.1
-1664.68
-17236
-1812.67
-17886.6
-1946.35
-18585.5
-2066.29
-19305.3
-2173.76
-20002.6
-2271.49
-20671
-2369.46
-21388.4
-2481.76
-22258.4
-2618.76
-23320.3
-2783.39
-24530.6
-2974.59
-25807
-3191.44
-27062
-3433.42
-28208.3
-3705.19
-29220.7
-4011.26
-30148.7
-4346.42
-31021.1
-4701.06
-31883
-5066.9
-32787.3
-5439.66
-33758.1
-5820.39
-34803.7
-6214.62
-35931.4
-6630.53
-37150.9
-7077.5
-38471.7
-7562.89
-39900.5
-8088.05
-41425.2
-8646.66
-43020.3
-9224.97
-44665.2
-9803.61
-46351.7
-10359.8
-48074.3
-10870.5
-49809.2
-11313.3
-51469.2
-11658.4
-52747.9
-11832.5
-52738.5
-11676.3
-49526
-11041.3
-41071.8
-10142.1
-29008.6
-9537.32
-20437.1
-9371.37
-18639.2
-9322.19
-18650.9
-9238.09
-17402.4
-9174.97
-15530.6
-9175
-13663.1
-9244.41
-11740.9
-9388.89
-9719.52
-9601.8
-7642.26
-9852.36
-5532.88
-10103
-3408.46
-10339.1
-1308.68
-10593
734.984
-10944.1
2825.5
-11444.4
5164.65
-12117
7929.94
-13005.7
11327.8
-14164.9
15621.5
-15669
21158.8
-17619.3
28451.2
-20158.6
38279.4
-23493.5
51858.7
-27932.5
71121.3
-33945.5
99224.7
-42228.2
141046
-53479.9
203428
-66085.2
288829
372367
-1229.75
-5471.25
-1212.45
-6938.91
-1208.2
-7878.14
-1208.58
-8814.4
-1215.08
-9713.83
-1224.27
-10552.2
-1234.25
-11356.7
-1241.61
-12121.6
-1246.04
-12852.4
-1251.13
-13539.8
-1265.08
-14177.6
-1300
-14769.4
-1369.34
-15340.6
-1480.34
-15907.2
-1625.54
-16477.9
-1782.75
-17078.8
-1930.8
-17738.5
-2063.69
-18452.6
-2184.5
-19184.5
-2294.38
-19892.7
-2395.23
-20570.1
-2496.28
-21287.3
-2611.49
-22143.2
-2752.13
-23179.6
-2922.53
-24360.2
-3122.66
-25606.9
-3352.02
-26832.7
-3609.22
-27951.1
-3896.27
-28933.6
-4215.54
-29829.4
-4560.61
-30676
-4921.83
-31521.8
-5292.18
-32417
-5669.5
-33380.7
-6057.12
-34416.1
-6462.28
-35526.3
-6893.57
-36719.6
-7359.66
-38005.6
-7866.47
-39393.7
-8413.41
-40878.2
-8991.94
-42441.7
-9586.4
-44070.7
-10176.6
-45761.5
-10740.1
-47510.8
-11254.7
-49294.5
-11699.6
-51024.3
-12046.7
-52400.8
-12229.5
-52555.7
-12101.6
-49653.9
-11512.2
-41661.2
-10631.6
-29889.2
-10001.7
-21067
-9810.99
-18829.9
-9762.14
-18699.7
-9684.41
-17480.1
-9616.55
-15598.5
-9594.95
-13684.7
-9619.38
-11716.4
-9690.9
-9647.99
-9816.04
-7517.13
-9995.91
-5353
-10220.7
-3183.64
-10480.9
-1048.5
-10790.9
1044.95
-11196.1
3230.74
-11738.7
5707.26
-12453.2
8644.47
-13385.7
12260.3
-14593.2
16829
-16152.2
22717.8
-18166.9
30465.9
-20783
40895.5
-24210
55285.7
-28764.3
75675.6
-34965.7
105426
-43664.4
149744
-55446.9
215211
-66910.3
300292
363850
-1269.74
-5492.21
-1252.84
-6955.81
-1249.84
-7881.14
-1251.44
-8812.8
-1259.21
-9706.06
-1269.18
-10542.2
-1278.98
-11346.9
-1285.05
-12115.6
-1287.61
-12849.8
-1291.32
-13536.1
-1305.84
-14163.1
-1344.47
-14730.8
-1420.58
-15264.5
-1539.26
-15788.5
-1689.49
-16327.7
-1847.53
-16920.8
-1994.43
-17591.6
-2126.92
-18320.1
-2248.56
-19062.8
-2360.05
-19781.2
-2463.22
-20467
-2567.01
-21183.5
-2684.92
-22025.3
-2828.4
-23036.2
-3002.63
-24186
-3208.28
-25401.2
-3444.9
-26596.1
-3710.85
-27685.2
-4006.39
-28638.1
-4332.12
-29503.7
-4681.32
-30326.8
-5045.16
-31157.9
-5418.02
-32044.1
-5799.17
-32999.6
-6193.09
-34022.2
-6607.62
-35111.8
-7051.16
-36276.1
-7531.23
-37525.5
-8052.22
-38872.7
-8611.94
-40318.5
-9200.66
-41853
-9802.29
-43469.1
-10396.9
-45166.9
-10963.2
-46944.5
-11480.1
-48777.7
-11927.5
-50576.9
-12278.1
-52050.1
-12468.2
-52365.7
-12357.3
-49764.9
-11794
-42224.5
-10924.5
-30758.6
-10279.5
-21712
-10074.2
-19035.2
-10027.5
-18746.5
-9960.07
-17547.5
-9900.25
-15658.3
-9885.28
-13699.6
-9918.56
-11683.2
-9998.2
-9568.35
-10123.1
-7392.26
-10293
-5183.06
-10508.2
-2968.49
-10771.6
-785.083
-11104.2
1377.56
-11544.2
3670.76
-12126
6289.02
-12884.3
9402.83
-13865.8
13241.8
-15129.2
18092.4
-16753.2
24341.7
-18844.1
32556.8
-21548.7
43600
-25078.9
58815.8
-29781.2
80378
-36305.8
111951
-45701.4
159140
-57911.8
227421
-66438.8
308819
348972
-1317
-5515.09
-1300.37
-6972.44
-1298.57
-7882.95
-1301.66
-8809.71
-1311.09
-9696.63
-1322.06
-10531.3
-1331.62
-11337.4
-1336.15
-12111
-1336.5
-12849.5
-1338.62
-13534
-1353.87
-14147.9
-1396.88
-14687.8
-1480.91
-15180.5
-1608.39
-15661.1
-1764.36
-16171.7
-1923.65
-16761.5
-2069.64
-17445.7
-2201.84
-18187.9
-2324.38
-18940.3
-2437.54
-19668.1
-2543
-20361.5
-2649.47
-21077
-2770.25
-21904.5
-2917.14
-22889.3
-3096.17
-24007
-3308.61
-25188.8
-3553.95
-26350.7
-3830.08
-27409
-4135.45
-28332.7
-4468.9
-29170.3
-4823.33
-29972.4
-5190.75
-30790.5
-5567.1
-31667.7
-5953.25
-32613.5
-6354.89
-33620.6
-6780.44
-34686.2
-7238.01
-35818.5
-7733.93
-37029.6
-8270.94
-38335.7
-8845.27
-39744.2
-9445.97
-41252.3
-10056.5
-42858.6
-10657.3
-44566.1
-11228.2
-46373.7
-11749.4
-48256.4
-12202.2
-50124.2
-12560.5
-51691.9
-12763.1
-52163
-12673.7
-49854.3
-12136.3
-42761.9
-11271.2
-31623.8
-10601.5
-22381.7
-10378.3
-19258.4
-10336
-18788.8
-10280.5
-17603
-10227.1
-15711.7
-10212.2
-13714.5
-10242.8
-11652.6
-10320.6
-9490.6
-10446.2
-7266.64
-10619.7
-5009.55
-10841.6
-2746.56
-11117.3
-509.413
-11471.5
1731.75
-11941.4
4140.66
-12558.9
6906.52
-13359.5
10203.4
-14390.3
14272.6
-15711.8
19413.9
-17404.3
26034.2
-19574.4
34727
-22368.5
46394.1
-26011.8
62459.1
-30927.7
85293.9
-37945.9
118969
-48101.6
169296
-60192.1
239511
-65785.4
314413
333184
-1361.47
-5538.84
-1345.97
-6987.94
-1345.61
-7883.31
-1350.38
-8804.95
-1361.47
-9685.54
-1373.22
-10519.5
-1382.15
-11328.5
-1384.77
-12108.4
-1382.73
-12851.5
-1383.37
-13533.3
-1399.78
-14131.5
-1447.86
-14639.7
-1540.27
-15088.1
-1676.15
-15525.2
-1836.71
-16011.2
-1996.22
-16602
-2140.98
-17300.9
-2272.99
-18055.9
-2396.5
-18816.8
-2511.31
-19553.3
-2619.02
-20253.8
-2728.26
-20967.8
-2852.14
-21780.6
-3002.79
-22738.6
-3186.99
-23822.8
-3406.46
-24969.3
-3660.47
-26096.7
-3946.4
-27123.1
-4261.08
-28018
-4601.58
-28829.8
-4960.62
-29613.4
-5331.36
-30419.8
-5711.53
-31287.6
-6103.57
-32221.4
-6514.18
-33209.9
-6952
-34248.4
-7424.58
-35345.9
-7936.82
-36517.4
-8489.68
-37782.9
-9077.8
-39156
-9689.32
-40640.8
-10307.6
-42240.3
-10913.9
-43959.8
-11489.4
-45798.2
-12015.9
-47729.9
-12475.8
-49664.3
-12844.3
-51323.4
-13062.2
-51945.1
-12996.2
-49920.3
-12484.9
-43273.2
-11622.8
-32485.9
-10923.6
-23080.9
-10677.5
-19504.5
-10638.4
-18827.9
-10597.4
-17644
-10555.1
-15753.9
-10546.3
-13723.3
-10580.3
-11618.6
-10661
-9409.92
-10790.6
-7137.02
-10970.4
-4829.76
-11201.9
-2515.09
-11491.5
-219.745
-11867.5
2107.66
-12366.4
4639.6
-13018.4
7558.55
-13860.5
11045.5
-14940.8
15352.9
-16321.1
20794.2
-18081.9
27795
-20328.4
36973.5
-23210.3
49276
-26991.4
66240.3
-32221.8
90524.3
-39881.3
126628
-50682.6
180097
-61983.2
250812
-63787.5
316217
310817
-1405.88
-5562.84
-1391.86
-7001.96
-1393.02
-7882.15
-1399.61
-8798.35
-1412.37
-9672.78
-1424.67
-10507.2
-1432.63
-11320.5
-1433.06
-12108
-1428.55
-12856
-1427.88
-13534
-1445.95
-14113.4
-1499.86
-14585.8
-1601.11
-14986.8
-1745.07
-15381.2
-1909.33
-15846.9
-2068.47
-16442.8
-2212.02
-17157.3
-2343.99
-17924
-2468.52
-18692.2
-2584.97
-19436.8
-2694.96
-20143.8
-2807.07
-20855.7
-2934.32
-21653.4
-3089.17
-22583.8
-3279.01
-23632.9
-3505.93
-24742.4
-3768.8
-25833.8
-4064.43
-26827.5
-4388.21
-27694.2
-4735.57
-28482.4
-5099.15
-29249.8
-5473.48
-30045.4
-5858.16
-30902.9
-6257.2
-31822.4
-6678.05
-32789.1
-7129.31
-33797.1
-7617.73
-34857.5
-8146.61
-35988.5
-8715.12
-37214.4
-9316.48
-38554.7
-9938.15
-40019.1
-10563.8
-41614.7
-11175.7
-43347.8
-11756.5
-45217.4
-12289.7
-47196.7
-12758.9
-49195
-13140.6
-50941.8
-13377.3
-51708.4
-13337.6
-49960
-12853.4
-43757.3
-11992.7
-33346.5
-11258.3
-23815.3
-10983
-19779.8
-10945.2
-18865.7
-10919.5
-17669.7
-10890.6
-15782.9
-10890.3
-13723.7
-10929.7
-11579.1
-11015.4
-9324.23
-11151.5
-7000.93
-11340.1
-4641.18
-11583
-2272.15
-11887.3
84.5244
-12284.7
2505.03
-12812.3
5167.23
-13498.4
8244.69
-14381.8
11928.9
-15511.3
16482.4
-16949.3
22232.2
-18774.5
29620.2
-21091.3
39290.3
-24065.9
52250.6
-28035.8
70210.1
-33699.9
96188.4
-42068.7
134997
-53206.3
191235
-63008.1
260614
-61031.1
314240
287236
-1449.75
-5586.57
-1437.49
-7014.22
-1440.35
-7879.29
-1448.94
-8789.76
-1463.29
-9658.44
-1475.85
-10494.6
-1482.46
-11313.9
-1480.44
-12110
-1473.44
-12863
-1471.76
-13535.7
-1492.16
-14093
-1552.66
-14525.3
-1663.08
-14876.4
-1814.53
-15229.8
-1981.42
-15680
-2139.56
-16284.7
-2281.89
-17015
-2413.96
-17791.9
-2539.53
-18566.7
-2657.65
-19318.7
-2770.01
-20031.5
-2885.19
-20740.5
-3016.17
-21522.4
-3175.66
-22424.3
-3371.62
-23437
-3606.31
-24507.7
-3878.14
-25562
-4183.2
-26522.4
-4515.72
-27361.7
-4869.66
-28128.5
-5237.73
-28881.7
-5615.95
-29667.2
-6005.91
-30512.9
-6413.08
-31415.2
-6845.43
-32356.8
-7311.19
-33331.4
-7816.07
-34352.6
-8361.66
-35442.9
-8945.33
-36630.7
-9559.07
-37940.9
-10190
-39388.2
-10822.4
-40982.3
-11439.9
-42730.4
-12026.7
-44630.5
-12567.9
-46655.5
-13048.5
-48714.5
-13445.8
-50544.4
-13704.3
-51449.9
-13693.7
-49970.6
-13239.1
-44211.9
-12381.2
-34204.5
-11607.6
-24588.8
-11295.5
-20092
-11254.3
-18906.8
-11243.9
-17680.2
-11230.5
-15796.3
-11241.8
-13712.3
-11289.5
-11531.4
-11382
-9231.77
-11525.6
-6857.28
-11723.7
-4443.1
-11978.6
-2017.31
-12299.2
405.1
-12719.6
2925.52
-13276.3
5723.85
-13996.8
8965.18
-14921.3
12853.4
-16099.2
17660.2
-17591.5
23724.5
-19475.1
31503.8
-21859.8
41675
-24949.9
55340.7
-29187.4
74447.6
-35397.4
102398
-44441.3
144041
-55511.3
202305
-63274.1
268377
-57384.5
308350
259676
-1493.31
-5609.69
-1483.01
-7024.52
-1487.76
-7874.55
-1498.47
-8779.05
-1514.23
-9642.68
-1526.71
-10482.2
-1531.63
-11309
-1526.97
-12114.7
-1517.55
-12872.4
-1515.3
-13537.9
-1538.78
-14069.5
-1606.66
-14457.4
-1726.39
-14756.7
-1884.52
-15071.6
-2052.91
-15511.6
-2209.54
-16128.1
-2350.74
-16873.8
-2483.05
-17659.6
-2609.67
-18440.1
-2729.51
-19198.8
-2844.37
-19916.6
-2962.9
-20622
-3098.01
-21387.3
-3262.63
-22259.6
-3465.17
-23234.4
-3707.97
-24264.9
-3988.8
-25281.2
-4302.98
-26208.2
-4643.81
-27020.9
-5004.11
-27768.2
-5376.75
-28509.1
-5759.37
-29284.6
-6155.5
-30116.8
-6571.99
-30998.7
-7017.04
-31911.7
-7498.22
-32850.2
-8019.93
-33830.9
-8581.99
-34880.8
-9180.07
-36032.6
-9805.19
-37315.8
-10444.5
-38748.9
-11083.2
-40343.7
-11706.4
-42107.2
-12300
-44036.9
-12850.6
-46104.9
-13344.5
-48220.6
-13760.1
-50128.8
-14043.1
-51166.9
-14064.8
-49948.9
-13643.2
-44633.5
-12790.8
-35056.9
-11975.5
-25404
-11617.9
-20449.6
-11567.1
-18957.7
-11569.9
-17677.3
-11573.1
-15793
-11598.6
-13686.8
-11657.3
-11472.7
-11758.5
-9130.57
-11910.8
-6704.99
-12118.8
-4235.1
-12386.1
-1750.02
-12725.3
744.332
-13170.8
3370.98
-13756.5
6309.61
-14511.5
9720.2
-15476.6
13818.5
-16700.2
18883.8
-18241.8
25266.1
-20178.9
33441
-22639.4
44135.5
-25890.7
58592
-30492
79048.9
-37322.6
109229
-46899.5
153618
-57441
212846
-62719.2
273655
-53073.1
298704
230285
-1536.59
-5631.96
-1528.4
-7032.7
-1535.26
-7867.69
-1548.12
-8766.19
-1565.05
-9625.74
-1577.1
-10470.1
-1580.02
-11306
-1572.61
-12122.1
-1560.94
-12884.1
-1558.65
-13540.2
-1586.05
-14042.1
-1662.04
-14381.5
-1791.01
-14627.7
-1954.8
-14907.9
-2123.58
-15342.9
-2278.27
-15973.4
-2418.49
-16733.6
-2551.16
-17526.9
-2678.84
-18312.4
-2800.45
-19077.2
-2918.02
-19799
-3040.22
-20499.8
-3179.94
-21247.6
-3350.2
-22089.4
-3559.79
-23024.8
-3810.99
-24013.7
-4100.85
-24991.3
-4423.8
-25885.3
-4772.45
-26672.2
-5138.88
-27401.7
-5516.3
-28131.6
-5903.97
-28896.9
-6307.29
-29713.5
-6734.29
-30571.7
-7193.16
-31452.8
-7690.46
-32352.9
-8229.11
-33292.2
-8807.12
-34302.8
-9418.62
-35421.1
-10054
-36680.4
-10700.8
-38102.1
-11345.3
-39699.1
-11974.4
-41478.1
-12575.6
-43435.7
-13137.1
-45543.4
-13646.2
-47711.5
-14082.3
-49692.7
-14392.7
-50856.5
-14449.8
-49891.8
-14065.4
-45017.9
-13223.4
-35898.8
-12365.9
-26261.6
-11954.2
-20861.4
-11885.1
-19026.7
-11897.6
-17664.9
-11917.2
-15773.4
-11958.7
-13645.4
-12030.9
-11400.5
-12143
-9018.39
-12305.6
-6542.48
-12524.9
-4015.8
-12806.4
-1468.53
-13165.8
1103.74
-13636.5
3841.73
-14251.2
6924.26
-15040
10509.1
-16043.5
14822
-17308.6
20148.9
-18894.2
26851.6
-20885.5
35432.3
-23445.5
46695.5
-26924.6
62071.1
-31984.1
84108.4
-39447.1
116692
-49319.1
163490
-58877.3
222404
-61401.4
276179
-48232.8
285536
198661
-1579.68
-5653.25
-1573.69
-7038.69
-1582.86
-7858.52
-1597.83
-8751.21
-1615.63
-9607.95
-1626.88
-10458.9
-1627.55
-11305.4
-1617.35
-12132.3
-1603.71
-12897.7
-1602.01
-13541.9
-1634.25
-14009.9
-1718.98
-14296.7
-1856.87
-14489.8
-2025.11
-14739.6
-2193.19
-15174.8
-2345.68
-15820.9
-2485.11
-16594.1
-2618.26
-17393.8
-2746.99
-18183.6
-2870.44
-18953.8
-2990.96
-19678.5
-3117.22
-20373.5
-3262.07
-21102.7
-3438.54
-21912.9
-3655.64
-22807.7
-3915.5
-23753.9
-4214.38
-24692.4
-4545.74
-25553.9
-4901.69
-26316.3
-5274
-27029.4
-5656.54
-27749.1
-6050.07
-28503.4
-6461.68
-29301.9
-6900.37
-30133
-7374.05
-30979.2
-7887.98
-31839
-8443.39
-32736.8
-9036.53
-33709.7
-9660.27
-34797.4
-10304.7
-36036
-10958
-37448.7
-11608.2
-39049
-12243.5
-40842.8
-12853.2
-42826
-13426.9
-44969.7
-13953
-47185.5
-14411.8
-49233.8
-14752
-50516.4
-14847.7
-49796.1
-14505.3
-45360.3
-13680.4
-36723.8
-12782.6
-27159.3
-12308.8
-21335.2
-12211.5
-19123.9
-12228.1
-17648.4
-12262.5
-15739
-12320.7
-13587.2
-12408.8
-11312.4
-12534.7
-8892.41
-12710.1
-6367.17
-12942.7
-3783.19
-13239.4
-1171.82
-13619
1483.32
-14114.5
4337.28
-14757.3
7567.02
-15578.2
11330
-16616.5
15860.2
-17918.3
21450.8
-19545.8
28479.1
-21602.5
37489.1
-24303.6
49396.5
-28089.7
65857.2
-33678.4
89697.1
-41710.1
124724
-51575
173355
-59751.2
230581
-59406.4
275834
-43090
269219
165402
-1622.71
-5673.48
-1618.94
-7042.47
-1630.53
-7846.92
-1647.48
-8734.27
-1665.79
-9589.64
-1675.92
-10448.7
-1674.16
-11307.1
-1661.23
-12145.2
-1645.97
-12913
-1645.61
-13542.3
-1683.62
-13971.9
-1777.58
-14202.8
-1923.79
-14343.6
-2095.14
-14568.3
-2261.53
-15008.4
-2411.67
-15670.7
-2550.55
-16455.3
-2684.29
-17260
-2814.07
-18053.9
-2939.46
-18828.4
-3063.19
-19554.8
-3193.95
-20242.8
-3344.51
-20952.2
-3527.79
-21729.6
-3752.84
-22582.7
-4021.58
-23485.1
-4329.43
-24384.6
-4668.86
-25214.5
-5031.59
-25953.5
-5409.58
-26651.4
-5797.64
-27361
-6198
-28103
-6619.08
-28880.8
-7070.6
-29681.5
-7559.9
-30489.8
-8090.69
-31308.2
-8662.38
-32165.1
-9269.6
-33102.5
-9904.23
-34162.8
-10556.5
-35383.8
-11215.6
-36789.6
-11871
-38393.5
-12512.9
-40200.9
-13132
-42206.8
-13719.2
-44382.5
-14264.1
-46640.6
-14747.7
-48750.2
-15120
-50144
-15257.4
-49658.7
-14962.3
-45655.5
-14162.3
-37523.7
-13229.2
-28092.4
-12686.8
-21877.6
-12550.3
-19260.4
-12563.7
-17635
-12609.7
-15693
-12684.2
-13512.7
-12789.8
-11206.8
-12932.2
-8750.03
-13122.7
-6176.65
-13370.1
-3535.8
-13682.3
-859.609
-14081.6
1882.57
-14601.1
4856.84
-15270.5
8236.35
-16120.6
12180.2
-17189.8
16929.4
-18525.6
22786.6
-20199.7
30153.1
-22346.6
39636
-25245.9
52295.9
-29417.6
70028.8
-35565.2
95844.7
-44029.2
133188
-53552.5
182878
-60007.3
237035
-56741.5
272568
-37962.1
250440
133841
-1665.86
-5692.59
-1664.22
-7044.11
-1678.19
-7832.95
-1696.89
-8715.57
-1715.36
-9571.17
-1724.09
-10440
-1719.81
-11311.4
-1704.28
-12160.7
-1687.84
-12929.4
-1689.62
-13540.5
-1734.34
-13927.1
-1837.84
-14099.3
-1991.5
-14189.9
-2164.52
-14395.3
-2328.39
-14844.5
-2476.19
-15522.9
-2614.77
-16316.7
-2749.22
-17125.6
-2880.06
-17923
-3007.49
-18701
-3134.72
-19427.6
-3270.46
-20107
-3427.35
-20795.3
-3618.07
-21538.9
-3851.52
-22349.2
-4129.3
-23207.3
-4446.02
-24067.9
-4793.2
-24867.3
-5162.27
-25584.5
-5545.76
-26268
-5939.83
-26967
-6348.06
-27694.8
-6779.85
-28449
-7245.25
-29216.1
-7750.8
-29984.3
-8298.41
-30760.6
-8885.6
-31578
-9505.59
-32482.5
-10149.7
-33518.7
-10808.4
-34725
-11472.6
-36125.5
-12133.2
-37732.9
-12782.1
-39552
-13411.5
-41577.4
-14013.6
-43780.5
-14578.7
-46075.5
-15088.9
-48239.9
-15495.6
-49737.3
-15677.7
-49476.6
-15435.1
-45898
-14669.4
-38289.5
-13708.6
-29053.3
-13093.6
-22492.7
-12906.5
-19447.4
-12907.8
-17633.7
-12960.6
-15640.3
-13049.4
-13423.9
-13172.8
-11083.4
-13333.1
-8589.71
-13540.5
-5969.32
-13803.5
-3272.71
-14131.2
-531.961
-14549.4
2300.78
-15091.8
5399.24
-15785.6
8930.17
-16662
13056.6
-17759.6
18026.9
-19131.2
24158.3
-20866.6
31888.5
-23142.5
41911.8
-26306.1
55459.6
-30926.4
74649
-37610.4
102529
-46310.3
141888
-55150.8
191719
-59602.1
241487
-53445.9
266412
-32924.3
229918
106360
-1709.32
-5710.5
-1709.67
-7043.77
-1725.76
-7816.86
-1745.88
-8695.45
-1764.16
-9552.89
-1771.26
-10432.9
-1764.45
-11318.2
-1746.56
-12178.6
-1729.44
-12946.6
-1734.21
-13535.7
-1786.53
-13874.8
-1899.68
-13986.1
-2059.67
-14029.9
-2232.89
-14222
-2393.58
-14683.8
-2539.19
-15377.3
-2677.75
-16178.1
-2813.02
-16990.3
-2944.96
-17791.1
-3074.57
-18571.4
-3205.6
-19296.5
-3346.83
-19965.8
-3510.7
-20631.4
-3709.5
-21340.1
-3951.77
-22107
-4238.69
-22920.4
-4564.15
-23742.4
-4918.81
-24512.7
-5293.87
-25209.4
-5682.78
-25879
-6083.38
-26566.4
-6500.57
-27277.6
-6944.32
-28005.2
-7424.56
-28735.9
-7946.73
-29462.1
-8510.79
-30196.5
-9112.43
-30976.3
-9743.7
-31851.2
-10395.7
-32866.7
-11059.8
-34060.9
-11728.3
-35457
-12394.1
-37067.2
-13050.4
-38895.6
-13691
-40936.8
-14309.1
-43162.4
-14896
-45488.7
-15434.5
-47701.4
-15877.5
-49294.3
-16107.1
-49247.1
-15922.4
-46082.7
-15201
-39010.9
-14223
-30031.2
-13534.4
-23181.3
-13285.7
-19696
-13264.6
-17654.9
-13317.7
-15587.1
-13416.9
-13324.6
-13556.6
-10943.7
-13734.9
-8411.35
-13959.8
-5744.5
-14239
-2993.51
-14581.7
-189.282
-15017.9
2736.98
-15581.8
5963.18
-16298.1
9646.52
-17199
13957.4
-18325.8
19153.7
-19742.4
25574.9
-21565
33711.1
-24019.6
44366.4
-27512.7
58952.6
-32615.8
79752.2
-39758.9
109672
-48454.8
150584
-56285.9
199550
-58533.9
243735
-49683.3
257561
-28022.1
208257
81878.6
-1753.25
-5727.05
-1755.4
-7041.62
-1773.15
-7799.1
-1794.23
-8674.37
-1811.98
-9535.14
-1817.3
-10427.6
-1808.05
-11327.5
-1788.11
-12198.5
-1770.88
-12963.8
-1779.51
-13527.1
-1840.2
-13814.1
-1962.87
-13863.5
-2127.88
-13864.9
-2299.89
-14050
-2456.95
-14526.8
-2600.63
-15233.7
-2739.46
-16039.3
-2875.67
-16854.1
-3008.8
-17657.9
-3140.74
-18439.4
-3275.92
-19161.3
-3423.17
-19818.6
-3594.67
-20459.9
-3802.22
-21132.6
-4053.69
-21855.5
-4349.8
-22624.3
-4683.82
-23408.4
-5045.69
-24150.8
-5426.56
-24828.5
-5820.97
-25484.6
-6228.7
-26158.6
-6655.92
-26850.4
-7112.8
-27548.3
-7608.65
-28240
-8147.54
-28923.2
-8727.4
-29616.6
-9342.14
-30361.6
-9983.03
-31210.3
-10641.4
-32208.4
-11309.8
-33392.4
-11982.1
-34784.7
-12653
-36396.3
-13317.3
-38231.3
-13969.9
-40284.2
-14605
-42527.3
-15215
-44878.7
-15783.4
-47133
-16264.5
-48813.2
-16544.1
-48967.5
-16422.3
-46204.4
-15755.6
-39677.6
-14773.5
-31013.3
-14014.1
-23940.7
-13694.1
-20016
-13639
-17709.9
-13684.4
-15541.8
-13788.5
-13220.5
-13940.9
-10791.3
-14135.8
-8216.43
-14377.7
-5502.62
-14672.7
-2698.46
-15029.8
167.83
-15483.2
3190.32
-16067.6
6547.64
-16805.6
10384.5
-17731.8
14883.6
-18894
20316
-20373.3
27054.2
-22319.4
35657.2
-25007.9
47055
-28883.6
62828.3
-34466.2
85334.8
-41939.9
117145
-50367.5
159011
-56898.4
206081
-56837.1
243673
-45574.8
246299
-23361.4
186044
61045.4
-1797.76
-5742.04
-1801.51
-7037.88
-1820.3
-7780.31
-1841.76
-8652.92
-1858.61
-9518.29
-1862.07
-10424.1
-1850.55
-11339
-1828.95
-12220.2
-1812.23
-12980.5
-1825.56
-13513.8
-1895.3
-13744.4
-2027.09
-13731.7
-2195.68
-13696.3
-2365.18
-13880.5
-2518.38
-14373.6
-2660.5
-15091.6
-2799.87
-15899.9
-2937.16
-16716.8
-3071.63
-17523.5
-3206.12
-18304.9
-3345.81
-19021.7
-3499.61
-19664.8
-3679.42
-20280.1
-3896.34
-20915.6
-4157.38
-21594.4
-4462.68
-22319
-4805.06
-23066
-5173.94
-23781.9
-5560.52
-24442
-5960.67
-25084.5
-6376.22
-25743.1
-6814.51
-26412.1
-7285.55
-27077.3
-7797.57
-27728
-8352.96
-28367.8
-8947.64
-29022
-9573.91
-29735.3
-10222.7
-30561.6
-10885.8
-31545.2
-11557.5
-32720.8
-12233.3
-34108.9
-12909.4
-35720.2
-13582.1
-37558.6
-14247.4
-39618.9
-14900.6
-41874.1
-15534.8
-44244.5
-16134.4
-46533.5
-16655.3
-48292.3
-16987.1
-48635.7
-16932.9
-46258.6
-16331.2
-40279.4
-15360
-31984.6
-14536.7
-24764
-14137.8
-20414.9
-14036.9
-17810.8
-14065.1
-15513.6
-14166.8
-13118.8
-14326.6
-10631.5
-14534.7
-8008.4
-14791.2
-5246.1
-15100.3
-2389.37
-15472.4
539.912
-15943.8
3661.72
-16548.5
7152.34
-17309.3
11145.3
-18265.6
15840
-19476.1
21526.4
-21044.2
28622.4
-23157
37769.9
-26132.5
50030.4
-30422.5
67118.3
-36439.2
91351.5
-44073.2
124779
-51962.3
166900
-56956.3
211075
-54580.7
241298
-41273.5
232992
-18964.7
163735
42902.6
-1842.82
-5755.14
-1848.02
-7032.67
-1867.14
-7761.18
-1888.29
-8631.77
-1903.85
-9502.72
-1905.44
-10422.5
-1891.91
-11352.5
-1869.07
-12243
-1853.5
-12996.1
-1872.38
-13494.9
-1951.66
-13665.1
-2091.95
-13591.4
-2262.6
-13525.7
-2428.5
-13714.6
-2577.8
-14224.3
-2718.79
-14950.6
-2858.99
-15759.7
-2997.52
-16578.3
-3133.53
-17387.5
-3270.84
-18167.6
-3415.43
-18877.1
-3576.33
-19503.9
-3765.11
-20091.3
-3991.99
-20688.8
-4262.93
-21323.5
-4577.37
-22004.6
-4927.92
-22715.5
-5303.63
-23406.2
-5695.93
-24049.7
-6102.22
-24678.2
-6526.38
-25318.9
-6976.74
-25961.7
-7462.78
-26591.3
-7991.24
-27199.5
-8562.59
-27796.5
-9170.78
-28413.8
-9806.83
-29099.2
-10461.7
-29906.7
-11128.2
-30878.7
-11802.3
-32046.7
-12481.2
-33430.1
-13162.6
-35038.7
-13844.1
-36877
-14522.8
-38940.2
-15194.9
-41201.9
-15854.4
-43585
-16486.3
-45901.6
-17048.3
-47730.2
-17434.4
-48249.6
-17452
-46241
-16925.2
-40806.1
-15981.4
-32928.4
-15105.3
-25640.1
-14623.4
-20896.8
-14465.2
-17969.1
-14465.6
-15513.2
-14556.5
-13027.9
-14716.9
-10471.1
-14932.8
-7792.5
-15200.3
-4978.6
-15521.8
-2067.91
-15910.3
928.424
-16401.4
4152.8
-17027.4
7778.4
-17815.2
11933.1
-18811.4
16836.1
-20089.4
22804.4
-21779.4
30312.4
-24104.3
40094.8
-27409.5
53335.6
-32116.9
71825.7
-38480.6
97715.2
-46075.5
132374
-53169.1
173994
-56455
214361
-51852.7
236695
-36906.7
218046
-14897.7
141726
27434.1
-1888.21
-5766.01
-1894.83
-7026.06
-1913.59
-7742.42
-1933.69
-8611.67
-1947.52
-9488.89
-1947.25
-10422.8
-1932.01
-11367.8
-1908.42
-12266.6
-1894.68
-13009.8
-1919.88
-13469.7
-2009
-13576
-2156.94
-13443.4
-2328.17
-13354.5
-2489.62
-13553.2
-2635.19
-14078.7
-2775.53
-14810.2
-2916.8
-15618.5
-3056.77
-16438.3
-3194.63
-17249.6
-3335.09
-18027.2
-3485
-18727.2
-3653.55
-19335.3
-3851.93
-19892.9
-4089.32
-20451.4
-4370.42
-21042.4
-4693.93
-21681.1
-5052.4
-22357
-5434.82
-23023.8
-5832.95
-23651.5
-6245.93
-24265.2
-6679.58
-24885.3
-7142.92
-25498.4
-7644.59
-26089.6
-8189.46
-26654.7
-8775.89
-27210.1
-9396.02
-27793.6
-10039.9
-28455.3
-10699
-29247.6
-11367.7
-30210
-12043.4
-31371
-12725.1
-32748.4
-13411.9
-34351.9
-14102.7
-36186.3
-14795.3
-38247.6
-15487.1
-40510.1
-16172.7
-42899.5
-16837.9
-45236.3
-17442.3
-47125.9
-17884.3
-47807.6
-17977.1
-46148.2
-17534.5
-41248.7
-16635.3
-33827.6
-15721.5
-26553.9
-15157
-21461.3
-14931.5
-18194.6
-14893.7
-15550.9
-14964.9
-12956.7
-15118.2
-10317.8
-15336.4
-7574.37
-15611.6
-4703.37
-15944.5
-1734.99
-16349.7
1333.64
-16861.4
4664.47
-17512.1
8429.1
-18334.7
12755.7
-19385.2
17886.7
-20755.6