/*--------------------------------*- C++ -*----------------------------------*\
| =========                 |                                                 |
| \\      /  F ield         | OpenFOAM: The Open Source CFD Toolbox           |
|  \\    /   O peration     | Version:  4.1                                   |
|   \\  /    A nd           | Web:      www.OpenFOAM.org                      |
|    \\/     M anipulation  |                                                 |
\*---------------------------------------------------------------------------*/
FoamFile
{
    version     2.0;
    format      ascii;
    class       volVectorField;
    location    "23";
    object      U;
}
// * * * * * * * * * * * * * * * * * * * * * * * * * * * * * * * * * * * * * //

dimensions      [0 1 -1 0 0 0 0];

internalField   nonuniform List<vector> 
6785
(
(3.36591e-13 -0.8165 16.1143)
(3.6672e-13 -6.71807 12.4782)
(-1.01687e-13 -4.80698 12.8718)
(1.25507e-13 -4.33428 12.6135)
(4.96637e-14 -3.72855 12.4377)
(-4.33935e-14 -3.27427 12.205)
(1.30801e-13 -2.90325 11.9386)
(3.91393e-14 -2.62946 11.6179)
(-3.99326e-14 -2.44801 11.2268)
(1.26883e-13 -2.32479 10.7802)
(1.38106e-14 -2.2422 10.3277)
(-6.96996e-14 -2.40546 9.81333)
(1.46555e-13 -2.91629 9.14102)
(-1.18522e-14 -2.29497 8.71835)
(-2.67082e-13 0.917471 7.40732)
(8.32569e-13 -7.60739 26.0427)
(5.44307e-13 -16.5853 21.6571)
(-5.36396e-14 -11.4791 22.1573)
(5.81279e-13 -11.9018 20.6611)
(3.58975e-14 -10.88 19.6673)
(1.34435e-13 -10.198 18.5772)
(5.16749e-13 -9.46833 17.4863)
(4.89958e-14 -8.76494 16.3747)
(2.37491e-13 -8.12407 15.2963)
(5.76402e-13 -7.61369 14.3695)
(1.56971e-13 -7.19419 13.6445)
(4.30284e-13 -6.82355 12.8583)
(8.94902e-13 -6.52571 11.4504)
(-9.38008e-14 -5.34099 8.61879)
(-3.74064e-13 -1.36852 2.44005)
(2.7189e-13 -10.4745 27.6111)
(4.96016e-13 -17.3189 24.0411)
(-1.11493e-13 -11.6372 24.451)
(-1.02045e-13 -12.4969 22.2488)
(8.82393e-14 -10.829 21.1348)
(-1.0959e-14 -10.0102 19.6571)
(-1.11436e-13 -9.00745 18.2804)
(1.10376e-13 -8.08732 16.8938)
(-8.80029e-14 -7.14761 15.4525)
(-2.8479e-13 -6.1089 13.7585)
(-1.27082e-13 -5.02638 11.7353)
(-5.43444e-13 -4.33321 9.81318)
(-1.06777e-12 -4.34796 8.53828)
(1.65042e-14 -4.28888 7.08784)
(-7.28364e-13 -1.90989 2.26456)
(5.80818e-13 -11.8161 27.4985)
(1.62342e-13 -17.0653 24.1779)
(1.13117e-13 -11.8279 24.5734)
(-1.35263e-13 -13.1761 21.9316)
(-1.5884e-13 -11.1254 20.9323)
(2.27885e-13 -10.572 19.2383)
(-2.51968e-13 -9.52193 17.8708)
(-1.29901e-13 -8.701 16.4723)
(2.24599e-13 -7.73927 14.9615)
(-5.9298e-13 -6.33372 12.6513)
(-9.69009e-13 -4.04047 8.66534)
(-2.03473e-12 -1.19248 3.37744)
(-4.17531e-12 0.306861 0.510886)
(-1.527e-12 -0.796396 2.19551)
(2.61626e-12 -1.31352 3.15347)
(3.82511e-13 -12.3797 27.3423)
(-3.32727e-13 -17.5095 25.2858)
(-1.0317e-13 -12.3877 25.1423)
(-4.01767e-13 -14.0444 22.3426)
(-7.56876e-13 -11.7718 21.4866)
(-6.16658e-14 -11.4929 19.6741)
(-5.23803e-13 -10.4412 18.346)
(-8.84896e-13 -9.72267 16.9544)
(-3.87989e-13 -8.89974 15.5634)
(-7.0349e-13 -7.75962 13.6303)
(-1.79547e-12 -5.75916 10.3488)
(-2.4393e-12 -2.49582 5.10049)
(-4.86085e-12 1.64884 -0.0706896)
(-1.57504e-12 3.21009 -2.51867)
(3.88661e-12 1.08271 -1.85647)
(6.57353e-13 -12.2918 25.9858)
(-2.57107e-13 -17.7614 26.2652)
(1.26537e-13 -12.8896 25.2142)
(-3.97112e-13 -14.1936 22.3577)
(-7.10435e-13 -12.0947 21.4483)
(1.52404e-13 -11.8059 19.609)
(-3.57905e-13 -10.8253 18.2136)
(-8.04903e-13 -10.109 16.7677)
(8.27005e-14 -9.38511 15.3769)
(-3.98136e-13 -8.54024 13.7967)
(-1.12459e-12 -7.30815 11.6006)
(-9.39925e-13 -5.36777 8.46756)
(-1.95749e-12 -2.71509 4.61612)
(-9.27373e-13 0.69802 0.617673)
(6.53434e-12 0.880185 -3.72817)
(1.22832e-12 -11.835 23.9609)
(6.16053e-14 -17.5173 26.5216)
(5.8921e-13 -13.0988 24.8486)
(-2.9926e-13 -13.8562 21.8746)
(-4.54599e-13 -11.9659 20.8603)
(6.45424e-13 -11.5868 19.0298)
(-6.4502e-14 -10.6288 17.576)
(-2.96359e-13 -9.86018 16.0724)
(4.75334e-13 -9.11355 14.6167)
(-3.6476e-14 -8.32665 13.135)
(-3.79762e-13 -7.42328 11.4261)
(3.37773e-13 -6.17375 9.35329)
(-2.25806e-13 -4.60041 6.65002)
(-1.79785e-12 -1.99611 3.18536)
(1.95083e-12 -0.198773 -2.1594)
(7.4716e-13 -11.362 22.2462)
(2.06338e-13 -16.9822 26.3407)
(5.79319e-13 -13.1743 24.4658)
(-2.05446e-13 -13.4319 21.4239)
(-4.10634e-13 -11.728 20.2873)
(4.86273e-13 -11.2565 18.5231)
(4.02715e-14 -10.3208 17.0523)
(-3.83324e-13 -9.51118 15.5381)
(2.07399e-13 -8.72565 14.0667)
(1.30193e-13 -7.92621 12.6386)
(-1.5006e-13 -7.11222 11.1448)
(1.14992e-13 -6.12315 9.52754)
(1.88787e-13 -4.98991 7.48968)
(-1.1047e-12 -3.05595 4.76571)
(-2.73368e-12 -0.860786 -0.742711)
(7.22666e-13 -11.0586 21.2222)
(2.29398e-13 -16.3478 25.7991)
(1.82938e-13 -13.1175 24.052)
(-1.95101e-15 -13.0873 21.0236)
(-3.88664e-13 -11.5179 19.8055)
(-2.20624e-13 -11.0113 18.1232)
(1.31857e-13 -10.1333 16.6846)
(-2.56679e-13 -9.35781 15.2549)
(-5.87552e-13 -8.61816 13.8802)
(1.38886e-13 -7.86148 12.5513)
(1.62783e-13 -7.10744 11.198)
(-6.30148e-13 -6.24903 9.80605)
(7.79721e-14 -5.34838 8.18482)
(-4.55209e-13 -3.87164 6.19984)
(-3.70844e-12 -1.67918 1.27586)
(1.67239e-13 -11.0255 20.8503)
(1.79697e-13 -15.6538 24.9339)
(7.70571e-14 -12.7898 23.4649)
(-4.53542e-13 -12.7837 20.4719)
(-4.17039e-13 -11.1623 19.3103)
(-6.26644e-13 -10.7711 17.619)
(-6.78277e-13 -9.90653 16.3084)
(-1.99249e-13 -9.27322 14.9848)
(-6.27103e-13 -8.6302 13.704)
(-6.9056e-13 -7.98997 12.4559)
(1.95896e-13 -7.37035 11.2701)
(-1.89905e-13 -6.73315 10.2008)
(-7.9381e-13 -6.0792 9.12158)
(2.64118e-13 -5.01297 7.85884)
(-2.49945e-12 -3.02443 3.86276)
(-4.59723e-13 -11.4129 21.1271)
(2.76909e-13 -14.8995 24.0503)
(-7.54724e-13 -12.3719 22.8046)
(-6.25784e-13 -12.4406 19.9364)
(-1.8064e-13 -10.6494 18.8429)
(-1.48706e-12 -10.3704 16.9731)
(-6.67858e-13 -9.29918 15.6177)
(1.47273e-14 -8.74641 14.071)
(-2.22607e-12 -8.13858 12.77)
(-1.19841e-12 -7.71594 11.691)
(4.00983e-13 -7.43238 11.0053)
(-1.64804e-12 -7.24953 10.6794)
(-7.46068e-13 -7.00505 10.519)
(-7.29755e-13 -6.41683 9.96786)
(-3.3287e-12 -4.56617 6.87713)
(-2.97311e-13 -12.1185 21.9368)
(3.89757e-13 -14.4968 23.8172)
(-1.44805e-12 -12.0275 22.3017)
(-4.10155e-13 -11.9255 19.9645)
(-3.80437e-13 -10.1576 18.7387)
(-1.83043e-12 -9.44691 16.5579)
(-6.75563e-13 -7.86358 14.4591)
(-1.4819e-12 -6.86301 12.2359)
(-3.94274e-12 -6.10289 10.8296)
(-3.66581e-12 -5.91456 10.1473)
(-3.71675e-12 -6.15012 10.3292)
(-4.18463e-12 -6.82608 11.2449)
(-1.40452e-12 -7.55053 12.3754)
(-2.23259e-12 -7.79419 12.6131)
(-3.76127e-12 -5.66672 9.64835)
(-6.23386e-13 -12.4623 22.5723)
(2.16834e-13 -15.9419 26.1921)
(-1.27279e-12 -12.8145 23.6578)
(-6.85158e-13 -12.5547 21.5701)
(-5.49005e-13 -10.769 20.2084)
(-1.71065e-12 -9.68038 17.8261)
(-9.30162e-13 -7.62298 15.2204)
(-2.2484e-12 -5.99986 12.5247)
(-5.61977e-12 -4.60381 10.6472)
(-6.6211e-12 -3.70933 9.3299)
(-7.19013e-12 -3.26842 8.72991)
(-5.70068e-12 -3.67297 9.20221)
(-2.98892e-12 -4.88301 10.6847)
(-2.42362e-12 -5.87502 11.7324)
(-2.51847e-12 -4.20172 8.90377)
(-1.05425e-12 -10.9755 19.5431)
(-1.64066e-14 -16.4038 27.116)
(-1.50238e-12 -13.3647 24.5633)
(-1.03392e-12 -12.5965 22.1523)
(-5.18562e-13 -11.0278 21.2681)
(-1.64697e-12 -10.2522 19.4024)
(-6.86106e-13 -8.40605 17.2447)
(-2.14932e-12 -6.88042 14.7442)
(-5.32036e-12 -5.42706 12.8498)
(-6.60243e-12 -4.34598 11.1745)
(-8.02905e-12 -3.36393 9.54122)
(-5.88586e-12 -2.45659 7.87758)
(-2.48708e-12 -1.06001 5.44102)
(-1.04977e-12 0.554682 1.69632)
(-4.36261e-13 0.987428 -1.0014)
(-1.66818e-12 -10.387 20.4681)
(-5.74107e-13 -19.2565 30.9972)
(-8.75544e-13 -19.3026 30.4975)
(-1.22946e-12 -18.2155 27.4238)
(-9.75281e-13 -16.523 24.5105)
(-1.04344e-12 -15.2183 21.8474)
(-9.55219e-13 -13.6527 19.3078)
(-1.19944e-12 -12.132 16.8347)
(-1.53943e-12 -10.4586 14.4184)
(-1.93337e-12 -8.76334 11.8522)
(-3.19987e-12 -6.9969 9.50455)
(-3.92207e-12 -5.00525 6.85616)
(-3.64518e-12 -2.49964 3.33998)
(-4.77221e-12 2.58723 -3.57559)
(-1.23174e-12 1.56378 -9.52074)
(-2.58047e-15 0.0342475 -0.139929)
(-5.62933e-15 -0.110099 0.0696114)
(1.04791e-14 -0.0726882 0.00214785)
(3.6199e-14 -0.0942713 0.0337721)
(1.08876e-13 -0.0715598 0.0502287)
(4.1396e-13 -0.145102 -0.0631009)
(4.98084e-13 -0.143215 0.0176729)
(7.90523e-13 -0.14667 0.1645)
(1.29794e-12 -0.161617 0.25203)
(1.98669e-12 -0.196245 0.336066)
(-1.63351e-14 -0.221505 0.297259)
(6.32757e-14 -0.238997 0.375699)
(9.57993e-14 -0.290482 0.441699)
(8.01402e-14 -0.264901 0.310523)
(1.01985e-13 -0.308179 0.320114)
(1.30481e-13 -0.30094 0.259502)
(1.86069e-13 -0.340732 0.253596)
(1.5047e-13 -0.309606 0.173698)
(-2.68249e-14 -0.319798 0.177414)
(7.73237e-15 -0.358523 0.0940927)
(1.95217e-15 -0.304821 0.0427825)
(-3.43507e-15 -0.337347 0.0328517)
(-1.3475e-14 -0.301744 -0.00133166)
(-3.73159e-13 -0.396538 -0.0642626)
(-2.92687e-13 -0.306367 -0.108045)
(-3.89621e-13 -0.337874 -0.133469)
(-5.06807e-13 -0.286523 -0.147408)
(-2.80206e-13 -0.344949 -0.166222)
(-3.87462e-13 -0.308914 -0.151847)
(-2.38842e-13 -0.280881 -0.113983)
(-4.6222e-13 -0.337735 -0.24773)
(-3.86851e-13 -0.238782 -0.246921)
(-1.73086e-13 -0.252292 -0.1892)
(-2.26558e-13 -0.215029 -0.146969)
(9.65373e-14 -0.222284 -0.337491)
(3.59183e-16 -0.137805 -0.243861)
(1.47585e-14 -0.116385 -0.171169)
(5.1984e-14 -0.140965 -0.673158)
(7.04283e-14 0.0174615 -0.529541)
(2.06202e-13 0.0225403 -0.355255)
(5.99862e-13 0.0637237 -0.148821)
(1.27497e-13 0.0131099 -0.533529)
(1.36024e-14 0.186662 -0.40682)
(1.06126e-14 0.174039 -0.501622)
(1.41916e-14 0.238946 -0.489342)
(1.54836e-13 0.208037 -0.831176)
(-1.92425e-13 0.332005 -0.42268)
(-1.81538e-13 0.339343 -0.294909)
(-2.4358e-13 0.36503 -0.446555)
(5.6783e-14 0.36329 -0.263851)
(6.83408e-14 0.395347 -0.194428)
(7.74605e-14 0.388491 -0.179443)
(1.21817e-13 0.453966 -0.399924)
(8.63944e-14 0.408999 -0.233408)
(1.53881e-14 0.460603 -0.175272)
(3.53094e-13 0.430037 -0.149964)
(4.58745e-13 0.534463 -0.465975)
(3.15289e-13 0.485394 -0.424964)
(6.38008e-14 0.520079 -0.350354)
(6.90355e-14 0.569537 -0.782739)
(-3.00123e-14 0.437888 -0.773055)
(-5.7717e-14 0.546609 -0.802387)
(-1.12403e-13 0.54045 -0.774635)
(1.72096e-12 0.646684 -1.479)
(4.53236e-13 0.423837 0.486886)
(1.06476e-13 0.383644 1.06301)
(-1.75747e-13 0.277476 1.75514)
(-3.80431e-13 -0.0316185 3.13944)
(-1.98993e-13 -0.234445 3.14339)
(-2.25806e-13 -0.38072 3.10154)
(-2.8172e-13 -0.850678 4.7824)
(-2.53883e-13 -1.29888 4.72475)
(-2.77937e-13 -1.64833 4.70938)
(-3.40405e-13 -1.7568 4.77564)
(-6.15548e-13 -2.90199 7.56747)
(-4.93918e-13 -3.27482 6.52695)
(-6.09204e-13 -3.50972 6.87337)
(-8.66501e-13 -5.26991 10.0433)
(-4.85213e-13 -5.41748 7.71288)
(-2.59524e-13 -5.64064 7.73734)
(-3.01374e-13 -6.28082 7.91308)
(-2.3952e-13 -6.3972 8.07359)
(-2.76966e-13 -6.79382 8.37889)
(-2.48484e-13 -7.90673 12.9405)
(-5.74552e-13 -8.09551 10.4617)
(-1.07736e-12 -8.39761 11.4168)
(-1.10856e-12 -8.48171 11.3142)
(-1.04848e-12 -8.69188 11.3102)
(-1.06012e-12 -8.85471 11.3309)
(-1.04098e-12 -9.0148 11.3727)
(-9.74368e-13 -9.16488 11.7287)
(-8.89264e-13 -9.5156 12.3167)
(-4.11652e-13 -9.97436 14.6786)
(-8.11552e-13 -10.1486 13.2727)
(-7.94388e-13 -10.3919 13.5112)
(-7.96555e-13 -10.3704 13.6143)
(-8.00046e-13 -10.6004 14.1435)
(-8.76831e-13 -10.5768 14.0928)
(-9.54687e-13 -10.6843 14.2002)
(-1.05331e-12 -10.7172 14.2594)
(-1.14588e-12 -10.9178 14.3657)
(-6.77721e-13 -11.3016 16.6338)
(-8.54817e-13 -11.5545 15.4322)
(-8.58536e-13 -11.6821 15.6152)
(-8.534e-13 -11.7256 15.6668)
(-8.32102e-13 -11.7821 15.7927)
(-7.38478e-13 -11.8251 16.0259)
(-6.02155e-13 -11.9323 16.3136)
(-5.74399e-13 -11.9165 16.3729)
(-5.10702e-13 -11.9492 16.5226)
(-4.64379e-13 -12.142 16.6762)
(-2.04354e-13 -12.0613 18.3727)
(-3.47303e-13 -12.6721 17.5027)
(-3.25612e-13 -12.6985 17.7234)
(-3.52069e-13 -12.7316 17.8146)
(-3.97478e-13 -12.7814 17.9456)
(-4.64254e-13 -12.7941 18.0949)
(-5.19226e-13 -12.85 18.4499)
(-5.35546e-13 -12.8112 18.5836)
(-5.55502e-13 -12.99 18.6403)
(-5.26623e-13 -12.4043 19.1366)
(-6.14506e-13 -13.2747 18.489)
(-6.3296e-13 -13.2134 18.8068)
(-6.30852e-13 -13.2636 19.0592)
(-6.14315e-13 -13.2108 19.0987)
(-6.02804e-13 -13.2461 19.21)
(-5.83634e-13 -13.2266 19.3149)
(-5.65021e-13 -13.1462 19.4701)
(-5.52819e-13 -13.3676 19.8638)
(-5.12324e-13 -12.0469 18.983)
(-4.9955e-13 -13.3378 18.9262)
(-5.28389e-13 -13.1719 18.9852)
(-5.60616e-13 -13.1661 19.0474)
(-5.88665e-13 -13.1351 19.3149)
(-5.9892e-13 -13.0858 19.3095)
(-6.06911e-13 -13.0004 19.2317)
(-6.11049e-13 -12.913 19.1706)
(-6.07167e-13 -12.955 19.0574)
(-5.01711e-13 -11.3206 17.2883)
(-5.61089e-13 -12.6724 18.0369)
(-5.33575e-13 -12.3296 17.8868)
(-5.0922e-13 -12.3453 17.8747)
(-4.77866e-13 -12.2089 17.8173)
(-4.35845e-13 -12.0915 17.8087)
(-3.50358e-13 -12.0455 18.0845)
(-3.8026e-13 -11.8332 17.6213)
(-3.74664e-13 -11.6736 17.2891)
(-3.85062e-13 -11.5434 16.7269)
(-3.35202e-13 -9.00789 12.063)
(-4.35414e-13 -10.8454 13.8037)
(-4.44409e-13 -10.3045 12.961)
(-4.70889e-13 -10.3102 12.4151)
(-4.92689e-13 -9.96483 11.6783)
(-5.23179e-13 -9.87055 10.8303)
(-5.9957e-13 -9.68546 9.3982)
(-6.66035e-13 -9.21177 8.02024)
(-5.92515e-13 -9.15129 7.99149)
(-2.51152e-13 -8.24732 4.64474)
(-3.75498e-13 -9.08464 5.57905)
(-2.977e-13 -8.99431 4.84899)
(6.51416e-14 -6.52139 0.407886)
(-2.09484e-13 -11.5516 3.49952)
(-2.10074e-13 -11.6989 1.51856)
(-1.75138e-13 -10.6437 0.886291)
(-2.43326e-13 -14.8994 1.21806)
(-1.53e-13 -10.6167 0.255395)
(-2.16236e-13 -15.0916 0.444443)
(-1.3381e-13 -15.531 -0.877134)
(-9.25196e-14 -12.3641 -1.13883)
(-1.45411e-13 -16.3799 -1.839)
(-1.25034e-13 -16.0646 -2.80202)
(-1.0216e-13 -13.71 -2.64017)
(-1.41911e-13 -17.503 -3.93731)
(-1.0667e-13 -12.0167 -3.34419)
(-1.56234e-13 -15.1076 -5.3405)
(-1.17062e-13 -12.7767 -5.66101)
(-1.17719e-13 -10.6713 -5.06833)
(-1.68899e-13 -12.2085 -7.37159)
(-5.96194e-14 -8.2636 -5.89086)
(-1.20694e-13 -8.50458 -9.20935)
(-1.24495e-13 -6.32777 -8.85569)
(-1.29687e-13 -4.72514 -7.83975)
(-2.38037e-13 -1.41094 -11.6746)
(-3.49048e-13 -0.0297654 -9.7301)
(-2.69846e-13 -0.866254 -5.19045)
(-2.20649e-13 5.14924 -9.14674)
(-1.27738e-13 3.4262 -6.5809)
(-2.07071e-13 5.79439 -8.40061)
(-2.11146e-13 9.42372 -9.49809)
(-1.4053e-13 7.36861 -6.0366)
(-1.668e-13 13.2799 -7.96592)
(-1.20403e-13 10.5291 -5.47757)
(-1.25759e-13 13.4613 -6.46272)
(-1.72187e-13 16.0885 -6.18426)
(-1.24473e-13 13.0116 -3.86717)
(-1.33299e-13 16.9935 -4.22405)
(-1.80283e-13 19.5193 -3.2119)
(-1.24768e-13 14.2995 -1.95408)
(-1.64348e-13 21.8287 -1.63053)
(-1.16517e-13 16.3689 -0.921438)
(-1.43593e-13 19.1088 -0.512183)
(-1.30507e-13 21.2687 1.63464)
(-7.2038e-14 15.5253 1.28703)
(-1.30728e-13 22.781 2.96581)
(-1.07162e-13 16.6458 2.40191)
(-1.1012e-13 18.911 3.51044)
(-1.58518e-13 20.6577 4.85226)
(-1.13577e-13 16.0846 3.71302)
(-1.34828e-13 19.117 4.02488)
(-1.7251e-13 25.4167 -7.28731)
(-1.14656e-13 20.1043 -4.94066)
(-1.40404e-13 30.5945 -14.0669)
(-9.25179e-14 25.2517 -10.6346)
(-1.24231e-13 29.9953 -15.7002)
(-1.6795e-13 33.0978 -22.024)
(-1.14333e-13 25.9222 -15.0254)
(-1.695e-13 35.701 -23.6269)
(-1.29047e-13 27.2981 -17.8038)
(-1.56301e-13 30.8475 -25.1376)
(-1.93272e-13 25.6978 -39.0724)
(-1.29231e-13 17.3013 -28.0025)
(-2.1843e-13 21.4494 -44.8455)
(-2.42619e-13 15.9223 -69.842)
(-1.43268e-13 -6.02726 -51.2529)
(-2.61001e-13 17.6985 -68.3095)
(-1.09909e-13 -16.2256 -19.0899)
(-1.03591e-13 -0.416983 -18.217)
(1.43207e-13 -52.9166 35.4668)
(2.22336e-13 -58.6062 49.6482)
(3.45187e-13 -98.744 79.523)
(3.56696e-13 -89.9682 84.0608)
(5.90829e-13 -142.176 141.072)
(6.91218e-13 -208.377 167.18)
(6.09757e-13 -180.546 152.776)
(9.63391e-13 -265.276 243.547)
(9.74809e-13 -321.493 253.34)
(8.30295e-13 -307.078 221.83)
(1.201e-12 -465.344 321.195)
(9.5061e-13 -378.828 260.566)
(1.50898e-12 -534.892 416.467)
(-3.3728e-27 7.25319 7.76587)
(-3.44365e-26 9.21062 7.61221)
(-1.03315e-25 10.4897 7.58421)
(-1.62689e-25 11.7485 7.54294)
(1.50256e-25 12.9623 7.56306)
(1.89076e-24 14.0873 7.59722)
(6.32258e-24 15.1631 7.6601)
(1.02921e-23 16.1781 7.72036)
(-7.00744e-24 17.1463 7.77059)
(-9.93008e-23 18.0642 7.80928)
(-3.19987e-22 18.9342 7.8668)
(-5.11037e-22 19.7711 7.99506)
(2.46546e-22 20.613 8.27714)
(4.46731e-21 21.469 8.79587)
(1.64546e-20 22.3172 9.58764)
(3.99362e-20 23.1549 10.5823)
(7.25054e-20 24.017 11.6136)
(9.99596e-20 24.9319 12.5555)
(9.57591e-20 25.8755 13.3958)
(4.20077e-20 26.7907 14.1546)
(1.03961e-20 27.6708 14.8289)
(2.59284e-19 28.628 15.4577)
(9.25722e-19 29.8052 16.1349)
(3.52258e-19 31.2496 16.9548)
(-7.17003e-18 32.895 17.9616)
(-2.49814e-17 34.6273 19.15)
(-2.45723e-17 36.3302 20.5109)
(9.06691e-17 37.8875 22.0416)
(4.46926e-16 39.2722 23.7373)
(1.01339e-15 40.5493 25.6648)
(1.34048e-15 41.7459 27.8184)
(5.68876e-16 42.9174 30.1339)
(-2.05174e-15 44.1359 32.5469)
(-6.55695e-15 45.4381 35.0116)
(-1.21663e-14 46.8416 37.517)
(-1.77827e-14 48.3612 40.088)
(-2.25377e-14 50.013 42.7734)
(-2.58679e-14 51.8111 45.6334)
(-2.71575e-14 53.7619 48.733)
(-2.52918e-14 55.842 52.1052)
(-1.85259e-14 58.0087 55.7352)
(-4.89819e-15 60.2259 59.5535)
(1.68631e-14 62.4763 63.4463)
(4.64306e-14 64.7486 67.2688)
(8.16129e-14 67.0107 70.8627)
(1.18969e-13 69.148 74.077)
(1.54675e-13 70.7433 76.7675)
(1.84229e-13 70.5393 78.6784)
(2.00654e-13 65.8814 79.0928)
(1.95371e-13 54.047 76.5993)
(1.69863e-13 37.6213 70.6096)
(1.47462e-13 26.5319 64.611)
(1.45068e-13 24.6454 62.5493)
(1.4981e-13 24.8106 62.4043)
(1.51506e-13 23.1073 61.8963)
(1.51341e-13 20.6329 61.2774)
(1.51817e-13 18.2146 61.0552)
(1.53252e-13 15.7283 61.2781)
(1.55682e-13 13.1148 61.9803)
(1.59362e-13 10.4204 63.2045)
(1.64029e-13 7.65157 64.8192)
(1.68933e-13 4.82378 66.5455)
(1.73516e-13 2.01688 68.1643)
(1.77892e-13 -0.677627 69.6939)
(1.83328e-13 -3.35559 71.544)
(1.91776e-13 -6.31565 74.3759)
(2.03341e-13 -9.81772 78.2157)
(2.18919e-13 -14.116 83.3444)
(2.39527e-13 -19.5497 90.0656)
(2.66604e-13 -26.5613 98.8012)
(3.02135e-13 -35.8036 110.12)
(3.48921e-13 -48.2727 124.806)
(4.11049e-13 -65.5197 143.98)
(4.94663e-13 -90.0104 169.273)
(6.09279e-13 -125.775 203.172)
(7.6934e-13 -179.052 249.438)
(9.94573e-13 -258.934 313.53)
(1.29796e-12 -371.148 399.55)
(1.61243e-12 -494.715 482.531)
(-5.33436e-27 7.28185 8.31645)
(-4.95673e-26 9.24053 8.08815)
(-1.42974e-25 10.5004 8.07393)
(-2.04174e-25 11.7508 8.03678)
(3.13943e-25 12.9527 8.07652)
(2.91583e-24 14.071 8.12475)
(9.11659e-24 15.143 8.19844)
(1.31592e-23 16.1603 8.25805)
(-1.73703e-23 17.1322 8.2964)
(-1.58901e-22 18.0489 8.3173)
(-4.61174e-22 18.9042 8.36416)
(-5.95369e-22 19.7045 8.50326)
(9.06515e-22 20.4836 8.82973)
(7.35467e-21 21.2588 9.42772)
(2.28939e-20 22.033 10.3098)
(4.85364e-20 22.835 11.3638)
(7.78807e-20 23.707 12.4059)
(9.64382e-20 24.6517 13.3379)
(8.56301e-20 25.6227 14.1775)
(5.00589e-20 26.5626 14.9487)
(1.04456e-19 27.4614 15.6429)
(5.18056e-19 28.4162 16.2934)
(1.1835e-18 29.5619 16.9899)
(-3.92695e-19 30.9544 17.8291)
(-1.06826e-17 32.5427 18.8652)
(-2.94277e-17 34.2201 20.1014)
(-1.36436e-17 35.8697 21.5333)
(1.53159e-16 37.3751 23.1604)
(5.87358e-16 38.6979 24.9625)
(1.18291e-15 39.9046 26.9872)
(1.37517e-15 41.0422 29.2196)
(2.73048e-16 42.1745 31.5885)
(-2.72682e-15 43.3704 34.0356)
(-7.43143e-15 44.6582 36.5265)
(-1.2943e-14 46.0444 39.0664)
(-1.82362e-14 47.5345 41.6948)
(-2.25865e-14 49.1395 44.4686)
(-2.54794e-14 50.8712 47.4455)
(-2.61888e-14 52.7408 50.683)
(-2.33874e-14 54.7375 54.2029)
(-1.51584e-14 56.8348 57.9757)
(4.13473e-16 59.0115 61.9168)
(2.42572e-14 61.2617 65.9022)
(5.55298e-14 63.5805 69.7858)
(9.16183e-14 65.9371 73.4154)
(1.28969e-13 68.2143 76.6482)
(1.63979e-13 70.0106 79.3478)
(1.926e-13 70.1539 81.2777)
(2.08455e-13 66.1656 81.7901)
(2.03454e-13 55.3225 79.5733)
(1.78462e-13 39.49 73.9064)
(1.55114e-13 27.8093 67.8488)
(1.51348e-13 24.9926 65.5014)
(1.56222e-13 24.8913 65.3062)
(1.58611e-13 23.2619 64.8621)
(1.58853e-13 20.7513 64.2626)
(1.59368e-13 18.21 63.9584)
(1.6048e-13 15.594 63.9744)
(1.62034e-13 12.8427 64.2839)
(1.64268e-13 10.017 64.928)
(1.67418e-13 7.16396 65.9514)
(1.71431e-13 4.31421 67.326)
(1.76071e-13 1.50702 68.9545)
(1.81323e-13 -1.24253 70.7963)
(1.87994e-13 -4.09277 73.0808)
(1.97304e-13 -7.30385 76.1983)
(2.0975e-13 -11.1028 80.3162)
(2.26269e-13 -15.7749 85.7252)
(2.47922e-13 -21.6772 92.7499)
(2.762e-13 -29.2861 101.825)
(3.13163e-13 -39.3014 113.536)
(3.61709e-13 -52.7909 128.687)
(4.26057e-13 -71.4167 148.417)
(5.12515e-13 -97.8226 174.374)
(6.31009e-13 -136.327 209.155)
(7.97329e-13 -193.608 257.038)
(1.03463e-12 -278.753 325.066)
(1.35178e-12 -393.397 415.676)
(1.60996e-12 -497.799 471.147)
(-8.25398e-27 7.30715 8.59397)
(-6.37845e-26 9.26108 8.34828)
(-1.70971e-25 10.5039 8.34991)
(-2.05017e-25 11.749 8.31678)
(5.46336e-25 12.9442 8.36727)
(3.88522e-24 14.0605 8.42242)
(1.11706e-23 15.1331 8.49929)
(1.37651e-23 16.1549 8.55359)
(-3.02586e-23 17.1311 8.58003)
(-2.11052e-22 18.0468 8.58772)
(-5.59771e-22 18.8908 8.62942)
(-5.86861e-22 19.6655 8.78132)
(1.60613e-21 20.4048 9.14411)
(9.82867e-21 21.1348 9.7961)
(2.78723e-20 21.8769 10.7267)
(5.47158e-20 22.6735 11.7993)
(8.13416e-20 23.5601 12.8341)
(9.27714e-20 24.5207 13.758)
(7.60173e-20 25.5026 14.6002)
(5.5033e-20 26.4524 15.38)
(1.75068e-19 27.3604 16.0873)
(6.79119e-19 28.3165 16.7555)
(1.18672e-18 29.4496 17.4704)
(-1.42397e-18 30.8162 18.3269)
(-1.35379e-17 32.3718 19.3837)
(-3.05904e-17 34.0149 20.6505)
(1.49833e-18 35.6304 22.1252)
(2.07968e-16 37.1039 23.8069)
(6.86085e-16 38.3965 25.6709)
(1.27054e-15 39.5731 27.7466)
(1.33952e-15 40.6881 30.0142)
(2.74705e-17 41.8074 32.4032)
(-3.1506e-15 42.9962 34.865)
(-7.88966e-15 44.2767 37.3747)
(-1.32788e-14 45.6499 39.9469)
(-1.83639e-14 47.1182 42.6271)
(-2.24799e-14 48.6924 45.4741)
(-2.50892e-14 50.386 48.5409)
(-2.53617e-14 52.2132 51.875)
(-2.18489e-14 54.1703 55.4873)
(-1.25907e-14 56.2387 59.3382)
(4.20796e-15 58.4044 63.3374)
(2.92003e-14 60.6646 67.3602)
(6.12438e-14 63.0158 71.2659)
(9.7565e-14 65.4257 74.9103)
(1.34661e-13 67.776 78.1578)
(1.69138e-13 69.6722 80.8763)
(1.97215e-13 69.9783 82.8365)
(2.12814e-13 66.2905 83.4206)
(2.08045e-13 55.8933 81.3624)
(1.83391e-13 40.3501 75.8695)
(1.59621e-13 28.4413 69.7779)
(1.55237e-13 25.2103 67.2701)
(1.60176e-13 24.9557 67.047)
(1.62932e-13 23.3446 66.666)
(1.63517e-13 20.8302 66.1334)
(1.64292e-13 18.2563 65.8698)
(1.65677e-13 15.6103 65.9342)
(1.67544e-13 12.8325 66.313)
(1.70003e-13 9.96808 66.9961)
(1.73124e-13 7.05202 67.977)
(1.76946e-13 4.12545 69.2623)
(1.81518e-13 1.24336 70.8545)
(1.87022e-13 -1.60047 72.7731)
(1.94398e-13 -4.59751 75.2791)
(2.04508e-13 -8.00851 78.6409)
(2.17893e-13 -12.0598 83.0366)
(2.3547e-13 -17.0511 88.7521)
(2.5836e-13 -23.3571 96.1233)
(2.88096e-13 -31.4828 105.598)
(3.26812e-13 -42.1684 117.776)
(3.77512e-13 -56.5422 133.476)
(4.44522e-13 -76.3591 153.837)
(5.34369e-13 -104.422 180.538)
(6.58034e-13 -145.39 216.562)
(8.34592e-13 -206.513 267.524)
(1.08971e-12 -296.289 341.742)
(1.40699e-12 -408.92 432.44)
(1.55821e-12 -476.315 447.817)
(-1.2467e-26 7.33716 8.91888)
(-8.10228e-26 9.28441 8.65698)
(-1.99275e-25 10.5079 8.67269)
(-1.82885e-25 11.7465 8.64444)
(8.78799e-25 12.9329 8.70852)
(5.08966e-24 14.046 8.77298)
(1.34245e-23 15.1191 8.85351)
(1.34906e-23 16.1465 8.90117)
(-4.78244e-23 17.1278 8.91354)
(-2.74668e-22 18.0415 8.90592)
(-6.69147e-22 18.8691 8.94176)
(-5.40054e-22 19.608 9.10907)
(2.52186e-21 20.2924 9.51494)
(1.2884e-20 20.9611 10.2294)
(3.38909e-20 21.6586 11.2149)
(6.22101e-20 22.4446 12.3094)
(8.5878e-20 23.3467 13.3389)
(8.95012e-20 24.3275 14.2559)
(6.73672e-20 25.3247 15.101)
(6.63543e-20 26.2891 15.8899)
(2.61139e-19 27.2086 16.6106)
(8.43094e-19 28.1629 17.2958)
(1.09316e-18 29.2749 18.0291)
(-2.76883e-18 30.6043 18.9053)
(-1.67194e-17 32.1153 19.9881)
(-3.07959e-17 33.7131 21.2929)
(2.16608e-17 35.284 22.8201)
(2.74154e-16 36.7153 24.5661)
(7.99759e-16 37.965 26.5012)
(1.36626e-15 39.0984 28.6368)
(1.29241e-15 40.1797 30.9476)
(-2.54519e-16 41.2775 33.3634)
(-3.63024e-15 42.4523 35.8459)
(-8.40958e-15 43.7197 38.3813)
(-1.3665e-14 45.0733 40.9944)
(-1.85133e-14 46.5108 43.7367)
(-2.23501e-14 48.0422 46.6685)
(-2.46116e-14 49.6824 49.8376)
(-2.43554e-14 51.4503 53.2808)
(-2.0004e-14 53.3517 56.9977)
(-9.55893e-15 55.3785 60.9388)
(8.63199e-15 57.5255 65.0076)
(3.49141e-14 59.7954 69.0793)
(6.78197e-14 62.1867 73.0188)
(1.04405e-13 64.6668 76.6909)
(1.41228e-13 67.1163 79.9691)
(1.75124e-13 69.1508 82.7286)
(2.02619e-13 69.6865 84.75)
(2.17984e-13 66.4315 85.4423)
(2.13573e-13 56.6951 83.5652)
(1.89409e-13 41.6225 78.2282)
(1.65123e-13 29.4058 72.0341)
(1.59797e-13 25.5194 69.3061)
(1.64684e-13 25.0142 69.062)
(1.67894e-13 23.4314 68.768)
(1.68882e-13 20.9073 68.3042)
(1.69882e-13 18.2633 68.0576)
(1.71383e-13 15.5373 68.106)
(1.73335e-13 12.6801 68.4647)
(1.75883e-13 9.74362 69.1426)
(1.79115e-13 6.7665 70.1381)
(1.83064e-13 3.78447 71.4569)
(1.87796e-13 0.843434 73.1099)
(1.93586e-13 -2.08047 75.1286)
(2.01554e-13 -5.20417 77.8185)
(2.12387e-13 -8.78534 81.3962)
(2.2666e-13 -13.0525 86.0523)
(2.45291e-13 -18.319 92.0707)
(2.69434e-13 -24.9755 99.7972)
(3.00675e-13 -33.5516 109.692)
(3.41211e-13 -44.8218 122.364)
(3.94101e-13 -59.9626 138.627)
(4.63766e-13 -80.8122 159.621)
(5.57276e-13 -110.373 187.2)
(6.87733e-13 -153.777 225.206)
(8.77771e-13 -218.76 280.794)
(1.14758e-12 -311.572 360.446)
(1.44292e-12 -416.692 443.671)
(1.50738e-12 -454.029 430.416)
(-1.83793e-26 7.36861 9.21884)
(-1.00532e-25 9.30592 8.95265)
(-2.21628e-25 10.5093 8.9831)
(-1.18467e-25 11.7412 8.96187)
(1.33911e-24 12.9192 9.04005)
(6.49095e-24 14.031 9.11325)
(1.55395e-23 15.1071 9.19501)
(1.13987e-23 16.1421 9.23322)
(-7.10238e-23 17.1294 9.22953)
(-3.46767e-22 18.0403 9.20627)
(-7.72812e-22 18.8489 9.23795)
(-4.18e-22 19.5488 9.42479)
(3.67863e-21 20.1771 9.87871)
(1.64032e-20 20.789 10.6568)
(4.04989e-20 21.4524 11.6908)
(7.02563e-20 22.2382 12.7979)
(9.0906e-20 23.1597 13.8177)
(8.68992e-20 24.1578 14.7282)
(6.09497e-20 25.1664 15.5771)
(8.46331e-20 26.1423 16.3751)
(3.54983e-19 27.0714 17.1088)
(9.74648e-19 28.0243 17.8111)
(8.21104e-19 29.1179 18.564)
(-4.48848e-18 30.4133 19.4618)
(-1.99413e-17 31.8815 20.5732)
(-2.89304e-17 33.4342 21.9183)
(4.81708e-17 34.9608 23.4989)
(3.49406e-16 36.3508 25.3075)
(9.16321e-16 37.5632 27.3105)
(1.44712e-15 38.6623 29.5022)
(1.21404e-15 39.7189 31.851)
(-5.60919e-16 40.8016 34.2903)
(-4.10025e-15 41.9653 36.7936)
(-8.87978e-15 43.219 39.3591)
(-1.39799e-14 44.5504 42.0208)
(-1.85904e-14 45.9542 44.834)
(-2.21485e-14 47.4419 47.8585)
(-2.4041e-14 49.0312 51.1351)
(-2.32055e-14 50.7461 54.6884)
(-1.79532e-14 52.6007 58.5063)
(-6.28684e-15 54.596 62.5304)
(1.32614e-14 56.7334 66.6606)
(4.0716e-14 59.0185 70.7746)
(7.43159e-14 61.4501 74.7452)
(1.11007e-13 63.9947 78.4478)
(1.47458e-13 66.5318 81.7656)
(1.80758e-13 68.6861 84.581)
(2.0773e-13 69.4185 86.6831)
(2.22969e-13 66.5323 87.5013)
(2.19051e-13 57.3683 85.8128)
(1.95504e-13 42.7303 80.6289)
(1.70738e-13 30.2804 74.3135)
(1.64345e-13 25.8211 71.321)
(1.69072e-13 25.0681 71.0314)
(1.72714e-13 23.4945 70.8336)
(1.74144e-13 20.9725 70.4633)
(1.75455e-13 18.2878 70.2714)
(1.77186e-13 15.5114 70.3467)
(1.79321e-13 12.5995 70.7236)
(1.82029e-13 9.60292 71.4225)
(1.85425e-13 6.56011 72.4503)
(1.89551e-13 3.50695 73.8215)
(1.9449e-13 0.481146 75.5521)
(2.0058e-13 -2.56733 77.6769)
(2.09119e-13 -5.86019 80.5485)
(2.20639e-13 -9.6473 84.3333)
(2.35764e-13 -14.1652 89.2422)
(2.55427e-13 -19.7432 95.5612)
(2.80825e-13 -26.7902 103.647)
(3.13573e-13 -35.8615 113.967)
(3.55899e-13 -47.765 127.125)
(4.10885e-13 -63.7287 143.92)
(4.83186e-13 -85.7092 165.554)
(5.81029e-13 -117.028 194.336)
(7.20459e-13 -163.409 235.335)
(9.25814e-13 -232.619 296.493)
(1.20429e-12 -327.049 379.121)
(1.46326e-12 -421.425 448.215)
(1.41657e-12 -431.125 399.122)
(-2.63481e-26 7.40065 9.51476)
(-1.21692e-25 9.32573 9.25091)
(-2.32795e-25 10.5089 9.295)
(4.13702e-27 11.7338 9.28253)
(1.95134e-24 12.9034 9.37532)
(8.07244e-24 14.015 9.45668)
(1.73088e-23 15.0956 9.53744)
(6.88386e-24 16.1399 9.56383)
(-1.00702e-22 17.1336 9.54263)
(-4.26699e-22 18.0402 9.50384)
(-8.63499e-22 18.8259 9.5336)
(-1.98521e-22 19.4807 9.74464)
(5.11646e-21 20.0475 10.2518)
(2.04294e-20 20.6012 11.0946)
(4.77268e-20 21.2338 12.1717)
(7.88979e-20 22.0233 13.2851)
(9.65957e-20 22.965 14.2937)
(8.57054e-20 23.9795 15.1992)
(5.90188e-20 24.9989 16.0526)
(1.13651e-19 25.9862 16.8597)
(4.57094e-19 26.9244 17.6063)
(1.05943e-18 27.8749 18.3259)
(3.37657e-19 28.9484 19.0995)
(-6.58204e-18 30.2071 20.0216)
(-2.30188e-17 31.6294 21.1647)
(-2.44859e-17 33.1336 22.5534)
(8.16769e-17 34.6129 24.1898)
(4.33986e-16 35.9595 26.0611)
(1.03576e-15 37.1334 28.1304)
(1.51461e-15 38.1989 30.3769)
(1.10825e-15 39.2317 32.7626)
(-8.90034e-16 40.2991 35.2257)
(-4.57006e-15 41.4492 37.7529)
(-9.32567e-15 42.6854 40.3546)
(-1.42587e-14 43.9898 43.0733)
(-1.86274e-14 45.355 45.9661)
(-2.18934e-14 46.7943 49.0903)
(-2.33799e-14 48.3296 52.4784)
(-2.1903e-14 49.9902 56.1421)
(-1.56806e-14 51.7986 60.0583)
(-2.7508e-15 53.764 64.1606)
(1.81388e-14 55.8936 68.3481)
(4.66883e-14 58.1956 72.5028)
(8.08724e-14 60.6687 76.5072)
(1.17571e-13 63.2782 80.2474)
(1.53599e-13 65.9033 83.6168)
(1.86307e-13 68.1784 86.5053)
(2.12804e-13 69.1101 88.7102)
(2.28004e-13 66.6023 89.6773)
(2.24699e-13 58.0407 88.1925)
(2.01907e-13 43.8973 83.1629)
(1.76709e-13 31.2508 76.7032)
(1.69091e-13 26.1731 73.3934)
(1.73504e-13 25.1181 73.0282)
(1.77552e-13 23.539 72.9292)
(1.79449e-13 21.0199 72.664)
(1.81103e-13 18.2903 72.5432)
(1.83097e-13 15.4544 72.6607)
(1.85445e-13 12.4764 73.0685)
(1.88352e-13 9.41125 73.8032)
(1.9194e-13 6.3001 74.8812)
(1.96267e-13 3.17932 76.321)
(2.01441e-13 0.0800131 78.1376)
(2.07847e-13 -3.08099 80.3675)
(2.16959e-13 -6.54171 83.4188)
(2.2915e-13 -10.5387 87.4078)
(2.45112e-13 -15.3187 92.5668)
(2.65804e-13 -21.225 99.1856)
(2.92446e-13 -28.6851 107.629)
(3.26664e-13 -38.2776 118.36)
(3.70686e-13 -50.8428 131.965)
(4.27665e-13 -67.6749 149.251)
(5.02821e-13 -90.9162 171.633)
(6.06265e-13 -124.332 202.187)
(7.56976e-13 -174.2 247.194)
(9.77251e-13 -247.531 313.799)
(1.25445e-12 -341.594 395.469)
(1.46093e-12 -421.721 445.1)
(1.31363e-12 -399.209 367.294)
(-3.66998e-26 7.43274 9.8042)