/*--------------------------------*- C++ -*----------------------------------*\
| =========                 |                                                 |
| \\      /  F ield         | OpenFOAM: The Open Source CFD Toolbox           |
|  \\    /   O peration     | Version:  4.1                                   |
|   \\  /    A nd           | Web:      www.OpenFOAM.org                      |
|    \\/     M anipulation  |                                                 |
\*---------------------------------------------------------------------------*/
FoamFile
{
    version     2.0;
    format      ascii;
    class       volScalarField;
    location    "1";
    object      p;
}
// * * * * * * * * * * * * * * * * * * * * * * * * * * * * * * * * * * * * * //

dimensions      [0 2 -2 0 0 0 0];

internalField   nonuniform List<scalar> 
225
(
515.104
462.202
410.87
362.756
317.956
275.986
236.644
199.583
164.348
130.765
99.5187
71.0451
41.7653
6.55107
-23.5085
57.8154
37.992
29.0444
22.2898
16.1227
10.0834
4.4313
-0.588105
-4.69917
-7.78649
-9.58534
-9.79612
-8.42644
-6.27432
-6.01525
-54.343
-63.0309
-60.0789
-56.1258
-52.9481
-50.1235
-47.213
-44.1402
-40.918
-37.6839
-34.4881
-31.1857
-28.1492
-26.1297
-25.7948
-35.0139
-39.5946
-35.0465
-31.9936
-30.2305
-28.9029
-27.7571
-26.8065
-26.1065
-25.7362
-25.6039
-25.5382
-25.4239
-25.4889
-25.5268
-15.5523
-18.0061
-14.4008
-13.4668
-13.6581
-14.0288
-14.4593
-14.9822
-15.5838
-16.2887
-17.0554
-17.6648
-17.9956
-18.1227
-17.9737
-9.12241
-10.4974
-8.08738
-8.40008
-9.51755
-10.4382
-11.1872
-11.8635
-12.4881
-13.0708
-13.621
-14.1193
-14.2826
-14.162
-13.913
-7.38351
-8.17085
-6.65036
-7.36402
-8.50871
-9.19734
-9.60447
-9.89668
-10.0875
-10.1949
-10.2451
-10.2457
-10.1664
-9.99523
-9.7424
-6.97836
-7.37807
-6.37693
-7.10342
-8.01343
-8.36423
-8.44662
-8.46085
-8.42422
-8.32903
-8.1833
-8.04098
-7.79694
-7.49232
-7.214
-6.57266
-6.73172
-6.03234
-6.62285
-7.19844
-7.16822
-6.91147
-6.65041
-6.3659
-6.04443
-5.69066
-5.35047
-5.0573
-4.81023
-4.61483
-6.22832
-6.28522
-5.80893
-6.27123
-6.58983
-6.33602
-5.93605
-5.59104
-5.26718
-4.93783
-4.58865
-4.27751
-3.95187
-3.65474
-3.47761
-5.68419
-5.68998
-5.36236
-5.69915
-5.78271
-5.34476
-4.8447
-4.44433
-4.06578
-3.67902
-3.27726
-2.90269
-2.5974
-2.38225
-2.30491
-4.52906
-4.4772
-4.24138
-4.49425
-4.4474
-3.9587
-3.49357
-3.17294
-2.91135
-2.67263
-2.44279
-2.2668
-2.07251
-1.87873
-1.79838
-3.05296
-2.91136
-2.68821
-2.85867
-2.70688
-2.16231
-1.7061
-1.44065
-1.25169
-1.10116
-0.980318
-0.902819
-0.889152
-0.88534
-0.862467
-1.37543
-1.12944
-0.850025
-0.936329
-0.783414
-0.341905
-0.0609538
-0.0015895
-0.0270148
-0.0942696
-0.178165
-0.311478
-0.392521
-0.418597
-0.355741
-0.456311
-0.233799
0.0424065
0.0538576
0.261489
0.622898
0.805515
0.794293
0.765327
0.742005
0.751105
0.745003
0.65516
0.519337
0.524339
)
;

boundaryField
{
    inletFace
    {
        type            zeroGradient;
    }
    inlet
    {
        type            zeroGradient;
    }
    inletWalls
    {
        type            zeroGradient;
    }
    outletInlet
    {
        type            fixedValue;
        value           uniform 0;
    }
}


// ************************************************************************* //
