/*--------------------------------*- C++ -*----------------------------------*\
| =========                 |                                                 |
| \\      /  F ield         | OpenFOAM: The Open Source CFD Toolbox           |
|  \\    /   O peration     | Version:  4.1                                   |
|   \\  /    A nd           | Web:      www.OpenFOAM.org                      |
|    \\/     M anipulation  |                                                 |
\*---------------------------------------------------------------------------*/
FoamFile
{
    version     2.0;
    format      ascii;
    class       surfaceScalarField;
    location    "1";
    object      phi;
}
// * * * * * * * * * * * * * * * * * * * * * * * * * * * * * * * * * * * * * //

dimensions      [0 3 -1 0 0 0 0];

internalField   nonuniform List<scalar> 
420
(
-937.937
2242.15
-1549.65
1916.14
-2010.9
1765.23
-2366.84
1659.7
-2632.89
1570.1
-2813.66
1484.19
-2910.52
1400.17
-2923.74
1316.5
-2853.09
1231.97
-2695.54
1145.27
-2446.33
1053.02
-2084.56
941.572
-1581.99
801.128
-929.478
651.499
370.602
366.256
1896.87
458.798
1846.86
482.176
1767.02
466.045
1700.36
446.301
1615.72
429.733
1525.54
420.349
1436.07
411.816
1347.03
409.093
1260.05
398.302
1177.48
369.718
1097.46
328.796
1012.9
247.544
915.666
151.013
780.321
522.646
16.6445
1890.37
-90.3103
1962.89
-248.127
1936.41
-383.75
1847.24
-489.69
1738.86
-586.089
1635.21
-668.961
1537.08
-751.36
1441.46
-820.164
1347.16
-873.892
1257.62
-938.441
1170.71
-908.588
1057.61
-777.073
862.214
-429.533
517.05
92.6488
49.2863
1837.93
-97.5893
2106.48
-254.932
2091
-366.159
1956.11
-450.43
1819.09
-512.592
1698.41
-560.496
1583.59
-582.068
1470.05
-589.219
1358.14
-583.413
1250.65
-542.712
1142.94
-522.721
995
-429.94
725.516
-236.679
277.149
-144.209
165.345
1661.16
107.122
2154.52
46.7578
2137.99
21.0267
1970.29
8.20647
1817.72
3.16545
1690.3
2.32828
1569.98
7.09092
1449.08
20.8633
1329.77
39.5476
1215.78
58.8239
1103.71
88.7318
959.59
91.7776
699.658
79.0665
266.75
-65.6125
202.667
1447.85
196.919
2149.99
171.87
2152.65
172.191
1958.01
182.399
1794.26
193.701
1665.85
202.091
1545.86
214.225
1425.96
220.524
1306.27
228.673
1191.47
244.65
1081.57
215.352
948.523
147.082
716.516
37.8081
322.824
-27.9313
202.745
1238.74
233.815
2112.11
214.784
2166.14
208.918
1956.9
214.665
1782.78
216.493
1656.93
216.984
1539.45
214.603
1420.97
211.476
1303.37
206.92
1188.96
202.866
1079.57
191.327
953.646
154.234
741.207
82.4109
381.628
54.3952
189.574
1045.29
246.108
2050.27
231.561
2177.92
213.121
1970.02
206.084
1786.51
196.829
1661.5
184.559
1547.58
172.095
1430.29
156.862
1313.54
141.629
1200.57
126.831
1091.23
105.24
968.241
68.5448
768.92
8.35791
432.665
62.6807
169.897
872.195
246.425
1969.63
239.767
2182.04
218.027
1987.58
204.099
1797.35
190.475
1671.09
176.664
1558.16
161.664
1441.84
147.184
1324.73
132.856
1211.32
119.258
1101.68
104.404
978.396
82.6472
783.329
50.9377
457.05
113.572
141.598
726.944
226.204
1881.16
225.371
2179.55
199.107
2009.85
177.905
1814.88
157.961
1687.02
138.765
1573.7
120.127
1456.8
100.964
1340.18
82.4818
1226.45
65.6193
1116.06
47.5528
992.675
27.0161
798.723
0.928634
477.953
114.355
118.683
603.34
206.465
1789.34
214.692
2167.45
188.718
2031.89
164.154
1834.96
145.092
1702.53
126.277
1588.22
111.5
1469.63
97.0417
1351.74
82.0151
1237.81
72.8053
1125.81
51.4475
999.78
30.7648
803.567
13.5912
479.947
128.051
99.1539
500.87
190.256
1696.6
203.478
2150.86
177.556
2056.66
146.939
1863.02
123.736
1724.84
103.594
1607.4
83.4629
1488.2
64.9574
1369.35
48.5539
1254.88
28.7386
1143.11
23.6174
1016.51
17.4878
821.328
1.3773
506.753
129.125
84.7442
419.881
177.458
1606.33
202.195
2128.88
180.982
2079.78
157.707
1889.19
140.404
1744.23
127.727
1621.83
120.026
1499.62
113.033
1379.12
104.005
1261.84
110.68
1146.89
78.0135
1017.35
48.0229
820.593
16.3978
508.559
145.878
46.2098
381.162
145.272
1511.07
185.333
2093.48
163.114
2105.4
132.587
1925.84
107.923
1771.72
93.067
1644.06
73.2598
1519.34
58.6359
1398.14
45.0782
1281.84
19.1192
1166.74
36.813
1038.96
45.8394
849.463
27.9594
561.676
173.482
24.7677
95.8829
123.902
116.929
90.7612
78.0652
60.3182
54.2914
41.0174
40.8899
38.1782
34.8384
20.5323
20.382
)
;

boundaryField
{
    inletFace
    {
        type            calculated;
        value           nonuniform List<scalar> 
450
(
-2.20723e-14
6.622e-13
-1.10854e-13
-2.00138e-13
1.4042e-13
-1.86007e-13
-7.23467e-14
6.51594e-14
-1.07953e-13
-3.54569e-14
5.82538e-14
-2.97879e-14
-1.63379e-14
-2.03873e-14
7.41621e-15
-2.13173e-12
-2.22883e-12
7.12969e-14
-2.07534e-13
-1.76461e-13
8.55207e-15
-2.34366e-13
-1.21332e-13
2.96678e-15
-1.05539e-14
-2.12834e-14
4.58437e-14
7.22991e-15
-7.61579e-14
-6.10267e-14
-2.17603e-12
-2.50759e-12
-1.54468e-13
-1.92168e-13
-3.4605e-13
-1.51459e-13
-2.80496e-13
-4.36216e-14
-1.86782e-13
-1.925e-13
5.37067e-14
-8.84003e-15
1.30134e-13
1.08884e-13
-1.1444e-13
-2.50726e-12
-2.20134e-12
-1.4032e-13
-5.78993e-13
-2.95862e-13
-2.77462e-13
-5.33449e-13
-1.62052e-13
-2.95794e-13
-3.88765e-13
1.49521e-14
-1.48923e-13
-6.11599e-14
2.33341e-13
-7.16338e-14
-2.33618e-12
-2.23561e-12
-1.46909e-13
-6.17248e-13
-2.2419e-13
-3.27901e-13
-5.0584e-13
-3.04379e-13
-3.75712e-13
-1.86943e-13
-1.70796e-13
-2.44783e-13
-8.76984e-14
4.92748e-14
-5.11539e-15
-2.12757e-12
-2.60587e-12
-5.59615e-13
-5.37555e-13
-3.33442e-13
-3.30349e-13
-5.2362e-13
-4.35374e-13
-3.61029e-13
-3.9233e-13
-5.7173e-13
-1.78209e-13
-1.85637e-13
-1.19779e-13
1.60646e-13
-1.83418e-12
-2.65437e-12
-7.67522e-13
-4.84966e-13
-3.62362e-13
-3.29085e-13
-5.18839e-13
-3.66898e-13
-3.50499e-13
-4.78508e-13
-3.82791e-13
-2.25683e-13
-1.67435e-13
-3.48743e-14
3.31355e-14
-1.52346e-12
-2.55485e-12
-9.67819e-13
-5.0007e-13
-3.4369e-13
-3.35205e-13
-4.58881e-13
-3.70882e-13
-3.21382e-13
-3.51805e-13
-2.40415e-13
-2.2656e-13
-3.92545e-14
4.10582e-15
1.31785e-13
-1.31939e-12
-2.49928e-12
-1.126e-12
-5.34965e-13
-3.66581e-13
-1.76405e-13
-4.124e-13
-4.4164e-13
-2.37302e-13
-3.55475e-13
-3.29192e-13
-5.37888e-14
-1.0819e-13
-1.36146e-13
-9.53458e-14
-1.12547e-12
-2.41155e-12
-1.26093e-12
-5.92151e-13
-3.79144e-13
-1.98411e-13
-3.67035e-13
-4.21847e-13
-2.66289e-13
-2.5309e-13
-3.12002e-13
-1.51578e-13
-1.65558e-13
-2.56566e-13
-2.57465e-13
-9.9929e-13
-2.34981e-12
-1.49226e-12
-7.15474e-13
-3.82679e-13
-3.12494e-13
-4.02807e-13
-4.03231e-13
-2.55318e-13
-2.53073e-13
-2.88552e-13
-2.06533e-13
-1.33862e-13
-1.61953e-13
-1.98134e-13
-8.61637e-13
-2.27689e-12
-1.64814e-12
-8.33534e-13
-4.04631e-13
-3.33305e-13
-4.38986e-13
-3.988e-13
-3.05884e-13
-3.09642e-13
-2.75626e-13
-2.01814e-13
-1.66253e-13
-1.21997e-13
-1.92487e-13
-7.3479e-13
-2.14002e-12
-1.75673e-12
-9.21271e-13
-4.63725e-13
-3.27553e-13
-3.9662e-13
-3.95158e-13
-3.5145e-13
-3.04688e-13
-2.98354e-13
-2.31673e-13
-1.63441e-13
-2.7393e-13
-1.62356e-13
-6.91834e-13
-2.00815e-12
-1.82769e-12
-9.91533e-13
-4.99233e-13
-3.62924e-13
-3.78074e-13
-3.67711e-13
-3.56367e-13
-3.16834e-13
-2.82875e-13
-2.43717e-13
-1.99549e-13
-2.86092e-13
-1.65599e-13
-5.99705e-13
-1.86988e-12
-1.87528e-12
-1.15369e-12
-5.74517e-13
-3.95322e-13
-3.88373e-13
-3.50702e-13
-3.65479e-13
-3.24575e-13
-2.74548e-13
-2.80556e-13
-2.28585e-13
-2.71117e-13
-1.50229e-13
2.20723e-14
-6.622e-13
1.10854e-13
2.00138e-13
-1.4042e-13
1.86007e-13
7.23467e-14
-6.51594e-14
1.07953e-13
3.54569e-14
-5.82538e-14
2.97879e-14
1.63379e-14
2.03873e-14
-7.41621e-15
2.13173e-12
2.22883e-12
-7.12969e-14
2.07534e-13
1.76461e-13
-8.55207e-15
2.34366e-13
1.21332e-13
-2.96678e-15
1.05539e-14
2.12834e-14
-4.58437e-14
-7.22991e-15
7.61579e-14
6.10267e-14
2.17603e-12
2.50759e-12
1.54468e-13
1.92168e-13
3.4605e-13
1.51459e-13
2.80496e-13
4.36216e-14
1.86782e-13
1.925e-13
-5.37067e-14
8.84003e-15
-1.30134e-13
-1.08884e-13
1.1444e-13
2.50726e-12
2.20134e-12
1.4032e-13
5.78993e-13
2.95862e-13
2.77462e-13
5.33449e-13
1.62052e-13
2.95794e-13
3.88765e-13
-1.49521e-14
1.48923e-13
6.11599e-14
-2.33341e-13
7.16338e-14
2.33618e-12
2.23561e-12
1.46909e-13
6.17248e-13
2.2419e-13
3.27901e-13
5.0584e-13
3.04379e-13
3.75712e-13
1.86943e-13
1.70796e-13
2.44783e-13
8.76984e-14
-4.92748e-14
5.11539e-15
2.12757e-12
2.60587e-12
5.59615e-13
5.37555e-13
3.33442e-13
3.30349e-13
5.2362e-13
4.35374e-13
3.61029e-13
3.9233e-13
5.7173e-13
1.78209e-13
1.85637e-13
1.19779e-13
-1.60646e-13
1.83418e-12
2.65437e-12
7.67522e-13
4.84966e-13
3.62362e-13
3.29085e-13
5.18839e-13
3.66898e-13
3.50499e-13
4.78508e-13
3.82791e-13
2.25683e-13
1.67435e-13
3.48743e-14
-3.31355e-14
1.52346e-12
2.55485e-12
9.67819e-13
5.0007e-13
3.4369e-13
3.35205e-13
4.58881e-13
3.70882e-13
3.21382e-13
3.51805e-13
2.40415e-13
2.2656e-13
3.92545e-14
-4.10582e-15
-1.31785e-13
1.31939e-12
2.49928e-12
1.126e-12
5.34965e-13
3.66581e-13
1.76405e-13
4.124e-13
4.4164e-13
2.37302e-13
3.55475e-13
3.29192e-13
5.37888e-14
1.0819e-13
1.36146e-13
9.53458e-14
1.12547e-12
2.41155e-12
1.26093e-12
5.92151e-13
3.79144e-13
1.98411e-13
3.67035e-13
4.21847e-13
2.66289e-13
2.5309e-13
3.12002e-13
1.51578e-13
1.65558e-13
2.56566e-13
2.57465e-13
9.9929e-13
2.34981e-12
1.49226e-12
7.15474e-13
3.82679e-13
3.12494e-13
4.02807e-13
4.03231e-13
2.55318e-13
2.53073e-13
2.88552e-13
2.06533e-13
1.33862e-13
1.61953e-13
1.98134e-13
8.61637e-13
2.27689e-12
1.64814e-12
8.33534e-13
4.04631e-13
3.33305e-13
4.38986e-13
3.988e-13
3.05884e-13
3.09642e-13
2.75626e-13
2.01814e-13
1.66253e-13
1.21997e-13
1.92487e-13
7.3479e-13
2.14002e-12
1.75673e-12
9.21271e-13
4.63725e-13
3.27553e-13
3.9662e-13
3.95158e-13
3.5145e-13
3.04688e-13
2.98354e-13
2.31673e-13
1.63441e-13
2.7393e-13
1.62356e-13
6.91834e-13
2.00815e-12
1.82769e-12
9.91533e-13
4.99233e-13
3.62924e-13
3.78074e-13
3.67711e-13
3.56367e-13
3.16834e-13
2.82875e-13
2.43717e-13
1.99549e-13
2.86092e-13
1.65599e-13
5.99705e-13
1.86988e-12
1.87528e-12
1.15369e-12
5.74517e-13
3.95322e-13
3.88373e-13
3.50702e-13
3.65479e-13
3.24575e-13
2.74548e-13
2.80556e-13
2.28585e-13
2.71117e-13
1.50229e-13
)
;
    }
    inlet
    {
        type            calculated;
        value           nonuniform List<scalar> 
15
(
-1299.9
-1300.2
-1299.9
-1299.9
-1300.2
-1299.9
-1299.9
-1300.2
-1299.9
-1299.9
-1300.2
-1299.9
-1299.9
-1300.2
-1299.9
)
;
    }
    inletWalls
    {
        type            calculated;
        value           uniform 0;
    }
    outletInlet
    {
        type            calculated;
        value           nonuniform List<scalar> 
15
(
193.864
527.045
826.876
1021.18
1153.5
1272.05
1392.3
1517.52
1645.14
1778.93
1939.25
2107.79
2054.9
1433.4
341.401
)
;
    }
}


// ************************************************************************* //
