/*--------------------------------*- C++ -*----------------------------------*\
| =========                 |                                                 |
| \\      /  F ield         | OpenFOAM: The Open Source CFD Toolbox           |
|  \\    /   O peration     | Version:  4.1                                   |
|   \\  /    A nd           | Web:      www.OpenFOAM.org                      |
|    \\/     M anipulation  |                                                 |
\*---------------------------------------------------------------------------*/
FoamFile
{
    version     2.0;
    format      ascii;
    class       volVectorField;
    location    "1";
    object      U;
}
// * * * * * * * * * * * * * * * * * * * * * * * * * * * * * * * * * * * * * //

dimensions      [0 1 -1 0 0 0 0];

internalField   nonuniform List<vector> 
225
(
(1.12469e-14 0.913648 15.6816)
(8.82286e-15 -4.82731 11.9959)
(-3.09668e-15 -4.18213 12.0349)
(7.37278e-15 -3.60733 11.9168)
(6.61523e-16 -3.0364 11.7935)
(-2.75983e-16 -2.60185 11.6149)
(2.02965e-15 -2.27148 11.3943)
(3.11043e-16 -2.04241 11.1304)
(-2.76958e-17 -1.88737 10.8371)
(1.0506e-15 -1.81112 10.5156)
(2.55153e-17 -1.94575 10.0961)
(-2.67466e-16 -2.41935 9.49156)
(3.90108e-16 -2.69508 8.93224)
(5.2448e-17 -1.22905 8.95831)
(2.35947e-16 1.84181 7.72785)
(1.54497e-14 -5.21356 22.4442)
(1.54315e-14 -14.5132 21.3958)
(-4.93574e-16 -13.2536 20.4994)
(1.62029e-15 -11.9179 19.6114)
(1.22175e-15 -11.2834 18.5821)
(-5.92043e-17 -10.7491 17.6028)
(1.19636e-15 -10.2115 16.6539)
(8.4005e-16 -9.68148 15.7087)
(-2.05384e-17 -9.14418 14.7581)
(-5.12923e-17 -8.56469 13.8)
(1.47358e-16 -7.95833 12.8303)
(-3.17367e-16 -7.47618 11.811)
(-2.17372e-16 -7.14455 10.6048)
(5.27286e-16 -6.0013 9.02761)
(4.22475e-16 -2.24519 5.35979)
(1.70891e-14 -7.55971 24.2664)
(1.73596e-14 -16.92 24.5245)
(1.06948e-15 -14.292 23.9296)
(3.22939e-15 -12.7474 22.7399)
(2.39564e-15 -11.9262 21.4443)
(1.04865e-15 -11.1288 20.2338)
(3.44982e-15 -10.3108 19.0469)
(-3.10446e-15 -9.49375 17.8546)
(1.29321e-15 -8.67599 16.6534)
(-9.95411e-16 -7.86001 15.474)
(3.53978e-15 -7.07639 14.3574)
(6.1205e-17 -6.41753 13.1785)
(2.60405e-15 -5.70959 11.4961)
(2.11181e-15 -4.27575 8.52439)
(7.9234e-16 -1.63193 3.57739)
(1.66192e-14 -8.48851 22.5597)
(1.59879e-14 -17.1369 24.445)
(6.09076e-16 -13.7004 24.0366)
(4.00876e-15 -12.5544 22.4501)
(2.77196e-15 -11.7646 20.9798)
(1.55193e-15 -10.9094 19.66)
(3.69343e-15 -10.0529 18.3717)
(-5.20815e-17 -9.23542 17.0785)
(-1.98863e-16 -8.45785 15.8049)
(2.69168e-15 -7.71609 14.596)
(5.85767e-16 -7.01003 13.3925)
(7.84015e-16 -6.14061 11.8115)
(4.23451e-16 -4.60354 8.98503)
(-2.0962e-16 -2.08001 4.27254)
(1.45673e-15 -0.3236 -0.727493)
(1.63814e-14 -8.53969 20.2848)
(1.42617e-14 -16.9017 24.6976)
(-4.18768e-16 -13.5117 24.177)
(4.46905e-15 -12.6765 22.2112)
(9.13997e-16 -11.986 20.6068)
(1.35612e-15 -11.1596 19.2055)
(3.74588e-15 -10.3428 17.837)
(2.63177e-15 -9.56177 16.4716)
(3.38516e-16 -8.82398 15.1323)
(1.59735e-15 -8.12419 13.865)
(-1.0892e-15 -7.40785 12.6038)
(2.05544e-15 -6.47233 10.912)
(1.05318e-15 -4.83046 7.916)
(1.30809e-15 -2.19568 3.19856)
(5.90614e-15 -0.712877 -1.04225)
(1.46543e-14 -8.10642 17.9118)
(1.79563e-14 -16.4591 24.8821)
(3.70535e-15 -13.6998 24.4777)
(3.72143e-15 -12.8469 22.2747)
(2.2097e-15 -12.1759 20.5932)
(2.91582e-15 -11.3449 19.181)
(2.51493e-15 -10.5359 17.7959)
(2.77744e-15 -9.76304 16.4147)
(3.25566e-15 -9.02271 15.0626)
(2.86332e-16 -8.32661 13.7719)
(3.66839e-15 -7.62332 12.5173)
(2.18253e-15 -6.6965 10.941)
(1.28515e-15 -5.03644 8.1382)
(3.63472e-17 -2.425 3.36349)
(-5.85838e-15 -0.325923 -0.806193)
(1.2597e-14 -7.41325 15.4776)
(1.90482e-14 -15.8882 24.6432)
(5.56204e-15 -14.0186 24.7403)
(3.35775e-15 -13.0439 22.3943)
(3.29364e-15 -12.3238 20.6272)
(2.06934e-15 -11.4561 19.2264)
(3.59228e-15 -10.626 17.8551)
(2.30195e-15 -9.83612 16.4817)
(3.32416e-15 -9.07091 15.1354)
(3.31304e-15 -8.34767 13.8438)
(3.85251e-15 -7.63543 12.5906)
(1.2288e-15 -6.74967 11.0933)
(1.15927e-15 -5.24173 8.57193)
(5.98331e-16 -2.90789 4.42553)
(-2.23515e-15 -0.946103 0.5778)
(1.06797e-14 -6.57652 13.132)
(1.76884e-14 -15.1976 24.0444)
(6.78187e-15 -14.3161 24.9573)
(3.46182e-15 -13.2463 22.5828)
(2.37953e-15 -12.4293 20.7014)
(2.42565e-15 -11.5131 19.2972)
(3.17669e-15 -10.657 17.9378)
(2.56779e-15 -9.84916 16.5691)
(2.35594e-15 -9.05901 15.2259)
(2.43543e-15 -8.30525 13.9323)
(1.66451e-15 -7.56936 12.6807)
(1.74247e-15 -6.6859 11.2193)
(2.71746e-16 -5.22417 8.80015)
(-2.84265e-17 -2.90614 4.69207)
(-1.9419e-16 -0.528973 0.447345)
(9.13396e-15 -5.68893 10.9787)
(1.73022e-14 -14.4219 23.1767)
(8.28601e-15 -14.5356 25.1008)
(3.7035e-15 -13.4684 22.8422)
(2.5378e-15 -12.5401 20.8324)
(3.80583e-16 -11.5774 19.3956)
(2.855e-15 -10.7081 18.0388)
(3.05742e-15 -9.89688 16.6677)
(1.24909e-15 -9.09902 15.3185)
(2.46091e-15 -8.33009 14.0174)
(2.27896e-15 -7.58967 12.754)
(1.41753e-15 -6.72292 11.315)
(7.48983e-16 -5.3237 9.02209)
(9.42522e-16 -3.13368 5.20645)
(2.81683e-16 -0.818078 1.15913)
(7.61337e-15 -4.85924 9.13935)
(1.66949e-14 -13.6216 22.187)
(8.40022e-15 -14.6311 25.1453)
(3.83216e-15 -13.6589 23.1264)
(2.62477e-15 -12.6183 21.008)
(9.49038e-16 -11.599 19.5183)
(2.19956e-15 -10.7162 18.1521)
(2.9204e-15 -9.90009 16.7729)
(1.91046e-15 -9.08922 15.4139)
(5.78778e-16 -8.30073 14.1002)
(2.15995e-15 -7.53993 12.8222)
(3.27102e-16 -6.66417 11.3725)
(3.70838e-16 -5.26892 9.08541)
(1.77618e-15 -3.10123 5.2735)
(2.21128e-15 -0.68552 1.22596)
(6.47067e-15 -4.1287 7.60845)
(1.6661e-14 -12.8356 21.154)
(1.0206e-14 -14.6286 25.0858)
(4.95299e-15 -13.8267 23.4033)
(2.55115e-15 -12.6956 21.2108)
(9.96219e-16 -11.6235 19.6532)
(2.27614e-15 -10.7344 18.2677)
(2.66863e-15 -9.92329 16.8777)
(8.31216e-16 -9.11338 15.5075)
(1.75194e-15 -8.31618 14.1817)
(1.91752e-15 -7.55538 12.8866)
(8.93055e-16 -6.67572 11.4234)
(3.78751e-16 -5.26234 9.14727)
(-7.95239e-16 -3.10161 5.40929)
(1.78553e-15 -0.757801 1.40074)
(5.96501e-15 -3.49166 6.35585)
(1.57111e-14 -12.073 20.1372)
(1.11192e-14 -14.5528 24.9595)
(5.77045e-15 -13.9621 23.6808)
(3.19104e-15 -12.7551 21.4479)
(1.93772e-15 -11.6234 19.8143)
(3.03904e-15 -10.7241 18.4031)
(3.50055e-15 -9.90768 17.0033)
(1.84873e-15 -9.08277 15.6261)
(2.14361e-15 -8.27008 14.2915)
(1.90813e-15 -7.48224 12.985)
(6.62385e-16 -6.58595 11.4983)
(1.60034e-15 -5.16359 9.1912)
(1.35594e-16 -3.01044 5.44725)
(1.59587e-15 -0.677531 1.3763)
(4.45358e-15 -2.85862 5.20152)
(1.45986e-14 -11.247 18.9875)
(1.23292e-14 -14.3893 24.7061)
(6.24904e-15 -14.0878 23.9504)
(3.21031e-15 -12.8509 21.7282)
(2.26761e-15 -11.6766 20.0022)
(2.52494e-15 -10.7755 18.5515)
(3.47983e-15 -9.97322 17.1392)
(2.30442e-15 -9.16291 15.7513)
(2.10956e-15 -8.35564 14.4058)
(2.21742e-15 -7.59467 13.0848)
(1.43727e-15 -6.70227 11.5903)
(1.13161e-15 -5.2361 9.31082)
(2.21784e-15 -3.04693 5.65626)
(1.06898e-15 -0.808985 1.548)
(4.60748e-15 -2.41159 4.53558)
(1.37869e-14 -10.5564 18.0781)
(1.25778e-14 -14.2137 24.4787)
(6.86406e-15 -14.1968 24.2304)
(3.36227e-15 -12.9232 22.0282)
(2.5124e-15 -11.6828 20.2097)
(2.73339e-15 -10.7674 18.7299)
(2.41564e-15 -9.96084 17.3179)
(2.46701e-15 -9.13507 15.937)
(2.33215e-15 -8.31422 14.5923)
(1.80563e-15 -7.51552 13.2732)
(1.68717e-15 -6.6299 11.776)
(1.4882e-15 -5.23964 9.50608)
(1.82024e-15 -3.1326 5.98334)
(1.14639e-15 -0.862243 1.73508)
(4.13855e-15 -2.09524 4.03029)
(1.29094e-14 -9.58123 16.587)
(1.29984e-14 -13.7685 23.7863)
(7.98682e-15 -14.2584 24.4272)
(3.9365e-15 -13.0748 22.4508)
(2.77256e-15 -11.787 20.5177)
(2.68866e-15 -10.8513 18.9322)
(2.34518e-15 -10.0456 17.4772)
(2.61985e-15 -9.22188 16.069)
(2.24699e-15 -8.40092 14.7026)
(1.89103e-15 -7.6203 13.3473)
(1.95314e-15 -6.74135 11.8334)
(1.58247e-15 -5.37448 9.61012)
(1.85838e-15 -3.34769 6.22664)
(1.0804e-15 -1.12722 2.17068)
)
;

boundaryField
{
    inletFace
    {
        type            zeroGradient;
    }
    inlet
    {
        type            fixedValue;
        value           uniform (0 8.7 15);
    }
    inletWalls
    {
        type            noSlip;
    }
    outletInlet
    {
        type            zeroGradient;
    }
}


// ************************************************************************* //
