/*--------------------------------*- C++ -*----------------------------------*\
| =========                 |                                                 |
| \\      /  F ield         | OpenFOAM: The Open Source CFD Toolbox           |
|  \\    /   O peration     | Version:  4.1                                   |
|   \\  /    A nd           | Web:      www.OpenFOAM.org                      |
|    \\/     M anipulation  |                                                 |
\*---------------------------------------------------------------------------*/
FoamFile
{
    version     2.0;
    format      ascii;
    class       surfaceScalarField;
    location    "4";
    object      phi;
}
// * * * * * * * * * * * * * * * * * * * * * * * * * * * * * * * * * * * * * //

dimensions      [0 3 -1 0 0 0 0];

internalField   nonuniform List<scalar> 
13220
(
-818.577
2118.48
-1279.66
1761.28
-1745.2
1765.44
-2091.03
1645.72
-2371.59
1580.76
-2574.26
1502.56
-2704.59
1430.23
-2761.64
1357.25
-2748.37
1286.63
-2665.15
1216.69
-2508.6
1143.65
-2251.71
1043.01
-1807.75
855.931
-1060.1
552.55
239.803
-169.284
2287.76
-386.34
1978.34
-641.791
2020.89
-838.132
1842.06
-1027.71
1770.33
-1175.4
1650.26
-1295.88
1550.71
-1381.99
1443.36
-1438.3
1342.93
-1465.6
1243.99
-1452.65
1130.7
-1360.84
951.2
-1113.45
608.539
-604.767
43.8599
-364.964
-106.528
2394.28
-278.461
2150.27
-396.689
2139.12
-452.157
1897.53
-496.783
1814.96
-498.077
1651.55
-476.641
1529.27
-430.301
1397.02
-365.507
1278.14
-284.226
1162.71
-188.699
1035.17
-95.2304
857.726
-36.1135
549.397
58.2085
-50.4896
-306.756
80.8131
2313.47
90.0315
2141.05
136.52
2092.63
209.986
1824.06
281.357
1743.58
379.357
1553.55
483.524
1425.1
600.118
1280.42
718.813
1159.44
837.823
1043.7
943.612
929.382
993.672
807.667
895.581
647.489
411.475
433.618
104.719
57.8464
2255.62
92.07
2106.82
137.927
2046.77
174.876
1787.11
209.029
1709.43
244.046
1518.53
276.181
1392.96
347.482
1209.12
483.028
1023.89
666.051
860.671
818.323
777.11
859.866
766.121
730.311
777.041
425.284
738.641
530.003
-60.2435
2315.86
-120.004
2166.58
-173.1
2099.87
-261.825
1875.84
-350.219
1797.82
-462.445
1630.75
-572.267
1502.79
-624.557
1261.41
-563.196
962.534
-387.261
684.738
-144.55
534.399
97.5166
524.062
234.958
639.606
190.437
783.168
720.441
-55.9423
2371.81
-245.677
2356.32
-379.952
2234.14
-533.559
2029.45
-689.628
1953.89
-863.87
1805
-1051.83
1690.75
-1247.1
1456.68
-1430.29
1145.72
-1550.47
804.92
-1532.06
515.99
-1297.78
289.783
-854.112
195.93
-347.99
277.041
372.45
156.463
2215.34
-12.784
2525.56
-104.722
2326.08
-168.644
2093.37
-211.456
1996.71
-250.298
1843.84
-290.91
1731.36
-377.518
1543.29
-536.748
1304.95
-752.374
1020.55
-964.351
727.967
-1088
413.443
-997.283
105.216
-626.809
-93.4254
-254.358
316.72
1898.63
301.89
2540.39
302.852
2325.12
354.064
2042.16
443.127
1907.64
537.504
1749.46
645.648
1623.22
718.918
1470.02
723.466
1300.4
635.909
1108.11
466.443
897.435
219.263
660.619
-47.0389
371.512
-131.091
-9.37897
-385.449
252.367
1646.26
314.675
2478.09
360.034
2279.76
432.89
1969.3
527.442
1813.09
621.263
1655.64
720.471
1524.01
808.104
1382.38
867.136
1241.37
879.921
1095.32
836.866
940.49
726.583
770.908
535.961
562.143
236.355
290.239
-149.094
116.573
1529.69
165.146
2429.51
212.492
2232.41
265.046
1916.75
314.239
1763.9
361.661
1608.22
403.558
1482.12
441.85
1344.09
467.736
1215.49
474.722
1088.34
454.574
960.639
402.596
822.885
311.265
653.474
189.646
411.857
40.5522
68.5499
1461.14
93.2774
2404.79
107.579
2218.11
125.813
1898.52
137.636
1752.08
150.17
1595.69
159.615
1472.67
170.011
1333.7
176.123
1209.38
178.456
1086.01
169.785
969.31
148.362
844.313
109.473
692.368
59.9777
461.371
100.53
128.472
1332.67
173.839
2359.42
166.845
2225.11
182.712
1882.65
201.757
1733.04
207.346
1590.1
202.528
1477.49
195.388
1340.84
184.455
1220.31
174.092
1096.37
162.834
980.569
146.937
860.21
123.356
715.95
83.1651
501.564
183.695
272.782
1059.89
388.667
2243.54
286.66
2327.12
139.045
2030.27
71.1574
1800.92
46.0707
1615.19
47.3995
1476.16
50.9118
1337.33
56.1621
1215.06
58.1041
1094.43
58.5871
980.086
53.9695
864.829
36.8478
733.073
-6.52149
544.936
177.174
474.743
1347.39
1903.17
2015.99
1930.38
1884.9
1867.35
1832.65
1761.11
1638.86
1460.22
1227.16
936.18
540.828
-1.98486e-05
-32.8242
32.8241
-32.8242
-32.8242
-32.8242
177.813
-210.637
177.813
177.813
177.813
368.758
-190.945
368.758
368.758
515.55
-146.792
515.55
515.55
515.55
603.672
-88.122
603.672
603.672
651.426
-47.7543
651.426
651.426
651.426
672.59
-21.1642
672.59
672.59
672.59
677.444
-4.85446
677.444
677.444
667.027
10.4174
667.027
667.027
667.027
643.976
23.0512
643.976
643.976
613.574
30.402
613.574
613.574
613.574
583.744
29.8301
583.744
583.744
583.744
557.544
26.1999
557.544
557.544
531.748
25.7953
531.748
531.748
531.748
511.782
19.9668
511.782
511.782
511.782
550.089
-38.3069
550.089
550.089
566.577
-16.4886
566.577
566.577
566.577
388.07
178.507
388.07
388.07
92.5625
295.508
92.5623
92.5623
92.5622
-745.756
838.319
-745.756
-745.756
-745.757
-2332.22
1586.46
-2332.22
-2332.22
-4391.32
2059.11
-4391.32
-4391.32
-4256.02
-4123.34
-3986.41
-6126.42
2270.28
-5988.08
-5823.95
-5647
-5470.08
-5293.18
-5117.38
-4936.84
-4744.73
-6958.76
2402.02
-6763.71
-6569.33
-6375.6
-6169.68
-5963.54
-5757.75
-5551.98
-5344.94
-7602.36
2468.86
-7384.21
-7166.51
-6949.03
-6731.65
-6510.5
-6282.21
-6054.53
-5826
-5596.16
-7835.2
2466.38
-7595.45
-7354.77
-7113.52
-6872
-6630
-6378.84
-6121.96
-5863.41
-8057.48
2451.55
-7800.88
-7536.79
-7261.58
-6984.2
-6703.77
-6420.93
-6133.68
-5825.02
-7997.89
2479.49
-7690.47
-7377.25
-7059.24
-6719.34
-6367.6
-6012.37
-5652.66
-5292.13
-7230.13
2294.83
-6859.94
-6494.22
-6134.76
-5783.59
-5442.24
-5088.42
-4746.02
-4412.52
-4089.77
-4394.53
626.492
-4108.7
-3838.64
-3574.85
-3320.01
-3074.5
-2878.97
-2769.49
-2659.23
-2589.59
47.3671
-2488.1
-2390.3
-2390.3
-2452.22
61.9181
-2474.13
21.9139
-2474.13
-2506.93
32.7945
-2506.93
-2543.88
36.9526
-2561.18
17.3043
-2561.18
-2584.19
23.0081
-2587.84
3.65129
-2587.84
-2589.16
1.31829
-2589.16
-2588.9
-0.259701
-2565.77
-23.1272
-2565.77
-2538.97
-26.8013
-2538.97
-2512.75
-26.2194
-2465.14
-47.6092
-2465.14
-2420.79
-44.3558
-2360.29
-60.5021
-2360.29
-2299.28
-61.007
-2299.28
-2241.12
-58.1578
-2170.75
-70.3746
-2170.75
-2102.21
-68.5425
-2102.21
-2035.6
-66.6063
-1955.29
-80.3051
-1955.29
-1879.17
-76.128
-1795.81
-83.3537
-1795.81
-1713.31
-82.5033
-1713.31
-1633.84
-79.4698
-1550.43
-83.4082
-1550.43
-1468.93
-81.4974
-1468.93
-1389.77
-79.1677
-1307.46
-82.3043
-1307.46
-1231.75
-75.7144
-1157.46
-74.2826
-1157.46
-1091.46
-66.0053
-1091.46
-1047.09
-44.3675
-1010.97
-36.1196
-1010.97
-985.201
-25.7712
-985.201
-963.547
-21.6541
-924.353
-39.194
-924.353
-877.258
-47.0945
-810.48
-66.7784
-810.48
-736.153
-74.3267
-736.153
-651.58
-84.5728
-557.948
-93.6321
-557.948
-464.83
-93.1177
-464.83
-362.627
-102.204
-246.618
-116.008
-246.618
-135.979
-110.639
1.00008
-136.979
1.00008
133.931
-132.931
133.931
-131.073
-4.68963
-24.0058
-4.62201
-33.5177
-4.61941
-40.2102
-4.6252
-46.4974
-4.65754
-52.7529
-4.70495
-58.743
-4.77242
-64.7164
-4.8568
-70.6125
-4.95963
-76.5258
-5.07996
-82.456
-5.21829
-88.4489
-5.37433
-94.52
-5.54829
-100.698
-5.74013
-107.003
-5.95004
-113.458
-6.17814
-120.081
-6.42467
-126.893
-6.6899
-133.912
-6.97416
-141.159
-7.27787
-148.652
-7.60148
-156.409
-7.94553
-164.448
-8.31064
-172.79
-8.69745
-181.451
-9.10672
-190.452
-9.53925
-199.812
-9.99592
-209.549
-10.4777
-219.685
-10.9855
-230.239
-11.5206
-241.231
-12.0839
-252.684
-12.6769
-264.619
-13.3007
-277.058
-13.9568
-290.025
-14.6465
-303.541
-15.3713
-317.633
-16.1328
-332.323
-16.9326
-347.638
-17.7722
-363.603
-18.6531
-380.242
-19.5768
-397.582
-20.5448
-415.648
-21.5581
-434.462
-22.6176
-454.047
-23.7235
-474.42
-24.8756
-495.594
-26.0724
-517.575
-27.3111
-540.356
-28.5871
-563.919
-29.8934
-588.224
-31.2197
-613.206
-32.5517
-638.77
-33.8699
-664.779
-35.1486
-691.052
-36.3546
-717.354
-37.4455
-743.39
-38.3683
-768.809
-39.0576
-793.194
-39.4328
-816.068
-39.3939
-836.878
-38.8179
-854.987
-37.5492
-869.577
-35.3962
-879.633
-32.1144
-883.602
-27.4238
-879.468
-20.9843
-863.759
-12.5301
-832.407
-1.81013
-777.313
10.7329
-691.841
24.2471
-556.054
37.7813
-352.705
48.1998
76.3358
44.7338
400.785
44.3415
752.394
36.7651
1008.89
45.4899
1414.11
31.26
1439.47
93.016
2214.59
2445.03
-5.40933
-24.1228
-5.31272
-33.6144
-5.30027
-40.2226
-5.30116
-46.4965
-5.33442
-52.7196
-5.3862
-58.6913
-5.46148
-64.6411
-5.55647
-70.5176
-5.67265
-76.4097
-5.80883
-82.3199
-5.96545
-88.2923
-6.14213
-94.3433
-6.33904
-100.502
-6.55612
-106.786
-6.7935
-113.22
-7.05133
-119.823
-7.32983
-126.614
-7.62927
-133.613
-7.95003
-140.839
-8.29253
-148.309
-8.65726
-156.044
-9.0448
-164.061
-9.45581
-172.379
-9.89099
-181.016
-10.3511
-189.992
-10.8371
-199.326
-11.3499
-209.037
-11.8905
-219.144
-12.4599
-229.669
-13.0595
-240.632
-13.6903
-252.054
-14.3537
-263.956
-15.0511
-276.361
-15.7839
-289.292
-16.5537
-302.772
-17.3619
-316.825
-18.2103
-331.475
-19.1003
-346.748
-20.0337
-362.669
-21.0119
-379.264
-22.0364
-396.558
-23.1084
-414.576
-24.229
-433.342
-25.3986
-452.877
-26.617
-473.201
-27.8832
-494.328
-29.1948
-516.263
-30.5477
-539.003
-31.9355
-562.531
-33.3488
-586.811
-34.7744
-611.781
-36.194
-637.35
-37.5839
-663.39
-38.913
-689.723
-40.1419
-716.125
-41.2219
-742.31
-42.0931
-767.938
-42.6827
-792.604
-42.9024
-815.849
-42.6434
-837.137
-41.7713
-855.859
-40.1145
-871.234
-37.4586
-882.289
-33.5262
-887.534
-27.9973
-884.997
-20.482
-871.274
-10.6836
-842.206
1.66471
-789.661
16.0352
-706.211
31.4496
-571.469
46.8392
-368.095
59.6546
63.5204
50.8993
409.541
47.4404
755.853
38.7411
1017.59
45.5611
1407.29
31.2551
1453.77
90.0745
2155.78
2402.17
-5.802
-24.2558
-5.69524
-33.7211
-5.67673
-40.2411
-5.67558
-46.4976
-5.70935
-52.6859
-5.76387
-58.6367
-5.84364
-64.5614
-5.94475
-70.4164
-6.06851
-76.2859
-6.21366
-82.1747
-6.38059
-88.1254
-6.56887
-94.155
-6.77864
-100.292
-7.00981
-106.555
-7.26252
-112.968
-7.53689
-119.548
-7.83316
-126.318
-8.1516
-133.295
-8.4926
-140.498
-8.85657
-147.945
-9.24405
-155.656
-9.65563
-163.649
-10.092
-171.942
-10.5538
-180.554
-11.0421
-189.504
-11.5575
-198.81
-12.1012
-208.493
-12.6741
-218.571
-13.2774
-229.066
-13.9124
-239.997
-14.5802
-251.386
-15.2823
-263.254
-16.0201
-275.623
-16.795
-288.517
-17.6085
-301.958
-18.4624
-315.971
-19.3583
-330.579
-20.2977
-345.809
-21.2822
-361.685
-22.3135
-378.233
-23.3929
-395.478
-24.5217
-413.447
-25.7005
-432.163
-26.9299
-451.648
-28.2092
-471.922
-29.537
-493
-30.9104
-514.89
-32.3245
-537.589
-33.7717
-561.084
-35.2415
-585.341
-36.7187
-610.304
-38.1832
-635.886
-39.6085
-661.964
-40.9608
-688.371
-42.1977
-714.888
-43.2671
-741.241
-44.1058
-767.099
-44.6378
-792.072
-44.7714
-815.715
-44.394
-837.515
-43.3658
-856.887
-41.507
-873.093
-38.5904
-885.206
-34.3201
-891.804
-28.3508
-890.966
-20.263
-879.362
-9.73411
-852.734
3.52005
-802.916
18.9618
-721.653
35.6106
-588.117
51.4457
-383.93
68.4361
46.53
59.3438
418.633
52.461
762.736
41.4097
1028.64
46.0409
1402.66
30.71
1469.1
86.5968
2099.89
2351.79
-6.25269
-24.4028
-6.13747
-33.8363
-6.1141
-40.2645
-6.1117
-46.5
-6.14694
-52.6506
-6.20527
-58.5784
-6.29083
-64.4758
-6.39956
-70.3077
-6.53261
-76.1528
-6.68868
-82.0186
-6.86806
-87.946
-7.07029
-93.9528
-7.29549
-100.067
-7.54353
-106.307
-7.81456
-112.697
-8.10869
-119.254
-8.42615
-126
-8.76724
-132.953
-9.13234
-140.132
-9.5219
-147.556
-9.93646
-155.242
-10.3767
-163.209
-10.8432
-171.476
-11.3368
-180.061
-11.8584
-188.982
-12.4089
-198.26
-12.9894
-207.913
-13.6009
-217.96
-14.2445
-228.422
-14.9217
-239.32
-15.6337
-250.674
-16.3818
-262.506
-17.1677
-274.837
-17.9928
-287.692
-18.8587
-301.092
-19.767
-315.062
-20.7196
-329.627
-21.7179
-344.81
-22.7637
-360.639
-23.8585
-377.138
-25.0036
-394.333
-26.2003
-412.25
-27.4492
-430.914
-28.7503
-450.347
-30.103
-470.569
-31.5053
-491.598
-32.9536
-513.441
-34.4422
-536.101
-35.9625
-559.564
-37.5022
-583.801
-39.0444
-608.761
-40.5666
-634.364
-42.0395
-660.491
-43.4258
-686.985
-44.6796
-713.634
-45.7448
-740.176
-46.5543
-766.29
-47.0282
-791.599
-47.0707
-815.673
-46.5647
-838.021
-45.3644
-858.087
-43.2808
-875.176
-40.0727
-888.414
-35.4229
-896.454
-28.9568
-897.432
-20.2171
-888.101
-8.84533
-864.106
5.47668
-817.238
22.2149
-738.391
40.4169
-606.319
57.68
-401.193
78.2561
25.9539
69.8827
427.006
59.5021
773.116
45.3066
1042.83
46.9966
1400.97
30.382
1485.72
82.707
2047.56
2323.86
-6.67955
-24.5588
-6.55982
-33.9561
-6.53281
-40.2915
-6.53009
-46.5027
-6.5673
-52.6134
-6.6298
-58.5159
-6.72133
-64.3843
-6.83778
-70.1913
-6.98014
-76.0105
-7.14704
-81.8517
-7.33872
-87.7543
-7.55469
-93.7368
-7.79502
-99.8263
-8.05959
-106.043
-8.34853
-112.408
-8.66193
-118.941
-9.00006
-125.662
-9.3632
-132.59
-9.75175
-139.744
-10.1662
-147.141
-10.6071
-154.801
-11.0751
-162.741
-11.5709
-170.98
-12.0953
-179.536
-12.6493
-188.428
-13.2338
-197.675
-13.8499
-207.296
-14.4988
-217.311
-15.1816
-227.739
-15.8996
-238.602
-16.6543
-249.919
-17.4471
-261.713
-18.2795
-274.005
-19.1532
-286.818
-20.0698
-300.176
-21.0309
-314.101
-22.0383
-328.619
-23.0937
-343.755
-24.1988
-359.534
-25.355
-375.982
-26.5639
-393.124
-27.8263
-410.988
-29.1429
-429.597
-30.5137
-448.976
-31.9375
-469.146
-33.412
-490.123
-34.9331
-511.92
-36.4942
-534.54
-38.0855
-557.972
-39.6935
-582.193
-41.2994
-607.156
-42.8784
-632.785
-44.3985
-658.971
-45.8194
-685.564
-47.0916
-712.362
-48.1554
-739.112
-48.9402
-765.505
-49.3624
-791.176
-49.3229
-815.712
-48.7009
-838.643
-47.3455
-859.443
-45.0599
-877.462
-41.5901
-891.884
-36.5985
-901.445
-29.6807
-904.35
-20.3403
-897.442
-8.17475
-876.272
7.1805
-832.593
25.2191
-756.43
45.065
-626.165
64.4091
-420.537
87.9777
2.3853
81.9251
433.059
68.9639
786.078
50.8179
1060.98
48.8923
1402.9
30.5366
1504.07
79.4671
1998.63
2287.32
-7.1014
-24.7209
-6.97969
-34.0778
-6.9503
-40.3209
-6.9482
-46.5048
-6.98801
-52.5736
-7.05521
-58.4487
-7.15318
-64.2863
-7.27778
-70.0667
-7.42983
-75.8584
-7.60796
-81.6736
-7.81231
-87.55
-8.04237
-93.5068
-8.2982
-99.5704
-8.57966
-105.761
-8.88686
-112.1
-9.21991
-118.608
-9.57905
-125.303
-9.96461
-132.205
-10.377
-139.332
-10.8167
-146.702
-11.2843
-154.333
-11.7804
-162.245
-12.3059
-170.455
-12.8616
-178.981
-13.4485
-187.842
-14.0674
-197.056
-14.7197
-206.644
-15.4063
-216.624
-16.1287
-227.017
-16.8882
-237.842
-17.6862
-249.121
-18.5242
-260.875
-19.4038
-273.125
-20.3267
-285.895
-21.2946
-299.208
-22.3091
-313.087
-23.3721
-327.556
-24.4854
-342.642
-25.6505
-358.369
-26.8691
-374.763
-28.1424
-391.851
-29.4716
-409.659
-30.857
-428.212
-32.2984
-447.535
-33.7946
-467.649
-35.3426
-488.575
-36.9379
-510.325
-38.5731
-532.904
-40.2375
-556.308
-41.9158
-580.515
-43.5878
-605.484
-45.2264
-631.146
-46.7969
-657.401
-48.2559
-684.105
-49.5505
-711.067
-50.6176
-738.045
-51.3829
-764.74
-51.7596
-790.8
-51.6455
-815.826
-50.9164
-839.372
-49.4173
-860.942
-46.9444
-879.935
-43.2314
-895.597
-37.9209
-906.756
-30.5771
-911.694
-20.661
-907.358
-7.7173
-889.215
8.67844
-848.989
28.0692
-775.82
49.6928
-647.789
71.3365
-442.181
97.6282
-23.9063
94.7648
435.922
80.7405
800.102
58.3679
1083.35
51.9517
1409.31
31.1845
1524.84
75.6422
1954.18
2260.75
-7.51514
-24.8863
-7.39365
-34.1993
-7.36302
-40.3515
-7.36241
-46.5054
-7.4054
-52.5306
-7.47778
-58.3763
-7.58259
-64.1815
-7.71567
-69.9336
-7.87774
-75.6963
-8.06737
-81.484
-8.28465
-87.3327
-8.52905
-93.2623
-8.8006
-99.2989
-9.09915
-105.462
-9.42481
-111.775
-9.77768
-118.255
-10.158
-124.923
-10.5662
-131.797
-11.0025
-138.895
-11.4676
-146.237
-11.962
-153.839
-12.4865
-161.72
-13.0419
-169.899
-13.6289
-178.393
-14.2487
-187.222
-14.9023
-196.403
-15.5908
-205.956
-16.3154
-215.9
-17.0775
-226.255
-17.8786
-237.041
-18.72
-248.28
-19.6033
-259.991
-20.5303
-272.198
-21.5025
-284.923
-22.5218
-298.188
-23.5899
-312.018
-24.7087
-326.437
-25.88
-341.471
-27.1054
-357.143
-28.3865
-373.482
-29.7246
-390.513
-31.1208
-408.263
-32.5753
-426.757
-34.0878
-446.022
-35.6567
-466.081
-37.2789
-486.953
-38.9492
-508.655
-40.6593
-531.194
-42.3977
-554.57
-44.1479
-578.765
-45.8876
-603.744
-47.5879
-629.446
-49.2113
-655.777
-50.7115
-682.605
-52.0323
-709.747
-53.107
-736.97
-53.8579
-763.989
-54.1954
-790.462
-54.0144
-816.007
-53.1884
-840.198
-51.5587
-862.571
-48.9155
-882.578
-44.9815
-899.531
-39.3797
-912.358
-31.6422
-919.431
-21.1841
-917.816
-7.48816
-902.911
9.94222
-866.419
30.7203
-796.598
54.2251
-671.294
78.3129
-466.269
107.265
-52.8586
108.093
435.095
94.4814
813.714
68.3406
1109.49
56.5485
1421.1
32.6786
1548.71
71.9504
1914.9
2239.59
-7.92232
-25.0529
-7.80272
-34.3189
-7.77194
-40.3823
-7.77363
-46.5037
-7.82039
-52.4839
-7.89845
-58.2983
-8.01049
-64.0694
-8.15244
-69.7916
-8.32486
-75.5239
-8.52629
-81.2826
-8.75679
-87.1022
-9.01581
-93.0033
-9.30334
-99.0114
-9.61923
-105.147
-9.96357
-111.43
-10.3365
-117.882
-10.7383
-124.521
-11.1692
-131.366
-11.6297
-138.435
-12.1204
-145.746
-12.6419
-153.317
-13.1949
-161.167
-13.7803
-169.314
-14.399
-177.775
-15.0519
-186.569
-15.7403
-195.715
-16.4652
-205.231
-17.228
-215.137
-18.0301
-225.453
-18.8729
-236.198
-19.758
-247.395
-20.6869
-259.062
-21.6615
-271.224
-22.6834
-283.901
-23.7544
-297.117
-24.8764
-310.896
-26.0513
-325.263
-27.2809
-340.241
-28.5669
-355.857
-29.9109
-372.138
-31.3143
-389.109
-32.7779
-406.799
-34.3021
-425.233
-35.8863
-444.438
-37.5287
-464.438
-39.2258
-485.256
-40.972
-506.909
-42.7583
-529.408
-44.5721
-552.756
-46.3957
-576.941
-48.2053
-601.934
-49.9697
-627.682
-51.649
-654.098
-53.1939
-681.06
-54.5449
-708.396
-55.632
-735.883
-56.3743
-763.246
-56.6792
-790.157
-56.4397
-816.247
-55.527
-841.11
-53.7801
-864.318
-50.9844
-885.374
-46.8523
-903.663
-40.988
-918.222
-32.8903
-927.529
-21.9254
-928.781
-7.50459
-917.332
10.9527
-884.876
33.1516
-818.797
58.6322
-696.774
85.2788
-492.915
117.033
-84.6124
121.807
430.32
109.698
825.822
80.8471
1138.34
63.1649
1438.79
35.5284
1576.35
68.5806
1881.85
2214.54
-8.32334
-25.2188
-8.20702
-34.4352
-8.17708
-40.4122
-8.18186
-46.499
-8.23294
-52.4328
-8.31715
-58.2141
-8.43684
-63.9497
-8.58802
-69.6405
-8.77111
-75.3409
-8.98467
-81.069
-9.22867
-86.8582
-9.50258
-92.7294
-9.80634
-98.7076
-10.1398
-104.813
-10.5031
-111.067
-10.8963
-117.489
-11.3197
-124.098
-11.7736
-130.912
-12.2585
-137.95
-12.775
-145.229
-13.3238
-152.769
-13.9055
-160.586
-14.5212
-168.698
-15.1716
-177.124
-15.8579
-185.883
-16.5813
-194.991
-17.3429
-204.469
-18.1441
-214.336
-18.9864
-224.611
-19.8712
-235.314
-20.8002
-246.466
-21.775
-258.088
-22.7973
-270.201
-23.8691
-282.829
-24.9922
-295.994
-26.1684
-309.72
-27.3997
-324.031
-28.6879
-338.953
-30.0349
-354.51
-31.4423
-370.731
-32.9113
-387.64
-34.4428
-405.267
-36.0372
-423.639
-37.6937
-442.781
-39.4103
-462.722
-41.1832
-483.483
-43.0062
-505.086
-44.8698
-527.544
-46.7606
-550.865
-48.6595
-575.042
-50.5411
-600.053
-52.3721
-625.851
-54.1104
-652.36
-55.7037
-679.466
-57.0892
-707.01
-58.1937
-734.779
-58.9332
-762.507
-59.2125
-789.878
-58.9228
-816.536
-57.9342
-842.099
-56.0841
-866.168
-53.1542
-888.303
-48.8481
-907.969
-42.7518
-924.318
-34.33
-935.951
-22.8969
-940.214
-7.78257
-932.447
11.6884
-904.347
35.335
-842.444
62.8726
-724.312
92.1682
-522.211
126.941
-119.385
135.876
421.386
125.878
835.82
95.5667
1168.66
72.1046
1462.25
40.0121
1608.44
64.2203
1857.64
2194.18
-8.71879
-25.3826
-8.60684
-34.5471
-8.57867
-40.4404
-8.58725
-46.4904
-8.64322
-52.3768
-8.73405
-58.1232
-8.8618
-63.822
-9.02257
-69.4797
-9.21667
-75.1468
-9.44266
-80.843
-9.70046
-86.6004
-9.98953
-92.4404
-10.3098
-98.3873
-10.6611
-104.462
-11.0435
-110.685
-11.4572
-117.075
-11.9025
-123.652
-12.3796
-130.435
-12.8892
-137.44
-13.4317
-144.687
-14.008
-152.193
-14.6186
-159.975
-15.2647
-168.052
-15.9472
-176.442
-16.6671
-185.163
-17.4256
-194.233
-18.2242
-203.671
-19.064
-213.496
-19.9467
-223.728
-20.8738
-234.387
-21.8469
-245.492
-22.8678
-257.067
-23.9383
-269.131
-25.0603
-281.707
-26.2356
-294.819
-27.4664
-308.489
-28.7544
-322.743
-30.1017
-337.605
-31.5101
-353.102
-32.9811
-369.26
-34.5162
-386.105
-36.1163
-403.667
-37.7814
-421.974
-39.5108
-441.052
-41.3023
-460.93
-43.1519
-481.633
-45.0529
-503.185
-46.9952
-525.602
-48.9644
-548.896
-50.9405
-573.066
-52.8964
-598.097
-54.797
-623.95
-56.5976
-650.559
-58.2431
-677.821
-59.6678
-705.585
-60.7949
-733.652
-61.5376
-761.764
-61.7986
-789.617
-61.4674
-816.867
-60.414
-843.152
-58.475
-868.107
-55.4301
-891.348
-50.9751
-912.424
-44.6791
-930.614
-35.9719
-944.658
-24.1122
-952.074
-8.34014
-948.219
12.1258
-924.813
37.2412
-867.559
66.9049
-753.976
98.9356
-554.241
136.948
-157.398
150.332
408.002
142.638
843.514
111.853
1199.44
83.277
1490.82
46.4213
1645.3
60.7232
1843.34
2180.58
-9.10914
-25.5432
-9.00245
-34.6538
-8.9769
-40.466
-8.98995
-46.4773
-9.05136
-52.3154
-9.14927
-58.0253
-9.28548
-63.6858
-9.45621
-69.309
-9.66165
-74.9413
-9.90039
-80.6043
-10.1723
-86.3285
-10.4768
-92.1359
-10.8138
-98.0503
-11.1832
-104.092
-11.5851
-110.283
-12.0195
-116.641
-12.4869
-123.185
-12.9875
-129.934
-13.5219
-136.906
-14.0907
-144.118
-14.6946
-151.589
-15.3345
-159.335
-16.0112
-167.375
-16.7259
-175.727
-17.4796
-184.409
-18.2736
-193.439
-19.1093
-202.835
-19.988
-212.617
-20.9114
-222.804
-21.881
-233.417
-22.8986
-244.475
-23.9659
-255.999
-25.0848
-268.012
-26.2572
-280.535
-27.4852
-293.591
-28.7708
-307.204
-30.1159
-321.398
-31.5227
-336.199
-32.9928
-351.632
-34.528
-367.724
-36.1297
-384.504
-37.7987
-401.998
-39.5352
-420.237
-41.3383
-439.249
-43.2056
-459.063
-45.1328
-479.706
-47.1129
-501.204
-49.1352
-523.579
-51.1846
-546.846
-53.2398
-571.011
-55.2726
-596.064
-57.2456
-621.977
-59.1121
-648.693
-60.8141
-676.119
-62.2826
-704.117
-63.4379
-732.496
-64.1903
-761.012
-64.4402
-789.367
-64.0766
-817.231
-62.9696
-844.26
-60.9565
-870.12
-57.8162
-894.489
-53.2387
-917.002
-46.777
-937.076
-37.8257
-953.609
-25.5849
-964.314
-9.19576
-964.608
12.2398
-946.249
38.8385
-894.158
70.6857
-785.823
105.533
-589.089
147.011
-198.875
165.234
389.778
159.79
848.959
129.02
1230.21
96.1607
1523.68
54.6857
1686.77
57.2326
1840.79
2171.03
-9.49482
-25.6995
-9.39411
-34.7545
-9.37196
-40.4881
-9.39013
-46.4592
-9.4575
-52.248
-9.56294
-57.9199
-9.70801
-63.5407
-9.88907
-69.1279
-10.1062
-74.7242
-10.358
-80.3525
-10.6443
-86.0422
-10.9645
-91.8156
-11.3186
-97.6962
-11.7064
-103.705
-12.1279
-109.861
-12.5834
-116.185
-13.073
-122.695
-13.5974
-129.41
-14.1568
-136.346
-14.7521
-143.523
-15.3839
-150.957
-16.0532
-158.666
-16.7608
-166.668
-17.508
-174.98
-18.2958
-183.621
-19.1255
-192.609
-19.9986
-201.962
-20.9165
-211.699
-21.8808
-221.84
-22.8932
-232.405
-23.9555
-243.413
-25.0695
-254.885
-26.2371
-266.844
-27.4604
-279.312
-28.7414
-292.31
-30.0821
-305.863
-31.4848
-319.995
-32.9513
-334.732
-34.4837
-350.099
-36.0835
-366.124
-37.7523
-382.835
-39.4909
-400.26
-41.2994
-418.429
-43.1769
-437.372
-45.1208
-457.119
-47.1266
-477.7
-49.1871
-499.144
-51.2909
-521.476
-53.4222
-544.715
-55.5589
-568.874
-57.671
-593.952
-59.7197
-619.928
-61.6558
-646.757
-63.4185
-674.356
-64.936
-702.599
-66.1253
-731.307
-66.8939
-760.243
-67.1405
-789.121
-66.7537
-817.618
-65.6045
-845.409
-63.5323
-872.193
-60.317
-897.704
-55.6442
-921.675
-49.0526
-943.667
-39.9014
-962.76
-27.3292
-976.887
-10.369
-981.568
12.0037
-968.622
40.0928
-922.247
74.1687
-819.899
111.919
-626.839
157.121
-244.078
180.633
366.266
177.285
852.306
146.581
1260.91
110.017
1560.25
64.0129
1732.77
50.0017
1854.81
2173.94
-9.87621
-25.8508
-9.78208
-34.8487
-9.76407
-40.5061
-9.78794
-46.4353
-9.86178
-52.1742
-9.97521
-57.8065
-10.1295
-63.3864
-10.3213
-68.9361
-10.5505
-74.495
-10.8157
-80.0873
-11.1167
-85.7412
-11.4529
-91.4794
-11.8243
-97.3249
-12.2307
-103.298
-12.6722
-109.42
-13.1489
-115.709
-13.6612
-122.183
-14.2094
-128.861
-14.7942
-135.761
-15.4162
-142.901
-16.0762
-150.297
-16.7751
-157.967
-17.5139
-165.929
-18.2938
-174.2
-19.1159
-182.799
-19.9816
-191.743
-20.8923
-201.051
-21.8497
-210.742
-22.8552
-220.835
-23.9107
-231.349
-25.018
-242.305
-26.179
-253.724
-27.3957
-265.628
-28.6701
-278.037
-30.0045
-290.976
-31.4008
-304.467
-32.8614
-318.535
-34.3882
-333.205
-35.9832
-348.504
-37.6482
-364.459
-39.3847
-381.098
-41.1935
-398.451
-43.0747
-416.547
-45.0273
-435.419
-47.0488
-455.097
-49.1344
-475.615
-51.2764
-497.002
-53.4633
-519.289
-55.6785
-542.5
-57.8987
-566.654
-60.093
-591.758
-62.2207
-617.8
-64.2303
-644.747
-66.0585
-672.528
-67.6303
-701.028
-68.8596
-730.078
-69.6513
-759.452
-69.9025
-788.869
-69.5016
-818.019
-68.322
-846.588
-66.2062
-874.308
-62.9365
-900.974
-58.1967
-926.414
-51.5127
-950.351
-42.209
-972.064
-29.3593
-989.736
-11.8805
-999.047
11.389
-991.891
40.9676
-951.826
77.3045
-856.236
118.055
-667.59
167.286
-293.309
196.558
336.995
195.143
853.72
164.321
1291.74
124.286
1600.28
74.1859
1782.87
44.0042
1884.99
2178.75
-10.2537
-25.9963
-10.1666
-34.9358
-10.1534
-40.5193
-10.1836
-46.4052
-10.2644
-52.0934
-10.3862
-57.6846
-10.5502
-63.2224
-10.753
-68.7333
-10.9946
-74.2535
-11.2735
-79.8084
-11.5895
-85.4251
-11.9421
-91.1268
-12.3311
-96.9358
-12.7564
-102.873
-13.2181
-108.958
-13.7163
-115.21
-14.2514
-121.648
-14.8239
-128.289
-15.4342
-135.151
-16.0832
-142.252
-16.7717
-149.608
-17.5005
-157.238
-18.2707
-165.159
-19.0835
-173.388
-19.9402
-181.942
-20.8422
-190.841
-21.7909
-200.102
-22.7879
-209.745
-23.835
-219.788
-24.9339
-230.25
-26.0865
-241.153
-27.2949
-252.516
-28.561
-264.362
-29.887
-276.711
-31.2751
-289.588
-32.7274
-303.014
-34.2463
-317.016
-35.8338
-331.618
-37.492
-346.846
-39.2228
-362.729
-41.0275
-379.294
-42.9071
-396.571
-44.8617
-414.593
-46.8904
-433.39
-48.9903
-452.997
-51.1568
-473.448
-53.3818
-494.777
-55.6534
-517.017
-57.9544
-540.199
-60.2607
-564.348
-62.5401
-589.478
-64.7503
-615.59
-66.8376
-642.66
-68.7361
-670.629
-70.3678
-699.396
-71.6434
-728.802
-72.4653
-758.63
-72.729
-788.606
-72.3237
-818.424
-71.1255
-847.787
-68.9814
-876.452
-65.6786
-904.276
-60.9009
-931.192
-54.1639
-957.089
-44.7581
-981.47
-31.6897
-1002.8
-13.7516
-1016.98
10.3655
-1016.01
41.4233
-982.883
80.0396
-894.852
123.912
-711.462
177.504
-346.901
213.016
301.483
213.392
853.344
182.22
1322.91
138.735
1643.77
85.4542
1836.16
39.8561
1930.59
2196.95
-10.6276
-26.1356
-10.548
-35.0153
-10.5402
-40.5271
-10.5771
-46.3683
-10.6654
-52.0051
-10.7961
-57.5539
-10.9702
-63.0483
-11.1845
-68.519
-11.4387
-73.9992
-11.7317
-79.5154
-12.063
-85.0938
-12.4323
-90.7576
-12.8392
-96.5289
-13.2836
-102.429
-13.7658
-108.476
-14.2858
-114.69
-14.8441
-121.09
-15.441
-127.692
-16.0772
-134.515
-16.7534
-141.576
-17.4705
-148.891
-18.2295
-156.479
-19.0314
-164.357
-19.8775
-172.541
-20.7691
-181.051
-21.7076
-189.903
-22.6945
-199.115
-23.7316
-208.708
-24.8205
-218.699
-25.9632
-229.107
-27.1615
-239.954
-28.4176
-251.26
-29.7335
-263.046
-31.1114
-275.333
-32.5536
-288.145
-34.0624
-301.506
-35.6401
-315.438
-37.2888
-329.969
-39.0108
-345.124
-40.8077
-360.932
-42.6813
-377.42
-44.6325
-394.62
-46.6613
-412.564
-48.7668
-431.285
-50.9463
-450.818
-53.1949
-471.2
-55.5043
-492.468
-57.8623
-514.659
-60.2512
-537.81
-62.6461
-561.953
-65.0137
-587.111
-67.3101
-613.294
-69.4795
-640.49
-71.4535
-668.655
-73.1508
-697.699
-74.4793
-727.474
-75.3387
-757.77
-75.6233
-788.321
-75.2232
-818.824
-74.0181
-848.992
-71.8615
-878.609
-68.547
-907.591
-63.7614
-935.978
-57.0125
-963.837
-47.5584
-990.924
-34.3355
-1016.03
-16.0049
-1035.32
8.90109
-1040.91
41.4168
-1015.4
82.3156
-935.751
129.463
-758.61
187.745
-405.183
230.01
259.218
232.062
851.292
200.344
1354.63
153.397
1690.71
98.4188
1891.13
43.6452
1985.36
2214.83
-10.9981
-26.2682
-10.9264
-35.0871
-10.9247
-40.5288
-10.9688
-46.3241
-11.0651
-51.9089
-11.2051
-57.4139
-11.3896
-62.8637
-11.6157
-68.293
-11.883
-73.7319
-12.1904
-79.208
-12.5374
-84.7468
-12.9236
-90.3714
-13.3487
-96.1038
-13.8126
-101.965
-14.3156
-107.973
-14.8577
-114.148
-15.4393
-120.508
-16.0609
-127.07
-16.7233
-133.853
-17.427
-140.872
-18.1731
-148.145
-18.9625
-155.69
-19.7965
-163.523
-20.6761
-171.662
-21.6028
-180.124
-22.5782
-188.927
-23.6037
-198.09
-24.6811
-207.63
-25.8123
-217.567
-26.999
-227.921
-28.2434
-238.71
-29.5475
-249.956
-30.9136
-261.68
-32.3439
-273.903
-33.8407
-286.649
-35.4064
-299.94
-37.0434
-313.801
-38.7538
-328.259
-40.54
-343.338
-42.4039
-359.068
-44.347
-375.477
-46.3704
-392.597
-48.4742
-410.46
-50.6576
-429.101
-52.9177
-448.558
-55.2495
-468.868
-57.6449
-490.072
-60.0911
-512.213
-62.5701
-535.331
-65.0563
-559.466
-67.5153
-584.652
-69.9018
-610.907
-72.1579
-638.234
-74.2127
-666.601
-75.9819
-695.929
-77.3702
-726.085
-78.2746
-756.866
-78.5884
-788.007
-78.2031
-819.209
-77.0032
-850.192
-74.8496
-880.763
-71.5451
-910.895
-66.7824
-940.74
-60.0645
-970.555
-50.6196
-1000.37
-37.3119
-1029.34
-18.664
-1053.96
6.9618
-1066.54
40.901
-1049.34
84.0704
-978.92
134.678
-809.217
197.883
-468.388
247.485
209.617
251.171
847.606
218.761
1387.04
168.378
1741.1
112.974
1946.54
57.178
2041.15
2235.89
-11.3657
-26.3937
-11.3021
-35.1507
-11.3069
-40.524
-11.3589
-46.2721
-11.4635
-51.8043
-11.6132
-57.2642
-11.8086
-62.6683
-12.0469
-68.0547
-12.3277
-73.4511
-12.6498
-78.886
-13.0128
-84.3837
-13.4162
-89.968
-13.8598
-95.6602
-14.3436
-101.481
-14.8676
-107.449
-15.432
-113.584
-16.0373
-119.903
-16.684
-126.424
-17.3728
-133.164
-18.1043
-140.14
-18.8797
-147.37
-19.6999
-154.87
-20.5661
-162.657
-21.4795
-170.748
-22.4418
-179.162
-23.4543
-187.915
-24.5187
-197.026
-25.6368
-206.512
-26.8105
-216.394
-28.0417
-226.689
-29.3326
-237.419
-30.6852
-248.603
-32.1019
-260.263
-33.585
-272.42
-35.1369
-285.097
-36.7599
-298.317
-38.4567
-312.105
-40.2294
-326.486
-42.0805
-341.487
-44.0118
-357.136
-46.0251
-373.464
-48.1216
-390.5
-50.3013
-408.28
-52.5634
-426.839
-54.9053
-446.216
-57.3218
-466.451
-59.8046
-487.589
-62.341
-509.676
-64.9123
-532.76
-67.4926
-556.886
-70.0464
-582.098
-72.527
-608.427
-74.8747
-635.887
-77.0159
-664.459