/*--------------------------------*- C++ -*----------------------------------*\
| =========                 |                                                 |
| \\      /  F ield         | OpenFOAM: The Open Source CFD Toolbox           |
|  \\    /   O peration     | Version:  4.1                                   |
|   \\  /    A nd           | Web:      www.OpenFOAM.org                      |
|    \\/     M anipulation  |                                                 |
\*---------------------------------------------------------------------------*/
FoamFile
{
    version     2.0;
    format      ascii;
    class       volVectorField;
    location    "4";
    object      U;
}
// * * * * * * * * * * * * * * * * * * * * * * * * * * * * * * * * * * * * * //

dimensions      [0 1 -1 0 0 0 0];

internalField   nonuniform List<vector> 
6785
(
(1.20257e-14 -2.0331 16.4609)
(1.08892e-14 -7.70956 12.9318)
(-2.95723e-15 -5.07363 13.6539)
(4.15926e-15 -4.89747 13.2236)
(9.0009e-16 -4.1401 13.0731)
(-1.17846e-16 -3.67961 12.8003)
(2.50501e-15 -3.24726 12.5162)
(5.41988e-16 -2.92374 12.1947)
(-7.41197e-16 -2.69673 11.8557)
(1.65504e-15 -2.59048 11.5179)
(2.15839e-16 -2.57177 11.257)
(-2.72323e-16 -2.69851 11.0767)
(3.83238e-16 -3.30195 10.6023)
(-1.01609e-16 -3.33977 9.62717)
(7.20773e-18 0.0313438 7.55871)
(1.67029e-14 -9.87067 26.9299)
(1.2719e-14 -16.4785 23.188)
(-2.93977e-15 -11.3162 23.5745)
(3.89656e-15 -12.0614 21.8081)
(7.30752e-16 -10.4642 20.9325)
(5.98787e-16 -9.81069 19.7405)
(1.47834e-15 -8.88298 18.6527)
(-5.48099e-17 -8.11346 17.5321)
(-5.21996e-16 -7.3698 16.4489)
(3.15653e-16 -6.70033 15.3787)
(-1.70003e-16 -5.96477 14.1479)
(-4.82983e-16 -4.85995 12.1779)
(-4.74806e-16 -3.03491 8.50241)
(2.98877e-16 -0.396572 2.88999)
(2.93509e-16 1.33862 -2.01462)
(1.87625e-14 -12.3722 28.3197)
(1.12985e-14 -17.2486 24.9558)
(-2.18069e-15 -12.0044 25.0809)
(4.84138e-15 -13.3582 22.4902)
(5.25464e-16 -11.2073 21.4973)
(1.26955e-15 -10.8454 19.7458)
(2.43218e-15 -9.77294 18.3782)
(-5.39565e-16 -9.08985 16.8921)
(-6.12919e-17 -8.32892 15.5237)
(1.9047e-15 -7.66563 14.1586)
(-3.60401e-16 -6.89959 12.6174)
(-3.80814e-16 -5.61448 10.2508)
(2.95275e-15 -3.12586 5.76041)
(1.2155e-15 3.51147 -3.99521)
(8.24501e-16 1.73281 -6.39193)
(1.89696e-14 -12.7874 27.1592)
(1.18175e-14 -17.1435 24.8482)
(-1.88203e-15 -12.268 24.4244)
(4.6821e-15 -13.8652 21.4188)
(9.43201e-16 -11.5372 20.4587)
(1.1682e-15 -11.4015 18.4134)
(2.68302e-15 -10.3151 16.9274)
(2.30902e-16 -9.68973 15.327)
(-6.44326e-16 -9.03376 13.9384)
(5.27161e-16 -8.45378 12.6304)
(-7.13865e-16 -7.84667 11.2246)
(-1.57045e-15 -6.92285 9.51624)
(-4.34111e-17 -5.59165 6.97756)
(4.58717e-16 -3.04716 3.64743)
(4.77824e-16 -0.908722 -0.396147)
(1.88986e-14 -12.6611 26.1083)
(1.17102e-14 -16.568 24.4394)
(-2.04147e-15 -12.0089 23.7574)
(4.24952e-15 -13.5151 20.5955)
(2.96437e-16 -10.8701 19.7296)
(9.99345e-16 -10.8815 17.4173)
(1.90772e-15 -9.43795 15.9947)
(-1.00288e-15 -8.83621 14.3091)
(-1.32089e-15 -8.08253 12.9493)
(-2.02883e-16 -7.59304 11.623)
(-9.38462e-16 -7.17973 10.4064)
(-8.5424e-16 -6.71369 9.32274)
(1.14874e-16 -6.09574 8.20746)
(-5.11196e-16 -4.83345 6.72008)
(-8.95675e-16 -2.75484 3.48645)
(1.94944e-14 -13.0776 26.0734)
(9.91397e-15 -15.7654 24.3343)
(-8.13621e-16 -11.983 23.6244)
(3.33349e-15 -12.826 20.7904)
(2.93207e-16 -10.3379 19.8629)
(1.5324e-15 -10.1234 17.7571)
(9.84337e-16 -8.41582 16.2553)
(2.52809e-15 -7.12731 13.6824)
(5.99876e-15 -5.25776 10.7476)
(5.14822e-15 -4.13197 8.30465)
(1.25102e-15 -4.06392 7.63278)
(-1.01375e-15 -5.00272 8.51504)
(-1.62567e-15 -6.06738 9.86451)
(-1.04025e-15 -6.6795 10.3952)
(8.08945e-16 -4.87444 8.6431)
(1.92829e-14 -14.0936 27.4465)
(8.05053e-15 -16.1807 25.7185)
(-6.37391e-16 -12.7399 24.8895)
(2.67037e-15 -13.2453 22.5476)
(-2.56787e-16 -11.0366 21.6604)
(4.94193e-16 -10.7502 19.918)
(7.25038e-16 -9.03568 18.4677)
(3.91147e-15 -7.36305 15.4661)
(9.00178e-15 -4.58134 11.5119)
(8.07965e-15 -2.12028 7.5344)
(2.37648e-15 -0.293709 4.70718)
(1.62303e-15 0.179654 3.55185)
(1.25921e-15 -1.20479 4.90944)
(-1.81212e-15 -3.70501 7.77069)
(-1.61041e-15 -3.76382 8.06985)
(1.85044e-14 -14.2223 27.1129)
(9.53586e-15 -17.9566 28.4827)
(-7.64954e-16 -14.0103 26.4587)
(2.56883e-15 -14.5255 24.0685)
(-3.77038e-16 -12.4516 23.1947)
(-1.18607e-16 -12.4203 21.4613)
(4.50152e-16 -10.976 20.2476)
(2.04174e-15 -9.88013 17.7886)
(6.5702e-15 -7.5427 14.4829)
(8.01458e-15 -5.07357 10.5257)
(5.0318e-15 -2.43078 6.63974)
(5.54069e-15 0.112871 2.53252)
(4.81311e-15 2.44183 -1.10378)
(5.45681e-15 2.85861 -2.27875)
(3.87098e-15 0.906622 -0.736643)
(1.66155e-14 -12.9111 23.8332)
(1.25986e-14 -18.6498 29.6708)
(1.78565e-15 -15.2295 27.0957)
(1.96077e-15 -14.9596 24.0944)
(5.8158e-16 -13.3122 22.7567)
(9.93707e-16 -13.042 20.9685)
(4.26257e-16 -12.0506 19.5933)
(6.74123e-16 -11.3144 17.7459)
(3.19631e-15 -10.067 15.588)
(3.79987e-15 -8.55544 13.0191)
(3.47058e-15 -6.72379 10.1924)
(5.60705e-15 -4.54428 7.0157)
(4.5027e-15 -2.01772 3.33018)
(3.4278e-15 1.92889 -1.07211)
(3.06059e-15 1.67865 -5.31625)
(1.56608e-14 -11.1954 20.0777)
(1.47828e-14 -17.9187 29.0263)
(3.75815e-15 -15.3408 26.6669)
(2.02887e-15 -14.3559 23.1575)
(1.49147e-15 -12.8483 21.3938)
(1.64643e-15 -12.2848 19.5608)
(9.93289e-16 -11.3846 18.0373)
(7.257e-16 -10.6269 16.364)
(1.96368e-15 -9.73979 14.6435)
(1.95985e-15 -8.73042 12.8098)
(1.22055e-15 -7.58088 10.815)
(2.33418e-15 -6.14107 8.61304)
(2.60804e-15 -4.49244 5.91906)
(2.67094e-15 -1.82684 2.58568)
(-1.87292e-15 0.170595 -2.51954)
(1.48611e-14 -10.137 18.0304)
(1.57411e-14 -17.0626 28.2397)
(4.33539e-15 -14.8833 26.0121)
(1.82445e-15 -13.6296 22.3745)
(2.1824e-15 -12.1186 20.5345)
(1.71001e-15 -11.459 18.7253)
(7.69516e-16 -10.5005 17.2195)
(1.05008e-15 -9.70477 15.624)
(1.51479e-15 -8.85333 14.0835)
(9.15523e-16 -7.99219 12.5549)
(2.12521e-16 -7.09734 10.9789)
(8.89328e-17 -6.03146 9.27441)
(7.17448e-16 -4.78916 7.17719)
(7.9743e-16 -2.87652 4.32007)
(-5.35723e-15 -0.789076 -0.179546)
(1.41509e-14 -9.66603 17.2368)
(1.63736e-14 -16.6606 27.8134)
(3.60365e-15 -14.4692 25.4846)
(1.59187e-15 -13.1439 21.82)
(2.61759e-15 -11.5953 20.1386)
(8.91066e-16 -11.003 18.348)
(4.43601e-16 -9.92555 16.9301)
(1.63196e-15 -9.18386 15.3401)
(1.16881e-15 -8.28117 13.9037)
(2.48178e-16 -7.50679 12.4816)
(-1.31049e-16 -6.69269 11.1017)
(-9.0921e-16 -5.8095 9.60829)
(3.43189e-16 -4.70468 7.75745)
(-4.33178e-16 -3.00661 4.9572)
(-9.33834e-15 -0.459428 0.376333)
(1.23631e-14 -9.27191 16.5327)
(1.63994e-14 -16.69 27.6984)
(3.96842e-15 -14.7328 25.7328)
(2.19675e-15 -13.3294 22.0268)
(3.69559e-15 -11.775 20.3226)
(9.62654e-16 -11.2061 18.5117)
(5.12913e-17 -10.0595 17.0902)
(2.17145e-15 -9.32239 15.4659)
(8.56332e-16 -8.35288 14.0402)
(-3.33569e-16 -7.5874 12.617)
(-1.54156e-19 -6.77225 11.3001)
(-8.00715e-16 -5.97055 9.91805)
(1.83767e-16 -4.98063 8.26878)
(-1.44163e-16 -3.48902 5.75395)
(-7.3839e-15 -1.24718 2.1282)
(1.01095e-14 -8.12639 14.0311)
(1.57877e-14 -16.2979 26.6657)
(3.1299e-15 -14.9774 25.5235)
(-2.51023e-15 -12.8995 21.327)
(8.06522e-17 -11.1875 19.56)
(-8.70684e-16 -10.7192 18.0557)
(-6.35868e-16 -9.67568 16.8905)
(2.48994e-15 -9.04487 15.3631)
(1.78046e-15 -8.11161 14.0035)
(1.02017e-15 -7.36905 12.5709)
(1.82285e-15 -6.55726 11.2116)
(1.83036e-15 -5.72429 9.80094)
(2.91362e-15 -4.78533 8.10699)
(2.67477e-15 -3.19457 5.61038)
(-2.85867e-15 -0.887773 1.51946)
(6.80729e-15 -6.21152 11.2115)
(1.80823e-14 -16.2322 25.3887)
(1.4278e-14 -18.7869 28.3518)
(1.38501e-14 -17.9968 25.6116)
(1.33748e-14 -15.7116 22.071)
(9.49819e-15 -14.0099 19.3026)
(5.82024e-15 -12.7491 17.24)
(4.19533e-15 -11.7954 15.5755)
(4.78764e-15 -10.8553 14.1013)
(4.66612e-15 -9.94092 12.7476)
(3.49654e-15 -8.98295 11.4861)
(3.27747e-15 -7.95913 10.2496)
(3.72591e-15 -6.8225 8.94299)
(3.50607e-15 -5.31959 7.18263)
(6.40627e-15 -2.28293 3.20042)
(2.99957e-17 3.0411 12.0957)
(1.19642e-15 -0.629382 1.66988)
(1.15508e-15 -0.0662645 -0.994982)
(1.09638e-15 -0.105749 -0.750018)
(1.0916e-15 0.03168 -0.863026)
(1.44905e-15 0.241939 -1.21951)
(1.09551e-15 0.16826 -0.848661)
(1.11824e-15 0.257753 -0.843946)
(1.1462e-15 0.297607 -0.809144)
(1.37341e-15 0.49818 -1.12831)
(8.64417e-16 0.453064 -0.767157)
(6.97479e-16 0.512354 -0.656349)
(7.32335e-16 0.749728 -0.809719)
(3.33982e-16 0.621537 -0.461012)
(1.90648e-16 0.717012 -0.383977)
(1.04393e-16 0.688431 -0.294451)
(1.74737e-16 0.899141 -0.330884)
(2.75392e-16 0.773114 -0.135921)
(4.32244e-16 0.797213 -0.0871884)
(8.72699e-16 1.04043 -0.065649)
(7.53035e-16 0.81823 0.00840147)
(6.93799e-16 0.905232 0.0163878)
(4.04459e-16 0.840382 0.0126934)
(7.18655e-17 1.08315 0.0474895)
(-6.29046e-16 0.847734 0.0581692)
(-1.14825e-15 0.931451 0.0511133)
(-1.58026e-15 0.870783 0.0291505)
(-2.63399e-15 1.07271 0.0624716)
(-2.44326e-15 0.869227 0.0531708)
(-2.41318e-15 0.893373 0.0325246)
(-3.31927e-15 1.10921 0.0873377)
(-2.42147e-15 0.839175 0.0664688)
(-2.17574e-15 0.922215 0.0608852)
(-1.72582e-15 0.865465 0.0427991)
(-1.80565e-15 1.04082 0.105677)
(-7.85742e-16 0.824496 0.0720487)
(-3.09625e-16 0.851724 0.0418348)
(1.29263e-16 1.03284 0.0904756)
(4.88049e-16 0.768836 0.0331145)
(6.47449e-16 0.847479 0.0111428)
(6.31453e-16 0.79879 -0.0199501)
(7.52794e-16 0.96691 0.00457269)
(3.74676e-16 0.728239 -0.0324345)
(1.99765e-16 0.804809 -0.0503583)
(5.76081e-17 0.767598 -0.0803252)
(-1.56715e-18 0.903059 -0.0908866)
(4.22027e-17 0.704302 -0.10363)
(1.37481e-16 0.745316 -0.11478)
(4.32505e-16 0.880462 -0.119675)
(4.7951e-16 0.657303 -0.111513)
(5.81195e-16 0.730407 -0.109546)
(6.11195e-16 0.700573 -0.117905)
(9.51482e-16 0.828645 -0.143783)
(6.67561e-16 0.635381 -0.140243)
(6.27013e-16 0.705313 -0.150595)
(4.87734e-16 0.680153 -0.158165)
(9.88974e-16 0.821855 -0.305592)
(6.71315e-16 0.699641 -0.23269)
(6.74164e-16 0.742663 -0.204001)
(1.11331e-15 0.86 -0.271408)
(9.73662e-16 0.714077 -0.159435)
(1.10046e-15 0.770601 -0.120676)
(1.14964e-15 0.759315 -0.0920973)
(1.60486e-15 0.726265 -0.263711)
(1.39361e-15 0.471377 -0.473379)
(1.04036e-15 0.521661 -0.362268)
(2.20645e-15 0.560204 -1.65217)
(2.28418e-15 -0.0802425 -1.89595)
(2.04818e-15 0.0559458 -1.73191)
(2.75845e-15 0.25431 -2.07683)
(-1.20514e-15 0.149026 1.62576)
(-3.7804e-15 -0.891498 4.45379)
(-3.88696e-15 -1.05472 4.15589)
(-4.94917e-15 -1.23572 4.45262)
(-9.96529e-15 -2.18975 7.76205)
(-1.04413e-14 -3.02299 7.51054)
(-1.19754e-14 -3.20378 7.85243)
(-1.84259e-14 -4.84992 11.954)
(-1.50775e-14 -5.27734 9.88218)
(-1.60048e-14 -5.73449 10.4826)
(-1.73144e-14 -6.32982 12.233)
(-1.69309e-14 -6.24552 11.8857)
(-1.67787e-14 -6.36372 12.0614)
(-1.95681e-14 -7.50735 14.3468)
(-1.56798e-14 -7.00631 13.0784)
(-1.48916e-14 -7.20541 13.6214)
(-1.38002e-14 -7.20017 13.7036)
(-1.30453e-14 -7.27151 13.7243)
(-1.27678e-14 -7.33786 13.7373)
(-1.30313e-14 -7.40087 13.7328)
(-1.37194e-14 -7.43798 13.8078)
(-1.46311e-14 -7.53295 13.9541)
(-1.94634e-14 -7.86582 15.1997)
(-1.68426e-14 -7.97769 14.3383)
(-1.64091e-14 -8.07214 14.3813)
(-1.50127e-14 -8.06676 14.4124)
(-1.35124e-14 -8.1748 14.6118)
(-1.19829e-14 -8.16822 14.574)
(-1.03405e-14 -8.23439 14.5893)
(-8.83738e-15 -8.23952 14.5745)
(-7.60365e-15 -8.32069 14.5861)
(-8.1905e-15 -8.57499 15.7113)
(-6.05833e-15 -8.69734 14.945)
(-4.86244e-15 -8.75619 14.9545)
(-4.5419e-15 -8.78629 14.9389)
(-4.67981e-15 -8.81988 14.9598)
(-5.47392e-15 -8.84153 15.0421)
(-6.80441e-15 -8.89671 15.1413)
(-8.58774e-15 -8.8936 15.1003)
(-1.02986e-14 -8.89169 15.0961)
(-1.1766e-14 -8.98148 15.1028)
(-1.6959e-14 -8.93533 15.8027)
(-1.34316e-14 -9.22926 15.3317)
(-1.22258e-14 -9.24198 15.4204)
(-9.9192e-15 -9.25222 15.477)
(-7.36356e-15 -9.27299 15.5528)
(-4.65138e-15 -9.27875 15.6469)
(-2.29225e-15 -9.31062 15.8677)
(-4.77926e-16 -9.26833 15.969)
(6.64127e-16 -9.38111 16.0404)
(-9.84537e-16 -8.96237 16.2582)
(-1.54729e-16 -9.39503 16.0571)
(-1.45713e-16 -9.35685 16.4522)
(-6.21154e-16 -9.37079 16.7877)
(-1.14743e-15 -9.33192 16.9862)
(-1.63638e-15 -9.3563 17.2701)
(-2.16347e-15 -9.35941 17.5923)
(-2.70163e-15 -9.31251 18.0146)
(-2.97165e-15 -9.53803 18.6631)
(-9.83136e-15 -8.28779 18.2703)
(-7.45102e-15 -9.02434 18.6091)
(-9.21469e-15 -8.93098 19.2781)
(-1.08424e-14 -8.89624 19.8522)
(-1.32519e-14 -8.90365 20.6969)
(-1.72791e-14 -8.88464 21.2169)
(-2.26749e-14 -8.85181 21.6151)
(-2.87691e-14 -8.85779 21.9465)
(-3.43751e-14 -9.00734 22.0804)
(-4.79765e-14 -6.74789 20.1639)
(-3.7588e-14 -7.7655 20.4897)
(-3.37592e-14 -7.57841 19.9037)
(-2.41565e-14 -7.64175 19.189)
(-1.38044e-14 -7.56793 18.291)
(-3.61779e-15 -7.49368 17.2982)
(3.98913e-15 -7.42826 16.5327)
(7.73764e-15 -7.20152 15.2388)
(8.54897e-15 -7.03132 14.1912)
(7.03297e-15 -6.91596 13.1533)
(1.36211e-15 -3.47606 7.33673)
(2.93607e-15 -5.20131 10.646)
(1.81932e-15 -4.6859 9.54379)
(2.40201e-15 -4.79058 9.00821)
(3.08552e-15 -4.4593 7.95972)
(3.58944e-15 -4.39325 6.72138)
(3.42994e-15 -4.19091 4.66781)
(3.09036e-15 -3.80678 2.83974)
(3.68599e-15 -3.84606 2.90034)
(1.78417e-15 -3.13858 0.327418)
(2.21515e-15 -3.31127 1.94466)
(1.43845e-15 -3.26666 1.2005)
(-2.23563e-16 -2.28278 -1.23171)
(1.27631e-15 -4.03046 -0.00424116)
(7.02203e-16 -3.30555 -0.251647)
(6.45259e-16 -3.06641 -0.0506685)
(8.38536e-16 -4.10013 -0.171368)
(5.36879e-16 -2.88161 -0.0657251)
(9.50882e-16 -3.85477 -0.139498)
(8.233e-16 -3.71594 -0.134742)
(5.42899e-16 -3.06416 -0.0606637)
(8.80628e-16 -3.82673 -0.133526)
(7.74548e-16 -3.66021 -0.124926)
(6.36289e-16 -3.16528 -0.0559228)
(8.72714e-16 -4.29295 -0.120906)
(6.35738e-16 -2.98548 -0.0701679)
(9.03646e-16 -3.96243 -0.126532)
(6.04943e-16 -3.59609 -0.170316)
(4.87783e-16 -3.15157 -0.113478)
(5.7982e-16 -4.22715 -0.199877)
(3.04398e-16 -2.91199 -0.130493)
(5.28663e-16 -3.87605 -0.198927)
(5.14716e-16 -3.59402 -0.238747)
(4.8683e-16 -2.9581 -0.171146)
(7.56391e-16 -3.63904 -0.287461)
(6.56169e-16 -3.37904 -0.292299)
(4.133e-16 -2.89313 -0.207023)
(5.91746e-16 -3.86377 -0.312779)
(4.33541e-16 -2.64762 -0.207908)
(5.54026e-16 -3.48312 -0.302806)
(3.18458e-16 -3.06676 -0.28762)
(2.24675e-16 -2.66876 -0.197915)
(1.97812e-16 -3.53801 -0.288605)
(8.90728e-17 -2.4072 -0.192856)
(1.24743e-16 -3.18416 -0.298023)
(1.14965e-16 -2.86764 -0.316895)
(4.96434e-18 -2.34733 -0.236946)
(1.84126e-16 -2.86401 -0.365055)
(2.92085e-16 -2.59653 -0.340453)
(1.252e-16 -2.20199 -0.254707)
(2.08808e-16 -2.92342 -0.381545)
(1.29384e-16 -1.96247 -0.27089)
(1.57503e-16 -2.57919 -0.404796)
(1.15909e-16 -2.21644 -0.370968)
(1.33924e-16 -1.90356 -0.277101)
(-2.08287e-17 -2.517 -0.393293)
(-2.15302e-16 -1.6652 -0.281235)
(-3.99241e-16 -2.2083 -0.40996)
(-4.28714e-16 -1.94547 -0.374216)
(-4.08509e-16 -1.55771 -0.277493)
(-3.80942e-16 -1.91034 -0.405912)
(-5.19435e-17 -1.70693 -0.395664)
(9.13526e-17 -1.41335 -0.325572)
(2.35769e-16 -1.90826 -0.42803)
(3.44165e-16 -1.22566 -0.276783)
(5.00846e-16 -1.66034 -0.310037)
(3.90296e-16 -1.45234 -0.24776)
(1.99829e-16 -1.22832 -0.183748)
(2.21441e-16 -1.70128 -0.184252)
(1.25604e-16 -1.09688 -0.135794)
(1.85907e-16 -1.52399 -0.129)
(-9.33595e-18 -1.4034 -0.182459)
(-1.92317e-16 -1.07762 -0.156296)
(-4.98954e-16 -1.3799 -0.198887)
(-5.02812e-16 -1.22925 -0.274998)
(-3.15931e-16 -0.972645 -0.226923)
(-3.56558e-16 -1.37711 -0.292042)
(-2.00323e-16 -0.78421 -0.283254)
(-2.25758e-16 -1.13411 -0.383831)
(-1.44897e-16 -0.866327 -0.396233)
(-5.27696e-17 -0.645921 -0.309076)
(-2.86766e-17 -1.03166 -0.346631)
(-1.07418e-17 -0.38135 -0.280029)
(2.5563e-17 -0.79093 -0.455901)
(1.94863e-16 -0.574496 -0.559578)
(7.13452e-17 -0.101579 -0.355649)
(1.04815e-16 -0.458547 -0.529353)
(-1.16735e-16 -0.453851 -0.791583)
(-1.91259e-16 0.21724 -0.48244)
(-3.5847e-16 -0.218164 -0.651332)
(-4.26486e-16 0.255244 -0.385817)
(-6.55373e-16 0.26987 -0.531982)
(1.44366e-75 0.0318903 0.0317931)
(7.4749e-75 0.0445893 0.0307523)
(1.66567e-74 0.0535932 0.0308674)
(-9.47989e-74 0.0619868 0.0307277)
(-1.27357e-72 0.0703592 0.0309391)
(-6.34779e-72 0.0783637 0.0311619)
(-7.63468e-73 0.0863515 0.0315697)
(2.34398e-70 0.0942325 0.0320624)
(1.70152e-69 0.102138 0.0326942)
(2.48232e-69 0.110065 0.0334338)
(-5.34888e-68 0.118076 0.0342985)
(-4.75136e-67 0.126191 0.0352782)
(-9.5364e-67 0.13445 0.036379)
(1.41813e-65 0.142876 0.0375977)
(1.37063e-64 0.151503 0.0389369)
(2.88108e-64 0.160354 0.0403965)
(-4.14069e-63 0.169458 0.0419783)
(-3.94462e-62 0.178839 0.0436836)
(-6.88638e-62 0.188523 0.0455146)
(1.29536e-60 0.198536 0.0474738)
(1.08569e-59 0.208901 0.049564)
(8.33001e-60 0.219644 0.0517886)
(-4.14964e-58 0.23079 0.0541514)
(-2.64115e-57 0.242364 0.0566566)
(3.20078e-57 0.254391 0.059309)
(1.2434e-55 0.266897 0.0621136)
(4.77695e-55 0.279908 0.065076)
(-2.70995e-54 0.293451 0.0682025)
(-3.09236e-53 0.307553 0.0714994)
(-2.8748e-53 0.322242 0.0749738)
(1.07008e-51 0.337546 0.0786332)
(5.56284e-51 0.353493 0.0824856)
(-1.73062e-50 0.370115 0.0865393)
(-2.82314e-49 0.387441 0.0908032)
(-6.05523e-49 0.405503 0.0952866)
(7.45972e-48 0.424333 0.0999993)
(5.86309e-47 0.443963 0.104951)
(4.74152e-47 0.464428 0.110153)
(-1.85985e-45 0.485761 0.115615)
(-1.37303e-44 0.507996 0.121347)
(-1.68714e-44 0.531167 0.12736)
(4.94125e-43 0.555306 0.133664)
(4.17881e-42 0.580446 0.140266)
(4.22072e-42 0.606614 0.147175)
(-1.63817e-40 0.633834 0.154393)
(-1.12571e-39 0.662121 0.161921)
(6.15826e-40 0.691483 0.169754)
(4.69793e-38 0.721909 0.177878)
(2.1244e-37 0.753372 0.18627)
(-5.9235e-37 0.785816 0.194891)
(-9.70007e-36 0.819153 0.203687)
(-2.66586e-35 0.853248 0.212576)
(1.58608e-34 0.887915 0.221447)
(1.43133e-33 0.922903 0.230152)
(2.25871e-33 0.957891 0.238497)
(-2.45603e-32 0.992476 0.246232)
(-1.57086e-31 1.02617 0.253042)
(-1.49131e-31 1.05842 0.258537)
(2.50882e-30 1.08855 0.262233)
(1.33289e-29 1.11581 0.263539)
(1.13019e-29 1.13932 0.261714)
(-1.72338e-28 1.15795 0.255859)
(-8.72869e-28 1.17031 0.244797)
(-1.062e-27 1.17426 0.227152)
(7.18763e-27 1.16707 0.201036)
(4.0801e-26 1.14404 0.164618)
(7.91689e-26 1.09983 0.115171)
(-1.01581e-25 1.02363 0.0519194)
(-1.1088e-24 0.907407 -0.0277364)
(-3.3506e-24 0.724837 -0.115453)
(-8.51933e-24 0.453244 -0.20748)
(3.60192e-23 -0.111387 -0.306443)
(-1.09282e-22 -0.520892 -0.326889)
(4.44065e-22 -0.989633 -0.267526)
(-1.01388e-21 -1.32407 -0.325494)
(8.11129e-21 -1.88046 -0.161702)
(-1.40744e-19 -1.89281 -0.450655)
(4.66541e-18 -3.00615 0.0401972)
(-1.68043e-17 -3.28832 -1.28013)
(5.9346e-75 0.0321035 0.0368035)
(3.41466e-74 0.044768 0.0353681)
(9.50684e-74 0.0536165 0.0354491)
(-2.8015e-73 0.0619871 0.0352288)
(-5.22768e-72 0.0702983 0.0354469)
(-2.96412e-71 0.078268 0.0356795)
(-2.90095e-71 0.0862109 0.0361335)
(9.08802e-70 0.0940542 0.0366854)
(7.58307e-69 0.101919 0.0373989)
(1.63365e-68 0.109808 0.0382352)
(-2.01805e-67 0.11778 0.0392143)
(-2.08083e-66 0.125856 0.0403237)
(-5.52591e-66 0.134076 0.04157)
(5.28463e-65 0.142464 0.0429493)
(5.94858e-64 0.151051 0.0444643)
(1.63355e-63 0.159863 0.0461145)
(-1.52996e-62 0.168927 0.0479019)
(-1.7013e-61 0.178268 0.0498278)
(-4.1696e-61 0.187911 0.0518945)
(4.75277e-60 0.197882 0.0541046)
(4.69363e-59 0.208204 0.0564611)
(7.7478e-59 0.218903 0.0589677)
(-1.52621e-57 0.230004 0.0616284)
(-1.17721e-56 0.241531 0.0644477)
(-1.1576e-57 0.25351 0.0674308)
(4.68496e-55 0.265966 0.0705831)
(2.38016e-54 0.278926 0.0739107)
(-6.95148e-54 0.292415 0.0774201)
(-1.23401e-52 0.306461 0.0811183)
(-2.7502e-52 0.321091 0.085013)
(3.50211e-51 0.336334 0.0891119)
(2.47128e-50 0.352219 0.0934238)
(-3.1272e-50 0.368774 0.0979575)
(-1.05143e-48 0.386031 0.102722)
(-3.17673e-48 0.404021 0.107728)
(2.53764e-47 0.422776 0.112986)
(2.29591e-46 0.442328 0.118505)
(1.5848e-46 0.462711 0.124297)
(-7.47203e-45 0.483959 0.130372)
(-4.53917e-44 0.506106 0.136742)
(1.64547e-44 0.529186 0.143415)
(1.80515e-42 0.553231 0.150402)
(1.05084e-41 0.578275 0.15771)
(-6.95423e-42 0.604345 0.165343)
(-4.69972e-40 0.631466 0.173304)
(-2.50614e-39 0.659656 0.181589)
(4.24275e-39 0.688923 0.190187)
(1.17709e-37 0.719262 0.199077)
(4.58736e-37 0.750647 0.208225)
(-1.72625e-36 0.78303 0.217581)
(-2.31309e-35 0.816327 0.22707)
(-5.59413e-35 0.850414 0.236588)
(4.06351e-34 0.885116 0.245999)
(3.3208e-33 0.920195 0.255121)
(4.28757e-33 0.955346 0.26372)
(-6.02622e-32 0.990185 0.271507)
(-3.51164e-31 1.02425 0.278121)
(-2.1637e-31 1.057 0.283124)
(5.94351e-30 1.08782 0.285983)
(2.82367e-29 1.11597 0.286053)
(1.33433e-29 1.14064 0.282528)
(-3.92103e-28 1.16076 0.274424)
(-1.74476e-27 1.17503 0.260432)
(-1.51651e-27 1.18141 0.239011)
(1.58356e-26 1.17726 0.207992)
(7.77351e-26 1.158 0.165306)
(1.29776e-25 1.11815 0.107772)
(-2.44992e-25 1.04688 0.0347186)
(-2.05089e-24 0.93472 -0.0568043)
(-5.65473e-24 0.754695 -0.157231)
(-1.31035e-23 0.484073 -0.26095)
(4.5019e-23 -0.0903176 -0.392093)
(-1.05044e-22 -0.549163 -0.378271)
(4.35283e-22 -1.01766 -0.293978)
(-1.02353e-21 -1.36359 -0.342131)
(8.62259e-21 -1.8943 -0.168103)
(-1.51874e-19 -1.93976 -0.448123)
(4.70792e-18 -2.92491 0.0392243)
(-1.22877e-17 -3.24722 -1.23616)
(2.02704e-74 0.0322324 0.0395109)
(1.30955e-73 0.0448724 0.0379204)
(4.34624e-73 0.0536298 0.0379826)
(-5.11825e-73 0.0619842 0.0377203)
(-1.78575e-71 0.0702605 0.0379431)
(-1.15649e-70 0.0782098 0.0381829)
(-2.02052e-70 0.0861275 0.0386637)
(2.89419e-69 0.0939495 0.0392501)
(2.82442e-68 0.101792 0.0400101)
(7.96217e-68 0.109659 0.0409013)
(-6.20917e-67 0.117609 0.041945)
(-7.59866e-66 0.125664 0.0431274)
(-2.4896e-65 0.133861 0.0444553)
(1.60514e-64 0.142228 0.0459244)
(2.14589e-63 0.150793 0.0475375)
(7.17344e-63 0.159583 0.0492939)
(-4.61946e-62 0.168625 0.0511957)
(-6.06697e-61 0.177943 0.0532442)
(-1.86321e-60 0.187564 0.0554416)
(1.42572e-59 0.197511 0.0577907)
(1.66035e-58 0.207809 0.0602947)
(3.96318e-58 0.218484 0.0629571)
(-4.56187e-57 0.22956 0.0657824)
(-4.20355e-56 0.241061 0.0687751)
(-4.69706e-56 0.253013 0.0719406)
(1.41514e-54 0.265442 0.0752845)
(9.01737e-54 0.278373 0.0788132)
(-1.01811e-53 0.291832 0.0825334)
(-3.86185e-52 0.305848 0.0864524)
(-1.33828e-51 0.320446 0.090578)
(8.45451e-51 0.335655 0.0949184)
(8.31312e-50 0.351505 0.0994825)
(2.20295e-50 0.368024 0.104279)
(-2.934e-48 0.385244 0.109319)
(-1.21928e-47 0.403195 0.114611)
(5.90761e-47 0.421909 0.120167)
(6.85474e-46 0.441419 0.125997)
(7.59539e-46 0.461758 0.132111)
(-2.12975e-44 0.48296 0.138522)
(-1.26234e-43 0.50506 0.145239)
(1.34245e-43 0.528091 0.152273)
(5.12014e-42 0.552087 0.159631)
(2.25988e-41 0.57708 0.167322)
(-5.68166e-41 0.6031 0.17535)
(-1.12586e-39 0.630171 0.183713)
(-4.30599e-39 0.658313 0.192407)
(1.61413e-38 0.687535 0.201418)
(2.38613e-37 0.717835 0.210719)
(7.10508e-37 0.749189 0.220272)
(-4.18035e-36 0.781552 0.230017)
(-4.28278e-35 0.814845 0.239869)
(-8.077e-35 0.84895 0.249713)
(8.2582e-34 0.883698 0.259396)
(5.86671e-33 0.918858 0.268719)
(5.37294e-33 0.954134 0.277428)
(-1.13566e-31 0.989153 0.285212)
(-5.98686e-31 1.02346 0.291687)
(-1.74568e-31 1.05654 0.296396)
(1.07023e-29 1.08777 0.298781)
(4.63707e-29 1.11645 0.298177)
(7.97078e-30 1.14179 0.293746)
(-6.80212e-28 1.16277 0.284466)
(-2.75864e-27 1.17812 0.268954)
(-1.69596e-27 1.18589 0.245576)
(2.67145e-26 1.18349 0.212004)
(1.18998e-25 1.16641 0.16601)
(1.75962e-25 1.12905 0.104139)
(-4.28663e-25 1.06054 0.0257232)
(-3.07366e-24 0.950485 -0.0724912)
(-7.95765e-24 0.771268 -0.180636)
(-1.71933e-23 0.499285 -0.292199)
(5.73658e-23 -0.0857473 -0.432078)
(-1.00329e-22 -0.553984 -0.447366)
(4.2002e-22 -1.01203 -0.336515)
(-1.04189e-21 -1.36491 -0.366449)
(9.37927e-21 -1.87298 -0.179266)
(-1.66218e-19 -1.9503 -0.442173)
(4.72339e-18 -2.83153 0.0399391)
(-7.75778e-18 -3.16667 -1.19199)
(6.55129e-74 0.0324383 0.0425937)
(4.85099e-73 0.0450357 0.040868)
(1.87651e-72 0.0536623 0.0409186)
(2.23123e-73 0.061989 0.0406207)
(-5.80558e-71 0.0702126 0.0408536)
(-4.36872e-70 0.0781303 0.0411073)
(-1.08809e-69 0.0860099 0.0416229)
(8.58285e-69 0.0937998 0.0422529)
(1.02093e-67 0.101608 0.0430702)
(3.58944e-67 0.109443 0.0440285)
(-1.75873e-66 0.11736 0.0451504)
(-2.69969e-65 0.125383 0.0464207)
(-1.06449e-64 0.133549 0.0478466)
(4.49508e-64 0.141884 0.0494234)
(7.5538e-63 0.150417 0.0511539)
(3.00578e-62 0.159175 0.0530372)
(-1.29885e-61 0.168184 0.0550755)
(-2.11591e-60 0.177469 0.0572701)
(-7.84499e-60 0.187056 0.0596233)
(4.03268e-59 0.196969 0.062138)
(5.73907e-58 0.207232 0.0648175)
(1.77715e-57 0.217871 0.0676656)
(-1.29688e-56 0.22891 0.0706867)
(-1.45517e-55 0.240373 0.0738859)
(-2.94838e-55 0.252286 0.0772685)
(4.07177e-54 0.264674 0.0808405)
(3.23378e-53 0.277563 0.0846086)
(8.62824e-54 0.290979 0.0885798)
(-1.14459e-51 0.304949 0.0927617)
(-5.51174e-51 0.3195 0.0971624)
(1.6656e-50 0.334661 0.101791)
(2.61174e-49 0.35046 0.106655)
(4.49259e-49 0.366926 0.111766)
(-7.35055e-48 0.38409 0.117133)
(-4.27899e-47 0.401984 0.122767)
(1.01137e-46 0.420638 0.128679)
(1.89243e-45 0.440085 0.134879)
(3.65239e-45 0.46036 0.141379)
(-5.27872e-44 0.481495 0.14819)
(-3.49358e-43 0.503525 0.155323)
(3.20736e-43 0.526485 0.162787)
(1.34819e-41 0.550407 0.170592)
(5.272e-41 0.575326 0.178743)
(-1.93747e-40 0.60127 0.187243)
(-2.71026e-39 0.628267 0.196092)
(-7.48397e-39 0.656337 0.205279)
(4.90581e-38 0.685492 0.214789)
(4.9114e-37 0.715731 0.224591)
(9.75387e-37 0.747036 0.234637)
(-1.00398e-35 0.779366 0.244861)
(-7.80653e-35 0.812648 0.255167)
(-9.13909e-35 0.846772 0.265425)
(1.67364e-33 0.881578 0.275464)
(9.96486e-33 0.916847 0.285064)
(3.94518e-33 0.952295 0.29395)
(-2.09237e-31 0.987563 0.301783)
(-9.74443e-31 1.02222 0.308154)
(1.12837e-31 1.05575 0.312578)
(1.86382e-29 1.08757 0.314473)
(7.31222e-29 1.11701 0.313145)
(-1.12253e-29 1.14331 0.307722)
(-1.13959e-27 1.16552 0.297137)
(-4.23624e-27 1.18244 0.279929)
(-1.57486e-27 1.19222 0.25436)
(4.36295e-26 1.19234 0.217916)
(1.78754e-25 1.17841 0.168176)
(2.3391e-25 1.14469 0.101349)
(-7.17439e-25 1.08025 0.016687)
(-4.54999e-24 0.973535 -0.0895095)
(-1.11568e-23 0.796381 -0.207044)
(-2.26539e-23 0.523398 -0.329105)
(7.82611e-23 -0.0536593 -0.482007)
(-9.65199e-23 -0.563256 -0.526642)
(3.9729e-22 -1.02033 -0.396657)
(-1.07919e-21 -1.37717 -0.400617)
(1.03755e-20 -1.86533 -0.196111)
(-1.81964e-19 -1.9669 -0.439108)
(4.66957e-18 -2.76188 0.0439632)
(-4.16381e-18 -3.10848 -1.14398)
(1.95741e-73 0.0326339 0.0454895)
(1.72439e-72 0.0451875 0.0436806)
(7.6959e-72 0.0536947 0.043725)
(8.86443e-72 0.061992 0.0434015)
(-1.7618e-70 0.0701655 0.0436475)
(-1.58966e-69 0.0780519 0.0439186)
(-5.15504e-69 0.0858952 0.0444702)
(2.27028e-68 0.093654 0.0451451)
(3.55794e-67 0.10143 0.0460198)
(1.52161e-66 0.109234 0.047045)
(-4.31666e-66 0.11712 0.0482443)
(-9.27052e-65 0.125113 0.0496014)
(-4.34423e-64 0.133248 0.0511236)
(1.092e-63 0.141552 0.0528059)
(2.57878e-62 0.150055 0.0546512)
(1.2077e-61 0.158782 0.0566585)
(-3.23516e-61 0.16776 0.0588299)
(-7.17908e-60 0.177014 0.0611668)
(-3.15042e-59 0.186569 0.0636718)
(1.03799e-58 0.196449 0.0663475)
(1.93159e-57 0.20668 0.0691976)
(7.36033e-57 0.217284 0.072226)
(-3.42778e-56 0.228288 0.0754373)
(-4.88208e-55 0.239715 0.0788368)
(-1.40285e-54 0.251591 0.08243)
(1.10102e-53 0.263941 0.0862234)
(1.10591e-52 0.27679 0.0902236)
(1.58725e-52 0.290165 0.0944381)
(-3.18996e-51 0.304093 0.0988747)
(-2.04721e-50 0.318599 0.103542)
(1.8226e-50 0.333714 0.108449)
(7.65138e-49 0.349465 0.113605)
(2.45874e-48 0.365881 0.11902)
(-1.57488e-47 0.382994 0.124704)
(-1.37231e-46 0.400833 0.130669)
(4.12945e-47 0.419431 0.136925)
(4.72087e-45 0.43882 0.143484)
(1.48655e-44 0.459034 0.150357)
(-1.09418e-43 0.480107 0.157556)
(-9.19025e-43 0.502073 0.165091)
(1.95978e-43 0.524966 0.172973)
(3.20874e-41 0.548822 0.181209)
(1.29424e-40 0.573672 0.189805)
(-4.82671e-40 0.599548 0.198764)
(-6.31394e-39 0.626478 0.208082)
(-1.40492e-38 0.654484 0.217748)
(1.26488e-37 0.68358 0.227742)
(1.01691e-36 0.713768 0.238029)
(1.17349e-36 0.745034 0.248557)
(-2.30976e-35 0.777342 0.259248)
(-1.41131e-34 0.810627 0.269997)
(-4.91174e-35 0.844784 0.280661)
(3.35129e-33 0.879662 0.291052)
(1.6316e-32 0.915055 0.30093)
(-4.98011e-33 0.950688 0.309999)
(-3.77493e-31 0.986216 0.317895)
(-1.50294e-30 1.02122 0.324186)
(1.0282e-30 1.0552 0.328361)
(3.14204e-29 1.0876 0.329816)
(1.08989e-28 1.11778 0.327835)
(-6.34833e-29 1.14501 0.321517)
(-1.83882e-27 1.1684 0.309757)
(-6.1911e-27 1.18681 0.291028)
(-5.19989e-28 1.19851 0.263488)
(6.86481e-26 1.20105 0.224452)
(2.58e-25 1.19017 0.171288)
(2.91036e-25 1.15998 0.0998637)
(-1.15477e-24 1.09953 0.00925462)
(-6.52774e-24 0.996082 -0.104782)
(-1.51674e-23 0.820973 -0.23186)
(-2.90783e-23 0.546995 -0.365571)
(1.11236e-22 -0.0220023 -0.533276)
(-9.12407e-23 -0.574624 -0.608333)
(3.62482e-22 -1.03878 -0.474812)
(-1.11324e-21 -1.40095 -0.448821)
(1.14092e-20 -1.86787 -0.220682)
(-1.95485e-19 -1.99204 -0.440319)
(4.48493e-18 -2.69694 0.0429672)
(-9.94168e-19 -3.07323 -1.09887)
(5.18613e-73 0.0328505 0.0483342)
(5.84428e-72 0.0453518 0.0464745)
(3.00587e-71 0.0537337 0.0465182)
(6.10428e-71 0.061996 0.0461787)
(-4.8363e-70 0.0701142 0.0464415)
(-5.54674e-69 0.077965 0.0467344)
(-2.2401e-68 0.0857679 0.0473249)
(4.82253e-68 0.0934919 0.0480478)
(1.18862e-66 0.101232 0.0489826)
(6.11377e-66 0.109002 0.0500774)
(-7.65017e-66 0.116854 0.0513565)
(-3.06026e-64 0.124812 0.0528028)
(-1.69732e-63 0.132914 0.0544238)
(1.91449e-63 0.141184 0.056214)
(8.49832e-62 0.149653 0.0581765)
(4.66599e-61 0.158346 0.0603101)
(-6.25451e-61 0.16729 0.0626171)
(-2.36112e-59 0.176509 0.0650988)
(-1.21475e-58 0.186029 0.0677578)
(2.24766e-58 0.195873 0.0705971)
(6.31857e-57 0.206067 0.0736203)
(2.88078e-56 0.216634 0.0768317)
(-8.07701e-56 0.227599 0.0802359)
(-1.58911e-54 0.238987 0.0838385)
(-5.87414e-54 0.250822 0.0876452)
(2.74042e-53 0.263129 0.0916628)
(3.62998e-52 0.275935 0.0958982)
(8.95472e-52 0.289265 0.100359)
(-8.28364e-51 0.303145 0.105054)
(-7.05753e-50 0.317603 0.109991)
(-4.82404e-50 0.332667 0.11518)
(2.08579e-48 0.348365 0.120631)
(1.01924e-47 0.364726 0.126354)
(-2.49593e-47 0.381782 0.132359)
(-4.03566e-46 0.399562 0.138659)
(-6.31162e-46 0.418098 0.145264)
(1.02814e-44 0.437423 0.152186)
(5.18953e-44 0.457571 0.159438)
(-1.6565e-43 0.478575 0.16703)
(-2.22257e-42 0.50047 0.174973)
(-1.97367e-42 0.523291 0.183277)
(6.69785e-41 0.547072 0.191951)
(3.17344e-40 0.571848 0.201)