/*--------------------------------*- C++ -*----------------------------------*\
| =========                 |                                                 |
| \\      /  F ield         | OpenFOAM: The Open Source CFD Toolbox           |
|  \\    /   O peration     | Version:  4.1                                   |
|   \\  /    A nd           | Web:      www.OpenFOAM.org                      |
|    \\/     M anipulation  |                                                 |
\*---------------------------------------------------------------------------*/
FoamFile
{
    version     2.0;
    format      ascii;
    class       volScalarField;
    location    "24";
    object      p;
}
// * * * * * * * * * * * * * * * * * * * * * * * * * * * * * * * * * * * * * //

dimensions      [0 2 -2 0 0 0 0];

internalField   nonuniform List<scalar> 
6785
(
666.549
612.353
560.487
511.778
466.612
424.302
384.664
347.404
312.085
278.443
247.096
218.67
189.814
154.871
124.376
193.406
171.534
166.846
163.321
157.956
152.439
147.485
143.285
139.994
137.726
136.688
137.312
139.6
141.749
141.7
95.2827
89.6406
95.5802
99.3013
102.071
105.39
108.991
112.639
116.269
119.734
122.818
125.61
128.475
130.798
131.384
139.783
139.694
144.088
144.206
144.048
144.1
143.876
143.39
142.72
141.892
140.877
139.697
138.665
138.314
138.548
153.102
154.011
155.751
154.011
152.713
151.643
150.367
149.099
147.954
146.975
146.176
145.53
145.031
144.939
145.062
142.621
143.393
144.502
144.03
144.132
144.358
144.473
144.675
144.973
145.322
145.704
146.087
146.347
146.598
146.524
138.549
139.34
140.8
141.682
142.512
143.133
143.612
144.092
144.534
144.903
145.198
145.419
145.435
145.464
145.024
140.685
141.225
142.678
143.864
144.433
144.702
144.879
145.035
145.134
145.18
145.187
145.171
144.95
144.885
144.341
142.979
143.092
144.16
145.156
145.284
145.245
145.209
145.171
145.109
145.038
144.965
144.903
144.588
144.523
143.968
143.426
143.284
143.989
144.833
144.753
144.653
144.588
144.519
144.443
144.375
144.306
144.264
143.905
143.848
143.286
142.334
142.165
142.701
143.551
143.492
143.488
143.495
143.481
143.458
143.441
143.403
143.4
143.029
142.996
142.428
140.426
140.354
140.865
141.786
141.856
142.024
142.17
142.285
142.388
142.484
142.538
142.617
142.28
142.312
141.785
138.096
138.04
138.607
139.688
139.931
140.341
140.699
141.038
141.364
141.681
141.933
142.198
141.957
142.116
141.742
132.868
133.243
134.228
135.81
136.808
138.123
139.379
140.606
141.775
142.837
143.759
144.444
144.591
145.022
144.507
132.413
128.502
126.716
126.813
127.311
128.933
130.922
133.242
135.569
137.912
139.989
141.743
143.3
145.199
146.403
184.638
184.703
184.682
184.574
184.666
184.659
184.562
184.361
184.443
184.575
184.382
183.94
184.333
184.231
183.653
183.672
184.331
184.018
183.05
183.859
183.892
182.95
182.889
184.147
183.678
182.438
182.647
184.399
183.813
181.911
183.22
183.756
182.485
182.329
184.128
183.886
181.868
183.394
184.1
182.671
182.455
184.463
184.236
182.516
182.769
185.235
184.92
182.703
183.893
184.89
183.78
183.688
185.348
185.327
184.008
184.273
185.993
185.959
184.575
185.336
186.135
185.514
185.562
186.224
186.488
185.944
186.247
186.709
186.442
186.579
186.523
186.771
186.657
186.811
186.432
186.554
186.603
185.669
184.966
185.116
185.443
185.072
184.156
190.065
182.867
183.268
183.284
183.256
183.343
183.622
183.403
182.439
187.579
179.266
179.426
179.954
180.341
180.427
180.739
180.371
179.083
182.347
174.21
173.917
173.559
173.552
173.783
173.831
173.769
172.979
170.845
169.3
161.089
160.056
158.983
158.103
158.032
158.286
157.141
153.621
142.466
139.115
138.668
137.606
135.832
134.337
133.578
132.691
129.024
110.057
106.602
104.148
103.252
101.991
99.7503
97.4482
94.8662
90.7203
65.555
68.7355
64.6223
61.1154
57.8502
55.4649
52.6036
49.3434
46.6845
43.4977
12.0584
24.7278
20.8728
19.0439
17.143
13.659
9.18054
8.94898
11.7271
-12.81
11.0852
8.53246
5.71926
7.04805
5.57373
5.70786
5.7782
6.06483
6.41204
5.50366
5.98182
6.41822
5.61898
5.50943
5.28265
5.8217
6.40553
5.28985
5.35911
5.20502
5.95714
6.15303
4.21545
5.72448
6.69909
4.51737
4.09559
3.40091
5.02791
6.41965
3.69066
3.68909
3.23565
4.8461
5.3284
1.8109
4.95929
6.88922
3.22486
2.53558
1.60444
4.31063
6.63288
2.96381
3.00451
2.52373
4.70904
5.58974
1.72611
5.48927
7.77072
4.1764
3.70539
2.83629
5.44254
7.50558
4.24618
4.36967
3.79644
5.57587
6.09982
3.02986
5.25083
6.03422
3.62292
3.68412
3.07808
4.35382
4.62395
2.97298
3.34359
3.172
4.89335
5.21044
4.57495
5.89128
6.11358
4.81477
4.55708
3.9827
2.91021
1.47575
0.055033
0.0885221
0.0767696
0.0793468
0.0807748
0.0841157
0.0883228
0.0936549
0.100135
0.107937
0.117184
0.128358
0.142127
0.158204
0.177135
0.199227
0.224818
0.254292
0.288319
0.327494
0.372957
0.425824
0.488471
0.564554
0.660401
0.785938
0.954033
1.17545
1.45624
1.80001
2.19053
2.52367
2.43079
1.42165
0.944541
0.860067
0.253819
0.150178
2.83295
14.782
13.0144
4.32522
2.04409
0.102664
0.574129
1.57116
1.37521
-0.00474704
-3.1917
-8.04901
-13.1486
-16.559
-16.3634
-13.4562
-11.0029
-9.60032
-6.64733
-0.632245
5.60309
7.37875
4.2431
2.47817
1.52574
0.423571
0.226397
0.066443
0.00198973
-0.163037
-0.305834
-0.55579
-0.714381
-0.543307
-0.524187
-0.415224
0.0290223
0.278293
0.371186
-0.0381595
0.433255
0.0439845
0.128333
0.11585
0.130765
0.144415
0.162752
0.18343
0.206985
0.233331
0.262736
0.295328
0.332239
0.374229
0.420091
0.47099
0.527418
0.589479
0.657456
0.732313
0.814333
0.904238
1.00337
1.11592
1.24901
1.41756
1.64684
1.97158
2.42434
3.02536
3.7873
4.65399
5.37868
5.3735
4.22216
3.27188
3.10879
2.32381
2.02424
5.94772
23.5734
22.4963
10.2083
5.94341
2.85308
2.5819
3.11776
2.58196
0.564795
-3.92419
-11.0309
-18.8778
-24.7552
-26.2755
-24.0073
-20.8915
-17.4313
-11.1794
-1.46903
7.34434
9.38068
5.72962
3.36188
1.86621
0.70824
0.317164
0.0759594
0.173189
-0.105151
-0.372121
-0.732314
-0.991436
-0.854719
-0.901885
-0.81799
-0.276288
0.191931
0.701364
0.818541
1.77872
0.0109979
0.133914
0.128494
0.160433
0.190461
0.227855
0.268734
0.314
0.363464
0.417656
0.477358
0.544059
0.617509
0.697447
0.785411
0.882655
0.989133
1.10561
1.23371
1.37391
1.52673
1.69449
1.88311
2.10149
2.36835
2.71368
3.17436
3.77514
4.5096
5.35933
6.2117
6.75337
6.48188
5.26179
4.35147
4.13405
3.48877
3.31393
8.31885
28.6772
28.0979
14.9717
9.83572
6.01496
4.92411
4.21481
2.53773
-0.670693
-6.2914
-14.3438
-22.7338
-28.59
-29.5997
-26.5418
-22.3594
-17.4628
-9.72175
0.615628
8.71693
9.61103
5.76419
3.28052
1.42795
0.249925
-0.191022
-0.376137
-0.13101
-0.43497
-0.706033
-1.04042
-1.15371
-0.97455
-0.901567
-0.826465
-0.33915
0.363174
0.883945
1.17025
2.46997
-0.00930479
0.151822
0.158239
0.211047
0.260924
0.320623
0.385019
0.455386
0.531553
0.614393
0.705766
0.806653
0.915903
1.03587
1.16777
1.31358
1.47369
1.6496
1.84351
2.05634
2.28764
2.54067
2.82218
3.14071
3.51494
3.97156
4.53452
5.19747
5.89697
6.56351
7.05058
7.10161
6.52725
5.32883
4.6593
4.39394
3.82613
4.11165
10.6223
32.2532
32.4322
18.7189
12.8267
8.34145
6.23623
4.72837
2.29961
-1.83831
-8.24086
-16.4719
-24.3016
-28.9516
-28.6405
-24.5122
-19.5313
-13.898
-5.81787
3.82359
10.3593
9.97056
5.9359
3.07859
0.995296
-0.357414
-0.734195
-0.779376
-0.394519
-0.654601
-0.938949
-1.21894
-1.19468
-0.994315
-0.877449
-0.802681
-0.290115
0.567565
0.850103
0.903068
2.16092
-0.0139461
0.182327
0.202696
0.276814
0.347132
0.429276
0.517308
0.612816
0.71581
0.827407
0.949708
1.08339
1.22835
1.38805
1.56374
1.75782
1.97176
2.20742
2.4675
2.75305
3.0613
3.39539
3.76128
4.16397
4.6178
5.14002
5.73285
6.35059
6.86827
7.18719
7.20055
6.83312
6.12149
5.10486
4.62978
4.36466
3.91631
4.841
12.9939
34.8095
35.7374
22.2781
15.3886
10.1857
7.02773
5.05267
2.04833
-2.50455
-9.02865
-16.6675
-23.2425
-26.3359
-24.8479
-20.3005
-15.3701
-9.88126
-2.28856
6.24205
11.4206
10.2129
6.06613
2.81233
0.506764
-1.06595
-1.40749
-1.30637
-0.741197
-0.884083
-1.11568
-1.30766
-1.1887
-0.956671
-0.86692
-0.79533
-0.226908
0.727546
0.763026
0.592428
1.46433
-0.00143682
0.226012
0.26069
0.355335
0.445865
0.550129
0.661429
0.781649
0.910996
1.05071
1.20234
1.36716
1.54686
1.7442
1.96121
2.20075
2.46512
2.75612
3.07691
3.42796
3.80288
4.20316
4.63262
5.09025
5.58344
6.118
6.67265
7.16756
7.4292
7.37024
6.99155
6.41066
5.63064
4.79216
4.46691
4.2233
3.95993
5.5895
15.2386
36.2183
38.0199
25.4995
17.7066
11.838
7.79121
5.36412
1.86841
-2.70031
-8.76688
-15.3102
-20.4161
-22.2352
-20.2604
-16.1998
-12.0661
-7.26869
-0.429528
7.19001
11.5637
10.0856
5.9311
2.36928
-0.169243
-1.90435
-2.21534
-1.94269
-1.16544
-1.13891
-1.26019
-1.35304
-1.17762
-0.897982
-0.858298
-0.789891
-0.152461
0.848088
0.7326
0.522298
1.07615
0.0159442
0.27146
0.320736
0.435764
0.5471
0.674182
0.809601
0.955475
1.1121
1.28085
1.46304
1.66065
1.87617
2.11177
2.37036
2.65552
2.96969
3.31444
3.69321
4.10513
4.53934
4.99449
5.47197
5.96381
6.46986
6.98611
7.47098
7.826
7.8476
7.48358
6.84414
6.11597
5.29798
4.57161
4.33422
4.12455
4.10853
6.42479
17.2359
36.5709
39.437
28.1559
19.8808
13.4904
8.73492
5.79599
2.11215
-2.22722
-7.55015
-12.9304
-16.8772
-18.1073
-16.5034
-13.6036
-10.6214
-6.59013
-0.305217
6.82163
10.8462
9.50843
5.52913
1.77018
-1.16252
-3.05925
-3.3305
-2.80727
-1.72459
-1.4497
-1.38398
-1.39358
-1.17936
-0.840026
-0.837644
-0.76558
-0.0477418
0.956245
0.779427
0.67597
1.19979
0.0211722
0.3013
0.365293
0.500859
0.633725
0.784424
0.945032
1.11789
1.30335
1.5029
1.71817
1.95154
2.20558
2.48246
2.78566
3.11962
3.48658
3.8876
4.32624
4.79989
5.29285
5.80004
6.32105
6.84052
7.35102
7.84403
8.26424
8.51149
8.357
7.77754
6.9727
6.11382
5.24103
4.54253
4.34863
4.1946
4.44492
7.41791
19.074
36.2879
40.0695
30.1328
21.8536
15.1887
9.94462
6.5328
3.00232
-0.983457
-5.5794
-10.1136
-13.5384
-14.9564
-14.3666
-12.8571
-10.9619
-7.46912
-1.43728
5.47725
9.41878
8.55868
4.93514
0.824939
-2.74982
-4.70478
-4.8375
-4.00428
-2.53854
-1.81843
-1.51013
-1.43863
-1.18747
-0.802176
-0.799394
-0.70757
0.0935854
1.06801
0.857538
0.934331
1.49681
0.00962961
0.310687
0.388983
0.544894
0.699267
0.873462
1.05923
1.2592
1.47383
1.70476
1.95395
2.22425
2.5183
2.83837
3.18825
3.57325
3.99552
4.45528
4.95611
5.49395
6.04757
6.60675
7.17008
7.71559
8.2306
8.70888
9.08122
9.25248
8.97286
8.24215
7.31472
6.34091
5.39256
4.68672
4.50014
4.42675
4.98218
8.68236
20.9283
35.887
40.0486
31.4713
23.5086
16.8584
11.4246
7.69703
4.42041
0.755424
-3.34694
-7.51441
-11.0347
-13.1798
-13.8238
-13.5457
-12.4227
-9.2165
-3.31498
3.44625
7.47216
7.2104
3.73021
-1.17082
-5.40328
-7.1026
-6.809
-5.55647
-3.70795
-2.39032
-1.6829
-1.50474
-1.19127
-0.778309
-0.74608
-0.607167
0.262327
1.19192
0.93356
1.21544
1.74334
-0.0090193
0.310429
0.402622
0.578581
0.75404
0.950989
1.16095
1.38689
1.62948
1.89042
2.17196
2.47745
2.80981
3.17125
3.56572
3.99955
4.47515
4.99151
5.55184
6.15073
6.76029
7.36368
7.96145
8.52757
9.04255
9.50187
9.82097
9.92704
9.56669
8.73704
7.7154
6.66761
5.67397
4.94145
4.73642
4.79053
5.74749
10.2778
22.9194
35.8061
39.6397
32.3355
24.7739
18.3542
13.0713
9.21883
6.02235
2.50091
-1.43417
-5.64474
-9.61238
-12.6287
-14.3424
-14.9401
-14.2701
-11.263
-5.57585
0.975957
5.13704
5.27807
1.48777
-4.50304
-9.17507
-10.5445
-9.6817
-7.61002
-5.20844
-3.27808
-1.9991
-1.60583
-1.1916
-0.760293
-0.691235
-0.472873
0.44046
1.32719
1.007
1.49583
1.989
-0.0202081
0.317009
0.423729
0.620105
0.816884
1.0364
1.26999
1.52091
1.78999
2.07895
2.39017
2.72744
3.09407
3.49213
3.92562
4.40199
4.92396
5.48841
6.09708
6.74375
7.39446
8.02548
8.64175
9.21061
9.69924
10.1119
10.365
10.4014
9.96479
9.06487
8.01289
6.97961
5.99119
5.24528
5.03155
5.26602
6.72551
12.1659
25.0395
36.2103
39.1451
32.8916
25.7735
19.6048
14.6789
10.8453
7.48928
3.89908
-0.152877
-4.63925
-9.12219
-12.8507
-15.2857
-16.4081
-16.0274
-13.3024
-7.99544
-1.75187
2.4242
2.61119
-1.90644
-8.96503
-13.8879
-14.9234
-13.5017
-10.5322
-7.15608
-4.51809
-2.57762
-1.75348
-1.18874
-0.737255
-0.651198
-0.324907
0.605735
1.47196
1.08716
1.76419
2.25783
-0.014504
0.341081
0.464713
0.683058
0.902775
1.14609
1.40419
1.68049
1.97595
2.29215
2.63144
2.99805
3.3957
3.82612
4.29276
4.80382
5.36215
5.9617
6.60248
7.27942
7.95351
8.59015
9.19629
9.73414
10.1645
10.5058
10.6744
10.6311
10.1517
9.23861
8.22531
7.24307
6.27699
5.54172
5.34665
5.80457
7.85226
14.2277
27.066
36.8797
38.7507
33.2309
26.6714
20.6987
16.077
12.3185
8.70313
4.91245
0.589393
-4.25116
-9.16526
-13.3517
-16.1849
-17.6153
-17.5242
-15.2266
-10.4497
-4.6744
-0.741244
-0.975022
-6.56437
-14.5924
-19.6429
-20.2874
-18.2357
-14.3426
-9.82466
-6.14008
-3.45807
-2.01458
-1.18327
-0.698085
-0.614983
-0.177833
0.743081
1.61206
1.16977
2.02961
2.53306
0.00772158
0.38147
0.526051
0.768788
1.01418
1.28373
1.56861
1.87236
2.19608
2.54111
2.90956
3.30594
3.7341
4.19491
4.6904
5.22944
5.81574
6.44025
7.10063
7.79283
8.47125
9.08723
9.65473
10.1413
10.4948
10.7305
10.7998
10.6871
10.1912
9.30426
8.35529
7.43868
6.5181
5.82301
5.67267
6.40211
9.08213
16.2457
28.686
37.3514
38.5077
33.4459
27.5479
21.7673
17.2753
13.565
9.74792
5.73328
1.11135
-4.0772
-9.31663
-13.7703
-16.8228
-18.5036
-18.7831
-17.0281
-12.9125
-7.83372
-4.52397
-5.72241
-12.5739
-21.3831
-26.442
-26.673
-23.9337
-19.0506
-13.3061
-8.25587
-4.66181
-2.46913
-1.21216
-0.637299
-0.566297
-0.0414362
0.852205
1.74871
1.24413
2.29331
2.83576
0.0382851
0.426589
0.596993
0.866432
1.14038
1.43891
1.75349
2.08776
2.44301
2.82012
3.22052
3.64871
4.10857
4.60004
5.12343
5.68863
6.30053
6.94545
7.61659
8.31096
8.98022
9.56413
10.0817
10.5041
10.7676
10.8866
10.8661
10.6926
10.2003
9.34206
8.43241
7.57343
6.72585
6.0871
6.01223
7.03745
10.3022
17.9916
29.7
37.3374
38.412
33.5949
28.2735
22.846
18.4113
14.6918
10.7791
6.5702
1.68121
-3.81061
-9.30036
-13.9408
-17.1885
-19.1689
-19.8984
-18.7543
-15.4427
-11.3333
-9.14115
-11.7659
-19.8678
-29.2111
-34.1733
-34.0016
-30.5753
-24.6679
-17.6294
-11.0721
-6.21937
-3.1465
-1.3313
-0.542935
-0.485163
0.0774792
0.953172
1.87801
1.30339
2.55154
3.19663
0.0671748
0.460998
0.662312
0.959855
1.26454
1.59413
1.94067
2.30776
2.69688
3.10831
3.54259
4.00442
4.4982
5.02305
5.57662
6.16867
6.80458
7.46668
8.14517
8.83863
9.49794
10.0499
10.5128
10.8712
11.0405
11.055
10.9661
10.7082
10.2168
9.39671
8.50738
7.68113
6.90084
6.30273
6.33398
7.64102
11.4011
19.3618
30.041
36.7829
38.2163
33.7034
28.852
23.9321
19.5865
15.831
11.8845
7.50263
2.3802
-3.35355
-9.04297
-13.8673
-17.3802
-19.7456
-20.9732
-20.49
-18.1384
-15.3117
-14.7441
-19.0507
-28.248
-37.8711
-42.6378
-42.1051
-38.0543
-31.1631
-22.7974
-14.6367
-8.20119
-4.0928
-1.58509
-0.420853
-0.346946
0.187239
1.07714
1.99862
1.36729
2.83547
3.5359
0.0886697
0.473034
0.710639
1.03635
1.37244
1.73316
2.11151
2.51106
2.93382
3.37975
3.84856
4.34526
4.87428
5.43324
6.01627
6.63291
7.29115
7.9731
8.66205
9.35375
10.001
10.5278
10.9424
11.243
11.3293
11.2541
11.0932
10.7635
10.2532
9.47773
8.6086
7.799
7.0594
6.48901
6.63416
8.20646
12.3872
20.3295
29.7864
35.8002
37.6652
33.8104
29.4465
25.0249
20.8063
17.0256
13.0393
8.47902
3.14483
-2.77203
-8.61986
-13.6545
-17.5209
-20.343
-22.1003
-22.3376
-21.1028
-19.8988
-21.3374
-27.3754
-37.4421
-47.1006
-51.5737
-50.7428
-46.1809
-38.4281
-28.7855
-18.9855
-10.7999
-5.37886
-1.97514
-0.313966
-0.137189
0.30429
1.24732
2.10783
1.45539
3.14637
3.88282
0.104383
0.459025
0.738602
1.09074
1.45674
1.8463
2.25407
2.68376
3.13826
3.61707
4.11842
4.6469
5.20681
5.7956
6.4054
7.04464
7.72353
8.42479
9.12368
9.8126
10.4492
10.9571
11.3352
11.5851
11.6052
11.4596
11.2302
10.8467
10.3147
9.57603
8.73567
7.94841
7.23397
6.7319
7.00118
8.81208
13.2645
20.9154
29.1542
34.5866
36.8344
33.9164
30.0949
26.0904
22.0283
18.2339
14.1563
9.40376
3.87438
-2.18195
-8.15752
-13.4296
-17.7092
-21.0308
-23.3587
-24.3955
-24.4381
-25.1572
-28.7876
-36.4571
-47.1374
-56.6029
-60.6924
-59.6353
-54.7108
-46.2861
-35.5138
-24.1167
-14.0835
-7.00398
-2.54449
-0.269722
0.122985
0.444959
1.4644
2.20073
1.59136
3.49843
4.19912
0.120852
0.422269
0.749706
1.12535
1.51878
1.93412
2.36811
2.82425
3.30596
3.81212
4.33969
4.89315
5.47747
6.09155
6.72382
7.38014
8.07219
8.78682
9.4928
10.1759
10.8031
11.295
11.6462
11.852
11.8277
11.6329
11.3592
10.945
10.4059
9.69065
8.87118
8.10139
7.42673
7.04917
7.46275
9.47476
14.0378
21.2594
28.3806
33.3697
35.9589
34.0461
30.7642
27.1021
23.2097
19.3932
15.1673
10.222
4.51151
-1.65853
-7.75185
-13.2815
-17.9976
-21.8466
-24.8098
-26.7487
-28.2342
-31.0567
-36.8705
-45.9735
-57.0039
-66.0774
-69.7122
-68.4988
-63.3737
-54.5097
-42.838
-29.9834
-18.0881
-9.1177
-3.41407
-0.332658
0.397766
0.625997
1.70503
2.28659
1.78953
3.87841
4.39639
0.144262
0.371519
0.752759
1.14905
1.56719
2.0045
2.45996
2.93671
3.43886
3.96584
4.51416
5.08611
5.68724
6.3179
6.96462
7.6312
8.32745
9.04743
9.75406
10.4273
11.0441
11.5213
11.8516
12.0248
11.982
11.7655
11.4755
11.052
10.514
9.82512
9.02842
8.25808
7.65174
7.41763
7.98934
10.1742
14.7905
21.5229
27.6523
32.353
35.2085
34.2012
31.42
28.0534
24.3264
20.4716
16.068
10.9448
5.06894
-1.20714
-7.43337
-13.2363
-18.3928
-22.8051
-26.4929
-29.4656
-32.5402
-37.4874
-45.3188
-55.5946
-66.7231
-75.2518
-78.391
-77.08
-71.9076
-62.8486
-50.5649
-36.4895
-22.8208
-11.8494
-4.60544
-0.497899
0.65308
0.848062
1.93922
2.36922
2.0433
4.23191
4.59553
0.177155
0.318909
0.75736
1.17072
1.60982
2.06463
2.53689
3.02939
3.5463
4.08906
4.65257
5.23626
5.84575
6.48249
7.13628
7.80503
8.49758
9.21593
9.91528
10.5777
11.1798
11.6461
11.9589
12.1199
12.0815
11.8657
11.5757
11.1627
10.6282
9.9688
9.20998
8.46514
7.94634
7.85424
8.59767
10.9776
15.6084
21.7727
27.1247
31.6373
34.6898
34.3738
32.043
28.9597
25.3833
21.482
16.9075
11.6258
5.60688
-0.78386
-7.17672
-13.2706
-18.8736
-23.904
-28.4286
-32.5887
-37.343
-44.2899
-53.8589
-65.0126
-76.0188
-83.9084
-86.5506
-85.1845
-80.0902
-71.0602
-58.4735
-43.49
-28.2365
-15.2222
-6.04475
-0.767681
0.857242
1.0738
2.13365
2.43049
2.33105
4.54793
4.72161
0.216669
0.273796
0.768597
1.19553
1.65248
2.12193
2.60773
3.11185
3.63849
4.19118
4.76455
5.35455
5.96447
6.59884
7.25394
7.91833
8.60432
9.31526
10.0025
10.6517
11.235
11.6975
12.0034
12.1696
12.1476
11.9467
11.6594
11.2692
10.7486
10.1103
9.40663
8.75367
8.34668
8.4102
9.35045
11.9157
16.4725
22.0958
26.8803
31.2428
34.4312
34.605
32.6677
29.8554
26.4079
22.4661
17.7539
12.3326
6.18953
-0.333819
-6.93227
-13.3426
-19.4122
-25.1316
-30.6232
-36.1197
-42.5676
-51.2833
-62.2399
-73.9694
-84.6824
-91.9052
-94.0909
-92.6949
-87.7621
-78.9374
-66.3387
-50.7986
-34.2327
-19.2369
-7.90029
-1.27722
0.986521
1.28959
2.26842
2.46345
2.61393
4.7948
4.65155
0.256976
0.241078
0.788705
1.22633
1.6983
2.17951
2.6758
3.1882
3.72042
4.27703
4.85589
5.44761
6.05336
6.6828
7.33542
7.99324
8.67158
9.36717
10.0407
10.6739
11.2444
11.7106
12.0194
12.1946
12.1924
12.0146
11.733
11.3695
10.8775
10.2558
9.61231
9.0826
8.82857
9.07725
10.2305
12.9375
17.3737
22.5699
26.9044
31.1685
34.3929
34.8996
33.3169
30.7648
27.4343
23.4691
18.6606
13.1159
6.85368
0.178812
-6.65734
-13.4166
-19.9896
-26.4751
-33.0665
-40.0123
-48.0927
-58.2875
-70.2562
-82.278
-92.59
-99.1858
-100.99
-99.5724
-94.8373
-86.3301
-73.9579
-58.2113
-40.6709
-23.862
-10.3217
-2.15681
0.991145
1.49663
2.34053
2.47651
2.85804
4.92516
4.59154
0.294725
0.222254
0.816251
1.26165
1.74534
2.23451
2.73882
3.25662
3.7913
4.34853
4.93015
5.5216
6.12336
6.74837
7.39436
8.04489
8.712
9.38878
10.0516
10.6711
11.2372
11.705
12.0231
12.2045
12.2229
12.0748
11.8055
11.4607
11.0181
10.4343
9.84686
9.42926
9.3486
9.80512
11.1656
13.9954
18.3638
23.1685
27.1695
31.3651
34.5639
35.2716
34.01
31.7068
28.4901
24.5171
19.6467
13.9867
7.60169
0.760269
-6.33372
-13.4756
-20.6006
-27.9272
-35.7304
-44.1813
-53.7727
-65.1403
-77.7608
-89.8357
-99.708
-105.772
-107.29
-105.847
-101.302
-93.1554
-81.1712
-65.5265
-47.384
-29.0323
-13.3251
-3.30196
0.900833
1.72924
2.37307
2.46943
3.05393
4.952
4.43353
0.328206
0.215186
0.846158
1.29647
1.78806
2.2816
2.79242
3.31476
3.85136
4.40982
4.99243
5.58266
6.18109
6.7998
7.4354
8.07876
8.73342
9.39625
10.0514
10.6605
11.2243
11.6914
12.0213
12.2082
12.2448
12.1265
11.8783
11.5474
11.1646
10.6547
10.1358
9.81751
9.90478
10.5651
12.1363
15.1259
19.4221
23.85
27.6532
31.7541
34.918
35.7625
34.7755
32.6913
29.5838
25.6122
20.6984
14.9227
8.41114
1.39391
-5.96816
-13.521
-21.2518
-29.4847
-38.5678
-48.5181
-59.4595
-71.7102
-84.6716
-96.6242
-106.081
-111.743
-113.076
-111.599
-107.203
-99.3959
-87.8758
-72.5678
-54.1865
-34.6296
-16.8715
-4.71683
0.713436
1.98634
2.39151
2.44224
3.20288
4.87071
4.24207
0.354192
0.21653
0.872136
1.32554
1.82291
2.32008
2.83694
3.36461
3.90444
4.46431
5.04428
5.63101
6.22515
6.83575
7.4628
8.10129
8.74467
9.39788
10.0442
10.648
11.2083
11.6751
12.0167
12.2115
12.2621
12.1698
11.9522
11.642
11.3047
10.8971
10.4835
10.2742
10.5156
11.3777
13.1766
16.3057
20.4602
24.6184
28.2783
32.2972
35.3978
36.3574
35.615
33.7229
30.7115
26.7421
21.7824
15.8909
9.25041
2.0537
-5.58135
-13.5669
-21.9538
-31.1412
-41.5165
-52.9047
-65.0209
-77.9029
-90.9675
-102.697
-111.812
-117.217
-118.456
-116.931
-112.624
-105.089
-94.028
-79.2002
-60.8961
-40.5054
-20.8979
-6.53088
0.307156
2.20024
2.41917
2.42103
3.27996
4.71429
4.03828
0.368729
0.225889
0.892187
1.34931
1.85272
2.35438
2.87592
3.40795
3.95038
4.50944
5.08327
5.66556
6.2559
6.85911
7.48112
8.11569
8.75058
9.39713
10.034
10.636
11.1899
11.6593
12.0102
12.2181
12.2801
12.2101
12.0301
11.7519
11.442
11.1337
10.8607
10.7966
11.197
12.2524
14.2536
17.4511
21.4713
25.4544
28.9892
32.9691
36.0018
37.0572
36.5262
34.7927
31.8646
27.8921
22.8704
16.8663
10.093
2.71541
-5.19619
-13.6323
-22.7157
-32.8812
-44.5075
-57.2263
-70.3491
-83.6634
-96.678
-108.154
-117.032
-122.314
-123.528
-121.946
-117.663
-110.306
-99.6374
-85.3393
-67.3514
-46.5011
-25.3394
-8.81018
-0.423514
2.28881
2.48306
2.41932
3.28918
4.52136
3.78129
0.372483
0.247831
0.909922
1.37173
1.88053
2.38579
2.90888
3.44274
3.98681
4.54329
5.1107
5.68928
6.27648
6.87446
7.49385
8.12364
8.75392
9.39473
10.0241
10.6259
11.1718
11.6458
12.0034
12.229
12.3059
12.2565
12.1098
11.8811
11.6041
11.3647
11.2326
11.3336
11.9122
13.1554
15.3042
18.5244
22.4856
26.2899
29.7788
33.714
36.7133
37.8612
37.5014
35.8908
33.033
29.0525
23.9535
17.8399
10.9261
3.36259
-4.83172
-13.7348
-23.5412
-34.6809
-47.4754
-61.3833
-75.3632
-88.9736
-101.867
-113.122
-121.872
-127.139
-128.373
-126.73
-122.412
-115.135
-104.752
-90.9521
-73.4261
-52.4559
-30.1029
-11.5439
-1.4126
2.23602
2.59566
2.4297
3.27749
4.3209
3.63838
0.369838
0.283408
0.926577
1.39199
1.90428
2.41175
2.93475
3.46953
4.01506
4.56814
5.13034
5.70619
6.29047
6.88619
7.50379
8.12837
8.75704
9.39112
10.016
10.6162
11.157
11.6343
11.9985
12.2437
12.3395
12.3124
12.1925
12.0274
11.8057
11.6195
11.6021
11.8657
12.6244
14.0349
16.2954
19.5733
23.4617
27.1206
30.63
34.517
37.494
38.7477
38.5361
37.018
34.2128
30.2225
25.0407
18.8167
11.7511
3.98804
-4.50227
-13.8881
-24.4283
-36.5123
-50.3656
-65.3033
-80.0098
-93.8441
-106.618
-117.718
-126.44
-131.763
-133.039
-131.337
-126.943
-119.657
-109.442
-96.0495
-79.037
-58.224
-35.0685
-14.6787
-2.64228
2.05361
2.75173
2.47555
3.30691
4.17842
3.56267
0.362375
0.325351
0.940114
1.4082
1.92317
2.43236
2.95556
3.49129
4.03739
4.58698
5.14592
5.71927
6.30088
6.89666
7.5118
8.13313
8.76145
9.38806
10.0107
10.6064
11.1472
11.626
11.998
12.2613
12.3775
12.3782
12.2851
12.1773
12.0385
11.9224
11.9956
12.4089
13.3287
14.8803
17.2649
20.5974
24.3552
27.9775
31.5082
35.4004
38.3657
39.7249
39.628
38.1776
35.4094
31.4094
26.1483
19.8107
12.5781
4.59244
-4.21697
-14.0994
-25.3686
-38.3467
-53.1382
-68.9449
-84.2665
-98.3048
-111.013
-122.043
-130.808
-136.217
-137.537
-135.787
-131.3
-123.941
-113.781
-100.674
-84.1454
-63.6847
-40.1105
-18.1702
-4.196
1.70441
2.9321
2.57121
3.40898
4.10868
3.43058
0.349751
0.366218
0.950725
1.4215
1.93873
2.44992
2.97442
3.51113
4.05609
4.60296
5.15975
5.72995
6.31045
6.90747
7.51892
8.1387
8.76568
9.38758
10.0086
10.5981
11.1433
11.6225
12.0049
12.2828
12.4207
12.4547
12.393
12.3228
12.2794
12.266
12.4394
12.9811
14.0371
15.723
18.2195
21.5366
25.2163
28.8435
32.4087
36.3263
39.3108
40.7754
40.7798
39.3815
36.6386
32.6266
27.2941
20.8373
13.4199
5.18199
-3.97811
-14.3698
-26.3474
-40.1557
-55.7659
-72.2946
-88.1405
-102.397
-115.119
-126.164
-135.007
-140.498
-141.85
-140.07
-135.493
-128.028
-117.835
-104.885
-88.7522
-68.7501
-45.1103
-21.9819
-6.14952
1.10312
3.08035
2.70229
3.57657
4.08904
3.48788
0.334104
0.402417
0.961044
1.43431
1.95296
2.46665
2.99319
3.53007
4.07239
4.61773
5.17282
5.73985
6.32069
6.9183
7.52614
8.14468
8.76876
9.38966
10.0087
10.5929
11.1448
11.6254
12.022
12.3138
12.4744
12.5396
12.5172
12.4763
12.5105
12.6172
12.9168
13.5833
14.7538
16.5578
19.1194
22.3946
26.0884
29.7067
33.3746
37.2932
40.3078
41.8875
41.9908
40.6431
37.918
33.8918
28.4938
21.9085
14.2871
5.76562
-3.78008
-14.6937
-27.3472
-41.9131
-58.2311
-75.3582
-91.6607
-106.165
-118.985
-130.111
-139.033
-144.573
-145.941
-144.151
-139.509
-131.936
-121.653
-108.746
-92.8889
-73.3676
-49.9584
-26.0502
-8.53036
0.19981
3.15953
2.88286
3.77621
4.1326
3.61027
0.320106
0.433758
0.973412
1.4484
1.96733
2.48376
3.0123
3.54817
4.08751
4.63182
5.1853
5.75012
6.33133
6.92829
7.53404
8.15109
8.77065
9.39306
10.009
10.5908
11.1488
11.6349
12.0486
12.3566
12.5403
12.6318
12.6601
12.6568
12.7416
12.9559
13.3801
14.1739
15.4619
17.3594
19.942
23.2411
26.9364
30.5861
34.3854
38.3459
41.3919
43.0649
43.2603
41.9738
39.266
35.2202
29.7582
23.0317
15.1871
6.35385
-3.60901
-15.0577
-28.3507
-43.5977
-60.5245
-78.1528
-94.865
-109.652
-122.639
-133.885
-142.858
-148.399
-149.763
-147.983
-143.315
-135.661
-125.265
-112.314
-96.6053
-77.5183
-54.5535
-30.259
-11.2474
-0.889332
3.1675
3.14249
3.97578
4.25241
3.74745
0.310002
0.460898
0.987412
1.46369
1.98232
2.50143
3.03179
3.56577
4.10234
4.64528
5.19745
5.76118
6.3421
6.93681
7.54208
8.15747
8.77279
9.3979
10.0097
10.5928
11.1542
11.6494
12.0805
12.4075
12.6173
12.7344
12.8163
12.8674
12.996
13.2896
13.8249
14.7416
16.1432
18.1046
20.7362
24.0964
27.7639
31.5205
35.4176
39.4493
42.5474
44.3085
44.5969
43.3788
40.6962
36.623
31.0925
24.2096
16.1251
6.95908
-3.44475
-15.4389
-29.3393
-45.1943
-62.6436
-80.6996
-97.7925
-112.89
-126.09
-137.46
-146.438
-151.93
-153.27
-151.519
-146.867
-139.179
-128.682
-115.635
-99.9587
-81.2112
-58.8037
-34.4536
-14.1347
-2.04031
3.13215
3.51772
4.16333
4.46717
3.8668
0.303327
0.484987
1.00265
1.47988
1.99832
2.51959
3.05096
3.58281
4.11699
4.65821
5.209
5.77272
6.35271
6.94384
7.54937
8.16305
8.77685
9.40451
10.0126
10.6005
11.1619
11.6679
12.1136
12.4628
12.7053
12.8511
12.9743
13.0959
13.281
13.6375
14.2739
15.3032
16.7927
18.8219
21.5456
24.9144
28.6209
32.4969
36.5201
40.6021
43.7654
45.6174
45.9958
44.8558
42.2071
38.1074
32.4969
25.4432
17.1061
7.59512
-3.26355
-15.8078
-30.2888
-46.6906
-64.5908
-83.0194
-100.477
-115.903
-129.332
-140.801
-149.731
-155.125
-156.428
-154.719
-150.126
-142.461
-131.9
-118.738
-103.005
-84.4744
-62.6353
-38.4712
-17.0175
-3.12197
3.10594
4.01099
4.31472
4.74992
3.98442
0.299571
0.507034
1.01906
1.49695
2.01573
2.53817
3.06925
3.59923
4.13128
4.67043
5.21982
5.78416
6.3625
6.95034
7.55618
8.16756
8.78294
9.41215
10.0193
10.6139
11.1743
11.6914
12.1494
12.5227
12.7985
12.9769
13.129
13.3202
13.5842
14.0165
14.7406
15.8616
17.4305
19.5523
22.3453
25.7194
29.5335
33.5007
37.6879
41.8424
45.0598
46.9938
47.4626
46.4031
43.7938
39.6722
33.9684
26.7323
18.1355
8.27591
-3.04038
-16.1316
-31.1708
-48.0738
-66.372
-85.1315
-102.944
-118.705
-132.349
-143.872
-152.698
-157.959
-159.22
-157.56
-153.059
-145.475
-134.903
-121.639
-105.789
-87.3489
-66.0043
-42.1642
-19.7502
-4.05812
3.15046
4.58291
4.39219
5.07914
4.20547
0.29829
0.526971
1.03573
1.51449
2.03405
2.55684
3.08635
3.615
4.14544
4.68231
5.23056
5.79534
6.37102
6.9569
7.56244
8.17147
8.79101
9.42023
10.0296
10.631
11.1938
11.722
12.1916
12.5864
12.8889
13.1074
13.2891
13.5273
13.8784
14.4086
15.2236
16.4205
18.0739
20.2887
23.1146
26.5731
30.4761
34.5688
38.886
43.1373
46.4281
48.4471
49.0034
48.0254
45.4616
41.3132
35.5022
28.077
19.2199
9.01434
-2.75273
-16.3788
-31.9557
-49.3289
-67.9935
-87.0539
-105.207
-121.301
-135.127
-146.642
-155.315
-160.422
-161.648
-160.038
-155.653
-148.193
-137.671
-124.338
-108.345
-89.8824
-68.8996
-45.4221
-22.2357
-4.87091
3.1951
5.17386
4.39789
5.46516
4.42687
0.299314
0.544856
1.05215
1.53201
2.05247
2.57501
3.1022
3.62983
4.15969
4.69437
5.24184
5.8062
6.37839
6.96343
7.5678
8.17605
8.80108
9.42885
10.0434
10.6503
11.22
11.7581
12.2396
12.6525
12.9782
13.2429
13.4632
13.7336
14.1537
14.7752
15.6848
16.974
18.7281
21.0073
23.902
27.4814
31.4531
35.7109
40.1512
44.4907
47.8709
49.9745
50.6224
49.7316
47.2163
43.0275
37.0932
29.4761
20.3649
9.82182
-2.38279
-16.5227
-32.6159
-50.4382
-69.4562
-88.8007
-107.277
-123.688
-137.65
-149.092
-157.574
-162.526
-163.734
-162.173
-157.91
-150.6
-140.182
-126.832
-110.695
-92.1209
-71.3395
-48.186
-24.4301
-5.61419
3.11254
5.69378
4.40605
5.87645
4.56519
0.302517
0.561051
1.06821
1.5492
2.07059
2.59224
3.11704
3.64391
4.17382
4.70694
5.25419
5.81698
6.38561
6.97054
7.57267
8.18201
8.81218
9.43909
10.0603
10.6692
11.2486
11.7947
12.2901
12.7245
13.0756
13.3799
13.6523
13.9616
14.4242
15.1207
16.1274
17.5268
19.3713
21.7221
24.7538
28.4072
32.5019
36.8997
41.4876
45.9103
49.3853
51.5891
52.3287
51.5246
49.0524
44.8091
38.7366
30.9275
21.5722
10.7063
-1.91687
-16.5432
-33.1282
-51.3835
-70.7537
-90.3793
-109.157
-125.86
-139.911
-151.221
-159.492
-164.299
-165.511
-163.995
-159.849
-152.695
-142.419
-129.107
-112.848
-94.1031
-73.3659
-50.4471
-26.3246
-6.28548
2.98577
6.02915
4.53759
6.25909
4.81045
0.307351
0.575519
1.08367
1.56574
2.08779
2.60811
3.13119
3.65757
4.18748
4.72062
5.26821
5.82811
6.39396
6.97909
7.57802
8.1896
8.82315
9.45117
10.0783
10.6862
11.2754
11.8284
12.341
12.801
13.183
13.5165
13.8488
14.2109
14.7119
15.4763
16.5837
18.0803
20.0073
22.4861
25.6384
29.3749
33.6233
38.1435
42.8645
47.3833
50.9744
53.2927
54.1273
53.4015
50.957
46.6494
40.4295
32.4288
22.8388
11.669
-1.34653
-16.4274
-33.4756
-52.1493
-71.8755
-91.7896
-110.847
-127.811
-141.908
-153.042
-161.099