/*--------------------------------*- C++ -*----------------------------------*\
| =========                 |                                                 |
| \\      /  F ield         | OpenFOAM: The Open Source CFD Toolbox           |
|  \\    /   O peration     | Version:  4.1                                   |
|   \\  /    A nd           | Web:      www.OpenFOAM.org                      |
|    \\/     M anipulation  |                                                 |
\*---------------------------------------------------------------------------*/
FoamFile
{
    version     2.0;
    format      ascii;
    class       volVectorField;
    location    "24";
    object      U;
}
// * * * * * * * * * * * * * * * * * * * * * * * * * * * * * * * * * * * * * //

dimensions      [0 1 -1 0 0 0 0];

internalField   nonuniform List<vector> 
6785
(
(1.83881e-14 0.684594 15.7418)
(1.46455e-14 -5.13029 12.0537)
(-2.5712e-15 -4.2925 12.1841)
(5.22973e-15 -3.72376 12.0221)
(1.3407e-15 -3.11931 11.901)
(-2.96993e-16 -2.66647 11.7153)
(9.1551e-16 -2.31762 11.4881)
(2.22142e-16 -2.07344 11.2168)
(-4.38884e-16 -1.90795 10.9139)
(2.25016e-15 -1.81721 10.5843)
(8.61564e-16 -1.92243 10.165)
(-5.06019e-16 -2.3718 9.5601)
(2.03823e-15 -2.68974 8.9698)
(-3.24924e-16 -1.33553 8.92613)
(-1.9683e-15 1.73303 7.64142)
(1.34406e-14 -5.63789 22.1818)
(2.32507e-14 -14.7671 21.3399)
(9.77348e-16 -13.2426 20.4984)
(1.45231e-14 -11.8214 19.622)
(2.47346e-15 -11.2269 18.5971)
(-9.24163e-16 -10.7092 17.6049)
(7.79216e-15 -10.1209 16.6522)
(2.6053e-15 -9.54483 15.6955)
(-3.07163e-16 -8.97909 14.7276)
(3.98076e-15 -8.37633 13.7518)
(2.57946e-15 -7.75127 12.7738)
(6.89188e-16 -7.27678 11.7831)
(2.5445e-14 -7.01217 10.6939)
(1.49824e-15 -5.78429 8.9742)
(-2.07274e-15 -1.73331 4.85339)
(1.96713e-14 -7.89601 22.1872)
(1.87478e-14 -16.7498 24.7015)
(1.42978e-15 -13.8114 23.9906)
(5.32525e-15 -12.4976 22.6551)
(6.08512e-15 -11.833 21.2611)
(-2.53026e-15 -10.989 20.0206)
(-1.8511e-16 -10.1073 18.7901)
(2.89145e-15 -9.26099 17.5387)
(1.02981e-15 -8.43683 16.2753)
(-5.74373e-15 -7.62015 15.0227)
(4.07954e-16 -6.79703 13.8035)
(-6.13277e-16 -5.96857 12.4326)
(2.43096e-15 -4.99122 10.3268)
(1.0394e-15 -3.27564 6.89093)
(-1.56358e-15 -0.662739 2.39985)
(2.01055e-14 -8.1431 17.9874)
(1.79942e-14 -16.3386 24.4549)
(3.93851e-15 -13.4359 23.9538)
(2.55285e-15 -12.5306 22.1185)
(3.78335e-15 -11.797 20.614)
(5.78391e-15 -10.8463 19.282)
(-5.83024e-16 -9.96751 17.9218)
(-4.14655e-16 -9.13801 16.5571)
(7.31849e-15 -8.34525 15.2039)
(2.80723e-15 -7.59631 13.8757)
(-3.06935e-15 -6.83591 12.5325)
(3.73493e-15 -5.87452 10.8636)
(-3.17999e-15 -4.38616 8.19758)
(-7.90015e-15 -2.2444 3.97592)
(2.51771e-14 0.0133338 -1.35161)
(1.47616e-14 -7.32295 13.918)
(1.70104e-14 -15.3604 23.714)
(-3.41067e-15 -13.9042 24.0464)
(1.07378e-15 -13.0905 21.9523)
(-2.7877e-15 -12.2989 20.3346)
(1.0125e-14 -11.3793 18.9613)
(-9.52751e-16 -10.5627 17.5518)
(-1.57909e-14 -9.76973 16.149)
(2.56215e-15 -8.98423 14.776)
(-3.9268e-15 -8.22658 13.4373)
(-1.80208e-14 -7.46104 12.0837)
(2.54321e-15 -6.51674 10.4497)
(-1.22732e-14 -5.04598 8.04535)
(-1.15021e-14 -3.17183 4.56971)
(-1.77103e-14 -1.17662 1.4804)
(1.62476e-14 -6.12301 10.8698)
(1.81117e-14 -14.1694 22.679)
(9.87575e-15 -14.3394 24.3342)
(9.95058e-15 -13.5259 22.4679)
(-2.66045e-15 -12.5718 20.7483)
(-1.41966e-15 -11.6371 19.3225)
(-1.96363e-15 -10.8162 17.8999)
(-1.2795e-15 -9.99721 16.4884)
(2.81916e-15 -9.17116 15.1056)
(-8.59862e-15 -8.3652 13.7558)
(-2.4752e-15 -7.55805 12.4006)
(-1.58819e-14 -6.63302 10.8187)
(-6.94587e-15 -5.23856 8.63725)
(-8.1505e-15 -3.66636 5.60007)
(-8.46834e-15 -1.44465 3.03193)
(2.3402e-14 -5.11971 8.8394)
(1.79336e-14 -13.0056 21.5853)
(1.50124e-14 -14.2987 24.2377)
(3.65115e-15 -13.5804 22.8795)
(4.87108e-15 -12.5389 21.136)
(6.98642e-17 -11.6013 19.645)
(-2.20819e-17 -10.7712 18.2084)
(-3.50784e-15 -9.93258 16.7929)
(8.56429e-16 -9.0933 15.4003)
(3.12735e-15 -8.2799 14.0378)
(-8.07629e-15 -7.46909 12.6751)
(1.05375e-14 -6.57658 11.0956)
(-4.88662e-15 -5.18658 8.98745)
(-1.75589e-14 -3.92945 6.09151)
(6.90756e-15 -1.52172 3.97923)
(1.21827e-14 -4.64727 8.04693)
(1.92682e-14 -12.2106 20.8527)
(1.41996e-14 -14.0417 23.8101)
(4.56991e-15 -13.4631 23.0215)
(4.08537e-15 -12.4655 21.3211)
(-6.04473e-16 -11.5559 19.783)
(4.6098e-15 -10.7268 18.3367)
(-3.31802e-15 -9.888 16.9186)
(-1.04804e-15 -9.05764 15.519)
(-6.20141e-16 -8.2545 14.1493)
(-6.80848e-15 -7.44777 12.7797)
(3.13978e-15 -6.57252 11.169)
(-4.81532e-15 -5.0991 9.06071)
(-1.42594e-14 -4.06643 6.15138)
(4.58399e-15 -1.53553 4.34854)
(1.1908e-14 -4.53183 7.90062)
(2.10943e-14 -11.7398 20.3802)
(1.24963e-14 -13.8012 23.263)
(5.12353e-15 -13.3717 23.0306)
(1.5957e-15 -12.487 21.4156)
(-1.09228e-14 -11.5942 19.8581)
(-7.41122e-15 -10.7569 18.4099)
(-3.32741e-16 -9.91931 16.9914)
(-1.50079e-14 -9.09516 15.5887)
(5.57171e-15 -8.29614 14.2167)
(7.24068e-17 -7.48314 12.8423)
(-2.06019e-15 -6.61493 11.1834)
(-3.50159e-15 -5.02706 9.06275)
(-1.21716e-14 -4.20872 6.19383)
(-7.14924e-15 -1.6056 4.63888)
(9.42374e-15 -4.47292 7.69798)
(2.05313e-14 -11.3905 19.9357)
(1.14355e-14 -13.6189 22.7615)
(-6.64329e-15 -13.3366 23.008)
(9.28394e-17 -12.5768 21.51)
(-9.70289e-16 -11.6779 19.9507)
(-3.35235e-15 -10.8237 18.5001)
(-9.81808e-16 -9.98411 17.0803)
(3.8461e-15 -9.15941 15.6766)
(1.13406e-14 -8.35864 14.3033)
(2.38633e-17 -7.53149 12.9246)
(-2.50756e-15 -6.66736 11.209)
(-3.12966e-14 -4.97216 9.07776)
(-9.90378e-15 -4.36587 6.31358)
(-2.29477e-14 -1.72757 4.97292)
(-4.84699e-15 -4.31752 7.23449)
(1.68437e-14 -11.0213 19.414)
(5.45375e-15 -13.4513 22.3592)
(2.49876e-15 -13.3226 23.0075)
(6.78254e-15 -12.6857 21.6523)
(-1.78246e-14 -11.7758 20.0979)
(-1.688e-15 -10.9039 18.634)
(6.47785e-16 -10.0602 17.2053)
(-4.64206e-15 -9.23018 15.7958)
(3.50266e-16 -8.42502 14.4145)
(-4.07076e-15 -7.57718 13.027)
(-3.52543e-14 -6.71635 11.2511)
(-9.93422e-15 -4.93203 9.10618)
(-3.0323e-14 -4.5118 6.44985)
(-3.20184e-14 -1.84719 5.29612)
(-7.52855e-15 -4.13259 6.73307)
(1.28338e-14 -10.6369 18.9432)
(2.34079e-15 -13.227 22.0307)
(5.38564e-15 -13.2115 22.99)
(9.64824e-15 -12.6778 21.7601)
(-6.69641e-15 -11.7599 20.2322)
(-4.61574e-15 -10.8847 18.766)
(-7.59845e-15 -10.0434 17.3326)
(-5.14717e-15 -9.21375 15.9227)
(-1.41793e-14 -8.4137 14.5352)
(-3.70388e-15 -7.55096 13.1287)
(-2.54264e-14 -6.68541 11.272)
(-1.16638e-14 -4.83194 9.12107)
(-3.8725e-14 -4.64639 6.60638)
(-3.81436e-14 -1.95296 5.59234)
(-7.17013e-15 -4.20613 6.83018)
(2.36686e-14 -10.476 18.8431)
(5.93601e-15 -13.1686 21.9252)
(6.11655e-15 -13.233 23.1673)
(8.05713e-15 -12.8043 21.9833)
(-9.16377e-15 -11.8436 20.4287)
(-9.70947e-15 -10.936 18.8946)
(9.18289e-15 -10.0595 17.4113)
(-2.14391e-14 -9.19061 15.9475)
(-1.13769e-14 -8.35909 14.5047)
(3.44423e-15 -7.44402 13.0478)
(-2.92875e-14 -6.5625 11.0544)
(-1.72284e-14 -4.55177 8.81587)
(-3.07061e-14 -4.54318 6.33314)
(-3.89296e-14 -1.86544 5.5008)
(-1.88529e-14 -4.01779 6.57403)
(1.55229e-14 -9.78723 18.3001)
(3.48837e-15 -12.2406 21.5988)
(-4.25631e-15 -12.3143 22.8828)
(2.00741e-15 -11.9268 21.9141)
(-1.25993e-14 -11.0601 20.5627)
(-2.96821e-15 -10.2471 19.1747)
(4.14095e-15 -9.44931 17.7473)
(-1.683e-14 -8.6576 16.3483)
(-4.69642e-15 -7.89659 14.9336)
(-6.76257e-15 -7.06387 13.3511)
(-2.73802e-14 -6.07362 11.236)
(-1.65e-14 -4.57143 9.04714)
(-3.67079e-14 -4.6591 7.06594)
(-3.4365e-14 -1.86927 5.6633)
(-1.85291e-14 -7.83282 15.8076)
(1.25038e-14 -13.3155 23.9462)
(-5.01075e-15 -14.935 25.1267)
(-2.17081e-15 -14.2524 25.3654)
(-3.03668e-15 -13.1962 22.9578)
(-9.0074e-15 -11.4736 20.7201)
(6.32674e-16 -10.1095 18.4474)
(-1.52353e-15 -8.77352 16.5688)
(-1.33506e-14 -7.57497 14.6358)
(-9.04883e-15 -6.37928 12.6435)
(-2.03266e-14 -4.98462 10.1758)
(-2.6256e-14 -3.40236 7.38935)
(-2.8582e-14 -1.96785 4.89036)
(-3.77362e-14 -1.48804 2.68073)
(-1.44903e-14 -0.187816 1.00643)
(-3.42733e-15 0.0411141 -0.854969)
(-5.43087e-15 0.149592 -1.11773)
(-4.01398e-15 0.258099 -0.645771)
(-3.97081e-15 0.327275 -0.624742)
(-3.86147e-15 0.321467 -0.560802)
(-5.78618e-15 0.539346 -0.942975)
(-4.119e-15 0.560552 -0.61294)
(-3.63623e-15 0.647113 -0.591614)
(-3.10548e-15 0.611911 -0.549317)
(9.11091e-15 0.869823 -0.892395)
(5.06962e-15 0.841792 -0.613932)
(3.08852e-15 0.927661 -0.558918)
(9.01305e-17 1.18464 -0.837973)
(9.20815e-17 1.00436 -0.575495)
(6.15207e-17 1.18247 -0.561995)
(3.08557e-16 1.11368 -0.53272)
(-1.99509e-16 1.43201 -0.760482)
(9.15355e-16 1.24908 -0.53875)
(1.19808e-15 1.372 -0.504039)
(1.03617e-15 1.72413 -0.67687)
(1.04081e-15 1.34246 -0.475397)
(9.37618e-16 1.57376 -0.472158)
(1.55043e-15 1.47918 -0.456535)
(9.98619e-16 1.88577 -0.595054)
(8.24462e-16 1.50353 -0.424083)
(6.98456e-16 1.75347 -0.423063)
(2.11681e-17 1.5902 -0.418857)
(-9.93441e-16 2.00006 -0.528923)
(-1.2954e-15 1.63193 -0.384241)
(-1.32041e-15 1.83971 -0.367175)
(-2.44599e-15 2.22608 -0.429199)
(-2.31466e-15 1.63038 -0.305743)
(-2.30228e-15 1.89985 -0.306026)
(-2.70365e-15 1.79088 -0.304691)
(-4.1403e-15 2.19629 -0.341959)
(-2.95468e-15 1.7444 -0.247041)
(-2.73735e-15 1.92764 -0.242594)
(-3.9632e-15 2.34668 -0.224808)
(-2.72179e-15 1.66441 -0.158856)
(-2.66872e-15 1.95653 -0.159818)
(-1.98809e-15 1.84424 -0.162978)
(-2.81263e-15 2.24668 -0.112557)
(-1.82476e-15 1.68033 -0.0833598)
(-1.71237e-15 1.97973 -0.0808317)
(-1.55986e-15 1.78469 -0.0942926)
(-2.15349e-15 2.11589 -0.00499817)
(-1.98665e-15 1.61119 -0.00530181)
(-1.81794e-15 1.86751 -0.0101861)
(-2.89137e-15 2.16252 0.143623)
(-1.32114e-15 1.48865 0.102984)
(-1.27932e-15 1.72643 0.111945)
(-1.20664e-15 1.61191 0.0988624)
(-1.97627e-15 1.89222 0.301083)
(-1.1314e-15 1.35389 0.201191)
(-1.16675e-15 1.60639 0.212141)
(-8.14643e-16 1.43018 0.190323)
(-1.60522e-15 1.58134 0.435995)
(-7.57994e-16 1.14431 0.295615)
(-1.28172e-15 1.36016 0.277596)
(-1.72731e-15 1.39552 0.588714)
(-1.36252e-15 0.875691 0.398319)
(-1.98903e-15 1.04545 0.413598)
(-2.89728e-15 0.956631 0.400857)
(8.05239e-15 0.957407 0.749075)
(6.3955e-15 0.598423 0.511522)
(5.18127e-15 0.740494 0.497109)
(5.28441e-15 0.560928 0.864984)
(1.63428e-15 0.255447 0.613185)
(-5.77903e-16 0.352143 0.637102)
(-5.81539e-16 0.305365 0.686237)
(-7.32287e-16 0.0698991 1.16258)
(-1.98074e-15 -0.0936793 1.20874)
(-3.65319e-15 -0.123388 1.40786)
(-6.85293e-15 -0.156197 1.66972)
(-2.91082e-14 -0.707151 2.74252)
(-7.45605e-15 -0.705917 2.29771)
(-7.72532e-15 -0.751679 2.36821)
(-1.23841e-14 -1.38958 3.46324)
(-1.02838e-14 -1.49233 2.6995)
(-1.13236e-14 -1.59422 2.88589)
(-1.44194e-14 -1.67069 3.40303)
(-1.44753e-14 -1.79326 3.64297)
(-1.47526e-14 -2.17731 3.91666)
(-1.7603e-14 -2.29518 5.6814)
(-2.10826e-14 -2.18841 5.36946)
(-2.35807e-14 -2.53084 5.81249)
(-2.40981e-14 -2.51849 6.04812)
(-2.36353e-14 -2.58494 6.27523)
(-2.32703e-14 -2.62167 6.5262)
(-2.27627e-14 -2.62929 6.81301)
(-2.1785e-14 -2.74819 7.22646)
(-2.03052e-14 -3.08172 7.7091)
(-1.72105e-14 -3.08357 9.44078)
(-2.08194e-14 -3.24155 9.12797)
(-2.00764e-14 -3.47938 9.47141)
(-1.96564e-14 -3.44303 9.74205)
(-1.89503e-14 -3.5987 10.3217)
(-1.86608e-14 -3.55328 10.4834)
(-1.82349e-14 -3.56709 10.7687)
(-1.77506e-14 -3.65438 11.0706)
(-1.6982e-14 -3.9413 11.4205)
(-1.61586e-14 -3.86047 13.7186)
(-1.18293e-14 -4.22493 13.4204)
(-1.09707e-14 -4.37762 13.7195)
(-1.03879e-14 -4.40459 13.9331)
(-9.63253e-15 -4.44286 14.2141)
(-8.29983e-15 -4.4915 14.6252)
(-6.91984e-15 -4.5569 15.0727)
(-6.92982e-15 -4.48792 15.2531)
(-6.56498e-15 -4.56061 15.5342)
(-6.24699e-15 -4.82706 15.8366)
(-5.65758e-15 -4.41299 17.8265)
(-7.63853e-15 -5.18262 17.5831)
(-7.2374e-15 -5.24667 17.8414)
(-7.00843e-15 -5.30146 18.0312)
(-6.65853e-15 -5.35616 18.2701)
(-6.16201e-15 -5.34801 18.5513)
(-4.85366e-15 -5.35536 19.006)
(-4.44582e-15 -5.35763 19.2767)
(-4.40655e-15 -5.60954 19.4865)
(-4.60805e-15 -5.01357 20.9233)
(-4.59988e-15 -5.9757 20.4349)
(-4.34459e-15 -5.94774 20.8276)
(-4.22298e-15 -6.02702 21.1243)
(-4.54605e-15 -6.00817 21.2387)
(-4.81007e-15 -6.04729 21.4232)
(-5.18105e-15 -5.99534 21.6203)
(-5.77726e-15 -5.94337 21.8834)
(-7.59497e-15 -6.23417 22.3949)
(-5.62787e-15 -4.94555 22.7805)
(-4.78715e-15 -6.57692 22.3777)
(-4.6635e-15 -6.40717 22.4854)
(-4.37983e-15 -6.41407 22.5703)
(-3.5772e-15 -6.44494 22.8273)
(-3.29983e-15 -6.39409 22.834)
(-3.21164e-15 -6.30148 22.7414)
(-3.06844e-15 -6.2243 22.6422)
(-2.98162e-15 -6.22261 22.5091)
(-6.16565e-16 -4.82107 22.1231)
(-1.49989e-15 -6.58481 22.0458)
(-1.51957e-15 -6.2333 21.7241)
(-1.47544e-15 -6.30226 21.4524)
(-1.42586e-15 -6.2118 21.0945)
(-1.38333e-15 -6.11499 20.6727)
(-1.3317e-15 -6.06699 20.1491)
(-1.28979e-15 -5.90156 19.607)
(-1.21091e-15 -5.68614 18.9293)
(-1.11093e-15 -5.37386 18.1343)
(-8.26128e-17 -3.41667 14.2457)
(6.86618e-16 -5.49711 14.6067)
(8.21676e-16 -4.82848 13.533)
(5.0316e-17 -4.86662 12.7479)
(-6.26497e-16 -4.60039 11.7149)
(-1.63614e-15 -4.54953 10.4802)
(-3.81775e-15 -4.42041 8.69711)
(-5.78337e-15 -3.91397 6.91745)
(-4.6466e-15 -3.39662 6.23514)
(-2.40408e-15 -2.49778 1.54721)
(-4.13269e-15 -3.12814 3.96815)
(-3.06067e-15 -2.28166 2.28021)
(5.05378e-16 -1.01289 -2.10549)
(-1.69601e-15 -3.09746 0.113971)
(-1.00458e-15 -2.17819 0.0795017)
(-8.11646e-16 -2.0788 -0.0130773)
(-1.04578e-15 -2.72594 0.119004)
(-6.76824e-16 -1.92919 0.0418135)
(-1.05272e-15 -2.76969 0.195233)
(-9.30645e-17 -2.55388 0.192144)
(-5.363e-16 -2.12917 0.136621)
(-7.94803e-16 -2.91032 0.305175)
(-6.68719e-16 -2.74595 0.255753)
(-5.55803e-16 -2.36458 0.197185)
(-7.79377e-16 -3.26045 0.326293)
(-6.00281e-16 -2.3067 0.207452)
(-8.23688e-16 -3.29806 0.367286)
(-4.91101e-16 -3.02717 0.252769)
(-5.85098e-16 -2.56961 0.197115)
(-3.43849e-16 -3.54658 0.289142)
(-3.74153e-16 -2.42579 0.171152)
(-6.1794e-16 -3.62601 0.28792)
(-5.36603e-16 -3.30123 0.155673)
(-4.37335e-16 -2.58932 0.118722)
(-6.27224e-16 -3.58441 0.166486)
(-5.07729e-16 -3.25851 0.0596724)
(-3.69521e-16 -2.83771 0.0616066)
(-5.26076e-16 -3.89654 0.0696021)
(-3.48024e-16 -2.57524 0.0381497)
(-4.93875e-16 -3.70439 0.0350302)
(-3.60113e-16 -3.25341 -0.0396903)
(-3.30585e-16 -2.82526 -0.00951818)
(-4.34219e-16 -3.82677 -0.0460632)
(-3.24107e-16 -2.49321 -0.0287344)
(-4.8499e-16 -3.77788 -0.0850099)
(-3.96974e-16 -3.32855 -0.119464)
(-3.20332e-16 -2.51745 -0.0814406)
(-4.71791e-16 -3.38595 -0.169447)
(-4.13453e-16 -3.03178 -0.17861)
(-3.24301e-16 -2.79554 -0.113429)
(-4.4666e-16 -3.73518 -0.171762)
(-3.38093e-16 -2.38294 -0.0913611)
(-5.01523e-16 -3.32948 -0.192818)
(-4.98694e-16 -2.89073 -0.172035)
(-4.23266e-16 -2.62974 -0.0939808)
(-5.21916e-16 -3.46865 -0.175569)
(-3.63604e-16 -2.20778 -0.0660476)
(-5.72214e-16 -3.33027 -0.200646)
(-4.76992e-16 -2.93714 -0.155298)
(-3.78772e-16 -2.14153 -0.072586)
(-5.67288e-16 -2.80871 -0.23548)
(-4.92464e-16 -2.49974 -0.19086)
(-4.03317e-16 -2.34966 -0.0913046)
(-3.04582e-16 -3.18611 -0.209237)
(-2.55152e-16 -1.91635 -0.0781986)
(-9.59647e-16 -2.72481 -0.262619)
(-5.56067e-16 -2.35385 -0.231467)
(-3.63661e-16 -2.12633 -0.142676)
(-4.99949e-16 -2.91225 -0.29059)
(-2.71339e-16 -1.75002 -0.165837)
(-4.67168e-16 -2.73055 -0.379141)
(-3.69822e-16 -2.44673 -0.364935)
(-3.2591e-16 -1.8189 -0.283876)
(-4.17468e-16 -2.50616 -0.532036)
(-1.8819e-16 -2.29671 -0.512342)
(-4.0598e-16 -2.02404 -0.40061)
(-4.61836e-16 -2.68719 -0.62754)
(-2.81087e-16 -1.76866 -0.455834)
(-4.69393e-16 -2.43956 -0.840206)
(1.40668e-18 -2.19502 -0.821914)
(-1.84718e-16 -1.97834 -0.654096)
(-2.48177e-16 -2.22962 -1.10078)
(-3.0534e-16 -1.47059 -0.774107)
(-5.86163e-16 -1.74501 -1.57344)
(1.01087e-15 -1.37719 -1.57387)
(-1.39076e-16 -0.655666 -1.37073)
(-3.18532e-16 -0.622395 -2.5601)
(-5.68052e-16 -0.413019 -2.47393)
(-4.45652e-16 1.06007 -1.13895)
(-4.29226e-16 0.29106 -2.75705)
(-2.16775e-16 1.02226 -1.82935)
(-3.99268e-16 1.4986 -3.19189)
(-3.11353e-15 -0.425261 14.2091)
(-3.06771e-15 -0.387846 14.3139)
(-3.04759e-15 -0.406208 14.3669)
(-3.02345e-15 -0.412618 14.4293)
(-3.00266e-15 -0.431644 14.4851)
(-2.98353e-15 -0.457335 14.539)
(-2.96641e-15 -0.491525 14.5903)
(-2.95116e-15 -0.533819 14.6399)
(-2.9378e-15 -0.584467 14.6884)
(-2.92637e-15 -0.64362 14.7365)
(-2.91699e-15 -0.711579 14.7847)
(-2.90989e-15 -0.788799 14.8339)
(-2.90539e-15 -0.875938 14.8848)
(-2.90394e-15 -0.973818 14.9385)
(-2.90613e-15 -1.08329 14.9962)
(-2.91275e-15 -1.20547 15.0592)
(-2.92479e-15 -1.3417 15.1296)
(-2.9435e-15 -1.4935 15.2096)
(-2.97041e-15 -1.6627 15.3021)
(-3.00736e-15 -1.85145 15.4106)
(-3.05648e-15 -2.0621 15.5385)
(-3.12e-15 -2.29724 15.6887)
(-3.19994e-15 -2.55911 15.8612)
(-3.29737e-15 -2.84921 16.0508)
(-3.4113e-15 -3.16672 16.2419)
(-3.5371e-15 -3.5066 16.4036)
(-3.66462e-15 -3.85611 16.484)
(-3.77663e-15 -4.18931 16.4076)
(-3.84811e-15 -4.45851 16.0785)
(-3.84728e-15 -4.58532 15.3893)
(-3.73838e-15 -4.4527 14.2376)
(-3.48183e-15 -3.878 12.526)
(-3.01146e-15 -2.50409 10.0748)
(-2.13012e-15 0.465914 6.27925)
(-6.58994e-16 2.95054 1.05681)
(-6.58241e-16 2.73113 1.27762)
(-8.47402e-16 0.698429 1.89269)
(-6.50364e-16 -2.22387 1.6844)
(-3.60099e-16 -5.15066 1.47076)
(-1.30521e-16 -7.09936 1.62952)
(-7.27662e-17 8.22484 4.68234)
(6.26146e-17 3.75508 6.93544)
(1.45864e-16 -0.213896 7.80707)
(7.56765e-17 -1.63033 7.74376)
(-6.19061e-17 -2.85837 8.5648)
(-3.56273e-16 -3.31736 9.68718)
(-8.44656e-16 -3.77156 10.9379)
(-1.6035e-15 -4.27181 12.2391)
(-2.71395e-15 -4.98678 13.6679)
(-3.95673e-15 -6.3597 15.1905)
(-4.91576e-15 -8.22141 16.4889)
(-5.37018e-15 -10.2046 17.4343)
(-5.45121e-15 -11.9704 18.316)
(-5.47031e-15 -13.2251 19.273)
(-5.52244e-15 -13.8887 19.7848)
(-5.33209e-15 -13.8878 19.0348)
(-4.59263e-15 -12.9094 16.6301)
(-3.4229e-15 -10.6232 13.0546)
(-2.34285e-15 -7.14544 9.56225)
(-1.71961e-15 -2.54186 7.11833)
(-1.745e-15 3.55864 6.03235)
(-1.67224e-15 1.86688 6.68119)
(-1.26653e-15 0.577982 5.15714)
(-1.02666e-15 0.218658 3.79787)
(-8.20145e-16 -0.237559 2.59025)
(-6.17367e-16 -0.797902 1.07122)
(-6.56113e-16 -0.723769 1.04588)
(-6.64291e-16 -0.810241 0.850004)
(-6.29214e-16 -0.850315 0.369867)
(-5.85117e-16 -0.977946 -0.195148)
(-5.23967e-16 -1.07796 -0.763693)
(-5.09136e-16 -2.14578 -1.15676)
(-4.96684e-16 -2.23685 -1.42741)
(-4.92355e-16 -2.19764 -1.67177)
(-5.14327e-16 -2.26055 -1.99322)
(-5.37326e-16 -1.71405 -1.66206)
(-5.49422e-16 -0.980271 -1.08386)
(-4.67474e-16 -0.00495094 -0.897376)
(-5.31131e-16 -2.18244 -3.17168)
(-3.04817e-15 -0.444004 14.3743)
(-3.00872e-15 -0.42597 14.4786)
(-2.994e-15 -0.443684 14.5258)
(-2.97573e-15 -0.453325 14.5811)
(-2.96095e-15 -0.473074 14.6299)
(-2.94788e-15 -0.498581 14.677)
(-2.93676e-15 -0.531443 14.7221)
(-2.92744e-15 -0.571588 14.7662)
(-2.91992e-15 -0.619425 14.8101)
(-2.91428e-15 -0.675298 14.8545)
(-2.91069e-15 -0.739668 14.9001)
(-2.90943e-15 -0.813233 14.9478)
(-2.91087e-15 -0.896715 14.9984)
(-2.91555e-15 -0.990998 15.0531)
(-2.92412e-15 -1.09714 15.1131)
(-2.93744e-15 -1.21645 15.1799)
(-2.95656e-15 -1.35039 15.2556)
(-2.98275e-15 -1.50064 15.3424)
(-3.01755e-15 -1.66914 15.443)
(-3.06271e-15 -1.85809 15.5602)
(-3.12011e-15 -2.06953 15.6963)
(-3.19152e-15 -2.30541 15.8518)
(-3.27816e-15 -2.56652 16.0235)
(-3.37984e-15 -2.85181 16.2012)
(-3.49387e-15 -3.15648 16.3631)
(-3.61352e-15 -3.46978 16.4712)
(-3.72645e-15 -3.77182 16.467)
(-3.81342e-15 -4.02848 16.2704)
(-3.84778e-15 -4.18306 15.782)
(-3.79552e-15 -4.14514 14.8862)
(-3.61336e-15 -3.77213 13.4403)
(-3.23577e-15 -2.80938 11.2093)
(-2.53181e-15 -0.743571 7.72816)
(-1.27588e-15 2.65651 2.46205)
(-3.93011e-16 1.70897 0.0757925)
(-6.81667e-16 1.87472 1.69119)
(-7.79509e-16 0.109597 2.08971)
(-6.11785e-16 -2.30623 2.18673)
(-3.40128e-16 -5.01471 2.2291)
(-1.26784e-16 -6.01728 1.6436)
(-1.45311e-16 5.55973 5.09287)
(1.99721e-17 2.7096 7.13755)
(1.03855e-16 -0.15355 7.95891)
(9.25647e-18 -1.84249 8.088)
(-1.60963e-16 -2.95259 8.93261)
(-5.14485e-16 -3.48948 9.9645)
(-1.09092e-15 -4.10819 11.1584)
(-1.96589e-15 -4.84871 12.4476)
(-3.12552e-15 -5.91442 13.9279)
(-4.27179e-15 -7.50013 15.4834)
(-5.068e-15 -9.34687 16.7925)
(-5.40606e-15 -11.1765 17.7853)
(-5.45921e-15 -12.7202 18.6857)
(-5.48894e-15 -13.7266 19.5281)
(-5.50716e-15 -14.0963 19.7999)
(-5.21567e-15 -13.7021 18.7814)
(-4.38129e-15 -12.2492 16.1827)
(-3.20366e-15 -9.52256 12.5149)
(-2.1906e-15 -5.68655 8.88891)
(-1.69056e-15 -0.619625 5.8533)
(-1.97533e-15 2.75943 5.94592)
(-1.8877e-15 0.729389 7.89497)
(-1.48787e-15 0.314947 6.51343)
(-1.24226e-15 0.267651 5.19706)
(-9.87674e-16 -0.122659 3.85888)
(-6.91595e-16 -0.787548 1.84698)
(-6.13584e-16 -0.844828 0.605586)
(-6.68507e-16 -0.849605 0.718394)
(-6.27627e-16 -0.955197 0.349026)
(-5.82927e-16 -1.15181 -0.160323)
(-5.25037e-16 -1.22315 -0.627696)
(-5.09531e-16 -2.13123 -1.09487)
(-4.97635e-16 -2.25043 -1.39112)
(-4.9204e-16 -2.18487 -1.60542)
(-5.11326e-16 -2.22269 -1.92319)
(-5.34455e-16 -1.69894 -1.68728)
(-5.50258e-16 -0.865373 -1.16153)
(-5.044e-16 0.775909 -0.181439)
(-5.38756e-16 -1.6018 -2.70418)
(-2.99029e-15 -0.48453 14.5585)
(-2.95878e-15 -0.46837 14.6571)
(-2.94966e-15 -0.48199 14.6975)
(-2.93755e-15 -0.491132 14.7473)
(-2.92891e-15 -0.509548 14.7905)
(-2.92195e-15 -0.533921 14.8326)
(-2.91691e-15 -0.565707 14.8732)
(-2.91365e-15 -0.60497 14.9137)
(-2.9122e-15 -0.652171 14.9548)
(-2.91268e-15 -0.70772 14.9972)
(-2.91534e-15 -0.772226 15.0419)
(-2.92049e-15 -0.846301 15.0898)
(-2.92861e-15 -0.930532 15.1418)
(-2.94028e-15 -1.02618 15.1992)
(-2.95623e-15 -1.1342 15.2632)
(-2.97737e-15 -1.25599 15.3355)
(-3.00478e-15 -1.39305 15.4178)
(-3.03973e-15 -1.54712 15.5124)
(-3.08367e-15 -1.7201 15.6211)
(-3.13813e-15 -1.91399 15.7457)
(-3.20456e-15 -2.13039 15.8864)
(-3.28399e-15 -2.37024 16.0405)
(-3.37646e-15 -2.63272 16.2004)
(-3.48014e-15 -2.91423 16.3497)
(-3.59021e-15 -3.20624 16.4596)
(-3.69744e-15 -3.49306 16.4843)
(-3.78695e-15 -3.7485 16.3585)
(-3.83716e-15 -3.93062 15.9965)
(-3.81897e-15 -3.97262 15.2924)
(-3.69376e-15 -3.7685 14.1126)
(-3.40544e-15 -3.15176 12.2605)
(-2.85687e-15 -1.86152 9.38902)
(-1.87635e-15 0.32505 4.93417)
(-3.85047e-16 1.56103 -0.658516)
(-4.41163e-16 -0.280472 0.608142)
(-6.96796e-16 0.526294 2.03294)
(-7.10754e-16 0.156297 2.26198)
(-5.66754e-16 -2.38495 2.49007)
(-3.17849e-16 -5.16963 2.66089)
(-1.23462e-16 -5.59368 1.89252)
(-1.94671e-16 4.86227 5.38695)
(-2.50987e-17 2.33139 7.27467)
(3.56156e-17 -0.238915 8.19014)
(-8.64715e-17 -1.743 8.49843)
(-3.02737e-16 -2.93202 9.40669)
(-7.34476e-16 -3.63087 10.3959)
(-1.42695e-15 -4.35254 11.5384)
(-2.42675e-15 -5.21321 12.8018)
(-3.60531e-15 -6.41778 14.2656)
(-4.61288e-15 -8.04533 15.7662)
(-5.21903e-15 -9.83822 17.0438)
(-5.43844e-15 -11.5756 18.0896)
(-5.47215e-15 -13.0223 19.0326)
(-5.5081e-15 -13.9136 19.7573)
(-5.46649e-15 -14.0894 19.7281)
(-5.04398e-15 -13.4002 18.3539)
(-4.10556e-15 -11.6356 15.5271)
(-2.93638e-15 -8.71279 11.8351)
(-2.02147e-15 -4.80752 8.23129)
(-1.69879e-15 -0.091984 5.16299)
(-2.1935e-15 2.0255 6.96096)
(-2.02016e-15 0.988855 8.71737)
(-1.67377e-15 0.612438 7.51325)
(-1.45016e-15 0.577336 6.50628)
(-1.15541e-15 0.277404 5.12964)
(-7.84375e-16 -0.487221 2.87426)
(-4.83271e-16 -1.39307 0.121959)
(-6.23443e-16 -1.14079 0.102314)
(-6.42572e-16 -1.03222 0.265524)
(-5.85958e-16 -1.19379 -0.158756)
(-5.27932e-16 -1.19965 -0.495114)
(-5.09982e-16 -2.08281 -1.02041)
(-4.98393e-16 -2.24892 -1.35049)
(-4.9176e-16 -2.19143 -1.53756)
(-5.07995e-16 -2.27026 -1.83894)
(-5.30978e-16 -1.80796 -1.68757)
(-5.4988e-16 -1.03604 -1.19782)
(-5.33508e-16 -0.23021 -0.107108)
(-5.32216e-16 -1.28155 -2.18284)
(-2.95049e-15 -0.511485 14.7322)
(-2.92783e-15 -0.491316 14.8238)
(-2.92417e-15 -0.49974 14.8595)
(-2.91803e-15 -0.506001 14.9066)
(-2.91519e-15 -0.521532 14.9469)
(-2.91396e-15 -0.543576 14.9869)
(-2.91456e-15 -0.573494 15.0261)
(-2.9169e-15 -0.611334 15.0659)
(-2.92109e-15 -0.657527 15.107)
(-2.92731e-15 -0.712452 15.1503)
(-2.93584e-15 -0.776678 15.1968)
(-2.94709e-15 -0.850713 15.2473)
(-2.96158e-15 -0.935301 15.3029)
(-2.97994e-15 -1.03164 15.3649)
(-3.00297e-15 -1.14067 15.4345)
(-3.0316e-15 -1.26375 15.5133)
(-3.06689e-15 -1.40248 15.6027)
(-3.11004e-15 -1.55851 15.7042)
(-3.1623e-15 -1.73355 15.8188)
(-3.22487e-15 -1.92924 15.9462)
(-3.2986e-15 -2.14648 16.0842)
(-3.38355e-15 -2.38496 16.2263)
(-3.47844e-15 -2.64202 16.3596)
(-3.57964e-15 -2.91148 16.4616)
(-3.68014e-15 -3.18139 16.4964)
(-3.76832e-15 -3.432 16.4112)
(-3.8269e-15 -3.63253 16.1342)
(-3.832e-15 -3.73614 15.5733)
(-3.75168e-15 -3.67061 14.6132)
(-3.54157e-15 -3.32334 13.0979)
(-3.13316e-15 -2.52804 10.7907)
(-2.41524e-15 -1.07656 7.33329)
(-1.28134e-15 0.873849 2.38226)
(-2.99642e-16 0.535582 -0.260729)
(-5.43616e-16 -0.737014 1.36768)
(-6.89604e-16 -0.190416 2.17342)
(-6.57144e-16 -0.43628 2.41116)
(-5.23861e-16 -2.60519 2.79741)
(-2.95534e-16 -5.22587 3.00512)
(-1.22606e-16 -5.12404 2.25216)
(-2.56074e-16 3.90083 5.66716)
(-8.79431e-17 1.7954 7.37664)
(-5.31454e-17 -0.446506 8.41559)
(-2.04791e-16 -1.87251 8.88772)
(-4.75651e-16 -3.10388 9.85491)
(-9.97811e-16 -3.90444 10.8258)
(-1.81436e-15 -4.72486 11.9326)
(-2.91283e-15 -5.69993 13.1789)
(-4.05874e-15 -6.97755 14.6092)
(-4.90294e-15 -8.54552 16.0453)
(-5.33265e-15 -10.202 17.3062)
(-5.46167e-15 -11.789 18.4076)
(-5.4898e-15 -13.0938 19.3635)
(-5.51906e-15 -13.8309 19.9241)
(-5.3929e-15 -13.7876 19.5551)
(-4.83105e-15 -12.8064 17.8153)
(-3.80541e-15 -10.7682 14.7857)
(-2.66891e-15 -7.6945 11.1066)
(-1.87909e-15 -3.74723 7.60198)
(-1.80923e-15 0.483358 4.93612)
(-2.40298e-15 1.59965 8.01346)
(-2.18437e-15 0.919823 9.50176)
(-1.90648e-15 0.893737 8.70441)
(-1.69856e-15 0.972962 7.9436)
(-1.38241e-15 0.856694 6.59915)
(-9.7413e-16 0.287291 4.44021)
(-5.49851e-16 -0.856875 1.49111)
(-5.16436e-16 -1.4939 -0.564997)
(-6.52272e-16 -1.18814 0.0785709)
(-5.95278e-16 -1.25143 -0.212022)
(-5.38794e-16 -1.11698 -0.396841)
(-5.11622e-16 -1.9756 -0.938822)
(-4.99001e-16 -2.20142 -1.29714)
(-4.9151e-16 -2.15396 -1.47428)
(-5.04837e-16 -2.25279 -1.75269)
(-5.27291e-16 -1.84821 -1.67873)
(-5.48604e-16 -1.21221 -1.2348)
(-5.38075e-16 -0.758849 -0.536765)
(-5.32215e-16 -1.31557 -1.59975)
(-2.92894e-15 -0.519528 14.8988)
(-2.91595e-15 -0.495846 14.9841)
(-2.91762e-15 -0.500929 15.0185)
(-2.91743e-15 -0.505461 15.0655)
(-2.92024e-15 -0.519479 15.1057)
(-2.92451e-15 -0.540636 15.1463)
(-2.93052e-15 -0.570059 15.1866)
(-2.93823e-15 -0.607786 15.2281)
(-2.94779e-15 -0.654194 15.2715)
(-2.95945e-15 -0.70961 15.3177)
(-2.97358e-15 -0.774423 15.3677)
(-2.99061e-15 -0.849273 15.4224)
(-3.01113e-15 -0.935101 15.4828)
(-3.0358e-15 -1.03275 15.5502)
(-3.06542e-15 -1.14332 15.6257)
(-3.10089e-15 -1.26811 15.7104)
(-3.14318e-15 -1.4087 15.8052)
(-3.19334e-15 -1.56656 15.9105)
(-3.25229e-15 -1.74316 16.0259)
(-3.32073e-15 -1.93963 16.1487)
(-3.39876e-15 -2.15604 16.2735)
(-3.48539e-15 -2.39075 16.3897)
(-3.57788e-15 -2.63921 16.479)
(-3.67086e-15 -2.89278 16.5129)
(-3.75527e-15 -3.13648 16.449)
(-3.81742e-15 -3.34715 16.2282)
(-3.83801e-15 -3.49054 15.7723)
(-3.79106e-15 -3.51647 14.9822)
(-3.64128e-15 -3.34966 13.7296)
(-3.33681e-15 -2.87628 11.8348)
(-2.79279e-15 -1.94808 9.03467)
(-1.87545e-15 -0.460921 4.9777)
(-5.24972e-16 0.976575 -0.351632)
(-3.4242e-16 0.317107 0.615014)
(-5.85807e-16 -0.734741 1.8055)
(-6.61462e-16 -0.567178 2.24127)
(-6.10224e-16 -0.972362 2.59617)
(-4.83665e-16 -2.85073 3.16166)
(-2.7301e-16 -5.20628 3.35139)
(-1.25687e-16 -4.67318 2.69202)
(-3.26365e-16 2.94099 5.91272)
(-1.64907e-16 1.3524 7.44764)
(-1.61437e-16 -0.751999 8.5947)
(-3.45887e-16 -2.15234 9.2667)
(-6.8041e-16 -3.37751 10.2692)
(-1.30307e-15 -4.22351 11.2336)
(-2.23844e-15 -5.11419 12.3159)
(-3.39392e-15 -6.15332 13.5495)
(-4.45656e-15 -7.43908 14.9424)
(-5.12667e-15 -8.90999 16.3315)
(-5.40831e-15 -10.4271 17.6021)
(-5.47975e-15 -11.8787 18.7499)
(-5.51021e-15 -13.0524 19.6666)
(-5.51368e-15 -13.6346 20.0036)
(-5.28137e-15 -13.3729 19.2664)
(-4.5834e-15 -12.1271 17.1822)
(-3.49737e-15 -9.86999 14.0052)
(-2.42101e-15 -6.6834 10.3947)
(-1.79233e-15 -2.7241 7.13092)
(-2.03924e-15 0.762086 5.46159)
(-2.5821e-15 1.06135 9.03547)
(-2.38083e-15 0.853521 10.3847)
(-2.17496e-15 1.07971 9.98868)
(-1.97607e-15 1.2778 9.36795)
(-1.64848e-15 1.33203 8.09656)
(-1.21331e-15 0.982934 6.05449)
(-7.11569e-16 -0.0376079 3.16187)
(-3.19056e-16 -1.54891 -0.412763)
(-6.0377e-16 -1.51059 -0.397736)
(-6.0586e-16 -1.3524 -0.328731)
(-5.53974e-16 -1.06897 -0.381464)
(-5.14441e-16 -1.85249 -0.878282)
(-5.00427e-16 -2.1498 -1.24101)
(-4.91603e-16 -2.12256 -1.41299)
(-5.01983e-16 -2.22002 -1.66343)
(-5.23368e-16 -1.87696 -1.66122)
(-5.46685e-16 -1.36615 -1.29111)
(-5.35977e-16 -0.51134 -0.939343)
(-5.51195e-16 -1.43224 -1.21827)
(-2.92558e-15 -0.514693 15.066)
(-2.92304e-15 -0.490088 15.1489)
(-2.92996e-15 -0.493816 15.1852)
(-2.93575e-15 -0.498071 15.2343)
(-2.94412e-15 -0.512052 15.2768)
(-2.95377e-15 -0.533651 15.3202)
(-2.965e-15 -0.563806 15.3635)
(-2.97784e-15 -0.602549 15.4082)
(-2.99252e-15 -0.650207 15.4551)
(-3.00935e-15 -0.707096 15.5053)
(-3.02874e-15 -0.77361 15.5595)
(-3.05118e-15 -0.850399 15.6186)
(-3.07727e-15 -0.938291 15.6838)
(-3.1077e-15 -1.03817 15.7558)
(-3.14319e-15 -1.1511 15.8354)
(-3.18456e-15 -1.27835 15.9233)
(-3.23263e-15 -1.42131 16.0193)
(-3.28811e-15 -1.58129 16.1225)
(-3.35154e-15 -1.75935 16.2305)
(-3.42295e-15 -1.95599 16.3379)
(-3.50155e-15 -2.17042 16.4359)
(-3.5852e-15 -2.39956 16.5096)
(-3.66973e-15 -2.63702 16.5355)
(-3.74808e-15 -2.87195 16.4795)
(-3.80943e-15 -3.08672 16.2937)
(-3.83833e-15 -3.25535 15.9135)
(-3.81379e-15 -3.34075 15.2549)
(-3.70775e-15 -3.28997 14.2109)
(-3.48122e-15 -3.02633 12.6424)
(-3.07513e-15 -2.44033 10.3607)
(-2.39741e-15 -1.41552 7.14285)
(-1.35525e-15 0.035234 2.88834)
(-2.94202e-16 1.03047 -0.162482)
(-4.78737e-16 0.492265 1.60507)
(-6.19616e-16 -0.693338 2.13894)
(-6.21083e-16 -0.859657 2.39533)
(-5.68755e-16 -1.36291 2.87702)
(-4.45914e-16 -3.08152 3.57599)
(-2.50469e-16 -5.14722 3.70971)
(-1.35102e-16 -4.29803 3.19266)
(-3.99949e-16 2.09957 6.02199)
(-2.56634e-16 0.874099 7.48436)
(-2.88331e-16 -1.06428 8.75764)
(-5.11808e-16 -2.45372 9.62108)
(-9.20688e-16 -3.66106 10.653)
(-1.65054e-15 -4.54803 11.6193)
(-2.68751e-15 -5.48164 12.6909)
(-3.85123e-15 -6.53419 13.9153)
(-4.78899e-15 -7.77423 15.2724)
(-5.28739e-15 -9.13904 16.6363)