/*--------------------------------*- C++ -*----------------------------------*\
| =========                 |                                                 |
| \\      /  F ield         | OpenFOAM: The Open Source CFD Toolbox           |
|  \\    /   O peration     | Version:  4.1                                   |
|   \\  /    A nd           | Web:      www.OpenFOAM.org                      |
|    \\/     M anipulation  |                                                 |
\*---------------------------------------------------------------------------*/
FoamFile
{
    version     2.0;
    format      ascii;
    class       volVectorField;
    location    "5";
    object      U;
}
// * * * * * * * * * * * * * * * * * * * * * * * * * * * * * * * * * * * * * //

dimensions      [0 1 -1 0 0 0 0];

internalField   nonuniform List<vector> 
6785
(
(1.32636e-14 -1.80603 16.3728)
(1.10364e-14 -7.57863 12.7909)
(-2.76495e-15 -5.05069 13.4573)
(4.54274e-15 -4.84901 13.0428)
(8.26537e-16 -4.14641 12.8732)
(-2.05005e-16 -3.71609 12.6006)
(2.5669e-15 -3.33083 12.3125)
(6.58801e-16 -3.04693 11.9779)
(-6.185e-16 -2.84247 11.5932)
(1.70637e-15 -2.71801 11.1614)
(2.04926e-16 -2.63465 10.744)
(-5.75206e-16 -2.67391 10.3515)
(7.75271e-16 -3.15342 9.75431)
(2.63474e-17 -3.01759 9.01679)
(-3.58837e-16 0.245496 7.36221)
(2.00144e-14 -9.31933 26.456)
(1.40261e-14 -16.4064 22.5387)
(-2.82674e-15 -11.1602 22.965)
(5.25798e-15 -11.945 21.1745)
(6.82923e-16 -10.4198 20.2551)
(7.7016e-16 -9.77913 19.0346)
(2.23676e-15 -8.89231 17.9174)
(8.78464e-17 -8.16802 16.8179)
(-8.85398e-17 -7.53189 15.8631)
(8.82648e-16 -7.07609 15.0477)
(-5.54542e-16 -6.70415 14.2067)
(-4.57951e-16 -6.21617 13.0455)
(4.78579e-16 -5.46763 11.0235)
(-1.38567e-16 -3.85519 6.95459)
(-2.98405e-16 -0.456342 0.286198)
(2.13486e-14 -11.9737 27.5988)
(1.16859e-14 -16.7812 24.5135)
(-1.8474e-15 -11.6856 24.5378)
(4.0384e-15 -12.6855 22.1107)
(6.18116e-16 -10.6484 21.0689)
(1.05153e-15 -10.0488 19.4304)
(6.86027e-16 -8.94761 18.1095)
(-8.12605e-17 -8.08168 16.7006)
(1.60468e-16 -7.03056 15.0898)
(-3.98685e-17 -5.77741 12.8992)
(2.56112e-17 -4.51941 10.3054)
(-3.10659e-16 -3.83918 8.1756)
(-1.62486e-15 -3.76275 6.84152)
(-6.01212e-16 -3.14162 4.67327)
(-9.32809e-16 -2.32878 2.35755)
(2.29446e-14 -13.2471 28.0157)
(9.29011e-15 -16.8422 25.1474)
(-1.16737e-15 -12.3831 25.0606)
(3.44746e-15 -13.5811 22.4114)
(-3.57574e-18 -11.2764 21.4936)
(1.3161e-15 -10.9802 19.697)
(2.26481e-16 -9.76886 18.498)
(-5.97655e-16 -9.02597 17.0844)
(4.04875e-16 -7.78575 15.2861)
(4.85324e-16 -5.82795 12.0544)
(1.64608e-15 -2.90329 7.14181)
(4.84744e-15 -0.252233 2.31591)
(6.38649e-15 0.809511 0.136382)
(3.68996e-15 0.421155 0.427069)
(1.07631e-15 -0.781523 2.20787)
(2.28425e-14 -13.7689 28.1566)
(1.04584e-14 -17.6535 26.6196)
(-1.02419e-15 -13.1368 25.9055)
(3.72932e-15 -14.5506 23.1726)
(7.23459e-16 -12.0783 22.3661)
(1.50189e-15 -12.116 20.4223)
(8.69767e-16 -10.8529 19.2807)
(5.06331e-16 -10.3319 17.8557)
(6.02685e-16 -9.34861 16.3318)
(9.34452e-16 -7.88482 13.7688)
(2.98974e-15 -5.26128 9.59208)
(5.92823e-15 -1.94095 4.27336)
(1.08711e-14 1.19936 -0.169477)
(1.20417e-14 2.96113 -2.97317)
(5.92749e-15 1.74227 -3.57535)
(2.08432e-14 -13.3645 26.3783)
(1.28745e-14 -18.0633 27.6051)
(-6.29201e-16 -13.6597 25.8152)
(3.18608e-15 -14.5982 22.9399)
(1.71595e-15 -12.4618 21.9629)
(1.26831e-15 -12.3671 19.971)
(1.31389e-15 -11.2493 18.6351)
(1.25665e-15 -10.6798 17.0903)
(6.17447e-16 -9.91811 15.6012)
(7.00035e-16 -8.99798 13.7648)
(1.82899e-15 -7.60415 11.2788)
(2.60065e-15 -5.56445 8.09401)
(4.07086e-15 -3.19036 4.45113)
(2.81691e-15 0.0735173 0.69045)
(5.22648e-15 1.47832 -4.85108)
(1.94552e-14 -12.451 23.7786)
(1.51007e-14 -17.7345 27.6713)
(9.69726e-16 -13.7636 25.2384)
(2.57932e-15 -13.994 22.1312)
(2.68312e-15 -12.1548 20.9501)
(2.06175e-15 -11.8197 18.9803)
(1.67015e-15 -10.7512 17.4963)
(2.06637e-15 -10.0237 15.8538)
(2.05807e-15 -9.2233 14.2972)
(1.19716e-15 -8.3898 12.7006)
(1.49263e-15 -7.463 10.9272)
(3.08145e-15 -6.1824 8.88466)
(3.09966e-15 -4.6692 6.28968)
(8.06978e-17 -2.1209 3.05038)
(4.55722e-15 0.0983915 -2.49994)
(1.77774e-14 -11.6232 21.7671)
(1.6426e-14 -17.0925 27.2937)
(2.46091e-15 -13.7209 24.7495)
(2.02237e-15 -13.3907 21.5051)
(2.93828e-15 -11.7598 20.1455)
(2.57573e-15 -11.2684 18.2744)
(2.02284e-15 -10.2641 16.7683)
(2.24577e-15 -9.48149 15.1844)
(2.5284e-15 -8.67666 13.693)
(1.82344e-15 -7.87014 12.2509)
(1.40036e-15 -7.08407 10.7834)
(2.07806e-15 -6.13158 9.26044)
(2.71813e-15 -5.08066 7.40294)
(2.89447e-16 -3.26794 5.00085)
(-1.6094e-15 -0.822557 -0.181847)
(1.78064e-14 -11.144 20.7755)
(1.72864e-14 -16.414 26.5992)
(2.39319e-15 -13.494 24.2046)
(1.85727e-15 -12.9387 20.898)
(3.1043e-15 -11.4007 19.4492)
(1.60536e-15 -10.918 17.6822)
(2.07731e-15 -10.0401 16.294)
(2.36949e-15 -9.36797 14.8578)
(9.27899e-16 -8.66914 13.471)
(1.52124e-15 -7.96954 12.1233)
(1.56925e-15 -7.30755 10.8369)
(-8.46788e-17 -6.61399 9.70607)
(1.24246e-15 -5.92574 8.59301)
(8.22848e-16 -4.71524 7.22718)
(-4.7428e-15 -2.32944 2.90548)
(1.69439e-14 -11.0797 20.6032)
(1.64478e-14 -15.5646 25.6014)
(1.4095e-15 -12.8657 23.2422)
(3.35847e-16 -12.3019 19.9941)
(2.91314e-15 -10.6503 18.6045)
(6.31631e-16 -10.2217 16.7199)
(-6.50096e-17 -9.22708 15.2898)
(2.01588e-15 -8.66913 13.7011)
(-2.20689e-16 -8.07177 12.3102)
(-2.20682e-15 -7.65488 11.1334)
(-3.28268e-16 -7.41189 10.4329)
(-2.3193e-15 -7.36769 10.3205)
(-3.34056e-15 -7.26835 10.5241)
(-4.75093e-16 -6.68336 10.2316)
(-4.85392e-15 -4.3687 6.82397)
(1.54786e-14 -11.938 21.9418)
(1.27612e-14 -14.6933 24.7704)
(-2.85663e-15 -12.2991 22.5686)
(1.11131e-15 -11.6975 20.0244)
(2.40046e-15 -9.95423 18.4264)
(-1.07494e-15 -8.86318 15.8791)
(3.06743e-15 -7.19335 13.4529)
(3.57211e-15 -6.13686 11.1297)
(-6.45826e-16 -5.35898 9.58702)
(3.45912e-15 -5.3461 9.04624)
(3.2556e-15 -6.08921 9.88212)
(-4.41183e-15 -7.30289 11.5939)
(-3.40141e-15 -8.28345 13.4091)
(-5.63311e-15 -8.65345 13.8892)
(-7.1109e-15 -6.09292 10.7403)
(1.56052e-14 -13.1147 23.8114)
(1.08744e-14 -15.8063 26.4243)
(-4.49842e-15 -12.6884 23.5114)
(1.37628e-15 -12.1761 21.7114)
(2.16146e-15 -10.4315 20.2094)
(1.50057e-15 -8.83062 17.3664)
(6.31195e-15 -6.55957 14.3526)
(8.09263e-15 -4.75634 11.4946)
(8.63351e-15 -3.08478 9.10977)
(1.16514e-14 -1.88909 7.18416)
(9.97056e-15 -1.53762 6.48402)
(4.22245e-15 -2.67704 7.82501)
(5.69609e-16 -5.13293 10.9188)
(-4.53233e-15 -7.35259 13.3112)
(-5.78752e-15 -5.56283 10.7461)
(1.35566e-14 -12.2031 21.7034)
(1.3212e-14 -18.2774 29.4659)
(5.21543e-16 -15.7018 27.0725)
(1.14173e-15 -14.5077 24.5157)
(1.63872e-15 -12.9463 22.9851)
(2.91086e-15 -11.575 20.4484)
(6.49162e-15 -9.37118 17.5396)
(8.03102e-15 -7.39985 14.5348)
(1.0344e-14 -5.3578 11.7524)
(1.23593e-14 -3.41427 8.94259)
(1.24302e-14 -1.57676 6.29649)
(8.8627e-15 -0.276542 4.16146)
(2.81279e-15 -0.0709502 3.41245)
(-7.6054e-16 -1.49712 4.79414)
(-1.57352e-15 -2.36261 5.63895)
(1.05224e-14 -8.16085 13.7982)
(1.58904e-14 -17.2465 26.9715)
(7.60859e-15 -17.8129 28.595)
(2.97621e-15 -16.1062 25.6907)
(8.47163e-16 -14.3021 23.341)
(1.03324e-15 -13.2466 21.442)
(3.05615e-15 -11.9733 19.5042)
(3.99563e-15 -10.6181 17.2294)
(5.74073e-15 -9.05086 14.8333)
(7.25729e-15 -7.34678 12.2742)
(8.64455e-15 -5.43065 9.52341)
(8.52953e-15 -3.26173 6.47669)
(4.83531e-15 -0.943476 3.11886)
(5.84704e-15 1.50714 -0.418515)
(7.00859e-15 1.16971 -1.92745)
(6.57413e-15 -3.73538 6.77219)
(1.73485e-14 -14.8904 23.0338)
(1.60174e-14 -19.9072 29.7196)
(1.05063e-14 -20.4396 29.0697)
(5.42962e-15 -18.8088 25.6938)
(5.27992e-15 -16.7884 21.9923)
(6.73836e-15 -14.9102 18.904)
(6.39432e-15 -13.4522 16.6792)
(4.8963e-15 -12.2941 14.8063)
(3.82239e-15 -11.1607 13.0947)
(4.54111e-15 -9.8918 11.355)
(5.62255e-15 -8.3946 9.47631)
(5.91115e-15 -6.63094 7.39378)
(6.60379e-15 -4.31904 4.88533)
(9.29406e-15 -1.40688 1.07186)
(7.30259e-18 5.0995 22.2292)
(4.33209e-16 -0.232189 2.65353)
(6.06589e-16 -0.208271 -1.22705)
(6.48709e-16 -0.166241 -0.843262)
(7.06041e-16 -0.0704985 -1.01221)
(1.03771e-15 0.19059 -1.40205)
(6.97598e-16 0.0896328 -0.929471)
(6.66261e-16 0.194293 -0.885332)
(5.14092e-16 0.245019 -0.809336)
(1.57866e-15 0.465379 -1.18173)
(1.11084e-15 0.396335 -0.815158)
(8.27812e-16 0.46819 -0.73705)
(1.23475e-15 0.70596 -1.01322)
(7.94634e-16 0.582502 -0.687922)
(7.26689e-16 0.685152 -0.665319)
(5.77268e-16 0.691575 -0.631903)
(9.73993e-16 0.90254 -0.848651)
(6.40689e-16 0.775542 -0.59126)
(4.86548e-16 0.842384 -0.543263)
(8.48713e-16 1.08043 -0.678939)
(5.1009e-16 0.869167 -0.443002)
(4.71467e-16 0.980623 -0.402344)
(4.76404e-16 0.950288 -0.349832)
(9.0966e-16 1.1825 -0.38048)
(6.69787e-16 0.950933 -0.206863)
(7.50529e-16 1.05053 -0.155175)
(7.33616e-16 1.00335 -0.111058)
(1.25753e-15 1.1943 -0.051064)
(8.8336e-16 0.981614 0.0302556)
(7.54045e-16 1.00873 0.0519817)
(9.93849e-16 1.21 0.170516)
(2.66096e-16 0.933525 0.165804)
(-7.36363e-17 1.0056 0.186354)
(-5.3657e-16 0.946044 0.182556)
(-1.28078e-15 1.09089 0.32269)
(-1.67757e-15 0.869264 0.253329)
(-1.96065e-15 0.883043 0.22863)
(-3.13108e-15 1.02231 0.373646)
(-2.67299e-15 0.764407 0.256619)
(-2.75649e-15 0.81487 0.247817)
(-2.55804e-15 0.764322 0.216886)
(-3.33926e-15 0.868749 0.341432)
(-2.20023e-15 0.648066 0.21582)
(-1.88229e-15 0.691538 0.205811)
(-1.4368e-15 0.652683 0.174124)
(-1.38564e-15 0.720388 0.269839)
(-5.93454e-16 0.542256 0.155224)
(-2.53553e-16 0.556875 0.119307)
(3.92323e-17 0.639344 0.188918)
(3.57274e-16 0.460586 0.0905515)
(4.36033e-16 0.49979 0.0708989)
(3.97307e-16 0.468781 0.0435905)
(8.55818e-16 0.613235 -0.0883854)
(4.81121e-16 0.52875 -0.027976)
(3.89727e-16 0.57352 -0.0239473)
(4.35332e-16 0.546654 -0.0334808)
(6.97602e-16 0.629403 -0.145774)
(7.26215e-16 0.53343 -0.200594)
(7.35072e-16 0.564087 -0.223746)
(1.21663e-15 0.546463 -0.430432)
(1.29521e-15 0.362103 -0.459351)
(1.36116e-15 0.401298 -0.454851)
(1.08566e-15 0.416954 -0.30582)
(3.29189e-15 0.479079 -1.37321)
(3.57468e-15 -0.000282602 -1.56721)
(3.38071e-15 0.133397 -1.35177)
(6.44533e-16 0.259162 -1.35542)
(-4.77953e-15 -0.561597 1.30943)
(-4.66792e-15 -0.500025 1.27313)
(-5.36251e-15 -0.540535 1.60166)
(-9.70471e-15 -1.12972 4.09616)
(-9.3483e-15 -1.87431 4.81208)
(-9.12187e-15 -2.15877 4.79315)
(-9.12022e-15 -2.24138 5.03065)
(-1.28526e-14 -3.70846 8.24446)
(-9.85979e-15 -4.14974 7.19136)
(-9.83417e-15 -4.28238 7.54412)
(-1.3031e-14 -6.30462 11.3208)
(-9.47499e-15 -6.3784 9.0568)
(-9.42965e-15 -6.78391 9.61656)
(-9.40887e-15 -7.38284 11.0213)
(-9.17026e-15 -7.32084 10.7559)
(-9.18855e-15 -7.42926 10.9041)
(-1.22928e-14 -8.94314 13.4386)
(-8.97896e-15 -8.22328 11.8284)
(-8.7519e-15 -8.47643 12.3446)
(-8.00763e-15 -8.46352 12.3927)
(-7.17472e-15 -8.55618 12.405)
(-6.34762e-15 -8.63088 12.4267)
(-5.56852e-15 -8.7083 12.4493)
(-4.914e-15 -8.75951 12.5858)
(-4.49962e-15 -8.86657 12.8024)
(-6.2895e-15 -9.46951 14.2246)
(-4.5187e-15 -9.42286 13.231)
(-4.451e-15 -9.56384 13.2918)
(-4.59749e-15 -9.5288 13.3134)
(-4.96032e-15 -9.67451 13.5958)
(-5.44966e-15 -9.64021 13.5309)
(-6.02324e-15 -9.71681 13.5751)
(-6.57753e-15 -9.71956 13.5921)
(-7.0205e-15 -9.80262 13.6498)
(-9.71539e-15 -10.2971 14.9948)
(-7.06911e-15 -10.2628 14.243)
(-6.11573e-15 -10.3437 14.3384)
(-4.56523e-15 -10.3569 14.3846)
(-2.8393e-15 -10.39 14.4849)
(-1.00656e-15 -10.4048 14.6777)
(7.03801e-16 -10.4649 14.916)
(2.21053e-15 -10.4533 14.9993)
(3.29605e-15 -10.4616 15.161)
(3.88718e-15 -10.5734 15.3266)
(2.60725e-15 -10.6552 16.3548)
(2.5864e-15 -10.8227 15.9398)
(1.98766e-15 -10.8584 16.2397)
(1.13208e-15 -10.8528 16.4751)
(2.21634e-16 -10.8826 16.784)
(-8.00909e-16 -10.8917 17.1515)
(-1.73287e-15 -10.94 17.7186)
(-2.8932e-15 -10.9284 18.1759)
(-4.06841e-15 -11.1045 18.5819)
(-8.95427e-15 -10.6138 19.3187)
(-7.5236e-15 -10.896 19.0539)
(-9.10938e-15 -10.893 19.8403)
(-1.03899e-14 -10.9074 20.4545)
(-1.21516e-14 -10.8816 20.9153)
(-1.39746e-14 -10.9313 21.4227)
(-1.58632e-14 -10.9579 21.9057)
(-1.75217e-14 -10.9359 22.411)
(-1.87959e-14 -11.2528 23.135)
(-2.09256e-14 -9.321 21.6669)
(-1.53801e-14 -10.1789 21.536)
(-1.24794e-14 -10.1445 21.4423)
(-8.43023e-15 -10.1228 21.2772)
(-4.18553e-15 -10.1477 21.3858)
(-8.9231e-17 -10.0941 21.0867)
(3.2374e-15 -10.002 20.695)
(5.55993e-15 -9.93762 20.3594)
(6.77209e-15 -10.0471 19.9989)
(7.82442e-15 -7.10175 16.5046)
(7.3732e-15 -8.3447 18.3741)
(6.9263e-15 -8.05004 17.9762)
(6.82318e-15 -8.0503 17.8372)
(7.27808e-15 -7.89303 17.5141)
(7.98924e-15 -7.82944 17.1274)
(9.37931e-15 -7.66777 16.6472)
(9.25889e-15 -7.50371 15.8264)
(9.41142e-15 -7.32633 14.9534)
(9.09177e-15 -7.21637 13.8372)
(5.87505e-15 -3.44394 7.065)
(7.56106e-15 -5.4164 10.0991)
(6.68927e-15 -4.90862 8.3212)
(6.07411e-15 -5.06817 7.63616)
(5.40117e-15 -4.72479 6.43529)
(4.64349e-15 -4.67615 5.09831)
(3.38255e-15 -4.47848 2.86387)
(2.24306e-15 -4.097 0.890126)
(2.37482e-15 -4.1824 1.05545)
(9.16863e-16 -3.871 -0.756961)
(2.017e-15 -3.78887 0.421464)
(1.6964e-15 -3.80962 -0.0397671)
(1.59239e-16 -2.89804 -1.13777)
(1.43486e-15 -4.37874 -0.66027)
(1.00602e-15 -3.67058 -0.656854)
(8.78399e-16 -3.30582 -0.38884)
(1.1123e-15 -4.35007 -0.573898)
(7.28618e-16 -3.00696 -0.317361)
(1.0229e-15 -4.00944 -0.478415)
(7.6012e-16 -3.76337 -0.364802)
(5.94416e-16 -3.08799 -0.243841)
(8.67615e-16 -3.84105 -0.378164)
(7.4625e-16 -3.61723 -0.301097)
(6.27794e-16 -3.12467 -0.196401)
(8.61573e-16 -4.20709 -0.292912)
(6.32942e-16 -2.9062 -0.168677)
(9.27078e-16 -3.86206 -0.249572)
(7.47788e-16 -3.4875 -0.221353)
(5.91354e-16 -3.06149 -0.140729)
(7.26089e-16 -4.10601 -0.210199)
(4.0511e-16 -2.82055 -0.116209)
(5.84073e-16 -3.78666 -0.166377)
(4.07025e-16 -3.52231 -0.177186)
(2.83793e-16 -2.89206 -0.114037)
(3.07046e-16 -3.59467 -0.19547)
(2.32453e-16 -3.35125 -0.204003)
(1.41305e-16 -2.88689 -0.138412)
(2.35082e-16 -3.87934 -0.217841)
(1.96503e-16 -2.66418 -0.137243)
(2.95068e-16 -3.53687 -0.205515)
(2.38729e-16 -3.1512 -0.2119)
(2.19562e-16 -2.75828 -0.14695)
(2.81416e-16 -3.68713 -0.225751)
(1.78191e-16 -2.51443 -0.14416)
(1.56966e-16 -3.37057 -0.213901)
(-4.53552e-17 -3.1032 -0.225825)
(-1.13278e-16 -2.53811 -0.159983)
(-2.07177e-16 -3.15118 -0.251848)
(-2.27215e-16 -2.93145 -0.240413)
(-2.20073e-16 -2.51779 -0.167501)
(-1.63581e-16 -3.39994 -0.233038)
(-3.51474e-18 -2.32372 -0.140759)
(1.44878e-16 -3.10743 -0.179426)
(2.73324e-16 -2.80665 -0.157532)
(3.33757e-16 -2.45625 -0.0921571)
(4.66181e-16 -3.32578 -0.0956625)
(3.0822e-16 -2.27755 -0.0202578)
(5.10043e-16 -3.09169 0.0329559)
(4.40919e-16 -2.90008 0.0306728)
(3.04283e-16 -2.37967 0.0578323)
(4.68181e-16 -2.9968 0.0910235)
(3.6553e-16 -2.79803 0.0457673)
(2.57974e-16 -2.41622 0.0546866)
(3.04979e-16 -3.28029 0.0515154)
(1.81282e-16 -2.2521 0.0413305)
(1.67487e-16 -3.01801 0.0506105)
(2.69222e-17 -2.67836 -0.0172781)
(-6.38659e-17 -2.3437 -0.00257286)
(-7.68343e-17 -3.15523 -0.0325154)
(-1.06785e-16 -2.14316 -0.010966)
(-1.63805e-16 -2.89456 -0.00915154)
(-1.64846e-16 -2.63356 -0.0443224)
(-1.45236e-16 -2.1547 -0.0130602)
(-2.08453e-16 -2.69073 -0.0438787)
(-1.40301e-16 -2.45407 -0.0847083)
(-4.25575e-17 -2.09719 -0.0648504)
(-6.89353e-17 -2.83083 -0.138972)
(-5.47887e-17 -1.89561 -0.115319)
(-1.23698e-16 -2.5353 -0.217442)
(-1.59844e-16 -2.17963 -0.27638)
(-1.84534e-16 -1.86643 -0.235096)
(-2.70623e-16 -2.49511 -0.377564)
(-2.18481e-16 -1.61373 -0.284288)
(-3.17117e-16 -2.17853 -0.460443)
(-2.47157e-16 -1.88218 -0.479955)
(-1.72533e-16 -1.46325 -0.415242)
(-2.53362e-16 -1.81271 -0.689158)
(-2.39079e-16 -1.5375 -0.671085)
(-2.01909e-16 -1.21394 -0.551079)
(-2.75364e-16 -1.68913 -0.814393)
(-2.16561e-16 -0.926564 -0.61015)
(-3.30491e-16 -1.18351 -0.969837)
(1.05561e-64 0.0634107 0.0649323)
(7.14906e-64 0.0849019 0.0634229)
(2.62774e-63 0.0995454 0.0637909)
(4.02766e-63 0.113473 0.0637747)
(-2.49475e-62 0.127252 0.0643624)
(-2.36012e-61 0.140427 0.064999)
(-9.48898e-61 0.153514 0.0659613)
(-1.07008e-60 0.166388 0.0670893)
(1.12788e-59 0.179244 0.0684666)
(7.93086e-59 0.19208 0.0700439)
(2.42673e-58 0.20499 0.071847)
(2.53569e-58 0.218005 0.0738602)
(-8.31228e-58 0.231181 0.0760916)
(-1.16527e-56 0.244555 0.0785366)
(-1.60995e-55 0.258171 0.0811984)
(-1.27559e-54 0.272065 0.0840765)
(-3.49975e-54 0.286273 0.0871734)
(2.88488e-53 0.30083 0.0904906)
(3.43726e-52 0.315769 0.0940312)
(1.22778e-51 0.331123 0.0977985)
(-4.02946e-51 0.346922 0.101797)
(-6.41681e-50 0.363199 0.10603)
(-2.49579e-49 0.379983 0.110504)
(4.94619e-49 0.397305 0.115225)
(9.88487e-48 0.415195 0.1202)
(3.97135e-47 0.433683 0.125435)
(-5.4143e-47 0.452799 0.130939)
(-1.30847e-45 0.472574 0.136719)
(-5.31634e-45 0.493038 0.142786)
(5.09931e-45 0.514222 0.149149)
(1.50249e-43 0.536157 0.155818)
(6.14281e-43 0.558874 0.162803)
(-3.77135e-43 0.582405 0.170116)
(-1.49354e-41 0.60678 0.177768)
(-6.17428e-41 0.632029 0.185768)
(1.62394e-41 0.658181 0.194127)
(1.27253e-39 0.68526 0.202856)
(5.37999e-39 0.713289 0.21196)
(6.47948e-40 0.742283 0.221444)
(-9.1134e-38 0.772247 0.23131)
(-4.0103e-37 0.803176 0.241553)
(-2.19832e-37 0.835047 0.252161)
(5.30044e-36 0.867815 0.263112)
(2.49762e-35 0.901411 0.274372)
(2.56765e-35 0.935732 0.285892)
(-2.35512e-34 0.970639 0.297605)
(-1.25351e-33 1.00595 0.30942)
(-1.96529e-33 1.04145 0.321225)
(7.04263e-33 1.07689 0.332881)
(4.80612e-32 1.11197 0.344222)
(1.0504e-31 1.1464 0.355055)
(-8.93519e-32 1.17989 0.365157)
(-1.30835e-30 1.21213 0.374275)
(-3.87288e-30 1.24285 0.382117)
(-2.37396e-30 1.27178 0.388341)
(2.41117e-29 1.2986 0.39253)
(1.00913e-28 1.32291 0.39416)
(1.34686e-28 1.34409 0.392547)
(-4.1028e-28 1.3612 0.386779)
(-2.48373e-27 1.37276 0.375636)
(-4.31699e-27 1.37649 0.35748)
(9.0946e-27 1.36895 0.330251)
(7.47284e-26 1.34545 0.291398)
(1.97214e-25 1.29927 0.238318)
(1.09316e-25 1.22235 0.168221)
(-1.14117e-24 1.10176 0.0801492)
(-5.10809e-24 0.922954 -0.025871)
(-1.20239e-23 0.656563 -0.142091)
(-1.98086e-23 0.202251 -0.279903)
(-1.36863e-23 -0.470888 -0.356324)
(-2.22182e-23 -0.874804 -0.393055)
(3.4645e-23 -1.32252 -0.366433)
(-1.18401e-22 -1.71443 -0.376521)
(5.9481e-22 -2.20495 -0.291467)
(-2.35094e-21 -2.47422 -0.359072)
(2.38611e-20 -3.06886 -0.169538)
(-3.59956e-19 -2.94505 -0.486681)
(7.49675e-18 -4.06102 -0.0340074)
(-7.18382e-18 -4.47727 -1.02898)
(3.25249e-64 0.0637277 0.0731854)
(2.53304e-63 0.0851321 0.0710656)
(1.02456e-62 0.0995222 0.0713855)
(2.04834e-62 0.113404 0.0712436)
(-6.72215e-62 0.127074 0.0718421)
(-8.32208e-61 0.140184 0.0724947)
(-3.77396e-60 0.15319 0.0735284)
(-6.19189e-60 0.165995 0.0747482)
(3.56395e-59 0.178777 0.0762505)
(3.08243e-58 0.191545 0.0779752)
(1.07114e-57 0.204384 0.0799514)
(1.21951e-57 0.217329 0.0821595)
(-6.14553e-57 0.230436 0.0846084)
(-5.83973e-56 0.243741 0.0872919)
(-5.351e-55 0.257287 0.0902132)
(-3.85991e-54 0.271111 0.0933711)
(-1.09877e-53 0.285249 0.096768)
(8.4757e-53 0.299735 0.100405)
(1.07761e-51 0.314602 0.104286)
(4.21088e-51 0.329882 0.108413)
(-1.03255e-50 0.345607 0.112791)
(-2.01337e-49 0.361807 0.117425)
(-8.65814e-49 0.378513 0.12232)
(1.07241e-48 0.395755 0.127481)
(3.08547e-47 0.413563 0.132918)
(1.37696e-46 0.431967 0.138636)
(-9.45842e-47 0.450996 0.144644)
(-4.05285e-45 0.470681 0.150951)
(-1.83264e-44 0.491053 0.157566)
(6.20279e-45 0.512141 0.164501)
(4.60426e-43 0.533977 0.171764)
(2.09659e-42 0.556591 0.179368)
(-9.0111e-44 0.580016 0.187322)
(-4.5075e-41 0.604282 0.195639)
(-2.07873e-40 0.629418 0.20433)
(-5.52191e-41 0.655454 0.213402)
(3.75703e-39 0.682416 0.222866)
(1.78113e-38 0.710325 0.232726)
(1.10027e-38 0.739198 0.242985)
(-2.60619e-37 0.769042 0.25364)
(-1.30186e-36 0.799854 0.264681)
(-1.33624e-36 0.831614 0.276087)
(1.4436e-35 0.86428 0.287829)
(7.91774e-35 0.897788 0.299859)
(1.18626e-34 0.932041 0.312114)
(-5.88162e-34 0.966904 0.324507)
(-3.845e-33 1.00221 0.336931)
(-7.852e-33 1.03774 0.349251)
(1.41314e-32 1.07325 0.361307)
(1.39336e-31 1.10847 0.372916)
(3.7489e-31 1.14311 0.383869)
(2.27516e-32 1.17687 0.393933)
(-3.34878e-30 1.20948 0.402848)
(-1.20013e-29 1.24067 0.410315)
(-1.41761e-29 1.27018 0.415982)
(4.31792e-29 1.29774 0.419411)
(2.32249e-28 1.32297 0.420033)
(3.8379e-28 1.34533 0.417092)
(-4.50256e-28 1.36398 0.40955)
(-3.36041e-27 1.37752 0.396007)
(-3.11779e-27 1.38384 0.374568)
(2.61854e-26 1.37963 0.342877)
(1.22594e-25 1.3603 0.298051)
(1.94291e-25 1.31916 0.237289)
(-3.89693e-25 1.24789 0.157609)
(-3.23976e-24 1.13316 0.0582473)
(-1.00773e-23 0.959255 -0.0602059)
(-1.91516e-23 0.696398 -0.190535)
(-2.64737e-23 0.24713 -0.345498)
(-1.60913e-23 -0.498029 -0.429391)
(-2.25783e-23 -0.915882 -0.432203)
(3.39416e-23 -1.36187 -0.387793)
(-1.1831e-22 -1.75852 -0.390694)
(5.94139e-22 -2.24081 -0.298583)
(-2.38545e-21 -2.51756 -0.362105)
(2.46827e-20 -3.08173 -0.169994)
(-3.73487e-19 -2.98418 -0.481022)
(7.47684e-18 -4.01391 -0.0347503)
(-5.60787e-18 -4.39408 -1.00931)
(8.00635e-64 0.0639226 0.077632)
(7.40129e-63 0.0852708 0.0752735)
(3.27715e-62 0.0995128 0.0755644)
(7.87513e-62 0.113364 0.0753578)
(-1.3083e-61 0.126973 0.0759632)
(-2.40723e-60 0.140046 0.0766269)
(-1.2229e-59 0.153007 0.0777014)
(-2.54789e-59 0.165775 0.0789736)
(8.86326e-59 0.178517 0.0805463)
(9.71865e-58 0.191246 0.0823539)
(3.78269e-57 0.204047 0.0844268)
(4.9797e-57 0.216955 0.0867437)
(-2.56885e-56 0.230024 0.0893136)
(-2.27004e-55 0.243291 0.0921294)
(-1.54649e-54 0.2568 0.0951944)
(-9.59029e-54 0.270586 0.0985071)
(-2.63517e-53 0.284686 0.10207)
(2.13097e-52 0.299133 0.105884)
(2.77048e-51 0.313961 0.109952)
(1.1519e-50 0.329202 0.114277)
(-2.16357e-50 0.344887 0.118864)
(-5.16088e-49 0.361046 0.123717)
(-2.4026e-48 0.377711 0.128843)
(1.64427e-48 0.39491 0.134247)
(7.8416e-47 0.412674 0.139936)
(3.81661e-46 0.431032 0.145919)
(-6.51947e-47 0.450015 0.152203)
(-1.01922e-44 0.469652 0.158798)
(-5.04404e-44 0.489974 0.165714)
(-7.05844e-45 0.511012 0.172961)
(1.143e-42 0.532795 0.18055)
(5.70629e-42 0.555355 0.188491)
(2.27706e-42 0.578724 0.196797)
(-1.10002e-40 0.602932 0.205478)
(-5.57345e-40 0.62801 0.214545)
(-3.76326e-40 0.653985 0.224007)
(8.95271e-39 0.680886 0.233871)
(4.68741e-38 0.708734 0.244143)
(4.70129e-38 0.737546 0.254824)
(-5.99653e-37 0.767331 0.265906)
(-3.35021e-36 0.798088 0.277378)
(-4.6878e-36 0.829796 0.289215)
(3.13869e-35 0.86242 0.301381)
(1.98181e-34 0.895895 0.313822)
(3.71505e-34 0.930127 0.326465)
(-1.14086e-33 0.964988 0.339215)
(-9.25989e-33 1.00031 0.351952)
(-2.26783e-32 1.03588 0.364532)
(1.78294e-32 1.07147 0.376785)
(3.13906e-31 1.10679 0.388519)
(1.00506e-30 1.14156 0.39952)
(7.27247e-31 1.1755 0.409552)
(-6.38483e-30 1.20832 0.418353)
(-2.89863e-29 1.23978 0.425626)
(-5.17784e-29 1.26962 0.431013)
(2.98308e-29 1.29758 0.434064)
(4.19059e-28 1.32332 0.434188)
(1.06785e-27 1.34634 0.430583)
(9.41527e-28 1.36585 0.422142)
(-9.22209e-28 1.38053 0.407357)
(2.85551e-27 1.38834 0.384185)
(3.93464e-26 1.38606 0.350102)
(1.11777e-25 1.36912 0.302038)
(-4.90131e-26 1.33081 0.237085)
(-1.52227e-24 1.26264 0.152138)
(-6.43569e-24 1.15097 0.0464353)
(-1.5804e-23 0.979497 -0.0791731)
(-2.46251e-23 0.717687 -0.218801)
(-2.80038e-23 0.268202 -0.375619)
(-2.01314e-23 -0.471253 -0.507219)
(-2.37768e-23 -0.904939 -0.498497)
(3.27798e-23 -1.35224 -0.426423)
(-1.18078e-22 -1.75379 -0.414535)
(5.93133e-22 -2.23128 -0.311862)
(-2.43259e-21 -2.51877 -0.367674)
(2.57625e-20 -3.05867 -0.171775)
(-3.89561e-19 -2.98825 -0.471887)
(7.4492e-18 -3.94706 -0.0285394)
(-4.09494e-18 -4.30794 -0.993162)
(1.77633e-63 0.0642334 0.0827387)
(2.09364e-62 0.0854887 0.0801676)
(1.02002e-61 0.0995204 0.0804386)
(2.84951e-61 0.113321 0.0801767)
(-1.52734e-61 0.126838 0.0807972)
(-6.71755e-60 0.139855 0.0814828)
(-3.85467e-59 0.15275 0.0826106)
(-9.7079e-59 0.16546 0.0839503)
(1.9323e-58 0.178143 0.0856104)
(2.96048e-57 0.190816 0.0875202)
(1.2943e-56 0.20356 0.0897112)
(2.04028e-56 0.216412 0.0921604)
(-8.97486e-56 0.229425 0.0948766)
(-8.31805e-55 0.242638 0.0978524)
(-4.65434e-54 0.256091 0.101091)
(-2.36336e-53 0.269822 0.10459)
(-5.71123e-53 0.283866 0.108352)
(5.49566e-52 0.298257 0.112378)
(7.0114e-51 0.313028 0.116671)
(3.05585e-50 0.328211 0.121234)
(-4.30186e-50 0.343837 0.126071)
(-1.29639e-48 0.359937 0.131188)
(-6.5017e-48 0.37654 0.136591)
(1.21698e-48 0.393677 0.142285)
(1.94772e-46 0.411376 0.148278)
(1.03377e-45 0.429669 0.154578)
(3.16326e-46 0.448583 0.161193)
(-2.50119e-44 0.468151 0.168134)
(-1.35871e-43 0.4884 0.17541)
(-8.00955e-44 0.509362 0.183032)
(2.7668e-42 0.531069 0.19101)
(1.5222e-41 0.553549 0.199357)
(1.24635e-41 0.576836 0.208084)
(-2.61672e-40 0.600959 0.217201)
(-1.46653e-39 0.62595 0.22672)
(-1.56271e-39 0.651837 0.23665)
(2.07801e-38 0.678648 0.246997)
(1.21155e-37 0.706405 0.257765)
(1.65856e-37 0.735127 0.268953)
(-1.34017e-36 0.764825 0.280553)
(-8.46569e-36 0.795497 0.292548)
(-1.48291e-35 0.827129 0.30491)
(6.55958e-35 0.859685 0.317595)
(4.86342e-34 0.893108 0.330541)
(1.08588e-33 0.927306 0.343667)
(-2.02362e-33 0.962157 0.356866)
(-2.17883e-32 0.997498 0.370005)
(-6.21762e-32 1.03313 0.382928)
(3.82604e-33 1.06881 0.395451)
(6.84468e-31 1.10427 0.407371)
(2.58754e-30 1.13923 0.418467)
(3.25615e-30 1.17341 0.428498)
(-1.10538e-29 1.20654 0.437201)
(-6.80972e-29 1.23837 0.444277)
(-1.6161e-28 1.26868 0.449364)
(-9.2498e-29 1.29722 0.452004)
(7.08761e-28 1.3237 0.451581)
(2.91608e-27 1.34767 0.447252)
(6.33649e-27 1.36841 0.437834)
(1.04383e-26 1.38473 0.421707)
(2.02863e-26 1.39469 0.396661)
(4.08589e-26 1.39517 0.359972)
(-3.65548e-26 1.38166 0.308342)
(-8.3844e-25 1.34745 0.238695)
(-4.14242e-24 1.28381 0.147729)
(-1.25153e-23 1.17675 0.0346484)
(-2.46677e-23 1.00918 -0.0996192)
(-2.93468e-23 0.749355 -0.250462)
(-2.22161e-23 0.304984 -0.415179)
(-2.25947e-23 -0.4513 -0.571903)
(-2.60848e-23 -0.908082 -0.582712)
(3.06641e-23 -1.35728 -0.484311)
(-1.17685e-22 -1.76006 -0.448639)
(5.91797e-22 -2.23186 -0.331529)
(-2.48918e-21 -2.52665 -0.376859)
(2.6969e-20 -3.04584 -0.175276)
(-4.05589e-19 -2.99706 -0.462144)
(7.41413e-18 -3.89696 -0.020661)
(-2.26907e-18 -4.2496 -0.930626)
(3.21422e-63 0.0645324 0.08755)
(5.68303e-62 0.0856949 0.0848466)
(3.07679e-61 0.0995336 0.0851044)
(9.80066e-61 0.113281 0.0848032)
(3.12707e-61 0.126712 0.0854432)
(-1.78889e-59 0.139673 0.086156)
(-1.17722e-58 0.152505 0.0873392)
(-3.48415e-58 0.165161 0.0887481)
(3.14816e-58 0.177788 0.0904961)
(8.66327e-57 0.190408 0.0925078)
(4.27816e-56 0.203099 0.0948158)
(8.08663e-56 0.215899 0.0973955)
(-2.7557e-55 0.228859 0.100256)
(-2.88452e-54 0.24202 0.103389)
(-1.44439e-53 0.255422 0.106797)
(-5.84163e-53 0.2691 0.110478)
(-1.04029e-52 0.283092 0.114434)
(1.46997e-51 0.297431 0.118667)
(1.74564e-50 0.312149 0.123179)
(7.81839e-50 0.327278 0.127974)
(-8.1352e-50 0.34285 0.133056)
(-3.17853e-48 0.358893 0.138429)
(-1.70679e-47 0.37544 0.144101)
(-4.45042e-48 0.392518 0.150077)
(4.69979e-46 0.410158 0.156364)
(2.72069e-45 0.428389 0.162973)
(2.04454e-45 0.44724 0.16991)
(-5.94481e-44 0.466742 0.177186)
(-3.5598e-43 0.486924 0.184811)
(-3.62303e-43 0.507817 0.192797)
(6.4735e-42 0.529452 0.201154)
(3.95336e-41 0.551859 0.209894)
(4.83805e-41 0.57507 0.219029)
(-6.00644e-40 0.599115 0.228571)
(-3.76044e-39 0.624026 0.238529)
(-5.43486e-39 0.649832 0.248912)
(4.64327e-38 0.67656 0.259727)
(3.05354e-37 0.704236 0.270977)
(5.27094e-37 0.732877 0.282659)
(-2.8674e-36 0.762496 0.294762)
(-2.08582e-35 0.793096 0.307266)
(-4.37275e-35 0.824662 0.320138)
(1.28837e-34 0.857164 0.33333)
(1.16223e-33 0.890546 0.34677)
(3.00713e-33 0.924725 0.360369)
(-3.00848e-33 0.959581 0.374008)
(-4.9747e-32 0.994956 0.387543)
(-1.62821e-31 1.03065 0.400804)
(-8.11558e-32 1.06644 0.413596)
(1.43063e-30 1.10205 0.425706)
(6.39231e-30 1.13721 0.436906)
(1.09252e-29 1.17163 0.44695)
(-1.60442e-29 1.20505 0.455575)
(-1.53927e-28 1.23725 0.462484)
(-4.53365e-28 1.26799 0.467314)
(-5.59926e-28 1.29708 0.4696)
(1.02589e-27 1.32425 0.468707)
(7.43705e-27 1.34911 0.463756)
(2.23971e-26 1.37103 0.453499)
(4.69363e-26 1.3889 0.436207)
(6.89276e-26 1.40092 0.409516)
(2.68612e-27 1.40407 0.370497)
(-5.63051e-25 1.39386 0.315627)
(-2.97515e-24 1.3636 0.24164)
(-1.00684e-23 1.3043 0.145011)
(-2.4308e-23 1.20163 0.0248482)
(-3.83848e-23 1.03783 -0.118032)
(-2.87863e-23 0.779797 -0.280372)
(3.95202e-24 0.340283 -0.45405)
(-1.74532e-23 -0.435424 -0.636387)
(-2.88087e-23 -0.919816 -0.678458)
(2.68227e-23 -1.37691 -0.564321)
(-1.17219e-22 -1.78037 -0.496667)
(5.89992e-22 -2.24446 -0.358908)
(-2.55662e-21 -2.54493 -0.390321)
(2.82764e-20 -3.0423 -0.180759)
(-4.20873e-19 -3.0145 -0.452092)
(7.37441e-18 -3.85344 -0.00996904)
(-5.96061e-19 -4.19837 -0.90941)
(2.98779e-63 0.0648633 0.0922949)
(1.46887e-61 0.0859183 0.0895092)
(8.97911e-61 0.0995551 0.0897617)
(3.22395e-60 0.113241 0.0894364)
(3.25694e-60 0.126577 0.0901014)
(-4.49496e-59 0.139476 0.0908485)
(-3.47795e-58 0.152238 0.0920918)
(-1.1891e-57 0.164834 0.093575)
(5.94638e-59 0.177398 0.0954151)
(2.42541e-56 0.18996 0.0975331)
(1.36509e-55 0.202592 0.0999623)
(3.06236e-55 0.215334 0.102677)
(-7.46666e-55 0.228238 0.105685)
(-9.49684e-54 0.241342 0.108979)
(-4.5645e-53 0.254686 0.112561)
(-1.48403e-52 0.268308 0.116428)
(-1.25727e-52 0.282243 0.120583)
(4.11345e-51 0.296524 0.125027)
(4.30804e-50 0.311184 0.129763)
(1.92913e-49 0.326254 0.134794)
(-1.52925e-49 0.341766 0.140124)
(-7.62948e-48 0.357749 0.145758)
(-4.34607e-47 0.374233 0.151704)
(-2.86377e-47 0.391247 0.157966)
(1.10204e-45 0.408821 0.164554)
(6.95332e-45 0.426985 0.171475)
(8.119e-45 0.445768 0.178739)
(-1.36627e-43 0.465198 0.186357)
(-9.06236e-43 0.485307 0.194337)
(-1.29372e-42 0.506125 0.202692)
(1.45927e-41 0.527682 0.211434)
(9.98283e-41 0.550008 0.220574)
(1.61474e-40 0.573136 0.230124)
(-1.32403e-39 0.597097 0.240096)
(-9.38198e-39 0.621921 0.2505)
(-1.70633e-38 0.647638 0.261345)
(9.91948e-38 0.674277 0.272637)
(7.49266e-37 0.701863 0.284378)
(1.55896e-36 0.730417 0.296562)
(-5.8079e-36 0.759952 0.309178)
(-5.00385e-35 0.790472 0.322203)
(-1.2217e-34 0.821968 0.335598)
(2.31281e-34 0.854413 0.349309)
(2.7016e-33 0.887755 0.363258)
(7.96645e-33 0.921915 0.377345)
(-2.70997e-33 0.95678 0.391442)
(-1.10075e-31 0.992198 0.405391)
(-4.0978e-31 1.02798 0.41901)
(-3.90723e-31 1.06388 0.432092)
(2.85063e-30 1.09966 0.444413)