/*--------------------------------*- C++ -*----------------------------------*\
| =========                 |                                                 |
| \\      /  F ield         | OpenFOAM: The Open Source CFD Toolbox           |
|  \\    /   O peration     | Version:  4.1                                   |
|   \\  /    A nd           | Web:      www.OpenFOAM.org                      |
|    \\/     M anipulation  |                                                 |
\*---------------------------------------------------------------------------*/
FoamFile
{
    version     2.0;
    format      ascii;
    class       volScalarField;
    location    "25";
    object      p;
}
// * * * * * * * * * * * * * * * * * * * * * * * * * * * * * * * * * * * * * //

dimensions      [0 2 -2 0 0 0 0];

internalField   nonuniform List<scalar> 
6785
(
628.841
574.645
522.778
474.07
428.904
386.594
346.956
309.696
274.377
240.735
209.388
180.962
152.106
117.163
86.6685
155.698
133.826
129.138
125.613
120.248
114.732
109.777
105.577
102.286
100.018
98.9805
99.6038
101.892
104.041
103.992
57.5752
51.933
57.8725
61.5936
64.3633
67.6825
71.2834
74.9316
78.5616
82.0256
85.11
87.9023
90.7667
93.0902
93.6753
102.076
101.987
106.381
106.499
106.341
106.392
106.168
105.683
105.013
104.185
103.169
101.99
100.958
100.606
100.84
115.397
116.306
118.045
116.306
115.007
113.937
112.662
111.393
110.248
109.269
108.47
107.824
107.324
107.232
107.355
104.918
105.69
106.799
106.326
106.429
106.654
106.769
106.97
107.268
107.617
107.999
108.381
108.642
108.892
108.819
100.851
101.641
103.1
103.981
104.811
105.431
105.91
106.389
106.83
107.199
107.493
107.714
107.731
107.759
107.318
102.994
103.533
104.984
106.169
106.736
107.003
107.179
107.333
107.432
107.476
107.483
107.466
107.244
107.179
106.635
105.301
105.414
106.478
107.47
107.593
107.551
107.511
107.47
107.406
107.333
107.257
107.194
106.878
106.812
106.256
105.773
105.63
106.327
107.162
107.072
106.964
106.891
106.815
106.733
106.66
106.586
106.54
106.178
106.119
105.555
104.727
104.557
105.072
105.903
105.825
105.802
105.793
105.764
105.728
105.699
105.651
105.639
105.261
105.223
104.649
102.895
102.812
103.285
104.17
104.203
104.333
104.445
104.528
104.6
104.669
104.698
104.755
104.405
104.424
103.886
100.602
100.591
101.13
102.176
102.373
102.712
103.001
103.267
103.521
103.772
103.959
104.178
103.909
104.042
103.643
96.7597
97.008
97.7872
99.0706
99.7419
100.741
101.722
102.703
103.656
104.532
105.299
105.895
105.979
106.373
105.85
96.4793
93.745
92.1675
91.9688
91.9665
93.0479
94.5577
96.4182
98.3268
100.289
102.05
103.561
104.851
106.531
107.56
152.828
152.797
152.834
152.72
152.721
152.626
152.572
152.345
152.278
152.211
152.09
151.67
151.666
151.468
150.922
150.789
151.047
150.802
149.963
150.198
149.994
149.116
148.9
149.587
149.244
148.228
148.047
148.837
148.598
147.295
148.074
148.102
146.913
146.668
147.837
147.853
146.474
147.369
147.614
146.473
146.298
147.589
147.589
146.497
146.477
147.627
147.685
146.529
147.509
147.879
146.982
146.913
147.838
148.005
147.317
147.409
148.042
148.22
147.622
148.145
148.461
148.037
148.108
148.316
148.577
148.37
148.437
148.691
148.578
148.669
148.481
148.606
148.55
148.59
148.127
147.939
147.887
146.7
145.413
145.653
146.085
145.665
144.599
149.49
142.73
143.191
143.171
143.102
143.168
143.449
143.185
142.056
146.018
137.812
137.997
138.679
139.138
139.196
139.535
139.147
137.704
139.838
132.096
131.887
131.669
131.799
132.101
132.131
132.039
131.214
128.944
126.592
119.779
119.145
118.319
117.435
117.253
117.476
116.403
112.982
102.253
100.488
100.579
99.8114
97.9634
96.1438
95.1401
94.4719
91.5007
76.2874
74.709
72.7541
71.9001
70.224
67.235
64.2772
61.6807
58.6701
42.2658
47.9156
45.0344
42.326
39.1345
35.9647
31.9963
27.8106
25.2852
24.5149
9.07889
20.4347
16.9825
15.1289
13.2026
9.86502
5.50012
4.95242
7.53842
-11.2726
7.93723
6.02644
4.32072
5.72109
5.15093
5.14538
5.0202
5.18339
5.34253
4.83065
5.16042
5.45853
5.10244
5.06757
4.85852
5.16816
5.61283
5.20007
5.19615
5.02818
5.41508
5.5899
4.69689
5.20376
5.76307
5.33063
5.29863
4.96154
5.31164
5.84852
5.20878
5.26878
5.13199
5.68703
5.87038
4.7352
5.50128
6.1305
5.37141
5.26266
5.04258
5.68381
6.28506
5.34897
5.32379
5.22154
5.77105
5.82746
4.71716
5.6099
6.1899
5.33842
5.14887
4.99348
5.50563
5.85741
5.07432
5.07274
5.00291
5.28788
5.12293
4.45353
4.96455
4.92606
4.34896
4.35055
4.27661
4.40323
4.08357
3.72126
3.59104
3.37944
3.38664
2.85671
2.71557
2.51601
1.87161
1.72736
1.3304
0.946119
0.420805
0.00657205
-0.105099
-0.135605
-0.148891
-0.143534
-0.132321
-0.115981
-0.096858
-0.0753105
-0.0529615
-0.0298786
-0.00697219
0.0143234
0.0343733
0.0523209
0.0678204
0.0795677
0.0853103
0.0816087
0.0640673
0.0276225
-0.0307178
-0.104385
-0.167711
-0.167622
-0.0611166
0.0724783
0.10313
0.0255436
-0.0330926
-0.0408909
-0.0648328
-0.0337219
0.0100908
0.09289
0.151243
0.294606
0.689215
0.911487
0.381774
0.152507
0.780097
0.775187
0.38633
0.385232
0.717913
1.2506
1.78628
2.25206
2.4113
1.94472
0.90873
-0.0302101
-0.0743495
0.470051
-0.127793
-2.25806
-2.7953
-1.40505
-0.75593
-0.15107
-0.299395
-0.0684688
-0.034609
-0.0347912
-0.0151443
0.0115552
0.0362935
0.074235
0.130221
0.231699
0.334059
0.477432
0.671775
0.78048
0.724059
0.628356
0.464386
0.262379
0.397479
-0.153666
-0.19965
-0.225759
-0.215651
-0.196429
-0.169539
-0.138827
-0.104231
-0.0677516
-0.0290347
0.011031
0.0508521
0.0904174
0.127537
0.161863
0.191186
0.211679
0.219155
0.210984
0.186452
0.15249
0.127177
0.128358
0.162406
0.217094
0.252811
0.280927
0.297883
0.24131
0.0965845
-0.00932847
0.0477573
0.0944649
0.184383
0.22601
0.632907
1.30616
1.35899
0.057241
0.526221
1.10271
0.921248
0.306398
0.0118172
0.112711
0.459594
0.806177
1.10342
1.14638
0.497358
-0.94723
-2.28468
-1.90743
0.496676
2.57201
2.26621
1.14466
-0.150756
-0.748753
-0.33327
-0.349107
-0.199926
-0.114864
-0.0474882
0.00590217
0.0232764
0.0817777
0.144652
0.235098
0.375986
0.508337
0.751868
1.02146
1.18006
1.14106
1.05001
0.938113
0.939379
1.17827
-0.10427
-0.149084
-0.177171
-0.159419
-0.133156
-0.0990597
-0.0619794
-0.0220014
0.0190211
0.0610575
0.103685
0.146028
0.185922
0.220987
0.250083
0.270978
0.279917
0.276012
0.263783
0.249767
0.243039
0.246903
0.24693
0.229144
0.203822
0.203957
0.281836
0.376317
0.360428
0.182844
0.0697651
0.208566
0.343166
0.441881
0.440233
1.00761
1.88073
1.77775
-0.00577105
0.703763
1.8219
1.62691
1.08726
0.813141
0.941083
1.26878
1.58319
1.8386
1.83561
1.12468
-0.359026
-1.52938
-0.612327
2.52969
5.02316
4.60071
2.74028
0.214204
-0.626025
-0.635018
-0.490144
-0.270415
-0.182028
-0.0900232
-0.0277818
-0.0206119
0.0724951
0.158078
0.289839
0.488543
0.675472
0.933225
1.24405
1.45655
1.43434
1.39212
1.30967
1.55258
2.00946
-0.068451
-0.127786
-0.159781
-0.140216
-0.112843
-0.0774166
-0.0393721
0.00092228
0.0414481
0.0815468
0.12122
0.159177
0.191932
0.219059
0.239646
0.254587
0.26464
0.27473
0.291771
0.313387
0.330236
0.330454
0.302141
0.256482
0.22272
0.24274
0.346215
0.463778
0.457109
0.28993
0.205692
0.398501
0.610999
0.746814
0.785392
1.42184
2.41425
2.27053
0.234331
0.918754
2.32452
2.08124
1.72046
1.74326
2.15268
2.85197
3.48168
3.94945
4.00694
3.2836
1.87281
1.01183
2.22317
5.03647
6.3016
4.63047
2.21039
-0.240215
-0.474501
-0.577485
-0.474043
-0.249565
-0.15526
-0.082428
-0.000988087
0.00115738
0.103787
0.22854
0.396168
0.650632
0.862683
1.1057
1.41469
1.68825
1.73855
1.73754
1.65012
1.98898
2.61792
-0.047217
-0.14303
-0.180401
-0.168009
-0.147886
-0.119625
-0.088482
-0.0548522
-0.0206217
0.0130548
0.0465364
0.0786497
0.10784
0.136381
0.166142
0.200937
0.242304
0.289562
0.340123
0.382511
0.405746
0.404879
0.380613
0.34585
0.328356
0.372554
0.487275
0.608311
0.605341
0.464935
0.424717
0.636789
0.903648
1.09814
1.25443
2.01088
3.07646
2.8678
0.702432
1.19549
2.61374
2.50061
2.33052
2.68906
3.37372
4.39228
5.2322
5.8204
5.8031
4.92993
3.49308
2.76
3.83064
5.67431
5.4351
3.01397
0.824121
-0.914892
-0.522161
-0.527558
-0.448709
-0.247569
-0.121959
-0.0583234
0.0320838
0.0316199
0.133429
0.301276
0.509324
0.803711
1.00922
1.24833
1.5329
1.85368
1.99224
2.03021
1.99184
2.34225
3.01347
-0.0249208
-0.16803
-0.205226
-0.203143
-0.193093
-0.175395
-0.154567
-0.130877
-0.105299
-0.0786363
-0.0503437
-0.0189975
0.0175132
0.062128
0.116707
0.18146
0.252558
0.323518
0.390391
0.442846
0.473704
0.480189
0.470901
0.455613
0.462836
0.529297
0.656159
0.776848
0.770397
0.6487
0.644781
0.862212
1.15198
1.39507
1.71539
2.6693
3.84411
3.56142
1.38224
1.51595
2.84789
3.03936
3.13279
3.75531
4.58249
5.61849
6.38832
6.82377
6.53336
5.38791
3.84751
3.0796
3.77459
4.62596
3.48358
1.2289
-0.321161
-1.4099
-0.727067
-0.60658
-0.514335
-0.300174
-0.11167
-0.0404669
0.0564073
0.0633394
0.156751
0.347965
0.588743
0.90542
1.10317
1.35674
1.63114
1.98592
2.19478
2.27571
2.33839
2.69559
3.30165
-0.00109933
-0.189538
-0.217892
-0.223097
-0.219819
-0.209483
-0.195805
-0.179344
-0.159667
-0.136174
-0.10749
-0.0706884
-0.0222779
0.0389567
0.1125
0.195796
0.282555
0.364481
0.437766
0.494904
0.532223
0.547651
0.553754
0.560093
0.595141
0.682891
0.814645
0.929291
0.920033
0.813474
0.822291
1.02438
1.30778
1.57809
2.06303
3.25366
4.59308
4.3113
2.28323
1.98089
3.1905
3.65412
4.05399
4.84221
5.6837
6.53332
7.10059
7.20575
6.56538
5.17445
3.5874
2.79611
3.15967
3.38148
2.05615
0.403896
-0.738418
-1.5704
-0.921343
-0.785463
-0.674249
-0.352807
-0.0981025
-0.0460402
0.0498868
0.0826648
0.181263
0.372521
0.633241
0.961809
1.17005
1.44895
1.73813
2.12
2.37653
2.50334
2.66674
3.05376
3.60915
0.0176613
-0.208338
-0.221738
-0.229529
-0.228227
-0.220662
-0.209464
-0.195313
-0.177268
-0.153576
-0.121939
-0.0792224
-0.0219262
0.0504741
0.135889
0.229586
0.323669
0.409086
0.482085
0.539539
0.579402
0.602544
0.624391
0.654344
0.710912
0.810644
0.935281
1.04426
1.0397
0.945489
0.951198
1.12384
1.36989
1.64258
2.27281
3.69885
5.21814
5.04014
3.35667
2.70253
3.7031
4.30212
4.94127
5.81944
6.63502
7.28654
7.66585
7.46908
6.58005
5.11472
3.63695
2.93463
3.12378
3.0757
1.92957
0.690164
-0.573738
-1.46444
-1.04892
-1.04811
-0.889687
-0.353211
-0.0892142
-0.106014
-0.00635106
0.0695603
0.200535
0.396447
0.662197
1.00017
1.23876
1.54313
1.86335
2.26756
2.55324
2.72682
2.95735
3.37945
3.90386
0.0270171
-0.226898
-0.224769
-0.232682
-0.230634
-0.223651
-0.212865
-0.198886
-0.18033
-0.154839
-0.119245
-0.0699321
-0.00408129
0.0777956
0.17192
0.272362
0.370474
0.456698
0.526748
0.582231
0.623453
0.656645
0.694601
0.743216
0.814026
0.916109
1.03375
1.13906
1.14222
1.05498
1.04461
1.16922
1.35408
1.61595
2.36471
3.99002
5.65952
5.66056
4.46637
3.6942
4.39312
5.01862
5.76551
6.68651
7.51672
8.07778
8.33769
8.00642
7.07893
5.76052
4.54411
4.0028
4.09147
3.89275
2.8628
1.55366
-0.226457
-1.25081
-1.15209
-1.40502
-1.19096
-0.399442
-0.228685
-0.293864
-0.109428
0.0334579
0.202306
0.419082
0.694589
1.03864
1.32292
1.65263
2.00398
2.42535
2.72527
2.94668
3.21283
3.65894
4.14827
0.0288103
-0.242791
-0.228321
-0.236916
-0.233989
-0.227753
-0.217828
-0.204188
-0.184628
-0.156098
-0.11518
-0.0584292
0.0162495
0.107262
0.209662
0.316889
0.418854
0.505721
0.574053
0.63161
0.678202
0.72088
0.775235
0.840294
0.920034
1.02255
1.13293
1.23396
1.24763
1.16727
1.12972
1.18909
1.30443
1.55
2.38804
4.15554
5.91381
6.10221
5.44731
4.85981
5.27005
5.87557
6.62775
7.55973
8.46828
9.07893
9.3193
9.047
8.27816
7.25252
6.33148
5.88178
5.77493
5.3105
4.11455
2.35993
0.0078464
-1.08596
-1.36906
-1.98002
-1.72596
-0.789461
-0.823111
-0.791246
-0.350074
-0.0101882
0.203018
0.439079
0.738031
1.08862
1.41873
1.77725
2.15223
2.58501
2.89036
3.15981
3.44946
3.90581
4.35114
0.0271421
-0.253037
-0.230756
-0.241696
-0.239224
-0.234649
-0.226015
-0.212733
-0.191815
-0.160058
-0.113995
-0.0500384
0.0335838
0.133997
0.244745
0.359087
0.466368
0.557271
0.628405
0.691273
0.747022
0.802231
0.871763
0.953653
1.03997
1.14132
1.24455
1.34354
1.36555
1.28745
1.21834
1.21453
1.26637
1.50111
2.40775
4.25399
6.02352
6.35983
6.19856
6.02996
6.31907
6.91026
7.67541
8.6029
9.62061
10.3998
10.7539
10.6807
10.1622
9.41152
8.64161
8.06139
7.54657
6.62485
5.02868
2.69974
0.0216625
-1.11978
-1.9309
-3.00986
-2.80873
-2.02561
-2.33166
-1.98761
-1.01314
-0.218916
0.214214
0.460799
0.787265
1.16001
1.51657
1.90845
2.30151
2.74078
3.04965
3.36532
3.67784
4.12956
4.52339
0.0248009
-0.258059
-0.23219
-0.246899
-0.245976
-0.243613
-0.236381
-0.223367
-0.201063
-0.166081
-0.115067
-0.0445406
0.0473663
0.15687
0.276313
0.398974
0.514256
0.611788
0.688485
0.760024
0.828586
0.897137
0.981505
1.0772
1.17297
1.27873
1.3811
1.48191
1.5132
1.43771
1.33978
1.27819
1.27577
1.51364
2.48006
4.35254
6.07307
6.51575
6.72437
7.05474
7.47487
8.09804
8.9736
9.9457
11.0698
12.0809
12.6676
12.8384
12.5295
11.8738
10.9763
9.97789
8.85398
7.37307
5.33999
2.46707
-0.170219
-1.52517
-3.09759
-4.78657
-4.88344
-4.53877
-5.04577
-4.22476
-2.43941
-0.826749
0.116653
0.510864
0.851239
1.24812
1.61181
2.03739
2.45222
2.89262
3.20814
3.56183
3.89745
4.34503
4.6786
0.022643
-0.260465
-0.233961
-0.253254
-0.254289
-0.254189
-0.248247
-0.235425
-0.211813
-0.173824
-0.118285
-0.0417947
0.0578861
0.17668
0.305753
0.437487
0.562134
0.668328
0.753806
0.835207
0.916929
0.997937
1.09365
1.20474
1.31659
1.4307
1.53713
1.64366
1.6881
1.61715
1.49666
1.39154
1.35739
1.62223
2.65064
4.52401
6.17494
6.69646
7.13818
7.8846
8.6574
9.39518
10.4766
11.6038
12.8497
14.0863
14.9339
15.2877
15.0438
14.227
12.9125
11.2744
9.46643
7.48289
5.09683
1.83177
-0.5604
-2.47562
-5.0717
-7.59411
-8.25768
-8.48631
-9.11124
-7.73215
-4.93805
-2.12978
-0.282737
0.556946
0.930947
1.34552
1.7036
2.15658
2.60221
3.04116
3.3714
3.75088
4.10256
4.55407
4.81831
0.0207413
-0.262501
-0.236722
-0.260713
-0.263853
-0.265976
-0.261412
-0.248976
-0.224354
-0.183667
-0.123878
-0.0415497
0.0658042
0.19391
0.332857
0.474555
0.611037
0.728361
0.823288
0.913983
1.00754
1.09851
1.20472
1.33154
1.46277
1.58939
1.70674
1.82094
1.88393
1.82246
1.6869
1.55509
1.52097
1.84025
2.94297
4.81314
6.40613
7.0159
7.60431
8.60449
9.82517
10.7653
12.0744
13.473
14.8924
16.2966
17.3194
17.7158
17.3487
16.1506
14.2385
11.8966
9.49306
7.17406
4.46198
1.06302
-1.2405
-4.10083
-8.00001
-11.5954
-13.0082
-13.8476
-14.5265
-12.5785
-8.69463
-4.41468
-1.19962
0.427743
1.02779
1.45906
1.79267
2.26309
2.74575
3.18489
3.54219
3.92953
4.28805
4.73982
4.95787
0.0197746
-0.264861
-0.240332
-0.26889
-0.274365
-0.278718
-0.275572
-0.263734
-0.238381
-0.195407
-0.132096
-0.0448583
0.0695324
0.207399
0.357809
0.511292
0.660345
0.789639
0.895718
0.995744
1.09929
1.19955
1.31427
1.45786
1.60764
1.74838
1.88388
2.00623
2.08664
2.04371
1.90696
1.76809
1.76332
2.1589
3.349
5.21849
6.78825
7.53565
8.23562
9.35184
10.9457
12.1851
13.7179
15.4177
17.0437
18.5425
19.5944
19.8728
19.2186
17.5237
14.9847
12.0353
9.23899
6.746
3.65371
0.331307
-2.3384
-6.49306
-11.9743
-16.7972
-19.0526
-20.4781
-21.1523
-18.6788
-13.7396
-7.87746
-2.909
-0.0231952
1.14923
1.57006
1.88237
2.35508
2.87843
3.32355
3.7171
4.09247
4.45592
4.90978
5.07484
0.020727
-0.267639
-0.244551
-0.277158
-0.284817
-0.291218
-0.289599
-0.278887
-0.253758
-0.209665
-0.143766
-0.0521347
0.0693321
0.217523
0.379947
0.54564
0.707745
0.851214
0.970291
1.08068
1.19329
1.30231
1.4262
1.58588
1.75207
1.90764
2.06285
2.19717
2.2884
2.26878
2.14673
2.0247
2.07259
2.56287
3.84118
5.71274
7.30403
8.23396
9.05891
10.2349
12.0359
13.6389
15.4057
17.3445
19.1535
20.6847
21.638
21.6812
20.6482
18.4441
15.3619
11.9903
9.01981
6.40096
2.88514
-0.379338
-3.95898
-9.7374
-17.0067
-23.0843
-26.1877
-28.1274
-28.7444
-25.8261
-19.9545
-12.5599
-5.62293
-0.961757
1.14186
1.65393
2.00218
2.4379
2.99655
3.45663
3.88593
4.2346
4.60547
5.04777
5.17318
0.0240435
-0.270569
-0.248706
-0.284758
-0.29445
-0.302915
-0.303195
-0.294111
-0.269697
-0.22492
-0.156894
-0.061647
0.0654628
0.222696
0.397115
0.575994
0.751512
0.910218
1.04514
1.16768
1.28979
1.40909
1.54411
1.71892
1.9008
2.07191
2.24401
2.39338
2.49362
2.49472
2.39734
2.31211
2.42675
3.02794
4.38679
6.2586
7.89333
9.03339
10.0381
11.2898
13.1827
15.1079
17.1097
19.218
21.1592
22.6812
23.4731
23.2397
21.8142
19.151
15.6473
12.0352
9.03515
6.20216
2.28288
-1.20306
-6.19196
-13.903
-23.0143
-30.2477
-34.1227
-36.4789
-36.9979
-33.7373
-27.1159
-18.3696
-9.45688
-2.65685
0.834455
1.80118
2.14854
2.51528
3.08943
3.58267
4.03609
4.35386
4.73518
5.14869
5.25578
0.0296519
-0.273576
-0.252855
-0.291865
-0.303271
-0.313191
-0.314769
-0.307019
-0.283547
-0.238859
-0.169914
-0.0724117
0.0588921
0.223975
0.409338
0.600737
0.789515
0.964269
1.1162
1.25288
1.38768
1.51962
1.66993
1.85897
2.05589
2.24183
2.43067
2.59603
2.7099
2.73102
2.66182
2.61842
2.8046
3.51658
4.94225
6.80806
8.49431
9.86633
11.0986
12.4856
14.4461
16.5989
18.8152
21.06
23.0909
24.5884
25.2225
24.7387
22.9548
19.9019
16.0739
12.3354
9.33493
6.12933
1.85483
-2.29445
-9.13461
-18.9989
-29.8263
-38.0131
-42.5278
-45.1966
-45.5914
-42.0979
-34.9386
-25.1058
-14.3811
-5.25907
0.148609
1.97175
2.26956
2.61572
3.15883
3.7015
4.15922
4.45499
4.84267
5.20853
5.29062
0.0366167
-0.276788
-0.256988
-0.29785
-0.31019
-0.320701
-0.322834
-0.316149
-0.294041
-0.250157
-0.180744
-0.081753
0.0523066
0.222768
0.417016
0.620024
0.820521
1.0104
1.18
1.33235
1.4834
1.63277
1.80157
2.00495
2.21721
2.41851
2.62537
2.80969
2.94207
2.98953
2.95675
2.95496
3.21336
4.0171
5.48605
7.33479
9.08723
10.6906
12.1699
13.7625
15.8193
18.1353
20.5459
22.9228
25.0247
26.5083
27.0276
26.3494
24.2587
20.8716
16.7638
12.9279
9.85292
6.13443
1.51719
-3.7969
-12.8711
-24.9437
-37.2106
-46.086
-51.0851
-53.9682
-54.2267
-50.6049
-43.1207
-32.506
-20.2563
-8.84465
-1.10528
1.96406
2.34811
2.77021
3.22129
3.81267
4.2572
4.54307
4.92368
5.21803
5.31001
0.0437875
-0.279152
-0.260282
-0.302164
-0.314994
-0.325538
-0.327457
-0.320985
-0.300046
-0.257111
-0.187464
-0.087143
0.0489887
0.222345
0.422643
0.633858
0.843777
1.04769
1.23348
1.40405
1.57358
1.74436
1.93246
2.15158
2.38182
2.60261
2.82955
3.03904
3.19549
3.2752
3.28971
3.34411
3.67766
4.55251
6.03755
7.86411
9.68634
11.4887
13.2268
15.0697
17.2815
19.7454
22.3409
24.8584
27.0346
28.5295
28.9838
28.1594
25.8124
22.113
17.7195
13.7503
10.4673
6.16707
1.14049
-5.84805
-17.4246
-31.5732
-44.9102
-54.1948
-59.5247
-62.5349
-62.658
-58.9977
-51.3813
-40.2893
-26.8743
-13.3986
-3.14715
1.61248
2.52411
2.97225
3.29522
3.90833
4.33885
4.62071
4.97772
5.21681
5.32734
0.0499736
-0.279998
-0.262934
-0.305349
-0.318233
-0.328039
-0.328832
-0.321457
-0.300705
-0.258247
-0.187852
-0.0857671
0.0512583
0.22463
0.428043
0.643945
0.861292
1.07729
1.27843
1.46695
1.6542
1.84778
2.05564
2.29338
2.54584
2.7925
3.04319
3.28576
3.47699
3.59315
3.66238
3.79551
4.21361
5.15047
6.63634
8.4364
10.315
12.2943
14.2843
16.395
18.82
21.4578
24.2362
26.9021
29.1664
30.6986
31.1249
30.1816
27.6038
23.5773
18.8616
14.6934
11.0569
6.18445
0.573756
-8.56604
-22.733
-38.6704
-52.6788
-62.1191
-67.6434
-70.7083
-70.7068
-67.0778
-59.4855
-48.1883
-33.984
-18.7921
-6.0304
0.921559
2.78173
3.16003
3.41635
3.99312
4.41651
4.69495
5.00833
5.20449
5.31607
0.0534835
-0.279703
-0.265392
-0.307827
-0.320221
-0.328467
-0.326981
-0.317057
-0.294775
-0.252169
-0.180723
-0.0773042
0.0593947
0.231644
0.435741
0.653986
0.877769
1.1024
1.31643
1.51982
1.72318
1.93859
2.1674
2.42557
2.70327
2.98303
3.26461
3.54676
3.78676
3.95125
4.08286
4.30557
4.82093
5.82239
7.30959
9.08544
11.017
13.1631
15.3755
17.7636
20.432
23.2774
26.2446
29.0671
31.4368
33.0248
33.4438
32.3863
29.5636
25.1652
20.0828
15.6512
11.5353
6.15102
-0.350236
-12.0157
-28.659
-46
-60.306
-69.7003
-75.3094
-78.3735
-78.2643
-74.7141
-67.259
-55.9762
-41.3331
-24.8346
-9.75486
-0.272042
2.90001
3.28603
3.59475
4.07749
4.50023
4.77254
5.02343
5.16873
5.3281
0.0536168
-0.27834
-0.26771
-0.309078
-0.320026
-0.326044
-0.321391
-0.307984
-0.283233
-0.239632
-0.166567
-0.0619045
0.0745617
0.246095
0.449333
0.668929
0.896824
1.12598
1.34995
1.56419
1.78218
2.01583
2.26641
2.54538
2.85025
3.16849
3.48917
3.81273
4.11409
4.35022
4.56107
4.88003
5.50159
6.57564
8.07201
9.83925
11.8434
14.1304
16.5457
19.204
22.1326
25.2047
28.3686
31.3564
33.8463
35.4996
35.9173
34.7268
31.6109
26.7783
21.2947
16.5501
11.8619
6.02361
-1.79937
-16.1875
-35.0205
-53.3372
-67.6304
-76.8407
-82.4548
-85.4791
-85.2825
-81.8378
-74.5895
-63.4794
-48.6942
-31.3115
-14.2605
-2.17135
2.66836
3.46449
3.82183
4.17063
4.59336
4.85125
5.03436
5.15719
5.34099
0.051329
-0.2749
-0.268739
-0.308054
-0.317244
-0.321155
-0.31322
-0.295944
-0.267844
-0.221361
-0.145536
-0.0388856
0.0987274
0.270208
0.471507
0.691533
0.920914
1.1522
1.38246
1.60445
1.8343
2.08247
2.35413
2.65463
2.98707
3.34475
3.71029
4.0763
4.44272
4.77189
5.08863
5.52115
6.25859
7.41211
8.93243
10.7237
12.8112
15.2211
17.8329
20.7366
23.9319
27.2457
30.6125
33.7718
36.3912
38.1136
38.5232
37.1599
33.6824
28.3504
22.4515
17.3542
12.0393
5.73184
-3.90585
-21.0027
-41.6199
-60.49
-74.5421
-83.493
-89.0606
-92.0216
-91.7592
-88.4298
-81.4199
-70.5804
-55.8802
-38.0012
-19.4051
-4.80548
2.1361
3.78194
4.05862
4.29069
4.68887
4.92478
5.04596
5.16584
5.36728
0.048067
-0.268672
-0.268352
-0.305466
-0.313176
-0.314928
-0.303759
-0.28217
-0.249163
-0.197288
-0.117313
-0.00755308
0.132444
0.304017
0.503741
0.724037
0.953071
1.1853
1.41812
1.64604
1.88436
2.14393
2.43455
2.75732
3.11679
3.51121
3.92447
4.33795
4.76364
5.19262
5.63849
6.20905
7.0755
8.3201
9.89006
11.7343
13.9083
16.4549
19.2469
22.3832
25.8318
29.3963
32.9773
36.3166
39.0716
40.864
41.2443
39.6569
35.7404
29.8562
23.5493
18.0549
12.101
5.17093
-6.73232
-26.3327
-48.2679
-67.3112
-80.9786
-89.6472
-95.1403
-98.0279
-97.7221
-94.5055
-87.7364
-77.2129
-62.7516
-44.701
-25.0047
-8.13817
1.27418
4.09856
4.25658
4.45715
4.77672
4.99079
5.05183
5.2013
5.41394
0.0432823
-0.260359
-0.267387
-0.30257
-0.30887
-0.307699
-0.29296
-0.266486
-0.22698
-0.16785
-0.0826832
0.0313336
0.174915
0.347159
0.546629
0.767182
0.995582
1.22862
1.46185
1.69484
1.93843
2.20732
2.51327
2.85831
3.24395
3.67168
4.13211
4.60023
5.08292
5.60411
6.18599
6.91329
7.92453
9.27728
10.9244
12.8454
15.1306
17.8272
20.7899
24.155
27.8462
31.661
35.4659
38.9932
41.8904
43.7503
44.0681
42.1999
37.7677
31.3029
24.6097
18.6573
12.0864
4.2174
-10.2626
-32.0229
-54.7995
-73.7031
-86.9163
-95.3168
-100.725
-103.54
-103.213
-100.1
-93.5546
-83.3523
-69.2169
-51.2424
-30.8685
-12.1091
-0.175694
4.10918
4.46392
4.66191
4.84487
5.04341
5.05251
5.24809
5.44613
0.035538
-0.250302
-0.265776
-0.299213
-0.303959
-0.299087
-0.280512
-0.24885
-0.201761
-0.134452
-0.0430219
0.0764894
0.224525
0.39875
0.599776
0.820732
1.04964
1.28378
1.5176
1.75567
2.00297
2.27993
2.59756
2.96342
3.37504
3.83348
4.33495
4.86349
5.41345
6.01882
6.72805
7.61317
8.78146
10.2639
12.0127
14.0377
16.471
19.3153
22.4645
26.0467
29.9799
34.0456
38.0805
41.8027
44.8472
46.7685
46.9834
44.7718
39.7585
32.7153
25.6593
19.175
12.012
2.76184
-14.4157
-37.9128
-61.0839
-79.6146
-92.3608
-100.529
-105.851
-108.604
-108.279
-105.256
-98.907
-89.0042
-75.227
-57.497
-36.8124
-16.5943
-2.26219
3.70149
4.80129
4.89148
4.89113
5.07504
5.05491
5.27376
5.48278
0.0251166
-0.237878
-0.262638
-0.29471
-0.298038
-0.289324
-0.266772
-0.229481
-0.174119
-0.0984724
9.7763e-05
0.126184
0.279214
0.457266
0.661563
0.883833
1.11538
1.35127
1.58775
1.83105
2.08331
2.36802
2.69583
3.08059
3.51723
4.00482
4.53939
5.12775
5.7581
6.45241
7.27933
8.31438
9.64237
11.2673
13.1387
15.3073
17.9025
20.91
24.261
28.0587
32.2282
36.5474
40.8203
44.7438
47.9356
49.9059
49.9727
47.3509
41.7115
34.1222
26.7148
19.6307
11.8523
0.740933
-19.0671
-43.8517
-67.0287
-85.0331
-97.3372
-105.315
-110.557
-113.261
-112.961
-110.017
-103.834
-94.1934
-80.7663
-63.3755
-42.6682
-21.424
-4.89279
3.12366
5.2996
5.09891
4.93755
5.09077
5.05946
5.2945
5.50868
0.0137264
-0.223114
-0.257614
-0.288738
-0.290966
-0.278766
-0.252063
-0.208611
-0.144926
-0.0611012
0.0453678
0.178548
0.337051
0.520717
0.729446
0.955028
1.19154
1.43075
1.67286
1.92194
2.18237
2.47611
2.81549
3.2181
3.67821
4.1951
4.7595
5.3981
6.11278
6.90799
7.85127
9.03102
10.5142
12.284
14.3024
16.6417
19.4041
22.6068
26.1623
30.1912
34.5946
39.1657
43.679
47.8088
51.1436
53.1403
53.0083
49.9112
43.6268
35.5465
27.777
20.0537
11.5413
-1.84778
-24.0697
-49.7067
-72.5799
-89.9741
-101.881
-109.709
-114.876
-117.55
-117.296
-114.421
-108.374
-98.9549
-85.8436
-68.8255
-48.2953
-26.4121
-7.94605
2.43851
5.82617
5.2767
5.02098
5.09696
5.05306
5.29323
5.49175
0.00296686
-0.206743
-0.250824
-0.281098
-0.282703
-0.267515
-0.236356
-0.186307
-0.114903
-0.0230773
0.0916034
0.231722
0.396572
0.587409
0.801523
1.03263
1.2757
1.52119
1.77199
2.02825
2.30052
2.60569
2.96036
3.38185
3.86578
4.41397
5.01171
5.69056
6.48081
7.38198
8.44836
9.77
11.4025
13.3223
15.5057
18.0225
20.9799
24.3889
28.1608
32.4261
37.0688
41.8902
46.6477
50.9866
54.4552
56.4449
56.0575
52.4268
45.506
37.0002
28.8347
20.4687
10.9915
-4.95062
-29.2694
-55.3669
-77.7147
-94.4704
-106.033
-113.743
-118.841
-121.502
-121.312
-118.499
-112.567
-103.327
-90.4838
-73.8253
-53.5886
-31.3855
-11.3272
1.4043
6.06822
5.49732
5.14822
5.089
5.02102
5.24583
5.47485
-0.00612309
-0.189525
-0.242257
-0.271534
-0.273045
-0.255208
-0.219336
-0.162734
-0.0845096
0.0150302
0.137717
0.284547
0.456666
0.655597
0.876496
1.11523
1.36612
1.6213
1.88341
2.14946
2.43651
2.75611
3.13084
3.57479
4.08547
4.66634
5.30596
6.02714
6.87987
7.88016
9.07302
10.5364
12.315
14.3917
16.7478
19.4512
22.6295
26.2447
30.2572
34.7566
39.6402
44.7128
49.7159
54.2652
57.8542
59.7947
59.0887
54.8766
47.353
38.4834
29.8735
20.8823
10.1216
-8.47452
-34.5178
-60.7448
-82.4322
-98.5628
-109.831
-117.447
-122.482
-125.146
-125.033
-122.279
-116.442
-107.347
-94.72
-78.3773
-58.4786
-36.1951
-14.9135
-0.0229595
5.86166
5.86278
5.31078
5.06242
4.96059
5.18965
5.40968
-0.0127772
-0.171556
-0.231695
-0.259809
-0.261694
-0.241364
-0.200712
-0.138031
-0.0537048
0.0529739
0.183061
0.336718
0.516667
0.723975
0.953356
1.20167
1.46176
1.72991
2.00559
2.28517
2.58926
2.92693
3.32588
3.79679
4.33794
4.95214
5.64314
6.4206
7.33347
8.423
9.73399
11.3359
13.2644
15.5025
18.0315
20.9437
24.3385
28.1744
32.4343
37.1844
42.3118
47.6314
52.8771
57.6356
61.3274
63.1661
62.0756
57.2481
49.1741
39.9867
30.8861
21.274
8.87989
-12.3056
-39.6829
-65.7764
-86.7434
-102.293
-113.311
-120.848
-125.827
-128.508
-128.479
-125.784
-120.03
-111.05
-98.5882
-82.5006
-62.9275
-40.7195
-18.5656
-1.74874
5.4617
6.39397
5.46309
5.03778
4.88469
5.13717
5.3137
-0.0168822
-0.152459
-0.219175
-0.246001
-0.248474
-0.225696
-0.180319
-0.112154
-0.0221897
0.0908927
0.227754
0.388601
0.576786
0.792326
1.03148
1.29077
1.56195
1.84592
2.13747
2.4353
2.75891
3.11867
3.54447
4.04552
4.62117
5.27135
6.01812
6.86676
7.85187
9.0275
10.4491
12.1847
14.264
16.66
19.3713
22.5023
26.1082
30.182
34.6829
39.6927
45.0748
50.6462
56.1332
61.0915
64.8609
66.5366
64.9967
59.5374
50.9762
41.4944
31.8749
21.5979
7.25582
-16.3237
-44.6551
-70.4205
-90.6658
-105.696
-116.505
-123.974
-128.907
-131.613
-131.673
-129.036
-123.353
-114.463
-102.123
-86.224
-66.9257
-44.8728
-22.1528
-3.65148
5.22668
6.97701
5.54545
5.05095
4.81277
5.10593
5.22649
-0.0189958
-0.131828
-0.204712
-0.230272
-0.233156
-0.207891
-0.158109
-0.0849434
0.0103876
0.129312
0.272425
0.440947
0.637823
0.861576
1.11122
1.38213
1.6665
1.96822
2.27801
2.59901
2.94515
3.33115
3.78567
4.31951
4.93488
5.62746
6.42838
7.35508
8.42695
9.69491
11.2286
13.0968
15.3202
17.8736
20.7794
24.1172
27.95
32.2601
37.0146
42.281
47.927
53.7595
59.486
64.6259
68.4338
69.885
67.8347
61.7476
52.7649
42.9885
32.8479
21.7917
5.27818
-20.4111
-49.3501
-74.6566
-94.2195
-108.804
-119.44
-126.853
-131.753
-134.489
-134.634
-132.056
-126.435
-117.614
-105.356
-89.5804
-70.4845
-48.603
-25.5637
-5.70444
4.86293
7.33991
5.66518
5.1296
4.75534
5.08476
5.17542
-0.0197229
-0.109488
-0.188386
-0.212717
-0.2155
-0.187611
-0.13395
-0.0561271
0.044399
0.168815
0.318002
0.494716
0.700613
0.933243
1.19396
1.47654
1.77592
2.09611
2.42628
2.77387
3.14602
3.56268
4.04906
4.61956
5.27888
6.0231
6.87882
7.88054
9.04656
10.4192
12.0713
14.0718
16.4366
19.1549
22.2529
25.7968
29.8667
34.4066
39.4264
44.9602
50.8749
56.9741
62.9365
68.2313
72.0255
73.1879
70.5753
63.8859
54.5427
44.4537
33.811
21.7936
3.00461
-24.4601
-53.7081
-78.4809
-97.4255
-111.639
-122.138
-129.512
-134.397
-137.161
-137.382
-134.865
-129.294
-120.525
-108.314
-92.6027
-73.6292
-51.8896
-28.715
-7.87097
4.14414
7.15693
5.94053
5.25508
4.71233
5.05264
5.1748
-0.0195351
-0.0854937
-0.170441
-0.19339
-0.195454
-0.164682
-0.107646
-0.0254545
0.0802509
0.210068
0.365639
0.551026
0.766065
1.00864
1.28088
1.57537
1.89128
2.22989
2.58199
2.95763
3.35954
3.81107
4.33391
4.94493
5.65042
6.45629
7.3761
8.44821
9.70777
11.1944
12.9729
15.1061
17.617
20.5057
23.7886
27.5543
31.8514
36.6347
41.9127
47.7242
53.92
60.2918
66.4822
71.8986
75.6181
76.4199
73.207
65.9606
56.3097
45.8837
34.761
21.5581
0.509797
-28.377
-57.6905
-81.9022
-100.305
-114.22
-124.616
-131.977
-136.867
-139.651
-139.933
-137.474
-131.947
-123.213
-111.021
-95.3213
-76.3921
-54.735
-31.5355
-10.0438
3.17518
6.48988
6.44026
5.39092
4.67396
5.0258
5.18318
-0.0189361
-0.0600394
-0.151058
-0.172276
-0.172997
-0.139023
-0.0788785
0.00741171
0.118417
0.253792
0.416394
0.610855
0.835153
1.08864
1.37267
1.67995
2.01373
2.37096
2.74683
3.15089
3.58568
4.07448
4.63698
5.29128
6.04577
6.92014
7.91778
9.06751
10.4194
12.0186
13.9254
16.1981
18.8652
21.9207
25.3958
29.3872
33.9084
38.9471
44.489
50.5784
57.0634
63.7095
70.1147
75.6118
79.1871
79.5528
75.7209
67.9787
58.0633
47.2841
35.6828
21.0657
-2.1239
-32.0856
-61.2761
-84.9368
-102.878
-116.557
-126.887
-134.269
-139.185
-141.973
-142.293
-139.892
-134.404
-125.694
-113.497
-97.763
-78.8072
-57.1582
-33.9708
-12.0861
2.2309
5.93748
7.08006
5.45769
4.6428
4.99432
5.18546
-0.0185194
-0.0335176
-0.130425
-0.149345
-0.148
-0.110525
-0.047162
0.043165
0.15945
0.300708
0.471177
0.674924
0.908798
1.17402
1.46997
1.79133
2.144
2.52133
2.92349
3.35606
3.82556
4.35159
4.95469
5.65515
6.46364
7.40681
8.49298
9.73713
11.1856
12.8959
14.9317
17.3517
20.1758
23.3995
27.082
31.2871
36.0483