/*--------------------------------*- C++ -*----------------------------------*\
| =========                 |                                                 |
| \\      /  F ield         | OpenFOAM: The Open Source CFD Toolbox           |
|  \\    /   O peration     | Version:  4.1                                   |
|   \\  /    A nd           | Web:      www.OpenFOAM.org                      |
|    \\/     M anipulation  |                                                 |
\*---------------------------------------------------------------------------*/
FoamFile
{
    version     2.0;
    format      ascii;
    class       surfaceScalarField;
    location    "25";
    object      phi;
}
// * * * * * * * * * * * * * * * * * * * * * * * * * * * * * * * * * * * * * //

dimensions      [0 3 -1 0 0 0 0];

internalField   nonuniform List<scalar> 
13220
(
-906.844
2206.74
-1504.66
1898.02
-1985.12
1780.36
-2354.93
1669.71
-2630.26
1575.53
-2818.69
1488.33
-2923.5
1404.7
-2944.47
1321.17
-2880.28
1235.72
-2727.84
1147.45
-2482.46
1054.82
-2127.45
944.893
-1626.89
799.338
-956.025
629.334
343.875
423.565
1783.18
466.654
1854.92
450.464
1796.54
411.02
1709.15
378.575
1607.97
352.456
1514.45
333.194
1423.96
321.489
1332.87
314.057
1243.14
304.741
1156.76
285.401
1074.16
242.29
987.999
165.798
875.825
88.5052
706.621
432.38
181.144
1602.03
20.9992
2015.06
-139.992
1957.53
-258.583
1827.74
-362.83
1712.21
-459.862
1611.47
-546.94
1511.03
-624.462
1410.39
-690.608
1309.29
-742.933
1209.08
-777.141
1108.36
-774.523
985.374
-684.674
785.967
-432.738
454.673
-0.35797
215.9
1386.12
135.965
2094.99
1.94295
2091.55
-93.4496
1923.13
-169.56
1788.32
-229.586
1671.5
-269.46
1550.9
-289.391
1430.32
-291.371
1311.26
-275.884
1193.59
-241.708
1074.18
-184.078
927.737
-101.145
703.024
-9.78349
363.298
-10.1416
282.518
1103.6
349.049
2028.46
326.123
2114.47
305.635
1943.61
296.205
1797.75
292.665
1675.03
292.726
1550.84
296.697
1426.34
303.367
1304.59
310.801
1186.15
318.386
1066.59
320.37
925.744
297.072
726.31
215.902
444.455
205.76
248.889
854.709
359.279
1918.06
370.242
2103.5
350.948
1962.9
335.831
1812.86
324.857
1686
313.474
1562.22
299.402
1440.41
283.537
1320.45
265.876
1203.81
245.019
1087.45
219.089
951.676
177.796
767.605
109.131
513.122
314.891
131.261
723.443
214.471
1834.85
239.219
2078.75
216.852
1985.26
193.46
1836.25
173.736
1705.72
155.138
1580.81
137.023
1458.52
119.108
1338.36
102.775
1220.14
88.088
1102.13
75.3491
964.402
61.3316
781.609
44.5769
529.863
359.468
36.2896
687.15
86.3882
1784.75
126.41
2038.73
116.254
1995.42
100.929
1851.57
89.0878
1717.56
77.3038
1592.59
66.4629
1469.36
56.9041
1347.92
47.7312
1229.31
39.8757
1109.99
36.1426
968.147
32.8152
784.948
28.5476
534.141
388.015
13.0591
674.088
51.9808
1745.83
96.4359
1994.27
96.5086
1995.34
87.0355
1861.04
79.1044
1725.49
71.8358
1599.86
63.99
1477.2
56.6653
1355.24
49.7121
1236.26
42.4674
1117.23
39.7665
970.828
37.9687
786.726
29.162
542.93
417.178
30.616
643.473
74.5887
1701.85
113.684
1955.18
114.895
1994.13
105.063
1870.87
94.2946
1736.26
84.5693
1609.59
75.5265
1486.25
65.9954
1364.77
57.0449
1245.22
48.7258
1125.55
44.7519
974.822
41.8333
789.664
29.7223
555.059
446.9
46.6218
596.857
94.2392
1654.24
127.409
1922.01
128.052
1993.49
116.835
1882.1
104.629
1748.47
92.3047
1621.92
80.8631
1497.7
69.9439
1375.7
58.9284
1256.24
49.2574
1135.23
45.5151
978.559
42.0507
793.128
27.6374
569.473
474.537
33.6747
563.192
67.6584
1620.26
88.8869
1900.79
83.9582
1998.43
68.4477
1897.62
53.2294
1763.7
41.0729
1634.08
29.9289
1508.85
20.6357
1385
13.5408
1263.34
7.79843
1140.98
10.6513
975.734
16.6752
787.131
15.6473
570.525
490.185
3.11426
560.088
35.6539
1587.73
58.6108
1877.84
66.8496
1990.2
64.2415
1900.23
52.8358
1775.11
38.7847
1648.14
25.4197
1522.22
11.9257
1398.5
0.915358
1274.36
-2.54459
1144.45
4.23003
968.965
12.9019
778.466
0.132102
583.301
490.317
-166.432
726.526
-275.067
1696.37
-347.817
1950.6
-410.598
2052.98
-447.119
1936.76
-463.044
1791.03
-462.911
1648.01
-454.232
1513.54
-435.62
1379.89
-408.474
1247.22
-346.759
1082.73
-261.594
883.804
-165.39
682.265
-89.9442
507.858
400.373
-175.418
37.7771
128.456
157.053
54.4421
-84.9329
-227.162
-344.644
-430.174
-448.78
-443.607
-387.711
-310.973
-200.767
-0.000692279
321.652
-321.654
321.651
321.65
321.649
606.468
-284.82
606.467
606.466
606.465
878.854
-272.39
878.853
878.853
1138.66
-259.813
1138.66
1138.66
1138.66
1375.3
-236.634
1375.3
1375.29
1585.62
-210.324
1585.62
1585.62
1585.62
1757.2
-171.58
1757.19
1757.19
1757.19
1886.84
-129.647
1886.84
1886.84
1970.06
-83.2249
1970.06
1970.06
1970.06
2000.7
-30.6393
2000.7
2000.7
1980.52
20.1738
1980.52
1980.52
1980.52
1905.79
74.7264
1905.79
1905.79
1905.79
1782.21
123.583
1782.21
1782.21
1609.64
172.564
1609.64
1609.64
1609.64
1394.08
215.563
1394.08
1394.07
1394.07
1142
252.069
1142
1142
855.412
286.589
855.411
855.409
855.409
548.197
307.21
548.196
548.194
230.15
318.043
230.147
230.146
230.143
-154.519
384.662
-154.522
-154.523
-154.526
-760.956
606.43
-760.959
-760.956
-1600.26
839.302
-1600.26
-1600.26
-1572.72
-1533.72
-1500.85
-2770.54
1303.71
-2716.38
-2654.94
-2583.69
-2510.84
-2437.31
-2359.98
-2267.16
-2162.51
-3921.19
1864.48
-3796.84
-3676.64
-3555.55
-3407.89
-3258.49
-3105.44
-2944.34
-2782.03
-5082.69
2481.63
-4879.34
-4676.43
-4472.42
-4267.15
-4052.99
-3823.75
-3590.92
-3349.66
-3105.78
-5887.03
3024.97
-5615.98
-5343.04
-5067.7
-4791.77
-4515.92
-4226.28
-3921.97
-3612.51
-6709.52
3401.14
-6399.06
-6080.65
-5748.63
-5413.11
-5076.84
-4741.05
-4398.97
-4033.55
-7187.69
3512.25
-6827.35
-6465.37
-6103.39
-5725.59
-5340.52
-4956.76
-4572.99
-4187.87
-6703.85
2894.92
-6325.62
-5944.32
-5564.48
-5187.14
-4812.8
-4443.87
-4080.89
-3729.7
-3384.09
-4017.84
964.038
-3718.93
-3426.23
-3143.87
-2867.92
-2597.39
-2363.33
-2200.81
-2032.24
-1281.74
-569.544
-1125.83
-972.738
-972.739
-522.141
-450.597
-298.534
-223.609
-298.535
-202.849
-95.6876
-202.85
-187.524
-15.3284
-203.494
15.9682
-203.494
-218.935
15.4382
-237.139
18.2037
-237.14
-240.186
3.04691
-240.188
-232.076
-8.1118
-230.701
-1.37554
-230.701
-230.99
0.288197
-230.99
-238.375
7.38478
-237.332
-1.04164
-237.333
-220.18
-17.1516
-219.104
-1.07731
-219.102
-227.275
8.17179
-227.273
-209.74
-17.5335
-200.187
-9.5506
-200.187
-198.937
-1.24743
-198.937
-195.919
-3.01565
-194.255
-1.66318
-194.253
-149.65
-44.6017
-87.3863
-62.261
-87.3851
-70.2317
-17.1513
-70.2308
-9.00827
-61.2204
66.928
-75.9357
66.9293
115.236
-48.3065
115.238
173.753
-58.5147
224.611
-50.8565
224.612
293.991
-69.3783
383.007
-89.0156
383.008
444.29
-61.2816
444.29
517.057
-72.7665
600.063
-83.0051
600.063
674.039
-73.9749
674.039
759.719
-85.6795
843.249
-83.5296
843.249
933.962
-90.7132
1023.87
-89.903
1023.87
1115.34
-91.4774
1115.34
1218.46
-103.116
1319.82
-101.359
1319.82
1427.13
-107.316
1427.14
1546.14
-119.006
1661.68
-115.542
1661.68
1786.77
-125.086
1907.48
-120.714
1907.48
2040.92
-133.432
2040.92
-151.488
-2432.28
575.389
-2433.84
646.701
-2434.79
662.895
-2435.72
677.541
-2436.55
688.69
-2437.16
696.551
-2437.29
702.424
-2436.54
706.488
-2434.34
709.164
-2429.88
710.676
-2422.04
711.177
-2409.28
710.568
-2389.47
708.302
-2359.83
703.612
-2316.7
695.066
-2255.4
680.709
-2170.11
657.745
-2053.92
622.447
-1899.43
570.426
-1700.54
497.363
-1457.31
402.354
-1186.91
295.123
-943.482
209.765
-823.763
208.283
-855.779
323.023
-929.306
432.494
-940.46
539.688
-904.914
630.103
-876.924
685.075
-879.703
736.128
-903.855
853.931
-932.859
998.22
-965.016
1151.14
-1002.7
1303.73
-1036.6
1476.81
-1049.67
1616.68
-1038.42
1712.43
-1033.66
1834.86
-1073
2123.65
-1149.32
2489.55
-1248.4
2930.13
-1366.71
3339.09
-1498.38
4029.73
-1646.8
4836.07
-1808.4
5684.12
-1985.03
6565.07
-2172.49
7502.03
-2356.64
8461.83
-2523.46
9368.47
-2671.04
10202.4
-2804.44
11020.8
-2906.8
11829.1
-2920.76
12380
-2761.42
12175.2
-2345.53
10731.5
-1670.31
8003.83
-949.89
4757.42
-438.052
1999.24
-140.325
554.019
-97.1797
137.728
-65.9016
498.575
-75.4173
376.452
-97.3338
266.985
-83.9362
174.313
-70.4801
146.618
-71.75
127.74
-68.7487
77.1662
-41.9666
251.633
0.592827
500.744
48.4498
857.907
99.3309
945.582
153.632
981.856
199.839
1174.09
238.181
1453.41
265.85
1528.73
275.037
1273.62
276.212
762.719
256.281
-71.1741
-1285.99
-2433
583.856
-2436.4
650.098
-2437
663.491
-2436.78
677.324
-2435.57
687.485
-2432.9
693.882
-2428.19
697.712
-2420.6
698.892
-2408.98
697.55
-2391.87
693.564
-2367.32
686.629
-2332.84
676.09
-2285.31
660.77
-2220.93
639.228
-2135.19
609.332
-2023.16
568.68
-1880.07
514.651
-1702.82
445.201
-1493.23
360.836
-1263.84
267.967
-1046.35
184.866
-892.972
141.748
-845.414
162.207
-879.941
242.81
-922.835
365.917
-943.326
452.984
-928.931
525.294
-898.756
599.929
-885.014
671.333
-900.804
751.919
-927.907
881.035
-955.722
1026.04
-984.505
1179.93
-1016.86
1336.09
-1038.09
1498.03
-1039.21
1617.8
-1031.69
1704.91
-1048.03
1851.21
-1097.22
2172.84
-1176.19
2568.52
-1267.56
3021.51
-1397.58
3469.11
-1538.81
4170.96
-1688.8
4986.06
-1849.25
5844.57
-2024.73
6740.55
-2209.19
7686.49
-2386.95
8639.59
-2547.79
9529.3
-2694.73
10349.4
-2830.31
11156.4
-2925.1
11923.9
-2908.62
12363.6
-2694.3
11960.9
-2221.26
10258.4
-1531.28
7313.85
-831.911
4058.06
-297.623
1464.95
-106.562
362.96
-138.316
169.483
-108.073
468.333
-103.013
371.393
-103.533
267.505
-96.7257
167.508
-90.435
140.329
-86.1464
123.453
-86.0835
77.1047
-59.0928
224.643
-18.8824
460.534
33.6053
805.42
91.245
887.943
147.467
925.635
196.43
1125.13
241.959
1407.88
274.778
1495.92
286.735
1261.67
281.303
768.151
247.608
-37.4786
-1171.82
-2430.89
589.493
-2432.37
651.578
-2429.94
661.066
-2425.22
672.601
-2417.67
679.931
-2406.32
682.539
-2389.96
681.347
-2366.98
675.916
-2335.41
665.98
-2292.85
650.999
-2236.41
630.189
-2162.74
602.427
-2068.21
566.235
-1949.15
520.168
-1802.56
462.741
-1627.52
393.641
-1427.73
314.859
-1215.54
233.012
-1016.79
162.085
-870.499
121.68
-810.195
124.562
-828.38
159.933
-878.803
212.63
-921.796
285.803
-936.243
380.365
-927.661
444.403
-906.601
504.233
-892.776
586.105
-899.195
677.752
-924.733
777.457
-953.008
909.311
-980.536
1053.56
-1008.83
1208.22
-1035.09
1362.35
-1044.69
1507.63
-1036.56
1609.67
-1032.71
1701.06
-1063.4
1881.89
-1126.43
2235.87
-1211
2653.09
-1304.23
3114.74
-1436.72
3601.6
-1581.42
4315.67
-1733.43
5138.07
-1895.5
6006.64
-2071.3
6916.36
-2252.82
7868.01
-2424.52
8811.28
-2579.61
9684.39
-2724.05
10493.8
-2856.74
11289.1
-2938.35
12005.5
-2888.43
12313.6
-2616.42
11688.9
-2076.07
9718.05
-1350.55
6588.34
-665.007
3372.51
-196.806
996.751
-103.087
269.244
-166.643
233.04
-146.044
447.733
-124.626
349.976
-105.314
248.193
-100.289
162.484
-98.19
138.23
-94.0086
119.272
-91.3575
74.4543
-64.7614
198.048
-26.771
422.545
25.0384
753.611
81.787
831.195
137.966
869.456
189.155
1073.94
237.869
1359.17
273.783
1460
289.243
1246.21
282.439
774.955
240.298
4.66186
-1052.23
-2416.02
590.707
-2411.89
647.448
-2401.61
650.79
-2386.64
657.628
-2365.52
658.806
-2336.74
653.763
-2298.23
642.835
-2247.57
625.254
-2181.99
600.399
-2098.49
567.506
-1994.03
525.727
-1865.92
474.312
-1712.69
413.004
-1535.32
342.797
-1339.39
266.821
-1138.24
192.487
-955.629
132.249
-823.608
100.992
-766.809
105.285
-777.919
132.791
-820.722
167.364
-866.06
205.272
-903.127
249.698
-923.23
305.906
-919.562
376.697
-906.611
431.453
-898.082
495.704
-903.147
591.171
-922.83
697.435
-951.637
806.265
-979.526
937.2
-1006.8
1080.84
-1032.48
1233.9
-1049.77
1379.64
-1047.45
1505.31
-1034.76
1596.99
-1040.55
1706.86
-1086.66
1928
-1159.6
2308.81
-1248.71
2742.2
-1345.52
3211.54
-1479.63
3735.71
-1626.44
4462.48
-1779.91
5291.54
-1943.56
6170.29
-2119.18
7091.97
-2296.92
8045.75
-2462.36
8976.73
-2612.5
9834.53
-2754.8
10636.1
-2882.64
11416.9
-2946.18
12069
-2855.98
12223.4
-2520.46
11353.4
-1913.49
9111.09
-1160.14
5834.99
-507.553
2719.92
-198.072
687.271
-166.503
237.678
-200.473
267.011
-173.458
420.719
-133.164
309.684
-105.027
220.058
-105.167
162.626
-104.431
137.496
-99.6867
114.529
-96.5788
71.348
-70.6704
172.141
-34.4289
386.304
16.6634
702.52
72.3197
775.54
128.387
813.389
181.021
1021.31
231.816
1308.38
270.211
1421.61
287.691
1228.73
280.688
781.959
229.961
55.3904
-947.358
-2364.43
585.541
-2349.46
632.476
-2324.33
625.662
-2290.7
623.998
-2245.79
613.895
-2187.72
595.694
-2113.74
568.852
-2021.14
532.652
-1907.41
486.677
-1770.88
430.974
-1611.46
366.303
-1432.04
294.891
-1240.44
221.404
-1051.57
153.935
-888.583
103.831
-778.472
82.376
-736.856
90.6328
-750.735
114.872
-788.163
142.713
-827.855
172.484
-863.722
203.231
-891.271
232.821
-907.176
265.603
-911.446
310.177
-905.256
370.507
-901.652
427.849
-909.279
503.331
-927.778
609.67
-952.918
722.575
-980.954
834.301
-1007.64
963.891
-1033.21
1106.4
-1052.81
1253.51
-1058.67
1385.49
-1046.74
1493.39
-1036.07
1586.32
-1056.35
1727.13
-1116.66
1988.31
-1195.76
2387.91
-1287.53
2833.97
-1389.08
3313.1
-1524.51
3871.13
-1672.8
4610.77
-1827.6
5446.33
-1992.49
6335.18
-2167.05
7266.53
-2340.08
8218.79
-2499.32
9135.97
-2645.39
9980.6
-2785.64
10776.4
-2906.23
11537.5
-2946.68
12109.4
-2809.78
12086.5
-2406.77
10950.4
-1737.1
8441.42
-967.458
5065.34
-372.312
2124.78
-194.654
509.613
-212.666
255.692
-241.091
295.437
-188.495
368.122
-134.255
255.444
-108.611
194.415
-115.203
169.218
-113.185
135.479
-105.431
106.775
-102.632
68.5502
-78.1829
147.692
-42.37
350.492
8.29671
651.853
62.7632
721.074
118.816
757.337
172.391
967.731
224.525
1256.24
264.981
1381.15
283.614
1210.09
279.26
786.314
222.547
112.103
-840.353
-2243.99
569.624
-2210.65
599.135
-2162.16
577.175
-2100.16
561.999
-2020.97
534.703
-1922.98
497.709
-1804.11
449.979
-1663.65
392.188
-1502.9
325.925
-1326.62
254.7
-1144.81
184.491
-974.061
124.144
-836.905
84.2481
-754.977
72.007
-734.07
82.924
-754.936
103.242
-789.324
125.021
-823.006
148.555
-853.44
173.147
-877.719
196.763
-893.894
219.407
-903.537
242.464
-908.568
270.635
-910.257
311.866
-910.633
370.883
-919.016
436.232
-937.995
522.311
-962.197
633.871
-987.418
747.797
-1012.94
859.822
-1036.93
987.883
-1057.36
1126.82
-1067.25
1263.4
-1061.49
1379.73
-1045.11
1477.01
-1043.22
1584.43
-1080.03
1763.94
-1151.75
2060.04
-1234.16
2470.32
-1327.53
2927.34
-1434.03
3419.6
-1570.75
4007.85
-1719.98
4760
-1876.03
5602.38
-2041.55
6500.71
-2214.12
7439.1
-2381.74
8386.4
-2535.14
9289.37
-2677.94
10123.4
-2815.76
10914.2
-2926.23
11648
-2938.37
12121.6
-2748.87
11897
-2276
10477.5
-1549.59
7715
-778.189
4293.95
-265.391
1611.98
-170.535
414.759
-223.949
309.108
-254.96
326.449
-182.208
295.372
-122.781
196.019
-104.265
175.901
-123.906
188.861
-128.512
140.086
-115.261
93.5251
-109.501
62.791
-87.244
125.437
-50.6093
313.858
-0.272635
601.518
53.2634
667.539
109.134
701.468
163.381
913.485
216.369
1203.25
258.191
1339.33
277.733
1190.55
274.758
789.289
217.098
169.764
-742.26
-2037.76
537.616
-1978.57
539.942
-1900.73
499.342
-1805.23
466.496
-1689.27
418.745
-1553.85
362.284
-1401.06
297.186
-1237.12
228.249
-1073.42
162.226
-927.116
108.398
-818.809
76.1831
-764.042
69.3774
-760.644
80.85
-786.805
98.1688
-819.092
115.211
-847.948
132.099
-872.177
149.25
-890.572
166.95
-902.826
185.402
-910.411
204.348
-915.032
224.029
-918.465
245.898
-922.542
274.711
-928.547
317.871
-937.524
379.861
-954.426
453.134
-977.959
545.845
-1001.85
657.764
-1023.97
769.914
-1045.4
881.251
-1064
1006.49
-1075.57
1138.39
-1074.09
1261.92
-1059.94
1365.58
-1046.17
1463.25
-1058.41
1596.67
-1110.89
1816.42
-1190.34
2139.49
-1274.26
2554.23
-1368.96
3022.05
-1480.12
3530.76
-1618.13
4145.86
-1767.82
4909.69
-1924.85
5759.42
-2090.26
6666.12
-2259.84
7608.68
-2421.65
8548.21
-2569.8
9437.53
-2710.01
10263.6
-2844.51
11048.7
-2941.53
11745
-2919.99
12100
-2672.53
11649.6
-2129.04
9934.02
-1354
6939.96
-597.101
3537.05
-186.138
1201.02
-156.577
385.199
-207.589
360.12
-210.02
328.879
-157.479
242.831
-116.566
155.105
-79.799
139.135
-96.8533
205.916
-135.169
178.401
-133.649
92.005
-118.581
47.7232
-96.4494
103.305
-59.3149
276.724
-9.28794
551.491
43.725
614.526
99.1712
646.022
153.968
858.689
207.495
1149.73
249.937
1296.89
270.367
1170.12
266.525
793.131
211.579
224.71
-637.997
-1763.03
487.019
-1676.36
453.267
-1572.47
395.458
-1452.31
346.337
-1317.1
283.534
-1174.41
219.594
-1035.07
157.848
-914.953
108.128
-831.398
78.6712
-795.09
72.0905
-800.723
81.8164
-828.582
97.2369
-859.591
111.858
-885.636
124.215
-905.396
134.971
-918.83
145.533
-926.971
157.391
-931.669
171.648
-934.452
188.185
-936.535
206.431
-939.255
226.749
-943.94
250.583
-951.722
282.494
-963.177
329.327
-978.194
394.878
-998.433
473.372
-1021.08
568.488
-1041.1
677.785
-1058.12
786.94
-1073.43
896.562
-1083.93
1016.99
-1085
1139.47
-1074.1
1251.02
-1057.79
1349.27
-1053.71
1459.17
-1082.6
1625.55
-1147.65
1881.48
-1231.1
2222.94
-1315.84
2638.97
-1411.88
3118.09
-1527.3
3646.17
-1666.39
4284.95
-1816.28
5059.59
-1973.84
5916.97
-2138.33
6830.61
-2303.94
7774.29
-2459.85
8704.12
-2603.41
9581.08
-2741.46
10401.7
-2871.29
11178.5
-2951.1
11824.8
-2890.4
12039.4
-2580.31
11339.5
-1967.05
9320.76
-1152.4
6125.32
-422.564
2807.21
-101.4
879.855
-94.5829
378.384
-136.127
401.665
-184.211
376.965
-248.573
307.194
-249.773
156.308
-145.157
34.5202
-57.4116
118.172
-93.1937
214.185
-146.743
145.555
-134.915
35.8967
-104.595
72.9863
-68.3505
240.481
-18.5934
501.735
34.0408
561.893
88.9304
591.133
144.11
803.51
197.925
1095.91
240.465
1254.35
261.768
1148.82
256.453
798.446
206.694
274.47
-532.66
-1466.23
421.836
-1362.43
349.473
-1250.51
283.529
-1133.62
229.45
-1019.49
169.407
-922.232
122.334
-855.369
90.9856
-827.33
80.0886
-834.178
85.5185
-860.732
98.6444
-891.128
112.213
-916.835
122.944
-935.416
130.44
-947.061
135.859
-953.286
141.196
-956.201
148.448
-957.699
158.889
-959.085
173.035
-961.173
190.273
-964.51
209.769
-969.8
232.038
-977.896
258.679
-989.483
294.081
-1004.43
344.277
-1021.64
412.08
-1040.89
492.625
-1059.4
587.001
-1073.83
692.208
-1084.57
797.686
-1092.34
904.331
-1093.84
1018.48
-1086.09
1131.72
-1071.04
1235.97
-1059.95
1338.18
-1070.53
1469.75
-1115.31
1670.33
-1188.58
1954.74
-1273.08
2307.43
-1358.77
2724.66
-1456.36
3215.69
-1575.5
3765.31
-1715.33
4424.78
-1865.29
5209.55
-2022.82
6074.5
-2185.54
6993.33
-2346.38
7935.12
-2496.52
8854.26
-2636.15
9720.71
-2772.14
10537.6
-2895.43
11301.8
-2953.85
11883.2
-2848.48
11934
-2471.81
10962.8
-1790.43
8639.38
-940.876
5275.77
-241.649
2107.99
12.2657
625.94
-22.9281
413.578
-210.019
588.756
-454.758
621.703
-650.861
503.296
-688.613
194.058
-533.661
-120.432
-237.987
-177.502
-52.8495
29.0464
-106.96
199.666
-154.612
83.5481
-117.358
35.7328
-76.8541
199.977
-27.8285
452.709
24.3722
509.692
78.5454
536.96
133.806
748.25
187.673
1042.05
230.076
1211.95
252.13
1126.77
245.915
804.662
200.261
320.123
-435.514
-1200.66
352.84
-1101.76
250.574
-1010.27
192.034
-931.367
150.55
-874.408
112.448
-847.856
95.7833
-850.767
93.8963
-873.448
102.77
-902.991
115.062
-930.123
125.777
-950.782
132.872
-964.235
136.397
-971.601
137.807
-974.95
139.208
-976.431
142.677
-977.724
149.742
-979.885
161.05
-983.292
176.442
-988.001
194.982
-994.139
215.907
-1002.25
240.145
-1012.98
269.416
-1026.59
307.69
-1042.33
360.017
-1058.54
428.295
-1074.28
508.365
-1087.39
600.104
-1095.8
700.625
-1100.11
801.989
-1100.59
904.815
-1094.92
1012.82
-1082.92
1119.72
-1070.49
1223.54
-1070.67
1338.36
-1097.49
1496.57
-1154.86
1727.7
-1232.01
2031.9
-1315.75
2391.17
-1402.94
2811.86
-1502.58
3315.32
-1624.62
3887.35
-1764.93
4565.09
-1914.75
5359.37
-2071.62
6231.37
-2231.69
7153.4
-2387.19
8090.62
-2531.84
8998.92
-2668.17
9857.04
-2801.8
10671.3
-2916.16
11416.2
-2948.58
11915.7
-2792.94
11778.4
-2345.86
10515.7
-1596.1
7889.62
-712.891
4392.56
-42.6989
1437.8
55.8504
527.393
-189.822
659.252
-591.754
990.689
-975.901
1005.85
-1225.06
752.453
-1279.07
248.077
-1121.5
-278.003
-745.126
-553.877
-258.913
-457.166
-57.0569
-2.18888
-139.929
166.422
-140.729
36.5332
-84.9946
144.243
-36.5724
404.288
14.5831
458.538
68.0244
483.52
123.107
693.168
176.782
988.371
219.04
1169.69
241.613
1104.19
235.607
810.669
193.558
362.173
-333.433
-1002.43
293.404
-931.565
179.709
-881.426
141.894
-853.96
123.084
-850.519
109.007
-867.001
112.265
-894.11
121.005
-922.671
131.331
-947.001
139.392
-964.844
143.62
-976.218
144.246
-982.514
142.693
-985.759
141.051
-987.963
141.412
-990.614
145.327
-994.428
153.557
-999.516
166.137
-1005.65
182.58
-1012.73
202.055
-1020.88
224.061
-1030.62
249.885
-1042.42
281.216
-1056.11
321.375
-1070.54
374.45
-1083.98
441.737
-1095.35
519.74
-1103.22
607.966
-1106.37
703.778
-1105.42
801.036
-1100.81
900.206
-1091.96
1003.97
-1081.51
1109.27
-1077.6
1219.62
-1092.11
1352.87
-1133.46
1537.92
-1198.92
1793.17
-1276.67
2109.65
-1359.06
2473.56
-1448.35
2901.15
-1550.63
3417.6
-1674.57
4011.29
-1815.17
4705.7
-1964.54
5508.73
-2120.03
6386.86
-2276.6
7309.96
-2426.44
8240.47
-2565.98
9138.45
-2699.54
9990.61
-2830.06
10801.8
-2932.53
11518.6
-2933.87
11917
-2722.01
11566.5
-2199.94
9993.66
-1379.3
7068.98
-463.797
3477.06
41.5947
932.405
-111.232
680.22
-606.639
1154.66
-1125.17
1509.21
-1551.93
1432.61
-1804.15
1004.67
-1861
304.929
-1717.27
-421.734
-1347.93
-923.217
-764.17
-1040.93
-179.442
-586.917
-69.4412
56.4199
-158.568
125.659
-97.5673
83.2428
-44.2201
350.941
4.19878
410.119
57.0504
430.668
112.044
638.174
165.308
935.108
207.539
1127.46
230.389
1081.34
225.229
815.829
188.785
398.617
-234.551
-878.402
253.22
-846.621
147.928
-837.102
132.375
-846.233
132.215
-868.744
131.519
-896.837
140.358
-924.358
148.527
-947.356
154.329
-964.336
156.372
-975.62
154.905
-982.653
151.279
-987.304
147.344
-991.295
145.043
-995.854
145.971
-1001.55
151.02
-1008.32
160.326
-1015.82
173.642
-1023.75
190.51
-1032.12
210.425
-1041.22
233.161
-1051.45
260.112
-1063.02
292.788
-1075.47
333.831
-1087.56
386.537
-1097.74
451.918
-1105.14
527.133
-1108.92
611.748
-1108.49
703.356
-1104.64
797.182
-1098.44
894.007
-1091.17
996.692
-1087.38
1105.49
-1095.4
1227.64
-1123.95
1381.42
-1176.04
1590.01
-1245.37
1862.5
-1321.92
2186.19
-1403.32
2554.96
-1495.07
2992.91
-1600.41
3522.94
-1725.41
4136.29
-1866
4846.29
-2014.53
5657.27
-2167.86
6540.19
-2320.13
7462.24
-2464.23
8384.57
-2599.08
9273.3
-2730.19
10121.7
-2856.35
10928
-2943.38
11605.7
-2907.94
11881.5
-2633.3
11291.9
-2031.19
9391.55
-1143.85
6181.65
-248.26
2581.47
-66.3398
750.486
-510.546
1124.43
-1121.56
1765.67
-1671.95
2059.61
-2086.84
1847.5
-2319.11
1236.94
-2372.29
358.114
-2247.82
-546.198
-1915.05
-1255.99
-1347.09
-1608.89
-593.303
-1340.7
-107.996
-428.886
-108.995
126.659
-118.169
92.4174
-52.6401
285.413
-6.7226
364.202
45.5249
378.422
100.663
583.036
153.314
882.458
195.673
1085.1
218.644
1058.37
214.614
819.86
186.606
426.626
-138.656
-815.923
234.482
-818.795
150.8
-834.746
148.327
-859.33
156.799
-887.729
159.918
-914.289
166.918
-936.514
170.752
-953.441
171.256
-965.544
168.475
-974.119
163.48
-980.766
157.926
-986.949
153.527
-993.651
151.745
-1001.26
153.579
-1009.67
159.435
-1018.53
169.178
-1027.46
182.578
-1036.34
199.39
-1045.33
219.411
-1054.74
242.57
-1064.76
270.14
-1075.42
303.442
-1086.12
344.539
-1095.78
396.19
-1103.18
459.324
-1107.77
531.724
-1109.22
613.195
-1107.48
701.609
-1103.62
793.33
-1099.53
889.915
-1097.85
995.013
-1103.77
1111.41
-1124.17
1248.04
-1164.07
1421.33
-1222.63
1648.57
-1292.76
1932.63
-1367.66
2261.08
-1448.95
2636.25
-1543.24
3087.19
-1651.66
3631.36
-1777.21
4261.85
-1917.31
4986.38
-2064.58
5804.54
-2214.92
6690.53
-2362.23
7609.55
-2500.64
8522.98
-2631.29
9403.96
-2759.93
10250.3
-2879.92
11047.9
-2947.28
11673
-2868.69
11803
-2524.31
10947.5
-1839.27
8706.5
-906.513
5248.89
-191.273
1866.23
-360.895
920.107
-989.477
1753.01
-1633.29
2409.49
-2169.55
2595.87
-2545.91
2223.86
-2747.18
1438.21
-2793.63
404.567
-2690.67
-649.164
-2405.87
-1540.79
-1895.93
-2118.83
-1136.25
-2100.38
-299.984
-1265.15
-56.2153
-117.11
-141.466
177.667
-65.8613
209.809
-17.134
315.475
33.9062
327.382
89.0239
527.919
140.901
830.581
183.523
1042.48
206.48
1035.42
203.7
822.64
178.485
451.841
-43.6995
-800.915
231.795
-824.127
174.012
-849.351
173.55
-875.313
182.761
-900.147
184.752
-920.955
187.727
-937.461
187.258
-950.118
183.912
-960.064
178.421
-968.634
172.049
-976.962
166.254
-985.765
162.33
-995.272
161.253
-1005.34
163.645
-1015.63
169.723
-1025.79
179.344
-1035.62
192.407
-1045.12
208.885
-1054.47
228.761
-1063.91
252.012
-1073.45
279.682
-1082.99
312.987
-1092.07
353.61
-1099.83
403.952
-1105.46
464.961
-1108.77
535.028
-1109.79
614.215
-1108.99
700.81
-1107.83
792.171
-1108.74
890.826
-1114.98
1001.25
-1131.23
1127.66
-1162.15
1278.96
-1209.74
1468.91
-1271.2
1710.04
-1340.48
2001.91
-1414.16
2334.76
-1496.33
2718.42
-1593
3183.87
-1704.05
3742.41
-1830.02
4387.81
-1969.03
5125.39
-2114.48
5949.99
-2261.07
6837.12
-2402.87
7751.35
-2535.74
8655.85
-2662.66
9530.88
-2788.41
10376.1
-2899.82
11159.4
-2942.58
11715.8
-2813.91
11674.3
-2393.54
10527.1
-1630.46
7943.42
-702.551
4320.98
-299.354
1463.03
-763.973
1384.73
-1459.71
2448.75
-2096.64
3046.42
-2592.63
3091.85
-2916.44
2547.68
-3081.36
1603.12
-3119.33
442.541
-3038.15
-730.345
-2805.59
-1773.35
-2371.48
-2552.94
-1677.38
-2794.48
-762.641
-2179.89
-149.228
-730.523
-93.2303
121.67
-72.97
189.549
-26.9224
269.428
22.5504
277.91
77.2203
473.25
128.252
779.55
171.161
999.57
193.962
1012.62
192.439
824.164
173.035
471.246
43.6586
-822.206
235.346
-849.256
201.062
-872.145
196.44
-892.335
202.951
-910.255
202.672
-924.872
202.343
-936.943
199.329
-947.334
194.304
-957.003
188.09
-966.758
181.804
-977.095
176.592
-988.132
173.367
-999.656
172.777
-1011.3
175.294
-1022.75
181.166
-1033.77
190.37
-1044.25
202.878
-1054.17
218.81
-1063.68
238.272
-1072.92
261.254
-1081.83
288.591
-1090.33
321.486
-1098.16
361.441
-1104.8
410.585
-1109.78
469.94
-1113.24
538.489
-1115.5
616.48
-1117.45
702.755
-1120.85
795.57
-1128.28
898.26
-1142.89
1015.86
-1168.2
1152.97
-1206.74
1317.5
-1258.6
1520.77
-1320.62
1772.06
-1388.55
2069.84
-1461.86
2408.07
-1545.64
2802.2
-1644.43
3282.66
-1757.37
3855.35
-1883.66
4514.1
-2021.06
5262.79
-2164
6092.93
-2306.17
6979.29
-2442.06
7887.24
-2569.62
8783.4
-2693.14
9654.4
-2815.17
10498.1
-2914.97
11259.2
-2927.51
11728.3
-2741.6
11488.4
-2241.6
10027.1
-1418.36
7120.18
-582.709
3485.33
-522.091
1402.42
-1179.25
2041.89
-1886.24
3155.74
-2493.4
3653.58
-2931.92
3530.37
-3195.52
2811.28
-3322.03
1729.63
-3350.75
471.267
-3290.71
-790.392
-3110.74
-1953.31
-2758.16
-2905.53
-2157.78
-3394.86
-1266.15
-3071.52
-281.818
-1714.85
9.87623
-170.025
-90.1415
289.567
-45.0439
224.331
10.736
222.13
65.2472
418.739
115.57
729.227
158.646
956.494
181.196
990.066
180.835
824.525
159.904
492.177
129.589
-868.143
236.798
-888.015
220.935
-903.358
211.783
-916.03
215.623
-927.449
214.091
-937.396
212.29
-946.688
208.621
-956.004
203.62
-965.862
197.948
-976.512
192.454
-987.96
188.04
-1000.02
185.427
-1012.35
185.111
-1024.58
187.524
-1036.41
192.997
-1047.68
201.633
-1058.25
213.448
-1068.08
228.649
-1077.26
247.45
-1085.89
269.88
-1093.95
296.657
-1101.48
329.017
-1108.48
368.437
-1114.68
416.792
-1119.95
475.206
-1124.68
543.217
-1129.39
621.188
-1135.16
708.534
-1143.94
804.35
-1158.07
912.384
-1180.07
1037.86
-1212.21
1185.11
-1255.5
1360.79
-1309.14
1574.41
-1370.55
1833.47
-1437.37
2136.67
-1511.13
2481.83
-1596.95
2888.02
-1697.52
3383.23
-1811.56
3969.39
-1937.9
4640.44
-2073.29
5398.18
-2212.89
6232.53
-2350.02
7116.42
-2479.83
8017.05
-2602.35
8905.93
-2722.6
9774.65
-2839.63
10615.1
-2924.13
11343.7
-2900.18
11704.4
-2650.39
11238.6
-2072.03
9448.77
-1221.07
6269.22
-574.186
2838.44
-819.437
1647.67
-1562.98
2785.43
-2256.94
3849.7
-2817.1
4213.74
-3185.8
3899.07
-3385.83
3011.3
-3474.34
1818.14
-3493.96
490.891
-3453.73
-830.621
-3324.25
-2082.79
-3053.45
-3176.33
-2559.19
-3889.11
-1761.03
-3869.68
-730.938
-2744.95
-133.75
-767.212
-98.1205
253.938
-66.8195
193.03
-2.03628
157.348
52.8927
363.811
102.989
679.132
145.976
913.507
168.277
967.766
169
823.803
144.233
516.945
190.82
-930.678
232.985
-940.75
231.007
-948.721
219.754
-955.404
222.306
-962.16
220.846
-968.971
219.102
-976.325
215.974
-984.535
211.83
-993.771
207.184
-1003.99
202.673
-1014.99
199.038
-1026.48
196.917
-1038.13
196.765
-1049.61
198.998
-1060.63
204.016
-1071.02
212.03
-1080.66
223.087
-1089.49
237.481
-1097.58
255.54
-1105.08
277.371
-1112.07
303.652
-1118.73
335.679
-1125.26
374.966
-1131.62
423.154
-1137.89
481.474
-1144.62
549.946
-1152.44
629.002
-1162.45
718.547
-1176.53
818.432
-1196.57
932.419
-1224.29
1065.58
-1260.93
1221.75
-1306.68
1406.54
-1360.64
1628.36
-1421.13
1893.97
-1487.41
2202.95
-1562.26
2556.67
-1650.16
2975.92
-1752.14
3485.21
-1866.65
4083.91
-1992.47
4766.26
-2125.49
5531.2
-2260.95
6367.99
-2392.46
7247.94
-2516.18
8140.76
-2634.01
9023.75
-2750.89
9891.53
-2861.09
10725.3
-2925.85
11408.4
-2858.76
11637.3
-2540.01
10919.8
-1891.61
8800.37
-1058.55
5436.16
-661.121
2441.01
-1140.35
2126.9
-1902.61
3547.69
-2568.61
4515.7
-3066.52
4711.65
-3357.19
4189.74
-3494.09
3148.19
-3547.1
1871.15
-3558.59
502.381
-3536.38
-852.828
-3453.46
-2165.71
-3260.65
-3369.14
-2874.94
-4274.82
-2195.51
-4549.11
-1194.06
-3746.4
-237.975
-1723.3
29.9858
-14.0235
-36.1114
259.127
-13.4923
134.729
40.9199
309.399
90.7437
629.308
133.166
871.085
155.393
945.538
157.304
821.892
130.091
544.158
248.145
-1006.85
224.536
-1009.31
233.467
-1011.98
222.418
-1014.59
224.916
-1018.02
224.282
-1022.22
223.302
-1027.42
221.17
-1033.68
218.087
-1040.98
214.491
-1049.21
210.895
-1058.11
207.943
-1067.42
206.228
-1076.86
206.202
-1086.13
208.268
-1094.99
212.883
-1103.3
220.341
-1110.97
230.748
-1117.97
244.484
-1124.41
261.981
-1130.5
283.465
-1136.45
309.598
-1142.53
341.761
-1149.05
381.484
-1156.12
430.228
-1163.94
489.293
-1173.1
559.108
-1184.23
640.132
-1198.35
732.663
-1217.07
837.156
-1241.78
957.132
-1273.47
1097.27
-1312.68
1260.96
-1359.36
1453.23
-1412.95
1681.95
-1472.7
1953.72
-1539.05
2269.29
-1615.35
2632.97
-1705.15
3065.71
-1808.15
3588.21
-1922.62
4198.38
-2047.2
4890.84
-2177.35
5661.36
-2307.96
6498.59
-2433.39
7373.37
-2551.19
8258.55
-2664.7
9137.27
-2777.79