/*--------------------------------*- C++ -*----------------------------------*\
| =========                 |                                                 |
| \\      /  F ield         | OpenFOAM: The Open Source CFD Toolbox           |
|  \\    /   O peration     | Version:  4.1                                   |
|   \\  /    A nd           | Web:      www.OpenFOAM.org                      |
|    \\/     M anipulation  |                                                 |
\*---------------------------------------------------------------------------*/
FoamFile
{
    version     2.0;
    format      ascii;
    class       volVectorField;
    location    "25";
    object      U;
}
// * * * * * * * * * * * * * * * * * * * * * * * * * * * * * * * * * * * * * //

dimensions      [0 1 -1 0 0 0 0];

internalField   nonuniform List<vector> 
6785
(
(9.75209e-15 0.684592 15.7418)
(9.51931e-15 -5.1303 12.0537)
(-2.07017e-15 -4.2925 12.1841)
(4.81351e-15 -3.72376 12.0221)
(1.34607e-15 -3.11931 11.901)
(-3.69122e-17 -2.66647 11.7153)
(4.51507e-15 -2.31762 11.4881)
(2.31534e-16 -2.07345 11.2168)
(-2.21688e-16 -1.90796 10.9139)
(-1.58813e-15 -1.81722 10.5843)
(5.12335e-16 -1.92244 10.165)
(-1.7079e-16 -2.37181 9.56011)
(2.36472e-15 -2.68976 8.96981)
(-4.51842e-16 -1.33555 8.92614)
(-2.02414e-15 1.73302 7.64142)
(1.12869e-14 -5.6379 22.1818)
(1.69207e-14 -14.7671 21.3398)
(4.67216e-16 -13.2426 20.4984)
(7.22831e-15 -11.8214 19.6219)
(3.44587e-15 -11.2269 18.5971)
(-8.97819e-16 -10.7092 17.6048)
(6.97601e-15 -10.1209 16.6521)
(2.36726e-15 -9.54482 15.6955)
(1.00425e-17 -8.97907 14.7276)
(6.42812e-15 -8.37631 13.7517)
(2.20209e-15 -7.75125 12.7738)
(-2.66264e-16 -7.27676 11.7831)
(-6.26785e-16 -7.01214 10.6938)
(1.14484e-15 -5.7842 8.97407)
(-2.16166e-15 -1.7332 4.85323)
(1.4128e-14 -7.89602 22.187)
(2.09277e-14 -16.7499 24.7014)
(1.37544e-15 -13.8114 23.9905)
(4.7967e-15 -12.4976 22.6551)
(3.42693e-15 -11.833 21.261)
(-3.26933e-16 -10.989 20.0205)
(2.86519e-15 -10.1074 18.79)
(2.08158e-15 -9.26102 17.5387)
(8.1603e-17 -8.43686 16.2752)
(2.51735e-15 -7.62017 15.0226)
(3.31277e-15 -6.79704 13.8034)
(-8.75145e-16 -5.96854 12.4324)
(4.23297e-15 -4.99111 10.3265)
(2.33915e-15 -3.27536 6.89034)
(-1.94801e-15 -0.662451 2.39905)
(1.96924e-14 -8.14304 17.9869)
(1.84095e-14 -16.3386 24.4547)
(2.02988e-15 -13.436 23.9536)
(4.0942e-15 -12.5306 22.1184)
(1.05619e-15 -11.7971 20.6138)
(-1.1387e-16 -10.8464 19.2818)
(3.24302e-15 -9.96759 17.9216)
(6.50949e-16 -9.13809 16.5569)
(2.41466e-15 -8.34533 15.2037)
(9.60778e-17 -7.59639 13.8755)
(1.36364e-15 -6.836 12.5322)
(5.31735e-15 -5.87463 10.8633)
(-6.09754e-16 -4.38628 8.19718)
(-4.66126e-15 -2.2444 3.97511)
(1.93071e-14 0.0129895 -1.35218)
(1.52717e-14 -7.32272 13.917)
(1.22331e-14 -15.3603 23.7135)
(-1.95583e-15 -13.9044 24.0462)
(2.43677e-15 -13.0906 21.9521)
(-3.43367e-15 -12.2991 20.3343)
(2.92402e-15 -11.3795 18.961)
(2.56425e-15 -10.5629 17.5514)
(1.30891e-15 -9.76989 16.1486)
(-4.25022e-15 -8.9844 14.7756)
(-3.13405e-15 -8.22675 13.4369)
(-4.65771e-16 -7.46124 12.0833)
(-5.96768e-16 -6.51701 10.4494)
(-5.17364e-15 -5.0464 8.04509)
(-1.24114e-14 -3.17239 4.56946)
(-1.54957e-14 -1.17731 1.48025)
(1.21906e-14 -6.1224 10.8678)
(1.46556e-14 -14.1691 22.6779)
(7.85472e-15 -14.3397 24.3338)
(3.00929e-15 -13.5262 22.4676)
(-1.5937e-15 -12.5721 20.7479)
(4.32696e-15 -11.6374 19.3222)
(3.7508e-15 -10.8164 17.8996)
(-4.2381e-15 -9.99744 16.488)
(-4.97245e-17 -9.17139 15.1052)
(-2.91644e-15 -8.36543 13.7554)
(-7.80985e-15 -7.55828 12.4002)
(4.01885e-15 -6.63332 10.8183)
(-1.01434e-14 -5.23908 8.63705)
(-7.38163e-15 -3.66712 5.59999)
(-1.04513e-14 -1.44546 3.03198)
(1.95904e-14 -5.11822 8.83545)
(1.91689e-14 -13.0047 21.5827)
(1.46501e-14 -14.2992 24.2371)
(4.7262e-15 -13.581 22.8794)
(4.98436e-15 -12.5395 21.1357)
(4.33377e-15 -11.6019 19.6446)
(-1.61235e-15 -10.7718 18.208)
(-4.23753e-15 -9.93313 16.7926)
(5.53357e-15 -9.09385 15.3999)
(-1.75196e-15 -8.28044 14.0374)
(-8.43548e-15 -7.46965 12.6748)
(5.97867e-15 -6.57721 11.0954)
(-1.06813e-15 -5.18741 8.98749)
(-1.13952e-14 -3.93041 6.0917)
(1.45528e-14 -1.5226 3.97945)
(1.80241e-14 -4.64397 8.03901)
(1.92525e-14 -12.2083 20.8469)
(1.45645e-14 -14.0426 23.8089)
(3.7312e-15 -13.4647 23.0217)
(3.04656e-16 -12.467 21.3211)
(4.08904e-15 -11.5573 19.7828)
(1.1839e-16 -10.7281 18.3365)
(-2.52777e-15 -9.8893 16.9186)
(3.05625e-15 -9.05892 15.519)
(7.10083e-15 -8.25573 14.1494)
(9.96826e-16 -7.44897 12.7799)
(-1.09809e-16 -6.57382 11.1695)
(7.84203e-15 -5.10074 9.06171)
(-9.01001e-15 -4.06802 6.15276)
(6.43839e-15 -1.53686 4.34943)
(9.4947e-15 -4.52485 7.88454)
(1.87203e-14 -11.7349 20.3679)
(1.22599e-14 -13.8028 23.2605)
(5.58459e-15 -13.3751 23.0309)
(7.09959e-16 -12.4903 21.4162)
(4.88786e-15 -11.5971 19.8583)
(-2.13283e-16 -10.7598 18.4102)
(-5.75591e-16 -9.92223 16.9919)
(-3.68704e-15 -9.09804 15.5895)
(3.44945e-16 -8.29895 14.2177)
(-9.11066e-16 -7.4859 12.8437)
(-2.60137e-15 -6.61785 11.1855)
(-2.46741e-15 -5.03045 9.0659)
(-9.01307e-15 -4.2115 6.19767)
(-8.5411e-15 -1.60765 4.64144)
(4.71467e-15 -4.45731 7.66341)
(1.75574e-14 -11.3796 19.9083)
(9.52285e-15 -13.6218 22.7564)
(6.86624e-15 -13.3443 23.0083)
(1.48486e-15 -12.5845 21.5125)
(-3.65185e-15 -11.6853 19.9525)
(-3.20115e-15 -10.8307 18.5021)
(-1.26312e-15 -9.99107 17.0827)
(5.06614e-15 -9.16618 15.6795)
(-2.99803e-15 -8.36511 14.3066)
(-2.28264e-15 -7.53778 12.9287)
(-3.71092e-15 -6.67383 11.2149)
(-1.03897e-14 -4.97989 9.08582)
(-8.71281e-15 -4.37134 6.32322)
(-1.8309e-14 -1.73202 4.97883)
(-7.12287e-15 -4.28524 7.16448)
(1.76599e-14 -10.9982 19.3592)
(5.46123e-15 -13.4547 22.3474)
(-2.512e-15 -13.3368 23.0059)
(4.50495e-15 -12.7006 21.6581)
(-6.46047e-15 -11.7908 20.1029)
(-8.99256e-15 -10.918 18.6394)
(1.60122e-16 -10.0743 17.212)
(-1.69289e-14 -9.2441 15.8039)
(1.69156e-15 -8.43883 14.4239)
(-4.71178e-16 -7.5907 13.0385)
(-1.29644e-14 -6.73099 11.2669)
(-1.14258e-14 -4.949 9.12671)
(-2.07933e-14 -4.52379 6.47192)
(-1.63254e-14 -1.856 5.31298)
(1.53036e-15 -4.06337 6.59204)
(1.89281e-14 -10.5878 18.812)
(1.98951e-15 -13.2361 22.0038)
(3.57872e-15 -13.244 22.9839)
(1.87496e-15 -12.7123 21.7716)
(-8.71848e-15 -11.7944 20.2428)
(-2.69668e-15 -10.917 18.7766)
(3.29377e-15 -10.0748 17.3451)
(-1.066e-14 -9.24418 15.9367)
(-7.53471e-15 -8.44224 14.5512)
(-1.28673e-15 -7.57959 13.1486)
(-1.12629e-14 -6.71253 11.3012)
(-6.06685e-15 -4.8661 9.1563)
(-2.68358e-14 -4.66652 6.65051)
(-1.546e-14 -1.971 5.61498)
(-1.4607e-14 -4.02943 6.47911)
(1.83326e-14 -10.3535 18.6029)
(5.56518e-15 -13.1501 21.8855)
(-3.10258e-15 -13.2776 23.157)
(5.34679e-15 -12.8562 22.0269)
(-9.16377e-15 -11.9094 20.4663)
(-5.6695e-15 -10.9977 18.9307)
(6.58499e-15 -10.124 17.4509)
(-1.29526e-14 -9.25823 15.9946)
(-8.51353e-15 -8.43246 14.558)
(2.38215e-15 -7.5131 13.1146)
(-2.5051e-14 -6.65295 11.1439)
(-8.65061e-15 -4.64199 8.92591)
(-2.24729e-14 -4.60132 6.41622)
(-2.84842e-14 -1.92155 5.59914)
(-7.13361e-15 -3.86731 6.15128)
(1.31272e-14 -9.7067 17.9542)
(2.08581e-15 -12.2991 21.4131)
(-2.85408e-15 -12.3971 22.7744)
(1.27485e-15 -12.0363 21.8507)
(-8.24441e-15 -11.1814 20.5352)
(-1.88848e-15 -10.3778 19.1692)
(1.74861e-15 -9.58413 17.7594)
(-1.19773e-14 -8.7891 16.371)
(-3.2681e-15 -8.01665 14.9639)
(-5.23677e-15 -7.17609 13.4305)
(-2.28248e-14 -6.20946 11.3652)
(-1.00229e-14 -4.6514 9.1964)
(-2.8647e-14 -4.73812 7.1993)
(-2.47192e-14 -1.93071 5.8362)
(-6.21557e-15 -7.218 14.3401)
(1.23186e-14 -12.7753 23.0995)
(3.20491e-15 -14.8204 24.8625)
(7.48466e-16 -14.549 25.4074)
(-8.71194e-16 -13.6022 23.2537)
(-7.67188e-15 -11.9309 20.9405)
(5.4028e-16 -10.5043 18.6354)
(-9.74261e-16 -9.15676 16.7526)
(-8.71899e-15 -7.94979 14.8365)
(-5.79493e-15 -6.80647 12.9497)
(-1.59744e-14 -5.45197 10.5962)
(-2.0184e-14 -3.89118 7.79111)
(-2.05797e-14 -2.34875 5.20754)
(-3.10964e-14 -1.86732 2.82522)
(-9.4701e-15 -0.317308 1.08983)
(-3.34281e-15 0.0621673 -1.0334)
(-5.02889e-15 0.248173 -1.28707)
(-3.49193e-15 0.327639 -0.776961)
(-3.31843e-15 0.439387 -0.711545)
(-3.18636e-15 0.469144 -0.663792)
(-4.88354e-15 0.780166 -1.00987)
(-3.63649e-15 0.714397 -0.65413)
(-3.48256e-15 0.844131 -0.632292)
(-3.73201e-15 0.856492 -0.591679)
(-4.85885e-15 1.23657 -0.938812)
(3.88114e-15 1.09797 -0.599659)
(2.45527e-15 1.17493 -0.542816)
(2.04286e-16 1.71014 -0.871163)
(2.44759e-16 1.39959 -0.548876)
(1.09296e-16 1.56619 -0.534259)
(1.59306e-16 1.53046 -0.506732)
(-8.97499e-16 2.06698 -0.791136)
(4.19396e-17 1.73234 -0.494849)
(1.85998e-16 1.79912 -0.453655)
(-4.79239e-16 2.51594 -0.677817)
(-1.84408e-16 1.96846 -0.414236)
(-2.36639e-16 2.16392 -0.39972)
(2.77603e-16 2.09111 -0.383075)
(-2.42578e-16 2.7849 -0.536409)
(-1.97713e-17 2.19058 -0.317112)
(1.0003e-16 2.39537 -0.297324)
(-2.62332e-16 2.30676 -0.286819)
(-8.07821e-16 3.00659 -0.361002)
(-8.95027e-16 2.40946 -0.19304)
(-8.40643e-16 2.44892 -0.183486)
(-1.42513e-15 3.28861 -0.160667)
(-1.32393e-15 2.47644 -0.0633642)
(-1.23843e-15 2.67857 -0.0505695)
(-1.51259e-15 2.57748 -0.0619464)
(-2.47257e-15 3.26859 0.0418814)
(-1.72094e-15 2.55437 0.07772)
(-1.58967e-15 2.5848 0.0553404)
(-2.49931e-15 3.40696 0.262621)
(-1.67724e-15 2.51158 0.217047)
(-1.73993e-15 2.69266 0.21844)
(-1.29267e-15 2.57426 0.184262)
(-1.95856e-15 3.23646 0.46412)
(-1.25218e-15 2.41279 0.345285)
(-1.19989e-15 2.58396 0.344736)
(-1.12412e-15 2.45755 0.300666)
(-1.52295e-15 3.02446 0.641466)
(-1.42996e-15 2.28986 0.468485)
(-1.32358e-15 2.31797 0.406973)
(-2.11463e-15 2.88556 0.82385)
(-8.63182e-16 2.04641 0.565443)
(-7.96949e-16 2.19259 0.548233)
(-7.55741e-16 2.09171 0.485281)
(-1.17363e-15 2.47251 0.933835)
(-6.63048e-16 1.77166 0.620713)
(-7.53822e-16 1.88618 0.600138)
(-2.11678e-16 1.78107 0.533576)
(-2.20735e-16 2.04881 1.00338)
(2.7056e-16 1.45855 0.651014)
(-3.29846e-16 1.50306 0.570291)
(-3.03662e-16 1.65976 1.06642)
(2.66202e-17 1.08462 0.652813)
(-4.26148e-17 1.17262 0.61399)
(-1.1036e-15 1.10912 0.543957)
(-5.59976e-16 1.11084 1.02357)
(6.5201e-15 0.68152 0.574435)
(5.8059e-15 0.748353 0.490671)
(6.71166e-15 0.621053 0.967952)
(1.00164e-15 0.281994 0.466201)
(5.48017e-16 0.31897 0.407001)
(7.37601e-17 0.30444 0.405595)
(-5.64497e-15 0.102083 1.58017)
(-8.82139e-15 -0.170553 1.77246)
(-9.85052e-15 -0.234602 1.99413)
(-1.00511e-14 -0.305169 2.08336)
(-1.22014e-14 -0.834373 3.27442)
(-6.50791e-15 -0.946513 2.6656)
(-6.67947e-15 -1.0434 2.86168)
(-1.05691e-14 -1.80689 4.41943)
(-8.76441e-15 -1.97544 3.54154)
(-9.50815e-15 -2.07278 3.80509)
(-1.19687e-14 -2.24542 4.46258)
(-1.19078e-14 -2.34274 4.66242)
(-1.2363e-14 -2.69333 4.92314)
(-8.24402e-15 -2.94176 7.00839)
(-1.54318e-14 -2.93992 6.5245)
(-1.7658e-14 -3.25226 6.97423)
(-1.81055e-14 -3.25887 7.19005)
(-1.77074e-14 -3.33308 7.40009)
(-1.74082e-14 -3.38224 7.63135)
(-1.69921e-14 -3.4051 7.89497)
(-1.60724e-14 -3.52451 8.29054)
(-1.48673e-14 -3.82738 8.76307)
(-7.72419e-15 -3.9172 10.7287)
(-1.41129e-14 -4.19644 10.2728)
(-1.37105e-14 -4.39211 10.6023)
(-1.34733e-14 -4.36764 10.8537)
(-1.31138e-14 -4.54027 11.4219)
(-1.29467e-14 -4.49969 11.5537)
(-1.26649e-14 -4.52974 11.8156)
(-1.23617e-14 -4.61357 12.0833)
(-1.17984e-14 -4.86992 12.4029)
(-7.08416e-15 -4.86664 14.8509)
(-7.67051e-15 -5.31502 14.4094)
(-7.09601e-15 -5.43712 14.6913)
(-6.62868e-15 -5.46848 14.8807)
(-6.05492e-15 -5.50313 15.1325)
(-4.94902e-15 -5.55612 15.5035)
(-3.79351e-15 -5.63296 15.9091)
(-3.92183e-15 -5.58792 16.0657)
(-3.69853e-15 -5.66999 16.3152)
(-3.54515e-15 -5.91353 16.5846)
(-3.47899e-15 -5.57365 18.6517)
(-4.57459e-15 -6.35898 18.2498)
(-4.29535e-15 -6.39707 18.4937)
(-4.11855e-15 -6.44322 18.6595)
(-3.87755e-15 -6.49755 18.8721)
(-3.53618e-15 -6.50922 19.1201)
(-2.55043e-15 -6.55015 19.5334)
(-2.23689e-15 -6.57425 19.7706)
(-2.27616e-15 -6.79909 19.9579)
(-1.5261e-15 -6.2744 21.4794)
(-2.46595e-15 -7.17923 20.8644)
(-2.3664e-15 -7.14835 21.2253)
(-2.31108e-15 -7.21743 21.4876)
(-2.45528e-15 -7.20265 21.5751)
(-2.55732e-15 -7.26294 21.7262)
(-2.71837e-15 -7.25276 21.8827)
(-3.02938e-15 -7.2301 22.0964)
(-4.17073e-15 -7.49014 22.5591)
(-1.69217e-15 -6.27157 22.8226)
(-2.02601e-15 -7.6479 22.3308)
(-1.62193e-15 -7.4956 22.3961)
(-1.25413e-15 -7.48313 22.4355)
(-3.38218e-16 -7.53009 22.6544)
(-5.07309e-17 -7.5187 22.6229)
(2.55904e-17 -7.4906 22.4935)
(1.7451e-16 -7.4672 22.3534)
(3.37778e-16 -7.4434 22.1591)
(1.82214e-15 -5.60764 20.6315)
(1.31273e-15 -7.11437 20.6077)
(1.43942e-15 -6.7633 20.2138)
(1.53893e-15 -6.76261 19.8855)
(1.6572e-15 -6.64993 19.4718)
(1.81401e-15 -6.56783 18.993)
(2.18711e-15 -6.53467 18.388)
(2.03262e-15 -6.50251 17.8626)
(2.03533e-15 -6.37823 17.1954)
(2.00905e-15 -6.01571 16.4173)
(2.10285e-15 -2.92966 10.9519)
(2.66404e-15 -4.73238 12.6029)
(2.50823e-15 -4.04771 11.3459)
(1.73621e-15 -4.06989 10.5298)
(1.0163e-15 -3.79827 9.42636)
(3.25336e-18 -3.73857 8.11155)
(-1.94849e-15 -3.6334 6.21498)
(-3.58396e-15 -3.1854 4.37804)
(-2.60887e-15 -2.72362 3.8127)
(-1.03058e-15 -1.08541 -0.25879)
(-2.86555e-15 -2.35315 3.41596)
(-2.05121e-15 -1.29954 1.33687)
(4.35028e-16 -0.0627551 -3.56427)
(-2.47694e-15 -1.52946 -1.7786)
(-1.80257e-15 -0.213373 -0.608802)
(-1.5372e-15 -0.385924 -0.0183271)
(-4.21641e-15 -0.500316 -0.160722)
(-3.09311e-15 -0.237743 -0.0114176)
(-4.99545e-15 -0.126056 -0.049273)
(-4.08938e-15 -0.416033 -0.169732)
(-1.52385e-15 -0.393494 -0.171442)
(-2.36683e-15 -0.0392365 -0.204885)
(-2.31022e-15 -0.0536624 -0.185796)
(-1.72773e-15 -0.40145 -0.162771)
(-2.27331e-15 -0.612661 -0.147998)
(-1.24318e-15 -0.434212 -0.066609)
(-1.17394e-15 -0.0195629 -0.104846)
(-2.26515e-15 0.04245 -0.0716783)
(-2.06631e-15 -0.285867 -0.0821639)
(-3.54613e-15 -0.671734 -0.0276354)
(-1.50423e-15 -0.10986 -0.0306662)
(-2.13565e-15 -0.0364734 -0.0145649)
(-2.40521e-15 -0.571862 -0.103035)
(-2.38337e-15 -0.673603 -0.0613449)
(-3.83489e-15 0.1242 -0.0973024)
(-4.62677e-15 0.224734 -0.104076)
(-2.262e-15 0.00124196 -0.279412)
(-2.77993e-15 -0.841506 -0.185662)
(-2.50055e-15 -0.78518 -0.166282)
(-3.87498e-15 0.220073 -0.0979524)
(-1.84209e-15 0.152649 -0.174482)
(-1.07551e-15 0.0274261 -0.26436)
(-1.39396e-15 -1.05053 -0.219035)
(-9.71922e-16 -0.293284 -0.226366)
(-1.34837e-15 0.622911 -0.119886)
(-9.83647e-16 0.284445 -0.253839)
(-1.97233e-15 -1.17523 -0.246197)
(-1.82563e-15 -0.230125 -0.171879)
(1.08561e-15 0.368402 -0.32567)
(-1.98162e-15 0.696974 -0.265064)
(-2.30135e-15 -0.171351 -0.306107)
(-1.55288e-15 -0.691211 -0.298155)
(-1.73885e-15 -0.257478 -0.251633)
(-4.44102e-16 0.257087 -0.286166)
(-8.60658e-16 0.465574 -0.192659)
(-2.93262e-15 0.140822 -0.240811)
(-6.64579e-16 -0.000908232 -0.173449)
(-8.3136e-16 0.406187 -0.2011)
(3.51991e-16 0.641125 -0.178146)
(-1.2895e-15 0.142669 -0.152453)
(-1.28561e-15 0.156469 -0.172805)
(-1.35919e-15 0.594861 -0.19241)
(-1.01883e-15 0.665685 -0.154161)
(-1.25386e-16 0.764634 -0.172538)
(-1.3035e-16 0.434725 -0.145777)
(-1.03944e-15 0.599347 -0.131811)
(-1.72828e-15 0.972856 -0.117116)
(-9.88106e-16 0.799196 -0.0868894)
(-6.15017e-16 1.06111 -0.105495)
(-1.56813e-15 0.773875 -0.0705331)
(-1.82874e-15 1.09605 -0.0818512)
(-1.7613e-15 1.3986 -0.121565)
(-1.2365e-15 0.994607 -0.0812053)
(-1.68944e-15 1.26547 -0.109696)
(-1.64192e-15 1.65569 -0.168577)
(-7.92197e-16 1.22868 -0.116754)
(-9.95678e-16 1.73761 -0.191958)
(-7.1206e-16 1.30728 -0.130607)
(-7.97589e-16 1.67862 -0.192685)
(-9.8655e-16 2.10829 -0.265828)
(-6.95891e-16 1.53494 -0.176559)
(-9.3008e-16 2.23128 -0.284171)
(-6.89209e-16 1.69882 -0.193237)
(-1.25953e-15 2.14596 -0.282831)
(-6.60433e-16 2.58386 -0.369457)
(-4.08945e-16 1.95032 -0.247785)
(-4.76064e-16 2.45809 -0.348663)
(-7.4844e-16 3.01229 -0.440707)
(-4.73423e-16 2.1578 -0.306935)
(-6.39921e-16 3.2257 -0.462473)
(-4.52125e-16 2.40983 -0.324978)
(-6.10788e-16 3.25704 -0.477466)
(-3.47446e-15 -0.717254 16.205)
(-3.48064e-15 -0.81505 16.2213)
(-3.48675e-15 -0.85268 16.2271)
(-3.49474e-15 -0.888916 16.2338)
(-3.50438e-15 -0.920357 16.2398)
(-3.51617e-15 -0.946398 16.2452)
(-3.53012e-15 -0.967856 16.2484)
(-3.5462e-15 -0.984642 16.2473)
(-3.56411e-15 -0.997224 16.2389)
(-3.58322e-15 -1.00609 16.2186)
(-3.60256e-15 -1.01204 16.18)
(-3.62053e-15 -1.01579 16.1145)
(-3.6347e-15 -1.01774 16.0101)
(-3.64143e-15 -1.01816 15.8507)
(-3.63559e-15 -1.01667 15.6152)
(-3.60998e-15 -1.01209 15.2759)
(-3.55472e-15 -1.00191 14.798)
(-3.45643e-15 -0.981451 14.1389)
(-3.2972e-15 -0.943132 13.2494)
(-3.05366e-15 -0.875337 12.0798)
(-2.69683e-15 -0.76211 10.5988)
(-2.19447e-15 -0.586208 8.83831)
(-1.52206e-15 -0.342726 6.99417)
(-6.98642e-16 -0.0829734 5.58753)
(5.773e-17 -0.0231386 5.37928)
(3.25734e-16 -0.256822 6.02504)
(2.21184e-16 -0.59939 6.35803)
(8.22893e-17 -0.859773 6.16748)
(5.6339e-17 -0.979381 5.88508)
(1.14277e-16 -1.04758 5.80159)
(1.64929e-16 -1.19779 5.92499)
(1.75973e-16 -1.39379 6.12113)
(1.6978e-16 -1.60049 6.3145)
(1.70691e-16 -1.79101 6.55255)
(1.78574e-16 -2.01191 6.82103)
(1.79189e-16 -2.19023 7.00801)
(1.67077e-16 -2.33147 6.99137)
(1.45719e-16 -2.49224 6.85326)
(1.2324e-16 -2.83512 6.93486)
(1.02306e-16 -3.23608 7.37102)
(3.93541e-17 -3.83409 7.94149)
(-9.77983e-17 -4.31501 8.71487)
(-3.31606e-16 -5.20008 9.51277)
(-7.02917e-16 -6.28112 10.4606)
(-1.25897e-15 -7.42846 11.4924)
(-2.03042e-15 -8.60879 12.6172)
(-2.98637e-15 -9.85836 13.8492)
(-3.97915e-15 -11.1473 15.1169)
(-4.79307e-15 -12.3689 16.3054)
(-5.27931e-15 -13.4816 17.3423)
(-5.46642e-15 -14.567 18.2729)
(-5.51787e-15 -15.6794 19.1186)
(-5.53213e-15 -16.5379 19.635)
(-5.39058e-15 -16.4767 19.3063)
(-4.83077e-15 -14.8029 17.5197)
(-3.67145e-15 -11.3562 13.7702)
(-2.10662e-15 -6.98548 8.49988)
(-9.27058e-16 -3.04614 4.13789)
(-8.20443e-16 -0.226576 1.70728)
(-9.194e-16 -0.0900366 0.138187)
(-7.83367e-16 -0.367768 0.6635)
(-7.53766e-16 -0.311747 0.364631)
(-6.84205e-16 -0.285026 0.666228)
(-6.50165e-16 -0.123307 0.629224)
(-6.50896e-16 -0.163194 0.477519)
(-6.46023e-16 -0.217736 0.45006)
(-6.42816e-16 -0.205516 0.503347)
(-6.37662e-16 -0.473101 0.402044)
(-6.19056e-16 -0.830931 0.150686)
(-5.94121e-16 -1.32612 -0.167385)
(-5.5179e-16 -1.47851 -0.481536)
(-5.21639e-16 -1.54468 -0.842436)
(-5.0469e-16 -1.7903 -1.20721)
(-4.93771e-16 -2.13319 -1.45675)
(-4.95898e-16 -2.18692 -1.71328)
(-5.10024e-16 -1.79572 -1.82722)
(-5.24635e-16 -1.06483 -1.83589)
(-5.37237e-16 0.315163 -1.87768)
(-4.89802e-16 2.00532 -1.53513)
(-3.49219e-15 -0.79849 16.198)
(-3.50079e-15 -0.889279 16.2327)
(-3.51e-15 -0.910025 16.2379)
(-3.52055e-15 -0.931464 16.2399)
(-3.53267e-15 -0.947394 16.236)
(-3.5462e-15 -0.957891 16.225)
(-3.56055e-15 -0.964408 16.2029)
(-3.57493e-15 -0.967113 16.1651)
(-3.58798e-15 -0.966533 16.1048)
(-3.59779e-15 -0.962988 16.0135)
(-3.60162e-15 -0.956589 15.8796)
(-3.59566e-15 -0.947097 15.6887)
(-3.57468e-15 -0.933465 15.4221)
(-3.53163e-15 -0.913813 15.0569)
(-3.45725e-15 -0.88507 14.5653)
(-3.33948e-15 -0.84268 13.9155)
(-3.16307e-15 -0.780063 13.074)
(-2.90959e-15 -0.688564 12.0114)
(-2.55898e-15 -0.558857 10.7167)
(-2.09462e-15 -0.38602 9.22574)
(-1.51655e-15 -0.183734 7.66972)
(-8.69589e-16 -0.00837492 6.33585)
(-2.77228e-16 0.0319933 5.62209)
(9.64478e-17 -0.1433 5.66838)
(2.29879e-16 -0.414042 6.01506)
(2.23301e-16 -0.580211 6.25105)
(1.30301e-16 -0.717133 6.23943)
(6.91436e-17 -0.839451 6.01614)
(9.36398e-17 -0.936553 5.85632)
(1.47556e-16 -1.05376 5.90129)
(1.73475e-16 -1.23097 6.07253)
(1.7386e-16 -1.41424 6.26119)
(1.70196e-16 -1.60506 6.45279)
(1.73923e-16 -1.80013 6.68373)
(1.79036e-16 -2.00579 6.90653)
(1.74711e-16 -2.14289 7.00454)
(1.59288e-16 -2.24216 6.92487)
(1.38055e-16 -2.45055 6.85156)
(1.17178e-16 -2.89842 7.06839)
(8.70268e-17 -3.37004 7.55142)
(7.04559e-18 -3.92078 8.1228)
(-1.52277e-16 -4.49554 8.89285)
(-4.12815e-16 -5.44619 9.74271)
(-8.17454e-16 -6.54053 10.7135)
(-1.41246e-15 -7.68129 11.7494)
(-2.21899e-15 -8.86406 12.8785)
(-3.18469e-15 -10.1169 14.1055)
(-4.14721e-15 -11.3899 15.346)
(-4.90022e-15 -12.5863 16.4912)
(-5.32595e-15 -13.6939 17.5009)
(-5.48172e-15 -14.794 18.4339)
(-5.52719e-15 -15.8704 19.2643)
(-5.52539e-15 -16.5532 19.6733)
(-5.32644e-15 -16.156 19.1011)
(-4.66553e-15 -14.0558 16.9438)
(-3.4044e-15 -10.269 12.842)
(-1.84702e-15 -5.8883 7.56115)
(-8.41272e-16 -2.21142 3.37267)
(-8.70382e-16 -0.185225 0.608478)
(-9.20966e-16 -0.172886 0.250669)
(-7.46516e-16 -0.550279 0.894722)
(-7.18624e-16 -0.544748 0.633121)
(-6.71977e-16 -0.371058 0.729797)
(-6.48244e-16 -0.220779 0.629492)
(-6.49475e-16 -0.212754 0.542838)
(-6.44218e-16 -0.207508 0.536052)
(-6.41207e-16 -0.155352 0.568287)
(-6.35608e-16 -0.371826 0.452054)
(-6.18075e-16 -0.692875 0.21491)
(-5.943e-16 -1.15849 -0.107537)
(-5.53509e-16 -1.27636 -0.427737)
(-5.23522e-16 -1.31471 -0.789951)
(-5.05931e-16 -1.54922 -1.16414)
(-4.94437e-16 -1.91044 -1.44416)
(-4.95109e-16 -2.01525 -1.7201)
(-5.07675e-16 -1.67749 -1.85754)
(-5.21315e-16 -0.997073 -1.87904)
(-5.34424e-16 0.268482 -1.83866)
(-4.82058e-16 1.70042 -1.40392)
(-3.52465e-15 -0.79966 16.1947)
(-3.5331e-15 -0.878532 16.2143)
(-3.54267e-15 -0.892788 16.2021)
(-3.55274e-15 -0.909675 16.1804)
(-3.56266e-15 -0.920716 16.1407)
(-3.57161e-15 -0.92563 16.081)
(-3.57773e-15 -0.925571 15.9925)
(-3.57874e-15 -0.920317 15.8661)
(-3.57141e-15 -0.909786 15.6899)
(-3.55147e-15 -0.893553 15.449)
(-3.51329e-15 -0.870672 15.1258)
(-3.4496e-15 -0.839406 14.6996)
(-3.35117e-15 -0.797044 14.1466)
(-3.20669e-15 -0.740353 13.4419)
(-3.00276e-15 -0.664616 12.5619)
(-2.72455e-15 -0.564969 11.4908)
(-2.35805e-15 -0.437709 10.2327)
(-1.8956e-15 -0.285053 8.83331)
(-1.34741e-15 -0.12439 7.41196)
(-7.614e-16 0.0013323 6.19308)
(-2.40243e-16 0.0302019 5.4712)
(9.24199e-17 -0.069141 5.39349)
(2.20464e-16 -0.239881 5.69678)
(2.41456e-16 -0.408315 6.01577)
(2.05948e-16 -0.576328 6.21546)
(1.34908e-16 -0.693396 6.21844)
(8.42211e-17 -0.767971 6.0528)
(9.16731e-17 -0.854981 5.89489)
(1.369e-16 -0.971646 5.89008)
(1.71735e-16 -1.12334 6.04619)
(1.76752e-16 -1.2966 6.24593)
(1.7201e-16 -1.46231 6.42782)
(1.72163e-16 -1.64256 6.62302)
(1.76714e-16 -1.83518 6.84061)
(1.77289e-16 -2.00822 7.00564)
(1.67715e-16 -2.10615 7.01099)
(1.4985e-16 -2.22678 6.87752)
(1.29407e-16 -2.53114 6.87727)
(1.07144e-16 -3.0326 7.2437)
(6.32527e-17 -3.48572 7.79297)
(-3.87953e-17 -4.02583 8.36913)
(-2.26242e-16 -4.68119 9.13283)
(-5.21301e-16 -5.65914 10.0162)
(-9.68489e-16 -6.76839 11.0045)
(-1.61101e-15 -7.92402 12.0516)
(-2.45552e-15 -9.12802 13.1915)
(-3.42438e-15 -10.3924 14.4128)
(-4.34216e-15 -11.6535 15.6207)
(-5.01891e-15 -12.8256 16.718)
(-5.37556e-15 -13.919 17.6968)
(-5.49904e-15 -15.0098 18.6232)
(-5.5373e-15 -16.0237 19.4193)
(-5.50881e-15 -16.52 19.6909)
(-5.22915e-15 -15.7894 18.822)
(-4.43816e-15 -13.2656 16.2049)
(-3.06531e-15 -9.13616 11.6664)
(-1.55151e-15 -4.71261 6.34239)
(-7.66413e-16 -1.28219 2.34336)
(-9.15447e-16 0.172501 0.00506255)
(-9.05233e-16 -0.344171 0.322545)
(-7.12802e-16 -0.492876 1.10212)
(-6.86578e-16 -0.561176 0.874647)
(-6.54747e-16 -0.409345 0.789741)
(-6.44996e-16 -0.255755 0.613915)
(-6.46923e-16 -0.245211 0.580943)
(-6.42804e-16 -0.246337 0.59835)
(-6.39046e-16 -0.198262 0.603754)
(-6.33059e-16 -0.374593 0.472492)
(-6.16787e-16 -0.67121 0.251377)
(-5.9435e-16 -1.11225 -0.0627021)
(-5.55381e-16 -1.22474 -0.372821)
(-5.25733e-16 -1.26488 -0.719109)
(-5.07472e-16 -1.49466 -1.09839)
(-4.95321e-16 -1.84704 -1.40713)
(-4.94347e-16 -1.96819 -1.69781)
(-5.05041e-16 -1.65947 -1.8577)
(-5.17479e-16 -1.00905 -1.9006)
(-5.31164e-16 0.118824 -1.77631)
(-4.78625e-16 1.50484 -1.35224)
(-3.56425e-15 -0.793134 16.117)
(-3.56807e-15 -0.865041 16.1014)
(-3.57047e-15 -0.873226 16.0416)
(-3.5719e-15 -0.885279 15.9629)
(-3.56835e-15 -0.890312 15.8441)
(-3.55848e-15 -0.887708 15.6828)
(-3.53827e-15 -0.878014 15.4639)
(-3.50321e-15 -0.860344 15.173)
(-3.44735e-15 -0.833797 14.7926)
(-3.36332e-15 -0.797055 14.303)
(-3.24213e-15 -0.748291 13.6836)
(-3.07321e-15 -0.685015 12.9143)
(-2.84487e-15 -0.604593 11.9796)
(-2.54562e-15 -0.50514 10.8755)
(-2.16642e-15 -0.386153 9.61932)
(-1.70646e-15 -0.252907 8.26841)
(-1.18317e-15 -0.122021 6.94318)
(-6.46079e-16 -0.0259505 5.83991)
(-1.84381e-16 -0.00448784 5.18972)
(1.09764e-16 -0.072365 5.08982)
(2.29597e-16 -0.192733 5.33943)
(2.54627e-16 -0.313908 5.64711)
(2.3676e-16 -0.424804 5.9164)
(1.91716e-16 -0.531165 6.10413)
(1.40632e-16 -0.632309 6.14628)
(1.02613e-16 -0.704038 6.05718)
(9.80999e-17 -0.774441 5.93159)
(1.30748e-16 -0.878584 5.90218)
(1.67079e-16 -1.01077 6.01809)
(1.80257e-16 -1.15607 6.22549)
(1.75389e-16 -1.31123 6.42876)
(1.71982e-16 -1.46977 6.60934)
(1.74943e-16 -1.64202 6.80181)
(1.77534e-16 -1.81777 6.98468)
(1.72865e-16 -1.9605 7.07309)
(1.59249e-16 -2.06325 6.99628)
(1.40531e-16 -2.2342 6.85464)
(1.20501e-16 -2.60086 6.96054)
(9.28307e-17 -3.11996 7.45882)
(3.21085e-17 -3.60723 8.05665)
(-9.43052e-17 -4.16184 8.634)
(-3.12146e-16 -4.88142 9.39977)
(-6.44981e-16 -5.86688 10.3101)
(-1.13797e-15 -6.96709 11.3108)
(-1.82846e-15 -8.1224 12.37)
(-2.70515e-15 -9.33212 13.5188)
(-3.6662e-15 -10.5955 14.7279)
(-4.52897e-15 -11.839 15.8974)
(-5.12613e-15 -12.9929 16.948)
(-5.41842e-15 -14.0809 17.9018)
(-5.51564e-15 -15.1573 18.8187)
(-5.54534e-15 -16.0853 19.5606)
(-5.47925e-15 -16.374 19.6582)
(-5.10295e-15 -15.3209 18.4437)
(-4.17294e-15 -12.4484 15.3323)
(-2.70767e-15 -8.12961 10.3849)
(-1.28061e-15 -3.83841 5.07115)
(-7.17172e-16 -0.793988 1.40876)
(-9.11071e-16 -0.0212246 0.454458)
(-8.65587e-16 -0.389538 0.544634)
(-6.83899e-16 -0.421619 1.2543)
(-6.61967e-16 -0.460178 0.992698)
(-6.42466e-16 -0.325251 0.791031)
(-6.42774e-16 -0.230874 0.624751)
(-6.43528e-16 -0.209644 0.618929)
(-6.41191e-16 -0.207951 0.640194)
(-6.37578e-16 -0.173259 0.634164)
(-6.30363e-16 -0.317788 0.497763)
(-6.15364e-16 -0.606984 0.288031)
(-5.94225e-16 -1.02871 -0.0188101)
(-5.57077e-16 -1.13867 -0.319895)
(-5.27934e-16 -1.1909 -0.648276)
(-5.09102e-16 -1.42949 -1.02655)
(-4.96321e-16 -1.77523 -1.35819)
(-4.93803e-16 -1.90724 -1.66157)
(-5.02621e-16 -1.62978 -1.84146)
(-5.13805e-16 -1.02162 -1.89631)
(-5.2816e-16 -0.00816685 -1.72549)
(-4.73717e-16 1.30238 -1.34059)
(-3.57686e-15 -0.795333 15.8089)
(-3.56724e-15 -0.860461 15.7293)
(-3.55006e-15 -0.861245 15.5793)
(-3.5285e-15 -0.866894 15.3941)
(-3.49196e-15 -0.862544 15.1335)
(-3.43913e-15 -0.848158 14.7969)
(-3.36276e-15 -0.823103 14.3631)
(-3.25552e-15 -0.786043 13.8148)
(-3.10848e-15 -0.735635 13.1334)
(-2.91185e-15 -0.670476 12.3039)
(-2.65553e-15 -0.589121 11.3187)
(-2.33086e-15 -0.491114 10.1842)
(-1.9339e-15 -0.378465 8.93274)
(-1.47093e-15 -0.257529 7.63617)
(-9.67333e-16 -0.143003 6.4214)
(-4.77477e-16 -0.0599896 5.46956)
(-8.25295e-17 -0.0350353 4.95934)
(1.52692e-16 -0.0729312 4.91945)
(2.44358e-16 -0.14779 5.14435)
(2.64127e-16 -0.230248 5.41053)
(2.50664e-16 -0.310288 5.66175)
(2.16339e-16 -0.383518 5.87556)
(1.78495e-16 -0.447617 6.00945)
(1.46759e-16 -0.513691 6.05955)
(1.23702e-16 -0.591513 6.03609)
(1.17591e-16 -0.663973 5.97171)
(1.34635e-16 -0.753058 5.95047)
(1.62463e-16 -0.878931 6.03623)
(1.79596e-16 -1.01695 6.21546)
(1.79224e-16 -1.15291 6.42905)
(1.7355e-16 -1.30142 6.62321)
(1.73671e-16 -1.46256 6.80249)
(1.76841e-16 -1.62549 6.97517)
(1.75556e-16 -1.77331 7.097)
(1.66167e-16 -1.88615 7.0988)
(1.50172e-16 -2.00541 6.96919)
(1.31523e-16 -2.23591 6.87438)
(1.10126e-16 -2.6549 7.10622)
(7.31366e-17 -3.19194 7.70219)
(-6.82343e-18 -3.73709 8.32431)
(-1.59235e-16 -4.33132 8.90584)
(-4.08994e-16 -5.08938 9.68371)
(-7.81659e-16 -6.07642 10.6171)
(-1.32165e-15 -7.16561 11.6277)
(-2.05737e-15 -8.32156 12.6983)
(-2.95737e-15 -9.53741 13.851)
(-3.8988e-15 -10.7981 15.0397)
(-4.69873e-15 -12.0251 16.1656)
(-5.21745e-15 -13.1675 17.1729)
(-5.45368e-15 -14.2557 18.1082)
(-5.53115e-15 -15.312 19.0116)
(-5.54922e-15 -16.137 19.6761)
(-5.43352e-15 -16.2007 19.5586)
(-4.94721e-15 -14.8219 17.9508)
(-3.8783e-15 -11.6322 14.3314)
(-2.35135e-15 -7.20473 9.03685)
(-1.05035e-15 -3.15494 3.82536)
(-6.94663e-16 -0.653237 0.712511)
(-8.84792e-16 -0.249948 0.853372)
(-8.11756e-16 -0.369205 0.89028)
(-6.60839e-16 -0.443811 1.3501)
(-6.45963e-16 -0.348997 1.02449)
(-6.39431e-16 -0.199342 0.782483)
(-6.416e-16 -0.160242 0.679124)
(-6.38369e-16 -0.145441 0.689778)
(-6.3779e-16 -0.143101 0.676812)
(-6.3576e-16 -0.134152 0.666183)
(-6.27674e-16 -0.24859 0.538629)
(-6.13824e-16 -0.531215 0.331194)
(-5.93919e-16 -0.940371 0.0242093)
(-5.58528e-16 -1.05625 -0.268621)
(-5.30039e-16 -1.11353 -0.580151)
(-5.10764e-16 -1.36372 -0.952619)
(-4.97403e-16 -1.70553 -1.3001)
(-4.93498e-16 -1.84387 -1.61524)
(-5.00527e-16 -1.59811 -1.81372)
(-5.10434e-16 -1.01992 -1.87632)
(-5.25487e-16 -0.0638826 -1.70234)
(-4.71197e-16 1.17621 -1.27274)
(-3.49878e-15 -0.790403 15.0687)
(-3.45875e-15 -0.841736 14.8717)
(-3.40203e-15 -0.830089 14.5814)
(-3.33384e-15 -0.824108 14.2279)
(-3.23475e-15 -0.803692 13.7574)
(-3.1038e-15 -0.770599 13.1738)
(-2.9303e-15 -0.723036 12.4556)
(-2.70543e-15 -0.660159 11.5941)
(-2.42057e-15 -0.58147 10.5891)
(-2.06988e-15 -0.487948 9.45816)
(-1.65431e-15 -0.382633 8.24726)
(-1.18784e-15 -0.272733 7.04354)
(-7.05043e-16 -0.171869 5.98115)
(-2.66292e-16 -0.0997371 5.22569)
(5.50825e-17 -0.0732325 4.89842)
(2.21872e-16 -0.0911151 4.95261)
(2.73733e-16 -0.133834 5.17455)
(2.77343e-16 -0.183802 5.4012)
(2.59942e-16 -0.236315 5.61204)
(2.29264e-16 -0.288109 5.79704)
(1.98571e-16 -0.333535 5.92668)
(1.74539e-16 -0.373061 6.00299)
(1.56139e-16 -0.413996 6.04021)
(1.44172e-16 -0.467619 6.04672)
(1.40763e-16 -0.541088 6.03532)
(1.47815e-16 -0.625949 6.04067)
(1.63437e-16 -0.736001 6.11334)
(1.77013e-16 -0.875827 6.26226)
(1.80203e-16 -1.01607 6.45532)
(1.76014e-16 -1.14995 6.65382)
(1.73677e-16 -1.29932 6.83313)
(1.75723e-16 -1.46042 6.99556)
(1.76436e-16 -1.60842 7.12181)
(1.7068e-16 -1.72514 7.16418)
(1.57915e-16 -1.8138 7.09168)
(1.40989e-16 -1.95244 6.95572)
(1.2216e-16 -2.24109 6.95199)
(9.65611e-17 -2.70697 7.30563)
(4.67246e-17 -3.26526 7.96011)
(-5.45487e-17 -3.8749 8.58994)
(-2.3454e-16 -4.50828 9.18591)
(-5.17803e-16 -5.28625 9.98274)
(-9.31967e-16 -6.27325 10.9335)
(-1.51889e-15 -7.36276 11.9515)
(-2.29499e-15 -8.53111 13.0308)
(-3.20782e-15 -9.76444 14.1808)
(-4.11807e-15 -11.0274 15.3413)
(-4.84943e-15 -12.2444 16.4211)
(-5.29339e-15 -13.3816 17.3906)