/*--------------------------------*- C++ -*----------------------------------*\
| =========                 |                                                 |
| \\      /  F ield         | OpenFOAM: The Open Source CFD Toolbox           |
|  \\    /   O peration     | Version:  4.1                                   |
|   \\  /    A nd           | Web:      www.OpenFOAM.org                      |
|    \\/     M anipulation  |                                                 |
\*---------------------------------------------------------------------------*/
FoamFile
{
    version     2.0;
    format      ascii;
    class       volScalarField;
    location    "28";
    object      p;
}
// * * * * * * * * * * * * * * * * * * * * * * * * * * * * * * * * * * * * * //

dimensions      [0 2 -2 0 0 0 0];

internalField   nonuniform List<scalar> 
6785
(
536.271
482.874
431.043
382.631
337.74
295.724
256.369
219.365
184.271
150.907
119.965
91.8261
62.7972
27.8783
-1.27387
69.8369
47.576
41.8173
38.1071
32.633
26.9255
21.7726
17.3839
13.9
11.4412
10.2499
10.7515
12.848
14.7195
14.9797
-32.9446
-39.5877
-33.8207
-29.6739
-26.5833
-22.988
-19.1018
-15.1645
-11.2602
-7.54442
-4.19897
-1.13197
1.94477
4.59754
5.83179
13.1906
10.7724
15.365
15.689
15.7424
15.9574
15.8681
15.4906
14.9088
14.1495
13.1925
12.083
11.1725
11.0202
11.3307
29.6235
27.29
28.8431
26.7446
25.3251
24.0811
22.6705
21.2881
20.0301
18.9386
18.0371
17.3242
16.8463
16.8134
17.0583
20.4077
18.3827
19.3544
18.1335
17.9285
17.911
17.8216
17.8533
18.0075
18.2497
18.5678
18.9297
19.2487
19.5051
19.6798
16.965
15.8054
16.8846
16.5568
16.938
17.3275
17.622
17.9683
18.321
18.6422
18.9287
19.1798
19.3561
19.4359
19.451
18.6914
18.1272
18.9666
18.726
18.9114
19.0136
19.0273
19.0631
19.0792
19.0668
19.0363
19.0027
18.9646
18.916
18.8658
19.0982
18.7619
19.2404
18.9374
18.9522
18.8994
18.803
18.7362
18.6631
18.5867
18.5135
18.4483
18.3922
18.3397
18.2839
17.8892
17.6679
17.9531
17.7221
17.742
17.7095
17.6566
17.6281
17.5929
17.5568
17.5212
17.484
17.444
17.3966
17.3301
16.8285
16.6819
16.8662
16.7062
16.7251
16.6899
16.6391
16.6011
16.5519
16.4988
16.4431
16.3837
16.3213
16.2548
16.167
15.9005
15.8387
15.935
15.7557
15.7057
15.616
15.5203
15.4311
15.332
15.2312
15.1294
15.0272
14.9292
14.8405
14.7359
16.8028
16.6705
16.5009
16.1122
15.8382
15.527
15.2038
14.8931
14.59
14.3055
14.0421
13.803
13.5963
13.4342
13.2857
14.2943
14.7444
15.0932
14.8947
14.5067
14.0464
13.6148
13.2179
12.8299
12.4432
12.0588
11.679
11.3113
10.9748
10.6427
31.427
31.0302
30.1864
27.5895
24.0092
20.4287
17.1261
14.1757
11.505
9.22696
7.27879
5.65389
4.3653
3.40628
2.6055
32.4128
31.2844
31.9783
30.9488
30.2056
28.5381
28.8814
27.2171
26.0125
24.4953
24.8163
22.3397
19.4978
20.7557
18.5346
16.7179
16.3722
17.6722
14.3161
12.1636
14.8688
12.5348
10.5328
11.6132
14.3183
11.4129
9.41421
11.1578
14.6336
11.6534
10.4642
14.7748
13.3
11.729
13.0822
16.8006
14.8009
13.9825
17.895
17.0736
16.0343
17.0225
20.1206
19.1892
18.3785
19.2798
21.9827
21.2392
20.7539
22.9202
22.7558
22.4458
22.871
24.5208
24.3282
24.1357
24.5367
26.2216
26.2397
26.1382
27.859
28.0736
27.9122
27.7758
28.6837
28.7453
28.4625
28.6915
28.4679
28.9732
29.2254
26.4837
25.5906
25.8145
22.8794
17.6056
19.6806
13.1036
-3.83883
1.97436
6.02015
6.43466
7.16112
2.57485
5.1813
8.68432
9.62305
9.96478
9.96387
10.6425
12.5108
14.125
15.4254
10.0263
10.6942
12.5799
14.0997
14.3081
14.5988
14.7396
15.1981
18.8766
15.6673
15.8976
15.7908
16.4407
17.7276
18.4704
18.4979
18.1305
17.7694
22.5745
20.6031
20.4201
19.8267
19.4468
20.2586
21.1697
20.3372
18.7009
21.649
23.0239
23.6114
23.4495
22.4379
21.5179
20.6579
19.8786
19.0429
25.1025
24.5292
22.4838
21.6881
20.8881
19.5937
17.6888
14.7717
12.7165
18.4243
20.5167
17.6322
15.5126
12.7147
9.27317
6.76644
5.0359
3.21876
2.76307
2.98186
6.38345
4.46018
4.12695
3.58924
1.69698
-1.12865
-1.67922
-0.316043
-3.75148
3.45317
2.7672
2.06729
3.97701
4.36792
5.05219
5.54463
6.05156
6.438
6.59833
6.80546
6.89652
7.00172
7.06552
6.98928
7.00032
6.86976
6.88342
6.77186
6.48577
6.36851
6.12048
6.1796
5.91134
5.41272
5.58709
5.24531
4.73041
4.56613
4.28794
4.77672
4.2236
3.52751
3.40335
3.19555
4.01257
3.40181
2.34793
3.30807
2.76845
1.92662
1.8588
1.69817
3.08085
2.22222
1.12793
1.1078
1.04241
2.67471
1.86136
0.368457
1.97264
1.33778
0.26468
0.274591
0.2003
2.19021
1.15662
-0.185888
-0.14428
-0.119443
1.99733
1.07098
-0.673735
1.29286
0.599286
-0.60807
-0.574266
-0.615772
1.69434
0.537867
-0.960119
-0.915889
-0.869513
1.50012
0.457782
-1.47097
0.703868
-0.102476
-1.42756
-1.49034
-1.31143
0.00456959
0.0170895
0.0221293
0.0244882
0.0249508
0.025101
0.0236129
0.007297
-0.0392176
-0.0543592
-0.0303336
0.0403162
0.109525
0.0499229
-0.00248846
0.0328872
0.0444602
-0.0486307
-0.0858607
-0.0750235
-0.106598
-0.0678684
-0.0472556
-0.00674688
0.0045262
-0.107105
-0.0909446
-0.0317871
0.0240827
0.0460376
0.0101784
0.0417038
-0.0169702
-0.0221579
0.00609048
0.086666
0.138873
0.23336
0.261402
0.280981
0.217437
0.19931
0.171435
0.155028
0.0778762
0.0789552
0.0882093
0.0175082
0.0164995
0.0144319
0.0211846
0.0335914
0.0466008
0.0677954
0.0715969
-0.313055
0.0878292
0.0790602
0.026472
0.0159366
0.0109806
0.0119388
0.013612
0.00837905
0.0162535
0.0180951
0.0298779
0.0520091
0.0763891
0.0859325
0.0898275
0.0867343
0.0721814
0.0618966
0.0421276
0.0345464
0.000692424
0.00412656
-0.0125624
0.00704897
0.0339256
0.0514426
0.065239
0.076923
0.0887941
0.0991432
0.088147
0.0171209
-0.007542
-0.00873751
-0.0135399
0.0663008
0.048566
-0.0215981
-0.0118895
0.0116011
-0.0964793
-0.150061
-0.131355
-0.166215
-0.119167
-0.0844947
-0.02595
0.0165547
-0.132169
-0.12237
-0.0415913
0.0249737
0.0566213
0.01534
0.12569
0.0296765
-0.0760693
-0.0429982
0.0553708
0.122444
0.266385
0.312673
0.337061
0.258839
0.221266
0.19388
0.171286
0.0994835
0.0809506
0.0993249
0.0286219
0.0155854
0.0201734
0.0698011
0.125254
0.132095
0.119226
0.117539
-0.48722
0.110137
0.153083
0.0624134
0.042838
0.0297337
0.0258024
0.0318487
0.0242884
0.0318573
0.0364639
0.0517053
0.0757876
0.101599
0.114567
0.122244
0.123379
0.106575
0.0821422
0.0328969
0.0313897
0.00476592
0.0202074
-0.0034902
0.0105949
0.0432411
0.0652871
0.0827486
0.0969132
0.109232
0.11607
0.0990408
0.0299669
-0.00277194
-0.00843762
-0.0538241
0.0138116
0.00820007
-0.0558624
-0.0653002
-0.0446816
-0.148813
-0.201632
-0.188639
-0.209978
-0.166525
-0.124825
-0.0714401
-0.0268841
-0.1486
-0.120382
-0.0388194
0.0232004
0.0671983
0.0277957
0.167678
0.091159
-0.00846235
0.0385611
0.128766
0.18086
0.296225
0.33938
0.339357
0.286401
0.229897
0.211617
0.164255
0.116829
0.0828643
0.105319
0.053304
0.0375013
0.0459435
0.106722
0.193646
0.202116
0.159224
0.175986
-0.297797
0.236163
0.229118
0.0974804
0.0695136
0.0475786
0.0413877
0.0475401
0.0401776
0.0448826
0.0510158
0.0683654
0.0955214
0.129217
0.151168
0.166651
0.169245
0.145458
0.10923
0.0342044
0.0229768
0.0059579
0.0279639
0.0294979
0.0143186
0.0502086
0.0742589
0.092995
0.106918
0.116741
0.116845
0.0917918
0.0299749
0.000402918
-0.00280575
-0.0731323
-0.0262311
-0.0247451
-0.0884832
-0.112729
-0.0912455
-0.186436
-0.245404
-0.236939
-0.250409
-0.211507
-0.163573
-0.110669
-0.0625544
-0.162128
-0.115049
-0.0353567
0.0259023
0.075273
0.0404114
0.178261
0.121511
0.0776856
0.137356
0.220373
0.255103
0.331721
0.373442
0.359323
0.322986
0.265033
0.244314
0.177484
0.14284
0.0933161
0.117135
0.0751434
0.0563559
0.0700661
0.145333
0.265466
0.270746
0.199045
0.238567
-0.076059
0.331847
0.288123
0.131165
0.0941322
0.0662242
0.0596244
0.0654642
0.0595419
0.0626628
0.0701935
0.0910375
0.123792
0.166776
0.196176
0.215794
0.213799
0.1789
0.135772
0.0452825
0.0199803
0.00950436
0.039978
0.0377802
0.0166154
0.0550997
0.0811684
0.101226
0.114999
0.122984
0.118455
0.0885501
0.0338147
0.00623816
-0.00170993
-0.0932086
-0.0624818
-0.0529201
-0.124606
-0.159684
-0.136014
-0.222797
-0.28642
-0.281033
-0.290174
-0.2559
-0.201953
-0.146029
-0.0910114
-0.172881
-0.116424
-0.0370659
0.0257001
0.0829909
0.0544331
0.189392
0.133003
0.140524
0.208197
0.29036
0.316419
0.366277
0.404581
0.387231
0.361086
0.304719
0.275408
0.198773
0.168454
0.108965
0.13398
0.098092
0.0767581
0.0946135
0.180227
0.332888
0.336692
0.236822
0.290085
0.0457789
0.37466
0.329903
0.161142
0.116576
0.0852076
0.0780567
0.0846128
0.0795743
0.0824882
0.0909491
0.115264
0.154125
0.20242
0.23561
0.255971
0.247628
0.202806
0.155312
0.0573227
0.0200387
0.0157497
0.04703
0.0894431
0.0180457
0.0589407
0.0873574
0.109024
0.12306
0.12995
0.122574
0.0897853
0.0403605
0.00984558
-0.00794155
-0.112005
-0.0961628
-0.0826959
-0.162403
-0.204771
-0.182062
-0.260498
-0.327681
-0.32446
-0.331388
-0.300864
-0.241815
-0.182354
-0.118879
-0.183917
-0.124509
-0.0426627
0.0237988
0.0907921
0.0679576
0.207285
0.146498
0.193354
0.266514
0.34941
0.372098
0.402796
0.435228
0.418039
0.395515
0.340616
0.302377
0.224001
0.193775
0.128312
0.153148
0.121139
0.0979001
0.119949
0.215791
0.40115
0.402727
0.276719
0.33904
0.117546
0.390108
0.35441
0.187266
0.137037
0.105072
0.0970721
0.104786
0.100203
0.103595
0.112697
0.139799
0.183658
0.234839
0.270716
0.291404
0.278027
0.225323
0.173008
0.0695315
0.0242807
0.0261818
0.0604402
0.0871323
0.0195449
0.062992
0.0940165
0.11744
0.131902
0.137931
0.128488
0.0927338
0.0461389
0.0100236
-0.0194591
-0.132406
-0.130167
-0.116221
-0.200159
-0.248532
-0.229643
-0.300001
-0.369281
-0.36731
-0.37216
-0.344023
-0.280552
-0.21748
-0.145546
-0.194457
-0.135443
-0.0499477
0.0209545
0.0983201
0.081171
0.224876
0.165314
0.249417
0.327325
0.408794
0.427842
0.441311
0.466538
0.448966
0.423447
0.372617
0.326326
0.250263
0.218674
0.150021
0.17391
0.144813
0.119547
0.14484
0.250521
0.469712
0.470757
0.322218
0.396294
0.193406
0.391943
0.362972
0.209654
0.154987
0.124805
0.116034
0.125079
0.121241
0.125708
0.135802
0.165537
0.213081
0.266966
0.305948
0.327303
0.310181
0.250316
0.191534
0.0828546
0.0325079
0.041037
0.0788275
0.111827
0.0213843
0.0674835
0.101129
0.126254
0.141129
0.146213
0.134903
0.0955797
0.0498582
0.00774449
-0.0341935
-0.154446
-0.165804
-0.153911
-0.238991
-0.293049
-0.28008
-0.342678
-0.411967
-0.411606
-0.413008
-0.386098
-0.318336
-0.250602
-0.171444
-0.203882
-0.146413
-0.0580046
0.017727
0.10538
0.0939405
0.238192
0.182847
0.308733
0.391696
0.470327
0.484827
0.482174
0.49938
0.480701
0.447657
0.402899
0.349663
0.277573
0.243295
0.173332
0.195575
0.169472
0.143126
0.171394
0.28799
0.542565
0.543237
0.375066
0.463867
0.286378
0.385197
0.3572
0.228449
0.171438
0.145098
0.135829
0.146207
0.143394
0.149393
0.161001
0.193703
0.244471
0.301557
0.34388
0.365722
0.345468
0.278601
0.21214
0.0990382
0.0451312
0.0593181
0.0911188
0.176128
0.0234201
0.072237
0.108547
0.135353
0.150638
0.154694
0.141841
0.0990182
0.0535822
0.00496258
-0.0501188
-0.177511
-0.202384
-0.194911
-0.278884
-0.338294
-0.3331
-0.387581
-0.454312
-0.456451
-0.453466
-0.426443
-0.354175
-0.280708
-0.196302
-0.210439
-0.155191
-0.0652818
0.0144527
0.111629
0.106567
0.247806
0.195579
0.367614
0.455482
0.530836
0.539863
0.522411
0.53118
0.511902
0.470404
0.432704
0.372742
0.30456
0.267194
0.196599
0.217746
0.195326
0.168092
0.198889
0.327355
0.618937
0.620751
0.43557
0.539021
0.389223
0.375748
0.339635
0.243241
0.185979
0.165105
0.155747
0.167514
0.166091
0.173834
0.187527
0.223604
0.277813
0.338322
0.383518
0.405073
0.381911
0.308425
0.233779
0.117469
0.0606724
0.0807232
0.111373
0.186286
0.0255936
0.0771062
0.116068
0.144565
0.160394
0.163466
0.14945
0.103875
0.0590411
0.00252001
-0.0662311
-0.202012
-0.240329
-0.238833
-0.320148
-0.384704
-0.389486
-0.435933
-0.497633
-0.503029
-0.495178
-0.466793
-0.389784
-0.309867
-0.221182
-0.215379
-0.162669
-0.0716497
0.0116453
0.11613
0.118325
0.254861
0.205278
0.426058
0.518111
0.590405
0.593749
0.562583
0.563376
0.544095
0.496394
0.463875
0.397368
0.331547
0.290769
0.21936
0.239931
0.222639
0.195628
0.229583
0.371658
0.698496
0.703805
0.503571
0.620016
0.496716
0.36813
0.314992
0.255011
0.199624
0.185665
0.176515
0.189733
0.189961
0.199432
0.215633
0.255476
0.313566
0.377527
0.424884
0.445587
0.419654
0.340385
0.257625
0.138913
0.0795974
0.104694
0.137073
0.216633
0.0279206
0.0822005
0.123935
0.154254
0.17085
0.173063
0.158383
0.111176
0.0667144
0.000704901
-0.0818435
-0.227178
-0.278588
-0.284262
-0.362299
-0.430961
-0.446658
-0.486315
-0.541359
-0.549971
-0.537144
-0.506197
-0.424687
-0.338039
-0.245245
-0.220067
-0.168804
-0.0758031
0.0104928
0.118948
0.129012
0.258274
0.214736
0.485638
0.580463
0.649345
0.645861
0.601468
0.595151
0.576678
0.526015
0.495179
0.423133
0.357299
0.313715
0.241225
0.26171
0.251284
0.22508
0.262783
0.419227
0.778552
0.791001
0.580104
0.707564
0.6056
0.367576
0.289423
0.264693
0.211997
0.205959
0.197376
0.212214
0.214323
0.225629
0.244751
0.288641
0.350903
0.418158
0.46693
0.486338
0.457616
0.373715
0.283216
0.162999
0.101645
0.131682
0.161834
0.276348
0.0304441
0.0874907
0.132048
0.164306
0.181938
0.183428
0.168333
0.120604
0.0748957
-0.0015432
-0.0972587
-0.253218
-0.317508
-0.331333
-0.405996
-0.478579
-0.504854
-0.539346
-0.58745
-0.598256
-0.580512
-0.545857
-0.460333
-0.366445
-0.268286
-0.226263
-0.173651
-0.0778122
0.0109257
0.121415
0.138631
0.256385
0.224968
0.547443
0.644167
0.7097
0.698671
0.64144
0.628048
0.611177
0.55992
0.527309
0.45069
0.382697
0.33673
0.262862
0.283027
0.281705
0.258038
0.300443
0.472303
0.860541
0.882333
0.666718
0.80355
0.71689
0.37572
0.268115
0.273724
0.224039
0.226701
0.219035
0.235641
0.239793
0.253028
0.275494
0.323644
0.39019
0.460531
0.510138
0.527813
0.49634
0.408959
0.311112
0.190232
0.127396
0.161064
0.190688
0.310955
0.033127
0.0929994
0.140526
0.174869
0.193762
0.194592
0.179199
0.13202
0.0813266
-0.00424556
-0.112599
-0.279505
-0.356395
-0.379059
-0.450764
-0.527637
-0.562527
-0.593536
-0.635168
-0.646589
-0.624189
-0.585044
-0.496037
-0.394392
-0.289712
-0.23322
-0.175721
-0.0774133
0.0125274
0.124032
0.146679
0.250703
0.235912
0.611247
0.709317
0.771543
0.751592
0.681392
0.660413
0.645318
0.595697
0.559636
0.478273
0.407723
0.359489
0.284673
0.303849
0.313908
0.294288
0.341882
0.529186
0.943041
0.976899
0.764799
0.909346
0.831533
0.393996
0.254361
0.282883
0.23531
0.247201
0.240767
0.259309
0.26572
0.281221
0.30747
0.3599
0.430614
0.503736
0.553674
0.568993
0.534805
0.444738
0.340271
0.219363
0.155465
0.192594
0.216832
0.38765
0.0359333
0.09857
0.149112
0.185617
0.205969
0.206164
0.1903
0.144299
0.0855938
-0.00657987
-0.128877
-0.30665
-0.396094
-0.427542
-0.49747
-0.578902
-0.620835
-0.650186
-0.686033
-0.696635
-0.669453
-0.625402
-0.532747
-0.42251
-0.310264
-0.23977
-0.175513
-0.0757724
0.0149514
0.126752
0.152631
0.243299
0.247682
0.677079
0.776757
0.836446
0.806904
0.723478
0.693474
0.680789
0.632429
0.59362
0.507271
0.433483
0.382566
0.307732
0.325119
0.348499
0.335043
0.388753
0.592296
1.02776
1.07591
0.875148
1.02687
0.952944
0.421974
0.248747
0.293766
0.246943
0.268304
0.263263
0.283915
0.29278
0.311002
0.341239
0.397915
0.472613
0.548214
0.598077
0.610539
0.573678
0.481354
0.371277
0.250478
0.18579
0.22561
0.24882
0.415856
0.0388315
0.104266
0.157962
0.196711
0.218647
0.218161
0.201659
0.157156
0.0882604
-0.00848266
-0.147296
-0.334035
-0.435586
-0.475145
-0.54526
-0.631014
-0.679002
-0.70793
-0.738357
-0.747372
-0.715158
-0.666119
-0.569092
-0.449683
-0.329678
-0.245322
-0.174339
-0.0734012
0.0180111
0.129583
0.156897
0.23363
0.260733
0.745217
0.846706
0.904382
0.863886
0.766773
0.726596
0.717554
0.66675
0.627373
0.537578
0.459183
0.405461
0.331897
0.347183
0.384977
0.379093
0.439997
0.6602
1.11354
1.17844
0.998309
1.15868
1.08326
0.459221
0.249785
0.306667
0.258735
0.289148
0.28577
0.308784
0.320378
0.341839
0.376257
0.437086
0.515477
0.593196
0.642676
0.651862
0.611998
0.517892
0.403337
0.282679
0.217086
0.259908
0.285869
0.470833
0.0418497
0.11004
0.166951
0.207981
0.231619
0.230411
0.212995
0.170361
0.0902535
-0.012236
-0.169389
-0.362034
-0.474744
-0.522373
-0.594842
-0.685081
-0.738374
-0.767769
-0.792841
-0.800297
-0.76259
-0.708033
-0.605656
-0.476438
-0.34878
-0.250815
-0.174722
-0.0711418
0.0217258
0.13316
0.160647
0.223914
0.275595
0.816458
0.920534
0.977132
0.924935
0.813907
0.762399
0.757435
0.700953
0.661068
0.569871
0.485674
0.428769
0.357561
0.370874
0.42318
0.426893
0.49708
0.735563
1.20331
1.28555
1.13505
1.30689
1.22679
0.502942
0.25761
0.32225
0.27176
0.310278
0.309003
0.334583
0.349256
0.374231
0.413038
0.478018
0.559766
0.639228
0.688095
0.693788
0.650331
0.554905
0.436719
0.316182
0.249599
0.294572
0.316448
0.563546
0.0450355
0.116101
0.176393
0.219771
0.245183
0.24318
0.224772
0.184358
0.091364
-0.0197073
-0.193963
-0.390677
-0.512609
-0.568707
-0.644974
-0.740204
-0.79778
-0.82836
-0.848225
-0.853481
-0.810209
-0.749646
-0.641262
-0.501846
-0.367314
-0.256768
-0.177245
-0.0688866
0.0258184
0.137471
0.163937
0.215983
0.292266
0.891375
0.998525
1.05453
0.989137
0.863817
0.799499
0.797269
0.735365
0.693966
0.601914
0.511615
0.451785
0.384214
0.396399
0.461767
0.476946
0.5591
0.817399
1.29664
1.39849
1.28567
1.47128
1.38557
0.552556
0.272455
0.339837
0.285522
0.33104
0.332267
0.36055
0.37875
0.407642
0.451043
0.52011
0.604847
0.685581
0.733561
0.735596
0.687996
0.591446
0.470407
0.350019
0.283041
0.329999
0.35396
0.611895
0.0484441
0.122426
0.186207
0.231979
0.259247
0.25639
0.237063
0.198455
0.0906102
-0.0312895
-0.22131
-0.421259
-0.55054
-0.615111
-0.69619
-0.7972
-0.858392
-0.890842
-0.905199
-0.907163
-0.858913
-0.791708
-0.67661
-0.526866
-0.385781
-0.263081
-0.181499
-0.0665522
0.0306241
0.142685
0.166898
0.20957
0.310599
0.970679
1.08189
1.13811
1.05865
0.918637
0.839144
0.837264
0.771867
0.728085
0.633401
0.537314
0.475049
0.412421
0.424157
0.499739
0.529646
0.627456
0.908398
1.39701
1.52259
1.45139
1.65251
1.56255
0.611887
0.290465
0.360245
0.300642
0.352204
0.356164
0.38726
0.409488
0.442716
0.490705
0.563813
0.651294
0.732894
0.779659
0.777895
0.725748
0.627947
0.504779
0.384473
0.317828
0.365809
0.395615
0.681389
0.0521104
0.129197
0.196662
0.244899
0.274049
0.270237
0.250122
0.211634
0.0868888
-0.0479589
-0.251745
-0.452807
-0.588432
-0.660834
-0.747339
-0.853966
-0.919106
-0.95334
-0.961807
-0.959242
-0.907113
-0.832424
-0.710615
-0.55118
-0.403108
-0.269847
-0.186218
-0.0635611
0.0359228
0.147811
0.169295
0.20235
0.330535
1.05487
1.17057
1.22732
1.13221
0.976688
0.879846
0.875957
0.808992
0.762404
0.663121
0.561914
0.497674
0.441284
0.453107
0.535824
0.583372
0.700818
1.00673
1.50398
1.65968
1.63321
1.85123
1.75852
0.678555
0.304635
0.382032
0.316124
0.373063
0.379878
0.413979
0.440693
0.478775
0.531464
0.60847
0.69844
0.78048
0.825765
0.820035
0.763019
0.663697
0.539127
0.419039
0.353397
0.402451
0.436241
0.781417
0.0560335
0.13628
0.207553
0.258286
0.289324
0.284372
0.263326
0.221791
0.0784894
-0.0691809
-0.284338
-0.485192
-0.627141
-0.706666
-0.79918
-0.910775
-0.980362
-1.01572
-1.01864
-1.01097
-0.955599
-0.872083
-0.743781
-0.574995
-0.419085
-0.277323
-0.189873
-0.0595313
0.0423991
0.153317
0.17187
0.193992
0.352913
1.14469
1.26568
1.32356
1.21188
1.04
0.923637
0.915571
0.847597
0.797635
0.692988
0.58673
0.520366
0.47085
0.483191
0.571424
0.638961
0.780162
1.11397
1.62093
1.81184
1.83386
2.0717
1.97656
0.745281
0.311385
0.405496
0.332079
0.393946
0.403874
0.441266
0.472918
0.516251
0.573803
0.654582
0.746829
0.828944
0.872498
0.86277
0.800595
0.699344
0.573866
0.454329
0.389955
0.439676
0.480301
0.86416
0.0602139
0.143805
0.219064
0.272319
0.305169
0.298798
0.27672
0.227614
0.065327
-0.0924916
-0.316708
-0.517868
-0.665439
-0.751556
-0.850769
-0.966214
-1.03985
-1.0762
-1.07424
-1.06134
-1.00239
-0.909089
-0.775227
-0.597524
-0.433169
-0.285377
-0.190707
-0.0544341
0.0494404
0.158876
0.174613
0.184134
0.378733
1.24058
1.36693
1.42601
1.29628
1.10699
0.96961
0.955282
0.886208
0.832494
0.722509
0.61111
0.542462
0.500509
0.513987
0.606832
0.695512
0.863891
1.22756
1.746
1.97656
2.05348
2.31593
2.21741
0.812153
0.3106
0.427086
0.347728
0.413992
0.427287
0.468321
0.505441
0.554435
0.617125
0.701471
0.795737
0.877573
0.919097
0.905444
0.83794
0.734256
0.608395
0.489505
0.427038
0.477757
0.522782
0.986496
0.064619
0.151578
0.230926
0.286672
0.321202
0.313087
0.289588
0.229618
0.0493519
-0.117245
-0.35011
-0.551097
-0.703217
-0.796047
-0.902858
-1.02106
-1.09795
-1.1354
-1.12956
-1.11115
-1.04791
-0.94404
-0.805099
-0.618901
-0.445522
-0.293591
-0.189057
-0.048355
0.0572026
0.165438
0.178347
0.174201
0.409453
1.34318
1.47544
1.53605
1.38754
1.17993
1.01998
0.997156
0.92587
0.868196
0.752742
0.635735
0.564678
0.530862
0.54617
0.643599
0.754649
0.953106
1.34886
1.88113
2.15382
2.29291
2.58587
2.48198
0.883962
0.30505
0.44444
0.363928
0.433614
0.450451
0.495482
0.538803
0.593806
0.661773
0.749564
0.845532
0.926798
0.96598
0.9485
0.875702
0.768898
0.643028
0.524491
0.464591
0.516338
0.571306
1.07755
0.0692577
0.159752
0.243324
0.301506
0.337499
0.327347
0.301963
0.22941
0.0321179
-0.143173
-0.384144
-0.58357
-0.738927
-0.838915
-0.953859
-1.0734
-1.15332
-1.19148
-1.18327
-1.15874
-1.09065
-0.976082
-0.832634
-0.638329
-0.455757
-0.301664
-0.185059
-0.0413847
0.0650714
0.17212
0.182373
0.163097
0.446094
1.45272
1.59078
1.65279
1.48428
1.25735
1.07367
1.0402
0.965023
0.903457
0.782749
0.659819
0.586216
0.561287
0.579699
0.681949
0.81589
1.04655
1.4754
2.02362
2.34085
2.55046
2.88139
2.76825
0.961673
0.296214
0.457038
0.380415
0.452249
0.472546
0.521817
0.572228
0.633752
0.707038
0.798153
0.89542
0.975718
1.0123
0.991043
0.913235
0.802706
0.677054
0.558748
0.502262
0.55594
0.626809
1.19571
0.0740929
0.168117
0.255978
0.316463
0.353635
0.341573
0.313232
0.227115
0.0138507
-0.170271
-0.418098
-0.615264
-0.7731
-0.880923
-1.00432
-1.12386
-1.20644
-1.24467
-1.23527
-1.20429
-1.13096
-1.00629
-0.858185
-0.655403
-0.463905
-0.308557
-0.179558
-0.0332495
0.0739973
0.179411
0.187639
0.151432
0.490484
1.56969
1.71424
1.77776
1.58881
1.34161
1.133
1.08612
1.00503
0.939191
0.813026
0.684208
0.607846
0.592389
0.615483
0.723502
0.881455
1.14624
1.60866
2.17525
2.53744
2.82615
3.20272
3.07838
1.05604
0.285929
0.468174
0.397595
0.470088
0.493787
0.54753
0.606087
0.674665
0.753251
0.84755
0.945842
1.02477
1.05846
1.03344
0.951019
0.836241
0.710828
0.592616
0.540203
0.596331
0.679449
1.35121
0.0791633
0.176878
0.269101
0.331725
0.369734
0.356353
0.323379
0.222269
-0.00422416
-0.198086
-0.450287
-0.644843
-0.804944
-0.92132
-1.05346
-1.17144
-1.25573
-1.29378
-1.28347
-1.24623
-1.16739
-1.0342
-0.880964
-0.669514
-0.469994
-0.313441
-0.17306
-0.0242694
0.0832918
0.186421
0.193753
0.13879
0.543963
1.69406
1.84531
1.90998
1.69972
1.4312
1.1971
1.13321
1.045
0.974022
0.842027
0.707799
0.628965
0.623463
0.653282
0.76805
0.950791
1.25125
1.74644
2.33316
2.73948
3.11606
3.5439
3.40923
1.17889
0.277107
0.478976
0.414659
0.486171
0.513426
0.572037
0.639532
0.715811
0.799875
0.89712
0.996115
1.07327
1.10372
1.07493
0.988323
0.869253
0.74388
0.625693
0.578376
0.638417
0.741901
1.48323
0.0844274
0.185809
0.282397
0.34692
0.385412
0.371118
0.331951
0.215272
-0.0218563
-0.226539
-0.481231
-0.672443
-0.835458
-0.960894
-1.10209
-1.21722
-1.30165
-1.33966
-1.32761
-1.28449
-1.2
-1.06019
-0.90076
-0.680671
-0.474391
-0.315614
-0.165523
-0.0141106
0.0936383
0.19404
0.201717
0.12772
0.608606
1.82616
1.98542
2.05111
1.81938
1.52847
1.26805
1.18297
1.08682
1.00881
0.870471
0.731144
0.650753
0.655243
0.69393
0.817148
1.02594
1.36384
1.89132
2.49942
2.94633
3.41734
3.89973
3.75404
1.33601
0.277248
0.490083
0.431864
0.500311
0.531485
0.595824
0.672794
0.757375
0.847228
0.947234
1.04663
1.12176
1.14869
1.11593
1.02547
0.902418
0.776634
0.658273
0.616968
0.681036
0.812377
1.63955
0.0899464
0.195139
0.296086
0.362236
0.400799
0.385664
0.33929
0.20677
-0.0386858
-0.254054
-0.510632
-0.697628
-0.864059
-0.998408
-1.14726
-1.25991
-1.34337
-1.38125
-1.36616
-1.31781
-1.22766
-1.08334
-0.917082
-0.688945
-0.477707
-0.315281
-0.157337
-0.00352597
0.104443
0.201249
0.211416
0.117956
0.685754
1.96591
2.13402
2.20009
1.94631
1.63184
1.34426
1.23417
1.12932
1.04205
0.897099
0.753014
0.672461
0.686855
0.736626
0.870038
1.10567
1.4827
2.04204
2.67179
3.15431
3.72151
4.26277
4.10409
1.52155
0.290165
0.499953
0.448983
0.512167
0.547158
0.618275
0.705088
0.798554
0.894496
0.997179
1.09659
1.16942
1.19258
1.15571
1.06185
0.935045
0.808562
0.690313
0.65546
0.723062
0.888169
1.82872
0.0956505
0.204585
0.309794
0.377165
0.415245
0.3993
0.34477
0.195633
-0.0549986
-0.281017
-0.53872
-0.721666
-0.891684
-1.03474
-1.18895
-1.29964
-1.38176
-1.41881
-1.3991
-1.34606
-1.25053
-1.10315
-0.929768
-0.69476
-0.479525
-0.312361
-0.148342
0.00775586
0.116829
0.209227
0.224624
0.110835
0.777552
2.11375
2.29279
2.35868
2.0829
1.74373
1.42782
1.28914
1.17403
1.07447
0.922726
0.774324
0.694724
0.718774
0.781799
0.927955
1.19217
1.61011
2.20177
2.8537
3.36373
4.02429
4.63004
4.45618
1.73187
0.316322
0.508116
0.465723
0.522225
0.560591
0.639387
0.736536
0.839413
0.941713
1.04712
1.14619
1.21653
1.23587
1.19503
1.09795
0.967287
0.839621
0.722066
0.693507
0.763859
0.973883
2.01593
0.101614
0.214365
0.323641
0.39159
0.428072
0.411586
0.346747
0.181615
-0.0703719
-0.307742
-0.564214
-0.744075
-0.917514
-1.06876
-1.22559
-1.33435
-1.41608
-1.45115
-1.42597
-1.36878
-1.26854
-1.11891
-0.938457
-0.698768
-0.479507
-0.307082
-0.138707
0.0193071
0.130287
0.217643
0.241194
0.106141
0.884195
2.26963
2.46107
2.52565
2.22752
1.86259
1.51756
1.3472
1.21863
1.10455
0.946236
0.794193
0.716355
0.749547
0.828038
0.989493
1.28391
1.74347
2.36862
3.04469
3.57318
4.31838
4.99359
4.8041
1.95917
0.351311
0.513489
0.479997
0.530473
0.571805
0.65844
0.76629
0.879262
0.988173
1.09623
1.19465
1.26227
1.27783
1.23322
1.13284
0.998922
0.869143
0.753529
0.731191
0.804751
1.06782
2.23685
0.107722
0.224091
0.337052
0.404581
0.438431
0.420929
0.343504
0.165533
-0.0854486
-0.335251
-0.58753
-0.76553
-0.942551
-1.10082
-1.25773
-1.36437
-1.4468
-1.47849
-1.4477
-1.38618
-1.28204
-1.13009
-0.943244
-0.700313
-0.476762
-0.29907
-0.127753
0.031779
0.145569
0.227816
0.262994
0.107666
1.00601
2.43424
2.64063
2.70278
2.38245
1.99084
1.61569
1.41107
1.26401
1.13324
0.968339
0.813516
0.738344
0.779845
0.875675
1.05565
1.3822
1.88303
2.54295
3.24812
3.78813
4.6032
5.34983
5.14143
2.2017
0.390685
0.51724
0.490492
0.537088
0.581332
0.675257
0.794091
0.917942
1.03411
1.14467
1.24221
1.30689
1.31872
1.2705
1.16678
1.03068
0.897763
0.785183
0.769246
0.845294
1.17638
2.45557
0.114055
0.233949
0.350083
0.416191
0.447111
0.426554
0.336233
0.15015
-0.100107
-0.362212
-0.60824
-0.785169
-0.965692
-1.12935
-1.28453
-1.38994
-1.47322
-1.50067
-1.46422
-1.39781
-1.29089
-1.13655
-0.94427
-0.698925
-0.471226
-0.288645
-0.115717
0.0448381
0.161788
0.239097
0.290025
0.115486
1.1419
2.60838
2.83057
2.88856
2.5458
2.12681
1.72092
1.4799
1.3095
1.15967
0.987652
0.830558
0.759235
0.808565
0.922965
1.12443
1.48398
2.02598
2.72035
3.45952
4.01328
4.8748
5.69274
5.4636
2.45798
0.429142
0.519668
0.496997
0.54166
0.589402
0.689241
0.819169
0.954706
1.07891
1.19168
1.28812
1.34966
1.35773
1.30604
1.1996
1.06216
0.925551
0.817271
0.807249
0.88646
1.30302
2.69798
0.120463
0.243526
0.362281
0.426238
0.454252
0.429106
0.32753
0.135501
-0.115298
-0.389591
-0.627371
-0.803556
-0.987405
-1.15533
-1.30731
-1.41321
-1.49594
-1.51814
-1.47524
-1.40397
-1.29598
-1.13873
-0.941249
-0.693746
-0.462264
-0.275413
-0.102035
0.0592794
0.180135
0.252775
0.324428
0.131632
1.29193
2.79419
3.03263
3.08474
2.71969
2.27276
1.83545
1.55624
1.35764
1.18545
1.00505
0.845943
0.779669
0.836717
0.970217
1.19628
1.58968
2.17427
2.90295
3.67604
4.25465
5.13716
6.0192
5.77035
2.73449
0.46254
0.521622
0.501617
0.544197
0.596317
0.700465
0.841307
0.989146
1.12241
1.23723
1.33257
1.39087
1.39514
1.34036
1.23185
1.09308
0.953078
0.849783
0.844981
0.928541
1.44159
2.97115
0.127046
0.25304
0.373871
0.43525
0.460645
0.430643
0.319817
0.122764
-0.132278
-0.417576
-0.644439
-0.820063
-1.00651
-1.17863
-1.32548
-1.43384
-1.51477
-1.53107
-1.48139
-1.40714
-1.2987
-1.13643
-0.934745
-0.685561
-0.450386
-0.259923
-0.0869904
0.0747803
0.200249
0.267782
0.363368
0.155202
1.45584
2.99271
3.24552
3.28962
2.90198
2.42689
1.95775
1.63919
1.40771
1.20952
1.01894
0.858531
0.797626
0.862815
1.01534
1.26814
1.69614
2.32444
3.08857
3.89146
4.50695
5.38882
6.31924
6.05846
3.02856
0.491819
0.52186
0.505823
0.545187
0.601909
0.709315
0.859972
1.02048
1.16362
1.28077
1.37483
1.42986
1.43023
1.37312
1.26292
1.12246
0.980437
0.88225
0.88226
0.97422
1.60071
3.24382
0.133592
0.261986
0.384311
0.442965
0.466237
0.431451
0.313829
0.112288
-0.152653
-0.446536
-0.660192
-0.835694
-1.02394
-1.20054
-1.34073
-1.45292
-1.53137
-1.54065
-1.48398
-1.40859
-1.299
-1.13083
-0.92467
-0.67426
-0.435356
-0.242042
-0.0697579
0.09232
0.223373
0.28531
0.405978
0.189474
1.63508
3.20492
3.47078
3.50483
3.09455
2.59104
2.0897
1.73102
1.46148
1.2333
1.03042
0.869613
0.813716
0.887433
1.05871
1.33962
1.80418
2.47689
3.27921
4.10814
4.76318
5.62847
6.5867
6.32644
3.34291
0.531101
0.519794
0.509914
0.545684
0.605795
0.716501
0.874943
1.0479
1.20196
1.32272
1.41501
1.46671
1.4634
1.40442
1.29273
1.14992
1.00829
0.914936
0.917628
1.02451
1.77881
3.53048
0.14012
0.270378
0.393472
0.449664
0.470995
0.431933
0.309891
0.104548
-0.174623
-0.472918
-0.673589
-0.849756
-1.03911
-1.21951
-1.35407
-1.47046
-1.54596
-1.54678
-1.4839
-1.40929
-1.29826
-1.12346
-0.911674
-0.661552
-0.41862
-0.222649
-0.0510555
0.111665
0.248942
0.305597
0.446819
0.232478
1.83019
3.43053
3.70674
3.72842
3.295
2.76314
2.22938
1.83026
1.51749
1.25584
1.03846
0.877851
0.826238
0.908498
1.09795
1.40728
1.91123
2.62854
3.47056
4.3232
5.015
5.8398
6.81505
6.57796
3.67903
0.599446
0.515474
0.515116
0.546622
0.607927
0.722292
0.886433
1.07083
1.23632
1.36241
1.45235
1.50077
1.49444
1.4335
1.32074
1.17606
1.03642
0.947724
0.9501
1.08358
1.97158
3.83047
0.146263
0.277495
0.400629
0.455179
0.47403
0.431684
0.306288
0.0976882
-0.197287
-0.495178
-0.685339
-0.863087
-1.05389
-1.23703
-1.36747
-1.48705
-1.55845
-1.54944
-1.48163
-1.40946
-1.29684
-1.11543
-0.896882
-0.64769
-0.400878
-0.201168
-0.0304579
0.133901
0.2781
0.332806
0.48626
0.28624
2.04247
3.66986
3.95482