/*--------------------------------*- C++ -*----------------------------------*\
| =========                 |                                                 |
| \\      /  F ield         | OpenFOAM: The Open Source CFD Toolbox           |
|  \\    /   O peration     | Version:  4.1                                   |
|   \\  /    A nd           | Web:      www.OpenFOAM.org                      |
|    \\/     M anipulation  |                                                 |
\*---------------------------------------------------------------------------*/
FoamFile
{
    version     2.0;
    format      ascii;
    class       volVectorField;
    location    "28";
    object      U;
}
// * * * * * * * * * * * * * * * * * * * * * * * * * * * * * * * * * * * * * //

dimensions      [0 1 -1 0 0 0 0];

internalField   nonuniform List<vector> 
6785
(
(1.18964e-14 0.852191 15.7946)
(1.03865e-14 -4.89458 12.1215)
(-3.9002e-15 -4.19551 12.1321)
(6.34209e-15 -3.60119 11.9966)
(1.10173e-15 -3.00468 11.8778)
(6.06078e-17 -2.55319 11.6992)
(2.28967e-15 -2.20881 11.4769)
(6.81102e-16 -1.96603 11.2116)
(2.25176e-16 -1.79856 10.916)
(1.88507e-16 -1.71238 10.5882)
(-1.62417e-16 -1.83746 10.1561)
(-5.18439e-16 -2.28568 9.53762)
(7.17008e-16 -2.51302 8.96378)
(-5.7227e-17 -1.06552 8.91357)
(-2.07677e-16 1.76575 7.47091)
(2.12894e-14 -5.35016 22.493)
(1.62056e-14 -14.6049 21.3939)
(-5.24912e-16 -13.2708 20.3411)
(5.98636e-15 -11.7697 19.5066)
(1.79577e-15 -11.1561 18.5043)
(8.29567e-17 -10.6594 17.5173)
(5.14975e-15 -10.0901 16.5714)
(1.61266e-15 -9.525 15.6235)
(-1.00817e-16 -8.96544 14.6638)
(2.80164e-15 -8.36731 13.6945)
(8.38492e-16 -7.75709 12.7178)
(-5.34498e-16 -7.30335 11.7193)
(4.57046e-16 -7.01704 10.6243)
(1.31762e-16 -5.73092 9.1611)
(-1.45934e-16 -2.30497 4.58315)
(1.61173e-14 -7.71564 23.9801)
(1.16592e-14 -16.7731 24.6728)
(9.15105e-17 -13.7365 23.9372)
(4.22542e-15 -12.3062 22.6248)
(-4.73539e-17 -11.6447 21.2413)
(8.00164e-16 -10.814 20.0012)
(3.38618e-15 -9.94028 18.7737)
(1.40423e-15 -9.10015 17.5246)
(2.14325e-16 -8.28342 16.2654)
(1.59248e-15 -7.47529 15.0262)
(8.42668e-16 -6.66767 13.8176)
(-3.63312e-16 -5.84171 12.4301)
(6.05426e-17 -4.81398 10.2753)
(3.66525e-16 -3.12634 6.68448)
(-2.03169e-16 -0.832133 1.68989)
(1.60186e-14 -8.50247 22.0458)
(1.54694e-14 -16.6212 24.332)
(1.8474e-15 -12.93 23.7969)
(4.32642e-15 -12.1537 21.9984)
(1.47427e-15 -11.4201 20.5026)
(1.65126e-15 -10.4937 19.1721)
(2.38608e-15 -9.63401 17.8166)
(5.27695e-16 -8.82374 16.4589)
(1.31338e-15 -8.0538 15.1228)
(1.11624e-15 -7.32397 13.8163)
(1.97244e-16 -6.5527 12.4394)
(-3.75784e-16 -5.49121 10.5832)
(-3.47008e-16 -3.78569 7.50912)
(-2.09746e-15 -1.49408 2.76651)
(-1.51894e-15 0.153164 -1.7732)
(1.53871e-14 -8.47576 19.7465)
(1.48452e-14 -16.3602 24.312)
(1.54322e-15 -13.0994 23.6599)
(3.23415e-15 -12.6282 21.5362)
(1.98508e-15 -11.8568 20.0245)
(2.03723e-15 -10.9578 18.6634)
(1.98568e-15 -10.1702 17.2584)
(-3.73948e-16 -9.4032 15.8709)
(1.84696e-15 -8.65303 14.5234)
(5.79679e-16 -7.93098 13.2134)
(-6.62873e-16 -7.1664 11.8292)
(5.00841e-16 -6.11683 9.99659)
(-2.14294e-16 -4.42493 7.15639)
(6.29531e-16 -2.30618 3.28891)
(-4.79729e-15 -0.787786 0.318395)
(1.39119e-14 -8.02043 17.5487)
(1.35622e-14 -16.0193 24.527)
(1.23795e-15 -13.6452 24.0459)
(2.81539e-15 -12.995 21.7647)
(2.14392e-16 -12.1273 20.2151)
(4.0325e-15 -11.2257 18.8464)
(1.88506e-15 -10.4401 17.4336)
(-4.04601e-17 -9.65005 16.043)
(4.01116e-15 -8.86158 14.693)
(-1.16453e-15 -8.09451 13.3816)
(-6.36627e-16 -7.29865 12.0172)
(3.64445e-15 -6.28618 10.2825)
(-3.69288e-16 -4.73492 7.72252)
(-4.09875e-15 -2.75799 4.37447)
(2.7552e-15 -0.95064 1.29907)
(1.29326e-14 -7.33233 15.2385)
(1.50338e-14 -15.4893 24.3508)
(5.50836e-15 -14.0278 24.4219)
(3.24637e-15 -13.1305 22.0676)
(1.13124e-15 -12.1477 20.4392)
(1.84628e-15 -11.2388 19.0539)
(2.25987e-15 -10.4392 17.6434)
(-7.69971e-16 -9.62312 16.2575)
(1.582e-15 -8.81352 14.9068)
(1.81874e-15 -8.03063 13.5924)
(-1.8878e-15 -7.22748 12.238)
(5.11125e-15 -6.2443 10.5514)
(-2.98703e-16 -4.79248 8.11227)
(-2.16209e-15 -2.91938 4.95335)
(4.27435e-15 -1.01429 1.80299)
(1.05809e-14 -6.54032 12.9912)
(1.52773e-14 -14.8393 23.7985)
(7.01458e-15 -14.2764 24.6693)
(3.28919e-15 -13.2454 22.3235)
(1.48623e-15 -12.1751 20.5816)
(2.32556e-15 -11.2732 19.1652)
(3.61429e-15 -10.4727 17.7581)
(2.10213e-15 -9.65115 16.3767)
(2.24147e-15 -8.84305 15.0254)
(1.19026e-15 -8.06346 13.7089)
(2.01213e-15 -7.26353 12.3606)
(1.30455e-15 -6.29649 10.7057)
(-4.96904e-15 -4.90233 8.34199)
(-1.5795e-15 -3.09687 5.28175)
(1.76719e-15 -1.12966 2.05684)
(9.12304e-15 -5.73839 11.0279)
(1.50995e-14 -14.1516 23.0382)
(8.63394e-15 -14.4676 24.8466)
(3.89851e-15 -13.4194 22.6263)
(1.95069e-15 -12.2735 20.7581)
(3.03655e-15 -11.3685 19.2974)
(8.93462e-16 -10.5671 17.8942)
(1.462e-15 -9.74555 16.5163)
(2.97061e-15 -8.9395 15.163)
(1.1316e-15 -8.16014 13.8434)
(1.19582e-15 -7.36033 12.4976)
(4.45178e-16 -6.40275 10.8693)
(1.62935e-16 -5.05034 8.57592)
(-1.36073e-15 -3.29498 5.59655)
(-6.46597e-16 -1.2577 2.28471)
(4.96142e-15 -4.98765 9.3787)
(1.47203e-14 -13.4522 22.1535)
(7.65272e-15 -14.5782 24.9382)
(4.77446e-15 -13.603 22.9595)
(1.84629e-15 -12.386 20.9745)
(3.68583e-16 -11.4599 19.4561)
(9.79931e-16 -10.6522 18.0539)
(1.36708e-15 -9.83053 16.6793)
(-3.47911e-16 -9.02426 15.3243)
(3.01232e-16 -8.24217 14.0015)
(8.99052e-16 -7.44192 12.6558)
(4.30246e-16 -6.49276 11.0461)
(-4.65392e-17 -5.17317 8.80747)
(-4.91558e-16 -3.45714 5.88633)
(-4.69304e-15 -1.35349 2.49624)
(1.59509e-15 -4.35011 8.05943)
(1.4071e-14 -12.7844 21.2399)
(8.35046e-15 -14.6135 24.9425)
(3.00056e-15 -13.7877 23.3031)
(1.87181e-15 -12.5246 21.2353)
(1.68379e-16 -11.5702 19.6483)
(9.34731e-16 -10.7542 18.2382)
(1.39987e-15 -9.93343 16.8635)
(-1.13677e-15 -9.12671 15.5054)
(-3.27473e-17 -8.34084 14.1778)
(9.94131e-16 -7.53894 12.8301)
(-2.1678e-15 -6.59774 11.2369)
(-6.97481e-15 -5.30837 9.04997)
(-4.54944e-15 -3.62878 6.18153)
(-5.76931e-15 -1.45615 2.71431)
(3.39037e-15 -3.73272 6.7681)
(1.38107e-14 -12.0707 20.1688)
(8.60933e-15 -14.538 24.7673)
(4.01934e-15 -13.9053 23.5158)
(2.24505e-15 -12.5983 21.3812)
(-5.58802e-16 -11.6035 19.729)
(7.87508e-16 -10.7816 18.3253)
(1.94016e-15 -9.96922 16.9669)
(-2.9859e-15 -9.17124 15.6212)
(-1.01907e-16 -8.39286 14.3041)
(6.03114e-16 -7.59936 12.9652)
(-3.46844e-15 -6.66956 11.3878)
(-2.89332e-15 -5.40132 9.23579)
(-6.42898e-15 -3.74501 6.39752)
(-5.89368e-15 -1.515 2.8574)
(2.66425e-15 -3.39911 6.17341)
(1.31611e-14 -11.565 19.3467)
(9.88193e-15 -14.5987 24.6687)
(4.39171e-15 -14.3057 23.9897)
(2.71979e-15 -13.0591 21.8952)
(-1.54811e-16 -12.0263 20.1228)
(-4.94179e-17 -11.1722 18.6362)
(3.07668e-15 -10.3421 17.2331)
(1.29891e-16 -9.51915 15.8513)
(-6.19228e-16 -8.70842 14.5022)
(1.4468e-15 -7.88599 13.146)
(-2.89785e-15 -6.943 11.5916)
(-1.72227e-15 -5.68842 9.52504)
(-3.51295e-15 -4.03481 6.75519)
(-6.01905e-15 -1.6875 3.11416)
(-5.21494e-16 -1.94582 2.7144)
(1.10204e-14 -9.96559 16.4518)
(9.48057e-15 -13.9206 23.327)
(3.91729e-15 -13.9235 23.3314)
(2.13732e-15 -12.5585 21.1941)
(-5.32118e-17 -11.4595 19.4756)
(7.02788e-16 -10.7005 18.2494)
(2.80098e-15 -10.0054 17.1006)
(-5.35184e-16 -9.31852 15.9335)
(1.69055e-16 -8.64022 14.7581)
(7.5741e-16 -7.9439 13.5474)
(-2.6168e-15 -7.12762 12.1334)
(-1.36191e-15 -5.99783 10.2106)
(-3.03768e-15 -4.51029 7.6802)
(-4.66969e-15 -2.22518 4.35833)
(1.12725e-15 -4.30208 8.935)
(1.1194e-14 -11.021 18.5147)
(1.22171e-14 -15.2723 24.9545)
(7.73443e-15 -16.8018 26.0733)
(3.97544e-15 -16.3082 24.3619)
(1.1795e-15 -15.1444 21.9038)
(1.68846e-16 -13.85 19.6062)
(3.48244e-16 -12.608 17.65)
(6.47677e-17 -11.4071 15.8502)
(-1.37295e-16 -10.2378 14.233)
(-8.38441e-16 -9.0948 12.7046)
(-1.77458e-15 -7.88595 11.1089)
(-1.91774e-15 -6.4789 9.23837)
(-4.2205e-15 -4.5735 6.45002)
(-3.92999e-15 -1.03134 2.1898)
(1.32528e-16 0.717687 -3.68647)
(2.20668e-16 0.762865 -5.80317)
(1.73683e-16 0.7457 -4.19558)
(1.85573e-16 1.22147 -4.13457)
(1.82374e-16 1.67798 -3.92673)
(2.0885e-16 2.35154 -5.40364)
(1.41727e-16 2.02936 -3.76883)
(1.49399e-16 2.45294 -3.70315)
(1.23999e-16 2.72576 -3.54)
(4.35182e-16 3.71531 -4.64031)
(4.08913e-16 3.03918 -3.24552)
(4.00146e-16 3.32073 -3.05298)
(4.62009e-16 4.71845 -3.8869)
(3.43914e-16 3.64826 -2.68972)
(3.38768e-16 4.00256 -2.64488)
(3.3398e-16 4.1005 -2.55869)
(3.79399e-16 5.3617 -3.1758)
(3.25919e-16 4.18536 -2.22553)
(3.15207e-16 4.34164 -2.12291)
(3.80616e-16 5.8927 -2.53182)
(3.01092e-16 4.42884 -1.77026)
(2.94663e-16 4.72805 -1.74323)
(2.97727e-16 4.74642 -1.71291)
(3.72405e-16 6.04124 -1.95743)
(2.94814e-16 4.51935 -1.40559)
(3.03577e-16 4.85875 -1.37798)
(2.85898e-16 4.87057 -1.36473)
(3.85379e-16 6.01848 -1.45754)
(3.22925e-16 4.53158 -1.07948)
(3.0971e-16 4.58753 -1.06674)
(4.18312e-16 5.9695 -0.974216)
(3.28235e-16 4.34449 -0.74605)
(3.28251e-16 4.53362 -0.729976)
(3.04911e-16 4.52646 -0.751529)
(4.0568e-16 5.48792 -0.555351)
(3.17141e-16 4.05484 -0.462338)
(3.01238e-16 4.07001 -0.495383)
(4.03571e-16 5.1378 -0.166633)
(3.09212e-16 3.69022 -0.194892)
(2.9799e-16 3.80738 -0.189314)
(3.15518e-16 3.80062 -0.235555)
(4.26833e-16 4.49017 0.164723)
(3.18492e-16 3.21381 0.0234153)
(3.13654e-16 3.35125 0.0270256)
(2.97472e-16 3.35767 -0.0237925)
(4.14165e-16 3.85976 0.429005)
(2.50076e-16 2.77249 0.2413)
(2.31311e-16 2.77293 0.171282)
(2.8944e-16 3.38537 0.725724)
(2.66428e-16 2.44024 0.51742)
(2.648e-16 2.4742 0.520831)
(2.52645e-16 2.45603 0.451021)
(3.24904e-16 2.80735 1.081)
(2.14032e-16 1.9838 0.746727)
(2.26037e-16 2.0243 0.74443)
(9.5119e-16 2.00691 0.674985)
(4.0547e-16 2.14069 1.26349)
(2.94299e-16 1.41357 0.766325)
(2.1217e-16 1.36231 0.698796)
(3.33366e-16 1.45635 0.900084)
(2.76889e-16 0.694662 0.268439)
(4.26495e-16 0.633468 0.239341)
(1.47482e-15 0.70255 0.262057)
(1.28926e-14 1.19995 -1.02353)
(3.30896e-16 -0.490872 -0.140652)
(-3.31316e-16 0.0103614 0.140974)
(-1.36924e-15 -0.0571321 1.55266)
(-1.10667e-15 -1.38218 3.34819)
(-9.72682e-16 -1.35341 3.309)
(-1.01847e-15 -1.35034 3.48526)
(-1.22758e-15 -2.72711 6.38345)
(-8.52732e-16 -3.24296 6.06885)
(-8.91803e-16 -3.48449 6.18656)
(-9.63664e-16 -3.65162 6.36999)
(6.59675e-16 -6.21994 9.95801)
(-4.45824e-16 -5.72555 8.1284)
(-5.75522e-16 -6.00434 8.60494)
(-5.54122e-16 -9.35052 12.6322)
(-3.97878e-16 -8.39893 9.77967)
(-5.28683e-16 -8.77842 10.481)
(-1.0038e-15 -9.60515 12.212)
(-8.77102e-16 -9.48149 12.1403)
(-8.26256e-16 -9.64402 12.4268)
(3.90725e-16 -11.7745 15.2471)
(-3.18389e-16 -10.345 13.4848)
(-2.26014e-16 -10.7146 14.1844)
(-1.96472e-16 -10.6986 14.341)
(-1.38903e-16 -10.7736 14.4709)
(-8.23667e-17 -10.8658 14.6236)
(-5.27311e-18 -10.9427 14.8018)
(1.74362e-16 -11.0306 15.1206)
(4.14529e-16 -11.1549 15.5077)
(1.24966e-15 -12.0129 16.9543)
(7.40608e-16 -11.4935 15.9408)
(8.413e-16 -11.6393 16.1774)
(8.79859e-16 -11.6203 16.3099)
(9.98444e-16 -11.7858 16.6842)
(1.04568e-15 -11.7597 16.7241)
(1.11296e-15 -11.8406 16.8741)
(1.18217e-15 -11.8965 17.0048)
(1.26529e-15 -11.9587 17.1633)
(2.25318e-15 -12.4288 18.2871)
(1.85463e-15 -12.0092 17.5208)
(1.9303e-15 -12.1133 17.7042)
(1.97395e-15 -12.1454 17.7911)
(2.03699e-15 -12.1872 17.9243)
(2.1112e-15 -12.2309 18.1242)
(2.20081e-15 -12.3044 18.3467)
(2.26587e-15 -12.3068 18.415)
(2.33801e-15 -12.3769 18.5345)
(2.41496e-15 -12.4299 18.6387)
(3.65857e-15 -12.204 18.903)
(2.86887e-15 -12.0895 18.5817)
(2.97463e-15 -12.1235 18.6865)
(3.02679e-15 -12.1534 18.7432)
(3.10545e-15 -12.188 18.8213)
(3.1956e-15 -12.1772 18.9196)
(3.23234e-15 -12.2329 19.158)
(3.26393e-15 -12.2609 19.2298)
(3.32844e-15 -12.3014 19.2183)
(3.9781e-15 -11.2452 18.1969)
(3.52424e-15 -11.4769 18.4379)
(3.62174e-15 -11.4355 18.5503)
(3.69927e-15 -11.471 18.6811)
(3.84264e-15 -11.414 18.5949)
(3.96159e-15 -11.4108 18.5657)
(4.09918e-15 -11.3855 18.5175)
(4.2661e-15 -11.3729 18.4992)
(4.5895e-15 -11.4508 18.6693)
(5.04809e-15 -9.21936 15.8585)
(4.77654e-15 -10.1163 17.2169)
(4.93089e-15 -9.94125 16.9339)
(5.06466e-15 -9.90571 16.8247)
(5.43864e-15 -9.86494 16.8352)
(5.53549e-15 -9.75766 16.6)
(5.54799e-15 -9.65418 16.2568)
(5.58548e-15 -9.61252 15.8876)
(5.60903e-15 -9.48817 15.4258)
(5.50495e-15 -6.60454 11.2479)
(5.96098e-15 -7.87498 13.9183)
(5.78203e-15 -7.51516 13.1326)
(5.66154e-15 -7.45555 12.6752)
(5.52e-15 -7.3047 12.0536)
(5.43829e-15 -7.22465 11.3787)
(5.8173e-15 -6.93416 10.5304)
(5.28931e-15 -6.87692 9.91462)
(4.96306e-15 -6.68301 9.1495)
(4.52766e-15 -6.38288 8.31258)
(1.7836e-15 -3.23695 2.56842)
(3.72401e-15 -4.8619 6.39649)
(3.06391e-15 -4.30768 5.03137)
(2.75816e-15 -4.31219 4.5944)
(2.33354e-15 -4.05986 3.8601)
(1.82312e-15 -3.99965 3.03812)
(8.48865e-16 -3.82297 1.71199)
(-1.33154e-16 -3.42571 0.414159)
(-2.85475e-17 -3.34577 0.30515)
(-6.63534e-16 -2.05455 -2.08501)
(-1.15168e-16 -2.69016 0.212259)
(-2.66173e-16 -2.41513 -0.506487)
(-5.93667e-16 -1.44405 -2.43091)
(-7.55049e-16 -2.4448 -2.13838)
(-8.39685e-16 -1.58614 -1.86399)
(-2.57927e-16 -1.24326 -1.37332)
(-7.94713e-16 -1.2472 -1.83039)
(-2.12489e-16 -0.723354 -1.24427)
(-2.60014e-15 -0.637721 -1.70349)
(-9.68561e-16 -0.33898 -1.30273)
(-4.3377e-16 -0.156954 -1.05574)
(-5.46308e-16 0.247329 -1.1507)
(-5.17798e-16 0.307149 -0.871164)
(-3.17758e-16 0.21303 -0.873921)
(-5.08838e-16 0.799467 -0.897352)
(-9.45224e-16 0.559833 -0.812211)
(-3.18138e-15 0.907476 -0.832569)
(7.01773e-16 1.19903 -0.866118)
(2.42413e-16 0.893762 -0.718898)
(-1.28189e-15 1.61293 -0.766326)
(-8.54228e-16 1.19848 -0.646897)
(-6.25415e-16 1.58823 -0.675684)
(-9.95449e-16 1.89553 -0.645607)
(-6.09274e-16 1.45291 -0.537107)
(-1.10236e-15 1.94476 -0.553082)
(-2.0449e-15 2.29225 -0.508656)
(-2.47381e-16 1.64637 -0.430567)
(-7.34783e-16 2.57639 -0.452201)
(-4.82085e-16 1.9082 -0.378445)
(-7.92578e-16 2.32552 -0.405901)
(-1.03069e-15 2.68342 -0.355879)
(-6.31465e-16 1.93248 -0.290902)
(-9.68131e-16 2.94965 -0.311439)
(-6.72061e-16 2.19466 -0.249413)
(-8.73953e-16 2.61888 -0.284026)
(-1.13048e-15 2.93707 -0.243737)
(-7.43507e-16 2.18921 -0.179311)
(-8.84833e-16 2.79126 -0.200435)
(-1.35178e-15 3.17935 -0.167597)
(-9.13585e-16 2.2345 -0.117462)
(-1.09392e-15 3.3008 -0.145794)
(-8.26641e-16 2.48485 -0.101257)
(-1.00003e-15 2.89357 -0.135878)
(-1.08634e-15 3.28371 -0.111005)
(-7.08492e-16 2.32593 -0.0614254)
(-7.69929e-16 3.46637 -0.0923806)
(-7.80799e-16 2.60386 -0.0515248)
(-9.01865e-16 3.01559 -0.0933605)
(-1.0482e-15 3.36188 -0.0802569)
(-7.50256e-16 2.4659 -0.0263795)
(-9.25084e-16 3.13383 -0.0508087)
(-1.05702e-15 3.56783 -0.0429432)
(-7.34063e-16 2.46152 0.00102152)
(-9.67008e-16 3.61593 -0.0348041)
(-6.92085e-16 2.72705 -0.0047398)
(-8.45537e-16 3.13919 -0.0435279)
(-9.94871e-16 3.56567 -0.0346485)
(-6.8849e-16 2.49148 0.00437356)
(-9.04828e-16 3.72594 -0.0286793)
(-6.97738e-16 2.79284 -0.00152796)
(-8.33045e-16 3.21524 -0.0457901)
(-9.48602e-16 3.59024 -0.0420224)
(-6.5528e-16 2.60544 0.000962187)
(-6.55358e-16 3.32582 -0.0238924)
(-7.52346e-16 3.79629 -0.0233222)
(-6.72183e-16 2.58828 0.0125969)
(-8.76605e-16 3.82971 -0.0254084)
(-5.85849e-16 2.87253 -0.00161989)
(-7.03726e-16 3.30828 -0.0437856)
(-8.39913e-16 3.76831 -0.041735)
(-5.85106e-16 2.61434 -0.00612197)
(-7.79864e-16 3.93684 -0.0454444)
(-5.76953e-16 2.93899 -0.0195789)
(-6.99025e-16 3.38898 -0.0705049)
(-7.65233e-16 3.79383 -0.0773878)
(-5.25782e-16 2.74943 -0.0321666)
(-6.20241e-16 3.51239 -0.0656614)
(-7.427e-16 4.02636 -0.0819445)
(-5.07596e-16 2.74153 -0.0368745)
(-5.17052e-16 4.09335 -0.0990745)
(-5.10945e-16 3.02941 -0.0618511)
(-6.94841e-16 3.6418 -0.145561)
(-9.09402e-16 -0.841672 0.398931)
(-9.08073e-16 -0.867692 0.396219)
(-9.07106e-16 -0.870054 0.366882)
(-9.05967e-16 -0.883742 0.332391)
(-9.04804e-16 -0.914309 0.290454)
(-9.03656e-16 -0.935064 0.248327)
(-9.02619e-16 -0.896466 0.207404)
(-9.01745e-16 -0.659931 0.155291)
(-9.00713e-16 -0.359856 0.0919787)
(-8.98777e-16 -0.373523 -0.0339562)
(-8.98649e-16 -0.354089 -0.102993)
(-8.98378e-16 -0.0965684 -0.415763)
(-8.97558e-16 0.523265 -0.648282)
(-8.97427e-16 -0.112812 -0.741963)
(-8.98435e-16 0.0789068 -0.44731)
(-8.98261e-16 -0.89656 -0.548501)
(-8.99033e-16 -0.286675 -0.584991)
(-8.9954e-16 -0.246023 -0.633371)
(-8.98873e-16 -0.342495 -0.716098)
(-8.98358e-16 -0.435021 -0.750992)
(-8.99925e-16 -0.52316 -0.746444)
(-9.02005e-16 -0.514123 -0.700475)
(-9.01484e-16 -0.546349 -0.637119)
(-8.97671e-16 -0.632485 -0.61591)
(-8.79655e-16 -0.631858 -0.575851)
(-8.92836e-16 -0.560493 -0.557633)
(-8.99255e-16 -0.675112 -0.683293)
(-8.99507e-16 -0.545695 -0.6751)
(-8.98631e-16 -0.374981 -0.5548)
(-8.99048e-16 -0.313023 -0.436226)
(-8.9953e-16 0.630896 -0.291254)
(-7.88001e-16 -2.11551 0.00208338)
(-7.72393e-16 -5.49682 -0.198852)
(-7.65964e-16 -4.94315 -0.16294)
(-7.61066e-16 -4.24814 -0.215972)
(-7.57971e-16 -3.36492 -0.241967)
(-7.56214e-16 -2.54363 -0.25109)
(-7.55257e-16 -1.29473 -0.254291)
(-7.54927e-16 -0.220751 -0.0496577)
(-7.54844e-16 -0.550146 0.0596983)
(-7.54813e-16 -0.0956692 0.068919)
(-7.54905e-16 -0.497843 0.0475876)
(-7.54938e-16 -0.388142 0.000789179)
(-7.54959e-16 -0.684034 0.0413551)
(-7.54941e-16 -0.869562 -0.144624)
(-7.5495e-16 -0.52661 -0.253733)
(-7.55027e-16 -0.335902 -0.191374)
(-7.5513e-16 0.449975 -0.333436)
(-7.55539e-16 1.04008 -0.168729)
(-7.48862e-16 1.98728 0.0510273)
(-7.23536e-16 2.89877 0.430239)
(-7.04799e-16 3.2907 0.517721)
(-7.12283e-16 2.69409 0.362631)
(-7.25222e-16 0.988778 0.105677)
(-7.08326e-16 -1.5369 0.0630822)
(-6.50037e-16 -4.90967 0.405029)
(-3.69946e-16 -5.14891 -0.160989)
(5.42503e-16 1.47534 0.315499)
(6.75702e-16 1.53307 0.503869)
(7.11948e-16 1.1408 0.541558)
(7.3724e-16 0.961573 0.556132)
(7.44404e-16 0.716731 0.545607)
(7.46537e-16 0.509083 0.544957)
(7.47786e-16 0.293029 0.514058)
(7.48875e-16 0.0345881 0.430674)
(7.48783e-16 -0.0983196 0.388051)
(7.46146e-16 -0.297499 0.428754)
(7.39147e-16 -0.559447 0.508245)
(7.19131e-16 -0.856337 0.590889)
(6.64469e-16 -1.13549 0.629578)
(5.5735e-16 -1.35039 0.61557)
(4.06629e-16 -1.42602 0.547272)
(2.80955e-16 -1.31366 0.425715)
(2.58013e-16 -1.06641 0.291969)
(2.62351e-16 -0.753502 0.218421)
(2.37777e-16 0.00986631 0.145782)
(2.68621e-16 0.634783 -0.231713)
(1.29716e-16 1.54086 -0.0589944)
(-1.65186e-16 2.88899 -0.255092)
(-9.09348e-16 -0.838736 0.383757)
(-9.08006e-16 -0.857269 0.374429)
(-9.0704e-16 -0.857767 0.33961)
(-9.05905e-16 -0.874718 0.301458)
(-9.04752e-16 -0.910836 0.256063)
(-9.03617e-16 -0.93927 0.209356)
(-9.02594e-16 -0.909601 0.163163)
(-9.01724e-16 -0.70645 0.111318)
(-9.00678e-16 -0.553639 0.0441297)
(-8.98776e-16 -0.59575 -0.0729942)
(-8.98806e-16 -0.459352 0.153336)
(-8.98428e-16 0.0161818 -0.500397)
(-8.97575e-16 0.52601 -0.665077)
(-8.97314e-16 -0.017396 -0.709284)
(-8.9788e-16 -0.324669 -0.533728)
(-8.97867e-16 -0.684944 -0.637367)
(-8.98508e-16 -0.64016 -0.897112)
(-8.99208e-16 -0.654966 -0.7185)
(-8.98996e-16 -0.617328 -0.725673)
(-8.98392e-16 -0.551429 -0.720287)
(-8.99561e-16 -0.687972 -0.713637)
(-9.01686e-16 -0.623118 -0.68682)
(-9.01741e-16 -0.614595 -0.620066)
(-8.98802e-16 -0.643942 -0.578736)
(-8.8183e-16 -0.649419 -0.533958)
(-8.90407e-16 -0.662555 -0.481486)
(-8.98555e-16 -0.72286 -0.613823)
(-8.99701e-16 -0.587613 -0.666281)
(-8.98818e-16 -0.357818 -0.574357)
(-8.99103e-16 -0.18934 -0.496996)
(-8.96301e-16 0.464255 -0.265489)
(-7.88163e-16 -2.06391 0.0267094)
(-7.72383e-16 -5.47592 -0.186976)
(-7.65984e-16 -4.93618 -0.151974)
(-7.61094e-16 -4.22493 -0.20702)
(-7.57994e-16 -3.32855 -0.23639)
(-7.56231e-16 -2.48954 -0.251573)
(-7.5527e-16 -1.18789 -0.262375)
(-7.54928e-16 0.222293 -0.0449627)
(-7.54844e-16 -0.242777 0.0806284)
(-7.54815e-16 0.420955 0.102118)
(-7.54905e-16 -0.205061 0.0588929)
(-7.54937e-16 -0.106799 -0.0448161)
(-7.54959e-16 -0.48291 -0.0230677)
(-7.54942e-16 -0.753509 -0.209861)
(-7.5495e-16 -0.39286 -0.325902)
(-7.55013e-16 -0.11273 -0.302669)
(-7.55004e-16 0.407431 -0.323165)
(-7.56015e-16 1.00084 -0.187512)
(-7.52131e-16 1.89347 -0.00846999)
(-7.27272e-16 2.82458 0.398395)
(-7.05314e-16 3.30399 0.529816)
(-7.1153e-16 2.75696 0.383591)
(-7.25926e-16 1.02551 0.102907)
(-7.08674e-16 -1.55867 0.0632012)
(-6.49474e-16 -4.91177 0.426598)
(-3.68218e-16 -5.10814 -0.152282)
(5.41326e-16 1.36607 0.306854)
(6.72317e-16 1.5079 0.518059)
(7.06713e-16 1.12976 0.548416)
(7.34542e-16 0.960572 0.579483)
(7.43164e-16 0.716586 0.565726)
(7.45775e-16 0.509125 0.566293)
(7.46936e-16 0.295402 0.539799)
(7.47898e-16 0.0533455 0.479293)
(7.4785e-16 -0.142359 0.405635)
(7.45359e-16 -0.278491 0.465506)
(7.37691e-16 -0.532255 0.54928)
(7.1532e-16 -0.81714 0.621499)
(6.57305e-16 -1.08825 0.649588)
(5.47583e-16 -1.2915 0.625044)
(3.98258e-16 -1.35448 0.544141)
(2.78397e-16 -1.23659 0.411823)
(2.58097e-16 -0.990805 0.270353)
(2.61409e-16 -0.676265 0.195463)
(2.3838e-16 0.386554 0.0470153)
(2.73506e-16 0.642633 -0.232302)
(1.32289e-16 1.54116 -0.0661409)
(-1.77369e-16 2.91429 -0.201)
(-9.09277e-16 -0.837052 0.390755)
(-9.07921e-16 -0.849235 0.376809)
(-9.06956e-16 -0.842503 0.338249)
(-9.05828e-16 -0.852843 0.297483)
(-9.04688e-16 -0.881821 0.250299)
(-9.03569e-16 -0.902284 0.201432)
(-9.02563e-16 -0.859224 0.149424)
(-9.01702e-16 -0.628213 0.0845009)
(-9.00677e-16 -0.384349 -0.00193261)
(-8.98853e-16 -0.397108 -0.0279079)
(-8.9908e-16 -0.510257 0.0956885)
(-8.98455e-16 0.135885 -0.559613)
(-8.97597e-16 0.533846 -0.682111)
(-8.97235e-16 -0.0420135 -0.688489)
(-8.97433e-16 -0.285129 -0.606404)
(-8.97553e-16 -0.626133 -0.706003)
(-8.98155e-16 -0.576907 -0.926409)
(-8.9885e-16 -0.559349 -0.783486)
(-8.98922e-16 -0.514689 -0.757082)
(-8.98537e-16 -0.513823 -0.730868)
(-8.99516e-16 -0.615654 -0.718074)
(-9.01452e-16 -0.596399 -0.690034)
(-9.01879e-16 -0.604737 -0.627827)
(-8.99782e-16 -0.655405 -0.578263)
(-8.83838e-16 -0.64909 -0.549041)
(-8.87814e-16 -0.630733 -0.512)
(-8.97319e-16 -0.692425 -0.593875)
(-8.99771e-16 -0.602139 -0.645465)
(-8.99047e-16 -0.416069 -0.545516)
(-8.99226e-16 -0.247749 -0.489316)
(-8.96688e-16 0.31633 -0.220547)
(-7.88526e-16 -2.04435 0.0301888)
(-7.72372e-16 -5.45984 -0.187228)
(-7.66007e-16 -4.94316 -0.149444)
(-7.61127e-16 -4.23067 -0.199497)
(-7.58021e-16 -3.34564 -0.22799)
(-7.56252e-16 -2.51925 -0.242031)
(-7.55285e-16 -1.26895 -0.24749)
(-7.54931e-16 -0.0508187 -0.0390798)
(-7.54843e-16 -0.392783 0.0703953)
(-7.54815e-16 0.165418 0.0737679)
(-7.54902e-16 -0.327635 0.0319532)
(-7.54936e-16 -0.240326 -0.101438)
(-7.54959e-16 -0.556788 -0.0710907)
(-7.54942e-16 -0.766699 -0.236789)
(-7.5495e-16 -0.461306 -0.322002)
(-7.54987e-16 -0.206879 -0.321569)
(-7.54944e-16 0.395862 -0.291278)
(-7.55756e-16 0.991517 -0.173687)
(-7.53091e-16 1.85328 -0.0283034)
(-7.30054e-16 2.77476 0.369566)
(-7.0641e-16 3.29783 0.525557)
(-7.11187e-16 2.7936 0.399952)
(-7.26098e-16 1.06092 0.113093)
(-7.09075e-16 -1.59751 0.0537927)
(-6.48789e-16 -4.90204 0.426601)
(-3.66069e-16 -5.09072 -0.141936)
(5.35064e-16 1.29969 0.312758)
(6.68019e-16 1.49098 0.52785)
(7.02496e-16 1.12262 0.557104)
(7.3222e-16 0.959592 0.596578)
(7.4206e-16 0.717821 0.582771)
(7.45171e-16 0.513284 0.586491)
(7.46338e-16 0.305544 0.561985)
(7.47147e-16 0.0637803 0.515788)
(7.46972e-16 -0.123991 0.465755)
(7.4434e-16 -0.303976 0.508006)
(7.3561e-16 -0.563741 0.580057)
(7.10241e-16 -0.847834 0.639241)
(6.48151e-16 -1.10937 0.657176)
(5.35538e-16 -1.30069 0.624717)
(3.8832e-16 -1.3514 0.535896)
(2.75481e-16 -1.22651 0.39871)
(2.5818e-16 -0.986352 0.254944)
(2.60474e-16 -0.678258 0.173794)
(2.39699e-16 0.259948 -0.0261968)
(2.75603e-16 0.655465 -0.233736)
(1.35331e-16 1.53508 -0.0705894)
(-1.81301e-16 2.91499 -0.175121)
(-9.09201e-16 -0.835327 0.399403)
(-9.07829e-16 -0.84562 0.381629)
(-9.06866e-16 -0.838095 0.340421)
(-9.05745e-16 -0.848848 0.297845)
(-9.04618e-16 -0.878147 0.249545)
(-9.03517e-16 -0.898941 0.198905)
(-9.02532e-16 -0.85465 0.14132)
(-9.01684e-16 -0.628903 0.0635699)
(-9.00707e-16 -0.384013 -0.0455613)
(-8.98993e-16 -0.385826 -0.016583)
(-8.99304e-16 -0.457402 -0.122437)
(-8.98472e-16 0.224801 -0.633394)
(-8.97597e-16 0.532845 -0.701885)
(-8.97157e-16 0.015198 -0.677957)
(-8.971e-16 -0.306655 -0.663152)
(-8.97328e-16 -0.546253 -0.752101)
(-8.97949e-16 -0.534008 -0.898486)
(-8.98575e-16 -0.54236 -0.82969)
(-8.98778e-16 -0.508204 -0.798356)
(-8.98655e-16 -0.52749 -0.751595)
(-8.99581e-16 -0.615262 -0.725948)
(-9.01269e-16 -0.608374 -0.694868)
(-9.019e-16 -0.619473 -0.63487)
(-9.00423e-16 -0.673945 -0.583392)
(-8.85516e-16 -0.672244 -0.54596)
(-8.85986e-16 -0.618301 -0.527789)
(-8.95822e-16 -0.659335 -0.584053)
(-8.99624e-16 -0.597473 -0.62775)
(-8.99249e-16 -0.437369 -0.526366)
(-8.99361e-16 -0.258949 -0.484056)
(-8.9692e-16 0.225341 -0.197651)
(-7.8904e-16 -2.02507 0.0291096)
(-7.72362e-16 -5.4422 -0.188547)
(-7.66029e-16 -4.93829 -0.148544)
(-7.6116e-16 -4.21963 -0.194076)
(-7.58049e-16 -3.33906 -0.221998)
(-7.56272e-16 -2.51775 -0.234796)
(-7.553e-16 -1.29775 -0.235648)
(-7.54934e-16 -0.116863 -0.0430567)
(-7.54844e-16 -0.428802 0.0566501)
(-7.54813e-16 0.142169 0.0377029)
(-7.54899e-16 -0.320808 -0.00556656)
(-7.54935e-16 -0.237381 -0.139169)
(-7.54958e-16 -0.56076 -0.100014)
(-7.54941e-16 -0.750742 -0.226833)
(-7.54946e-16 -0.465396 -0.301143)
(-7.5496e-16 -0.216981 -0.313963)
(-7.5493e-16 0.372932 -0.26866)
(-7.55757e-16 0.971287 -0.168125)
(-7.54196e-16 1.79841 -0.0504653)
(-7.32932e-16 2.71502 0.340336)
(-7.07505e-16 3.29438 0.522311)
(-7.10804e-16 2.83926 0.418434)
(-7.26206e-16 1.09344 0.129431)
(-7.0948e-16 -1.63 0.0456181)
(-6.48088e-16 -4.8785 0.423236)
(-3.63715e-16 -5.06499 -0.133048)
(5.29837e-16 1.22036 0.322552)
(6.63604e-16 1.47119 0.544553)
(6.97778e-16 1.11286 0.567871)
(7.2954e-16 0.957864 0.616411)
(7.40739e-16 0.717715 0.601925)
(7.44436e-16 0.51416 0.607767)
(7.45676e-16 0.309908 0.586274)
(7.46436e-16 0.0745559 0.551347)
(7.4615e-16 -0.129953 0.51319)
(7.43188e-16 -0.324267 0.543217)
(7.33119e-16 -0.58267 0.605041)
(7.04557e-16 -0.860102 0.652735)
(6.38339e-16 -1.11166 0.661396)
(5.23113e-16 -1.29115 0.621481)
(3.78489e-16 -1.33112 0.525661)
(2.72737e-16 -1.20167 0.384487)
(2.58256e-16 -0.964325 0.238102)
(2.5966e-16 -0.64954 0.150446)
(2.40758e-16 0.297147 -0.0656553)
(2.77941e-16 0.665178 -0.235288)
(1.37468e-16 1.53315 -0.0745189)
(-1.86479e-16 2.91808 -0.192612)
(-9.0912e-16 -0.832522 0.408789)
(-9.07733e-16 -0.838858 0.387261)
(-9.06773e-16 -0.829305 0.343611)
(-9.0566e-16 -0.839642 0.299253)
(-9.04547e-16 -0.868544 0.249707)
(-9.03464e-16 -0.88827 0.196951)
(-9.02499e-16 -0.840018 0.133475)
(-9.01667e-16 -0.616789 0.0441193)
(-9.00762e-16 -0.384841 -0.089238)
(-8.99178e-16 -0.37516 -0.0186679)
(-8.99371e-16 -0.359986 -0.276822)
(-8.98465e-16 0.275954 -0.69284)
(-8.97573e-16 0.526491 -0.727766)
(-8.97128e-16 0.0342085 -0.677749)
(-8.96893e-16 -0.348564 -0.70647)
(-8.97177e-16 -0.503136 -0.78835)
(-8.97802e-16 -0.529573 -0.886584)
(-8.98348e-16 -0.544563 -0.86255)
(-8.98632e-16 -0.508069 -0.835549)
(-8.98791e-16 -0.539063 -0.774666)
(-8.99755e-16 -0.620846 -0.736039)
(-9.01168e-16 -0.619158 -0.701528)
(-9.01872e-16 -0.633507 -0.640533)
(-9.00727e-16 -0.678804 -0.583123)
(-8.87139e-16 -0.681781 -0.547317)
(-8.84913e-16 -0.624668 -0.532763)
(-8.94257e-16 -0.647936 -0.570959)
(-8.99287e-16 -0.605054 -0.611882)
(-8.99403e-16 -0.458283 -0.514147)
(-8.99504e-16 -0.273561 -0.470642)
(-8.96966e-16 0.152463 -0.181376)
(-7.89609e-16 -2.01251 0.0273803)
(-7.72354e-16 -5.42724 -0.189227)
(-7.66051e-16 -4.93598 -0.147225)
(-7.61194e-16 -4.21105 -0.189133)
(-7.58076e-16 -3.33272 -0.216885)
(-7.56292e-16 -2.51367 -0.228989)
(-7.55314e-16 -1.31331 -0.226527)
(-7.54938e-16 -0.145229 -0.0496892)
(-7.54844e-16 -0.427217 0.0409177)
(-7.54813e-16 0.147022 -0.000476108)
(-7.54896e-16 -0.292229 -0.0293567)
(-7.54934e-16 -0.22252 -0.145907)
(-7.54957e-16 -0.551477 -0.110982)
(-7.54941e-16 -0.730257 -0.213503)
(-7.54943e-16 -0.457773 -0.29075)
(-7.54942e-16 -0.212009 -0.30592)
(-7.54931e-16 0.351267 -0.251864)
(-7.55669e-16 0.959047 -0.159005)
(-7.55001e-16 1.75329 -0.0675785)
(-7.35857e-16 2.65434 0.309472)
(-7.08842e-16 3.28322 0.515738)
(-7.1043e-16 2.88236 0.439376)
(-7.26166e-16 1.12663 0.144604)
(-7.0986e-16 -1.65685 0.0402216)
(-6.47376e-16 -4.86268 0.418914)
(-3.6113e-16 -5.04364 -0.125909)
(5.24931e-16 1.14559 0.337195)
(6.58585e-16 1.45221 0.564212)
(6.92677e-16 1.10307 0.581087)
(7.26536e-16 0.955518 0.63755)
(7.39209e-16 0.718246 0.62253)
(7.43592e-16 0.51597 0.63026)
(7.44952e-16 0.31457 0.610672)
(7.45711e-16 0.0829273 0.584205)
(7.45311e-16 -0.12537 0.55516)
(7.41874e-16 -0.331104 0.575915)
(7.30247e-16 -0.589258 0.627975)
(6.98414e-16 -0.861563 0.664667)
(6.28199e-16 -1.10543 0.66409)
(5.10782e-16 -1.27482 0.61648)
(3.69153e-16 -1.3054 0.513776)
(2.70273e-16 -1.17249 0.369049)
(2.58331e-16 -0.936237 0.220144)
(2.58979e-16 -0.6103 0.127387)
(2.41153e-16 0.300273 -0.0907161)
(2.80148e-16 0.674184 -0.236796)
(1.39895e-16 1.52853 -0.0775557)
(-1.9115e-16 2.91571 -0.146545)
(-9.09036e-16 -0.82972 0.419001)
(-9.07633e-16 -0.831507 0.393695)
(-9.06677e-16 -0.819497 0.347737)
(-9.05571e-16 -0.828889 0.301604)
(-9.04472e-16 -0.856597 0.250709)
(-9.0341e-16 -0.873712 0.195559)
(-9.02466e-16 -0.818758 0.12587)
(-9.01653e-16 -0.593013 0.0255099)
(-9.00841e-16 -0.352124 -0.133657)
(-8.99404e-16 -0.346721 -0.0403188)
(-8.99433e-16 -0.285446 -0.376068)
(-8.98444e-16 0.315653 -0.743396)
(-8.97529e-16 0.519188 -0.756773)
(-8.9712e-16 0.0639646 -0.687019)
(-8.96832e-16 -0.359795 -0.733772)
(-8.97097e-16 -0.467247 -0.816359)
(-8.97698e-16 -0.518918 -0.88102)
(-8.98169e-16 -0.548793 -0.883649)
(-8.98512e-16 -0.509951 -0.864655)
(-8.98931e-16 -0.551219 -0.797807)
(-8.99952e-16 -0.628082 -0.749395)
(-9.01074e-16 -0.630958 -0.711668)
(-9.01777e-16 -0.649358 -0.647465)
(-9.00847e-16 -0.690247 -0.585202)
(-8.88679e-16 -0.689228 -0.551997)
(-8.84357e-16 -0.631197 -0.534971)
(-8.92715e-16 -0.641417 -0.555994)
(-8.98793e-16 -0.614421 -0.595864)
(-8.99503e-16 -0.482368 -0.502537)
(-8.99655e-16 -0.294502 -0.44245)
(-8.96846e-16 0.0872763 -0.163831)
(-7.90171e-16 -2.00037 0.0260936)
(-7.7235e-16 -5.4131 -0.189305)
(-7.66072e-16 -4.93605 -0.145528)
(-7.61227e-16 -4.20582 -0.184515)
(-7.58103e-16 -3.33001 -0.212191)
(-7.56311e-16 -2.51342 -0.223989)
(-7.55327e-16 -1.33126 -0.218895)