/*--------------------------------*- C++ -*----------------------------------*\
| =========                 |                                                 |
| \\      /  F ield         | OpenFOAM: The Open Source CFD Toolbox           |
|  \\    /   O peration     | Version:  4.1                                   |
|   \\  /    A nd           | Web:      www.OpenFOAM.org                      |
|    \\/     M anipulation  |                                                 |
\*---------------------------------------------------------------------------*/
FoamFile
{
    version     2.0;
    format      ascii;
    class       surfaceScalarField;
    location    "20";
    object      phi;
}
// * * * * * * * * * * * * * * * * * * * * * * * * * * * * * * * * * * * * * //

dimensions      [0 3 -1 0 0 0 0];

internalField   nonuniform List<scalar> 
13220
(
-802.462
2102.36
-1255.98
1753.72
-1720.67
1764.59
-2062.73
1641.96
-2343.28
1580.75
-2545.22
1501.84
-2675.72
1430.4
-2732.15
1356.63
-2716.82
1284.57
-2629.37
1212.45
-2468.35
1139.18
-2214.34
1045.89
-1787.13
872.695
-1057.92
570.988
241.98
-184.196
2286.56
-415.158
1984.68
-670.646
2020.08
-859.645
1830.96
-1038.45
1759.56
-1167.97
1631.35
-1267.95
1530.38
-1331.59
1420.27
-1366.57
1319.56
-1373.23
1219.1
-1342.1
1108.05
-1244.61
948.399
-1023
651.085
-612.28
160.266
-370.3
-90.6628
2377.22
-231.774
2125.79
-322.267
2110.57
-349.601
1858.3
-368.171
1778.12
-337.118
1600.3
-287.133
1480.39
-212.798
1345.94
-127.574
1234.33
-30.8894
1122.42
76.9762
1000.18
179.239
846.136
225.999
604.324
152.981
233.283
-217.319
51.2035
2326.01
56.2723
2120.72
90.2919
2076.55
134.857
1813.73
179.354
1733.63
237.366
1542.29
296.908
1420.85
386.87
1255.97
527.598
1093.6
715.985
934.029
890.336
825.83
977.288
759.181
896.939
684.671
571.627
558.59
354.308
-25.0758
2351.09
-64.9901
2160.64
-94.1036
2105.66
-153.898
1873.52
-213.745
1793.47
-295.112
1623.65
-384.135
1509.87
-430.64
1302.48
-368.846
1031.8
-180.76
745.941
76.3325
568.735
317.801
517.707
428.074
574.393
305.334
681.325
659.642
-71.582
2422.67
-242.686
2331.74
-368.185
2231.16
-519.11
2024.44
-675.087
1949.45
-849.753
1798.32
-1038.09
1698.21
-1225.26
1489.64
-1380.94
1187.48
-1455.21
820.204
-1394.63
508.162
-1149.33
272.404
-743.344
168.408
-306.296
244.279
353.345
113.945
2308.72
-58.6078
2504.29
-144.679
2317.23
-210.563
2090.33
-260.737
1999.62
-307.233
1844.81
-348.812
1739.79
-422.044
1562.88
-563.686
1329.13
-769.5
1026.02
-978.005
716.667
-1100.37
394.762
-1017.43
85.4635
-647.591
-125.568
-294.246
308.595
2000.13
270.507
2542.38
275.985
2311.75
328.76
2037.55
416.893
1911.49
511.01
1750.7
623.056
1627.74
711.011
1474.92
733.006
1307.13
649.572
1109.45
476.705
889.534
225.784
645.688
-40.6521
351.908
-128.905
-37.3075
-423.151
283.438
1716.69
332.199
2493.62
369.039
2274.91
439.886
1966.71
537.303
1814.07
635.448
1652.55
743.073
1520.12
841.681
1376.31
915.388
1233.42
938.733
1086.11
899.419
928.848
786.681
758.419
585.957
552.624
253.054
295.584
-170.097
154.882
1561.81
215.212
2433.29
253.05
2237.07
301.631
1918.13
365.627
1750.07
424.672
1593.51
481.221
1463.57
529.155
1328.38
563.025
1199.56
575.803
1073.33
559.32
945.332
503.78
813.965
396.365
660.047
223.308
468.66
53.2113
51.6839
1510.13
122.17
2362.8
177.458
2181.78
224.478
1871.11
283.284
1691.27
337.846
1538.94
384.828
1416.59
422.124
1291.08
451.095
1170.59
471.254
1053.17
476.824
939.764
451.147
839.641
367.211
743.984
202.428
633.444
255.64
-13.0014
1523.13
72.6562
2277.14
185.106
2069.34
267.101
1789.11
332.487
1625.89
395.201
1476.23
458.934
1352.86
524.05
1225.97
591.129
1103.51
653.738
990.562
687.292
906.211
657.224
869.714
526.95
874.262
299.185
861.217
554.825
37.2757
1485.86
56.4855
2257.93
80.7084
2045.11
149.255
1720.57
260.583
1514.56
397.978
1338.84
552.275
1198.56
719.089
1059.16
873.338
949.261
973.927
889.974
970.7
909.44
838.748
1001.67
589.759
1123.25
288.266
1162.71
843.09
368.273
1117.58
542.876
2083.33
432.337
2155.65
196.804
1956.1
-43.1526
1754.52
-249.578
1545.26
-390.788
1339.77
-466.379
1134.75
-475.531
958.413
-422.252
836.696
-319.807
806.995
-207.498
889.358
-143.765
1059.52
-108.713
1127.66
734.377
635.921
1695.69
2334.8
2537.91
2531.96
2353.06
1993.43
1593.5
1127.18
676.965
307.48
95.1052
38.2529
81.1614
-2.39287e-06
-295.26
295.26
-295.26
-295.26
-295.26
320.437
-615.697
320.437
320.437
320.437
814.973
-494.536
814.973
814.973
1185.71
-370.735
1185.71
1185.71
1185.71
1425.52
-239.812
1425.52
1425.52
1567.02
-141.503
1567.02
1567.02
1567.02
1632.66
-65.6339
1632.66
1632.66
1632.66
1638.67
-6.0173
1638.67
1638.67
1587.19
51.4846
1587.19
1587.19
1587.19
1491.66
95.5336
1491.66
1491.66
1358.13
133.525
1358.13
1358.13
1358.13
1210.56
147.574
1210.56
1210.56
1210.56
1128.95
81.6062
1128.95
1128.95
1075.61
53.3439
1075.61
1075.61
1075.61
883.982
191.625
883.982
883.982
883.982
548.818
335.164
548.818
548.818
130.771
418.047
130.771
130.771
130.771
-390.674
521.445
-390.674
-390.674
-1526.69
1136.02
-1526.69
-1526.69
-1526.69
-3199.34
1672.65
-3199.34
-3199.34
-3199.34
-5283.95
2084.6
-5283.95
-5283.95
-7595.89
2311.95
-7595.89
-7595.89
-7447.99
-7300.31
-7147.53
-9418.16
2428.94
-9262.39
-9079.17
-8878.7
-8677.42
-8473.25
-8264.2
-8056.76
-7855.47
-10233.8
2581.57
-10020.9
-9806.3
-9588.23
-9382.08
-9175.32
-8965.72
-8757.62
-8552.59
-10959.5
2607.91
-10738.5
-10515.9
-10291.2
-10066
-9833.33
-9587.19
-9339.81
-9092.83
-8849.03
-11088.7
2466.45
-10821.5
-10554.1
-10286.7
-10020
-9754.07
-9469.99
-9176.74
-8885.14
-10696
2087.73
-10408
-10108.6
-9790.17
-9470.82
-9150.29
-8831.3
-8513.81
-8174.39
-9471.5
1618.59
-9148.4
-8829.86
-8513.79
-8185.32
-7852.57
-7522.17
-7191.73
-6863.15
-7631.78
1097.83
-7298.29
-6966.33
-6636.26
-6310.91
-5993.24
-5684.48
-5384.67
-5097.07
-4823.6
-4602.49
49.4111
-4376.6
-4175.73
-3981.36
-3794.75
-3612.57
-3465.5
-3383
-3295.25
-2925.87
-266.149
-2842.1
-2756.63
-2756.63
-2578.85
-177.784
-2398.73
-180.111
-2398.73
-2241.03
-157.702
-2241.03
-2101.81
-139.224
-1975.91
-125.899
-1975.91
-1857.54
-118.373
-1749.6
-107.934
-1749.6
-1646.28
-103.321
-1646.28
-1550.08
-96.2004
-1461.95
-88.1255
-1461.95
-1375.46
-86.4979
-1375.46
-1293.48
-81.9801
-1217.02
-76.4518
-1217.02
-1139.76
-77.2634
-1069.02
-70.7377
-1069.02
-997.421
-71.6032
-997.421
-927.3
-70.1203
-863.868
-63.432
-863.868
-798.634
-65.2339
-798.634
-733.813
-64.8217
-674.881
-58.9318
-674.881
-612.215
-62.6663
-556.588
-55.6264
-556.588
-498.868
-57.72
-498.868
-440.703
-58.1654
-389.513
-51.1901
-389.513
-336.142
-53.3707
-336.142
-281.275
-54.8668
-231.786
-49.4897
-231.786
-177.906
-53.8799
-130.328
-47.5777
-130.328
-82.7645
-47.5635
-82.7645
-33.3659
-49.3986
16.2473
-49.6133
16.2473
56.4078
-40.1605
56.4078
87.2359
-30.8281
128.497
-41.2607
128.497
161.661
-33.1641
200.382
-38.7214
200.382
239.318
-38.9357
239.318
270.902
-31.5841
303.278
-32.376
303.278
336.764
-33.4857
336.764
372.081
-35.3177
412.738
-40.6572
412.738
450.232
-37.4939
497.817
-47.5846
497.817
553.744
-55.9274
553.744
-60.8567
-150.772
-597.922
-151.516
-673.048
-152.729
-712.01
-154.209
-753.562
-156.035
-790.673
-158.135
-825.892
-160.524
-858.82
-163.181
-890.401
-166.103
-920.533
-169.277
-949.719
-172.701
-977.934
-176.372
-1005.44
-180.303
-1032.38
-184.513
-1059.15
-189.033
-1086.26
-193.893
-1114.3
-199.125
-1143.74
-204.753
-1174.98
-210.788
-1208.28
-217.22
-1243.76
-224.028
-1281.37
-231.231
-1320.73
-239.056
-1360.87
-248.235
-1399.78
-260.347
-1434.03
-277.945
-1458.78
-304.11
-1468.81
-341.358
-1460.3
-390.316
-1432.71
-448.915
-1389.69
-512.582
-1338.51
-575.355
-1288.36
-631.438
-1247.92
-676.593
-1223.1
-708.842
-1215.67
-728.27
-1223.55
-736.237
-1242.35
-734.516
-1266.96
-724.702
-1292.34
-707.929
-1313.48
-684.914
-1324.53
-656.709
-1319.38
-625.417
-1298.17
-588.002
-1267.66
-519.23
-1149.52
-405.952
-584.364
-326.629
525.641
-297.245
1142.22
-271.617
1461.44
-245.078
1752.31
-218.136
2054.16
-190.861
2361.85
-163.534
2670.57
-135.821
2976.75
-107.664
3267.07
-79.5568
3531.76
-51.4468
3770.52
-23.225
3974.15
1.60144
4069.95
21.3295
4077.19
35.0951
4006.86
42.7348
3876.17
46.8449
3763.67
48.6897
3647.47
49.3829
3515.29
49.7183
3356.33
49.9901
3158.44
50.6062
2928.4
51.0281
2634.32
51.7106
2324.63
51.2754
1887.21
51.094
1512.22
50.3926
779.758
53.8811
466.29
34.9487
-901.601
38.2402
-1276.77
26.042
-1388.21
19.4495
-1833.38
2817.35
-158.384
-597.958
-158.974
-672.458
-160.163
-710.822
-161.639
-752.085
-163.513
-788.798
-165.687
-823.718
-168.183
-856.325
-170.969
-887.614
-174.041
-917.461
-177.383
-946.377
-180.99
-974.327
-184.867
-1001.56
-189.031
-1028.21
-193.515
-1054.66
-198.355
-1081.42
-203.583
-1109.07
-209.227
-1138.1
-215.302
-1168.91
-221.801
-1201.78
-228.702
-1236.86
-236.013
-1274.06
-243.948
-1312.8
-253.275
-1351.54
-265.765
-1387.3
-284.421
-1415.37
-312.988
-1430.22
-354.517
-1427.28
-409.553
-1405.26
-475.098
-1367.16
-545.122
-1319.67
-612.346
-1271.29
-670.333
-1230.37
-714.987
-1203.26
-745.024
-1193.07
-761.428
-1199.26
-766.352
-1218.62
-762.087
-1246.62
-750.495
-1278.55
-732.873
-1309.96
-710.004
-1336.35
-682.267
-1352.26
-650.275
-1351.37
-616.228
-1332.21
-580.161
-1303.72
-518.678
-1211
-395.942
-707.1
-309.544
439.243
-289.995
1122.67
-268.794
1440.24
-241.968
1725.49
-215.419
2027.61
-188.784
2335.21
-162.082
2643.87
-135.063
2949.73
-107.541
3239.54
-79.9618
3504.18
-52.2875
3742.85
-24.4093
3946.27
0.22273
4045.32
19.8872
4057.53
33.7228
3993.02
41.5288
3868.36
45.8418
3759.35
47.9127
3645.4
48.8382
3514.37
49.4103
3355.76
49.9479
3157.9
50.8504
2927.5
51.623
2633.55
52.672
2323.58
52.6482
1887.24
52.9383
1511.93
52.5463
780.15
57.3151
461.522
33.7904
-878.077
34.8597
-1277.84
25.8365
-1379.19
18.5937
-1826.14
2780.01
-162.556
-598.068
-163.088
-671.926
-164.268
-709.642
-165.752
-750.601
-167.661
-786.889
-169.885
-821.494
-172.448
-853.762
-175.314
-884.748
-178.477
-914.299
-181.919
-942.935
-185.635
-970.61
-189.633
-997.566
-193.937
-1023.91
-198.586
-1050.01
-203.617
-1076.38
-209.063
-1103.62
-214.945
-1132.21
-221.269
-1162.58
-228.017
-1195.03
-235.185
-1229.69
-242.909
-1266.34
-251.786
-1303.92
-263.357
-1339.97
-280.473
-1370.18
-306.996
-1388.85
-346.423
-1390.79
-399.866
-1373.84
-464.689
-1340.44
-534.931
-1296.92
-603.274
-1251.32
-663.279
-1211.28
-710.803
-1182.84
-744.336
-1169.73
-764.497
-1172.9
-773.105
-1190.65
-772.272
-1219.45
-763.835
-1255.06
-749.163
-1293.22
-729.212
-1329.91
-704.615
-1360.94
-675.74
-1381.14
-643.125
-1383.98
-608.828
-1366.51
-574.437
-1338.11
-520.881
-1264.56
-399.781
-828.2
-294.369
333.831
-275.461
1103.76
-263.817
1428.6
-238.23
1699.9
-211.629
2001.01
-185.792
2309.37
-159.953
2618.03
-133.866
2923.64
-107.272
3212.95
-80.4922
3477.4
-53.4579
3715.81
-26.0608
3918.88
-1.71939
4020.98
17.8429
4037.97
31.7472
3979.12
39.7437
3860.37
44.3149
3754.78
46.6885
3643.03
47.9392
3513.12
48.8558
3354.85
49.7719
3156.99
51.0971
2926.18
52.3639
2632.28
53.9351
2322.01
54.5001
1886.67
55.1898
1511.24
55.4981
779.842
59.2837
457.736
33.6939
-852.487
33.7176
-1277.86
27.364
-1372.83
19.4242
-1818.2
2751.85
-167.564
-598.242
-168.047
-671.443
-169.226
-708.463
-170.727
-749.1
-172.683
-784.934
-174.971
-819.205
-177.619
-851.114
-180.585
-881.782
-183.861
-911.023
-187.427
-939.369
-191.277
-966.76
-195.423
-993.421
-199.895
-1019.44
-204.74
-1045.17
-209.999
-1071.13
-215.703
-1097.92
-221.866
-1126.05
-228.48
-1155.97
-235.532
-1187.98
-243.097
-1222.13
-251.62
-1257.81
-262.411
-1293.13
-278.155
-1324.23
-302.864
-1345.47
-340.635
-1351.08
-393.393
-1338.03
-459.019
-1308.21
-531.44
-1268.02
-602.777
-1225.58
-666.022
-1188.08
-716.685
-1160.62
-753.079
-1146.45
-775.71
-1147.1
-786.359
-1162.26
-787.209
-1189.8
-780.247
-1226.42
-767.003
-1268.3
-748.56
-1311.66
-725.686
-1352.78
-698.949
-1387.68
-668.77
-1411.32
-635.742
-1417.01
-601.898
-1400.36
-569.824
-1370.19
-524.249
-1310.13
-410.334
-942.115
-282.933
206.43
-257.458
1078.28
-254.549
1425.69
-233.812
1679.16
-207.238
1974.43
-181.985
2284.12
-157.191
2593.24
-132.232
2898.68
-106.805
3187.52
-81.0722
3451.67
-54.8847
3689.62
-28.1408
3892.13
-4.20953
3997.05
15.1848
4018.57
29.1419
3965.16
37.3602
3852.15
42.2474
3749.9
45.0039
3640.27
46.6729
3511.45
48.0345
3353.48
49.4353
3155.59
51.296
2924.32
53.1839
2630.4
55.4119
2319.78
56.6946
1885.39
57.9225
1510.01
58.6497
779.115
62.0436
454.342
34.2198
-824.663
32.5966
-1276.24
27.7926
-1368.03
19.115
-1809.52
2733.47
-172.441
-598.455
-172.897
-670.987
-174.084
-707.275
-175.612
-747.572
-177.621
-782.925
-179.98
-816.845
-182.718
-848.376
-185.789
-878.712
-189.182
-907.63
-192.875
-935.675
-196.863
-962.772
-201.158
-989.126
-205.8
-1014.79
-210.842
-1040.13
-216.331
-1065.64
-222.291
-1091.96
-228.725
-1119.62
-235.618
-1149.07
-243.002
-1180.6
-251.186
-1213.95
-261.233
-1247.77
-275.59
-1278.77
-298.306
-1301.51
-334.044
-1309.73
-385.675
-1299.45
-451.805
-1271.9
-526.319
-1233.7
-600.615
-1193.72
-666.863
-1159.34
-720.147
-1134.79
-758.757
-1122.01
-783.336
-1121.87
-795.774
-1134.66
-798.314
-1159.72
-792.995
-1195.12
-781.404
-1238.01
-764.67
-1285.03
-743.59
-1332.74
-718.795
-1377.58
-690.876
-1415.6
-660.425
-1441.77
-628.238
-1449.2
-596.36
-1432.23
-567.91
-1398.64
-531.395
-1346.65
-431.386
-1042.12
-281.682
56.7264
-239.051
1035.65
-240.249
1426.88
-227.259
1666.17
-202.377
1949.55
-177.416
2259.16
-153.71
2569.53
-130.107
2875.08
-106.078
3163.49
-81.65
3427.24
-56.5465
3664.52
-30.6419
3866.23
-7.25813
3973.66
11.8843
3999.43
25.8651
3951.18
34.3198
3843.69
39.5765
3744.64
42.7978
3637.05
44.9845
3509.26
46.9011
3351.57
48.902
3153.59
51.4226
2921.79
54.0661
2627.75
57.0978
2316.75
59.2397
1883.25
61.1507
1508.1
62.225
778.04
65.1897
451.377
35.5021
-794.975
32.0877
-1272.82
28.0122
-1363.95
18.3918
-1799.9
2711.21
-177.414
-598.685
-177.86
-670.54
-179.067
-706.069
-180.631
-746.008
-182.701
-780.854
-185.14
-814.407
-187.976
-845.54
-191.159
-875.528
-194.679
-904.111
-198.508
-931.846
-202.641
-958.639
-207.094
-984.673
-211.913
-1009.97
-217.162
-1034.88
-222.887
-1059.91
-229.104
-1085.74
-235.806
-1112.91
-242.994
-1141.89
-250.861
-1172.73
-260.226
-1204.58
-273.227
-1234.77
-293.821
-1258.18
-327.15
-1268.18
-377.158
-1259.73
-443.49
-1233.12
-520.236
-1195.15
-598.001
-1155.93
-667.814
-1123.91
-724.007
-1103.14
-764.75
-1094.05
-790.941
-1095.82
-804.76
-1108.05
-808.629
-1130.79
-804.66
-1163.68
-794.474
-1205.31
-779.22
-1253.26
-759.703
-1304.55
-736.558
-1355.89
-710.408
-1403.73
-681.993
-1444.02
-652.197
-1471.57
-622.126
-1479.27
-593.869
-1460.49
-570.632
-1421.87
-543.765
-1373.51
-459.865
-1126.02
-293.714
-109.425
-223.392
965.33
-221.981
1425.47
-216.956
1661.15
-196.539
1929.13
-172.277
2234.9
-149.474
2546.73
-127.414
2853.02
-105.01
3141.09
-82.1261
3404.36
-58.3473
3640.74
-33.4834
3841.36
-10.7991
3950.98
7.98897
3980.64
21.9422
3937.23
30.6297
3835.01
36.2928
3738.98
40.0505
3633.29
42.8476
3506.46
45.424
3348.99
48.1357
3150.87
51.4338
2918.5
54.9574
2624.23
58.9231
2312.79
62.0566
1880.11
64.7287
1505.43
66.1413
776.628
68.6934
448.825
37.6099
-763.892
32.2845
-1267.5
28.4337
-1360.1
17.7451
-1789.21
2693.63
-182.441
-598.916
-182.894
-670.088
-184.129
-704.835
-185.739
-744.398
-187.879
-778.713
-190.405
-811.881
-193.348
-842.598
-196.653
-872.223
-200.306
-900.457
-204.28
-927.872
-208.565
-954.354
-213.183
-980.056
-218.186
-1004.97
-223.648
-1029.42
-229.611
-1053.95
-236.08
-1079.27
-243.048
-1105.95
-250.613
-1134.32
-259.362
-1163.98
-271.076
-1192.87
-289.47
-1216.37
-320.01
-1227.64
-367.754
-1220.44
-433.726
-1193.75
-512.611
-1154.23
-594.305
-1113.46
-668.402
-1081.84
-728.067
-1064.24
-771.083
-1060.13
-798.597
-1066.54
-813.265
-1081.15
-817.898
-1103.42
-814.82
-1133.87
-805.718
-1172.79
-791.733
-1219.29
-773.639
-1271.36
-752.026
-1326.16
-727.476
-1380.44
-700.732
-1430.47
-672.811
-1471.94
-644.987
-1499.39
-618.696
-1505.56
-595.938
-1483.25
-579.521
-1438.29
-562.658
-1390.38
-493.612
-1195.07
-315.177
-287.86
-213.05
863.203
-201.909
1414.33
-202.162
1661.4
-188.487
1915.46
-166.541
2212.95
-144.535
2524.72
-124.059
2832.54
-103.522
3120.55
-82.4108
3383.25
-60.1974
3618.53
-36.5978
3817.77
-14.7877
3929.17
3.52279
3962.33
17.3761
3923.37
26.278
3826.1
32.3744
3732.88
36.7324
3628.93
40.229
3502.97
43.5672
3345.65
47.097
3147.34
51.2856
2914.31
55.8055
2619.71
60.8268
2307.77
65.0734
1875.87
68.5684
1501.93
70.2942
774.902
72.5397
446.58
40.4891
-731.841
33.1153
-1260.12
29.4654
-1356.45
17.7868
-1777.54
2677.94
-187.54
-599.129
-188.013
-669.614
-189.287
-703.561
-190.953
-742.732
-193.172
-776.495
-195.794
-809.258
-198.852
-839.541
-202.287
-868.787
-206.085
-896.66
-210.211
-923.746
-214.657
-949.908
-219.446
-975.267
-224.641
-999.776
-230.318
-1023.74
-236.516
-1047.75
-243.229
-1072.56
-250.498
-1098.68
-258.702
-1126.12
-269.241
-1153.44
-285.444
-1176.66
-312.875
-1188.94
-357.634
-1182.88
-422.426
-1155.65
-503.047
-1113.13
-588.968
-1068.31
-668.156
-1034.27
-732.166
-1017.83
-778.012
-1018.4
-806.936
-1031.2
-822.127
-1051.35
-826.971
-1076.31
-824.2
-1106.19
-815.696
-1142.37
-802.635
-1185.85
-785.733
-1236.2
-765.491
-1291.6
-742.403
-1349.25
-717.143
-1405.7
-690.718
-1456.9
-664.557
-1498.1
-640.366
-1523.58
-619.787
-1526.14
-604.396
-1498.64
-596.052
-1446.64
-589.028
-1397.4
-533.44
-1250.66
-346.246
-475.054
-209.936
726.893
-182.512
1386.91
-183.461
1662.35
-176.864
1908.86
-159.649
2195.74
-138.981
2504.06
-119.983
2813.55
-101.525
3102.1
-82.4301
3364.15
-62.0197
3598.12
-39.9243
3795.67
-19.1874
3908.43
-1.49708
3944.64
12.1647
3909.71
21.2456
3817.02
27.7928
3726.33
32.8083
3623.92
37.0901
3498.69
41.291
3341.45
45.7455
3142.89
50.9378
2909.12
56.5672
2614.08
62.7679
2301.56
68.2462
1870.39
72.6513
1497.53
74.6674
772.886
76.6767
444.57
43.8654
-699.03
34.4088
-1250.67
30.819
-1352.86
18.1854
-1764.9
2663.75
-192.715
-599.309
-193.222
-669.107
-194.546
-702.237
-196.277
-741.001
-198.584
-774.188
-201.312
-806.53
-204.493
-836.36
-208.069
-865.211
-212.019
-892.71
-216.307
-919.458
-220.923
-945.292
-225.89
-970.3
-231.281
-994.385
-237.173
-1017.85
-243.595
-1041.33
-250.558
-1065.6
-258.283
-1090.95
-267.79
-1116.61
-281.908
-1139.33
-306.032
-1152.54
-347.094
-1147.88
-409.666
-1120.31
-491.252
-1074.06
-581.397
-1022.99
-666.421
-983.287
-735.828
-964.864
-785.414
-968.242
-816.254
-987.559
-832.003
-1015.45
-836.695
-1046.65
-833.628
-1079.38
-825.068
-1114.75
-812.369
-1155.07
-796.252
-1201.97
-777.116
-1255.33
-755.321
-1313.39
-731.407
-1373.16
-706.291
-1430.81
-681.406
-1481.78
-658.672
-1520.83
-640.146
-1542.11
-627.333
-1538.95
-620.845
-1505.13
-621.029
-1446.45
-622.853
-1395.58
-579.648
-1293.86
-388.41
-666.291
-215.786
554.269
-166.162
1337.29
-162.62
1658.81
-160.995
1907.24
-150.533
2185.27
-132.713
2486.24
-115.206
2796.04
-98.922
3085.81
-82.1081
3347.34
-63.7396
3579.75
-43.3945
3775.32
-23.9492
3888.99
-7.04163
3927.73
6.31816
3896.35
15.5248
3807.82
22.5282
3719.33
28.2501
3618.2
33.3975
3493.54
38.5597
3336.29
44.0438
3137.41
50.3528
2902.81
57.2042
2607.23
64.7123
2294.06
71.5403
1863.56
76.9775
1492.09
79.2824
770.581
81.0943
442.759
47.5813
-665.517
35.9935
-1239.08
32.113
-1348.98
18.5875
-1751.38
2650.75
-197.974
-599.443
-198.527
-668.553
-199.912
-700.853
-201.719
-739.194
-204.122
-771.785
-206.964
-803.688
-210.279
-833.045
-214.005
-861.486
-218.118
-888.596
-222.579
-914.997
-227.372
-940.499
-232.525
-965.147
-238.112
-988.799
-244.21
-1011.75
-250.848
-1034.69
-258.137
-1058.31
-266.767
-1082.32
-278.994
-1104.38
-299.78
-1118.54
-336.542
-1115.78
-395.726
-1088.69
-477.131
-1038.9
-571.092
-980.1
-662.48
-931.599
-738.371
-907.397
-792.826
-910.409
-826.438
-934.63
-843.21
-970.787
-847.788
-1010.88
-844.075
-1050.37
-834.84
-1088.61
-821.797
-1127.79
-805.838
-1171.03
-787.348
-1220.46
-766.545
-1276.13
-743.786
-1336.15
-719.821
-1397.13
-695.989
-1454.65
-674.266
-1503.51
-657.043
-1538.06
-646.429
-1552.72
-643.22
-1542.16
-646.399
-1501.95
-654.405
-1438.45
-662.989
-1386.99
-631.213
-1325.64
-443.101
-854.403
-231.849
343.017
-154.415
1259.85
-141.956
1646.35
-141.321
1906.6
-138.004
2181.96
-125.217
2473.45
-109.77
2780.59
-95.6435
3071.69
-81.3567
3333.05
-65.2876
3563.68
-46.9381
3756.98
-29.018
3871.07
-13.077
3911.79
-0.146433
3883.42
9.11507
3798.55
16.567
3711.88
23.0359
3611.73
29.1225
3487.45
35.3406
3330.07
41.9573
3130.79
49.4949
2895.27
57.6808
2599.04
66.6278
2285.11
74.9247
1855.26
81.5412
1485.47
84.1747
767.947
85.8493
441.084
51.6644
-631.332
37.852
-1225.27
33.1626
-1344.29
18.6392
-1736.85
2630.45
-203.324
-599.515
-203.935
-667.942
-205.391
-699.397
-207.283
-737.301
-209.793
-769.276
-212.76
-800.72
-216.219
-829.586
-220.105
-857.599
-224.393
-884.309
-229.036
-910.354
-234.016
-935.519
-239.357
-959.806
-245.135
-983.021
-251.424
-1005.46
-258.302
-1027.81
-266.194
-1050.42
-276.787
-1071.73
-294.376
-1086.79
-326.438
-1086.48
-381.068
-1061.15
-460.818
-1008.94
-557.715
-942.004
-655.659
-882.156
-739.025
-848.232
-799.571
-846.85
-837.026
-872.954
-855.611
-916.045
-860.552
-965.846
-856.302
-1015.13
-846.105
-1060.56
-832.101
-1102.61
-815.535
-1144.36
-796.979
-1189.59
-776.63
-1240.8
-754.67
-1298.09
-731.623
-1359.2
-708.637
-1420.11
-687.631
-1475.65
-671.162
-1519.97
-661.85
-1547.37
-661.294
-1553.28
-668.831
-1534.62
-681.256
-1489.52
-695.075
-1424.63
-707.302
-1374.76
-686.162
-1346.78
-515.628
-1024.94
-264.629
92.0188
-148.484
1143.71
-123.492
1621.36
-119.329
1902.44
-121.324
2183.95
-115.542
2467.67
-103.566
2768.61
-91.678
3059.8
-80.0784
3321.45
-66.5955
3550.2
-50.4891
3740.87
-34.3364
3854.91
-19.5663
3897.02
-7.20955
3871.06
2.02098
3789.32
9.89917
3704
17.1471
3604.48
24.239
3480.36
31.6024
3322.71
39.4514
3122.94
48.3274
2886.39
57.9603
2589.41
68.4796
2274.59
78.3676
1845.37
86.3202
1477.52
89.3687
764.899
91.0067
439.446
56.2395
-596.565
40.0713
-1209.1
34.3698
-1338.59
18.8127
-1721.3
2610.54
-208.772
-599.514
-209.451
-667.263
-210.99
-697.858
-212.979
-735.312
-215.605
-766.65
-218.707
-797.618
-222.32
-825.973
-226.378
-853.541
-230.852
-879.836
-235.689
-905.516
-240.863
-930.345
-246.392
-954.277
-252.344
-977.069
-258.82
-998.981
-266.087
-1020.55
-275.317
-1041.19
-290.009
-1057.04
-317.236
-1059.57
-366.285
-1037.43
-442.687
-984.746
-541.141
-910.49
-645.392
-837.753
-737.032
-790.516
-804.887
-780.377
-847.335
-804.403
-868.674
-851.614
-874.738
-909.981
-870.51
-970.074
-859.591
-1026.05
-844.444
-1075.71
-826.682
-1120.38
-807.247
-1163.79
-786.554
-1210.28
-764.768
-1262.59
-742.21
-1320.65
-719.769
-1381.64
-699.188
-1440.7
-683.057
-1491.78
-674.345
-1528.69
-675.368
-1546.35
-686.403
-1542.24
-704.619
-1516.4
-724.465
-1469.68
-741.01
-1408.08
-753.211
-1362.56
-740.782
-1359.21
-602.349
-1163.37
-319.897
-190.434
-149.779
973.589
-108.323
1579.9
-97.0737
1891.19
-100.679
2187.56
-102.594
2469.58
-96.1572
2762.18
-87.0348
3050.68
-78.1883
3312.61
-67.5853
3539.59
-53.9869
3727.27
-39.8452
3840.77
-26.4682
3883.64
-14.8496
3859.45
-5.75008
3780.22
2.5181
3695.73
10.5676
3596.43
18.7232
3472.2
27.3138
3314.12
36.4907
3113.76
46.8113
2876.07
58.0028
2578.22
70.2297
2262.36
81.8341
1833.77
91.2775
1468.08
94.8612
761.315
96.5892
437.718
61.365
-561.341
42.7227
-1190.46
36.0867
-1331.95
19.5262
-1704.74
2596.91
-214.328
-599.427
-215.085
-666.506
-216.718
-696.225
-218.813
-733.216
-221.566
-763.897
-224.813
-794.371
-228.591
-822.195
-232.834
-849.298
-237.506
-875.164
-242.548
-900.474
-247.921
-924.972
-253.627
-948.571
-259.738
-970.958
-266.463
-992.256
-274.586
-1012.42
-286.777
-1029
-309.318
-1034.49
-352.041
-1016.84
-423.334
-966.136
-521.491
-886.589
-631.269
-800.712
-731.701
-737.321
-808.029
-714.188
-856.631
-731.775
-881.679
-779.355
-889.685
-843.608
-886.26
-913.406
-875.317
-981.018
-859.449
-1041.91
-840.456
-1094.7
-819.61
-1141.22
-797.725
-1185.68
-775.228
-1232.78
-752.434
-1285.38
-730.011
-1343.07
-709.444
-1402.21
-693.221
-1456.92
-684.521
-1500.48
-686.242
-1526.97
-699.535
-1533.05
-722.483
-1519.29
-749.747
-1489.14
-773.925
-1445.5
-789.576
-1392.43
-798.056
-1354.08
-790.532
-1366.73
-682.558
-1271.34
-384.93
-488.062
-159.389
748.048
-96.4115
1516.92
-76.5497
1871.33
-77.3235
2188.33
-85.6128
2477.87
-86.7219
2763.29
-81.6196
3045.57
-75.6345
3306.62
-68.1604
3532.12
-57.3712
3716.48
-45.4853
3828.89
-33.7376
3871.9
-23.0426
3848.75
-14.1902
3771.37
-5.58123
3687.12
3.28426
3587.56
12.5544
3462.93
22.4453
3304.23
33.0393
3103.17
44.9063
2864.21
57.7668
2565.36
71.8378
2248.29
85.2888
1820.32
96.3733
1456.99
100.626
757.063
102.593
435.751
67.0371
-525.785
45.8076
-1169.23
37.9722
-1324.12
20.8305
-1687.59
2576.48
-219.998
-599.241
-220.843
-665.661
-222.581
-694.487
-224.794
-731.004
-227.684
-761.008
-231.088
-790.966
-235.043
-818.24
-239.483
-844.858
-244.367
-870.28
-249.623
-895.218
-255.192
-919.403
-261.058
-942.706
-267.338
-964.677
-274.578
-985.016
-284.709
-1002.29
-302.957
-1010.75
-338.993
-998.459
-403.537
-952.3
-499.153
-870.52
-613.065
-772.677
-722.428
-691.349
-808.316
-651.433
-864.244
-658.26
-893.906
-702.114
-904.584
-768.677
-902.7
-845.492
-892.574
-923.532
-876.851
-996.741
-857.261
-1061.5
-835.152
-1116.81
-811.638
-1164.74
-787.577
-1209.74
-763.586
-1256.77
-740.348
-1308.62
-719.139
-1364.28
-702.254
-1419.09
-692.94
-1466.23
-694.56
-1498.86
-709.066
-1512.46
-735.409
-1506.71
-768.891
-1485.81
-802.019
-1456.01
-826.684
-1420.84
-838.022
-1381.09
-839.67
-1352.44
-832.922
-1373.48
-751.853
-1352.41
-458.828
-781.087
-180.417
469.637
-87.2373
1423.74
-59.125
1843.22
-53.274
2182.48
-64.6223
2489.22
-74.2465
2772.91
-75.0931
3046.42
-72.3937
3303.92
-68.2138
3527.94
-60.5695
3708.84
-51.1998
3819.52
-41.3256
3862.02
-31.7605
3839.19
-23.2886
3762.9
-14.4009
3678.23
-4.7151
3577.88
5.71509
3452.5
16.9712
3292.97
29.0635
3091.08
42.5738
2850.7
57.2111
2550.72
73.266
2232.24
88.6996
1804.89
101.574
1444.12
106.628
752.009
109
433.379
73.2511
-490.036
49.3121
-1145.29
39.8715
-1314.68
21.9423
-1669.66
2567.59
-225.791
-598.944
-226.733
-664.719
-228.589
-692.631
-230.93
-728.663
-233.968
-757.969
-237.541
-787.394
-241.686
-814.095
-246.336
-840.207
-251.444
-865.173
-256.921
-889.741
-262.677
-913.648
-268.689
-936.693
-275.267
-958.1
-283.775
-976.509
-298.308
-987.756
-327.713
-981.344
-384.199
-941.974
-474.786
-861.713
-590.77
-754.536
-708.689
-654.759
-805.111
-594.926
-869.605
-586.94
-904.775
-623.09
-918.711
-688.178
-918.908
-768.48
-910.293
-854.106
-895.631
-938.194
-876.48
-1015.89
-853.963
-1084.02
-829.18
-1141.6
-803.25
-1190.67
-777.237
-1235.75
-752.163
-1281.84
-729.358
-1331.43
-710.983
-1382.66
-700.264
-1429.81
-700.916
-1465.58
-715.634
-1484.14
-744.238
-1483.86
-782.622
-1468.32
-823.429
-1445.01
-858.147
-1421.29
-879.439
-1399.54
-883.866
-1376.66
-876.604
-1359.7
-866.48
-1383.61
-809.625
-1409.27
-550.881
-1039.83
-222.683
141.438
-81.2225
1282.28
-45.0639
1807.06
-30.6914
2168.11
-40.6515
2499.18
-57.9349
2790.19
-66.8125
3055.3
-68.4241
3305.53
-67.6631
3527.18
-63.4845
3704.66
-56.9275
3812.96
-49.1785
3854.27
-40.9699
3830.98
-33.0307
3754.96
-23.9385
3669.14
-13.4393
3567.38
-1.80938
3440.87
10.8713
3280.29
24.5347
3077.41
39.7785
2835.45
56.2981
2534.2
74.4801
2214.06
92.0402
1787.33
106.858
1429.3
112.836
746.031
115.779
430.435
80.0009
-454.257
53.2421
-1118.53
42.1478
-1303.58
23.7501
-1651.27
2551.18
-231.716
-598.525
-232.764
-663.672
-234.749
-690.645
-237.229
-726.183
-240.428
-754.771
-244.181
-783.641
-248.529
-809.747
-253.405
-835.332
-258.748
-859.829
-264.445
-884.044
-270.372
-907.721
-276.579
-930.486
-283.901
-950.778
-295.403
-965.007
-318.645
-964.514
-366.255
-933.734
-449.33
-858.899
-564.652
-746.391
-690.055
-629.134
-797.781
-547.033
-872.205
-520.502
-913.87
-545.275
-931.558
-605.401
-934.143
-685.592
-927.447
-775.177
-914.511
-867.042
-896.776
-955.929
-875.037
-1037.63
-850.055
-1109
-822.843
-1168.81
-794.671
-1218.84
-766.997
-1263.43
-741.522
-1307.32
-720.551
-1352.4
-707.37
-1395.84
-705.991
-1431.19
-719.81
-1451.76
-749.553
-1454.4
-791.754
-1441.65
-839.083
-1421
-882.57
-1401.52
-914.315
-1389.55
-929.028
-1384.83
-925.015
-1380.68
-907.864
-1376.85
-890.599
-1400.87
-851.731
-1448.14
-655.793
-1235.77
-294.215
-220.14
-80.34
1068.41
-33.2544
1759.97
-11.1852
2146.04
-15.5673
2503.56
-37.5835
2812.21
-55.8571
3073.57
-63.5429
3313.22
-66.4893
3530.13
-66.0001
3704.17
-62.5908
3809.55
-57.2367
3848.92
-50.6296
3824.37
-43.396
3747.73
-34.1858
3659.93
-22.8926
3556.09
-10.029
3428.01
4.13367
3266.13
19.4305
3062.12
36.4899
2818.39
54.9948
2515.7
75.4515
2193.6
95.2913
1767.49
112.212
1412.38
119.226
739.017
122.897
426.763
87.2684
-418.628
57.587
-1088.85
44.3333
-1290.33
25.4033
-1632.34
2526.97
-237.782
-597.97
-238.944
-662.51
-241.072
-688.517
-243.703
-723.552
-247.074
-751.4
-251.021
-779.694
-255.586
-805.182
-260.7
-830.217
-266.285
-854.244
-272.195
-878.134
-278.303
-901.613
-284.943
-923.847
-294.162
-941.559
-312.047
-947.122
-350.598
-925.963
-423.959
-860.373
-535.328
-747.529
-666.243
-615.476
-785.643
-509.734
-871.509
-461.167
-920.887
-471.123
-942.854
-523.309
-947.956
-600.299
-943.285
-690.263
-932.39
-786.071
-916.707
-882.725
-896.762
-975.874
-872.889
-1061.5
-845.668
-1136.22
-816.156
-1198.32
-785.93
-1249.06
-757.093
-1292.26
-732.379
-1332.03
-715.418
-1369.36
-710.652
-1400.61
-722.223
-1419.62
-751.831
-1422.15
-796.761
-1409.47
-849.737
-1388.68
-901.105
-1369.63
-942.052
-1360.57
-966.81
-1364.79
-972.741
-1378.9
-959.659
-1393.76
-932.417
-1404.09
-904.848
-1428.44
-873.215
-1479.77
-733.182
-1375.8
-369.557
-583.765
-87.9604
786.813
-21.8257
1693.84
4.74103
2119.47
8.47136
2499.83
-13.7819
2834.46
-41.152
3100.94
-57.1959
3329.26
-64.6951
3537.63
-68.014
3707.49
-68.0832
3809.62
-65.4297
3846.27
-60.6895
3819.63
-54.3573
3741.4
-45.1292
3650.7
-33.0716
3544.03
-18.9496
3413.89
-3.25493
3250.43
13.7322
3045.13
32.6848
2799.44
53.2736
2495.11
76.1572
2170.71
98.441
1745.2
117.632
1393.19
125.784
730.866
130.321
422.226
95.0416
-383.349
62.3594
-1056.17
46.5906
-1274.56
26.4451
-1612.19
2504.02
-243.999