/*--------------------------------*- C++ -*----------------------------------*\
| =========                 |                                                 |
| \\      /  F ield         | OpenFOAM: The Open Source CFD Toolbox           |
|  \\    /   O peration     | Version:  4.1                                   |
|   \\  /    A nd           | Web:      www.OpenFOAM.org                      |
|    \\/     M anipulation  |                                                 |
\*---------------------------------------------------------------------------*/
FoamFile
{
    version     2.0;
    format      ascii;
    class       volVectorField;
    location    "20";
    object      U;
}
// * * * * * * * * * * * * * * * * * * * * * * * * * * * * * * * * * * * * * //

dimensions      [0 1 -1 0 0 0 0];

internalField   nonuniform List<vector> 
6785
(
(1.28281e-14 -2.33874 16.5245)
(1.11237e-14 -7.91047 13.0311)
(-2.66897e-15 -5.12272 13.8229)
(4.19838e-15 -5.04252 13.3387)
(8.39976e-16 -4.23938 13.203)
(-3.83984e-17 -3.79443 12.9154)
(2.65401e-15 -3.34717 12.6202)
(5.91897e-16 -3.01418 12.2748)
(-7.13684e-16 -2.77002 11.9112)
(1.65233e-15 -2.65365 11.5468)
(1.8961e-16 -2.63947 11.2468)
(-5.1926e-16 -2.73605 11.0466)
(6.57938e-16 -3.28933 10.6078)
(-2.03574e-16 -3.46503 9.62014)
(-1.29358e-16 -0.140635 7.53023)
(1.91868e-14 -10.2967 27.0125)
(1.32947e-14 -16.4122 23.3411)
(-2.36053e-15 -11.2814 23.7074)
(4.8062e-15 -12.1345 21.8607)
(7.51222e-16 -10.4292 21.0074)
(1.05311e-15 -9.85207 19.7706)
(2.01056e-15 -8.91147 18.6803)
(2.62502e-16 -8.18113 17.5349)
(1.38403e-16 -7.4407 16.4164)
(8.29274e-16 -6.77296 15.2957)
(2.34471e-17 -6.07971 14.0734)
(-1.20297e-16 -5.09484 12.2705)
(-1.69873e-16 -3.37359 8.84603)
(-7.26171e-16 -0.620987 3.16244)
(-5.85802e-16 1.42419 -2.22867)
(2.0687e-14 -12.6163 28.0627)
(1.25385e-14 -17.0241 24.786)
(-1.8441e-15 -11.9431 24.8009)
(5.12192e-15 -13.3497 22.0932)
(8.20359e-16 -11.0912 21.1102)
(1.45872e-15 -10.8384 19.2464)
(2.13401e-15 -9.72906 17.8728)
(2.57574e-16 -9.12615 16.3739)
(3.76403e-16 -8.41499 15.0578)
(1.31415e-15 -7.80714 13.7354)
(4.92605e-16 -7.1143 12.2702)
(1.89995e-16 -6.05874 10.2628)
(2.94447e-16 -4.2855 6.73189)
(-1.86566e-16 -0.415814 1.05309)
(-2.19401e-15 1.49122 -5.6269)
(2.12897e-14 -12.982 26.9864)
(1.21458e-14 -16.6757 24.4289)
(-1.52181e-15 -12.0087 24.0337)
(4.73107e-15 -13.6176 20.9171)
(4.76741e-16 -10.9931 20.016)
(1.75203e-15 -11.0148 17.7681)
(1.73043e-15 -9.64676 16.3602)
(-5.03574e-16 -9.11208 14.7345)
(5.08882e-16 -8.42305 13.4704)
(2.27873e-16 -7.98146 12.1997)
(-1.60787e-15 -7.50752 10.8427)
(-4.58502e-16 -6.80763 9.32623)
(-2.86077e-16 -5.82527 7.3271)
(-3.36597e-15 -3.72521 4.59547)
(-3.42576e-15 -1.74056 1.07082)
(2.11116e-14 -13.3208 26.6158)
(9.48947e-15 -15.9825 24.4284)
(-1.35147e-15 -12.0718 23.8043)
(3.01087e-15 -13.0877 20.8741)
(-3.91131e-16 -10.5101 19.9373)
(1.21043e-15 -10.3791 17.7702)
(-3.7083e-16 -8.75596 16.3949)
(-1.24837e-15 -7.74018 14.2273)
(2.05345e-16 -6.12897 11.7631)
(1.86486e-16 -5.06789 9.41838)
(1.69639e-16 -4.83636 8.39782)
(8.33468e-16 -5.31091 8.46442)
(-1.27489e-15 -5.66583 8.68653)
(-6.05957e-15 -5.72479 8.45866)
(-4.22706e-15 -4.34672 7.23318)
(2.15019e-14 -14.2763 27.7576)
(7.18141e-15 -16.0772 25.5598)
(-7.26018e-16 -12.7428 24.9109)
(1.8703e-15 -13.2446 22.4745)
(-3.63972e-16 -10.9828 21.5672)
(7.35009e-16 -10.7139 19.8105)
(-1.20764e-15 -9.09342 18.5461)
(-7.86162e-16 -7.64756 15.9296)
(1.27482e-15 -4.98448 12.1412)
(3.19084e-15 -2.42503 7.86879)
(3.4483e-15 -0.51619 4.75947)
(7.21158e-16 -0.00635183 3.45889)
(-2.78444e-15 -1.23098 4.58763)
(-4.60847e-15 -3.61706 7.35229)
(-2.66411e-15 -3.78475 8.03084)
(2.00847e-14 -14.7039 28.0022)
(7.98061e-15 -17.6866 28.0786)
(-1.51809e-15 -13.8812 26.3963)
(1.74002e-15 -14.5064 24.0402)
(-7.43054e-16 -12.3577 23.1869)
(-5.74874e-16 -12.3807 21.4366)
(-1.00123e-15 -10.9487 20.3577)
(-1.41191e-15 -10.0349 18.104)
(-1.0011e-15 -7.73139 14.8646)
(2.32609e-15 -5.14281 10.5937)
(1.15573e-15 -2.33466 6.45437)
(-1.13896e-17 0.263663 2.27169)
(7.13419e-16 2.55665 -1.37036)
(-4.30053e-15 3.03428 -2.56332)
(-7.094e-15 1.11636 -1.04429)
(1.89582e-14 -13.6265 25.1115)
(1.19078e-14 -18.6315 29.5784)
(4.32196e-16 -15.023 26.933)
(1.49483e-15 -14.9852 24.0588)
(1.17519e-16 -13.2685 22.8329)
(7.33801e-17 -13.0854 21.0114)
(1.4061e-16 -12.0508 19.6987)
(-4.488e-16 -11.4066 17.8994)
(-3.74242e-16 -10.1757 15.7769)
(8.97213e-16 -8.62975 13.0992)
(8.01274e-16 -6.69951 10.1167)
(1.05796e-15 -4.40947 6.81723)
(1.89303e-15 -1.86397 3.06789)
(2.51588e-15 2.29778 -1.58909)
(-2.48067e-15 2.03165 -5.88275)
(1.71411e-14 -11.8328 21.1569)
(1.51855e-14 -18.0937 29.2023)
(3.1356e-15 -15.2444 26.5459)
(1.5195e-15 -14.3762 23.1022)
(1.19271e-15 -12.8446 21.4417)
(1.02057e-15 -12.3333 19.5697)
(1.00396e-15 -11.3911 18.0462)
(8.86028e-16 -10.6564 16.3427)
(7.38239e-16 -9.77119 14.6102)
(9.60873e-16 -8.75951 12.7427)
(1.36561e-15 -7.59606 10.6898)
(1.01999e-15 -6.1081 8.43874)
(1.16973e-15 -4.46816 5.72827)
(2.96445e-15 -1.762 2.44795)
(-2.68232e-15 0.507343 -2.95675)
(1.59922e-14 -10.4815 18.5281)
(1.67894e-14 -17.1833 28.3751)
(4.70589e-15 -14.9565 25.9959)
(1.37322e-15 -13.6337 22.3271)
(1.61621e-15 -12.1272 20.4512)
(1.58052e-15 -11.4615 18.6005)
(1.14002e-15 -10.5046 17.0619)
(1.42527e-15 -9.70478 15.4326)
(1.24379e-15 -8.85655 13.8694)
(9.60065e-16 -7.99221 12.3323)
(1.63268e-15 -7.11514 10.7485)
(8.31241e-16 -6.03787 9.07383)
(-4.90754e-16 -4.87056 7.03967)
(2.78817e-15 -2.93029 4.39455)
(-2.22265e-15 -0.469056 -0.770802)
(1.43401e-14 -9.8704 17.5061)
(1.79152e-14 -16.5308 27.7703)
(4.8924e-15 -14.7157 25.6047)
(7.58723e-16 -13.2066 21.9179)
(1.97642e-15 -11.7308 19.9109)
(4.25693e-16 -11.0368 18.1339)
(2.53499e-16 -10.1465 16.6773)
(1.50718e-15 -9.39484 15.1805)
(-4.65462e-16 -8.613 13.7582)
(-7.30452e-16 -7.8414 12.3815)
(1.06228e-15 -7.09732 11.0029)
(-1.62016e-15 -6.24477 9.63004)
(-2.19337e-15 -5.38183 8.09761)
(-2.66404e-15 -3.97132 6.27796)
(-7.12441e-15 -1.46113 1.56945)
(1.41171e-14 -9.75733 17.2494)
(1.86649e-14 -15.7046 26.7082)
(3.09344e-15 -14.2337 24.6976)
(1.34861e-16 -12.7999 21.2021)
(3.13232e-15 -11.3485 19.0709)
(-1.85739e-15 -10.6385 17.3353)
(-1.92453e-15 -9.83816 15.9654)
(2.15216e-15 -9.17469 14.5797)
(-7.21557e-16 -8.48289 13.2282)
(-3.46615e-15 -7.81028 11.898)
(-1.70937e-15 -7.20172 10.673)
(-3.55948e-15 -6.65048 9.74129)
(-3.50781e-15 -6.222 9.06838)
(-5.72776e-15 -5.38249 8.34439)
(-9.95175e-15 -3.03507 4.35858)
(1.29254e-14 -10.3542 18.1067)
(1.77042e-14 -15.2807 25.9641)
(4.18062e-16 -13.2871 23.1995)
(-8.17612e-16 -12.0686 20.2524)
(3.88224e-15 -10.9179 18.6219)
(-3.66637e-15 -10.3617 16.9176)
(-3.87285e-15 -9.58852 15.4371)
(6.1435e-15 -8.99918 13.8777)
(-5.82052e-16 -8.36452 12.3952)
(-4.56514e-15 -7.84626 11.1047)
(-1.36636e-15 -7.49771 10.3646)
(-4.71843e-15 -7.48266 10.4521)
(-5.41095e-15 -7.61007 11.2275)
(-6.14014e-15 -7.44293 11.6628)
(-1.22459e-14 -5.22451 8.66274)
(9.07806e-15 -9.48353 15.8431)
(1.68185e-14 -15.9064 25.9573)
(8.68506e-16 -14.4237 23.802)
(-4.01502e-15 -11.7451 19.2403)
(-9.62418e-17 -9.2924 16.079)
(-4.23281e-15 -7.79312 13.7149)
(2.00196e-15 -6.3814 11.9834)
(5.5551e-15 -5.37056 10.3469)
(2.89474e-16 -4.66156 9.3232)
(-8.71664e-16 -4.70598 9.28614)
(-2.83172e-15 -5.51763 10.5055)
(-5.63302e-15 -6.9012 12.5533)
(-6.11723e-15 -8.16592 14.5819)
(-9.11806e-15 -8.61525 15.0421)
(-1.13838e-14 -5.78117 10.5769)
(2.61347e-15 -6.34918 11.044)
(1.13753e-14 -14.8735 22.5857)
(9.10235e-15 -18.31 26.286)
(4.51237e-15 -19.0029 26.1992)
(2.43612e-15 -18.1085 24.7449)
(3.58762e-16 -16.6119 22.2489)
(1.31776e-15 -14.3983 19.1991)
(2.24584e-15 -11.9987 16.0885)
(2.34946e-15 -9.56514 13.0209)
(2.20904e-15 -7.24235 10.1847)
(-5.63178e-16 -5.41884 8.21246)
(-2.19967e-15 -4.83685 7.91647)
(-4.64657e-15 -5.60044 9.67851)
(-9.44883e-15 -6.47331 10.764)
(-8.60609e-15 -3.35825 6.19148)
(-4.57239e-18 14.1685 62.1961)
(-1.23095e-16 0.098237 7.51619)
(-9.2954e-17 -0.663976 -3.46083)
(-8.55753e-17 -0.428539 -2.40095)
(-9.32294e-17 -0.25767 -2.86025)
(-1.48887e-16 0.483694 -3.86084)
(-1.16651e-16 0.189289 -2.59777)
(-7.29357e-17 0.48277 -2.4894)
(-2.17929e-16 0.612179 -2.23255)
(1.02964e-15 1.12082 -3.0648)
(1.08298e-15 0.973088 -2.08952)
(9.70472e-16 1.15975 -1.85025)
(1.02228e-15 1.68398 -2.33214)
(7.48333e-16 1.39971 -1.49176)
(7.30222e-16 1.64562 -1.37506)
(6.95719e-16 1.62835 -1.23181)
(7.35865e-16 2.08951 -1.45259)
(6.68703e-16 1.79483 -0.89573)
(6.24802e-16 1.91638 -0.81554)
(7.64363e-16 2.41328 -0.895188)
(5.77479e-16 1.92966 -0.562332)
(5.27018e-16 2.16265 -0.5455)
(5.96613e-16 2.0656 -0.557694)
(7.621e-16 2.56537 -0.56579)
(5.20535e-16 2.03725 -0.387341)
(4.9091e-16 2.25594 -0.396439)
(2.79692e-16 2.16386 -0.440034)
(3.03297e-16 2.57055 -0.402601)
(-9.25131e-18 2.08575 -0.300023)
(-1.13099e-16 2.19397 -0.343596)
(-2.20141e-16 2.58312 -0.23101)
(-4.25372e-16 1.97974 -0.215413)
(-4.81101e-16 2.18201 -0.239968)
(-6.56251e-16 2.09862 -0.296818)
(-1.0083e-15 2.40525 -0.151228)
(-8.99628e-16 1.89034 -0.169564)
(-9.24729e-16 1.99816 -0.227811)
(-1.38294e-15 2.26978 -0.0302055)
(-1.14767e-15 1.69294 -0.111476)
(-1.25266e-15 1.86034 -0.142061)
(-1.1343e-15 1.79479 -0.202016)
(-1.64657e-15 2.0205 -0.00151619)
(-1.28317e-15 1.51134 -0.0996215)
(-1.30679e-15 1.65849 -0.129049)
(-1.28031e-15 1.60653 -0.179124)
(-1.78489e-15 1.79556 -0.00316207)
(-1.54032e-15 1.43557 -0.0289294)
(-1.45916e-15 1.51447 -0.0736493)
(-2.09828e-15 1.69887 0.132733)
(-1.37366e-15 1.368 0.100712)
(-1.33044e-15 1.4651 0.0894101)
(-1.22518e-15 1.4212 0.054452)
(-1.58413e-15 1.47194 0.361373)
(-1.04621e-15 1.12683 0.195055)
(-9.64719e-16 1.18608 0.184704)
(-5.77745e-16 1.17122 0.182059)
(-5.02071e-16 1.0696 0.31858)
(-5.44199e-18 0.672903 -0.0726571)
(-1.10882e-16 0.728747 0.000403119)
(2.51468e-16 0.75967 -0.846235)
(5.37114e-16 -0.0138928 -1.29969)
(7.42822e-16 0.117635 -1.37003)
(9.87065e-16 0.331378 -1.31145)
(1.68858e-15 0.488981 -2.19178)
(-1.58188e-15 -0.812904 0.437223)
(-9.30046e-16 -0.327079 0.246842)
(-1.2518e-15 -1.16993 2.68005)
(-9.34194e-16 -1.85879 3.73721)
(-8.78857e-16 -2.06272 3.67841)
(-1.02434e-15 -2.06033 3.97037)
(-1.48048e-15 -3.50322 7.14026)
(-1.21578e-15 -3.92965 6.42489)
(-1.37966e-15 -4.50167 6.61665)
(-1.41831e-15 -4.4511 6.88811)
(-1.64698e-15 -6.77003 10.8192)
(-9.26922e-16 -6.88399 8.65774)
(-8.45604e-16 -7.03014 9.11234)
(-3.87882e-16 -9.77072 13.0825)
(1.25862e-16 -9.50444 9.80751)
(3.61495e-16 -9.9888 10.3424)
(-2.81597e-16 -10.6265 12.3339)
(-1.69535e-16 -10.5298 12.2408)
(-1.91665e-16 -10.6218 12.6479)
(1.76775e-15 -12.3633 14.8756)
(6.31501e-16 -11.3145 13.2153)
(6.75377e-16 -11.581 13.7944)
(6.64932e-16 -11.4989 13.9128)
(6.97957e-16 -11.5759 14.0736)
(6.89073e-16 -11.5768 14.2985)
(6.80165e-16 -11.6369 14.5801)
(8.89861e-16 -11.7144 14.8303)
(1.24773e-15 -11.6953 15.0436)
(2.38061e-15 -12.8315 16.8145)
(1.63368e-15 -12.169 15.5002)
(1.68281e-15 -12.3162 15.8095)
(1.74399e-15 -12.3055 16.0011)
(2.1655e-15 -12.3976 16.0526)
(2.18224e-15 -12.442 16.0896)
(2.24836e-15 -12.539 16.228)
(2.24506e-15 -12.6487 16.3551)
(2.19132e-15 -12.6607 16.5776)
(3.03711e-15 -13.5508 18.5125)
(2.87498e-15 -12.9196 17.2278)
(2.96879e-15 -13.067 17.4883)
(2.97515e-15 -13.1068 17.6446)
(2.98472e-15 -13.202 17.904)
(3.12152e-15 -13.2588 18.2646)
(3.37874e-15 -13.386 18.6086)
(3.40945e-15 -13.4135 18.6349)
(3.42628e-15 -13.5467 18.6677)
(3.39552e-15 -13.5672 18.6403)
(3.38027e-15 -13.6938 19.3478)
(3.14809e-15 -13.2856 18.753)
(3.20408e-15 -13.3607 18.7297)
(3.24745e-15 -13.3959 18.699)
(3.333e-15 -13.4775 18.7233)
(3.42835e-15 -13.4818 18.8054)
(3.52275e-15 -13.5821 19.1426)
(3.71235e-15 -13.5841 19.1799)
(3.92079e-15 -13.6564 19.1104)
(4.44237e-15 -12.6732 18.2687)
(4.24461e-15 -12.6999 18.8485)
(4.52948e-15 -12.6282 19.2861)
(4.62908e-15 -12.6955 19.7059)
(4.80395e-15 -12.6235 19.7434)
(4.9676e-15 -12.6706 19.821)
(5.11943e-15 -12.6702 19.753)
(5.22962e-15 -12.5887 19.6111)
(5.16664e-15 -12.7825 19.6479)
(5.55516e-15 -10.2566 16.0568)
(5.17793e-15 -11.1084 17.8686)
(5.20215e-15 -10.9321 17.355)
(5.30308e-15 -10.9501 17.1878)
(5.5954e-15 -10.8802 17.1697)
(5.71061e-15 -10.8269 16.9808)
(5.87586e-15 -10.7143 16.7953)
(6.12933e-15 -10.6083 16.6568)
(6.42043e-15 -10.672 16.4347)
(7.2618e-15 -7.72455 12.9004)
(7.48114e-15 -8.76511 16.0883)
(7.66829e-15 -8.42201 15.8084)
(7.7629e-15 -8.46991 15.6142)
(7.71864e-15 -8.28877 15.0454)
(7.56503e-15 -8.27682 14.2509)
(7.70136e-15 -8.05831 13.2375)
(6.91274e-15 -7.96516 12.2802)
(6.17506e-15 -7.6749 10.8938)
(5.27722e-15 -7.51676 9.38161)
(2.53921e-15 -4.32674 2.42054)
(3.83934e-15 -5.85375 6.13449)
(2.89764e-15 -5.33953 4.24377)
(2.42453e-15 -5.44922 3.68641)
(1.76967e-15 -5.08902 2.79245)
(1.20687e-15 -4.99387 2.11722)
(3.52636e-16 -4.79783 0.971708)
(-3.76985e-16 -4.47313 0.00174831)
(-1.41693e-16 -4.44219 0.38846)
(-7.19812e-16 -3.8381 -1.80336)
(-4.06004e-16 -3.92445 0.0317036)
(-3.02425e-16 -3.82057 -0.186626)
(-4.98096e-16 -2.74095 -2.05623)
(-7.74897e-16 -4.33101 -1.71757)
(-8.38881e-16 -3.33612 -1.4727)
(-6.96742e-16 -3.00139 -1.0534)
(-9.49511e-16 -3.74873 -1.45638)
(-7.08598e-16 -2.56958 -0.925585)
(-1.0457e-15 -3.2347 -1.36138)
(-7.79033e-16 -2.93409 -1.05763)
(-6.48073e-16 -2.38338 -0.79009)
(-9.49119e-16 -2.80868 -1.15455)
(-8.66566e-16 -2.58285 -0.91577)
(-7.48334e-16 -2.15608 -0.683329)
(-1.02995e-15 -2.81509 -0.952189)
(-7.85372e-16 -1.88501 -0.626365)
(-1.03773e-15 -2.42253 -0.934907)
(-7.70957e-16 -2.10959 -0.755409)
(-6.96487e-16 -1.79776 -0.571775)
(-8.92024e-16 -2.3515 -0.803065)
(-5.72008e-16 -1.55297 -0.53663)
(-8.67049e-16 -2.02104 -0.804676)
(-7.60984e-16 -1.81435 -0.668774)
(-6.528e-16 -1.45484 -0.512747)
(-9.26015e-16 -1.74576 -0.766277)
(-7.71721e-16 -1.59005 -0.633151)
(-4.98708e-16 -1.30799 -0.481933)
(-6.94399e-16 -1.75063 -0.683506)
(-5.16557e-16 -1.11812 -0.462111)
(-7.1886e-16 -1.48563 -0.701109)
(-4.62266e-16 -1.25736 -0.576498)
(-4.50602e-16 -1.05183 -0.440089)
(-6.30135e-16 -1.41789 -0.62674)
(-5.26506e-16 -0.870695 -0.424071)
(-8.27713e-16 -1.19111 -0.648584)
(-7.58135e-16 -1.02379 -0.538112)
(-4.56522e-16 -0.786422 -0.412592)
(-7.0537e-16 -0.984548 -0.624713)
(-5.46218e-16 -0.850143 -0.508744)
(-1.99501e-16 -0.665107 -0.382545)
(-2.72861e-16 -0.959035 -0.54839)
(-1.66766e-16 -0.514228 -0.366806)
(-2.83459e-16 -0.783726 -0.569073)
(-3.97066e-16 -0.579539 -0.459551)
(-6.86648e-16 -0.450595 -0.342607)
(-8.41853e-16 -0.706712 -0.495041)
(-3.58241e-16 -0.297872 -0.330125)
(-5.86152e-16 -0.56651 -0.523589)
(-2.72965e-16 -0.383945 -0.434568)
(1.09174e-17 -0.20976 -0.324483)
(-2.12836e-17 -0.420286 -0.506248)
(1.62515e-16 -0.239286 -0.410089)
(3.07432e-16 -0.0840313 -0.281862)
(-2.20257e-16 -0.453719 -0.40654)
(-1.10119e-15 0.120065 -0.246798)
(-1.83669e-15 -0.425966 -0.429558)
(-1.17572e-15 -0.33386 -0.389443)
(-1.21829e-15 0.957249 -0.300003)
(-1.7064e-15 -1.18085 -0.354)
(-9.08994e-16 0.355926 -0.155631)
(-1.53412e-16 0.103607 -0.20909)
(-1.02653e-17 -0.144511 -0.349958)
(2.72795e-16 0.295863 -0.250743)
(-1.13188e-15 0.206626 -0.253373)
(1.8295e-16 0.0278107 -0.316205)
(8.81619e-16 0.367969 -0.239295)
(2.28727e-15 0.16261 -0.313269)
(1.99845e-15 0.349394 -0.214344)
(2.27449e-15 0.378941 -0.202948)
(1.33495e-15 0.297429 -0.20247)
(3.35646e-16 0.447192 -0.123608)
(-2.59775e-16 0.369143 -0.199131)
(-4.92024e-16 0.470934 -0.161883)
(-1.07711e-15 0.495349 -0.203366)
(-1.05624e-15 0.487246 -0.258605)
(-6.23523e-16 0.556753 -0.171628)
(-4.75288e-16 0.611722 -0.194624)
(-3.87607e-16 0.573973 -0.308265)
(-2.56033e-16 0.672291 -0.208872)
(-2.08304e-16 0.68956 -0.390604)
(4.7246e-18 0.739699 -0.303319)
(4.77127e-16 0.824977 -0.454324)
(-5.11417e-29 0.797327 1.00416)
(-2.04669e-28 0.898218 1.00619)
(-3.75283e-28 0.950747 1.01403)
(-2.92585e-28 1.00647 1.02237)
(1.15848e-27 1.05637 1.03375)
(8.52118e-27 1.10366 1.04672)
(4.01906e-26 1.14791 1.06175)
(1.48606e-25 1.19034 1.07857)
(3.66649e-25 1.23083 1.09718)
(1.18786e-25 1.27005 1.11752)
(-4.10654e-24 1.30797 1.13951)
(-2.30761e-23 1.34494 1.16316)
(-6.90484e-23 1.38116 1.18847)
(-8.37243e-23 1.41719 1.21556)
(3.25452e-22 1.4537 1.24461)
(2.35319e-21 1.49149 1.27582)
(7.63787e-21 1.53119 1.30941)
(1.28393e-20 1.57331 1.34558)
(-9.67013e-21 1.6182 1.38445)
(-1.49094e-19 1.66598 1.42605)
(-5.69977e-19 1.71657 1.47022)
(-1.32759e-18 1.76953 1.51681)
(-1.58617e-18 1.82385 1.56626)
(2.30833e-18 1.8775 1.62116)
(2.01106e-17 1.92693 1.68865)
(7.12625e-17 1.9669 1.78265)
(1.85844e-16 1.99096 1.92328)
(3.99199e-16 1.99318 2.13151)
(7.39225e-16 1.97041 2.41992)
(1.21102e-15 1.92421 2.78428)
(1.78755e-15 1.86133 3.20124)
(2.41254e-15 1.79254 3.63319)
(3.01479e-15 1.72988 4.03822)
(3.52615e-15 1.68325 4.38097)
(3.89518e-15 1.65774 4.6403)
(4.0927e-15 1.65302 4.81095)
(4.11077e-15 1.66464 4.89933)
(3.95874e-15 1.68615 4.91717)
(3.65932e-15 1.71058 4.87637)
(3.24528e-15 1.73069 4.78631)
(2.75646e-15 1.73815 4.65274)
(2.23195e-15 1.72523 4.47944)
(1.68569e-15 1.69347 4.27664)
(1.08608e-15 1.64608 4.06205)
(5.12841e-16 1.45174 3.77822)
(5.95628e-16 0.642257 3.13889)
(1.72287e-15 -0.72963 2.2879)
(2.3453e-15 -1.52982 2.06143)
(2.84082e-15 -1.96081 1.89975)
(3.25893e-15 -2.34964 1.7229)
(3.55646e-15 -2.75241 1.54482)
(3.7017e-15 -3.163 1.3637)
(3.67369e-15 -3.57492 1.18114)
(3.47101e-15 -3.98416 0.999376)
(3.11579e-15 -4.3729 0.811552)
(2.65474e-15 -4.72734 0.623931)
(2.13761e-15 -5.04752 0.436809)
(1.58724e-15 -5.32125 0.249219)
(1.03579e-15 -5.44769 0.0603394)
(5.32332e-16 -5.45427 -0.0817396)
(1.84779e-16 -5.3565 -0.202709)
(3.16196e-17 -5.17798 -0.265315)
(-1.9568e-18 -5.02615 -0.304442)
(-1.8992e-18 -4.87043 -0.320153)
(-2.50719e-19 -4.69427 -0.329028)
(2.17688e-20 -4.48296 -0.329387)
(8.80754e-21 -4.21985 -0.333532)
(4.69368e-22 -3.91403 -0.332962)
(-1.39723e-22 -3.52214 -0.341823)
(-2.50265e-23 -3.10955 -0.338484)
(-2.57332e-23 -2.52535 -0.350992)
(6.55267e-23 -2.02557 -0.332713)
(-2.22189e-22 -1.05056 -0.347603)
(1.1845e-21 -0.643115 -0.327121)
(-1.06115e-20 1.2253 -0.386872)
(7.20032e-20 1.69866 -0.0814157)
(-1.98184e-19 1.86481 -0.429475)
(5.91964e-19 2.45281 0.0849734)
(-8.12284e-18 -3.80965 -0.347329)
(-1.71673e-28 0.797198 1.05598)
(-4.17757e-28 0.896789 1.05594)
(-2.70276e-28 0.948244 1.0637)
(1.46628e-27 1.00339 1.0718)
(8.64743e-27 1.05252 1.0834)
(3.4806e-26 1.09921 1.09677)
(1.21707e-25 1.14283 1.11241)
(3.22965e-25 1.18468 1.13003)
(2.99121e-25 1.2246 1.14957)
(-2.6548e-24 1.26327 1.17097)
(-1.84843e-23 1.30065 1.19413)
(-6.47853e-23 1.33709 1.21907)
(-1.14814e-22 1.37275 1.24582)
(1.43819e-22 1.40817 1.27459)
(1.87001e-21 1.44401 1.30561)
(7.2633e-21 1.48106 1.33912)
(1.54902e-20 1.51995 1.37532)
(4.23011e-21 1.56122 1.41437)
(-1.13822e-19 1.60524 1.45631)
(-5.31533e-19 1.65217 1.50103)
(-1.41639e-18 1.70196 1.54832)
(-2.16125e-18 1.75404 1.59851)
(6.9558e-19 1.80684 1.65412)
(1.73437e-17 1.85709 1.72287)
(6.93813e-17 1.89927 1.82066)
(1.91724e-16 1.926 1.97163)
(4.26545e-16 1.93001 2.20156)
(8.07044e-16 1.90717 2.52536)
(1.33699e-15 1.85906 2.93539)
(1.97861e-15 1.79338 3.39928)
(2.65818e-15 1.72208 3.86901)
(3.28734e-15 1.65825 4.29559)
(3.78803e-15 1.61274 4.64217)
(4.10902e-15 1.59146 4.89097)
(4.22953e-15 1.59441 5.04266)
(4.15393e-15 1.61703 5.1097)
(3.90423e-15 1.65252 5.10831)
(3.51419e-15 1.69393 5.05284)
(3.02496e-15 1.73488 4.95376)
(2.48093e-15 1.76917 4.81789)
(1.92533e-15 1.78942 4.64882)
(1.39315e-15 1.78723 4.44806)
(8.88694e-16 1.76158 4.22237)
(3.47736e-16 1.72533 3.99379)
(-2.42198e-16 1.59572 3.7409)
(-1.88962e-16 0.889391 3.17119)
(1.63148e-15 -0.674354 2.13382)
(2.46436e-15 -1.53418 1.97536)
(2.88876e-15 -1.94819 1.88562)
(3.28368e-15 -2.33486 1.70158)
(3.56901e-15 -2.73748 1.52456)
(3.70402e-15 -3.14751 1.34787)
(3.6695e-15 -3.55893 1.16932)
(3.4636e-15 -3.96634 0.991953)
(3.10788e-15 -4.35193 0.80874)
(2.6481e-15 -4.70321 0.625018)
(2.13282e-15 -5.01957 0.441053)
(1.58452e-15 -5.28873 0.256083)
(1.035e-15 -5.41619 0.0691139)
(5.3286e-16 -5.42667 -0.0721765)
(1.85639e-16 -5.33428 -0.193124)
(3.19901e-17 -5.16164 -0.256635)
(-1.97629e-18 -5.01185 -0.297026)
(-1.95412e-18 -4.85661 -0.314195)
(-2.62403e-19 -4.67967 -0.324603)
(2.2749e-20 -4.46679 -0.326516)
(9.45798e-21 -4.20202 -0.332307)
(5.16902e-22 -3.89442 -0.33357)
(-1.54151e-22 -3.50187 -0.344497)
(-2.80929e-23 -3.08861 -0.343639)
(-2.56554e-23 -2.50573 -0.358504)
(6.52293e-23 -2.00545 -0.343553)
(-2.23615e-22 -1.02626 -0.358997)
(1.25471e-21 -0.598227 -0.350778)
(-1.06102e-20 1.18322 -0.4027)
(7.05522e-20 1.70511 -0.0530982)
(-1.97675e-19 1.84061 -0.412757)
(5.69403e-19 2.43787 0.0766432)
(-7.36333e-18 -3.72008 -0.338257)
(-3.15732e-28 0.797338 1.08423)
(-2.99941e-28 0.896321 1.0834)
(1.22366e-27 0.947106 1.09109)
(7.06208e-27 1.00196 1.09914)
(2.51915e-26 1.05067 1.1109)
(7.99264e-26 1.09706 1.12456)
(2.17739e-25 1.14035 1.14059)
(3.19281e-25 1.1819 1.15871)
(-1.1007e-24 1.22153 1.17882)
(-1.07366e-23 1.25993 1.20087)
(-4.48699e-23 1.29704 1.22472)
(-1.05943e-22 1.33321 1.25042)
(-2.54969e-23 1.36856 1.27803)
(1.00942e-21 1.40364 1.3078)
(5.03644e-21 1.43909 1.34)
(1.35191e-20 1.47573 1.37488)
(1.48203e-20 1.51418 1.41262)
(-5.29356e-20 1.55501 1.45331)
(-3.57736e-19 1.59861 1.49693)
(-1.13604e-18 1.64517 1.54329)
(-2.1889e-18 1.69451 1.5925)
(-1.19325e-18 1.74569 1.64628)
(9.88994e-18 1.79617 1.71086)
(4.98757e-17 1.84117 1.80056)
(1.51738e-16 1.87368 1.93908)
(3.58574e-16 1.88613 2.15421)
(7.082e-16 1.87355 2.4648)
(1.21104e-15 1.83647 2.86679)
(1.83491e-15 1.78144 3.32909)
(2.50868e-15 1.71881 3.80333)
(3.14352e-15 1.65972 4.24033)
(3.65897e-15 1.61369 4.60339)
(4.00073e-15 1.58705 4.87397)
(4.1452e-15 1.58214 5.0505)
(4.09485e-15 1.59732 5.14279)
(3.8706e-15 1.62823 5.16527)
(3.50558e-15 1.66926 5.13169)
(3.04047e-15 1.71467 5.05277)
(2.51901e-15 1.75893 4.93606)
(1.9828e-15 1.79626 4.78676)
(1.46588e-15 1.81957 4.6081)
(9.88856e-16 1.82033 4.40176)
(5.40963e-16 1.79561 4.17332)
(3.81378e-17 1.75726 3.94383)
(-6.00953e-16 1.64555 3.71451)
(-7.59242e-16 1.0213 3.23603)
(1.26412e-15 -0.515155 2.09866)
(2.56815e-15 -1.48102 1.82213)
(2.97703e-15 -1.90682 1.84208)
(3.31566e-15 -2.28049 1.67944)
(3.58344e-15 -2.6839 1.49685)
(3.70678e-15 -3.09434 1.32507)
(3.6639e-15 -3.50598 1.15225)
(3.45403e-15 -3.91369 0.980678)
(3.09776e-15 -4.2998 0.803997)
(2.63962e-15 -4.65258 0.626156)
(2.12668e-15 -4.97064 0.446956)
(1.58097e-15 -5.2416 0.265728)
(1.03387e-15 -5.37592 0.0814637)
(5.33393e-16 -5.39572 -0.0586283)
(1.86629e-16 -5.31387 -0.179437)
(3.24295e-17 -5.15199 -0.243963)
(-1.99694e-18 -5.00911 -0.285895)
(-2.01959e-18 -4.85872 -0.304975)
(-2.7672e-19 -4.68477 -0.3175)
(2.38975e-20 -4.47348 -0.321629)
(1.02693e-20 -4.20962 -0.329809)
(5.79706e-22 -3.90209 -0.333709)
(-1.7257e-22 -3.5102 -0.347662)
(-3.21935e-23 -3.09667 -0.350304)
(-2.55711e-23 -2.51563 -0.368676)
(6.48998e-23 -2.01505 -0.357904)
(-2.25785e-22 -1.03964 -0.374432)
(1.32436e-21 -0.611716 -0.373614)
(-1.06763e-20 1.15631 -0.40788)
(7.03373e-20 1.70362 -0.0461263)
(-2.04918e-19 1.83557 -0.405506)
(5.68207e-19 2.43088 0.0500643)
(-6.27531e-18 -3.67929 -0.321587)
(-3.47522e-28 0.797518 1.11799)
(9.44424e-28 0.895525 1.11646)
(6.10167e-27 0.94534 1.12413)
(2.03082e-26 0.999726 1.1322)
(5.63037e-26 1.0478 1.14419)
(1.42696e-25 1.09371 1.15823)
(2.49475e-25 1.13648 1.17474)
(-3.79225e-25 1.17757 1.1935)
(-5.92789e-24 1.21676 1.21431)
(-2.93164e-23 1.25474 1.23716)
(-8.55584e-23 1.29144 1.26187)
(-9.93395e-23 1.32717 1.2885)
(4.54103e-22 1.36207 1.31714)
(3.24499e-21 1.39662 1.34812)
(1.07587e-20 1.4315 1.38173)
(1.86876e-20 1.46751 1.41824)
(-1.31713e-20 1.50531 1.45779)
(-2.20549e-19 1.54548 1.50041)
(-8.61653e-19 1.58844 1.54598)
(-2.02142e-18 1.63434 1.59443)
(-2.31047e-18 1.68273 1.64685)
(4.35991e-18 1.73181 1.70807)
(3.40785e-17 1.7775 1.79072)
(1.17831e-16 1.81307 1.918)
(2.99963e-16 1.83043 2.12018)
(6.24201e-16 1.82332 2.42162)
(1.10958e-15 1.79103 2.82365)
(1.73058e-15 1.73957 3.29665)
(2.4171e-15 1.67928 3.78926)
(3.07581e-15 1.62114 4.24781)
(3.61897e-15 1.57423 4.6325)
(3.98545e-15 1.54493 4.9233)
(4.14747e-15 1.53669 5.11774)
(4.10644e-15 1.54972 5.22505)
(3.88463e-15 1.58115 5.25973)
(3.51756e-15 1.62616 5.23639)
(3.04836e-15 1.67915 5.1669)
(2.52298e-15 1.73468 5.0598)
(1.98483e-15 1.78757 4.921)
(1.46867e-15 1.83241 4.75482)
(9.95064e-16 1.86246 4.5645)
(5.66037e-16 1.86892 4.35243)
(1.52231e-16 1.84682 4.12423)
(-3.49048e-16 1.80893 3.90035)
(-1.07447e-15 1.72402 3.69624)
(-1.49981e-15 1.19262 3.30688)
(5.59742e-16 -0.384104 2.13171)
(2.52258e-15 -1.45717 1.66875)
(3.08296e-15 -1.8989 1.74866)
(3.36362e-15 -2.24809 1.65039)
(3.59656e-15 -2.64777 1.4672)
(3.70879e-15 -3.05983 1.29618)
(3.65764e-15 -3.47146 1.13038)
(3.44354e-15 -3.87892 0.965785)
(3.08683e-15 -4.26455 0.797053)
(2.63046e-15 -4.61726 0.626845)
(2.12e-15 -4.93524 0.453962)
(1.57702e-15 -5.20608 0.277717)
(1.03246e-15 -5.34456 0.0971482)
(5.33768e-16 -5.37069 -0.0411258)
(1.8755e-16 -5.29629 -0.161538)
(3.28569e-17 -5.14217 -0.227141)
(-2.01401e-18 -5.00396 -0.270924)
(-2.08401e-18 -4.85667 -0.292383)
(-2.91328e-19 -4.68442 -0.307622)
(2.50062e-20 -4.47378 -0.314611)
(1.11189e-20 -4.21011 -0.325885)
(6.50215e-22 -3.90217 -0.33312)
(-1.92453e-22 -3.51039 -0.350929)
(-3.68912e-23 -3.09648 -0.357898)
(-2.55029e-23 -2.51668 -0.380785)
(6.46048e-23 -2.01604 -0.374866)
(-2.28394e-22 -1.04141 -0.393583)
(1.38568e-21 -0.610653 -0.396294)
(-1.07889e-20 1.11826 -0.42212)
(6.99246e-20 1.7039 -0.0395792)
(-2.03964e-19 1.82633 -0.397444)
(5.23626e-19 2.41836 0.0365937)
(-6.05316e-18 -3.65726 -0.303202)
(2.94322e-28 0.797792 1.15072)
(5.27623e-27 0.894964 1.14879)
(1.77296e-26 0.943855 1.15647)
(4.424e-26 0.997822 1.16464)
(9.5577e-26 1.04529 1.17689)
(1.60327e-25 1.09077 1.19136)
(-1.2879e-25 1.13307 1.2084)
(-3.19367e-24 1.17375 1.22782)
(-1.81301e-23 1.21253 1.24937)
(-6.24029e-23 1.25013 1.27304)
(-1.14437e-22 1.28647 1.29863)
(1.32152e-22 1.32182 1.32621)
(1.90989e-21 1.35629 1.35591)
(7.84404e-21 1.39034 1.38809)
(1.80579e-20 1.42467 1.42313)
(9.48343e-21 1.46009 1.46127)
(-1.18532e-19 1.49729 1.5026)
(-6.07956e-19 1.53688 1.54706)
(-1.71128e-18 1.57928 1.59451)
(-2.7684e-18 1.62442 1.64551)
(5.2844e-19 1.67118 1.70361)
(2.13691e-17 1.71627 1.77947)
(8.79531e-17 1.75351 1.89504)
(2.44678e-16 1.77457 2.08236)
(5.40499e-16 1.77216 2.37155)
(1.00362e-15 1.74444 2.7708)
(1.61645e-15 1.69714 3.25331)
(2.31086e-15 1.64123 3.76434)
(2.98916e-15 1.58807 4.24391)
(3.55646e-15 1.5458 4.64763)
(3.94525e-15 1.51909 4.95433)
(4.12414e-15 1.51029 5.16241)
(4.09374e-15 1.52015 5.28206)
(3.87754e-15 1.54766 5.32825)
(3.51308e-15 1.59 5.31592)
(3.04544e-15 1.64307 5.25733)
(2.52214e-15 1.70223 5.16138)
(1.98792e-15 1.76277 5.03421)
(1.47887e-15 1.81994 4.88031)
(1.01621e-15 1.8685 4.70362)
(6.01312e-16 1.9018 4.50806)
(2.13652e-16 1.91079 4.29762)
(-1.9634e-16 1.88869 4.07897)
(-7.45543e-16 1.84651 3.87168)
(-1.60855e-15 1.77315 3.69975)
(-2.36279e-15 1.32626 3.40322)
(-5.57855e-16 -0.214082 2.27564)
(2.25919e-15 -1.41949 1.54869)
(3.13698e-15 -1.90316 1.6148)
(3.43309e-15 -2.22802 1.5948)
(3.61351e-15 -2.61569 1.4358)
(3.70845e-15 -3.02952 1.26276)
(3.6508e-15 -3.44226 1.10292)
(3.43252e-15 -3.84948 0.946916)
(3.07543e-15 -4.23433 0.78751)
(2.62093e-15 -4.58627 0.626661)
(2.11298e-15 -4.90313 0.461812)
(1.57274e-15 -5.17265 0.291973)
(1.03074e-15 -5.31422 0.116184)
(5.33906e-16 -5.34573 -0.0195281)
(1.88321e-16 -5.27792 -0.139169)
(3.32421e-17 -5.13085 -0.205824)
(-2.02624e-18 -4.99658 -0.251697)
(-2.14331e-18 -4.85172 -0.275998)
(-3.05369e-19 -4.68059 -0.294586)
(2.60093e-20 -4.4701 -0.305123)
(1.19649e-20 -4.20614 -0.32027)
(7.26067e-22 -3.89741 -0.331602)
(-2.13015e-22 -3.50542 -0.354159)
(-4.20963e-23 -3.09098 -0.366364)
(-2.54633e-23 -2.51232 -0.394797)
(6.4361e-23 -2.01185 -0.394613)
(-2.31371e-22 -1.03745 -0.416473)
(1.4411e-21 -0.60273 -0.421168)
(-1.08992e-20 1.08084 -0.439028)
(6.82932e-20 1.69992 -0.0404028)
(-1.93348e-19 1.82157 -0.390263)
(4.36781e-19 2.4069 0.0267956)
(-4.34208e-18 -3.63102 -0.283035)
(3.00544e-27 0.798089 1.18397)
(1.59484e-26 0.89434 1.18187)
(3.8648e-26 0.942222 1.18958)
(7.15343e-26 0.995713 1.19795)
(9.30835e-26 1.04252 1.21051)
(-9.29017e-26 1.0875 1.22547)
(-1.8129e-24 1.12928 1.24309)
(-1.0874e-23 1.16949 1.26323)
(-4.2227e-23 1.20783 1.28557)
(-1.00474e-22 1.24502 1.31013)
(-2.78074e-23 1.28094 1.33665)
(1.00555e-21 1.31587 1.36524)
(5.28605e-21 1.34985 1.39603)
(1.5153e-20 1.38334 1.42949)
(1.9764e-20 1.41704 1.466)
(-4.91519e-20 1.45181 1.50581)
(-3.9515e-19 1.48836 1.5489)
(-1.344e-18 1.52732 1.59516)
(-2.75917e-18 1.56899 1.64475)
(-1.86818e-18 1.61278 1.70005)
(1.16113e-17 1.65621 1.76961)
(6.24274e-17 1.6938 1.87339)
(1.9375e-16 1.71722 2.0442)
(4.58853e-16 1.71809 2.31779)
(8.9577e-16 1.6931 2.71099)
(1.49689e-15 1.64741 3.20225)
(2.19769e-15 1.59294 3.73429)
(2.89636e-15 1.54235 4.23913)
(3.48997e-15 1.50397 4.66511)
(3.90377e-15 1.48099 4.98834)
(4.10209e-15 1.47381 5.20833)
(4.08439e-15 1.4824 5.33753)
(3.87506e-15 1.50674 5.39258)
(3.51358e-15 1.54601 5.38912)
(3.04704e-15 1.59796 5.33967)
(2.52465e-15 1.65906 5.25331)
(1.99255e-15 1.72509 5.13628)
(1.48827e-15 1.79157 4.99309)
(1.03475e-15 1.8538 4.82768)
(6.34705e-16 1.9065 4.64443)
(2.67169e-16 1.9429 4.44881)
(-1.11829e-16 1.95366 4.24716)
(-5.70019e-16 1.93049 4.04792)
(-1.23076e-15 1.88301 3.86958)
(-2.28626e-15 1.81782 3.73859)
(-3.39752e-15 1.45063 3.53018)
(-2.03413e-15 0.0116933 2.52108)
(1.74457e-15 -1.34268 1.47874)
(3.06203e-15 -1.90465 1.46669)
(3.49928e-15 -2.21583 1.50041)
(3.64432e-15 -2.58389 1.39342)
(3.7066e-15 -2.99583 1.22725)
(3.64256e-15 -3.41083 1.06994)
(3.42114e-15 -3.81851 0.923477)
(3.06373e-15 -4.20284 0.774949)
(2.61116e-15 -4.55421 0.624954)
(2.10571e-15 -4.87002 0.46983)
(1.56818e-15 -5.1383 0.307912)
(1.0287e-15 -5.28307 0.138081)
(5.33759e-16 -5.3201 0.00577419)
(1.88897e-16 -5.25905 -0.112572)
(3.35665e-17 -5.11929 -0.180115)
(-2.03339e-18 -4.98924 -0.228201)
(-2.1951e-18 -4.84704 -0.255712)
(-3.18283e-19 -4.67727 -0.278234)
(2.68746e-20 -4.46712 -0.29297)
(1.27811e-20 -4.20303 -0.312736)
(8.05573e-22 -3.89356 -0.328897)
(-2.33771e-22 -3.50134 -0.357036)