/*--------------------------------*- C++ -*----------------------------------*\
| =========                 |                                                 |
| \\      /  F ield         | OpenFOAM: The Open Source CFD Toolbox           |
|  \\    /   O peration     | Version:  4.1                                   |
|   \\  /    A nd           | Web:      www.OpenFOAM.org                      |
|    \\/     M anipulation  |                                                 |
\*---------------------------------------------------------------------------*/
FoamFile
{
    version     2.0;
    format      ascii;
    class       surfaceScalarField;
    location    "17";
    object      phi;
}
// * * * * * * * * * * * * * * * * * * * * * * * * * * * * * * * * * * * * * //

dimensions      [0 3 -1 0 0 0 0];

internalField   nonuniform List<scalar> 
13220
(
-892.341
2192.26
-1384.57
1792.44
-1852.08
1767.42
-2207.42
1655.25
-2482.29
1575.09
-2678.13
1495.75
-2797.47
1419.24
-2841.22
1343.96
-2809.9
1268.59
-2703.77
1193.77
-2527.61
1124.04
-2270.43
1042.74
-1858.21
887.695
-1146.23
588.24
153.669
-40.1015
2232.39
-116.854
1869.23
-280.7
1931.3
-412.245
1786.82
-547.146
1710.02
-663.58
1612.21
-763.375
1519.06
-843.173
1423.78
-905.123
1330.56
-954.365
1243.03
-985.001
1154.69
-945.805
1003.56
-707.258
649.171
-240.747
121.794
-87.0705
-134.056
2366.46
-338.831
2074.02
-520.977
2113.46
-629.736
1895.6
-728.878
1809.18
-791.374
1674.73
-829.096
1556.81
-842.405
1437.11
-832.054
1320.24
-798.616
1209.64
-739.185
1095.28
-636.765
901.288
-459.995
472.697
-252.264
-85.4764
-339.338
60.394
2306.07
21.4384
2112.98
23.6595
2111.24
60.4579
1858.8
98.7239
1770.92
156.601
1616.86
229.017
1484.4
316.431
1349.71
416.702
1219.98
527.702
1098.64
639.201
983.806
696.822
843.583
574.422
594.99
175.732
313.021
-163.608
108.274
2197.76
147.896
2073.32
207.627
2051.47
280.38
1786.01
343.15
1708.11
416.508
1543.46
487.944
1412.93
560.606
1277
627.827
1152.73
685.098
1041.32
732.741
936.098
741.832
834.504
624.038
712.742
374.589
562.383
210.975
39.1769
2158.52
77.7984
2034.63
108.942
2020.26
140.703
1754.17
163.015
1685.71
197.774
1508.61
227.711
1382.89
272.332
1232.29
345.473
1079.48
450.487
936.198
547.998
838.54
585.848
796.462
506.26
792.142
313.074
755.283
524.046
-25.9157
2184.37
-54.2946
2062.94
-71.2157
2037.11
-108.132
1791.02
-141.179
1718.69
-173.662
1541.03
-208.005
1417.16
-207.161
1231.38
-129.566
1001.82
35.4478
771.082
217.991
655.923
337.173
677.098
339.14
790.022
211.569
882.685
735.616
-14.8416
2199.16
-160.918
2208.97
-241.311
2117.46
-342.687
1892.35
-442.767
1818.73
-547.103
1645.33
-659.224
1529.26
-756.358
1328.49
-813.189
1058.62
-801.711
759.585
-702.587
556.766
-503.468
478.014
-248.161
534.74
-56.6984
691.248
678.913
99.4741
2099.67
-72.2152
2380.63
-171.511
2216.74
-264.13
1984.94
-352.655
1907.23
-447.09
1739.73
-548.157
1630.29
-673.301
1453.61
-836.643
1221.94
-1017.1
939.98
-1140.33
680
-1108.46
445.94
-837.967
264.054
-377.03
230.03
301.887
210.361
1889.32
142.602
2448.4
89.9893
2269.36
62.9709
2011.96
60.1066
1910.1
46.6164
1753.22
38.4727
1638.45
3.14599
1488.93
-87.0267
1312.13
-240.53
1093.52
-415.487
854.945
-564.943
595.619
-599.149
298.496
-418.364
49.5563
-116.478
229.564
1659.77
258.97
2419.01
263.134
2265.22
289.467
1985.65
345.368
1854.23
394.422
1704.19
449.62
1583.27
491.96
1446.62
504.058
1300.05
461.949
1135.65
364.98
951.972
213.446
747.055
16.5889
495.263
-120.135
186.151
-236.602
185.675
1474.14
254.873
2349.85
281.375
2238.75
309.311
1957.76
359.104
1804.49
405.991
1657.35
456.042
1533.27
499.57
1403.13
531.196
1268.47
538.613
1128.3
513.262
977.338
448.456
812.081
331.322
612.669
147.372
370.713
-89.2293
190.874
1283.3
306.532
2234.22
367.373
2177.94
429.417
1895.75
512.199
1721.74
586.041
1583.54
649.132
1470.21
693.431
1358.85
712.424
1249.49
703.082
1137.66
661.498
1018.95
580.821
892.752
455.104
738.401
271.673
554.187
182.445
314.186
969.146
470.72
2077.7
479.743
2168.94
432.483
1943.02
409.975
1744.27
402.401
1591.13
403.008
1469.62
407.388
1354.49
424.252
1232.65
453.837
1108.09
473.664
999.125
460.537
905.939
387.411
811.576
245.576
696.1
428.02
234.829
1016.33
1611.64
1961.34
2119.4
2201.81
2188.04
2074.51
1879.99
1632.83
1350.32
1057.77
747.907
395.088
-0.000651758
17.3721
-17.3736
17.3713
17.3705
17.3696
-29.2281
46.5969
-29.2289
-29.2297
-29.2305
-73.5497
44.3183
-73.5506
-73.5515
-102.872
29.3193
-102.873
-102.873
-102.874
-103.766
0.890817
-103.767
-103.768
-68.6064
-35.1625
-68.6072
-68.6082
-68.609
-6.95103
-61.6591
-6.95186
-6.95289
-6.95371
71.7095
-78.6644
71.7085
71.7074
155.654
-83.9471
155.653
155.652
155.651
239.299
-83.6495
239.298
239.297
320.578
-81.2824
320.577
320.576
320.575
401.714
-81.1397
401.713
401.712
401.711
491.06
-89.3496
491.059
491.057
546.543
-55.486
546.541
546.54
546.539
522.549
23.9895
522.547
522.547
522.545
427.692
94.8525
427.69
427.689
248.792
178.895
248.791
248.789
248.789
-11.9789
260.765
-11.9798
-11.9825
-852.359
840.377
-852.362
-852.361
-852.364
-2404.44
1552.08
-2404.45
-2404.45
-2404.45
-4485.65
2081.2
-4485.65
-4485.64
-6934.13
2448.48
-6934.12
-6934.12
-6785.98
-6634.75
-6479.24
-9022.95
2698.34
-8862.28
-8679.18
-8482.26
-8284.73
-8086.76
-7889.32
-7689.87
-7482.11
-10143.2
2865.96
-9928.23
-9713.88
-9500.36
-9278.38
-9054.49
-8829.05
-8603.09
-8375.05
-11055.2
2908.39
-10815.1
-10573.2
-10330.9
-10088.3
-9840.96
-9584.73
-9328.17
-9071.1
-8813.55
-11324.6
2757.11
-11055.9
-10786.9
-10518.6
-10251.9
-9986.54
-9709.74
-9427.66
-9146.17
-11243.8
2368.85
-10975.2
-10702.7
-10421.8
-10142.7
-9864.42
-9588.07
-9312.96
-9021.52
-10685.6
1951.54
-10406.9
-10128.6
-9850.6
-9559.37
-9261.99
-8964.9
-8667.02
-8368.51
-9716.76
1653.47
-9414.68
-9114.76
-8817.52
-8523.66
-8233.62
-7930.7
-7632.75
-7338.38
-7047.07
-7657.52
908.098
-7401.86
-7156.22
-6914.54
-6673.97
-6429.84
-6219.22
-6086.17
-5947.41
-6329.27
524.882
-6201.05
-6067.11
-6067.1
-6319.02
251.923
-6087.87
-231.156
-6087.87
-5511.7
-576.169
-5511.7
-4554.73
-956.97
-3264.25
-1290.48
-3264.25
-1628.44
-1635.81
76.3298
-1704.78
76.3267
1952.44
-1876.12
1952.44
3779.77
-1827.33
5468.91
-1689.14
5468.91
6845.88
-1376.97
6845.88
7939.46
-1093.58
8764.71
-825.252
8764.71
9399.53
-634.82
9783.22
-383.691
9783.22
10042.4
-259.202
10042.4
10189
-146.555
10090.9
98.0508
10090.9
9921.28
169.638
9921.28
9679.75
241.538
9209.76
469.985
9209.76
8747.7
462.058
8070.8
676.896
8070.8
7374.41
696.39
7374.41
6662.63
711.781
5813.88
848.747
5813.88
5019.6
794.284
5019.6
4310.62
708.978
3645.73
664.893
3645.73
3245.48
400.242
3372.88
-127.393
3372.88
4406.7
-1033.83
4406.7
5239.88
-833.18
5796.02
-556.133
5796.01
5945.88
-149.865
5945.88
5576.94
368.936
4876.03
700.911
4876.03
3556.69
1319.34
1850.45
1706.24
1850.45
-640.403
2490.86
-640.404
-4858.61
4218.21
-11080.3
6221.71
-11080.3
-18957.1
7876.82
-18957.1
-28864.9
9907.79
-39851.8
10986.9
-39851.8
-53107
13255.2
-66787
13680
-66787
-82273.7
15486.8
-82273.7
17871.2
330.326
-407.036
334.415
-415.035
339.056
-439.641
343.914
-477.804
348.95
-526.994
354.16
-586.708
359.55
-656.407
365.145
-736.048
370.969
-825.463
376.955
-924.097
382.901
-1030.93
388.642
-1142.06
394.188
-1255.03
399.624
-1372.36
405.031
-1500.22
410.367
-1646.6
415.34
-1818.41
419.459
-2016.1
422.416
-2237.18
424.702
-2489.02
427.08
-2771.85
425.818
-3110.32
414.043
-3566.96
389.611
-4085.26
362.344
-4499.57
357.552
-4834.15
386.04
-5117.48
422.824
-5176.16
438.406
-4927.54
421.299
-4571.36
370.938
-4307.81
290.376
-4182.93
189.574
-4187.61
80.5302
-4302.21
-28.3865
-4430.66
-119.701
-4537.93
-189.975
-4719.72
-255.056
-4941.12
-321.667
-5160.77
-392.6
-5413.73
-470.478
-5712.85
-555.699
-6043.61
-648.586
-6391.38
-751.166
-6759.07
-867.625
-7154.93
-1001.84
-7585.76
-1152.35
-8080.77
-1309.91
-8701.56
-1463.21
-9508.97
-1606.41
-10518.2
-1740.84
-11689.2
-1875.88
-12941.6
-2031.13
-14164.5
-2229.79
-15246.8
-2476
-16150.1
-2734.88
-16945
-2946.68
-17738.9
-3067.85
-18586.7
-3095.28
-19473
-3056.52
-20308.3
-2988.15
-20874.4
-2920.61
-20682.5
-2863.49
-18768.2
-2799.45
-14113.5
-2760.29
-7882.57
-2860.61
-4047.59
-3103.09
-3030.23
-3358.71
-1906.2
-3549.72
-309.814
-3749.3
1252.87
-4084.59
3036.97
-4616.16
5366.1
-5407.44
8616.92
-6565.75
13413.9
-8236.22
20789.2
-10609.1
32196.7
-13838.2
49514.7
-17406
73277.1
96463.9
342.802
-408.893
346.394
-418.627
350.463
-443.709
354.737
-482.078
359.198
-531.455
363.842
-591.352
368.707
-661.272
373.856
-741.197
379.315
-830.922
384.994
-929.776
390.659
-1036.6
396.137
-1147.54
401.398
-1260.29
406.462
-1377.43
411.322
-1505.08
415.878
-1651.16
419.85
-1822.38
422.81
-2019.06
424.552
-2238.92
425.609
-2490.07
426.92
-2773.16
425.425
-3108.82
414.773
-3556.31
391.809
-4062.29
365.623
-4473.38
362.956
-4831.49
392.766
-5147.29
425.088
-5208.49
429.182
-4931.63
395.351
-4537.52
325.981
-4238.44
229.707
-4086.65
124.153
-4082.06
20.9086
-4198.96
-77.3456
-4332.41
-157.92
-4457.36
-222.342
-4655.3
-285.634
-4877.82
-352.165
-5094.23
-424.256
-5341.64
-504.078
-5633.03
-591.997
-5955.69
-688.498
-6294.88
-795.771
-6651.8
-917.807
-7032.9
-1057.56
-7446.01
-1212.48
-7925.85
-1373.36
-8540.68
-1530.2
-9352.13
-1678.31
-10370.1
-1819.53
-11547.9
-1963.92
-12797.2
-2132.13
-13996.3
-2346.42
-15032.5
-2605.9
-15890.6
-2870.16
-16680.8
-3080.18
-17528.8
-3198.83
-18468.1
-3227.83
-19444
-3194.47
-20341.6
-3133.03
-20935.9
-3073.01
-20742.5
-3024.59
-18816.7
-2965.66
-14172.4
-2901.78
-7946.45
-2927.14
-4022.22
-3077.87
-2879.5
-3296.55
-1687.52
-3536.66
-69.7045
-3812.69
1528.9
-4199.41
3423.69
-4772.12
5938.81
-5605.32
9450.11
-6810.18
14618.8
-8546.89
22525.9
-11044.5
34694.3
-14415
52885.2
-17658.4
76520.5
94292.2
349.418
-410.715
352.711
-421.92
356.469
-447.467
360.428
-486.037
364.571
-535.598
368.91
-595.691
373.518
-665.88
378.468
-746.147
383.763
-836.217
389.284
-935.296
394.801
-1042.12
400.153
-1152.89
405.276
-1265.41
410.133
-1382.28
414.662
-1509.61
418.739
-1655.23
422.112
-1825.75
424.397
-2021.35
425.456
-2239.98
425.789
-2490.41
426.283
-2773.66
424.323
-3106.86
414.055
-3546.04
391.75
-4039.99
366.054
-4447.69
363.999
-4829.43
392.42
-5175.71
418.462
-5234.53
411.694
-4924.86
364.109
-4489.94
281.303
-4155.64
178.069
-3983.42
76.3996
-3980.39
-17.8699
-4104.69
-107.587
-4242.69
-181.938
-4383.01
-244.152
-4593.09
-307.084
-4814.89
-373.977
-5027.34
-447.011
-5268.6
-528.167
-5551.87
-617.912
-5865.95
-716.915
-6195.87
-827.515
-6541.2
-953.526
-6906.88
-1097.13
-7302.41
-1254.85
-7768.12
-1417.62
-8377.91
-1576.44
-9193.31
-1727.38
-10219.2
-1872.66
-11402.7
-2022.93
-12646.9
-2198.97
-13820.3
-2420.98
-14810.5
-2684.08
-15627.5
-2946.29
-16418.6
-3152.53
-17322.6
-3271.16
-18349.4
-3305.29
-19409.9
-3279.99
-20366.9
-3227.33
-20988.5
-3175.69
-20794.1
-3133.99
-18858.3
-3079.68
-14226.7
-3021.18
-8004.96
-3053.11
-3990.29
-3198.89
-2733.72
-3396.99
-1489.43
-3626.39
159.699
-3927.18
1829.69
-4355.5
3852
-4969.28
6552.59
-5847.49
10328.3
-7110.8
15882.1
-8955.78
24370.9
-11656
37394.5
-15132.3
56361.5
-17562.4
78950.6
90409.8
357.052
-412.502
360.071
-424.94
363.524
-450.921
367.166
-489.679
370.993
-539.425
375.041
-599.739
379.403
-670.242
384.151
-750.895
389.263
-841.329
394.604
-940.638
399.955
-1047.47
405.155
-1158.09
410.103
-1270.36
414.708
-1386.89
418.861
-1513.77
422.419
-1658.79
425.15
-1828.48
426.71
-2022.91
427.02
-2240.29
426.552
-2489.94
426.154
-2773.26
423.599
-3104.31
413.451
-3535.9
391.358
-4017.9
365.753
-4422.08
363.973
-4827.65
389.985
-5201.72
407.644
-5252.19
387.232
-4904.45
323.16
-4425.87
226.067
-4058.54
118.769
-3876.12
24.9642
-3886.58
-58.9878
-4020.74
-140.328
-4161.35
-208.326
-4315.01
-267.895
-4533.52
-330.061
-4752.73
-397.114
-4960.29
-471.023
-5194.69
-553.547
-5469.35
-645.206
-5774.29
-746.796
-6094.28
-860.759
-6427.23
-990.7
-6776.94
-1138.08
-7155.02
-1298.75
-7607.45
-1463.88
-8212.79
-1625.44
-9031.75
-1780.18
-10064.5
-1930.58
-11252.3
-2087.65
-12489.9
-2272.02
-13635.9
-2501.87
-14580.7
-2768.89
-15360.5
-3030.2
-16157.2
-3234.66
-17118.1
-3355.38
-18228.7
-3396.62
-19368.7
-3381.64
-20381.9
-3340.61
-21029.6
-3300.42
-20834.3
-3266.8
-18892
-3212.18
-14281.3
-3144.69
-8072.44
-3168.65
-3966.33
-3312.09
-2590.28
-3511.67
-1289.85
-3749.62
397.647
-4073.56
2153.64
-4535.59
4314.03
-5187.47
7204.46
-6113.46
11254.3
-7456.74
17225.4
-9458.31
26372.5
-12371.1
40307.3
-15794.4
59784.7
-17408.8
80565
86256.3
364.111
-414.243
366.885
-427.713
370.06
-454.096
373.428
-493.047
377.007
-543.004
380.846
-603.577
385.034
-674.43
389.624
-755.485
394.574
-846.279
399.753
-945.817
404.951
-1052.67
410.006
-1163.14
414.781
-1275.14
419.135
-1391.24
422.926
-1517.56
425.998
-1661.86
428.14
-1830.63
429.043
-2023.81
428.678
-2239.92
427.457
-2488.72
426.115
-2771.92
422.734
-3100.93
412.298
-3525.46
389.961
-3995.56
364.106
-4396.23
361.773
-4825.32
383.253
-5223.2
389.614
-5258.55
352.853
-4867.69
270.972
-4343.99
162.009
-3949.58
57.2695
-3771.38
-23.7513
-3805.56
-96.9627
-3947.53
-170.773
-4087.54
-233.299
-4252.48
-290.808
-4476.01
-352.39
-4691.14
-419.64
-4893.04
-494.362
-5119.97
-578.142
-5385.57
-671.587
-5680.85
-775.605
-5990.27
-892.71
-6310.13
-1026.27
-6643.38
-1177.07
-7004.22
-1340.41
-7444.12
-1507.85
-8045.35
-1672.32
-8867.28
-1831.09
-9905.68
-1986.82
-11096.5
-2150.63
-12326.1
-2342.56
-13444
-2578.42
-14344.8
-2847.03
-15091.9
-3106.02
-15898.2
-3309.1
-16915.1
-3433.89
-18103.9
-3484.92
-19317.6
-3483.16
-20383.7
-3456.71
-21056
-3430.5
-20860.5
-3405.87
-18916.6
-3349.12
-14338.1
-3270.24
-8151.33
-3287.58
-3948.98
-3433.31
-2444.56
-3638.59
-1084.56
-3888.92
647.97
-4235.55
2500.27
-4727.35
4805.83
-5416.59
7893.71
-6400.2
12237.9
-7854.75
18679.9
-10050.5
28568.2
-13133.8
43390.6
-16316.1
62967
-16889.8
81138.7
80353.4
370.976
-415.942
373.538
-430.275
376.475
-457.033
379.62
-496.191
383.014
-546.399
386.706
-607.269
390.762
-678.486
395.208
-759.931
400.001
-851.072
405.025
-950.842
410.08
-1057.72
414.992
-1168.05
419.583
-1279.73
423.677
-1395.34
427.109
-1520.99
429.721
-1664.48
431.31
-1832.21
431.605
-2024.1
430.613
-2238.93
428.659
-2486.76
426.334
-2769.59
421.961
-3096.55
410.859
-3514.36
387.743
-3972.44
361.126
-4369.61
357.17
-4821.36
371.756
-5237.79
363.767
-5250.56
308.007
-4811.93
207.972
-4243.95
91.882
-3833.49
-2.71708
-3676.78
-68.3893
-3739.89
-132.475
-3883.44
-199.859
-4020.16
-257.674
-4194.67
-313.41
-4420.27
-374.414
-4630.14
-441.833
-4825.62
-517.303
-5044.5
-602.259
-5300.61
-697.394
-5585.71
-803.71
-5883.95
-923.753
-6190.08
-1060.64
-6506.49
-1214.58
-6850.28
-1380.47
-7278.22
-1550.38
-7875.44
-1718.1
-8699.56
-1881.35
-9742.43
-2042.84
-10935
-2213.5
-12155.4
-2412.39
-13245.1
-2652.85
-14104.3
-2921.62
-14823.1
-3178.04
-15641.8
-3380.98
-16712.1
-3511.79
-17973.1
-3574.74
-19254.7
-3588.47
-20369.9
-3579.09
-21065.4
-3569.27
-20870.4
-3555.01
-18930.9
-3495
-14398.1
-3400.52
-8245.8
-3407.93
-3941.57
-3557.59
-2294.9
-3771.95
-870.198
-4036.56
912.579
-4405.27
2868.98
-4925.6
5326.15
-5656.35
8624.46
-6715.87
13297.5
-8315.1
20279.1
-10715.4
30968.6
-13873.8
46548.9
-16621.9
65715.2
-16161.3
80678
74099.9
377.572
-417.601
379.962
-432.666
382.709
-459.78
385.69
-499.172
388.962
-549.67
392.556
-610.864
396.507
-682.437
400.821
-764.245
405.466
-855.717
410.348
-955.724
415.269
-1062.64
420.033
-1172.82
424.427
-1284.12
428.254
-1399.16
431.343
-1524.08
433.528
-1666.66
434.613
-1833.3
434.357
-2023.85
432.79
-2237.37
430.116
-2484.09
426.752
-2766.23
421.2
-3091
409.056
-3502.21
384.661
-3948.05
356.745
-4341.7
349.81
-4814.43
354.697
-5242.67
329.128
-5224.99
252.256
-4735.05
135.892
-4127.59
20.3738
-3717.97
-57.2227
-3599.19
-108.075
-3689.04
-165.566
-3825.95
-227.436
-3958.29
-281.273
-4140.83
-335.539
-4366.01
-396.029
-4569.65
-463.623
-4758.03
-539.786
-4968.34
-625.829
-5214.57
-722.548
-5488.99
-831.023
-5775.47
-953.801
-6067.31
-1093.75
-6366.55
-1250.54
-6693.49
-1418.87
-7109.89
-1591.34
-7702.98
-1762.6
-8528.29
-1930.75
-9574.28
-2098.38
-10767.4
-2275.99
-11977.8
-2481.2
-13039.9
-2724.87
-13860.7
-2992.41
-14555.6
-3245.96
-15388.3
-3449.73
-16508.3
-3588.27
-17834.6
-3665.11
-19177.8
-3696.54
-20338.5
-3706.63
-21055.3
-3715.48
-20861.5
-3713.3
-18933
-3650.45
-14460.9
-3538.26
-8358
-3531.58
-3948.25
-3682.64
-2143.84
-3906.6
-646.246
-4187.58
1193.56
-4579.65
3261.06
-5131.37
5877.87
-5914.89
9407.98
-7075.22
14457.8
-8845.83
22049.7
-11429.7
33552.5
-14544.5
49663.7
-16714.6
67885.3
-15188.8
79152.1
66788
383.935
-419.229
386.202
-434.933
388.823
-462.402
391.706
-502.055
394.904
-552.868
398.428
-614.388
402.286
-686.294
406.476
-768.435
410.986
-860.227
415.74
-960.478
420.53
-1067.43
425.137
-1177.42
429.321
-1288.31
432.878
-1402.72
435.645
-1526.85
437.444
-1668.46
438.073
-1833.93
437.326
-2023.1
435.232
-2235.27
431.847
-2480.7
427.393
-2761.77
420.495
-3084.1
406.933
-3488.65
380.738
-3921.85
350.881
-4311.84
339.34
-4802.88
331.518
-5234.85
285.422
-5178.89
186.738
-4636.37
59.0909
-3999.94
-46.4388
-3612.44
-103.518
-3542.11
-143.12
-3649.44
-196.504
-3772.57
-253.583
-3901.21
-304.141
-4090.27
-357.181
-4312.97
-417.21
-4509.62
-484.979
-4690.26
-561.782
-4891.54
-648.824
-5127.53
-747.014
-5390.8
-857.499
-5664.99
-982.791
-5942.01
-1125.5
-6223.84
-1284.9
-6534.09
-1455.59
-6939.2
-1630.77
-7527.79
-1805.9
-8353.17
-1979.38
-9400.81
-2153.58
-10593.2
-2338.25
-11793.1
-2549.19
-12829
-2794.77
-13615.1
-3059.95
-14290.4
-3310.56
-15137.7
-3516.21
-16302.7
-3664.06
-17686.7
-3756.54
-19085.4
-3807.59
-20287.5
-3839.28
-21023.6
-3868.93
-20831.9
-3880.87
-18921.1
-3816.81
-14525
-3686.15
-8488.66
-3661.23
-3973.16
-3810.44
-1994.64
-4043.45
-413.234
-4341.8
1491.9
-4759.84
3679.1
-5350.51
6468.55
-6204.25
10261.7
-7491.49
15745
-9445.05
24003.3
-12161
36268.4
-15102.1
52604.8
-16579.1
69362.3
-14037.7
76610.7
58972
390.099
-420.836
392.296
-437.129
394.859
-464.965
397.699
-504.895
400.853
-556.022
404.315
-617.85
408.085
-690.065
412.168
-772.518
416.561
-864.62
421.197
-965.114
425.854
-1072.09
430.29
-1181.86
434.25
-1292.27
437.542
-1406.01
440.014
-1529.32
441.471
-1669.92
441.699
-1834.16
440.519
-2021.92
437.943
-2232.7
433.848
-2476.61
428.247
-2756.17
419.84
-3075.7
404.494
-3473.31
375.995
-3893.35
343.481
-4279.33
325.501
-4784.9
301.992
-5211.34
233.211
-5110.11
114.433
-4517.59
-16.0167
-3869.49
-103.276
-3525.18
-141.149
-3504.23
-174.513
-3616.07
-225.512
-3721.57
-278.369
-3848.35
-326.283
-4042.36
-378.298
-4260.95
-437.929
-4449.99
-505.882
-4622.31
-583.273
-4814.15
-671.224
-5039.58
-770.769
-5291.26
-883.109
-5552.65
-1010.69
-5814.43
-1155.89
-6078.64
-1317.65
-6372.33
-1490.65
-6766.2
-1668.69
-7349.75
-1848
-8173.86
-2027.25
-9221.56
-2208.48
-10412
-2400.37
-11601.2
-2616.52
-12612.8
-2862.9
-13368.7
-3124.77
-14028.5
-3372.45
-14890
-3580.91
-16094.2
-3739.39
-17528.3
-3849.02
-18975.7
-3921.42
-20215.1
-3976.6
-20968.4
-4029.08
-20779.4
-4057.48
-18892.7
-3995.13
-14587.3
-3847.4
-8636.39
-3801.12
-4019.44
-3944.4
-1851.36
-4185.14
-172.495
-4502.36
1809.12
-4951.41
4128.15
-5592.76
7109.89
-6537.13
11206.1
-7971.83
17179.7
-10099
26130.4
-12871.2
39040.7
-15516.1
55249.7
-16236.9
70083.1
-12737.3
73111.1
50452.9
396.117
-422.436
398.296
-439.308
400.858
-467.527
403.69
-507.727
406.81
-559.141
410.211
-621.251
413.903
-693.758
417.897
-776.512
422.191
-868.913
426.713
-969.637
431.231
-1076.61
435.484
-1186.11
439.214
-1296
442.249
-1409.05
444.457
-1531.53
445.62
-1671.08
445.503
-1834.04
443.948
-2020.37
440.926
-2229.67
436.117
-2471.8
429.317
-2749.37
419.246
-3065.62
401.756
-3455.82
370.46
-3862.06
334.492
-4243.36
308.162
-4758.57
266.413
-5169.59
174.282
-5017.98
40.3701
-4383.68
-82.7444
-3746.38
-147.566
-3460.36
-171.53
-3480.27
-203.279
-3584.32
-252.73
-3672.12
-301.88
-3799.2
-347.703
-3996.54
-398.863
-4209.79
-458.163
-4390.69
-526.305
-4554.16
-604.233
-4736.22
-693.005
-4950.8
-793.784
-5190.48
-907.817
-5438.62
-1037.46
-5684.78
-1184.87
-5931.23
-1348.78
-6208.42
-1524.04
-6590.94
-1705.12
-7168.67
-1888.93
-7990.05
-2074.39
-9036.1
-2263.14
-10223.2
-2462.47
-11401.9
-2683.44
-12391.8
-2929.68
-13122.5
-3187.48
-13770.7
-3432.26
-14645.2
-3644.29
-15882.2
-3814.49
-17358
-3942.56
-18847.7
-4037.83
-20119.8
-4118.2
-20888
-4195.39
-20702.2
-4242.86
-18845.2
-4186.27
-14643.9
-4025.04
-8797.61
-3956.24
-4088.24
-4090.21
-1717.39
-4337.52
74.8163
-4675.89
2147.49
-5163.23
4615.49
-5869.65
7816.32
-6923.96
12260.4
-8515.28
18771
-10784.8
28400
-13524.4
41780.3
-15769.7
57495
-15708
70021.4
-11357.3
68760.4
41586.5
402.058
-424.037
404.254
-441.504
406.843
-470.116
409.677
-510.562
412.764
-562.227
416.109
-624.596
419.74
-697.388
423.667
-780.439
427.875
-873.121
432.281
-974.043
436.648
-1080.97
440.71
-1190.18
444.211
-1299.5
447.006
-1411.84
448.984
-1533.5
449.902
-1672
449.494
-1833.63
447.617
-2018.49
444.178
-2226.23
438.648
-2466.27
430.598
-2741.32
418.711
-3053.74
398.731
-3435.84
364.166
-3827.49
323.896
-4203.09
287.421
-4722.1
225.765
-5107.94
111.783
-4904
-29.4507
-4242.45
-136.605
-3639.22
-179.957
-3417.01
-196.877
-3463.35
-230.182
-3551.02
-278.257
-3624.04
-324.209
-3753.25
-368.407
-3952.34
-418.853
-4159.35
-477.894
-4331.65
-546.231
-4485.83
-624.644
-4657.8
-714.15
-4861.3
-816.039
-5088.59
-931.599
-5323.06
-1063.08
-5553.3
-1212.43
-5781.88
-1378.3
-6042.56
-1555.8
-6413.44
-1740.08
-6984.38
-1928.69
-7801.44
-2120.81
-8843.98
-2317.58
-10026.4
-2524.67
-11194.8
-2750.24
-12166.3
-2995.65
-12877.1
-3248.78
-13517.6
-3490.66
-14403.3
-3706.76
-15666.1
-3889.47
-17175.3
-4037.01
-18700.1
-4156.44
-20000.4
-4263.49
-20781
-4367.17
-20598.5
-4436.52
-18775.9
-4390.71
-14689.7
-4221.85
-8966.48
-4131.84
-4178.25
-4253.82
-1595.41
-4507.34
328.341
-4870.96
2511.1
-5405.63
5150.16
-6191.89
8602.58
-7370.09
13438.6
-9112.52
20513.5
-11475.1
30762.5
-14089
44394.2
-15848.3
59254.3
-14990.9
69163.9
-9980.43
63750
33312.3
407.992
-425.637
410.207
-443.719
412.817
-472.727
415.649
-513.394
418.706
-565.284
422.01
-627.9
425.599
-700.978
429.477
-784.317
433.604
-877.248
437.887
-978.326
442.096
-1085.18
445.965
-1194.04
449.249
-1302.78
451.824
-1414.42
453.605
-1535.28
454.325
-1672.72
453.683
-1832.99
451.53
-2016.34
447.694
-2222.4
441.43
-2460.01
432.086
-2731.98
418.233
-3039.88
395.428
-3413.03
357.141
-3789.21
311.718
-4157.66
263.657
-4674.04
181.774
-5026.05
49.9523
-4772.18
-89.6603
-4102.84
-176.358
-3552.52
-203.312
-3390.05
-219.289
-3447.37
-255.626
-3514.68
-302.172
-3577.5
-345.439
-3709.98
-388.391
-3909.39
-438.25
-4109.49
-497.103
-4272.8
-565.641
-4417.29
-644.487
-4578.96
-734.639
-4771.15
-837.513
-4985.71
-954.429
-5206.14
-1087.51
-5420.22
-1238.56
-5630.84
-1406.2
-5874.91
-1585.95
-6233.7
-1773.59
-6796.74
-1967.29
-7607.74
-2166.49
-8644.78
-2371.83
-9821.1
-2587.1
-10979.5
-2817.27
-11936.1
-3061.43
-12632.9
-3309.45
-13269.6
-3548.31
-14164.5
-3768.69
-15445.7
-3964.34
-16979.7
-4132.1
-18532.4
-4276.78
-19855.7
-4411.85
-20645.9
-4543.67
-20466.7
-4637.81
-18681.7
-4608.49
-14719.1
-4439.67
-9135.29
-4332.37
-4285.56
-4441.28
-1486.5
-4702.23
589.295
-5096.82
2905.7
-5688.44
5741.78
-6566.95
9481.09
-7874.33
14746
-9747.17
22386.3
-12140.5
33155.9
-14538.1
46791.8
-15742.4
60458.5
-14104.9
67526.4
-8622.65
58267.8
26009
413.975
-427.215
416.174
-445.918
418.777
-475.331
421.597
-516.213
424.634
-568.321
427.916
-631.182
431.482
-704.543
435.319
-788.154
439.365
-881.294
443.52
-982.48
447.568
-1089.23
451.252
-1197.73
454.335
-1305.86
456.716
-1416.8
458.331
-1536.9
458.899
-1673.29
458.073
-1832.16
455.685
-2013.95
451.464
-2218.18
444.451
-2452.99
433.766
-2721.29
417.798
-3023.92
391.845
-3387.08
349.407
-3746.77
298.042
-4106.3
237.548
-4613.54
136.776
-4925.28
-6.87353
-4628.53
-137.399
-3972.31
-203.789
-3486.13
-221.038
-3372.81
-240.24
-3428.17
-279.731
-3475.19
-324.564
-3532.66
-365.651
-3668.89
-407.651
-3867.39
-457.038
-4060.1
-515.779
-4214.05
-584.518
-4348.55
-663.745
-4499.73
-754.458
-4680.43
-858.19
-4881.98
-976.29
-5088.04
-1110.76
-5285.75
-1263.26
-5478.33
-1432.53
-5705.64
-1614.52
-6051.71
-1805.67
-6605.59
-2004.72
-7408.7
-2211.4
-8438.1
-2425.89
-9606.61
-2649.88
-10755.5
-2884.9
-11701.1
-3127.69
-12390.1
-3370.33
-13027
-3605.95
-13928.9
-3830.45
-15221.2
-4039.08
-16771.1
-4227.49
-18344
-4398.3
-19684.9
-4562.51
-20481.7
-4724
-20305.2
-4845.86
-18559.9
-4839.1
-14725.8
-4679.36
-9295.04
-4561.28
-4403.63
-4658.8
-1388.99
-4930.02
860.516
-5361.78
3337.46
-6019.02
6399.02
-6997.44
10459.5
-8428.8
16177.3
-10397.8
24355.3
-12752.5
35510.6
-14850.5
48889.8
-15454.7
61062.7
-13097.1
65168.9
-7299.53
52470.2
19410.4
420.032
-428.744
422.16
-448.046
424.725
-477.896
427.526
-519.014
430.555
-571.35
433.832
-634.46
437.384
-708.095
441.18
-791.95
445.142
-885.257
449.168
-986.506
453.062
-1093.13
456.575
-1201.24
459.479
-1308.77
461.691
-1419.01
463.172
-1538.38
463.63
-1673.75
462.669
-1831.2
460.079
-2011.36
455.474
-2213.57
447.694
-2445.21
435.619
-2709.22
417.379
-3005.68
387.966
-3357.66
340.976
-3699.78
283.014
-4048.34
210.002
-4540.53
93.333
-4808.61
-55.2094
-4479.99
-172.234
-3855.29
-222.081
-3436.29
-235.952
-3358.94
-260.514
-3403.61
-302.485
-3433.22
-345.541
-3489.61
-384.908
-3629.53
-426.183
-3826.11
-475.209
-4011.07
-533.911
-4155.35
-602.849
-4279.61
-682.402
-4420.18
-773.593
-4589.24
-878.056
-4777.52
-997.168
-4968.93
-1132.81
-5150.11
-1286.55
-5324.59
-1457.31
-5534.88
-1641.54
-5867.48
-1836.31
-6410.81
-2040.92
-7204.09
-2255.47
-8223.56
-2479.7
-9382.38
-2713.11
-10522.1
-2953.49
-11460.7
-3195.15
-12148.4
-3432.36
-12789.7
-3664.37
-13696.9
-3892.44
-14993.1
-4113.67
-16549.8
-4322.83
-18134.8
-4520.38
-19487.3
-4714.66
-20287.4
-4907.17
-20112.7
-5059.58
-18407.5
-5081.51
-14703.9
-4940.62
-9435.93
-4820.75
-4523.5
-4911.58
-1298.15
-5197.14
1146.07
-5671.75
3812.06
-6400.92
7128.19
-7480.39
11539
-9019.83
17716.8
-11040.3
26375.8
-13284.7
37755.1
-15013
50618.1
-14997.9
61047.6
-11998.3
62169.2
-6029.66
46501.5
13749.6
426.164
-430.208
428.179
-450.061
430.674
-480.391
433.45
-521.79
436.476
-574.376
439.756
-637.74
443.294
-711.633
447.044
-795.7
450.921
-889.134
454.827
-990.412
458.584
-1096.88
461.945
-1204.6
464.688
-1311.51
466.757
-1421.08
468.133
-1539.76
468.519
-1674.13
467.468
-1830.15
464.703
-2008.59
459.711
-2208.58
451.139
-2436.64
437.618
-2695.7
416.937
-2985
383.756
-3324.48
331.844
-3647.87
266.827
-3983.32
182.019
-4455.73
53.6557
-4680.25
-93.4216
-4332.91
-195.733
-3752.97
-234.474
-3397.55
-249.925
-3343.48
-280.408
-3373.13
-323.874
-3389.76
-365.227
-3448.26
-403.262
-3591.49
-443.982
-3785.39
-492.757
-3962.3
-551.49
-4096.62
-620.622
-4210.48
-700.446
-4340.35
-792.032
-4497.66
-897.103
-4672.45
-1017.06
-4848.97
-1153.66
-5013.51
-1308.45
-5169.8
-1480.58
-5362.75
-1667.02
-5681.04
-1865.5
-6212.34
-2075.86
-6993.73
-2298.63
-8000.79
-2533.2
-9147.81
-2776.81
-10278.5
-3023.37
-11214.1
-3264.53
-11907.3
-3496.5
-12557.8
-3724.44
-13468.9
-3955.18
-14762.4
-4188.14
-16316.9
-4417.75
-17905.2
-4642.36
-19262.7
-4867.45
-20062.3
-5092.15
-19888
-5277.7
-18221.9
-5334.17
-14647.4
-5222.16
-9547.93
-5111.3
-4634.37
-5202.55
-1206.9
-5507.21
1450.73
-6029.25
4334.11
-6833.05
7931.99
-8007.39
12713.3
-9629.34
19338.7
-11649.7
28396.1
-13715.5
39820.9
-15020.3
51922.9
-14392.9
60420.3
-10847.6
58624
-4811.08
40464.9
8788.69
432.366
-431.618
434.253
-451.948
436.648
-482.785
439.386
-524.528
442.405
-577.395
445.682
-641.017
449.199
-715.15
452.897
-799.397
456.693
-892.93
460.499
-994.218
464.14
-1100.52
467.37
-1207.83
469.97
-1314.11
471.918
-1423.03
473.217
-1541.05
473.564
-1674.48
472.463
-1829.05
469.546
-2005.68
464.156
-2203.19
454.759
-2427.24
439.721
-2680.66
416.411
-2961.69
379.164
-3287.24
321.992
-3590.69
249.695
-3911.02
154.524
-4360.55
19.1827
-4544.91
-121.766
-4191.96
-210.601
-3664.14
-243.695
-3364.45
-264.021
-3323.16
-299.951
-3337.2
-343.931
-3345.77
-383.749
-3408.44
-420.753
-3554.49
-461.048
-3745.1
-509.68
-3913.67
-568.513
-4037.79
-637.826
-4141.17
-717.863
-4260.32
-809.766
-4405.75
-915.321
-4566.89
-1035.95
-4728.34
-1173.33
-4876.13
-1328.98
-5014.15
-1502.35
-5189.38
-1690.98
-5492.41
-1893.19
-6010.12
-2109.43
-6777.49
-2340.72
-7769.49
-2586.22
-8902.31
-2840.96
-10023.8
-3094.8
-10960.3
-3336.49
-11665.6
-3563.71
-12330.6
-3787.12
-13245.5
-4019.25
-14530.3
-4262.62
-16073.5
-4511.92
-17655.9
-4763.57
-19011.1
-5019.95
-19806
-5277.8
-19630.2
-5498.75
-18001
-5595.03
-14551.1
-5521.54
-9621.42
-5431.43
-4724.47
-5531.75
-1106.59
-5860.52
1779.5
-6432.86
4906.45
-7309.59
8808.72
-8565.38
13969.1
-10236.7
21010
-12202.5
30361.9
-14028.5
41646.9
-14874.6
52768.9
-13664.6
59210.3
-9678.25
54637.7
-3658.23
34444.9
4574.33
438.614
-432.99
440.386
-453.721
442.664
-485.063
445.342
-527.206
448.342
-580.395
451.601
-644.276
455.085
-718.633
458.727
-803.039
462.455
-896.659
466.186
-997.949
469.74
-1104.08
472.858
-1210.95
475.325
-1316.58
477.17
-1424.87
478.42
-1542.3
478.759
-1674.82
477.64
-1827.93
474.588
-2002.63
468.784
-2197.39
458.521
-2416.98
441.871
-2664.01
415.719
-2935.53
374.111
-3245.63
311.385
-3527.97
231.818
-3831.45
128.216
-4256.95
-9.57467
-4407.12
-141.685
-4059.85
-219.748
-3586.08
-251.813
-3332.39
-278.727
-3296.24
-319.029
-3296.89
-362.734
-3302.07
-401.224
-3369.95
-437.41
-3518.3
-477.384
-3705.12
-525.982
-3865.07
-584.975
-3978.79
-654.454
-4071.69
-734.646
-4180.13
-826.786
-4313.61
-932.71
-4460.97
-1053.86
-4607.2
-1191.82
-4738.17
-1348.16
-4857.81
-1522.64
-5014.9
-1713.39
-5301.66
-1919.33
-5804.19
-2141.51
-6555.31
-2381.58
-7529.42
-2638.57
-8645.31
-2905.4
-9756.96
-3167.9
-10697.8
-3411.58
-11421.9
-3634.9
-12107.2
-3853.4
-13027
-4085.37
-14298.3
-4337.3
-15821.6
-4605.04
-17388.2
-4883.3
-18732.8
-5171.19
-19518.1
-5462.92
-19338.4
-5721.06
-17742.8
-5861.54
-14410.7
-5835.21
-9647.75
-5777.52
-4782.17
-5896.21
-987.898
-6253.84
2137.13
-6877.12
5529.73
-7820.45
9752.04
-9137.91
15286.6
-10820.3
22692.4
-12678.2
32219.8
-14213.5
43182.3
-14584.6
53140
-12839.8
57465.5
-8508.98
50306.9
-2506.1
28442
1235.05
444.878
-434.339
446.558
-455.401
448.72
-487.225
451.32