/*--------------------------------*- C++ -*----------------------------------*\
| =========                 |                                                 |
| \\      /  F ield         | OpenFOAM: The Open Source CFD Toolbox           |
|  \\    /   O peration     | Version:  4.1                                   |
|   \\  /    A nd           | Web:      www.OpenFOAM.org                      |
|    \\/     M anipulation  |                                                 |
\*---------------------------------------------------------------------------*/
FoamFile
{
    version     2.0;
    format      ascii;
    class       volVectorField;
    location    "17";
    object      U;
}
// * * * * * * * * * * * * * * * * * * * * * * * * * * * * * * * * * * * * * //

dimensions      [0 1 -1 0 0 0 0];

internalField   nonuniform List<vector> 
6785
(
(4.07506e-14 -0.841627 16.1691)
(4.11413e-14 -6.73144 12.5444)
(-1.31543e-14 -4.80489 12.9486)
(1.58476e-14 -4.31852 12.6969)
(5.93783e-15 -3.69466 12.5288)
(-6.50044e-15 -3.2225 12.3037)
(1.58712e-14 -2.83363 12.0511)
(4.75526e-15 -2.54604 11.761)
(-6.58793e-15 -2.35963 11.4335)
(1.54271e-14 -2.24838 11.0894)
(4.15188e-15 -2.20116 10.7655)
(-6.72899e-15 -2.40766 10.3848)
(1.45807e-14 -2.91766 9.80004)
(1.59913e-15 -2.2937 9.19051)
(-3.09268e-14 0.791045 7.26808)
(9.91167e-14 -7.82599 26.3129)
(5.67582e-14 -16.5766 22.0455)
(-8.49569e-15 -11.5569 22.5084)
(5.75397e-14 -11.8766 21.0521)
(4.5145e-15 -10.8155 20.0815)
(1.09224e-14 -10.0765 19.0258)
(4.12668e-14 -9.30587 17.9869)
(5.73063e-15 -8.5696 16.9455)
(2.30488e-14 -7.87074 15.8988)
(4.19618e-14 -7.20622 14.8829)
(7.56881e-15 -6.54837 13.9518)
(2.81531e-14 -5.89658 12.8094)
(5.25875e-14 -4.95261 10.3444)
(-1.59598e-14 -2.60507 5.52033)
(-5.14715e-15 0.583713 -0.106199)
(4.50877e-14 -10.63 28.2878)
(5.82156e-14 -17.6808 24.4896)
(-1.19245e-14 -11.9189 24.99)
(-2.92564e-15 -12.8941 22.7564)
(9.70628e-15 -11.2643 21.6487)
(2.86177e-15 -10.5286 20.1803)
(-1.9665e-14 -9.60309 18.8254)
(2.12786e-14 -8.78506 17.4581)
(5.10577e-15 -8.01165 16.1392)
(-2.858e-14 -7.32166 14.8976)
(2.76686e-14 -6.60179 13.5413)
(-1.72445e-14 -5.19033 10.9012)
(-1.29447e-13 -1.59179 4.72573)
(2.2188e-14 3.23241 -3.86652)
(2.66656e-14 1.57022 -4.2822)
(8.30935e-14 -11.419 27.1769)
(3.00653e-14 -17.6097 24.2342)
(5.58805e-15 -11.8639 24.4873)
(-1.91444e-16 -13.5866 21.645)
(-2.79418e-14 -11.6068 20.6422)
(2.67153e-14 -11.1488 18.9122)
(-5.62032e-15 -10.2784 17.4451)
(-3.59606e-14 -9.54801 15.9466)
(3.206e-14 -8.84623 14.4913)
(-2.21521e-15 -8.20645 13.1106)
(-3.66958e-14 -7.59857 11.7726)
(3.01473e-14 -6.68638 9.93166)
(-8.28024e-15 -4.60123 6.30879)
(-1.34434e-13 -1.91907 2.47343)
(-5.10889e-14 0.0917171 -2.96493)
(4.5575e-14 -11.4422 25.766)
(-2.07643e-14 -17.2357 24.1951)
(-1.72211e-14 -11.9622 23.9237)
(-2.70178e-14 -13.5737 20.9379)
(-9.59233e-14 -11.5888 19.9552)
(-2.48192e-15 -11.1517 18.1602)
(-2.55658e-14 -10.2874 16.6309)
(-1.09351e-13 -9.50652 15.0919)
(-3.74033e-14 -8.78242 13.6213)
(-1.66823e-14 -8.11906 12.2935)
(-1.11427e-13 -7.52263 11.0787)
(-8.89616e-14 -6.84131 9.79191)
(-7.08637e-14 -5.75647 7.82692)
(-1.77086e-13 -3.92866 5.45102)
(-2.70567e-13 -1.69645 0.621419)
(7.25544e-14 -11.4956 24.9836)
(-1.51948e-14 -16.634 23.7258)
(1.77744e-14 -11.6473 23.4995)
(-4.13795e-14 -13.3374 20.373)
(-7.32645e-14 -10.9788 19.5819)
(2.89003e-14 -10.7636 17.596)
(-5.26455e-14 -9.66878 16.1261)
(-8.83221e-14 -8.91762 14.5639)
(4.36808e-14 -8.21279 13.1896)
(-5.48049e-14 -7.65568 11.9574)
(-1.05007e-13 -7.12496 10.734)
(-3.30886e-14 -6.58856 9.64766)
(-4.3369e-14 -6.16476 8.77624)
(-9.98667e-14 -5.20898 7.67578)
(-2.06494e-13 -3.32916 4.36059)
(1.33271e-13 -12.0142 25.0235)
(-8.33053e-15 -15.9486 23.4399)
(6.8176e-14 -11.5942 23.3323)
(-3.26626e-14 -13.0011 20.3349)
(-3.13029e-14 -10.4944 19.5421)
(7.58308e-14 -10.3273 17.4569)
(-5.11149e-14 -8.95475 16.0301)
(-2.27931e-14 -8.02601 14.1228)
(6.41067e-14 -6.78288 11.9963)
(-3.69393e-14 -5.87084 9.97134)
(3.92187e-14 -5.64072 9.00795)
(1.70602e-13 -5.97809 9.15195)
(2.37491e-14 -6.54695 9.87119)
(-1.04795e-13 -6.66506 10.1119)
(-2.77326e-14 -4.97741 8.15115)
(9.12165e-14 -12.6762 25.5939)
(-3.60826e-16 -16.0549 24.3868)
(4.0899e-14 -11.9668 23.8784)
(-3.30592e-14 -13.0325 21.2211)
(-3.2912e-16 -10.5721 20.3513)
(2.83237e-14 -10.3276 18.3394)
(-4.20449e-14 -8.76712 16.9227)
(-5.85838e-15 -7.5135 14.5532)
(-2.30082e-14 -5.4134 11.3876)
(-2.45764e-15 -3.49103 8.10596)
(-2.93416e-14 -2.54285 6.4255)
(-1.82478e-13 -3.04319 6.81216)
(-1.83957e-13 -4.65658 8.77786)
(-9.40679e-14 -6.16129 10.691)
(2.70454e-14 -4.84305 9.24395)
(8.4604e-14 -12.7079 25.1384)
(1.80993e-14 -17.147 26.586)
(3.22844e-15 -12.7338 24.9663)
(-2.96659e-14 -13.7078 22.4063)
(3.10757e-15 -11.2449 21.5824)
(-1.82554e-14 -11.1423 19.5781)
(-3.31009e-14 -9.54757 18.2943)
(-7.68391e-15 -8.43882 16.018)
(-9.07633e-14 -6.25418 12.9296)
(-3.49925e-14 -3.91761 9.27238)
(-1.43856e-13 -1.9124 6.26481)
(-4.38408e-13 -0.549639 4.06791)
(-5.20663e-13 -0.236973 3.36784)
(-4.9478e-13 -1.54303 4.88512)
(-2.03888e-13 -2.33871 5.82782)
(5.10567e-14 -11.9547 23.0613)
(3.19779e-14 -17.8098 28.112)
(-9.18663e-15 -13.9224 25.9461)
(-6.52346e-14 -14.2381 23.1233)
(-1.3911e-14 -12.1739 22.1222)
(-2.71382e-14 -12.0046 20.2393)
(-7.12256e-14 -10.7148 18.9701)
(-2.13826e-14 -9.87028 17.123)
(-8.38605e-14 -8.33399 14.8174)
(-1.04212e-13 -6.42632 11.8561)
(-1.04839e-13 -4.24791 8.68368)
(-3.76429e-13 -1.95917 5.28827)
(-6.84222e-13 0.741226 1.55563)
(-9.84329e-13 2.24539 -1.22213)
(-8.32966e-13 0.712784 -0.868239)
(-1.29813e-14 -10.8957 20.3306)
(4.91587e-14 -17.5946 28.2298)
(-6.60465e-14 -14.6949 26.2586)
(-7.01765e-14 -14.2675 23.1339)
(-1.20617e-14 -12.6181 21.7772)
(-9.50602e-14 -12.2242 20.0251)
(-8.15784e-14 -11.2446 18.6506)
(-1.38345e-14 -10.4866 17.0428)
(-1.3181e-13 -9.48375 15.2605)
(-1.42392e-13 -8.2552 13.1729)
(-5.12316e-14 -6.79819 10.8234)
(-2.61229e-13 -5.05656 8.17472)
(-3.64421e-13 -2.89207 4.94681)
(-8.61416e-13 0.0183178 1.34091)
(-1.01706e-12 0.601235 -2.9653)
(-2.07005e-14 -9.94053 17.8662)
(6.85532e-14 -16.8851 27.534)
(-1.08716e-13 -14.83 25.9692)
(-6.91093e-14 -13.8913 22.6323)
(1.2622e-14 -12.3592 20.9713)
(-1.52808e-13 -11.7989 19.2714)
(-9.20914e-14 -10.9097 17.8577)
(4.16527e-14 -10.1405 16.3319)
(-1.54619e-13 -9.29314 14.75)
(-1.62781e-13 -8.33828 13.0573)
(-4.38966e-14 -7.27997 11.202)
(-2.53645e-13 -6.00311 9.15889)
(-1.93891e-13 -4.52891 6.65657)
(-4.81024e-13 -2.27465 3.57653)
(-5.99829e-13 -0.418922 -1.69761)
(-7.56821e-14 -9.38369 16.2996)
(4.46849e-14 -16.2545 26.7618)
(-7.18483e-14 -15.0361 25.7736)
(-1.061e-13 -13.937 22.6265)
(6.01938e-15 -12.5647 20.7414)
(-1.26387e-13 -11.9089 19.054)
(-1.55793e-13 -11.1135 17.6019)
(7.13483e-14 -10.3458 16.1149)
(-9.7067e-14 -9.52989 14.5972)
(-1.62438e-13 -8.63723 13.0576)
(-3.22673e-14 -7.68373 11.4327)
(-1.80881e-13 -6.54905 9.68576)
(-1.86246e-13 -5.30734 7.62443)
(-1.85781e-13 -3.51947 5.22955)
(-5.71977e-13 -1.34971 0.390758)
(-1.38624e-13 -8.03867 12.823)
(1.6355e-14 -15.0577 24.5825)
(-9.58412e-14 -14.5566 24.2982)
(-1.36839e-13 -12.9932 20.9655)
(-3.14017e-14 -11.4663 18.8726)
(-1.01091e-13 -10.7327 17.4127)
(-1.3797e-13 -10.0472 16.3172)
(2.46132e-14 -9.45639 15.2937)
(-1.8508e-14 -8.92674 14.3385)
(-7.00079e-14 -8.38993 13.3575)
(-6.30944e-14 -7.84777 12.2933)
(-9.95959e-14 -7.17973 11.1693)
(-7.92405e-14 -6.38499 9.72555)
(-1.40464e-13 -5.09541 7.95891)
(-4.03376e-13 -3.18023 4.61436)
(-1.90459e-13 -6.6215 11.5263)
(-6.33744e-14 -15.0294 24.257)
(-5.0421e-14 -17.2394 26.4565)
(-1.18398e-13 -16.9904 24.4816)
(-1.11147e-13 -15.7906 21.954)
(-8.73921e-14 -14.7413 19.8137)
(-1.23703e-13 -13.7359 18.0081)
(-7.22936e-14 -12.6624 16.2694)
(-2.68186e-14 -11.2732 14.3066)
(-1.2042e-13 -9.79727 12.3181)
(-2.0279e-13 -8.48303 10.7958)
(-1.75939e-13 -7.41535 9.65595)
(-1.3153e-13 -6.48963 8.8253)
(-1.7537e-13 -5.40453 7.79543)
(-2.83027e-13 -2.70054 4.5214)
(-2.22933e-15 0.00467951 -0.108031)
(-9.61044e-15 0.00240452 -0.288609)
(-7.71707e-15 0.00619343 -0.231843)
(-7.13354e-15 0.0181812 -0.223183)
(-6.14039e-15 0.0433246 -0.168942)
(-9.90333e-15 -0.0322127 -0.120688)
(-6.45574e-15 -0.0508845 -0.216598)
(-2.701e-15 -0.0412826 -0.263709)
(1.43231e-14 -0.00954894 -0.235417)
(2.80246e-13 -0.068986 -0.149609)
(1.08155e-13 -0.120785 -0.240454)
(6.38821e-14 -0.0676439 -0.179433)
(4.6511e-14 -0.188391 -0.0480235)
(2.14358e-14 -0.141605 -0.187792)
(1.45047e-14 -0.148061 -0.196982)
(1.04514e-14 -0.1138 -0.131224)
(8.60149e-15 -0.194403 -0.00226679)
(3.60831e-14 -0.141128 -0.147439)
(1.62179e-14 -0.129091 -0.113165)
(4.94968e-15 -0.167924 -0.0825634)
(4.86737e-15 -0.09542 -0.146218)
(5.71027e-15 -0.100051 -0.156179)
(3.1375e-14 -0.0797424 -0.120986)
(1.12436e-14 -0.0974701 -0.175219)
(3.8852e-15 -0.0122332 -0.158234)
(4.07765e-15 -0.0125411 -0.170254)
(-2.94783e-14 0.0053379 -0.148805)
(-5.55633e-15 -0.00103108 -0.281969)
(-3.04422e-14 0.0959053 -0.207812)
(-2.30319e-14 0.104432 -0.169926)
(-1.9694e-14 0.119229 -0.360833)
(-3.27236e-14 0.186592 -0.255715)
(-2.39865e-14 0.215168 -0.230541)
(-3.70027e-14 0.211122 -0.196515)
(-4.05668e-14 0.262859 -0.404925)
(-2.47039e-14 0.303296 -0.290909)
(-2.04252e-14 0.329769 -0.230787)
(-2.51654e-14 0.372448 -0.444796)
(-1.76353e-14 0.383433 -0.318617)
(-1.87663e-14 0.445501 -0.271237)
(-3.10407e-15 0.417381 -0.21656)
(-4.75317e-15 0.542306 -0.436297)
(-4.53614e-15 0.494992 -0.329767)
(-6.28895e-15 0.557059 -0.28945)
(-6.95702e-15 0.534866 -0.226975)
(-6.43134e-15 0.65433 -0.460804)
(-1.71733e-14 0.626998 -0.347007)
(-1.59438e-14 0.669635 -0.293186)
(-2.5415e-14 0.754414 -0.450235)
(-5.28819e-15 0.672468 -0.333536)
(-2.16306e-15 0.753795 -0.296389)
(-1.1566e-15 0.720421 -0.242485)
(-1.22699e-15 0.824227 -0.259366)
(-1.53986e-15 0.653794 -0.22977)
(-4.67696e-15 0.71487 -0.237503)
(1.02223e-14 0.700088 -0.211986)
(8.80561e-15 0.750028 -0.240355)
(8.77836e-15 0.520313 -0.313364)
(-2.98127e-15 0.603816 -0.290132)
(-4.27651e-15 0.492338 -0.543485)
(-2.28172e-15 0.260282 -0.643614)
(1.06306e-15 0.329253 -0.744336)
(-7.99545e-15 0.389277 -0.61932)
(1.27881e-13 0.397096 -1.96652)
(5.58882e-14 -0.189911 -1.09305)
(2.36013e-14 0.112503 -0.42108)
(-2.41385e-14 -0.367844 1.45215)
(-3.59228e-14 -0.992928 3.23765)
(-2.41203e-14 -1.13426 2.99628)
(-3.13873e-14 -1.17375 3.35712)
(-4.99597e-14 -2.25192 6.46591)
(-4.217e-14 -2.94185 6.31027)
(-4.25398e-14 -3.33806 6.3732)
(-4.30958e-14 -3.4115 6.57268)
(-6.03042e-14 -5.61085 10.3214)
(-3.86844e-14 -5.81035 8.48648)
(-4.14869e-14 -5.91661 8.91361)
(-5.62217e-14 -8.79655 13.2575)
(-4.72799e-14 -8.6443 10.3644)
(-6.48403e-14 -8.96828 11.2256)
(-1.13387e-13 -9.82591 13.3568)
(-1.13171e-13 -9.6479 13.1269)
(-1.20711e-13 -9.82479 13.4091)
(-8.42148e-14 -11.3162 16.1359)
(-1.19465e-13 -10.7085 14.5447)
(-1.02289e-13 -10.9387 15.1776)
(-9.70012e-14 -10.9308 15.2992)
(-9.5606e-14 -11.0189 15.4247)
(-9.15277e-14 -11.0839 15.5186)
(-8.74713e-14 -11.1617 15.5812)
(-8.34821e-14 -11.2257 15.671)
(-7.97905e-14 -11.3018 15.8472)
(-6.12781e-14 -12.2711 17.8428)
(-8.01637e-14 -12.0124 16.3589)
(-8.09926e-14 -12.1499 16.5187)
(-8.55589e-14 -12.1575 16.5153)
(-9.11677e-14 -12.286 16.693)
(-8.34268e-14 -12.306 16.8129)
(-7.94624e-14 -12.3959 16.9645)
(-7.4456e-14 -12.4666 17.1302)
(-7.02909e-14 -12.5164 17.3375)
(-3.78127e-14 -13.39 19.1743)
(-6.30242e-14 -13.0178 17.6778)
(-6.23346e-14 -13.1274 17.8994)
(-6.53752e-14 -13.1714 17.94)
(-6.75086e-14 -13.2418 18.0311)
(-6.67238e-14 -13.2904 18.162)
(-6.37587e-14 -13.3804 18.3129)
(-6.67348e-14 -13.4054 18.311)
(-6.6388e-14 -13.4813 18.3626)
(-6.52961e-14 -13.5108 18.4125)
(-4.19481e-14 -13.875 19.2342)
(-5.60239e-14 -13.6615 18.0912)
(-5.43488e-14 -13.701 18.0687)
(-5.21418e-14 -13.735 17.9573)
(-4.7342e-14 -13.7854 17.8791)
(-4.10513e-14 -13.7835 17.8285)
(-3.79174e-14 -13.8503 17.9544)
(-3.86353e-14 -13.8369 17.8911)
(-3.79452e-14 -13.8423 17.7735)
(-2.92342e-14 -13.5445 17.0785)
(-3.57775e-14 -13.6162 16.6241)
(-4.012e-14 -13.5636 16.544)
(-4.76112e-14 -13.599 16.4862)
(-4.70991e-14 -13.5396 16.2427)
(-4.92083e-14 -13.5453 16.1058)
(-5.12235e-14 -13.5205 15.9863)
(-5.19897e-14 -13.4589 15.9496)
(-4.65378e-14 -13.4978 16.1122)
(-2.98825e-14 -12.5388 14.2922)
(-3.54733e-14 -12.9654 14.9327)
(-3.35219e-14 -12.8147 14.8499)
(-3.21736e-14 -12.7859 14.9338)
(-3.27923e-14 -12.7327 15.1505)
(-3.33535e-14 -12.669 15.2082)
(-3.30839e-14 -12.5869 15.2136)
(-3.32645e-14 -12.5141 15.2208)
(-3.38275e-14 -12.4638 15.1358)
(-1.72253e-14 -11.1815 12.7454)
(-3.20449e-14 -11.7066 13.9497)
(-3.27162e-14 -11.4578 13.5359)
(-3.44992e-14 -11.439 13.2576)
(-3.55356e-14 -11.3055 12.8806)
(-3.47998e-14 -11.2061 12.5326)
(-2.51871e-14 -11.0862 12.3748)
(-2.88196e-14 -10.9207 11.8309)
(-2.81855e-14 -10.7341 11.4004)
(-2.77176e-14 -10.5585 10.8896)
(-2.14519e-14 -8.79752 6.31731)
(-3.39896e-14 -9.6657 8.46681)
(-3.25358e-14 -9.27584 7.75167)
(-3.18358e-14 -9.25288 7.61158)
(-3.09689e-14 -8.96818 7.31573)
(-3.17608e-14 -8.88882 7.02392)
(-3.97831e-14 -8.7511 6.12572)
(-5.01966e-14 -8.40884 5.1983)
(-4.69485e-14 -8.44694 5.59272)
(-1.2628e-14 -8.51777 3.59902)
(-3.27295e-14 -8.01637 4.03585)
(-3.00416e-14 -8.2075 3.76787)
(5.77222e-15 -6.25723 0.874117)
(-1.82882e-14 -10.0205 2.44904)
(-1.42702e-14 -8.86431 -0.41504)
(-1.12325e-14 -7.51249 -1.17582)
(-1.21764e-14 -9.67108 -2.1982)
(-1.04877e-15 -6.13073 -2.77219)
(-4.68104e-15 -7.67974 -4.57767)
(2.78351e-15 -5.99718 -5.71874)
(1.02038e-14 -3.68839 -5.27403)
(1.17873e-14 -3.43019 -8.09619)
(1.04559e-14 -2.1779 -7.27294)
(7.01305e-15 0.384865 -3.68658)
(1.34887e-14 1.26592 -8.51535)
(1.31782e-14 2.6087 -6.22739)
(3.6931e-15 4.39734 -7.90598)
(8.60446e-15 6.88048 -8.71283)
(8.01233e-15 6.29216 -5.49514)
(1.21962e-14 10.1643 -6.91586)
(3.46656e-15 8.62273 -4.63973)
(6.4454e-15 10.7205 -5.26162)
(1.13166e-14 12.6037 -4.93189)
(8.26735e-15 10.4241 -3.03607)
(1.23523e-14 13.2312 -3.29258)
(1.29703e-14 14.9092 -2.7131)
(4.79298e-15 11.0979 -1.66457)
(6.38732e-15 16.3616 -1.69121)
(4.64707e-15 12.4041 -1.05392)
(2.32825e-15 14.2616 -0.992143)
(5.95407e-15 15.6544 -0.135248)
(3.5399e-15 11.5047 -0.0151738)
(6.81795e-15 16.5709 0.528411)
(5.69363e-15 12.1908 0.48734)
(9.03888e-15 13.8864 0.860622)
(5.19074e-15 14.2785 1.85024)
(3.25761e-15 10.7823 1.35433)
(5.49695e-15 13.2964 1.94161)
(-2.0169e-16 13.1748 3.03511)
(1.33153e-16 9.21382 2.00722)
(9.4253e-16 12.7858 3.13002)
(6.88776e-16 9.04691 2.27092)
(1.17264e-16 9.95047 2.99765)
(6.2403e-15 9.49859 3.8936)
(3.84866e-15 6.66683 2.51445)
(-4.51023e-15 8.94234 3.59349)
(-3.64638e-15 6.09107 2.52774)
(-2.29893e-16 6.55702 3.17367)
(-4.8457e-15 5.89506 3.61945)
(-1.05875e-14 4.28195 2.33666)
(-1.34166e-14 4.76185 2.9948)
(-1.65636e-14 5.52838 1.85669)
(-1.08176e-14 3.76428 1.96265)
(-1.52819e-14 6.32443 -2.91873)
(-1.10872e-14 5.43758 -2.78009)
(-1.20248e-14 6.92976 -5.5071)
(-3.3359e-14 8.13672 -8.52188)
(-2.381e-14 6.69037 -6.00149)
(-3.99769e-14 9.54815 -9.16912)
(-2.96268e-14 7.5743 -6.93706)
(-3.34387e-14 8.96952 -9.27752)
(-4.24972e-14 7.59499 -12.6111)
(-2.91812e-14 5.51432 -9.02487)
(-5.30322e-14 7.15663 -12.856)
(-4.64349e-14 4.89291 -17.7177)
(-2.88535e-14 -0.494322 -12.413)
(-6.39717e-14 7.90998 -19.1905)
(-3.94591e-14 -4.33753 -6.19583)
(-3.99035e-14 2.73981 -7.02578)
(3.10081e-14 -12.3422 8.7139)
(5.43163e-14 -14.0589 13.008)
(8.36721e-14 -24.0548 20.6942)
(8.83717e-14 -22.4536 22.1684)
(1.47556e-13 -35.5541 37.1337)
(1.72143e-13 -53.4113 44.2976)
(1.52097e-13 -46.3855 40.5045)
(2.41228e-13 -68.3227 64.5503)
(2.44155e-13 -83.4321 67.2533)
(2.08176e-13 -79.8505 58.8841)
(2.99951e-13 -121.227 85.2547)
(2.37778e-13 -98.9665 69.1863)
(3.77414e-13 -139.982 110.52)
(7.43409e-38 0.540474 -2.18941)
(9.46621e-38 0.548762 -2.21466)
(3.71669e-38 0.580787 -2.24447)
(1.61929e-37 0.631376 -2.27625)
(7.92482e-37 0.696729 -2.30927)
(-9.67849e-36 0.776119 -2.34342)
(8.46042e-35 0.868813 -2.37874)
(-6.15108e-34 0.974729 -2.41529)
(4.08312e-33 1.09365 -2.45333)
(-2.5455e-32 1.22495 -2.49294)
(1.51379e-31 1.36747 -2.53317)
(-8.71432e-31 1.51604 -2.57219)
(4.94235e-30 1.66712 -2.60971)
(-2.74639e-29 1.82387 -2.64614)
(1.46645e-28 1.99448 -2.68219)
(-7.36328e-28 2.18972 -2.71825)
(3.39991e-27 2.41911 -2.75336)
(-1.42018e-26 2.68359 -2.78455)
(5.30979e-26 2.97969 -2.80828)
(-1.72768e-25 3.31622 -2.82403)
(4.46754e-25 3.69341 -2.83862)
(-6.93064e-25 4.14922 -2.85566)
(-1.13684e-24 4.77019 -2.82199)
(1.39672e-23 5.47579 -2.6989)
(-4.04124e-23 6.03149 -2.49619)
(-6.14133e-23 6.45137 -2.33501)
(3.32624e-22 6.79066 -2.43212)
(9.77909e-22 6.85996 -2.71489)
(1.4375e-21 6.55427 -2.92258)
(1.56863e-21 6.11778 -2.92305)
(6.16971e-22 5.80457 -2.69475)
(2.38853e-22 5.67231 -2.25125)
(-3.75089e-21 5.70095 -1.62041)
(-4.85154e-20 5.86244 -0.90713)
(-7.21408e-20 6.03363 -0.166446)
(2.42442e-20 6.15677 0.545089)
(-3.59305e-19 6.37557 1.05104)
(-1.91757e-18 6.66547 1.48173)
(-1.20837e-18 6.96064 1.91884)
(8.93313e-18 7.30332 2.3699)
(1.39618e-17 7.71036 2.86457)
(-5.66752e-17 8.15994 3.40831)
(-2.42394e-16 8.6326 4.00091)
(-2.7507e-16 9.13426 4.64681)
(4.54717e-16 9.6784 5.36859)
(2.12151e-15 10.2738 6.19955)
(3.46444e-15 10.9533 7.15805)
(2.34646e-15 11.7901 8.20649)
(-2.0048e-15 12.8625 9.25896)
(-8.12308e-15 14.1969 10.2505)
(-1.40472e-14 15.7479 11.1681)
(-1.85635e-14 17.4178 12.043)
(-2.07921e-14 19.0708 12.9686)
(-2.05667e-14 20.5633 14.1126)
(-1.98256e-14 21.8227 15.6174)
(-2.12674e-14 22.8981 17.3959)
(-2.38098e-14 23.9028 19.0697)
(-2.24436e-14 24.9289 20.22)
(-1.41278e-14 26.0024 20.6848)
(-7.32713e-16 27.0397 20.5854)
(1.43401e-14 27.7609 20.1681)
(2.87398e-14 27.5066 19.6741)
(3.97024e-14 24.9657 19.2693)
(4.28877e-14 18.7401 18.9141)
(3.76892e-14 10.4336 18.4066)
(3.41797e-14 5.48586 18.3973)
(3.8463e-14 4.29952 19.7424)
(4.40788e-14 2.81732 21.6305)
(4.77582e-14 0.624677 23.1569)
(5.03629e-14 -1.43775 24.1754)
(5.48747e-14 -3.66676 25.8142)
(6.28566e-14 -6.56042 28.6471)
(7.53347e-14 -10.6146 32.9038)
(9.45061e-14 -16.6155 39.1974)
(1.23557e-13 -25.8967 48.3497)
(1.66854e-13 -40.3434 61.4683)
(2.29641e-13 -62.4946 79.9648)
(3.14159e-13 -93.7767 104.548)
(4.00498e-13 -128.086 127.764)
(7.50425e-38 0.544318 -2.27334)
(1.06292e-37 0.556318 -2.29668)
(1.77063e-38 0.589569 -2.32246)
(2.71375e-37 0.640478 -2.35032)
(6.14874e-37 0.706026 -2.37954)
(-1.03665e-35 0.785618 -2.40984)
(9.70563e-35 0.87856 -2.44144)
(-7.21758e-34 0.984816 -2.47472)
(4.83246e-33 1.10416 -2.51009)
(-3.02302e-32 1.23575 -2.54751)
(1.79827e-31 1.37807 -2.58581)
(-1.03187e-30 1.52583 -2.62303)
(5.83704e-30 1.67596 -2.6588)
(-3.24793e-29 1.83198 -2.69319)
(1.74316e-28 2.00211 -2.72635)
(-8.82272e-28 2.19696 -2.75803)
(4.11436e-27 2.42554 -2.78713)
(-1.73902e-26 2.68822 -2.81097)
(6.60048e-26 2.98177 -2.82659)
(-2.19253e-25 3.31683 -2.8343)
(5.85753e-25 3.69384 -2.84058)
(-9.84963e-25 4.14177 -2.85171)
(-1.10944e-24 4.74155 -2.82072)
(1.75408e-23 5.42127 -2.70993)
(-5.66125e-23 5.97071 -2.51436)
(-5.81302e-23 6.43691 -2.36078)
(4.86795e-22 6.84376 -2.47912)
(1.23692e-21 6.92768 -2.75735)
(1.70225e-21 6.57496 -2.90949)
(1.66284e-21 6.06891 -2.81304)
(2.51893e-22 5.68672 -2.45931)
(-3.94773e-22 5.49389 -1.88731)
(-1.32788e-20 5.48473 -1.17535)
(-7.44463e-20 5.63308 -0.479864)
(-6.88016e-20 5.8051 0.20141)
(3.85446e-20 5.96251 0.829625)
(-4.79385e-19 6.22132 1.27569)
(-2.0605e-18 6.51905 1.68861)
(-6.44046e-19 6.80898 2.11961)
(1.07077e-17 7.14103 2.5756)
(1.28141e-17 7.53259 3.0808)
(-7.1935e-17 7.96617 3.63991)
(-2.66666e-16 8.42214 4.25316)
(-2.47434e-16 8.90277 4.9266)
(6.15227e-16 9.41719 5.68343)
(2.36508e-15 9.97472 6.55371)
(3.53639e-15 10.6189 7.54681)
(2.0092e-15 11.4388 8.61935)
(-2.6915e-15 12.5177 9.69183)
(-8.89352e-15 13.8716 10.7105)
(-1.46942e-14 15.4407 11.6667)
(-1.89348e-14 17.1109 12.5934)
(-2.06658e-14 18.7246 13.592)
(-1.97689e-14 20.1299 14.8362)
(-1.83804e-14 21.2924 16.4491)
(-1.90681e-14 22.3414 18.2961)
(-2.03164e-14 23.442 19.9728)
(-1.73771e-14 24.6532 21.0959)
(-8.15221e-15 25.9188 21.5545)
(5.16434e-15 27.0934 21.4829)
(1.96955e-14 27.8794 21.1103)
(3.35394e-14 27.6307 20.6649)
(4.38325e-14 25.0811 20.3145)
(4.61009e-14 18.8979 20.0218)
(4.01078e-14 10.5918 19.5093)
(3.55439e-14 5.35664 19.1791)
(3.82236e-14 3.8558 19.8475)
(4.29152e-14 2.33495 21.1888)
(4.69931e-14 0.238669 22.7669)
(5.11658e-14 -1.86045 24.392)
(5.68112e-14 -4.3285 26.4439)
(6.56366e-14 -7.56147 29.5472)
(7.90679e-14 -12.0646 34.0804)
(9.93445e-14 -18.6983 40.655)
(1.29805e-13 -28.8625 50.1491)
(1.75111e-13 -44.5317 63.8086)
(2.41207e-13 -68.1756 83.4301)
(3.2894e-13 -100.035 109.168)
(4.00329e-13 -128.991 124.842)
(8.02014e-38 0.546157 -2.31787)
(1.2107e-37 0.559931 -2.34004)
(5.83196e-39 0.593529 -2.36357)
(3.50943e-37 0.644712 -2.38931)
(5.96881e-37 0.710601 -2.41645)
(-1.17233e-35 0.790525 -2.44461)
(1.11447e-34 0.883853 -2.47429)
(-8.27929e-34 0.990574 -2.50607)
(5.5147e-33 1.11038 -2.54028)
(-3.43314e-32 1.24229 -2.57666)
(2.03674e-31 1.38472 -2.6139)
(-1.16723e-30 1.53262 -2.65021)
(6.591e-30 1.68296 -2.6852)
(-3.6609e-29 1.83908 -2.71855)
(1.96185e-28 2.00913 -2.75)
(-9.91736e-28 2.20358 -2.77896)
(4.62474e-27 2.43134 -2.8044)
(-1.96026e-26 2.69283 -2.82391)
(7.48899e-26 2.9852 -2.83491)
(-2.51351e-25 3.31959 -2.83815)
(6.83638e-25 3.69728 -2.83916)
(-1.19249e-24 4.14379 -2.84468)
(-1.1355e-24 4.73594 -2.81313)
(2.05367e-23 5.4037 -2.7083)
(-7.12948e-23 5.94959 -2.51548)
(-4.37507e-23 6.4405 -2.36542)
(6.18624e-22 6.87953 -2.48844)
(1.34315e-21 6.96017 -2.74297)
(1.70264e-21 6.57223 -2.83514)
(1.40934e-21 6.02289 -2.6545)
(-4.68331e-22 5.60274 -2.2019)
(-2.72902e-21 5.38672 -1.54902)
(-2.79417e-20 5.38037 -0.825041)
(-9.49957e-20 5.54165 -0.193239)
(-5.35789e-20 5.72362 0.431718)
(3.72069e-20 5.90005 1.00241)
(-5.92643e-19 6.17133 1.42322)
(-2.13567e-18 6.46738 1.83165)
(3.65526e-20 6.7537 2.26233)
(1.22841e-17 7.08007 2.72343)
(1.03196e-17 7.46384 3.23611)
(-8.77348e-17 7.88898 3.80559)
(-2.83571e-16 8.33577 4.43288)
(-2.05331e-16 8.80494 5.12561)
(7.6968e-16 9.30426 5.90747)
(2.54734e-15 9.84521 6.80566)
(3.51541e-15 10.4774 7.82204)
(1.64523e-15 11.295 8.9088)
(-3.27278e-15 12.3796 9.99235)
(-9.47217e-15 13.7413 11.0263)
(-1.51416e-14 15.3145 12.0049)
(-1.9144e-14 16.9765 12.9636)
(-2.04864e-14 18.5591 14.0086)
(-1.9134e-14 19.9126 15.3105)
(-1.73444e-14 21.0322 16.9684)
(-1.75238e-14 22.0874 18.8188)
(-1.79628e-14 23.2529 20.4651)
(-1.42634e-14 24.5579 21.5685)
(-4.80698e-15 25.9089 22.0463)
(8.30492e-15 27.1405 22.0237)
(2.25864e-14 27.9498 21.7098)
(3.62494e-14 27.6929 21.3234)
(4.62338e-14 25.1198 21.0286)
(4.79545e-14 18.9283 20.7732)
(4.15684e-14 10.6167 20.2738)
(3.72605e-14 5.34435 19.9972)
(4.04011e-14 3.77721 20.7068)
(4.49633e-14 2.14334 21.9487)
(4.86026e-14 -0.0579342 23.3486)
(5.29126e-14 -2.23504 25.0059)
(5.94717e-14 -4.84968 27.3546)
(6.92129e-14 -8.34821 30.7179)
(8.37214e-14 -13.2344 35.5387)
(1.05297e-13 -20.4157 42.4251)
(1.37604e-13 -31.3797 52.3901)
(1.86053e-13 -48.2222 67.0275)
(2.5687e-13 -73.1768 88.3636)
(3.44077e-13 -104.434 113.949)
(3.87609e-13 -123.434 118.716)
(8.75888e-38 0.548883 -2.3692)
(1.40316e-37 0.564571 -2.39023)
(-1.0143e-38 0.59891 -2.41168)
(4.62576e-37 0.650371 -2.43529)
(4.90721e-37 0.716454 -2.46032)
(-1.29198e-35 0.796604 -2.48641)
(1.26542e-34 0.890288 -2.51427)
(-9.44179e-34 0.997478 -2.5446)
(6.27296e-33 1.11775 -2.57757)
(-3.89006e-32 1.24996 -2.61274)
(2.30106e-31 1.39235 -2.64879)
(-1.31589e-30 1.53992 -2.68407)
(7.41331e-30 1.68974 -2.71806)
(-4.11087e-29 1.84529 -2.75008)
(2.20185e-28 2.01471 -2.77951)
(-1.11361e-27 2.20842 -2.80548)
(5.20272e-27 2.43515 -2.827)
(-2.21466e-26 2.69507 -2.84187)
(8.52643e-26 2.98564 -2.84786)
(-2.89585e-25 3.31896 -2.84615)
(8.03434e-25 3.69666 -2.84142)
(-1.46079e-24 4.13917 -2.8408)
(-1.09727e-24 4.71891 -2.8074)
(2.41854e-23 5.36896 -2.70617)
(-9.13783e-23 5.91007 -2.5125)
(-1.26589e-23 6.43561 -2.36454)
(7.72775e-22 6.9179 -2.48931)
(1.33847e-21 6.99326 -2.70924)
(1.46299e-21 6.55625 -2.72411)
(7.68957e-22 5.94686 -2.43958)
(-1.92223e-21 5.4766 -1.87135)
(-8.18316e-21 5.23503 -1.14301)
(-5.00992e-20 5.23509 -0.440183)
(-1.14063e-19 5.4063 0.10785)
(-3.34343e-20 5.59195 0.678604)
(2.84332e-20 5.7886 1.19192)
(-7.16622e-19 6.07608 1.58543)
(-2.1882e-18 6.37078 1.98584)
(8.14066e-19 6.6508 2.41433)
(1.38321e-17 6.9677 2.87971)
(7.20578e-18 7.33926 3.39978)
(-1.04271e-16 7.75156 3.98011)
(-2.9867e-16 8.18451 4.62213)
(-1.57233e-16 8.63631 5.33461)
(9.28313e-16 9.11262 6.14153)
(2.72204e-15 9.62724 7.06706)
(3.48e-15 10.2379 8.10653)
(1.27894e-15 11.0471 9.20933)
(-3.84263e-15 12.1367 10.3082)
(-1.00408e-14 13.5099 11.3635)
(-1.55848e-14 15.092 12.3714)
(-1.93448e-14 16.7477 13.3691)
(-2.02739e-14 18.2945 14.4658)
(-1.8412e-14 19.5833 15.8272)
(-1.61435e-14 20.6448 17.5301)
(-1.57607e-14 21.7005 19.3878)
(-1.54133e-14 22.9444 21.0149)
(-1.10134e-14 24.3737 22.1134)
(-1.3328e-15 25.8465 22.624)
(1.16283e-14 27.1653 22.6636)
(2.57362e-14 28.0157 22.4253)
(3.92783e-14 27.7595 22.1192)
(4.89909e-14 25.1766 21.8993)
(5.01929e-14 19.0136 21.6786)
(4.34024e-14 10.718 21.131)
(3.91037e-14 5.29245 20.7815)
(4.23011e-14 3.52502 21.4626)
(4.67843e-14 1.83667 22.7041)
(5.05098e-14 -0.372381 24.1229)
(5.52259e-14 -2.64927 25.8757)
(6.24984e-14 -5.43108 28.4369)
(7.30845e-14 -9.15267 32.0369)
(8.8635e-14 -14.3645 37.1304)
(1.11614e-13 -22.0347 44.382)
(1.46249e-13 -33.7684 55.0513)
(1.9864e-13 -51.7439 71.0802)
(2.73156e-13 -77.5169 93.8347)
(3.54089e-13 -106.68 117.172)
(3.74952e-13 -117.58 114.12)
(9.80043e-38 0.551065 -2.41672)
(1.64494e-37 0.568217 -2.43664)
(-2.95328e-38 0.603044 -2.45623)
(6.01844e-37 0.654737 -2.47793)
(3.13837e-37 0.721101 -2.5012)
(-1.40056e-35 0.801596 -2.52576)
(1.42225e-34 0.89575 -2.55236)
(-1.06756e-33 1.00349 -2.58164)
(7.07918e-33 1.12426 -2.61355)
(-4.37306e-32 1.25679 -2.64762)
(2.57851e-31 1.39921 -2.68259)
(-1.47094e-30 1.54663 -2.71692)
(8.26434e-30 1.69618 -2.74993)
(-4.57237e-29 1.85129 -2.78062)
(2.44621e-28 2.02008 -2.80806)
(-1.23718e-27 2.21292 -2.83119)
(5.78807e-27 2.43847 -2.84909)
(-2.47311e-26 2.6968 -2.8597)
(9.59052e-26 2.98575 -2.86119)
(-3.29472e-25 3.318 -2.85503)
(9.31974e-25 3.69576 -2.84469)
(-1.76244e-24 4.13599 -2.83708)
(-1.01177e-24 4.70692 -2.79965)
(2.83542e-23 5.34185 -2.6988)
(-1.17263e-22 5.87823 -2.50138)
(4.63758e-23 6.43427 -2.35385)
(9.18534e-22 6.94975 -2.47089)
(1.06576e-21 7.009 -2.6375)
(7.53255e-22 6.51835 -2.55499)
(-5.61186e-22 5.85053 -2.15065)
(-4.84623e-21 5.3403 -1.46487)
(-1.9145e-20 5.09499 -0.695215)
(-8.00519e-20 5.12245 -0.067773)
(-1.26196e-19 5.30798 0.384961)
(-9.20312e-21 5.49587 0.907414)
(1.04265e-20 5.70883 1.36904)
(-8.46837e-19 6.00415 1.74123)
(-2.20586e-18 6.29388 2.13537)
(1.68731e-18 6.567 2.56235)
(1.53101e-17 6.87466 3.03181)
(3.39223e-18 7.23487 3.55864)
(-1.21375e-16 7.63506 4.14901)
(-3.11109e-16 8.05476 4.80483)
(-1.02503e-16 8.49015 5.53587)
(1.08849e-15 8.94569 6.36609)
(2.8811e-15 9.43847 7.31654)
(3.42023e-15 10.0335 8.37669)
(9.09588e-16 10.838 9.49445)
(-4.3804e-15 11.932 10.6092)
(-1.05599e-14 13.3128 11.6873)
(-1.59808e-14 14.8987 12.7262)
(-1.9502e-14 16.5437 13.764)
(-2.00189e-14 18.0532 14.9106)
(-1.76517e-14 19.2832 16.3228)
(-1.49113e-14 20.3002 18.0549)
(-1.40035e-14 21.3683 19.9046)
(-1.30097e-14 22.6872 21.5088)
(-8.1358e-15 24.2212 22.6119)
(1.60572e-15 25.7913 23.172)
(1.44195e-14 27.1786 23.2928)
(2.84768e-14 28.0602 23.1499)
(4.20491e-14 27.8021 22.9434)
(5.16175e-14 25.2122 22.8123)
(5.24271e-14 19.0817 22.6246)
(4.53054e-14 10.8086 22.0084)
(4.10008e-14 5.27398 21.573)
(4.43333e-14 3.36558 22.2548)
(4.88829e-14 1.59281 23.5308)
(5.2703e-14 -0.694392 24.9899)
(5.78049e-14 -3.10086 26.8652)
(6.57048e-14 -6.07577 29.6075)
(7.70885e-14 -10.0559 33.4235)
(9.36818e-14 -15.6377 38.7997)
(1.18298e-13 -23.884 46.538)
(1.55842e-13 -36.5377 58.205)
(2.125e-13 -55.7197 75.8284)
(2.88929e-13 -81.8885 99.2423)
(3.59869e-13 -108.078 118.538)
(3.521e-13 -111.565 105.826)
(1.10353e-37 0.55345 -2.46292)
(1.92889e-37 0.571867 -2.48182)
(-5.43918e-38 0.607235 -2.49984)
(7.7392e-37 0.659203 -2.5199)
(3.51441e-38 0.725863 -2.5418)
(-1.48326e-35 0.806717 -2.56528)
(1.57825e-34 0.901342 -2.59101)
(-1.19531e-33 1.00961 -2.6194)
(7.92312e-33 1.13084 -2.65029)
(-4.87832e-32 1.26367 -2.68328)
(2.86751e-31 1.40613 -2.71725)
(-1.63165e-30 1.55334 -2.75069)
(9.14094e-30 1.70247 -2.78268)
(-5.04413e-29 1.85694 -2.81193)
(2.69458e-28 2.02488 -2.83734)
(-1.36258e-27 2.21669 -2.85774)
(6.3836e-27 2.44094 -2.87223)
(-2.73758e-26 2.69757 -2.87887)
(1.06912e-25 2.98479 -2.87624)
(-3.7146e-25 3.31584 -2.86587)
(1.07107e-24 3.69326 -2.84995)
(-2.10406e-24 4.13058 -2.83484)
(-8.65296e-25 4.69199 -2.79165)
(3.31637e-23 5.31072 -2.68782)
(-1.50931e-22 5.8425 -2.4829)
(1.48764e-22 6.43009 -2.33283)
(1.00913e-21 6.97496 -2.43077)
(3.12262e-22 7.00951 -2.52393)
(-7.12117e-22 6.45775 -2.32349)
(-3.0156e-21 5.72885 -1.78459)
(-1.05792e-20 5.18742 -0.991246)
(-3.84712e-20 4.95814 -0.233529)
(-1.15422e-19 5.02214 0.270565)
(-1.28181e-19 5.21421 0.641514)
(1.63216e-20 5.39915 1.12407)
(-1.68706e-20 5.62588 1.54022)
(-9.81243e-19 5.92619 1.89492)
(-2.18698e-18 6.20981 2.28289)
(2.64197e-18 6.47482 2.70832)
(1.66818e-17 6.772 3.18153)
(-1.02973e-18 7.11967 3.7146)
(-1.38677e-16 7.50647 4.31442)
(-3.20953e-16 7.9115 4.98337)
(-4.31324e-17 8.32876 5.7319)
(1.24719e-15 8.7617 6.58379)
(3.02625e-15 9.23107 7.55698)
(3.34719e-15 9.80914 8.63613)
(5.51451e-16 10.6079 9.76898)
(-4.88107e-15 11.7054 10.9015)
(-1.10376e-14 13.0934 12.0052)
(-1.63439e-14 14.683 13.0783)
(-1.96298e-14 16.3169 14.1586)
(-1.97308e-14 17.7887 15.3542)
(-1.68536e-14 18.961 16.8102)
(-1.36424e-14 19.9365 18.5598)
(-1.22577e-14 21.0187 20.3941)
(-1.07625e-14 22.411 21.9794)
(-5.59722e-15 24.0469 23.0993)
(4.12263e-15 25.7134 23.723)
(1.68575e-14 27.1704 23.9393)
(3.09984e-14 28.0849 23.9077)
(4.47289e-14 27.827 23.8182)
(5.42544e-14 25.2389 23.7903)
(5.47739e-14 19.161 23.6393)
(4.7375e-14 10.9261 22.9371)
(4.29881e-14 5.25189 22.3774)
(4.63634e-14 3.15104 23.0535)
(5.09907e-14 1.29798 24.3907)
(5.49846e-14 -1.03889 25.9092)
(6.05103e-14 -3.57636 27.9133)