/*--------------------------------*- C++ -*----------------------------------*\
| =========                 |                                                 |
| \\      /  F ield         | OpenFOAM: The Open Source CFD Toolbox           |
|  \\    /   O peration     | Version:  4.1                                   |
|   \\  /    A nd           | Web:      www.OpenFOAM.org                      |
|    \\/     M anipulation  |                                                 |
\*---------------------------------------------------------------------------*/
FoamFile
{
    version     2.0;
    format      ascii;
    class       volVectorField;
    location    "14";
    object      U;
}
// * * * * * * * * * * * * * * * * * * * * * * * * * * * * * * * * * * * * * //

dimensions      [0 1 -1 0 0 0 0];

internalField   nonuniform List<vector> 
6785
(
(1.47645e-14 -1.78179 16.3236)
(1.09441e-14 -7.57499 12.7362)
(-3.14992e-15 -5.05046 13.4056)
(4.2599e-15 -4.85901 12.9868)
(9.73334e-16 -4.15929 12.8119)
(-9.35931e-17 -3.7318 12.5315)
(2.64473e-15 -3.3482 12.2385)
(6.17103e-16 -3.07195 11.9131)
(-7.53263e-16 -2.88944 11.5632)
(1.55503e-15 -2.80251 11.1879)
(2.99975e-16 -2.75264 10.8224)
(-4.78279e-16 -2.79643 10.4367)
(1.01032e-15 -3.25118 9.76665)
(2.7286e-18 -3.07284 8.91993)
(-3.83349e-16 0.297599 7.32693)
(2.11774e-14 -9.37651 26.386)
(1.34302e-14 -16.2868 22.5739)
(-3.2134e-15 -11.1154 22.9795)
(4.45507e-15 -11.812 21.2353)
(8.5035e-16 -10.2678 20.3395)
(1.03572e-15 -9.57747 19.1543)
(2.28274e-15 -8.64764 18.073)
(1.20653e-16 -7.85857 16.99)
(1.21003e-17 -7.11786 15.9924)
(8.37771e-16 -6.51771 15.0909)
(-2.45088e-16 -6.0442 14.1929)
(-8.26787e-17 -5.63379 13.0009)
(5.87055e-16 -5.23798 11.0646)
(-1.9766e-16 -4.25786 7.69437)
(-3.55009e-16 -1.21303 2.05076)
(2.19762e-14 -12.2071 28.017)
(1.10548e-14 -16.8862 24.9216)
(-1.82943e-15 -11.8818 24.9841)
(3.66902e-15 -12.819 22.6261)
(7.01972e-16 -10.8064 21.6125)
(1.44722e-15 -10.1982 20.0312)
(1.14069e-15 -9.11412 18.7689)
(-1.67675e-17 -8.29582 17.4724)
(3.09564e-16 -7.31221 16.0265)
(1.73543e-16 -5.89881 13.7061)
(1.49543e-16 -3.7196 9.84085)
(2.60345e-16 -1.41781 5.16537)
(-1.18751e-15 -0.302943 2.07477)
(-1.60534e-15 -0.288339 1.06488)
(-1.39878e-15 -0.140837 0.841349)
(2.11635e-14 -13.3885 28.4446)
(9.96047e-15 -17.3301 25.6563)
(-1.27296e-15 -12.6473 25.5394)
(3.81536e-15 -14.1 22.8264)
(4.95015e-16 -11.7192 21.9626)
(1.5926e-15 -11.5918 20.1055)
(1.06677e-15 -10.4058 18.9046)
(2.16264e-16 -9.83608 17.536)
(3.48108e-16 -8.95478 16.1598)
(2.75344e-16 -7.66813 13.8778)
(1.07294e-15 -5.16283 9.71738)
(7.91354e-16 -1.66206 3.67334)
(3.35801e-15 1.38381 -1.01406)
(4.23275e-15 2.91047 -3.17138)
(5.03907e-16 1.85826 -3.61047)
(1.98771e-14 -13.5078 27.545)
(1.16773e-14 -17.9006 26.8057)
(-6.85107e-16 -13.2731 25.7289)
(3.93315e-15 -14.625 22.8877)
(1.40578e-15 -12.317 21.9806)
(1.59641e-15 -12.2709 19.9868)
(1.61644e-15 -11.1316 18.6695)
(1.20933e-15 -10.57 17.1666)
(7.44361e-16 -9.83457 15.7621)
(6.93715e-16 -8.95766 14.0066)
(1.50662e-15 -7.50349 11.4112)
(1.17975e-15 -5.18211 7.72894)
(1.67339e-15 -2.58891 3.7941)
(3.02829e-15 1.11633 -0.146066)
(6.64915e-15 1.72693 -5.32781)
(1.84188e-14 -12.9045 25.3455)
(1.35076e-14 -17.7751 27.1925)
(1.46848e-16 -13.4391 25.2131)
(3.30676e-15 -14.1724 22.2183)
(1.9501e-15 -12.1403 21.1513)
(1.41409e-15 -11.8965 19.1349)
(1.64605e-15 -10.7955 17.6708)
(1.60923e-15 -10.0891 16.0374)
(1.10839e-15 -9.30845 14.502)
(6.6807e-16 -8.50024 12.9174)
(1.01915e-15 -7.56591 11.0887)
(1.26474e-15 -6.1721 8.85008)
(6.19558e-16 -4.51545 6.02064)
(3.17087e-16 -1.69184 2.52715)
(7.65088e-15 0.394043 -3.00175)
(1.8771e-14 -12.1471 23.2229)
(1.54241e-14 -17.2031 26.9744)
(2.29895e-15 -13.423 24.6078)
(2.64142e-15 -13.528 21.4869)
(2.58275e-15 -11.7729 20.259)
(2.89357e-15 -11.3492 18.3301)
(1.9495e-15 -10.3162 16.8093)
(2.1769e-15 -9.53488 15.1972)
(2.98703e-15 -8.73819 13.6877)
(1.49153e-15 -7.94203 12.2375)
(1.54296e-15 -7.16551 10.7519)
(3.27337e-15 -6.19161 9.18261)
(2.15064e-15 -5.0848 7.22014)
(-9.29212e-16 -3.12692 4.65047)
(8.5227e-15 -0.798237 -0.468162)
(1.84506e-14 -11.6204 22.0471)
(1.67866e-14 -16.5216 26.3318)
(3.55217e-15 -13.2091 24.0197)
(2.21804e-15 -13.0275 20.8205)
(3.01123e-15 -11.3791 19.5214)
(3.14829e-15 -10.9427 17.6594)
(2.21878e-15 -10.0022 16.2332)
(2.55476e-15 -9.33375 14.7698)
(2.95457e-15 -8.64195 13.3791)
(2.25588e-15 -7.95083 12.0346)
(1.95154e-15 -7.29769 10.7536)
(2.17548e-15 -6.60324 9.62177)
(2.32926e-15 -5.8922 8.4715)
(-2.27707e-16 -4.61982 7.00956)
(2.50873e-15 -2.26188 2.71962)
(1.94164e-14 -11.5154 21.7662)
(1.63652e-14 -15.6681 25.3459)
(1.92696e-15 -12.6268 23.1565)
(2.96384e-15 -12.4274 20.0029)
(3.0236e-15 -10.614 18.762)
(1.16073e-15 -10.2355 16.7502)
(2.51421e-15 -9.08679 15.2885)
(2.52668e-15 -8.50621 13.6132)
(-5.61306e-16 -7.8693 12.2113)
(1.37883e-15 -7.47811 11.0498)
(1.78739e-15 -7.26273 10.3598)
(-1.34156e-15 -7.25126 10.228)
(9.69387e-16 -7.15737 10.3944)
(-2.63368e-17 -6.58769 10.0534)
(-3.15235e-15 -4.3114 6.77843)
(1.88865e-14 -12.307 22.9311)
(1.26175e-14 -14.856 24.6745)
(-6.44871e-17 -12.2111 22.713)
(1.53257e-15 -11.8688 20.2212)
(1.45506e-15 -10.0621 18.8687)
(-6.60653e-16 -9.08602 16.432)
(3.7276e-16 -7.21023 13.9112)
(6.50451e-16 -5.90627 11.2187)
(-1.23516e-15 -4.86791 9.35616)
(-4.60668e-16 -4.64316 8.49867)
(-6.36358e-16 -5.25296 9.13032)
(-4.05592e-15 -6.60127 10.9487)
(-2.86017e-15 -7.81115 12.9008)
(-1.30472e-15 -8.35403 13.4745)
(-4.3248e-15 -5.88143 10.4466)
(1.82594e-14 -13.405 24.7192)
(1.12016e-14 -16.0232 26.529)
(-2.6935e-15 -12.7893 23.9771)
(1.25437e-15 -12.5511 22.2003)
(5.6752e-16 -10.8518 21.0176)
(-2.18926e-15 -9.5684 18.5128)
(4.14696e-17 -7.22111 15.5168)
(7.75785e-16 -5.23449 12.3354)
(3.37356e-16 -3.36337 9.7447)
(2.54701e-15 -1.93798 7.53207)
(3.09271e-15 -1.12705 6.20913)
(9.40657e-16 -1.705 6.65729)
(-2.35071e-16 -3.87246 9.15956)
(-3.20623e-15 -6.29431 11.7644)
(-4.18471e-15 -5.06599 10.0427)
(1.66459e-14 -12.5609 22.6901)
(1.43077e-14 -18.3042 29.4968)
(5.47479e-16 -15.2215 26.8314)
(9.49746e-16 -14.298 24.2184)
(1.27575e-16 -12.7324 23.0202)
(-7.97032e-16 -11.8065 20.9119)
(4.219e-18 -9.7533 18.3107)
(2.96656e-16 -7.8471 15.2005)
(1.86122e-15 -5.754 12.3255)
(3.13961e-15 -3.78731 9.3843)
(4.99782e-15 -1.73678 6.35282)
(5.46891e-15 0.105125 3.30447)
(2.33851e-15 1.20566 1.27787)
(6.41475e-16 0.277695 1.97959)
(-7.64063e-16 -1.22733 3.50849)
(1.31942e-14 -9.4238 16.3601)
(1.71902e-14 -18.1747 28.6061)
(7.9155e-15 -17.8444 29.0447)
(3.47735e-15 -16.4525 26.1103)
(8.62569e-16 -14.9082 23.9153)
(4.16682e-16 -14.0177 21.8755)
(6.92929e-16 -12.7894 19.8437)
(-1.51548e-16 -11.4763 17.5446)
(1.10472e-15 -9.94025 15.1771)
(1.72958e-15 -8.29452 12.6986)
(2.10192e-15 -6.45642 10.0539)
(3.80391e-15 -4.35457 7.12997)
(3.069e-15 -1.8768 3.7522)
(1.77044e-15 1.60949 -0.388321)
(1.26958e-15 1.22763 -3.41422)
(9.11124e-15 -4.69094 7.10221)
(1.77169e-14 -15.1329 23.8545)
(1.13257e-14 -17.4132 27.9598)
(4.05666e-15 -15.8093 25.064)
(5.61711e-16 -13.8105 21.9868)
(4.65384e-16 -12.698 19.9048)
(1.05484e-15 -11.8671 18.3795)
(9.01013e-16 -11.079 16.8504)
(1.37883e-15 -10.1959 15.2015)
(1.61489e-15 -9.18957 13.4426)
(1.17702e-15 -8.09345 11.5831)
(1.3373e-15 -6.80368 9.63722)
(1.84265e-15 -5.36328 7.35011)
(1.58574e-15 -3.14624 4.67069)
(4.9935e-16 -1.3876 0.818958)
(5.04911e-15 -2.86097 5.83509)
(1.78071e-14 -14.2848 23.1374)
(1.71686e-14 -18.9104 29.3004)
(1.06485e-14 -19.4667 28.2089)
(4.373e-15 -18.0629 24.7427)
(1.37292e-15 -16.3023 21.327)
(1.67594e-16 -14.7262 18.5556)
(-6.07306e-16 -13.3365 16.3167)
(-2.4487e-16 -11.9949 14.3883)
(3.50729e-16 -10.6851 12.7127)
(1.20579e-16 -9.39353 11.122)
(-2.05687e-16 -8.01505 9.52864)
(-4.78379e-16 -6.5944 8.01057)
(-1.2921e-15 -5.0157 6.27607)
(-1.72008e-15 -1.82354 2.45129)
(-2.53076e-17 12.4653 52.4824)
(-1.08709e-15 0.128466 6.09457)
(-9.08656e-16 -0.518223 -2.35374)
(-8.05073e-16 -0.356005 -1.45413)
(-7.22886e-16 -0.227556 -1.77806)
(-8.62888e-16 0.358822 -2.43059)
(-7.53054e-16 0.100642 -1.5608)
(-7.86076e-16 0.303171 -1.4925)
(-1.04135e-15 0.391856 -1.40915)
(7.3174e-16 0.89825 -2.01991)
(5.6054e-16 0.69087 -1.3944)
(6.8409e-16 0.813198 -1.32631)
(8.82053e-16 1.3389 -1.74131)
(6.66874e-16 1.03944 -1.19731)
(5.75885e-16 1.23315 -1.20092)
(3.78472e-16 1.24484 -1.20664)
(8.32517e-17 1.69434 -1.49376)
(-2.47632e-17 1.3908 -1.05152)
(-1.715e-16 1.51949 -1.04589)
(-3.74361e-16 2.0106 -1.23427)
(-4.07333e-16 1.54954 -0.881999)
(-5.29167e-16 1.76435 -0.89821)
(-4.65469e-16 1.73096 -0.918515)
(-6.70844e-16 2.185 -1.04502)
(-6.43975e-16 1.7036 -0.763752)
(-6.84447e-16 1.91826 -0.767014)
(-8.86739e-16 1.87726 -0.779467)
(-1.2191e-15 2.26004 -0.846467)
(-1.23312e-15 1.80587 -0.633081)
(-1.26634e-15 1.91977 -0.634066)
(-1.75809e-15 2.32411 -0.633858)
(-1.63928e-15 1.75324 -0.50584)
(-1.68404e-15 1.93991 -0.508944)
(-1.81228e-15 1.89666 -0.526806)
(-2.5746e-15 2.19826 -0.489996)
(-2.09491e-15 1.71339 -0.416076)
(-2.00618e-15 1.81346 -0.428772)
(-2.84303e-15 2.12448 -0.336326)
(-2.13854e-15 1.56706 -0.307014)
(-2.16454e-15 1.72139 -0.294797)
(-1.89543e-15 1.67502 -0.288961)
(-2.63314e-15 1.928 -0.147269)
(-1.77618e-15 1.4417 -0.13518)
(-1.6478e-15 1.58005 -0.0975431)
(-1.44207e-15 1.51734 -0.067161)
(-1.63216e-15 1.76456 0.0932075)
(-1.22172e-15 1.44945 0.164047)
(-9.46465e-16 1.47583 0.195728)
(-9.53737e-16 1.73111 0.437294)
(-2.53307e-16 1.36025 0.396043)
(7.76602e-18 1.43436 0.449736)
(2.57448e-16 1.3466 0.482104)
(7.04609e-16 1.45524 0.770519)
(8.51169e-16 1.10345 0.534843)
(9.69266e-16 1.13451 0.558392)
(1.31574e-15 1.06784 0.61371)
(2.14147e-15 1.00669 0.566543)
(2.19776e-15 0.679982 0.0246361)
(1.7743e-15 0.635297 0.189952)
(2.9425e-15 0.765542 -1.17706)
(2.63472e-15 0.0650778 -1.84907)
(2.5033e-15 0.123861 -2.00193)
(2.59215e-15 0.381162 -1.83613)
(1.99567e-16 0.578533 -2.11971)
(-3.83157e-15 -0.721486 0.790805)
(-3.60256e-15 -0.306739 0.608991)
(-4.78091e-15 -1.01458 2.80504)
(-3.36524e-15 -1.7733 3.73456)
(-3.03386e-15 -1.96599 3.65727)
(-2.75965e-15 -1.94919 3.82039)
(-2.84433e-15 -3.29718 6.63763)
(-1.63415e-15 -3.75256 5.92915)
(-1.49008e-15 -4.2415 6.07705)
(-1.35741e-15 -4.17856 6.30161)
(-1.41651e-15 -6.43249 9.95718)
(-8.99082e-16 -6.48835 8.12412)
(-1.05158e-15 -6.58579 8.71132)
(-1.25433e-15 -9.28029 12.8986)
(-1.02761e-15 -8.96227 10.1133)
(-1.26671e-15 -9.37535 10.9882)
(-1.68468e-15 -10.1431 12.8856)
(-1.47056e-15 -10.0401 12.7251)
(-1.38192e-15 -10.1486 13.0448)
(-2.47358e-16 -11.8243 15.6432)
(-6.14299e-16 -10.8256 14.0147)
(-1.97386e-16 -11.0974 14.4949)
(-2.72103e-17 -11.0858 14.5123)
(1.73598e-16 -11.1856 14.5043)
(3.25459e-16 -11.2527 14.508)
(4.49875e-16 -11.34 14.5518)
(5.99059e-16 -11.4229 14.7122)
(7.52158e-16 -11.4771 14.9713)
(1.45959e-15 -12.3229 16.5734)
(9.47194e-16 -11.8556 15.5076)
(1.07524e-15 -12.0179 15.7586)
(1.19214e-15 -11.9884 15.9017)
(1.39283e-15 -12.1437 16.2373)
(1.46416e-15 -12.1362 16.307)
(1.5661e-15 -12.2346 16.4395)
(1.6358e-15 -12.2949 16.5596)
(1.7176e-15 -12.3548 16.6959)
(2.60149e-15 -12.8897 18.0097)
(2.15052e-15 -12.464 17.0757)
(2.25044e-15 -12.5846 17.2665)
(2.32277e-15 -12.6068 17.3707)
(2.44554e-15 -12.6741 17.5515)
(2.58553e-15 -12.7129 17.7918)
(2.71675e-15 -12.803 18.0448)
(2.80849e-15 -12.8182 18.1216)
(2.93186e-15 -12.8866 18.2554)
(3.04355e-15 -12.9759 18.3856)
(3.84588e-15 -12.8661 19.0354)
(3.20162e-15 -12.6949 18.5487)
(3.361e-15 -12.7607 18.7999)
(3.37322e-15 -12.7768 18.9636)
(3.38514e-15 -12.8411 19.1469)
(3.37959e-15 -12.8603 19.3081)
(3.36568e-15 -12.9288 19.5763)
(3.4171e-15 -12.9328 19.6305)
(3.46543e-15 -13.049 19.5822)
(4.24771e-15 -12.128 18.7232)
(3.39455e-15 -12.2573 18.563)
(3.51714e-15 -12.2599 18.5776)
(3.64e-15 -12.2957 18.6708)
(3.76689e-15 -12.2584 18.5686)
(3.96419e-15 -12.2852 18.5731)
(4.19124e-15 -12.274 18.5989)
(4.43603e-15 -12.2234 18.7127)
(4.80344e-15 -12.427 19.0981)
(5.43695e-15 -10.3054 16.7205)
(5.16583e-15 -11.0195 17.8817)
(5.37088e-15 -10.9007 17.8084)
(5.4615e-15 -10.874 17.8383)
(5.78544e-15 -10.8486 18.0242)
(5.77977e-15 -10.7825 17.8066)
(5.62902e-15 -10.6698 17.3745)
(5.46859e-15 -10.577 16.8496)
(5.30681e-15 -10.5958 16.1814)
(4.9408e-15 -7.64769 11.6508)
(5.57675e-15 -8.80853 14.1892)
(5.2904e-15 -8.48064 13.1148)
(5.26613e-15 -8.47961 12.6433)
(5.28693e-15 -8.27512 12.1002)
(5.48939e-15 -8.1762 11.7364)
(6.41681e-15 -7.96675 11.554)
(5.94398e-15 -7.78571 11.1277)
(5.96846e-15 -7.59549 10.7897)
(5.74061e-15 -7.45145 10.2538)
(2.93639e-15 -3.87609 4.58513)
(5.29855e-15 -5.7294 8.55551)
(4.76152e-15 -5.14863 7.26501)
(4.3915e-15 -5.29221 6.80062)
(3.84985e-15 -4.93275 5.8182)
(3.15673e-15 -4.8727 4.61894)
(1.81348e-15 -4.67148 2.42089)
(5.34556e-16 -4.27618 0.313988)
(7.12346e-16 -4.2812 0.336466)
(-6.1245e-16 -3.94521 -1.76198)
(2.13707e-16 -3.86813 -0.336765)
(-6.94707e-17 -3.79657 -1.01138)
(-1.02812e-15 -2.93321 -2.0565)
(-7.00959e-16 -4.13796 -1.86629)
(-8.79098e-16 -3.29938 -1.61629)
(-7.06183e-16 -2.90074 -1.12928)
(-9.57776e-16 -3.64993 -1.57941)
(-7.12276e-16 -2.43374 -0.988966)
(-1.0252e-15 -3.14873 -1.47253)
(-8.18013e-16 -2.79979 -1.10096)
(-6.58826e-16 -2.24007 -0.826718)
(-9.34043e-16 -2.71956 -1.20973)
(-8.27289e-16 -2.45067 -0.924659)
(-7.06938e-16 -2.05057 -0.689046)
(-9.69001e-16 -2.72355 -0.961336)
(-7.42489e-16 -1.77255 -0.62155)
(-1.05699e-15 -2.36349 -0.935105)
(-8.14221e-16 -2.03196 -0.724691)
(-7.06357e-16 -1.73271 -0.543443)
(-9.0717e-16 -2.32243 -0.76378)
(-5.89955e-16 -1.48711 -0.497169)
(-8.87675e-16 -2.03251 -0.751937)
(-7.65251e-16 -1.80573 -0.596232)
(-6.57727e-16 -1.42562 -0.449649)
(-9.72174e-16 -1.79461 -0.679493)
(-8.75812e-16 -1.60363 -0.536575)
(-6.13997e-16 -1.33108 -0.395428)
(-8.78886e-16 -1.83191 -0.569359)
(-6.61712e-16 -1.14625 -0.37157)
(-9.10078e-16 -1.59413 -0.577812)
(-5.94465e-16 -1.33491 -0.451312)
(-5.35806e-16 -1.12979 -0.331695)
(-6.94986e-16 -1.56668 -0.483601)
(-5.10942e-16 -0.953887 -0.315417)
(-7.50931e-16 -1.36721 -0.496004)
(-6.73401e-16 -1.17347 -0.393193)
(-4.12127e-16 -0.908445 -0.294566)
(-6.53021e-16 -1.18612 -0.461005)
(-4.60902e-16 -1.02158 -0.355495)
(-2.63442e-16 -0.830747 -0.255219)
(-4.03831e-16 -1.20032 -0.378924)
(-2.8677e-16 -0.690237 -0.243993)
(-3.79146e-16 -1.03352 -0.388571)
(-4.7068e-16 -0.812645 -0.296949)
(-6.11707e-16 -0.67008 -0.211347)
(-7.79389e-16 -0.994762 -0.318344)
(-3.57116e-16 -0.532749 -0.203838)
(-5.70767e-16 -0.855358 -0.333368)
(-3.30918e-16 -0.676077 -0.264761)
(-1.97305e-16 -0.486156 -0.192803)
(-3.16163e-16 -0.708205 -0.313694)
(-2.22e-16 -0.5494 -0.236491)
(-1.53462e-16 -0.410392 -0.158253)
(-2.33482e-16 -0.700343 -0.245024)
(-3.77117e-16 -0.292932 -0.149862)
(-4.24677e-16 -0.589377 -0.254393)
(-9.25647e-17 -0.366711 -0.181538)
(7.38255e-17 -0.263922 -0.105196)
(4.90402e-17 -0.540025 -0.170815)
(2.52638e-16 -0.147486 -0.0853377)
(1.49181e-16 -0.456929 -0.164785)
(-8.58141e-17 -0.250061 -0.104401)
(-2.19325e-16 -0.104952 -0.0375657)
(-3.7678e-16 -0.347742 -0.0781936)
(4.27604e-17 -0.149824 0.00902195)
(-5.04267e-16 -0.0550344 0.0769953)
(-4.15606e-16 -0.326632 0.0803666)
(-6.76777e-16 0.0199115 0.0744007)
(-3.76554e-16 -0.272429 0.0291185)
(4.75485e-16 -0.143262 -0.0101222)
(7.28421e-16 0.0979178 0.0466609)
(8.22996e-16 -0.489271 0.0444949)
(2.55552e-16 0.384416 0.0786083)
(8.94999e-16 -0.133261 -9.09076e-05)
(2.35881e-15 -0.809368 -0.187065)
(1.12024e-15 0.407265 -0.0750733)
(1.25734e-15 0.332261 -0.157501)
(5.17569e-16 -0.616993 -0.46391)
(5.13005e-17 0.537611 -0.381981)
(2.22419e-16 -0.160729 -0.543885)
(3.12263e-16 0.432174 -0.363502)
(4.1854e-16 0.334706 -0.447788)
(-1.44738e-31 0.681056 0.831686)
(-2.78063e-31 0.777374 0.832228)
(-2.05738e-31 0.829783 0.838736)
(3.24082e-31 0.884208 0.845347)
(1.01966e-30 0.93428 0.854823)
(-9.02485e-31 0.981401 0.865539)
(-1.13431e-29 1.02616 0.878146)
(-2.52803e-29 1.06891 0.892242)
(3.11595e-29 1.11 0.907941)
(4.05481e-28 1.14972 0.925131)
(1.47148e-27 1.18829 0.943805)
(2.88353e-27 1.22589 0.963917)
(1.43877e-27 1.26266 0.985441)
(-9.27708e-27 1.29879 1.00836)
(-3.1268e-26 1.33444 1.03269)
(-1.12733e-25 1.36991 1.05847)
(-1.0528e-24 1.40552 1.08575)
(-8.46425e-24 1.44166 1.11464)
(-4.78083e-23 1.47869 1.14522)
(-1.98343e-22 1.51687 1.17756)
(-5.93447e-22 1.55641 1.21171)
(-9.82292e-22 1.5974 1.24771)
(1.89483e-21 1.6398 1.28553)
(2.48358e-20 1.68342 1.32507)
(1.31861e-19 1.72788 1.36623)
(5.24894e-19 1.77254 1.40891)
(1.75356e-18 1.81644 1.4532)
(5.13451e-18 1.85824 1.49975)
(1.34701e-17 1.89618 1.55033)
(3.20758e-17 1.92805 1.6086)
(6.99156e-17 1.95135 1.68084)
(1.40306e-16 1.96352 1.77626)
(2.60319e-16 1.96237 1.90621)
(4.48006e-16 1.94677 2.08189)
(7.17233e-16 1.91736 2.31038)
(1.07138e-15 1.87726 2.58975)
(1.49872e-15 1.83215 2.90569)
(1.97232e-15 1.78921 3.23253)
(2.45498e-15 1.75496 3.53963)
(2.90665e-15 1.73309 3.79989)
(3.29078e-15 1.72349 3.99569)
(3.57795e-15 1.7226 4.11975)
(3.74746e-15 1.72413 4.17211)
(3.78811e-15 1.71951 4.15575)
(3.69728e-15 1.69955 4.07435)
(3.47187e-15 1.66152 3.93754)
(3.09694e-15 1.60471 3.76501)
(2.62236e-15 1.42775 3.5138)
(2.46039e-15 0.74725 2.88212)
(3.1323e-15 -0.531588 1.82792)
(3.46481e-15 -1.42798 1.55645)
(3.55346e-15 -1.94373 1.37449)
(3.4779e-15 -2.38791 1.18773)
(3.25042e-15 -2.83249 0.996586)
(2.89463e-15 -3.2703 0.798056)
(2.45239e-15 -3.70006 0.600194)
(1.96799e-15 -4.10912 0.400837)
(1.47547e-15 -4.50495 0.213361)
(9.88203e-16 -4.76976 0.0127491)
(5.38628e-16 -4.93922 -0.113746)
(2.27242e-16 -5.04905 -0.232506)
(6.25356e-17 -5.05932 -0.286124)
(9.05632e-18 -5.0766 -0.318466)
(-9.6552e-20 -5.06151 -0.331898)
(-3.22406e-19 -4.98747 -0.339414)
(-6.2168e-20 -4.86013 -0.338228)
(-3.09547e-21 -4.66632 -0.342908)
(9.89012e-22 -4.39982 -0.341934)
(2.21565e-22 -4.04052 -0.349188)
(-2.61151e-24 -3.63681 -0.342513)
(-2.79466e-23 -3.08572 -0.351037)
(2.4953e-23 -2.57167 -0.324073)
(-1.21138e-22 -1.72731 -0.336001)
(7.05677e-22 -1.47039 -0.285396)
(-1.00271e-20 0.903155 -0.272991)
(7.36965e-20 -0.639854 -0.209427)
(-7.61837e-19 1.24235 -0.439568)
(1.84894e-18 1.5693 0.0443952)
(1.3033e-17 -4.48587 -0.470217)
(-3.54726e-31 0.681198 0.877151)
(-7.84107e-31 0.776409 0.875657)
(-9.48752e-31 0.827805 0.882033)
(-4.25003e-31 0.881737 0.888285)
(5.48152e-31 0.931138 0.897855)
(-1.18305e-30 0.977749 0.90877)
(-7.44704e-30 1.02196 0.921772)
(2.12962e-29 1.06421 0.936397)
(2.87522e-28 1.1048 0.952754)
(1.28299e-27 1.14405 0.970716)
(3.28443e-27 1.18214 0.990259)
(3.63987e-27 1.21928 1.01133)
(-8.7931e-27 1.25561 1.03389)
(-5.64156e-26 1.29128 1.05795)
(-1.88203e-25 1.32648 1.08352)
(-8.30433e-25 1.36147 1.11067)
(-5.40027e-24 1.39658 1.1395)
(-3.21028e-23 1.43219 1.1701)
(-1.48513e-22 1.46866 1.20257)
(-5.14677e-22 1.50628 1.23697)
(-1.17368e-21 1.54523 1.27333)
(-2.28379e-22 1.58564 1.31166)
(1.45725e-20 1.62747 1.35189)
(9.52869e-20 1.67056 1.39393)
(4.18794e-19 1.71452 1.4377)
(1.49539e-18 1.75866 1.4833)
(4.60815e-18 1.80189 1.53137)
(1.26034e-17 1.84256 1.58371)
(3.10774e-17 1.87838 1.64422)
(6.97647e-17 1.90637 1.71973)
(1.43514e-16 1.92311 1.82051)
(2.7178e-16 1.92525 1.95941)
(4.75474e-16 1.91041 2.14932)
(7.70748e-16 1.87839 2.39865)
(1.16107e-15 1.83223 2.70587)
(1.63104e-15 1.77871 3.05517)
(2.14612e-15 1.72739 3.41691)
(2.65946e-15 1.68777 3.75483)
(3.12284e-15 1.66608 4.03721)
(3.49563e-15 1.66345 4.24498)
(3.74898e-15 1.67638 4.37283)
(3.8659e-15 1.69855 4.42476)
(3.84015e-15 1.72222 4.40844)
(3.67572e-15 1.73845 4.33085)
(3.38565e-15 1.73727 4.19638)
(2.98252e-15 1.71333 4.01183)
(2.45519e-15 1.67299 3.79869)
(1.82136e-15 1.56319 3.55161)
(1.54836e-15 1.00798 2.9895)
(2.80142e-15 -0.458796 1.68601)
(3.51872e-15 -1.45637 1.42233)
(3.55584e-15 -1.94675 1.35568)
(3.46852e-15 -2.38684 1.16728)
(3.23909e-15 -2.82896 0.978237)
(2.88406e-15 -3.26464 0.784693)
(2.44433e-15 -3.69329 0.590988)
(1.96289e-15 -4.10136 0.396626)
(1.47301e-15 -4.4937 0.214299)
(9.87826e-16 -4.7609 0.0186545)
(5.39494e-16 -4.93431 -0.104869)
(2.28267e-16 -5.04672 -0.22174)
(6.30971e-17 -5.06068 -0.274926)
(9.15234e-18 -5.07672 -0.307901)
(-1.22398e-19 -5.05906 -0.32238)
(-3.36868e-19 -4.98198 -0.331356)
(-6.45411e-20 -4.85106 -0.331943)
(-3.06136e-21 -4.65406 -0.338367)
(1.07659e-21 -4.38482 -0.339181)
(2.38053e-22 -4.02413 -0.348129)
(-2.21344e-24 -3.6188 -0.343103)
(-2.84613e-23 -3.0681 -0.353124)
(2.46457e-23 -2.55188 -0.328401)
(-1.21952e-22 -1.70544 -0.339542)
(7.453e-22 -1.44306 -0.30245)
(-1.12175e-20 0.878929 -0.276286)
(7.96724e-20 -0.521724 -0.203177)
(-7.29332e-19 1.19401 -0.477082)
(2.41774e-18 1.56959 0.161589)
(1.18449e-17 -4.4049 -0.455848)
(-7.13563e-31 0.681449 0.901764)
(-1.74574e-30 0.776103 0.899485)
(-2.64825e-30 0.826886 0.905775)
(-2.79467e-30 0.880559 0.911897)
(-1.18393e-30 0.929592 0.921554)
(4.59158e-30 0.975934 0.932629)
(3.76936e-29 1.01986 0.945893)
(2.23491e-28 1.06185 0.960858)
(9.49198e-28 1.10218 0.977623)
(2.75006e-27 1.14118 0.996054)
(4.4088e-27 1.17903 1.01612)
(-3.61118e-27 1.21594 1.03776)
(-5.08312e-26 1.25204 1.06094)
(-2.01801e-25 1.28748 1.08566)
(-6.86471e-25 1.32244 1.11196)
(-3.10934e-24 1.35717 1.13993)
(-1.71346e-23 1.392 1.16967)
(-8.47761e-23 1.42732 1.20129)
(-3.31453e-22 1.46349 1.23487)
(-9.31872e-22 1.5008 1.27048)
(-1.20496e-21 1.53945 1.30812)
(5.46478e-21 1.57956 1.3478)
(5.14817e-20 1.62111 1.38946)
(2.57299e-19 1.66392 1.43303)
(9.95334e-19 1.70757 1.47859)
(3.25823e-18 1.75129 1.52661)
(9.36481e-18 1.79376 1.57853)
(2.40947e-17 1.83298 1.63766)
(5.61393e-17 1.8661 1.71011)
(1.19339e-16 1.88956 1.8055)
(2.32656e-16 1.89953 1.93638)
(4.17578e-16 1.89274 2.11601)
(6.92277e-16 1.86777 2.3542)
(1.06352e-15 1.82633 2.65215)
(1.51958e-15 1.77406 2.99794)
(2.0284e-15 1.72013 3.36554)
(2.54344e-15 1.67497 3.7199)
(3.01472e-15 1.64682 4.02717)
(3.39929e-15 1.63916 4.26439)
(3.66663e-15 1.65037 4.42278)
(3.79916e-15 1.67531 4.50454)
(3.79057e-15 1.70729 4.51707)
(3.64422e-15 1.73901 4.46854)
(3.37231e-15 1.76227 4.36535)
(2.99456e-15 1.76758 4.21106)
(2.53013e-15 1.74834 4.00987)
(1.97111e-15 1.70913 3.77966)
(1.29805e-15 1.61609 3.53564)
(8.66927e-16 1.14526 3.06998)
(2.09867e-15 -0.282084 1.76709)
(3.50779e-15 -1.38521 1.22119)
(3.57526e-15 -1.90187 1.29267)
(3.4558e-15 -2.32589 1.1447)
(3.22395e-15 -2.76766 0.951972)
(2.87041e-15 -3.2039 0.764895)
(2.4341e-15 -3.6332 0.577323)
(1.95644e-15 -4.04351 0.389522)
(1.4699e-15 -4.43738 0.214181)
(9.87305e-16 -4.713 0.0253518)
(5.40502e-16 -4.89743 -0.0936136)
(2.29486e-16 -5.02021 -0.207469)
(6.37672e-17 -5.04602 -0.259448)
(9.26875e-18 -5.06895 -0.292632)
(-1.52794e-19 -5.05622 -0.30825)
(-3.54294e-19 -4.98267 -0.319049)
(-6.74373e-20 -4.8537 -0.322057)
(-3.0173e-21 -4.65801 -0.330993)
(1.18654e-21 -4.38955 -0.334449)
(2.58851e-22 -4.03036 -0.34595)
(-1.73682e-24 -3.62565 -0.343372)
(-2.91296e-23 -3.07795 -0.355732)
(2.4268e-23 -2.56231 -0.333779)
(-1.23114e-22 -1.7206 -0.344902)
(7.92303e-22 -1.45907 -0.317305)
(-1.19474e-20 0.861526 -0.288222)
(8.52144e-20 -0.526558 -0.197654)
(-7.2067e-19 1.15699 -0.475271)
(2.57914e-18 1.56539 0.175739)
(1.11687e-17 -4.33167 -0.437923)
(-1.47014e-30 0.681837 0.931098)
(-3.90398e-30 0.775624 0.928115)
(-6.73447e-30 0.825538 0.934345)
(-8.61142e-30 0.878806 0.940383)
(-2.95372e-30 0.927292 0.950172)
(3.54507e-29 0.973226 0.961471)
(2.05555e-28 1.01671 0.97507)
(8.16613e-28 1.05831 0.990463)
(2.4511e-27 1.09825 1.00774)
(4.84069e-27 1.13688 1.02675)
(1.19683e-27 1.17438 1.04746)
(-3.69748e-26 1.21094 1.0698)
(-1.85789e-25 1.2467 1.09374)
(-6.34027e-25 1.28179 1.11928)
(-2.19827e-24 1.31638 1.14647)
(-9.75051e-24 1.35072 1.17542)
(-4.74113e-23 1.38515 1.20626)
(-2.01713e-22 1.42004 1.2391)
(-6.61702e-22 1.45576 1.27403)
(-1.34496e-21 1.49262 1.31109)
(9.65098e-22 1.53081 1.3503)
(2.54558e-20 1.57047 1.39165)
(1.51557e-19 1.61158 1.43511)
(6.44995e-19 1.65393 1.48072)
(2.26171e-18 1.69705 1.52886)
(6.87172e-18 1.73996 1.58068)
(1.85368e-17 1.78101 1.63901)
(4.5017e-17 1.81764 1.70936)
(9.92786e-17 1.84629 1.80083)
(1.99982e-16 1.86277 1.92591)
(3.69502e-16 1.86298 2.09848)
(6.28444e-16 1.8442 2.32982)
(9.87281e-16 1.80657 2.62338)
(1.43815e-15 1.75425 2.97038)
(1.95134e-15 1.69565 3.34791)
(2.47961e-15 1.64201 3.72212)
(2.96933e-15 1.60408 4.0569)
(3.3728e-15 1.5886 4.3245)
(3.65586e-15 1.59651 4.51172)
(3.79943e-15 1.62393 4.61861)
(3.79752e-15 1.66432 4.65274)
(3.65468e-15 1.71043 4.62372)
(3.384e-15 1.75497 4.54008)
(3.00538e-15 1.79008 4.4081)
(2.54352e-15 1.80641 4.23122)
(2.02098e-15 1.7959 4.01233)
(1.432e-15 1.76226 3.76598)
(7.29492e-16 1.69251 3.51789)
(1.43739e-16 1.31484 3.12661)
(1.10016e-15 -0.0484807 1.95128)
(3.31102e-15 -1.32644 1.04807)
(3.59849e-15 -1.89539 1.16233)
(3.44716e-15 -2.29075 1.11121)
(3.20667e-15 -2.72455 0.922913)
(2.85545e-15 -3.16204 0.738644)
(2.42315e-15 -3.5915 0.55947)
(1.94962e-15 -4.00312 0.379365)
(1.46661e-15 -4.39756 0.212411)
(9.86721e-16 -4.67905 0.0321138)
(5.41483e-16 -4.87135 -0.0807601)
(2.30691e-16 -5.00143 -0.190388)
(6.44302e-17 -5.03571 -0.240327)
(9.38562e-18 -5.06311 -0.273223)
(-1.8225e-19 -5.05335 -0.28994)
(-3.71667e-19 -4.98177 -0.30283)
(-7.03736e-20 -4.85367 -0.308759)
(-2.97064e-21 -4.65849 -0.320885)
(1.30217e-21 -4.39027 -0.327712)
(2.80973e-22 -4.032 -0.342538)
(-1.25271e-24 -3.62757 -0.343113)
(-2.98688e-23 -3.08198 -0.358589)
(2.38749e-23 -2.56677 -0.33977)
(-1.24429e-22 -1.7271 -0.352251)
(8.37619e-22 -1.46625 -0.328218)
(-1.26237e-20 0.839644 -0.299518)
(8.98635e-20 -0.511925 -0.196124)
(-7.03045e-19 1.11449 -0.483313)
(2.43462e-18 1.55816 0.184728)
(8.48754e-18 -4.28825 -0.418403)
(-3.07545e-30 0.68229 0.959395)
(-8.64406e-30 0.775298 0.955992)
(-1.58344e-29 0.824395 0.962182)
(-2.03142e-29 0.877283 0.968217)
(3.76269e-30 0.925257 0.97817)
(1.51139e-28 0.970812 0.989735)
(7.07591e-28 1.0139 1.0037)
(2.28818e-27 1.05513 1.01955)
(5.25022e-27 1.09472 1.03735)
(5.40468e-27 1.13301 1.05697)
(-2.08683e-26 1.17018 1.07834)
(-1.50182e-25 1.20643 1.10141)
(-5.72993e-25 1.24187 1.12612)
(-1.82496e-24 1.27664 1.15248)
(-6.38127e-24 1.3109 1.18058)
(-2.7129e-23 1.34488 1.21053)
(-1.17619e-22 1.37892 1.24247)
(-4.2987e-22 1.4134 1.27655)
(-1.11538e-21 1.44871 1.31283)
(-8.6004e-22 1.48514 1.35137)
(1.095e-20 1.52291 1.39218)
(8.43439e-20 1.56215 1.43525)
(4.02135e-19 1.60282 1.48065)
(1.52254e-18 1.64467 1.52867)
(4.91383e-18 1.68707 1.58024)
(1.39478e-17 1.72873 1.63775)
(3.54116e-17 1.76748 1.70613)
(8.12333e-17 1.80005 1.79389)
(1.69475e-16 1.8222 1.91337)
(3.23031e-16 1.82939 2.079)
(5.6462e-16 1.81799 2.30331)
(9.08249e-16 1.78681 2.59153)
(1.35002e-15 1.73839 2.93707)
(1.86303e-15 1.67967 3.31964)
(2.40027e-15 1.62134 3.70748)
(2.90534e-15 1.57524 4.06421)
(3.32606e-15 1.55073 4.35877)
(3.62441e-15 1.55164 4.57346)
(3.77946e-15 1.57604 4.70528)
(3.78539e-15 1.6182 4.76117)
(3.64801e-15 1.67102 4.75163)
(3.38195e-15 1.72747 4.68661)
(3.00816e-15 1.7808 4.57403)
(2.55124e-15 1.82373 4.4196)
(2.03643e-15 1.84737 4.22664)
(1.48384e-15 1.84281 3.99728)
(8.85692e-16 1.81099 3.7425)
(1.74425e-16 1.7498 3.49143)
(-5.4227e-16 1.4459 3.15939)
(5.06028e-17 0.209144 2.14602)
(2.87655e-15 -1.24606 0.929692)
(3.57247e-15 -1.90773 0.98277)
(3.4484e-15 -2.27905 1.04308)
(3.18879e-15 -2.69292 0.891223)
(2.83989e-15 -3.13082 0.706315)
(2.41178e-15 -3.56117 0.536133)
(1.94277e-15 -3.97364 0.365719)
(1.46332e-15 -4.36796 0.208586)
(9.86137e-16 -4.65412 0.0386963)
(5.42409e-16 -4.85259 -0.0663145)
(2.31824e-16 -4.98813 -0.17025)
(6.50487e-17 -5.02899 -0.217139)
(9.49542e-18 -5.05897 -0.249129)
(-2.08961e-19 -5.05046 -0.266812)
(-3.87864e-19 -4.97935 -0.282078)
(-7.31668e-20 -4.85087 -0.291448)
(-2.92548e-21 -4.65523 -0.307515)
(1.41713e-21 -4.3865 -0.318542)
(3.03408e-22 -4.0286 -0.337551)
(-7.71008e-25 -3.62403 -0.342085)
(-3.06545e-23 -3.08005 -0.361524)
(2.34802e-23 -2.56494 -0.346354)
(-1.25841e-22 -1.72609 -0.361532)
(8.80123e-22 -1.46512 -0.338315)
(-1.32571e-20 0.817562 -0.312122)
(9.39749e-20 -0.477616 -0.198526)
(-6.84451e-19 1.07404 -0.488519)
(2.10086e-18 1.54813 0.163782)
(2.32492e-18 -4.25807 -0.403332)
(-6.52152e-30 0.682797 0.988028)
(-1.87971e-29 0.774951 0.984404)
(-3.44506e-29 0.823172 0.990586)
(-3.80903e-29 0.875633 0.996693)
(5.32438e-29 0.923045 1.00685)
(5.13215e-28 0.96818 1.01873)
(2.00984e-27 1.01082 1.0331)
(5.41939e-27 1.05166 1.04945)
(8.87722e-27 1.09085 1.06783)
(-5.01107e-27 1.12878 1.0881)
(-1.04804e-25 1.16559 1.11018)
(-4.81534e-25 1.2015 1.13401)
(-1.59759e-24 1.2366 1.15954)
(-4.89676e-24 1.27102 1.18678)
(-1.70367e-23 1.3049 1.21582)
(-6.83095e-23 1.33848 1.24681)
(-2.62496e-22 1.37209 1.27992)
(-7.96518e-22 1.40612 1.31529)
(-1.30752e-21 1.44096 1.353)
(3.59722e-21 1.47692 1.39309)
(4.38496e-20 1.51422 1.43559)
(2.40339e-19 1.55297 1.48057)
(9.91843e-19 1.59309 1.52825)
(3.41871e-18 1.63423 1.57941)
(1.02511e-17 1.67545 1.63605)
(2.72978e-17 1.71501 1.7025)
(6.5329e-17 1.75002 1.78667)
(1.41551e-16 1.77643 1.90068)
(2.79059e-16 1.78953 2.0595)
(5.02464e-16 1.78506 2.27706)
(8.29322e-16 1.76078 2.56035)
(1.25995e-15 1.71783 2.90434)
(1.77074e-15 1.66145 3.29032)
(2.31556e-15 1.60086 3.68833)
(2.8359e-15 1.5477 4.06296)
(3.27528e-15 1.51303 4.38165)
(3.59121e-15 1.50384 4.6229)
(3.76005e-15 1.52114 4.77987)
(3.7755e-15 1.56091 4.85765)
(3.64445e-15 1.6165 4.86703)
(3.38312e-15 1.6808 4.81921)
(3.0141e-15 1.74712 4.72347)
(2.56317e-15 1.8091 4.58685)
(2.05559e-15 1.85982 4.41468)
(1.51235e-15 1.89069 4.21041)
(9.45555e-16 1.89222 3.9762)
(3.40728e-16 1.86284 3.72027)
(-3.83607e-16 1.80739 3.46986)
(-1.2193e-15 1.56642 3.18205)
(-1.00522e-15 0.476815 2.32701)
(2.18086e-15 -1.11502 0.875669)
(3.42875e-15 -1.91281 0.790827)
(3.45219e-15 -2.27874 0.926534)
(3.1733e-15 -2.66251 0.847664)
(2.82427e-15 -3.09594 0.670295)
(2.40025e-15 -3.52854 0.506363)
(1.93604e-15 -3.94228 0.348009)
(1.46019e-15 -4.3368 0.202251)
(9.85624e-16 -4.62793 0.0444358)
(5.43303e-16 -4.83272 -0.0509044)
(2.3287e-16 -4.97384 -0.147542)
(6.56061e-17 -5.02144 -0.190211)
(9.59357e-18 -5.05415 -0.220523)
(-2.3209e-19 -5.04698 -0.238859)
(-4.02185e-19 -4.97646 -0.256685)
(-7.56926e-20 -4.84776 -0.269926)
(-2.88528e-21 -4.65181 -0.290609)
(1.52673e-21 -4.38275 -0.306645)
(3.25472e-22 -4.02541 -0.330652)