/*--------------------------------*- C++ -*----------------------------------*\
| =========                 |                                                 |
| \\      /  F ield         | OpenFOAM: The Open Source CFD Toolbox           |
|  \\    /   O peration     | Version:  4.1                                   |
|   \\  /    A nd           | Web:      www.OpenFOAM.org                      |
|    \\/     M anipulation  |                                                 |
\*---------------------------------------------------------------------------*/
FoamFile
{
    version     2.0;
    format      ascii;
    class       volScalarField;
    location    "27";
    object      epsilon;
}
// * * * * * * * * * * * * * * * * * * * * * * * * * * * * * * * * * * * * * //

dimensions      [0 2 -3 0 0 0 0];

internalField   nonuniform List<scalar> 
6785
(
0.0565621
0.293939
0.287338
0.28736
0.287396
0.287325
0.287357
0.287398
0.28733
0.287365
0.287405
0.287331
0.287219
0.494804
0.0801845
0.0817174
0.00579948
8.95657e-05
8.38203e-05
7.97913e-05
7.57447e-05
7.18679e-05
6.8045e-05
6.41311e-05
6.02517e-05
5.66361e-05
6.04013e-05
0.00099557
0.0142538
0.0115048
0.112955
0.00243479
2.53802e-07
1.50399e-07
7.0582e-07
1.35534e-06
1.91433e-06
2.57652e-06
4.62347e-06
1.47777e-05
8.13512e-05
0.000547433
0.00290083
0.0041912
0.000357952
0.155668
0.00562569
0.00108632
8.80178e-08
1.26031e-07
2.54454e-07
5.24678e-07
5.48788e-07
2.30524e-06
3.51023e-06
4.85718e-05
0.000170098
0.000845618
0.000862736
0.000132065
0.202412
0.011556
0.000210783
5.95191e-06
9.98894e-08
5.67441e-07
1.88444e-06
3.54963e-06
4.46956e-06
1.34609e-05
3.06434e-05
5.94814e-05
0.000378151
0.000885979
0.000221162
0.253713
0.0123728
0.000163766
1.02278e-05
2.72584e-06
1.3334e-06
3.88189e-06
1.70964e-05
8.74883e-05
6.8095e-05
1.20245e-05
0.000131632
0.000270613
0.000867218
0.000659882
0.311484
0.00886375
0.000127662
1.47343e-05
7.659e-06
1.75317e-05
0.000101186
0.000251873
0.000953637
0.000732734
7.60877e-05
9.09726e-05
0.000217034
0.00043201
0.00142213
0.361912
0.0106255
7.55922e-05
2.27243e-05
6.44879e-05
0.000339634
0.00250699
0.012093
0.0182225
0.00437186
0.000322875
0.000206354
0.000175433
0.000418068
0.00132069
0.390564
0.0180342
0.00043702
0.000122424
0.000818971
0.00320475
0.0118077
0.0245619
0.030296
0.0130026
0.00116982
0.000423439
0.000631468
0.00048482
0.000529988
0.393258
0.0318446
0.000393279
0.000171551
0.000956575
0.0034836
0.0117758
0.0230779
0.029637
0.0224162
0.0111005
0.00492469
0.00123034
0.000406327
0.000315498
0.378593
0.0749961
0.00407369
0.000315271
0.00101825
0.00231869
0.00798594
0.0160694
0.0244617
0.0236494
0.0166977
0.0104035
0.00657967
0.00256662
0.000320172
0.358649
0.101785
0.00709998
0.000441995
0.00123916
0.00228962
0.006005
0.012435
0.0196362
0.0215814
0.0159573
0.00892651
0.00547468
0.00577649
0.000279596
0.344109
0.189199
0.0218663
0.00377925
0.00155149
0.00195778
0.00523242
0.00950295
0.0154097
0.0169391
0.0156928
0.0096425
0.00575621
0.00550416
0.00037214
0.305533
0.174077
0.021621
0.00435517
0.00238393
0.00257448
0.00551838
0.00918324
0.0147608
0.0199249
0.0142172
0.00819488
0.00511789
0.00517785
0.00116766
0.364347
0.185469
0.0385907
0.00104471
0.0019804
1.61256e-05
0.0191751
0.0111983
0.00954391
0.00166795
0.00832459
0.0083953
0.00403889
0.00680691
0.00112416
0.0346034
0.0187894
0.0302059
0.0293504
0.0286475
0.016296
0.0267075
0.0262731
0.0258781
0.0149254
0.0246412
0.0243453
0.0140972
0.0233335
0.0230921
0.0228384
0.013276
0.0219662
0.0217823
0.0127431
0.0212248
0.0211446
0.0211006
0.0125246
0.0207724
0.0207019
0.0207212
0.0124227
0.0204335
0.0203222
0.0121385
0.0195712
0.0192695
0.0191407
0.0115181
0.0184636
0.0181912
0.0108873
0.0170982
0.0166435
0.0163814
0.0098933
0.0156689
0.0154142
0.0153865
0.00963628
0.0152668
0.015082
0.00937505
0.0143052
0.0138193
0.0135483
0.00847502
0.0126927
0.0122353
0.0119729
0.00767574
0.0112948
0.0109606
0.00710968
0.00989314
0.00942882
0.00917519
0.00617406
0.00830945
0.00801318
0.00546304
0.0072962
0.00706481
0.00702588
0.00477936
0.00754216
0.00775689
0.00804794
0.00515432
0.00868177
0.00892571
0.00536693
0.00909497
0.00924915
0.0312417
0.0335823
0.0347952
0.0294475
0.0314238
0.0303605
0.0297195
0.0307306
0.0321439
0.0335417
0.0336053
0.0302855
0.0300436
0.0337968
0.0358234
0.037685
0.0398051
0.0412643
0.0426817
0.0432233
0.0425982
0.0409198
0.0449531
0.0458954
0.0463727
0.0454282
0.0456777
0.0460421
0.0462343
0.0457767
0.044886
0.0413969
0.0420545
0.0416797
0.0418374
0.0388737
0.0374837
0.0349394
0.0345813
0.0341584
0.0409999
0.0393097
0.0406599
0.0388377
0.0396721
0.0406903
0.0399802
0.0389439
0.0362163
0.03778
0.0436281
0.0442894
0.0455711
0.0496599
0.0502787
0.052368
0.0542234
0.0566583
0.0577121
0.0641976
0.0671004
0.0684812
0.0751868
0.0779597
0.0852366
0.0876382
0.0971427
0.102427
0.108625
0.124801
0.124658
0.126368
0.121506
0.121926
0.115495
0.109998
0.093664
0.0391322
0.060997
0.0339434
0.012386
0.00810084
0.00868319
0.0152438
0.0100185
0.0176341
0.0116497
0.0124925
0.0219149
0.0143652
0.0153864
0.0270439
0.0177392
0.0315306
0.0208566
0.0227003
0.0406724
0.0268809
0.047662
0.031785
0.0348389
0.0615168
0.0413458
0.0441503
0.0723703
0.0496234
0.0788129
0.055421
0.0576838
0.0856246
0.0555256
0.0840207
0.0553545
0.0574738
0.0868181
0.0552742
0.0554334
0.0831752
0.0503438
0.0760226
0.0456838
0.0441226
0.0662778
0.0397072
0.0602063
0.0392639
0.0500225
0.0780003
0.0851872
0.0952308
0.140446
0.0735004
0.109805
0.0590911
0.0543105
0.0810894
0.0457605
0.0688037
0.0393437
0.036471
0.054754
0.0312675
0.0284903
0.0338789
0.00246028
0.00104753
0.000595173
0.00059302
0.000951204
0.000583709
0.000954674
0.000585996
0.000579256
0.000949786
0.000583108
0.000576367
0.000944261
0.00057978
0.000927574
0.000576974
0.00085364
0.000843502
0.000848827
0.000886978
0.000982053
0.00109732
0.00124651
0.00140798
0.00156052
0.00168789
0.00184435
0.00200883
0.0021846
0.00232369
0.0024741
0.00264093
0.00280339
0.00296641
0.00316924
0.00357938
0.00425488
0.00543606
0.0067208
0.00805337
0.00914529
0.00954106
0.0092462
0.00799969
0.00756598
0.00752297
0.00761147
0.00832298
0.0097747
0.0118262
0.0144979
0.0177635
0.0214233
0.0244708
0.0286089
0.0326451
0.0358785
0.0385353
0.0398442
0.043722
0.0517075
0.0618511
0.0703995
0.0810189
0.0907778
0.102276
0.114543
0.123303
0.124575
0.125005
0.125388
0.115649
0.0961724
0.074857
0.0664006
0.0639702
0.0634175
0.0623869
0.0583116
0.0545343
0.0497447
0.0453671
0.0402745
0.033745
0.0278522
0.022853
0.0181439
0.0146897
0.013303
0.0127562
0.0120027
0.00844087
0.00225196
0.000851143
0.000644655
0.000853648
0.000844261
0.000852209
0.000893722
0.000987879
0.00108057
0.0012268
0.00138374
0.00156537
0.0016581
0.00181888
0.00198577
0.00219949
0.0023399
0.00249122
0.00265993
0.00282544
0.00298328
0.0031153
0.00356112
0.0041901
0.00532341
0.00656055
0.00793145
0.0087902
0.00950925
0.00923921
0.00802158
0.00751039
0.00745829
0.00753476
0.00819315
0.00958276
0.0115771
0.0142096
0.0174715
0.0213033
0.0242189
0.0283159
0.0324571
0.0353003
0.038932
0.0399624
0.0438828
0.050879
0.0609149
0.069927
0.0806557
0.0879467
0.0991843
0.112337
0.124278
0.126372
0.127812
0.130935
0.122895
0.106773
0.0862942
0.0706802
0.0648501
0.0630625
0.0632514
0.0632911
0.0592452
0.0544319
0.0491233
0.0413417
0.033946
0.0282293
0.0223863
0.017779
0.0142777
0.0132573
0.0128455
0.0119143
0.00814143
0.00211828
0.000837503
0.000650006
0.000860207
0.00085689
0.000871463
0.000928368
0.00102686
0.00115885
0.00131401
0.00147018
0.00161033
0.0017687
0.00193672
0.00210943
0.00227614
0.00243234
0.002592
0.00276831
0.00294461
0.003107
0.0033014
0.0035997
0.00414903
0.00539522
0.0066718
0.00788266
0.00901903
0.00953915
0.00925434
0.00821613
0.00748943
0.00741944
0.00753472
0.0081276
0.00943701
0.0113501
0.0139454
0.0171834
0.0216022
0.0241855
0.0282271
0.0326531
0.0370754
0.0403886
0.0427
0.0453925
0.0515182
0.0615413
0.0703671
0.0814108
0.0898445
0.100367
0.114935
0.12535
0.13211
0.133645
0.134616
0.126401
0.11121
0.0902931
0.0731838
0.0655553
0.0620687
0.0612608
0.0612673
0.0603699
0.054189
0.0486378
0.040806
0.0331386
0.0262753
0.0218021
0.0167176
0.0140197
0.0132655
0.0128336
0.0118034
0.00748581
0.00187977
0.000820883
0.000661196
0.000881411
0.000888037
0.000920398
0.000991891
0.00110407
0.00124737
0.00141564
0.00157242
0.00173226
0.00189436
0.00207229
0.00225091
0.00242206
0.00259222
0.0027654
0.00295531
0.00314488
0.00331646
0.00351226
0.00384993
0.00439781
0.00540973
0.00668394
0.0084038
0.00890271
0.00955256
0.00938868
0.00839384
0.0077165
0.00766732
0.00779357
0.00845866
0.00984973
0.011866
0.0146541
0.0179916
0.021284
0.0257382
0.0299429
0.0344957
0.038887
0.042587
0.0451831
0.048294
0.0542823
0.0643604
0.074072
0.0831808
0.0906991
0.10265
0.115102
0.129867
0.136281
0.138478
0.139014
0.131086
0.114577
0.0932518
0.0761325
0.0675854
0.0623438
0.0610146
0.0608291
0.0604367
0.0536192
0.0479972
0.0408537
0.0329708
0.0257043
0.0203174
0.0160626
0.0141801
0.0137251
0.0131979
0.0116889
0.00675583
0.00165779
0.000793148
0.000672039
0.000899177
0.00091686
0.000969757
0.00105842
0.00118321
0.00133798
0.00152251
0.00168549
0.00184934
0.00202447
0.00221258
0.00240421
0.0025909
0.00277005
0.00295574
0.00315921
0.00336516
0.00354026
0.00373051
0.00407135
0.00459136
0.00564799
0.00661497
0.00825228
0.00940627
0.00963188
0.00949621
0.00858923
0.00787893
0.00783534
0.00799361
0.00870597
0.0101495
0.0122258
0.0152062
0.018914
0.0224946
0.0268512
0.031283
0.0360277
0.0407527
0.0447762
0.0477821
0.051084
0.0571166
0.0671454
0.0775352
0.0874347
0.0954832
0.103056
0.115902
0.130326
0.138119
0.142962
0.141902
0.133288
0.116903
0.0969911
0.079775
0.0705065
0.0638627
0.0615832
0.060369
0.0593705
0.0527005
0.0454725
0.0377547
0.0307964
0.024023
0.0189676
0.015596
0.0141517
0.013763
0.0133548
0.0114582
0.00597773
0.00147804
0.000783739
0.000683775
0.00091809
0.000951947
0.00102416
0.00112872
0.00126803
0.00143383
0.00163196
0.00180136
0.00197939
0.00216435
0.00236318
0.00256311
0.00275896
0.0029538
0.00315487
0.00337461
0.00359709
0.00377757
0.00395651
0.00432365
0.00482882
0.00566266
0.00699788
0.00893729
0.0098654
0.010008
0.00948685
0.00876447
0.00804753
0.00801571
0.00820837
0.00898545
0.0104966
0.0126268
0.0157691
0.0198457
0.023361
0.0281558
0.0327598
0.0376511
0.0425942
0.0469442
0.050357
0.0539985
0.0602433
0.0701398
0.0813878
0.0917578
0.100352
0.109097
0.119152
0.130866
0.142478
0.14745
0.145638
0.136547
0.119226
0.0986993
0.0824744
0.0725826
0.0659329
0.06323
0.0614898
0.0576615
0.0521696
0.0422469
0.0351854
0.0281493
0.0222902
0.0180614
0.0154451
0.0144123
0.0140938
0.013647
0.0110588
0.00513648
0.00133797
0.00077868
0.00070994
0.000943431
0.00098819
0.0010807
0.00120344
0.00135896
0.0015365
0.0017492
0.00192756
0.00211621
0.00231412
0.00252474
0.00273658
0.00294497
0.00315249
0.00336899
0.00360694
0.00385052
0.00403928
0.00419569
0.00458332
0.00510995
0.00590835
0.00728358
0.00950296
0.0103509
0.0103768
0.00956013
0.00893451
0.00820144
0.00818071
0.00842244
0.00927667
0.0108654
0.0130463
0.0163176
0.0209666
0.0243129
0.0294011
0.0342437
0.0392707
0.0444391
0.0490939
0.0529136
0.056931
0.0634796
0.0733935
0.085421
0.0965571
0.105792
0.114781
0.126267
0.138463
0.147839
0.15117
0.148484
0.138523
0.121612
0.10153
0.0857564
0.0746624
0.067071
0.063709
0.060303
0.0553329
0.0493128
0.040519
0.032107
0.0251997
0.0215942
0.0174218
0.0154712
0.0146582
0.0146145
0.0134679
0.0104828
0.00441408
0.00121953
0.000787365
0.000733798
0.000973909
0.00102316
0.00114131
0.00128208
0.00145531
0.00164492
0.00187031
0.00206033
0.00226236
0.00247323
0.00269632
0.00291994
0.00314109
0.00336346
0.0035953
0.00385116
0.00412099
0.00432479
0.00444947
0.00485603
0.00540333
0.006232
0.00756869
0.00998274
0.0108838
0.0107565
0.00984751
0.00905172
0.0083406
0.00833405
0.0086404
0.00959228
0.0112762
0.0135115
0.0168023
0.0219367
0.0252405
0.0306449
0.0357535
0.0408978
0.0462579
0.0512019
0.0554212
0.0598693
0.066821
0.0768517
0.0896552
0.101713
0.111761
0.121297
0.132346
0.144122
0.154009
0.156687
0.151828
0.140574
0.122711
0.103019
0.0885913
0.0773625
0.0689286
0.0651786
0.0612111
0.0561541
0.0479163
0.0387369
0.0304009
0.0235787
0.0191052
0.0167649
0.0155039
0.014928
0.0148059
0.0129767
0.00971269
0.00364333
0.00114839
0.000809678
0.000787221
0.00101251
0.00106228
0.00120376
0.00136498
0.00155726
0.00175985
0.00199756
0.00220132
0.00241733
0.00264269
0.00287934
0.00311603
0.00335135
0.00358895
0.00383667
0.00411
0.00440962
0.00463893
0.00471863
0.00514834
0.00570805
0.0065469
0.00784617
0.0099539
0.0113051
0.0111817
0.010086
0.00915773
0.00846278
0.00847208
0.00886452
0.00993444
0.0117476
0.0140681
0.0172483
0.0221431
0.0261544
0.0318646
0.0372795
0.0425364
0.0480539
0.0532643
0.0578622
0.0627713
0.0702161
0.0805583
0.0940766
0.1072
0.118169
0.128233
0.139628
0.151301
0.159717
0.161348
0.155458
0.142461
0.124321
0.104428
0.0904107
0.0796445
0.0707515
0.0664275
0.0606969
0.0531732
0.0432978
0.0348603
0.0272893
0.0220458
0.019135
0.0166724
0.0155625
0.0150977
0.0146556
0.0124481
0.00881218
0.00308748
0.00109109
0.000849928
0.000834257
0.00105918
0.00111065
0.0012711
0.0014516
0.00166452
0.00188087
0.00213077
0.00234969
0.00258149
0.00282221
0.00307336
0.00332422
0.00357482
0.00382855
0.00409173
0.00438029
0.00471183
0.00497668
0.00500354
0.0054546
0.00603452
0.00689787
0.00824249
0.00973743
0.0110648
0.0115038
0.0103662
0.00925052
0.00857262
0.00859146
0.00908668
0.0102808
0.0122747
0.014779
0.0178365
0.0221898
0.0271073
0.0330636
0.0388082
0.0441882
0.0498202
0.0552716
0.0602206
0.0656064
0.0736102
0.0844965
0.0986722
0.113029
0.125157
0.135947
0.147414
0.158816
0.166324
0.166743
0.159081
0.144255
0.125047
0.10555
0.0909815
0.0799687
0.0723248
0.067858
0.0618078
0.0552318
0.0453457
0.0379466
0.0303608
0.0254249
0.020726
0.0167427
0.0157969
0.0152388
0.014688
0.0119073
0.00784277
0.00261663
0.00106418
0.000897305
0.000950754
0.00111147
0.00116294
0.00134407
0.00154224
0.00177668
0.00200753
0.00227066
0.00250593
0.00275497
0.00301247
0.00327928
0.00354558
0.0038129
0.00408377
0.00436232
0.00466195
0.00500905
0.00528402
0.00530744
0.00577457
0.00637188
0.00724251
0.00870476
0.0101779
0.0112713
0.0115784
0.010557
0.00934955
0.00868199
0.00869298
0.00907967
0.010628
0.0128337
0.0156154
0.0185566
0.0231252
0.0280764
0.0342605
0.0403292
0.045857
0.0515578
0.0572199
0.0624857
0.0683464
0.0769409
0.0884641
0.103418
0.119134
0.132623
0.144312
0.156043
0.167176
0.173351
0.172347
0.162791
0.146363
0.125909
0.106328
0.0917412
0.0793064
0.0734049
0.0676121
0.0611583
0.0531535
0.0456987
0.0380585
0.0320985
0.0256205
0.0200756
0.0172694
0.0162112
0.0153505
0.0144133
0.011222
0.00685909
0.00226133
0.00105657
0.000980426
0.00171566
0.00117157
0.00122607
0.001423
0.00163804
0.00189338
0.00213938
0.00241577
0.0026699
0.00293786
0.00321351
0.00349721
0.00378033
0.00406581
0.00435497
0.00464909
0.004957
0.00530641
0.00559581
0.00562585
0.00610915
0.00672739
0.0075808
0.0090522
0.0101331
0.0114983
0.011632
0.0106521
0.00941451
0.00880122
0.00881994
0.00924067
0.0109468
0.0134175
0.0165612
0.019403
0.0239601
0.0291224
0.0354759
0.0418402
0.0475432
0.0532702
0.0591076
0.0646515
0.0709717
0.0801805
0.0924086
0.108264
0.125471
0.14059
0.153453
0.165551
0.176382
0.181539
0.179063
0.166711
0.148372
0.126752
0.107042
0.0922836
0.0795126
0.0747597
0.0706932
0.0640116
0.0561903
0.0487327
0.041315
0.0339393
0.0261457
0.0215235
0.0174251
0.0164463
0.0153481
0.0138904
0.0105862
0.00603559
0.00200977
0.00109242
0.00117575
0.00310393
0.00123664
0.00129383
0.00150912
0.00173925
0.00201428
0.00227609
0.00256642
0.00284121
0.00313028
0.00342571
0.00372768
0.00402909
0.00433424
0.00464295
0.00495323
0.00526819
0.00561375
0.00591525
0.00595973
0.00645547
0.00709745
0.00793012
0.00911387
0.0099567
0.0114783
0.0118333
0.0108347
0.00941718
0.00868802
0.0088481
0.00937855
0.0112398
0.0139751
0.016803
0.0204715
0.0248219
0.0302319
0.0367254
0.0433514
0.0492477
0.0549667
0.0609368
0.0667168
0.0734649
0.083293
0.0962852
0.113181
0.131947
0.148973
0.163326
0.176038
0.186607
0.190755
0.186873
0.171186
0.150563
0.127656
0.107861
0.0935026
0.0806793
0.0751947
0.0701848
0.0642493
0.0565126
0.0501755
0.0435294
0.036008
0.0276534
0.0204128
0.0176516
0.0166198
0.0153079
0.0134633
0.00995194
0.00535021
0.00184167
0.00116774
0.0014614
0.00485909
0.00130816
0.00136871
0.00160221
0.00184668
0.00213906
0.00241699
0.00272164
0.00301957
0.00333215
0.00364934
0.00397105
0.00429227
0.00461857
0.00494809
0.0052753
0.00559625
0.0059278
0.00622864
0.0063095
0.00681477
0.00748146
0.0083475
0.00926398
0.010337
0.0112582
0.0118123
0.0109474
0.00943528
0.00873657
0.00884822
0.00950393
0.0115391
0.0146889
0.0179402
0.0218279
0.0257268
0.031405
0.0380274
0.0448797
0.0509729
0.0566616
0.0627131
0.0686866
0.0758173
0.0862509
0.100031
0.118034
0.138492
0.157686
0.173908
0.187567
0.19817
0.201256
0.194756
0.176522
0.152358
0.128341
0.107779
0.0931318
0.0805965
0.0768436
0.0702832
0.0660708
0.0596706
0.0537121
0.045202
0.0341392
0.0260506
0.0209205
0.0180277
0.0168457
0.015359
0.0129088
0.009326
0.00467152
0.00175979
0.00126791
0.00188871
0.00777085
0.00138456
0.00144931
0.00170254
0.00196089
0.00226772
0.00256173
0.00288097
0.0032044
0.00354333
0.00388464
0.00422775
0.00457029
0.00491915
0.00527077
0.005616
0.00594358
0.00625479
0.00653229
0.00667654
0.00718864
0.00786415
0.0087459
0.00972047
0.0106894
0.0115684
0.0117473
0.0109963
0.00941457
0.00872807
0.00890571
0.00962436
0.0118432
0.0152644
0.0186407
0.0230769
0.0268042
0.0326326
0.0394009
0.0464493
0.0527276
0.0583736
0.0644474
0.0705708
0.0780292
0.0890366
0.10361
0.122757
0.145004
0.166604
0.185091
0.200093
0.211081
0.214413
0.203716
0.183418
0.155615
0.129054
0.107442
0.0907467
0.083241
0.0784186
0.0738238
0.0690595
0.0617026
0.0537836
0.0436616
0.0348695
0.0265463
0.0217994
0.0184052
0.0170607
0.0152659
0.0125277
0.00883725
0.00428955
0.00175388
0.00147987
0.00271543
0.0110664
0.00146753
0.00153561
0.00180913
0.00208195
0.00240061
0.00271012
0.00304389
0.00339526
0.00376358
0.00413176
0.00449815
0.00486349
0.00523617
0.00561109
0.00597576
0.00631283
0.00660948
0.00685577
0.00705812
0.00758307
0.00826811
0.00916458
0.0101327
0.0110753
0.0118014
0.011943
0.0110201
0.00935251
0.00871903
0.00897185
0.00972991
0.0121759
0.0150694
0.0193466
0.0235587
0.027984
0.0339451
0.0408536
0.0480806
0.0545301
0.0601268
0.066157
0.0723845
0.0801108
0.0916433
0.106994
0.127296
0.151386
0.175587
0.19673
0.213522
0.224876
0.227237
0.214623
0.190295
0.159848
0.130354
0.107806
0.0895556
0.0813198
0.0798423
0.0761252
0.0708149
0.0667267
0.0596521
0.0475104
0.0350245
0.0274032
0.0208966
0.0186349
0.0173076
0.0150573
0.0119813
0.0081922
0.00377166
0.00173929
0.0015753
0.00341123
0.0193366
0.00155733
0.00162878
0.00192266
0.00220986
0.00253786
0.00286256
0.00321031
0.00359153
0.00399252
0.0043907
0.0047825
0.00517206
0.00556963
0.00596888
0.00635447
0.0067046
0.00700125
0.00723765
0.00745306
0.00799345
0.00868203
0.00957799
0.0105228
0.0114247
0.0120471
0.0120566
0.0110204
0.00924941
0.00870889
0.00891229
0.00977231
0.0120247
0.0156293
0.0202694
0.0240271
0.02924
0.0353576
0.0424
0.0497898
0.0564026
0.0619509
0.0678683
0.0741505
0.0820797
0.0940757
0.110164
0.131606
0.157549
0.184483
0.208632
0.227758
0.23994
0.241981
0.227556
0.199381
0.165608
0.132588
0.109683
0.0940822
0.0809638
0.0804345
0.0766771
0.0735418
0.0702682
0.0592993
0.051043
0.0366481
0.0273336
0.0219523
0.0193658
0.0172404
0.0148006
0.0113787
0.00762995
0.00329933
0.00185911
0.00222536
0.00539607
0.0207027
0.0016553
0.00173047
0.00204507
0.00234759
0.00267898
0.0030193
0.00338118
0.00379277
0.00422969
0.00466125
0.0050809
0.00549606
0.00591933
0.00634374
0.00675172
0.00711775
0.00742099
0.00765541
0.00786586
0.00842075
0.00911631
0.0100162
0.0109327
0.011762
0.0122852
0.0121843
0.0110056
0.00926047
0.00872132
0.00892382
0.0098733
0.0122031
0.016159
0.0211868
0.0251685
0.0305663
0.0368852
0.044063
0.051605
0.05837
0.0638791
0.0696167
0.0759001
0.0839627
0.0963513
0.113121
0.135657
0.163415
0.193144
0.22056
0.24241
0.255594
0.257219
0.241673
0.209752
0.172977
0.136048
0.111626
0.0973203
0.0836109
0.0823177
0.0779783
0.0737924
0.0702994
0.059592
0.0504993
0.0405655
0.0281508
0.0222162
0.0194103
0.0171309
0.0143324
0.0107681
0.00687365
0.0029914
0.00198393
0.00249826
0.00376154
0.082274
0.0017626
0.00184248
0.00217961
0.00249981
0.00282567
0.00317976
0.00355775
0.00399906
0.00447458
0.00494299
0.00539319
0.00583527
0.00628481
0.00673492
0.00716716
0.00755289
0.00786597
0.00809386
0.00829785
0.00886118
0.00956021
0.0104547
0.0113441
0.012099
0.0125016
0.0122933
0.0109821
0.00930704
0.0087102
0.00887319
0.0097898
0.0124206
0.0167841
0.0209858
0.0263447
0.0319739
0.0385511
0.0458662
0.0535591
0.060467
0.0659473
0.0714469
0.0776737
0.0857958
0.0984998
0.115875
0.139436
0.168922
0.201434
0.23232
0.257338
0.271963
0.273156
0.256463
0.222585
0.180845
0.140285
0.112717
0.0983531
0.0852928
0.0822814
0.0784759
0.0756477
0.073143
0.0617601
0.0532552
0.0371687
0.0284553
0.0233572
0.0193608
0.0170041
0.0139237
0.0102803
0.00670957
0.00282723
0.00225771
0.00423253
0.0316495
0.716019
0.00188037
0.00196091
0.00232242
0.00266677
0.00298043
0.00334641
0.00374074
0.00421117
0.0047267
0.00523522
0.00571888
0.0061892
0.00666528
0.00714125
0.00760002
0.00801224
0.00834748
0.00857727
0.00874974
0.00931704
0.0100189
0.010899
0.0117483
0.0124182
0.0127007
0.0123477
0.0109305
0.0092049
0.00874983
0.00890598
0.0099211
0.0125924
0.0167251
0.0219754
0.0274829
0.0334491
0.0403696
0.0478399
0.0556891
0.0627395
0.0681963
0.0734126
0.0795216
0.0876244
0.100564
0.118457
0.142949
0.174022
0.209157
0.243679
0.272004
0.288592
0.289875
0.272667
0.236367
0.190576
0.145317
0.115023
0.100084
0.0860703
0.0826491
0.0810571
0.0767206
0.0742856
0.0618297
0.0536387
0.0397824
0.0292343
0.0225878
0.0194031
0.0168943
0.0135471
0.00968115
0.0051194
0.00269443
0.0022944
0.00814323
0.185905
5.39324
0.00201278
0.00208958
0.00247337
0.00285086
0.00314338
0.00352365
0.00393268
0.00443042
0.00498584
0.00553697
0.00605713
0.00655702
0.00705963
0.00756101
0.00804842
0.00849495
0.00886544
0.00909793
0.00922768
0.00978543
0.0104926
0.0113494
0.0121546
0.012731
0.0129078
0.0123778
0.0108359
0.00908387
0.00869352
0.00908263
0.0101059
0.0129811
0.0172574
0.0225649
0.0285884
0.0349684
0.0423476
0.0500145
0.0580307
0.0652407
0.0706787
0.0755755
0.0815046
0.0895053
0.102596
0.120912
0.146229
0.17872
0.216228
0.254314
0.286109
0.304715
0.306236
0.289638
0.252345
0.201062
0.150973
0.117123
0.100951
0.0869316
0.0830765
0.0818128
0.0776428
0.0745893
0.0657275
0.0543738
0.0402243
0.0304874
0.0233452
0.0194738
0.0164669
0.0129697
0.00945012
0.00490697
0.00298851
0.00390817
0.0183703
0.187816
0.668681
0.00215888
0.0022292
0.00262874
0.00305418
0.00331774
0.00370971
0.00413653
0.00465917
0.00525228
0.00584716
0.00640671
0.00693754
0.00746638
0.00799196
0.00850953
0.00900095
0.00943809
0.00970474
0.00973362
0.0102622
0.0109858
0.0118035
0.012557
0.0130322
0.013147
0.0123673
0.0107126
0.00899706
0.00874713
0.00908065
0.0104162
0.0131903
0.0178395
0.0230771
0.0297263
0.0365075
0.0444753
0.052423
0.0606166
0.0680138
0.0734593
0.0780071
0.0836924
0.0915078
0.10466
0.123299
0.149321
0.183044
0.222604
0.26389
0.299265
0.319896
0.321609
0.306063
0.269384
0.213557
0.157363
0.119358
0.101379
0.0877559
0.0838928
0.0837693
0.078269
0.0741646
0.0636334
0.0546478
0.0407912
0.0283697
0.0240305
0.0199151
0.0157987
0.0125182
0.00909299
0.00447756
0.00303236
0.00332027
0.0111651
0.134614
0.164751
0.00232209
0.00238161
0.00278317
0.00327379
0.00350702
0.00390681
0.00435361
0.0049004
0.00552709
0.00616481
0.006766
0.00732919
0.00788381
0.0084314
0.00897835
0.00952095
0.0100684
0.0104673
0.0102895
0.010737
0.0115013
0.0122647
0.0129551
0.0133032
0.0132797
0.0123868
0.010688
0.00909503
0.00889722
0.00910428
0.0104638
0.0136092
0.0184617
0.0235411
0.0307994
0.0380908
0.0467171
0.0551006
0.0634921
0.0711083
0.076609
0.0807938
0.0861637
0.0937142
0.106832
0.125691
0.15229
0.187047
0.228309
0.272146
0.310742
0.333065
0.334576
0.320585
0.285897
0.228365
0.166941
0.124325
0.104336
0.0878571
0.0835538
0.0840449
0.0801248
0.0769129
0.0662228
0.0572449
0.0396427
0.0285243
0.0243269
0.018973
0.0153246
0.0120622
0.00881946
0.00486264
0.00373244
0.0058244
0.0356931
0.184705
0.0943436
0.00250409
0.00255098
0.00293254
0.00343389
0.00370822
0.00411517
0.00458498
0.00515654
0.00581217
0.00648939
0.00713316
0.00773001
0.00830995
0.0088768
0.00944936
0.0100351
0.0106713
0.0110907
0.01098
0.0111965
0.0120356
0.012738
0.0133529
0.0135774
0.0133924
0.0123405
0.0106442
0.00898701
0.00896034
0.00934966
0.0107853
0.0142958
0.0197203
0.0244088
0.0320397
0.0397352
0.0490433
0.0580678
0.0667149
0.0745821
0.0802081
0.0840409
0.0890109
0.0962208
0.109196
0.128173
0.155208
0.190778
0.233311
0.279001
0.319926
0.343246
0.344075
0.332389
0.29831
0.241706
0.176073
0.130223
0.108515
0.0943203
0.0868095
0.0852011
0.0797479
0.0766692
0.0666646
0.0586101
0.0432787
0.0281637
0.0237828
0.0188839
0.0142625
0.0117488
0.00846763
0.00508998
0.00423524
0.00565554
0.0230966
0.171185
0.0908488
0.00270719
0.00274275
0.00309215
0.00344385
0.00391167
0.00433562
0.00483042
0.00542844
0.00610971
0.00682131
0.00750625
0.00813764
0.00874271
0.00932637
0.00992065
0.0105357
0.011212
0.0116816
0.0113893
0.0117039
0.0125679
0.0132294
0.0137466
0.0138629
0.0134808
0.0122332
0.0104814
0.00892396
0.00892735
0.00943216
0.011373
0.0149462
0.0213728
0.0258031
0.0332666
0.0414916
0.0514401
0.0613174
0.070355
0.078504
0.0843488
0.0878764
0.0923426
0.0991417
0.111851
0.130846
0.15817
0.19434
0.237734
0.284493
0.326547
0.348334
0.345822
0.336186
0.303635
0.249482
0.183367
0.132328
0.108531
0.0945671
0.0862558
0.084486
0.0804625
0.0778768
0.0698182
0.0595415
0.0434691
0.0322793
0.0238257
0.0191521
0.0140325
0.0113544
0.00821391
0.00550284
0.00497418
0.00755212
0.045931
0.144956
0.0982709
0.00293318
0.00296095
0.00329453
0.0036714
0.004107
0.00456855
0.0050905
0.00571576
0.00642109
0.00716195
0.00788385
0.00854936
0.00917969
0.00977881
0.0103946
0.0110394
0.0117438
0.0122253
0.0119579
0.0122675
0.0130986
0.0137367
0.0141378
0.0141582
0.0135525
0.0120614
0.0102773
0.00891836
0.00915955
0.00973999
0.0113518
0.0158857
0.0215129
0.0277932
0.0346228
0.0433739
0.0539429
0.0648103
0.0744863
0.0829641
0.0891429
0.09246
0.0962901
0.102612
0.114909
0.13382
0.161278
0.197841
0.241737
0.289008
0.330719
0.348675
0.339737
0.330153
0.294326
0.243729
0.193933
0.131471
0.106732
0.0958752
0.0871404
0.0859454
0.0812668
0.0786538
0.0687686
0.060815
0.0457995
0.031331
0.0240258
0.0176248
0.0139029
0.010809
0.00751423
0.006017
0.00598177
0.0122946
0.0556699
0.271483
0.132085
0.00318384
0.00320782
0.00348173
0.00385339
0.00431702
0.00481156
0.00536521
0.00601826
0.00674648
0.00751275
0.00826557
0.00896242
0.00961807
0.0102319
0.0108701
0.0115525
0.0122995
0.0127919
0.0125102
0.0128678
0.0136507
0.0142545
0.0145416
0.0144985
0.0136118
0.0119456
0.0100648
0.0088554
0.00895029
0.00959016
0.0116197
0.0161296
0.02229
0.0298293
0.0361909
0.0454172
0.0566101
0.0685084
0.0791626
0.0880841
0.0947368
0.0980025
0.101018
0.106792
0.118502
0.137223
0.164648
0.201389
0.245448
0.292664
0.333315
0.347488
0.339211
0.332732
0.294863
0.245509
0.20043
0.13303
0.102413
0.0937468
0.0852779
0.0851808
0.0810414
0.0782879
0.0703407
0.0605773
0.0505198
0.0298938
0.0236277
0.0172904
0.0127906
0.0104483
0.0075502
0.00648601
0.00671005
0.0117669
0.0570874
0.321023
0.152688
0.0034604
0.00350755
0.00368197
0.00405071
0.00452574
0.00506596
0.00565332
0.00633523
0.00708568
0.00787424
0.00865205
0.00937476
0.0100548
0.0106827
0.0113419
0.0120656
0.0128651
0.0134154
0.0131297
0.0135085
0.0142248
0.0147825
0.0149387
0.0146824
0.0136246
0.0118415
0.00982898
0.00886351
0.00888437
0.00963153
0.0120239
0.01625
0.0228703
0.0294711
0.0380937
0.0476167
0.0594574
0.0724031
0.0843854
0.0940148
0.101336
0.104815
0.106742
0.111876
0.122792
0.1412
0.168412
0.205107
0.249016
0.295686
0.334658
0.344693
0.345208
0.337532
0.311797
0.256505
0.192899
0.141418
0.117707
0.101053
0.0864058
0.0812587
0.0787811
0.0758824
0.0691046
0.061985
0.0457623
0.0303247
0.0234894
0.0177996
0.012409
0.0096874
0.00779685
0.0073743
0.00760906
0.0126944
0.0653261
0.666885
0.128422
0.0037592
0.00378342
0.00389382
0.00424569
0.00473919
0.00533006
0.00595415
0.00666521
0.0074375
0.00824622
0.00904424
0.00978588
0.0104873
0.0111291
0.0118053
0.0125676
0.0134163
0.0139806
0.0137384
0.0141962
0.0148371
0.015322
0.0153692
0.0148717
0.0135984
0.0115583
0.00956417
0.00890265
0.00894302
0.00981857
0.0124118
0.0168
0.0235967
0.0307509
0.0399594
0.0500395
0.0625346
0.0765348
0.0900955
0.100896
0.10922
0.113438
0.113765
0.118116
0.127989
0.145918
0.172727
0.209137
0.252635
0.298438
0.335434
0.340476
0.336553
0.323658
0.306403
0.252782
0.195249
0.155691
0.118917
0.101968
0.0848209
0.0782756
0.0762676
0.0718178
0.0668113
0.0612941
0.0495608
0.0338724
0.0219496
0.0180865
0.0123089
0.00965401
0.00824368
0.00819285
0.00980978
0.0218369
0.11573
0.563952
0.11447
0.00408321
0.00408826
0.00413041
0.00444435
0.00495543
0.00560321
0.00626634
0.00700619
0.00780014
0.00862784
0.00944273
0.0101971
0.0109148
0.0115703
0.012258
0.0130497
0.0139498
0.0145472
0.0143536
0.0149109
0.015485
0.0158841
0.0158719
0.0149964
0.0135688
0.0112708
0.00928741
0.00893616
0.00897347
0.0100826
0.0122757
0.0177145
0.0241184
0.0319758
0.0419244
0.052639
0.0658706
0.0809316
0.0961975
0.108752
0.118631
0.124646
0.122568
0.125871
0.134378
0.151577
0.177785
0.213637
0.256464
0.301293
0.338034
0.344846
0.336325
0.32513
0.311648
0.255603
0.212747
0.149265
0.117778
0.099369
0.08192
0.0755995
0.0732645
0.0674157
0.0637397
0.059037
0.0489069
0.0323312
0.0219416
0.0165616
0.0122434
0.00972552
0.00896054
0.00932325
0.0119345
0.0213922
0.104958
0.282108
0.0771054
0.00443877
0.00439755
0.00441055
0.00465327
0.00517606
0.00588347
0.00658784
0.00735562
0.00817133
0.00901754
0.00984769
0.010611
0.0113388
0.0120077
0.0127028
0.0135085
0.0144379
0.0150697
0.0149927
0.015721
0.0161806
0.0164577
0.0162075
0.0151891
0.0134765
0.0109646
0.00898626
0.0088853
0.00921318
0.0100262