/*--------------------------------*- C++ -*----------------------------------*\
| =========                 |                                                 |
| \\      /  F ield         | OpenFOAM: The Open Source CFD Toolbox           |
|  \\    /   O peration     | Version:  4.1                                   |
|   \\  /    A nd           | Web:      www.OpenFOAM.org                      |
|    \\/     M anipulation  |                                                 |
\*---------------------------------------------------------------------------*/
FoamFile
{
    version     2.0;
    format      ascii;
    class       volScalarField;
    location    "27";
    object      p;
}
// * * * * * * * * * * * * * * * * * * * * * * * * * * * * * * * * * * * * * //

dimensions      [0 2 -2 0 0 0 0];

internalField   nonuniform List<scalar> 
6785
(
117235
117169
117118
117068
117022
116979
116938
116900
116864
116830
116797
116766
116738
116704
116668
116693
116676
116680
116676
116673
116670
116667
116666
116665
116664
116665
116667
116671
116676
116677
116657
116651
116661
116660
116664
116666
116669
116671
116673
116675
116677
116679
116680
116681
116681
116698
116695
116699
116694
116694
116691
116689
116687
116685
116682
116680
116679
116678
116677
116677
116678
116675
116677
116672
116673
116671
116670
116669
116668
116667
116666
116666
116666
116666
116666
116668
116666
116669
116666
116668
116667
116668
116668
116668
116668
116669
116669
116670
116671
116672
116678
116678
116681
116679
116681
116681
116682
116683
116683
116684
116685
116685
116686
116687
116688
116690
116691
116693
116692
116694
116694
116695
116696
116696
116697
116698
116699
116699
116700
116701
116700
116701
116702
116702
116703
116703
116704
116704
116705
116706
116706
116707
116707
116708
116708
116707
116708
116710
116709
116710
116710
116711
116711
116711
116711
116711
116712
116712
116712
116712
116712
116712
116713
116712
116713
116713
116713
116713
116713
116713
116713
116713
116713
116713
116713
116712
116712
116713
116712
116712
116712
116712
116712
116711
116711
116710
116710
116710
116710
116709
116701
116701
116701
116700
116701
116700
116701
116701
116701
116701
116700
116700
116700
116700
116699
116688
116686
116687
116688
116691
116693
116695
116697
116699
116700
116701
116702
116701
116700
116698
116595
116600
116613
116622
116630
116636
116642
116647
116650
116654
116657
116659
116662
116666
116670
116808
116808
116808
116808
116808
116808
116808
116808
116808
116808
116808
116808
116808
116807
116807
116807
116807
116807
116806
116806
116806
116806
116805
116805
116805
116804
116804
116804
116803
116803
116803
116802
116801
116801
116801
116800
116799
116799
116799
116798
116797
116797
116797
116796
116795
116795
116795
116793
116793
116793
116791
116790
116791
116790
116789
116788
116788
116787
116786
116786
116785
116784
116783
116783
116783
116781
116781
116781
116779
116778
116778
116778
116777
116776
116776
116775
116774
116774
116772
116772
116771
116771
116769
116782
116767
116768
116767
116766
116764
116763
116763
116760
116773
116758
116758
116757
116756
116755
116754
116752
116750
116762
116742
116740
116739
116738
116737
116736
116735
116734
116732
116742
116723
116721
116719
116717
116716
116714
116712
116710
116711
116694
116691
116688
116685
116682
116679
116677
116673
116661
116642
116637
116632
116627
116622
116616
116611
116605
116579
116560
116551
116543
116535
116527
116518
116508
116498
116487
116426
116408
116391
116376
116359
116343
116327
116313
116298
116201
116191
116169
116157
116172
116166
116165
116164
116161
116160
116158
116155
116155
116159
116159
116162
116162
116162
116178
116176
116174
116181
116176
116196
116190
116171
116202
116185
116171
116178
116162
116226
116187
116166
116184
116158
116308
116252
116136
116432
116320
116197
116299
116200
116646
116391
116194
116298
116165
116807
116249
115482
116166
115040
113738
113673
112678
114246
113863
112376
113777
113458
116665
118585
117990
123256
125614
124651
132619
134572
138675
143371
126898
160444
173954
69980.4
139497
211424
-23382.9
-50313.8
-211484
-167330
225403
0.627612
5.6055
7.29463
10.3478
12.2794
14.4769
16.4085
18.489
20.6337
23.1045
25.8183
28.7693
31.86
35.21
38.7913
42.5592
46.5809
51.0436
57.0173
63.8994
70.4367
75.1453
78.1967
81.2544
85.0503
90.3504
97.0889
109.002
126.397
147.404
171.173
196.054
216.867
233.088
245.436
253.721
257.657
259.123
254.143
240.362
219.623
198.593
189.187
194.794
206.929
214.728
215.634
212.487
207.12
198.324
184.91
168.917
153.968
142.353
134.275
128.944
125.253
122.209
119.025
114.873
108.374
98.1322
88.552
91.9962
107.704
132.192
169.023
223.722
305.624
430.738
628.138
951.678
1509
2529.1
4479.22
8523.04
16363.1
23249.2
28580.5
1.05706
13.6106
17.7247
26.0762
31.8164
38.655
44.403
50.1469
55.6455
61.5487
67.4316
73.3734
79.2842
85.7962
93.1271
101.286
109.935
118.808
130.012
142.699
156.262
169.651
182.299
194.877
207.954
225.425
247.585
282.787
332.304
391.768
456.323
521.626
577.272
624.485
664.573
695.07
715.29
735.014
744.886
748.323
746.753
737.938
729.381
719.236
706.951
688.254
663.323
635.158
609.373
583.801
554.735
522.768
491.501
462.637
435.81
411.111
388.796
368.953
351.271
334.609
315.225
287.966
261.116
255.612
268.827
293.316
328.295
375.054
435.305
510.265
600.592
701.909
801.869
855.503
646.002
144.46
-1810.42
-12183.7
81249.3
3.12273
24.9228
32.7591
47.3434
57.3555
68.9704
78.7409
88.6899
98.5011
109.114
119.823
130.799
141.989
154.371
168.12
183.216
199.197
215.987
237.071
260.907
285.693
308.455
329.958
351.538
374.982
406.35
448.044
513.988
604.197
709.69
823.677
937.039
1032.01
1111.42
1177.33
1226.78
1258.78
1292.14
1302.96
1296.41
1274.82
1242.58
1221.33
1210.18
1198.49
1171.72
1131.75
1083.86
1039.43
994.512
943.681
887.582
832.431
782.56
738.589
700.278
666.513
635.915
607.028
577.822
543.222
497.925
459.143
455.384
480.887
526.51
591.612
679.114
793.189
938.611
1120.87
1342.07
1601.03
1872.35
1940.89
2205.62
2762.11
-2811.72
155072
4.52654
34.71
45.8586
66.1056
80.1794
96.4274
110.19
124.238
138.114
152.835
167.685
182.85
198.39
215.426
234.308
255.064
277.011
299.978
328.369
360.57
393.961
425.694
457.289
488.482
522.678
567.622
627.792
721.282
848.999
997.269
1156.96
1315.09
1447.69
1559.22
1652.21
1723.03
1771.56
1820.26
1839.83
1837.2
1813.96
1776.3
1747.77
1729.14
1706.23
1661.58
1600.54
1530.08
1465.76
1403.03
1334.69
1259.82
1185.42
1117.02
1055.81
1001.71
953.51
909.634
868.252
826.335
776.531
713.622
665.616
667.915
710.88
785.942
894.181
1042.93
1243.91
1514.56
1881.57
2385.78
3102.09
4169.24
5726.52
9313.97
18479.5
28074.5
180081
6.04854
44.6738
59.3257
85.2507
103.421
124.272
142.037
160.264
178.298
197.256
216.422
236
256.167
278.142
302.423
329.065
357.21
386.644
422.773
463.758
505.874
546.856
588.99
629.561
674.73
733.819
813.303
935.444
1101.57
1293.4
1499.94
1703.21
1873.32
2016.56
2135.97
2228.29
2295.46
2358.22
2386.48
2386.2
2358.27
2311.89
2274.51
2250.09
2219.28
2159.22
2077.62
1984.56
1899.78
1819.29
1734.02
1641.09
1547.85
1461.18
1383.5
1315.01
1253.99
1198.08
1144.85
1090.39
1025.23
944.617
887.953
896.14
955.139
1057.43
1205.34
1409.54
1687.33
2066
2587.61
3320.33
4391.36
6060.12
8756.18
14814.3
29922.5
47725.1
159387
7.39318
54.1711
72.2185
103.606
125.794
151.21
172.979
195.38
217.499
240.578
263.894
287.682
312.217
338.804
368.097
400.221
434.144
469.49
512.641
561.518
611.529
661.83
714.318
764.123
820.429
894.079
993.407
1143.18
1346.93
1581.51
1834.19
2081.71
2288.62
2463.18
2608.88
2723.01
2810.96
2889.51
2929.64
2936.34
2909.79
2860.15
2816.29
2784.59
2742.7
2664.81
2560.47
2443.42
2337.41
2239.72
2139.15
2030.48
1920.53
1817
1723.46
1640.48
1566.25
1498.01
1432.76
1365.65
1285.27
1188.86
1127.35
1144.83
1222.58
1354.8
1545.29
1808
2165.27
2652.86
3325.81
4273.83
5667.11
7874.98
11610.6
19759.7
38982.5
63445.4
152101
8.66947
63.4508
84.8903
121.64
147.821
177.77
203.544
230.126
256.308
283.477
310.899
338.856
367.707
398.825
433.007
470.474
510.037
551.103
601.068
657.582
715.213
774.728
836.718
895.428
963.728
1052.39
1172.5
1349.66
1591.29
1868.61
2167.56
2459
2702.18
2907.44
3078.79
3214.18
3325.37
3420.94
3474.81
3490.5
3467.51
3416.5
3367.32
3328.75
3275.63
3179.68
3051.41
2909.11
2780.9
2665.89
2550.97
2428.18
2303.1
2184.03
2075.55
1978.76
1891.89
1811.76
1734.88
1655.11
1559
1447.43
1383.72
1413.35
1513.13
1679.43
1918.01
2246.85
2694.29
3305.47
4150.35
5344.77
7116.09
9979.72
15017.3
25673.5
49038.9
78630.5
132041
9.83144
72.4254
97.1938
139.172
169.3
203.742
233.524
264.269
294.464
325.652
357.082
389.104
422.139
457.611
496.449
539.006
583.953
630.416
686.812
750.5
815.338
883.601
954.492
1022.02
1102.95
1206.97
1347.99
1552.52
1831.97
2151.76
2496.68
2831.58
3110.43
3345.81
3542.39
3698.98
3835.93
3949.64
4019.53
4047.23
4031.47
3982.6
3930.24
3884.99
3819.6
3704.5
3550.8
3381.82
3230.28
3097.67
2969.22
2833.92
2695.6
2562.59
2440.21
2330.13
2230.78
2138.86
2050.52
1958.2
1846.47
1721.51
1658.7
1702.7
1827.15
2030.74
2321.54
2721.99
3267.04
4011.7
5041.85
6504.78
8701.35
12327.3
18887.2
32254.8
59091.7
92122.5
119283
10.8996
81.1301
109.177
156.276
190.316
229.21
262.998
297.883
332.04
367.181
402.543
438.547
475.671
515.361
558.669
606.098
656.209
707.841
770.416
840.913
912.675
989.187
1068.57
1145.4
1239.08
1358.49
1520.33
1752.8
2070.11
2432.2
2822.64
3200.74
3514.61
3779.43
4001.26
4180.6
4343.77
4476.7
4564.56
4606.83
4601.28
4557.48
4504.08
4452.97
4375.13
4240.25
4059.9
3862.79
3686.6
3535.81
3394.22
3247.72
3097.91
2952.65
2817.67
2695.14
2583.8
2480.33
2380.67
2275.55
2147.96
2011.94
1953.71
2014.44
2166.6
2410.97
2758.23
3235.34
3884.03
4769.31
5993.85
7742.34
10405
14882.5
23100.2
39100.1
68437.2
104038
107279
11.8789
89.544
120.814
172.926
210.837
254.139
291.925
330.914
368.975
407.991
447.197
487.096
528.202
571.966
619.541
671.595
726.617
783.228
851.725
928.616
1007.04
1091.34
1178.74
1265.77
1372.32
1506.71
1689.18
1950.06
2305.16
2709.38
3145.09
3565.73
3913.72
4207.03
4454.89
4659.38
4847.9
5001.46
5109.25
5168.77
5176.62
5141.18
5089.28
5033.44
4943.08
4787.75
4579.68
4352.98
4150.73
3980.88
3826.23
3669.57
3509.93
3354.17
3208.08
3074.12
2951.33
2836.62
2725.79
2607.64
2464.1
2319.81
2269.8
2349.85
2533.15
2822.28
3230.86
3790.45
4549.5
5583.52
7015.01
9075.11
12262.4
17702.9
27698.2
46182.2
77074.2
113671
99592.7
12.7897
97.6675
132.111
189.135
230.878
278.54
320.306
363.357
405.256
448.069
491.035
534.745
579.735
627.443
679.101
735.537
795.235
856.717
930.874
1013.76
1098.6
1190.25
1285.13
1383.03
1502.62
1651.98
1854.84
2144.39
2537.12
2983.57
3464.99
3926.6
4307.55
4628.03
4903.15
5133.9
5347.94
5523.81
5653.49
5732.78
5757.1
5733.24
5685.59
5626.54
5524.08
5347.91
5111.28
4853.58
4623.76
4433.71
4265.72
4099.57
3931.53
3767.04
3611.48
3467.38
3333.98
3208.5
3086.7
2955.26
2795.92
2646.32
2608.1
2710.36
2928.36
3266.41
3741.29
4389.19
5265.47
6457.37
8112.55
10520.7
14309.1
20840.7
32701.6
53451.9
84847.4
119869
104138
13.653
105.496
143.066
204.901
250.433
302.401
348.119
395.183
440.85
487.378
534.016
581.455
630.236
681.767
737.335
797.919
862.074
928.333
1007.86
1096.38
1187.4
1285.97
1388.05
1497.3
1629.6
1794.35
2017.38
2335.7
2766.06
3254.75
3782.09
4282.98
4695.75
5042.68
5345.52
5602.67
5843.42
6043.31
6196.87
6298.38
6342.27
6333.28
6292.91
6232.54
6118.77
5921.66
5655.82
5365.84
5106.89
4895.29
4713.27
4537.94
4362.66
4191.07
4027.78
3875
3732.06
3596.54
3464.09
3319.24
3144.58
2992.67
2969.9
3097.48
3353.89
3745.02
4291.04
5032.8
6033.18
7393.61
9294.05
12096.6
16574.7
24321.9
38066.8
60738.2
91568.9
122074
115676
14.4908
113.032
153.687
220.23
269.504
325.717
375.351
426.37
475.73
525.888
576.115
627.203
679.689
734.936
794.263
858.779
927.184
998.115
1082.73
1176.54
1273.53
1378.68
1488.32
1609.06
1753.46
1933.62
2176.71
2524.25
2992.72
3523.3
4095.77
4634.79
5078.01
5451.88
5781.11
6065.62
6333.98
6559.61
6739.02
6865.12
6931.59
6940.77
6910.89
6851.45
6727.59
6509.83
6214.42
5891.08
5601.48
5366.77
5169.71
4985.07
4803.34
4626.09
4456.79
4296.95
4145.79
4001.17
3858.53
3700.26
3511.2
3360.11
3356.46
3512.64
3811.19
4259.54
4881.4
5722.58
6854.72
8397.42
10571.6
13825.5
19091.1
28161.3
43730.8
67879.1
97385.8
120693
121028
15.3235
120.283
163.984
235.124
288.089
348.48
401.979
456.888
509.866
563.568
617.302
671.965
728.075
786.942
849.898
918.158
990.612
1066.1
1155.51
1254.31
1357.05
1468.54
1586.19
1717.83
1874.34
2069.72
2332.77
2710.22
3217.19
3789.34
4405.69
4981.47
5453.43
5854.69
6208.66
6522.73
6819.2
7072.25
7279.47
7432.45
7524.46
7555.12
7539.11
7483.17
7350.87
7113.19
6788.17
6430.69
6108.99
5849.49
5636.06
5441.58
5253.78
5072.01
4898.28
4733.04
4575.14
4422.6
4270.38
4098.82
3896.71
3749.77
3768.85
3957.01
4301.41
4811.06
5513.44
6460.13
7733.52
9476.82
11961.6
15735.2
21890.3
32363.2
49623.6
74699.6
102246
118062
122425
16.167
127.259
173.969
249.591
306.187
370.676
427.979
486.707
543.225
600.389
657.553
715.718
775.379
837.783
904.262
976.11
1052.43
1132.33
1226.23
1329.75
1438.03
1555.63
1681.21
1823.07
1991.87
2202.58
2485.63
2893.68
3439.19
4052.44
4711.47
5322.09
5822.54
6250.38
6628.51
6973.79
7298.76
7580.77
7817.67
7999.76
8120.17
8175.59
8176.95
8127.43
7988.76
7732.34
7378.14
6986.06
6630.99
6344.98
6113.59
5908.36
5714.42
5528.89
5352.04
5182.99
5019.92
4860.83
4699.74
4515.18
4301.8
4162.6
4207.92
4431.5
4825.42
5400.46
6188.32
7247.68
8674.88
10643
13484.4
17855.3
24998.8
36913.1
55658.9
81070.2
106198
115755
121209
17.0304
133.974
183.656
263.639
323.795
392.294
453.326
515.792
575.776
636.324
696.845
758.445
821.587
887.46
957.375
1032.69
1112.72
1196.85
1294.91
1402.93
1516.52
1639.98
1773.15
1924.74
2105.69
2331.86
2635.33
3074.97
3658.69
4312.27
5012.84
5657.08
6187.07
6638.95
7042.38
7418.39
7772.34
8084.67
8353.04
8566.4
8717.92
8801.33
8823.65
8783.72
8641.19
8367.74
7985.27
7558.57
7169.13
6854.9
6603.81
6386.57
6186.04
5997.06
5818.02
5646.52
5479.82
5315.64
5146.46
4949.27
4726.89
4599.38
4674.23
4936.77
5383.98
6028.78
6907.8
8088.98
9686.56
11910.6
15163.7
20215.3
28433.5
41777.1
61736.8
86906
109292
114234
120171
17.9143
140.443
193.056
277.277
340.912
413.32
477.992
544.11
607.488
671.35
735.161
800.133
866.694
935.974
1009.26
1087.94
1171.53
1259.64
1361.58
1473.91
1592.57
1721.64
1862.03
2022.96
2215.77
2457.34
2782.04
3254.25
3875.58
4569.03
5309.91
5987.76
6545.9
7019.43
7450.88
7855.89
8239.59
8583.43
8884.94
9131.62
9316.82
9431.38
9478.25
9451.36
9307.89
9019.65
8610.39
8149.56
7725.09
7381.08
7108.43
6877.69
6669.73
6477.18
6296.47
6123.51
5954.53
5786.65
5610.08
5400.66
5172.16
5060.79
5168.18
5473.38
5977.96
6697.56
7674.86
8989.83
10779.3
13297.8
17025.4
22842.5
32199.4
46903.3
67753.1
92159.4
111612
113335
119304
18.8103
146.68
202.176
290.512
357.537
433.74
501.95
571.626
638.332
705.447
772.49
840.775
910.697
983.331
1059.93
1141.9
1228.9
1320.74
1426.29
1542.73
1666.2
1800.62
1947.92
2117.77
2322.17
2579.03
2925.8
3431.08
4089.67
4822.84
5602.85
6313.59
6896.28
7392.02
7852.71
8285.71
8700.11
9076.57
9412.7
9694.64
9915.89
10064.6
10139.6
10129.4
9988.31
9688.09
9254.16
8760.29
8300.58
7925.45
7629.39
7383.45
7166.93
6970.29
6788
6614.19
6443.93
6273.46
6089.97
5868.67
5637.84
5547.49
5690.22
6042.09
6608.6
7409.18
8494.08
9958.44
11967.1
14825.9
19096.8
25758.7
36287.4
52225.6
73606.1
96798.3
113320
113246
118188
19.6993
152.697
211.01
303.344
373.669
453.539
525.172
598.31
668.284
738.599
808.825
880.373
953.602
1029.54
1109.4
1194.6
1284.87
1380.17
1489.09
1609.44
1737.47
1876.94
2030.79
2209.21
2424.85
2696.92
3066.51
3605.02
4300.93
5073.76
5891.82
6632.98
7238.08
7757.89
8246.38
8707.56
9153.46
9563.54
9935.61
10254.6
10514.1
10699.9
10806.5
10816.6
10681.6
10372.9
9917.04
9391.9
8897.27
8490.01
8168.8
7905.9
7679.43
7477.85
7293.68
7119.24
6948.37
6776.12
6585.96
6353.17
6124.32
6059.88
6241.08
6644.11
7278.01
8167.29
9371.91
11005.8
13267.2
16518.5
21403.9
28977.8
40673.8
57666.5
79202.3
100815
114515
113994
117330
20.5525
158.505
219.545
315.774
389.305
472.702
547.638
624.134
697.321
770.797
844.166
918.932
995.42
1074.62
1157.7
1246.07
1339.49
1437.98
1550.03
1674.09
1806.4
1950.61
2110.67
2297.3
2523.84
2811.05
3204.2
3776.49
4509.45
5321.19
6175.95
6944.98
7572.31
8115.94
8631.18
9121.16
9599.2
10043.8
10452.9
10810.6
11110.3
11335.8
11477.3
11511.7
11386.8
11073.4
10599.3
10045.3
9516.79
9076.83
8728.93
8447.3
8209.36
8001.73
7815.01
7639.83
7468.7
7295.18
7098.44
6854.84
6632.26
6598.63
6822.14
7281.53
7989.56
8977.39
10317.2
12145.7
14699.2
18400.5
23969.5
32503.4
45319.9
63141.9
84467.2
104230
115170
115395
116877
21.3326
164.114
227.764
327.8
404.444
491.217
569.334
649.08
725.429
802.037
878.522
956.469
1036.17
1118.59
1204.85
1296.31
1392.77
1494.23
1609.17
1736.73
1873.05
2021.66
2187.58
2382.04
2619.09
2921.52
3339.17
3946.06
4715.07
5563.89
6453.46
7248.98
7898.2
8464.45
9006.84
9526.18
10036.9
10516.8
10964
11361.8
11703.3
11971
12150.4
12213
12102.6
11789.1
11300.8
10721.4
10160.6
9687.96
9312.18
9010.17
8759.2
8544.22
8354.04
8177.69
8006.34
7831.72
7628.37
7374.97
7162.97
7165.23
7435.63
7957.62
8748.22
9847.09
11341.3
13394.5
16285
20496.1
26810.6
36327.1
50174.3
68567.1
89335.6
107049
115391
117324
116348
21.9984
169.534
235.641
339.407
419.09
509.076
590.249
673.138
752.603
832.321
911.905
993.006
1075.89
1161.47
1250.85
1345.36
1444.72
1548.9
1666.56
1797.42
1937.43
2090.13
2261.52
2463.44
2710.58
3028.46
3471.58
4113.35
4916.9
5801.57
6723.69
7544.83
8214.68
8803.49
9373.03
9922.25
10465.9
10982
11468
11907.1
12292.1
12603.9
12824.2
12918.8
12827.3
12518.8
12021.4
11420.7
10830.2
10325.4
9921.01
9597.2
9331.69
9108.02
8913.33
8735.17
8563.4
8387.53
8177.34
7915.54
7718.59
7762.13
8084.96
8677.11
9560.79
10786.2
12458.3
14770.9
18047.2
22827
29936.4
40427.6
55175.4
73861.8
93765.4
109354
115219
118006
115638
22.5093
174.774
243.134
350.588
433.261
526.274
610.381
696.313
778.849
861.663
944.339
1028.57
1114.6
1203.31
1295.75
1393.2
1495.31
1601.98
1722.23
1856.22
1999.59
2156.05
2332.53
2541.52
2798.38
3131.85
3601.11
4277.41
5114.06
6034.25
6986.78
7831.86
8520.95
9133.01
9729.14
10308.9
10885.9
11438.7
11964.3
12445.7
12875.4
13233.1
13496.8
13627.2
13559.2
13261.3
12760.4
12143.4
11526.6
10991.2
10557.9
10211.2
9929.84
9696.18
9495.89
9315.2
9142.68
8965.15
8747.74
8479.38
8302.33
8392.98
8774.93
9446.39
10436.1
11806.8
13684.1
16295.1
20008.1
25410.9
33346.4
44771.5
60254.5
78954
97727.9
111196
114892
117582
115019
22.8304
179.843
250.208
361.378
446.97
542.809
629.731
718.617
804.181
890.083
975.853
1063.21
1152.35
1244.14
1339.58
1439.86
1544.54
1653.56
1776.29
1913.23
2059.56
2219.46
2400.63
2616.29
2882.54
3231.65
3727.6
4438.3
5306.64
6260.92
7241.1
8108.1
8815.23
9452.17
10074.5
10685.7
11296.3
11886.4
12452.1
12976.7
13452.1
13857.1
14166.4
14336.1
14296.5
14015
13516.9
12889.5
12250.8
11687.1
11225.5
10855.3
10556.9
10312
10105.1
9921.26
9747.65
9567.92
9342.86
9070.26
8918.61
9062.72
9511.87
10273.7
11384.8
12923.1
15036.8
17987.7
22187.6
28258.5
37029.5
49314.5
65340
83780.7
101211
112624
114687
117026
114671
22.9338
184.758
256.869
371.777
460.17
558.681
648.306
740.071
828.627
917.612
1006.49
1096.96
1189.2
1284.02
1382.37
1485.37
1592.5
1703.78
1828.9
1968.5
2117.36
2280.4
2465.88
2687.77
2963.1
3328.01
3851.44
4596.28
5494.23
6479.98
7484.83
8371.89
9096.91
9759.89
10408.8
11052.1
11696.8
12324.5
12930.9
13499.1
14021
14474.5
14831.1
15043.6
15037.2
14778.3
14290
13658.8
13003.4
12414.6
11926
11532.2
11216.2
10959.2
10744.8
10557.3
10382.4
10199.9
9966.7
9692.91
9573.14
9777.67
10303.6
11168.8
12419.7
14150.9
16535.3
19869
24601.6
31373.1
40963.7
54003.4
70360.6
88290
104225
113706
114667
116639
114567
22.7951
189.527
263.138
381.705
472.778
573.883
666.116
760.702
852.224
944.293
1036.28
1129.88
1225.19
1322.99
1424.18
1529.8
1639.27
1752.76
1880.16
2022.01
2173.06
2338.91
2528.3
2755.95
3040.16
3421.08
3972.9
4750.75
5675.83
6691.07
7718.71
8623.03
9367.77
10054.8
10732.2
11407.7
12086.8
12752.4
13399.8
14012
14581.2
15083.8
15489.5
15747.7
15779.3
15549.4
15078.2
14450.5
13784.6
13175.1
12661.6
12245.2
11911.3
11641.5
11419
11227.4
11051.1
10865.5
10623.6
10353
10273.1
10545.5
11159.6
12143.4
13554.8
15507
18198.3
21956.9
27261.3
34748.5
45116.9
58779.1
75248.4
92443.1
106794
114513
114805
116365
114686
22.3937
194.139
269.001
391.102
484.772
588.412
683.175
780.541
875.015
970.173
1065.3
1162.02
1260.37
1361.11
1465.05
1573.18
1684.89
1800.53
1930.04
2073.76
2226.71
2395.05
2587.95
2820.88
3113.79
3510.86
4091.97
4901.38
5852.14
6895.55
7942.93
8862.84
9628.47
10337.4
11045
11752.1
12466.1
13169.7
13858.2
14514.7
15131.4
15683.7
16139.8
16446.4
16520.7
16326.4
15880
15263.7
14594.3
13969.3
13434.3
12996.8
12645.6
12363
12132.2
11936.5
11758.9
11569.5
11318.6
11057.2
11026.2
11375
12090.3
13210
14805.2
17008.5
20043.3
24265.4
30170.3
38369.3
49447.9
63579.2
79942.9
96214.7
108947
115097
115084
116168
114945
21.7148
198.605
274.458
399.942
496.14
602.263
699.502
799.623
897.049
995.31
1093.59
1193.44
1294.82
1398.43
1505.03
1615.53
1729.37
1847.08
1978.55
2123.77
2278.35
2448.87
2644.86
2882.7
3184.11
3597.41
4208.73
5048.2
6023.82
7092.89
8155.74
9092.63
9878.27
10609.7
11347.1
12085.4
12834.2
13575.8
14305.2
15006.2
15670.8
16272.9
16780.6
17138.2
17259.8
17107.4
16693.7
16097
15431.8
14797.5
14245.4
13789.3
13422
13127.4
12888.8
12689.4
12511.3
12317.8
12058
11812.5
11840.8
12276.1
13107.4
14382.3
16186.5
18671.8
22085.4
26803.3
33324.7
42211.1
53908.2
68341.4
84392.6
99592.6
110724
115499
115459
116049
115260
20.7539
202.954
279.527
408.195
506.862
615.439
715.121
817.988
918.379
1019.76
1121.23
1224.21
1328.59
1435.01
1544.15
1656.91
1772.75
1892.46
2025.69
2172.08
2328.02
2500.41
2699.09
2941.58
3251.21
3681.05
4323.08
5190.68
6189.78
7280.6
8357.11
9311.6
10116.9
10871.9
11637.6
12407.4
13191
13970.3
14740.4
15485.6
16197.9
16850
17410.9
17821.3
17994.5
17890.5
17517.4
16948.8
16295.9
15659.4
15095.5
14624.5
14243.3
13938.1
13692.9
13491.1
13313.5
13116.2
12848.7
12626.9
12725.5
13259.2
14222.9
15674
17713.3
20511.5
24335.8
29573.9
36712.1
46241.3
58445.4
73006.1
88556.3
102578
112165
115741
115928
116034
115582
19.5306
207.211
284.221
415.839
516.921
627.945
730.059
835.677
939.057
1043.59
1148.26
1254.39
1361.73
1470.88
1582.46
1697.33
1815.06
1936.69
2071.48
2218.72
2375.78
2549.73
2750.72
2997.63
3315.28
3762.16
4434.74
5328.23
6348.72
7458.23
8548.23
9518.58
10345
11122.3
11916.1
12718
13536.1
14352.9
15163.1
15951.8
16711.5
17413.5
18029.7
18494.5
18723.5
18673.8
18349.2
17817.2
17185
16554
15984.8
15503.5
15111.7
14798.3
14548.4
14346.3
14170.8
13970.5
13698.1
13508.7
13689.6
14335.1
15449
17098.3
19399.1
22539.3
26801
32573.1
40312.1
50419.6
63004.9
77519.1
92404
105181
113310
115863
116401
115997
115768
18.0911
211.376
288.562
422.87
526.301
639.788
744.347
852.733
959.136
1066.86
1174.76
1284.03
1394.3
1506.1
1620
1736.85
1856.35
1979.81
2115.95
2263.71
2421.66
2596.86
2799.88
3050.95
3376.56
3841
4543.42
5460.56
6500.11
7626.17
8727.92
9714.9
10562.7
11361
12183.1
13017.5
13869.6
14723.5
15573.1
16404.3
17210.6
17963
18636
19156.6
19445.1
19455.5
19187.1
18700
18097.1
17479.7
16912.3
16426.5
16028.6
15710.3
15458.8
15259.2
15087.9
14886.3
14613
14465.9
14742.3
15514.3
16797
18666.9
21254.8
24762.6
29481.5
35789.7
44097.1
54701.1
67532
81832.8
95916.9
107419
114211
115896
116558
115903
115871
16.4895
215.436
292.601
429.31
534.999
650.983
758.022
869.203
978.668
1089.62
1200.79
1313.19
1426.35
1540.72
1656.81
1775.5
1896.65
2021.84
2159.08
2307.07
2465.75
2641.89
2846.71
3101.65
3435.34
3917.78
4649.03
5587.58
6644.12
7783.48
8895.29
9901.98
10769.1
11588.5
12439.6
13305.9
14191.2
15081.7
15970.1
16842.7
17695.1
18498.3
19228
19806.6
20157.9
20233.9
20028.9
19595.1
19029.8
18434.3
17876.4
17392.8
16994.2
16675.7
16426.6
16233.2
16069.1
15868.3
15599.7
15506.7
15892.2
16806.3
18277.2
20389.7
23288
27184.5
32371.7
39205.1
48033.2
59037.9
71974.2
85908.2
99086.1
109319
114906
115898
116514
115834
115944
14.7691
219.366
296.411
435.218
543.03
661.549
771.124
885.135
997.703
1111.92
1226.38
1341.92
1457.92
1574.75
1692.91
1813.31
1936
2062.81
2200.83
2348.87
2508.09
2684.91
2891.35
3149.9
3491.76
3992.61
4751.53
5709.09
6780.88
7930.98
9053.53
10080.1
10964.2
11805.8
12685.8
13583.1
14500.7
15427.7
16354.1
17267
18165.1
19019
19803.8
20442.8
20860.1
21007.4
20872.3
20499.7
19980.3
19415.1
18874.7
18400.6
18007.8
17694.9
17453.3
17271.1
17118
16920.7
16664.2
16638.3
17146.8
18219.2
19897.5
22273.3
25502.2
29802.3
35459.4
42794.7
52081.9
63381.2
76284
89714.9
101912
110908
115430
115923
116455
115815
115993
12.9702
223.111
300.035
440.688
550.447
671.516
783.695
900.576
1016.29
1133.82
1251.6
1370.24
1489.03
1608.22
1728.33
1850.3
1974.43
2102.66
2241.15
2389.16
2548.76
2726.07
2933.93
3195.93
3545.84
4065.8
4850.7
5824.81
6910.78
8071.37
9205.59
10249
11147.8
12012.7
12921.3
13849.1
14798.6
15761.6
16724.9
17677.2
18620.3
19524.4
20363.4
21063.5
21550.4
21774.1
21715.1
21411.1
20945.7
20419
19904.2
19447.2
19067.3
18766.5
18538.9
18373.8
18236.4
18046.2
17811.5
17867.7
18512.6
19759.4
21663.3
24321
27896.6
32608.2
38726.4
46527.7
56201.1
67683.1
80419.6
93231.7
104404
112220
115818
115984
116408
115851
116034
11.1303
226.62
303.467
445.814
557.35
680.924
795.781
915.572
1034.47
1155.36
1276.48
1398.21
1519.7
1641.15
1763.06
1886.46
2011.88
2141.31
2280.06
2428.02
2587.86
2765.55
2974.68
3239.88
3597.8
4137.65
4946.24
5934.79
7034.36
8205.05
9349.49
10406.4
11319.3
12209.6
13146.2
14104.5
15085.5
16083.2
17081.9
18073.5
19060.8
20014.8
20908.4
21669.4
22229.1
22532.5
22555.1
22326.4
21922.5
21442.5
20961.5
20529.3
20169.7
19888.2
19681.4
19540.2
19423.5
19244.7
19044.7
19200.4
19994.3
21431.2
23577
26532.2
30465.2
35588.5
42148.9
50369.1
60346.8
71898.5
84345.8
96446.2
106575
113290
116098
116079
116375
115922
116068
9.29664
229.884
306.687
450.651
563.855
689.828
807.427
930.17
1052.29
1176.58
1301.04
1425.82
1549.94
1673.52
1797.1
1921.79
2048.32
2178.72
2317.63
2465.53
2625.51
2803.49
3013.78
3281.82
3647.96
4208.21
5038.05
6039.22
7151.42
8329.84
9481.43
10549.9
11478.7
12396.4
13361
14349.5
15361.6
16392.2
17425.3
18456.2
19486.7
20490.2
21439.1
22262.4
22896.7
23281.9
23390.1
23242.4
22907
22481.5
22042.4
21643.1
21311.6
21056.7
20878.1
20767.8
20677
20514.8
20365
20638.3
21593.7
23235.7
25637.4
28901.8
33197.3
38724.4
45698.5
54281.1
64475.5
75986.5
88034.9
99354.4
108448
114150
116297
116198
116361
116013
116095
7.53549
232.94
309.713
455.207
570.034
698.292
818.679
944.413
1069.79
1197.5
1325.33
1453.11
1579.77
1705.35
1830.45
1956.27
2083.75
2214.92
2353.91
2501.76
2661.79
2840.01
3051.38
3322.05
3696.75
4277.48
5126.16
6138.19
7261.39
8444.98
9602.61
10680.8
11627.7
12573.7
13565.9
14584.4
15626.8
16689.7
17756.9
18825.4
19898.2
20950.6
21955.1
22842.5
23553.3
24021.1
24217.4
24155.8
23895.4
23531.6
23142.4
22784
22488.4
22267.9
22125.1
22053
21993.9
21854.7
21771.5
22180.3
23310.1
25170.3
27839.4
31420.6
36077.4
41992.6
49343.4
58224.7
68545.9
79911.5
91467
101959
110046
114833
116432
116331
116372
116121
116116
5.94346
235.795
312.556
459.499
575.946
706.388
829.583
958.339
1086.99
1218.17
1349.35
1480.09
1609.18
1736.63
1863.1
1989.92
2118.18
2249.95
2388.99
2536.79
2696.82
2875.27
3087.72
3361
3744.56
4345.38
5210.61
6231.79
7364.25
8551.96
9715.35
10800.7
11767.7
12742
13761.4
14809.5
15882
16977.5
18077.2
19181.4
20295.6
21396.1
22456.4
23409.1
24197.5
24747.2
25034.4
25063.1
24883.4
24588.2
24256.3
23946.6
23694.7
23516.4
23417.3
23390.9
23369.8
23261.8
23261.7
23823.2
25139.8
27229.4
30174.1
34075
39085.9
45366.4
53049.4
62160.9
72519.6
83643.4
94629.5
104269
111394
115364
116515
116476
116407
116228
116132
4.63132
238.377
315.231
463.583
581.618
714.183
840.178
971.983
1103.94
1238.6
1373.12
1506.75
1638.19
1767.38
1895.09
2022.75
2151.64
2283.89
2422.93
2570.69
2730.68
2909.42
3123.06
3399.05
3791.58
4411.74
5291.31
6320.06
7460.23
8651.66
9819.45
10910.5
11899.6
12902.1
13948.5
15025.4
16127.3
17254.5
18385.3
19524.4
20678.5
21827.2
22943.3
23962.2
24826.4
25458.8
25839.2
25960.9
25866.9
25646.2
25378.6
25125.1
24924.7
24796.3
24748.7
24775.3
24798.4
24731.3
24831
25561.7
27076.3
29404.2
32629.1
36848
42199.8
48816.2
56781.5
66051.8
76362.3
87158.6
97516.8
106297
112518
115770
116560
116598
116430
116298
116144
3.65666
240.601
317.792
467.486
587.042
721.716
850.514
985.373
1120.63
1258.81
1396.66
1533.12
1666.8
1797.6
1926.41
2054.79
2184.19
2316.79
2455.83
2603.54
2763.5
2942.61
3157.56
3436.35
3837.95
4476.41
5368.13
6403.17
7549.82
8744.9
9915.52
11012.6
12024.6
13054.7
14127.7
15232.5
16362.5
17519.5
18681
19854
21047.5
22244.6
23416
24501
25439.4
26155.7
26629.4
26845.8
26841.5
26700.6
26503.5
26313.3
26171.8
26100.8
26112.6
26199
26273
26257.7
26473.8
27388.1
29110.8
31683
35189
39719.4
45393.4
52310.7
60504.8
69862.6
80044.5
90440.6
100130
108061
113446
116078
116581
116635
116439
116349
116155
3.04575
242.404
320.25
471.175
592.25
729.062
860.658
998.53
1137.1
1278.79
1419.96
1559.19
1695.01
1827.31
1957.09
2086.06
2215.87
2348.73
2487.75
2635.43
2795.39
2974.91
3191.35
3473.09
3884.06
4539.25
5440.91
6481.37
7633.86
8831.84
10003.7
11108.4
12143.2
13200.7
14299.9
15431.7
16588.1
17772.9
18964.8
20171.3
21403.9
22648.4
23873.9
25024.7
26036.9
26837.1
27403
27714.5
27803
27746.3
27625.3
27504.6
27428.7
27422.5
27501.1
27654
27785.2
27834.1
28183
29293
31232
34052.1
37836.2
42666.7
48639.2
55818.5
64185.5
73561.7
83542.2
93478.8
102474
109584
114204
116304
116596
116645
116458
116394
116160
2.84492
243.761
322.584
474.65
597.337
736.304
870.633
1011.47
1153.33
1298.56
1443.02
1584.97
1722.85
1856.52
1987.16
2116.61
2246.71
2379.76
2518.78
2666.45
2826.45
3006.44
3224.58
3509.59
3929.98
4599.92
5509.69
6554.72
7711.85
8910.71
10083.8
11198.1
12256.1
13340.7
14465.4
15623.3
16805.1
18016.5
19237.4
20476.6
21747.7
23038.2
24316.3
25533
26618.7
27501.6
28157.5
28563.9
28747.4
28778.1
28737.7
28692.1
28688
28753.2
28905.7
29131.1
29325.6
29452.4
29950.3
31264.9
33426.3
36495.3
40551
45665.8
51909.1
59308.3
67792.2
77121.4
86836.9
96268.3