/*--------------------------------*- C++ -*----------------------------------*\
| =========                 |                                                 |
| \\      /  F ield         | OpenFOAM: The Open Source CFD Toolbox           |
|  \\    /   O peration     | Version:  4.1                                   |
|   \\  /    A nd           | Web:      www.OpenFOAM.org                      |
|    \\/     M anipulation  |                                                 |
\*---------------------------------------------------------------------------*/
FoamFile
{
    version     2.0;
    format      ascii;
    class       surfaceScalarField;
    location    "27";
    object      phi;
}
// * * * * * * * * * * * * * * * * * * * * * * * * * * * * * * * * * * * * * //

dimensions      [0 3 -1 0 0 0 0];

internalField   nonuniform List<scalar> 
13220
(
-881.124
2181.11
-1359.05
1778.2
-1814.21
1755.12
-2156.18
1641.93
-2416.79
1560.87
-2596.82
1479.98
-2697.72
1400.85
-2718.81
1321.33
-2660.47
1241.61
-2525.84
1165.31
-2322.97
1097.36
-2045.4
1022.38
-1643.11
897.682
-1034.02
691.194
265.885
2.73831
2178.51
-33.2635
1814.36
-151.157
1873.17
-235.207
1726.13
-321.319
1647.12
-387.26
1546.06
-434.682
1448.41
-460.865
1347.63
-464.768
1245.62
-438.369
1139.02
-366.254
1025.33
-255.489
911.755
-158.184
800.554
-98.6931
632.086
167.22
-161.62
2340.25
-387.172
2040.03
-597.365
2083.47
-746.847
1875.72
-889.226
1789.62
-998.968
1655.91
-1091.55
1541.09
-1168.55
1424.75
-1223.21
1300.39
-1213.78
1129.75
-1057.74
869.467
-696.688
551.042
-256.314
360.917
10.0901
367.426
177.321
-57.4022
2397.78
-186.655
2169.43
-282.781
2179.73
-350.733
1943.83
-423.995
1863.02
-479.101
1711.17
-531.27
1593.41
-578.238
1471.87
-623.902
1346.22
-658.341
1164.33
-644.01
855.283
-507.459
414.719
-242.051
95.8833
27.2894
98.7733
204.624
82.8496
2315.08
8.86253
2243.57
-0.107877
2188.86
-0.521487
1944.4
-2.81236
1865.47
3.6349
1704.87
15.4679
1581.71
31.5603
1455.89
42.7045
1335.17
22.022
1185.17
-84.7427
962.084
-295.137
625.764
-444.024
245.579
-353.052
8.71004
-148.439
162.382
2152.84
125.858
2280.25
154.76
2160.13
192.362
1906.95
237.97
1819.99
285.621
1657.32
343.016
1524.38
408.69
1390.27
479.658
1264.24
531.533
1133.28
510.888
982.758
342.809
793.554
71.2801
516.476
-96.3705
175.399
-244.777
154.031
1998.95
158.225
2276.18
193.155
2125.32
236.144
1864.09
289.034
1767.21
340.243
1606.2
396.343
1468.37
457.482
1329.2
520.783
1201
573.172
1081.02
608.026
947.949
577.829
824.244
440.266
654.767
201.164
416.155
-43.6386
96.7778
1902.26
132.476
2240.57
168.002
2089.88
204.899
1827.26
245.414
1726.74
283.261
1568.39
317.581
1434.06
349.003
1297.79
373.92
1176.1
389.385
1065.45
414.167
923.172
428.7
809.272
372.539
710.408
218.309
569.139
174.693
36.639
1865.67
94.4435
2182.81
132.461
2051.9
169.156
1790.63
199.272
1696.71
233.275
1534.46
258.794
1408.63
277.219
1279.43
285.755
1167.64
297.953
1053.45
322.287
898.905
347.003
785.144
314.899
743.11
195.456
689.533
370.132
-12.7551
1878.35
45.5426
2124.47
83.4401
2013.94
113.411
1760.62
137.48
1672.57
171.196
1500.7
202.202
1377.57
248.196
1233.39
304.074
1111.71
372.612
984.688
419.795
851.694
415.676
788.578
338.99
819.156
198.541
829.113
568.672
-38.0645
1916.23
-22.1614
2108.39
5.74307
1985.81
4.94623
1761.19
7.62522
1669.62
17.5451
1490.53
52.0161
1342.78
140.217
1144.86
268.955
982.63
393.231
860.169
444.749
799.814
403.763
829.655
294.808
928.054
155.965
967.866
724.623
-24.8867
1940.86
-127.25
2210.54
-172.837
2031.13
-238.448
1826.55
-296.189
1727.05
-349.182
1543.25
-365.11
1358.36
-327.178
1106.63
-251.494
906.567
-170.89
779.115
-100.997
729.626
-37.3343
765.145
12.1653
877.753
28.287
950.804
752.908
70.0475
1870.54
-47.121
2327.49
-141.134
2124.87
-250.653
1935.85
-358.977
1835.13
-474.356
1658.43
-577.592
1461.4
-669.97
1198.82
-743.844
980.295
-768.25
803.384
-672.032
633.271
-412.437
505.48
-178.748
643.934
-58.9928
830.883
693.913
-367.104
2237.47
-696.321
2656.63
-940.589
2369
-1156.32
2151.52
-1319.98
1998.67
-1462.02
1800.43
-1585.75
1585.04
-1710.04
1323.08
-1790.18
1060.37
-1700.6
713.747
-1252.04
184.665
-683.613
-63.1578
-316.049
276.24
-61.3093
576.008
632.613
-651.404
-1119.53
-1481.06
-1706.78
-1808.54
-1867.74
-1823.73
-1795.39
-1765.31
-1698.14
-1640.66
-1599.94
-1271.38
-742.942
-0.0118956
24.1318
-24.158
24.1159
24.1024
24.0864
100.19
-76.1168
100.174
100.161
100.145
176.178
-76.0454
176.159
176.147
262.929
-86.7984
262.917
262.9
262.889
361.206
-98.3336
361.193
361.176
457.846
-96.6808
457.829
457.819
457.802
561.946
-104.153
561.929
561.92
561.904
671.075
-109.18
671.057
671.05
775.912
-104.878
775.904
775.886
775.881
879.172
-103.31
879.164
879.146
965.321
-86.18
965.301
965.295
965.277
1076.66
-111.39
1076.64
1076.64
1076.62
1168.28
-91.6617
1168.26
1168.26
1249.47
-81.2335
1249.47
1249.45
1249.45
1327.86
-78.426
1327.86
1327.84
1327.84
1390.78
-62.9618
1390.79
1390.76
1436.02
-45.2534
1436
1436
1435.97
1480.62
-44.6387
1480.6
1480.61
1521.23
-40.6519
1521.25
1521.22
1521.24
1596.32
-75.119
1596.35
1596.3
1596.34
1572.36
23.9248
1572.4
1572.31
1248.3
324.034
1248.2
1248.19
1244.71
1238.16
1219.66
1196.39
-19.1826
1172.93
1162.29
1165.77
1174.93
1188.19
1203.83
1216.34
1205.04
634.899
528.763
635.706
640.925
651.495
636.035
621.413
608.612
596.2
572.331
-460.6
1002.74
-430.38
-400.756
-370.992
-339.73
-276.953
-155.211
-32.6665
92.1894
214.43
-1167.79
1502.15
-979.236
-788.957
-597.164
-403.347
-206.196
14.4508
247.808
478.774
-1403.14
2128.14
-1148.72
-880.359
-592.579
-304.23
-14.6374
274.84
566.489
894.652
-1589.37
2831.86
-1242.11
-889.403
-532.753
-154.144
235.787
626.496
1017.55
1409.69
-1619.76
3448.87
-1186.23
-744.528
-297.904
154.192
612.059
1113.03
1618.85
2125.59
2636.13
-1099.63
4258.17
-551.557
30.398
619.533
1211.79
1806.17
2391.99
2947.74
3502.14
-41.2736
4094.19
479.34
980.741
980.724
377.258
603.396
193.612
183.639
193.562
-3.60863
197.174
-3.64738
-72.0523
68.399
-73.0051
0.918258
-73.0028
100.795
-173.83
372.981
-272.185
372.954
801.342
-428.382
801.317
1396.04
-594.715
2062.73
-666.713
2062.74
2798.11
-735.388
2798.12
3599.94
-801.829
4434.2
-834.252
4434.2
5245.26
-811.056
6077.82
-832.567
6077.82
7021.17
-943.352
7021.18
8083.58
-1062.41
9258.45
-1174.86
9258.45
10654.4
-1395.97
10654.4
12338.4
-1683.96
14367.7
-2029.35
14367.7
16687.6
-2319.82
19003.8
-2316.18
19003.8
21325.4
-2321.6
21325.4
23577
-2251.61
25706.1
-2129.13
25706.1
28239.4
-2533.31
28239.4
31504.9
-3265.49
37412.7
-5907.78
37412.7
45095.5
-7682.78
51657.6
-6562.15
51657.6
56198
-4540.36
56198
57467.6
-1269.58
56337
1130.53
56337
51567.4
4769.66
51567.4
42524
9043.36
31201.2
11322.8
31201.2
15027.7
16173.5
-5845.07
20872.8
-5845.07
-40782
34936.9
-40782
-91546.3
50764.3
-157647
66100.9
-157647
-238600
80953
-238600
-338438
99837.4
-446759
108322
-446759
-577093
130334
-710277
133184
-710277
-861027
150750
-861027
174358
-3935.66
-18557.3
-4087.61
-21492.7
-4266.08
-22791.1
-4458.83
-24425.8
-4646.88
-25939.5
-4827.55
-27534.1
-5009.65
-29083.6
-5204.43
-30599.2
-5421.31
-32073.1
-5670.74
-33513
-5963.72
-34893.6
-6308.25
-36165.8
-6707.76
-37305.2
-7160.27
-38342.7
-7659.33
-39346.6
-8198.89
-40367.5
-8782.28
-41432.2
-9422.44
-42580.4
-10138.3
-43872.3
-10937.7
-45342.2
-11792.6
-47040.9
-12634.8
-48949.8
-13411.8
-50943.6
-14128.9
-53044.4
-14816.7
-55431.7
-15486.5
-58312.6
-16138.8
-61719.8
-16797.1
-65667.8
-17477
-70072
-18177
-74634.6
-18915.6
-79103
-19707.4
-83408.9
-20533.4
-87502.9
-21353.7
-91434.4
-22130
-95163.8
-22843.1
-98628.6
-23477.1
-101843
-24005.3
-104702
-24366.1
-106843
-24447.9
-107646
-24157
-106455
-23514.9
-103246
-22716
-99028.7
-22029.1
-95306.9
-21602.3
-92689.3
-21421
-90499.1
-21425.3
-87804
-21574.5
-84243.3
-21818.3
-79796.4
-22068.9
-74475.9
-22216.6
-68290
-22188.3
-61437.4
-21991
-54359.4
-21705
-47537.6
-21433.8
-41197.8
-21255.4
-35272.6
-21210
-29615.5
-21310.2
-24133.7
-21548.7
-18779.2
-21898.2
-13539
-22314.4
-8451.63
-22760.6
-3599.36
-23263.3
965.054
-23962.7
5411.55
-24962.1
10133
-26287.4
15510.9
-28005.8
21894.3
-30205.1
29727
-33008.3
39605.3
-36588
52367.9
-41192.1
69249.5
-47185.1
92156.7
-55119
124151
-65857.1
170369
-80777.3
239565
-102020
346124
-132012
511522
-167248
747332
990932
-4100.81
-18472.8
-4265.75
-21327.7
-4454.69
-22602.2
-4651.84
-24228.6
-4841.89
-25749.5
-5026.8
-27349.2
-5217.35
-28893
-5425.16
-30391.4
-5659.61
-31838.6
-5930.8
-33241.9
-6249.46
-34574.9
-6622.52
-35792.8
-7051.62
-36876.1
-7532.96
-37861.3
-8059.48
-38820.1
-8625.8
-39801.2
-9235.91
-40822.1
-9900.39
-41915.9
-10630
-43142.7
-11428.4
-44543.8
-12278.3
-46191
-13122.2
-48105.8
-13905.6
-50160.3
-14625.9
-52324
-15319.9
-54737.7
-16008.3
-57624.2
-16685.4
-61042.6
-17364.1
-64989.1
-18060.6
-69375.6
-18771.2
-73924
-19510.1
-78364.2
-20300
-82619
-21134.7
-86668.1
-21978.2
-90590.9
-22783.7
-94358.2
-23525.8
-97886.5
-24188.6
-101180
-24744.7
-104146
-25142.7
-106445
-25282.1
-107506
-25064.6
-106673
-24487.7
-103823
-23709.4
-99807
-22985.4
-96030.9
-22488.3
-93186.4
-22235.1
-90752.2
-22185.7
-87853.4
-22312.2
-84116.9
-22569.8
-79538.8
-22864.4
-74181.3
-23069.1
-68085.4
-23095.6
-61410.9
-22948.5
-54506.5
-22711.4
-47774.8
-22480.7
-41428.4
-22316.8
-35436.6
-22242.2
-29690
-22263
-24112.9
-22381.5
-18660.7
-22601.2
-13319.4
-22923.1
-8129.72
-23346.9
-3175.49
-23901.7
1519.82
-24667.7
6177.53
-25717.8
11183.2
-27097.7
16890.8
-28878.4
23675
-31152.9
32001.5
-34048.4
42500.8
-37742.5
56062
-42490.3
73997.3
-48664.9
98331.3
-56826.3
132313
-67858.1
181401
-83272.2
254979
-105636
368487
-137126
543012
-169584
779790
972098
-4212.74
-18379.9
-4384.89
-21155.6
-4578.58
-22408.5
-4776.11
-24031.1
-4966.56
-25559
-5154.8
-27160.9
-5352.09
-28695.7
-5569.86
-30173.7
-5817.96
-31590.5
-6106.06
-32953.8
-6443.81
-34237.2
-6836.64
-35399.9
-7285.05
-36427.7
-7784.71
-37361.6
-8328.79
-38276
-8912.76
-39217.2
-9540.57
-40194.3
-10221.5
-41235.1
-10959.2
-42405
-11751
-43752
-12584.6
-45357.4
-13417.1
-47273.3
-14200.2
-49377.2
-14922.9
-51601.4
-15618.6
-54042
-16316.8
-56925.9
-17014.2
-60345.2
-17713.4
-64289.9
-18426.7
-68662.3
-19151.5
-73199.2
-19896.7
-77619
-20685.4
-81830.2
-21520.5
-85833.1
-22372.9
-89738.5
-23194
-93537.1
-23951.8
-97128.7
-24633.5
-100498
-25209.1
-103571
-25628.4
-106026
-25800
-107335
-25625.6
-106847
-25092.8
-104356
-24337.7
-100562
-23600.1
-96768.4
-23062.6
-93723.9
-22763.5
-91051.4
-22675.1
-87941.8
-22777.1
-84014.8
-23028.9
-79287
-23335.2
-73875.1
-23563.5
-67857
-23618.6
-61355.8
-23500.4
-54624.7
-23291.3
-47983.8
-23089.6
-41630.1
-22956.9
-35569.3
-22917.2
-29729.7
-22974.6
-24055.6
-23125.6
-18509.6
-23367.8
-13077.2
-23705.8
-7791.71
-24153.2
-2728.18
-24751.1
2117.72
-25569.4
6995.83
-26674.1
12287.9
-28117.2
18333.9
-29972.5
25530.3
-32337.5
34366.5
-35344.2
45507.5
-39176.2
59894.1
-44095.6
78916.7
-50478.6
104714
-58890.9
140725
-70292.5
192803
-86541.4
271228
-110773
392718
-143570
575810
-168593
804813
936689
-4339.47
-18277.7
-4520.12
-20974.9
-4718.7
-22209.9
-4917.37
-23832.5
-5109.26
-25367.1
-5302.25
-26968
-5508.13
-28489.8
-5738.03
-29943.8
-6001.94
-31326.6
-6309.26
-32646.4
-6668.61
-33877.8
-7083.61
-34984.9
-7553.02
-35958.3
-8072.2
-36842.5
-8635.31
-37712.9
-9238.46
-38614.1
-9884.58
-39548.2
-10581
-40538.7
-11326.9
-41659.1
-12113.4
-42965.5
-12930.9
-44539.9
-13751.1
-46453
-14534.2
-48594.2
-15261.3
-50874.2
-15959.4
-53344
-16664.9
-56220.4
-17379.8
-59630.3
-18099.8
-63570
-18832.4
-67929.7
-19574.8
-72456.7
-20331.1
-76862.7
-21123.9
-81037.4
-21962.9
-84994.1
-22827.6
-88873.8
-23669.6
-92695.1
-24448.5
-96349.9
-25152.8
-99794.1
-25753.8
-102970
-26201.9
-105577
-26413.6
-107123
-26291
-106970
-25810
-104837
-25084.1
-101288
-24336.2
-97516.3
-23756.3
-94303.8
-23405.3
-91402.4
-23271.3
-88075.8
-23343.4
-83942.7
-23586.5
-79043.9
-23904.8
-73556.7
-24160.5
-67601.3
-24250.3
-61266.1
-24167.6
-54707.4
-23991.2
-48160.2
-23817.4
-41803.9
-23707.1
-35679.6
-23684.1
-29752.7
-23756.2
-23983.5
-23925
-18340.8
-24190.4
-12811.8
-24556.3
-7425.77
-25037.3
-2247.2
-25679
2759.43
-26547.9
7864.71
-27708.8
13448.8
-29218.6
19843.7
-31153.8
27465.5
-33616
36828.6
-36742.9
48634.5
-40724.6
63875.7
-45825.2
84017.3
-52419.7
111309
-61105.3
149411
-73040.4
204738
-90568.9
288757
-116876
419025
-149667
608602
-167480
822626
899542
-4467.66
-18166.3
-4655.58
-20787
-4857.16
-22008.3
-5056.3
-23633.3
-5250.08
-25173.3
-5448.88
-26769.2
-5664.67
-28274
-5908.06
-29700.4
-6188.99
-31045.7
-6516.49
-32318.9
-6897.86
-33496.4
-7334.68
-34548.1
-7823.85
-35469.2
-8360.69
-36305.6
-8941.05
-37132.5
-9561.94
-37993.2
-10224.5
-38885.6
-10933.1
-39830
-11684.1
-40908.1
-12463.6
-42186
-13263.2
-43740.3
-14068.7
-45647.6
-14849.4
-47813.5
-15581.8
-50141.8
-16283.8
-52642
-16994.3
-55509.9
-17723.7
-58900.9
-18463.8
-62829.8
-19217
-67176.5
-19980.4
-71693.3
-20753
-76090.1
-21554
-80236.4
-22398.1
-84150
-23273.7
-87998.3
-24136.8
-91832
-24939.6
-95547.1
-25667.5
-99066.1
-26295
-102342
-26774
-105099
-27026.7
-106870
-26957.3
-107039
-26531.4
-105263
-25841.6
-101978
-25092.5
-98265.3
-24476.6
-94919.7
-24075.1
-91803.9
-23893
-88257.9
-23928.9
-83906.7
-24154.5
-78818.4
-24475.8
-73235.4
-24752.5
-67324.7
-24875.1
-61143.4
-24829.6
-54753
-24687.7
-48302.1
-24543.6
-41947.9
-24459.9
-35763.3
-24462.2
-29750.5
-24558.5
-23887.1
-24751.9
-18147.4
-25044.4
-12519.2
-25441
-7029.21
-25957.6
-1730.64
-26643.9
3445.74
-27564.8
8785.66
-28783.8
14667.8
-30362.9
21422.8
-32381.7
29484.4
-34946.2
39393.1
-38199.4
51887.7
-42334.2
68010.5
-47611.2
89294.4
-54411.3
118109
-63427.9
158427
-76149.5
217460
-95355.1
307962
-123505
447175
-154620
639717
-162960
830966
844904
-4600.52
-18046.1
-4794.57
-20593
-4997.64
-21805.2
-5197.18
-23433.8
-5393.87
-24976.7
-5599.89
-26563.1
-5827.04
-28046.9
-6085.35
-29442
-6384.73
-30746.3
-6733.59
-31970.1
-7137.5
-33092.5
-7595.77
-34089.9
-8103.69
-34961.2
-8656.82
-35752.5
-9253.05
-36536.3
-9890.4
-37355.8
-10567.6
-38208.5
-11285.5
-39112.2
-12038.5
-40155.1
-12809.9
-41414.5
-13592
-42958.3
-14381.6
-44857.9
-15158.1
-47036.9
-15895.7
-49404.2
-16603.4
-51934.3
-17318.6
-54794.7
-18059.5
-58160.1
-18818.4
-62070.9
-19592.9
-66402
-20380
-70906.1
-21174
-75296.1
-21988.8
-79421.6
-22841.1
-83297.7
-23727.1
-87112.3
-24610.9
-90948.2
-25440.3
-94717.7
-26194.8
-98311.6
-26851.7
-101685
-27365
-104585
-27662
-106573
-27649
-107052
-27282.1
-105629
-26634.6
-102625
-25892
-99007.9
-25246
-95565.7
-24795.3
-92254.5
-24562.3
-88491
-24556
-83913
-24756
-78618.5
-25072.3
-72919
-25364.4
-67032.6
-25518.9
-60988.9
-25513.2
-54758.7
-25408.8
-48406.5
-25294.5
-42062.2
-25235
-35822.8
-25260.9
-29724.7
-25382.5
-23765.5
-25603.2
-17926.7
-25925.3
-12197.1
-26353.5
-6601.09
-26905
-1179.06
-27635
4175.71
-28608.8
9759.45
-29887.5
15946.5
-31538
23073.3
-33644
31590.4
-36315.1
42064.2
-39696.7
55269.3
-43978.4
72292.2
-49417.3
94733.2
-56431.3
125123
-65900
167896
-79712.2
231272
-100798
329048
-130052
476429
-157709
667374
-156715
829971
788027
-4737.97
-17917.4
-4936.57
-20394.4
-5139.55
-21602.3
-5339.43
-23233.9
-5540.06
-24776
-5754.75
-26348.4
-5994.77
-27806.9
-6269.52
-29167.3
-6588.69
-30427.2
-6959.85
-31598.9
-7386.52
-32665.9
-7865.69
-33610.7
-8391.15
-34435.8
-8959
-35184.6
-9569.25
-35926
-10221.1
-36704
-10910.7
-37518.9
-11634.5
-38388.3
-12386.1
-39403.5
-13148.3
-40652.4
-13913.5
-42193
-14685.9
-44085.5
-15455
-46267.9
-16197.6
-48661.6
-16913.4
-51218.5
-17634.7
-54073.3
-18385.1
-57409.7
-19161
-61295
-19957.1
-65605.8
-20770.3
-70093
-21590.4
-74476
-22424.8
-78587.2
-23289.3
-82433.2
-24185.9
-86215.7
-25088.9
-90045.2
-25946.3
-93860.2
-26730.4
-97527.5
-27419.6
-100996
-27970
-104035
-28314
-106229
-28360.3
-107006
-28056.8
-105933
-27458.3
-103224
-26730.9
-99735.4
-26061.9
-96234.7
-25564.8
-92751.7
-25278.5
-88777.2
-25223.5
-83968
-25388.1
-78453.9
-25689.4
-72617.7
-25989.7
-66732.3
-26173.6
-60804.9
-26210
-54722.4
-26147.5
-48468.9
-26066.2
-42143.5
-26031.4
-35857.6
-26079.4
-29676.6
-26225.6
-23619.3
-26474.6
-17677.8
-26827.9
-11843.8
-27288.7
-6140.29
-27875.6
-592.201
-28649.3
4949.42
-29677.4
10787.5
-31018.1
17287.2
-32743.2
24798.4
-34939.7
33787
-37719.8
44844.3
-41225.9
58775.4
-45641.4
76707.6
-51233.1
100325
-58511.2
132401
-68624.8
178010
-83821.9
246469
-106741
351967
-136122
505810
-158980
690232
-148333
819324
720647
-4880.28
-17781.1
-5081.73
-20192.9
-5283.18
-21400.8
-5483.57
-23033.5
-5689.34
-24570.3
-5914.25
-26123.5
-6168.69
-27552.4
-6461.36
-28874.6
-6801.54
-30087
-7195.7
-31204.7
-7645.09
-32216.5
-8144.39
-33111.4
-8686.17
-33894
-9267.11
-34603.7
-9889.28
-35303.9
-10553.1
-36040.1
-11252.3
-36819.7
-11978.8
-37661.8
-12725.6
-38656.8
-13476.9
-39901.1
-14226.7
-41443.3
-14982.5
-43329.7
-15741.3
-45509
-16487.7
-47915.2
-17213.5
-50492.6
-17942.6
-53344.3
-18701.5
-56650.8
-19492.7
-60503.8
-20310.6
-64788
-21151.2
-69252.4
-22001.7
-73625.5
-22861.4
-77727.5
-23743.3
-81551.3
-24652.1
-85306.9
-25572.4
-89124.9
-26458.7
-92974
-27275.2
-96711.1
-27999.5
-100272
-28590.4
-103444
-28984.3
-105836
-29092.9
-106898
-28857
-106169
-28314
-103767
-27610.3
-100439
-26926.4
-96918.5
-26386.6
-93291.5
-26046
-89117.8
-25936.1
-84077.9
-26055.1
-78334.9
-26329.8
-72343
-26629.3
-66432.7
-26838.8
-60595.4
-26918.5
-54642.7
-26902.6
-48484.9
-26858.9
-42187.2
-26850.9
-35865.7
-26920.2
-29607.2
-27088.7
-23450.8
-27364.6
-17401.9
-27749.7
-11458.7
-28245
-5645.04
-28868.4
31.2311
-29686.2
5767.21
-30770
11871.3
-32175.5
18692.6
-33978.2
26601.2
-36267.3
36076
-39153.8
47730.8
-42774.2
62395.8
-47310.1
81243.6
-53068.5
106083
-60716.7
140049
-71716
189009
-88508.1
263261
-112949
376408
-141339
534199
-158278
707172
-138239
799285
648509
-5027.44
-17637.8
-5230.07
-19990.3
-5428.76
-21202.1
-5630.01
-22832.2
-5842.21
-24358.1
-6078.9
-25886.9
-6349.31
-27282
-6661.34
-28562.6
-7023.59
-29724.7
-7441.15
-30787.2
-7912.89
-31744.7
-8431.36
-32592.9
-8988.18
-33337.2
-9580.58
-34011.3
-10212.3
-34672.1
-10884.9
-35367.6
-11590.2
-36114.4
-12316.3
-36935.7
-13055.5
-37917.6
-13794.7
-39161.9
-14529.9
-40708.1
-15271.5
-42588.1
-16020.1
-44760.5
-16767.8
-47167.5
-17503.7
-49756.7
-18241.7
-52606.3
-19009
-55883.6
-19814.5
-59698.3
-20653.7
-63948.8
-21522.5
-68383.6
-22406.6
-72741.4
-23297.2
-76836.9
-24201.8
-80646.6
-25126.4
-84382.4
-26063.5
-88187.8
-26977.9
-92059.6
-27829
-95860
-28591
-99509.5
-29225.5
-102809
-29672.4
-105389
-29846.5
-106723
-29682.5
-106333
-29201.5
-104248
-28530.2
-101110
-27839.9
-97608.9
-27262.3
-93869.1
-26867.4
-89512.8
-26697.4
-84248
-26760.6
-78271.6
-26996.2
-72107.4
-27284.3
-66144.7
-27513.3
-60366.4
-27635.8
-54520.2
-27670.1
-48450.6
-27669.9
-42187.3
-27693.5
-35842.2
-27786
-29514.7
-27975.2
-23261.6
-28274.4
-17102.6
-28687.9
-11045.1
-29216.8
-5116.19
-29880.9
695.349
-30746.3
6632.58
-31887.2
13012.2
-33360
20165.4
-35242.4
28483.6
-37622.6
38456.2
-40607.3
50715.4
-44327.9
66116.5
-48980.9
85896.6
-54956.2
112059
-63133.9
148227
-75262
201137
-93712.5
281712
-119130
401825
-145405
560474
-155687
717454
-126902
770499
572372
-5179.06
-17488.3
-5381.41
-19787.9
-5576.6
-21007
-5779.31
-22629.5
-5999.28
-24138.1
-6249.33
-25636.8
-6537.22
-26994.1
-6869.93
-28229.9
-7255.06
-29339.6
-7696.05
-30346.2
-8189.44
-31251.3
-8725.91
-32056.5
-9296.39
-32766.7
-9898.58
-33409.1
-10537.2
-34033.5
-11214.9
-34689.9
-11922.4
-35406.8
-12645
-36213.1
-13374.5
-37188.1
-14101
-38435.4
-14822.9
-39986.2
-15552.7
-41858.3
-16293.2
-44020
-17041.1
-46419.6
-17785.5
-49012.3
-18532.8
-51859
-19308.5
-55107.9
-20127.3
-58879.5
-20987.5
-63088.7
-21884.6
-67486.4
-22804.5
-71821.5
-23730.6
-75910.9
-24663.3
-79714
-25608.2
-83437.5
-26563.9
-87232
-27505.7
-91117.8
-28391.9
-94973.8
-29194.1
-98707.3
-29875.2
-102128
-30378.2
-104886
-30621.1
-106481
-30533.3
-106421
-30120.7
-104660
-29490.3
-101741
-28802.5
-98296.7
-28193.4
-94478.2
-27745.4
-89960.8
-27511.1
-84482.3
-27509
-78273.7
-27692.7
-71923.8
-27957
-65880.3
-28197.2
-60126.2
-28359.4
-54358
-28446.1
-48363.8
-28495
-42138.4
-28556.6
-35780.6
-28676.9
-29394.4
-28888.7
-23049.9
-29210.1
-16781.2
-29648.9
-10606.3
-30209
-4556.1
-30916.4
1402.71
-31833.2
7549.38
-33032.5
14211.6
-34574.2
21707.1
-36534.7
30444
-38998.9
40920.5
-42068.4
53784.9
-45878.4
69926.4
-50667.1
90685.3
-56953.2
118345
-65855.3
157129
-79307.6
214589
-99301.5
301705
-124981
427504
-148119
583613
-151352
720687
-114661
733808
492648
-5334.5
-17333.5
-5535.46
-19587
-5727.03
-20815.4
-5932.12
-22424.4
-6161.25
-23909
-6426.15
-25371.9
-6732.96
-26687.3
-7087.48
-27875.4
-7495.98
-28931.1
-7960.05
-29882.1
-8474
-30737.4
-9027.06
-31503.4
-9609.76
-32184
-10220
-32798.9
-10863
-33390.5
-11541.8
-34011.1
-12247.3
-34701.3
-12963.3
-35497.1
-13681.4
-36470
-14395.2
-37721.6
-15105.3
-39276.1
-15825.3
-41138.3
-16560.1
-43285.1
-17309.2
-45670.5
-18061.1
-48260.4
-18817.4
-51102.7
-19601.3
-54324
-20432.4
-58048.4
-21313.1
-62208
-22238.9
-66560.6
-23195.7
-70864.8
-24160.5
-74946
-25125.5
-78748.9
-26095.6
-82467.4
-27073.3
-86254.4
-28042.3
-90148.7
-28964
-94052.2
-29808.4
-97862.8
-30539.1
-101398
-31101.5
-104323
-31416.4
-106166
-31409
-106428
-31070.8
-104998
-30490
-102322
-29813.9
-98972.7
-29180.5
-95111.6
-28682.2
-90459.1
-28380.8
-84783.7
-28305.1
-78349.4
-28424.3
-71804.5
-28651.6
-65653.1
-28892.1
-59885.7
-29088.1
-54162.1
-29226.8
-48225.1
-29329.2
-42035.9
-29435.5
-35674.3
-29590.2
-29239.8
-29829.1
-22811
-30175.2
-16435.1
-30639.8
-10141.7
-31230.8
-3965.1
-31980.5
2152.41
-32948.7
8517.57
-34206.5
15469.4
-35814.8
23315.4
-37846.8
32476.1
-40383.4
43457.1
-43525.2
56926.7
-47427.9
73829.1
-52403.3
95660.7
-59134.6
125076
-68961.6
166956
-83840.9
229469
-105084
322948
-130219
452639
-149383
602777
-145538
716842
-102190
690460
411330
-5493.05
-17174.3
-5691.88
-19388.1
-5880.44
-20626.8
-6089.16
-22215.7
-6328.86
-23669.2
-6610.01
-25090.8
-6936.98
-26360.3
-7314.23
-27498.1
-7746.24
-28499.1
-8232.57
-29395.8
-8765.61
-30204.3
-9333.6
-30935.4
-9926.91
-31590.7
-10543.4
-32182.4
-11188
-32745.9
-11864.1
-33335
-12563.5
-34001.9
-13270
-34790.5
-13975.3
-35764.7
-14676.8
-37020.1
-15377.3
-38575.6
-16089.3
-40426.3
-16820
-42554.4
-17571
-44919.5
-18331.1
-47500.3
-19097.3
-50336.5
-19889.6
-53531.7
-20731.5
-57206.5
-21631.7
-61307.8
-22586.8
-65605.5
-23580.8
-69870.8
-24586.4
-73940.4
-25587.2
-77748.1
-26586.9
-81467.7
-27589.5
-85251.8
-28586.6
-89151.5
-29544.8
-93094
-30433.4
-96974.2
-31216.6
-100614
-31841.5
-103698
-32231.9
-105775
-32308.9
-106351
-32051.2
-105256
-31528.1
-102845
-30873.3
-99627.5
-30223.7
-95761.2
-29679.4
-91003.5
-29310
-85153.1
-29154
-78505.4
-29197.6
-71761
-29374.1
-65476.6
-29602.1
-59657.8
-29822.3
-53941.8
-30009.3
-48038.1
-30167.3
-41878
-30324.2
-35517.4
-30520
-29043.9
-30792.1
-22538.8
-31167.1
-16060.1
-31659.7
-9649.14
-32282.1
-3342.74
-33072.9
2943.25
-34090.7
9535.43
-35403.8
16782.4
-37072.2
24983.8
-39165.5
34569.3
-41762.6
46054.2
-44973.6
60137.7
-48995.2
77850.7
-54243.4
100909
-61580.7
132413
-72503.8
177879
-88790.8
245755
-110836
344994
-134605
476408
-149113
617286
-138241
705970
-89976.6
642196
337527
-5653.95
-17011.6
-5850.41
-19191.7
-6037.3
-20439.9
-6251.2
-22001.8
-6502.92
-23417.5
-6801.53
-24792.1
-7149.71
-26012.2
-7550.27
-27097.6
-8005.52
-28043.8
-8512.86
-28888.4
-9063.12
-29654.1
-9644.08
-30354.4
-10246.2
-30988.6
-10867
-31561.6
-11510.7
-32102.3
-12180.4
-32665.3
-12869.7
-33312.6
-13564
-34096.2
-14255.4
-35073.4
-14945.2
-36330.3
-15638.6
-37882.2
-16345.8
-39719.2
-17074.8
-41825.4
-17827.6
-44166.7
-18595.5
-46732.4
-19373.2
-49558.7
-20175.2
-52729.6
-21027.9
-56353.8
-21946
-60389.7
-22929.1
-64622.4
-23960
-68840
-25007.8
-72892.5
-26048.2
-76707.8
-27081.2
-80434.7
-28111.7
-84221.2
-29138.1
-88125.1
-30133.9
-92098.2
-31068.5
-96039.6
-31906.7
-99776.3
-32597.3
-103008
-33066.3
-105306
-33231.9
-106185
-33060.3
-105428
-32603
-103302
-31979.3
-100251
-31322.6
-96417.9
-30738
-91588.1
-30301.7
-85589.4
-30061.1
-78745.9
-30019.5
-71802.6
-30132.3
-65363.8
-30333.4
-59456.7
-30565.3
-53709.9
-30792.6
-47810.8
-31004.6
-41666
-31215.9
-35306.1
-31459
-28800.8
-31770.3
-22227.5
-32178.9
-15651.5
-32702.1
-9125.97
-33356.3
-2688.5
-34186.7
3773.64
-35251.3
10599.9
-36613.9
18145
-38333.8
26703.7
-40478.1
36713.6
-43130.2
48706.3
-46423
63430.5
-50617.1
82044.9
-56254.5
106546
-64363.2
140522
-76491.6
190007
-94034.9
263299
-116328
367287
-137943
498023
-147300
626643
-129774
688444
-78085.3
590507
270765
-5816.58
-16846.4
-6010.95
-18997.3
-6198.12
-20252.8
-6419.07
-21780.9
-6684.21
-23152.4
-7001.33
-24475
-7371.43
-25642.1
-7795.51
-26673.5
-8273.27
-27566.1
-8799.93
-28361.8
-9365.17
-29088.8
-9956.84
-29762.8
-10565.8
-30379.6
-11188.9
-30938.5
-11828.9
-31462.2
-12488.9
-32005.3
-13164.7
-32636.8
-13844.6
-33416.3
-14521.7
-34396.3
-15200.3
-35651.7
-15888.5
-37193.9
-16594.3
-39013.3
-17324.9
-41094.8
-18080.6
-43411
-18855.3
-45957.8
-19645
-48769
-20459.1
-51915.5
-21324.3
-55488.7
-22259.7
-59454.3
-23268.2
-63613.9
-24334
-67774.2
-25424.1
-71802.3
-26507.5
-75624.4
-27577.2
-79365
-28638.8
-83159.7
-29696.4
-87067.5
-30730.6
-91064.1
-31712.8
-95057.3
-32608.4
-98880.8
-33367.6
-102248
-33918.3
-104756
-34176.2
-105928
-34096.1
-105508
-33712.5
-103685
-33129.8
-100834
-32475.7
-97072.1
-31858.2
-92205.6
-31358.1
-86089.5
-31031.3
-79072.8
-30897.7
-71936.2
-30935.3
-65326.1
-31094.9
-59297.1
-31323.4
-53481.4
-31578.9
-47555.2
-31838.8
-41406.2
-32104.6
-35040.2
-32399.3
-28506.1
-32755.2
-21871.6
-33201.8
-15204.9
-33758.1
-8569.67
-34444.2
-2002.35
-35311.7
4641.12
-36418.6
11706.9
-37824
19550.5
-39587.2
28466.8
-41777
38903.5
-44490.5
51419.8
-47899
66839
-52346.3
86492.2
-58507.4
112707
-67532.2
149547
-80888.7
203364
-99413
281823
-121335
389209
-140091
516779
-143996
630548
-120381
664829
-66701
536827
213107
-5980.52
-16679.3
-6173.58
-18804.2
-6363.53
-20062.8
-6593.58
-21550.8
-6873.52
-22872.5
-7209.96
-24138.6
-7602.34
-25249.7
-8049.67
-26226.2
-8548.76
-27067
-9092.64
-27817.9
-9670.28
-28511.2
-10270.1
-29163
-10883.4
-29766.3
-11506.6
-30315.3
-12140.7
-30828.1
-12788.3
-31357.7
-13447.7
-31977.5
-14111.3
-32752.6
-14774
-33733.7
-15442.1
-34983.5
-16126.1
-36509.9
-16832.9
-38306.6
-17567
-40360.7
-18328
-42650
-19111
-45174.9
-19913.1
-47966.8
-20741.6
-51087
-21621.7
-54608.5
-22574.9
-58501.1
-23606.7
-62582
-24704.3
-66676.6
-25835
-70671.6
-26963.2
-74496.2
-28072.8
-78255.4
-29169.2
-82063.3
-30260.9
-85975.8
-31334.1
-89990.9
-32365.3
-94026.2
-33320.1
-97926
-34150.4
-101418
-34785.7
-104120
-35139.3
-105574
-35155.8
-105491
-34853.7
-103988
-34322
-101366
-33681.2
-97712.9
-33039.5
-92847.2
-32481.1
-86647.9
-32069
-79484.9
-31839.3
-72165.8
-31792.6
-65372.9
-31897
-59192.7
-32105.9
-53272.5
-32374.3
-47286.8
-32671
-41109.5
-32986.8
-34724.5
-33334
-28158.9
-33737.9
-21467.7
-34225.9
-14716.9
-34817.1
-7978.5
-35534.5
-1285.01
-36435.9
5542.54
-37580.9
12851.8
-39023.6
20993.3
-40826.2
30269.4
-43065.6
41142.8
-45862.9
54217.1
-49443
70419.1
-54245.2
91294.4
-61065.6
119528
-71105.9
159587
-85615.1
217873
-104742
300950
-125657
410124
-140964
532086
-139331
628915
-110415
635912
-55901.3
482314
161976
-6145.55
-16510.7
-6338.61
-18611.2
-6534.23
-19867.2
-6775.51
-21309.5
-7071.55
-22576.4
-7427.89
-23782.2
-7842.48
-24835.1
-8312.27
-25756.4
-8831
-26548.2
-9389.64
-27259.3
-9976.84
-27924
-10581.9
-28557.9
-11197
-29151.2
-11817.8
-29694.6
-12443.7
-30202.2
-13076.8
-30724.6
-13717.8
-31336.4
-14363.9
-32106.5
-15012.4
-33085.2
-15671.1
-34324.8
-16351.7
-35829.3
-17060.1
-37598.2
-17798.9
-39621.8
-18567.1
-41881.8
-19360.6
-44381.4
-20177.1
-47150.4
-21022.5
-50241.6
-21920.6
-53710.4
-22892.9
-57528.9
-23946.8
-61528.1
-25072.9
-65550.5
-26242.3
-69502.3
-27416.3
-73322.2
-28568.3
-77103.5
-29702.4
-80929.2
-30830.7
-84847.5
-31943.9
-88877.6
-33024.6
-92945.5
-34040.1
-96910.4
-34943.5
-100515
-35665.6
-103398
-36118.1
-105121
-36235.9
-105374
-36022.5
-104201
-35552
-101836
-34935.9
-98329
-34280.4
-93502.7
-33671.3
-87257
-33177.8
-79978.5
-32851.3
-72492.3
-32713.7
-65510.5
-32751
-59155.3
-32924.4
-53099.1
-33188.7
-47022.6
-33507.4
-40790.8
-33863
-34368.9
-34258.4
-27763.5
-34710.9
-21015.2
-35242.3
-14185.5
-35869.6
-7351.23
-36617.1
-537.449
-37549.8
6475.27
-38730.7
14032.7
-40209.5
22472.1
-42055.3
32115.2
-44360.5
43448
-47281.1
57137.7
-51107.7
74245.7
-56377.1
96563.8
-63974.8
127126
-75066.2
170678
-90554.2
233361
-109832
320229
-129126
429418
-140537
543497
-133492
621869
-100178
602599
-45890.4
428026
117216
-6311.65
-16340.9
-6506.52
-18416.3
-6711.01
-19662.7
-6965.63
-21054.9
-7278.91
-22263.1
-7655.47
-23405.7
-8091.73
-24398.8
-8582.6
-25265.5
-9118.79
-26012.1
-9689.4
-26688.7
-10283.1
-27330.3
-10890.5
-27950.5
-11504.4
-28537.3
-12120.1
-29078.9
-12735.6
-29586.6
-13352.6
-30107.6
-13974.3
-30714.8
-14602.2
-31478.6
-15237.1
-32450.3
-15887.5
-33674.4
-16565.4
-35151.5
-17275.9
-36887.6
-18020.3
-38877.5
-18796.6
-41105.5
-19602
-43576
-20434.8
-46317.6
-21300.6
-49375.8
-22220.8
-52790.1
-23214.6
-56535.1
-24290.7
-60452
-25442.9
-64398.3
-26648.5
-68296.6
-27867.3
-72103.3
-29064.3
-75906.5
-30238.6
-79754.9
-31404.7
-83681.4
-32558.9
-87723.4
-33689.4
-91815
-34766.4
-95833.4
-35744.1
-99537.1
-36554.8
-102588
-37108.6
-104568
-37331.8
-105150
-37214.2
-104319
-36815.2
-102235
-36235.7
-98908.5
-35578.3
-94160.1
-34928.4
-87906.9
-34360.4
-80546.5
-33939.4
-72913.3
-33707.5
-65742.5
-33668.1
-59194.7
-33791.6
-52975.5
-34034.9
-46779.3
-34359
-40466.7
-34740.3
-33987.7
-35174
-27329.7
-35669.9
-20519.3
-36243.3
-13612.1
-36907.2
-6687.39
-37686.2
241.532
-38650.2
7439.35
-39867.6
15250
-41387.1
23991.6
-43289.7
34017.8
-45690.4
45848.7
-48790
60237.3
-52951.2
78406.9
-58797.4
102410
-67254.8
135583
-79357.7
182781
-95563
249566
-114499
339165
-131617
446535
-138841
550722
-126686
609713
-89883.9
565797
-36653.4
374796
79292.6
-6478.96
-16169.8
-6677.86
-18217.4
-6894.62
-19445.9
-7164.63
-20784.9
-7496.08
-21931.7
-7892.88
-23008.9
-8349.79
-23941.9
-8859.78
-24755.5
-9410.74
-25461.1
-9990.23
-26109.2