/*--------------------------------*- C++ -*----------------------------------*\
| =========                 |                                                 |
| \\      /  F ield         | OpenFOAM: The Open Source CFD Toolbox           |
|  \\    /   O peration     | Version:  4.1                                   |
|   \\  /    A nd           | Web:      www.OpenFOAM.org                      |
|    \\/     M anipulation  |                                                 |
\*---------------------------------------------------------------------------*/
FoamFile
{
    version     2.0;
    format      ascii;
    class       volVectorField;
    location    "27";
    object      U;
}
// * * * * * * * * * * * * * * * * * * * * * * * * * * * * * * * * * * * * * //

dimensions      [0 1 -1 0 0 0 0];

internalField   nonuniform List<vector> 
6785
(
(2.41617e-12 -0.816212 16.1145)
(2.5926e-12 -6.7182 12.478)
(-6.76768e-13 -4.80727 12.8719)
(1.12174e-12 -4.33464 12.6136)
(3.43192e-13 -3.72896 12.4377)
(-3.40881e-13 -3.27475 12.205)
(1.06863e-12 -2.90387 11.9389)
(2.48276e-13 -2.63043 11.6187)
(-4.63529e-13 -2.44945 11.2285)
(9.65844e-13 -2.3263 10.7827)
(1.95649e-13 -2.2432 10.3305)
(-4.93912e-13 -2.40635 9.8155)
(1.19033e-12 -2.91614 9.14406)
(-1.52581e-13 -2.28865 8.72445)
(-2.16157e-12 0.908443 7.388)
(5.85974e-12 -7.60766 26.0424)
(3.34144e-12 -16.5859 21.6577)
(-5.12561e-13 -11.4796 22.1569)
(2.7843e-12 -11.902 20.6609)
(1.0055e-13 -10.8801 19.6669)
(6.96396e-13 -10.198 18.5765)
(3.87911e-12 -9.46809 17.4856)
(3.41601e-13 -8.76431 16.3735)
(1.56e-12 -8.12255 15.2939)
(4.2947e-12 -7.61187 14.3674)
(1.39667e-12 -7.1954 13.6472)
(3.48182e-12 -6.83148 12.8651)
(7.20651e-12 -6.53826 11.4574)
(-4.95682e-13 -5.35741 8.63631)
(-2.80479e-12 -1.3817 2.44178)
(1.27049e-12 -10.4762 27.6142)
(4.55642e-12 -17.3188 24.0446)
(-1.0298e-12 -11.6389 24.4546)
(-8.50093e-13 -12.4972 22.2524)
(6.0346e-13 -10.8309 21.1383)
(-3.42446e-13 -10.0122 19.662)
(-1.17505e-12 -9.01158 18.2864)
(7.76841e-13 -8.09336 16.9021)
(-2.88102e-13 -7.15518 15.4619)
(-1.03648e-12 -6.11174 13.7601)
(-2.24265e-13 -5.01239 11.7113)
(-4.30057e-12 -4.30429 9.76978)
(-6.09168e-12 -4.33942 8.52332)
(7.90232e-13 -4.34324 7.13216)
(-4.79456e-12 -1.92647 2.36607)
(3.82333e-12 -11.8114 27.5008)
(1.24838e-12 -17.0702 24.1604)
(2.64306e-13 -11.8222 24.5665)
(-1.25231e-12 -13.1847 21.9182)
(-9.57128e-13 -11.1298 20.9198)
(1.36206e-12 -10.5816 19.2195)
(-1.6441e-12 -9.53002 17.8473)
(-1.31376e-12 -8.71257 16.4462)
(1.44307e-12 -7.75863 14.9442)
(-3.81831e-12 -6.36438 12.6521)
(-8.51629e-12 -4.07319 8.67609)
(-1.55201e-11 -1.18255 3.33233)
(-2.89514e-11 0.394067 0.374123)
(-1.41028e-11 -0.754243 2.12015)
(1.60909e-11 -1.31794 3.09093)
(2.23596e-12 -12.3554 27.2916)
(-1.2558e-12 -17.5086 25.276)
(-1.73097e-12 -12.3748 25.1112)
(-3.30784e-12 -14.0298 22.3079)
(-4.90237e-12 -11.7623 21.4515)
(-8.46228e-13 -11.4889 19.6457)
(-3.74801e-12 -10.4578 18.326)
(-5.00332e-12 -9.75994 16.9422)
(-1.99497e-12 -8.96662 15.564)
(-5.06244e-12 -7.87609 13.6827)
(-1.3148e-11 -5.9344 10.4751)
(-1.93277e-11 -2.73148 5.31394)
(-3.68802e-11 1.59199 0.0306864)
(-2.16333e-11 3.26057 -2.44138)
(1.5744e-11 0.982247 -1.73338)
(3.78738e-12 -12.2457 25.8772)
(-1.29833e-12 -17.7335 26.2423)
(9.76582e-13 -12.8902 25.1632)
(-3.50584e-12 -14.1488 22.3066)
(-4.23432e-12 -12.0965 21.3629)
(4.34251e-13 -11.7612 19.4949)
(-2.77686e-12 -10.7807 18.0014)
(-5.36369e-12 -10.0486 16.4977)
(-3.27628e-13 -9.34047 15.0877)
(-2.65288e-12 -8.52505 13.5113)
(-5.93107e-12 -7.46485 11.5712)
(-5.57772e-12 -5.74519 8.8328)
(-1.56942e-11 -3.01211 4.99025)
(-1.14426e-11 0.43045 0.999627)
(2.94724e-11 0.617821 -3.33419)
(7.78876e-12 -11.7933 23.8633)
(6.63462e-13 -17.4376 26.4233)
(4.4533e-12 -13.0855 24.7632)
(-2.94208e-12 -13.7811 21.7923)
(-3.94405e-12 -11.9441 20.7141)
(4.71955e-12 -11.4849 18.8339)
(-8.44969e-13 -10.49 17.251)
(-2.88369e-12 -9.67936 15.654)
(3.49036e-12 -8.93212 14.1715)
(-5.57476e-14 -8.17202 12.725)
(-1.71715e-12 -7.3748 11.1952)
(3.49717e-12 -6.45937 9.61532)
(-2.53488e-12 -5.03652 7.19932)
(-1.25594e-11 -2.60045 3.94847)
(1.81795e-11 -0.790672 -1.11899)
(5.07163e-12 -11.3838 22.3155)
(3.28823e-13 -16.8756 26.1491)
(4.06146e-12 -13.0749 24.33)
(-1.91992e-12 -13.3521 21.2919)
(-3.08057e-12 -11.6419 20.1338)
(2.96559e-12 -11.1216 18.2975)
(7.87532e-13 -10.1161 16.7135)
(-2.32877e-12 -9.26109 15.1073)
(1.38166e-12 -8.47027 13.6324)
(6.59267e-13 -7.71843 12.3148)
(-1.13741e-12 -6.86082 10.7711)
(1.07902e-12 -6.15042 9.50775)
(2.09005e-12 -5.38725 8.04979)
(-6.32492e-12 -3.81193 5.87584)
(-4.80934e-12 -1.59932 0.82371)
(4.96129e-12 -11.2046 21.5933)
(1.77699e-13 -16.2689 25.5823)
(2.90874e-13 -12.9152 23.9312)
(-2.61169e-13 -13.0465 20.8982)
(-2.98024e-12 -11.3503 19.7498)
(-4.77253e-13 -10.8658 17.9321)
(1.9521e-12 -9.84342 16.4086)
(-1.46659e-12 -9.04386 14.8815)
(-4.0449e-12 -8.29936 13.5485)
(9.89028e-13 -7.58394 12.3086)
(1.02459e-12 -6.61799 10.5708)
(-5.05943e-12 -5.85975 9.20359)
(2.11395e-12 -5.45382 8.37086)
(-2.38507e-12 -4.56899 7.28598)
(-1.67823e-11 -2.56377 3.18041)
(1.85172e-12 -11.314 21.5194)
(-2.22696e-13 -15.6563 24.8423)
(-9.72512e-13 -12.5812 23.4793)
(-3.42514e-12 -12.8429 20.4881)
(-2.88431e-12 -10.9773 19.4672)
(-2.89992e-12 -10.6776 17.552)
(-2.20302e-12 -9.55405 16.176)
(-7.88921e-13 -8.93621 14.7232)
(-4.54734e-12 -8.24593 13.4894)
(-6.01571e-12 -7.57146 12.1046)
(9.81398e-13 -6.63246 10.2784)
(-3.13417e-12 -5.95529 9.03172)
(-3.79441e-12 -5.82087 8.89055)
(2.33597e-12 -5.49424 8.75582)
(-1.12135e-11 -3.75737 5.58277)
(-1.61885e-12 -11.7219 21.9073)
(8.74317e-13 -15.1215 24.2657)
(-6.7482e-12 -12.3205 23.0589)
(-4.05293e-12 -12.6072 20.2341)
(-1.2349e-12 -10.6146 19.2286)
(-1.04723e-11 -10.3718 17.1821)
(-2.72011e-12 -9.01941 15.7365)
(2.2163e-13 -8.35205 13.889)
(-1.73232e-11 -7.48719 12.3331)
(-9.43018e-12 -6.91475 10.8147)
(6.29643e-13 -6.34507 9.58642)
(-1.54278e-11 -6.20741 9.36398)
(-4.96938e-12 -6.49872 10.1886)
(-4.85301e-12 -6.59376 10.5784)
(-1.80038e-11 -4.8491 7.82913)
(-1.01041e-12 -12.2148 22.5204)
(2.17829e-12 -15.0906 24.5798)
(-8.99668e-12 -12.2348 22.9549)
(-2.96179e-12 -12.3473 20.6028)
(-3.03178e-12 -10.462 19.5058)
(-1.23313e-11 -9.9462 17.428)
(-2.78884e-12 -8.27526 15.4641)
(-5.56437e-12 -7.01132 12.775)
(-2.11504e-11 -5.71738 10.6125)
(-2.44743e-11 -5.17259 9.31789)
(-3.14908e-11 -5.128 9.1461)
(-3.61586e-11 -5.74514 10.0253)
(-1.43084e-11 -6.68865 11.4632)
(-1.69464e-11 -7.25271 12.0477)
(-2.01689e-11 -5.29542 9.2407)
(-4.30998e-12 -12.1635 22.3082)
(8.3831e-13 -16.3075 26.4707)
(-7.72116e-12 -12.9136 23.9516)
(-6.05995e-12 -12.8634 21.5714)
(-1.85721e-12 -10.9104 20.3493)
(-1.17772e-11 -10.2178 18.1736)
(-4.05708e-12 -8.24618 15.8515)
(-5.29833e-12 -6.53945 12.7005)
(-2.8582e-11 -4.82055 10.2263)
(-3.662e-11 -3.82003 8.55388)
(-5.30382e-11 -3.22617 7.55169)
(-5.29007e-11 -3.50605 7.49161)
(-2.93964e-11 -4.68433 8.69227)
(-1.85117e-11 -5.71617 9.82452)
(-1.59595e-11 -4.39948 8.01245)
(-7.13074e-12 -11.1703 21.58)
(-1.9356e-12 -15.7976 27.707)
(-9.78217e-12 -12.9332 25.4715)
(-6.78891e-12 -12.3655 23.4735)
(-5.07694e-12 -10.7497 22.3604)
(-9.82056e-12 -9.91876 20.4503)
(-2.88882e-12 -8.11763 18.2471)
(-1.13791e-11 -6.43964 15.3564)
(-2.67066e-11 -4.65456 12.8056)
(-3.61488e-11 -3.32839 10.444)
(-4.95279e-11 -2.08073 7.64693)
(-3.94453e-11 -1.33958 4.99454)
(-3.49552e-11 -3.4991 7.34947)
(-4.3226e-11 -5.75191 10.3817)
(-2.46872e-11 -4.24986 9.0344)
(-8.78698e-12 -16.4402 30.8784)
(-4.35452e-12 -19.2505 33.8634)
(-8.17732e-12 -14.3594 28.9421)
(-6.15734e-12 -12.6565 25.7447)
(-5.8948e-12 -10.6033 23.134)
(-4.62914e-12 -9.06034 20.3195)
(-3.79349e-12 -7.17727 17.349)
(-1.1579e-11 -5.41316 14.0749)
(-1.64218e-11 -3.40354 10.5737)
(-2.03044e-11 -0.269759 4.90913)
(-1.94505e-11 5.40956 -5.02668)
(-7.57105e-12 7.80636 -9.09112)
(-1.65289e-11 4.73124 -4.19626)
(-2.01705e-11 1.63074 -0.574671)
(-6.78803e-12 -0.251536 0.945313)
(3.90746e-14 0.0256336 -0.160806)
(1.22665e-13 -0.0337466 -0.169324)
(1.33447e-13 0.0417424 0.0297202)
(2.12687e-13 0.0306939 0.0559251)
(4.06371e-13 0.0251272 0.0113639)
(1.09059e-12 0.116822 -0.0884782)
(1.44858e-12 0.137339 0.154175)
(2.63217e-12 0.141741 0.246299)
(5.81008e-12 0.0979348 0.238568)
(2.02298e-11 0.218275 0.164633)
(3.73265e-12 0.253013 0.245162)
(1.30668e-12 0.196918 0.240755)
(6.77852e-13 0.406987 0.118769)
(2.88901e-13 0.344008 0.148988)
(3.21951e-13 0.369102 0.145961)
(4.20363e-13 0.31655 0.111548)
(6.98162e-13 0.530348 0.00639447)
(2.05781e-12 0.479658 0.0494677)
(9.66582e-13 0.451697 0.0466691)
(4.92055e-13 0.731844 -0.0118522)
(1.19354e-13 0.576958 -0.00092898)
(2.01298e-13 0.640982 -0.0304283)
(1.35995e-12 0.573486 -0.0415718)
(1.14406e-12 0.908453 -0.127094)
(-1.65661e-13 0.702809 -0.0802734)
(-8.06999e-13 0.786969 -0.0897593)
(-3.32487e-12 0.713702 -0.0863862)
(-2.51044e-12 1.05588 -0.192191)
(-2.03606e-12 0.865259 -0.123308)
(-1.66624e-12 0.866272 -0.141146)
(-9.13981e-13 1.26942 -0.192609)
(-1.77208e-12 0.96523 -0.111773)
(-1.6117e-12 1.08252 -0.14935)
(-2.20108e-12 0.993935 -0.175167)
(-3.08809e-12 1.41025 -0.22941)
(-1.51392e-12 1.1257 -0.148746)
(-8.40181e-13 1.13872 -0.174175)
(-5.00489e-13 1.61683 -0.116754)
(-9.55267e-14 1.20601 -0.00564554)
(-5.01802e-13 1.3403 -0.204346)
(1.49107e-13 1.23992 -0.331876)
(1.2979e-12 1.7879 -0.481536)
(1.64131e-12 1.34043 -0.174898)
(1.43141e-12 1.49813 -0.126479)
(9.82573e-13 1.38629 -0.162171)
(1.32734e-12 1.89728 -0.281311)
(4.26145e-13 1.49735 -0.151622)
(-1.07874e-13 1.51688 -0.164129)
(-1.03023e-12 2.10319 -0.244662)
(-8.01442e-13 1.5552 -0.133727)
(-2.67862e-13 1.73741 -0.159531)
(7.19935e-14 1.6062 -0.194656)
(3.4041e-13 2.22982 -0.324632)
(4.67387e-13 1.65504 -0.192886)
(1.17492e-13 1.84762 -0.162879)
(7.28002e-13 1.71703 -0.155505)
(9.60666e-13 2.28473 -0.259117)
(1.1741e-12 1.78432 -0.13756)
(1.11461e-12 1.80547 -0.112406)
(1.28196e-12 2.46316 -0.195307)
(5.96222e-13 1.7929 -0.114278)
(4.90061e-13 1.99194 -0.0870049)
(-2.96831e-14 1.85548 -0.115564)
(2.17277e-12 2.43861 -0.30355)
(2.57971e-12 1.89221 -0.274279)
(2.65727e-12 1.92323 -0.259993)
(4.04486e-12 2.61942 -0.371874)
(2.95902e-12 1.88805 -0.241338)
(3.32738e-12 2.10332 -0.325284)
(3.28677e-12 1.97913 -0.440895)
(4.19835e-12 2.65808 -0.853369)
(2.68629e-12 1.94626 -1.0074)
(1.82762e-12 2.22918 -0.767658)
(1.54846e-12 2.07896 -0.200597)
(-6.43299e-13 2.6204 0.353072)
(-2.12491e-12 2.07883 1.24671)
(-2.31415e-12 1.95096 2.00458)
(-2.63116e-12 2.60954 3.59203)
(-6.91865e-13 1.6527 2.75443)
(1.26803e-13 1.901 2.86197)
(-4.6365e-13 1.4402 1.91473)
(-9.34475e-13 1.87502 1.18596)
(-1.10679e-12 0.96606 0.317952)
(8.19077e-12 1.57487 -1.75444)
(4.06728e-12 2.16746 -0.824376)
(-6.99249e-13 1.41207 1.15646)
(-3.45642e-12 1.68932 2.33273)
(-4.42376e-12 1.62269 2.96331)
(-4.91903e-12 1.60171 3.36123)
(-5.23356e-12 1.34544 3.67376)
(-5.39014e-12 1.82179 3.94025)
(-5.40539e-12 0.504843 3.60706)
(-2.37344e-12 1.35579 4.0758)
(-5.41142e-12 2.75612 4.36226)
(-5.74927e-12 1.0627 5.23909)
(-6.30495e-12 1.27058 5.7112)
(-7.32692e-12 1.06346 6.40988)
(-7.86417e-12 0.972649 6.46519)
(-8.45376e-12 0.781502 6.64936)
(-9.18831e-12 0.745164 6.50846)
(-9.88821e-12 -0.720347 5.91429)
(-9.01309e-12 1.61557 8.04823)
(-6.54089e-12 0.599277 7.53562)
(-6.59893e-12 -0.112275 7.66349)
(-6.71012e-12 -0.133454 7.68997)
(-7.02859e-12 -0.293056 7.95791)
(-7.33925e-12 -0.313213 8.76807)
(-7.69556e-12 -0.581951 9.9801)
(-8.18777e-12 -0.408059 10.0717)
(-8.497e-12 -0.451958 10.2282)
(-8.68907e-12 -1.51597 10.1723)
(-5.13672e-12 0.598673 12.7237)
(-7.59284e-12 -0.265901 12.6791)
(-7.25384e-12 -0.531446 12.9396)
(-7.03826e-12 -0.468401 13.0883)
(-6.78838e-12 -0.530734 13.3408)
(-6.50782e-12 -0.514311 13.7179)
(-5.94028e-12 -0.577865 14.5776)
(-6.16331e-12 -0.360272 14.9778)
(-6.68803e-12 -1.45001 14.9033)
(-3.87101e-12 0.633253 18.0754)
(-4.58539e-12 -0.247404 16.9772)
(-3.63708e-12 -0.290889 17.6969)
(-2.68168e-12 -0.307466 18.182)
(-2.82578e-12 -0.191146 18.175)
(-2.86948e-12 -0.208232 18.241)
(-2.96126e-12 -0.183987 18.2391)
(-2.97748e-12 0.265219 18.4062)
(-3.58126e-12 -0.988022 20.3114)
(-5.0011e-12 1.93035 23.5525)
(-3.8513e-12 -0.185343 21.9407)
(-4.04252e-12 0.14247 22.4413)
(-4.28245e-12 0.126755 22.8288)
(-4.95952e-12 0.217282 23.6914)
(-5.3583e-12 0.379795 24.0434)
(-5.39683e-12 0.432847 24.1478)
(-5.35773e-12 0.23684 24.3124)
(-5.32544e-12 0.022429 24.3786)
(-5.98953e-12 3.05068 27.8689)
(-5.33335e-12 0.0575587 26.874)
(-5.52918e-12 0.970777 27.3528)
(-5.64486e-12 0.720618 27.72)
(-5.78423e-12 0.98891 28.1148)
(-5.95146e-12 1.30007 28.6096)
(-6.9423e-12 0.697977 31.05)
(-7.03139e-12 0.886261 31.5259)
(-6.94229e-12 0.671854 31.6215)
(-7.05528e-12 0.539427 31.893)
(-5.0716e-12 5.9836 34.3604)
(-3.85125e-12 0.22289 33.0963)
(-3.55729e-12 2.40128 34.5211)
(-3.83375e-12 1.94089 35.1235)
(-3.79861e-12 2.15999 35.4932)
(-3.54899e-12 1.76389 35.7713)
(-3.84207e-12 1.67981 35.5776)
(-5.74114e-12 1.78759 33.758)
(-7.03419e-12 1.7767 33.0259)
(-9.26563e-12 10.8423 31.9203)
(-7.09779e-12 0.116589 28.5515)
(-6.71181e-12 2.3532 26.302)
(-2.36693e-12 6.99916 9.38421)
(3.33531e-12 -2.13994 -10.4771)
(-1.33416e-12 0.500436 -11.4062)
(-3.40325e-12 0.617883 -3.64224)
(-7.14441e-12 -0.182355 -7.07402)
(-3.96038e-12 0.404573 -2.72043)
(-7.44728e-12 -0.0422433 -5.60635)
(-4.94498e-12 0.495473 -3.66763)
(-1.70731e-12 -0.347152 -1.89958)
(-2.6952e-12 0.242128 -3.36977)
(-2.35449e-12 1.12791 -2.4162)
(-1.92274e-12 -0.513905 -1.62518)
(-2.88278e-12 3.18971 -2.52105)
(-2.82981e-12 0.0502853 -1.70402)
(-6.23464e-12 1.8191 -2.881)
(-3.85086e-12 4.33658 -2.54782)
(-1.8364e-12 1.23563 -1.33699)
(-4.29003e-12 5.53309 -2.10593)
(-3.08788e-12 3.0643 -1.29228)
(-2.89261e-12 4.51982 -1.93882)
(-2.40925e-12 6.79462 -1.62968)
(-1.4479e-12 4.88267 -0.481453)
(-1.39259e-12 6.80496 -0.13262)
(-1.87151e-12 9.84117 0.370476)
(-1.23112e-12 6.3236 0.484418)
(-2.29077e-12 11.7642 0.476171)
(-1.82363e-12 8.33911 0.688063)
(-2.66364e-12 10.08 0.648692)
(-2.74339e-12 14.6745 0.713861)
(-1.68226e-12 9.87228 0.845713)
(-1.94849e-12 17.6333 0.400384)
(-1.31143e-12 12.6895 0.591825)
(-1.38582e-12 15.6444 -0.0227388)
(-1.7486e-12 21.5614 -0.620668)
(-1.24297e-12 16.4964 0.0477146)
(-1.38475e-12 22.1423 -0.852164)
(-1.66091e-12 29.5534 -0.613604)
(-1.09752e-12 20.6462 0.0951413)
(-1.3683e-12 34.9709 -0.305515)
(-9.48799e-13 25.7467 0.299695)
(-1.11949e-12 31.3186 -0.00961227)
(-1.07897e-12 39.5759 -0.0449438)
(-6.59506e-13 28.4782 0.984915)
(-9.37453e-13 45.74 -2.06743)
(-6.54812e-13 34.479 -0.884124)
(-7.29676e-13 40.4351 -3.743)
(-9.33855e-13 53.5106 -22.7471)
(-6.26661e-13 44.2968 -14.3749)
(-7.52506e-13 58.39 -31.9831)
(-8.60538e-13 72.8074 -53.5063)
(-5.78555e-13 59.0172 -36.4611)
(-7.35703e-13 86.4844 -57.565)
(-4.67511e-13 70.3645 -42.4608)
(-5.85346e-13 82.7477 -55.1814)
(-7.33054e-13 83.969 -72.2943)
(-4.89369e-13 64.7143 -49.6078)
(-7.022e-13 88.0068 -75.7097)
(-5.0983e-13 65.5948 -57.1948)
(-5.92839e-13 73.9769 -80.987)
(-7.17266e-13 56.1773 -121.329)
(-4.63315e-13 31.3433 -85.8767)
(-8.38043e-13 46.3672 -140.022)
(-8.91671e-13 33.3497 -181.751)
(-3.52879e-13 -37.5133 -66.0612)
(-4.23735e-13 -0.695165 -88.2458)
(3.54191e-16 -61.5482 -2.28542)
(1.23524e-13 -56.8345 26.4035)
(6.37495e-13 -187.294 135.728)
(7.26753e-13 -195.989 154.755)
(1.11668e-12 -323.044 243.359)
(1.06155e-12 -279.43 238.999)
(1.7476e-12 -438.365 397.326)
(1.93452e-12 -603.471 450.568)
(1.69537e-12 -520.224 407.692)
(2.65829e-12 -757.647 647.406)
(2.65814e-12 -895.742 663.7)
(2.25692e-12 -851.026 579.957)
(3.2622e-12 -1281.05 839.232)
(2.57064e-12 -1033.18 678.724)
(4.08416e-12 -1451.97 1086.65)
(6.87784e-20 24.8347 25.754)
(-3.00725e-20 28.8357 26.712)
(-4.44648e-19 30.6006 27.7946)
(-1.37475e-18 32.7962 29.0838)
(-2.94196e-18 34.8093 30.3686)
(-4.66237e-18 36.9266 31.589)
(-4.12704e-18 38.994 32.7784)
(3.2225e-18 41.0296 34.0166)
(2.35438e-17 43.0207 35.3758)
(6.76063e-17 44.979 36.9081)
(1.48706e-16 46.8706 38.7015)
(2.75452e-16 48.627 40.8144)
(4.34972e-16 50.2102 43.2954)
(5.74458e-16 51.6554 46.1412)
(5.87065e-16 53.0482 49.3289)
(3.09585e-16 54.4566 52.7954)
(-4.46062e-16 55.9272 56.5229)
(-1.8169e-15 57.5241 60.5743)
(-3.75446e-15 59.334 65.0576)
(-5.82599e-15 61.39 70.1196)
(-7.06753e-15 63.7211 75.7153)
(-6.35547e-15 66.2527 81.5202)
(-3.06615e-15 68.8363 86.9442)
(2.7894e-15 71.5672 91.8801)
(1.13033e-14 74.717 96.5057)
(2.29983e-14 78.5401 101.05)
(3.84251e-14 83.0668 105.437)
(5.82433e-14 88.3426 109.746)
(8.29761e-14 94.2428 114.215)
(1.11571e-13 100.351 118.811)
(1.42315e-13 106.353 123.549)
(1.74013e-13 112.155 128.658)
(2.05388e-13 117.653 134.107)
(2.35768e-13 122.888 139.672)
(2.64939e-13 127.809 145.045)
(2.93011e-13 132.354 150.022)
(3.20286e-13 136.548 154.554)
(3.46126e-13 140.241 158.474)
(3.68877e-13 142.903 161.597)
(3.84916e-13 143.653 163.285)
(3.90261e-13 141.634 162.688)
(3.83851e-13 136.943 159.407)
(3.70433e-13 131.131 154.124)
(3.59419e-13 126.29 148.754)
(3.57565e-13 123.095 144.965)
(3.6427e-13 120.457 143.066)
(3.75155e-13 117.079 142.549)
(3.87466e-13 112.499 143.122)
(3.9975e-13 106.68 144.537)
(4.10635e-13 99.5957 146.374)
(4.18004e-13 91.2302 147.879)
(4.20247e-13 81.8892 148.344)
(4.17279e-13 72.2536 147.502)
(4.10862e-13 63.0528 145.711)
(4.03608e-13 54.6145 143.689)
(3.9768e-13 46.819 142.094)
(3.94306e-13 39.4255 141.311)
(3.93963e-13 32.2788 141.489)
(3.96674e-13 25.2929 142.646)
(4.02111e-13 18.4299 144.669)
(4.09555e-13 11.7259 147.306)
(4.17996e-13 5.3049 150.224)
(4.26967e-13 -0.690565 153.267)
(4.37967e-13 -6.39981 156.906)
(4.55372e-13 -12.3841 162.592)
(4.78885e-13 -19.2112 170.236)
(5.09823e-13 -27.3052 180.262)
(5.49746e-13 -37.2356 193.148)
(6.00911e-13 -49.7599 209.587)
(6.6646e-13 -65.9428 230.526)
(7.50956e-13 -87.3494 257.318)
(8.6117e-13 -116.395 291.917)
(1.00756e-12 -156.959 337.23)
(1.20682e-12 -215.549 397.708)
(1.48636e-12 -303.268 480.425)
(1.89045e-12 -438.422 596.626)
(2.4835e-12 -649.254 763.44)
(3.32004e-12 -957.442 996.708)
(4.2428e-12 -1312.22 1236.13)
(8.37568e-20 24.6687 26.7867)
(5.55799e-20 28.5069 27.8686)
(-2.87682e-19 30.2123 29.0201)
(-1.14462e-18 32.3769 30.3688)
(-2.52219e-18 34.3984 31.6584)
(-3.72333e-18 36.5292 32.8977)
(-1.62969e-18 38.5927 34.1267)
(1.03082e-17 40.601 35.4374)
(3.99088e-17 42.5451 36.8982)
(9.97165e-17 44.4341 38.5627)
(2.02764e-16 46.2346 40.5144)
(3.5142e-16 47.8837 42.8114)
(5.16694e-16 49.3529 45.4889)
(6.19456e-16 50.6872 48.5323)
(5.23465e-16 51.9824 51.9066)
(4.92334e-17 53.3055 55.5524)
(-9.74348e-16 54.6841 59.4576)
(-2.61283e-15 56.163 63.6883)
(-4.68165e-15 57.8178 68.316)
(-6.58408e-15 59.7037 73.4163)
(-7.27759e-15 61.9155 78.9609)
(-5.71384e-15 64.4679 84.7483)
(-1.45253e-15 67.1826 90.2137)
(5.32328e-15 70.0366 95.193)
(1.46428e-14 73.2426 99.82)
(2.72111e-14 77.0927 104.444)
(4.36508e-14 81.6439 109.002)
(6.45125e-14 86.8944 113.47)
(9.02294e-14 92.7415 118.049)
(1.19672e-13 98.8036 122.755)
(1.50724e-13 104.726 127.525)
(1.82185e-13 110.418 132.606)
(2.13111e-13 115.844 138.061)
(2.43241e-13 121.089 143.736)
(2.7247e-13 126.101 149.306)
(3.00664e-13 130.78 154.477)
(3.2809e-13 135.139 159.202)
(3.54182e-13 139.044 163.311)
(3.77385e-13 142.047 166.619)
(3.94571e-13 143.362 168.617)
(4.01938e-13 142.107 168.477)
(3.98035e-13 138.148 165.718)
(3.86593e-13 132.68 160.784)
(3.76074e-13 127.636 155.342)
(3.73489e-13 123.927 151.13)
(3.7922e-13 120.795 148.715)
(3.89391e-13 117.037 147.755)
(4.01365e-13 112.156 148.057)
(4.13746e-13 106.133 149.438)
(4.25215e-13 99.0216 151.49)
(4.33555e-13 90.8578 153.368)
(4.36978e-13 81.8754 154.22)
(4.35326e-13 72.5885 153.722)
(4.30351e-13 63.5715 152.259)
(4.24504e-13 55.1064 150.56)
(4.19562e-13 47.1289 149.184)
(4.16353e-13 39.4784 148.374)
(4.15119e-13 32.0545 148.19)
(4.15855e-13 24.8048 148.65)
(4.18556e-13 17.7204 149.769)
(4.23345e-13 10.86 151.577)
(4.30257e-13 4.33216 154.074)
(4.39339e-13 -1.81416 157.245)
(4.51842e-13 -7.84573 161.44)
(4.70211e-13 -14.3132 167.453)
(4.94831e-13 -21.6864 175.448)
(5.27014e-13 -30.4494 185.852)
(5.68451e-13 -41.206 199.19)
(6.21502e-13 -54.7722 216.179)
(6.89424e-13 -72.298 237.796)
(7.76955e-13 -95.4791 265.433)
(8.91159e-13 -126.933 301.1)
(1.04289e-12 -170.867 347.757)
(1.24942e-12 -234.332 409.9)
(1.53937e-12 -329.352 494.882)
(1.96095e-12 -475.683 615.348)
(2.5886e-12 -702.025 792.842)
(3.46783e-12 -1019.62 1039.45)
(4.24917e-12 -1327.56 1207.11)
(8.88152e-20 24.5791 27.4835)
(1.14591e-19 28.3358 28.652)
(-1.54872e-19 30.0235 29.8327)
(-9.12613e-19 32.1897 31.2037)
(-1.97449e-18 34.2221 32.4823)
(-2.22459e-18 36.3562 33.7348)
(2.0236e-18 38.4089 34.9967)
(1.89706e-17 40.3943 36.3636)
(5.75097e-17 42.306 37.9013)
(1.30906e-16 44.1541 39.6705)
(2.49848e-16 45.9026 41.7432)
(4.07494e-16 47.494 44.1737)
(5.59298e-16 48.9057 46.9815)
(6.05605e-16 50.1898 50.1518)
(3.93511e-16 51.4429 53.6434)
(-2.53382e-16 52.7285 57.4059)
(-1.4695e-15 54.0645 61.4298)
(-3.24875e-15 55.4924 65.7784)
(-5.30848e-15 57.096 70.506)
(-6.95541e-15 58.932 75.6145)
(-7.15806e-15 61.1026 81.063)
(-4.98604e-15 63.6566 86.7312)
(-1.19177e-16 66.427 92.1635)
(7.20766e-15 69.3469 97.1719)
(1.697e-14 72.5788 101.8)
(3.00051e-14 76.4258 106.447)
(4.70791e-14 80.9876 111.114)
(6.87209e-14 86.2535 115.74)
(9.51275e-14 92.0949 120.433)
(1.25138e-13 98.1536 125.251)
(1.56428e-13 104.062 130.098)
(1.87701e-13 109.706 135.185)
(2.18228e-13 115.074 140.62)
(2.48077e-13 120.292 146.319)
(2.77289e-13 125.333 151.985)
(3.0557e-13 130.074 157.268)
(3.3308e-13 134.511 162.093)
(3.59428e-13 138.529 166.349)
(3.82909e-13 141.685 169.774)
(4.00699e-13 143.244 171.94)
(4.0916e-13 142.333 172.062)
(4.06696e-13 138.739 169.617)
(3.96616e-13 133.512 164.953)
(3.86723e-13 128.465 159.547)
(3.83913e-13 124.554 155.119)
(3.89036e-13 121.17 152.386)
(3.98619e-13 117.181 151.131)
(4.10085e-13 112.085 151.207)
(4.22158e-13 105.89 152.487)
(4.33576e-13 98.7123 154.563)
(4.42215e-13 90.6307 156.573)
(4.46236e-13 81.8341 157.61)
(4.45343e-13 72.7282 157.307)
(4.41144e-13 63.8019 156.032)
(4.36031e-13 55.334 154.52)
(4.3182e-13 47.3086 153.342)
(4.294e-13 39.6016 152.751)
(4.29045e-13 32.1205 152.812)
(4.30666e-13 24.8049 153.516)
(4.34049e-13 17.6312 154.824)
(4.39181e-13 10.6467 156.745)
(4.46293e-13 3.95479 159.353)
(4.55797e-13 -2.43408 162.724)
(4.6931e-13 -8.81965 167.281)
(4.88719e-13 -15.7124 173.631)
(5.14617e-13 -23.5777 182.018)
(5.48313e-13 -32.9323 192.874)
(5.91612e-13 -44.4157 206.755)
(6.46975e-13 -58.8953 224.406)
(7.17827e-13 -77.5959 246.844)
(8.09118e-13 -102.327 275.499)
(9.28249e-13 -135.88 312.435)
(1.08641e-12 -182.729 360.603)
(1.30159e-12 -250.41 424.579)
(1.60531e-12 -351.967 512.697)
(2.05511e-12 -508.95 641.188)
(2.73393e-12 -749.013 835.483)
(3.6225e-12 -1064.02 1084.41)
(4.12658e-12 -1275.5 1148.04)
(9.22814e-20 24.4388 28.2714)
(1.66189e-19 28.0813 29.542)
(-8.947e-21 29.7365 30.7525)
(-5.83996e-19 31.8965 32.1481)
(-1.1141e-18 33.9377 33.4227)
(1.14708e-19 36.0737 34.6957)
(7.42845e-18 38.1127 36.0021)
(3.11636e-17 40.0679 37.4384)
(8.06993e-17 41.9348 39.0686)
(1.69554e-16 43.7234 40.956)
(3.03889e-16 45.3992 43.1669)
(4.67162e-16 46.9107 45.7472)
(5.94179e-16 48.2419 48.7007)
(5.64904e-16 49.4506 52.0054)
(2.13405e-16 50.6376 55.6228)
(-6.26132e-16 51.8635 59.513)
(-2.0405e-15 53.1347 63.665)
(-3.94e-15 54.4845 68.13)
(-5.94598e-15 56.0051 72.9477)
(-7.29216e-15 57.7651 78.0753)
(-6.96614e-15 59.8781 83.4341)
(-4.16132e-15 62.4317 88.9769)
(1.34516e-15 65.2667 94.3698)
(9.28637e-15 68.2726 99.4185)
(1.95581e-14 71.5448 104.066)
(3.30774e-14 75.3861 108.725)
(5.0773e-14 79.9415 113.477)
(7.31972e-14 85.1963 118.25)
(1.00352e-13 91.0148 123.072)
(1.30993e-13 97.0544 128.02)
(1.62595e-13 102.933 132.971)
(1.93766e-13 108.519 138.103)
(2.23933e-13 113.824 143.549)
(2.53495e-13 119.018 149.29)
(2.82697e-13 124.103 155.077)
(3.11121e-13 128.937 160.518)
(3.38732e-13 133.482 165.467)
(3.65366e-13 137.653 169.898)
(3.89219e-13 141.037 173.488)
(4.07764e-13 142.956 175.873)
(4.17561e-13 142.548 176.31)
(4.16867e-13 139.478 174.241)
(4.08437e-13 134.582 169.891)
(3.99359e-13 129.519 164.56)
(3.96353e-13 125.326 159.921)
(4.00772e-13 121.599 156.834)
(4.09656e-13 117.306 155.241)
(4.20513e-13 111.934 155.048)
(4.32197e-13 105.52 156.195)
(4.43535e-13 98.2592 158.287)
(4.52515e-13 90.2825 160.443)
(4.5725e-13 81.7307 161.7)
(4.57287e-13 72.8752 161.639)
(4.54041e-13 64.0835 160.596)
(4.49774e-13 55.605 159.287)
(4.46253e-13 47.4706 158.279)
(4.44344e-13 39.6117 157.816)
(4.44363e-13 31.9681 157.973)
(4.46337e-13 24.4979 158.777)
(4.50127e-13 17.1843 160.221)
(4.55693e-13 10.0723 162.317)
(4.63248e-13 3.25966 165.133)
(4.73295e-13 -3.28022 168.739)
(4.87773e-13 -9.91294 173.633)
(5.08244e-13 -17.1504 180.324)
(5.35455e-13 -25.4347 189.119)
(5.70745e-13 -35.3054 200.458)
(6.15997e-13 -47.4306 214.922)
(6.73791e-13 -62.7205 233.286)
(7.47743e-13 -82.4652 256.615)
(8.43011e-13 -108.571 286.374)
(9.67206e-13 -143.965 324.626)
(1.1318e-12 -193.363 374.303)
(1.35627e-12 -264.873 440.424)
(1.67794e-12 -372.912 533.549)
(2.16478e-12 -540.631 674.175)
(2.88772e-12 -790.252 883.8)
(3.72837e-12 -1087.97 1116.23)
(4.01294e-12 -1222.56 1108.35)
(9.80093e-20 24.3 29.0704)
(2.10552e-19 27.8428 30.4409)
(1.50804e-19 29.4792 31.6661)
(-1.29321e-19 31.643 33.0769)
(1.53395e-19 33.6931 34.3478)
(3.54452e-18 35.8247 35.6469)
(1.53901e-17 37.8433 37.0062)
(4.69557e-17 39.7643 38.5211)
(1.09259e-16 41.5843 40.2528)
(2.14224e-16 43.3142 42.2656)
(3.61971e-16 44.921 44.6203)
(5.20634e-16 46.3605 47.3505)
(6.0579e-16 47.6231 50.4449)
(4.78479e-16 48.77 53.8721)
(-3.22832e-17 49.9018 57.6022)
(-1.07002e-15 51.0769 61.6097)
(-2.66169e-15 52.2944 65.881)
(-4.62811e-15 53.5833 70.4458)
(-6.50519e-15 55.0476 75.326)
(-7.48897e-15 56.768 80.4591)
(-6.61809e-15 58.8509 85.7203)
(-3.21939e-15 61.3977 91.1221)
(2.86265e-15 64.2701 96.4569)
(1.13534e-14 67.3432 101.534)
(2.21063e-14 70.6559 106.224)
(3.6049e-14 74.4841 110.893)
(5.42548e-14 79.0212 115.701)
(7.73779e-14 84.2692 120.61)
(1.0522e-13 90.0742 125.564)
(1.36456e-13 96.1035 130.655)
(1.68404e-13 101.97 135.742)
(1.9954e-13 107.515 140.955)
(2.29403e-13 112.759 146.432)
(2.58679e-13 117.911 152.209)
(2.87844e-13 123.017 158.105)
(3.16458e-13 127.93 163.719)
(3.44238e-13 132.572 168.813)
(3.71151e-13 136.873 173.415)
(3.95425e-13 140.45 177.188)
(4.14749e-13 142.661 179.801)
(4.25881e-13 142.67 180.558)
(4.26968e-13 140.059 178.878)
(4.20255e-13 135.494 174.874)
(4.12158e-13 130.495 169.677)
(4.09122e-13 126.116 164.888)
(4.12884e-13 122.104 161.473)
(4.21009e-13 117.525 159.535)
(4.31128e-13 111.873 159.044)
(4.42226e-13 105.219 160.006)
(4.53285e-13 97.842 162.049)
(4.62462e-13 89.9338 164.294)
(4.67856e-13 81.5906 165.743)
(4.68835e-13 72.9563 165.929)
(4.66552e-13 64.2868 165.134)
(4.63111e-13 55.8092 164.037)
(4.60294e-13 47.6023 163.212)
(4.59025e-13 39.644 162.921)
(4.59624e-13 31.8905 163.243)
(4.62124e-13 24.3025 164.205)
(4.66415e-13 16.8613 165.817)
(4.72473e-13 9.60174 168.109)
(4.80511e-13 2.60487 171.15)
(4.91108e-13 -4.18241 174.997)
(5.06561e-13 -11.1341 180.235)
(5.2812e-13 -18.7667 187.281)
(5.56661e-13 -27.5209 196.494)
(5.93584e-13 -37.9627 208.337)
(6.40848e-13 -50.7943 223.413)
(7.01156e-13 -66.9748 242.53)
(7.78295e-13 -87.8616 266.79)
(8.77558e-13 -115.454 297.661)
(1.00663e-12 -152.822 337.154)
(1.17757e-12 -205.008 388.336)
(1.41298e-12 -281.008 457.375)
(1.75827e-12 -396.98 558.083)
(2.28761e-12 -576.607 713.521)
(3.0405e-12 -832.509 932.726)
(3.79656e-12 -1104.86 1131.64)
(3.7913e-12 -1167.23 1031.54)
(1.12253e-19 24.1438 29.9021)
(2.60898e-19 27.5852 31.37)
(3.48917e-19 29.2052 32.596)
(5.23517e-19 31.3727 34.0165)
(1.99625e-18 33.4284 35.288)
(8.289e-18 35.5508 36.6227)
(2.59613e-17 37.5442 38.0442)
(6.72053e-17 39.4261 39.6475)
(1.43931e-16 41.1933 41.4902)
(2.64358e-16 42.8585 43.6379)
(4.21131e-16 44.3918 46.1425)
(5.63506e-16 45.7569 49.0232)
(5.87559e-16 46.9502 52.2532)
(3.40541e-16 48.0337 55.7947)
(-3.44122e-16 49.1065 59.6277)
(-1.57682e-15 50.2259 63.7437)
(-3.31686e-15 51.3878 68.126)
(-5.29555e-15 52.6168 72.776)
(-6.97825e-15 54.0272 77.6936)
(-7.55374e-15 55.7145 82.815)
(-6.13772e-15 57.7758 87.9819)
(-2.1879e-15 60.3127 93.2429)
(4.41248e-15 63.2126 98.5073)
(1.33999e-14 66.3458 103.601)
(2.46148e-14 69.6996 108.342)
(3.89736e-14 73.5172 113.036)
(5.76213e-14 78.0219 117.882)
(8.13663e-14 83.2502 122.906)
(1.09853e-13 89.0354 127.993)
(1.41664e-13 95.0491 133.236)
(1.74001e-13 100.905 138.487)
(2.05191e-13 106.416 143.821)
(2.34832e-13 111.606 149.362)
(2.63844e-13 116.715 155.184)
(2.92936e-13 121.831 161.174)
(3.2175e-13 126.824 166.971)
(3.49756e-13 131.567 172.236)
(3.76978e-13 136.002 177.023)
(4.01731e-13 139.777 181.002)
(4.21888e-13 142.289 183.865)
(4.34415e-13 142.728 184.964)
(4.37357e-13 140.599 183.694)
(4.32478e-13 136.402 180.068)
(4.25518e-13 131.502 175.056)
(4.22597e-13 126.963 170.168)
(4.25751e-13 122.671 166.452)
(4.33058e-13 117.797 164.161)
(4.4232e-13 111.846 163.344)
(4.52663e-13 104.927 164.068)
(4.63282e-13 97.4087 166.006)
(4.72537e-13 89.5485 168.289)
(4.7855e-13 81.4032 169.906)
(4.80507e-13 72.9921 170.351)
(4.7925e-13 64.4549 169.828)
(4.7666e-13 55.9836 168.958)
(4.745e-13 47.6941 168.303)
(4.73797e-13 39.614 168.164)
(4.74943e-13 31.7269 168.648)
(4.77978e-13 24.0036 169.786)
(4.8279e-13 16.4292 171.586)
(4.89354e-13 9.03867 174.087)
(4.97878e-13 1.89244 177.351)
(5.09029e-13 -5.11986 181.429)
(5.25481e-13 -12.3956 187.012)
(5.48154e-13 -20.4373 194.422)
(5.78045e-13 -29.6873 204.066)
(6.16645e-13 -40.7347 216.432)
(6.65985e-13 -54.3174 232.147)
(7.28893e-13 -71.4453 252.048)
(8.0923e-13 -93.5395 277.235)
(9.12326e-13 -122.687 309.139)
(1.046e-12 -162.134 349.758)
(1.22378e-12 -217.425 402.671)
(1.47329e-12 -298.789 476.016)
(1.8484e-12 -424.086 586.954)
(2.4202e-12 -615.584 757.223)
(3.17804e-12 -872.918 976.318)
(3.8068e-12 -1110.78 1128.19)
(3.54813e-12 -1089.88 956.851)
(1.41553e-19 23.9781 30.7679)
(3.41835e-19 27.3242 32.3265)
(6.35202e-19 28.9356 33.5383)
(1.48216e-18 31.1084 34.9628)
(4.63891e-18 33.166 36.2396)
(1.47693e-17 35.2728 37.6192)