/*--------------------------------*- C++ -*----------------------------------*\
| =========                 |                                                 |
| \\      /  F ield         | OpenFOAM: The Open Source CFD Toolbox           |
|  \\    /   O peration     | Version:  4.1                                   |
|   \\  /    A nd           | Web:      www.OpenFOAM.org                      |
|    \\/     M anipulation  |                                                 |
\*---------------------------------------------------------------------------*/
FoamFile
{
    version     2.0;
    format      ascii;
    class       volScalarField;
    location    "16";
    object      p;
}
// * * * * * * * * * * * * * * * * * * * * * * * * * * * * * * * * * * * * * //

dimensions      [0 2 -2 0 0 0 0];

internalField   nonuniform List<scalar> 
6785
(
608.368
530.33
483.626
430.624
384.25
339.624
298.068
258.733
221.5
186.158
152.015
118.675
89.5778
59.5686
18.7606
1.45806
-15.717
-5.63116
-12.3748
-11.5281
-13.7615
-14.2886
-14.7633
-14.3556
-13.0723
-10.637
-7.50531
-3.11938
3.24848
6.66151
31.5545
27.9247
37.2847
33.1147
37.3363
36.6432
37.9409
38.0589
38.4152
38.5802
38.9792
39.4772
39.7527
39.906
40.5198
50.0202
46.1016
48.3477
42.5998
43.261
39.481
38.2734
35.7967
34.1205
32.3586
31.0891
30.1401
29.0151
27.0485
25.0985
8.42236
4.03513
4.72582
0.369856
0.889085
-2.51703
-3.30581
-5.71891
-7.34295
-9.30864
-10.8624
-11.9625
-12.9188
-13.8442
-12.9153
-5.59381
-7.77502
-5.63166
-8.14682
-6.0613
-7.89998
-6.94451
-7.65893
-7.47012
-7.53564
-7.0542
-6.01628
-4.18447
-2.77499
-0.15852
17.2036
17.6271
20.5081
19.8917
22.9272
23.0233
25.2425
26.3229
28.0177
29.5108
31.1552
32.6795
34.4828
35.7436
38.0694
38.683
39.775
41.9311
41.7086
44.0495
44.2633
45.9078
46.7427
47.9353
48.9722
50.0788
51.0741
52.2182
53.0071
54.1623
52.8258
53.9653
55.5817
55.4414
57.2174
57.3563
58.5712
59.1868
60.048
60.8133
61.6143
62.369
63.3071
63.995
65.1053
67.4027
68.7254
69.8722
70.0097
71.4092
71.5194
72.4135
72.4909
72.6989
72.7248
72.9085
73.4251
74.2248
74.8774
75.5935
78.6348
78.7736
79.2615
78.7871
79.2718
78.7657
78.8663
78.4864
78.3452
78.0731
77.7476
77.3203
76.6686
76.5515
75.8127
78.1988
75.914
75.121
73.4041
73.0988
71.6818
70.8453
69.1029
67.1011
64.3782
61.496
58.8837
57.2972
56.9132
54.5097
58.5938
53.8877
51.0411
47.7204
44.8391
41.4048
38.4696
35.546
33.2848
31.5319
30.386
29.6682
29.3686
28.7017
26.3306
23.5668
22.1629
21.0707
18.9746
16.6604
14.1572
12.2007
10.4013
8.92986
7.51633
6.13379
4.74491
3.68291
2.7039
2.05892
50.9548
49.6526
47.8268
42.6241
34.5614
26.9109
21.0014
15.6454
11.2443
8.52898
6.44581
5.42384
5.75664
6.40848
6.99266
39.858
40.2067
40.3937
40.3968
40.4797
40.7178
41.2937
41.1118
41.0261
40.9209
41.1688
40.7225
40.603
40.7114
40.1101
39.9818
40.0183
40.1173
39.1884
39.4772
39.6228
38.7252
38.5763
38.9948
39.163
38.215
38.0775
38.5548
38.9679
37.837
38.4431
38.7703
37.958
37.8235
38.3903
38.6458
37.7806
38.3319
38.4649
37.9501
37.8106
38.2678
38.1702
37.8186
37.738
38.1443
37.8216
37.3581
37.8429
37.5918
37.3184
37.2615
37.5477
37.6316
37.4656
37.3995
37.5345
38.0048
37.9082
37.8174
38.5287
38.4892
38.3845
38.2794
38.6924
38.7459
39.3206
39.1936
38.1273
39.1097
40.021
35.2639
32.2762
35.0746
38.7185
18.2004
26.299
33.4354
-7.45554
1.99827
6.71209
4.77638
8.60598
5.63265
2.93205
9.21405
9.22368
10.4099
10.7006
11.9004
14.8248
18.3273
21.3446
13.3737
15.3967
19.3361
23.3799
23.9252
25.9949
27.4695
28.9258
34.653
31.3322
34.7956
36.0404
38.8107
42.7556
45.3694
46.9332
49.2418
47.723
56.3167
54.2826
56.6718
57.728
58.7687
60.8527
64.1384
66.018
61.4508
68.2037
69.2575
71.7384
72.3855
71.4747
70.3275
69.1134
70.7542
64.7184
73.7298
73.1613
67.9586
66.9179
65.1346
61.2878
58.3352
55.5615
46.1039
53.409
57.6204
50.2053
46.6626
41.5839
34.9734
29.2772
26.4463
22.3728
16.737
17.0243
16.8349
11.9351
11.6431
10.5149
9.01441
3.48985
1.71879
4.27522
-3.33627
5.98099
4.4111
4.51452
10.0677
4.75711
7.61428
6.57664
8.47983
11.3258
7.12611
9.56215
11.2802
8.51262
9.66969
8.92982
9.79697
11.3961
8.92852
9.8524
9.09486
9.857
11.0712
8.61441
9.8223
10.6321
8.84589
9.43755
8.81757
9.29817
10.1686
8.48976
9.01016
8.40501
8.8496
9.55343
7.84295
8.57915
9.03648
7.76929
8.10441
7.6282
7.88313
8.38364
7.21048
7.49562
7.047
7.27096
7.64327
6.48729
6.89217
7.08288
6.22591
6.37319
6.02468
6.11319
6.29184
5.52964
5.62785
5.30623
5.35927
5.41922
4.70963
4.84106
4.77691
4.22738
4.20915
3.94644
3.89853
3.79647
3.31146
3.23261
2.95169
2.92678
2.83821
2.25288
2.06758
2.08934
1.44554
1.12977
0.945861
0.492966
0.261952
0.00131497
0.0021308
0.00341694
0.00428261
0.00526382
0.00610062
0.00693225
0.00768491
0.00839011
0.00902682
0.00960094
0.0101085
0.0105533
0.0109403
0.0112789
0.0115823
0.0118669
0.012151
0.0124516
0.0127814
0.0131465
0.0135473
0.0139825
0.0144571
0.014992
0.0156373
0.0164855
0.0176648
0.0192978
0.0214124
0.0238771
0.0264822
0.0290473
0.0313249
0.0331137
0.034248
0.0346112
0.0342076
0.0331462
0.031644
0.0299677
0.0283679
0.0270426
0.0261689
0.0257946
0.0255187
0.0243178
0.0206524
0.012841
-0.00019828
-0.0173632
-0.0362675
-0.0640762
-0.123736
-0.140223
-0.557355
-0.583097
-0.704937
-0.900974
-0.970957
-0.968952
-0.944615
-0.856152
-0.732437
-0.579939
-0.379498
-0.193983
-0.0017166
0.163477
0.29756
0.41039
0.471806
0.529376
0.530352
0.546957
0.551537
0.498032
0.596264
0.414847
0.00369872
0.00585143
0.00937621
0.0117834
0.0144197
0.0166724
0.0188592
0.0208187
0.0226152
0.0242066
0.0256028
0.0267998
0.0278076
0.028644
0.0293366
0.029925
0.0304569
0.0309852
0.0315582
0.0322115
0.0329615
0.033808
0.0347465
0.0357898
0.0369962
0.0385054
0.0405773
0.0435724
0.0478344
0.053432
0.059974
0.0668612
0.0736015
0.0795141
0.0840624
0.0868103
0.0874596
0.0860595
0.0829456
0.078698
0.0738333
0.0683948
0.0616937
0.052625
0.0402044
0.0239072
0.00398447
-0.0187575
-0.0436501
-0.0704105
-0.0982667
-0.128
-0.159523
-0.198125
-0.290347
-0.70227
-0.860896
-1.0867
-1.43436
-1.61155
-1.69634
-1.7293
-1.60932
-1.40145
-1.12096
-0.738269
-0.37971
0.000408355
0.317317
0.582609
0.77913
0.908737
0.988885
1.02923
1.04218
1.07798
1.05765
1.11372
1.22027
0.00577904
0.00951788
0.0155598
0.0196819
0.0242131
0.0280859
0.0318586
0.0352473
0.0383678
0.0411448
0.0435971
0.0457161
0.047519
0.0490348
0.0503094
0.0514092
0.0524143
0.0534138
0.0544891
0.0557007
0.0570764
0.0586156
0.0603102
0.0621806
0.0643242
0.0669751
0.0705731
0.0757313
0.0830385
0.0926162
0.103803
0.115591
0.127145
0.13731
0.145174
0.149986
0.151232
0.148984
0.14382
0.136786
0.12892
0.120611
0.111142
0.0991096
0.0830491
0.0616847
0.034296
0.000539001
-0.04013
-0.0883329
-0.143362
-0.205599
-0.274787
-0.387199
-0.665891
-0.618576
-1.00205
-1.26213
-1.68628
-1.92175
-2.05056
-2.11435
-1.97504
-1.72442
-1.3772
-0.902049
-0.458156
0.0150163
0.40557
0.734781
0.972723
1.13274
1.22552
1.27273
1.29664
1.31157
1.34815
1.3254
1.70886
0.00773543
0.0130014
0.0214154
0.0272041
0.0335289
0.0389465
0.0442093
0.0489371
0.0532833
0.0571484
0.0605563
0.0634968
0.0659936
0.0680875
0.0698429
0.0713528
0.0727295
0.074098
0.0755727
0.077238
0.0791322
0.0812537
0.0835887
0.0861633
0.0891099
0.0927525
0.0977059
0.104835
0.114979
0.128312
0.143892
0.160307
0.176393
0.190539
0.20148
0.208162
0.209868
0.206691
0.199443
0.189595
0.178615
0.167025
0.153743
0.13667
0.113619
0.0827741
0.0433203
-0.00479598
-0.0617389
-0.127985
-0.203459
-0.289803
-0.38384
-0.5341
-0.939419
-0.496415
-1.25951
-1.53735
-2.05974
-2.36507
-2.53382
-2.62551
-2.45467
-2.14542
-1.71223
-1.11902
-0.566175
0.0242542
0.509871
0.920075
1.21507
1.41326
1.52781
1.57992
1.61799
1.61082
1.68993
1.61449
2.18433
0.00950385
0.0163893
0.0271924
0.0346997
0.0428609
0.0498712
0.0566696
0.0627832
0.0684013
0.0734004
0.0778093
0.081616
0.0848502
0.0875649
0.0898423
0.0918023
0.09359
0.0953669
0.0972813
0.0994425
0.101899
0.104648
0.107667
0.110986
0.11477
0.119429
0.125757
0.134883
0.147918
0.165099
0.18519
0.206365
0.22713
0.245401
0.259557
0.268225
0.270467
0.266378
0.256987
0.244192
0.229916
0.214885
0.19778
0.176031
0.146998
0.108492
0.0594322
-0.000584324
-0.0722746
-0.156831
-0.255224
-0.370011
-0.49912
-0.697426
-1.10249
-0.390162
-1.5639
-1.83868
-2.45697
-2.84335
-3.05661
-3.18391
-2.97967
-2.6081
-2.08117
-1.35868
-0.686641
0.0327665
0.622002
1.12096
1.47661
1.71737
1.85338
1.91487
1.96406
1.94159
2.05565
1.93322
2.38135
0.0111406
0.0196734
0.0327947
0.0420269
0.051998
0.0605932
0.0689079
0.0763924
0.083263
0.0893772
0.0947662
0.0994177
0.103367
0.106679
0.109454
0.111838
0.114011
0.11617
0.118499
0.121132
0.124128
0.127478
0.131154
0.135183
0.139756
0.145369
0.152991
0.164032
0.179896
0.200891
0.225465
0.251373
0.276792
0.299161
0.316514
0.327146
0.329887
0.324814
0.313147
0.2972
0.279354
0.260533
0.23915
0.212142
0.176449
0.129595
0.0703296
-0.00198238
-0.0884443
-0.190836
-0.31124
-0.453197
-0.616607
-0.852684
-1.20364
-0.434194
-1.86288
-2.15179
-2.83791
-3.30675
-3.56015
-3.72423
-3.48369
-3.05176
-2.43191
-1.58369
-0.797187
0.0464695
0.733815
1.31721
1.7293
2.01007
2.16515
2.23477
2.2943
2.25431
2.40239
2.23447
2.83452
0.0126418
0.0228855
0.0382809
0.0492652
0.0610461
0.0712431
0.0810824
0.0899503
0.0980825
0.105322
0.111699
0.117203
0.121873
0.125786
0.129062
0.131873
0.134431
0.136974
0.13972
0.142829
0.14637
0.15033
0.154665
0.1594
0.164747
0.171279
0.180146
0.193051
0.21173
0.236575
0.265684
0.296388
0.326534
0.353073
0.373694
0.386337
0.389577
0.383425
0.369263
0.349826
0.327995
0.304949
0.278874
0.246324
0.203993
0.149239
0.0805808
-0.00310592
-0.103657
-0.223785
-0.366856
-0.537449
-0.738863
-1.01459
-1.32708
-0.747398
-2.1644
-2.51359
-3.2314
-3.78504
-4.07515
-4.27716
-3.99495
-3.50084
-2.78429
-1.80796
-0.905971
0.0628731
0.847991
1.51558
1.98348
2.30376
2.47737
2.5542
2.62352
2.56446
2.74336
2.53064
3.12802
0.0140284
0.0260335
0.0436386
0.0563926
0.0699677
0.0817719
0.0931304
0.103381
0.112771
0.121132
0.128491
0.134841
0.140224
0.14473
0.148495
0.15172
0.154651
0.157564
0.160716
0.164292
0.168371
0.172932
0.177916
0.183337
0.189423
0.196817
0.206849
0.22154
0.242996
0.271708
0.305388
0.340931
0.375854
0.406607
0.430541
0.445207
0.448882
0.441455
0.424442
0.401031
0.374688
0.346901
0.31566
0.277223
0.228151
0.165652
0.0878993
-0.00686939
-0.121336
-0.259241
-0.425284
-0.625186
-0.865611
-1.18109
-1.50288
-1.30992
-2.42753
-2.9316
-3.64314
-4.28504
-4.60968
-4.85233
-4.52236
-3.96337
-3.14464
-2.03578
-1.01538
0.0816066
0.965657
1.7185
2.2421
2.60217
2.79352
2.87781
2.95551
2.87767
3.08303
2.82858
3.40521
0.0153078
0.0291338
0.0488874
0.0634325
0.0787902
0.0922116
0.105089
0.116728
0.127376
0.13686
0.145203
0.152397
0.158491
0.163585
0.167832
0.171463
0.174757
0.178032
0.181582
0.185622
0.190238
0.195399
0.201027
0.20712
0.213913
0.222111
0.233226
0.24962
0.273823
0.30644
0.344752
0.385206
0.424988
0.460032
0.487343
0.504033
0.508016
0.498991
0.478607
0.450595
0.419121
0.386047
0.349221
0.304722
0.249076
0.179285
0.0930222
-0.0122952
-0.140374
-0.296168
-0.485827
-0.716392
-0.997421
-1.35616
-1.73463
-1.9677
-2.54621
-3.39691
-4.07109
-4.80539
-5.16117
-5.4472
-5.06222
-4.43564
-3.509
-2.26389
-1.12307
0.103901
1.08682
1.92493
2.50315
2.90272
3.1104
3.20244
3.28676
3.19044
3.41878
3.12602
3.70233
0.0164915
0.0321954
0.0540314
0.070387
0.087511
0.102557
0.116949
0.129979
0.141885
0.152491
0.161812
0.169848
0.176645
0.182319
0.187039
0.191063
0.194706
0.19833
0.202269
0.206765
0.211914
0.217672
0.223938
0.230685
0.238146
0.24708
0.259179
0.277178
0.30409
0.340656
0.383665
0.429112
0.47384
0.51325
0.543983
0.562633
0.566664
0.555531
0.531079
0.497734
0.460491
0.421642
0.378946
0.3284
0.266498
0.18991
0.0956426
-0.0198408
-0.161388
-0.335289
-0.549241
-0.811769
-1.13451
-1.53978
-1.99395
-2.49584
-2.53181
-3.92557
-4.52099
-5.35056
-5.734
-6.06604
-5.61726
-4.91958
-3.87805
-2.49236
-1.22876
0.130169
1.21185
2.13513
2.76677
3.20544
3.42792
3.52806
3.61704
3.50266
3.75098
3.42116
4.02438
0.0175873
0.0352286
0.0590812
0.0772671
0.0961408
0.11282
0.128724
0.143148
0.156309
0.168037
0.178335
0.187208
0.194704
0.20095
0.206132
0.210536
0.214515
0.218475
0.222791
0.227737
0.233416
0.239771
0.246668
0.254052
0.262142
0.271739
0.284711
0.3042
0.333783
0.374357
0.422144
0.472683
0.52246
0.566313
0.600472
0.620901
0.624527
0.610565
0.581215
0.54179
0.498221
0.453267
0.404643
0.348299
0.280629
0.197828
0.0960981
-0.0291616
-0.184052
-0.376321
-0.615333
-0.911263
-1.27714
-1.7324
-2.26098
-2.83555
-2.5525
-4.54579
-5.00416
-5.92417
-6.33407
-6.71462
-6.19161
-5.41846
-4.25354
-2.72208
-1.33262
0.160678
1.34126
2.34973
3.03353
3.51091
3.74648
3.85539
3.94672
3.81511
4.08016
3.71397
4.31741
0.0186029
0.0382409
0.0640435
0.0840787
0.104684
0.123003
0.140415
0.156235
0.17065
0.1835
0.194771
0.204477
0.212664
0.219473
0.225105
0.229874
0.234172
0.238451
0.243133
0.248522
0.25473
0.261679
0.269202
0.277206
0.285883
0.29606
0.309778
0.330627
0.362836
0.407489
0.460149
0.515893
0.570822
0.619162
0.656648
0.678476
0.68099
0.663288
0.628169
0.582036
0.531791
0.480654
0.426297
0.364595
0.291747
0.203335
0.0946477
-0.0400623
-0.208238
-0.419189
-0.684054
-1.01479
-1.42547
-1.9346
-2.53599
-3.1235
-2.76277
-5.19575
-5.53368
-6.52671
-6.96643
-7.39813
-6.78844
-5.93459
-4.63629
-2.95312
-1.43434
0.195918
1.47546
2.56897
3.30353
3.8191
4.06583
4.18436
4.27548
4.12783
4.40601
4.00715
4.58827
0.0195447
0.0412397
0.0689262
0.0908295
0.113148
0.133114
0.152029
0.169248
0.184915
0.198885
0.211126
0.221659
0.230531
0.237893
0.24396
0.249079
0.253678
0.25826
0.263293
0.269118
0.275852
0.283395
0.291541
0.300148
0.309368
0.320036
0.334357
0.356416
0.391205
0.440021
0.497662
0.558735
0.618904
0.671695
0.712218
0.73478
0.735215
0.71276
0.671133
0.617946
0.560991
0.503874
0.444195
0.377709
0.300322
0.206901
0.0917348
-0.052136
-0.233574
-0.463546
-0.755062
-1.122
-1.57941
-2.14668
-2.82105
-3.42544
-3.27079
-5.82251
-6.12148
-7.15754
-7.63597
-8.12277
-7.41144
-6.47059
-5.02725
-3.18576
-1.53371
0.236443
1.6153
2.79329
3.57675
4.12996
4.38568
4.51491
4.60298
4.4408
4.72897
4.29728
4.90955
0.0204185
0.0442308
0.0737358
0.0975256
0.121537
0.143158
0.16357
0.182191
0.199107
0.214195
0.227402
0.238758
0.248305
0.256209
0.262698
0.268148
0.273029
0.277894
0.283264
0.289517
0.296775
0.304914
0.313678
0.322872
0.33259
0.343652
0.358416
0.381511
0.41883
0.471912
0.534652
0.601179
0.666615
0.72365
0.766619
0.788916
0.786102
0.757959
0.709437
0.649281
0.585915
0.523252
0.458804
0.388171
0.306896
0.209043
0.0878362
-0.0649488
-0.25966
-0.509
-0.827942
-1.23238
-1.73855
-2.36776
-3.11465
-3.76509
-4.06391
-6.40511
-6.77441
-7.81587
-8.34723
-8.89622
-8.06525
-7.02971
-5.4277
-3.42058
-1.63064
0.282783
1.76177
3.02352
3.85377
4.44338
4.70591
4.84705
4.92898
4.75415
5.04874
4.58676
5.1741
0.0212289
0.0472195
0.0784787
0.104173
0.129858
0.153139
0.175044
0.195067
0.213231
0.229436
0.243603
0.255776
0.26599
0.274423
0.281318
0.28708
0.29222
0.297348
0.30304
0.309711
0.317492
0.326229
0.335613
0.345379
0.355549
0.3669
0.381926
0.405858
0.445652
0.503123
0.571085
0.64316
0.713751
0.774533
0.818966
0.839677
0.832407
0.798003
0.74277
0.676192
0.606969
0.539324
0.470723
0.396596
0.312067
0.210327
0.0834822
-0.0779997
-0.286007
-0.555048
-0.902138
-1.34527
-1.90211
-2.59605
-3.41476
-4.15474
-5.07749
-6.86478
-7.47927
-8.50153
-9.10432
-9.72739
-8.7554
-7.61561
-5.83903
-3.65801
-1.7248
0.335508
1.9154
3.26022
4.13592
4.75959
5.02616
5.18071
5.25321
5.06799
5.36529
4.87434
5.45483
0.0219801
0.0502105
0.0831605
0.110777
0.138115
0.163062
0.186454
0.207883
0.227291
0.24461
0.259734
0.272716
0.283588
0.292538
0.299822
0.305873
0.311249
0.316617
0.322612
0.329693
0.337998
0.347336
0.357339
0.367667
0.378243
0.389773
0.404857
0.429398
0.471607
0.533607
0.606901
0.684525
0.759898
0.823513
0.868003
0.88561
0.872942
0.832379
0.771279
0.699171
0.624755
0.552728
0.480597
0.403616
0.316438
0.211327
0.0792142
-0.0907637
-0.312084
-0.601126
-0.977
-1.45984
-2.06894
-2.82915
-3.71937
-4.58204
-6.09597
-7.07713
-8.2173
-9.21686
-9.9111
-10.6262
-9.48842
-8.23256
-6.26296
-3.89834
-1.81581
0.395212
2.07676
3.50375
4.42389
5.07887
5.3464
5.51578
5.57541
5.38237
5.67876
5.15933
5.7322
0.0226754
0.0532079
0.0877866
0.117343
0.146314
0.172932
0.197806
0.220641
0.24129
0.259721
0.275796
0.289581
0.301101
0.310554
0.318208
0.324526
0.330111
0.335693
0.341973
0.349455
0.358283
0.368229
0.378856
0.389736
0.400674
0.412265
0.42718
0.452068
0.496628
0.563308
0.641985
0.724959
0.804335
0.869378
0.912145
0.925204
0.906892
0.861152
0.795554
0.718934
0.639963
0.564126
0.489063
0.409843
0.320597
0.212603
0.0755789
-0.102692
-0.337322
-0.646608
-1.05179
-1.5751
-2.23754
-3.06442
-4.02601
-5.01381
-6.8363
-7.11314
-8.99114
-9.96367
-10.7711
-11.6034
-10.2719
-8.88558
-6.70141
-4.14194
-1.90333
0.462501
2.24648
3.75457
4.71778
5.40098
5.6673
5.85219
5.89526
5.69737
5.98892
5.44505
5.97997
0.0233177
0.0562154
0.0923617
0.123874
0.154458
0.182753
0.209103
0.233345
0.255233
0.274773
0.291793
0.306374
0.318531
0.328473
0.336477
0.343037
0.348803
0.354572
0.361115
0.368988
0.378341
0.388903
0.400161
0.411587
0.422846
0.434375
0.448867
0.473799
0.520634
0.592135
0.676103
0.763878
0.84596
0.910524
0.949613
0.957259
0.934116
0.884957
0.816457
0.73627
0.653271
0.574141
0.496713
0.415848
0.325095
0.214697
0.0731189
-0.113224
-0.361123
-0.690834
-1.1257
-1.68997
-2.40622
-3.29921
-4.33223
-5.42964
-7.28144
-7.1999
-9.76811
-10.7518
-11.6876
-12.6698
-11.1146
-9.58054
-7.15646
-4.38921
-1.98701
0.538014
2.4252
4.01312
5.0178
5.72578
5.99031
6.18936
6.21253
6.01307
6.29584
5.72797
6.25172
0.0239092
0.0592363
0.0968901
0.130376
0.162552
0.192529
0.220349
0.246
0.269122
0.289769
0.307728
0.323097
0.33588
0.346296
0.354628
0.361403
0.367319
0.373245
0.380028
0.388283
0.398163
0.409351
0.42125
0.433222
0.444765
0.456106
0.469889
0.494516
0.543527
0.619923
0.708809
0.800357
0.883283
0.945032
0.978799
0.981311
0.955226
0.904815
0.834935
0.751928
0.665285
0.583317
0.504067
0.422141
0.330441
0.218129
0.0723719
-0.121795
-0.382891
-0.733151
-1.19795
-1.80333
-2.57321
-3.53122
-4.63655
-5.83179
-7.63041
-7.58754
-10.4786
-11.6093
-12.6623
-13.8365
-12.0259
-10.3243
-7.63058
-4.64057
-2.06649
0.62241
2.61358
4.27984
5.32417
6.05315
6.31629
6.52686
6.52697
6.32945
6.59952
6.00712
6.52372
0.0244515
0.0622735
0.101376
0.136852
0.170599
0.202264
0.231547
0.258608
0.282961
0.304711
0.323603
0.339753
0.35315
0.364023
0.372662
0.379623
0.385655
0.391704
0.398704
0.407329
0.417741
0.429566
0.442121
0.454645
0.466442
0.477466
0.49022
0.51413
0.565158
0.646354
0.739363
0.833113
0.914417
0.970937
0.998807
0.997855
0.971387
0.921866
0.85187
0.766545
0.676496
0.592096
0.511559
0.429169
0.337104
0.223397
0.073865
-0.127858
-0.402077
-0.772992
-1.26786
-1.91421
-2.73703
-3.75877
-4.93769
-6.2247
-7.99094
-8.43676
-11.1046
-12.5562
-13.6976
-15.1156
-13.0166
-11.1246
-8.12694
-4.89659
-2.14136
0.716373
2.81226
4.55519
5.63705
6.38289
6.64482
6.86487
6.83803
6.64645
6.89957
6.28884
6.76375
0.0249459
0.0653299
0.105822
0.143305
0.178603
0.21196
0.242702
0.271172
0.296754
0.319603
0.339421
0.356342
0.370343
0.381655
0.390578
0.397693
0.403806
0.409943
0.417132
0.426116
0.437065
0.449543
0.462772
0.475861
0.487891
0.498469
0.509832
0.532526
0.585283
0.670874
0.766728
0.860491
0.937197
0.986833
1.00989
1.00817
0.983959
0.937172
0.868003
0.780617
0.687266
0.600816
0.519544
0.437324
0.34552
0.23098
0.078095
-0.130937
-0.418265
-0.809989
-1.335
-2.02197
-2.89681
-3.98116
-5.23496
-6.61426
-8.41665
-9.59828
-11.4617
-13.5802
-14.8046
-16.5199
-14.0982
-11.9902
-8.64929
-5.15807
-2.21123
0.820603
3.02196
4.83962
5.95657
6.71476
6.97545
7.20263
7.14605
6.96447
7.19599
6.5645
7.03633
0.0253931
0.0684078
0.110231
0.149738
0.186567
0.22162
0.253815
0.283697
0.310502
0.334447
0.355184
0.372868
0.387459
0.399195
0.408375
0.415613
0.421766
0.427952
0.435301
0.444633
0.456125
0.469275
0.483201
0.496876
0.50913
0.519136
0.52869
0.549531
0.603478
0.692689
0.789612
0.880391
0.949682
0.992546
1.01336
1.01384
0.994217
0.951609
0.883902
0.79449
0.697828
0.609707
0.528297
0.44695
0.356095
0.241322
0.0854851
-0.130708
-0.431297
-0.844135
-1.39942
-2.12667
-3.05267
-4.19895
-5.52917
-7.00645
-8.88764
-10.5785
-11.5316
-14.6977
-15.9916
-18.0624
-15.2832
-12.9306
-9.20193
-5.42607
-2.2757
0.935819
3.24335
5.13357
6.2828
7.04847
7.30781
7.53883
7.45329
7.28314
7.48872
6.84064
7.28074
0.0257935
0.0715096
0.114607
0.156153
0.194493
0.231246
0.264889
0.296183
0.324209
0.349244
0.370894
0.389331
0.4045
0.416641
0.426054
0.433377
0.439529
0.445722
0.453199
0.462866
0.474909
0.488752
0.503405
0.517696
0.530182
0.539491
0.546734
0.564854
0.619104
0.710897
0.806308
0.890476
0.951054
0.989312
1.01108
1.01642
1.0032
0.965848
0.899974
0.808371
0.70829
0.618905
0.538031
0.458348
0.369198
0.254798
0.0963041
-0.127129
-0.441439
-0.875971
-1.46185
-2.22921
-3.20581
-4.41402
-5.82261
-7.40414
-9.37132
-11.1883
-11.6532
-15.8182
-17.2711
-19.7567
-16.5844
-13.9559
-9.78949
-5.70204
-2.33437
1.06275
3.47716
5.43747
6.6158
7.38369
7.64147
7.87289
7.76267
7.60062
7.77762
7.11323
7.52709
0.0261468
0.0746374
0.11895
0.162553
0.202385
0.240842
0.275927
0.308633
0.337876
0.363998
0.386552
0.405733
0.421467
0.433995
0.443613
0.450985
0.457089
0.463243
0.470814
0.480803
0.493407
0.507968
0.523382
0.538332
0.551072
0.559556
0.563839
0.578003
0.631472
0.72447
0.814466
0.88909
0.942208
0.979238
1.00488
1.01713
1.01169
0.980372
0.916491
0.822341
0.71865
0.628458
0.548898
0.471776
0.385134
0.271641
0.110542
-0.120616
-0.449568
-0.906768
-1.52387
-2.33144
-3.35848
-4.62922
-6.11891
-7.8116
-9.87349
-11.7378
-12.2383
-16.8437
-18.7106
-21.6119
-18.0146
-15.0766
-10.4169
-5.98785
-2.38691
1.20216
3.72412
5.75175
6.95557
7.72002
7.97591
8.20429
8.07528
7.91618
8.06273
7.38135
7.78936
0.0264526
0.0777932
0.123263
0.168939
0.210242
0.250408
0.286931
0.32105
0.351506
0.378709
0.40216
0.422076
0.438362
0.451257
0.461052
0.468434
0.474441
0.480505
0.488132
0.49843
0.511606
0.526912
0.543128
0.558791
0.571822
0.579324
0.579707
0.588376
0.64012
0.731713
0.811596
0.876388
0.925386
0.964509
0.996239
1.01688
1.02023
0.99552
0.933618
0.836379
0.728805
0.63834
0.560999
0.487434
0.404094
0.291838
0.12774
-0.112226
-0.457339
-0.938647
-1.58788
-2.43595
-3.51351
-4.8479
-6.42205
-8.23264
-10.4051
-12.3845
-13.4922
-17.6978
-20.3449
-23.6417
-19.5877
-16.3043
-11.0894
-6.2857
-2.43303
1.35478
3.98497
6.07682
7.30208
8.05699
8.31048
8.53243
8.39076
8.2301
8.34387
7.65187
8.02155
0.02671
0.0809789
0.127547
0.175311
0.218067
0.259946
0.297903
0.333435
0.3651
0.393379
0.417719
0.438359
0.455184
0.468428
0.47837
0.485719
0.491576
0.497495
0.505137
0.51573
0.529492
0.545575
0.562641
0.579078
0.592437
0.598673
0.593788
0.59572
0.644531
0.729946
0.796545
0.854479
0.903171
0.946889
0.986197
1.01628
1.0292
1.01154
0.951455
0.850379
0.73856
0.648449
0.574374
0.505437
0.42607
0.31497
0.146799
-0.103832
-0.467281
-0.974521
-1.65686
-2.54559
-3.67377
-5.07326
-6.73557
-8.66993
-10.9743
-13.1649
-15.0149
-18.0988
-22.1621
-25.874
-21.3183
-17.6511
-11.8123
-6.59793
-2.4725
1.52138
4.26047
6.41309
7.65526
8.39403
8.64443
8.85675
8.70869
8.54248
8.62091
7.9175
8.26631
0.0269178
0.0841962
0.131804
0.181672
0.225861
0.269456
0.308843
0.345789
0.37866
0.408009
0.43323
0.454584
0.471934
0.485507
0.495567
0.502838
0.508488
0.514202
0.521815
0.532688
0.547051
0.563946
0.581913
0.599186
0.612856
0.617189
0.605505
0.600374
0.642824
0.716662
0.770598
0.826352
0.877688
0.927615
0.975449
1.01573
1.03888
1.02864
0.970063
0.864159
0.747635
0.658615
0.588999
0.525759
0.450733
0.340028
0.165801
-0.0982101
-0.482729
-1.01776
-1.73376
-2.66288
-3.84166
-5.30784
-7.06214
-9.12589
-11.5853
-14.0285
-16.1958
-18.3034
-24.2426
-28.3271
-23.223
-19.1294
-12.5911
-6.92674
-2.50512
1.70273
4.55138
6.76094
8.015
8.73047
8.97695
9.17674
9.02849
8.85327
8.89399
8.17613
8.53172
0.0270744
0.0874466
0.136032
0.188022
0.233625
0.27894
0.319753
0.358114
0.392186
0.4226
0.448692
0.47075
0.488613
0.502496
0.512643
0.519789
0.525169
0.530613
0.538147
0.549286
0.564267
0.58201
0.600928
0.619073
0.632801
0.634057
0.614944
0.602086
0.631134
0.691317
0.737
0.794682
0.850363
0.907487
0.964432
1.01553
1.04952
1.04703
0.989495
0.877477
0.755668
0.668606
0.604775
0.548164
0.477267
0.365226
0.181903
-0.098992
-0.507468
-1.07156
-1.82091
-2.78956
-4.01873
-5.55317
-7.40331
-9.6026
-12.2405
-14.9454
-17.1588
-18.8609
-26.548
-31.0608
-25.3191
-20.7501
-13.4308
-7.27356
-2.5307
1.89959
4.85846
7.12078
8.38112
9.0655
9.30709
9.49189
9.34939
9.16258
9.1629
8.44077
8.7624
0.0271779
0.0907317
0.140233
0.194359
0.241358
0.288397
0.330633
0.37041
0.40568
0.437151
0.464105
0.486857
0.50522
0.519394
0.529595
0.536567
0.541611
0.546714
0.554117
0.565504
0.581123
0.59975
0.619652
0.638585
0.651514
0.64854
0.623144
0.599683
0.608337
0.656455
0.698548
0.761199
0.822145
0.886981
0.953436
1.01592
1.06137
1.06696
1.00982
0.890035
0.762226
0.678136
0.621495
0.572084
0.504191
0.387872
0.191345
-0.110339
-0.545033
-1.13821
-1.91953
-2.92631
-4.20541
-5.80959
-7.75941
-10.1015
-12.9426
-15.9225
-18.2908
-20.4901
-29.1039
-34.2086
-27.6251
-22.5211
-14.3356
-7.63862
-2.54902
2.11276
5.18247
7.49296
8.7534
9.39819
9.63385
9.80173
9.67039
9.47019
9.42748
8.69873
9.01849
0.0272259
0.0940529
0.144406
0.200685
0.249059
0.297827
0.341483
0.382677
0.419141
0.451662
0.479469
0.502903
0.521755
0.536201
0.546424
0.553169
0.557805
0.562491
0.569704
0.581324
0.597598
0.617134
0.638001
0.657239
0.667699
0.660792
0.629706
0.585977
0.567937
0.616249
0.658291
0.726846
0.793475
0.866415
0.942705
1.01717
1.07476
1.08876
1.03114
0.90149
0.766816
0.686878
0.638802
0.596474
0.529213
0.404323
0.189687
-0.136217
-0.597834
-1.21853
-2.02955
-3.07263
-4.40093
-6.07608
-8.12937
-10.6226
-13.6926
-16.9706
-19.7321
-23.1897
-31.5807
-37.7311
-30.1763
-24.4487
-15.3093
-8.02133
-2.55978
2.34309
5.52418
7.87786
9.13157
9.72745
9.95615
10.1058
9.99039
9.77579
9.68774
8.96532
9.25222
0.0272158
0.0974115
0.14855
0.206998
0.256729
0.307228
0.352304
0.394915
0.432569
0.466134
0.494782
0.518889
0.538217
0.552916
0.563129
0.569593
0.573745
0.577927
0.584887
0.596719
0.613662
0.634106
0.655732
0.673958
0.680166
0.670779
0.630888
0.553047
0.518913
0.570859
0.615984
0.692237
0.764641
0.845992
0.932491
1.0196
1.0901
1.11288
1.05364
0.911459
0.768905
0.694464
0.656104
0.619683
0.54913
0.410057
0.172468
-0.179368
-0.666507
-1.3118
-2.14956
-3.22674
-4.60315
-6.35003
-8.51036
-11.1639
-14.4891
-18.0945
-21.477
-26.3429
-33.5499
-41.4025
-32.9777
-26.5403
-16.3566
-8.42115
-2.56231
2.59156
5.88435
8.27586
9.51528
10.0521
10.2729
10.4036
10.3081
10.0789
9.94334
9.23421
9.48029
0.0271447
0.100809
0.152664
0.213296
0.264365
0.3166
0.363093
0.407124
0.445965
0.480564
0.510043
0.534811
0.554603
0.56954
0.57971
0.585836
0.58942
0.593005
0.599642
0.611663
0.629272
0.650547
0.672207
0.687224
0.688706
0.677016
0.619459
0.505199
0.469952
0.522755
0.573612
0.657528
0.73589
0.825982
0.9231
1.02362
1.10791
1.13988
1.07755
0.919526
0.767937
0.700474
0.672492
0.639353
0.55972
0.400141
0.136359
-0.240451
-0.749776
-1.41583
-2.27696
-3.38557
-4.80832
-6.62692
-8.89732
-11.7203
-15.3275
-19.293
-23.4544
-29.4891
-35.4646
-45.3339
-36.0257
-28.8043
-17.4832
-8.83724
-2.55513
2.85943
6.26384
8.68735
9.90412
10.3707
10.5827
10.6946
10.6223
10.379
10.1943
9.50101
9.73239
0.0270093
0.104246
0.156747
0.219579
0.271965
0.325941
0.373852
0.419303
0.459326
0.49495
0.52525
0.550668
0.570914
0.58607
0.596166
0.601894
0.604821
0.607708
0.613941
0.626114
0.644356
0.666139
0.686183
0.696364
0.695638
0.679988
0.586002
0.455505
0.418772
0.471267
0.531423
0.622883
0.70756
0.806701
0.914923
1.02972
1.12887
1.17052
1.10323
0.925253
0.763341
0.704406
0.686736
0.652196
0.555788
0.370373
0.0803521
-0.317807
-0.844732
-1.5272
-2.40784
-3.54447
-5.0108
-6.89995
-9.28252
-12.2836
-16.1995
-20.5597
-25.6193
-32.6677
-38.002
-49.9099
-39.3357
-31.2419
-18.6921
-9.26702
-2.53576
3.14835
6.66359
9.11275
10.2976
10.6817
10.8845
10.9782
10.9316
10.6753
10.4405
9.7787
9.94432
0.0268059
0.107723
0.160796
0.225842
0.279528
0.335248
0.384576
0.431451
0.472652
0.509291
0.540398
0.566455
0.587145
0.602507
0.612496
0.617764
0.619938
0.622012
0.627747
0.640017
0.658761
0.680141
0.696399
0.703
0.705126
0.668936
0.544027
0.404979
0.365147
0.417373
0.489593
0.58857
0.680037
0.788532
0.908427
1.03852
1.1538
1.20575
1.13116
0.928166
0.754497
0.705776
0.697203
0.65348
0.531989
0.318897
0.00624354
-0.40787
-0.947224
-1.64136
-2.53693
-3.69708
-5.20287
-7.15991
-9.65548
-12.8425
-17.092
-21.8825
-27.9518
-36.0757
-41.7805
-55.2204
-42.9104
-33.8398
-19.9787
-9.70587
-2.50081
3.46048
7.08477
9.55257
10.6951
10.9834
11.177
11.2537
11.2349
10.9665
10.6821
10.0525
10.1712
0.0265307
0.111243
0.164809
0.232084
0.287049
0.344517
0.395266
0.443566
0.485941
0.523584
0.555484
0.582168
0.603294
0.618848
0.6287
0.633445
0.63476
0.63589
0.64101
0.653278
0.672117
0.691385
0.702983
0.70965
0.71351
0.641477
0.504259
0.35081
0.311034
0.361563
0.448772
0.554911
0.653719
0.771896
0.904155
1.05075
1.18373
1.24679
1.16198
0.92767
0.74074
0.704474
0.701116
0.636885
0.484807
0.247248
-0.0818318
-0.50579
-1.05212
-1.75258
-2.65752
-3.8353
-5.37489
-7.39562
-10.0036
-13.383
-17.9883
-23.2437
-30.4292
-39.7847
-46.9299
-61.1807
-46.7299
-36.5723
-21.3314
-10.1479
-2.44628
3.79865
7.52893
10.0075
11.0959
11.2741
11.4586
11.5199
11.5311
11.2509
10.9204
10.3182
10.4269
0.0261791
0.114805
0.168784
0.238301
0.294524
0.353746
0.405917
0.455645
0.49919
0.537825
0.570503
0.597802
0.619357
0.635092
0.644778
0.648933
0.649271
0.649304
0.653656
0.665713
0.6837
0.699249
0.70918
0.722021
0.706414
0.613581
0.463197
0.293769
0.257257
0.304192
0.409312
0.522236
0.629075
0.757273
0.902727
1.06727
1.2199
1.29515
1.19641
0.922785
0.721784
0.700857
0.692879
0.596148
0.414654
0.160006
-0.17833
-0.605897
-1.1534
-1.85408
-2.7616
-3.9498
-5.51635
-7.59546
-10.3143
-13.891
-18.8694
-24.6217
-33.0229
-43.7971
-53.3181
-67.7172
-50.779
-39.4067
-22.735
-10.5875
-2.36782
4.16643
7.99813
10.4784
11.4992
11.5516
11.728
11.7759
11.8194
11.5271
11.1595
10.5982
10.6362
0.0257466
0.11841
0.172716
0.244488