/*--------------------------------*- C++ -*----------------------------------*\
| =========                 |                                                 |
| \\      /  F ield         | OpenFOAM: The Open Source CFD Toolbox           |
|  \\    /   O peration     | Version:  4.1                                   |
|   \\  /    A nd           | Web:      www.OpenFOAM.org                      |
|    \\/     M anipulation  |                                                 |
\*---------------------------------------------------------------------------*/
FoamFile
{
    version     2.0;
    format      ascii;
    class       surfaceScalarField;
    location    "16";
    object      phi;
}
// * * * * * * * * * * * * * * * * * * * * * * * * * * * * * * * * * * * * * //

dimensions      [0 3 -1 0 0 0 0];

internalField   nonuniform List<scalar> 
13220
(
-784.588
2084.49
-1216.84
1732.45
-1660.25
1743.31
-1977.57
1617.22
-2231.37
1554
-2404.08
1472.61
-2504.9
1400.73
-2534.11
1329.41
-2498.61
1264.39
-2399.93
1201.23
-2233.79
1134.06
-1987.74
1053.85
-1615.99
928.152
-1003.73
687.933
296.175
-156.589
2241.08
-374.521
1950.38
-610.344
1979.13
-789.864
1796.74
-958.902
1723.04
-1086.09
1599.8
-1187.29
1501.93
-1252.33
1394.45
-1269.28
1281.34
-1212.01
1143.95
-1068.09
990.145
-863.042
848.801
-632.578
697.689
-334.853
390.21
-38.6781
-165.426
2406.51
-378.996
2163.95
-546.159
2146.3
-675.402
1925.99
-796.908
1844.55
-889.973
1692.87
-976.152
1588.11
-1040.37
1458.67
-1049.42
1290.4
-927.427
1021.96
-627.262
689.981
-215.47
437.014
152.846
329.381
297.36
245.707
258.682
-67.5188
2474.02
-193.881
2290.32
-288.595
2241.01
-376.621
2014.01
-471.598
1939.52
-556.552
1777.82
-651.138
1682.69
-744.506
1552.03
-839.96
1385.85
-903.576
1085.58
-876.863
663.27
-717.015
277.166
-445.001
57.3674
-178.128
-21.1647
80.5544
68.5944
2405.43
-35.1601
2394.07
-64.6815
2270.53
-85.1625
2034.5
-99.8868
1954.25
-104.184
1782.12
-101.646
1680.16
-93.7005
1544.09
-106.917
1399.07
-191.288
1169.95
-365.03
837.011
-553.873
466.014
-624.604
128.102
-499.809
-145.956
-419.254
212.304
2193.13
170.492
2435.88
209.024
2232
268.772
1974.75
346.661
1876.36
427.839
1700.94
527.687
1580.31
634.314
1437.46
733.935
1299.45
768.081
1135.8
673.63
931.462
452.373
687.268
184.592
395.876
-0.22368
38.8532
-419.478
218.872
1974.26
228.311
2426.45
271.204
2189.11
333.849
1912.1
414.629
1795.58
489.67
1625.9
573.918
1496.06
659.573
1351.81
741.691
1217.33
797.599
1079.9
796.175
932.886
713.506
769.94
544.066
565.321
276.358
306.568
-143.12
148.471
1825.79
188.362
2386.55
226.822
2150.65
275.15
1863.78
338.895
1731.83
393.921
1570.88
446.098
1443.88
490.11
1307.79
526.775
1180.66
549.98
1056.69
550.343
932.523
510.871
809.408
408.219
667.969
226.321
488.456
83.2009
72.5503
1753.24
142.685
2316.42
203.904
2089.43
269.241
1798.44
340.661
1660.42
407.1
1504.44
468.816
1382.17
525.264
1251.35
578.08
1127.85
623.381
1011.39
642.712
913.192
608.781
843.342
489.016
787.737
272.665
704.813
355.866
-33.3933
1786.63
62.7084
2220.32
148.757
2003.38
207.13
1740.07
274.069
1593.48
367.683
1410.82
493.978
1255.87
647.344
1097.98
801.081
974.112
921.293
891.178
958.243
876.242
876.362
925.219
663.427
1000.67
361.094
1007.14
716.96
-123.051
1909.68
-136.129
2233.4
-107.954
1975.21
-140.575
1772.69
-169.46
1622.36
-150.314
1391.68
-66.7672
1172.32
66.4116
964.8
232.369
808.152
405.816
717.729
539.371
742.686
568.143
896.447
453.137
1115.67
236.338
1223.94
953.298
60.1002
1849.58
-124.845
2418.34
-345.128
2195.49
-560.747
1988.3
-771.632
1833.24
-970.757
1590.8
-1130.58
1332.15
-1247.63
1081.85
-1300.14
860.663
-1256.8
674.39
-1087.88
573.768
-793.695
602.254
-437.514
759.49
-149.913
936.335
803.385
578.6
1270.98
721.553
2275.38
490.131
2426.91
231.163
2247.27
15.5099
2048.9
-223.087
1829.39
-490.332
1599.39
-774.229
1365.74
-1054.11
1140.54
-1291.51
911.785
-1411.28
693.544
-1321.78
512.751
-973.996
411.705
-438.808
401.147
364.577
775.628
495.346
1199.25
1851.77
1150.37
2475.79
920.333
2477.31
720.983
2248.25
562.749
1987.63
415.629
1746.51
258.235
1523.13
87.4177
1311.36
-105.741
1104.94
-306.247
894.049
-474.395
680.897
-531.679
468.988
-379.173
248.638
-14.5956
295.087
1130.41
1925.49
2599.41
3006.11
3172.65
3202.65
3131.21
2929.37
2654.62
2293.51
1827.66
1273.13
636.922
6.21006e-06
-160.622
160.622
-160.622
-160.622
-160.622
325.715
-486.337
325.715
325.715
325.715
710.191
-384.476
710.191
710.191
1004.19
-294
1004.19
1004.19
1004.19
1215.67
-211.481
1215.67
1215.67
1352.55
-136.875
1352.55
1352.55
1352.55
1421.17
-68.6207
1421.17
1421.17
1421.17
1422.59
-1.4256
1422.59
1422.59
1369.52
53.0762
1369.52
1369.52
1369.52
1261.58
107.939
1261.58
1261.58
1115.6
145.976
1115.6
1115.6
1115.6
993.55
122.053
993.55
993.55
993.55
982.57
10.9802
982.57
982.57
915.812
66.7584
915.812
915.812
915.812
751.518
164.294
751.518
751.518
751.518
482.148
269.37
482.148
482.148
187.14
295.008
187.14
187.14
187.14
-231.784
418.923
-231.784
-231.783
-1223.87
992.089
-1223.87
-1223.87
-1223.87
-2704.58
1480.71
-2704.58
-2704.58
-2704.58
-4632.14
1927.56
-4632.14
-4632.14
-6905.9
2273.76
-6905.9
-6905.9
-6787.39
-6671.34
-6555.99
-8952.04
2505.7
-8827.99
-8677.17
-8511.16
-8345.06
-8178.23
-8011.89
-7838.46
-7648.03
-10083.7
2618.96
-9885.76
-9688.47
-9492.37
-9276.61
-9060.84
-8845.28
-8629.83
-8413.64
-10796.2
2603.14
-10560.9
-10324.7
-10087.6
-9849.76
-9605.19
-9348.25
-9089.85
-8828.02
-8563.51
-10911
2602.53
-10629.3
-10345.6
-10061.2
-9777
-9493.18
-9195.24
-8889.51
-8584.38
-10543.3
2250.93
-10248.6
-9945.62
-9626.31
-9306.22
-8984.04
-8660.73
-8334.48
-7979.34
-9468.12
1832.44
-9128.53
-8791.88
-8458.19
-8107.08
-7752.06
-7404.14
-7061.05
-6724.77
-7272.11
889.085
-6932.15
-6597.05
-6261.7
-5926.4
-5591.47
-5268.35
-4947.36
-4629.1
-4318.96
-4294.1
288.093
-4051.93
-3846.63
-3649.6
-3463.52
-3287.48
-3160.52
-3127.21
-3093.33
-2741.4
-310.574
-2708.91
-2675.55
-2675.55
-2449.88
-225.673
-2250.72
-199.16
-2250.72
-2082.96
-167.758
-2082.96
-1943.69
-139.267
-1828.74
-114.954
-1828.74
-1727.98
-100.758
-1643.91
-84.0761
-1643.91
-1568.06
-75.8505
-1568.06
-1502.66
-65.3983
-1446.24
-56.4145
-1446.24
-1392.64
-53.6008
-1392.64
-1345.25
-47.3963
-1301.59
-43.6589
-1301.59
-1259.49
-42.099
-1221
-38.4893
-1221
-1182.49
-38.5092
-1182.49
-1146.69
-35.7984
-1112.96
-33.726
-1112.96
-1078.2
-34.7653
-1078.2
-1045.39
-32.81
-1012.67
-32.7187
-1012.67
-978.982
-33.6881
-946.235
-32.7468
-946.235
-911.945
-34.2906
-911.945
-878.167
-33.7776
-844.558
-33.6092
-844.558
-808.675
-35.883
-808.675
-772.5
-36.1754
-735.391
-37.1086
-735.391
-695.403
-39.9883
-655.77
-39.6326
-655.77
-613.478
-42.2919
-613.478
-569.61
-43.8679
-526.018
-43.5922
-526.018
-479.251
-46.7666
-479.251
-430.063
-49.1881
-380.581
-49.4819
-380.581
-326.187
-54.3943
-273.245
-52.9425
-273.245
-218.03
-55.2141
-218.03
-160.018
-58.0125
-103.322
-56.6964
-103.322
-45.6913
-57.6303
-45.6913
11.3784
-57.0696
80.8728
-69.4945
80.8728
138.264
-57.3909
218.763
-80.4996
218.763
304.22
-85.4564
304.22
-74.393
-84.7225
-367.426
-84.8895
-430.86
-85.466
-468.139
-86.1934
-505.809
-87.1659
-541.587
-88.3055
-575.267
-89.6346
-607.717
-91.1262
-638.724
-92.7811
-668.6
-94.5857
-697.334
-96.5347
-725.026
-98.6188
-751.702
-100.831
-777.399
-103.165
-802.147
-105.615
-825.977
-108.177
-848.934
-110.847
-871.076
-113.625
-892.479
-116.51
-913.237
-119.504
-933.456
-122.606
-953.244
-125.819
-972.702
-129.143
-991.919
-132.579
-1010.98
-136.134
-1029.96
-139.818
-1049.01
-143.65
-1068.36
-147.659
-1088.4
-151.879
-1109.66
-156.338
-1132.77
-161.05
-1158.17
-166.012
-1186.01
-171.196
-1216.14
-176.558
-1248.15
-182.035
-1281.35
-187.552
-1314.93
-193.033
-1348.03
-198.415
-1379.84
-203.691
-1409.75
-208.99
-1437.32
-214.701
-1462.13
-221.624
-1483.46
-231.01
-1499.95
-244.361
-1509.74
-262.879
-1511.15
-286.729
-1503.58
-314.512
-1487.92
-343.309
-1465.99
-369.273
-1438.91
-388.503
-1404.79
-398.304
-1359.15
-398.353
-1304.24
-383.421
-1248.91
-320.046
-1099.92
-190.876
-488.941
-97.2102
532.623
-59.779
1121.43
-25.3278
1493.37
5.75371
1866.22
29.1952
2205.49
43.3481
2505.45
50.5419
2791.67
53.6867
3071.78
54.614
3316.13
54.4097
3511.31
53.7904
3631.61
53.0189
3671.58
52.5988
3638.28
51.9395
3518.18
51.5373
3341.31
49.5647
3058.38
48.2915
2793.05
43.9714
2372.2
43.7747
2264.31
39.6033
1684.89
42.2259
2101.65
50.6426
1542.22
49.9762
1640.38
3818.58
-89.9362
-367.771
-89.9622
-430.834
-90.4904
-467.61
-91.1844
-505.115
-92.1538
-540.618
-93.3025
-574.118
-94.655
-606.364
-96.1781
-637.201
-97.872
-666.906
-99.721
-695.485
-101.719
-723.028
-103.855
-749.565
-106.123
-775.131
-108.516
-799.753
-111.03
-823.464
-113.66
-846.304
-116.405
-868.33
-119.266
-889.618
-122.243
-910.26
-125.337
-930.361
-128.551
-950.03
-131.884
-969.369
-135.337
-988.466
-138.914
-1007.4
-142.621
-1026.25
-146.476
-1045.16
-150.508
-1064.33
-154.755
-1084.15
-159.257
-1105.16
-164.038
-1127.99
-169.099
-1153.11
-174.419
-1180.69
-179.952
-1210.61
-185.635
-1242.46
-191.388
-1275.6
-197.124
-1309.2
-202.764
-1342.39
-208.283
-1374.32
-213.801
-1404.23
-219.752
-1431.37
-227.085
-1454.8
-237.368
-1473.17
-252.597
-1484.72
-274.515
-1487.82
-303.611
-1482.05
-338.32
-1468.87
-375.045
-1451.2
-409.063
-1431.97
-435.756
-1412.21
-451.497
-1389.05
-454.458
-1356.19
-445.938
-1312.76
-425.139
-1269.71
-360.028
-1165.03
-199.161
-649.808
-82.9375
416.399
-54.9266
1093.42
-22.5643
1461.01
7.375
1836.28
29.8986
2182.96
43.5894
2491.76
50.1924
2785.06
52.9192
3069.06
53.5346
3315.52
53.0653
3511.78
52.4058
3632.27
51.626
3672.36
51.3374
3638.57
50.8489
3518.67
50.6636
3341.49
48.9148
3060.13
47.8456
2794.11
43.6936
2376.35
43.5716
2264.44
39.3971
1689.07
41.9871
2099.06
50.2145
1533.99
49.3791
1641.22
3782.5
-92.7523
-368.195
-92.7265
-430.859
-93.2262
-467.111
-93.9064
-504.435
-94.8751
-539.649
-96.0311
-572.962
-97.3977
-604.998
-98.9396
-635.659
-100.656
-665.189
-102.531
-693.61
-104.557
-721.003
-106.723
-747.399
-109.024
-772.831
-111.452
-797.326
-114.002
-820.913
-116.673
-843.633
-119.463
-865.54
-122.374
-886.708
-125.405
-907.228
-128.561
-927.206
-131.84
-946.751
-135.244
-965.965
-138.774
-984.936
-142.432
-1003.74
-146.228
-1022.46
-150.184
-1041.2
-154.334
-1060.18
-158.724
-1079.76
-163.394
-1100.49
-168.364
-1123.02
-173.626
-1147.85
-179.149
-1175.17
-184.876
-1204.88
-190.734
-1236.61
-196.631
-1269.7
-202.474
-1303.36
-208.199
-1336.66
-213.862
-1368.66
-219.799
-1398.3
-226.863
-1424.31
-236.601
-1445.06
-251.161
-1458.62
-272.687
-1463.19
-302.251
-1458.26
-338.82
-1445.48
-379.019
-1428.67
-417.987
-1412.23
-450.808
-1399.15
-473.612
-1389.41
-483.881
-1378.79
-480.603
-1359.47
-465.587
-1327.77
-441.139
-1294.15
-382.759
-1223.41
-217.329
-815.238
-72.0327
271.103
-43.9121
1065.3
-18.6238
1435.72
10.4182
1807.24
31.5469
2161.84
44.3688
2478.93
50.0327
2779.4
51.9589
3067.13
52.0008
3315.47
51.1015
3512.68
50.2762
3633.09
49.4916
3673.15
49.3495
3638.71
49.1229
3518.89
49.2559
3341.36
47.8541
3061.53
47.0973
2794.87
43.2254
2380.22
43.1901
2264.47
39.1661
1693.09
41.512
2096.71
49.6663
1525.83
48.1615
1642.72
3750.16
-96.1023
-368.692
-96.0283
-430.933
-96.5039
-466.635
-97.1742
-503.764
-98.1476
-538.676
-99.317
-571.793
-100.705
-603.61
-102.274
-634.09
-104.022
-663.441
-105.931
-691.701
-107.995
-718.939
-110.202
-745.192
-112.544
-770.488
-115.017
-794.853
-117.615
-818.315
-120.338
-840.911
-123.184
-862.694
-126.155
-883.736
-129.254
-904.129
-132.484
-923.977
-135.843
-943.391
-139.334
-962.475
-142.956
-981.315
-146.713
-999.984
-150.617
-1018.55
-154.692
-1037.12
-158.982
-1055.89
-163.538
-1075.2
-168.406
-1095.62
-173.601
-1117.83
-179.106
-1142.35
-184.878
-1169.39
-190.848
-1198.91
-196.927
-1230.53
-203.007
-1263.62
-208.995
-1297.37
-214.878
-1330.78
-220.889
-1362.65
-227.757
-1391.43
-236.968
-1415.09
-250.797
-1431.23
-271.806
-1437.61
-301.744
-1433.26
-340.256
-1419.74
-384.283
-1401.46
-428.744
-1384.21
-468.138
-1372.83
-498.041
-1369.25
-515.696
-1371.76
-519.704
-1374.78
-509.718
-1369.45
-487.777
-1349.72
-458.174
-1323.76
-404.542
-1277.04
-250.079
-969.701
-68.0273
89.0517
-27.4028
1024.68
-12.8281
1421.14
14.7624
1779.65
34.301
2142.3
45.7919
2467.44
50.1215
2775.07
50.865
3066.39
50.0598
3316.28
48.5395
3514.2
47.438
3634.19
46.6224
3673.96
46.6468
3638.69
46.7527
3518.79
47.3
3340.81
46.3614
3062.47
46.0354
2795.2
42.5487
2383.71
42.7008
2264.32
38.8576
1696.93
41.032
2094.54
48.6353
1518.23
46.2269
1645.13
3739
-99.3248
-369.238
-99.2212
-431.037
-99.6788
-466.178
-100.346
-503.097
-101.328
-537.694
-102.514
-570.606
-103.927
-602.197
-105.525
-632.492
-107.307
-661.659
-109.253
-689.754
-111.357
-716.836
-113.605
-742.944
-115.992
-768.101
-118.512
-792.334
-121.159
-815.667
-123.935
-838.136
-126.838
-859.791
-129.872
-880.702
-133.041
-900.96
-136.345
-920.672
-139.787
-939.95
-143.365
-958.896
-147.08
-977.599
-150.937
-996.127
-154.948
-1014.54
-159.144
-1032.93
-163.572
-1051.46
-168.294
-1070.48
-173.359
-1090.56
-178.78
-1112.4
-184.53
-1136.6
-190.554
-1163.37
-196.767
-1192.7
-203.062
-1224.23
-209.322
-1257.36
-215.476
-1291.21
-221.648
-1324.61
-228.413
-1355.89
-237.125
-1382.72
-250.079
-1402.14
-270.169
-1411.14
-299.807
-1407.97
-339.426
-1393.64
-386.473
-1372.7
-435.784
-1352.15
-481.269
-1338.73
-517.798
-1336.3
-542.193
-1344.86
-553.086
-1360.86
-550.126
-1377.74
-533.421
-1386.16
-504.83
-1378.31
-469.632
-1358.96
-420.101
-1326.57
-292.062
-1097.74
-80.5258
-122.484
-8.19299
952.345
-3.6849
1416.63
20.3018
1755.66
38.3742
2124.23
48.0737
2457.74
50.6213
2772.52
49.7612
3067.25
47.7757
3318.27
45.4054
3516.57
43.8797
3635.72
42.9801
3674.86
43.1806
3638.49
43.6772
3518.29
44.7418
3339.75
44.3757
3062.83
44.6186
2794.95
41.6073
2386.72
42.08
2263.85
38.4375
1700.58
40.5295
2092.45
47.984
1510.78
45.4585
1647.66
3714.96
-102.574
-369.819
-102.453
-431.158
-102.9
-465.731
-103.57
-502.428
-104.565
-536.698
-105.773
-569.398
-107.214
-600.756
-108.847
-630.86
-110.667
-659.839
-112.654
-687.767
-114.801
-714.689
-117.096
-740.649
-119.532
-765.665
-122.101
-789.764
-124.803
-812.966
-127.635
-835.304
-130.6
-856.826
-133.701
-877.601
-136.942
-897.719
-140.326
-917.288
-143.854
-936.422
-147.525
-955.225
-151.339
-973.785
-155.3
-992.166
-159.423
-1010.42
-163.742
-1028.61
-168.312
-1046.89
-173.205
-1065.59
-178.475
-1085.29
-184.131
-1106.75
-190.137
-1130.59
-196.425
-1157.08
-202.89
-1186.23
-209.407
-1217.72
-215.864
-1250.9
-222.282
-1284.79
-229.073
-1317.82
-237.399
-1347.56
-249.474
-1370.64
-268.396
-1383.22
-297.188
-1382.35
-337.156
-1368
-386.463
-1344.33
-440.072
-1319.09
-491.367
-1300.85
-534.397
-1295.7
-565.337
-1305.36
-582.595
-1327.6
-586.058
-1357.4
-576.12
-1387.68
-553.127
-1409.15
-518.538
-1412.9
-477.613
-1399.88
-429.23
-1374.95
-322.583
-1204.39
-97.9072
-347.161
10.973
843.465
10.2373
1417.37
27.2635
1738.64
43.7981
2107.69
51.4205
2450.12
51.7189
2772.23
48.8105
3070.15
45.2665
3321.81
41.7871
3520.05
39.6593
3637.85
38.5966
3675.93
38.9654
3638.12
39.8954
3517.36
41.5679
3338.07
41.8789
3062.52
42.8182
2794.01
40.3814
2389.16
41.2937
2262.93
37.9053
1703.96
39.9776
2090.37
47.4039
1503.35
44.1942
1650.87
3702.09
-105.82
-370.42
-105.694
-431.284
-106.136
-465.289
-106.815
-501.749
-107.829
-535.685
-109.063
-568.163
-110.537
-599.283
-112.207
-629.189
-114.069
-657.977
-116.102
-685.734
-118.297
-712.494
-120.642
-738.304
-123.129
-763.178
-125.753
-787.14
-128.511
-810.207
-131.404
-832.411
-134.433
-853.796
-137.605
-874.429
-140.923
-894.401
-144.391
-913.82
-148.01
-932.803
-151.778
-951.457
-155.694
-969.869
-159.763
-988.097
-164.001
-1006.18
-168.446
-1024.16
-173.162
-1042.17
-178.23
-1060.52
-183.711
-1079.81
-189.611
-1100.85
-195.883
-1124.32
-202.442
-1150.52
-209.162
-1179.51
-215.908
-1210.97
-222.622
-1244.19
-229.554
-1277.86
-237.648
-1309.72
-248.943
-1336.26
-266.604
-1352.98
-294.145
-1355.68
-333.754
-1342.74
-384.491
-1317.26
-441.703
-1287.12
-498.393
-1262.4
-547.743
-1251.5
-585.108
-1258.33
-608.472
-1282
-617.728
-1318.34
-613.646
-1361.48
-597.04
-1404.28
-568.352
-1437.84
-528.578
-1452.67
-482.257
-1446.2
-432.585
-1424.62
-340.782
-1296.19
-113.747
-574.196
26.9946
702.724
29.1068
1415.26
36.6691
1731.08
50.562
2093.8
55.9879
2444.69
53.5769
2774.64
48.1352
3075.6
42.6132
3327.33
37.732
3524.93
34.8046
3640.77
33.4783
3677.25
33.9965
3637.6
35.3919
3515.97
37.7541
3335.71
38.8447
3061.43
40.605
2792.25
38.8459
2390.92
40.3223
2261.46
37.2488
1707.04
39.3763
2088.25
46.81
1495.92
43.3001
1654.38
3687.76
-109.075
-371.029
-108.954
-431.405
-109.398
-464.845
-110.092
-501.055
-111.128
-534.649
-112.394
-566.897
-113.905
-597.772
-115.618
-627.477
-117.526
-656.069
-119.608
-683.652
-121.854
-710.248
-124.253
-735.906
-126.796
-760.635
-129.478
-784.458
-132.297
-807.388
-135.254
-829.455
-138.353
-850.698
-141.599
-871.183
-144.998
-891.002
-148.554
-910.264
-152.267
-929.089
-156.137
-947.588
-160.161
-965.845
-164.342
-983.915
-168.699
-1001.82
-173.273
-1019.59
-178.138
-1037.31
-183.385
-1055.27
-189.085
-1074.11
-195.239
-1094.69
-201.786
-1117.77
-208.621
-1143.69
-215.598
-1172.54
-222.606
-1203.96
-229.756
-1237.04
-237.764
-1269.85
-248.432
-1299.06
-264.871
-1319.83
-290.937
-1326.92
-329.619
-1316.99
-380.979
-1291.38
-441.001
-1257.24
-502.542
-1225.58
-557.962
-1206.98
-601.655
-1207.81
-631.007
-1228.98
-645.773
-1267.23
-646.91
-1317.2
-635.648
-1372.74
-612.955
-1426.98
-579.288
-1471.51
-535.256
-1496.7
-484.342
-1497.11
-431.91
-1477.06
-350.77
-1377.33
-132.334
-792.632
36.7766
533.613
51.4601
1400.57
49.5907
1732.95
58.8353
2084.55
61.8867
2441.64
56.3465
2780.18
47.8474
3084.1
39.8866
3335.29
33.2762
3531.54
29.3332
3644.72
27.6232
3678.96
28.2609
3636.96
30.1461
3514.08
33.2734
3332.58
35.2435
3059.46
37.9495
2789.55
36.9716
2391.89
39.1454
2259.28
36.4496
1709.73
38.7194
2085.98
46.2785
1488.36
42.5247
1658.13
3673.59
-112.339
-371.634
-112.232
-431.512
-112.686
-464.391
-113.401
-500.34
-114.465
-533.584
-115.767
-565.595
-117.32
-596.219
-119.08
-625.718
-121.038
-654.11
-123.174
-681.516
-125.476
-707.945
-127.933
-733.449
-130.536
-758.031
-133.28
-781.714
-136.164
-804.505
-139.189
-826.43
-142.36
-847.526
-145.684
-867.859
-149.169
-887.517
-152.817
-906.616
-156.631
-925.276
-160.607
-943.612
-164.743
-961.709
-169.042
-979.617
-173.521
-997.343
-178.228
-1014.88
-183.244
-1032.29
-188.676
-1049.84
-194.602
-1068.18
-201.018
-1088.28
-207.846
-1110.94
-214.958
-1136.58
-222.206
-1165.29
-229.594
-1196.57
-237.62
-1229.01
-247.813
-1259.66
-263.134
-1283.73
-287.648
-1295.31
-325.03
-1289.53
-376.332
-1265.69
-438.358
-1229.36
-504.089
-1191.51
-565.209
-1164.46
-615.093
-1157.09
-650.346
-1172.56
-670.45
-1208.88
-676.473
-1261.21
-669.922
-1323.75
-652.146
-1390.52
-624.098
-1455.02
-586.218
-1509.39
-538.84
-1544.08
-484.401
-1551.55
-428.752
-1532.71
-355.002
-1451.08
-155.57
-992.065
38.8748
339.169
74.5276
1364.92
66.0962
1741.38
69.0645
2081.58
69.2289
2441.48
60.1626
2789.24
48.0727
3096.19
37.1756
3346.19
28.4741
3540.25
23.2783
3649.91
21.0456
3681.19
21.7588
3636.25
24.1497
3511.69
28.1081
3328.63
31.0539
3056.52
34.8271
2785.78
34.7325
2391.99
37.7408
2256.27
35.4891
1711.98
37.9852
2083.48
45.7867
1480.56
41.3122
1662.6
3656.89
-115.617
-372.226
-115.533
-431.596
-116.002
-463.922
-116.745
-499.597
-117.843
-532.486
-119.186
-564.252
-120.785
-594.62
-122.596
-623.907
-124.61
-652.097
-126.803
-679.322
-129.166
-705.582
-131.685
-730.93
-134.352
-755.364
-137.163
-778.903
-140.115
-801.552
-143.212
-823.333
-146.46
-844.278
-149.867
-864.452
-153.441
-883.943
-157.187
-902.87
-161.106
-921.357
-165.194
-939.524
-169.447
-957.456
-173.868
-975.196
-178.475
-992.737
-183.317
-1010.04
-188.488
-1027.12
-194.11
-1044.22
-200.269
-1062.02
-206.955
-1081.59
-214.064
-1103.83
-221.454
-1129.19
-229.042
-1157.7
-237.132
-1188.48
-246.964
-1219.18
-261.274
-1245.35
-284.228
-1260.78
-320.094
-1259.45
-370.859
-1238.77
-434.199
-1202.35
-503.418
-1160.14
-569.745
-1125.18
-625.585
-1108.62
-666.638
-1116.04
-691.948
-1147.24
-702.612
-1198.21
-700.394
-1263.43
-686.93
-1337.22
-663.483
-1413.97
-630.909
-1487.6
-589.601
-1550.69
-539.726
-1593.96
-482.882
-1608.4
-424.375
-1591.21
-355.663
-1519.79
-187.216
-1160.51
33.0929
118.86
94.6239
1303.39
85.1836
1750.82
81.8286
2084.94
78.1863
2445.12
65.1369
2802.29
48.9418
3112.38
34.5776
3360.55
23.3863
3551.44
16.6773
3656.62
13.7658
3684.11
14.4948
3635.52
17.3996
3508.78
22.2458
3323.78
26.2586
3052.5
31.2164
2780.82
32.1049
2391.1
36.0875
2252.29
34.3476
1713.72
37.1528
2080.67
45.2315
1472.48
39.8672
1667.97
3641.54
-118.913
-372.795
-118.859
-431.65
-119.351
-463.429
-120.127
-498.82
-121.264
-531.349
-122.654
-562.862
-124.304
-592.969
-126.171
-622.04
-128.244
-650.024
-130.5
-677.066
-132.928
-703.155
-135.514
-728.344
-138.25
-752.628
-141.131
-776.022
-144.156
-798.527
-147.33
-820.159
-150.659
-840.949
-154.153
-860.958
-157.822
-880.275
-161.67
-899.021
-165.699
-917.328
-169.904
-935.318
-174.281
-953.079
-178.829
-970.647
-183.567
-987.999
-188.548
-1005.06
-193.878
-1021.79
-199.694
-1038.4
-206.093
-1055.62
-213.048
-1074.64
-220.435
-1096.44
-228.134
-1121.49
-236.277
-1149.56
-245.812
-1178.95
-259.183
-1205.81
-280.561
-1223.97
-314.747
-1226.6
-364.659
-1209.53
-428.839
-1174.59
-500.96
-1130.23
-571.952
-1089.15
-633.396
-1063.74
-680.071
-1061.94
-710.456
-1085.65
-725.559
-1132.14
-727.36
-1196.41
-717.795
-1272.99
-698.372
-1356.64
-670.179
-1442.16
-633.936
-1523.84
-589.978
-1594.65
-538.378
-1645.56
-480.171
-1666.61
-419.789
-1651.6
-354.557
-1585.02
-225.178
-1289.89
9.57376
-115.891
108.555
1204.41
105.593
1753.78
97.4668
2093.07
88.9909
2453.6
71.3827
2819.9
50.5776
3133.19
32.1867
3378.94
18.0689
3565.56
9.5621
3665.13
5.80066
3687.87
6.47242
3634.85
9.89275
3505.36
15.676
3318
20.8417
3047.34
27.0983
2774.56
29.066
2389.13
34.166
2247.19
33.005
1714.89
36.2127
2077.47
44.5981
1464.09
38.6002
1673.97
3627.2
-122.23
-373.335
-122.213
-431.668
-122.735
-462.908
-123.551
-498.004
-124.732
-530.168
-126.173
-561.421
-127.88
-591.262
-129.808
-620.112
-131.946
-647.886
-134.269
-674.743
-136.767
-700.658
-139.424
-725.687
-142.233
-749.819
-145.189
-773.066
-148.292
-795.424
-151.547
-816.905
-154.961
-837.535
-158.547
-857.372
-162.315
-876.507
-166.271
-895.065
-170.416
-913.183
-174.745
-930.989
-179.25
-948.573
-183.932
-965.966
-188.806
-983.125
-193.93
-999.936
-199.42
-1016.3
-205.435
-1032.39
-212.074
-1048.98
-219.293
-1067.42
-226.963
-1088.78
-235.098
-1113.35
-244.353
-1140.3
-256.821
-1166.48
-276.563
-1186.07
-308.855
-1191.68
-357.621
-1177.83
-422.352
-1144.8
-497.046
-1099.89
-572.289
-1054.99
-638.929
-1022.51
-690.934
-1011.73
-726.196
-1026.68
-745.536
-1066.31
-751.084
-1126.59
-745.054
-1202.44
-729.218
-1288.83
-704.853
-1381.01
-672.845
-1474.17
-633.773
-1562.91
-587.91
-1640.51
-535.318
-1698.15
-476.74
-1725.18
-415.784
-1712.55
-352.864
-1647.94
-246.384
-1396.37
-16.8813
-345.394
115.761
1071.77
126.212
1743.33
115.684
2103.59
101.906
2467.38
79.0825
2842.72
53.0977
3159.17
30.0913
3401.95
12.5742
3583.07
1.96083
3675.74
-2.8334
3692.66
-2.30421
3634.32
1.62814
3501.43
8.39181
3311.23
14.7915
3040.94
22.4573
2766.9
25.5957
2385.99
31.9583
2240.83
31.4426
1715.4
35.1484
2073.76
43.9894
1455.25
36.864
1681.09
3609.67
-125.572
-373.837
-125.599
-431.641
-126.157
-462.35
-127.019
-497.142
-128.25
-528.937
-129.748
-559.923
-131.517
-589.493
-133.511
-618.117
-135.718
-645.679
-138.115
-672.347
-140.686
-698.086
-143.42
-722.954
-146.307
-746.931
-149.343
-770.03
-152.528
-792.239
-155.868
-813.565
-159.372
-834.03
-163.055
-853.69
-166.927
-872.635
-170.996
-890.996
-175.263
-908.916
-179.722
-926.53
-184.364
-943.931
-189.184
-961.146
-194.199
-978.11
-199.47
-994.666
-205.124
-1010.65
-211.336
-1026.18
-218.21
-1042.11
-225.683
-1059.95
-233.696
-1080.76
-242.65
-1104.4
-254.226
-1128.73
-272.239
-1148.47
-302.335
-1155.97
-349.542
-1144.47
-414.541
-1112.83
-491.724
-1067.62
-571.126
-1020.49
-642.697
-983.42
-699.675
-965.528
-739.495
-971.914
-762.804
-1003.37
-771.821
-1057.3
-768.999
-1129.42
-756.358
-1215.08
-735.373
-1309.82
-707.063
-1409.32
-672.122
-1509.11
-631.002
-1604.03
-583.956
-1687.56
-531.143
-1750.96
-473.279
-1783.05
-413.32
-1772.51
-353.023
-1708.24
-260.717
-1488.68
-38.9188
-567.192
117.569
915.28
145.5
1715.4
135.566
2113.53
117.253
2485.69
88.5537
2871.42
56.6325
3191.09
28.3739
3430.21
6.95741
3604.49
-6.0948
3688.79
-12.1167
3698.68
-11.8309
3634.04
-7.39699
3497
0.390146
3303.45
8.10154
3033.23
17.2817
2757.71
21.677
2381.6
29.449
2233.06
29.6418
1715.21
33.9514
2069.45
43.2825
1445.92
35.3466
1689.03
3595.53
-128.943
-374.294
-129.019
-431.565
-129.62
-461.749
-130.534
-496.228
-131.821
-527.65
-133.382
-558.362
-135.218
-587.657
-137.284
-616.051
-139.566
-643.397
-142.04
-669.873
-144.691
-695.435
-147.506
-720.139
-150.477
-743.961
-153.597
-766.909
-156.869
-788.967
-160.299
-810.135
-163.898
-830.431
-167.682
-849.906
-171.664
-868.653
-175.853
-886.807
-180.249
-904.52
-184.845
-921.934
-189.63
-939.147
-194.596
-956.179
-199.758
-972.948
-205.178
-989.246
-210.995
-1004.83
-217.398
-1019.77
-224.489
-1035.02
-232.231
-1052.2
-240.819
-1072.17
-251.512
-1093.71
-267.705
-1112.53
-295.234
-1120.94
-340.278
-1110.93
-405.066
-1079.68
-484.696
-1033.2
-568.519
-983.797
-645.153
-943.856
-706.889
-921.684
-750.858
-921.559
-777.729
-945.042
-789.862
-991.239
-789.909
-1057.25
-780.105
-1139.22
-762.097
-1233.09
-737.033
-1334.88
-705.695
-1440.65
-668.613
-1546.19
-626.17
-1646.47
-578.7
-1735.03
-526.611
-1803.05
-470.805
-1838.85
-413.765
-1829.55
-357.527
-1764.48
-276.641
-1569.56
-63.4113
-780.422
114.279
737.59
161.585
1668.09
156.171
2118.94
135.4
2506.46
100.216
2906.61
61.3506
3229.96
27.1156
3464.44
1.27616
3630.33
-14.5698
3704.64
-22.0291
3706.14
-22.0982
3634.1
-17.1787
3492.08
-8.3339
3294.6
0.764619
3024.13
11.5639
2746.92
17.2977
2375.87
26.6267
2223.73
27.5856
1714.25
32.6144
2064.42
42.5368
1436
33.4559
1698.11
3579.8
-132.346
-374.701
-132.478
-431.432
-133.129
-461.098
-134.101
-495.256
-135.45
-526.302
-137.079
-556.733
-138.988
-585.748
-141.132
-613.908
-143.494
-641.034
-146.051
-667.316
-148.787
-692.698
-151.689
-717.237
-154.747
-740.903
-157.958
-763.699
-161.322
-785.603
-164.846
-806.611
-168.546
-826.732
-172.436
-846.015
-176.534
-864.556
-180.848
-882.493
-185.38
-899.988
-190.12
-917.194
-195.056
-934.211
-200.176
-951.059
-205.491
-967.633
-211.062
-983.675
-217.036
-998.859
-223.611
-1013.2
-230.905
-1027.72
-239.03
-1044.08
-248.836
-1062.37
-263.171
-1079.37
-287.764
-1087.94
-329.862
-1078.84
-393.626
-1047.16
-475.44
-997.871
-564.099
-944.542
-646.417
-901.48
-713.151
-877.121
-760.983
-873.852
-790.886
-891.656
-805.62
-930.307
-808.106
-988.753
-800.758
-1064.6
-785.353
-1154.63
-763.133
-1255.31
-734.949
-1363.06
-701.383
-1474.22
-662.865
-1584.71
-619.827
-1689.51
-572.848
-1782.01
-522.758
-1853.14
-470.761
-1890.85
-418.861
-1881.45
-368.548
-1814.79
-297.946
-1640.16
-93.6947
-984.673
105.553
538.342
173.588
1600.05
176.992
2115.54
156.475
2526.98
114.421
2948.66
67.4798
3276.9
26.412
3505.51
-4.41262
3661.15
-23.4294
3723.66
-32.5498
3715.26
-33.0939
3634.65
-27.7118
3486.7
-17.7867
3284.68
-7.22275
3013.56
5.30509
2734.39
12.4524
2368.72
23.4826
2212.7
25.2595
1712.47
31.1315
2058.55
41.7736
1425.36
31.5673
1708.31
3564.6
-135.785
-375.052
-135.979
-431.238
-136.686
-460.391
-137.723
-494.219
-139.139
-524.885
-140.844
-555.028
-142.831
-583.76
-145.058
-611.681
-147.507
-638.586
-150.152
-664.671
-152.979
-689.871
-155.973
-714.243
-159.125
-737.751
-162.431
-760.394
-165.891
-782.142
-169.516
-802.986
-173.321
-822.927
-177.323
-842.013
-181.542
-860.337
-185.989
-878.046
-190.664
-895.313
-195.558
-912.3
-200.653
-929.115
-205.936
-945.777
-211.409
-962.16
-217.13
-977.954
-223.243
-992.745
-229.96
-1006.48
-237.49
-1020.19
-246.397
-1035.17
-258.889
-1049.87
-280.276
-1057.99
-318.563
-1049.65
-380.123
-1017.28
-463.408
-963.878
-557.172
-904.107
-646.115
-855.599
-718.695
-828.9
-770.588
-825.228
-803.084
-841.357
-819.741
-874.999
-824.052
-925.997
-818.672
-994.132
-805.467
-1077.8
-785.713
-1174.38
-760.286
-1280.74
-729.791
-1393.56
-694.677
-1509.33
-655.398
-1623.99
-612.62
-1732.29
-567.38
-1827.25
-521.049
-1899.47
-475.042
-1936.86
-430.588
-1925.91
-387.797
-1857.58
-326.922
-1701.04
-135.65
-1175.95
89.6297
313.063
181.955
1507.73
197.591
2099.9
179.918
2544.65
131.276
2997.3
75.3272
3332.85
26.4031
3554.44
-10.0521
3697.61
-32.6396
3746.24
-43.6595
3726.28
-44.8055
3635.79
-38.9906
3480.88
-27.9676
3273.65
-15.8502
3001.45
-1.4922
2720.03
7.13095
2360.09
20.0106
2199.82
22.6504
1709.83
29.5073
2051.69
40.9557
1413.91
30.1588
1719.11
3551.17
-139.265
-375.339
-139.527
-430.977
-140.296
-459.622
-141.404
-493.112
-142.895
-523.394
-144.679
-553.244
-146.752
-581.688
-149.068
-609.365
-151.608
-636.045
-154.348
-661.931
-157.272
-686.948
-160.364
-711.151
-163.615
-734.499
-167.021
-756.987
-170.585
-778.579
-174.315
-799.255
-178.23
-819.013
-182.351
-837.892
-186.698
-855.99
-191.284
-873.46
-196.11
-890.487
-201.166
-907.245
-206.431
-923.85
-211.884
-940.323
-217.521
-956.524
-223.382
-972.093
-229.603
-986.524
-236.445
-999.639
-244.415
-1012.22
-255.14
-1024.45
-273.199
-1031.82
-306.881
-1024.3
-364.758
-991.777
-448.223
-933.817
-546.918
-865.183
-643.457
-807.567
-723.217
-775.839
-780.05
-772.067
-815.188
-790.09
-833.152
-823.393
-838.473
-869.679
-834.363
-930.106
-822.826
-1005.67
-805.12
-1095.51
-782.074
-1197.43
-754.261
-1308.55
-722.112
-1425.71
-686.07
-1545.38
-646.803
-1663.25
-605.454
-1773.64
-563.711
-1868.99
-523.448
-1939.73
-485.894
-1974.41
-450.849
-1960.95
-416.241
-1892.19
-364.498
-1752.78
-201.451
-1338.99
59.6662
51.9462
187.697
1379.7
217.053
2070.55
204.521
2557.18
150.678
3051.15
85.2862
3398.24
27.3014
3612.42
-15.5845
3740.49
-42.1693
3772.83
-55.3396
3739.45
-57.2192
3637.67
-51.0072
3474.67
-38.8703
3261.52
-25.1043
2987.68
-8.8433
2703.77
1.32219
2349.93
16.218
2184.92
19.7478
1706.3
27.7412