/*--------------------------------*- C++ -*----------------------------------*\
| =========                 |                                                 |
| \\      /  F ield         | OpenFOAM: The Open Source CFD Toolbox           |
|  \\    /   O peration     | Version:  4.1                                   |
|   \\  /    A nd           | Web:      www.OpenFOAM.org                      |
|    \\/     M anipulation  |                                                 |
\*---------------------------------------------------------------------------*/
FoamFile
{
    version     2.0;
    format      ascii;
    class       volSymmTensorField;
    location    "16";
    object      turbulenceProperties:R;
}
// * * * * * * * * * * * * * * * * * * * * * * * * * * * * * * * * * * * * * //

dimensions      [0 2 -2 0 0 0 0];

internalField   nonuniform List<symmTensor> 
6785
(
(0.753313 1.59236e-19 8.98637e-20 0.753188 0.000166574 0.753499)
(0.753354 -1.23942e-19 -6.36146e-20 0.75332 6.20223e-06 0.753326)
(0.753325 -4.27461e-20 -3.06721e-20 0.753359 3.8232e-05 0.753316)
(0.753334 2.23221e-20 1.15057e-20 0.753344 2.61384e-05 0.753322)
(0.753331 -2.51906e-20 -6.4393e-21 0.753346 2.66965e-05 0.753323)
(0.753332 1.25613e-20 -2.90873e-21 0.753342 2.37396e-05 0.753325)
(0.753332 3.38373e-21 3.37857e-21 0.753341 2.20014e-05 0.753327)
(0.753333 -2.2277e-20 -8.2853e-21 0.753339 2.00515e-05 0.753329)
(0.753333 8.97628e-21 2.15994e-22 0.753337 1.82947e-05 0.75333)
(0.753333 3.86639e-21 5.26136e-21 0.753335 1.70257e-05 0.753332)
(0.753332 -1.43244e-20 -3.65871e-21 0.753333 1.65027e-05 0.753334)
(0.753334 5.93551e-21 -1.18869e-21 0.753328 1.35107e-05 0.753338)
(0.753334 9.17495e-22 4.21223e-21 0.753327 9.80389e-06 0.753339)
(0.753319 -1.12792e-20 -1.63264e-21 0.753358 1.46179e-05 0.753323)
(0.753346 3.77355e-21 -1.57095e-21 0.753388 -7.46416e-05 0.753266)
(0.75333 2.00899e-19 1.33469e-19 0.75301 0.000216691 0.75366)
(0.753351 -1.42244e-19 -8.27119e-20 0.753339 -1.71898e-05 0.753309)
(0.753325 -5.43392e-20 -3.23643e-20 0.753377 1.09359e-05 0.753297)
(0.753341 1.83561e-20 2.98679e-20 0.753351 -7.92504e-06 0.753308)
(0.753333 -2.35515e-20 -1.36387e-20 0.753361 -1.01751e-07 0.753306)
(0.753336 9.14138e-21 4.15725e-21 0.753355 -4.22989e-06 0.753309)
(0.753335 -9.00112e-21 7.29294e-21 0.753355 -3.27714e-06 0.753311)
(0.753335 -1.28509e-20 -6.88904e-21 0.753351 -3.86144e-06 0.753314)
(0.753335 5.13643e-21 2.37781e-21 0.753348 -3.99685e-06 0.753317)
(0.753335 -6.24931e-21 9.17516e-21 0.753345 -5.90565e-06 0.75332)
(0.753334 -5.53494e-21 -2.54376e-21 0.753346 -9.32626e-06 0.75332)
(0.753334 6.93908e-21 4.989e-21 0.753351 -1.52293e-05 0.753314)
(0.753336 -5.16717e-21 6.83544e-21 0.753367 -2.92321e-05 0.753297)
(0.753336 -9.56251e-21 -3.70548e-21 0.753395 -4.88764e-05 0.753269)
(0.753331 5.19715e-21 3.71031e-21 0.753376 -2.5505e-05 0.753293)
(0.75333 2.16809e-19 6.30391e-20 0.752976 0.000218102 0.753694)
(0.753339 -1.35148e-19 -6.60048e-20 0.753349 -1.5529e-05 0.753313)
(0.753325 -5.27954e-20 -3.21149e-20 0.753371 -1.66369e-06 0.753304)
(0.753337 3.38419e-20 -2.15719e-20 0.753352 -1.59278e-05 0.753311)
(0.75333 -1.23528e-20 -1.49643e-20 0.753362 -6.43765e-06 0.753309)
(0.753334 -3.58899e-21 -2.45575e-21 0.753354 -1.13367e-05 0.753312)
(0.753332 5.09043e-21 -2.72414e-20 0.753357 -8.98013e-06 0.753311)
(0.753333 -1.78034e-21 -2.89622e-22 0.753357 -1.19555e-05 0.75331)
(0.753333 -5.07395e-21 -2.89075e-21 0.753362 -1.64906e-05 0.753305)
(0.753333 4.6473e-21 -1.74775e-20 0.753363 -2.28914e-05 0.753304)
(0.753333 -4.69317e-21 -2.93648e-21 0.753353 -2.4852e-05 0.753314)
(0.753333 -2.44903e-20 -1.59592e-20 0.753339 -2.16313e-05 0.753328)
(0.753332 2.72447e-21 -1.18877e-20 0.753347 -2.36332e-05 0.753321)
(0.753335 1.77154e-20 8.77292e-21 0.753356 -2.52047e-05 0.753309)
(0.753329 2.23331e-20 1.10015e-20 0.753388 -1.75004e-05 0.753283)
(0.753332 1.75629e-19 1.22546e-19 0.752961 0.000220572 0.753707)
(0.753337 -1.17413e-19 -1.00535e-19 0.753352 -1.3084e-05 0.753312)
(0.753329 -4.5833e-20 -1.43358e-20 0.753365 -5.60774e-06 0.753306)
(0.753337 6.5953e-21 3.80482e-21 0.753353 -1.51091e-05 0.75331)
(0.75333 4.38496e-21 -2.94106e-20 0.753361 -6.24799e-06 0.753308)
(0.753335 -5.93797e-21 6.83733e-21 0.753353 -1.0746e-05 0.753312)
(0.753332 -1.34737e-20 -7.94415e-21 0.753357 -7.33336e-06 0.753311)
(0.753334 9.66534e-21 -1.59699e-20 0.753361 -1.22539e-05 0.753305)
(0.753333 -2.70324e-21 8.84259e-21 0.753379 -2.09869e-05 0.753288)
(0.753333 2.01575e-21 -5.00998e-21 0.753398 -3.40517e-05 0.753269)
(0.753333 1.97913e-20 2.25569e-21 0.753396 -3.72042e-05 0.753271)
(0.753333 1.68641e-20 7.663e-21 0.753364 -2.58141e-05 0.753302)
(0.753332 -1.21129e-21 -1.13257e-20 0.753329 -9.38683e-06 0.753339)
(0.75333 -6.60102e-21 -1.60847e-20 0.753308 5.95652e-06 0.753362)
(0.753335 -2.48398e-20 -2.12742e-20 0.753357 -2.75529e-05 0.753308)
(0.753332 1.93248e-19 9.16235e-20 0.752943 0.000226174 0.753726)
(0.753336 -1.05822e-19 -1.11225e-19 0.753348 -1.00152e-05 0.753315)
(0.75333 -3.05859e-20 -3.95706e-20 0.753366 -9.90857e-06 0.753304)
(0.753337 1.73563e-20 -3.04879e-21 0.753352 -1.55847e-05 0.753311)
(0.753331 3.27817e-21 -3.13155e-20 0.753359 -7.48174e-06 0.75331)
(0.753336 2.76102e-21 -9.03828e-21 0.753351 -1.26246e-05 0.753314)
(0.753332 -5.11754e-21 -1.46026e-20 0.753354 -7.83724e-06 0.753314)
(0.753334 1.16647e-20 -2.67354e-20 0.753355 -1.23806e-05 0.753311)
(0.753333 4.11573e-21 -1.69576e-20 0.75337 -1.72552e-05 0.753297)
(0.753334 1.1867e-20 -3.00183e-22 0.753393 -2.84317e-05 0.753274)
(0.753334 2.5009e-20 4.30259e-21 0.75341 -3.42131e-05 0.753257)
(0.753334 4.17393e-20 2.41411e-20 0.753405 -3.06253e-05 0.753261)
(0.753333 3.81661e-20 2.4099e-20 0.753386 -2.25687e-05 0.753281)
(0.753337 -1.37793e-20 -1.00213e-21 0.753345 -1.69671e-05 0.753318)
(0.753333 -1.06301e-19 -6.31193e-20 0.75327 2.07888e-05 0.753397)
(0.753332 1.84669e-19 1.2946e-19 0.752942 0.000219925 0.753726)
(0.753336 -1.28257e-19 -5.68138e-20 0.753335 -4.0016e-06 0.753329)
(0.753331 -6.92427e-20 -9.77286e-21 0.753371 -1.70093e-05 0.753298)
(0.753336 1.13957e-20 7.37844e-21 0.753353 -1.90001e-05 0.753311)
(0.753331 -1.67251e-20 2.07173e-21 0.753357 -1.08722e-05 0.753312)
(0.753335 -1.56102e-20 1.40688e-20 0.75335 -1.6142e-05 0.753315)
(0.753332 -2.26658e-21 -2.24282e-21 0.753353 -1.17869e-05 0.753315)
(0.753334 -7.41269e-21 5.13544e-21 0.753351 -1.4786e-05 0.753315)
(0.753333 -1.28874e-20 1.23405e-20 0.753356 -1.54362e-05 0.753311)
(0.753334 2.30955e-21 -3.56392e-21 0.753366 -1.93766e-05 0.7533)
(0.753333 3.03682e-21 8.71016e-21 0.75338 -2.14986e-05 0.753286)
(0.753334 7.07869e-21 1.45807e-20 0.753391 -2.31716e-05 0.753275)
(0.753331 -3.10023e-21 3.01988e-21 0.753404 -2.20953e-05 0.753265)
(0.753339 3.03676e-20 2.475e-20 0.753397 -3.74724e-05 0.753263)
(0.753331 -4.99874e-20 -3.23342e-20 0.753297 2.81156e-05 0.753372)
(0.753333 1.97689e-19 1.37291e-19 0.752959 0.000207312 0.753708)
(0.753334 -1.22967e-19 -4.80333e-20 0.75332 4.54162e-06 0.753346)
(0.753331 -9.28146e-20 -2.17049e-20 0.753376 -2.21908e-05 0.753292)
(0.753335 5.38382e-21 4.07401e-21 0.753357 -2.12529e-05 0.753307)
(0.753331 -6.05116e-21 1.72784e-20 0.753357 -1.30351e-05 0.753312)
(0.753335 -1.70389e-20 2.10891e-20 0.753352 -1.71816e-05 0.753313)
(0.753332 -4.80376e-21 -3.36166e-21 0.753354 -1.38915e-05 0.753313)
(0.753334 -3.96762e-21 1.01693e-20 0.753352 -1.57532e-05 0.753314)
(0.753333 -1.64744e-20 1.29043e-20 0.753354 -1.50986e-05 0.753313)
(0.753333 -7.71845e-21 -5.95522e-21 0.753356 -1.61523e-05 0.753311)
(0.753333 5.35275e-21 1.33655e-20 0.753362 -1.66722e-05 0.753305)
(0.753333 4.26098e-21 1.30983e-20 0.75337 -1.88213e-05 0.753296)
(0.753332 -2.1854e-20 -1.61876e-20 0.753385 -2.07564e-05 0.753283)
(0.753336 1.78432e-20 7.81726e-21 0.753397 -3.32192e-05 0.753267)
(0.75333 -2.41725e-20 -7.23104e-21 0.753345 9.79294e-06 0.753325)
(0.753333 2.12789e-19 1.11145e-19 0.75298 0.000197474 0.753687)
(0.753334 -8.78981e-20 -5.26995e-20 0.753307 1.17705e-05 0.753359)
(0.753332 -8.00326e-20 -6.0585e-20 0.753377 -2.40697e-05 0.753291)
(0.753335 -3.40513e-21 -1.52548e-21 0.753361 -2.18958e-05 0.753304)
(0.753332 7.7193e-21 4.46954e-21 0.753358 -1.36557e-05 0.753311)
(0.753334 8.09141e-22 -9.33578e-21 0.753353 -1.62127e-05 0.753312)
(0.753333 -6.19967e-21 -4.10296e-21 0.753355 -1.34362e-05 0.753312)
(0.753334 2.64917e-21 9.97766e-22 0.753353 -1.42562e-05 0.753313)
(0.753333 6.23082e-21 -5.56413e-21 0.753354 -1.30413e-05 0.753313)
(0.753333 -4.87457e-21 -3.3766e-21 0.753353 -1.2969e-05 0.753313)
(0.753333 -3.87464e-21 -3.19434e-21 0.753355 -1.27311e-05 0.753311)
(0.753334 1.01726e-20 2.79934e-21 0.753359 -1.40142e-05 0.753307)
(0.753333 -7.20316e-21 -3.66687e-21 0.75337 -1.61788e-05 0.753297)
(0.753336 -4.15509e-20 -2.63273e-20 0.753389 -2.89739e-05 0.753275)
(0.753331 2.16106e-20 2.19123e-20 0.753374 -9.85127e-06 0.753295)
(0.753334 2.10937e-19 1.227e-19 0.752996 0.000191319 0.753671)
(0.753334 -8.72623e-20 -5.1203e-20 0.753301 1.47224e-05 0.753365)
(0.753332 -8.17645e-20 -7.91632e-20 0.753375 -2.4626e-05 0.753292)
(0.753335 -4.20014e-21 -8.86551e-22 0.753363 -2.26496e-05 0.753302)
(0.753332 -1.18264e-21 -7.45395e-22 0.753357 -1.42578e-05 0.753311)
(0.753334 1.1904e-20 -1.52722e-20 0.753352 -1.51782e-05 0.753314)
(0.753333 6.12939e-21 5.33957e-21 0.753353 -1.26136e-05 0.753315)
(0.753334 -1.14089e-20 -6.79789e-21 0.753351 -1.29533e-05 0.753315)
(0.753333 4.46141e-21 -1.23679e-20 0.753351 -1.20041e-05 0.753316)
(0.753333 1.13644e-20 1.06941e-20 0.753351 -1.15585e-05 0.753316)
(0.753333 -1.22292e-20 -5.89921e-21 0.753351 -1.03395e-05 0.753316)
(0.753334 3.4649e-21 -1.17455e-20 0.753352 -9.13978e-06 0.753314)
(0.753333 1.12774e-20 1.12614e-20 0.753358 -8.31992e-06 0.753309)
(0.753335 -5.23697e-20 -3.06243e-20 0.753381 -2.05404e-05 0.753284)
(0.753332 3.23484e-20 1.63513e-20 0.753409 -2.96294e-05 0.753259)
(0.753334 2.1688e-19 9.54133e-20 0.753008 0.000187991 0.753658)
(0.753333 -8.3293e-20 -4.56436e-20 0.753305 1.22394e-05 0.753362)
(0.753333 -9.7764e-20 -7.34773e-20 0.753373 -2.55494e-05 0.753294)
(0.753334 1.08724e-20 -2.44266e-20 0.753364 -2.25371e-05 0.753302)
(0.753332 7.0351e-21 4.63565e-21 0.753357 -1.48381e-05 0.753311)
(0.753334 -1.34877e-20 -1.44848e-20 0.753351 -1.61596e-05 0.753315)
(0.753333 1.62029e-20 -1.03593e-20 0.75335 -1.47443e-05 0.753317)
(0.753334 -1.15476e-21 -9.75121e-23 0.753348 -1.60029e-05 0.753318)
(0.753333 -2.70698e-20 -1.68317e-20 0.753347 -1.46609e-05 0.753319)
(0.753334 1.20543e-20 -6.9765e-21 0.753345 -1.1799e-05 0.753322)
(0.753333 1.02372e-20 7.25424e-21 0.753341 -6.0903e-06 0.753326)
(0.753333 -1.52449e-20 -1.32039e-20 0.753339 3.13981e-07 0.753328)
(0.753333 1.93673e-20 4.82008e-21 0.753344 3.18883e-06 0.753323)
(0.753334 -1.2186e-20 -8.74499e-22 0.753371 -9.58799e-06 0.753296)
(0.753333 2.80861e-20 1.33723e-20 0.753458 -5.61244e-05 0.753209)
(0.753334 1.75317e-19 9.39958e-20 0.753012 0.000189845 0.753654)
(0.753334 -1.13098e-19 -4.05943e-20 0.753324 5.66461e-06 0.753343)
(0.753333 -6.0627e-20 -9.24603e-20 0.753369 -2.12282e-05 0.753298)
(0.753334 2.53633e-20 2.24432e-20 0.753365 -1.8924e-05 0.753301)
(0.753333 -2.55958e-20 -2.26662e-21 0.753365 -1.68271e-05 0.753302)
(0.753334 7.64693e-21 -3.50853e-20 0.753364 -2.08601e-05 0.753302)
(0.753333 3.25356e-20 1.70907e-20 0.753361 -2.02946e-05 0.753306)
(0.753334 -4.19253e-20 -1.54104e-20 0.753352 -1.9147e-05 0.753315)
(0.753333 -1.23533e-20 -4.11896e-20 0.753341 -1.36936e-05 0.753326)
(0.753333 4.23036e-20 1.90387e-20 0.753327 -6.34955e-06 0.75334)
(0.753333 -3.94907e-20 -1.72087e-20 0.753315 2.61478e-06 0.753352)
(0.753333 -1.83302e-20 -4.32558e-20 0.753311 9.9537e-06 0.753356)
(0.753334 1.22786e-20 3.24638e-21 0.753321 9.09881e-06 0.753345)
(0.753333 -1.24332e-20 -3.88626e-20 0.753361 -6.46814e-06 0.753306)
(0.753333 9.88833e-20 5.43764e-20 0.753512 -9.43146e-05 0.753154)
(0.753333 1.70923e-19 1.01324e-19 0.752984 0.00019994 0.753683)
(0.753334 -1.35957e-19 -6.6003e-20 0.753337 4.60444e-06 0.753329)
(0.753333 -6.36071e-20 -6.38011e-20 0.753381 -1.60691e-05 0.753286)
(0.753334 3.60843e-20 2.06592e-20 0.753365 -1.05008e-05 0.753301)
(0.753333 -2.61208e-20 -3.22769e-21 0.753374 -1.32213e-05 0.753293)
(0.753334 1.79623e-20 -1.24546e-20 0.753381 -1.98274e-05 0.753286)
(0.753333 3.81533e-20 2.14334e-20 0.753379 -1.95599e-05 0.753288)
(0.753333 -3.28959e-21 7.5955e-21 0.753372 -1.88179e-05 0.753294)
(0.753333 6.28091e-21 -8.94862e-21 0.753363 -1.56883e-05 0.753304)
(0.753333 -4.29988e-21 -8.43486e-21 0.753343 -9.19478e-06 0.753324)
(0.753333 -4.5311e-20 -2.89748e-20 0.753313 2.63735e-06 0.753354)
(0.753333 -2.46715e-20 -3.23968e-20 0.753284 1.33537e-05 0.753382)
(0.753334 -2.84422e-20 -1.42132e-20 0.753281 1.15737e-05 0.753385)
(0.753331 -2.55271e-20 -2.80741e-20 0.753335 -1.01755e-05 0.753334)
(0.753334 9.92316e-20 5.65359e-20 0.753508 -0.000109288 0.753158)
(0.753332 1.72229e-19 8.32108e-20 0.75297 0.000187333 0.753698)
(0.753335 -5.20419e-20 -5.27141e-20 0.75327 2.83971e-05 0.753395)
(0.753333 -9.61733e-20 -4.605e-20 0.753374 -1.08545e-05 0.753293)
(0.753333 7.87167e-21 -3.23059e-20 0.753376 -1.24899e-05 0.753291)
(0.753333 -1.1808e-20 -6.99043e-21 0.753374 -1.21884e-05 0.753293)
(0.753334 4.89407e-21 8.05484e-22 0.753382 -1.69443e-05 0.753284)
(0.753333 3.47112e-20 1.03954e-20 0.753387 -1.71695e-05 0.75328)
(0.753334 3.19016e-21 3.51949e-20 0.753384 -1.61713e-05 0.753282)
(0.753333 1.59303e-20 -1.86788e-21 0.753382 -1.47046e-05 0.753284)
(0.753333 3.47717e-21 2.03522e-21 0.753377 -1.38606e-05 0.75329)
(0.753333 -2.43681e-20 -1.39315e-20 0.753364 -1.14077e-05 0.753303)
(0.753333 -3.18196e-20 -2.63346e-20 0.753337 -6.1351e-06 0.753329)
(0.753333 -2.47676e-20 -1.85349e-20 0.753304 1.71497e-06 0.753363)
(0.753331 -1.68702e-20 -1.14793e-20 0.753304 -1.6783e-06 0.753366)
(0.753335 4.04506e-20 1.11405e-20 0.753413 -6.89683e-05 0.753252)
(0.753334 1.2123e-19 7.5908e-20 0.753082 0.000115004 0.753585)
(0.753334 2.90116e-20 3.60533e-21 0.753182 6.81678e-05 0.753484)
(0.753333 -4.24901e-20 -8.41399e-20 0.753309 1.81089e-05 0.753358)
(0.753334 -4.54706e-20 -4.86013e-20 0.753369 -8.85259e-06 0.753297)
(0.753333 -1.64154e-20 -3.54597e-20 0.753376 -1.2467e-05 0.753291)
(0.753334 5.09473e-22 -2.89072e-21 0.753371 -1.13837e-05 0.753295)
(0.753333 8.62314e-21 1.60679e-20 0.753371 -1.08035e-05 0.753296)
(0.753333 1.58451e-20 1.27442e-21 0.753372 -1.12765e-05 0.753294)
(0.753333 1.48637e-20 1.16024e-20 0.753375 -1.18043e-05 0.753291)
(0.753333 5.67117e-21 1.36886e-20 0.75338 -1.31087e-05 0.753287)
(0.753333 1.87653e-21 -2.69461e-21 0.753382 -1.385e-05 0.753285)
(0.753334 -1.3441e-20 -7.42573e-21 0.753378 -1.46277e-05 0.753288)
(0.753334 -1.53179e-20 -7.97422e-21 0.753371 -1.53533e-05 0.753295)
(0.753333 -8.70211e-21 -9.41487e-21 0.753356 -1.49002e-05 0.753311)
(0.753336 -8.22811e-21 -8.77202e-21 0.753331 -1.56131e-05 0.753333)
(0.75333 9.2735e-20 5.82166e-20 0.753154 9.53308e-05 0.753516)
(0.753335 1.08032e-19 5.07092e-20 0.753124 8.14947e-05 0.753542)
(0.753333 -2.573e-20 9.44377e-21 0.753232 2.36721e-05 0.753435)
(0.753333 -6.59163e-20 -3.96708e-20 0.753319 -2.11947e-05 0.753348)
(0.753333 -5.00244e-20 -5.41594e-20 0.753363 -3.49683e-05 0.753304)
(0.753333 -4.17052e-20 -7.83452e-21 0.753377 -3.30844e-05 0.75329)
(0.753333 -1.55428e-20 -1.25822e-20 0.753376 -2.55975e-05 0.753291)
(0.753333 3.78173e-21 -1.29088e-20 0.753373 -1.90656e-05 0.753293)
(0.753334 -4.65011e-21 9.19274e-21 0.753373 -1.33558e-05 0.753294)
(0.753333 5.3675e-21 3.13313e-21 0.753372 -8.59586e-06 0.753295)
(0.753333 7.39878e-21 -1.57198e-21 0.753374 -5.85309e-06 0.753292)
(0.753334 -3.71632e-21 5.32264e-21 0.753379 -4.42529e-06 0.753287)
(0.753333 -2.08799e-21 -9.55439e-22 0.753387 -4.86486e-06 0.75328)
(0.753333 6.67543e-21 1.54233e-21 0.753405 -1.18177e-05 0.753262)
(0.753333 -1.38504e-20 -2.69322e-21 0.753389 -2.68137e-06 0.753278)
(0.753666 3.26996e-20 2.04466e-21 0.752864 0.000375354 0.753469)
(0.753261 2.32199e-20 2.87207e-21 0.753443 0.000402803 0.753297)
(0.753334 -1.26711e-20 8.40429e-21 0.75333 6.32049e-05 0.753336)
(0.753334 -1.31035e-20 6.99279e-21 0.753318 -1.11054e-05 0.753347)
(0.753335 3.93064e-22 6.57741e-21 0.753315 1.68991e-05 0.75335)
(0.753333 1.59555e-22 1.25631e-21 0.753327 -3.11357e-06 0.75334)
(0.753331 -1.03232e-21 6.62284e-21 0.753324 -1.32882e-05 0.753345)
(0.753335 1.67279e-20 7.26636e-21 0.753318 -6.88838e-06 0.753346)
(0.753334 2.15874e-22 7.4994e-21 0.75332 1.06131e-06 0.753346)
(0.753333 -1.67808e-20 -5.02494e-22 0.753329 -2.00212e-06 0.753338)
(0.753332 4.15617e-22 3.1026e-21 0.753326 -1.31678e-05 0.753343)
(0.753336 1.80236e-20 4.27551e-21 0.753319 -1.38601e-06 0.753346)
(0.753333 3.94559e-21 1.68972e-21 0.75333 -2.43733e-06 0.753337)
(0.753332 -2.46368e-21 5.18916e-21 0.753326 -1.05377e-05 0.753342)
(0.753335 3.04765e-21 5.08185e-21 0.753323 -5.09362e-06 0.753343)
(0.753333 1.03567e-20 6.04283e-21 0.753325 -1.73858e-06 0.753342)
(0.753333 1.47824e-21 1.57678e-21 0.753332 -2.01358e-06 0.753335)
(0.753331 -7.43305e-21 5.66006e-21 0.753329 -1.05683e-05 0.753339)
(0.753336 8.42323e-21 6.10405e-21 0.753321 -3.42897e-06 0.753343)
(0.753333 1.87006e-21 1.20762e-21 0.753333 -1.79859e-06 0.753334)
(0.753332 -4.51508e-21 6.7868e-21 0.753329 -8.98675e-06 0.753339)
(0.753335 -2.20809e-21 6.32712e-21 0.753325 -5.6677e-06 0.753341)
(0.753334 4.34125e-21 6.0775e-21 0.753327 -4.36564e-06 0.75334)
(0.753333 1.22102e-21 1.05124e-21 0.753334 -1.72769e-06 0.753332)
(0.753332 -8.2759e-21 6.93313e-21 0.753331 -9.44599e-06 0.753337)
(0.753335 -5.73418e-22 6.31509e-21 0.753326 -7.62426e-06 0.753339)
(0.753333 7.96909e-21 7.62627e-21 0.753329 -6.53396e-06 0.753338)
(0.753333 1.56003e-21 1.10186e-21 0.753335 -1.81643e-06 0.753331)
(0.753331 -1.25586e-20 7.38005e-21 0.753335 -9.79024e-06 0.753334)
(0.753336 1.37633e-21 6.58574e-21 0.753324 -8.36984e-06 0.753339)
(0.753333 -1.51421e-21 2.19934e-21 0.753336 -2.18984e-06 0.753331)
(0.753332 -1.68964e-20 6.80861e-21 0.753334 -8.54614e-06 0.753334)
(0.753335 -1.4646e-20 4.87696e-21 0.75333 -8.43815e-06 0.753336)
(0.753334 -5.25696e-21 4.01978e-21 0.753332 -9.00037e-06 0.753334)
(0.753333 -6.9832e-21 2.53708e-21 0.753336 -1.97418e-06 0.75333)
(0.753331 -1.9649e-20 2.53061e-21 0.753338 -5.917e-06 0.753331)
(0.753336 -1.40216e-20 6.22482e-22 0.753329 -8.47997e-06 0.753335)
(0.753333 -7.03616e-21 4.00269e-22 0.753337 -1.58615e-06 0.75333)
(0.753332 -9.63514e-21 -8.81582e-22 0.753337 -4.11386e-06 0.753331)
(0.753334 -1.52935e-20 -2.02332e-21 0.753334 -5.21827e-06 0.753332)
(0.753334 -1.90703e-20 -3.88788e-21 0.753334 -7.20292e-06 0.753332)
(0.753333 -4.92536e-21 -3.23241e-21 0.753336 -1.09759e-06 0.753331)
(0.753333 3.18601e-22 -5.01168e-21 0.753337 -2.89378e-06 0.75333)
(0.753334 -3.99767e-21 -5.12606e-21 0.753335 -3.89773e-06 0.753331)
(0.753334 -1.0274e-20 -6.13333e-21 0.753335 -5.08144e-06 0.753331)
(0.753333 -8.51108e-22 -1.76492e-21 0.753332 -1.31876e-08 0.753335)
(0.753333 1.17572e-20 -6.22692e-21 0.753338 -1.81823e-06 0.75333)
(0.753336 -1.74842e-21 -5.41521e-21 0.753332 -4.88663e-06 0.753332)
(0.753333 -2.82452e-22 -1.45745e-22 0.753334 6.09307e-07 0.753333)
(0.753333 9.21888e-21 -5.53683e-21 0.753336 -1.45737e-06 0.75333)
(0.753334 1.05851e-20 -4.7698e-21 0.753336 -2.98892e-06 0.753331)
(0.753333 4.45074e-21 -4.07278e-21 0.753336 -4.74252e-06 0.75333)
(0.753333 2.79885e-21 2.79885e-22 0.753337 2.42366e-06 0.75333)
(0.753333 1.04444e-20 -3.58138e-21 0.753337 4.5277e-07 0.75333)
(0.753334 1.46605e-21 -2.8146e-21 0.753335 -3.57661e-06 0.753331)
(0.753333 -6.12778e-21 -3.2085e-21 0.753337 -2.11171e-06 0.753331)
(0.753334 -2.35982e-21 4.57016e-22 0.75334 8.59452e-06 0.753326)
(0.753331 4.91874e-21 -3.71933e-21 0.753337 1.54063e-06 0.753332)
(0.753333 -2.21267e-21 -3.5003e-21 0.753332 1.05432e-05 0.753336)
(0.753335 1.6774e-21 1.09896e-22 0.753344 2.11532e-05 0.753321)
(0.753328 2.61806e-20 -3.81968e-21 0.753333 1.17411e-05 0.753339)
(0.753335 3.68346e-20 -5.95641e-22 0.753317 4.40681e-06 0.753348)
(0.753335 2.31542e-21 5.12071e-22 0.753317 2.13161e-07 0.753349)
(0.753333 1.31447e-21 -2.35571e-21 0.753351 -1.97448e-05 0.753316)
(0.753331 1.00392e-20 6.36729e-22 0.753336 -2.16635e-05 0.753333)
(0.753337 -4.85205e-21 9.73388e-22 0.753328 -7.90535e-06 0.753335)
(0.753333 3.46523e-21 1.58134e-21 0.753357 -1.7975e-05 0.75331)
(0.753331 2.57295e-21 8.01555e-22 0.753353 -5.2654e-06 0.753316)
(0.753337 8.86271e-21 2.11728e-21 0.753342 2.87246e-06 0.753321)
(0.753332 2.02056e-20 3.9299e-21 0.753357 -2.70664e-05 0.753311)
(0.753333 1.1789e-20 1.9396e-21 0.753363 -1.2179e-05 0.753304)
(0.753332 1.90541e-20 6.27147e-21 0.753366 6.55713e-06 0.753302)
(0.753337 3.19433e-20 8.88709e-21 0.753357 -2.18325e-06 0.753305)
(0.753334 3.58882e-20 1.27956e-20 0.753373 -3.3385e-05 0.753293)
(0.753331 1.13256e-20 -1.52491e-21 0.753371 -8.90014e-06 0.753297)
(0.753345 4.08667e-21 1.34456e-20 0.753357 1.75488e-05 0.753298)
(0.753332 3.32108e-20 1.56647e-20 0.75339 -4.29706e-05 0.753278)
(0.753331 -9.53492e-22 -6.30711e-22 0.753372 -6.2244e-06 0.753297)
(0.753346 -1.50733e-20 1.56762e-20 0.753369 3.03848e-05 0.753285)
(0.75333 1.1302e-20 1.47115e-20 0.753404 -5.40195e-05 0.753266)
(0.753329 -3.65583e-20 6.42364e-21 0.753375 -3.77187e-05 0.753296)
(0.75334 -8.07165e-20 2.84226e-21 0.753351 4.94213e-06 0.753309)
(0.753326 -5.41008e-20 2.68787e-21 0.753388 -4.07931e-05 0.753286)
(0.753333 -3.72977e-20 9.17579e-21 0.753353 -8.40246e-06 0.753314)
(0.753339 -5.9815e-20 8.26596e-21 0.753355 -2.10857e-06 0.753306)
(0.753327 -8.06671e-20 6.99754e-21 0.753367 -3.64422e-05 0.753305)
(0.753336 -6.36135e-20 3.51404e-21 0.753351 -1.51332e-06 0.753313)
(0.753332 -5.54356e-20 1.55144e-21 0.75336 -1.56298e-06 0.753308)
(0.753333 -4.1727e-20 2.58714e-23 0.753359 -4.08342e-06 0.753308)
(0.753333 -3.29691e-20 -9.4825e-22 0.753361 -1.43273e-05 0.753306)
(0.753334 -2.71452e-20 -1.5428e-21 0.753361 -3.08672e-05 0.753306)
(0.753331 -2.28366e-20 -1.84671e-21 0.753366 -3.97011e-05 0.753303)
(0.753333 -1.43145e-20 3.44859e-21 0.753344 -6.55206e-06 0.753323)
(0.753335 -1.19586e-20 -6.455e-23 0.753353 1.18947e-05 0.753312)
(0.753332 -2.16328e-20 2.55921e-22 0.753355 -5.59797e-06 0.753312)
(0.753333 -1.37873e-20 -7.26345e-22 0.753354 -1.32852e-05 0.753312)
(0.753331 -1.23657e-20 -1.02297e-21 0.753354 -8.99273e-06 0.753315)
(0.753335 -1.09589e-20 -1.4062e-21 0.753347 9.13763e-06 0.753318)
(0.753332 -1.10464e-20 -1.74245e-21 0.753353 3.29696e-06 0.753315)
(0.753333 -1.21768e-20 -2.15762e-21 0.753351 1.35981e-07 0.753315)
(0.753332 -1.69629e-20 -2.90568e-21 0.753357 -1.69285e-05 0.753311)
(0.753333 1.01573e-20 -2.62301e-20 0.753337 -7.56227e-06 0.753329)
(0.753335 -3.42549e-21 -2.27211e-21 0.753344 2.24171e-06 0.753321)
(0.753331 -1.38191e-20 -1.67322e-21 0.75335 -1.59974e-05 0.753319)
(0.753334 -1.45416e-20 -2.0997e-21 0.753345 -1.19528e-05 0.753321)
(0.753333 -1.61992e-20 -2.50237e-21 0.753347 -2.09401e-05 0.753319)
(0.753333 -1.39021e-20 -3.13021e-21 0.753349 -3.178e-05 0.753318)
(0.753333 -1.31497e-20 -3.83876e-21 0.753347 -2.80759e-05 0.75332)
(0.753335 -1.42529e-20 -4.29739e-21 0.753344 -2.55045e-05 0.753321)
(0.75333 -1.39786e-20 -4.71266e-21 0.753356 -3.15787e-05 0.753313)
(0.753335 -1.51175e-20 -5.26586e-21 0.753348 -2.57481e-05 0.753317)
(0.753333 -9.34343e-21 2.07834e-20 0.753327 -8.56124e-06 0.75334)
(0.753333 8.33011e-21 -5.04999e-21 0.753342 -8.99795e-06 0.753325)
(0.753332 -1.30822e-21 -4.27293e-21 0.753344 -1.8735e-05 0.753325)
(0.753333 5.29111e-22 -4.38749e-21 0.753343 -5.96532e-06 0.753324)
(0.753333 -1.32006e-23 -4.351e-21 0.753343 -4.65753e-06 0.753324)
(0.753334 1.40777e-21 -4.32817e-21 0.753343 -1.58336e-05 0.753323)
(0.753335 -8.15572e-22 -4.45428e-21 0.753338 -1.71739e-05 0.753327)
(0.753329 -5.38848e-21 -4.80817e-21 0.753345 3.71779e-07 0.753325)
(0.753336 -1.28956e-20 -5.64711e-21 0.753328 1.42403e-05 0.753335)
(0.753333 -8.20596e-21 6.40987e-21 0.753313 3.63146e-06 0.753353)
(0.753332 -1.05683e-20 -4.09575e-21 0.753336 -1.69929e-05 0.753332)
(0.753332 -3.55955e-20 -2.71253e-21 0.753332 -3.60439e-05 0.753336)
(0.753333 -2.96701e-20 -3.3098e-21 0.753327 -2.71085e-05 0.753339)
(0.753334 -2.76297e-20 -4.26655e-21 0.753328 -1.90333e-05 0.753338)
(0.753332 -2.88846e-20 -5.13393e-21 0.753332 -2.79941e-05 0.753335)
(0.753337 -2.96071e-20 -6.06261e-21 0.753325 -3.36914e-05 0.753338)
(0.753326 -4.03e-20 -7.68137e-21 0.753351 -5.54651e-05 0.753323)
(0.753339 -2.86143e-20 -5.67607e-21 0.75331 -5.94059e-06 0.753351)
(0.753333 9.50969e-21 -2.02731e-20 0.753296 8.63533e-06 0.75337)
(0.753327 -1.04586e-23 -3.93229e-21 0.753333 -5.62541e-06 0.75334)
(0.753337 1.11312e-21 -3.95208e-21 0.753316 2.76754e-05 0.753347)
(0.753332 -1.42639e-20 -3.57987e-21 0.753322 1.34704e-05 0.753345)
(0.753333 -8.48677e-21 -7.90015e-22 0.753314 3.145e-05 0.753353)
(0.753335 2.23835e-20 7.11238e-22 0.753304 6.98725e-05 0.753361)
(0.753336 2.38005e-20 1.38734e-21 0.753295 7.7872e-05 0.753368)
(0.753326 1.6363e-20 1.72085e-21 0.753311 7.84473e-05 0.753364)
(0.753344 1.23163e-20 1.92633e-21 0.753266 9.28173e-05 0.75339)
(0.753333 -5.04903e-21 3.0606e-21 0.753289 5.5548e-06 0.753378)
(0.753325 -9.37292e-21 8.1628e-21 0.753308 -1.51289e-05 0.753367)
(0.75334 -3.00234e-21 7.27973e-21 0.753284 2.77224e-05 0.753376)
(0.753332 -1.96911e-20 7.87266e-21 0.753294 -9.7976e-06 0.753374)
(0.753333 -3.21095e-20 7.38757e-21 0.753292 -6.20091e-06 0.753375)
(0.753334 -7.68987e-20 5.92883e-21 0.75329 4.79251e-06 0.753376)
(0.753336 -3.31425e-20 1.15281e-20 0.753287 1.94348e-05 0.753377)
(0.753332 2.40568e-20 1.27796e-20 0.753291 2.68808e-05 0.753377)
(0.75333 2.2918e-20 1.36914e-20 0.753288 5.76476e-05 0.753382)
(0.753346 6.16663e-20 1.80339e-20 0.753241 0.000106765 0.753413)
(0.753332 1.10236e-20 1.33636e-20 0.753292 2.28942e-05 0.753376)
(0.75333 2.57404e-20 1.10844e-20 0.75331 6.23864e-05 0.753359)
(0.753342 7.91064e-20 8.18816e-21 0.7533 0.00015326 0.753358)
(0.75333 6.88664e-20 1.10812e-20 0.753312 0.000115976 0.753359)
(0.753338 9.24476e-20 1.32266e-20 0.753287 0.000159881 0.753375)
(0.753327 1.46285e-19 1.75925e-20 0.753295 0.000217184 0.753377)
(0.753338 1.84722e-19 1.78242e-20 0.75327 0.000251505 0.753392)
(0.75334 7.42234e-20 4.06044e-21 0.753299 0.000103766 0.753361)
(0.75333 -7.38172e-21 -1.07592e-22 0.753329 3.43872e-06 0.753342)
(0.753333 6.73649e-21 2.58192e-21 0.753326 2.09473e-06 0.753341)
(0.753333 1.36686e-20 -1.73319e-22 0.753323 9.272e-06 0.753345)
(0.753341 2.56038e-20 -5.04752e-22 0.753308 3.2011e-05 0.753351)
(0.753335 7.44181e-21 1.52292e-21 0.753321 1.96676e-05 0.753344)
(0.753331 -6.05253e-22 -5.46417e-22 0.753336 2.64299e-06 0.753334)
(0.753336 -7.2853e-23 2.28314e-22 0.753325 -1.25166e-06 0.753339)
(0.75333 9.77309e-22 2.0784e-21 0.753334 8.05564e-06 0.753336)
(0.753334 1.55262e-21 9.86536e-22 0.753329 2.51789e-06 0.753336)
(0.753334 3.32814e-22 2.2559e-21 0.753327 6.3274e-06 0.753339)
(0.753331 1.96418e-21 3.67339e-22 0.753336 4.21977e-06 0.753333)
(0.753336 -1.81156e-21 5.32181e-22 0.753327 3.75905e-07 0.753337)
(0.753332 1.15359e-21 1.96487e-21 0.753331 7.04625e-06 0.753336)
(0.753332 1.19675e-21 3.3492e-22 0.753335 4.05061e-06 0.753333)
(0.753335 -1.21479e-21 2.62976e-22 0.753329 1.30105e-06 0.753336)
(0.753331 1.11942e-21 2.06391e-21 0.753335 6.26692e-06 0.753334)
(0.753334 4.17553e-22 3.34252e-22 0.753331 3.45068e-06 0.753335)
(0.753334 5.76856e-22 2.34346e-21 0.753329 5.40998e-06 0.753337)
(0.753332 3.81214e-22 7.02217e-22 0.753336 4.38446e-06 0.753333)
(0.753335 -1.83724e-21 2.16196e-22 0.753329 2.13484e-06 0.753336)
(0.753331 9.90991e-22 1.94739e-21 0.753336 5.6876e-06 0.753333)
(0.753334 -4.88436e-22 4.8958e-22 0.753332 3.76518e-06 0.753334)
(0.753334 5.79485e-23 1.8666e-21 0.75333 4.89015e-06 0.753336)
(0.753332 1.46164e-21 3.81531e-22 0.753336 4.57264e-06 0.753332)
(0.753335 -1.12249e-21 2.10332e-22 0.753329 2.68687e-06 0.753335)
(0.753333 1.33979e-21 2.06605e-21 0.753332 5.21086e-06 0.753335)
(0.753332 1.16098e-21 3.3791e-22 0.753335 4.50356e-06 0.753333)
(0.753335 -1.24438e-21 4.76903e-22 0.75333 2.88524e-06 0.753335)
(0.753331 6.47266e-23 1.90476e-21 0.753335 4.78518e-06 0.753333)
(0.753334 -3.96626e-24 2.95012e-22 0.753332 4.08292e-06 0.753334)
(0.753334 1.02888e-23 1.91001e-21 0.75333 4.27017e-06 0.753336)
(0.753332 4.30628e-22 4.58306e-22 0.753336 4.67792e-06 0.753332)
(0.753335 -1.70017e-21 9.20351e-23 0.75333 3.10273e-06 0.753335)
(0.753331 1.28218e-21 1.35146e-21 0.753335 4.37469e-06 0.753333)
(0.753334 2.77926e-22 2.04878e-22 0.753332 4.1767e-06 0.753334)
(0.753334 9.58175e-22 1.6268e-21 0.75333 3.82405e-06 0.753336)
(0.753332 9.62822e-22 2.94228e-22 0.753336 4.77796e-06 0.753332)
(0.753335 -1.9536e-21 3.69382e-22 0.75333 3.33704e-06 0.753335)
(0.753333 -3.26467e-22 1.31145e-21 0.753333 4.02826e-06 0.753335)
(0.753332 6.20888e-22 2.044e-22 0.753335 4.68337e-06 0.753333)
(0.753334 -1.18575e-21 3.77196e-22 0.753331 3.39981e-06 0.753335)
(0.753332 -5.82206e-22 8.77239e-22 0.753335 3.6725e-06 0.753333)
(0.753334 3.26102e-22 1.23794e-22 0.753332 4.30002e-06 0.753334)
(0.753334 6.6657e-22 9.84092e-22 0.753331 3.30721e-06 0.753335)
(0.753332 1.01397e-21 1.75958e-22 0.753335 4.7911e-06 0.753333)
(0.753334 -1.02042e-22 5.15571e-23 0.753331 3.5045e-06 0.753335)
(0.753332 1.60249e-21 1.59886e-21 0.753335 3.34532e-06 0.753333)
(0.753334 -1.28323e-21 3.95817e-22 0.753332 4.34043e-06 0.753334)
(0.753334 -1.03778e-21 1.20437e-21 0.753331 2.94334e-06 0.753335)
(0.753332 5.43435e-22 2.1186e-22 0.753335 4.87895e-06 0.753333)
(0.753335 -1.73804e-21 3.23102e-22 0.75333 3.6173e-06 0.753335)
(0.753333 -1.1182e-21 6.11362e-22 0.753333 3.05967e-06 0.753335)
(0.753333 4.42963e-22 8.97242e-23 0.753334 4.80041e-06 0.753333)
(0.753334 -2.58836e-22 4.94192e-23 0.753331 3.59085e-06 0.753335)
(0.753332 9.17852e-22 6.35187e-22 0.753334 2.6392e-06 0.753334)
(0.753334 1.51224e-21 -1.02718e-22 0.753332 4.37427e-06 0.753334)
(0.753334 2.31903e-21 1.38946e-21 0.753331 2.3495e-06 0.753335)
(0.753332 8.10058e-23 3.85892e-22 0.753334 4.90305e-06 0.753333)
(0.753334 -1.51236e-21 1.09578e-22 0.753331 3.57674e-06 0.753335)