/*--------------------------------*- C++ -*----------------------------------*\
| =========                 |                                                 |
| \\      /  F ield         | OpenFOAM: The Open Source CFD Toolbox           |
|  \\    /   O peration     | Version:  4.1                                   |
|   \\  /    A nd           | Web:      www.OpenFOAM.org                      |
|    \\/     M anipulation  |                                                 |
\*---------------------------------------------------------------------------*/
FoamFile
{
    version     2.0;
    format      ascii;
    class       volVectorField;
    location    "16";
    object      U;
}
// * * * * * * * * * * * * * * * * * * * * * * * * * * * * * * * * * * * * * //

dimensions      [0 1 -1 0 0 0 0];

internalField   nonuniform List<vector> 
6785
(
(1.52238e-14 -2.29607 16.4784)
(1.13046e-14 -7.92488 12.9513)
(-3.11507e-15 -5.13775 13.7368)
(3.59136e-15 -5.09256 13.2314)
(8.97259e-16 -4.31369 13.0802)
(-2.10681e-16 -3.90905 12.7843)
(2.62207e-15 -3.50949 12.4949)
(6.86911e-16 -3.22783 12.1599)
(-7.00802e-16 -3.01362 11.7847)
(1.82209e-15 -2.88341 11.36)
(2.76172e-16 -2.81234 10.9352)
(-3.63314e-16 -2.81805 10.5626)
(1.08181e-15 -3.25404 10.0083)
(1.28664e-16 -3.36359 9.14331)
(-6.02774e-16 -0.0527931 7.41457)
(2.05314e-14 -10.0916 26.6293)
(1.38763e-14 -16.2452 22.8958)
(-2.86305e-15 -11.0878 23.2649)
(4.93975e-15 -11.9635 21.3596)
(8.38452e-16 -10.2361 20.4775)
(1.06631e-15 -9.6541 19.1951)
(2.34198e-15 -8.70005 18.0925)
(2.68077e-16 -7.9964 16.9972)
(2.28427e-16 -7.35587 16.0547)
(1.1129e-15 -6.89657 15.1995)
(-1.17246e-16 -6.50702 14.2411)
(2.02586e-16 -5.97129 12.9233)
(1.02405e-15 -5.09288 10.7746)
(-3.06155e-16 -3.44676 6.57871)
(-5.48667e-16 -0.29079 0.039249)
(2.03203e-14 -12.5902 27.5649)
(1.1929e-14 -16.4872 24.6265)
(-1.90762e-15 -11.7509 24.4774)
(3.24591e-15 -12.7205 21.976)
(9.29782e-16 -10.5671 20.9614)
(1.21415e-15 -10.0737 19.2502)
(3.39512e-16 -8.90046 17.9522)
(5.09093e-18 -8.04166 16.4609)
(4.66865e-17 -6.89483 14.6977)
(-8.29405e-16 -5.58902 12.3138)
(-5.53136e-16 -4.4087 9.71631)
(-1.60126e-15 -3.92769 7.82985)
(-4.58098e-15 -3.85132 6.60834)
(-2.17616e-15 -2.75698 3.97936)
(-1.49672e-15 -2.07547 1.84452)
(2.1199e-14 -13.8466 28.1712)
(9.0481e-15 -16.6141 25.4669)
(-8.40542e-16 -12.6239 25.1726)
(2.8737e-15 -13.5961 22.5752)
(2.44167e-16 -11.2916 21.6645)
(1.54869e-15 -11.0492 19.8614)
(-5.02682e-17 -9.76008 18.7174)
(-6.67284e-16 -8.98796 17.1946)
(1.75232e-16 -7.48886 15.0676)
(-4.29741e-16 -5.19989 11.2413)
(1.65672e-16 -2.17062 6.1454)
(2.48436e-15 -0.0339369 2.1313)
(3.01399e-15 0.393315 0.764021)
(2.30646e-15 -0.307987 1.43111)
(1.86437e-15 -1.46395 3.58017)
(2.07716e-14 -14.4611 28.6258)
(9.64952e-15 -17.5659 27.0648)
(-7.25512e-16 -13.4832 26.2172)
(3.25524e-15 -14.6672 23.5737)
(7.65122e-16 -12.2131 22.7644)
(1.74795e-15 -12.3384 20.8141)
(5.3708e-16 -10.9719 19.7612)
(2.24147e-16 -10.5157 18.2467)
(4.09097e-16 -9.29524 16.4961)
(2.1897e-16 -7.49521 13.3183)
(1.67875e-15 -4.44804 8.51218)
(3.99105e-15 -1.2635 3.40128)
(8.62901e-15 1.41984 -0.591081)
(1.04389e-14 3.11179 -3.25189)
(6.87438e-15 2.11457 -3.63606)
(1.95331e-14 -14.0049 26.81)
(1.22048e-14 -18.1234 28.1366)
(-1.97104e-16 -14.0531 26.1462)
(2.86317e-15 -14.7908 23.3307)
(1.67704e-15 -12.6998 22.3104)
(1.47656e-15 -12.6605 20.2966)
(1.15618e-15 -11.4905 19.0009)
(1.10378e-15 -10.9865 17.4009)
(6.19124e-16 -10.1394 15.8293)
(3.48568e-16 -9.09308 13.7586)
(9.99006e-16 -7.46455 10.966)
(1.53015e-15 -5.22453 7.59021)
(2.5043e-15 -2.77851 3.81762)
(1.02018e-15 0.823554 -0.306979)
(7.37079e-15 1.98109 -5.72847)
(1.90841e-14 -12.895 23.934)
(1.47914e-14 -17.8225 28.1925)
(1.58768e-15 -14.1151 25.5063)
(2.25406e-15 -14.1191 22.4028)
(2.47314e-15 -12.3264 21.1485)
(2.62303e-15 -11.9975 19.1412)
(1.71708e-15 -10.8909 17.6618)
(1.83297e-15 -10.1987 15.9712)
(2.42875e-15 -9.36546 14.3786)
(1.16977e-15 -8.49758 12.6938)
(1.15932e-15 -7.498 10.8035)
(2.7323e-15 -6.10077 8.62124)
(2.54229e-15 -4.48266 5.86006)
(-1.20305e-15 -1.7497 2.41503)
(5.22149e-15 0.505063 -2.97897)
(1.74618e-14 -11.8718 21.6649)
(1.61729e-14 -17.2 27.8315)
(3.00547e-15 -14.0493 25.0253)
(1.64597e-15 -13.4715 21.7445)
(2.44536e-15 -11.864 20.303)
(2.91554e-15 -11.3609 18.3798)
(1.89631e-15 -10.3026 16.8632)
(1.89584e-15 -9.52917 15.2156)
(2.33201e-15 -8.6845 13.6888)
(2.23853e-15 -7.85584 12.1975)
(1.5303e-15 -7.04226 10.6826)
(1.60128e-15 -6.03237 9.08596)
(2.86239e-15 -4.91311 7.10071)
(4.16671e-16 -2.96423 4.49391)
(-3.97135e-15 -0.537398 -0.535053)
(1.75058e-14 -11.2481 20.4255)
(1.71883e-14 -16.5459 27.2172)
(3.15402e-15 -13.9083 24.5771)
(1.69425e-15 -13.0261 21.2215)
(2.46328e-15 -11.5484 19.6267)
(1.49979e-15 -11.004 17.8324)
(2.3746e-15 -10.088 16.409)
(2.50788e-15 -9.38686 14.9229)
(4.98222e-16 -8.64255 13.5153)
(1.8773e-15 -7.9127 12.1401)
(2.36732e-15 -7.21906 10.7944)
(-1.33965e-16 -6.45723 9.54674)
(1.91393e-15 -5.69611 8.25767)
(1.72078e-15 -4.37572 6.70272)
(-6.69916e-15 -1.91688 2.25658)
(1.64815e-14 -11.0254 20.0584)
(1.71397e-14 -15.7188 26.2531)
(2.78173e-15 -13.365 23.6684)
(-3.04238e-16 -12.4041 20.3134)
(2.52338e-15 -10.9053 18.7171)
(8.52707e-16 -10.4167 16.9227)
(-3.77089e-16 -9.53488 15.5281)
(2.15321e-15 -8.97358 13.9891)
(-5.67166e-16 -8.34932 12.5561)
(-2.98112e-15 -7.8333 11.2486)
(5.10359e-17 -7.43865 10.3258)
(-1.29751e-15 -7.21126 9.96972)
(-3.13841e-15 -7.00946 9.98183)
(8.64511e-16 -6.33661 9.63668)
(-5.14295e-15 -3.99253 6.10755)
(1.48084e-14 -11.7385 21.2144)
(1.40271e-14 -14.6636 25.0248)
(-2.42817e-15 -12.5369 22.5954)
(-3.62994e-17 -11.6641 19.8913)
(1.74339e-15 -10.0215 18.1077)
(-3.56382e-15 -8.99697 15.6904)
(2.73006e-16 -7.58407 13.5357)
(1.78743e-15 -6.73075 11.4741)
(-6.28124e-15 -6.10523 10.1099)
(-2.29026e-15 -6.09239 9.54745)
(6.76538e-16 -6.58564 10.088)
(-8.10302e-15 -7.59208 11.5209)
(-5.06627e-15 -8.4034 13.2182)
(-6.08342e-15 -8.63336 13.7137)
(-9.83971e-15 -6.09172 10.5735)
(1.52633e-14 -12.9132 22.9345)
(1.28495e-14 -15.812 26.5934)
(-5.7331e-15 -12.6602 23.0668)
(3.4174e-16 -11.7989 21.0875)
(2.01558e-16 -10.073 19.4127)
(-3.27219e-15 -8.35777 16.5045)
(1.79142e-15 -6.21638 13.5882)
(3.00283e-15 -4.52714 10.8554)
(1.93255e-15 -3.00684 8.57994)
(3.86529e-15 -2.10464 7.00891)
(1.22521e-15 -2.23391 7.00615)
(-3.58702e-15 -3.80741 9.09278)
(-3.5146e-15 -6.28334 12.4531)
(-7.92403e-15 -8.21945 14.4938)
(-8.39531e-15 -6.02348 11.3554)
(1.161e-14 -11.438 19.7715)
(1.46682e-14 -18.3463 29.2033)
(1.6859e-15 -16.7172 27.5798)
(2.14303e-16 -14.9847 24.7633)
(2.51861e-16 -13.2483 22.8236)
(-1.72784e-15 -11.5691 20.1203)
(1.05666e-15 -9.26085 17.0444)
(3.29883e-15 -7.1773 13.9935)
(3.62762e-15 -5.07476 11.181)
(5.23677e-15 -3.12962 8.47046)
(4.1995e-15 -1.46294 6.16626)
(1.31412e-15 -0.591278 4.75669)
(-1.11919e-15 -1.11603 5.04676)
(-2.75933e-15 -3.04889 7.08195)
(-3.55278e-15 -3.34758 7.12686)
(5.84677e-15 -5.60191 9.05964)
(1.44332e-14 -15.1464 23.1048)
(9.25392e-15 -18.1355 28.2496)
(3.35224e-15 -17.1602 26.9367)
(4.11031e-16 -15.1813 24.3043)
(-7.11839e-16 -13.6469 21.9429)
(4.94892e-16 -12.097 19.738)
(1.38852e-15 -10.5588 17.4107)
(2.41874e-15 -8.89102 15.0066)
(3.83319e-15 -7.0852 12.3747)
(4.03361e-15 -5.08325 9.51941)
(3.45967e-15 -3.11402 6.66058)
(1.82291e-15 -1.49347 4.01437)
(1.02554e-15 -0.0175521 1.64781)
(3.2775e-16 0.376931 0.354)
(4.9161e-16 -1.76597 4.19286)
(1.47611e-14 -12.6982 20.0461)
(1.6896e-14 -19.1047 29.1172)
(1.18937e-14 -20.9985 30.3711)
(6.05462e-15 -20.2695 27.6942)
(2.30183e-15 -18.5796 23.9981)
(5.59834e-16 -16.7257 20.6051)
(-2.54493e-16 -15.0526 17.7859)
(-1.8242e-16 -13.4351 15.2912)
(3.45052e-16 -11.8245 13.1797)
(7.00376e-16 -10.2396 11.2341)
(8.79838e-16 -8.47114 9.23273)
(7.71331e-16 -6.48369 7.06214)
(5.3642e-16 -4.03892 4.4618)
(1.52816e-15 -0.591174 0.134088)
(-8.37186e-17 10.0114 42.8952)
(-3.19413e-15 -0.209677 5.08058)
(-2.74398e-15 -0.405782 -2.77079)
(-2.43137e-15 -0.257133 -1.96666)
(-2.22799e-15 -0.0885513 -2.30357)
(-2.75666e-15 0.439274 -3.12267)
(-2.24627e-15 0.259517 -2.12488)
(-2.41691e-15 0.479198 -2.04568)
(-2.90498e-15 0.590323 -1.90862)
(-1.74654e-15 0.966511 -2.54678)
(-9.34648e-16 0.85018 -1.79698)
(-1.28712e-15 1.02141 -1.68668)
(-2.15011e-15 1.40605 -2.12253)
(-1.73916e-15 1.17664 -1.48782)
(-1.81227e-15 1.38782 -1.46815)
(-1.85917e-15 1.41151 -1.43619)
(-2.73102e-15 1.77133 -1.75777)
(-2.02853e-15 1.50742 -1.26667)
(-2.0077e-15 1.65724 -1.22652)
(-2.85924e-15 2.03588 -1.45835)
(-2.22195e-15 1.629 -1.06943)
(-2.30798e-15 1.85168 -1.06409)
(-2.135e-15 1.82368 -1.04222)
(-2.96579e-15 2.20448 -1.1938)
(-2.27489e-15 1.75113 -0.873823)
(-2.23502e-15 1.9632 -0.838093)
(-2.25231e-15 1.9219 -0.785725)
(-3.06011e-15 2.23354 -0.829917)
(-2.43104e-15 1.80588 -0.579061)
(-2.19693e-15 1.9097 -0.506696)
(-2.89336e-15 2.23241 -0.416398)
(-2.02345e-15 1.71158 -0.261099)
(-1.71823e-15 1.8814 -0.191549)
(-1.44672e-15 1.80348 -0.130023)
(-1.60253e-15 2.04461 0.0806441)
(-6.46667e-16 1.62371 0.110157)
(-2.68637e-16 1.66902 0.140575)
(1.51948e-16 1.91835 0.416622)
(5.37484e-16 1.42888 0.315953)
(7.57292e-16 1.54338 0.34658)
(1.13971e-15 1.43529 0.356887)
(2.0757e-15 1.67351 0.620571)
(1.704e-15 1.28329 0.487016)
(1.84533e-15 1.3679 0.50371)
(1.86142e-15 1.25497 0.494783)
(2.79982e-15 1.49631 0.651949)
(1.95893e-15 1.29786 0.542852)
(1.82512e-15 1.27999 0.511505)
(2.31466e-15 1.49122 0.698073)
(1.85748e-15 1.20372 0.519519)
(1.70267e-15 1.26261 0.509023)
(1.44066e-15 1.16651 0.501565)
(1.65021e-15 1.27046 0.655924)
(1.12e-15 0.982807 0.388433)
(9.28216e-16 1.01579 0.364953)
(1.06227e-15 0.959651 0.419687)
(1.3671e-15 0.912648 0.242315)
(1.33263e-15 0.618727 -0.286108)
(1.15321e-15 0.630435 -0.202198)
(1.7742e-15 0.644592 -1.57748)
(9.61033e-16 0.0826646 -2.21579)
(2.66729e-16 0.205571 -2.43861)
(-4.89436e-16 0.432222 -2.41599)
(1.1169e-15 0.742571 -2.64993)
(-5.92246e-16 -0.591907 0.433863)
(-2.80019e-16 -0.133475 0.0449238)
(-5.72699e-16 -0.793015 1.81007)
(-6.77025e-16 -1.5211 2.90974)
(-7.16206e-16 -1.649 2.79747)
(-1.02602e-15 -1.61883 2.9738)
(-2.19961e-15 -2.84669 5.64392)
(-2.37667e-15 -3.34384 5.34013)
(-3.05368e-15 -3.79866 5.55578)
(-3.63453e-15 -3.74451 5.83708)
(-5.64515e-15 -5.75123 9.519)
(-4.54979e-15 -6.05992 7.9427)
(-5.16417e-15 -6.16097 8.569)
(-6.83912e-15 -8.64355 12.9424)
(-5.05493e-15 -8.54879 10.2914)
(-5.19999e-15 -9.04162 11.1276)
(-5.40868e-15 -9.71886 12.73)
(-4.72752e-15 -9.69551 12.5882)
(-4.16376e-15 -9.80274 12.8294)
(-2.76536e-15 -11.7021 15.9293)
(-1.91372e-15 -10.6551 13.908)
(-1.15635e-15 -10.9799 14.5153)
(-6.69609e-16 -10.9612 14.5999)
(-1.7519e-16 -11.0931 14.6652)
(1.84935e-16 -11.1791 14.7521)
(4.67979e-16 -11.2892 14.8631)
(6.93426e-16 -11.3907 15.1146)
(8.86671e-16 -11.5 15.4721)
(1.70708e-15 -12.322 17.3761)
(1.46529e-15 -11.945 16.0544)
(1.69664e-15 -12.1613 16.22)
(1.79899e-15 -12.1225 16.233)
(1.90916e-15 -12.3196 16.526)
(1.98959e-15 -12.298 16.4378)
(2.07819e-15 -12.4122 16.4582)
(2.15997e-15 -12.4547 16.4637)
(2.26588e-15 -12.5485 16.5373)
(3.06928e-15 -13.0564 17.9665)
(2.72138e-15 -12.7192 17.0086)
(2.84156e-15 -12.8575 17.2015)
(2.9344e-15 -12.8717 17.2927)
(3.06572e-15 -12.9465 17.4315)
(3.18425e-15 -12.9788 17.6633)
(3.28015e-15 -13.0732 17.9635)
(3.38694e-15 -13.0852 18.1208)
(3.49985e-15 -13.1421 18.3836)
(3.60254e-15 -13.286 18.6465)
(4.27636e-15 -13.087 19.5175)
(3.41155e-15 -13.0113 18.9615)
(3.45058e-15 -13.0955 19.1963)
(3.43171e-15 -13.1005 19.239)
(3.44241e-15 -13.1678 19.2809)
(3.43192e-15 -13.1787 19.3049)
(3.42071e-15 -13.241 19.5221)
(3.44451e-15 -13.2059 19.5461)
(3.50381e-15 -13.3645 19.4917)
(4.22437e-15 -12.2215 18.4289)
(3.54898e-15 -12.4901 18.478)
(3.84289e-15 -12.4746 18.6796)
(4.09801e-15 -12.485 18.9762)
(4.30025e-15 -12.4287 19.0195)
(4.52391e-15 -12.4438 19.191)
(4.74576e-15 -12.4284 19.3714)
(4.98056e-15 -12.3454 19.6267)
(5.36691e-15 -12.6181 20.1594)
(5.64896e-15 -10.0449 17.1748)
(5.54335e-15 -11.0073 18.4528)
(5.56396e-15 -10.8695 18.1441)
(5.52621e-15 -10.8449 17.8936)
(5.78392e-15 -10.7912 17.7954)
(5.65699e-15 -10.7032 17.2444)
(5.43871e-15 -10.5549 16.5376)
(5.2901e-15 -10.3883 15.8543)
(5.1865e-15 -10.4393 15.1414)
(4.74076e-15 -7.08126 10.2254)
(5.96302e-15 -8.49548 13.642)
(5.87091e-15 -8.08734 12.9858)
(6.00937e-15 -8.06265 13.0064)
(6.17463e-15 -7.79751 12.9058)
(6.50457e-15 -7.74252 12.8652)
(7.35981e-15 -7.46092 12.5826)
(7.01507e-15 -7.36352 12.3423)
(6.98886e-15 -7.13904 11.9337)
(6.66168e-15 -7.04403 11.2108)
(3.44118e-15 -3.36126 4.87957)
(5.53153e-15 -5.28653 8.33434)
(4.72939e-15 -4.75728 6.5258)
(4.31129e-15 -4.95915 5.84553)
(3.66793e-15 -4.619 4.59207)
(2.88623e-15 -4.56917 3.23516)
(1.41145e-15 -4.37394 1.08473)
(3.70828e-17 -4.04632 -0.753833)
(2.66853e-16 -4.06173 -0.488856)
(-3.32649e-16 -3.94909 -1.91654)
(1.42425e-17 -3.73848 -0.823512)
(-2.63681e-16 -3.70239 -1.13586)
(-6.53822e-16 -2.97412 -1.58428)
(-6.35756e-16 -3.92881 -1.77245)
(-8.23922e-16 -3.20731 -1.38161)
(-6.70414e-16 -2.80765 -0.95432)
(-9.52532e-16 -3.49872 -1.33903)
(-7.10671e-16 -2.39412 -0.803528)
(-9.96329e-16 -3.00813 -1.19849)
(-7.63354e-16 -2.69418 -0.865034)
(-6.25934e-16 -2.21185 -0.622774)
(-9.15166e-16 -2.60885 -0.920663)
(-8.04177e-16 -2.39962 -0.680643)
(-6.78135e-16 -2.02242 -0.489253)
(-9.51488e-16 -2.66204 -0.701547)
(-7.50038e-16 -1.79942 -0.436553)
(-1.0274e-15 -2.33366 -0.668828)
(-7.44787e-16 -2.06069 -0.519545)
(-6.40131e-16 -1.77556 -0.3845)
(-8.75201e-16 -2.35776 -0.561122)
(-5.56021e-16 -1.57978 -0.361473)
(-8.82827e-16 -2.0782 -0.551811)
(-7.82572e-16 -1.92087 -0.454528)
(-6.64384e-16 -1.55636 -0.341562)
(-9.58883e-16 -1.89444 -0.521576)
(-8.32635e-16 -1.78122 -0.429453)
(-5.99366e-16 -1.48919 -0.320751)
(-8.41153e-16 -2.02528 -0.463944)
(-5.98683e-16 -1.34106 -0.307616)
(-8.42507e-16 -1.78322 -0.465356)
(-4.64441e-16 -1.59271 -0.389759)
(-4.54895e-16 -1.35634 -0.293649)
(-6.33171e-16 -1.84916 -0.421938)
(-5.02754e-16 -1.20758 -0.281504)
(-7.59263e-16 -1.62613 -0.421069)
(-6.38177e-16 -1.50718 -0.362936)
(-3.92474e-16 -1.19946 -0.274716)
(-5.95214e-16 -1.4857 -0.412983)
(-4.67309e-16 -1.39072 -0.350102)
(-2.45388e-16 -1.145 -0.262325)
(-3.90693e-16 -1.59409 -0.372793)
(-3.01543e-16 -1.01806 -0.251637)
(-4.78411e-16 -1.3903 -0.376955)
(-4.75391e-16 -1.21803 -0.327094)
(-5.73645e-16 -1.01997 -0.249046)
(-6.86278e-16 -1.42653 -0.355524)
(-3.5267e-16 -0.88521 -0.24434)
(-5.49707e-16 -1.23422 -0.367159)
(-4.11611e-16 -1.11256 -0.330931)
(-1.58996e-16 -0.855756 -0.256208)
(-2.64461e-16 -1.08904 -0.387005)
(-2.25501e-16 -0.986692 -0.341871)
(-2.10116e-16 -0.780126 -0.261837)
(-3.4629e-16 -1.13975 -0.3702)
(-4.70528e-16 -0.651376 -0.259894)
(-6.51473e-16 -0.958806 -0.392706)
(-3.52769e-16 -0.781048 -0.352384)
(-2.59334e-16 -0.615989 -0.273341)
(-3.07155e-16 -0.937804 -0.385474)
(8.17291e-17 -0.471953 -0.274209)
(9.44736e-17 -0.768015 -0.416823)
(1.53221e-16 -0.620138 -0.384982)
(1.25768e-16 -0.396328 -0.303114)
(3.89969e-16 -0.607684 -0.456822)
(6.23614e-16 -0.464795 -0.410511)
(-6.96141e-18 -0.277064 -0.311545)
(6.17847e-17 -0.620065 -0.429617)
(-2.63214e-16 -0.104356 -0.302344)
(-2.9598e-16 -0.482871 -0.465449)
(-3.08345e-16 -0.198393 -0.427235)
(9.81202e-17 0.000366916 -0.309543)
(-1.70006e-18 -0.66857 -0.415503)
(-2.47234e-16 0.382123 -0.23675)
(-3.7148e-16 -0.360428 -0.427291)
(1.93722e-15 -0.432451 -0.566836)
(1.3617e-15 0.409075 -0.362241)
(1.25855e-15 0.138151 -0.427343)
(7.74688e-16 -0.228705 -0.70498)
(3.02152e-16 0.50524 -0.541057)
(2.31654e-16 0.046565 -0.765283)
(1.10485e-16 0.492299 -0.544409)
(1.51121e-16 0.4647 -0.625602)
(3.60093e-38 0.48963 0.565894)
(5.18831e-38 0.574619 0.563813)
(-1.01183e-37 0.624828 0.568022)
(-8.5322e-37 0.675239 0.571538)
(-2.86877e-36 0.723241 0.577701)
(-5.3551e-36 0.768349 0.584515)
(1.30339e-36 0.811844 0.59289)
(5.55889e-35 0.853382 0.602239)
(2.49649e-34 0.893412 0.612777)
(6.31992e-34 0.931904 0.624304)
(4.25091e-34 0.969 0.636839)
(-4.74537e-33 1.00473 0.650291)
(-2.76089e-32 1.03915 0.664627)
(-8.2737e-32 1.07229 0.679791)
(-1.07593e-31 1.1042 0.695747)
(3.62959e-31 1.13494 0.712458)
(3.09319e-30 1.16459 0.729901)
(1.23659e-29 1.19326 0.748063)
(2.9369e-29 1.22106 0.766938)
(-2.53024e-30 1.24815 0.786531)
(-4.29828e-28 1.27466 0.806849)
(-2.31883e-27 1.30074 0.827898)
(-6.27618e-27 1.32649 0.849684)
(-6.56053e-28 1.35203 0.872216)
(7.88646e-26 1.37748 0.89551)
(3.87867e-25 1.40303 0.919614)
(8.66983e-25 1.42901 0.944624)
(-5.26263e-25 1.45593 0.970706)
(-1.20723e-23 1.48453 0.998079)
(-4.80272e-23 1.51562 1.02697)
(-8.62091e-23 1.54979 1.05753)
(1.01274e-22 1.5872 1.0898)
(1.25363e-21 1.62764 1.12368)
(4.43275e-21 1.67052 1.15893)
(7.92685e-21 1.71493 1.19518)
(-3.28534e-21 1.75975 1.23195)
(-7.66225e-20 1.80384 1.26874)
(-2.97241e-19 1.84614 1.30503)
(-6.96181e-19 1.8859 1.3405)
(-8.83338e-19 1.92272 1.37538)
(8.32911e-19 1.95637 1.41115)
(8.95732e-18 1.98639 1.45154)
(3.26294e-17 2.01154 1.50345)
(8.67622e-17 2.02959 1.57668)
(1.9111e-16 2.03787 1.68146)
(3.66455e-16 2.03423 1.82358)
(6.28742e-16 2.01793 1.99945)
(9.83476e-16 1.98959 2.19403)
(1.42241e-15 1.9497 2.38342)
(1.92246e-15 1.89579 2.54024)
(2.44812e-15 1.82337 2.63983)
(2.96945e-15 1.73833 2.67083)
(3.48584e-15 1.64721 2.64038)
(3.90202e-15 1.39169 2.47277)
(3.6935e-15 0.48644 1.78446)
(2.68899e-15 -0.769453 0.776239)
(2.10325e-15 -1.51547 0.513812)
(1.51956e-15 -2.0105 0.283599)
(9.54901e-16 -2.50351 0.0549551)
(4.66166e-16 -2.94919 -0.131943)
(1.42993e-16 -3.34096 -0.257522)
(2.08746e-17 -3.71674 -0.320366)
(-1.29236e-18 -4.08814 -0.353644)
(-9.67631e-19 -4.41377 -0.362214)
(-1.07674e-19 -4.67501 -0.365957)
(6.78877e-21 -4.83736 -0.359647)
(2.52936e-21 -4.89254 -0.35752)
(1.88286e-22 -4.85062 -0.34947)
(-2.17512e-23 -4.69204 -0.351854)
(-1.70417e-23 -4.45816 -0.340651)
(-3.38594e-23 -4.08085 -0.346583)
(4.59734e-23 -3.72922 -0.314159)
(-2.08717e-22 -3.16664 -0.329887)
(9.92603e-22 -3.02809 -0.256167)
(-5.92221e-21 -2.25408 -0.327591)
(7.23457e-20 -2.81587 -0.200605)
(-9.42947e-19 -2.07788 -0.361488)
(6.80961e-18 -2.20128 -0.315684)
(1.22195e-17 -5.12429 -0.349396)
(1.42978e-37 0.49016 0.601701)
(2.51684e-37 0.574406 0.597661)
(-3.64745e-37 0.623683 0.601765)
(-3.70617e-36 0.673761 0.60481)
(-1.22685e-35 0.721222 0.610966)
(-1.78839e-35 0.765967 0.617758)
(3.67197e-35 0.809049 0.626272)
(3.17892e-34 0.850237 0.635796)
(1.00257e-33 0.889915 0.646578)
(1.30368e-33 0.928085 0.658383)
(-3.8578e-33 0.964872 0.67123)
(-2.95321e-32 1.00031 0.685019)
(-9.55812e-32 1.03445 0.699715)
(-1.50876e-31 1.06733 0.715261)
(2.40117e-31 1.099 0.731624)
(2.74667e-30 1.1295 0.748772)
(1.15225e-29 1.15892 0.766692)
(2.96899e-29 1.18735 0.785377)
(1.87832e-29 1.21492 0.804833)
(-2.93534e-28 1.24178 0.825069)
(-1.89156e-27 1.26806 0.846095)
(-6.17746e-27 1.29389 0.867916)
(-6.58419e-27 1.31941 0.890536)
(4.87479e-26 1.3447 0.913962)
(3.25362e-25 1.3699 0.938223)
(9.5738e-25 1.39517 0.963394)
(6.00531e-25 1.42082 0.989623)
(-8.24989e-24 1.44735 1.01715)
(-4.38518e-23 1.4755 1.04625)
(-1.07144e-22 1.50606 1.07717)
(-2.26324e-23 1.53968 1.10999)
(9.48656e-22 1.57656 1.14465)
(4.28506e-21 1.61653 1.18092)
(9.78199e-21 1.65905 1.21843)
(4.87432e-21 1.70323 1.2567)
(-5.90633e-20 1.74799 1.29514)
(-2.86233e-19 1.79217 1.33318)
(-7.65509e-19 1.83469 1.37035)
(-1.19997e-18 1.87466 1.40676)
(7.90451e-20 1.91132 1.44392)
(7.93281e-18 1.94382 1.48611)
(3.27676e-17 1.97073 1.54168)
(9.21883e-17 1.98979 1.62322)
(2.10003e-16 1.99838 1.74473)
(4.11203e-16 1.99474 1.91547)
(7.13872e-16 1.97933 2.13268)
(1.12151e-15 1.955 2.37826)
(1.61952e-15 1.92563 2.62234)
(2.1767e-15 1.89333 2.83183)
(2.74947e-15 1.85538 2.97826)
(3.28788e-15 1.80442 3.04169)
(3.75223e-15 1.74102 3.01776)
(4.13794e-15 1.68066 2.92811)
(4.38834e-15 1.52591 2.74)
(4.03061e-15 0.782124 2.05322)
(2.60344e-15 -0.671361 0.623857)
(2.07099e-15 -1.49332 0.46896)
(1.51265e-15 -1.98536 0.263894)
(9.53698e-16 -2.48603 0.0393555)
(4.68031e-16 -2.94204 -0.138442)
(1.44756e-16 -3.3465 -0.260603)
(2.1304e-17 -3.73138 -0.320155)
(-1.3587e-18 -4.10542 -0.349647)
(-1.01739e-18 -4.43045 -0.356093)
(-1.1409e-19 -4.68925 -0.357725)
(7.54085e-21 -4.84733 -0.350377)
(2.77817e-21 -4.89857 -0.348212)
(1.9842e-22 -4.85163 -0.340499)
(-2.46755e-23 -4.68967 -0.343938)
(-1.74706e-23 -4.45182 -0.334126)
(-3.38701e-23 -4.07387 -0.341373)
(4.5794e-23 -3.71807 -0.310737)
(-2.08773e-22 -3.15705 -0.327159)
(9.97039e-22 -3.00942 -0.255332)
(-6.05283e-21 -2.23655 -0.32522)
(7.40554e-20 -2.78878 -0.200655)
(-9.58137e-19 -2.03721 -0.358065)
(6.67944e-18 -2.17164 -0.311649)
(1.20576e-17 -5.06481 -0.348879)
(3.69234e-37 0.490589 0.620914)
(5.59256e-37 0.574458 0.616106)
(-1.42765e-36 0.623194 0.620128)
(-1.06194e-35 0.673102 0.622949)
(-2.99128e-35 0.720279 0.62911)
(-2.35168e-35 0.764844 0.635905)
(1.79197e-34 0.807723 0.644504)
(9.33021e-34 0.848743 0.654134)
(2.10228e-33 0.888254 0.665059)
(-8.16893e-35 0.926273 0.677025)
(-1.98176e-32 0.962916 0.690053)
(-8.26964e-32 0.998221 0.704036)
(-1.72792e-31 1.03224 0.718941)
(5.76656e-33 1.065 0.73471)
(1.68581e-30 1.09654 0.751312)
(8.15983e-30 1.12693 0.768719)
(2.37898e-29 1.15623 0.786922)
(3.23886e-29 1.18455 0.805921)
(-1.23179e-28 1.212 0.825725)
(-1.12413e-27 1.23873 0.846346)
(-4.49559e-27 1.26489 0.867794)
(-8.6775e-27 1.2906 0.890072)
(1.54503e-26 1.31599 0.913182)
(1.91557e-25 1.34116 0.937131)
(7.42621e-25 1.36622 0.961957)
(1.20357e-24 1.39134 0.987753)
(-3.13107e-24 1.41679 1.0147)
(-2.79804e-23 1.44308 1.04308)
(-9.17113e-23 1.47093 1.07322)
(-1.132e-22 1.50119 1.10534)
(4.26702e-22 1.53452 1.13949)
(2.93563e-21 1.57115 1.17551)
(8.65553e-21 1.61093 1.21312)
(1.10276e-20 1.65333 1.25188)
(-2.58871e-20 1.69749 1.29123)
(-1.97149e-19 1.74233 1.33052)
(-6.32057e-19 1.78667 1.36914)
(-1.22903e-18 1.82932 1.40686)
(-8.19736e-19 1.86913 1.44464)
(4.5593e-18 1.90485 1.48603)
(2.41729e-17 1.93483 1.53882)
(7.47816e-17 1.95687 1.61585)
(1.8041e-16 1.96842 1.73294)
(3.67731e-16 1.96779 1.90287)
(6.5745e-16 1.95555 2.12713)
(1.05538e-15 1.93519 2.39046)
(1.54792e-15 1.91176 2.66312)
(2.10378e-15 1.88947 2.91004)
(2.67982e-15 1.86907 3.10074)
(3.22733e-15 1.84578 3.21411)
(3.69751e-15 1.81009 3.23764)
(4.05215e-15 1.75899 3.17042)
(4.28381e-15 1.70672 3.03718)
(4.37806e-15 1.5889 2.84352)
(4.03627e-15 0.979229 2.26411)
(2.64787e-15 -0.45288 0.624976)
(1.99381e-15 -1.43909 0.344828)
(1.5067e-15 -1.92572 0.238417)
(9.52902e-16 -2.42689 0.0129026)
(4.709e-16 -2.89476 -0.152617)
(1.47181e-16 -3.31286 -0.268436)
(2.18783e-17 -3.70921 -0.322537)
(-1.44335e-18 -4.09072 -0.345334)
(-1.08081e-18 -4.4208 -0.347617)
(-1.22265e-19 -4.68323 -0.345785)
(8.48134e-21 -4.84386 -0.33628)
(3.09359e-21 -4.89729 -0.333866)
(2.11346e-22 -4.85174 -0.326503)
(-2.85204e-23 -4.69189 -0.331386)
(-1.80292e-23 -4.45533 -0.323722)
(-3.38813e-23 -4.08124 -0.332954)
(4.55866e-23 -3.72598 -0.305049)
(-2.08866e-22 -3.17118 -0.322807)
(1.00265e-21 -3.01894 -0.253373)
(-6.21023e-21 -2.25466 -0.322392)
(7.61065e-20 -2.79639 -0.199577)
(-9.75644e-19 -2.03865 -0.354618)
(6.5404e-18 -2.18837 -0.303414)
(9.68995e-18 -5.01608 -0.345022)
(8.26094e-37 0.491251 0.643657)
(8.41746e-37 0.574507 0.638127)
(-4.81387e-36 0.62246 0.642087)
(-2.59273e-35 0.67209 0.644714)
(-5.70946e-35 0.718832 0.650907)
(1.65578e-35 0.763113 0.657745)
(5.92147e-34 0.805673 0.666474)
(2.14308e-33 0.846428 0.676263)
(2.84144e-33 0.885675 0.687387)
(-8.79235e-33 0.923456 0.699574)
(-6.18091e-32 0.95987 0.712845)
(-1.7245e-31 0.994963 0.727088)
(-1.59083e-31 1.02878 0.742268)
(8.91683e-31 1.06134 0.758327)
(5.56561e-30 1.0927 0.775236)
(1.81569e-29 1.12291 0.792972)
(3.39914e-29 1.15203 0.81153)
(-3.04663e-29 1.18017 0.830918)
(-6.11212e-28 1.20744 0.85115)
(-3.01128e-27 1.23398 0.872241)
(-8.08095e-27 1.25995 0.894203)
(-1.81787e-27 1.28548 0.917038)
(9.86049e-26 1.31068 0.940745)
(5.16502e-25 1.33566 0.965331)
(1.2778e-24 1.36051 0.99084)
(-1.69544e-25 1.38538 1.01738)
(-1.56463e-23 1.41054 1.04519)
(-6.94334e-23 1.43646 1.07457)
(-1.42939e-22 1.46389 1.10592)
(8.59874e-23 1.49371 1.13946)
(1.79187e-21 1.52659 1.17519)
(6.92117e-21 1.56283 1.21287)
(1.3384e-20 1.6023 1.25215)
(-2.93509e-21 1.64451 1.29248)
(-1.22575e-19 1.68861 1.3332)
(-4.93356e-19 1.73354 1.37356)
(-1.16164e-18 1.77804 1.41304)
(-1.39279e-18 1.82072 1.45202)
(1.93329e-18 1.85993 1.49319)
(1.69467e-17 1.89356 1.54358)
(5.95561e-17 1.91892 1.61599)
(1.54168e-16 1.93303 1.72795)
(3.29766e-16 1.93373 1.89612)
(6.10839e-16 1.92131 2.12712)
(1.00671e-15 1.89968 2.40961)
(1.50519e-15 1.87549 2.71416)
(2.07386e-15 1.85536 3.00243)
(2.66687e-15 1.84302 3.23942)
(3.23311e-15 1.83751 3.40113)
(3.72269e-15 1.83232 3.47483)
(4.09155e-15 1.81614 3.45456)
(4.30709e-15 1.78228 3.34175)
(4.35983e-15 1.74393 3.16162)
(4.25539e-15 1.67125 2.9455)
(3.87049e-15 1.20217 2.46051)
(2.75358e-15 -0.276079 0.808795)
(1.91305e-15 -1.39752 0.160571)
(1.49455e-15 -1.89818 0.196695)
(9.54607e-16 -2.38752 -0.0214888)
(4.74957e-16 -2.86606 -0.176203)
(1.50113e-16 -3.29441 -0.281724)
(2.2547e-17 -3.70004 -0.328)
(-1.53669e-18 -4.08651 -0.341299)
(-1.15025e-18 -4.41919 -0.337087)
(-1.31128e-19 -4.68313 -0.330465)
(9.47852e-21 -4.84397 -0.317621)
(3.4294e-21 -4.89768 -0.314622)
(2.25066e-22 -4.85168 -0.30762)
(-3.27501e-23 -4.69227 -0.314196)
(-1.86376e-23 -4.45561 -0.309354)
(-3.38908e-23 -4.08379 -0.321219)
(4.53906e-23 -3.7281 -0.296869)
(-2.08994e-22 -3.17761 -0.316838)
(1.00866e-21 -3.021 -0.250147)
(-6.3701e-21 -2.26227 -0.31946)
(7.81801e-20 -2.79618 -0.197629)
(-9.92246e-19 -2.03169 -0.351511)
(6.41309e-18 -2.19443 -0.289826)
(7.4797e-18 -4.98898 -0.334745)
(1.53552e-36 0.491933 0.665412)
(3.62595e-37 0.574642 0.659419)
(-1.31282e-35 0.621879 0.663327)
(-5.16118e-35 0.671252 0.665826)
(-7.22764e-35 0.717599 0.672072)
(2.14048e-34 0.761626 0.678985)
(1.50069e-33 0.803904 0.687862)
(3.66376e-33 0.844427 0.69783)
(-3.76276e-34 0.883444 0.709169)
(-3.68626e-32 0.921019 0.721593)
(-1.43693e-31 0.957237 0.735121)
(-2.39096e-31 0.992148 0.749636)
(3.29491e-31 1.02579 0.765103)
(3.61456e-30 1.05819 0.781465)
(1.33335e-29 1.08939 0.798692)
(2.92189e-29 1.11944 0.816769)
(9.04048e-30 1.1484 0.835693)
(-3.01985e-28 1.17637 0.85548)
(-1.84012e-27 1.20347 0.87615)
(-6.22328e-27 1.22985 0.897722)
(-8.5241e-27 1.25565 0.920208)
(4.02139e-26 1.281 0.943609)
(3.19939e-25 1.30603 0.967921)
(1.07244e-24 1.33084 0.993151)
(1.21701e-24 1.35549 1.01935)
(-7.0612e-24 1.38014 1.04664)
(-4.66435e-23 1.40501 1.07528)
(-1.33776e-22 1.43057 1.10567)
(-1.0237e-22 1.45757 1.13823)
(9.12985e-22 1.48695 1.1732)
(4.97547e-21 1.51943 1.21051)
(1.29121e-20 1.55532 1.24987)
(1.08165e-20 1.59455 1.29083)
(-6.37424e-20 1.63665 1.33272)
(-3.56633e-19 1.68079 1.37476)
(-1.01262e-18 1.72587 1.41619)
(-1.66007e-18 1.77048 1.45684)
(1.32806e-20 1.81279 1.49849)
(1.08954e-17 1.85033 1.54704)
(4.56997e-17 1.87981 1.61464)
(1.28695e-16 1.89749 1.71975)
(2.9079e-16 1.90036 1.88249)
(5.60379e-16 1.88804 2.11492)
(9.50944e-16 1.86439 2.41075)
(1.45237e-15 1.83719 2.74222)
(2.03126e-15 1.8153 3.06824)
(2.63881e-15 1.80497 3.34869)
(3.22066e-15 1.80767 3.55529)
(3.7246e-15 1.81982 3.67395)
(4.10575e-15 1.83314 3.70055)
(4.33011e-15 1.8353 3.63447)
(4.37672e-15 1.81682 3.47788)
(4.23999e-15 1.78649 3.25282)
(3.93216e-15 1.73588 3.00767)
(3.45867e-15 1.38356 2.60789)
(2.71691e-15 -0.00940592 1.19249)
(1.9156e-15 -1.32851 -0.0233549)
(1.46525e-15 -1.88995 0.115856)
(9.59678e-16 -2.35558 -0.061166)
(4.80909e-16 -2.84424 -0.210288)
(1.53767e-16 -3.28307 -0.302167)
(2.33259e-17 -3.69799 -0.337688)
(-1.64285e-18 -4.08879 -0.338567)
(-1.2256e-18 -4.42285 -0.325112)
(-1.4041e-19 -4.68716 -0.312024)
(1.0511e-20 -4.84669 -0.294472)
(3.76883e-21 -4.89939 -0.290257)
(2.38594e-22 -4.85169 -0.28357)
(-3.71057e-23 -4.69164 -0.291981)
(-1.92572e-23 -4.45396 -0.290622)
(-3.38982e-23 -4.08374 -0.305793)
(4.52193e-23 -3.72693 -0.285835)
(-2.09159e-22 -3.18033 -0.308936)
(1.01488e-21 -3.01877 -0.245402)
(-6.5262e-21 -2.26485 -0.316158)
(8.0203e-20 -2.79114 -0.194747)
(-1.00766e-18 -2.01913 -0.34882)
(6.3146e-18 -2.1948 -0.283701)
(1.0209e-18 -4.97136 -0.329645)
(2.12944e-36 0.492698 0.687257)
(-2.63081e-36 0.574789 0.680966)
(-2.79644e-35 0.621261 0.684842)
(-7.36805e-35 0.67034 0.687275)
(6.09173e-36 0.716251 0.693601)
(7.70154e-34 0.759994 0.700624)
(2.87497e-33 0.80196 0.709676)
(3.17857e-33 0.842226 0.719854)
(-1.71356e-32 0.88099 0.731434)
(-1.01075e-31 0.918338 0.744123)
(-2.40496e-31 0.95434 0.757936)
(-1.47387e-32 0.989051 0.772752)
(2.1979e-30 1.0225 0.788533)
(9.6512e-30 1.05472 0.805224)
(2.34606e-29 1.08574 0.822797)
(2.03996e-29 1.11561 0.84124)
(-1.43833e-28 1.1444 0.860557)
(-1.05914e-27 1.17219 0.88077)
(-4.20857e-27 1.19911 0.901904)
(-9.16188e-27 1.22529 0.923985)
(8.88692e-27 1.2509 0.947026)
(1.74174e-25 1.27607 0.971025)
(7.73886e-25 1.30091 0.995974)
(1.59962e-24 1.32551 1.02188)
(-1.83302e-24 1.34996 1.04879)
(-2.75602e-23 1.37434 1.07685)
(-1.06146e-22 1.39888 1.10637)
(-1.79308e-22 1.42403 1.13779)
(3.14624e-22 1.45055 1.17159)
(3.18744e-21 1.47942 1.20804)
(1.08188e-20 1.51145 1.24701)
(1.72173e-20 1.54696 1.28813)
(-2.1392e-20 1.58593 1.33084)
(-2.34306e-19 1.62794 1.37434)
(-8.19664e-19 1.67214 1.41774)
(-1.69036e-18 1.71735 1.46044)
(-1.27352e-18 1.76181 1.50333)
(6.02726e-18 1.8029 1.55099)
(3.34416e-17 1.83691 1.61436)
(1.04584e-16 1.85923 1.71198)
(2.51828e-16 1.86555 1.86664)
(5.07558e-16 1.85421 2.09586)
(8.90246e-16 1.82831 2.39953)
(1.39295e-15 1.79614 2.75328)
(1.98183e-15 1.76858 3.11434)
(2.6048e-15 1.75474 3.43722)
(3.20363e-15 1.75867 3.68808)
(3.72315e-15 1.77884 3.84974)
(4.11652e-15 1.8094 3.91819)
(4.34869e-15 1.84109 3.89592)
(4.3993e-15 1.86137 3.78568)
(4.26351e-15 1.85886 3.58942)
(3.94717e-15 1.83746 3.3241)
(3.46251e-15 1.80141 3.04371)
(2.86622e-15 1.53959 2.69209)
(2.36019e-15 0.305631 1.53767)
(2.033e-15 -1.20714 -0.150636)
(1.4267e-15 -1.8893 -0.0201961)
(9.63056e-16 -2.32659 -0.110035)
(4.89391e-16 -2.82067 -0.253828)
(1.58695e-16 -3.27125 -0.331238)
(2.42873e-17 -3.69582 -0.352894)
(-1.7762e-18 -4.09109 -0.338332)
(-1.31011e-18 -4.42638 -0.312652)
(-1.49969e-19 -4.69096 -0.291084)