/*--------------------------------*- C++ -*----------------------------------*\
| =========                 |                                                 |
| \\      /  F ield         | OpenFOAM: The Open Source CFD Toolbox           |
|  \\    /   O peration     | Version:  4.1                                   |
|   \\  /    A nd           | Web:      www.OpenFOAM.org                      |
|    \\/     M anipulation  |                                                 |
\*---------------------------------------------------------------------------*/
FoamFile
{
    version     2.0;
    format      ascii;
    class       volScalarField;
    location    "21";
    object      p;
}
// * * * * * * * * * * * * * * * * * * * * * * * * * * * * * * * * * * * * * //

dimensions      [0 2 -2 0 0 0 0];

internalField   nonuniform List<scalar> 
6785
(
589.905
511.1
464.119
410.583
363.77
318.649
276.636
236.875
199.33
163.867
129.721
96.7477
69.5147
41.4946
0.570957
-26.1556
-44.7877
-35.0438
-42.7149
-42.4204
-45.2909
-46.3162
-47.2008
-47.1016
-46.0833
-44.0473
-41.2229
-36.9959
-32.4381
-30.1549
-21.4003
-26.3748
-17.9479
-23.2905
-20.3792
-22.4763
-22.642
-24.0779
-25.293
-26.922
-28.6071
-30.2146
-31.0245
-30.6975
-28.5565
-4.02312
-6.33237
-2.61647
-7.53335
-5.25376
-7.94391
-7.8774
-8.91591
-9.26356
-9.59052
-9.52387
-9.13682
-7.73808
-5.81669
-2.26392
12.9855
12.813
16.9607
15.1166
19.4626
19.4303
22.2091
23.8319
26.0555
28.2679
30.6311
32.9601
35.4509
37.4238
39.8153
36.7348
37.6636
40.7345
39.9462
43.3875
43.4066
45.7485
46.5353
47.6701
47.9353
47.8606
47.7366
48.0436
48.6143
49.3366
51.803
51.1379
52.7205
50.8533
52.4928
50.8238
51.216
49.8205
48.9456
47.5172
46.3142
45.2286
44.4374
44.3006
42.9752
37.5498
33.5916
34.0935
30.8532
30.9231
28.5425
28.0953
26.4297
25.5085
23.836
22.0815
20.2645
19.3157
18.2463
14.5415
-9.80345
-15.1251
-15.885
-20.0488
-21.7604
-25.7432
-28.4673
-32.2138
-35.0794
-37.8467
-39.671
-40.4824
-41.0211
-41.9375
-41.5724
-38.2836
-40.6839
-40.0081
-42.2234
-41.9841
-43.7873
-44.1247
-45.0571
-44.9457
-44.3645
-43.022
-41.3083
-39.1923
-37.5504
-34.7576
-15.884
-14.4674
-12.3538
-11.912
-9.70527
-8.80445
-6.99008
-5.59212
-3.95199
-2.38571
-0.760213
0.670587
2.40386
3.71032
6.4776
8.00863
10.101
11.6819
12.5182
14.261
15.165
16.5813
17.6612
18.841
19.9042
20.9827
21.9118
22.9631
23.6879
24.7545
28.1484
29.2506
29.7014
29.74
30.3087
30.2205
30.5204
30.6468
30.9266
31.2498
31.707
32.1541
32.8328
33.2916
34.2132
37.3238
39.5054
38.6673
38.1236
38.1883
38.34
38.9185
39.4464
40.1316
40.6952
41.1644
41.4241
41.6762
41.7505
41.9532
91.8041
88.7416
80.4515
71.8316
65.8466
60.1914
54.5006
49.946
45.9537
42.5285
39.724
37.5257
35.4117
33.8093
30.9471
40.3888
40.3864
44.0267
40.669
40.9485
41.8483
41.113
40.3492
40.3673
40.1483
40.068
39.0529
39.3399
39.1981
38.1047
38.0361
38.6427
38.5985
37.06
38.3422
38.1856
36.9451
36.937
38.2448
38.2213
37.031
37.0894
38.3111
38.6884
37.285
38.6757
39.089
38.1234
38.2372
39.2315
39.8191
38.8883
39.7857
40.4154
39.8327
39.9519
40.5757
41.0825
40.6657
40.7794
41.2594
41.5234
41.1648
41.6331
41.9817
41.7627
41.9083
42.1769
42.8155
42.7201
42.8003
42.945
43.7484
43.6875
43.6995
44.0268
43.9816
44.1492
44.0197
44.5665
45.1058
45.9489
44.6026
43.2793
45.426
47.4023
38.5452
35.1089
40.4029
45.298
16.5441
30.7365
37.8096
-14.2498
3.4694
12.8062
10.4995
15.266
4.87697
9.50779
13.63
13.3417
13.6972
13.9801
14.1731
13.4601
16.1772
18.1197
13.4378
15.7754
15.3611
15.8954
17.287
17.9797
18.1103
21.2779
29.2788
19.4629
21.3455
20.6573
21.5407
23.3346
24.3256
24.0273
23.1536
23.834
34.6927
25.2291
25.2573
23.9043
22.4021
22.6458
23.7814
22.0411
19.1481
24.9017
23.3508
24.6238
23.9928
22.0395
20.5352
18.6506
19.5237
16.7836
18.9982
27.3793
24.3202
24.9556
24.9012
23.0995
21.6413
20.0811
14.2669
19.7353
29.6176
24.6208
22.6473
19.2365
17.9211
16.1935
14.3562
13.3388
9.26547
2.01517
19.2654
14.5831
14.1457
12.5948
10.3945
4.14761
2.56811
4.80277
-11.6573
10.2629
5.15487
1.07159
11.1611
2.56443
7.22111
5.61831
8.49633
12.2699
7.05469
10.3974
12.6093
9.4446
11.025
10.2772
11.4073
13.1384
10.7256
11.7559
11.1032
11.8331
12.8135
10.8776
11.8029
12.261
11.0459
11.3872
10.9839
11.1702
11.475
10.5365
10.6966
10.3518
10.403
10.4787
9.72792
9.84527
9.7678
9.24491
9.20778
8.97374
8.89105
8.7898
8.37228
8.30121
8.10819
8.02884
7.89354
7.48919
7.46044
7.44729
6.97242
6.80695
6.74219
6.4437
6.37025
6.0768
5.88584
5.74509
5.53039
5.39285
5.16345
4.98149
4.84361
4.59196
4.38809
4.18768
4.00824
3.81265
3.60379
3.34353
3.12098
2.93645
2.71746
2.52015
2.17331
1.88812
1.67368
1.21112
0.848527
0.493231
0.109085
0.00237688
0.0050965
0.00683505
0.00897403
0.0105501
0.0123765
0.0138932
0.0155355
0.0171383
0.0189892
0.0210836
0.0234933
0.026178
0.029166
0.0324198
0.035932
0.0396351
0.043401
0.0470508
0.0504435
0.0536854
0.0573238
0.0622453
0.0690654
0.0773215
0.0852437
0.0904842
0.0911821
0.0865366
0.0768963
0.0635353
0.0482272
0.0326581
0.0178518
0.00399657
-0.00934354
-0.0228877
-0.0372803
-0.052589
-0.0687464
-0.0898684
-0.148629
-0.239436
-0.208965
-0.677379
-0.527697
-0.619873
-0.767028
-0.905694
-1.03952
-1.149
-1.20564
-1.20535
-1.16057
-1.06492
-0.92165
-0.742838
-0.533587
-0.291641
-0.0236065
0.241628
0.451967
0.605517
0.707336
0.764368
0.780462
0.763174
0.706528
0.628073
0.511572
0.397645
0.24267
0.137356
0.098377
0.162648
0.127827
0.210644
0.124147
0.354739
0.00586714
0.0126429
0.0171476
0.0228363
0.0267085
0.031386
0.0350813
0.0391449
0.0430537
0.047655
0.0529145
0.0590176
0.0658271
0.0734081
0.0816472
0.0905438
0.0999626
0.109604
0.118858
0.126612
0.131197
0.130621
0.123302
0.109077
0.0898426
0.0692016
0.0511855
0.0386399
0.0321249
0.0302675
0.0308203
0.0315873
0.030878
0.0274333
0.0202892
0.00863906
-0.00825849
-0.0311872
-0.0614429
-0.101877
-0.152359
-0.247845
-0.427711
-0.186535
-0.976775
-0.761147
-0.940918
-1.19079
-1.42599
-1.6449
-1.81394
-1.88383
-1.84766
-1.72034
-1.4971
-1.19656
-0.83984
-0.446084
-0.0306563
0.377457
0.746011
1.04082
1.26414
1.4176
1.50722
1.53096
1.49584
1.39067
1.23865
1.01692
0.795503
0.508927
0.342156
0.298488
0.407714
0.371503
0.542323
0.384783
1.38286
0.00932365
0.021168
0.0290661
0.0388961
0.0457083
0.0538377
0.0603303
0.0674258
0.0742661
0.0822734
0.0914011
0.101961
0.11373
0.12682
0.141045
0.156402
0.172666
0.189362
0.205589
0.219828
0.230003
0.233903
0.230074
0.218733
0.202025
0.183215
0.16531
0.1498
0.13615
0.122838
0.108556
0.0926133
0.0746632
0.0540445
0.0295715
-0.000355977
-0.0375241
-0.0837089
-0.140664
-0.211424
-0.298797
-0.460092
-0.73125
-0.105504
-1.07376
-0.823183
-1.04069
-1.34311
-1.62472
-1.88389
-2.083
-2.16009
-2.10859
-1.94551
-1.66671
-1.2967
-0.860929
-0.38533
0.108055
0.581231
0.999988
1.33471
1.59007
1.76731
1.87242
1.90075
1.85883
1.73155
1.54768
1.2771
1.01253
0.674031
0.509238
0.497277
0.695358
0.625324
0.914161
0.657815
1.74068
0.0122604
0.0288417
0.0398039
0.0535746
0.063041
0.0743758
0.0833882
0.0932299
0.102699
0.113796
0.12646
0.141111
0.157437
0.175585
0.195297
0.216577
0.239113
0.262232
0.28462
0.304025
0.31734
0.321245
0.313496
0.294288
0.266727
0.235806
0.206425
0.181525
0.161195
0.143863
0.127652
0.110862
0.0918837
0.0687929
0.0393584
0.00118651
-0.0481304
-0.110932
-0.189543
-0.287721
-0.407989
-0.603092
-0.909687
-0.0971731
-1.37313
-1.01029
-1.23756
-1.6154
-1.96397
-2.28188
-2.52749
-2.6208
-2.55522
-2.35203
-2.00709
-1.55044
-1.01376
-0.429838
0.174035
0.751597
1.26186
1.66978
1.98127
2.19822
2.32798
2.36439
2.31492
2.15986
1.93598
1.6041
1.28351
0.878794
0.692963
0.700125
0.957415
0.87773
1.25531
0.937098
2.0325
0.0149068
0.0365561
0.0505977
0.0684755
0.080701
0.0953706
0.107011
0.119698
0.131887
0.146172
0.162489
0.181356
0.202373
0.225725
0.251083
0.278456
0.307416
0.337028
0.365447
0.389622
0.405593
0.409539
0.399445
0.376506
0.345081
0.310857
0.278503
0.250155
0.225088
0.20148
0.177742
0.152572
0.124531
0.0914596
0.0505612
-0.0013247
-0.0674416
-0.150898
-0.254421
-0.381808
-0.536027
-0.761425
-1.09275
-0.237592
-1.68695
-1.21603
-1.43738
-1.90014
-2.32303
-2.70507
-3.0016
-3.11149
-3.02923
-2.78002
-2.36022
-1.80663
-1.15794
-0.45471
0.268791
0.956174
1.55975
2.04284
2.4127
2.6714
2.82745
2.87251
2.81485
2.62987
2.36196
1.96348
1.57988
1.10289
0.884574
0.903943
1.22447
1.13402
1.59852
1.23011
2.36664
0.0171786
0.0439816
0.0608976
0.0828953
0.0977912
0.115757
0.12995
0.145396
0.160205
0.177582
0.197465
0.220451
0.246055
0.274489
0.305352
0.338649
0.373787
0.409456
0.443127
0.470834
0.48782
0.490002
0.475882
0.447737
0.410897
0.371383
0.333723
0.299902
0.269233
0.240213
0.211532
0.181762
0.148871
0.109798
0.0607974
-0.00216363
-0.0830737
-0.185635
-0.312884
-0.468563
-0.654153
-0.895478
-1.24651
-0.561315
-1.96041
-1.42148
-1.61466
-2.16357
-2.65953
-3.1026
-3.44825
-3.57188
-3.4717
-3.17667
-2.68405
-2.03701
-1.28131
-0.464849
0.371456
1.1616
1.8517
2.4047
2.82892
3.12668
3.30768
3.36128
3.2965
3.08363
2.77452
2.31326
1.8703
1.3272
1.07829
1.11014
1.48532
1.39273
1.93181
1.53422
2.71485
0.0191305
0.0513404
0.0709665
0.0971796
0.114728
0.136027
0.152772
0.170965
0.188363
0.208813
0.232264
0.259371
0.289565
0.323077
0.359426
0.398579
0.439678
0.480878
0.518818
0.548669
0.565226
0.564776
0.547023
0.515574
0.476353
0.43498
0.395121
0.358096
0.322971
0.288548
0.253987
0.218054
0.17846
0.131516
0.072677
-0.0029096
-0.0999698
-0.222753
-0.3745
-0.558659
-0.774206
-1.02667
-1.40881
-1.06646
-2.15298
-1.64594
-1.78936
-2.43102
-3.0039
-3.50887
-3.90587
-4.04276
-3.92379
-3.58199
-3.01591
-2.27476
-1.41184
-0.482017
0.467497
1.36166
2.13994
2.76452
3.24425
3.58188
3.78863
3.8516
3.78071
3.54094
3.19164
2.66865
2.16682
1.55976
1.27808
1.31909
1.74613
1.65491
2.26195
1.84945
3.0057
0.0207434
0.0585924
0.0806936
0.111194
0.131328
0.155966
0.17522
0.196102
0.216013
0.239472
0.266451
0.297635
0.332376
0.370903
0.41263
0.45741
0.503965
0.549739
0.59049
0.620747
0.635374
0.631687
0.610873
0.577448
0.537141
0.494599
0.452537
0.411903
0.371943
0.332125
0.292226
0.251112
0.206004
0.152329
0.0845774
-0.00297024
-0.115697
-0.258219
-0.433849
-0.645594
-0.888771
-1.15001
-1.57299
-1.66051
-2.16059
-1.87776
-1.95991
-2.70301
-3.35866
-3.92681
-4.3783
-4.52831
-4.38931
-3.99875
-3.35703
-2.5192
-1.5468
-0.501468
0.563248
1.56339
2.43135
3.12911
3.66563
4.04415
4.27764
4.3509
4.27481
4.00874
3.61944
3.03471
2.47304
1.80264
1.48492
1.53139
2.00555
1.92046
2.58816
2.17782
3.319
0.0220277
0.0658147
0.0901381
0.125021
0.147683
0.175682
0.197412
0.220935
0.243285
0.269701
0.300185
0.335424
0.374687
0.41817
0.465125
0.515155
0.566362
0.615362
0.657157
0.686073
0.697776
0.691213
0.668946
0.635714
0.596395
0.554332
0.511224
0.467712
0.423296
0.378219
0.332952
0.286516
0.235655
0.174914
0.0978409
-0.00209866
-0.130828
-0.29315
-0.492309
-0.730771
-0.999874
-1.2722
-1.7315
-2.18441
-1.96442
-2.11992
-2.12668
-2.97607
-3.72135
-4.35261
-4.86068
-5.02309
-4.86236
-4.42088
-3.70153
-2.76494
-1.68164
-0.519727
0.660877
1.76739
2.72529
3.49629
4.08989
4.50964
4.77049
4.85484
4.77459
4.48317
4.05449
3.40855
2.78662
2.05447
1.6988
1.74768
2.26504
2.18957
2.9122
2.51769
3.6731
0.0229717
0.0730259
0.0992787
0.138645
0.163758
0.195134
0.219297
0.245395
0.270093
0.299395
0.333357
0.372617
0.41636
0.464684
0.516566
0.571165
0.625786
0.676251
0.717127
0.74322
0.751794
0.743579
0.72185
0.690745
0.653819
0.612996
0.569073
0.522598
0.473552
0.42317
0.372734
0.321395
0.265284
0.197921
0.111827
-0.000314426
-0.144812
-0.326418
-0.548165
-0.811959
-1.10546
-1.39231
-1.86769
-2.51145
-1.75157
-2.39669
-2.30082
-3.25104
-4.09528
-4.78966
-5.3559
-5.52974
-5.34541
-4.85056
-4.0513
-3.01354
-1.81771
-0.537941
0.759434
1.97283
3.02142
3.86559
4.51671
4.9781
5.26704
5.36341
5.28016
4.96445
4.49708
3.79047
3.10774
2.31549
1.92024
1.96844
2.52467
2.46218
3.23414
2.86672
4.01741
0.023567
0.08027
0.108129
0.152093
0.179575
0.214351
0.240902
0.269503
0.296446
0.328564
0.365978
0.409226
0.457384
0.510338
0.566611
0.624706
0.681084
0.730985
0.7691
0.791623
0.797911
0.789996
0.770962
0.743759
0.710469
0.671638
0.627283
0.577992
0.524343
0.468703
0.413243
0.357228
0.296077
0.222183
0.127031
0.00261619
-0.157551
-0.357949
-0.60128
-0.88896
-1.20593
-1.51179
-1.98878
-2.68757
-1.77346
-2.65665
-2.4896
-3.5271
-4.48286
-5.24175
-5.86721
-6.05106
-5.84096
-5.28996
-4.40803
-3.26612
-1.95562
-0.556226
0.859214
2.18032
3.32048
4.23788
4.94695
5.45042
5.76827
5.87768
5.79271
5.45384
4.94835
4.18138
3.437
2.58598
2.14945
2.19385
2.78484
2.73826
3.55472
3.22347
4.38489
0.0237956
0.0875783
0.116684
0.165369
0.195131
0.233328
0.262219
0.293239
0.322308
0.357161
0.398003
0.445185
0.497629
0.55481
0.614577
0.67466
0.730797
0.778054
0.812122
0.831402
0.837142
0.831731
0.817304
0.795361
0.766544
0.730109
0.685409
0.633194
0.574769
0.513822
0.453516
0.393191
0.327397
0.247252
0.143173
0.00659383
-0.168939
-0.387429
-0.651181
-0.961251
-1.30115
-1.63082
-2.10997
-2.82115
-2.14068
-2.71543
-2.6876
-3.80241
-4.88496
-5.71198
-6.39733
-6.58878
-6.35015
-5.7399
-4.77213
-3.52265
-2.09504
-0.574014
0.960915
2.39056
3.6231
4.61383
5.38069
5.92668
6.27424
6.39776
6.31243
5.9516
5.40859
4.58145
3.77433
2.86573
2.38631
2.42395
3.04561
3.01763
3.87386
3.58493
4.75619
0.0236347
0.0949886
0.124945
0.178487
0.210434
0.252079
0.283257
0.316602
0.347665
0.385165
0.429402
0.480427
0.536891
0.597587
0.659527
0.719724
0.773457
0.816338
0.846117
0.863582
0.870975
0.870128
0.861838
0.84616
0.822428
0.78869
0.743706
0.688466
0.625107
0.558825
0.493873
0.429611
0.35952
0.273294
0.1603
0.0115861
-0.17903
-0.414948
-0.698071
-1.02925
-1.39187
-1.74946
-2.23904
-2.94441
-2.62228
-2.48038
-2.92035
-4.08324
-5.30243
-6.20371
-6.94982
-7.14539
-6.87446
-6.2015
-5.14437
-3.78343
-2.23598
-0.591025
1.06497
2.60403
3.92978
4.994
5.81816
6.40684
6.78489
6.92364
6.83942
6.45798
5.87803
4.99079
4.11962
3.15441
2.63049
2.65863
3.30697
3.30008
4.19184
3.94733
5.06406
0.0230536
0.102538
0.132906
0.191455
0.225484
0.270606
0.30402
0.339585
0.37249
0.412536
0.460114
0.514796
0.574767
0.637863
0.700275
0.758471
0.80776
0.845439
0.871934
0.889693
0.900892
0.906269
0.905223
0.896501
0.878272
0.847396
0.802079
0.743599
0.675049
0.603363
0.533997
0.466232
0.39222
0.300058
0.178119
0.017302
-0.188092
-0.440806
-0.742422
-1.09372
-1.47898
-1.86712
-2.37486
-3.05548
-2.94887
-2.23221
-3.2395
-4.38718
-5.73547
-6.7199
-7.52864
-7.72412
-7.4158
-6.6761
-5.52569
-4.04892
-2.37852
-0.607034
1.17182
2.82125
4.24102
5.3791
6.25996
6.89083
7.3003
7.45545
7.37391
6.97329
6.35697
5.40953
4.47271
3.45164
2.88159
2.89767
3.56877
3.58536
4.50923
4.30717
5.39399
0.0220142
0.110266
0.140564
0.204281
0.240286
0.288919
0.324517
0.362183
0.396756
0.439225
0.490037
0.548
0.610603
0.674592
0.73551
0.789532
0.833009
0.865981
0.891137
0.911401
0.928174
0.940983
0.947946
0.946663
0.934251
0.906346
0.860595
0.798604
0.724561
0.64741
0.573927
0.503133
0.425512
0.3274
0.196324
0.0233324
-0.196584
-0.465564
-0.785039
-1.15587
-1.56387
-1.98398
-2.51529
-3.17193
-3.17342
-2.33331
-3.51572
-4.72367
-6.18262
-7.26257
-8.13771
-8.32887
-7.97644
-7.16506
-5.917
-4.31952
-2.52271
-0.621736
1.28199
3.04284
4.55739
5.76968
6.70683
7.37908
7.82038
7.99318
7.91601
7.49779
6.84565
5.83772
4.83339
3.75691
3.13903
3.1408
3.83075
3.87314
4.82631
4.66422
5.71563
0.0204683
0.118217
0.147909
0.216971
0.254842
0.307025
0.344757
0.38439
0.420428
0.465152
0.518961
0.57952
0.643484
0.706591
0.763878
0.811922
0.8495
0.879464
0.905522
0.930149
0.953776
0.974836
0.990328
0.996842
0.990505
0.965626
0.919272
0.853403
0.773494
0.690835
0.613617
0.540304
0.459261
0.354951
0.214344
0.0290381
-0.205141
-0.489903
-0.826796
-1.21696
-1.64809
-2.101
-2.65985
-3.31056
-3.41912
-2.84465
-3.50931
-5.10413
-6.64446
-7.83346
-8.78035
-8.96366
-8.55917
-7.66996
-6.31919
-4.59563
-2.66857
-0.634808
1.39599
3.26942
4.87948
6.16616
7.15951
7.87219
8.34505
8.53681
8.46578
8.03165
7.34425
6.27533
5.20129
4.06958
3.40217
3.38762
4.09257
4.16307
5.1435
5.01868
6.09581
0.0183571
0.126439
0.154931
0.229528
0.269155
0.324933
0.364753
0.406198
0.443451
0.490165
0.546495
0.608572
0.672356
0.732607
0.784191
0.82554
0.858569
0.887783
0.916698
0.947027
0.978353
1.00821
1.03261
1.04723
1.04721
1.02539
0.978196
0.90799
0.821792
0.733649
0.653201
0.577857
0.493312
0.382185
0.23144
0.0336773
-0.214427
-0.514474
-0.868474
-1.27806
-1.73306
-2.21957
-2.80855
-3.47106
-3.68436
-3.37536
-3.27191
-5.58219
-7.13301
-8.43375
-9.45934
-9.63249
-9.16722
-8.19276
-6.73327
-4.87771
-2.81617
-0.645928
1.5144
3.50165
5.2079
6.56901
7.61825
8.37075
8.8747
9.08615
9.02318
8.57503
7.85288
6.72226
5.57599
4.38889
3.67026
3.63767
4.35379
4.45465
5.46012
5.37045
6.4774
0.015609
0.134986
0.161619
0.241954
0.283227
0.34265
0.384518
0.42759
0.465724
0.513976
0.571994
0.634207
0.696114
0.751369
0.795912
0.831433
0.862153
0.892703
0.925884
0.962767
1.00233
1.04138
1.07502
1.09804
1.1046
1.08581
1.03748
0.962367
0.869423
0.775936
0.692903
0.615879
0.527278
0.408287
0.246709
0.0365214
-0.224988
-0.539755
-0.910598
-1.33992
-1.81984
-2.34106
-2.96252
-3.64849
-3.95567
-3.75168
-3.17729
-6.18912
-7.67136
-9.06516
-10.1773
-10.3394
-9.80427
-8.73591
-7.16039
-5.1662
-2.96557
-0.65476
1.6378
3.74024
5.5433
6.97871
8.08327
8.87522
9.40964
9.64092
9.58811
9.128
8.37163
7.17833
5.95694
4.71391
3.94244
3.89034
4.61394
4.74731
5.77602
5.71858
6.78213
0.0121372
0.143921
0.167958
0.254247
0.297059
0.360185
0.404062
0.448521
0.487051
0.536069
0.594605
0.655467
0.713553
0.761938
0.799655
0.83149
0.862168
0.895579
0.933894
0.977832
1.026
1.07458
1.11779
1.14953
1.16295
1.14717
1.09729
1.01659
0.916433
0.817938
0.733087
0.654351
0.560446
0.432217
0.259307
0.037066
-0.237106
-0.565943
-0.953374
-1.40285
-1.909
-2.46658
-3.12384
-3.84241
-4.24365
-4.14142
-3.55662
-6.82233
-8.27294
-9.72751
-10.9338
-11.0862
-10.4737
-9.30246
-7.60198
-5.4616
-3.11684
-0.660951
1.76681
3.98592
5.88636
7.39576
8.55482
9.3856
9.95027
10.2016
10.1604
9.69062
8.9005
7.64328
6.34349
5.04358
4.2178
4.14495
4.8725
5.04038
6.09218
6.05861
7.12392
0.00783721
0.153314
0.173931
0.266401
0.310651
0.377543
0.423382
0.468889
0.507056
0.555684
0.61348
0.671339
0.723468
0.764359
0.797136
0.827768
0.860115
0.897309
0.941225
0.992517
1.04958
1.10806
1.1612
1.20203
1.22264
1.20977
1.15784
1.07073
0.962955
0.860075
0.774158
0.692882
0.591678
0.452906
0.268678
0.0351756
-0.25071
-0.592897
-0.996666
-1.4668
-2.00068
-2.59678
-3.29431
-4.05445
-4.55743
-4.63837
-4.45458
-7.3264
-8.94319
-10.4253
-11.735
-11.8756
-11.1778
-9.89563
-8.05995
-5.76449
-3.27007
-0.664138
1.90208
4.23949
6.23782
7.82068
9.03315
9.90186
10.497
10.7683
10.7398
10.2629
9.43944
8.11676
6.73488
5.37671
4.49535
4.40074
5.12889
5.33312
6.40814
6.39385
7.56378
0.00258313
0.163247
0.17952
0.278405
0.323999
0.394717
0.442438
0.488457
0.525105
0.572004
0.627852
0.680586
0.725275
0.759987
0.790518
0.821939
0.85699
0.898432
0.948179
1.00705
1.07333
1.14211
1.20561
1.25595
1.28411
1.27404
1.21942
1.12491
1.00923
0.902975
0.816323
0.730461
0.619589
0.469604
0.274757
0.0311606
-0.265343
-0.62012
-1.04001
-1.53142
-2.09471
-2.73184
-3.47487
-4.28567
-4.8995
-5.22536
-5.58585
-7.5748
-9.69619
-11.1701
-12.5913
-12.7167
-11.9194
-10.5184
-8.53665
-6.07569
-3.42533
-0.663945
2.04429
4.50178
6.59842
8.25399
9.51846
10.4239
11.0495
11.341
11.3259
10.8447
9.98836
8.59835
7.13022
5.71193
4.77407
4.65686
5.38252
5.62469
6.72327
6.72131
7.8575
-0.00377609
0.173814
0.184704
0.290242
0.337093
0.411676
0.461103
0.506749
0.540395
0.584399
0.636736
0.682079
0.719727
0.750999
0.78168
0.815114
0.853379
0.899259
0.954971
1.02164
1.09752
1.1771
1.25146
1.31182
1.34795
1.34046
1.28229
1.17919
1.05566
0.947387
0.859129
0.765398
0.64299
0.482177
0.278039
0.0257621
-0.280186
-0.646802
-1.08268
-1.59615
-2.19069
-2.87163
-3.66565
-4.53621
-5.26948
-5.85268
-6.63296
-7.61806
-10.5752
-11.9746
-13.5052
-13.6163
-12.7034
-11.1741
-9.03456
-6.39644
-3.58278
-0.659975
2.19417
4.7737
6.96899
8.69625
10.0109
10.9517
11.6076
11.92
11.9193
11.436
10.5471
9.08755
7.52849
6.04772
5.05286
4.91242
5.63279
5.9142
7.03816
7.0467
8.20959
-0.0114221
0.185125
0.189462
0.301881
0.349902
0.42833
0.479057
0.523018
0.552307
0.592279
0.638778
0.675715
0.708822
0.739509
0.771892
0.807939
0.849609
0.9
0.961811
1.03658
1.12252
1.21349
1.29931
1.37025
1.41483
1.40958
1.34666
1.23357
1.10291
0.993786
0.900992
0.795786
0.66142
0.491213
0.279509
0.0200843
-0.294127
-0.671897
-1.12376
-1.66023
-2.28804
-3.01572
-3.86612
-4.8053
-5.66523
-6.48318
-7.44219
-7.71089
-11.6405
-12.8543
-14.476
-14.5777
-13.5339
-11.8656
-9.55645
-6.72831
-3.74274
-0.651823
2.35248
5.0562
7.35039
9.14802
10.5107
11.4849
12.1708
12.5054
12.5201
12.0367
11.1154
9.58379
7.92854
6.38242
5.33056
5.16647
5.87911
6.20067
7.35311
7.37257
8.60438
-0.0205744
0.197307
0.193766
0.313274
0.362359
0.444456
0.495672
0.536499
0.560559
0.594537
0.6331
0.662987
0.694906
0.727016
0.761884
0.800761
0.845885
0.90085
0.968948
1.05218
1.14876
1.25185
1.34981
1.432
1.48554
1.48194
1.4125
1.28799
1.15193
1.04155
0.939257
0.820351
0.675397
0.497905
0.28052
0.0154888
-0.305877
-0.694252
-1.1623
-1.72291
-2.38608
-3.1634
-4.07528
-5.09146
-6.08453
-7.11204
-8.12974
-8.09576
-12.8714
-13.8272
-15.5015
-15.6036
-14.4133
-12.596
-10.1047
-7.07293
-3.9058
-0.639104
2.52006
5.35032
7.74355
9.6099
11.018
12.0235
12.7389
13.0967
13.1277
12.6465
11.6931
10.0864
8.3291
6.71418
5.60594
5.41804
6.12089
6.4831
7.66755
7.6965
9.00642
-0.0315008
0.210508
0.197584
0.324343
0.374315
0.459568
0.510056
0.546773
0.564462
0.58933
0.620038
0.646337
0.679808
0.714355
0.752031
0.793781
0.84239
0.902042
0.976693
1.06887
1.17679
1.29283
1.40374
1.49796
1.56096
1.5579
1.47927
1.34258
1.20339
1.08813
0.971215
0.839155
0.686283
0.503838
0.282646
0.0134589
-0.314107
-0.712753
-1.19739
-1.78343
-2.48409
-3.31385
-4.29185
-5.39272
-6.52495
-7.74584
-8.83278
-8.95838
-14.1712
-14.9118
-16.5792
-16.6958
-15.3426
-13.3681
-10.6808
-7.43235
-4.07283
-0.621492
2.69776
5.65717
8.14948
10.0825
11.5328
12.567
13.3113
13.6935
13.7417
13.2654
12.2798
10.5946
8.72871
7.04099
5.87761
5.66608
6.35757
6.76053
7.9815
8.02272
9.40385
-0.0445351
0.224898
0.200866
0.334958
0.385447
0.47283
0.521473
0.553652
0.562888
0.576942
0.601992
0.627766
0.664556
0.701962
0.742528
0.787163
0.839342
0.903866
0.985423
1.08713
1.20722
1.33724
1.46204
1.56916
1.64195
1.63727
1.54587
1.39797
1.25644
1.12941
0.995588
0.853621
0.695918
0.510776
0.287518
0.0154381
-0.317619
-0.726468
-1.22834
-1.8412
-2.58137
-3.46616
-4.51444
-5.70684
-6.9829
-8.38636
-9.59637
-10.2966
-15.4742
-16.1163
-17.7092
-17.8542
-16.3229
-14.1833
-11.2861
-7.80806
-4.24467
-0.598748
2.88652
5.97799
8.56925
10.5665
12.0552
13.1151
13.8874
14.2955
14.3627
13.8942
12.875
11.1077
9.12577
7.36065
6.14408
5.90955
6.5886
7.03201
8.29447
8.35297
9.88241
-0.0601052
0.240666
0.20354
0.344884
0.395123
0.483276
0.529811
0.556699
0.553409
0.55559
0.581252
0.60904
0.649556
0.689987
0.73352
0.781107
0.837013
0.906673
0.99558
1.10753
1.2408
1.38598
1.52576
1.64668
1.72905
1.71877
1.61108
1.45493
1.30731
1.16157
1.01333
0.865965
0.706282
0.52047
0.296653
0.0226598
-0.315491
-0.734757
-1.25468
-1.89575
-2.67732
-3.61946
-4.74171
-6.0315
-7.45416
-9.03283
-10.4377
-12.0276
-16.6863
-17.4302
-18.8939
-19.078
-17.3552
-15.0421
-11.9219
-8.20019
-4.42207
-0.57072
3.08735
6.31411
9.00407
11.0626
12.5852
13.6673
14.4665
14.902
14.9903
14.5334
13.4783
11.6246
9.5185
7.6708
6.40364
6.14734
6.81345
7.29662
8.6051
8.68233
10.3702
-0.0787775
0.258021
0.20548
0.353687
0.402427
0.490288
0.534409
0.552735
0.532318
0.53071
0.558149
0.590334
0.635061
0.678566
0.725175
0.775867
0.83573
0.910859
1.00766
1.1307
1.27836
1.44011
1.59606
1.73159
1.82196
1.79978
1.67453
1.51242
1.34996
1.18356
1.02712
0.87854
0.719254
0.534485
0.311281
0.0359948
-0.307188
-0.737322
-1.27619
-1.94678
-2.77138
-3.77292
-4.97237
-6.36432
-7.93418
-9.68247
-11.3487
-13.9683
-17.6665
-18.8155
-20.1371
-20.3676
-18.44
-15.9449
-12.5886
-8.60871
-4.60566
-0.537241
3.30134
6.66701
9.45524
11.5716
13.1228
14.2231
15.0479
15.5125
15.6241
15.183
14.0893
12.1444
9.90489
7.96885
6.65442
6.37838
7.03164
7.5536
8.91255
9.01672
10.8228
-0.101317
0.277169
0.206457
0.360657
0.406519
0.493635
0.534263
0.539036
0.505187
0.506624
0.534007
0.572337
0.621119
0.667876
0.717747
0.771748
0.835849
0.916856
1.02221
1.15736
1.32082
1.50076
1.67415
1.82456
1.9187
1.87694
1.73677
1.56552
1.37938
1.1978
1.04013
0.893441
0.736437
0.55402
0.332197
0.0558556
-0.292585
-0.734163
-1.29282
-1.99402
-2.86305
-3.92574
-5.20513
-6.70284
-8.41828
-10.3307
-12.295
-15.8396
-18.286
-20.2198
-21.4446
-21.7247
-19.578
-16.8923
-13.2861
-9.03375
-4.79539
-0.497972
3.52967
7.03838
9.92422
12.0942
13.668
14.7818
15.6307
16.1262
16.2634
15.843
14.7071
12.6657
10.2828
8.25206
6.89435
6.6016
7.24274
7.80226
9.21546
9.34829
11.378
-0.128751
0.298258
0.206065
0.364986
0.407322
0.493762
0.528267
0.514721
0.4787
0.482726
0.509609
0.555156
0.607861
0.658166
0.711505
0.769069
0.837744
0.925111
1.03979
1.18826
1.36918
1.56915
1.76113
1.9252
2.01495
1.94807
1.79704
1.60626
1.39513
1.20874
1.05504
0.912339
0.758992
0.579782
0.359682
0.082196
-0.27189
-0.725467
-1.30459
-2.03725
-2.95178
-4.0771
-5.43866
-7.04441
-8.90171
-10.9719
-13.227
-17.3499
-18.5575
-21.629
-22.8271
-23.1519
-20.7703
-17.8848
-14.0137
-9.47522
-4.99053
-0.452231
3.77369
7.43013
10.4127
12.6314
14.2206
15.3426
16.2138
16.7424
16.9075
16.5135
15.3307
13.1872
10.6496
8.51742
7.12124
6.81603
7.44644
8.04208
9.51198
9.68413
11.8565
-0.162371
0.321245
0.203752
0.366413
0.406307
0.493455
0.511689
0.488715
0.452511
0.458612
0.485315
0.538818
0.595481
0.649694
0.70673
0.768151
0.841778
0.936067
1.06096
1.22415
1.42444
1.64646
1.85767
2.03101
2.10476
2.01338
1.8499
1.62849
1.40187
1.22061
1.07374
0.936366
0.787525
0.61192
0.39353
0.114619
-0.245493
-0.711456
-1.31145
-2.0761
-3.03695
-4.22606
-5.67142
-7.38597
-9.37935
-11.5994
-14.1011
-18.3511
-18.725
-23.1111
-24.3053
-24.6515
-22.0185
-18.9227
-14.7709
-9.93263
-5.19008
-0.399001
4.03491
7.84444
10.9225
13.1843
14.7804
15.9048
16.7962
17.3602
17.5556
17.1948
15.9589
13.7068
11.0026
8.76167
7.33274
7.02082
7.64249
8.27254
9.80091
10.0228
12.3825
-0.203585
0.345685
0.19916
0.365621
0.405039
0.488898
0.489658
0.464293
0.425656
0.435284
0.461598
0.523694
0.58425
0.642714
0.703684
0.769286
0.848285
0.950127
1.08626
1.26576
1.48761
1.73375
1.96335
2.13624
2.18357
2.07308
1.88583
1.63282
1.4064
1.23616
1.09735
0.966015
0.822048
0.650079
0.433183
0.152571
-0.213777
-0.692234
-1.31319
-2.11009
-3.11779
-4.37152
-5.90157
-7.72392
-9.84558
-12.2066
-14.903
-18.9847
-19.0931
-24.7263
-25.911
-26.2239
-23.3237
-20.0069
-15.557
-10.4051
-5.39303
-0.337071
4.31506
8.28378
11.456
13.7539
15.3473
16.4673
17.3767
17.9789
18.2069
17.8875
16.5913
14.2225
11.3385
8.98121
7.52644
7.21528
7.83077
8.49314
10.0798
10.3505
12.8862
-0.253406
0.370588
0.192744
0.364713
0.404451
0.474975
0.469788
0.439544
0.398795
0.412698
0.438805
0.509911
0.574372
0.637475
0.702606
0.772728
0.857541
0.967621
1.11612
1.31372
1.55956
1.83168
2.07541
2.23255
2.25117
2.12242
1.89762
1.62679
1.41405
1.25663
1.12623
1.00115
0.862076
0.69358
0.47797
0.195557
-0.176949
-0.667682
-1.30939
-2.13853
-3.19337
-4.51216
-6.12687
-8.054
-10.2942
-12.7876
-15.6427
-19.5169
-19.9519
-26.3683
-27.6791
-27.8695
-24.6853
-21.1382
-16.3709
-10.8916
-5.59832
-0.265121
4.61609
8.75093
12.0158
14.3418
15.9209
17.029
17.9537
18.5973
18.8606
18.5926
17.2271
14.7314
11.6536
9.17196
7.69989
7.39901
8.01133
8.70342
10.347
10.6802
13.3099
-0.311432
0.394573
0.18595
0.366743
0.398841
0.45922
0.451454
0.414425
0.372653
0.390836
0.417746
0.497816
0.566136
0.634186
0.703687
0.778668
0.869739
0.988772
1.15086
1.36855
1.64102
1.94001
2.18737
2.31274
2.30972
2.15091
1.88693
1.61991
1.42721
1.28221
1.1601
1.04117
0.906844
0.74168
0.527334
0.243316
-0.134936
-0.63742
-1.29942
-2.16056
-3.26258
-4.64641
-6.34463
-8.37123
-10.7191
-13.3373
-16.3326
-20.0956
-21.4612
-27.9089
-29.6338
-29.5919
-26.1014
-22.3176
-17.2119
-11.391
-5.80466
-0.181683
4.94014
9.24896
12.605
14.9495
16.5011
17.5888
18.526
19.2145
19.5159
19.3105
17.8646
15.2301
11.9433
9.32909
7.85059
7.57197
8.1845
8.9028
10.6002
11.0066
13.7696
-0.374474
0.416161
0.18033
0.371485
0.386934
0.446579
0.43299
0.389879
0.347461
0.369175
0.398922
0.487509
0.559774
0.633036
0.707086
0.787232
0.884978
1.01368
1.19064
1.43059
1.73244
2.05644
2.28902
2.37596
2.3567
2.14969
1.86428
1.61843
1.44599
1.31239
1.1982
1.08524
0.955595
0.79382
0.581014
0.295918
-0.0873631
-0.600815
-1.28243
-2.17516
-3.32415
-4.77248
-6.55166
-8.67019
-11.1151
-13.8527
-16.9846
-20.7835
-23.4883
-29.1373
-31.7698
-31.3985
-27.5695
-23.5452
-18.0789
-11.9022
-6.01051
-0.0850199
5.28952
9.78124
13.2274
15.5791
17.0873
18.1452
19.0917
19.8295
20.1716
20.0415
18.5012
15.714
12.2021
9.44694
7.97603
7.73477
8.35124
9.09089
10.8357
11.313
14.1805
-0.435666
0.434048
0.17771
0.372787
0.376187
0.435248
0.414875
0.366427
0.323728
0.346891
0.383203
0.479236
0.555578
0.634191
0.712923
0.798483
0.903262
1.04232
1.23548
1.50003
1.83368
2.17499
2.37044
2.42735
2.38139
2.12025
1.84198
1.62386
1.46948
1.34625
1.23968
1.13263
1.00781
0.849782
0.639113
0.353765
-0.0335802
-0.557025
-1.25743
-2.1812
-3.3767
-4.88838
-6.74424
-8.94569
-11.4794
-14.334
-17.6101
-21.5713
-25.6214
-29.8193
-34.0775
-33.3026
-29.0882
-24.8205
-18.971
-12.4242
-6.21427
0.02695
5.66672
10.3514
13.887
16.2333
17.6795
18.6966
19.6491
20.441
20.8269
20.786
19.1333
16.1765
12.4224
9.51797
8.07379
7.88929
8.51331
9.26711
11.0493
11.6151
14.4678
-0.485559
0.446464
0.175942
0.369858
0.368854
0.424195
0.397816
0.344451
0.302283
0.322568
0.371163
0.473139
0.553832
0.63782
0.721305
0.812431
0.924502
1.07454
1.28523
1.57682
1.94312
2.28499
2.42902
2.46859
2.37166
2.07511
1.82721
1.63496
1.49651
1.38286
1.28387
1.18294
1.06338
0.909743
0.70209
0.417542
0.0272745
-0.505055
-1.22333
-2.17746
-3.41886
-4.99191
-6.91827
-9.19394
-11.8124
-14.7849
-18.2171
-22.3913
-27.2922
-30.1185
-36.6663
-35.3327
-30.6586
-26.1434
-19.8872
-12.9559
-6.41444
0.156583
6.07451
10.9633
14.5888
16.9153
18.2772
19.2414
20.1962
21.048
21.4808
21.544
19.7559
16.6092
12.595