/*--------------------------------*- C++ -*----------------------------------*\
| =========                 |                                                 |
| \\      /  F ield         | OpenFOAM: The Open Source CFD Toolbox           |
|  \\    /   O peration     | Version:  4.1                                   |
|   \\  /    A nd           | Web:      www.OpenFOAM.org                      |
|    \\/     M anipulation  |                                                 |
\*---------------------------------------------------------------------------*/
FoamFile
{
    version     2.0;
    format      ascii;
    class       surfaceScalarField;
    location    "21";
    object      phi;
}
// * * * * * * * * * * * * * * * * * * * * * * * * * * * * * * * * * * * * * //

dimensions      [0 3 -1 0 0 0 0];

internalField   nonuniform List<scalar> 
13220
(
-805.051
2104.95
-1258.14
1753.29
-1722.66
1764.42
-2065.99
1643.23
-2348.7
1582.91
-2554.21
1505.41
-2690.8
1436.48
-2758.04
1367.44
-2760.18
1302.04
-2694.55
1234.27
-2547.08
1152.73
-2276.85
1029.67
-1795.64
818.693
-1018.17
522.729
281.728
-229.291
2334.24
-499.487
2023.48
-793.881
2058.81
-1029.06
1878.41
-1254.87
1808.72
-1435.32
1685.87
-1588.48
1589.64
-1706.5
1485.46
-1795.42
1390.96
-1848.49
1287.34
-1836.24
1140.47
-1688.26
881.689
-1290.28
420.712
-614.908
-152.647
-333.181
-138.889
2473.13
-329.382
2213.97
-457.683
2187.11
-529.542
1950.26
-587.064
1866.24
-602.129
1700.93
-593.509
1581.02
-554.762
1446.71
-489.251
1325.45
-400.372
1198.46
-298.516
1038.61
-201.136
784.3
-116.933
336.492
-86.1695
-183.43
-419.35
89.2258
2383.9
80.9345
2222.26
132.178
2135.87
203.716
1878.72
281.649
1788.3
375.441
1607.14
480.05
1476.41
593.797
1332.96
713.787
1205.46
832.285
1079.96
927.29
943.607
935.4
776.192
734.059
537.834
245.337
305.294
-174.013
106.883
2277.02
151.773
2177.37
228.109
2059.53
311
1795.83
392.907
1706.4
486.894
1513.15
576.112
1387.19
667.192
1241.88
752.356
1120.29
826.392
1005.93
868.858
901.141
839.762
805.286
676.904
700.69
398.524
583.671
224.511
35.8461
2241.17
83.7265
2129.49
131.89
2011.37
163.507
1764.22
193.323
1676.58
225.703
1480.77
284.177
1328.71
408.314
1117.74
590.107
938.502
785.793
810.243
914.792
772.142
908.337
811.746
730.862
878.169
429.366
885.174
653.877
-105.302
2346.47
-155.585
2179.77
-223.167
2078.95
-338.648
1879.7
-457.106
1795.04
-595.539
1619.2
-686.08
1419.26
-684.688
1116.35
-582.926
836.74
-398.793
626.11
-158.807
532.158
76.2772
576.659
209.466
744.978
178.425
916.213
832.302
-134.097
2480.57
-346.333
2392.01
-517.822
2250.44
-717.369
2079.25
-924.856
2002.53
-1154.38
1848.72
-1392.66
1657.54
-1625.69
1349.38
-1824.39
1035.45
-1936.08
737.802
-1877.51
473.585
-1573.87
273.025
-1040.2
211.311
-432.453
308.468
399.849
129.039
2351.53
-78.0941
2599.14
-196.648
2368.99
-272.423
2155.02
-325.784
2055.89
-381.883
1904.82
-469.15
1744.8
-620.406
1500.63
-818.978
1234.02
-1035.69
954.51
-1227.18
665.081
-1309.59
355.427
-1160.86
62.5795
-710.99
-141.398
-311.141
361.218
1990.32
332.633
2627.73
323.314
2378.31
388.084
2090.25
502.68
1941.29
622.298
1785.2
726.056
1641.05
763.156
1463.54
726.492
1270.69
617.523
1063.48
440.056
842.548
192.918
602.571
-59.5968
315.105
-133.327
-67.6579
-444.467
306.137
1684.18
378.562
2555.31
421.057
2335.82
508.13
2003.18
632.781
1816.64
762.145
1655.84
885.114
1518.08
978.305
1370.35
1029.7
1219.29
1028.53
1064.66
968.838
902.238
839.044
732.365
621.884
532.264
266.197
288.03
-178.27
153.097
1531.08
236.445
2471.96
282.548
2289.72
330.368
1955.36
394.778
1752.23
459.409
1591.21
518.829
1458.66
562.807
1326.37
587.297
1194.8
588.288
1063.67
561.786
928.741
502.534
791.619
397.02
637.781
227.906
457.151
49.636
92.5314
1438.55
201.38
2363.11
307.68
2183.42
417.442
1845.6
528.838
1640.84
623.905
1496.14
696.211
1386.35
741.647
1280.93
756.393
1180.05
741.056
1079
692.989
976.808
608.094
876.514
475.449
770.427
277.319
655.282
326.955
207.429
1231.12
320.142
2250.4
294.079
2209.48
225.117
1914.56
186.581
1679.37
178.437
1504.29
201.213
1363.58
254.133
1228.01
334.542
1099.64
436.343
977.204
543.346
869.805
593.216
826.644
506.552
857.093
294.706
867.128
621.661
550.742
1527.46
2213.34
2460.18
2449.28
2365.46
2165.34
1912.07
1644.18
1385.66
1101.76
830.396
574.464
310.428
-7.1436e-06
406.301
-406.301
406.301
406.301
406.301
907.918
-501.617
907.918
907.918
907.918
1282.07
-374.155
1282.07
1282.07
1543.26
-261.189
1543.26
1543.26
1543.26
1702.44
-159.175
1702.44
1702.44
1775.39
-72.9538
1775.39
1775.39
1775.39
1769.62
5.77253
1769.62
1769.62
1769.62
1702.51
67.1118
1702.51
1702.51
1579.61
122.899
1579.61
1579.61
1579.61
1420.7
158.912
1420.7
1420.7
1238.09
182.606
1238.09
1238.09
1238.09
1067.75
170.34
1067.75
1067.75
1067.75
991.489
76.2605
991.489
991.489
868.529
122.96
868.529
868.529
868.529
631.021
237.508
631.021
631.021
631.021
276.394
354.627
276.394
276.394
-103.419
379.813
-103.419
-103.419
-103.419
-762.845
659.426
-762.845
-762.845
-1994.99
1232.15
-1994.99
-1994.99
-1994.99
-3703.52
1708.53
-3703.52
-3703.52
-3703.52
-5705.81
2002.29
-5705.81
-5705.81
-7852.26
2146.45
-7852.26
-7852.26
-7679.88
-7508.51
-7335.94
-9431.75
2271.56
-9253.24
-9054.28
-8844.34
-8632.89
-8419.27
-8203.19
-7991.24
-7786.24
-10015.9
2431.92
-9803.8
-9590.46
-9376.84
-9176.06
-8971.63
-8763.99
-8555.1
-8345.07
-10648.4
2505.13
-10431.5
-10212.7
-9992.76
-9773.09
-9549.04
-9315.7
-9081.7
-8846.49
-8610.73
-10790.1
2402.36
-10536.7
-10281.7
-10025.3
-9768.28
-9510.29
-9237.15
-8955.23
-8672.41
-10646.1
2241.53
-10366.7
-10080.3
-9782.79
-9487.78
-9194.69
-8904.51
-8615.63
-8308.5
-9752.92
1737.11
-9455.56
-9159.42
-8862.93
-8550.8
-8231.55
-7912.76
-7592.91
-7274.44
-8319.17
1361
-7991.5
-7672.02
-7360.21
-7058.31
-6767.1
-6462.94
-6170.81
-5887.83
-5614.06
-5344.09
13.6224
-5088.99
-4844.99
-4604.02
-4366.78
-4132.24
-3934.93
-3807.72
-3679.04
-3293.44
-247.19
-3175.18
-3062.09
-3062.09
-2863.41
-198.679
-2631.57
-231.839
-2631.57
-2432.53
-199.037
-2432.53
-2254.79
-177.745
-2092.88
-161.907
-2092.88
-1940.33
-152.551
-1800.88
-139.443
-1800.88
-1665.7
-135.184
-1665.7
-1537.34
-128.357
-1422.84
-114.5
-1422.84
-1309.36
-113.485
-1309.36
-1199.21
-110.147
-1102.17
-97.0475
-1102.17
-1001.03
-101.139
-914.232
-86.794
-914.232
-825.294
-88.9384
-825.294
-736.17
-89.1241
-661.401
-74.7685
-661.401
-583.825
-77.5762
-583.825
-504.869
-78.9567
-438.111
-66.7576
-438.111
-364.646
-73.4651
-303.387
-61.2589
-303.387
-240.362
-63.0246
-240.362
-175.558
-64.8047
-120.43
-55.128
-120.43
-64.4356
-55.9941
-64.4356
-7.26381
-57.1718
48.9943
-56.2581
48.9943
92.6604
-43.6662
146.043
-53.3826
146.043
187.926
-41.8831
187.926
222.608
-34.6818
262.925
-40.3172
262.925
301.393
-38.4676
301.393
330.702
-29.3096
360.698
-29.9956
360.698
388.248
-27.5501
421.153
-32.9052
421.153
454.356
-33.2033
454.356
484.972
-30.6153
517.951
-32.9789
517.951
549.895
-31.9444
549.895
580.828
-30.9325
617.394
-36.566
617.394
655.2
-37.8066
702.365
-47.1648
702.365
758.852
-56.4873
758.852
-62.9646
-171.816
-661.489
-172.924
-740.192
-174.541
-779.502
-176.5
-823.279
-178.865
-861.707
-181.559
-899.106
-184.587
-933.928
-187.931
-967.689
-191.591
-999.94
-195.579
-1031.59
-199.909
-1062.83
-204.602
-1094.36
-209.681
-1126.49
-215.166
-1159.68
-221.071
-1194.23
-227.398
-1230.43
-234.148
-1268.43
-241.408
-1308.11
-249.547
-1348.68
-259.568
-1388.15
-273.471
-1422.85
-294.258
-1447.57
-325.212
-1456.91
-368.439
-1447.45
-423.457
-1419.68
-486.789
-1378.06
-552.9
-1329.41
-615.811
-1280.97
-670.504
-1239.21
-713.708
-1209.39
-744.102
-1194.82
-762.078
-1196.07
-769.156
-1210.88
-767.265
-1235.13
-758.192
-1264.08
-743.325
-1293.09
-723.607
-1317.63
-699.659
-1332.45
-672.304
-1331.47
-643.386
-1312.93
-612.487
-1285.38
-562.218
-1203.68
-468.482
-764.5
-387.351
311.42
-357.169
1012.04
-332.676
1324.53
-308.203
1575.35
-283.957
1843.86
-259.882
2126.76
-235.433
2420.27
-210.455
2716.7
-185.124
3006.24
-159.535
3281.03
-133.227
3538.7
-106.123
3768.31
-78.7556
3959.97
-51.4752
4112.02
-24.969
4214.8
-0.727313
4241.12
18.9263
4153.97
32.2932
3963.65
40.5186
3761.22
45.1611
3576.43
47.5524
3404.27
48.8044
3234.13
49.5861
3045.98
50.2065
2823.87
51.1346
2581.91
51.9172
2280.61
53.0373
1973.6
53.453
1521.73
55.8564
1149.71
58.9353
122.893
60.4683
-738.767
34.4129
-1426.96
30.0913
-1808.73
11.0385
-2001.5
10.8058
-2294.72
2839.03
-180.322
-661.284
-181.305
-739.208
-182.952
-777.855
-184.965
-821.266
-187.44
-859.232
-190.269
-896.277
-193.463
-930.735
-196.997
-964.154
-200.882
-996.056
-205.132
-1027.34
-209.766
-1058.2
-214.807
-1089.32
-220.274
-1121.03
-226.182
-1153.78
-232.532
-1187.88
-239.323
-1223.64
-246.623
-1261.13
-254.792
-1299.94
-264.893
-1338.58
-279.181
-1373.86
-301.235
-1400.79
-335.124
-1413.69
-383.493
-1408.54
-445.512
-1385.43
-516.266
-1348.93
-588.274
-1306.05
-654.112
-1263.58
-708.472
-1226.61
-748.839
-1198.84
-775.1
-1183.13
-788.737
-1181.18
-791.97
-1192.83
-787.054
-1215.79
-775.839
-1246.35
-759.652
-1280.27
-739.394
-1313.35
-715.704
-1341.32
-689.079
-1359.08
-660.281
-1360.27
-631.334
-1341.87
-603.546
-1313.17
-561.203
-1246.03
-465.649
-860.054
-370.807
216.578
-347.917
989.154
-329.412
1306.03
-304.67
1550.61
-280.554
1819.74
-257.153
2103.36
-233.365
2396.49
-209.104
2692.44
-184.448
2981.58
-159.408
3256
-133.55
3512.85
-106.803
3741.56
-79.7004
3932.87
-52.606
4084.93
-26.2152
4188.41
-1.999
4216.9
17.7265
4134.24
31.2515
3950.13
39.6764
3752.79
44.5408
3571.57
47.162
3401.65
48.6626
3232.63
49.7133
3044.93
50.6532
2822.93
51.9347
2580.63
53.1599
2279.38
54.7543
1972.01
55.8545
1520.63
60.326
1145.23
60.4102
122.808
59.4172
-737.774
33.788
-1401.33
28.1049
-1803.04
11.4366
-1984.84
10.1442
-2293.42
2792.69
-185.018
-661.132
-185.954
-738.272
-187.627
-776.182
-189.679
-819.213
-192.225
-856.686
-195.137
-893.365
-198.43
-927.441
-202.079
-960.505
-206.098
-992.036
-210.506
-1022.93
-215.323
-1053.38
-220.569
-1084.07
-226.26
-1115.33
-232.403
-1147.63
-238.993
-1181.29
-246.068
-1216.57
-253.879
-1253.32
-263.278
-1290.54
-276.257
-1325.6
-296.268
-1353.85
-327.645
-1369.42
-373.718
-1367.61
-434.406
-1347.85
-505.109
-1314.73
-578.077
-1275.96
-645.384
-1238.75
-701.437
-1207.52
-743.76
-1184.28
-772.387
-1170.21
-788.79
-1166.72
-794.992
-1174.98
-792.998
-1194.83
-784.501
-1224.29
-770.788
-1260.06
-752.805
-1298.25
-731.298
-1334.86
-706.942
-1365.68
-680.414
-1385.61
-652.66
-1388.03
-625.771
-1368.76
-601.745
-1337.2
-567.547
-1280.22
-479.156
-948.446
-363.827
101.249
-333.539
958.866
-322.946
1295.44
-300.501
1528.16
-276.017
1795.26
-253.234
2080.58
-230.367
2373.62
-207.072
2669.15
-183.385
2957.9
-159.185
3231.79
-134.006
3487.67
-107.804
3715.36
-81.1056
3906.17
-54.2828
4058.1
-28.038
4162.16
-3.83236
4192.7
16.0117
4114.4
29.7513
3936.39
38.4425
3744.1
43.603
3566.41
46.5378
3398.71
48.3763
3230.79
49.8049
3043.5
51.1819
2821.56
52.9716
2578.84
54.7801
2277.57
57.0501
1969.74
58.7855
1518.9
64.1939
1139.83
61.8604
125.142
58.6534
-734.567
34.3264
-1377.01
27.4183
-1796.13
13.5899
-1971.01
10.8808
-2290.71
2756.41
-190.654
-661.017
-191.56
-737.366
-193.274
-774.468
-195.383
-817.104
-198.02
-854.048
-201.038
-890.347
-204.456
-924.023
-208.247
-956.715
-212.43
-987.853
-217.029
-1018.33
-222.065
-1048.35
-227.556
-1078.58
-233.511
-1109.38
-239.926
-1141.22
-246.817
-1174.4
-254.346
-1209.04
-263.17
-1244.5
-275.011
-1278.7
-293.17
-1307.44
-322.262
-1324.76
-366.474
-1325.2
-426.793
-1307.29
-499.152
-1275.49
-575.362
-1238.52
-646.407
-1204.91
-705.679
-1179.47
-750.261
-1162.94
-780.296
-1154.25
-797.618
-1152.89
-804.569
-1159.77
-803.334
-1176.22
-795.68
-1202.48
-782.919
-1237.05
-766.003
-1276.98
-745.672
-1318.58
-722.625
-1357.9
-697.649
-1390.66
-671.654
-1411.6
-645.835
-1413.84
-622.375
-1392.22
-603.642
-1355.93
-578.519
-1305.35
-499.886
-1027.08
-366.332
-32.3055
-319.06
911.594
-312.085
1288.46
-295.059
1511.14
-270.986
1771.19
-248.395
2057.99
-226.523
2351.75
-204.421
2647.04
-181.938
2935.41
-158.831
3208.69
-134.559
3463.39
-109.088
3689.89
-82.936
3880.02
-56.4808
4031.65
-30.4349
4136.12
-6.25562
4168.52
13.7277
4094.41
27.7382
3922.38
36.7697
3735.07
42.3085
3560.87
45.6442
3395.38
47.9116
3228.53
49.8163
3041.6
51.7423
2819.63
54.1633
2576.42
56.6945
2275.04
59.7656
1966.67
62.1935
1516.47
68.0921
1133.93
63.8505
129.383
59.1078
-729.824
35.3287
-1353.23
26.9579
-1787.76
14.9427
-1958.99
10.9398
-2286.71
2729.54
-196.161
-660.913
-197.059
-736.468
-198.824
-772.703
-201
-814.928
-203.736
-851.312
-206.866
-887.217
-210.414
-920.476
-214.351
-952.778
-218.703
-983.501
-223.496
-1013.54
-228.752
-1043.09
-234.485
-1072.85
-240.693
-1103.17
-247.375
-1134.54
-254.625
-1167.15
-262.921
-1200.74
-273.688
-1233.73
-289.969
-1262.42
-316.505
-1280.9
-358.286
-1282.98
-417.546
-1265.95
-491.077
-1233.76
-570.459
-1196.11
-645.498
-1163.48
-708.284
-1142.13
-755.194
-1132.56
-786.392
-1131.74
-804.165
-1136.47
-811.378
-1145.68
-810.583
-1160.57
-803.688
-1183.11
-791.99
-1214.18
-776.354
-1252.69
-757.422
-1295.91
-735.821
-1340.18
-712.325
-1381.4
-687.962
-1415.02
-663.988
-1435.57
-641.863
-1435.97
-623.701
-1410.38
-611.784
-1367.85
-596.585
-1320.55
-529.158
-1094.5
-379.764
-181.7
-307.087
838.917
-297.646
1279.02
-286.814
1500.31
-265.265
1749.64
-242.863
2035.59
-221.789
2330.67
-201.074
2626.33
-180.041
2914.38
-158.284
3186.93
-135.173
3440.28
-110.644
3665.36
-85.2016
3854.58
-59.2285
4005.68
-33.4457
4110.34
-9.31005
4144.38
10.8334
4074.27
25.1635
3908.05
34.6061
3725.63
40.6074
3554.87
44.4362
3391.55
47.23
3225.73
49.7156
3039.11
52.3055
2817.04
55.4873
2573.24
58.8845
2271.64
62.8927
1962.66
66.142
1513.22
72.4844
1127.58
66.2484
135.62
59.9325
-723.508
36.8582
-1330.15
26.9089
-1777.81
16.2647
-1948.35
10.4427
-2280.89
2703.42
-201.79
-660.797
-202.7
-735.557
-204.529
-770.875
-206.784
-812.673
-209.63
-848.467
-212.883
-883.963
-216.571
-916.788
-220.663
-948.686
-225.193
-978.972
-230.19
-1008.54
-235.674
-1037.61
-241.65
-1066.87
-248.109
-1096.71
-255.093
-1127.55
-262.922
-1159.32
-272.72
-1190.94
-287.18
-1219.27
-310.987
-1238.61
-349.815
-1242.08
-407.285
-1225.51
-481.467
-1191.76
-564.082
-1151.15
-643.784
-1116.41
-711.074
-1096.19
-761.229
-1091.97
-794.137
-1099.66
-812.412
-1113.47
-819.488
-1129.4
-818.451
-1146.72
-811.579
-1167.44
-800.321
-1194.37
-785.516
-1228.98
-767.692
-1270.51
-747.339
-1316.26
-725.127
-1362.39
-702.062
-1404.46
-679.53
-1437.55
-659.152
-1455.95
-642.534
-1452.59
-631.421
-1421.5
-627.503
-1371.77
-622.324
-1325.73
-566
-1150.83
-403.447
-344.252
-300.291
735.76
-281.539
1260.27
-274.93
1493.7
-257.94
1732.65
-236.782
2014.43
-216.277
2310.17
-196.962
2607.01
-177.611
2895.03
-157.443
3166.76
-135.742
3418.58
-112.382
3642
-87.8302
3830.03
-62.47
3980.32
-37.0302
4084.9
-12.9691
4120.32
7.3421
4053.96
22.026
3893.37
31.9376
3715.71
38.4758
3548.33
42.8819
3387.14
46.2919
3222.32
49.4543
3035.95
52.8109
2813.69
56.867
2569.18
61.2554
2267.25
66.3152
1957.6
70.5108
1509.03
77.2063
1120.89
69.2082
143.618
61.4316
-715.732
38.8006
-1307.52
27.165
-1766.18
17.5032
-1938.69
9.8636
-2273.25
2682.35
-207.494
-660.65
-208.434
-734.617
-210.339
-768.971
-212.686
-810.326
-215.652
-845.5
-219.04
-880.576
-222.877
-912.951
-227.134
-944.429
-231.849
-974.256
-237.057
-1003.33
-242.77
-1031.89
-248.984
-1060.66
-255.704
-1089.99
-263.122
-1120.13
-272.072
-1150.37
-284.828
-1178.19
-305.833
-1198.27
-341.227
-1203.22
-396.054
-1187.25
-470.066
-1151.5
-555.626
-1106.2
-640.427
-1066.35
-713.144
-1043.69
-767.57
-1041.77
-803.002
-1056.54
-822.199
-1080.46
-829.09
-1106.58
-827.34
-1131.15
-819.746
-1154.31
-808.138
-1179.05
-793.523
-1208.98
-776.387
-1246.12
-757.057
-1289.84
-736.014
-1337.3
-714.122
-1384.29
-692.747
-1425.84
-673.694
-1456.6
-658.861
-1470.79
-649.686
-1461.76
-647.055
-1424.13
-651.566
-1367.25
-655.737
-1321.55
-610.283
-1196.28
-437.577
-516.958
-300.228
598.411
-265.858
1225.9
-259.719
1487.56
-247.834
1720.76
-229.773
1996.37
-210.148
2290.54
-192.069
2588.93
-174.553
2877.51
-156.216
3148.42
-136.165
3398.53
-114.214
3620.05
-90.7517
3806.56
-66.1556
3955.72
-41.1608
4059.9
-17.2278
4096.39
3.2409
4033.49
18.2997
3878.31
28.7294
3705.28
35.8737
3541.19
40.9383
3382.08
45.0515
3218.21
48.982
3032.02
53.2014
2809.47
58.2361
2564.15
63.7291
2261.76
69.9459
1951.38
75.2056
1503.77
82.2955
1113.8
72.7888
153.124
63.5318
-706.475
41.1071
-1285.1
27.6789
-1752.75
18.6036
-1929.61
9.2406
-2263.89
2659.64
-213.294
-660.451
-214.28
-733.631
-216.273
-766.977
-218.725
-807.875
-221.823
-842.402
-225.356
-877.042
-229.353
-908.954
-233.784
-939.997
-238.694
-969.346
-244.116
-997.91
-250.056
-1025.96
-256.504
-1054.21
-263.558
-1082.94
-271.787
-1111.91
-283.015
-1139.15
-301.267
-1159.94
-332.869
-1166.66
-384.171
-1151.92
-456.937
-1114.48
-544.791
-1063.64
-634.83
-1016.16
-713.783
-987.394
-773.569
-983.906
-812.571
-1002.76
-833.518
-1035.59
-840.731
-1073.25
-838.358
-1108.95
-829.683
-1139.82
-817.006
-1166.99
-801.724
-1194.33
-784.517
-1226.19
-765.67
-1264.97
-745.465
-1310.05
-724.539
-1358.23
-704.11
-1404.72
-686.003
-1443.95
-672.397
-1470.21
-665.187
-1478
-665.129
-1461.82
-671.66
-1417.6
-683.927
-1354.99
-695.731
-1309.75
-661.023
-1230.99
-483.242
-694.739
-308.282
423.45
-252.289
1169.91
-242.419
1477.69
-234.233
1712.58
-220.916
1983.05
-203.364
2272.99
-186.472
2572.04
-170.794
2861.83
-154.515
3132.15
-136.356
3380.37
-116.054
3599.75
-93.9018
3784.41
-70.2424
3932.06
-45.8162
4035.47
-22.0855
4072.66
-1.4868
4012.89
13.9548
3862.86
24.9425
3694.3
32.7583
3533.37
38.5608
3376.27
43.464
3213.31
48.2541
3027.23
53.4317
2804.29
59.5472
2558.03
66.2557
2255.05
73.7388
1943.9
80.1795
1497.33
87.832
1106.15
77.1017
163.855
66.2742
-695.647
43.767
-1262.59
28.4302
-1737.41
19.3345
-1920.52
7.97902
-2252.53
2634.64
-219.194
-660.183
-220.24
-732.585
-222.338
-764.88
-224.907
-805.306
-228.15
-839.159
-231.84
-873.352
-236.007
-904.788
-240.621
-935.383
-245.731
-964.237
-251.367
-992.273
-257.525
-1019.8
-264.24
-1047.5
-271.868
-1075.31
-281.783
-1101.99
-297.453
-1123.48
-325.076
-1132.31
-372.046
-1119.69
-442.319
-1081.64
-531.44
-1025.36
-626.496
-968.586
-712.288
-930.371
-778.465
-921.217
-822.124
-940.247
-845.807
-979.081
-854.178
-1027.22
-851.796
-1075.63
-842.285
-1118.46
-828.293
-1153.82
-811.64
-1183.64
-793.427
-1212.54
-774.178
-1245.44
-754.148
-1284.99
-733.76
-1330.44
-713.984
-1378
-696.522
-1422.18
-683.66
-1456.81
-677.713
-1476.16
-680.058
-1475.65
-690.121
-1451.76
-705.377
-1402.34
-723.464
-1336.9
-740.109
-1293.1
-716.305
-1254.8
-543.763
-867.281
-328.34
208.027
-242.27
1083.84
-224.702
1460.12
-217.306
1705.18
-209.163
1974.91
-195.462
2259.29
-180.258
2556.84
-166.323
2847.9
-152.253
3118.08
-136.232
3364.35
-117.819
3581.33
-97.206
3763.8
-74.6765
3909.53
-50.9624
4011.76
-27.5285
4049.22
-6.8461
3992.21
8.97302
3847.05
20.5486
3682.72
29.0946
3524.82
35.7116
3369.66
41.4907
3207.53
47.2318
3021.49
53.4631
2798.06
60.7611
2550.73
68.7957
2247.02
77.6573
1935.04
85.3942
1489.59
93.7971
1097.74
82.1407
175.511
69.6626
-683.169
46.8175
-1239.75
29.4362
-1720.03
19.877
-1910.96
6.72295
-2239.38
2610.75
-225.205
-659.828
-226.325
-731.465
-228.54
-762.664
-231.241
-802.605
-234.642
-835.758
-238.502
-869.492
-242.848
-900.441
-247.654
-930.578
-252.965
-958.925
-258.808
-986.431
-265.19
-1013.41
-272.312
-1040.37
-281.139
-1066.48
-294.5
-1088.63
-318.16
-1099.82
-360.158
-1090.31
-426.627
-1053.23
-515.653
-992.617
-615.09
-925.926
-708.044
-875.632
-781.525
-856.89
-830.879
-871.862
-858.254
-912.872
-868.679
-968.656
-867.161
-1028.74
-857.588
-1085.2
-842.75
-1133.3
-824.67
-1171.9
-804.828
-1203.48
-784.202
-1233.17
-763.35
-1266.29
-742.698
-1305.65
-723.01
-1350.12
-705.765
-1395.25
-693.202
-1434.74
-687.881
-1462.13
-691.753
-1472.28
-704.974
-1462.43
-725.03
-1431.7
-747.272
-1380.1
-768.162
-1316.01
-786.077
-1275.19
-772.703
-1268.17
-622.222
-1017.76
-368.528
-45.6669
-237.35
952.658
-207.93
1430.7
-198.073
1695.33
-193.857
1970.69
-185.565
2251
-173.307
2544.58
-161.198
2835.79
-149.359
3106.24
-135.707
3350.7
-119.426
3565.05
-100.586
3744.96
-79.3956
3888.34
-56.5574
3988.92
-33.5346
4026.2
-12.8344
3971.51
3.34344
3830.87
15.5258
3670.54
24.8528
3515.5
32.3573
3362.15
39.0966
3200.79
45.8797
3014.71
53.2606
2790.68
61.8431
2542.15
71.315
2237.55
81.6681
1924.68
90.8147
1480.44
100.134
1088.42
87.8538
187.791
73.7035
-669.019
50.3053
-1216.35
30.7362
-1700.46
20.4421
-1900.66
5.72884
-2224.66
2583.28
-231.334
-659.369
-232.54
-730.259
-234.888
-760.316
-237.735
-799.758
-241.308
-832.186
-245.351
-865.449
-249.888
-895.904
-254.889
-925.577
-260.397
-953.417
-266.44
-980.387
-273.118
-1006.74
-281.063
-1032.43
-292.45
-1055.1
-312.356
-1068.72
-348.996
-1063.18
-410.415
-1028.9
-497.716
-965.925
-600.463
-889.87
-700.565
-825.823
-782.112
-794.085
-838.137
-800.866
-870.075
-839.924
-883.326
-899.621
-883.487
-968.495
-874.781
-1037.44
-860.047
-1099.94
-841.252
-1152.09
-819.944
-1193.2
-797.437
-1225.99
-774.777
-1255.83
-752.76
-1288.31
-732.211
-1326.2
-714.45
-1367.88
-701.585
-1408.12
-696.272
-1440.05
-700.875
-1457.53
-716.218
-1456.94
-740.503
-1438.14
-768.996
-1403.21
-795.308
-1353.79
-815.4
-1295.92
-830.717
-1259.87
-825.282
-1273.6
-705.785
-1137.26
-426.738
-324.714
-239.263
765.183
-192.579
1384.02
-178.012
1680.76
-175.117
1967.79
-172.702
2248.58
-165.132
2537.01
-155.458
2826.12
-145.822
3096.6
-134.695
3339.57
-120.799
3551.16
-103.964
3728.12
-84.3335
3868.71
-62.5544
3967.14
-40.0769
4003.72
-19.4437
3950.88
-2.94138
3814.37
9.85642
3657.74
20.0074
3505.35
28.4672
3353.69
36.2487
3193.01
44.164
3006.79
52.7906
2782.05
62.7602
2532.18
73.7816
2226.53
85.7393
1912.73
96.4089
1469.77
106.787
1078.05
94.1716
200.407
78.3742
-653.221
54.2619
-1192.23
32.3661
-1678.57
21.1144
-1889.41
4.95135
-2208.5
2555.32
-237.59
-658.788
-238.895
-728.954
-241.392
-757.819
-244.4
-796.75
-248.159
-828.427
-252.398
-861.209
-257.135
-891.167
-262.331
-920.382
-268.026
-947.723
-274.296
-974.117
-281.524
-999.509
-291.287
-1022.67
-307.812
-1038.57
-338.994
-1037.54
-394.315
-1007.86
-478.109
-945.102
-582.657
-861.378
-689.497
-783.03
-779.694
-735.626
-843.318
-730.461
-880.627
-763.557
-897.322
-823.229
-899.746
-897.197
-892.649
-975.592
-878.998
-1051.1
-860.601
-1118.33
-838.783
-1173.91
-814.803
-1217.18
-789.993
-1250.8
-765.658
-1280.16
-743.064
-1310.9
-723.686
-1345.57
-709.595
-1381.97
-703.489
-1414.22
-708.025
-1435.52
-724.567
-1440.99
-751.937
-1429.57
-785.918
-1404.16
-819.879
-1369.25
-846.627
-1327.04
-862.414
-1280.13
-871.468
-1250.82
-869.666
-1275.41
-779.895
-1227.03
-494.692
-609.917
-250.928
521.42
-178.508
1311.6
-158.48
1660.73
-153.893
1963.21
-156.257
2250.95
-154.909
2535.66
-148.952
2820.16
-141.676
3089.32
-133.129
3331.03
-121.856
3539.88
-107.269
3713.54
-89.4215
3850.86
-68.9013
3946.62
-47.1231
3981.94
-26.6608
3930.41
-9.88388
3797.59
3.52871
3644.33
14.5371
3494.34
24.0131
3344.22
32.9154
3184.1
42.0511
2997.65
52.0189
2772.08
63.4797
2520.72
76.1636
2213.84
89.8405
1899.05
102.146
1457.47
113.713
1066.48
101.034
213.085
83.6454
-635.832
58.6992
-1167.29
34.3543
-1654.22
21.9908
-1877.05
4.70425
-2191.21
2532.48
-243.984
-658.069
-245.398
-727.54
-248.06
-755.157
-251.245
-793.564
-255.206
-824.467
-259.655
-856.76
-264.596
-886.226
-269.979
-914.999
-275.862
-941.839
-282.5
-967.479
-290.961
-991.048
-304.577
-1009.05
-330.498
-1012.65
-378.98
-989.058
-457.477
-929.359
-561.916
-840.663
-674.617
-748.677
-773.82
-683.826
-845.952
-663.493
-889.439
-686.975
-910.097
-742.899
-915.148
-818.178
-910.085
-902.26
-898.192
-987.485
-881.201
-1068.09
-860.114
-1139.42
-835.837
-1198.19
-809.53
-1243.49
-782.715
-1277.61
-757.178
-1305.7
-734.923
-1333.16
-718.334
-1362.16
-710.297
-1390.01
-713.763
-1410.76
-730.574
-1418.7
-760.07
-1411.49
-798.387
-1391.25
-839.045
-1363.51
-874.493
-1333.8
-897.983
-1303.55
-906.675
-1271.44
-906.572
-1250.92
-903.263
-1278.72
-840.997
-1289.3
-576.868
-874.046
-279.588
224.14
-166.2
1198.21
-140.159
1634.69
-131.687
1954.74
-136.33
2255.59
-141.734
2541.07
-141.201
2819.63
-136.925
3085.05
-130.981
3325.08
-122.514
3531.42
-110.428
3701.45
-94.5918
3835.03
-75.5419
3927.57
-54.6362
3961.04
-34.4672
3910.25
-17.4815
3780.6
-3.4665
3630.31
8.4245
3482.45
18.971
3333.67
29.0672
3174.01
39.5087
2987.21
50.9117
2760.68
63.969
2507.66
78.4308
2199.38
93.9457
1883.53
107.999
1443.41
120.881
1053.6
108.399
225.567
89.485
-616.919
63.6194
-1141.42
36.7209
-1627.32
23.0208
-1863.35
4.99059
-2173.18
2507.47
-250.526
-657.194
-252.059
-726.007
-254.903
-752.313
-258.282
-790.185
-262.46
-820.289
-267.13
-852.09
-272.273
-881.084
-277.836
-909.435
-283.973
-935.702
-291.414
-960.039
-302.627
-979.835
-323.728
-987.948
-365.019
-971.362
-436.59
-917.488
-538.691
-827.258
-655.845
-723.509
-764.098
-640.424
-845.631
-602.293
-896.17
-612.955
-921.291
-661.853
-929.192
-734.998
-926.326
-821.044
-916.493
-912.094
-901.518
-1002.46
-882.174
-1087.43
-858.933
-1162.66
-832.488
-1224.63
-804.075
-1271.9
-775.607
-1306.08
-749.62
-1331.69
-729.168
-1353.61
-717.723
-1373.61
-718.765
-1388.97
-734.694
-1394.83
-765.359
-1388.04
-807.148
-1369.7
-853.461
-1344.94
-896.477
-1320.49
-929.106
-1301.17
-946.169
-1286.49
-945.992
-1271.62
-934.944
-1261.97
-924.796
-1288.86
-884.2
-1329.89
-674.642
-1083.6
-337.329
-113.173
-158.026
1018.9
-122.698
1599.36
-110.004
1942.04
-113.836
2259.42
-125.008
2552.24
-131.415
2826.03
-131.404
3085.04
-128.264
3321.94
-122.701
3525.86
-113.368
3692.12
-99.7798
3821.44
-82.4174
3910.21
-62.5745
3941.19
-42.8397
3890.51
-25.7275
3763.49
-11.1342
3615.72
1.65845
3469.65
13.3213
3322.01
24.6781
3162.65
36.507
2975.38
49.437
2747.75
64.1977
2492.9
80.5563
2183.02
98.0347
1866.06
113.953
1427.5
128.276
1039.27
116.235
237.609
95.8639
-596.548
69.0243
-1114.58
39.4823
-1597.78
23.9868
-1847.85
5.53403
-2154.73
2483.7
-257.225
-656.145
-258.887
-724.345
-261.932
-749.268
-265.522
-786.595
-269.933
-815.878
-274.829
-847.193
-280.169
-875.744
-285.935
-903.669
-292.581
-929.056
-301.891
-950.729
-318.785
-962.941
-352.945
-953.787
-416.285
-908.023
-513.641
-820.132
-633.27
-707.629
-750.182
-606.597
-841.955
-548.651
-900.554
-543.694
-930.715
-582.794
-941.627
-650.941
-940.947
-735.678
-933.196
-828.795
-920.447
-924.843
-903.399
-1019.51
-882.198
-1108.63
-857.019
-1187.84
-828.521
-1253.13
-798.195
-1302.23
-768.615
-1335.66
-743.415
-1356.89
-727.008
-1370.02
-723.898
-1376.72
-737.416
-1375.45
-768.084
-1364.16
-812.523
-1343.6
-863.854
-1318.37
-913.603
-1295.19
-954.102
-1279.99
-980.004
-1275.27
-988.306
-1278.18
-978.392
-1281.53
-955.685
-1284.68
-934.114
-1310.43
-903.531
-1360.48
-753.476
-1233.66
-406.934
-459.715
-157.671
769.641
-104.925
1546.61
-89.7867
1926.9
-90.2853
2259.92
-104.782
2566.73
-118.71
2839.96
-124.656
3090.98
-124.959
3322.25
-122.373
3523.27
-116.007
3685.75
-104.923
3810.36
-89.4688
3894.76
-70.8919
3922.62
-51.7508
3871.37
-34.6102
3746.35
-19.4776
3600.59
-5.77266
3455.95
7.04987
3309.19
19.727
3149.97
33.0183
2962.09
47.5649
2733.2
64.137
2476.33
82.5163
2164.64
102.092
1846.48
119.995
1409.59
135.889
1023.38
124.519
248.978
102.755
-574.784
74.9166
-1086.75
42.6587
-1565.52
24.8151
-1830.01
5.9505
-2135.87
2451.18
-264.094
-654.903
-265.894
-722.544
-269.158
-746.004
-272.977
-782.777
-277.632
-811.223
-282.758
-842.067
-288.3
-870.202
-294.404
-897.565
-302.26
-921.201
-315.667
-937.321
-343.132
-935.476
-397.409
-899.511
-487.63
-817.802
-607.188
-700.573
-731.781
-583.036
-834.485
-503.893
-902.326
-480.809
-938.279
-507.742
-952.391
-568.681
-953.786
-649.547
-947.957
-741.507
-937.368
-839.384
-922.759
-939.452
-904.105
-1038.16
-881.195
-1131.54
-854.088
-1214.95
-823.565
-1283.66
-791.612
-1334.18
-761.829
-1365.45
-739.391
-1379.33
-730.242
-1379.17
-739.349
-1367.61
-768.455
-1346.35
-814.576
-1318.04
-870.407
-1287.77
-926.557
-1262.22
-974.346
-1247.4
-1007.78
-1246.56
-1023.94
-1259.11
-1021.94
-1280.18
-1001.92
-1301.55
-967.634
-1318.96
-931.734
-1346.33
-898.411
-1393.8
-791.331
-1340.74
-471.18
-779.866
-169.583
468.045
-86.5433
1463.57
-70.9222
1911.28
-67.2989
2256.3
-81.8991
2581.33
-102.469
2860.53
-115.933
3104.45
-120.904
3327.22
-121.512
3523.88
-118.264
3682.5
-109.954
3802.05
-96.6398
3881.44
-79.5392
3905.52
-61.1687
3853
-44.1143
3729.3
-28.4952
3584.97
-13.8753
3441.33
0.145959
3295.16
14.1955
3135.92
29.0181
2947.27
45.2672
2716.95
63.7591
2457.84
84.2889
2144.11
106.106
1824.66
126.12
1389.58
143.707
1005.79
133.227
259.459
110.135
-551.691
81.2983
-1057.91
46.2772
-1530.5
25.6464
-1809.38
6.29018
-2116.51
2417.15
-271.143
-653.449
-273.09
-720.597
-276.592
-742.502
-280.656
-778.713
-285.566
-806.313
-290.927
-836.707
-296.737
-864.391
-303.61
-890.693
-314.269
-910.541
-335.808
-915.783
-380.741
-890.543
-461.692
-818.559
-578.157
-701.337
-708.704
-570.026
-822.713
-469.026
-901.148
-425.459
-943.917
-438.04
-961.552
-490.107
-964.88
-565.353
-960.689
-653.738
-952.018
-750.177
-939.73
-851.672
-923.721
-955.462
-903.566
-1058.31
-878.881
-1156.23
-849.742
-1244.09
-817.235
-1316.16
-784.18
-1367.24
-755.725
-1393.9
-739.031
-1396.02
-741.348
-1376.85
-766.702
-1342.26
-813.17
-1299.88
-872.976
-1258.23
-935.415
-1225.33
-990.447
-1207.19
-1031.06
-1206.79
-1053.88
-1223.74
-1058.33
-1254.66
-1045.05
-1293.47
-1014.6
-1331.99
-969.209
-1364.36
-918.441
-1397.1
-873.281
-1438.96
-791.993
-1422.03
-531.115
-1040.74
-198.331
135.26
-70.2889
1335.53
-52.1273
1893.12
-45.9902
2250.16
-57.8422
2593.19
-82.6943
2885.38
-104.384
3126.14
-115.685
3338.52
-120.085
3528.28
-120.071
3682.49
-114.794
3796.77
-103.875
3870.52
-88.4666
3890.11
-71.0578
3835.59
-54.2211
3712.46
-38.1815
3568.93
-22.6566
3425.8
-7.40372
3279.91
8.06963
3120.45
24.485
2930.85
42.5155
2698.92
63.036
2437.32
85.8519
2121.3
110.061
1800.45
132.32
1367.32
151.721
986.392
142.339
268.84
117.984
-527.336
88.1654
-1028.09
50.3732
-1492.71
26.8324
-1785.84
7.08116
-2096.76
2389.55
-278.386
-651.76
-280.487
-718.496
-284.247
-738.742
-288.572
-774.388
-293.745