/*--------------------------------*- C++ -*----------------------------------*\
| =========                 |                                                 |
| \\      /  F ield         | OpenFOAM: The Open Source CFD Toolbox           |
|  \\    /   O peration     | Version:  4.1                                   |
|   \\  /    A nd           | Web:      www.OpenFOAM.org                      |
|    \\/     M anipulation  |                                                 |
\*---------------------------------------------------------------------------*/
FoamFile
{
    version     2.0;
    format      ascii;
    class       volScalarField;
    location    "23";
    object      p;
}
// * * * * * * * * * * * * * * * * * * * * * * * * * * * * * * * * * * * * * //

dimensions      [0 2 -2 0 0 0 0];

internalField   nonuniform List<scalar> 
225
(
523.378
469.981
418.149
369.738
324.847
282.83
243.475
206.471
171.377
138.013
107.071
78.9327
49.9038
14.9848
-14.1675
56.9435
34.6825
28.9238
25.2136
19.7395
14.032
8.87916
4.4904
1.00647
-1.45228
-2.64358
-2.14193
-0.0454957
1.82602
2.0862
-45.8389
-52.4819
-46.715
-42.5681
-39.4775
-35.8821
-31.9958
-28.0585
-24.1541
-20.4382
-17.0927
-14.0256
-10.9488
-8.29594
-7.06169
0.294846
-2.12318
2.46961
2.79377
2.84736
3.06256
2.97344
2.59614
2.01459
1.25542
0.298679
-0.810656
-1.72094
-1.87317
-1.56271
16.7228
14.39
15.9437
13.8457
12.4269
11.1834
9.77343
8.39158
7.13415
6.04311
5.14211
4.42957
3.95199
3.91927
4.16413
7.49467
5.47166
6.44563
5.22633
5.02333
5.00757
4.91979
4.95312
5.10871
5.35221
5.67151
6.03438
6.35404
6.61075
6.78549
4.02323
2.86782
3.95341
3.63032
4.01714
4.41127
4.71025
5.06091
5.41747
5.74224
6.03194
6.28585
6.46407
6.54509
6.5608
5.70107
5.14328
5.99761
5.7686
5.96712
6.07962
6.10353
6.14883
6.17343
6.1686
6.1449
6.1171
6.08345
6.03759
5.98911
6.00835
5.68296
6.19377
5.91789
5.96072
5.9299
5.85482
5.80772
5.75209
5.69152
5.63225
5.57913
5.5324
5.48631
5.4351
4.68866
4.48099
4.82667
4.65028
4.72305
4.732
4.7191
4.7273
4.7247
4.71793
4.70833
4.6936
4.67139
4.63612
4.57839
3.31874
3.20258
3.50026
3.44636
3.56599
3.6127
3.64133
3.67631
3.69294
3.69982
3.69783
3.6853
3.66125
3.62299
3.55746
2.34492
2.28475
2.539
2.54029
2.65864
2.70003
2.72912
2.75622
2.76378
2.76169
2.75027
2.72935
2.69947
2.66066
2.59599
1.56588
1.53088
1.73317
1.74692
1.84607
1.87244
1.89477
1.91187
1.91218
1.9053
1.8907
1.86842
1.83883
1.80407
1.74618
0.881121
0.868959
1.02982
1.03447
1.11146
1.12503
1.14283
1.15488
1.1543
1.14933
1.13841
1.12138
1.09639
1.06524
1.01101
0.438838
0.399509
0.455344
0.423222
0.459359
0.440662
0.434304
0.42024
0.399328
0.376641
0.350034
0.321361
0.290949
0.261017
0.218002
)
;

boundaryField
{
    inletFace
    {
        type            zeroGradient;
    }
    inlet
    {
        type            zeroGradient;
    }
    inletWalls
    {
        type            zeroGradient;
    }
    outletInlet
    {
        type            fixedValue;
        value           uniform 0;
    }
}


// ************************************************************************* //
