/*--------------------------------*- C++ -*----------------------------------*\
| =========                 |                                                 |
| \\      /  F ield         | OpenFOAM: The Open Source CFD Toolbox           |
|  \\    /   O peration     | Version:  4.1                                   |
|   \\  /    A nd           | Web:      www.OpenFOAM.org                      |
|    \\/     M anipulation  |                                                 |
\*---------------------------------------------------------------------------*/
FoamFile
{
    version     2.0;
    format      ascii;
    class       surfaceScalarField;
    location    "23";
    object      phi;
}
// * * * * * * * * * * * * * * * * * * * * * * * * * * * * * * * * * * * * * //

dimensions      [0 3 -1 0 0 0 0];

internalField   nonuniform List<scalar> 
420
(
-949.88
2249.78
-1573.96
1924.28
-2054
1779.95
-2424.23
1670.13
-2699.86
1575.82
-2888.38
1488.42
-2993.06
1404.58
-3013.86
1321
-2949.62
1235.66
-2797.24
1147.52
-2551.18
1054.13
-2193.01
941.736
-1687.13
794.063
-1012.65
625.696
287.224
373.333
1876.44
442.747
1854.86
437.302
1785.39
406.698
1700.74
380.58
1601.94
359.899
1509.1
345.291
1419.19
337.533
1328.76
333.478
1239.71
326.944
1154.05
309.6
1071.48
267.457
983.88
191.406
870.107
111.443
705.685
398.673
33.576
1842.87
-97.3865
1985.83
-253.613
1941.62
-371.118
1818.24
-473.18
1704.01
-567.529
1603.45
-651.745
1503.4
-725.791
1402.8
-788.066
1301.99
-837.3
1203.28
-868.219
1102.4
-856.081
971.744
-740.332
754.362
-434.281
399.648
-35.604
28.7714
1814.09
-100.654
2115.25
-225.56
2066.52
-304.496
1897.18
-368.156
1767.67
-416.951
1652.24
-446.225
1532.68
-457.013
1413.59
-451.848
1296.82
-430.145
1181.58
-387.219
1059.47
-311.867
896.391
-192.864
635.356
-48.4121
255.194
-84.0094
169.624
1644.47
146.156
2138.72
123.73
2088.95
122.87
1898.04
126.941
1763.6
135.804
1643.38
149.103
1519.38
166.593
1396.1
186.943
1276.47
208.132
1160.4
229.132
1038.47
243.82
881.699
233.003
646.17
155.242
332.961
71.2233
223.072
1421.4
244.177
2117.62
234.74
2098.38
236.019
1896.76
240.368
1759.25
244.303
1639.45
246.545
1517.14
245.25
1397.4
241.161
1280.56
233.986
1167.57
221.381
1051.07
199.138
903.94
156.143
689.165
78.3124
410.798
149.524
203.313
1218.09
238.363
2082.57
213.612
2123.14
191.404
1918.97
177.198
1773.45
163.768
1652.88
150.035
1530.87
135.893
1411.54
121.069
1295.39
106.918
1181.72
92.82
1065.17
75.7682
920.991
52.0239
712.911
19.026
443.8
168.546
171.844
1046.24
221.971
2032.44
199.411
2145.69
170.399
1947.98
152.049
1791.8
137.669
1667.26
122.781
1545.76
108.582
1425.74
95.5871
1308.38
83.1089
1194.2
71.4893
1076.79
58.6368
933.84
40.3282
731.221
15.7547
468.375
184.297
146.088
900.155
210.043
1968.48
196.858
2158.88
170.044
1974.8
152.394
1809.45
139.525
1680.12
127.063
1558.22
113.858
1438.94
101.315
1320.92
89.4149
1206.1
76.9824
1089.22
63.0865
947.732
44.3059
749.998
19.1671
493.51
203.463
116.756
783.402
184.833
1900.4
179.615
2164.1
154.297
2000.12
137.205
1826.54
123.985
1693.35
111.354
1570.85
98.9446
1451.35
86.0921
1333.78
73.8503
1218.34
62.086
1100.98
49.0071
960.807
32.843
766.161
13.1769
513.175
216.645
83.1515
700.245
143.122
1840.43
144.678
2162.55
122.746
2022.04
106.142
1843.15
94.4532
1705.03
82.5692
1582.73
71.1576
1462.76
60.3748
1344.56
49.446
1229.26
39.4141
1111.01
29.7293
970.49
18.0758
777.824
5.24233
526.021
221.89
51.2347
649.007
97.9183
1793.76
102.694
2157.76
87.3743
2037.37
73.1521
1857.37
63.1436
1715.04
54.2501
1591.63
44.8688
1472.14
36.1583
1353.27
28.1827
1237.24
20.4342
1118.76
13.6941
977.23
6.7585
784.766
-0.384825
533.174
221.496
25.1536
623.875
57.7103
1761.17
63.4941
2151.96
53.4602
2047.4
43.8759
1866.94
36.1688
1722.74
29.5435
1598.25
23.5001
1478.18
17.059
1359.71
11.3186
1242.98
6.62117
1123.46
2.49225
981.355
-1.05632
788.312
-3.67735
535.788
217.814
1.45946
622.435
24.0746
1738.51
33.3817
2142.66
27.7267
2053.04
20.363
1874.31
15.0554
1728.05
9.5137
1603.79
4.56099
1483.13
0.0156991
1364.26
-4.85387
1247.85
-8.36662
1126.98
-9.6764
982.674
-9.7437
788.39
-7.16203
533.209
210.664
-11.7432
-3.09552
1.50776
-0.346292
-5.03962
-8.7994
-11.7509
-15.1958
-18.0678
-20.21
-21.7843
-21.1302
-18.1517
-12.4164
)
;

boundaryField
{
    inletFace
    {
        type            calculated;
        value           nonuniform List<scalar> 
450
(
1.32617e-13
6.31871e-13
-9.15204e-14
-1.58993e-13
1.19407e-13
-1.88964e-13
-6.49318e-14
6.82543e-14
-1.05681e-13
-3.32347e-14
4.67401e-14
-6.8287e-14
-1.41126e-14
1.97485e-14
-5.91121e-18
-2.20327e-12
-2.28449e-12
1.3328e-13
-2.94115e-13
-1.48643e-13
4.30923e-14
-2.82228e-13
-9.73236e-14
1.17562e-14
-9.34345e-14
-4.99439e-14
2.15812e-14
-8.74029e-14
-1.19022e-14
-2.56468e-15
-2.48467e-12
-2.39633e-12
-2.56129e-14
-3.92201e-13
-3.14465e-13
-6.19165e-14
-3.18376e-13
-1.56584e-13
-1.1133e-13
-1.69321e-13
1.37457e-15
-4.04803e-14
-4.3062e-14
2.37711e-15
1.42011e-15
-2.56958e-12
-2.1946e-12
-1.36348e-13
-6.37961e-13
-3.88081e-13
-2.0565e-13
-4.39375e-13
-1.9067e-13
-1.83963e-13
-2.58042e-13
-8.67799e-15
-6.45989e-14
-8.74613e-14
2.11292e-14
6.90313e-14
-2.37991e-12
-2.32046e-12
-2.76244e-13
-6.20907e-13
-2.99741e-13
-2.30006e-13
-4.25881e-13
-1.18699e-13
-1.99046e-13
-1.73516e-13
-2.33786e-14
-2.95313e-14
-3.96702e-14
5.74872e-15
6.3259e-14
-2.09402e-12
-2.40813e-12
-4.75841e-13
-4.9834e-13
-2.87479e-13
-1.85904e-13
-3.54361e-13
-1.19459e-13
-1.30429e-13
-1.5724e-13
-1.10954e-14
5.18894e-15
-7.00383e-14
-4.08391e-16
2.13988e-14
-1.88955e-12
-2.40269e-12
-7.3228e-13
-4.68639e-13
-2.68098e-13
-2.15389e-13
-3.49534e-13
-1.29236e-13
-1.52093e-13
-1.34417e-13
-4.24474e-14
-5.32785e-14
-1.22217e-13
-7.90521e-14
-1.07823e-13
-1.63512e-12
-2.40337e-12
-9.59316e-13
-4.69876e-13
-2.81819e-13
-2.39544e-13
-3.01862e-13
-1.4531e-13
-1.75523e-13
-1.68395e-13
-8.69335e-14
-1.2911e-13
-2.30074e-14
-1.83595e-14
-1.77189e-13
-1.35808e-12
-2.36683e-12
-1.13174e-12
-5.07335e-13
-2.8712e-13
-2.18608e-13
-2.76441e-13
-1.84815e-13
-1.33495e-13
-1.91888e-13
-1.00021e-13
-9.21177e-14
-3.79777e-14
-1.00905e-14
-4.18578e-14
-1.17941e-12
-2.29716e-12
-1.25604e-12
-5.34487e-13
-2.86967e-13
-1.97052e-13
-2.67996e-13
-1.9235e-13
-1.43105e-13
-1.56416e-13
-9.96322e-14
-5.21146e-14
-2.25106e-14
-2.35521e-14
5.13883e-14
-9.86119e-13
-2.23118e-12
-1.36407e-12
-5.38587e-13
-2.94843e-13
-1.91114e-13
-2.6491e-13
-1.99585e-13
-1.45906e-13
-1.20946e-13
-9.89308e-14
-3.61344e-14
6.64382e-14
-6.94407e-15
8.29711e-14
-8.55152e-13
-2.17135e-12
-1.42584e-12
-5.93776e-13
-2.96805e-13
-1.56113e-13
-2.76925e-13
-2.02963e-13
-7.65558e-14
-1.12045e-13
-1.08001e-13
2.62584e-14
2.86642e-14
1.15902e-13
1.62163e-13
-7.92387e-13
-2.09827e-12
-1.4541e-12
-6.35455e-13
-3.02214e-13
-1.45166e-13
-2.44653e-13
-2.34408e-13
-7.44742e-14
-1.05267e-13
-1.0394e-13
3.6388e-14
2.40892e-14
1.33494e-13
1.42551e-13
-7.37738e-13
-2.04371e-12
-1.46623e-12
-6.56903e-13
-3.17955e-13
-1.47606e-13
-2.3334e-13
-2.5669e-13
-7.13654e-14
-1.01458e-13
-1.06374e-13
3.97127e-14
2.72367e-14
1.17267e-13
1.21636e-13
-7.27579e-13
-1.96801e-12
-1.4569e-12
-6.72141e-13
-3.20318e-13
-1.55097e-13
-2.31802e-13
-2.31488e-13
-7.7166e-14
-1.01254e-13
-9.12095e-14
3.13443e-14
3.14122e-14
1.1256e-13
7.25809e-14
-1.32617e-13
-6.31871e-13
9.15204e-14
1.58993e-13
-1.19407e-13
1.88964e-13
6.49318e-14
-6.82543e-14
1.05681e-13
3.32347e-14
-4.67401e-14
6.8287e-14
1.41126e-14
-1.97485e-14
5.91121e-18
2.20327e-12
2.28449e-12
-1.3328e-13
2.94115e-13
1.48643e-13
-4.30923e-14
2.82228e-13
9.73236e-14
-1.17562e-14
9.34345e-14
4.99439e-14
-2.15812e-14
8.74029e-14
1.19022e-14
2.56468e-15
2.48467e-12
2.39633e-12
2.56129e-14
3.92201e-13
3.14465e-13
6.19165e-14
3.18376e-13
1.56584e-13
1.1133e-13
1.69321e-13
-1.37457e-15
4.04803e-14
4.3062e-14
-2.37711e-15
-1.42011e-15
2.56958e-12
2.1946e-12
1.36348e-13
6.37961e-13
3.88081e-13
2.0565e-13
4.39375e-13
1.9067e-13
1.83963e-13
2.58042e-13
8.67799e-15
6.45989e-14
8.74613e-14
-2.11292e-14
-6.90313e-14
2.37991e-12
2.32046e-12
2.76244e-13
6.20907e-13
2.99741e-13
2.30006e-13
4.25881e-13
1.18699e-13
1.99046e-13
1.73516e-13
2.33786e-14
2.95313e-14
3.96702e-14
-5.74872e-15
-6.3259e-14
2.09402e-12
2.40813e-12
4.75841e-13
4.9834e-13
2.87479e-13
1.85904e-13
3.54361e-13
1.19459e-13
1.30429e-13
1.5724e-13
1.10954e-14
-5.18894e-15
7.00383e-14
4.08391e-16
-2.13988e-14
1.88955e-12
2.40269e-12
7.3228e-13
4.68639e-13
2.68098e-13
2.15389e-13
3.49534e-13
1.29236e-13
1.52093e-13
1.34417e-13
4.24474e-14
5.32785e-14
1.22217e-13
7.90521e-14
1.07823e-13
1.63512e-12
2.40337e-12
9.59316e-13
4.69876e-13
2.81819e-13
2.39544e-13
3.01862e-13
1.4531e-13
1.75523e-13
1.68395e-13
8.69335e-14
1.2911e-13
2.30074e-14
1.83595e-14
1.77189e-13
1.35808e-12
2.36683e-12
1.13174e-12
5.07335e-13
2.8712e-13
2.18608e-13
2.76441e-13
1.84815e-13
1.33495e-13
1.91888e-13
1.00021e-13
9.21177e-14
3.79777e-14
1.00905e-14
4.18578e-14
1.17941e-12
2.29716e-12
1.25604e-12
5.34487e-13
2.86967e-13
1.97052e-13
2.67996e-13
1.9235e-13
1.43105e-13
1.56416e-13
9.96322e-14
5.21146e-14
2.25106e-14
2.35521e-14
-5.13883e-14
9.86119e-13
2.23118e-12
1.36407e-12
5.38587e-13
2.94843e-13
1.91114e-13
2.6491e-13
1.99585e-13
1.45906e-13
1.20946e-13
9.89308e-14
3.61344e-14
-6.64382e-14
6.94407e-15
-8.29711e-14
8.55152e-13
2.17135e-12
1.42584e-12
5.93776e-13
2.96805e-13
1.56113e-13
2.76925e-13
2.02963e-13
7.65558e-14
1.12045e-13
1.08001e-13
-2.62584e-14
-2.86642e-14
-1.15902e-13
-1.62163e-13
7.92387e-13
2.09827e-12
1.4541e-12
6.35455e-13
3.02214e-13
1.45166e-13
2.44653e-13
2.34408e-13
7.44742e-14
1.05267e-13
1.0394e-13
-3.6388e-14
-2.40892e-14
-1.33494e-13
-1.42551e-13
7.37738e-13
2.04371e-12
1.46623e-12
6.56903e-13
3.17955e-13
1.47606e-13
2.3334e-13
2.5669e-13
7.13654e-14
1.01458e-13
1.06374e-13
-3.97127e-14
-2.72367e-14
-1.17267e-13
-1.21636e-13
7.27579e-13
1.96801e-12
1.4569e-12
6.72141e-13
3.20318e-13
1.55097e-13
2.31802e-13
2.31488e-13
7.7166e-14
1.01254e-13
9.12095e-14
-3.13443e-14
-3.14122e-14
-1.1256e-13
-7.25809e-14
)
;
    }
    inlet
    {
        type            calculated;
        value           nonuniform List<scalar> 
15
(
-1299.9
-1300.2
-1299.9
-1299.9
-1300.2
-1299.9
-1299.9
-1300.2
-1299.9
-1299.9
-1300.2
-1299.9
-1299.9
-1300.2
-1299.9
)
;
    }
    inletWalls
    {
        type            calculated;
        value           uniform 0;
    }
    outletInlet
    {
        type            calculated;
        value           nonuniform List<scalar> 
15
(
198.275
527.478
785.41
982.017
1128.55
1249.99
1367.13
1486.58
1606.75
1731.81
1879.01
2054.91
2138.07
1729.9
634.151
)
;
    }
}


// ************************************************************************* //
