/*--------------------------------*- C++ -*----------------------------------*\
| =========                 |                                                 |
| \\      /  F ield         | OpenFOAM: The Open Source CFD Toolbox           |
|  \\    /   O peration     | Version:  4.1                                   |
|   \\  /    A nd           | Web:      www.OpenFOAM.org                      |
|    \\/     M anipulation  |                                                 |
\*---------------------------------------------------------------------------*/
FoamFile
{
    version     2.0;
    format      ascii;
    class       volVectorField;
    location    "23";
    object      U;
}
// * * * * * * * * * * * * * * * * * * * * * * * * * * * * * * * * * * * * * //

dimensions      [0 1 -1 0 0 0 0];

internalField   nonuniform List<vector> 
225
(
(1.0113e-14 0.852192 15.7946)
(8.90916e-15 -4.89458 12.1215)
(-3.1763e-15 -4.19551 12.1321)
(2.82053e-15 -3.60118 11.9966)
(7.76893e-16 -3.00468 11.8778)
(-2.24717e-16 -2.55319 11.6992)
(1.94578e-15 -2.20881 11.4769)
(2.72005e-16 -1.96603 11.2116)
(-2.39941e-17 -1.79854 10.916)
(1.01325e-15 -1.71237 10.5882)
(9.24557e-17 -1.83745 10.1561)
(1.50132e-17 -2.28567 9.53762)
(6.30837e-16 -2.51301 8.96376)
(-1.36715e-16 -1.06556 8.91351)
(4.09222e-20 1.76574 7.47096)
(1.59424e-14 -5.35016 22.493)
(1.58169e-14 -14.6049 21.394)
(-9.2267e-16 -13.2708 20.3411)
(2.40977e-15 -11.7697 19.5066)
(1.02914e-15 -11.1561 18.5044)
(-2.98319e-16 -10.6594 17.5174)
(2.06457e-15 -10.0901 16.5714)
(6.73829e-16 -9.525 15.6236)
(-8.13861e-17 -8.96544 14.6638)
(6.14121e-16 -8.3673 13.6946)
(3.45791e-16 -7.75708 12.7179)
(-1.49402e-16 -7.30334 11.7194)
(6.04374e-16 -7.01702 10.6244)
(8.2406e-17 -5.73085 9.16107)
(1.77548e-17 -2.30495 4.58304)
(1.92466e-14 -7.71565 23.9802)
(1.61937e-14 -16.7731 24.6729)
(1.77334e-16 -13.7365 23.9372)
(4.23448e-15 -12.3062 22.6249)
(2.55625e-15 -11.6447 21.2414)
(4.28686e-16 -10.814 20.0013)
(3.34405e-15 -9.94025 18.7738)
(1.084e-15 -9.10011 17.5247)
(7.70806e-16 -8.28338 16.2654)
(1.96133e-15 -7.47525 15.0263)
(-9.51591e-18 -6.66763 13.8176)
(2.8027e-16 -5.84168 12.4301)
(6.60603e-16 -4.81395 10.2753)
(-1.64563e-17 -3.12631 6.68452)
(-9.8323e-18 -0.832162 1.68992)
(1.77818e-14 -8.50258 22.0462)
(1.51929e-14 -16.621 24.332)
(9.43918e-16 -12.93 23.7971)
(4.41704e-15 -12.1536 21.9985)
(2.61543e-15 -11.4201 20.5028)
(1.47233e-15 -10.4936 19.1722)
(3.04209e-15 -9.63388 17.8167)
(1.241e-15 -8.82359 16.459)
(1.3014e-15 -8.05362 15.1229)
(1.7717e-15 -7.32378 13.8164)
(5.19447e-17 -6.55249 12.4394)
(4.28495e-16 -5.49092 10.5831)
(5.80728e-16 -3.78535 7.50882)
(4.63432e-17 -1.49378 2.76625)
(-6.69898e-16 0.153271 -1.77298)
(1.62642e-14 -8.47616 19.748)
(1.58928e-14 -16.3601 24.312)
(1.73408e-15 -13.099 23.6602)
(4.10382e-15 -12.628 21.5365)
(1.7642e-15 -11.8565 20.0248)
(1.37249e-15 -10.9574 18.6637)
(2.83141e-15 -10.1698 17.2587)
(5.73139e-16 -9.40277 15.8711)
(1.24561e-15 -8.65258 14.5236)
(1.13071e-15 -7.9305 13.2135)
(-6.53869e-17 -7.16588 11.8292)
(1.19782e-16 -6.11618 9.99632)
(1.68299e-16 -4.42408 7.15565)
(-3.97967e-16 -2.30535 3.288)
(-8.04099e-16 -0.787244 0.317791)
(1.47208e-14 -8.02194 17.5537)
(1.6713e-14 -16.0195 24.5277)
(3.42161e-15 -13.6434 24.0461)
(3.44995e-15 -12.9943 21.7651)
(2.03931e-15 -12.1264 20.2157)
(1.4432e-15 -11.2247 18.847)
(2.4532e-15 -10.4389 17.4341)
(8.86288e-16 -9.64887 16.0433)
(1.09431e-15 -8.86035 14.6933)
(1.08855e-15 -8.09324 13.3817)
(1.5229e-16 -7.2973 12.0171)
(2.22839e-16 -6.2846 10.2818)
(4.84867e-16 -4.73304 7.72096)
(3.60429e-16 -2.75617 4.37251)
(8.59741e-16 -0.949437 1.29742)
(1.32154e-14 -7.33746 15.2536)
(1.66548e-14 -15.4909 24.355)
(5.15405e-15 -14.0225 24.4218)
(3.24471e-15 -13.1278 22.0675)
(1.90632e-15 -12.1447 20.4401)
(1.59883e-15 -11.2358 19.0547)
(2.42006e-15 -10.4361 17.6437)
(9.57437e-16 -9.61982 16.2576)
(1.18938e-15 -8.81015 14.9066)
(9.30663e-16 -8.02723 13.5919)
(4.58737e-16 -7.22395 12.2368)
(7.47831e-16 -6.24027 10.5488)
(8.46191e-16 -4.78754 8.10753)
(1.72454e-16 -2.91415 4.9472)
(1.66927e-15 -1.01091 1.79746)
(1.10583e-14 -6.55627 13.033)
(1.66396e-14 -14.847 23.8164)
(6.59889e-15 -14.2638 24.669)
(3.20632e-15 -13.2372 22.3215)
(1.95116e-15 -12.1674 20.5831)
(1.5499e-15 -11.2657 19.1666)
(2.08969e-15 -10.4651 17.7586)
(1.00605e-15 -9.64314 16.3766)
(1.07748e-15 -8.83494 15.0245)
(1.24095e-15 -8.05529 13.7073)
(6.01882e-16 -7.25502 12.3576)
(7.0354e-16 -6.28692 10.6996)
(1.59273e-16 -4.89103 8.33101)
(1.27111e-16 -3.08526 5.26772)
(7.30007e-16 -1.12223 2.04398)
(9.40184e-15 -5.77842 11.1239)
(1.63853e-14 -14.1745 23.0907)
(7.70997e-15 -14.4412 24.8462)
(3.51222e-15 -13.3963 22.6147)
(1.9877e-15 -12.2528 20.7553)
(1.35225e-15 -11.3492 19.2955)
(1.91377e-15 -10.5477 17.8904)
(1.27945e-15 -9.72541 16.5109)
(7.20369e-16 -8.91942 15.1561)
(1.32841e-15 -8.14022 13.8351)
(6.92435e-16 -7.33995 12.4864)
(3.57203e-16 -6.38016 10.8513)
(2.62915e-16 -5.02352 8.54675)
(6.98552e-17 -3.26579 5.55834)
(-6.46994e-16 -1.23753 2.24765)
(7.96611e-15 -5.0851 9.59947)
(1.5903e-14 -13.5192 22.3002)
(8.65324e-15 -14.5349 24.9522)
(3.56343e-15 -13.5531 22.9352)
(1.98664e-15 -12.3447 20.9698)
(1.31033e-15 -11.425 19.4565)
(1.7396e-15 -10.6173 18.0505)
(1.33161e-15 -9.79438 16.672)
(9.22627e-16 -8.98819 15.3135)
(9.34187e-16 -8.20615 13.9873)
(6.89742e-16 -7.40465 12.6355)
(2.67167e-16 -6.45139 11.0132)
(-1.92105e-16 -5.12515 8.75501)
(1.63048e-16 -3.40646 5.81943)
(-6.55957e-16 -1.319 2.43085)
(6.67668e-15 -4.53882 8.46244)
(1.5497e-14 -12.9256 21.5504)
(9.3146e-15 -14.5349 24.9757)
(3.7055e-15 -13.6653 23.2209)
(2.09168e-15 -12.4128 21.1811)
(1.10563e-15 -11.4735 19.612)
(1.89241e-15 -10.6589 18.2003)
(1.44509e-15 -9.8369 16.8208)
(7.35026e-16 -9.03199 15.4584)
(8.3727e-16 -8.24849 14.1268)
(7.67888e-16 -7.44639 12.769)
(-1.27627e-16 -6.49761 11.1496)
(-4.5993e-16 -5.19244 8.91826)
(-6.18043e-16 -3.50174 6.01035)
(-1.13297e-15 -1.36372 2.5424)
(5.92011e-15 -4.17051 7.70293)
(1.50579e-14 -12.4379 20.928)
(9.82841e-15 -14.4733 24.9365)
(4.11064e-15 -13.7315 23.4377)
(2.08015e-15 -12.4592 21.3592)
(9.98423e-16 -11.5039 19.7404)
(1.91712e-15 -10.6832 18.3206)
(1.501e-15 -9.86357 16.9391)
(4.95307e-16 -9.06117 15.5729)
(7.75677e-16 -8.27762 14.2364)
(7.47675e-16 -7.47491 12.8709)
(-2.77066e-16 -6.5268 11.2464)
(-1.39949e-16 -5.233 9.02638)
(-8.85384e-16 -3.55798 6.12606)
(-1.31464e-15 -1.37734 2.57265)
(5.38699e-15 -3.97358 7.27995)
(1.44992e-14 -12.0684 20.4615)
(1.00888e-14 -14.3842 24.8625)
(4.35284e-15 -13.7598 23.5826)
(2.09219e-15 -12.4874 21.4968)
(1.00497e-15 -11.5228 19.8405)
(1.664e-15 -10.6965 18.4119)
(1.71962e-15 -9.87988 17.0278)
(4.80533e-16 -9.08049 15.6583)
(7.28838e-16 -8.29718 14.3169)
(7.61735e-16 -7.49311 12.9421)
(-2.99857e-16 -6.54209 11.306)
(-1.66786e-16 -5.2509 9.08422)
(-8.41649e-16 -3.57876 6.17533)
(-1.13486e-15 -1.36517 2.53884)
(5.04279e-15 -3.90391 7.11047)
(1.41357e-14 -11.8313 20.1818)
(1.01276e-14 -14.2999 24.79)
(4.5357e-15 -13.7667 23.6684)
(2.18842e-15 -12.5018 21.5897)
(1.02183e-15 -11.5319 19.9094)
(1.63041e-15 -10.7002 18.4744)
(1.7609e-15 -9.88532 17.0882)
(4.94039e-16 -9.08775 15.7171)
(7.21578e-16 -8.30391 14.3728)
(7.15425e-16 -7.49767 12.9905)
(-2.74918e-16 -6.543 11.3432)
(-1.59523e-16 -5.25325 9.11707)
(-8.52752e-16 -3.58353 6.20144)
(-8.42045e-16 -1.35006 2.50639)
(5.02213e-15 -4.03909 7.28629)
(1.36173e-14 -11.6268 19.9518)
(1.00929e-14 -14.1917 24.6679)
(4.65315e-15 -13.7465 23.7083)
(2.211e-15 -12.5067 21.6738)
(1.08087e-15 -11.5393 19.9774)
(1.60474e-15 -10.6996 18.5351)
(1.59447e-15 -9.887 17.1438)
(5.43004e-16 -9.09053 15.7694)
(7.00972e-16 -8.30496 14.4183)
(6.26239e-16 -7.4899 13.0147)
(-2.11132e-16 -6.51526 11.3281)
(-2.17463e-16 -5.20589 9.06116)
(-7.89418e-16 -3.50154 6.08273)
(-4.834e-16 -1.25244 2.3073)
)
;

boundaryField
{
    inletFace
    {
        type            zeroGradient;
    }
    inlet
    {
        type            fixedValue;
        value           uniform (0 8.7 15);
    }
    inletWalls
    {
        type            noSlip;
    }
    outletInlet
    {
        type            zeroGradient;
    }
}


// ************************************************************************* //
