/*--------------------------------*- C++ -*----------------------------------*\
| =========                 |                                                 |
| \\      /  F ield         | OpenFOAM: The Open Source CFD Toolbox           |
|  \\    /   O peration     | Version:  4.1                                   |
|   \\  /    A nd           | Web:      www.OpenFOAM.org                      |
|    \\/     M anipulation  |                                                 |
\*---------------------------------------------------------------------------*/
FoamFile
{
    version     2.0;
    format      ascii;
    class       surfaceScalarField;
    location    "8";
    object      phi;
}
// * * * * * * * * * * * * * * * * * * * * * * * * * * * * * * * * * * * * * //

dimensions      [0 3 -1 0 0 0 0];

internalField   nonuniform List<scalar> 
13220
(
-889.275
2189.16
-1375.5
1786.41
-1828.85
1753.24
-2170.18
1641.22
-2426.87
1556.89
-2601.76
1474.78
-2696.18
1394.31
-2709.25
1313.26
-2640.51
1231.15
-2494.34
1153.73
-2282.96
1088.81
-1997.41
1014.34
-1572.81
875.282
-936.628
664.007
363.271
27.5633
2161.58
12.7514
1801.2
-88.5887
1854.55
-164.671
1717.28
-246.285
1638.48
-313.977
1542.45
-367.496
1447.81
-404.467
1350.22
-423.949
1250.62
-413.055
1142.82
-335.152
1010.9
-173.457
852.626
-16.0921
717.888
7.29231
640.577
370.56
-174.783
2336.35
-413.521
2039.92
-650.792
2091.81
-825.412
1891.88
-993.04
1806.09
-1130
1679.39
-1249.2
1567
-1353.75
1454.75
-1440.49
1337.34
-1470.82
1173.12
-1344.61
884.666
-958.019
465.949
-434.433
194.165
-81.158
287.07
289.402
-59.2859
2395.62
-195.577
2176.2
-300.201
2196.43
-372.654
1964.32
-447.266
1880.69
-503.266
1735.38
-551.247
1614.97
-590.513
1494
-625.997
1372.8
-658.77
1205.88
-675.93
901.801
-625.389
415.418
-475.238
44.0162
-216.695
28.5261
72.7054
100.325
2295.3
48.0504
2228.47
56.7412
2187.73
76.3098
1944.75
93.8116
1863.19
117.758
1711.43
143.662
1589.06
172.771
1464.89
200.57
1345
199.625
1206.82
108.332
993.114
-126.199
649.859
-344.835
262.55
-313.021
-3.39134
-240.313
156.613
2138.68
127.789
2257.3
158.944
2156.58
197.98
1905.72
237.509
1823.66
279.727
1669.21
324.315
1544.48
370.984
1418.22
419.99
1296
455.695
1171.13
434.023
1014.78
295.105
788.869
74.4405
483.392
-50.3183
121.598
-290.632
149.024
1989.66
135.155
2271.17
158.195
2133.54
189.819
1874.1
223.104
1790.38
257.543
1634.78
292.159
1509.87
329.427
1380.96
368.539
1256.9
404.318
1135.35
416.979
1002.13
370.231
835.571
253.982
599.591
87.9491
287.553
-202.68
123.844
1865.83
120.295
2274.73
133.576
2120.27
151.857
1855.83
174.831
1767.42
196.862
1612.76
217.065
1489.68
239.371
1358.66
263.205
1233.07
285.452
1113.12
298.588
988.999
284.139
850.079
224.917
658.884
115.084
397.56
-87.5969
98.71
1767.12
114.195
2259.25
127.09
2107.38
140.864
1842.06
163.574
1744.72
180.271
1596.07
194.283
1475.67
201.663
1351.29
208.252
1226.49
215.293
1106.08
218.776
985.522
210.333
858.51
174.884
694.326
97.9277
474.496
10.3337
69.0072
1698.12
111.021
2217.24
132.694
2085.72
152.462
1822.3
184.358
1712.83
211.258
1569.17
239.531
1447.4
264.585
1326.24
273.774
1217.3
273.843
1106.02
267.2
992.167
249.338
876.408
205.641
738.059
117.356
562.875
127.69
41.2832
1656.85
133.841
2124.69
202.759
2016.81
256.188
1768.88
309.51
1659.51
367.677
1511.01
437.914
1377.17
523.897
1240.26
571.989
1169.22
579.314
1098.71
550.647
1020.84
482.536
944.518
367.318
853.282
208.404
721.8
336.094
-66.8695
1723.73
-81.5494
2139.38
-73.1176
2008.38
-68.1515
1763.92
-50.0635
1641.44
-4.28165
1465.24
88.1732
1284.73
236.748
1091.7
375.901
1030.08
467.664
1006.96
504.977
983.536
486.035
963.486
390.275
949.067
228.881
883.228
564.976
258.674
1465.06
329.646
2068.41
379.192
1958.84
346.472
1796.65
287.973
1699.95
213.938
1539.28
154.283
1344.39
132.705
1113.28
184.585
978.204
283.454
908.097
387.729
879.268
457.136
894.084
429.955
976.255
280.561
1032.63
845.537
-1182.78
2647.84
-2029.39
2915.02
-2686.53
2615.99
-3261.56
2371.68
-3611.93
2050.32
-3680.49
1607.84
-3411.88
1075.78
-2874.91
576.316
-2168.35
271.646
-1433.72
173.469
-741.224
186.774
-169.817
322.681
199.825
606.616
318.482
913.976
1164.02
-2876.34
-4384.52
-5324.32
-5854.88
-6060.69
-6107.39
-6055.54
-5931.64
-5549.59
-4832.49
-4241.03
-3555.02
-2647.61
-1641.52
-7.54732e-05
-2139.37
2139.37
-2139.37
-2139.37
-2139.37
-3874.97
1735.61
-3874.97
-3874.97
-3874.97
-5170.67
1295.69
-5170.67
-5170.67
-6033.51
862.839
-6033.51
-6033.51
-6033.51
-6549.16
515.654
-6549.16
-6549.16
-6868.24
319.079
-6868.24
-6868.24
-6868.24
-6483.91
-384.335
-6483.91
-6483.91
-6483.91
-4997.35
-1486.56
-4997.35
-4997.35
-2264.03
-2733.32
-2264.03
-2264.03
-2264.03
1607.21
-3871.24
1607.21
1607.21
6017.68
-4410.47
6017.68
6017.68
6017.68
10292
-4274.37
10292
10292
10292
14041.7
-3749.65
14041.7
14041.7
17260.3
-3218.55
17260.3
17260.3
17260.3
19756
-2495.72
19756
19756
19756
21588.9
-1832.9
21588.9
21588.9
22920.3
-1331.39
22920.3
22920.3
22920.3
23700.8
-780.575
23700.8
23700.8
24070.4
-369.55
24070.4
24070.4
24070.4
24011.8
58.6175
24011.8
24011.8
24011.8
23616.6
395.224
23616.6
23616.6
22926.6
689.935
22926.6
22926.6
22683.7
22506.1
22480.5
21504.8
925.36
21509.8
21504.7
21486.7
21468.9
21454.1
21434.3
21404
21329.4
20236.4
1000.52
20201.9
20168.6
20123.4
20040.4
19962
19893.5
19850.5
19795.8
18591.3
1098.57
18519.7
18462.9
18400.2
18324.4
18234.1
18130.7
18025.3
17927.1
17833.7
16838.7
884.119
16780.5
16745.1
16721.9
16713.2
16718.9
16774.4
16863
16954.3
15110.8
1904.12
15205.5
15337.3
15523
15711.8
15903.9
16100.8
16302.2
16601.6
14886.7
2009.63
15191.9
15513.4
15830
16204.5
16616.1
17033.3
17457.9
17896.9
15998
2357.5
16518.5
17066.6
17609.6
18161.8
18725.9
19357.9
20005.7
20667.8
21351.4
18856.7
3166.33
19613.8
20444.8
21259.6
22083.7
22933.5
23839.2
24850
25887.5
22982.1
3871.89
24022.1
25152.4
25152.4
21743.6
3408.85
18481.2
3262.35
18481.2
16163.4
2317.86
16163.4
14514.3
1649.06
13221.3
1293.04
13221.3
12526.8
694.405
12191.3
335.517
12191.3
12370.1
-178.796
12370.1
12932.5
-562.327
13865
-932.503
13865
15018.4
-1153.4
15018.4
16199.4
-1181.02
17486.9
-1287.54
17486.9
18640.1
-1153.24
19793.5
-1153.37
19793.5
20851.3
-1057.82
20851.3
21790.1
-938.757
22710
-919.871
22710
23621
-911.074
23621
24521.6
-900.561
25463.5
-941.953
25463.5
26499.7
-1036.18
27591.3
-1091.57
27591.3
28831.4
-1240.14
28831.4
30137.2
-1305.73
31451.7
-1314.53
31451.7
32844
-1392.37
32844
34221.7
-1377.66
35479.9
-1258.15
35479.9
36763.2
-1283.32
37836.3
-1073.12
37836.3
38920.4
-1084.07
38920.4
39953.5
-1033.12
40733.6
-780.136
40733.6
41568
-834.382
41568
42391.3
-823.341
42955.9
-564.6
42955.9
43683
-727.091
44132.7
-449.697
44132.7
44723.9
-591.171
44723.9
45375.4
-651.466
45784.9
-409.491
45784.9
46385
-600.118
46385
47075.4
-690.399
47555.2
-479.826
47555.2
48309.7
-754.524
48850.4
-540.665
48850.4
49636.3
-785.934
49636.3
-955.315
-2095.66
-6354.94
-1924.29
-5596.33
-1779.24
-4855.51
-1616.92
-3464.23
-1461.05
-1020.1
-1383.49
2545.25
-1380.47
4718.36
-1379.59
6657.31
-1382.62
8486.22
-1386.73
10292.2
-1379.83
12110.1
-1355.23
13877.7
-1313.42
15529.8
-1254.5
17057.6
-1175.83
18477
-1078.82
19697.9
-972.653
20617.4
-866.318
21171.5
-767.643
21332.1
-683.372
21132.7
-611.956
20709.7
-550.162
20131.2
-492.894
19482.1
-433.628
18805.1
-368.923
18064.3
-294.809
17223.5
-209.417
16187.8
-127.056
14855.9
-54.4037
13783.3
-8.39737
12223.8
44.5044
12030.4
100.199
11692.2
155.388
11246.7
209.756
11113.4
253.577
10970.4
279.185
9314.55
292.76
7521.71
352.803
14982.5
340.28
14284.1
246.827
5373.75
196.141
8517.09
118.45
15885.2
53.9145
19871.5
-80.5037
7236.11
-180.142
-24804.8
-0.447423
-25658.6
203.779
-20147.5
646.746
-13521.5
1308.08
-8937.46
1827.69
-3874.3
2267.44
3733.36
2456.23
11745
2611.98
21022.1
3271.01
34064.3
4204.39
50544.1
4856.2
62194.2
4869.6
59904
4076.86
39140.1
2733.74
18090.2
1850.01
23485.5
1694.62
33558.1
1658.82
32986.3
1644.45
30202.4
1637.56
27686.6
1627.31
25371.2
1560.98
23105.6
1548.41
19071.4
516.023
7136.99
-102.277
-10620.5
872.993
-39770.2
1786.79
-52070.9
2378.57
-54278.9
2539.9
-53384.3
2444.98
-51739.9
2205.56
-50523.5
1901.09
-50144.9
1534.27
-50240.7
1241.5
-50990.6
-52115
-2008.71
-6475.55
-1837.37
-5767.68
-1694.58
-4998.3
-1532.62
-3626.19
-1354.15
-1198.56
-1271.59
2462.68
-1319.06
4765.84
-1353.44
6691.69
-1369
8501.78
-1376.47
10299.7
-1373.19
12106.8
-1352.42
13856.9
-1313.57
15491
-1256.93
17000.9
-1180.31
18400.3
-1085.21
19602.8
-980.582
20512.8
-875.302
21066.2
-777.026
21233.8
-692.451
21048.2
-620.255
20637.5
-557.405
20068.3
-498.961
19423.7
-438.549
18744.7
-372.491
17998.3
-296.73
17147.7
-208.97
16100.1
-125.939
14772.9
-55.7989
13713.1
-12.245
12180.3
42.8153
11975.4
98.5058
11636.5
153.677
11191.5
208.03
11059.1
251.183
10927.3
273.974
9291.76
281.751
7513.93
349.479
14914.8
338.683
14294.9
219.249
5493.18
178.143
8558.2
110.014
15953.3
88.1401
19893.4
1.75038
7322.5
-37.1636
-24765.9
215.709
-25911.5
352.557
-20284.3
797.12
-13966
1562.96
-9703.3
2229.11
-4540.45
2687.29
3275.18
2710.88
11721.4
2748.98
20984
3292.92
33520.4
4171.91
49665.1
4804.35
61561.8
4799.61
59908.7
3985.36
39954.3
2681.01
19394.5
1831.19
24335.3
1680.49
33708.8
1651.84
33014.9
1643.84
30210.4
1643.78
27686.7
1643.1
25371.9
1579.95
23168.7
1559.39
19092
468.033
8228.34
-205.645
-9946.83
830.06
-40805.9
1764.15
-53005
2324.31
-54839.1
2438.78
-53498.8
2320.8
-51621.9
2085.63
-50288.3
1806.54
-49865.8
1469.36
-49903.5
1095.42
-50616.6
-51805.5
-1954.77
-6599.44
-1785.54
-5936.91
-1640.41
-5143.42
-1472.79
-3793.81
-1271.09
-1400.26
-1163.1
2354.69
-1217.91
4820.65
-1291.14
6764.92
-1340.14
8550.78
-1360.7
10320.3
-1361.44
12107.5
-1345.28
13840.8
-1311.65
15457.4
-1259.06
16948.3
-1185.7
18327
-1093.56
19510.6
-991.391
20410.7
-887.826
20962.7
-790.459
21136.5
-705.944
20963.6
-633.117
20564.7
-569.198
20004.4
-509.432
19363.9
-447.566
18682.9
-379.806
17930.5
-301.672
17069.6
-210.73
16009.1
-125.887
14688
-57.6668
13644.9
-17.6692
12140.3
38.8328
11918.9
95.4702
11579.9
150.757
11136.2
205.232
11004.6
247.227
10885.3
266.821
9272.17
273.279
7507.48
342.572
14845.5
327.771
14309.7
201.958
5619
162.125
8598.03
104.355
16011.1
126.361
19871.4
63.8008
7385.06
68.4777
-24770.6
355.33
-26198.3
460.236
-20389.2
910.496
-14416.3
1751.15
-10544
2531.53
-5320.84
3108.39
2698.33
3109.39
11720.4
2974.99
21118.4
3346.1
33149.3
4143.79
48867.4
4738.62
60966.9
4695.13
59952.2
3806.88
40842.6
2536.32
20665.1
1774.47
25097.1
1644.6
33838.6
1636.84
33022.7
1641.62
30205.6
1652.48
27675.8
1663.09
25361.3
1599.25
23232.6
1574.96
19116.3
481.838
9321.46
-235.697
-9229.3
795.402
-41837
1732.18
-53941.8
2268.57
-55375.5
2360.61
-53590.8
2236.33
-51497.6
2010
-50062
1749.62
-49605.5
1432.78
-49586.7
1090.75
-50274.6
-51255.5
-1901.11
-6727.05
-1732.39
-6105.64
-1584.63
-5291.18
-1413.06
-3965.39
-1196.35
-1616.97
-1060.58
2218.91
-1103.81
4863.88
-1199.31
6860.42
-1286.96
8638.43
-1335.04
10368.3
-1346.69
12119.2
-1335.94
13830
-1308.24
15429.7
-1261.02
16901.1
-1191.94
18257.9
-1103.44
19422.1
-1004.25
20311.5
-902.799
20861.2
-806.642
21040.3
-722.373
20879.4
-649.026
20491.3
-584.057
19939.4
-522.899
19302.8
-459.487
18619.5
-389.954
17861
-309.434
16989.1
-214.889
15914.6
-126.208
14599.3
-58.0653
13576.7
-23.1231
12105.3
33.8818
11861.8
91.6968
11522.1
147.314
11080.6
201.905
10950
242.908
10844.3
260.318
9254.76
265.676
7502.12
333.606
14777.5
316.512
14326.8
188.285
5747.22
147.451
8638.86
97.0297
16061.5
148.662
19819.8
132.709
7401.02
189.726
-24827.6
497.311
-26505.9
575.09
-20467
1041.41
-14882.6
1961.13
-11463.7
2835.29
-6195.01
3545.61
1988.02
3600.24
11665.7
3305.97
21412.7
3446.72
33008.6
4125.51
48188.6
4666.83
60425.6
4547.39
60071.6
3538.84
41851.1
2303.43
21900.5
1675.5
25725.1
1592.67
33921.5
1614.47
33000.9
1638.23
30181.9
1663.23
27650.8
1685.9
25338.6
1620.79
23297.7
1586.63
19150.4
483.672
10424.4
-275.786
-8469.84
762.153
-42875
1702.81
-54882.4
2213.28
-55885.9
2279.15
-53656.7
2146.76
-51365.3
1929.28
-49844.5
1688.62
-49364.8
1393.22
-49291.3
1069.97
-49951.4
-50940
-1853.47
-6856.81
-1685.43
-6273.67
-1534.55
-5442.06
-1359.18
-4140.75
-1130.45
-1845.69
-962.949
2051.41
-985.506
4886.44
-1086.54
6961.45
-1205.24
8757.13
-1289.81
10452.9
-1324.18
12153.6
-1323.77
13829.6
-1303.13
15409
-1262.41
16860.4
-1198.95
18194.4
-1115.17
19338.4
-1019.71
20216
-920.949
20762.5
-826.406
20945.8
-742.608
20795.6
-668.825
20417.5
-602.768
19873.4
-540.089
19240.1
-474.966
18554.3
-403.515
17789.5
-320.546
16906.1
-221.846
15815.9
-127.578
14505.1
-57.5319
13506.7
-28.7092
12076.5
27.8663
11805.3
87.0376
11462.9
143.2
11024.4
197.985
10895.2
238.305
10804
254.218
9238.84
257.265
7499.07
323.52
14711.3
305.274
14345
173.975
5878.52
131.466
8681.37
87.0967
16105.9
159.074
19747.8
210.246
7349.84
312.114
-24929.4
619.3
-26813.1
682.48
-20530.2
1176.08
-15376.2
2175.97
-12463.6
3151
-7170.03
3977.56
1161.46
4138.28
11505
3749.77
21801.2
3618.34
33140
4129.26
47677.7
4594.37
59960.5
4355.34
60310.7
3211.46
42995
2020.4
23091.5
1539.35
26206.1
1528.43
33932.4
1586.56
32942.7
1633.99
30134.5
1676.01
27608.8
1711.54
25303.1
1644.82
23364.4
1595.66
19199.6
488.622
11531.5
-299.647
-7681.57
732.322
-43906.9
1671.54
-55821.7
2155.07
-56369.5
2197.73
-53699.4
2060.52
-51228
1853.68
-49637.7
1632.81
-49143.9
1358.2
-49016.7
1025.07
-49618.2
-50394.8
-1810.77
-6988.23
-1642.77
-6441.68
-1488.07
-5596.76
-1308.67
-4320.16
-1069.78
-2084.58
-867.732
1849.36
-868.479
4887.19
-963.338
7056.31
-1099.89
8893.69
-1220.47
10573.5
-1287.72
12220.8
-1306.25
13848.1
-1295.87
15398.6
-1262.83
16827.4
-1206.22
18137.8
-1128.42
19260.6
-1037.65
20125.2
-942.275
20667.1
-849.858
20853.4
-766.853
20712.6
-692.784
20343.5
-625.648
19806.2
-561.348
19175.8
-494.339
18487.3
-420.769
17716
-335.135
16820.5
-231.796
15712.5
-130.695
14404
-57.0796
13433.1
-34.7928
12054.2
20.5131
11750
81.3606
11402
138.318
10967.5
193.501
10840.1
233.393
10764.1
248.114
9224.12
248.147
7499.04
312.551
14646.9
293.377
14364.2
158.727
6013.17
113.315
8726.78
73.903
16145.3
160.816
19660.9
290.998
7219.66
430.022
-25068.5
712.458
-27095.5
775.79
-20593.5
1311.38
-15911.8
2391.11
-13543.3
3475.05
-8253.97
4400.63
235.875
4696.09
11209.6
4289.86
22207.4
3879.33
33550.5
4166.53
47390.5
4523.73
59603.3
4137.93
60696.5
2880.73
44252.2
1738.6
24233.7
1386.99
26557.7
1458
33861.4
1556.05
32844.7
1629.9
30060.6
1691.06
27547.6
1739.67
25254.5
1671.84
23432.2
1605.3
19266.1
495.977
12640.8
-313.442
-6872.15
707.439
-44927.8
1642.38
-56756.6
2098.5
-56825.6
2119.55
-53720.4
1979.06
-51087.6
1783.38
-49442
1581.64
-48942.2
1327.96
-48763
1058.9
-49349.2
-50026.3
-1772.55
-7120.75
-1604.16
-6610.06
-1445.11
-5755.8
-1261.37
-4503.9
-1014.57
-2331.39
-775.574
1610.37
-756.709
4868.32
-837.682
7137.28
-979.192
9035.2
-1128.33
10722.6
-1233.01
12325.5
-1279.58
13894.7
-1285.11
15404.2
-1261.92
16804.2
-1213.31
18089.2
-1142.62
19189.9
-1057.58
20040.2
-966.379
20575.9
-876.663
20763.6
-794.852
20630.8
-720.725
20269.3
-652.586
19738.1
-586.622
19109.8
-517.595
18418.3
-441.722
17640.1
-353.194
16732
-244.941
15604.3
-136.067
14295.1
-57.1492
13354.2
-41.21
12038.3
11.7591
11697
74.6393
11339.2
132.671
10909.4
188.5
10784.2
228.185
10724.4
241.935
9210.37
238.793
7502.18
300.84
14584.8
280.659
14384.4
143.029
6150.8
92.9581
8776.86
56.9887
16181.3
153.099
19564.8
371.218
7001.54
536.924
-25234.2
767.066
-27325.7
845.934
-20672.4
1437.95
-16503.8
2591.7
-14697
3792.18
-9454.45
4839.83
-811.775
5287.17
10762.2
4908.88
22585.7
4238.89
34220.5
4249.07
47380.3
4458.45
59393.9
3920.96
61234
2593.91
45579.3
1499.86
25327.7
1244.52
26813.1
1390.11
33715.8
1526.39
32708.4
1627.12
29959.9
1708.67
27466.1
1770.2
25193
1702.49
23500
1617.84
19350.8
510.534
13748.1
-312.318
-6049.3
689.588
-45929.7
1616.47
-57683.5
2044.55
-57253.7
2045.76
-53721.6
1903.49
-50945.3
1719.36
-49257.9
1536.15
-48759
1299.69
-48526.5
965.972
-49015.5
-49660.4
-1738.6
-7254.07
-1569.32
-6779.33
-1405.43
-5919.7
-1217.1
-4692.23
-965.826
-2582.66
-690.276
1334.82
-651.543
4829.59
-713.663
7199.4
-850.171
9171.7
-1017.61
10890
-1158.53
12466.4
-1239.95
13976.1
-1268.32
15432.5
-1258.72
16794.6
-1219.78
18050.3
-1157.3
19127.4
-1079.06
19961.9
-992.937
20489.8
-906.591
20677.3
-826.451
20550.6
-752.576
20195.4
-683.575
19669.1
-615.957
19042.2
-544.82
18347.2
-466.491
17561.8
-374.838
16640.3
-261.515
15491
-144.257
14177.8
-58.4185
13268.3
-47.5095
12027.4
1.69283
11647.8
66.7919
11274.1
126.212
10850
182.959
10727.5
222.689
10684.6
235.719
9197.34
229.277
7508.62
288.597
14525.5
267.296
14405.7
126.787
6291.31
70.1747
8833.47
36.0094
16215.4
134.55
19466.2
447.642
6688.45
623.286
-25409.8
773.281
-27475.6
883.591
-20782.7
1541.66
-17161.9
2752.6
-15908
4073.68
-10775.5
5298.85
-2036.94
5925.74
10135.3
5598.91
22912.6
4700.37
35119
4390.06
47690.6
4406.66
59377.3
3729.59
61911
2378.76
46930.1
1327.7
26378.8
1132.51
27008.2
1332.56
33515.7
1500.37
32540.6
1626.39
29833.9
1728.95
27363.5
1803.13
25118.8
1737.44
23565.6
1633.29
19454.9
532.101
14849.3
-294.751
-5222.45
680.908
-46905.4
1596
-58598.6
1995.5
-57653.2
1978.28
-53704.4
1835.08
-50802.1
1662.37
-49085.2
1497.24
-48593.9
1279.12
-48308.4
998.89
-48735.2
-49071
-1708.58
-7387.98
-1537.98
-6949.94
-1368.85
-6088.83
-1175.56
-4885.52
-922.445
-2835.77
-614.391
1026.76
-551.2
4766.4
-592.447
7240.65
-717.775
9297.03
-893.695
11066
-1065.47
12638.2
-1184.75
14095.4
-1242.5
15490.3
-1251.49
16803.6
-1224.92
18023.7
-1172.03
19074.5
-1101.64
19891.5
-1021.63
20409.8
-939.449
20595.1
-861.553
20472.7
-788.322
20122.2
-718.671
19599.5
-649.459
18973
-576.163
18273.9
-495.243
17480.8
-400.2
16545.3
-281.703
15372.5
-155.899
14052
-61.9572
13174.4
-53.4034
12018.8
-9.46759
11603.9
57.6744
11206.9
118.855
10788.8
176.831
10669.5
216.897
10644.6
229.461
9184.78
219.541
7518.54
276.012
14469
253.441
14428.3
109.75
6435
44.7245
8898.49
10.6269
16249.5
104.607
19372.3
515.005
6278.05
677.653
-25572.5
721.918
-27519.9
878.059
-20938.8
1599.94
-17883.8
2833.49
-17141.5
4265.17
-12207.2
5722.39
-3494.16
6592.36
9265.36
6358.34
23146.6
5265.19
36212.2
4601.65
48354.2
4381.05
59597.9
3586.73
62705.4
2247.31
48269.5
1226.81
27399.3
1059.41
27175.6
1289.19
33285.9
1479.23
32350.6
1627.84
29685.2
1751.74
27239.6
1838.23
25032.3
1777.36
23626.5
1650.71
19581.6
560.608
15939.4
-257.292
-4404.55
683.885
-47846.5
1582.92
-59497.6
1952.99
-58023.2
1918.29
-53669.7
1774.44
-50658.2
1612.62
-48923.3
1464.01
-48445.2
1264.62
-48109
1042.4
-48513
-48680.1
-1682.3
-7522.37
-1509.95
-7122.29
-1335.23
-6263.54
-1136.4
-5084.35
-881.071
-3091.1
-544.395
690.084
-453.419
4675.42
-474.469
7261.7
-585.91
9408.47
-762.268
11242.3
-957.042
12833
-1113.31
14251.6
-1205.17
15582.1
-1238.04
16836.4
-1227.51
18013.2
-1186.24
19033.2
-1124.91
19830.2
-1052.04
20336.9
-974.953
20518
-899.981
20397.7
-827.869
20050.1
-757.858
19529.4
-687.178
18902.3
-611.714
18198.4
-528.09
17397.2
-429.353
16446.5
-305.627
15248.7
-171.609
13918
-68.7503
13071.5
-58.8734
12008.9
-21.3885
11566.4
47.1528
11138.4
110.526
10725.5
170.076
10610
210.796
10603.9
223.135
9172.44
209.596
7532.08
263.21
14415.4
239.17
14452.3
91.8197
6582.35
16.5712
8973.74
-19.4819
16285.6
62.9106
19289.9
566.554
5774.41
687.5
-25693.4
605.056
-27437.5
816.047
-21149.8
1579.39
-18647.1
2778.27
-18340.4
4286.13
-13715.1
6002.18
-5210.21
7231.05
8036.5
7186.97
23190.6
5933.55
37465.6
4893.1
49394.6
4396.18
60094.8
3509.02
63592.5
2199.44
49579.1
1188.86
28409.9
1022.25
27342.2
1259.97
33048.2
1463.43
32147.1
1631.77
29516.9
1777.02
27094.4
1875.35
24934
1822.9
23679
1669.96
19734.5
596.673
17012.7
-196.842
-3611.03
701.066
-48744.5
1579.2
-60375.7
1918.57
-58362.6
1866.78
-53617.9
1721.94
-50513.4
1570.06
-48771.5
1436.74
-48311.9
1253.1
-47925.4
978.935
-48238.9
-48292.3
-1659.57
-7657.21
-1485.09
-7296.78
-1304.49
-6444.15
-1099.48
-5289.35
-841.136
-3349.44
-479.869
328.817
-358.304
4553.86
-361.325
7264.72
-457.852
9505
-628.671
11413.1
-837.651
13041.9
-1026.65
14440.6
-1154.86
15710.4
-1216.34
16897.9
-1225.98
18022.8
-1199.08
19006.3
-1148.37
19779.5
-1083.74
20272.3
-1012.73
20447
-941.474
20326.5
-871.045
19979.7
-801.048
19459.4
-729.103
18830.4
-651.519
18120.8
-565.098
17310.8
-462.348
16343.8
-333.361
15119.7
-191.812
13776.5
-79.4521
12959.2
-64.2798
11993.8
-33.6971
11535.8
35.0716
11069.6
101.157
10659.4
162.654
10548.5
204.366
10562.1
216.724
9160.08
199.486
7549.32
250.284
14364.6
224.554
14478
72.9876
6733.92
-14.1671
9060.9
-54.5366
16325.9
9.28046
19226
595.002
5188.69
640.928
-25739.3
417.551
-27214.1
680.243
-21412.5
1437.02
-19403.9
2526.94
-19430.3
4054.73
-15242.9
6007.63
-7163.1
7736.4
6307.73
8063.53
22863.5
6717.07
38812.1
5278.6
50833.1
4466.42
60907
3502.57
64556.4
2225.18
50856.5
1200.42
29434.6
1013.48
27529.2
1244.17
32817.5
1454.52
31936.7
1639.68
29331.8
1805.63
26928.4
1914.77
24824.8
1874.62
23719.1
1692.01
19917.1
642.164
18062.5
-109.953
-2858.92
735.009
-49589.4
1586.72
-61227.5
1893.48
-58669.4
1824.29
-53548.7
1677.53
-50366.7
1534.33
-48628.2
1415.32
-48192.9
1248.45
-47758.5
1027.34
-48017.7
-47714.7
-1640.29
-7792.5
-1463.32
-7473.75
-1276.57
-6630.9
-1064.75
-5501.18
-802.717
-3611.47
-422.851
-51.0487
-269.142
4400.15
-254.256
7249.84
-335.503
9586.25
-496.813
11574.5
-711.733
13256.9
-926.955
14655.9
-1091.12
15874.5
-1184.79
16991.6
-1218.66
18056.7
-1209.35
18997
-1171.37
19741.5
-1116.25
20217.1
-1052.34
20383.1
-985.703
20259.9
-917.631
19911.6
-848.108
19389.9
-775.18
18757.4
-695.588
18041.2
-606.303
17221.5
-499.23
16236.7
-364.91
14985.4
-216.579
13628.1
-94.4215
12837
-70.7854
11970.1
-45.9148
11510.9
21.3407
11002.4
90.6592
10590.1
154.512
10484.6
197.584
10519.1
210.22
9147.45
189.232
7570.31
237.313
14316.6
209.692
14505.7
53.2852
6890.33
-47.3217
9161.5
-94.498
16373.1
-55.8884
19187.4
593.442
4539.36
528.807
-25674.7
158.632
-26843.9
449.368
-21703.2
1130.29
-20084.8
2045.68
-20345.7
3544.63
-16741.8
5660.89
-9279.37
7964.93
4003.69
8908.9
21919.6
7634.14
40086.8
5784.99
52682.2
4608.1
62083.9
3564.23
65600.2
2308.6
52112.1
1248.77
30494.5
1026.92
27751
1242.67
32601.8
1455.66
31723.7
1654.42
29133
1839.38
26743.5
1957.5
24706.7
1933.41
23743.2
1717.86
20132.7
698.197
19082.2
6.14708
-2166.87
788.171
-50371.4
1607.22
-62046.5
1878.67
-58940.8
1791.08
-53461.1
1640.94
-50216.5
1504.82
-48492.1
1398.49
-48086.6
1248.68
-47608.7
1071.81
-47840.9
-47370
-1624.35
-7928.31
-1444.56
-7653.54
-1251.46
-6824
-1032.25
-5720.39
-765.538
-3878.18
-372.516
-444.071
-186.365
4214
-151.827
7215.3
-218.166
9652.59
-368.241
11724.5
-582.754
13471.4
-816.861
14890
-1014.28
16071.9
-1142.34
17119.7
-1204.05
18118.4
-1215.65
19008.6
-1193.02
19718.9
-1149.04
20173.2
-1093.33
20327.4
-1032.28
20198.8
-967.357
19846.7
-898.861
19321.4
-825.307
18683.9
-743.891
17959.8
-651.717
17129.3
-540.027
16125
-400.19
14845.6
-245.645
13473.6
-113.965
12705.3
-80.164
11936.3
-57.7124
11488.5
6.14049
10938.5
78.9461
10517.2
145.596
10418
190.426
10474.2
203.619
9134.25
178.843
7595.08
224.37
14271
194.705
14535.3
32.7404
7052.29
-82.4313
9276.68
-138.974
16429.7
-130.868
19179.3
555.872
3852.62
347.271
-25466.1
-166.736
-26329.9
102.412
-21972.4
639.299
-20621.7
1368.31
-21074.7
2847.68
-18221.2
5058.13
-11489.8
7839.1
1222.72
9568.93
20189.7
8663.91
40991.9
6457.64
54888.5
4849.06
63692.5
3689.19
66760.1
2433.74
53367.6
1323.99
31604.2
1058.66
28016.4
1256.64
32403.8
1469.53
31510.9
1678.66
28923.9
1880.32
26541.8
2005.12
24581.9
2000.79
23747.5
1748.34
20385.1
764.288
20066.2
151.752
-1554.33
863.086
-51082.8
1642.19
-62825.6
1874.75
-59173.4
1767.14
-53353.5
1611.67
-50061
1480.76
-48361.2
1385.46
-47991.3
1252.83
-47476.1
1089.11
-47677.1
-46845.4
-1611.68
-8064.78
-1428.74
-7836.48
-1229.13
-7023.61
-1002.16
-5947.36
-729.695
-4150.64
-325.618
-848.147
-104.575
3992.95
-50.4258
7161.15
-103.628
9705.79
-242.875
11863.8
-453.091
13681.6
-699.081
15136
-925.299
16298.1
-1088.37
17282.8
-1180.99
18211
-1216.6
19044.2
-1212.15
19714.4
-1181.44
20142.4
-1135.25
20281.2
-1080.78
20144.3
-1019.89
19785.8
-953.078
19254.6
-879.331
18610.1
-796.356
17876.8
-701.315
17034.3
-584.722
16008.4
-439.043
14699.9
-278.653
13313.2
-138.598
12565.3
-94.1008
11891.8
-69.5192
11463.9
-9.89117
10878.9
65.9938
10441.4
135.862
10348.1
182.871
10427.2
196.917
9120.21
168.322
7623.68
211.518
14227.8
179.743
14567.1
11.3856
7220.65
-118.957
9407.02
-187.396
16498.1
-213.855
19205.8
480.469
3158.29
100.615
-25086.3
-549.04
-25680.3
-370.929
-22150.5
-5.34356
-20987.3
614.921
-21695
2162.8
-19769.1
4482.28
-13809.3
7477.49
-1772.49
9901.72
17765.5
9705.94
41187.6
7345.31
57249.1
5244.78
65793
3884.76
68120.1
2590.44
54661.9
1418.54
32776.1
1104.64
28330.3
1284.3
32224.2
1495.53
31299.6
1712.71
28706.7
1929.29
26325.2
2059.13
24452.1
2078.57
23728.1
1784.51
20679.2
838.809
21011.9
323.348
-1038.87
962.221
-51721.6
1692.73
-63556.1
1882.07
-59362.7
1752.21
-53223.7
1589.14
-49898
1461.26
-48233.3
1374.78
-47904.8
1260.7
-47362
1181.99
-47598.4
-46486.8
-1602.21
-8202.06
-1415.8
-8022.89
-1209.57
-7229.84
-974.639
-6182.29
-695.815
-4429.47
-281.928
-1262.03
-21.1065
3732.13
49.7784
7090.26
8.38925
9747.18
-120.792
11993
-324.644
13885.4
-576.494
15387.8
-825.877
16547.5
-1022.78
17479.7
-1148.57
18336.8
-1210.99
19106.7
-1227.53
19731
-1212.56
20127.5
-1177.54
20246.2
-1130.76
20097.6
-1074.85
19729.9
-1010.48
19190.2
-937.053
18536.7
-852.862
17792.6
-755.025
16936.5
-633.268
15886.7
-481.306
14547.9
-315.324
13147.2
-168.871
12418.8
-113.64
11836.6
-82.6261
11432.9
-25.8639
10822.1
51.9705
10363.5
125.313
10274.7
174.905
10377.6
190.109
9105
157.664
7656.12
198.81
14186.7
164.974
14600.9
-10.6036
7396.23
-156.18
9552.59
-238.671
16580.6
-301.277
19268.4
367.415
2489.6
-197.771
-24521.1
-979.011
-24899
-953.756
-22175.8
-713.908
-21227.1
-61.5013
-22347.4
1650.84
-21481.4
4142.14
-16300.6
7156.63
-4786.98
9954.32
14967.8
10610.1
40531.9
8457.03
59402.2
5879.33
68370.7
4182.24
69817.2
2777.49
56066.7
1526.21
34027.4
1158.93
28697.5
1319.61
32063.5
1528.75
31090.5
1753.39
28482
1984.86
26093.8
2120.09
24316.8
2167.49
23680.7
1827.61
21019
919.982
21919.6
517.987
-636.876
1086.98
-52290.6
1759.49
-64228.6
1900.68
-59503.9
1745.92
-53068.9
1572.68
-49724.7
1445.34
-48106
1365.29
-47824.8
1267.51
-47264.2
1158.44
-47489.4
-46162.7
-1595.88
-8340.36
-1405.68
-8213.08
-1192.76
-7442.76
-949.774
-6425.28
-664.457
-4714.79
-246.043
-1680.45
57.1126
3428.98
143.727
7003.65
115.834
9775.07
-2.99992
12111.8
-198.992
14081.4
-452.053
15640.9
-718.536
16814
-946.179
17707.3
-1106.25
18496.9
-1197.93
19198.3
-1237.95
19771
-1241.35
20130.9
-1219.57
20224.4
-1181.78
20059.8
-1131.83
19679.9
-1070.74
19129.2
-998.233
18464.2
-913.241
17707.6
-812.725
16835.9
-685.595
15759.5
-526.855
14389.2
-355.489
12975.8
-204.859
12268.2
-139.085
11770.8
-98.5349
11392.3
-41.4903
10765.1
37.4391
10284.6
114.047
10198.1
166.537
10325.2
183.187
9088.35
146.846
7692.46
186.281
14147.3
150.576
14636.6
-32.9873
7579.79
-193.319
9712.93
-291.332
16678.6
-389.605
19366.7
220.745
1879.25
-529.423
-23770.9
-1440.19
-23988.3
-1585.45
-22030.5
-1383.36
-21429.2
-593.15
-23137.6
1274.6
-23349.2
3937.48
-18963.5
7062.72
-7912.22
9927.47
12103
11227.1
39232.3
9698.97
60930.3
6824.51
71245.2
4645.99
71995.7
3008.56
57704.1
1642.26
35393.7
1213.71
29126.1
1353.74
31923.4
1561.31
30882.9
1794.86
28248.5
2043.29
25845.3
2187.01
24173.1
2266.12
23601.6
1878.36
21406.8
1008.16
22789.8
734.043
-362.758
1237.91
-52794.5
1842.82
-64833.5
1930.42
-59591.5
1747.75
-52886.2
1561.58
-49538.6
1431.98
-47976.4
1355.95
-47748.7
1275.9
-47184.2
1239.62
-47453.1
-45703.3
-1592.66
-8479.93
-1398.38
-8407.37
-1178.72
-7662.41
-927.631
-6676.37
-635.667
-5006.75
-219.103
-2097.01
126.102
3083.77
230.835
6898.92
217.994
9787.91
109.801
12220
-77.1215
14268.3
-327.995
15891.8
-606.068
17092.1
-859.95
17961.2
-1054
18690.9
-1176.87
19321.2
-1242.52
19836.6
-1266.74
20155.1
-1260.55
20218.2
-1233.34
20032.6
-1190.39
19637
-1133.49
19072.2
-1062.6
18393.3
-977.283
17622.3
-874.242
16732.9
-741.609
15626.9
-575.626
14223.2
-399.044
12799.3
-245.797
12114.9
-170.247
11695.3
-118.447
11340.5
-57.5094
10704.1
23.0901
10204
102.376
10118.8
157.843
10269.7
176.149
9070.05
135.818
7732.79
173.945
14109.1
136.707
14673.9
-55.4115
7771.91
-229.538
9887.05
-343.752
16792.8
-476.332
19499.3
46.3587
1356.56
-874.082
-22850.5
-1898.99
-22963.3
-2189.59
-21739.9
-1962.8
-21656
-1045.09
-24055.3
847.057
-25241.3
3606
-21722.4
7045.97
-11352.2
9881.63
9267.38
11463
37650.9
10842.7
61550.6
8060.39
74027.5
5355.58
74700.5
3315.7
59744
1764.61
36944.8
1260.53
29630.2
1377.81
31806.2
1585.07
30675.7
1830.56
28003
2099.61
25576.3
2257.3
24015.4
2370.83
23488.1
1937.11
21840.5
1104.37
23622.5
968.693
-227.086
1415.07
-53240.9
1942.76
-65361.2
1970.96
-59619.7
1757.11
-52672.4
1555.06
-49336.5
1420.04
-47841.4
1344.2
-47672.9
1282.61
-47122.6
1327.08
-47497.6
-45409.3
-1592.54
-8620.99
-1393.9
-8606.01
-1167.5
-7888.81
-908.311
-6935.56
-609.243
-5305.82
-194.372
-2511.88
194.774
2694.63
316.475
6777.22
317.68
9786.71
219.069
12318.6
41.3012
14446.1
-205.156
16138.2
-490.546
17377.5
-765.798
18236.4
-992.241
18917.4
-1147.68
19476.6
-1240.72
19929.7
-1287.78
20202.2
-1299.6
20230
-1284.9
20017.9
-1250.11
19602.2
-1198.31
19020.5
-1129.86
18324.9
-1044.76
17537.2
-939.406
16627.5
-801.218
15488.7
-627.655
14049.7
-445.89
12617.5
-290.433
11959.5
-206.69
11611.5
-143.156
11277
-75.0636
10636
9.07488
10119.9
90.7985
10037.1
149.134
10211.4
169.029
9050.15
124.502
7777.32
161.788
14071.8
123.479
14712.2
-77.4466
7972.83
-264.017
10073.6
-394.339
16923.1
-551.289
19656.2
-157.346
962.619
-1213.02
-21794.8
-2320
-21856.4
-2716.55
-21343.4
-2466.51
-21906
-1544.91
-24976.9
239.009
-27025.2
3053.77
-24537.2
6830.5
-15128.9
9754.21
6343.67
11396.4
36008.8
11656.1
61290.8
9429.44
76254.1
6342.41
77787.5
3744.65
62341.7
1899.59
38789.8
1292.48
30237.3
1384.91
31713.7
1593.95
30466.6
1855.2
27741.7
2149.11
25282.4
2327.45
23837.1
2476.78
23338.7
2004.1
22313.2
1210.59
24416
1219.7
-236.2
1617.92
-53639.1
2059.07
-65802.4
2021.79
-59582.4
1773.33
-52423.9