/*--------------------------------*- C++ -*----------------------------------*\
| =========                 |                                                 |
| \\      /  F ield         | OpenFOAM: The Open Source CFD Toolbox           |
|  \\    /   O peration     | Version:  4.1                                   |
|   \\  /    A nd           | Web:      www.OpenFOAM.org                      |
|    \\/     M anipulation  |                                                 |
\*---------------------------------------------------------------------------*/
FoamFile
{
    version     2.0;
    format      ascii;
    class       volScalarField;
    location    "26";
    object      p;
}
// * * * * * * * * * * * * * * * * * * * * * * * * * * * * * * * * * * * * * //

dimensions      [0 2 -2 0 0 0 0];

internalField   nonuniform List<scalar> 
225
(
523.377
469.981
418.149
369.738
324.847
282.83
243.475
206.471
171.377
138.013
107.071
78.9323
49.9034
14.9846
-14.1676
56.9432
34.6822
28.9236
25.2133
19.7392
14.0318
8.87887
4.49012
1.0062
-1.45255
-2.64384
-2.14218
-0.0457319
1.8258
2.08598
-45.8392
-52.4822
-46.7152
-42.5684
-39.4777
-35.8824
-31.9961
-28.0587
-24.1543
-20.4385
-17.0929
-14.0258
-10.949
-8.29616
-7.06191
0.294572
-2.12345
2.46933
2.7935
2.84709
3.06229
2.97317
2.59587
2.01432
1.25515
0.298419
-0.810913
-1.7212
-1.87342
-1.56296
16.7225
14.3897
15.9434
13.8454
12.4266
11.1831
9.77312
8.39127
7.13384
6.04279
5.1418
4.42926
3.95168
3.91897
4.16383
7.49433
5.47132
6.4453
5.226
5.023
5.00724
4.91947
4.9528
5.10839
5.3519
5.67119
6.03407
6.35374
6.61045
6.78518
4.02292
2.86751
3.9531
3.63001
4.01684
4.41098
4.70996
5.06063
5.4172
5.74197
6.03167
6.28558
6.46381
6.54483
6.56054
5.7008
5.14301
5.99735
5.76835
5.96688
6.07938
6.1033
6.1486
6.1732
6.16837
6.14468
6.11688
6.08322
6.03737
5.98888
6.00812
5.68274
6.19355
5.91766
5.96049
5.92967
5.85459
5.80749
5.75185
5.69126
5.63199
5.57886
5.53213
5.48603
5.43482
4.6885
4.48081
4.82648
4.65007
4.72283
4.73177
4.71886
4.72704
4.72443
4.71765
4.70804
4.6933
4.67108
4.6358
4.57807
3.31855
3.20239
3.50004
3.44612
3.56572
3.6124
3.64101
3.67596
3.69257
3.69943
3.69741
3.68487
3.66081
3.62256
3.55703
2.34456
2.28438
2.53863
2.5399
2.65822
2.69958
2.72865
2.75573
2.76326
2.76116
2.74973
2.72881
2.69894
2.66015
2.5955
1.56534
1.53034
1.73265
1.74641
1.84557
1.87196
1.89429
1.91141
1.91173
1.90487
1.89028
1.86802
1.83845
1.8037
1.74582
0.880582
0.868437
1.02932
1.03399
1.11101
1.12461
1.14244
1.15452
1.15397
1.14903
1.13813
1.1211
1.0961
1.06493
1.01069
0.438469
0.399161
0.45503
0.422947
0.459109
0.440431
0.434091
0.420039
0.399135
0.376449
0.349833
0.321142
0.29071
0.260768
0.217756
)
;

boundaryField
{
    inletFace
    {
        type            zeroGradient;
    }
    inlet
    {
        type            zeroGradient;
    }
    inletWalls
    {
        type            zeroGradient;
    }
    outletInlet
    {
        type            fixedValue;
        value           uniform 0;
    }
}


// ************************************************************************* //
