/*--------------------------------*- C++ -*----------------------------------*\
| =========                 |                                                 |
| \\      /  F ield         | OpenFOAM: The Open Source CFD Toolbox           |
|  \\    /   O peration     | Version:  4.1                                   |
|   \\  /    A nd           | Web:      www.OpenFOAM.org                      |
|    \\/     M anipulation  |                                                 |
\*---------------------------------------------------------------------------*/
FoamFile
{
    version     2.0;
    format      ascii;
    class       surfaceScalarField;
    location    "26";
    object      phi;
}
// * * * * * * * * * * * * * * * * * * * * * * * * * * * * * * * * * * * * * //

dimensions      [0 3 -1 0 0 0 0];

internalField   nonuniform List<scalar> 
420
(
-949.879
2249.78
-1573.95
1924.28
-2054
1779.95
-2424.23
1670.13
-2699.86
1575.82
-2888.38
1488.42
-2993.06
1404.58
-3013.85
1321
-2949.61
1235.66
-2797.23
1147.52
-2551.17
1054.13
-2193
941.735
-1687.16
794.064
-1012.67
625.701
287.231
373.335
1876.44
442.748
1854.86
437.301
1785.39
406.698
1700.74
380.579
1601.94
359.898
1509.1
345.29
1419.19
337.534
1328.76
333.482
1239.71
326.952
1154.05
309.606
1071.48
267.462
983.877
191.424
870.102
111.448
705.683
398.679
33.5769
1842.87
-97.3872
1985.83
-253.613
1941.62
-371.12
1818.24
-473.183
1704.01
-567.532
1603.45
-651.75
1503.4
-725.798
1402.81
-788.077
1301.99
-837.31
1203.28
-868.229
1102.4
-856.091
971.738
-740.337
754.349
-434.285
399.632
-35.6058
28.7726
1814.09
-100.654
2115.25
-225.558
2066.53
-304.496
1897.18
-368.158
1767.67
-416.954
1652.24
-446.229
1532.68
-457.018
1413.59
-451.859
1296.83
-430.162
1181.58
-387.233
1059.47
-311.876
896.383
-192.865
635.34
-48.4089
255.173
-84.0141
169.624
1644.47
146.157
2138.72
123.732
2088.95
122.87
1898.04
126.94
1763.6
135.802
1643.38
149.1
1519.38
166.59
1396.1
186.94
1276.47
208.126
1160.4
229.125
1038.47
243.816
881.691
233
646.156
155.226
332.946
71.2149
223.073
1421.4
244.175
2117.62
234.738
2098.39
236.019
1896.76
240.366
1759.25
244.299
1639.45
246.54
1517.14
245.245
1397.4
241.158
1280.56
233.984
1167.57
221.377
1051.07
199.132
903.933
156.133
689.153
78.2988
410.784
149.516
203.312
1218.09
238.362
2082.57
213.609
2123.14
191.399
1918.97
177.191
1773.45
163.761
1652.88
150.026
1530.87
135.883
1411.54
121.058
1295.39
106.908
1181.72
92.8131
1065.16
75.7635
920.982
52.0198
712.898
19.0242
443.787
168.54
171.844
1046.24
221.969
2032.44
199.412
2145.7
170.397
1947.99
152.046
1791.8
137.664
1667.26
122.775
1545.76
108.576
1425.74
95.5799
1308.38
83.0979
1194.2
71.4791
1076.79
58.6329
933.832
40.3272
731.21
15.7578
468.366
184.295
146.088
900.154
210.044
1968.48
196.863
2158.88
170.044
1974.8
152.399
1809.45
139.529
1680.13
127.067
1558.22
113.865
1438.94
101.325
1320.93
89.4225
1206.1
76.986
1089.22
63.0908
947.731
44.3127
749.995
19.1751
493.507
203.463
116.755
783.398
184.837
1900.4
179.612
2164.1
154.296
2000.12
137.21
1826.53
123.991
1693.34
111.362
1570.85
98.9561
1451.34
86.1115
1333.77
73.876
1218.33
62.1115
1100.98
49.0319
960.807
32.8631
766.16
13.1898
513.175
216.648
83.1575
700.241
143.125
1840.43
144.675
2162.55
122.747
2022.05
106.137
1843.15
94.4508
1705.03
82.5691
1582.73
71.1582
1462.76
60.3788
1344.55
49.4606
1229.25
39.4348
1111.01
29.7523
970.483
18.0883
777.817
5.23939
526.016
221.889
51.2432
649
97.9285
1793.74
102.72
2157.76
87.3922
2037.38
73.1619
1857.38
63.1519
1715.05
54.2538
1591.63
44.8728
1472.15
36.1568
1353.28
28.1777
1237.24
20.4282
1118.77
13.6884
977.233
6.74465
784.771
-0.410068
533.172
221.488
25.1339
623.869
57.7274
1761.16
63.5298
2151.96
53.4999
2047.41
43.9283
1866.96
36.2183
1722.76
29.5933
1598.26
23.5529
1478.19
17.1087
1359.73
11.3544
1243
6.64048
1123.48
2.50096
981.381
-1.0593
788.337
-3.68363
535.797
217.81
1.42863
622.435
24.0692
1738.51
33.3729
2142.66
27.7421
2053.04
20.3917
1874.3
15.0967
1728.05
9.56469
1603.79
4.61597
1483.13
0.0783741
1364.26
-4.78959
1247.86
-8.30781
1126.98
-9.62868
982.682
-9.71565
788.399
-7.1389
533.217
210.67
-11.7139
-3.10992
1.47257
-0.391961
-5.08937
-8.84098
-11.7936
-15.2361
-18.099
-20.2248
-21.7801
-21.1122
-18.12
-12.3799
)
;

boundaryField
{
    inletFace
    {
        type            calculated;
        value           nonuniform List<scalar> 
450
(
-9.00205e-15
5.81728e-13
-2.14219e-13
-1.06107e-13
1.46492e-13
-1.97588e-13
-6.43745e-14
6.68818e-14
-1.04536e-13
-2.81721e-14
5.93868e-14
-3.07503e-14
-9.15723e-15
8.15216e-15
2.0385e-16
-2.11336e-12
-2.27187e-12
-4.04512e-14
-5.97749e-13
-2.79411e-13
2.47004e-14
-2.85264e-13
-1.41866e-13
4.95509e-15
-1.32056e-13
-4.92174e-14
4.82985e-14
-1.818e-14
-4.28255e-15
-1.38451e-15
-2.31681e-12
-2.39054e-12
-2.41269e-13
-6.69297e-13
-2.48232e-13
-1.02021e-13
-2.95627e-13
-9.25088e-14
-8.3896e-14
-9.70909e-14
-1.58229e-14
-2.16226e-14
-1.56046e-14
1.05641e-14
3.19658e-15
-2.53864e-12
-2.33841e-12
-3.72777e-13
-8.38752e-13
-2.17557e-13
-2.11652e-13
-4.11106e-13
-9.37049e-14
-1.44207e-13
-1.78159e-13
-1.04268e-14
-6.13417e-14
-7.9855e-14
3.94183e-14
7.54067e-14
-2.3302e-12
-2.40669e-12
-5.05696e-13
-7.69007e-13
-2.32385e-13
-2.32452e-13
-3.92986e-13
-1.28131e-13
-1.49804e-13
-1.73945e-13
-2.8387e-14
-3.78887e-14
-6.71049e-14
2.37486e-15
6.46656e-14
-2.04656e-12
-2.4185e-12
-6.78575e-13
-6.7884e-13
-2.46277e-13
-1.96382e-13
-3.66744e-13
-1.39759e-13
-1.28546e-13
-1.63217e-13
-2.62766e-14
-9.18533e-15
-5.03398e-14
1.01203e-14
3.25961e-14
-1.84484e-12
-2.45939e-12
-9.14238e-13
-6.54644e-13
-3.01113e-13
-2.19378e-13
-3.49517e-13
-1.75566e-13
-1.67378e-13
-1.73361e-13
-6.32865e-14
-5.70731e-14
-3.26727e-14
-6.20821e-14
-1.30746e-13
-1.62347e-12
-2.46248e-12
-1.1257e-12
-6.6121e-13
-3.39387e-13
-2.48925e-13
-3.30881e-13
-2.06869e-13
-2.04304e-13
-1.82623e-13
-1.07363e-13
-1.37381e-13
-2.89069e-14
-8.6242e-15
-2.34115e-13
-1.35845e-12
-2.42291e-12
-1.28648e-12
-6.76552e-13
-3.62946e-13
-2.38169e-13
-3.19021e-13
-2.24884e-13
-1.84313e-13
-1.94701e-13
-1.20998e-13
-1.12404e-13
-4.99508e-14
-1.03745e-14
-6.90773e-14
-1.16182e-12
-2.35475e-12
-1.40749e-12
-7.06127e-13
-3.72455e-13
-2.2197e-13
-3.0641e-13
-2.30854e-13
-1.58592e-13
-1.79302e-13
-1.2316e-13
-6.62252e-14
-4.9916e-14
-3.01982e-14
7.15568e-14
-9.73351e-13
-2.27721e-12
-1.50024e-12
-7.36617e-13
-3.77967e-13
-2.18968e-13
-2.72313e-13
-2.32659e-13
-1.49528e-13
-1.57127e-13
-1.25248e-13
-5.35197e-14
8.20451e-15
-1.33469e-14
1.01538e-13
-8.48762e-13
-2.20797e-12
-1.53251e-12
-7.74821e-13
-4.01192e-13
-1.90684e-13
-2.61965e-13
-2.42922e-13
-1.10125e-13
-1.5999e-13
-1.3864e-13
-5.85662e-15
-8.67365e-15
1.12561e-13
1.47851e-13
-7.89866e-13
-2.14202e-12
-1.55818e-12
-7.97351e-13
-4.18287e-13
-1.82713e-13
-2.54959e-13
-2.51519e-13
-1.09679e-13
-1.46739e-13
-1.38877e-13
3.50643e-15
-2.46756e-14
1.23339e-13
1.50211e-13
-7.44379e-13
-2.08924e-12
-1.57851e-12
-8.06868e-13
-4.18327e-13
-1.83633e-13
-2.44563e-13
-2.61616e-13
-1.056e-13
-1.41871e-13
-1.43472e-13
6.55724e-15
-1.87529e-14
1.03706e-13
1.26981e-13
-7.37146e-13
-2.01686e-12
-1.56481e-12
-8.14425e-13
-4.14041e-13
-1.91178e-13
-2.42054e-13
-2.48865e-13
-1.11097e-13
-1.43825e-13
-1.28392e-13
-2.87784e-15
-8.77973e-15
9.73918e-14
7.2615e-14
9.00205e-15
-5.81728e-13
2.14219e-13
1.06107e-13
-1.46492e-13
1.97588e-13
6.43745e-14
-6.68818e-14
1.04536e-13
2.81721e-14
-5.93868e-14
3.07503e-14
9.15723e-15
-8.15216e-15
-2.0385e-16
2.11336e-12
2.27187e-12
4.04512e-14
5.97749e-13
2.79411e-13
-2.47004e-14
2.85264e-13
1.41866e-13
-4.95509e-15
1.32056e-13
4.92174e-14
-4.82985e-14
1.818e-14
4.28255e-15
1.38451e-15
2.31681e-12
2.39054e-12
2.41269e-13
6.69297e-13
2.48232e-13
1.02021e-13
2.95627e-13
9.25088e-14
8.3896e-14
9.70909e-14
1.58229e-14
2.16226e-14
1.56046e-14
-1.05641e-14
-3.19658e-15
2.53864e-12
2.33841e-12
3.72777e-13
8.38752e-13
2.17557e-13
2.11652e-13
4.11106e-13
9.37049e-14
1.44207e-13
1.78159e-13
1.04268e-14
6.13417e-14
7.9855e-14
-3.94183e-14
-7.54067e-14
2.3302e-12
2.40669e-12
5.05696e-13
7.69007e-13
2.32385e-13
2.32452e-13
3.92986e-13
1.28131e-13
1.49804e-13
1.73945e-13
2.8387e-14
3.78887e-14
6.71049e-14
-2.37486e-15
-6.46656e-14
2.04656e-12
2.4185e-12
6.78575e-13
6.7884e-13
2.46277e-13
1.96382e-13
3.66744e-13
1.39759e-13
1.28546e-13
1.63217e-13
2.62766e-14
9.18533e-15
5.03398e-14
-1.01203e-14
-3.25961e-14
1.84484e-12
2.45939e-12
9.14238e-13
6.54644e-13
3.01113e-13
2.19378e-13
3.49517e-13
1.75566e-13
1.67378e-13
1.73361e-13
6.32865e-14
5.70731e-14
3.26727e-14
6.20821e-14
1.30746e-13
1.62347e-12
2.46248e-12
1.1257e-12
6.6121e-13
3.39387e-13
2.48925e-13
3.30881e-13
2.06869e-13
2.04304e-13
1.82623e-13
1.07363e-13
1.37381e-13
2.89069e-14
8.6242e-15
2.34115e-13
1.35845e-12
2.42291e-12
1.28648e-12
6.76552e-13
3.62946e-13
2.38169e-13
3.19021e-13
2.24884e-13
1.84313e-13
1.94701e-13
1.20998e-13
1.12404e-13
4.99508e-14
1.03745e-14
6.90773e-14
1.16182e-12
2.35475e-12
1.40749e-12
7.06127e-13
3.72455e-13
2.2197e-13
3.0641e-13
2.30854e-13
1.58592e-13
1.79302e-13
1.2316e-13
6.62252e-14
4.9916e-14
3.01982e-14
-7.15568e-14
9.73351e-13
2.27721e-12
1.50024e-12
7.36617e-13
3.77967e-13
2.18968e-13
2.72313e-13
2.32659e-13
1.49528e-13
1.57127e-13
1.25248e-13
5.35197e-14
-8.20451e-15
1.33469e-14
-1.01538e-13
8.48762e-13
2.20797e-12
1.53251e-12
7.74821e-13
4.01192e-13
1.90684e-13
2.61965e-13
2.42922e-13
1.10125e-13
1.5999e-13
1.3864e-13
5.85662e-15
8.67365e-15
-1.12561e-13
-1.47851e-13
7.89866e-13
2.14202e-12
1.55818e-12
7.97351e-13
4.18287e-13
1.82713e-13
2.54959e-13
2.51519e-13
1.09679e-13
1.46739e-13
1.38877e-13
-3.50643e-15
2.46756e-14
-1.23339e-13
-1.50211e-13
7.44379e-13
2.08924e-12
1.57851e-12
8.06868e-13
4.18327e-13
1.83633e-13
2.44563e-13
2.61616e-13
1.056e-13
1.41871e-13
1.43472e-13
-6.55724e-15
1.87529e-14
-1.03706e-13
-1.26981e-13
7.37146e-13
2.01686e-12
1.56481e-12
8.14425e-13
4.14041e-13
1.91178e-13
2.42054e-13
2.48865e-13
1.11097e-13
1.43825e-13
1.28392e-13
2.87784e-15
8.77973e-15
-9.73918e-14
-7.2615e-14
)
;
    }
    inlet
    {
        type            calculated;
        value           nonuniform List<scalar> 
15
(
-1299.9
-1300.2
-1299.9
-1299.9
-1300.2
-1299.9
-1299.9
-1300.2
-1299.9
-1299.9
-1300.2
-1299.9
-1299.9
-1300.2
-1299.9
)
;
    }
    inletWalls
    {
        type            calculated;
        value           uniform 0;
    }
    outletInlet
    {
        type            calculated;
        value           nonuniform List<scalar> 
15
(
198.282
527.479
785.396
982.001
1128.53
1249.97
1367.11
1486.57
1606.73
1731.8
1879
2054.9
2138.07
1729.9
634.148
)
;
    }
}


// ************************************************************************* //
