/*--------------------------------*- C++ -*----------------------------------*\
| =========                 |                                                 |
| \\      /  F ield         | OpenFOAM: The Open Source CFD Toolbox           |
|  \\    /   O peration     | Version:  4.1                                   |
|   \\  /    A nd           | Web:      www.OpenFOAM.org                      |
|    \\/     M anipulation  |                                                 |
\*---------------------------------------------------------------------------*/
FoamFile
{
    version     2.0;
    format      ascii;
    class       volVectorField;
    location    "26";
    object      U;
}
// * * * * * * * * * * * * * * * * * * * * * * * * * * * * * * * * * * * * * //

dimensions      [0 1 -1 0 0 0 0];

internalField   nonuniform List<vector> 
225
(
(1.10935e-14 0.852191 15.7946)
(9.2563e-15 -4.89458 12.1215)
(-2.32688e-15 -4.19551 12.1321)
(4.17409e-15 -3.60119 11.9966)
(5.89387e-16 -3.00468 11.8778)
(-1.65012e-16 -2.55319 11.6992)
(1.94192e-15 -2.20881 11.4769)
(2.81508e-16 -1.96603 11.2116)
(-3.19256e-17 -1.79855 10.916)
(9.782e-16 -1.71238 10.5882)
(4.90578e-18 -1.83746 10.1561)
(-2.44848e-16 -2.28567 9.53762)
(3.29965e-16 -2.51302 8.96377)
(-5.64359e-17 -1.06553 8.91357)
(-1.41122e-18 1.76574 7.47092)
(1.53199e-14 -5.35016 22.493)
(1.57295e-14 -14.6049 21.394)
(2.80036e-16 -13.2708 20.3411)
(4.51176e-15 -11.7697 19.5066)
(1.93453e-15 -11.1561 18.5043)
(-1.70996e-16 -10.6594 17.5174)
(2.19633e-15 -10.0901 16.5714)
(9.82225e-16 -9.52499 15.6236)
(-3.43031e-17 -8.96543 14.6638)
(8.81488e-16 -8.36731 13.6946)
(3.40761e-16 -7.75708 12.7179)
(-3.3436e-16 -7.30334 11.7194)
(1.25158e-16 -7.01704 10.6244)
(2.96506e-17 -5.73093 9.16113)
(9.58468e-18 -2.30501 4.5832)
(1.76754e-14 -7.71566 23.9801)
(1.65493e-14 -16.7731 24.6729)
(1.67045e-15 -13.7365 23.9372)
(6.15276e-15 -12.3062 22.6249)
(1.71847e-15 -11.6447 21.2414)
(7.06352e-16 -10.814 20.0013)
(3.18656e-15 -9.94025 18.7738)
(6.40421e-16 -9.1001 17.5247)
(5.80864e-16 -8.28337 16.2654)
(1.46129e-15 -7.47522 15.0262)
(1.09539e-16 -6.6676 13.8176)
(1.49707e-16 -5.84164 12.4301)
(5.91349e-16 -4.81388 10.2752)
(-7.31336e-17 -3.12625 6.68441)
(-2.21319e-17 -0.832131 1.6899)
(1.75675e-14 -8.50258 22.0462)
(1.61885e-14 -16.621 24.332)
(2.55796e-15 -12.93 23.7971)
(5.80725e-15 -12.1536 21.9985)
(1.43492e-15 -11.4201 20.5028)
(1.48956e-15 -10.4936 19.1722)
(2.84637e-15 -9.63388 17.8167)
(5.69717e-16 -8.82359 16.459)
(1.02618e-15 -8.05362 15.123)
(1.21861e-15 -7.32376 13.8164)
(6.40514e-17 -6.55244 12.4394)
(4.05946e-16 -5.49085 10.583)
(5.28064e-16 -3.78522 7.50863)
(-8.02658e-17 -1.49363 2.76597)
(-8.3692e-16 0.153291 -1.773)
(1.592e-14 -8.47615 19.748)
(1.6317e-14 -16.3601 24.312)
(3.3225e-15 -13.099 23.6602)
(5.12907e-15 -12.628 21.5365)
(1.29786e-15 -11.8565 20.0248)
(1.38942e-15 -10.9574 18.6637)
(2.60369e-15 -10.1698 17.2587)
(6.38441e-16 -9.40276 15.8711)
(9.04729e-16 -8.65258 14.5236)
(1.13368e-15 -7.9305 13.2136)
(-3.0712e-17 -7.16586 11.8292)
(1.77636e-16 -6.11611 9.99622)
(3.58219e-16 -4.42398 7.15548)
(-3.74623e-16 -2.30524 3.28782)
(-8.13847e-16 -0.787172 0.317699)
(1.43922e-14 -8.02194 17.5537)
(1.67848e-14 -16.0195 24.5277)
(4.82527e-15 -13.6434 24.0461)
(4.69952e-15 -12.9943 21.7651)
(1.75407e-15 -12.1264 20.2157)
(1.46372e-15 -11.2247 18.847)
(2.53893e-15 -10.4389 17.4341)
(1.02682e-15 -9.64884 16.0433)
(1.08128e-15 -8.86032 14.6933)
(1.19885e-15 -8.09323 13.3817)
(2.57388e-16 -7.29728 12.0171)
(3.22364e-16 -6.28455 10.2818)
(2.38291e-16 -4.73295 7.72082)
(2.87553e-16 -2.75607 4.37237)
(7.82232e-16 -0.949368 1.29732)
(1.29058e-14 -7.33745 15.2535)
(1.70473e-14 -15.491 24.355)
(6.41372e-15 -14.0225 24.4218)
(4.53254e-15 -13.1278 22.0675)
(2.13488e-15 -12.1447 20.4401)
(1.62644e-15 -11.2358 19.0547)
(2.41994e-15 -10.436 17.6437)
(1.27817e-15 -9.6198 16.2576)
(1.2952e-15 -8.8101 14.9066)
(1.2003e-15 -8.02717 13.5918)
(6.03005e-16 -7.2239 12.2368)
(7.74105e-16 -6.24021 10.5487)
(2.26215e-16 -4.78745 8.10739)
(5.49602e-17 -2.91405 4.94704)
(2.17749e-15 -1.01086 1.79737)
(1.09777e-14 -6.55628 13.033)
(1.70489e-14 -14.847 23.8164)
(7.75073e-15 -14.2638 24.669)
(4.53086e-15 -13.2372 22.3215)
(2.34974e-15 -12.1674 20.5832)
(1.61484e-15 -11.2657 19.1666)
(2.29058e-15 -10.4651 17.7586)
(1.43225e-15 -9.64314 16.3766)
(1.27672e-15 -8.83493 15.0245)
(1.33945e-15 -8.05526 13.7073)
(7.43327e-16 -7.25495 12.3575)
(7.60795e-16 -6.28683 10.6995)
(2.00113e-16 -4.89094 8.33085)
(5.97094e-17 -3.08518 5.26759)
(1.1241e-15 -1.12221 2.04393)
(9.40437e-15 -5.77843 11.1239)
(1.67735e-14 -14.1745 23.0906)
(8.78133e-15 -14.4412 24.8462)
(4.68369e-15 -13.3963 22.6148)
(2.51263e-15 -12.2528 20.7553)
(1.48769e-15 -11.3493 19.2955)
(2.20854e-15 -10.5477 17.8904)
(1.55684e-15 -9.72543 16.5109)
(1.07222e-15 -8.91946 15.1562)
(1.3479e-15 -8.14025 13.8352)
(8.37656e-16 -7.33995 12.4864)
(4.9766e-16 -6.38013 10.8512)
(3.45803e-16 -5.02348 8.54666)
(7.18215e-17 -3.26576 5.55827)
(-4.58528e-16 -1.23754 2.24764)
(7.84427e-15 -5.08507 9.59945)
(1.63016e-14 -13.5192 22.3002)
(9.70171e-15 -14.5349 24.9522)
(4.79754e-15 -13.553 22.9352)
(2.57846e-15 -12.3447 20.9698)
(1.48283e-15 -11.425 19.4565)
(2.00556e-15 -10.6173 18.0505)
(1.59818e-15 -9.79438 16.672)
(1.02984e-15 -8.98821 15.3135)
(1.09264e-15 -8.2062 13.9873)
(8.52623e-16 -7.40472 12.6356)
(3.64855e-16 -6.45145 11.0132)
(1.13632e-16 -5.1252 8.75503)
(2.09059e-16 -3.40649 5.81944)
(-7.95578e-16 -1.31904 2.43087)
(6.58829e-15 -4.53879 8.46239)
(1.57909e-14 -12.9256 21.5504)
(1.02358e-14 -14.5348 24.9757)
(5.07639e-15 -13.6653 23.2209)
(2.66719e-15 -12.4127 21.181)
(1.29845e-15 -11.4734 19.6119)
(1.88514e-15 -10.6589 18.2002)
(1.67408e-15 -9.83684 16.8207)
(7.60099e-16 -9.03192 15.4583)
(1.08774e-15 -8.24844 14.1267)
(9.50097e-16 -7.44638 12.769)
(-7.27445e-18 -6.49762 11.1496)
(5.95989e-17 -5.19245 8.91822)
(-5.73716e-16 -3.50174 6.01033)
(-1.26148e-15 -1.36373 2.54243)
(5.87588e-15 -4.17052 7.70287)
(1.53114e-14 -12.4378 20.9278)
(1.0567e-14 -14.4733 24.9365)
(5.36399e-15 -13.7316 23.4378)
(2.80281e-15 -12.4592 21.3593)
(1.23778e-15 -11.5039 19.7404)
(1.81355e-15 -10.6832 18.3206)
(1.74566e-15 -9.86357 16.9391)
(7.2773e-16 -9.06115 15.5728)
(1.10759e-15 -8.27756 14.2363)
(9.59785e-16 -7.47481 12.8708)
(-5.47122e-17 -6.52671 11.2463)
(1.18536e-16 -5.23292 9.02626)
(-8.62252e-16 -3.5579 6.12596)
(-1.36333e-15 -1.37728 2.57259)
(5.36953e-15 -3.97348 7.27983)
(1.4802e-14 -12.0682 20.4612)
(1.08093e-14 -14.3843 24.8625)
(5.48547e-15 -13.76 23.5828)
(2.89575e-15 -12.4876 21.497)
(1.2649e-15 -11.523 19.8407)
(1.73535e-15 -10.6966 18.4121)
(1.83807e-15 -9.88009 17.028)
(7.24253e-16 -9.08073 15.6586)
(1.01598e-15 -8.2974 14.3172)
(1.0036e-15 -7.49328 12.9423)
(-7.22195e-17 -6.54224 11.3063)
(1.70846e-16 -5.25104 9.08446)
(-7.71349e-16 -3.57879 6.17539)
(-1.18789e-15 -1.36511 2.53875)
(5.08878e-15 -3.9038 7.11045)
(1.44509e-14 -11.8313 20.1818)
(1.09049e-14 -14.2998 24.79)
(5.57386e-15 -13.7667 23.6684)
(2.88334e-15 -12.5019 21.5898)
(1.27123e-15 -11.532 19.9095)
(1.7081e-15 -10.7004 18.4746)
(1.79501e-15 -9.88548 17.0884)
(7.31034e-16 -9.08796 15.7173)
(1.00134e-15 -8.30417 14.3731)
(9.72269e-16 -7.49796 12.9908)
(-4.53936e-17 -6.54329 11.3436)
(1.58848e-16 -5.25351 9.1174)
(-7.58863e-16 -3.58362 6.20157)
(-8.79048e-16 -1.35007 2.50637)
(5.08837e-15 -4.03917 7.28628)
(1.39555e-14 -11.6269 19.9518)
(1.084e-14 -14.1916 24.6679)
(5.63817e-15 -13.7464 23.7082)
(2.85984e-15 -12.5065 21.6737)
(1.33069e-15 -11.5392 19.9772)
(1.67571e-15 -10.6994 18.5349)
(1.71477e-15 -9.88683 17.1436)
(7.77932e-16 -9.09035 15.7692)
(9.95685e-16 -8.3048 14.4181)
(8.83647e-16 -7.48979 13.0145)
(2.58115e-17 -6.51516 11.3279)
(6.0781e-17 -5.20584 9.06101)
(-6.84411e-16 -3.50162 6.08276)
(-4.83637e-16 -1.25258 2.30742)
)
;

boundaryField
{
    inletFace
    {
        type            zeroGradient;
    }
    inlet
    {
        type            fixedValue;
        value           uniform (0 8.7 15);
    }
    inletWalls
    {
        type            noSlip;
    }
    outletInlet
    {
        type            zeroGradient;
    }
}


// ************************************************************************* //
