/*--------------------------------*- C++ -*----------------------------------*\
| =========                 |                                                 |
| \\      /  F ield         | OpenFOAM: The Open Source CFD Toolbox           |
|  \\    /   O peration     | Version:  4.1                                   |
|   \\  /    A nd           | Web:      www.OpenFOAM.org                      |
|    \\/     M anipulation  |                                                 |
\*---------------------------------------------------------------------------*/
FoamFile
{
    version     2.0;
    format      ascii;
    class       surfaceScalarField;
    location    "22";
    object      phi;
}
// * * * * * * * * * * * * * * * * * * * * * * * * * * * * * * * * * * * * * //

dimensions      [0 3 -1 0 0 0 0];

internalField   nonuniform List<scalar> 
13220
(
-818.528
2118.43
-1278.35
1760.02
-1742.9
1764.45
-2087.42
1644.42
-2366.58
1579.36
-2567.68
1501.01
-2696.05
1428.27
-2750.15
1354.3
-2732.1
1281.84
-2642.03
1209.83
-2479.28
1137.45
-2223.79
1044.41
-1793.24
869.355
-1061.17
568.132
238.733
-158.443
2276.88
-364.192
1965.78
-607.999
2008.26
-790.746
1827.17
-966.138
1754.76
-1098.35
1633.22
-1202.57
1532.49
-1272.9
1424.64
-1315
1323.94
-1330.42
1225.26
-1311.01
1118.04
-1228.08
961.483
-1017.3
658.577
-595.196
146.031
-356.463
-97.8757
2374.76
-253.122
2121.03
-359.938
2115.08
-400.753
1867.99
-432.842
1786.85
-417.511
1617.89
-380.43
1495.41
-318.975
1363.19
-244.242
1249.21
-157.544
1138.57
-57.1967
1017.7
44.0611
860.243
105.001
597.667
89.1527
161.918
-267.31
58.0897
2316.67
65.6182
2113.5
101.214
2079.49
158.097
1811.1
212.261
1732.69
289.046
1541.11
369.11
1415.35
471.329
1260.98
601.23
1119.31
755.034
984.765
892.311
880.425
961.469
791.077
879.401
679.729
530.067
511.242
262.756
7.97848
2308.69
2.27363
2119.2
6.08562
2075.68
-12.1194
1829.31
-31.2015
1751.77
-62.7308
1572.64
-103.56
1456.18
-107.412
1264.83
-17.9725
1029.87
177.58
789.21
412.282
645.718
589.459
613.903
595.012
674.176
369.826
736.427
632.583
-74.023
2382.71
-217.426
2262.6
-324.042
2182.29
-462.267
1967.53
-603.763
1893.26
-766.712
1735.59
-942.549
1632.02
-1102.16
1424.43
-1197.62
1125.33
-1181.36
772.95
-1034.33
498.686
-754.322
333.885
-400.081
319.922
-116.025
452.356
516.557
59.3579
2323.35
-128.194
2450.15
-233.425
2287.52
-331.61
2065.72
-421.197
1982.85
-513.731
1828.12
-608.513
1726.79
-730.789
1546.71
-906.135
1300.67
-1118.31
985.119
-1293.36
673.741
-1327.34
367.86
-1112.35
104.938
-594.137
-65.8621
-77.58
268.495
2054.85
189.513
2529.13
165.189
2311.84
182.408
2048.49
230.838
1934.42
283.234
1775.72
350.425
1659.6
390.129
1507
359.696
1331.11
229.089
1115.72
28.8615
873.968
-198.993
595.706
-343.888
249.824
-312.592
-97.1664
-390.172
299.438
1755.41
335.153
2493.42
364.085
2282.91
431.8
1980.78
530.808
1835.41
631.655
1674.87
746.732
1544.52
852.782
1400.95
929.786
1254.1
947.746
1097.76
894.119
927.594
749.175
740.648
485.13
513.865
139.432
248.526
-250.741
182.299
1573.11
244.795
2430.92
283.964
2243.74
337.799
1926.94
410.051
1763.15
478.081
1606.84
546.108
1476.5
606.141
1340.91
650.576
1209.67
668.656
1079.68
650.171
946.079
583.517
807.301
454.364
643.018
258.793
444.096
8.05271
67.9821
1505.13
137.556
2361.35
190.622
2190.67
238.846
1878.72
299.654
1702.34
355.982
1550.51
404.586
1427.89
442.942
1302.56
470.898
1181.71
486.357
1064.22
483.874
948.562
449.983
841.191
361.993
731.006
203.145
602.94
211.198
-1.60461
1506.74
86.0055
2273.74
191.272
2085.4
266.357
1803.63
327.167
1641.53
384.476
1493.2
440.019
1372.35
493.437
1249.14
545.736
1129.41
593.105
1016.85
617.159
924.507
589.631
868.72
476.088
844.549
272.614
806.415
483.812
36.4905
1470.25
67.5895
2242.64
113.72
2039.27
199.862
1717.49
313.74
1527.66
444.491
1362.45
587.562
1229.28
738.547
1098.15
873.288
994.67
957.336
932.805
948.499
933.344
824.844
992.375
591.783
1077.61
300.57
1097.63
784.381
355.236
1115.01
506.232
2091.64
400.931
2144.58
194.648
1923.77
-4.74022
1727.05
-169.782
1527.49
-273.773
1333.27
-316.118
1140.5
-297.39
975.941
-227.128
862.542
-127.145
833.361
-39.747
904.976
-17.2879
1055.15
-33.9016
1114.24
750.48
623.653
1639.51
2253.91
2448.55
2448.02
2288.17
1962.5
1593.52
1157.97
742.461
394.868
181.283
99.5117
106.312
-9.43735e-06
-459.102
459.102
-459.102
-459.102
-459.102
277.871
-736.973
277.871
277.871
277.871
895.741
-617.871
895.741
895.741
1384.64
-488.896
1384.64
1384.64
1384.64
1722.85
-338.215
1722.85
1722.85
1934.31
-211.459
1934.31
1934.31
1934.31
2032.24
-97.9276
2032.24
2032.24
2032.24
2035.04
-2.79859
2035.04
2035.04
1955.99
79.0506
1955.99
1955.99
1955.99
1812.49
143.496
1812.49
1812.49
1623.01
189.481
1623.01
1623.01
1623.01
1425.16
197.846
1425.16
1425.16
1425.16
1320.69
104.47
1320.69
1320.69
1179.98
140.717
1179.98
1179.98
1179.98
911.365
268.611
911.365
911.365
911.365
522.107
389.258
522.107
522.107
81.4878
440.619
81.4878
81.4878
81.4878
-517.896
599.384
-517.896
-517.896
-1726.93
1209.04
-1726.93
-1726.93
-1726.93
-3442.41
1715.48
-3442.41
-3442.41
-3442.41
-5552.5
2110.1
-5552.51
-5552.5
-7880.11
2327.6
-7880.11
-7880.11
-7724.69
-7569.11
-7407.79
-9676.67
2435.63
-9514.3
-9326.08
-9121.1
-8915.43
-8706.91
-8493.65
-8282.36
-8076.7
-10435.1
2565.98
-10218.7
-10000.5
-9779.24
-9569.97
-9359.99
-9147.33
-8936.42
-8728.07
-11103.9
2579.49
-10882.1
-10658.7
-10433.3
-10207.7
-9975.53
-9731.42
-9486.05
-9241.16
-8999.16
-11211.8
2438.66
-10947.3
-10682.3
-10417
-10152.6
-9889.39
-9609.08
-9320.08
-9032.87
-10815.3
2054.61
-10532.6
-10239.3
-9927.99
-9616.04
-9303.27
-8992.3
-8682.69
-8351.76
-9617.04
1579.34
-9300.66
-8988.25
-8678.17
-8355.42
-8028.39
-7703.85
-7379.34
-7057.05
-7747.07
1012.55
-7418.01
-7090.79
-6765.51
-6444.65
-6130.8
-5820.48
-5519
-5228.93
-4952.75
-4521.81
-158.099
-4286.4
-4074.44
-3869.48
-3672.82
-3481.68
-3327.72
-3241.43
-3152.4
-2452.06
-598.27
-2364.88
-2278.83
-2278.83
-1838.34
-440.487
-1396.46
-441.888
-1396.46
-990.886
-405.571
-990.886
-623.523
-367.363
-312.14
-311.383
-312.14
-14.1637
-297.976
226.066
-240.229
226.066
416.215
-190.149
416.215
598.052
-181.837
766.249
-168.197
766.249
909.821
-143.572
909.821
1038.54
-128.714
1149.57
-111.032
1149.57
1244.32
-94.7545
1318.84
-74.5205
1318.84
1386.26
-67.4185
1386.26
1450.13
-63.8704
1497.86
-47.7327
1497.86
1543.28
-45.4126
1543.28
1586.99
-43.7168
1614.8
-27.8087
1614.8
1651.16
-36.3592
1672.43
-21.2678
1672.43
1697.72
-25.2885
1697.72
1722.88
-25.1625
1728.69
-5.81446
1728.69
1733.53
-4.83483
1733.53
1739.01
-5.47895
1726.96
12.0463
1726.96
1722.89
4.07471
1700.88
22.0087
1700.88
1685.7
15.1773
1685.7
1673.06
12.6458
1655.77
17.2884
1655.77
1649.18
6.59058
1649.18
1651.12
-1.93866
1653.51
-2.3955
1653.51
1669.76
-16.2533
1678.81
-9.05031
1678.81
1697.04
-18.2215
1697.04
1722.67
-25.6365
1709.07
13.6007
1709.07
1733.17
-24.1032
1733.17
1759.49
-26.3139
1777.55
-18.0645
1777.55
1832.42
-54.8634
1878.7
-46.2818
1878.7
1955.27
-76.5749
1955.27
-65.4297
-455.894
-994.076
-518.811
-1133.22
-585.634
-1058.51
-657.142
-1069.69
-724.118
-1056.72
-781.531
-1070.84
-825.697
-1097.14
-856.093
-1140.53
-873.932
-1194.66
-881.39
-1256.04
-880.661
-1319.94
-873.575
-1382.66
-861.5
-1440.49
-845.527
-1489.78
-826.779
-1526.46
-806.773
-1546.17
-787.696
-1544.81
-772.374
-1519.92
-763.744
-1472.17
-763.933
-1405.53
-773.5
-1325.18
-791.524
-1235.7
-815.403
-1143.23
-834.761
-1045.1
-820.879
-864.207
-757.089
-413.598
-694.057
256.033
-664.339
670.015
-641.593
901.851
-619.576
1112.56
-598.101
1339.95
-577.397
1576.96
-557.285
1816.26
-537.599
2051.4
-518.303
2277.5
-499.429
2490.59
-480.917
2688.96
-462.493
2871.42
-443.939
3035.66
-425.372
3179.82
-406.833
3305.21
-388.084
3413.25
-368.902
3502.78
-349.375
3572.19
-329.575
3623.76
-309.319
3659.52
-288.586
3677.7
-267.55
3679.86
-246.115
3671.58
-223.945
3652.24
-201.024
3614.44
-177.584
3558.8
-153.527
3493.31
-128.828
3415.84
-103.347
3319.77
-77.526
3182.66
-51.9227
2995.91
-27.4145
2747.98
-4.67852
2446.16
15.4437
2065.37
31.6818
1545.29
44.4972
1023.94
54.4394
568.77
64.5599
227.273
73.9582
-20.3711
88.4273
-152.483
97.278
-229.428
94.6924
-270.999
82.9363
-307.018
72.188
-326.864
68.7823
-266.403
69.3926
-139.528
71.7181
20.7077
86.5707
325.871
48.6353
-540.129
25.3665
-2139.41
-23.7288
-3002.05
-7.49834
-1666.61
679.759
-536.965
-946.701
-616.662
-1053.53
-690.887
-984.289
-761.425
-999.155
-818.4
-999.75
-860.055
-1029.18
-886.312
-1070.88
-899.795
-1127.05
-903.445
-1191.01
-899.906
-1259.58
-891.019
-1328.83
-877.939
-1395.74
-861.392
-1457.04
-842.071
-1509.1
-821.078
-1547.45
-800.357
-1566.89
-782.92
-1562.25
-772.504
-1530.34
-772.442
-1472.23
-784.127
-1393.84
-806.169
-1303.13
-835.173
-1206.7
-866.932
-1111.47
-891.18
-1020.85
-875.633
-879.754
-785.6
-503.632
-685.477
155.911
-648.587
633.124
-631.22
884.484
-611.773
1093.11
-591.483
1319.66
-572.039
1557.52
-553.128
1797.35
-534.464
2032.74
-516.015
2259.05
-497.813
2472.38
-479.823
2670.97
-461.792
2853.38
-443.54
3017.41
-425.207
3161.49
-406.834
3286.83
-388.192
3394.61
-369.078
3483.67
-349.596
3552.7
-329.817
3603.98
-309.563
3639.26
-288.825
3656.97
-267.786
3658.83
-246.346
3650.14
-224.16
3630.05
-201.219
3591.5
-177.759
3535.34
-153.673
3469.22
-128.922
3391.09
-103.329
3294.17
-77.2946
3156.63
-51.3137
2969.93
-26.1865
2722.85
-2.47165
2422.45
18.9642
2043.93
36.7264
1527.53
51.4335
1009.24
63.5267
556.677
79.7195
211.08
95.2213
-35.873
112.794
-170.056
121.268
-237.902
117.08
-266.811
102.264
-292.202
85.9676
-310.567
76.5979
-257.034
72.7245
-135.654
73.3615
20.0706
90.5431
308.69
50.0291
-499.615
14.7796
-2104.16
-47.5844
-2939.69
-25.5573
-1688.64
577.627
-595.47
-893.023
-678.085
-970.911
-747.164
-915.211
-807.784
-938.535
-852.492
-955.042
-882.575
-999.099
-899.613
-1053.84
-906.648
-1120.01
-906.163
-1191.49
-900.052
-1265.69
-889.464
-1339.42
-875.083
-1410.12
-857.43
-1474.69
-837.267
-1529.26
-816.068
-1568.65
-796.454
-1586.5
-782.259
-1576.44
-777.751
-1534.85
-785.88
-1464.1
-806.467
-1373.25
-835.887
-1273.71
-868.892
-1173.69
-900.895
-1079.47
-924.397
-997.346
-912.086
-892.065
-819.45
-596.268
-690.173
26.6342
-631.46
574.411
-614.807
867.831
-600.157
1078.46
-582.317
1301.82
-564.44
1539.64
-547.063
1779.97
-529.861
2015.54
-512.673
2241.86
-495.493
2455.21
-478.297
2653.78
-460.87
2835.96
-443.094
2999.63
-425.129
3143.53
-407.02
3268.72
-388.549
3376.14
-369.547
3464.66
-350.138
3533.3
-330.392
3584.23
-310.138
3619.01
-289.392
3636.22
-268.344
3637.78
-246.882
3628.67
-224.663
3607.84
-201.689
3568.52
-178.191
3511.84
-154.055
3445.09
-129.211
3366.24
-103.44
3268.4
-77.0887
3130.28
-50.5728
2943.42
-24.5792
2696.86
0.454414
2397.41
23.6695
2020.72
43.5912
1507.61
60.9494
991.879
76.1265
541.499
96.573
190.634
115.419
-54.7194
131.994
-186.631
138.27
-244.178
132.527
-261.068
116.789
-276.464
98.8712
-292.65
86.9858
-245.148
79.7508
-128.419
76.5887
23.2327
93.3464
291.932
51.1437
-457.412
4.37535
-2057.39
-67.752
-2867.56
-63.2263
-1693.17
468.119
-663.644
-834.661
-746.004
-888.551
-806.962
-854.253
-856.314
-889.183
-888.824
-922.532
-908.061
-979.862
-916.456
-1045.45
-917.076
-1119.39
-911.945
-1196.62
-902.411
-1275.22
-889.154
-1352.67
-872.565
-1426.71
-853.084
-1494.18
-831.674
-1550.67
-810.362
-1589.97
-792.658
-1604.21
-783.334
-1585.77
-786.945
-1531.24
-805.342
-1445.71
-835.909
-1342.69
-872.413
-1237.21
-908.098
-1138
-938.644
-1048.92
-959.797
-976.193
-950.785
-901.077
-863.072
-683.98
-709.828
-126.61
-619.585
484.168
-595.703
843.949
-584.746
1067.51
-570.733
1287.81
-555.159
1524.07
-539.528
1764.34
-524.04
2000.05
-508.457
2226.28
-492.619
2439.37
-476.473
2637.63
-459.855
2819.34
-442.719
2982.49
-425.252
3126.06
-407.497
3250.97
-389.26
3357.9
-370.414
3445.82
-351.104
3513.99
-331.4
3564.53
-311.147
3598.76
-290.387
3615.46
-269.315
3616.71
-247.811
3607.17
-225.538
3585.56
-202.511
3545.5
-178.955
3488.28
-154.743
3420.88
-129.767
3341.26
-103.766
3242.4
-77.0218
3103.53
-49.8576
2916.25
-22.8289
2669.83
3.76233
2370.82
29.1002
1995.38
51.6726
1485.04
72.2804
971.271
91.2704
522.509
116.016
165.888
138.103
-76.8063
154.094
-202.622
158.457
-248.542
150.976
-253.587
133.774
-259.261
113.76
-272.636
98.9648
-230.353
87.7966
-117.251
80.8439
30.1854
97.086
275.69
53.267
-413.593
-8.24114
-1995.88
-93.8715
-2781.93
-91.5675
-1695.47
321.688
-730.831
-775.764
-806.596
-812.786
-855.426
-805.423
-891.933
-852.676
-912.773
-901.693
-922.897
-969.737
-924.76
-1043.59
-920.926
-1123.23
-912.729
-1204.82
-900.923
-1287.03
-885.787
-1367.81
-867.535
-1444.96
-846.697
-1515.01
-824.666
-1572.7
-804.306
-1610.32
-790.264
-1618.25
-788.19
-1587.84
-802.274
-1517.15
-832.128
-1415.85
-871.87
-1302.94
-912.848
-1196.23
-947.779
-1103.07
-973.435
-1023.26
-989.06
-960.568
-981.99
-908.147
-905.909
-760.061
-740.526
-291.992
-615.693
359.335
-576.965
805.221
-566.305
1056.85
-556.126
1277.63
-543.85
1511.79
-530.495
1750.98
-516.945
1986.5
-503.24
2212.57
-489.075
2425.2
-474.28
2622.83
-458.717
2803.78
-442.416
2966.19
-425.598
3109.24
-408.31
3233.68
-390.389
3339.98
-371.754
3427.18
-352.578
3494.81
-332.93
3544.88
-312.679
3578.51
-291.896
3594.68
-270.784
3595.59
-249.215
3585.6
-226.864
3563.21
-203.759
3522.39
-180.117
3464.64
-155.797
3396.56
-130.651
3316.12
-104.364
3216.11
-77.1476
3076.32
-49.2166
2888.32
-20.982
2641.6
7.41694
2342.42
35.2427
1967.55
60.966
1459.32
85.4051
946.832
108.981
498.933
137.893
136.976
162.469
-101.382
177.441
-217.593
179.68
-250.781
170.393
-244.3
151.987
-240.855
130.386
-251.035
112.726
-212.693
96.6317
-101.156
85.5497
41.2675
100.887
260.353
56.0908
-368.798
-21.7164
-1918.08
-122.116
-2681.53
-140.238
-1677.35
163.386
-793.729
-720.404
-858.071
-748.443
-893.43
-770.064
-917.875
-828.231
-929.047
-890.521
-932.263
-966.521
-929.4
-1046.45
-922.319
-1130.31
-911.709
-1215.43
-897.887
-1300.85
-880.902
-1384.8
-860.972
-1464.89
-838.92
-1537.07
-816.829
-1594.79
-798.695
-1628.46
-790.444
-1626.5
-798.231
-1580.05
-824.764
-1490.62
-866.129
-1374.49
-912.839
-1256.23
-954.807
-1154.26
-985.614
-1072.27
-1003.78
-1005.1
-1011.44
-952.909
-1003.51
-916.081
-941.451
-822.118
-778.616
-454.827
-621.942
202.661
-561.155
744.434
-546.482
1042.17
-538.695
1269.84
-530.095
1503.19
-519.775
1740.66
-508.547
1975.27
-496.925
2200.95
-484.695
2412.97
-471.555
2609.69
-457.321
2789.54
-442.079
2950.95
-426.082
3093.24
-409.394
3216.99
-391.886
3322.47
-373.534
3408.83
-354.536
3475.81
-334.969
3525.31
-314.729
3558.27
-293.921
3573.87
-272.755
3574.43
-251.101
3563.95
-228.647
3540.76
-205.439
3499.19
-181.687
3440.89
-157.231
3372.1
-131.879
3290.77
-105.261
3189.5
-77.5067
3048.56
-48.7153
2859.53
-19.1399
2612.02
11.2667
2312.02
41.8765
1936.94
71.1614
1430.03
99.8796
918.114
128.675
470.137
161.268
104.384
187.657
-127.771
201.815
-231.751
202.158
-251.124
190.958
-233.1
171.195
-221.092
148.185
-228.025
127.792
-192.301
106.316
-79.6799
90.839
56.7443
105.073
246.119
59.7228
-323.447
-34.7641
-1823.59
-147.79
-2568.5
-175.288
-1649.85
-38.2164
-848.398
-672.128
-898.28
-698.561
-920.75
-747.594
-934.93
-814.051
-938.635
-886.815
-936.818
-968.339
-930.547
-1052.72
-921.002
-1139.85
-908.368
-1228.07
-892.678
-1316.54
-873.903
-1403.57
-852.428
-1486.37
-829.589
-1559.91
-808.458
-1615.92
-794.456
-1642.46
-794.737
-1626.22
-815.098
-1559.69
-855.201
-1450.52
-906.527
-1323.16
-956.545
-1206.22
-995.435
-1115.37
-1019.02
-1048.68
-1027.82
-996.299
-1025.78
-954.943
-1013.67
-928.199
-964.275
-871.509
-819.11
-599.992
-639.334
22.8851
-549.732
654.832
-526.655
1019.1
-519.261
1262.45
-513.796
1497.73
-507.033
1733.9
-498.712
1966.95
-489.456
2191.7
-479.356
2402.87
-468.133
2598.47
-455.518
2776.93
-441.586
2937.02
-426.606
3078.26
-410.668
3201.06
-393.692
3305.5
-375.711
3390.85
-356.949
3457.05
-337.498
3505.86
-317.287
3538.06
-296.457
3553.04
-275.229
3553.2
-253.472
3542.19
-230.893
3518.18
-207.558
3475.85
-183.671
3417
-159.052
3347.48
-133.465
3265.18
-106.479
3162.51
-78.1402
3020.22
-48.4209
2829.81
-17.4073
2581.01
15.1559
2279.45
48.781
1903.32
81.9633
1396.85
115.323
884.755
149.949
435.511
185.966
68.3668
213.705
-155.51
227.154
-245.201
225.735
-249.705
212.538
-219.903
191.328
-199.882
166.968
-203.665
143.569
-168.901
116.442
-52.5532
96.9446
76.2418
109.837
233.226
64.2451
-277.855
-45.6498
-1713.7
-168.434
-2445.72
-190.749
-1627.54
-253.068
-892.446
-633.237
-927.094
-663.913
-938.719
-735.969
-944.912
-807.857
-943.235
-888.492
-937.859
-973.715
-929.059
-1061.52
-917.472
-1151.44
-902.945
-1242.59
-885.38
-1334.1
-864.821
-1424.13
-842.006
-1509.18
-819.058
-1582.85
-800.392
-1634.59
-793.058
-1649.8
-804.991
-1614.29
-840.14
-1524.54
-893.353
-1397.3
-951.219
-1265.29
-999.844
-1157.59
-1031.7
-1083.52
-1045.73
-1034.65
-1044.25
-997.778
-1031.9
-967.3
-1012.89
-947.21
-971.617
-912.777
-852.602
-719.007
-664.685
-165.033
-544.015
534.163
-507.925
983.005
-498.719
1253.24
-495.278
1494.29
-492.043
1730.66
-487.176
1962.08
-480.729
2185.25
-472.981
2395.13
-463.879
2589.37
-453.152
2766.2
-440.804
2924.67
-427.068
3064.53
-412.058
3186.05
-395.752
3289.19
-378.246
3373.34
-359.795
3438.6
-340.506
3486.57
-320.352
3517.9
-299.512
3532.2
-278.217
3531.9
-256.343
3520.32
-233.618
3495.45
-210.133
3452.37
-186.087
3392.96
-161.281
3322.68
-135.432
3239.33
-108.049
3135.13
-79.0878
2991.26
-48.3895
2799.11
-15.8633
2548.48
18.9779
2244.61
55.8209
1866.48
93.2075
1359.46
131.557
846.406
172.726
394.342
212.01
29.0822
240.631
-184.13
253.34
-257.91
250.263
-246.628
235.042
-204.682
212.337
-177.177
186.708
-178.036
159.962
-142.156
126.977
-19.5681
104.038
99.1816
115.413
221.851
70.0478
-232.49
-52.8082
-1590.84
-179.924
-2318.6
-197.106
-1610.35
-436.573
-925.143
-604.577
-945.734
-643.322
-949.178
-732.525
-949.525
-807.51
-944.08
-893.938
-936.088
-981.707
-925.209
-1072.4
-911.71
-1164.94
-895.259
-1259.04
-875.766
-1353.6
-853.498
-1446.4
-829.773
-1532.91
-807.836
-1604.79
-793.802
-1648.62
-796.325
-1647.27
-823.035
-1587.58
-873.942
-1473.64
-937.691
-1333.55
-997.049
-1205.94
-1039.34
-1115.3
-1060.99
-1061.87
-1064.14
-1031.49
-1052.33
-1009.6
-1030
-989.625
-1002.72
-974.489
-963.954
-951.546
-868.614
-814.347
-688.268
-345.378
-543.956
389.851
-491.719
930.769
-478.056
1239.58
-475.137
1491.37
-474.88
1730.41
-473.7
1960.9
-470.549
2182.1
-465.486
2390.06
-458.701
2582.58
-450.083
2757.58
-439.587
2914.18
-427.348
3052.29
-413.469
3172.17
-397.994
3273.71
-381.088
3356.44
-363.04
3420.55
-343.976
3467.51
-323.918
3497.84
-303.087
3511.37
-281.729
3510.55
-259.726
3498.31
-236.838
3472.56
-213.183
3428.71
-188.954
3368.73
-163.937
3297.66
-137.801
3213.19
-109.996
3107.32
-80.3839
2961.65
-48.6686
2767.4
-14.5719
2514.39
22.6517
2207.39
62.9006
1826.23
104.787
1317.58
148.49
802.702
197.04
345.792
239.441
-13.3186
268.45
-213.139
280.296
-269.756
275.652
-241.985
258.412
-187.442
234.151
-152.916
207.148
-151.033
176.246
-111.254
137.595
19.0823
112.146
124.631
121.823
212.173
77.4379
-188.104
-55.8153
-1457.59
-181.263
-2193.16
-158.798
-1632.82
-621.008
-947.162
-585.69
-956.123
-634.361
-953.939
-734.709
-950.115
-811.333
-941.975
-902.079
-931.866
-991.815
-919.06
-1085.2
-903.609
-1180.39
-885.143
-1277.51
-863.701
-1375.04
-839.953
-1470.15
-816.079
-1556.78
-796.856
-1624.01
-790.375
-1655.11
-806.377
-1631.27
-850.282
-1543.67
-915.834
-1408.08
-985.288
-1264.1
-1040.21
-1151.01
-1071.89
-1083.62
-1081.41
-1052.35
-1073.39
-1039.51
-1051.84
-1031.15
-1020.62
-1020.84
-985.252
-1009.86
-944.974
-991.823
-866.978
-892.343
-704.286
-508.07
-546.084
231.648
-478.467
863.152
-458.316
1219.43
-454.141
1487.19
-455.869
1732.14
-458.205
1963.24
-458.685
2182.58
-456.725
2388.1
-452.528
2578.39
-446.213
2751.27
-437.797
2905.76
-427.31
3041.8
-414.794
3159.65
-400.337
3259.26
-384.178
3340.28
-366.64
3403.01
-347.88
3448.75
-327.97
3477.93
-307.179
3490.58
-285.768
3489.13
-263.632
3476.18
-240.568
3449.5
-216.723
3404.87
-192.289
3344.29
-167.038
3272.41
-140.593
3186.75
-112.344
3079.07
-82.0585
2931.37
-49.2978
2734.64
-13.5852
2478.67
26.1136
2167.69
69.9512
1782.39
116.634
1270.89
166.1
753.235
222.301
289.591
268.187
-59.2045
297.154
-242.106
307.954
-280.556
301.788
-235.819
282.565
-168.219
256.709
-127.06
228.017
-122.342
192.25
-75.4863
148.629
62.7037
121.328
151.932
129.032
204.469
86.6423
-145.715
-54.051
-1316.89
-184.881
-2062.33
-168.02
-1649.68
-807.25
-960.102
-575.241
-960.307
-634.156
-954.479
-740.537
-947.595
-818.218
-937.34
-912.333
-925.274
-1003.88
-910.497
-1099.98
-892.973
-1197.91
-872.407
-1298.08
-849.103
-1398.34
-824.355
-1494.89
-801.584
-1579.55
-787.523
-1638.08
-792.247
-1650.38
-825.271
-1598.25
-887.117
-1481.83
-963.532
-1331.67
-1032.12
-1195.51
-1076.94
-1106.2
-1095.17
-1065.38
-1092.04
-1055.49
-1073.43
-1058.12
-1043.23
-1061.35
-1004.62
-1059.45
-962.444
-1052.04
-919.031
-1035.24
-852.734
-958.64
-712.908
-647.895
-548.313
67.0522
-467.013
781.853
-440.048
1192.46
-433.14
1480.29
-435.492
1734.49
-440.797
1968.55
-444.977
2186.76
-446.497
2389.62
-445.252
2577.14
-441.471
2747.49
-435.325
2899.61
-426.819
3033.3
-415.91
3148.74
-402.685
3246.03
-387.442
3325.04
-370.543
3386.11
-352.182
3430.39
-332.488
3458.24
-311.779
3469.87
-290.334
3467.69
-268.068
3453.91
-244.819
3426.25
-220.769
3380.82
-196.111
3319.64
-170.602
3246.9
-143.828
3159.98
-115.115
3050.36
-84.1382
2900.39
-50.3109
2700.81
-12.9444
2441.31
29.3187
2125.43
76.9353
1734.77
128.729
1219.1
184.507
697.457
247.398
226.699
297.3
-109.106
326.529
-271.335
336.273
-290.299
328.584
-228.13
307.441
-147.076
279.982
-99.6002
249.026
-91.3863
207.772
-34.232
160.156
110.319
131.562
180.526
136.92
199.111
97.6929
-106.488
-47.6325
-1171.57
-184.272
-1925.69
-163.62
-1670.33
-979.92
-965.878
-571.52
-959.992
-640.042
-951.777
-748.753
-942.438
-827.556
-930.279
-924.492
-916.205
-1017.96
-899.324
-1116.86
-879.605
-1217.63
-856.933
-1320.75
-832.044
-1423.23
-807.161
-1519.78
-787.398
-1599.31
-781.797
-1643.68
-801.84
-1630.34
-854.456
-1545.63
-932.328
-1403.95
-1013.19
-1250.81
-1073.78
-1134.92
-1104.2
-1075.77
-1107.94
-1061.64
-1092.84
-1070.58
-1064.92
-1086.04
-1027.54
-1098.73
-983.28
-1103.71
-936.151
-1099.17
-889.723
-1081.66
-830.891
-1017.47
-714.034
-764.752
-549.522
-97.4599
-455.677
688.008
-423.077
1159.86
-412.893
1470.1
-414.368
1735.96
-421.733
1975.91
-429.396
2194.42
-434.616
2394.84
-436.711
2579.24
-435.776
2746.55
-432.095
2895.93
-425.758
3026.96
-416.688
3139.67
-404.93
3234.27
-390.797
3310.9
-374.687
3370
-356.837
3412.54
-337.443
3438.85
-316.872
3449.3
-295.423
3446.24
-273.037
3431.52
-249.603
3402.82
-225.336
3356.55
-200.435
3294.74
-174.65
3221.11
-147.524
3132.85
-118.331
3021.17
-86.648
2868.7
-51.7373
2665.9
-12.6823
2402.25
32.2369
2080.51
83.8415
1683.17
141.095
1161.85
204.009
634.543
272.623
158.085
326.185
-162.667
356.317
-301.468
365.228
-299.21
356.007
-218.91
333.029
-124.098
303.93
-70.5011
269.437
-56.8929
221.912
13.2923
171.958
160.273
142.7
209.785
145.32
196.491
110.393
-71.5604
-36.1607
-1025.01
-181.688
-1780.16
-159.65
-1692.37
-1155.82
-966.271
-572.863
-956.358
-649.955
-946.351
-758.76
-934.795
-839.112
-920.7
-938.587
-904.47
-1034.19
-885.342
-1135.99
-863.367
-1239.61
-838.731
-1345.38
-812.826
-1449.14
-789.206
-1543.4
-775.181
-1613.34
-782.146
-1636.71
-821.432
-1591.05
-894.058
-1473.01
-982.789
-1315.22
-1059.93
-1173.67
-1106.32
-1088.53
-1120.22
-1061.88
-1110.11
-1071.76
-1084.67
-1096.02
-1049.17
-1121.54
-1006.35
-1141.55
-958.282
-1151.78
-908.163
-1149.29
-859.68
-1130.15
-805.478
-1071.67
-706.764
-863.466
-546.439
-257.785
-442.45
584.018
-406.372
1123.78
-393.805
1457.53
-393.233
1735.39
-401.425
1984.1
-412.05
2205.04
-420.982
2403.78
-426.725
2584.98
-429.001
2748.83
-428.039
2894.97
-424.043
3022.96
-417.008
3132.64
-406.949
3224.21
-394.144
3298.1
-378.996
3354.86
-361.792
3395.33
-342.799
3419.85
-322.435
3428.93
-301.024
3424.83
-278.539
3409.04
-254.924
3379.2
-230.435
3332.06
-205.28
3269.58
-179.2
3195.03
-151.704
3105.35
-122.015
2991.48
-89.6124
2836.3
-53.6048
2629.89
-12.8271
2361.47
34.8483
2032.83
90.679
1627.34
153.8
1098.73
225.043
563.3
298.771
84.3569
355.064
-218.961
386.341
-332.745
394.742
-307.611
384.011
-208.179
359.312
-99.3987
328.41
-39.5991
288.905
-17.3879
234.824
67.3736
184.104
210.993
154.547
239.342
154.049
196.988
124.253
-41.7644
-18.5199
-882.241
-174.603
-1624.08
-170.656
-1696.32
-1328.88
-962.644
-577.927
-950.044
-662.556
-938.362
-770.442
-924.597
-852.876
-908.42
-954.764
-889.877
-1052.73
-868.415
-1157.45
-844.242
-1263.78
-818.009
-1371.62
-792.073
-1475.07
-771.828
-1563.64
-767.204
-1617.96
-791.305
-1612.61
-852.477
-1529.88
-942.235
-1383.25
-1033.69
-1223.76
-1098.89
-1108.47
-1127.12
-1060.3
-1124.65
-1064.34
-1102.62
-1093.79
-1069.01
-1129.63
-1027.95
-1162.6
-981.553
-1187.95
-931.487
-1201.84
-880.147
-1200.63
-830.704
-1179.59
-779.428
-1122.95
-694.3
-948.594
-540.065
-412.02
-426.127
470.08
-388.35
1086.01
-375.537
1444.72
-372.766
1732.62
-380.463
1991.8
-393.181
2217.76
-405.603
2416.2
-415.153
2594.53
-420.98
2754.66
-423.054
2897.04
-421.606
3021.52
-416.777
3127.81
-408.625
3216.06
-397.372
3286.85
-383.384
3340.87
-366.981
3378.93
-348.507
3401.38
-328.437
3408.86
-307.118
3403.51
-284.567
3386.49
-260.786
3355.42
-236.077
3307.35
-210.658
3244.16
-184.268
3168.65
-156.386
3077.47
-126.187
2961.28
-93.0565
2803.17
-55.9408
2592.77
-13.4042
2318.94
37.1412
1982.29
97.4746
1567
166.955
1029.24
248.197
482.058
326.616
5.93785
384.297
-276.641
416.496
-364.944
424.677
-315.791
412.525
-196.027
386.283
-73.1564
352.722
-6.03808
306.946
28.3876
247.32
127
196.667
261.645
166.896
269.113
162.978
200.906
138.339
-17.1251
5.53417
-749.436
-155.848
-1462.69
-164.568
-1687.6
-1495.38
-955.873
-585.792
-941.263
-677.166
-927.754
-783.951
-911.684
-868.946
-893.259
-973.189
-872.302
-1073.69
-848.523
-1181.23
-822.392
-1289.91
-795.245
-1398.77
-770.837
-1499.48
-756.969
-1577.51
-766.27
-1608.66
-811.751
-1567.13
-894.763
-1446.87
-994.954
-1283.06
-1079.42
-1139.3
-1126.22
-1061.67
-1135.24
-1051.28
-1118.47
-1081.12
-1087.19
-1125.06
-1047.8
-1169.02
-1003.26
-1207.14
-955.131
-1236.08
-904.648
-1252.33
-853.44
-1251.84
-803.848
-1229.18
-754.272
-1172.53
-679.388
-1023.48
-532.899
-558.509
-406.961
344.143
-367.744
1046.79
-356.92
1433.9
-353.213
1728.91
-359.537
1998.12
-373.201
2231.43
-388.592
2431.59
-401.927
2607.87
-411.541
2764.27
-416.991
2902.49
-418.366
3022.89
-415.923
3125.36
-409.854
3209.99
-400.366
3277.36
-387.749
3328.25
-372.326
3363.51
-354.511
3383.57
-334.836
3389.19
-313.681
3382.36
-291.106
3363.91
-267.185
3331.5
-242.267
3282.43
-216.581
3218.47
-189.872
3141.94
-161.591
3049.19
-130.872
2930.56
-97.0059
2769.31
-58.7733
2554.54
-14.4379
2274.6
39.1107
1928.74
104.271
1501.84
180.727
952.788
273.467
389.319
356.628
-77.2233
414.277
-334.29
446.762
-397.43
454.846
-323.875
441.472
-182.653
413.587
-45.2715
375.948
31.6008
323.112
81.2236
259.659
190.454
209.573
311.731
179.517
299.17
172.094
208.329
151.652
3.31724
35.3443
-633.129
-124.997
-1302.35
-162.641
-1649.95
-1651.43
-946.39
-595.94
-929.962
-693.594
-914.381
-799.533
-895.896
-887.43
-875.11
-993.975
-851.741
-1097.06
-825.817
-1207.16
-798.212
-1317.51
-771.274
-1425.7
-750.704
-1520.05
-747.21
-1581.01
-775.409
-1580.46
-844.874
-1497.67
-945.736
-1346.01
-1046.46
-1182.33
-1114.81
-1070.95
-1139.98
-1036.5
-1131.46
-1059.81
-1103.59
-1108.98
-1066.02
-1162.64
-1023.23
-1211.81
-977.163
-1253.21
-928.866
-1284.37
-879.123
-1302.07
-828.838
-1302.12
-779.445
-1278.57
-730.451
-1221.52
-663.051
-1090.88
-526.554
-695.006
-385.911
203.5
-344.192
1005.07
-336.486
1426.19
-334.091
1726.52
-339.185
2003.22
-352.694
2244.94
-370.197
2449.09
-387.057
2624.73
-400.554
2777.77
-409.668
2911.61
-414.197
3027.42
-414.378
3125.54
-410.558
3206.17
-403.018
3269.82
-391.982
3317.22
-377.737
3349.26
-360.743
3366.57
-341.583
3370.03
-320.677
3361.45
-298.138
3341.38
-274.114
3307.48
-249.005
3257.32
-223.058
3192.53
-196.026
3114.9
-167.338
3020.5
-136.092
2899.31
-101.487
2734.7
-62.1311
2515.19
-15.9517
2228.42
40.7586
1872.03
111.129
1431.47
195.439
868.479
298.372
286.386
386.724
-165.575
444.743
-392.309
477.137
-429.823
485.06
-331.798
470.804
-168.398
440.506
-14.9732
397.355
74.7518
337.872
140.707
272.099
256.227
222.717
361.112
192.197
329.69
181.342
219.183
164.168
20.4918
68.4133
-537.374
-79.537
-1154.4
-139.492
-1590
-1773.64
-934.319
-608.157
-915.98
-711.932
-898.111
-817.402
-877.154
-908.387
-853.998
-1017.13
-828.362
-1122.69
-800.66
-1234.86
-772.394
-1345.78
-747.375
-1450.72
-733.887
-1533.54
-745.663
-1569.23
-797.233
-1528.89
-890.032
-1404.87
-1000.41
-1235.63
-1090.52
-1092.22
-1136.44
-1025.03
-1140.34
-1032.6
-1117.85
-1082.31
-1082.54
-1144.29
-1041.48
-1203.7
-997.412
-1255.87
-951.428
-1299.19
-904.079
-1331.72
-855.679
-1350.47
-806.505
-1351.29
-757.186
-1327.89
-707.727
-1270.98
-645.372
-1153.23
-522.46
-817.917
-367.651
48.6906
-318.136
955.553
-313.186
1421.24
-314.284
1727.62
-319.49
2008.42
-332.278
2257.72
-350.833
2467.65
-370.644
2644.54
-387.945
2795.07
-400.911
2924.57
-408.925
3035.43
-412.041
3128.66
-410.676
3204.81
-405.242
3264.38
-395.976
3307.95
-383.116
3336.4
-367.123
3350.58
-348.618
3351.52
-328.063
3340.89
-305.633
3318.95
-281.557
3283.4
-256.288
3232.05
-230.095
3166.34
-202.742
3087.55
-173.643
2991.4
-141.869
2867.54
-106.527
2699.36
-66.0441
2474.7
-17.9684
2180.35
42.0951
1811.96
118.134
1355.43
211.814
774.798
322.544
175.656
415.144
-258.175
474.94
-452.105
507.537
-462.42
515.206
-339.467
500.268
-153.46
467.027
18.2676
417.435
124.344
351.946
206.196
284.764
323.409
235.956
409.92
204.752
360.894
190.577
233.358
175.351
35.7182
99.837
-461.861
-26.3126
-1028.25
-101.991
-1514.32
-1862.98
-919.623
-622.409
-899.174
-732.382
-878.91
-837.666
-855.517
-931.78
-830.117
-1042.53
-802.525
-1150.28
-773.659
-1263.72
-745.981
-1373.46
-725.362
-1471.34
-723.24
-1535.66
-755.588
-1536.88
-832.977
-1451.5
-943.873
-1293.97
-1052.14
-1127.37
-1121.94
-1022.41
-1143.3
-1003.67