/*--------------------------------*- C++ -*----------------------------------*\
| =========                 |                                                 |
| \\      /  F ield         | OpenFOAM: The Open Source CFD Toolbox           |
|  \\    /   O peration     | Version:  4.1                                   |
|   \\  /    A nd           | Web:      www.OpenFOAM.org                      |
|    \\/     M anipulation  |                                                 |
\*---------------------------------------------------------------------------*/
FoamFile
{
    version     2.0;
    format      ascii;
    class       volVectorField;
    location    "13";
    object      U;
}
// * * * * * * * * * * * * * * * * * * * * * * * * * * * * * * * * * * * * * //

dimensions      [0 1 -1 0 0 0 0];

internalField   nonuniform List<vector> 
225
(
(9.32585e-15 0.852194 15.7946)
(4.37296e-15 -4.89458 12.1215)
(-2.79765e-15 -4.19551 12.1321)
(2.50202e-15 -3.60118 11.9966)
(1.16395e-15 -3.00468 11.8778)
(-1.02403e-16 -2.55319 11.6992)
(2.09925e-15 -2.20881 11.4769)
(5.23384e-16 -1.96603 11.2116)
(8.87445e-16 -1.79855 10.916)
(1.96416e-15 -1.71238 10.5882)
(-2.81398e-16 -1.83746 10.1561)
(-3.5075e-16 -2.28567 9.53762)
(2.30677e-16 -2.51301 8.96378)
(-9.12374e-18 -1.06551 8.91357)
(8.61816e-19 1.76574 7.4709)
(1.42309e-14 -5.35014 22.493)
(9.20112e-15 -14.6049 21.394)
(-1.22814e-15 -13.2708 20.3412)
(5.48731e-16 -11.7697 19.5066)
(1.47748e-15 -11.1561 18.5044)
(-1.1008e-16 -10.6594 17.5174)
(2.19484e-15 -10.0901 16.5714)
(1.16594e-15 -9.525 15.6236)
(5.86839e-16 -8.96544 14.6638)
(2.51819e-15 -8.36731 13.6946)
(6.01481e-16 -7.75709 12.7179)
(-2.30333e-16 -7.30335 11.7194)
(6.39576e-17 -7.01705 10.6244)
(2.8344e-17 -5.73094 9.16116)
(-1.1171e-17 -2.305 4.58319)
(1.44001e-14 -7.71562 23.9801)
(1.14329e-14 -16.7731 24.6729)
(-6.55547e-16 -13.7365 23.9372)
(3.19079e-15 -12.3062 22.6249)
(1.37011e-15 -11.6447 21.2414)
(7.37569e-16 -10.814 20.0013)
(3.1964e-15 -9.94025 18.7738)
(9.26699e-16 -9.10011 17.5247)
(1.47929e-15 -8.28338 16.2654)
(2.29859e-15 -7.47524 15.0263)
(3.86823e-16 -6.66762 13.8176)
(2.36207e-16 -5.84166 12.4301)
(6.41556e-16 -4.8139 10.2753)
(-8.4489e-17 -3.12625 6.68441)
(-3.26554e-17 -0.832098 1.68986)
(1.43082e-14 -8.50255 22.0462)
(1.09289e-14 -16.6211 24.332)
(3.20972e-16 -12.93 23.7971)
(3.97716e-15 -12.1536 21.9985)
(1.18798e-15 -11.4201 20.5028)
(1.54084e-15 -10.4936 19.1722)
(2.90625e-15 -9.63388 17.8167)
(1.06727e-15 -8.82359 16.459)
(1.78847e-15 -8.05363 15.123)
(1.84482e-15 -7.32378 13.8165)
(3.76632e-16 -6.55247 12.4394)
(5.40766e-16 -5.49088 10.583)
(5.43466e-16 -3.78525 7.50867)
(-6.68042e-17 -1.49364 2.766)
(-6.39473e-16 0.153302 -1.77303)
(1.40032e-14 -8.4761 19.748)
(1.25886e-14 -16.3601 24.312)
(1.27239e-15 -13.099 23.6602)
(3.72259e-15 -12.628 21.5365)
(9.51926e-16 -11.8565 20.0248)
(1.31186e-15 -10.9574 18.6637)
(2.62706e-15 -10.1698 17.2587)
(1.96319e-16 -9.40278 15.8711)
(1.36634e-15 -8.65259 14.5236)
(1.7432e-15 -7.93051 13.2136)
(3.40076e-16 -7.16588 11.8292)
(3.9576e-16 -6.11615 9.99627)
(4.09967e-16 -4.42401 7.15553)
(-4.27039e-16 -2.30527 3.28787)
(-9.18338e-16 -0.787178 0.317707)
(1.28512e-14 -8.02186 17.5536)
(1.37883e-14 -16.0195 24.5277)
(3.28955e-15 -13.6434 24.0462)
(3.32413e-15 -12.9943 21.7651)
(1.23313e-15 -12.1264 20.2158)
(1.34233e-15 -11.2247 18.847)
(2.14843e-15 -10.439 17.4341)
(2.77353e-16 -9.64889 16.0434)
(9.44835e-16 -8.86036 14.6933)
(1.28551e-15 -8.09326 13.3818)
(5.54319e-16 -7.29732 12.0171)
(4.58771e-16 -6.2846 10.2818)
(2.64454e-16 -4.73301 7.72091)
(2.51546e-16 -2.75613 4.37245)
(6.98916e-16 -0.949376 1.29733)
(1.15958e-14 -7.33733 15.2534)
(1.46857e-14 -15.491 24.3551)
(5.13986e-15 -14.0226 24.4218)
(3.25552e-15 -13.1279 22.0676)
(1.58622e-15 -12.1448 20.4401)
(1.48794e-15 -11.2358 19.0547)
(1.83159e-15 -10.4361 17.6437)
(9.68252e-16 -9.61985 16.2576)
(1.00499e-15 -8.81017 14.9066)
(1.10381e-15 -8.02724 13.5919)
(8.33208e-16 -7.22397 12.2369)
(1.28173e-15 -6.24029 10.5488)
(1.48273e-16 -4.78754 8.10753)
(2.87532e-17 -2.91412 4.94715)
(2.46021e-15 -1.01085 1.79737)
(9.94603e-15 -6.5561 13.0327)
(1.51263e-14 -14.847 23.8163)
(6.52548e-15 -14.2639 24.6691)
(3.5498e-15 -13.2372 22.3215)
(1.83598e-15 -12.1674 20.5832)
(1.42347e-15 -11.2657 19.1667)
(2.16735e-15 -10.4651 17.7586)
(1.17875e-15 -9.64318 16.3766)
(1.19803e-15 -8.83497 15.0246)
(1.24114e-15 -8.05532 13.7074)
(9.20739e-16 -7.25503 12.3577)
(1.13828e-15 -6.28693 10.6996)
(7.69348e-16 -4.89104 8.33101)
(1.90148e-16 -3.08524 5.26768)
(1.28848e-15 -1.12217 2.0439)
(8.5157e-15 -5.77817 11.1235)
(1.52205e-14 -14.1745 23.0906)
(7.62457e-15 -14.4413 24.8463)
(3.90623e-15 -13.3963 22.6148)
(2.05017e-15 -12.2528 20.7553)
(1.16718e-15 -11.3493 19.2955)
(2.19565e-15 -10.5477 17.8904)
(1.3383e-15 -9.72547 16.511)
(7.43953e-16 -8.91948 15.1562)
(1.22147e-15 -8.14027 13.8352)
(9.89731e-16 -7.34 12.4864)
(9.75255e-16 -6.3802 10.8513)
(1.28086e-15 -5.02356 8.54679)
(2.8308e-16 -3.26581 5.55835)
(-4.61659e-16 -1.23751 2.24764)
(7.36441e-15 -5.0848 9.59897)
(1.5075e-14 -13.5192 22.3)
(8.82326e-15 -14.535 24.9523)
(4.19023e-15 -13.5532 22.9353)
(2.11972e-15 -12.3448 20.9699)
(1.36773e-15 -11.4251 19.4566)
(1.8397e-15 -10.6174 18.0506)
(1.41174e-15 -9.79448 16.6721)
(7.60826e-16 -8.98829 15.3136)
(1.01296e-15 -8.20625 13.9874)
(9.90582e-16 -7.40476 12.6356)
(1.02991e-15 -6.45151 11.0133)
(1.92735e-16 -5.12528 8.75517)
(3.30813e-16 -3.40658 5.81958)
(-1.21599e-15 -1.31905 2.43092)
(6.12641e-15 -4.53851 8.46188)
(1.48069e-14 -12.9254 21.5502)
(9.59465e-15 -14.535 24.9758)
(4.59589e-15 -13.6654 23.2211)
(2.56657e-15 -12.4129 21.1812)
(1.28765e-15 -11.4736 19.6121)
(1.7214e-15 -10.659 18.2004)
(1.52335e-15 -9.83697 16.8209)
(4.97987e-16 -9.03206 15.4585)
(9.13737e-16 -8.24857 14.1269)
(1.08746e-15 -7.44649 12.7692)
(2.85379e-16 -6.49775 11.1498)
(-1.57525e-16 -5.19262 8.91851)
(-5.92927e-16 -3.50192 6.01062)
(-1.89601e-15 -1.36379 2.54253)
(5.37373e-15 -4.17007 7.70216)
(1.45202e-14 -12.4376 20.9275)
(9.95572e-15 -14.4734 24.9366)
(4.99618e-15 -13.7316 23.4379)
(2.75514e-15 -12.4592 21.3593)
(1.08612e-15 -11.5039 19.7405)
(1.67457e-15 -10.6833 18.3207)
(1.63434e-15 -9.8636 16.9392)
(2.14772e-16 -9.06121 15.5729)
(8.58076e-16 -8.27767 14.2365)
(1.04117e-15 -7.47497 12.871)
(5.81407e-17 -6.5269 11.2466)
(1.2966e-16 -5.23313 9.02662)
(-9.43396e-16 -3.55804 6.12623)
(-1.53474e-15 -1.37726 2.57255)
(4.93953e-15 -3.97296 7.27907)
(1.41658e-14 -12.0682 20.4611)
(1.03273e-14 -14.3843 24.8627)
(5.19738e-15 -13.7599 23.5828)
(2.70531e-15 -12.4875 21.497)
(1.13522e-15 -11.5229 19.8406)
(1.60952e-15 -10.6965 18.4121)
(1.75753e-15 -9.87993 17.0279)
(3.57203e-16 -9.08054 15.6584)
(8.33616e-16 -8.29721 14.317)
(1.05554e-15 -7.49313 12.9422)
(-1.99591e-17 -6.54212 11.3062)
(7.41351e-17 -5.25092 9.08432)
(-8.40509e-16 -3.57871 6.17531)
(-1.14651e-15 -1.36502 2.53855)
(4.70002e-15 -3.90367 7.11009)
(1.39297e-14 -11.8312 20.1817)
(1.05002e-14 -14.2998 24.7901)
(5.36517e-15 -13.7669 23.6688)
(2.83933e-15 -12.5019 21.59)
(1.19345e-15 -11.532 19.9096)
(1.60827e-15 -10.7003 18.4746)
(1.76953e-15 -9.88539 17.0884)
(5.06717e-16 -9.08781 15.7172)
(8.62444e-16 -8.30393 14.3729)
(9.94293e-16 -7.49768 12.9906)
(-3.10182e-17 -6.54297 11.3432)
(6.6488e-17 -5.25319 9.11701)
(-8.26953e-16 -3.58348 6.20135)
(-8.58778e-16 -1.34997 2.50614)
(4.81224e-15 -4.03956 7.28686)
(1.35153e-14 -11.6269 19.9521)
(1.0533e-14 -14.1918 24.6681)
(5.52545e-15 -13.7465 23.7084)
(2.86133e-15 -12.5066 21.6738)
(1.28671e-15 -11.5393 19.9774)
(1.61117e-15 -10.6995 18.535)
(1.7078e-15 -9.88696 17.1438)
(6.18753e-16 -9.0905 15.7694)
(8.71971e-16 -8.30495 14.4183)
(8.77563e-16 -7.48992 13.0147)
(3.02775e-17 -6.51529 11.3281)
(-1.49717e-17 -5.20591 9.06114)
(-7.69667e-16 -3.50152 6.08263)
(-4.55337e-16 -1.25234 2.30704)
)
;

boundaryField
{
    inletFace
    {
        type            zeroGradient;
    }
    inlet
    {
        type            fixedValue;
        value           uniform (0 8.7 15);
    }
    inletWalls
    {
        type            noSlip;
    }
    outletInlet
    {
        type            zeroGradient;
    }
}


// ************************************************************************* //
