/*--------------------------------*- C++ -*----------------------------------*\
| =========                 |                                                 |
| \\      /  F ield         | OpenFOAM: The Open Source CFD Toolbox           |
|  \\    /   O peration     | Version:  4.1                                   |
|   \\  /    A nd           | Web:      www.OpenFOAM.org                      |
|    \\/     M anipulation  |                                                 |
\*---------------------------------------------------------------------------*/
FoamFile
{
    version     2.0;
    format      ascii;
    class       volScalarField;
    location    "5";
    object      p;
}
// * * * * * * * * * * * * * * * * * * * * * * * * * * * * * * * * * * * * * //

dimensions      [0 2 -2 0 0 0 0];

internalField   nonuniform List<scalar> 
6785
(
546.425
493.028
441.195
392.784
347.892
305.875
266.52
229.515
194.421
161.057
130.116
101.977
72.9483
38.0296
8.87853
79.983
57.7204
51.9594
48.2476
42.7743
37.0677
31.9155
27.5276
24.0447
21.5869
20.3963
20.8985
22.9951
24.8664
25.1268
-22.8336
-29.4749
-23.696
-19.538
-16.4395
-12.839
-8.94847
-5.00801
-1.10078
2.6162
5.96048
9.02596
12.1033
14.757
15.9919
23.4278
21.0187
25.6173
25.9331
25.9754
26.1796
26.0792
25.6899
25.0975
24.3315
23.3685
22.2493
21.3322
21.181
21.4901
39.8562
37.51
39.0312
36.8997
35.4611
34.2061
32.7872
31.3997
30.1394
29.0507
28.1574
27.4524
26.9798
26.9504
27.1945
30.4302
28.3855
29.3434
28.132
27.9525
27.9608
27.8956
27.9519
28.1297
28.3907
28.7233
29.0965
29.4163
29.6676
29.8405
26.986
25.8353
26.9499
26.6741
27.0937
27.5034
27.8106
28.1651
28.5192
28.8323
29.1051
29.3418
29.509
29.5855
29.6009
28.9946
28.4591
29.3335
29.1087
29.2769
29.3481
29.3315
29.337
29.3222
29.2798
29.2234
29.1717
29.1207
29.0635
29.011
29.468
29.1315
29.5832
29.2269
29.1793
29.0785
28.9479
28.8535
28.7582
28.6694
28.5915
28.528
28.4768
28.4269
28.3676
27.9233
27.6684
27.894
27.6087
27.5996
27.5659
27.523
27.5068
27.4874
27.4726
27.4599
27.4411
27.4127
27.3677
27.2954
26.6036
26.4298
26.5854
26.4268
26.4739
26.4785
26.463
26.4539
26.4314
26.4025
26.3643
26.3158
26.2578
26.1921
26.0999
25.7624
25.7052
25.8182
25.6732
25.6578
25.5903
25.5021
25.4121
25.3091
25.1999
25.0853
24.966
24.8589
24.7722
24.6726
27.0262
26.9158
26.7692
26.3927
26.1126
25.7792
25.4234
25.0786
24.7441
24.4288
24.1368
23.8728
23.6489
23.4813
23.3341
24.6626
25.1437
25.5178
25.3083
24.8774
24.3592
23.8698
23.4217
22.9893
22.5611
22.1398
21.7291
21.3344
20.9769
20.6332
42.3838
41.9863
41.1532
38.5356
34.8519
31.1401
27.7086
24.6386
21.8462
19.4434
17.3704
15.6217
14.2061
13.1167
12.1488
38.4431
37.506
38.0155
37.1838
36.5479
35.109
35.2851
33.8896
32.8327
31.4706
31.6741
29.6499
27.2597
28.2072
26.4101
24.87
24.444
25.5654
22.98
21.1955
23.4096
21.6493
20.0153
20.6582
22.968
20.8303
19.1837
20.2349
23.1028
20.946
19.8896
23.2715
22.2313
21.0045
21.8605
24.9026
23.5499
22.923
26.017
25.5018
24.7437
25.4165
27.9195
27.3337
26.7499
27.3735
29.4451
28.9456
28.637
30.2328
30.1139
29.9012
30.2972
31.6744
31.5692
31.4239
31.7781
33.2686
33.3386
33.2847
34.8144
35.0103
34.8435
34.6457
35.5307
35.6528
35.6409
35.6889
35.4081
35.973
36.2918
33.034
32.0226
32.2523
29.1475
23.2278
25.4382
18.5644
0.642168
6.97507
11.4437
12.0092
12.9144
7.91812
11.6014
15.342
16.3971
16.8361
16.9208
17.6789
19.6571
21.4081
22.7169
17.811
18.5602
20.5398
22.1573
22.4481
22.8022
23.0026
23.5432
27.3314
24.5072
24.7768
24.7105
25.4169
26.7789
27.597
27.6764
27.3461
27.0369
32.0199
30.3446
30.1796
29.619
29.2913
30.1658
31.1282
30.3255
28.7413
31.9557
33.5511
34.1322
33.9864
33.0105
32.1508
31.3373
30.585
29.7958
36.069
35.6883
33.6346
32.8335
32.0527
30.8155
28.9692
26.0919
24.0505
29.6241
32.0081
29.1833
27.1194
24.3565
20.9324
18.5003
16.9026
15.1663
14.6571
14.2325
17.9486
16.1563
15.9177
15.4316
13.5736
10.7706
10.2109
11.5054
7.69014
14.906
14.2326
13.6294
15.6728
16.1885
17.1139
17.7766
18.5509
19.0892
19.3833
19.7447
19.8909
20.0915
20.2342
20.133
20.2211
20.0847
20.2097
20.1025
19.7216
19.6178
19.2853
19.5191
19.1178
18.2864
18.6427
18.0884
17.2338
16.9205
16.4222
17.224
16.3288
15.1678
14.8041
14.3159
15.5244
14.5634
12.8885
14.2036
13.2044
11.7914
11.3955
10.8258
12.7957
11.3878
9.59125
9.19579
8.69483
11.077
9.74884
7.33582
9.66624
8.3827
6.5071
6.16589
5.64609
8.77567
6.99841
4.68984
4.35718
3.93602
7.41611
5.78539
2.72175
5.99482
4.4588
2.14224
1.857
1.38686
5.57125
3.34817
0.488145
0.201826
-0.143721
4.3777
2.26752
-1.62964
2.63162
0.643822
-2.26285
-2.73108
-2.68317
-0.00130277
-0.00173605
-0.0017247
-0.00169426
-0.00162876
-0.00153671
-0.00143871
-0.00131324
-0.00116266
-0.000932129
-0.000661094
-0.000363769
-4.76425e-05
0.00034583
0.000817692
0.00138051
0.00198488
0.00277426
0.00372558
0.00495138
0.00633689
0.00810984
0.0101335
0.0127182
0.0156378
0.019368
0.0235245
0.0287094
0.0341771
0.0406861
0.046758
0.0527324
0.0554948
0.0546572
0.0450925
0.0259318
-0.00665183
-0.0463239
-0.085837
-0.113677
-0.132651
-0.174601
-0.287431
-0.485154
-0.664386
-0.653858
-0.357052
0.120185
0.158255
0.196555
0.182158
0.36003
1.19663
2.39255
1.1913
-2.41102
-1.08987
-0.356613
-0.0175634
0.113749
0.166812
0.22011
0.424565
0.263651
-0.00314295
-0.0176386
0.0868219
0.137796
0.248737
0.344937
0.153583
0.0232743
-0.0941952
-0.0224756
0.0112479
0.0680698
0.117553
0.147381
0.131981
-0.00145211
-0.00284959
-0.00280386
-0.00279523
-0.00270475
-0.00258426
-0.00244637
-0.00222265
-0.00191104
-0.00142735
-0.00089231
-0.000341068
0.000289813
0.00109912
0.0020875
0.00317816
0.00437138
0.00598851
0.00795132
0.0103112
0.0128749
0.0160762
0.0196712
0.024182
0.0291996
0.0355047
0.0424834
0.0512369
0.0606871
0.0723353
0.0844039
0.0981815
0.109927
0.120019
0.121285
0.111052
0.0799334
0.0297861
-0.0370968
-0.111169
-0.197651
-0.339089
-0.577854
-0.860249
-0.973301
-0.721801
-0.0689316
0.800638
0.806137
0.509001
0.45546
1.00458
1.96112
3.79847
2.12362
-3.5221
-1.62217
-0.518729
0.051687
0.280783
0.321356
0.375773
0.715171
0.458822
0.0915454
0.0739969
0.188241
0.232021
0.333798
0.496919
0.21767
0.0488778
-0.0773379
-0.0235815
0.0454301
0.167788
0.282664
0.38217
0.387254
-0.000642434
-0.00276621
-0.00265819
-0.00266806
-0.00253434
-0.00237303
-0.00218157
-0.00181977
-0.00129337
-0.000573591
0.000208177
0.00105434
0.00207641
0.00339212
0.00488592
0.00650587
0.0082995
0.010769
0.0137613
0.0172613
0.0211369
0.0259265
0.0313692
0.0380523
0.0455902
0.0548591
0.0652748
0.0781963
0.0924175
0.109726
0.128355
0.149929
0.170327
0.190287
0.202029
0.202626
0.181174
0.138554
0.0748952
-0.00121126
-0.0935253
-0.235204
-0.440619
-0.611472
-0.529635
-0.0815679
0.686851
1.5873
1.48776
0.8693
0.739958
1.6272
2.74414
4.60821
3.29687
-2.47498
-1.1846
-0.390421
0.15211
0.379952
0.457705
0.505196
0.752525
0.482474
0.104453
0.0975882
0.230347
0.274122
0.336827
0.471108
0.228916
0.081759
-0.0484365
-0.0212189
0.0918112
0.305301
0.505173
0.664019
0.773515
-4.4245e-05
-0.00262561
-0.00252512
-0.00256207
-0.0024136
-0.00225447
-0.00207279
-0.00164297
-0.000942834
-5.05879e-06
0.000979197
0.00208907
0.00347669
0.00533632
0.00736779
0.00957274
0.0120107
0.015364
0.019461
0.0241779
0.0294173
0.0358386
0.0432724
0.052365
0.062712
0.0752828
0.0895106
0.107014
0.12653
0.149926
0.175109
0.203871
0.231468
0.258392
0.276133
0.282004
0.265229
0.228223
0.17252
0.109182
0.040347
-0.0523595
-0.160003
-0.178705
0.063216
0.608847
1.37387
2.17597
2.00744
1.25209
1.08789
2.20577
3.46372
5.35077
4.36818
-1.14
-0.536647
-0.159294
0.281736
0.482595
0.571194
0.614068
0.775205
0.534939
0.142864
0.0815229
0.202538
0.268912
0.353137
0.455896
0.25749
0.120073
-0.00857046
-0.00120197
0.146443
0.436997
0.712612
0.938782
1.08141
0.000175558
-0.00269317
-0.00262708
-0.00269908
-0.00250472
-0.00232591
-0.00214428
-0.00169023
-0.000884863
0.000238652
0.00140631
0.00273753
0.00441801
0.00672081
0.00926728
0.0120341
0.0151078
0.0192491
0.0243886
0.0303856
0.0369927
0.0449602
0.0542753
0.0657245
0.078842
0.0946837
0.112635
0.134457
0.158986
0.188128
0.219333
0.254246
0.287727
0.319862
0.341602
0.350613
0.336735
0.304118
0.256106
0.205835
0.160073
0.110475
0.0772527
0.154038
0.4733
1.05099
1.80074
2.54614
2.4261
1.64068
1.47693
2.75097
4.09566
5.8823
5.13155
-0.326765
-0.0870221
0.0447223
0.403567
0.579017
0.663716
0.705009
0.809302
0.615556
0.203587
0.0605628
0.159644
0.245329
0.37929
0.475503
0.296391
0.152576
0.0315378
0.0292039
0.211868
0.576578
0.927725
1.21119
1.47535
0.000238936
-0.00274688
-0.00273945
-0.00286959
-0.00264249
-0.00240659
-0.00215273
-0.00163529
-0.000749093
0.000520538
0.00188293
0.00346493
0.00543415
0.00808423
0.0110819
0.0144035
0.0181415
0.0230244
0.0290667
0.0363084
0.0443293
0.0538677
0.0649748
0.0786664
0.0944831
0.113599
0.135295
0.16134
0.190644
0.225275
0.262346
0.303079
0.342024
0.379197
0.405232
0.418182
0.408511
0.381734
0.341973
0.303161
0.273926
0.251953
0.263369
0.394904
0.76037
1.36762
2.13358
2.8838
2.87057
2.07408
1.91765
3.27881
4.65041
6.26524
5.67068
0.116081
0.183123
0.203622
0.510248
0.662509
0.741158
0.783256
0.846479
0.689721
0.259486
0.0459072
0.135269
0.232877
0.406148
0.496304
0.328654
0.179779
0.0718454
0.069712
0.284939
0.717588
1.14119
1.49491
1.76269
0.000196507
-0.00277179
-0.00280983
-0.00299379
-0.00277432
-0.00249048
-0.00211696
-0.00145521
-0.000446462
0.000960469
0.00253079
0.00442676
0.00676124
0.00975686
0.0131482
0.0170038
0.021448
0.0271124
0.0340008
0.0423683
0.051809
0.0629778
0.0758876
0.0916887
0.110066
0.132337
0.157767
0.188029
0.22201
0.261939
0.304822
0.35145
0.395935
0.438433
0.469477
0.487516
0.483387
0.463517
0.43201
0.403177
0.386948
0.386891
0.435986
0.620631
1.044
1.70254
2.5112
3.28889
3.36993
2.54073
2.39502
3.78421
5.11938
6.53161
6.07251
0.430859
0.38096
0.332962
0.60255
0.732699
0.804938
0.84866
0.87889
0.74317
0.297598
0.0393036
0.121778
0.231916
0.426881
0.508275
0.35126
0.208026
0.110261
0.117625
0.36642
0.864649
1.36121
1.79622
2.1133
8.49745e-05
-0.00281204
-0.00288977
-0.00309948
-0.00291342
-0.00261419
-0.00214317
-0.00130156
-0.000125602
0.00143685
0.00321346
0.00545701
0.00822835
0.011655
0.0154619
0.0198497
0.0250031
0.0315047
0.039275
0.0487012
0.059507
0.0723565
0.0871681
0.105093
0.125942
0.151238
0.180329
0.214839
0.253527
0.298717
0.347408
0.400132
0.450445
0.498479
0.534864
0.558483
0.56037
0.54743
0.523666
0.503892
0.500523
0.524278
0.617345
0.86802
1.36711
2.09094
2.95112
3.75463
3.91043
3.04007
2.90205
4.27555
5.50996
6.70905
6.37982
0.733418
0.56921
0.448616
0.685719
0.793462
0.858311
0.903365
0.907432
0.777676
0.31274
0.0344749
0.110505
0.237661
0.440907
0.508658
0.366337
0.238196
0.147192
0.171503
0.453776
1.0149
1.58256
2.08051
2.53268
-3.77059e-05
-0.00285658
-0.00298573
-0.00319693
-0.00303952
-0.00273749
-0.00219585
-0.00118983
0.000178389
0.00192044
0.00391296
0.0064962
0.00972317
0.013657
0.017975
0.022954
0.028838
0.0362039
0.0449147
0.0553807
0.0674627
0.0819184
0.0986345
0.118674
0.141883
0.169946
0.202371
0.2408
0.283889
0.333936
0.387971
0.446423
0.502389
0.555712
0.597169
0.626115
0.633901
0.627683
0.611569
0.601093
0.612307
0.663697
0.806706
1.13004
1.7091
2.49725
3.40582
4.229
4.45541
3.54819
3.41781
4.74365
5.82554
6.81127
6.60127
1.03131
0.757801
0.554797
0.758872
0.842401
0.901395
0.946915
0.930996
0.796937
0.311666
0.0280802
0.103245
0.247889
0.452278
0.505277
0.383669
0.271278
0.184954
0.229934
0.547456
1.17151
1.81236
2.38805
2.85709
-0.000157249
-0.00289632
-0.00310786
-0.00332774
-0.00319162
-0.00288593
-0.00228388
-0.0011447
0.000407556
0.00234309
0.00456837
0.00747315
0.0111244
0.0155794
0.0204842
0.0261539
0.0328362
0.041128
0.0508657
0.0624512
0.0758114
0.0918318
0.110427
0.132603
0.158151
0.188837
0.224292
0.266239
0.313273
0.367623
0.426312
0.489757
0.550829
0.609014
0.655112
0.688948
0.702425
0.703038
0.695142
0.695239
0.723456
0.806057
1.00213
1.39824
2.05416
2.90236
3.856
4.69789
5.00038
4.0631
3.93537
5.19993
6.07779
6.86031
6.75317
1.32678
0.947252
0.654396
0.823789
0.882414
0.936053
0.982198
0.951827
0.8065
0.303458
0.0183996
0.0978538
0.256573
0.460703
0.501844
0.403882
0.306825
0.226263
0.292656
0.645513
1.33204
2.04653
2.70948
3.22923
-0.000250967
-0.00289833
-0.00320311
-0.00345071
-0.00333558
-0.00301516
-0.00235001
-0.001093
0.000626146
0.00276104
0.00523843
0.00845794
0.0124987
0.0174381
0.0229433
0.0293536
0.0368943
0.0461643
0.0570016
0.0697931
0.0844907
0.102056
0.122473
0.146732
0.174567
0.20773
0.245913
0.290892
0.341252
0.399136
0.461536
0.528887
0.594065
0.656364
0.706555
0.744845
0.763825
0.771528
0.772682
0.784972
0.832553
0.949155
1.19942
1.66561
2.39274
3.29657
4.29364
5.15702
5.53218
4.56964
4.44752
5.65546
6.28294
6.87535
6.85145
1.60599
1.12987
0.746248
0.879004
0.91534
0.962908
1.01049
0.971175
0.811706
0.297546
0.0105889
0.0957461
0.262648
0.468546
0.503122
0.427076
0.343155
0.273174
0.358894
0.748286
1.49901
2.2899
3.03143
3.66855
-0.000331393
-0.00287951
-0.00328734
-0.00357324
-0.00348896
-0.00314206
-0.00241252
-0.0010437
0.000821436
0.00315727
0.00589503
0.00943551
0.0138422
0.0192299
0.0253151
0.0324718
0.0408937
0.0511835
0.0631806
0.0772794
0.0934261
0.112618
0.134885
0.161244
0.191391
0.227031
0.267836
0.315593
0.368862
0.42972
0.4951
0.565455
0.63381
0.699494
0.753356
0.7959
0.82036
0.83543
0.846415
0.872435
0.941618
1.09465
1.40043
1.93533
2.73089
3.68901
4.72984
5.61899
6.05375
5.07657
4.95722
6.112
6.47179
6.86828
6.90764
1.87201
1.30527
0.832129
0.92771
0.944425
0.984368
1.03275
0.991338
0.816779
0.299138
0.00444996
0.0943015
0.262628
0.471834
0.508424
0.450184
0.375554
0.325104
0.428326
0.854568
1.67075
2.53888
3.36388
4.05457
-0.000396267
-0.00283354
-0.00334816
-0.0036768
-0.00361947
-0.00323825
-0.0024306
-0.000950043
0.00105773
0.00359525
0.00660173
0.0104695
0.0152332
0.0210405
0.0276747
0.0355413
0.0448182
0.0561058
0.0692593
0.0846899
0.102342
0.123206
0.147343
0.175779
0.208218
0.24629
0.289624
0.339945
0.395781
0.459119
0.526849
0.599432
0.670107
0.738425
0.795499
0.842123
0.872085
0.894722
0.916153
0.957199
1.05006
1.24178
1.60429
2.20681
3.06803
4.0781
5.16142
6.08069
6.54896
5.58189
5.46272
6.5411
6.65737
6.83538
6.91406
2.11501
1.46997
0.912176
0.971795
0.968904
1.00219
1.04874
1.01356
0.824323
0.311786
0.00227355
0.0950068
0.258486
0.472169
0.515777
0.469639
0.407691
0.377366
0.499282
0.964903
1.84922
2.79744
3.70002
4.51389
-0.000456674
-0.00278746
-0.00341614
-0.00379744
-0.0037632
-0.00334644
-0.00245187
-0.000859046
0.00129517
0.00403885
0.00732519
0.0115307
0.0166568
0.02288
0.0300464
0.038597
0.0486917
0.0609396
0.0752155
0.0919682
0.111142
0.133718
0.159757
0.190291
0.225036
0.265563
0.311432
0.364276
0.422559
0.488159
0.557931
0.632335
0.704862
0.775361
0.835388
0.886076
0.921734
0.952264
0.984763
1.04206
1.16068
1.39343
1.81422
2.48379
3.40891
4.46942
5.59286
6.54716
7.0208
6.10492
5.98266
6.9316
6.81856
6.76236
6.86466
2.34289
1.62719
0.988965
1.01467
0.991997
1.01705
1.06228
1.03769
0.836134
0.335333
0.0057404
0.0970654
0.250662
0.469528
0.520483
0.482799
0.441744
0.426101
0.57051
1.07876
2.03313
3.06257
4.05319
4.89618
-0.000504202
-0.00273068
-0.00347719
-0.0039118
-0.00389911
-0.00344111
-0.00245871
-0.000750365
0.00155345
0.00450901
0.00808715
0.0126382
0.01814
0.0247842
0.0324795
0.0416921
0.0525678
0.0657188
0.0810522
0.099049
0.119676
0.143903
0.17178
0.20433
0.241288
0.284172
0.332471
0.387713
0.448281
0.515927
0.587475
0.663392
0.737427
0.809774
0.872534
0.927264
0.96882
1.00764
1.0519
1.12665
1.27299
1.54906
2.02925
2.76442
3.7496
4.85659
6.01501
7.0106
7.47863
6.63546
6.52476
7.29687
6.94336
6.64496
6.75438
2.54985
1.78109
1.0638
1.05444
1.01213
1.03111
1.07594
1.06179
0.853568
0.370292
0.0191504
0.105185
0.243308
0.46567
0.520598
0.493145
0.476167
0.472596
0.639917
1.19691
2.22381
3.3371
4.4254
5.33915
-0.000548433
-0.00268538
-0.00355878
-0.00404327
-0.00405511
-0.00355262
-0.00248926
-0.000666524
0.00178047
0.00495136
0.0088235
0.0137264
0.0196146
0.0266965
0.0349316
0.0448086
0.0564517
0.0704829
0.0868333
0.106014
0.128027
0.15384
0.183476
0.217961
0.257035
0.302182
0.352821
0.410374
0.473149
0.542765
0.616018
0.693377
0.768875
0.843034
0.908563
0.967492
1.0153
1.06298
1.11987
1.21343
1.38948
1.71106
2.25176
3.05087
4.0921
5.24164
6.42857
7.47203
7.95104
7.16583
7.06956
7.63908
7.03365
6.4835
6.58611
2.73828
1.9361
1.1393
1.09297
1.0309
1.04547
1.08816
1.08462
0.876337
0.414788
0.0423319
0.118817
0.240015
0.460286
0.518769
0.505082
0.509541
0.518433
0.705943
1.31972
2.42076
3.61726
4.7905
5.8411
-0.000589536
-0.00265038
-0.00364678
-0.00417805
-0.00420281
-0.00365462
-0.00250905
-0.00057684
0.0020114
0.0053971
0.00955873
0.0148076
0.0210818
0.0286052
0.0373828
0.0479155
0.0603125
0.0751987
0.092524
0.112817
0.136126
0.163407
0.194667
0.230924
0.271921
0.319118
0.371877
0.431522
0.496292
0.567697
0.642508
0.721213
0.79811
0.874068
0.942399
1.00566
1.06002
1.1171
1.18757
1.30139
1.50906
1.87812
2.48004
3.34075
4.43205
5.61746
6.82432
7.92013
8.43699
7.67489
7.5841
7.9591
7.09864
6.28995
6.37181
2.90405
2.08979
1.21545
1.13009
1.05084
1.06252
1.09852
1.10781
0.903349
0.466484
0.0744987
0.138578
0.244313
0.457836
0.52034
0.523161
0.542797
0.563428
0.769304
1.4482
2.6246
3.90541
5.17573
6.2711
-0.00063
-0.00265541
-0.00376784
-0.00435002
-0.00438024
-0.00378777
-0.00256075
-0.000524151
0.00220788
0.00580735
0.0102517
0.0158376
0.0224904
0.0304587
0.0397776
0.0509601
0.064103
0.0798343
0.0981112
0.119485
0.144031
0.172701
0.205485
0.243392
0.286163
0.335236
0.389933
0.451493
0.518108
0.591194
0.667539
0.747637
0.826071
0.904011
0.975389
1.04328
1.10462
1.17177
1.25691
1.39264
1.63404
2.05254
2.71639
3.63627
4.77157
5.98613
7.20307
8.35114
8.92456
8.16678
8.05884
8.24641
7.1329
6.06529
6.12322
3.05438
2.24251
1.29304
1.16764
1.07162
1.07974
1.10584
1.13039
0.932604
0.522357
0.115092
0.160247
0.255344
0.459201
0.527118
0.546483
0.570779
0.607053
0.832473
1.5833
2.83498
4.19836
5.57342
6.74601
-0.000662842
-0.00269048
-0.00390929
-0.00454063
-0.00457235
-0.00393413
-0.00262797
-0.000485606
0.00239914
0.00621123
0.0109305
0.0168396
0.023859
0.0322637
0.0421089
0.0539141
0.0677776
0.0843163
0.103501
0.125905
0.151612
0.181563
0.21574
0.255136
0.299487
0.350204
0.40658
0.469794
0.538004
0.612569
0.690313
0.771773
0.851785
0.931835
1.00643
1.07919
1.14786
1.22573
1.32665
1.48605
1.76343
2.23343
2.95977
3.93613
5.10805
6.34267
7.55844
8.75293
9.39152
8.63608
8.49817
8.49618
7.14277
5.83248
5.85461
3.19744
2.39749
1.37468
1.20745
1.09293
1.09712
1.10991
1.15167
0.96401
0.579584
0.163944
0.183909
0.271899
0.465901
0.540672
0.572615
0.593321
0.648624
0.897845
1.72603
3.05178
4.49653
5.96881
7.26899
-0.000688325
-0.00276822
-0.00409158
-0.00477489
-0.00481598
-0.00413551
-0.00275866
-0.000507133
0.0025344
0.00655891
0.0115445
0.0177672
0.0251463
0.0339842
0.044342
0.0567489
0.0713077
0.0886178
0.108676
0.132076
0.158891
0.190048
0.225526
0.266299
0.312102
0.364301
0.422183
0.486876
0.556537
0.632478
0.711611
0.794519
0.876328
0.958774
1.03696
1.11499
1.19155
1.28095
1.39899
1.58414
1.90018
2.42401
3.21359
4.24377
5.44509
6.69092
7.89251
9.12182
9.8293
9.10237
8.90769
8.6988
7.12014
5.60223
5.56745
3.34758
2.55956
1.46452
1.24633
1.11925
1.11824
1.11127
1.17015
0.997452
0.637044
0.217853
0.208932
0.290342
0.477514
0.558906
0.595052
0.613963
0.688482
0.968405
1.87773
3.27534
4.79789
6.37043
7.75063
-0.000704929
-0.00287717
-0.00429635
-0.00503467
-0.00508829
-0.00436908
-0.0029234
-0.000558725
0.00263749
0.00686783
0.0121091
0.018635
0.0263661
0.0356219
0.04647
0.0594522
0.0746632
0.0926872
0.113563
0.137891
0.165733
0.197991
0.234644
0.276652
0.32374
0.377231
0.436406
0.502361
0.573263
0.650417
0.730833
0.815185
0.898871
0.983899
1.06591
1.14957
1.23452
1.33627
1.47286
1.68599
2.04357
2.62382
3.47744
4.55899
5.78213
7.02845
8.2024
9.44517
10.2166
9.56856
9.28216
8.86187
7.07236
5.37969
5.27125
3.50925
2.73027
1.56278
1.28879
1.14787
1.14013
1.11079
1.18858
1.03063
0.694141
0.275498
0.237695
0.307562
0.49328
0.578424
0.612799
0.637179
0.726299
1.04687
2.03863
3.50454
5.10267
6.76929
8.28061
-0.00071156
-0.00303818
-0.00454395
-0.00534964
-0.00542062
-0.00466837
-0.00315309
-0.000678019
0.00266305
0.00708896
0.0125763
0.0193995
0.0274742
0.0371301
0.0484536
0.0619999
0.0778264
0.0965234
0.118168
0.143372
0.172176
0.205458
0.243191
0.286332
0.334597
0.38926
0.449607
0.516704
0.588764
0.667084
0.748817
0.834724
0.920532
1.00846
1.09474
1.18455
1.27862
1.39382
1.55071
1.79446
2.19693
2.83651
3.75523
4.8857
6.12334
7.35948
8.49074
9.71516
10.5302
10.0131
9.60643
8.9819
6.99683
5.15633
4.9778
3.68686
2.91524
1.6693
1.34173
1.17497
1.15924
1.11289
1.207
1.05789
0.748312
0.338575
0.270546
0.321483
0.507749
0.592496
0.625668
0.660412
0.761293
1.13576
2.20959
3.74001
5.41048
7.17743
8.75705
-0.000708579
-0.00325049
-0.00482591
-0.00570452
-0.00578599
-0.00499889
-0.00341003
-0.000835214
0.00263738
0.0072475
0.0129727
0.0200827
0.0284797
0.0385047
0.0502841
0.0643687
0.0807648
0.100086
0.122432
0.148442
0.17812
0.212323
0.251012
0.295151
0.344444
0.400134
0.461492
0.529582
0.602663
0.682057
0.76505
0.852536
0.940548
1.03158
1.1224
1.21879
1.32266
1.45245
1.6315
1.90869
2.3595
3.06147
4.04639
5.22376
6.46876
7.68201
8.75913
9.91769
10.7338
10.3556
9.85738
9.05646
6.90898
4.95184
4.70889
3.88726
3.11669
1.79275
1.40081
1.19881
1.17628
1.12222
1.21967
1.07872
0.798101
0.406673
0.306251
0.330694
0.514254
0.598729
0.635517
0.679416
0.794497
1.23607
2.38911
3.97925
5.7212
7.5932
9.27273
-0.00069745
-0.00353555
-0.00516984
-0.00612569
-0.006213
-0.00538956
-0.00373005
-0.00107048
0.00252179
0.00730871
0.0132652
0.0206482
0.0293425
0.0397138
0.0519337
0.0665277
0.0834627
0.103372
0.126371
0.153131
0.183622
0.218673
0.258237
0.303279
0.353508
0.410136
0.472434
0.541457
0.61554
0.696028
0.780371
0.869583
0.960057
1.05452
1.15037
1.25399
1.36862
1.51448
1.71795
2.03183
2.53489
3.3025
4.35486
5.57701
6.82224
7.99951
9.01408
10.065
10.8132
10.5747
10.0244
9.08648
6.8025
4.77336
4.47002
4.12222
3.34396
1.93754
1.46723
1.22339
1.19352
1.13382
1.22517
1.1031
0.845853
0.4758
0.342992
0.333535
0.509949
0.598503
0.643057
0.692078
0.830826
1.349
2.57716
4.22323
6.03487
8.00067
9.8311
-0.00068774
-0.00388622
-0.00556207
-0.00658665
-0.0066733
-0.0058139
-0.00408995
-0.0013537
0.00235176
0.00730767
0.0134856
0.0211188
0.0300815
0.0407758
0.0534063
0.0684644
0.0858993
0.106345
0.129939
0.157374
0.188607
0.224421
0.264755
0.310588
0.361632
0.419089
0.482213
0.552075
0.62708
0.708624
0.794309
0.885298
0.978323
1.07642
1.17762
1.28901
1.41531
1.57871
1.80898
2.16287
2.722
3.55841
4.67922
5.9446
7.18382
8.31042
9.25443
10.1764
10.8098
10.7078
10.1019
9.0843
6.6848
4.63106
4.28366
4.40217
3.60143
2.09414
1.54448
1.25314
1.20955
1.14219
1.23032
1.13335
0.894254
0.540954
0.380636
0.331717
0.496612
0.592137
0.646063
0.701569
0.874999
1.47468
2.77045
4.46795
6.35115
8.41731
10.3314
-0.000682889
-0.00431335
-0.00601579
-0.00710542
-0.00719585
-0.00630864
-0.00452848
-0.00171786
0.00209476
0.00721109
0.0136013
0.0214619
0.0306732
0.0416737
0.0546841
0.0701695
0.0880754
0.109015
0.133161
0.161211
0.193139
0.229662
0.270711
0.317268
0.369068
0.427295
0.491216
0.561899
0.637854
0.720509
0.807663
0.900603
0.996455
1.09855
1.20564
1.3256
1.46478
1.64763
1.90751
2.30522
2.92465
3.83304
5.02328
6.33011
7.55709
8.61799
9.47876
10.2808
10.7713
10.7662
10.0935
9.05113
6.57312
4.50323
4.16726
4.72582
3.89457
2.27091
1.63251
1.28872
1.22673
1.1492
1.23716
1.16079
0.944325
0.605379
0.417186
0.32856
0.478595
0.582421
0.64014
0.711932
0.931291
1.61407
2.96923
4.71478
6.67011
8.84219
10.8653
-0.000685798
-0.00479559
-0.0065042
-0.00765783
-0.00775636
-0.00684542
-0.00501127
-0.00212954
0.00178038
0.00705009
0.0136392
0.0217048
0.0311464
0.0424312
0.0557804
0.0716544
0.0899877
0.111375
0.136009
0.164607
0.19716
0.234332
0.276028
0.323233
0.375705
0.43463
0.499278
0.570732
0.647589
0.731346
0.819978
0.914937
1.01372
1.12004
1.2334
1.36262
1.51587
1.72005
2.01245
2.45778
3.14149
4.12477
5.38503
6.73208
7.94223
8.9217
9.68268
10.3926
10.7042
10.7493
10.0086
8.99348
6.49583
4.39323
4.13098
5.08558
4.21688
2.46595
1.73281
1.32854
1.24328
1.15683
1.24191
1.17907
0.990573
0.668305
0.44922
0.327231
0.459719
0.568562
0.625088
0.726473
1.00189
1.76595
3.17077
4.95992
6.98889
9.26179
11.4245
-0.00069138
-0.00532917
-0.00703207
-0.00826315
-0.0083791
-0.00744708
-0.0055641
-0.00262385
0.00137535
0.00679309
0.0135611
0.021817
0.0314788
0.0430314
0.056686
0.072921
0.09165
0.113453
0.138529
0.167624
0.200746
0.238534
0.280848
0.328669
0.381792
0.441398
0.506786
0.57903
0.656847
0.741784
0.83204
0.929216
1.03124
1.14222
1.26251
1.402
1.57088
1.79881
2.12713
2.62441
3.37683
4.43795
5.7688
7.15447
8.34316
9.22564
9.86339
10.4954
10.6186
10.675
9.86844
8.92179
6.47345
4.37393
4.20846
5.49825
4.57289
2.68711
1.84999
1.37883
1.25944
1.16757
1.24785
1.19424
1.02916
0.724338
0.478267
0.33353
0.447204
0.548925
0.605732
0.746296
1.08695
1.92987
3.37832
5.20794
7.30815
9.68637
11.9557
-0.000698224
-0.00589294
-0.00758067
-0.00889386
-0.00902451
-0.00807107
-0.00615071
-0.00316512
0.000921806
0.00647509
0.0133955
0.0218289
0.0316988
0.0434981
0.0574249
0.073989
0.0930802
0.115264
0.14073
0.170265
0.203883
0.242238
0.285123
0.333516
0.38724
0.447491
0.513588
0.586616
0.665374
0.751506
0.843413
0.942896
1.04831
1.16422
1.29197
1.44262
1.62864
1.88267
2.25034
2.80375
3.62889
4.77035
6.17183
7.59495
8.75982
9.53046
10.0176
10.5851
10.5116
10.5434
9.69461
8.84067
6.52224
4.5139
4.46434
5.99531
4.9584
2.92778
1.97741
1.44035
1.27624
1.18429
1.25374
1.21398
1.06158
0.766585
0.507378
0.350914
0.441446
0.521713
0.583597
0.767801
1.18424
2.10365
3.59027
5.45655
7.62634
10.1075
12.5113
-0.000701012
-0.00648739
-0.00816624
-0.00956374
-0.00970504
-0.00873891
-0.00679986
-0.0037756
0.000396659
0.00606307
0.0131166
0.0217145
0.0317835
0.0438077
0.0579877
0.0748535
0.0942918
0.116838
0.142669
0.172603
0.206677
0.245553
0.289001
0.337953
0.392277
0.453177
0.520023
0.593891
0.673684
0.761121
0.854857
0.956888
1.06607
1.18746
1.32349
1.48659
1.69174
1.97482
2.3858
3.00002
3.9023
5.12668
6.59891
8.05795
9.19638
9.84133
10.1452
10.6399
10.3781
10.3723
9.52615
8.7671
6.65458
4.8082
4.93539
6.60575
5.39182
3.19963
2.12838
1.51983
1.2975
1.20714
1.2533
1.23775
1.09306
0.803024
0.540435
0.378832
0.44188
0.495089
0.55658
0.789071
1.29232
2.28754
3.81004
5.7114
7.94737
10.5364
13.0411
-0.000709551
-0.00709714
-0.00877016
-0.0102402
-0.010386
-0.00941876
-0.00747232
-0.00440665
-0.000160881
0.00559471
0.0127663
0.0215139
0.031767
0.043991
0.0584025
0.0755401
0.0953033
0.118194
0.144367
0.174663
0.209144
0.248489
0.292464
0.341945
0.396831
0.458355
0.525933
0.600654
0.681495
0.770287
0.865921
0.970646
1.08383
1.2111
1.35612
1.53285
1.75903
2.074
2.53217
3.21161
4.19487
5.50421
7.04669
8.5406
9.65243
10.1606
10.2481
10.6518
10.2287
10.1844
9.39229
8.70404
6.86748
5.24675
5.59826
7.31619
5.87059
3.50007
2.30569
1.61735
1.33018
1.23206
1.24441
1.25218
1.12182
0.840015
0.576189
0.407237
0.444087
0.473738
0.526401
0.811353
1.40736
2.47605
4.03228
5.96811
8.26948
10.9688
13.5891
-0.000726881
-0.00772659
-0.0094028
-0.0109417
-0.0110974
-0.0101425
-0.00819009
-0.00508237
-0.000780942
0.0050452
0.0123199
0.0212067
0.0316263
0.0440313
0.0586548
0.0760431
0.0961183
0.119348
0.145861
0.176508
0.211379
0.251168
0.295655
0.345667
0.40112
0.463276
0.53163
0.607272
0.689282
0.779588
0.877362
0.985116
1.10281
1.23671
1.39182
1.58387
1.83358
2.18395
2.69379
3.44337
4.51185
5.90833
7.52086
9.04835
10.1329
10.4956
10.3345
10.6187
10.0994
10.0195
9.29286
8.66677
7.16196
5.83625
6.43658
8.12947
6.41084
3.84549
2.51797
1.73442
1.37977
1.26745
1.24547
1.25224
1.14474
0.88056
0.616237
0.437134
0.452618
0.461469
0.504853
0.838854
1.52398
2.66475
4.25673
6.22957
8.59379
11.3926
14.1563
-0.000757577
-0.00836242
-0.0100493
-0.0116506
-0.0118194
-0.0108793
-0.00891312
-0.00576696
-0.00142451
0.00445953
0.0118233
0.020839
0.0314035
0.0439731
0.0587834
0.0764012
0.0967674
0.120325
0.147175
0.178158
0.213394
0.253604
0.29857
0.349094
0.405089
0.467852
0.536967
0.613546
0.696766
0.788677
0.888729
0.99975
1.12232
1.26346
1.42965
1.63856
1.91416
2.30327
2.869
3.69316
4.85034
6.33543
8.01707
9.57716
10.6364
10.8492
10.4141
10.5405
10.0053
9.89726
9.22392
8.6556
7.52537
6.5751
7.42308
9.02762
6.99985
4.22966
2.75635
1.87195
1.44713
1.31277
1.25963
1.23978
1.15354
0.918577
0.656312
0.470097
0.466457
0.452477
0.498666
0.873923
1.63673
2.84552
4.47472
6.48775
8.91475
11.8086
14.6775
-0.000796524
-0.00901039
-0.0107296
-0.0123978
-0.0125901
-0.0116619
-0.00967584
-0.00649927
-0.0021244
0.00380781
0.011253
0.0203852
0.0310784
0.0438002
0.0587794
0.0766114
0.0972569
0.121139
0.148332
0.179653
0.215253
0.255884
0.301334
0.352377
0.408935
0.472322
0.542247
0.619841
0.704423
0.798152
0.90081
1.01556
1.14371
1.29307
1.47182
1.69973
2.00425
2.43614
3.06256
3.96616
5.21591
6.79126
8.54154
10.1331
11.1682
11.2303
10.5042
10.4378
9.95159
9.79379
9.17551
8.68874
7.96266
7.47953
8.56343
10.0219
7.6545
4.66638
3.03014
2.04141
1.53835
1.36418
1.28098
1.22822
1.15332
0.948499
0.697684
0.50856
0.484567
0.446625
0.508635
0.921155
1.7489
3.01884
4.68771
6.74285
9.2297
12.2079
15.1856
-0.00085091
-0.00966079
-0.0114296
-0.0131674
-0.01339
-0.0124628
-0.0104525
-0.00724996
-0.00284632
0.00312897
0.0106531
0.0198886
0.0306994
0.0435601
0.0586935
0.0767237
0.0976304
0.121827
0.149359
0.181016
0.21697
0.258011
0.303933
0.355488
0.412594
0.476605
0.547336
0.625978
0.711991
0.807682
0.913168
1.032
1.16627
1.32473
1.51735
1.76624
2.10251
2.58089
3.27238
4.25964
5.60488
7.27141
9.08915
10.7114
11.7258
11.6409
10.6174
10.3434
9.91794
9.68428
9.15057
8.7653
8.45332
8.52629
9.83479
11.0841
8.35787
5.14425
3.3331
2.23805
1.64556
1.41626
1.30176
1.21864
1.14452
0.960277
0.731179
0.545095
0.496174
0.44186
0.534738
0.984421
1.86243
3.1824
4.89043
6.98597
9.53125
12.5717
15.6606
-0.000922297
-0.0103184
-0.0121666
-0.0139902
-0.0142522
-0.0133204
-0.0112877
-0.00806223
-0.00363117
0.00238709
0.0099895
0.0193183
0.0302436
0.0432333
0.0585151
0.0767338
0.0978922
0.1224
0.150277
0.182277
0.218595
0.260051
0.306461
0.35855