/*--------------------------------*- C++ -*----------------------------------*\
| =========                 |                                                 |
| \\      /  F ield         | OpenFOAM: The Open Source CFD Toolbox           |
|  \\    /   O peration     | Version:  4.1                                   |
|   \\  /    A nd           | Web:      www.OpenFOAM.org                      |
|    \\/     M anipulation  |                                                 |
\*---------------------------------------------------------------------------*/
FoamFile
{
    version     2.0;
    format      ascii;
    class       surfaceScalarField;
    location    "5";
    object      phi;
}
// * * * * * * * * * * * * * * * * * * * * * * * * * * * * * * * * * * * * * //

dimensions      [0 3 -1 0 0 0 0];

internalField   nonuniform List<scalar> 
13220
(
-949.894
2249.8
-1573.97
1924.28
-2054.02
1779.95
-2424.26
1670.15
-2699.91
1575.85
-2888.45
1488.44
-2993.14
1404.6
-3013.96
1321.02
-2949.74
1235.67
-2797.37
1147.53
-2551.31
1054.14
-2193.15
941.74
-1687.31
794.062
-1012.78
625.681
287.116
373.307
1876.46
442.635
1854.91
437.146
1785.41
406.503
1700.75
380.385
1601.94
359.697
1509.08
345.109
1419.16
337.353
1328.73
333.329
1239.68
326.824
1154.01
309.526
1071.43
267.387
983.845
191.349
870.07
111.386
705.618
398.501
33.8611
1842.53
-97.2734
1985.93
-253.512
1941.6
-371.032
1818.18
-473.038
1703.91
-567.363
1603.35
-651.511
1503.3
-725.523
1402.71
-787.742
1301.9
-836.931
1203.18
-867.749
1102.27
-855.618
971.68
-740.007
754.455
-434.25
399.855
-35.7472
28.8452
1813.87
-100.398
2115.41
-225.116
2066.5
-303.81
1897.1
-367.371
1767.62
-416.032
1652.21
-445.281
1532.66
-455.997
1413.59
-450.893
1296.87
-429.264
1181.67
-386.527
1059.55
-311.251
896.556
-192.4
635.755
-48.0351
255.638
-83.7865
169.689
1644.31
146.561
2138.74
124.332
2088.82
123.669
1897.94
127.752
1763.59
136.686
1643.42
149.902
1519.44
167.39
1396.2
187.599
1276.62
208.609
1160.61
229.442
1038.72
243.661
881.965
232.465
646.492
154.516
333.15
70.7329
224.347
1419.85
245.735
2117.17
236.183
2098.32
237.084
1896.85
241.309
1759.36
244.939
1639.58
247.116
1517.3
245.486
1397.61
241.344
1280.79
234.083
1167.8
221.456
1051.32
199.511
904.19
156.895
689.464
79.2567
411.124
149.989
205.971
1213.82
241.577
2081.33
216.432
2123.45
193.569
1919.47
179.363
1773.6
165.822
1652.91
152.239
1530.94
138.083
1411.63
123.496
1295.43
109.514
1181.71
95.7049
1065.22
78.4375
921.305
54.0676
713.763
19.8909
445.242
169.884
175.505
1038.86
227.94
2029.32
205.755
2146.14
176.732
1948.92
158.92
1791.88
145.078
1667.16
130.581
1545.8
116.67
1425.87
103.794
1308.56
91.3318
1194.46
79.2842
1077.36
65.8042
935.198
46.0771
733.957
19.1891
472.573
189.087
152.5
887.294
222.555
1960.11
210.752
2158.61
183.833
1976.68
166.496
1809.92
154.058
1680.41
141.457
1558.93
127.988
1440.03
114.549
1322.36
101.779
1207.95
87.4699
1091.78
72.5298
951.718
51.8919
756.282
23.849
502.148
212.926
131.867
755.859
212.745
1879.55
210.218
2161.59
182.425
2004.75
163.602
1829.13
149.029
1695.16
135.207
1573.14
121.14
1454.17
106.692
1337.1
92.2884
1222.17
78.6826
1105.71
61.7015
967.522
40.6623
776.097
15.8534
525.846
228.776
112.974
642.645
199.493
1792.38
206.578
2154.29
179.52
2031.08
159.786
1848.58
145.899
1708.23
131.923
1586.7
117.322
1467.96
103.054
1350.86
87.9754
1236.62
73.017
1119.95
57.7335
982.762
38.1412
795.32
15.4859
548.14
244.247
104.392
538.246
193.973
1702
209.935
2138.54
181.696
2058.42
154.603
1875.64
135.177
1726.59
120.244
1601.37
104.992
1482.16
91.6503
1363.79
78.9175
1248.35
66.7765
1131.89
51.7154
996.068
32.0004
813.33
9.18928
569.395
253.448
100.539
437.999
242.032
1559.74
288.747
2092.08
279.325
2067.08
273.1
1881.84
271.419
1727.48
265.616
1607.01
252.767
1494.35
233.762
1382.37
211.179
1270.72
183.874
1158.14
152.513
1029.07
111.664
855.397
58.7289
623.366
312.117
129.043
308.437
252.91
1433.38
300.577
2044.4
247.267
2118.27
170.569
1958.17
111.905
1783.84
82.3887
1635.68
68.8282
1505.47
67.4036
1382.54
69.2775
1266.21
73.7533
1152.43
69.8469
1027.97
48.4981
870.222
19.232
646.467
331.247
-198.567
258.045
871.626
1343.16
1581.99
1686.55
1664.6
1589.07
1450.43
1286.51
1095.87
878.321
634.351
331.231
0.775148
865.165
-864.29
866.928
867.509
868.894
1646.92
-778.012
1648.46
1648.96
1650.21
2267.12
-616.33
2268.5
2268.88
2730.9
-461.07
2731.41
2732.52
2732.61
3040.84
-307.386
3041.15
3041.96
3218.45
-176.359
3219.38
3219.76
3220.43
3264.33
-43.63
3265.17
3265.57
3266.18
3205.71
60.9749
3206.54
3206.93
3064.67
142.79
3065.48
3065.99
3066.51
2840.52
226.312
2841.05
2841.35
2562.77
278.85
2563.34
2563.53
2564.02
2239.63
324.418
2240.11
2240.65
2240.71
1945.19
296.522
1945.51
1946.51
1701.45
244.811
1702.38
1702.37
1702.96
1390.19
312.58
1390.6
1390.43
1390.64
967.259
423.266
967.139
967.231
439.865
526.953
440.03
439.587
439.91
-127.038
566.79
-126.388
-126.725
-1198.55
1072.29
-1198.83
-1198.6
-1198.87
-2813.17
1614.57
-2813.54
-2813.33
-2813.96
-4800.23
1986.87
-4800.93
-4799.7
-7044.54
2244.27
-7043.03
-7043.76
-6926.12
-6801.69
-6666.35
-8957.62
2421.77
-8833.64
-8680.62
-8501.23
-8319.16
-8136.14
-7958.42
-7774.22
-7568.94
-9914.44
2550.02
-9697.81
-9485.78
-9275.95
-9044.62
-8810.45
-8574.75
-8338.73
-8103.88
-10433.1
2567.8
-10179.7
-9926.1
-9672.11
-9419.57
-9161.62
-8892.42
-8620.59
-8346.79
-8075.22
-10268.8
2453.5
-9984.99
-9699.47
-9413.36
-9128.42
-8845.78
-8548.77
-8243.32
-7940.5
-9801.5
2149.1
-9508.78
-9210.45
-8899.07
-8588.17
-8276.07
-7965.62
-7655.09
-7330.29
-8695.28
1678.22
-8380.77
-8068.02
-7757.55
-7434.19
-7106.36
-6778.76
-6453.97
-6138.67
-6825.53
999.205
-6511.45
-6200.92
-5893.02
-5588.71
-5288.83
-5008.63
-4731
-4463.39
-4205.66
-3958.75
14.2073
-3746.4
-3558.46
-3376.97
-3197
-3016.21
-2861.98
-2772.66
-2686.06
-2141.45
-443.547
-2058.33
-1969.75
-1969.41
-1613.3
-353.763
-1257.03
-356.801
-1255.34
-925.511
-330.633
-924.085
-630.285
-294.204
-363.738
-265.022
-364.762
-108.938
-253.28
110.38
-220.558
113.203
342.056
-230.997
343.34
568.984
-227.351
801.199
-231.554
799.877
1019.97
-219.428
1018.79
1224.11
-204.738
1416.8
-193.786
1416.82
1599.02
-182.785
1765.77
-167.563
1765.47
1926.32
-161.79
1926.16
2079.92
-153.965
2214.65
-134.48
2215.04
2349.92
-134.402
2349.83
2480.45
-129.964
2589.14
-109.152
2589.41
2704.05
-113.942
2797.2
-92.965
2798.84
2897.03
-98.2953
2898.6
2997.25
-98.7417
3074.66
-76.3047
3074.33
3160.59
-84.813
3160.11
3247.59
-85.4354
3309.62
-62.6787
3311.29
3385.79
-74.6613
3439.43
-52.1328
3439.01
3502.07
-61.846
3501.48
3568.82
-65.5869
3609.07
-41.2514
3611.11
3664.99
-54.9136
3666.67
3724.95
-58.9683
3761.79
-35.1932
3760.43
3815.12
-53.046
3844.34
-30.5879
3845.79
3889.05
-44.3748
3890.39
3940.35
-50.9645
3968.39
-27.3321
3967.57
4014.31
-45.8365
4013.3
4067.47
-52.7773
4097.4
-31.2823
4098.43
4151.81
-54.4029
4188.8
-35.9014
4188.2
4243.51
-55.228
4243.55
-66.7517
-290.712
77.017
-290.655
81.5326
-290.59
82.3193
-290.538
83.8569
-290.506
84.9586
-290.485
85.9985
-290.485
86.9625
-290.506
87.8971
-290.555
88.9449
-290.63
90.0987
-290.739
91.5088
-290.891
93.1217
-291.101
95.1142
-291.37
97.5016
-291.71
100.504
-292.128
104.099
-292.65
108.543
-293.292
113.843
-294.094
120.494
-295.082
128.578
-296.309
138.626
-297.799
150.702
-299.615
165.631
-301.778
183.637
-304.337
205.826
-307.255
232.48
-310.489
265.067
-313.83
303.975
-316.985
350.891
-319.357
405.759
-320.16
470.048
-318.222
542.632
-312.224
623.523
-300.68
709.233
-282.521
798.942
-257.461
890.234
-226.91
987.38
-194.413
1098.03
-166.098
1242.82
-149.944
1459.78
-152.914
1827.95
-174.496
2471.98
-201.843
3462.35
-215.672
4662.97
-203.93
5729.99
-169.298
6336.96
-119.659
6363.72
-54.9584
5627.77
16.814
3500.26
82.0402
929.971
108.249
-1934.51
94.2536
-3534.58
40.9616
-3550.16
-14.7008
-2796.17
37.6263
6500.48
106.511
6742.1
111.09
4200.44
102.984
2367.16
96.4602
1228.67
57.0641
237.901
-20.5062
-723.631
-95.3799
-792.016
-127.623
318.642
-168.946
601.188
-105.28
1073.91
-78.2815
650.721
-23.7833
82.4195
35.5272
-436.828
70.7535
-351.043
64.4795
288.669
49.6908
423.633
35.2682
395.543
47.4783
474.147
105.612
-88.8793
140.452
-1727.61
128.751
-2697.13
101.688
-3100.06
81.5485
-3607.26
-4236.48
-290.661
77.4703
-290.647
81.4758
-290.636
82.262
-290.645
83.8262
-290.677
84.9068
-290.716
85.9531
-290.792
86.9138
-290.889
87.8694
-291.039
88.9199
-291.219
90.1046
-291.455
91.5196
-291.726
93.1704
-292.087
95.1794
-292.501
97.625
-293.02
100.652
-293.604
104.318
-294.346
108.806
-295.207
114.242
-296.29
120.999
-297.531
129.271
-299.061
139.465
-300.806
151.817
-302.918
166.974
-305.282
185.331
-308.057
207.764
-311.012
234.76
-314.236
267.457
-317.261
306.397
-319.986
352.792
-321.48
406.741
-321.227
469.074
-317.726
538.757
-310.153
615.223
-296.803
695.509
-277.412
778.793
-251.67
864.008
-221.899
956.542
-191.049
1066.31
-164.996
1215.64
-150.406
1444.28
-153.879
1830.64
-175.093
2492.68
-202.01
3488.91
-215.856
4676.67
-204.471
5719.09
-171.07
6304.4
-123.06
6317.85
-57.2413
5564.8
21.008
3424.86
95.1506
868.824
124.123
-1957.97
109.735
-3517.73
40.5286
-3482.23
-30.2118
-2729.52
56.4454
6415.14
108.412
6691.27
107.669
4200.62
97.4375
2376.24
87.1493
1237.92
46.4756
275.863
-20.1398
-656.625
-90.2258
-721.588
-125.802
352.669
-161.365
635.227
-115.266
1025.36
-65.8763
596.599
-40.5816
48.7725
-11.5549
-470.637
31.9943
-389.651
52.261
270.768
58.9798
423.31
72.857
386.984
49.0742
492.701
111.833
-154.051
137.948
-1755.67
123.563
-2684.6
98.2762
-3076.55
74.2443
-3585.11
-4219.62
-290.647
77.8282
-290.739
81.5722
-290.813
82.3438
-290.909
83.9348
-291.034
85.0375
-291.174
86.1099
-291.361
87.1109
-291.576
88.108
-291.855
89.2107
-292.171
90.4443
-292.555
91.9142
-292.984
93.6237
-293.514
95.7101
-294.105
98.2308
-294.815
101.345
-295.602
105.103
-296.567
109.716
-297.657
115.292
-298.974
122.205
-300.442
130.641
-302.196
141.017
-304.14
153.573
-306.418
168.932
-308.88
187.495
-311.672
210.074
-314.508
237.159
-317.454
269.745
-319.969
308.34
-321.935
353.89
-322.354
406.44
-320.731
466.423
-315.572
532.783
-306.218
604.644
-291.143
679.486
-270.45
756.746
-244.165
836.657
-214.919
925.697
-185.559
1035.61
-161.505
1190.03
-148.724
1430.21
-153.324
1834.15
-174.959
2513.52
-201.916
3515.32
-215.822
4690.17
-204.872
5708.27
-172.287
6271.91
-124.434
6270.41
-57.2888
5498.13
22.5961
3344.38
90.7323
797.77
131.872
-2002.85
117.482
-3505.59
46.3164
-3411.25
-19.9715
-2660.98
64.8937
6332.09
109.723
6647.29
102.368
4207.36
91.4063
2386.55
82.2422
1246.92
46.1652
311.937
-19.6076
-591.032
-81.433
-659.726
-117.022
391.13
-149.817
668.099
-104.773
979.872
-54.2079
546.376
-39.9149
39.9115
-40.9029
-471.371
10.4433
-429.682
58.4992
225.148
71.3732
416.236
80.4587
384.051
58.6397
512.325
116.803
-211.745
138.016
-1775.26
122.643
-2667.35
98.1742
-3050.48
77.9032
-3563.1
-4175.63
-291.006
78.0646
-291.178
81.73
-291.354
82.5184
-291.544
84.1418
-291.782
85.2666
-292.044
86.3781
-292.364
87.4183
-292.72
88.4743
-293.151
89.6273
-293.625
90.9328
-294.179
92.463
-294.785
94.2608
-295.503
96.4288
-296.286
99.0637
-297.202
102.283
-298.199
106.186
-299.384
110.943
-300.692
116.727
-302.222
123.833
-303.888
132.516
-305.823
143.121
-307.906
155.976
-310.273
171.595
-312.739
190.454
-315.434
213.217
-318.02
240.448
-320.538
272.926
-322.392
311.17
-323.445
355.816
-322.656
406.902
-319.564
464.473
-312.714
527.495
-301.617
594.87
-284.943
664.585
-263.139
736.454
-236.512
811.944
-207.909
898.541
-180.046
1009.45
-157.959
1169.32
-147.09
1420.72
-153.123
1841.34
-175.488
2536.82
-202.559
3542.99
-216.354
4704.36
-205.576
5698.12
-173.415
6240.46
-125.16
6224.12
-56.8126
5432.44
24.1377
3265.82
90.9337
744.383
140.07
-2047.82
125.051
-3488.51
52.2289
-3340.18
-11.7994
-2601.41
73.7429
6247.74
112.186
6609.85
98.5342
4220.48
86.115
2397.95
78.0831
1254.05
44.6604
342.828
-19.9549
-526.512
-73.083
-606.166
-102.109
418.252
-137.46
702.053
-93.891
933.801
-45.2116
491.784
-35.2463
23.1664
-61.5861
-451.527
-8.1679
-481.569
63.5012
153.037
81.4906
400.99
86.9719
380.336
69.3383
523.301
121.33
-265.902
138.069
-1793.77
121.53
-2652.49
97.7943
-3028.47
74.3635
-3541.57
-4158.01
-291.925
78.3064
-292.174
81.986
-292.447
82.802
-292.737
84.4507
-293.094
85.634
-293.486
86.7944
-293.946
87.898
-294.451
89.0156
-295.04
90.2415
-295.678
91.6138
-296.404
93.2203
-297.187
95.0939
-298.087
97.3591
-299.057
100.086
-300.164
103.415
-301.354
107.427
-302.729
112.323
-304.217
118.248
-305.916
125.506
-307.728
134.33
-309.777
145.085
-311.927
158.07
-314.296
173.796
-316.672
192.703
-319.161
215.418
-321.385
242.446
-323.354
274.473
-324.431
311.924
-324.463
355.258
-322.387
404.392
-317.781
459.152
-309.255
518.48
-296.499
581.245
-278.388
645.907
-255.689
712.815
-228.947
784.592
-201.152
869.634
-174.865
982.326
-154.781
1148.19
-145.914
1411.03
-153.518
1848.26
-176.698
2559.51
-203.821
3569.76
-217.348
4717.59
-206.541
5687.4
-174.554
6208.43
-125.725
6175.41
-56.1436
5362.91
26.6308
3181.7
94.2281
670.873
147.731
-2103.67
131.5
-3473.95
60.4915
-3269.71
-3.45591
-2535.88
84.0445
6162.29
115.512
6579.17
96.638
4238.74
82.4964
2411.58
74.5955
1262.03
43.2667
374.493
-20.4038
-462.485
-65.4082
-560.913
-88.216
444.751
-123.555
737.834
-81.2727
891.345
-36.8345
448.618
-31.7992
22.4378
-51.2134
-433.101
-1.1709
-524.216
66.6285
86.4461
90.754
381.762
94.7393
381.827
79.3236
536.592
125.712
-312.213
138.911
-1805.6
121.47
-2633.28
98.4268
-3003.83
77.9732
-3519.3
-4109.21
-293.576
78.533
-293.891
82.2967
-294.251
83.1763
-294.637
84.8733
-295.108
86.1193
-295.623
87.3469
-296.218
88.5184
-296.865
89.7185
-297.603
91.0211
-298.394
92.4856
-299.28
94.1776
-300.224
96.1591
-301.289
98.5299
-302.422
101.389
-303.691
104.847
-305.037
109.02
-306.558
114.075
-308.174
120.204
-309.98
127.653
-311.866
136.697
-313.951
147.647
-316.077
160.851
-318.35
176.738
-320.531
195.775
-322.704
218.478
-324.457
245.359
-325.77
276.939
-325.972
313.607
-324.903
355.596
-321.493
402.777
-315.369
454.742
-305.221
510.488
-290.927
568.907
-271.567
628.998
-248.203
691.687
-221.561
760.65
-194.715
845.053
-170.048
960.184
-151.958
1132.28
-145.104
1406.26
-154.316
1859.24
-178.322
2584.9
-205.462
3597.78
-218.65
4731.3
-207.721
5676.99
-175.785
6176.96
-126.304
6127.63
-55.4088
5294.26
29.3376
3098.44
98.5918
614.029
154.635
-2156.53
136.295
-3453.93
67.3799
-3202.99
5.69305
-2478.9
94.8636
6074.24
119.354
6555.64
95.7616
4261.84
79.7084
2426.73
71.2936
1269.78
41.6388
402.09
-21.0549
-400.662
-64.5998
-517.255
-87.0489
465.011
-108.734
758.288
-67.4757
847.748
-26.9994
401.762
-27.9692
17.8007
-44.2972
-422.467
2.26346
-571.137
68.5264
17.9792
100.587
351.303
103.962
379.124
88.4606
544.644
130.236
-356.002
140.41
-1817.43
122.128
-2616.58
99.4271
-2982.84
77.213
-3499.04
-4087.58
-296.081
78.7661
-296.439
82.6566
-296.866
83.6067
-297.331
85.3484
-297.895
86.6815
-298.514
87.978
-299.222
89.2294
-299.988
90.5032
-300.851
91.8871
-301.771
93.4236
-302.788
95.1957
-303.865
97.2539
-305.062
99.7164
-306.322
102.659
-307.71
106.21
-309.164
110.47
-310.776
115.63
-312.458
121.85
-314.3
129.393
-316.184
138.5
-318.215
149.501
-320.224
162.703
-322.297
178.536
-324.178
197.409
-325.924
219.81
-327.099
246.166
-327.654
276.93
-326.9
312.373
-324.669
352.614
-319.902
397.404
-312.284
446.231
-300.602
498.136
-284.923
552.164
-264.531
607.848
-240.743
666.75
-214.415
733.511
-188.642
817.948
-165.62
936.112
-149.491
1114.91
-144.629
1400.4
-155.457
1869.25
-180.303
2609.15
-207.451
3624.5
-220.267
4743.76
-209.133
5665.88
-177.113
6144.8
-126.93
6077.4
-54.6685
5221.81
32.3964
3009.51
103.061
535.485
160.255
-2214.53
138.919
-3433.36
72.7668
-3137.61
14.2548
-2419.54
105.642
5985.24
123.944
6538.16
95.7887
4289.38
77.5064
2444.54
68.286
1279.17
39.9144
430.687
-21.7597
-337.989
-63.5591
-474.88
-84.2875
488.802
-93.3124
768.075
-53.4065
807.748
-17.4701
368.008
-22.3123
26.3149
-42.2197
-402.511
-0.957437
-608.079
68.972
-51.0625
110.051
315.752
113.421
381.468
96.7594
559.756
134.869
-394.341
142.527
-1824.03
123.553
-2596.02
100.961
-2958.71
73.8225
-3470.08
-4057.41
-299.485
78.9703
-299.858
83.0274
-300.325
84.0935
-300.84
85.9055
-301.468
87.3278
-302.158
88.7119
-302.946
90.0497
-303.797
91.4188
-304.748
92.8906
-305.758
94.5264
-306.866
96.3914
-308.034
98.5599
-309.316
101.126
-310.654
104.19
-312.108
107.855
-313.613
112.252
-315.255
117.538
-316.936
123.91
-318.741
131.586
-320.545
140.834
-322.439
151.932
-324.24
165.219
-326.02
181.053
-327.502
199.849
-328.723
221.995
-329.224
247.9
-328.939
277.876
-327.162
312.147
-323.729
350.665
-317.605
393.144
-308.545
438.956
-295.442
487.263
-278.555
537.311
-257.36
589.199
-233.39
645.115
-207.576
710.514
-182.986
795.728
-161.627
917.372
-147.427
1102.97
-144.535
1399.65
-156.978
1883.52
-182.668
2636.28
-209.813
3652.53
-222.211
4756.65
-210.803
5654.8
-178.601
6112.79
-127.601
6027.84
-53.9204
5149.95
35.5017
2920.57
107.55
473.764
164.285
-2268.99
139.35
-3407.05
77.0411
-3077.92
22.2382
-2369.72
116
5892.57
129.318
6525.75
96.7799
4321.44
75.8892
2464.64
65.5865
1289.09
38.3282
456.502
-22.3271
-279.057
-60.4685
-436.924
-77.5081
504.304
-77.4749
767.244
-38.9022
767.253
-9.04715
331.938
-12.509
25.1465
-34.8193
-384.525
-5.66562
-638.024
66.8917
-127.959
117.665
266.792
121.236
378.569
104.021
568.727
139.693
-431.867
145.251
-1831.15
125.669
-2577.92
103.343
-2938.02
80.7288
-3449.33
-4006.91
-303.745
79.1523
-304.106
83.3853
-304.582
84.5665
-305.116
86.4417
-305.77
87.9686
-306.495
89.435
-307.321
90.863
-308.215
92.3109
-309.209
93.8648
-310.262
95.5706
-311.413
97.5113
-312.619
99.747
-313.933
102.387
-315.291
105.508
-316.751
109.235
-318.243
113.677
-319.847
119.013
-321.458
125.404
-323.153
133.089
-324.799
142.295
-326.475
153.316
-327.985
166.443
-329.382
182.034
-330.378
200.44
-330.985
222.021
-330.734
247.097
-329.539
275.921
-326.692
308.608
-322.038
345.037
-314.578
384.842
-304.148
427.386
-289.762
471.953
-271.863
518.072
-250.104
566.404
-226.187
619.745
-201.069
684.278
-177.75
770.748
-158.066
896.314
-145.772
1089.16
-144.841
1397.47
-158.91
1896.6
-185.456
2662.09
-212.575
3679.14
-224.502
4768.2
-212.726
5643.01
-180.201
6080.06
-128.288
5975.83
-53.2281
5074.6
38.4226
2826.6
111.513
392.638
166.351
-2323.26
137.554
-3378.2
80.5426
-3021.92
29.9577
-2318.92
125.869
5799.3
135.348
6517.12
98.6868
4357.5
74.9162
2487.98
63.3298
1300.94
36.9415
483.068
-22.7925
-217.631
-56.0213
-402.807
-67.8242
518.592
-61.2832
761.688
-24.4942
730.287
-1.4601
312.113
-3.15985
30.256
-16.5185
-370.641
-5.54051
-646.464
58.7658
-190.616
122.983
208.593
128.413
379.218
110.827
585.127
144.617
-466.23
148.514
-1834.27
128.449
-2556.4
106.077
-2914.08
80.8577
-3422.16
-3974.53
-308.742
79.2921
-309.068
83.71
-309.523
85.0461
-310.043
87.007
-310.688
88.6347
-311.406
90.199
-312.23
91.7215
-313.12
93.2694
-314.111
94.9124
-315.157
96.7154
-316.298
98.7453
-317.487
101.082
-318.774
103.809
-320.093
107.029
-321.496
110.839
-322.91
115.378
-324.41
120.789
-325.883
127.265
-327.398
135.001
-328.813
144.247
-330.196
155.247
-331.339
168.309
-332.279
183.724
-332.711
201.84
-332.636
222.925
-331.568
247.276
-329.415
275.022
-325.469
306.238
-319.597
340.684
-310.846
377.996
-299.144
417.52
-283.633
458.735
-264.933
501.477
-242.849
546.956
-219.208
598.525
-194.946
662.929
-172.974
751.221
-154.972
880.986
-144.567
1081.05
-145.588
1400.65
-161.281
1914.17
-188.662
2690.97
-215.714
3707.12
-227.1
4780.06
-214.89
5630.95
-181.952
6047.07
-129.007
5924.15
-52.6112
4999.69
40.5311
2732.95
115.121
324.786
165.995
-2372.02
133.765
-3344.72
83.4328
-2974.61
37.3833
-2278.12
135.154
5702.57
141.849
6511.23
101.419
4397.46
74.6073
2514.15
61.5036
1314
36.0335
507.701
-22.8882
-161.293
-51.244
-374.923
-57.6117
523.806
-45.2946
748.987
-9.64924
692.988
6.38055
290.191
4.10835
28.2111
2.14296
-372.25
-1.98193
-643.892
50.3736
-252.209
125.158
135.329
134.264
370.971
116.884
593.565
149.716
-500.957
152.333
-1838.49
131.926
-2537.46
109.341
-2893.07
79.4699
-3394.03
-3942.26
-314.29
79.3905
-314.563
83.9743
-314.973
85.4459
-315.451
87.4793
-316.053
89.2131
-316.729
90.8618
-317.509
92.4725
-318.353
94.0955
-319.293
95.8116
-320.285
97.6737
-321.363
99.7647
-322.482
102.149
-323.686
104.923
-324.907
108.166
-326.193
111.997
-327.467
116.53
-328.798
121.928
-330.067
128.346
-331.333
135.996
-332.449
145.09
-333.469
155.879
-334.177
168.624
-334.591
183.608
-334.398
201.118
-333.579
221.392
-331.647
244.647
-328.501
270.965
-323.448
300.332
-316.382
332.471
-306.409
366.999
-293.555
403.331
-277.096
441.149
-257.817
480.622
-235.646
523.506
-212.487
573.631
-189.219
638.254
-168.652
728.675
-152.337
862.982
-143.811
1070.74
-146.782
1402.12
-164.094
1930.32
-192.295
2718.3
-219.23
3733.44
-230.015
4790.43
-217.284
5618.18
-183.807
6013.39
-129.766
5870.04
-52.1724
4921.83
41.9367
2636.35
119.313
238.415
162.499
-2413.85
127.621
-3308.92
85.7045
-2933.88
44.7094
-2237.54
143.898
5606.27
148.675
6507.4
104.866
4440.68
74.9662
2543.57
60.2086
1328.94
35.7832
531.862
-22.5592
-100.456
-46.1617
-350.039
-46.5397
526.282
-29.6572
733.253
5.40475
657.733
15.2639
284.712
11.7514
35.1684
11.9772
-371.812
-6.8064
-623.389
42.9013
-299.15
124.754
60.3393
138.508
363.522
122.509
608.382
154.949
-534.145
156.657
-1839.68
136.037
-2515.56
113.338
-2868.82
86.3431
-3365.04
-3884.16
-320.163
79.448
-320.373
84.1848
-320.719
85.8194
-321.132
87.94
-321.666
89.7677
-322.269
91.5092
-322.969
93.2076
-323.729
94.922
-324.579
96.7169
-325.471
98.6623
-326.44
100.826
-327.438
103.289
-328.508
106.126
-329.577
109.432
-330.691
113.307
-331.769
117.885
-332.872
123.298
-333.877
129.724
-334.835
137.334
-335.59
146.357
-336.188
156.996
-336.4
169.521
-336.233
184.152
-335.363
201.164
-333.76
220.72
-330.933
243.009
-326.783
268.017
-320.636
295.705
-312.424
325.733
-301.321
357.761
-287.462
391.283
-270.248
426.222
-250.619
463.1
-228.589
504.132
-206.099
553.576
-183.944
619.026
-164.827
711.992
-150.203
850.992
-143.55
1066.34
-148.462
1409.15
-167.372
1951.1
-196.341
2748.78
-223.097
3761.13
-233.204
4801.01
-219.896
5604.85
-185.815
5979.04
-130.546
5815.94
-51.6926
4844.23
40.8627
2542.19
123.804
160.683
155.217
-2442.25
119.112
-3271.41
87.5416
-2905.65
52.0359
-2207.52
152.006
5507.31
155.663
6504.4
108.947
4486.92
75.962
2576.04
59.4376
1345.7
36.4553
554.658
-21.2194
-45.455
-41.1775
-330.558
-35.8209
519.942
-14.9185
712.272
20.4593
620.776
26.3594
273.664
22.5294
34.8468
24.5641
-376.65
12.2268
-612.654
54.2772
-351.244
123.923
-9.13512
141.781
347.36
128.055
612.647
160.44
-568.764
161.522
-1842.45
140.805
-2496.28
117.852
-2847.32
87.4205
-3336.1
-3852.41
-326.11
79.4642
-326.255
84.3182
-326.526
86.076
-326.859
88.263
-327.304
90.1812
-327.81
91.9935
-328.404
93.7638
-329.048
95.5361
-329.771
97.3847
-330.527
99.3677
-331.347
101.568
-332.182
104.049
-333.071
106.898
-333.942
110.188
-334.835
114.035
-335.666
118.552
-336.489
123.883
-337.178
130.171
-337.774
137.6
-338.115
146.358
-338.236
156.655
-337.903
168.711
-337.108
182.737
-335.523
198.947
-333.106
217.48
-329.37
238.456
-324.222
261.83
-317.016
287.507
-307.73
315.15
-295.615
344.464
-280.915
375.072
-263.155
407.155
-243.405
441.563
-221.73
480.966
-200.074
529.942
-179.125
596.422
-161.491
692.123
-148.56
836.125
-143.777
1059.58
-150.628
1414.34
-171.117
1970.33
-200.814
2777.54
-227.325
3787.01
-236.692
4810
-222.724
5590.86
-187.925
5944.05
-131.302
5759.37
-50.6844
4763.46
29.6046
2459.84
121.065
57.0682
143.963
-2463.74
108.686
-3234.36
89.1708
-2887.4
59.309
-2178.45
159.486
5410.21
162.711
6502.2
113.588
4535.5
77.5811
2611.58
59.2525
1364.18
37.4985
575.879
-19.6101
14.968
-36.267
-312.297
-25.0066
510.481
-0.79449
689.287
34.3004
585.374
36.9032
275.757
34.6742
40.4109
37.7
-379.059
33.5071
-606.774
66.9058
-380.184
123.813
-58.2695
146.326
330.923
134.901
623.694
166.218
-600.792
166.925
-1842.83
146.197
-2474.36
123.05
-2822.56
94.1881
-3305.13
-3790.93
-331.882
79.4554
-331.965
84.4033
-332.155
86.299
-332.399
88.5587
-332.742
90.5473
-333.134
92.4321
-333.602
94.2683
-334.106
96.1098
-334.677
98.0153
-335.267
100.057
-335.906
102.303
-336.542
104.832
-337.215
107.708
-337.847
111.023
-338.478
114.869
-339.019
119.375
-339.519
124.657
-339.847
130.874
-340.036
138.172
-339.92
146.751
-339.523
156.774
-338.606
168.468
-337.152
181.981
-334.827
197.518
-331.586
215.15
-326.947
234.98
-320.832
256.897
-312.627
280.804
-302.367
306.36
-289.383
333.355
-274.03
361.56
-255.942
391.415
-236.293
424.104
-215.172
462.617
-194.487
511.812
-174.82
579.808
-158.691
678.54
-147.456
827.607
-144.543
1059.01
-153.324
1425.3
-175.354
1994.34
-205.704
2809.52
-231.888
3814.24
-240.432
4819.09
-225.753
5576.05
-190.181
5908.07
-132.065
5702.45
-48.7813
4681.38
16.4672
2392.95
121.192
-43.3811
129.682
-2468.37
96.9963
-3199.92
90.9159
-2884.9
66.4454
-2159.72
166.208
5311.38
169.657
6499.22
118.714
4585.98
79.799
2650.17
59.5935
1384.95
38.8472
596.823
-17.1818
69.0242
-31.4797
-298.483
-14.9013
492.634
12.5999
661.63
46.941
549.033
49.7672
267.942
48.5637
37.1648
51.7359
-384.684
50.2429
-606.539
75.9196
-413.63
122.353
-106.69
147.435
307.588
142.508
617.542
172.24
-633.235
172.947
-1845.38
152.258
-2455.1
128.649
-2800.25
97.3747
-3275.04
-3754.63
-337.241
79.4133
-337.267
84.413
-337.377
86.3896
-337.528
88.6946
-337.761
90.7424
-338.029
92.6711
-338.356
94.5491
-338.705
96.4188
-339.104
98.347
-339.505
100.395
-339.938
102.641
-340.35
105.15
-340.775
107.996
-341.138
111.249
-341.474
115.014
-341.69
119.399
-341.831
124.527
-341.762
130.527
-341.509
137.549
-340.901
145.76
-339.955
155.32
-338.427
166.412
-336.292
179.173
-333.217
193.754
-329.156
210.204
-323.639
228.58
-316.607
248.754
-307.488
270.617
-296.378
293.862
-282.689
318.391
-266.885
344.129
-248.69
371.795
-229.357
402.822
-208.961
440.561
-189.359
490.024
-171.027
559.604
-156.417
661.47
-146.882
815.914
-145.843
1055.82
-156.551
1434.19
-180.086
2016.51
-211.026
2839.43
-236.801
3839.32
-244.452
4826.34
-228.981
5560.53
-192.528
5871.43
-132.848
5642.93
-46.3875
4594.98
28.5807
2315.97
131.549
-158.128
113.128
-2448.65
84.6747
-3169.18
92.6223
-2894.23
73.1168
-2141.37
172.139
5215.57
176.41
6496.08
124.261
4637.61
82.6138
2691.26
60.4835
1407
40.5213
616.084
-14.5823
129.268
-26.5499
-284.585
-4.93089
472.674
25.371
632.656
59.1507
514.969
62.0248
269.707
62.533
40.1518
65.4368
-387.01
62.6111
-601.823
81.4475
-428.136
118.658
-135.038
139.26
292.715
148.994
607.75
178.539
-663.061
179.619
-1846.28
158.999
-2433.43
134.762
-2774.4
98.199
-3236.37
-3709.06
-341.975
79.367
-341.952
84.3938
-341.983
86.4585
-342.041
88.8072
-342.163
90.8879
-342.3
92.8557
-342.479
94.7653
-342.66
96.6694
-342.875
98.6208
-343.072
100.691
-343.282
102.947
-343.448
105.461
-343.606
108.29
-343.677
111.519
-343.692
115.229
-343.558
119.541
-343.315
124.551
-342.823
130.398
-342.103
137.2
-340.98
145.127
-339.466
154.301
-337.313
164.901
-334.493
177.017
-330.675
190.787
-325.819
206.212
-319.471
223.336
-311.599
242.005
-301.677
262.131
-289.866
283.463
-275.662
306.009
-259.622
329.892
-241.544
356.046
-222.724
386.189
-203.203
423.831
-184.771
474.168
-167.811
545.712
-154.728
650.94
-146.898
810.778
-147.739
1059
-160.357
1448.97
-185.34
2043.52
-216.77
2872.55
-242.031
3865.72
-248.692
4833.65
-232.385
5544.01
-195.019
5833.56
-133.675
5582.9
-44.1472
4506.72
46.6007
2224.17
136.939
-242.747
94.7191
-2402.47
72.2193
-3144.57
94.0356
-2919.78
79.116
-2132.41
177.116
5118.42
182.811
6490.67
130.144
4689.86
86.0033
2735.28
61.8809
1431.93
42.6954
635.693
-10.212
180.136
-21.3423
-274.159
4.5129
444.94
37.4591
599.243
70.3054
479.474
75.9642
258.747
78.133
33.2258
79.6001
-390.729
74.5253
-597.637
85.9747
-445.687
113.868
-166.561
123.158
284.069
150.343
571.592
185.434
-700.811
187.037
-1849.78
166.429
-2414.16
141.676
-2750.75
108.095
-3203.62
-3643.97
-345.9
79.2968
-345.836
84.3097
-345.793
86.3944
-345.761
88.7558
-345.769
90.853
-345.774
92.8269
-345.8
94.7386
-345.808
96.6313
-345.829
98.5654
-345.814
100.602
-345.788
102.814
-345.696
105.262
-345.571
108.01
-345.334
111.124
-345.013
114.695
-344.512
118.821
-343.866
123.605
-342.934
129.156
-341.731
135.593
-340.083
143.055
-337.993
151.66
-335.215
161.549
-331.719
172.797
-327.183
185.505
-321.574
199.656
-314.463
215.273
-305.848
232.203
-295.255
250.388
-282.915
269.637
-268.396
290.111
-252.34
312.079
-234.587
336.734
-216.458
365.937
-197.931
403.465
-180.729
454.575
-165.162
528.063
-153.612
636.735
-147.496
802.32
-150.226
1059.46
-164.743
1461.57
-191.115
2068.48
-222.944
2903.32
-247.591
3889.66
-253.187
4838.89
-235.959
5526.76
-197.605
5795.05
-134.635
5520.25
-42.4875
4414.94
57.3141
2122.7
132.844
-325.904
74.4077
-2342.67
59.7289
-3127.11
94.8211
-2956.17
83.9857
-2122.71
181.08
5024.67
188.814
6484.2
136.308
4741.95
89.9684
2781.07
63.7466
1457.96
44.6556
654.236
-5.80843
239.244
-15.7974
-261.82
14.0302
417.062
49.3059
565.593
81.4755
447.178
89.3015
255.661
93.6123
32.6839
93.3446
-389.954
84.5182
-586.738
87.9793
-444.978
108.833
-177.391
111.054
287.332
152.407
531.697
193.096
-741.194
195.226
-1851.72
174.546
-2392.47
148.966
-2723.52
112.069
-3164.61
-3595.42
-348.867
79.2385
-348.769
84.218
-348.657
86.3269
-348.536
88.6953
-348.434
90.779
-348.306
92.7505
-348.177
94.652
-348.01
96.537
-347.834
98.4536
-347.599
100.47
-347.332
102.647
-346.975
105.054
-346.559
107.737
-346.006
110.772
-345.339
114.233
-344.461
118.223
-343.406
122.822
-342.029
128.144
-340.341
134.28
-338.167
141.37
-335.509
149.497
-332.123
158.798
-327.98
169.313
-322.77
181.131
-316.473
194.213
-308.689
208.574
-299.455
224.077
-288.349
240.702
-275.669
258.36
-261.05
277.316
-245.197
298.044
-227.97
321.88
-210.682
350.895
-193.245
388.904
-177.314
441.317
-163.153
517.065
-153.137
629.375
-148.746
800.703
-153.374
1066.54
-169.763
1480.22
-197.441
2098.33
-229.537
2937.27
-253.444
3914.91
-257.866
4844.16
-239.677
5508.36
-200.348
5755.2
-135.77
5457.25
-41.4309
4322.18
64.9551
2016.29
123.417
-376.259
52.945
-2267.76
47.3284
-3118.8
94.5051