/*--------------------------------*- C++ -*----------------------------------*\
| =========                 |                                                 |
| \\      /  F ield         | OpenFOAM: The Open Source CFD Toolbox           |
|  \\    /   O peration     | Version:  4.1                                   |
|   \\  /    A nd           | Web:      www.OpenFOAM.org                      |
|    \\/     M anipulation  |                                                 |
\*---------------------------------------------------------------------------*/
FoamFile
{
    version     2.0;
    format      ascii;
    class       volVectorField;
    location    "5";
    object      U;
}
// * * * * * * * * * * * * * * * * * * * * * * * * * * * * * * * * * * * * * //

dimensions      [0 1 -1 0 0 0 0];

internalField   nonuniform List<vector> 
6785
(
(7.16532e-15 0.8522 15.7946)
(8.59166e-15 -4.89467 12.1217)
(-2.31575e-15 -4.19561 12.1323)
(3.83079e-15 -3.60125 11.9967)
(4.87215e-16 -3.00472 11.8779)
(-4.47635e-17 -2.55321 11.6993)
(2.16854e-15 -2.20879 11.477)
(4.09367e-16 -1.96598 11.2118)
(-7.81859e-16 -1.79848 10.9161)
(1.41913e-15 -1.71229 10.5883)
(3.03912e-16 -1.83735 10.1562)
(-3.88865e-16 -2.28553 9.53773)
(8.91103e-16 -2.51279 8.96388)
(-2.71104e-17 -1.06533 8.91356)
(-3.88974e-16 1.76561 7.47061)
(2.35784e-14 -5.35041 22.4934)
(1.66282e-14 -14.6054 21.3937)
(6.53675e-16 -13.2709 20.341)
(6.98039e-15 -11.7698 19.5065)
(2.34035e-15 -11.1561 18.5042)
(-1.34387e-16 -10.6593 17.5173)
(2.9333e-15 -10.09 16.5713)
(1.46245e-15 -9.5248 15.6234)
(-7.9891e-16 -8.96517 14.6637)
(6.20376e-16 -8.36703 13.6944)
(5.92038e-16 -7.75685 12.7177)
(-3.82872e-16 -7.30318 11.7193)
(1.3351e-16 -7.01694 10.6245)
(8.20632e-17 -5.7307 9.16133)
(-2.04613e-16 -2.30494 4.58216)
(2.18887e-14 -7.71535 23.9789)
(1.78565e-14 -16.7731 24.6737)
(2.0971e-15 -13.7361 23.937)
(6.3921e-15 -12.3054 22.6247)
(2.20474e-15 -11.6439 21.241)
(7.35549e-16 -10.8133 20.0008)
(3.00117e-15 -9.93958 18.7732)
(6.37525e-16 -9.09955 17.5241)
(-6.3971e-16 -8.28302 16.2647)
(6.87783e-16 -7.47505 15.0256)
(3.63667e-16 -6.66754 13.817)
(-7.93026e-16 -5.8416 12.4292)
(-6.13654e-16 -4.81352 10.2739)
(2.01266e-16 -3.12523 6.68239)
(-9.88749e-17 -0.830939 1.6876)
(2.11908e-14 -8.50105 22.0427)
(1.73532e-14 -16.6202 24.3331)
(2.79581e-15 -12.9288 23.7969)
(4.63072e-15 -12.153 21.9982)
(1.5469e-15 -11.4201 20.5022)
(1.9155e-15 -10.4942 19.1716)
(2.50947e-15 -9.6347 17.8162)
(2.53528e-16 -8.82462 16.4587)
(-1.43021e-15 -8.05488 15.1227)
(8.43713e-16 -7.32538 13.8161)
(5.33788e-16 -6.55416 12.4394)
(-1.58308e-15 -5.4926 10.5844)
(-5.36236e-16 -3.78818 7.51239)
(-2.05342e-15 -1.49782 2.77205)
(-5.18686e-16 0.153269 -1.77194)
(1.90957e-14 -8.47538 19.7454)
(1.49015e-14 -16.3598 24.3125)
(4.58061e-16 -13.1002 23.6596)
(4.54672e-15 -12.6302 21.5358)
(-3.45111e-15 -11.8593 20.0243)
(1.76195e-15 -10.9601 18.6637)
(1.88371e-15 -10.1726 17.2591)
(-7.38307e-16 -9.40559 15.8719)
(6.19565e-16 -8.65508 14.5248)
(1.07756e-16 -7.93262 13.215)
(-3.78194e-16 -7.16804 11.8309)
(-2.35153e-15 -6.11812 9.99892)
(-6.27082e-16 -4.42467 7.15932)
(-8.34099e-15 -2.30287 3.28826)
(-1.15984e-14 -0.782763 0.313585)
(1.75163e-14 -8.02102 17.5473)
(1.5406e-14 -16.0211 24.528)
(2.35253e-15 -13.6498 24.0461)
(3.9721e-15 -12.9986 21.7652)
(1.27887e-15 -12.1295 20.2162)
(2.92214e-15 -11.227 18.8479)
(-7.2616e-16 -10.441 17.4351)
(1.04227e-16 -9.65051 16.0445)
(-1.43944e-15 -8.86125 14.6945)
(-2.26252e-16 -8.09336 13.3832)
(-1.51616e-15 -7.29737 12.0184)
(5.5125e-15 -6.28522 10.2832)
(-1.66212e-15 -4.73362 7.72346)
(-4.9363e-15 -2.75683 4.37594)
(1.12879e-15 -0.952863 1.29862)
(1.58452e-14 -7.3288 15.2269)
(1.91268e-14 -15.4888 24.3497)
(5.4149e-15 -14.0315 24.4232)
(3.85529e-15 -13.1302 22.0692)
(1.748e-15 -12.1454 20.4405)
(1.76246e-15 -11.2366 19.0548)
(1.95892e-15 -10.4373 17.6437)
(2.61542e-15 -9.62125 16.2576)
(2.3242e-15 -8.81176 14.9067)
(2.49644e-16 -8.02931 13.5921)
(6.88689e-15 -7.22678 12.2377)
(1.69147e-16 -6.24477 10.5509)
(-1.14236e-15 -4.79392 8.11217)
(-3.14964e-15 -2.92119 4.95398)
(7.50155e-15 -1.01612 1.8041)
(1.06299e-14 -6.5306 12.9696)
(1.7775e-14 -14.8337 23.7929)
(8.4091e-15 -14.2755 24.6703)
(3.85927e-15 -13.2424 22.3249)
(1.79126e-15 -12.173 20.5814)
(2.85527e-15 -11.2733 19.164)
(6.71807e-15 -10.4741 17.757)
(7.16376e-16 -9.65342 16.3759)
(2.18124e-15 -8.84664 15.0247)
(4.69324e-16 -8.0686 13.7086)
(-1.16e-15 -7.26994 12.3615)
(1.23944e-15 -6.30496 10.7092)
(-7.5882e-16 -4.91407 8.35089)
(-2.59381e-15 -3.11129 5.29776)
(3.45173e-15 -1.14216 2.0755)
(1.33884e-14 -5.73141 11.0171)
(1.74882e-14 -14.1469 23.0342)
(8.70613e-15 -14.4667 24.8472)
(3.84145e-15 -13.4209 22.6279)
(1.91128e-15 -12.2784 20.7583)
(1.85433e-15 -11.3756 19.2976)
(1.52684e-15 -10.5751 17.8959)
(1.21116e-15 -9.75432 16.5194)
(1.02321e-15 -8.94938 15.1671)
(8.13556e-16 -8.17109 13.8489)
(-1.02649e-15 -7.37153 12.5056)
(6.66789e-15 -6.41611 10.8825)
(-8.41184e-16 -5.0709 8.59945)
(-2.56352e-15 -3.32456 5.63529)
(-4.17995e-15 -1.28142 2.33319)
(9.73338e-15 -4.98947 9.38501)
(1.65213e-14 -13.4539 22.1521)
(1.13464e-14 -14.5847 24.939)
(4.20489e-15 -13.6138 22.9637)
(1.76907e-15 -12.399 20.9784)
(7.02921e-16 -11.4725 19.4613)
(-1.77936e-15 -10.6643 18.0613)
(6.07348e-16 -9.84296 16.6885)
(9.77319e-16 -9.03706 15.3349)
(2.69098e-15 -8.25506 14.0139)
(-1.1848e-15 -7.45468 12.6706)
(2.53617e-15 -6.50667 11.0664)
(-5.82396e-15 -5.19191 8.83777)
(-2.03266e-15 -3.48356 5.93008)
(-6.5551e-15 -1.37377 2.54504)
(5.05404e-15 -4.35069 8.05526)
(1.48107e-14 -12.7864 21.2293)
(9.5248e-15 -14.6275 24.9431)
(4.70615e-15 -13.8052 23.3126)
(1.27828e-15 -12.54 21.2441)
(1.18536e-15 -11.5822 19.658)
(5.80993e-16 -10.7648 18.2496)
(1.21143e-15 -9.94398 16.8762)
(8.0297e-16 -9.13657 15.5192)
(-9.0501e-16 -8.34986 14.1929)
(7.2458e-16 -7.54747 12.847)
(-3.45716e-15 -6.60755 11.2576)
(-3.55988e-16 -5.32297 9.07732)
(-1.00303e-14 -3.65076 6.21732)
(-6.83585e-15 -1.47264 2.74749)
(4.5792e-15 -3.70388 6.69335)
(1.6625e-14 -12.05 20.1129)
(9.18404e-15 -14.5491 24.7562)
(4.42031e-15 -13.9256 23.5285)
(5.44134e-15 -12.614 21.3905)
(4.96869e-16 -11.6136 19.7346)
(1.09524e-15 -10.7902 18.3302)
(4.60412e-15 -9.97785 16.9722)
(-3.94706e-15 -9.17888 15.627)
(-1.46131e-15 -8.3999 14.3106)
(1.60006e-15 -7.60623 12.9725)
(-5.31495e-15 -6.67693 11.3976)
(-5.92909e-16 -5.41021 9.24969)
(-6.11886e-15 -3.75587 6.41028)
(-6.70979e-15 -1.51653 2.85694)
(1.97591e-15 -3.34009 6.03752)
(1.51144e-14 -11.5212 19.2439)
(1.03244e-14 -14.6049 24.6437)
(5.01262e-15 -14.3303 24.0089)
(2.85989e-15 -13.0817 21.916)
(-1.34481e-15 -12.0465 20.1419)
(2.34612e-16 -11.1939 18.6557)
(1.32334e-15 -10.3658 17.2527)
(-2.84466e-15 -9.54338 15.8719)
(-1.84142e-15 -8.73353 14.5234)
(2.48486e-15 -7.91306 13.1696)
(-6.84187e-15 -6.97413 11.6197)
(-2.30233e-15 -5.72311 9.55537)
(-8.84136e-15 -4.07181 6.77567)
(-8.30297e-15 -1.69124 3.11492)
(-1.40972e-16 -1.79363 2.49153)
(1.21321e-14 -9.82507 16.2792)
(8.59469e-15 -13.898 23.3096)
(4.85235e-15 -13.9722 23.4257)
(2.13522e-15 -12.6054 21.2737)
(-1.30623e-15 -11.4821 19.5129)
(-6.6448e-16 -10.716 18.2743)
(4.25161e-15 -10.0253 17.1275)
(-1.54879e-15 -9.34212 15.9681)
(-1.44072e-15 -8.66916 14.7946)
(-9.66095e-16 -7.98098 13.5928)
(-3.16723e-15 -7.17787 12.1938)
(-2.47867e-15 -6.06046 10.2877)
(-7.74378e-15 -4.57552 7.75297)
(-6.66255e-15 -2.26022 4.41978)
(7.33747e-16 -4.44714 8.96553)
(1.17666e-14 -10.8526 18.2304)
(1.30623e-14 -15.1652 24.7276)
(8.25668e-15 -16.754 25.9487)
(4.0288e-15 -16.3297 24.3254)
(7.72331e-16 -15.2108 21.9044)
(-1.06034e-15 -13.9422 19.6252)
(8.86752e-16 -12.7131 17.6763)
(-3.08491e-16 -11.5201 15.8871)
(-1.42468e-15 -10.3504 14.278)
(-1.3334e-15 -9.20743 12.7747)
(-3.07951e-15 -7.99566 11.2139)
(-3.40433e-15 -6.58064 9.41222)
(-6.464e-15 -4.67129 6.70112)
(-6.85537e-15 -1.10137 2.50353)
(-1.64247e-16 0.604337 -3.4757)
(-2.21926e-16 0.758787 -5.45234)
(-1.55952e-16 0.722144 -3.97778)
(-1.18612e-16 1.17251 -3.93465)
(-1.04374e-16 1.57651 -3.74546)
(-2.28105e-16 2.28732 -5.07733)
(-1.81649e-16 1.91315 -3.54662)
(-1.51467e-16 2.31956 -3.49193)
(-1.62135e-16 2.55706 -3.34384)
(1.83295e-17 3.52402 -4.3335)
(1.06348e-16 2.84614 -3.0282)
(1.35288e-16 3.0933 -2.85875)
(4.62381e-17 4.41741 -3.60691)
(4.29614e-17 3.3806 -2.49531)
(5.19332e-17 3.70995 -2.45615)
(7.62686e-17 3.78988 -2.37913)
(-7.46011e-17 4.94541 -2.94043)
(-2.21806e-17 3.8555 -2.05771)
(1.95864e-17 3.97997 -1.96645)
(4.18137e-18 5.38666 -2.34731)
(1.47755e-17 4.04172 -1.64146)
(1.41343e-17 4.31144 -1.61822)
(5.18876e-17 4.31939 -1.58817)
(6.887e-19 5.48386 -1.84187)
(3.22084e-17 4.10805 -1.32015)
(9.00439e-17 4.4018 -1.29585)
(1.55603e-16 4.4107 -1.27853)
(-3.69729e-16 5.39603 -1.40535)
(-2.05109e-16 4.10397 -1.03691)
(-5.94247e-17 4.1431 -1.01981)
(-3.18624e-17 5.27195 -0.976162)
(-3.77418e-17 3.91192 -0.748233)
(1.56626e-18 4.06578 -0.734638)
(-2.80486e-17 4.07342 -0.750337)
(-8.0552e-17 4.81301 -0.601473)
(-3.80365e-17 3.63443 -0.508203)
(-2.49508e-17 3.64669 -0.534883)
(-6.72388e-17 4.46195 -0.250216)
(-1.59368e-18 3.28126 -0.278299)
(-2.60541e-17 3.37603 -0.273608)
(-4.7222e-17 3.38258 -0.313849)
(-6.38776e-17 3.91157 0.0461643)
(-7.2478e-18 2.84529 -0.0859984)
(-1.48548e-17 2.95903 -0.0827048)
(-1.51288e-17 2.97054 -0.127704)
(-2.31955e-17 3.41772 0.29161)
(4.44254e-18 2.49064 0.138951)
(-1.67035e-17 2.48987 0.0750819)
(-1.21208e-16 3.04909 0.589692)
(-7.11969e-18 2.20915 0.396371)
(2.69674e-17 2.2528 0.399736)
(-1.69549e-18 2.22631 0.335873)
(-1.16584e-16 2.56694 0.904425)
(-3.06801e-17 1.78549 0.571489)
(-6.62905e-17 1.82904 0.567022)
(4.58042e-17 1.80249 0.509805)
(5.52618e-17 1.96316 0.960336)
(1.40419e-16 1.24214 0.480908)
(-4.5685e-17 1.17331 0.434796)
(-1.77411e-17 1.32811 0.331737)
(4.99753e-17 0.521342 -0.213401)
(5.06847e-17 0.474339 -0.235616)
(1.42696e-17 0.588582 -0.209857)
(1.09508e-15 1.02368 -1.66325)
(-9.55149e-16 -0.569885 0.0567823)
(-1.32857e-15 -0.094399 0.346489)
(-2.03765e-15 -0.371186 2.11803)
(-1.64604e-15 -1.55955 3.73784)
(-1.55168e-15 -1.56995 3.70364)
(-1.59586e-15 -1.57728 3.89094)
(-2.05386e-15 -3.04974 6.8533)
(-1.51538e-15 -3.50173 6.38729)
(-1.57978e-15 -3.77685 6.52413)
(-1.58136e-15 -3.95 6.71293)
(-1.89798e-15 -6.59885 10.3482)
(-1.23973e-15 -6.03553 8.41468)
(-1.32076e-15 -6.33416 8.91031)
(-1.51227e-15 -9.73214 12.9641)
(-1.09851e-15 -8.72923 10.0526)
(-1.31086e-15 -9.10248 10.8047)
(-2.21491e-15 -9.97664 12.5637)
(-2.01402e-15 -9.83562 12.4719)
(-1.96495e-15 -10.0005 12.7545)
(-3.55162e-16 -12.0516 15.4907)
(-1.34687e-15 -10.6432 13.746)
(-1.23257e-15 -11.0158 14.4089)
(-1.17458e-15 -10.9976 14.5497)
(-1.07637e-15 -11.071 14.6733)
(-9.75438e-16 -11.1617 14.8186)
(-8.44605e-16 -11.2392 14.9874)
(-5.62188e-16 -11.3251 15.2961)
(-1.95263e-16 -11.4415 15.6791)
(9.19514e-16 -12.3046 17.084)
(1.15513e-16 -11.7312 16.0734)
(2.60639e-16 -11.8761 16.2996)
(3.11879e-16 -11.8571 16.4231)
(4.42484e-16 -12.0206 16.7898)
(4.7632e-16 -11.9953 16.8284)
(5.38558e-16 -12.0762 16.9721)
(6.02462e-16 -12.1306 17.0963)
(6.67849e-16 -12.1873 17.2444)
(1.89263e-15 -12.6464 18.3073)
(1.544e-15 -12.1849 17.5557)
(1.6127e-15 -12.2877 17.7283)
(1.63806e-15 -12.32 17.8076)
(1.69269e-15 -12.3615 17.9319)
(1.73882e-15 -12.4052 18.1233)
(1.80316e-15 -12.4781 18.3398)
(1.89236e-15 -12.4809 18.4001)
(1.97166e-15 -12.5495 18.51)
(2.07566e-15 -12.5967 18.602)
(3.0408e-15 -12.3523 18.785)
(2.37409e-15 -12.2041 18.4937)
(2.48549e-15 -12.2355 18.5828)
(2.52366e-15 -12.2658 18.6286)
(2.58885e-15 -12.2992 18.6944)
(2.6584e-15 -12.2881 18.7795)
(2.80436e-15 -12.3436 19.0063)
(2.90505e-15 -12.3701 19.0662)
(3.00968e-15 -12.4036 19.0399)
(3.63619e-15 -11.353 17.9238)
(3.15261e-15 -11.5359 18.2229)
(3.24312e-15 -11.4921 18.3163)
(3.25355e-15 -11.5265 18.4357)
(3.3745e-15 -11.4673 18.3365)
(3.45701e-15 -11.462 18.295)
(3.56008e-15 -11.435 18.234)
(3.68765e-15 -11.4204 18.2027)
(3.96111e-15 -11.4885 18.3611)
(4.40332e-15 -9.31124 15.4783)
(4.13732e-15 -10.1391 16.9173)
(4.25515e-15 -9.96295 16.6196)
(4.36098e-15 -9.92761 16.5085)
(4.7235e-15 -9.88211 16.5123)
(4.82075e-15 -9.77415 16.2763)
(4.8373e-15 -9.6691 15.9361)
(4.87537e-15 -9.62366 15.5725)
(4.95113e-15 -9.49799 15.1167)
(3.88918e-15 -6.72449 10.9749)
(5.20407e-15 -7.91592 13.6668)
(5.05212e-15 -7.56257 12.8986)
(4.94617e-15 -7.49936 12.4692)
(4.82017e-15 -7.34657 11.876)
(4.75584e-15 -7.26898 11.2343)
(5.18349e-15 -6.97395 10.4024)
(4.66827e-15 -6.9233 9.84213)
(4.36525e-15 -6.72902 9.12648)
(3.95438e-15 -6.45017 8.33839)
(1.25481e-15 -3.38362 2.82856)
(2.96735e-15 -5.03436 6.3939)
(2.33007e-15 -4.49326 5.10833)
(2.06717e-15 -4.49973 4.73807)
(1.66195e-15 -4.24979 4.07518)
(1.14538e-15 -4.18983 3.33971)
(1.94955e-17 -4.01808 2.11492)
(-1.21246e-15 -3.63466 0.897654)
(-1.15026e-15 -3.58459 0.784398)
(-1.21074e-15 -2.07159 -1.53596)
(-1.28619e-15 -2.9951 0.430135)
(-1.44471e-15 -2.74467 -0.201781)
(-1.31362e-15 -1.70359 -2.03455)
(-1.76176e-15 -2.89339 -1.71641)
(-2.5573e-15 -1.98614 -1.49581)
(-2.58358e-15 -1.58079 -0.997924)
(-3.72516e-15 -1.79361 -1.48472)
(-3.84983e-15 -1.0242 -0.875477)
(-4.76052e-15 -1.17614 -1.41079)
(1.67403e-15 -0.788027 -1.07138)
(9.04432e-16 -0.43413 -0.769367)
(-3.60139e-16 -0.265771 -1.16968)
(-1.54525e-16 -0.101098 -0.993184)
(-2.01255e-16 -0.0233084 -0.663733)
(-4.96212e-16 0.42491 -1.0713)
(-1.41691e-15 0.422326 -0.78233)
(-1.0959e-14 0.704811 -1.00592)
(2.01301e-15 1.05338 -1.12715)
(-5.364e-16 0.877785 -0.768233)
(1.38859e-15 1.52367 -1.02646)
(1.18315e-15 1.26605 -0.751017)
(-8.86558e-16 1.65427 -0.913224)
(-4.66301e-16 2.08622 -0.96074)
(-2.65881e-16 1.63619 -0.676699)
(-6.77125e-16 2.19956 -0.805073)
(-3.20297e-15 2.72689 -0.831052)
(-6.56318e-16 1.96006 -0.594638)
(-1.05526e-15 3.11822 -0.754897)
(-6.93124e-16 2.35212 -0.56339)
(-1.08977e-15 2.86686 -0.6827)
(-1.28913e-15 3.4561 -0.683573)
(-8.64762e-16 2.47033 -0.49087)
(-1.19893e-15 3.86863 -0.618373)
(-8.69062e-16 2.87361 -0.455653)
(-1.02479e-15 3.46725 -0.565292)
(-1.36415e-15 4.0119 -0.558169)
(-1.01133e-15 2.99391 -0.392082)
(-1.17679e-15 3.82745 -0.470766)
(-1.42826e-15 4.48011 -0.459577)
(-9.88586e-16 3.13449 -0.323933)
(-1.44598e-15 4.78179 -0.428453)
(-1.04666e-15 3.53015 -0.30181)
(-1.32355e-15 4.18383 -0.396433)
(-1.37246e-15 4.86958 -0.382159)
(-8.67824e-16 3.44495 -0.257093)
(-8.90965e-17 5.22428 -0.349268)
(-1.06293e-15 3.85967 -0.238284)
(-1.33881e-15 4.55614 -0.332029)
(-2.26664e-15 5.15963 -0.315888)
(-7.69411e-16 3.83173 -0.207718)
(-1.24542e-15 4.81773 -0.262871)
(-1.29939e-15 5.535 -0.239895)
(-8.79365e-16 3.87379 -0.168019)
(-1.2305e-15 5.76659 -0.234729)
(-8.997e-16 4.27132 -0.162008)
(-1.09999e-15 4.99436 -0.235498)
(-1.29847e-15 5.72836 -0.204761)
(-1.02696e-15 4.054 -0.141176)
(-1.72244e-15 6.05494 -0.197621)
(-7.91883e-16 4.47958 -0.133888)
(-1.06069e-15 5.2405 -0.210668)
(-1.27375e-15 5.87346 -0.183551)
(-8.35547e-16 4.34995 -0.120262)
(-8.86261e-16 5.44351 -0.158751)
(-1.77362e-15 6.20254 -0.130305)
(-7.31608e-16 4.33632 -0.0936892)
(-9.25058e-16 6.39557 -0.144841)
(-7.99017e-16 4.75049 -0.0989458)
(-8.77082e-16 5.52389 -0.165381)
(-1.32031e-15 6.29782 -0.13948)
(-9.07882e-16 4.45419 -0.0938709)
(-1.03812e-15 6.62053 -0.150879)
(-8.04348e-16 4.91197 -0.0997711)
(-9.53894e-16 5.72039 -0.180052)
(-7.79739e-16 6.39859 -0.174211)
(-7.19525e-16 4.731 -0.106954)
(-8.44458e-16 5.92557 -0.156121)
(-9.52842e-16 6.76598 -0.16637)
(-6.68136e-16 4.71398 -0.103585)
(-9.98056e-16 6.98351 -0.202149)
(-6.53901e-16 5.14031 -0.130166)
(-8.29986e-16 6.24385 -0.261172)
(-1.20047e-15 -0.100294 1.93784)
(-1.20048e-15 -0.106957 1.93789)
(-1.20047e-15 -0.108127 1.93749)
(-1.20045e-15 -0.110416 1.93704)
(-1.20043e-15 -0.112121 1.93681)
(-1.20039e-15 -0.113775 1.9366)
(-1.20035e-15 -0.115316 1.93654)
(-1.20029e-15 -0.116812 1.9366)
(-1.20022e-15 -0.118446 1.93682)
(-1.20013e-15 -0.120274 1.93723)
(-1.20001e-15 -0.122514 1.93783)
(-1.19987e-15 -0.125084 1.93869)
(-1.1997e-15 -0.128154 1.93988)
(-1.19949e-15 -0.131792 1.94146)
(-1.19924e-15 -0.1363 1.94348)
(-1.19896e-15 -0.141696 1.94598)
(-1.19863e-15 -0.148223 1.94909)
(-1.19826e-15 -0.155914 1.95291)
(-1.19786e-15 -0.165447 1.95766)
(-1.19742e-15 -0.177028 1.96357)
(-1.19697e-15 -0.1913 1.97089)
(-1.19649e-15 -0.208351 1.97987)
(-1.19599e-15 -0.229226 1.99081)
(-1.19547e-15 -0.254245 2.00402)
(-1.19492e-15 -0.284843 2.01974)
(-1.19429e-15 -0.321444 2.03805)
(-1.1935e-15 -0.365999 2.05873)
(-1.1924e-15 -0.419071 2.08105)
(-1.19072e-15 -0.483008 2.10341)
(-1.18806e-15 -0.55785 2.12295)
(-1.18385e-15 -0.645731 2.13516)
(-1.1773e-15 -0.745184 2.13348)
(-1.16745e-15 -0.856287 2.10948)
(-1.15329e-15 -0.973951 2.05332)
(-1.134e-15 -1.0965 1.95575)
(-1.10923e-15 -1.2193 1.8111)
(-1.0796e-15 -1.34687 1.62193)
(-1.04697e-15 -1.48826 1.40374)
(-1.01464e-15 -1.6712 1.18872)
(-9.87157e-16 -1.94606 1.02582)
(-9.69598e-16 -2.41805 0.972834)
(-9.64196e-16 -3.25672 1.06548)
(-9.64348e-16 -4.56758 1.26128)
(-9.55151e-16 -6.17842 1.43092)
(-9.24967e-16 -7.62624 1.44568)
(-8.74176e-16 -8.46304 1.27379)
(-8.09459e-16 -8.52471 0.982959)
(-7.29383e-16 -7.57662 0.608983)
(-6.37377e-16 -4.74767 0.126367)
(-6.2271e-16 -1.34109 -0.352253)
(-6.23831e-16 2.52305 -0.668862)
(-6.10412e-16 4.73139 -0.847618)
(-5.95733e-16 4.82327 -0.392657)
(-5.98341e-16 3.84176 -0.103595)
(-5.52e-16 -8.77294 0.223121)
(-3.94988e-16 -8.98747 -0.687836)
(-3.05458e-16 -5.54015 -0.761793)
(-2.63728e-16 -3.10595 -0.720316)
(-2.5002e-16 -1.61434 -0.652799)
(-2.50018e-16 -0.277831 -0.636885)
(-2.48222e-16 1.05595 -0.15442)
(-2.64327e-16 1.14486 0.456755)
(-3.13883e-16 -0.336817 0.643838)
(-3.46137e-16 -0.821645 1.23501)
(-3.36865e-16 -1.49995 1.02969)
(-3.31503e-16 -0.87379 0.372059)
(-3.23145e-16 -0.188857 0.4378)
(-3.21013e-16 0.553231 0.0890664)
(-3.00391e-16 0.17311 -0.543948)
(-2.93957e-16 -0.533294 -0.41667)
(-2.98813e-16 -0.614579 -0.422539)
(-3.18801e-16 -0.51246 -0.243014)
(-3.48844e-16 -0.588626 -0.216185)
(-3.67868e-16 0.0476301 -0.45874)
(-3.55848e-16 2.26866 -0.914875)
(-3.55836e-16 3.61562 -0.960308)
(-4.37808e-16 4.1681 -0.758264)
(-4.21225e-16 4.8359 -0.599006)
(-7.11542e-17 5.67301 -0.541107)
(-1.20046e-15 -0.105276 1.93585)
(-1.20045e-15 -0.110484 1.93803)
(-1.20042e-15 -0.111414 1.93747)
(-1.20039e-15 -0.113238 1.93757)
(-1.20034e-15 -0.114455 1.93773)
(-1.20028e-15 -0.115572 1.93793)
(-1.20021e-15 -0.116596 1.93832)
(-1.20012e-15 -0.117598 1.93889)
(-1.20001e-15 -0.118748 1.93971)
(-1.19988e-15 -0.119999 1.9408)
(-1.19973e-15 -0.121521 1.94216)
(-1.19954e-15 -0.123263 1.94384)
(-1.19932e-15 -0.1255 1.94594)
(-1.19907e-15 -0.128212 1.94851)
(-1.19878e-15 -0.131676 1.95159)
(-1.19845e-15 -0.135836 1.95524)
(-1.1981e-15 -0.14111 1.95963)
(-1.19772e-15 -0.147514 1.96493)
(-1.19731e-15 -0.15565 1.97136)
(-1.19688e-15 -0.165548 1.97905)
(-1.19643e-15 -0.177963 1.98824)
(-1.19596e-15 -0.193011 1.9991)
(-1.19548e-15 -0.211803 2.01191)
(-1.19496e-15 -0.234638 2.0268)
(-1.19438e-15 -0.263008 2.04397)
(-1.19368e-15 -0.297275 2.06318)
(-1.19274e-15 -0.339433 2.08403)
(-1.19138e-15 -0.389972 2.10532)
(-1.18932e-15 -0.45114 2.12527)
(-1.18613e-15 -0.522791 2.14049)
(-1.18123e-15 -0.606917 2.14623)
(-1.17385e-15 -0.701987 2.13567)
(-1.16312e-15 -0.808184 2.10098)
(-1.14815e-15 -0.921103 2.03313)
(-1.12828e-15 -1.04022 1.92493)
(-1.10336e-15 -1.16295 1.77337)
(-1.07414e-15 -1.29557 1.58439)
(-1.04248e-15 -1.44812 1.37469)
(-1.01148e-15 -1.64728 1.17363)
(-9.85417e-16 -1.94358 1.02431)
(-9.69048e-16 -2.44353 0.978711)
(-9.64261e-16 -3.31289 1.07203)
(-9.64269e-16 -4.63934 1.26496)
(-9.54483e-16 -6.23574 1.43221)
(-9.23829e-16 -7.64574 1.44709)
(-8.72929e-16 -8.44119 1.28071)
(-8.08223e-16 -8.46352 0.999669)
(-7.2822e-16 -7.46243 0.625999)
(-6.37185e-16 -4.61868 0.12839)
(-6.22712e-16 -1.1547 -0.446057)
(-6.23621e-16 2.60553 -0.743568)
(-6.10022e-16 4.69535 -0.939388)
(-5.95791e-16 4.66496 -0.47607)
(-5.98888e-16 3.63544 -0.0161016)
(-5.52015e-16 -8.57473 0.203842)
(-3.96266e-16 -8.99527 -0.752569)
(-3.06631e-16 -5.63887 -0.760278)
(-2.64513e-16 -3.18773 -0.69217)
(-2.50252e-16 -1.65795 -0.617077)
(-2.49359e-16 -0.362216 -0.512525)
(-2.47704e-16 0.904277 -0.149549)
(-2.6613e-16 0.996198 0.416957)
(-3.21945e-16 -0.425436 0.696568)
(-3.47684e-16 -0.774721 1.15228)
(-3.36526e-16 -1.39833 1.00092)
(-3.30773e-16 -0.893403 0.438393)
(-3.25199e-16 -0.0303684 0.353654)
(-3.23324e-16 0.632629 0.371023)
(-3.00705e-16 0.710756 -0.203579)
(-2.9412e-16 -0.257286 -0.32128)
(-2.97906e-16 -0.513686 -0.405237)
(-3.16575e-16 -0.527008 -0.432059)
(-3.45352e-16 -0.674689 -0.292866)
(-3.67764e-16 0.180134 -0.53208)
(-3.59217e-16 2.33162 -0.917447)
(-3.62636e-16 3.58364 -0.926056)
(-4.46505e-16 4.11022 -0.726316)
(-4.34736e-16 4.79042 -0.58828)
(-9.58017e-17 5.63452 -0.448089)
(-1.20037e-15 -0.103997 1.93604)
(-1.20036e-15 -0.109136 1.93829)
(-1.2003e-15 -0.110153 1.93841)
(-1.20025e-15 -0.112234 1.93902)
(-1.20018e-15 -0.113656 1.93979)
(-1.20009e-15 -0.115031 1.94063)
(-1.19998e-15 -0.116297 1.94173)
(-1.19985e-15 -0.117568 1.94306)
(-1.19969e-15 -0.118989 1.9447)
(-1.19951e-15 -0.120587 1.94667)
(-1.19931e-15 -0.122493 1.94898)
(-1.19907e-15 -0.124722 1.95168)
(-1.19881e-15 -0.127459 1.95488)
(-1.19851e-15 -0.130801 1.95859)
(-1.19819e-15 -0.134925 1.9629)
(-1.19784e-15 -0.139906 1.96786)
(-1.19747e-15 -0.146001 1.97368)
(-1.19708e-15 -0.153386 1.9805)
(-1.19668e-15 -0.162552 1.98847)
(-1.19626e-15 -0.173733 1.99771)
(-1.19582e-15 -0.187492 2.00842)
(-1.19537e-15 -0.204158 2.02072)
(-1.19489e-15 -0.224587 2.03478)
(-1.19435e-15 -0.249296 2.05059)
(-1.19371e-15 -0.279413 2.06819)
(-1.19287e-15 -0.315586 2.08713)
(-1.19171e-15 -0.35924 2.10674)
(-1.19001e-15 -0.411081 2.12548)
(-1.18746e-15 -0.472534 2.14128)
(-1.18361e-15 -0.543668 2.15041)
(-1.17787e-15 -0.625304 2.14799)
(-1.16953e-15 -0.716039 2.1272)
(-1.15778e-15 -0.814889 2.08077)
(-1.14189e-15 -0.918229 2.00078)
(-1.1214e-15 -1.02527 1.88187)
(-1.09636e-15 -1.13571 1.72352)
(-1.06768e-15 -1.25783 1.53421)
(-1.03719e-15 -1.40631 1.33168)
(-1.0078e-15 -1.61154 1.1434)
(-9.83411e-16 -1.927 1.00808)
(-9.68435e-16 -2.45643 0.972905)
(-9.64349e-16 -3.35325 1.07104)
(-9.64156e-16 -4.6875 1.26448)
(-9.53647e-16 -6.2634 1.43095)
(-9.22419e-16 -7.63555 1.44688)
(-8.71379e-16 -8.39773 1.28562)
(-8.06677e-16 -8.3999 1.01141)
(-7.26784e-16 -7.37527 0.632694)
(-6.36953e-16 -4.5135 0.119724)
(-6.22681e-16 -1.12167 -0.416825)
(-6.23347e-16 2.63871 -0.781903)
(-6.09733e-16 4.68226 -0.977028)
(-5.96016e-16 4.60009 -0.517179)
(-5.99859e-16 3.54379 -0.0855376)
(-5.52173e-16 -8.49841 0.138974)
(-3.97946e-16 -8.92945 -0.794053)
(-3.08017e-16 -5.63642 -0.728407)
(-2.65402e-16 -3.19331 -0.652158)
(-2.50542e-16 -1.6606 -0.581744)
(-2.48852e-16 -0.373943 -0.494173)
(-2.47488e-16 0.832192 -0.143149)
(-2.67115e-16 0.915402 0.382975)
(-3.27234e-16 -0.543925 0.626619)
(-3.47771e-16 -0.843206 1.09021)
(-3.36004e-16 -1.32834 0.915194)
(-3.29596e-16 -0.74492 0.381202)
(-3.28089e-16 -0.0767007 0.343163)
(-3.25548e-16 0.58504 0.306799)
(-3.0368e-16 0.537062 0.17305)
(-2.94611e-16 -0.303426 -0.339977)
(-2.96672e-16 -0.551973 -0.47847)
(-3.13619e-16 -0.521255 -0.520796)
(-3.35114e-16 -0.694725 -0.330098)
(-3.66427e-16 0.245018 -0.589786)
(-3.60968e-16 2.35419 -0.928222)
(-3.65101e-16 3.56968 -0.919683)
(-4.49436e-16 4.08664 -0.722958)
(-4.42363e-16 4.76664 -0.58972)
(-1.1109e-16 5.59818 -0.4075)
(-1.20004e-15 -0.103597 1.93874)
(-1.20007e-15 -0.108494 1.94074)
(-1.19999e-15 -0.109527 1.94177)
(-1.19993e-15 -0.111669 1.94289)
(-1.19983e-15 -0.113152 1.94438)
(-1.19972e-15 -0.114602 1.94601)
(-1.19958e-15 -0.115937 1.94796)
(-1.19941e-15 -0.117266 1.95021)
(-1.19921e-15 -0.118733 1.95282)
(-1.19899e-15 -0.120398 1.95582)
(-1.19875e-15 -0.122359 1.95923)
(-1.19847e-15 -0.124645 1.9631)
(-1.19817e-15 -0.127422 1.9675)
(-1.19785e-15 -0.13082 1.97247)
(-1.19751e-15 -0.135017 1.9781)
(-1.19716e-15 -0.140101 1.98447)
(-1.19679e-15 -0.146318 1.99174)
(-1.19641e-15 -0.153872 2.00001)
(-1.19602e-15 -0.163233 2.00943)
(-1.19562e-15 -0.174681 2.02006)
(-1.1952e-15 -0.188704 2.03205)
(-1.19475e-15 -0.20569 2.04544)
(-1.19424e-15 -0.226421 2.06029)
(-1.19364e-15 -0.251497 2.07646)
(-1.19289e-15 -0.281888 2.09381)
(-1.19186e-15 -0.318294 2.11165)
(-1.19041e-15 -0.36187 2.12908)
(-1.1883e-15 -0.41331 2.14424)
(-1.18518e-15 -0.473655 2.15484)
(-1.18061e-15 -0.542942 2.15692)
(-1.17401e-15 -0.6214 2.14552)
(-1.1647e-15 -0.707617 2.11404)
(-1.15199e-15 -0.800218 2.05586)
(-1.13527e-15 -0.896151 1.96429)
(-1.11427e-15 -0.994875 1.83579)
(-1.08926e-15 -1.09761 1.67212)
(-1.06124e-15 -1.21386 1.48367)
(-1.03199e-15 -1.36058 1.28871)
(-1.00421e-15 -1.57035 1.11289)
(-9.81486e-16 -1.89922 0.991563)
(-9.67875e-16 -2.45077 0.968134)
(-9.6445e-16 -3.36919 1.07328)
(-9.64016e-16 -4.7088 1.26872)
(-9.52754e-16 -6.2656 1.43434)
(-9.20934e-16 -7.60466 1.45008)
(-8.69744e-16 -8.3395 1.2917)
(-8.05039e-16 -8.3257 1.0211)
(-7.25281e-16 -7.28088 0.63568)
(-6.36758e-16 -4.3994 0.106277)
(-6.22645e-16 -1.02576 -0.403417)
(-6.23046e-16 2.70328 -0.833922)
(-6.09309e-16 4.66234 -1.01873)
(-5.96285e-16 4.49463 -0.565044)
(-6.0084e-16 3.5647 -0.123821)
(-5.52567e-16 -8.38672 0.0617494)
(-3.99913e-16 -8.83648 -0.837776)
(-3.0948e-16 -5.61991 -0.707199)
(-2.6629e-16 -3.19349 -0.619115)
(-2.50861e-16 -1.67047 -0.545806)
(-2.48512e-16 -0.441546 -0.478081)
(-2.47275e-16 0.741759 -0.130956)
(-2.67558e-16 0.838649 0.359421)
(-3.31755e-16 -0.563601 0.51896)
(-3.47782e-16 -0.933127 1.01411)
(-3.3528e-16 -1.28063 0.832069)
(-3.28427e-16 -0.676783 0.333942)
(-3.30486e-16 -0.0367828 0.314727)
(-3.28184e-16 0.611299 0.215078)
(-3.14438e-16 0.636432 0.489191)
(-2.96001e-16 -0.261585 -0.346847)
(-2.95631e-16 -0.550658 -0.548423)
(-3.1043e-16 -0.505759 -0.575564)
(-3.26633e-16 -0.689761 -0.391256)
(-3.65994e-16 0.32168 -0.641634)
(-3.6292e-16 2.38065 -0.938174)
(-3.68553e-16 3.54622 -0.912633)
(-4.53151e-16 4.05168 -0.717528)
(-4.5026e-16 4.73632 -0.591818)
(-1.26885e-16 5.55522 -0.450374)
(-1.19936e-15 -0.104107 1.9449)
(-1.19943e-15 -0.108985 1.94693)
(-1.19936e-15 -0.11006 1.9488)
(-1.1993e-15 -0.112243 1.95045)
(-1.19921e-15 -0.113798 1.95271)
(-1.19908e-15 -0.115338 1.95516)
(-1.19893e-15 -0.116789 1.95803)
(-1.19874e-15 -0.118241 1.96124)
(-1.19853e-15 -0.119815 1.96487)
(-1.19829e-15 -0.12159 1.96894)
(-1.19803e-15 -0.12367 1.97348)
(-1.19774e-15 -0.126092 1.97852)
(-1.19744e-15 -0.129 1.98412)
(-1.19712e-15 -0.132517 1.99031)
(-1.19679e-15 -0.136839 1.9972)
(-1.19645e-15 -0.142076 2.00486)
(-1.19609e-15 -0.148468 2.01342)
(-1.19573e-15 -0.156215 2.02294)
(-1.19535e-15 -0.165737 2.03352)
(-1.19496e-15 -0.17739 2.04521)
(-1.19453e-15 -0.191617 2.0581)
(-1.19405e-15 -0.208819 2.07212)
(-1.19349e-15 -0.229685 2.08724)
(-1.19278e-15 -0.254861 2.10315)
(-1.19185e-15 -0.285213 2.11956)
(-1.19057e-15 -0.321455 2.13558)
(-1.18875e-15 -0.364543 2.15003)
(-1.18614e-15 -0.415095 2.16082)
(-1.1824e-15 -0.473848 2.16546)
(-1.17706e-15 -0.540792 2.15983)
(-1.16958e-15 -0.615802 2.13901)
(-1.15933e-15 -0.697441 2.09671)
(-1.14572e-15 -0.784213 2.02711)
(-1.1283e-15 -0.87375 1.92476)
(-1.10698e-15 -0.966115 1.78799)
(-1.08217e-15 -1.06403 1.62056)
(-1.05494e-15 -1.17808 1.43442)
(-1.02701e-15 -1.32669 1.24787)
(-1.00082e-15 -1.5434 1.08474)
(-9.79706e-16 -1.88586 0.977636)
(-9.67389e-16 -2.45753 0.966707)
(-9.64557e-16 -3.39512 1.07984)
(-9.63841e-16 -4.73885 1.2776)
(-9.51817e-16 -6.27728 1.44171)
(-9.1941e-16 -7.58519 1.45597)
(-8.6807e-16 -8.29355 1.2988)
(-8.03356e-16 -8.26116 1.02989)
(-7.23766e-16 -7.19284 0.637432)
(-6.36609e-16 -4.29579 0.0909227)
(-6.22616e-16 -0.944498 -0.410404)
(-6.22706e-16 2.76767 -0.889497)
(-6.08835e-16 4.64202 -1.05566)
(-5.96649e-16 4.40417 -0.615813)
(-6.01749e-16 3.41078 -0.170874)
(-5.53156e-16 -8.271 -0.0196982)
(-4.02124e-16 -8.77843 -0.887299)
(-3.11001e-16 -5.63002 -0.701075)
(-2.67169e-16 -3.2034 -0.59879)
(-2.51196e-16 -1.67733 -0.516724)
(-2.48296e-16 -0.481816 -0.462705)
(-2.47111e-16 0.657999 -0.118805)
(-2.6747e-16 0.776055 0.338023)
(-3.34092e-16 -0.594463 0.420788)
(-3.47703e-16 -0.9716 0.934292)
(-3.3437e-16 -1.21993 0.738872)
(-3.27367e-16 -0.624844 0.27768)
(-3.32622e-16 -0.0236032 0.277429)
(-3.29839e-16 0.598842 0.17523)
(-3.19431e-16 0.698386 0.380845)
(-2.97224e-16 -0.165687 -0.330892)
(-2.95215e-16 -0.525233 -0.603715)
(-3.07182e-16 -0.504605 -0.631628)
(-3.21079e-16 -0.703789 -0.463077)
(-3.65627e-16 0.385602 -0.68508)
(-3.64809e-16 2.40005 -0.951219)
(-3.71646e-16 3.52414 -0.912626)
(-4.56252e-16 4.0217 -0.719257)
(-4.5809e-16 4.70826 -0.597532)
(-1.42977e-16 5.51055 -0.38051)
(-1.19834e-15 -0.104547 1.95589)
(-1.19844e-15 -0.109512 1.95799)
(-1.1984e-15 -0.110651 1.96059)
(-1.19836e-15 -0.112881 1.96276)
(-1.19828e-15 -0.114502 1.96574)
(-1.19817e-15 -0.116111 1.96898)
(-1.19803e-15 -0.117661 1.97271)
(-1.19786e-15 -0.119239 1.97685)
(-1.19766e-15 -0.120944 1.98145)
(-1.19744e-15 -0.122845 1.98653)
(-1.19719e-15 -0.12506 1.99212)
(-1.19693e-15 -0.127647 1.99822)
(-1.19664e-15 -0.130744 2.00491)
(-1.19635e-15 -0.134447 2.01221)
(-1.19604e-15 -0.13894 2.02019)
(-1.19571e-15 -0.144372 2.02891)
(-1.19538e-15 -0.150991 2.03848)
(-1.19502e-15 -0.158998 2.04893)
(-1.19465e-15 -0.168752 2.06031)
(-1.19424e-15 -0.180627 2.07261)
(-1.19378e-15 -0.195091 2.08588)
(-1.19323e-15 -0.212549 2.09998)
(-1.19256e-15 -0.233607 2.11474)
(-1.19168e-15 -0.258885 2.12972)
(-1.19051e-15 -0.289172 2.14448)
(-1.1889e-15 -0.325159 2.15791)
(-1.18665e-15 -0.367653 2.16866)
(-1.18349e-15 -0.417169 2.1744)
(-1.17907e-15 -0.474161 2.17246)
(-1.17293e-15 -0.538503 2.15868)
(-1.16457e-15 -0.609816 2.12824)
(-1.15343e-15 -0.686686 2.07526)
(-1.13903e-15 -0.76759 1.9948)
(-1.12106e-15 -0.850856 1.88273)
(-1.09958e-15 -0.937312 1.73912)
(-1.07515e-15 -1.03115 1.56954)
(-1.04885e-15 -1.14403 1.38697)
(-1.02227e-15 -1.29571 1.20944)
(-9.9765e-16 -1.52061 1.059)
(-9.78081e-16 -1.87791 0.96601)
(-9.66978e-16 -2.47071 0.967779)
(-9.64667e-16 -3.42809 1.08926)
(-9.6363e-16 -4.77641 1.28938)
(-9.50839e-16 -6.29702 1.45151)
(-9.17856e-16 -7.57406 1.46362)
(-8.66365e-16 -8.25519 1.30696)
(-8.01642e-16 -8.20134 1.03858)
(-7.22257e-16 -7.10562 0.638938)