/*--------------------------------*- C++ -*----------------------------------*\
| =========                 |                                                 |
| \\      /  F ield         | OpenFOAM: The Open Source CFD Toolbox           |
|  \\    /   O peration     | Version:  4.1                                   |
|   \\  /    A nd           | Web:      www.OpenFOAM.org                      |
|    \\/     M anipulation  |                                                 |
\*---------------------------------------------------------------------------*/
FoamFile
{
    version     2.0;
    format      ascii;
    class       volScalarField;
    location    "16";
    object      p;
}
// * * * * * * * * * * * * * * * * * * * * * * * * * * * * * * * * * * * * * //

dimensions      [0 2 -2 0 0 0 0];

internalField   nonuniform List<scalar> 
6785
(
526.836
473.439
421.607
373.196
328.305
286.288
246.933
209.929
174.834
141.47
110.528
82.3887
53.3597
18.4406
-10.7125
60.4018
38.1405
32.3816
28.6712
23.197
17.4894
12.3363
7.94736
4.46327
2.00432
0.812842
1.31433
3.41067
5.28217
5.54223
-42.3825
-49.026
-43.2594
-39.1126
-36.0223
-32.4272
-28.5412
-24.6042
-20.7001
-16.9847
-13.6396
-10.573
-7.4966
-4.84408
-3.61011
3.74975
1.33115
5.92342
6.24737
6.30074
6.51567
6.42636
6.04882
5.46707
4.70765
3.75065
2.64094
1.73012
1.57728
1.88725
20.1813
17.8475
19.4004
17.3019
15.8823
14.6381
13.2276
11.845
10.587
9.49527
8.59366
7.88045
7.4021
7.36868
7.61311
10.9619
8.93637
9.90768
8.68635
8.481
8.46319
8.37351
8.40485
8.55874
8.80059
9.11839
9.47995
9.7985
10.0544
10.2287
7.51243
6.35199
7.43033
7.10178
7.48227
7.87108
8.16485
8.51041
8.86233
9.18277
9.4685
9.71883
9.89426
9.97336
9.98767
9.23138
8.66602
9.50441
9.2626
9.44713
9.5482
9.56104
9.59575
9.61095
9.59747
9.56602
9.53143
9.49229
9.4426
9.39118
9.63107
9.29309
9.76957
9.46447
9.47748
9.42279
9.32467
9.25601
9.18118
9.10309
9.02824
8.96145
8.90379
8.84992
8.79261
8.41575
8.19207
8.47421
8.23948
8.25639
8.22079
8.16527
8.13386
8.09626
8.05769
8.01991
7.98064
7.93861
7.88936
7.82076
7.36232
7.21118
7.38867
7.22108
7.23375
7.19243
7.13631
7.09283
7.03888
6.98102
6.92118
6.85787
6.79221
6.72312
6.63265
6.40436
6.34058
6.43211
6.24458
6.18764
6.09081
5.98939
5.89394
5.7896
5.68314
5.576
5.46836
5.36486
5.27121
5.16137
7.39466
7.25305
7.06177
6.64225
6.34318
6.01183
5.67088
5.34387
5.02586
4.72818
4.45174
4.20215
3.98297
3.80936
3.65332
4.33918
4.81977
5.19631
5.02378
4.6591
4.2237
3.82233
3.46144
3.11491
2.77004
2.42502
2.07484
1.7244
1.38477
1.01941
22.4353
21.8152
20.8461
18.1442
14.4246
10.7547
7.38905
4.43396
1.77188
-0.453468
-2.34211
-3.89131
-5.0884
-5.92796
-6.4737
35.6213
34.6879
35.6039
35.1147
34.9374
34.239
35.2325
34.338
33.7607
32.9939
33.7799
32.0505
30.0105
31.2881
29.5365
28.0756
27.6061
28.2572
25.0839
22.6772
24.1859
21.6482
19.4591
19.5457
20.4561
17.0603
14.7375
15.4803
17.0011
13.46
11.4101
14.0023
12.093
10.3851
11.5318
14.1638
11.9905
11.2613
14.5759
13.7722
12.9197
14.361
17.2355
16.3961
15.8159
17.3002
20.0923
19.5756
19.906
22.7023
22.9521
23.0057
24.0625
26.0577
26.0306
25.929
26.5725
28.3444
28.3989
28.4425
30.2378
30.4931
30.3556
30.2747
31.7019
31.9418
31.8557
32.0772
31.8897
32.5058
33.2228
31.0261
30.4764
31.075
28.9054
24.0299
26.5164
20.4727
2.87715
8.18121
11.3356
11.0513
11.2008
5.56948
6.43384
9.56307
10.3019
10.3591
9.93449
9.97897
11.0987
11.9742
11.3044
5.52585
6.07889
7.89202
9.2638
9.15399
8.90278
8.26836
7.8566
8.78967
5.93906
6.24395
6.26744
7.0243
8.35607
8.99132
8.66118
7.66521
6.49348
8.49401
7.28957
7.29298
6.94094
6.76653
7.65481
8.40218
7.0722
4.71599
4.93195
7.47484
8.34806
8.52057
7.81765
7.12711
6.2783
5.19925
3.77873
7.33412
8.32631
6.70541
6.35448
5.92946
4.85293
2.92861
-0.291787
-2.90149
0.244682
4.79893
2.63701
1.18667
-1.0697
-4.16823
-6.56416
-8.45899
-10.8018
-12.1131
-15.219
-9.53029
-10.7394
-10.4788
-10.6429
-12.4229
-15.3988
-16.3444
-15.5951
-21.0084
-14.058
-14.8689
-15.2493
-12.3066
-10.8863
-8.88277
-7.29629
-5.56512
-4.26574
-3.35308
-1.98793
-1.02004
-0.148571
0.818866
1.48753
2.30069
2.80305
3.69654
4.15228
4.25449
4.7095
4.84508
5.82269
5.98501
5.48293
6.55374
6.52077
5.9297
6.08173
5.89098
7.18833
6.50751
5.36395
5.42295
5.26267
6.85964
5.96938
4.16506
5.83431
5.14085
3.80756
3.78178
3.55569
5.70518
4.3883
2.63482
2.71636
2.72551
5.16121
3.84098
1.46594
3.86887
3.03086
1.43693
1.52055
1.47027
4.33524
2.71357
0.644253
0.823376
0.998539
4.02171
2.44205
-0.330528
2.59686
1.62781
-0.205713
-0.0878586
-0.068904
3.31108
1.4136
-0.949089
-0.769874
-0.571382
2.8959
0.986787
-2.23007
1.1428
-0.145163
-2.3247
-2.42036
-2.06897
0.047573
0.0715844
0.0923888
0.0839128
0.0995863
0.118513
0.127839
0.115116
0.0973557
0.0490351
0.101783
0.0673301
0.0749825
0.101346
0.10989
0.116024
0.115432
0.0234819
-0.137817
-0.214841
-0.143444
-0.193633
-0.400549
-0.491584
-0.55244
-0.41157
-0.483634
-0.437591
-0.394771
-0.337819
-0.264185
-0.190884
-0.0862857
0.0495819
-0.169468
-0.0790895
0.00662563
-0.221164
-0.167924
-0.0979638
-0.0932433
-0.0864232
-0.0600836
-0.112772
-0.0901843
-0.0533736
-0.00894054
-0.00142476
-0.00661218
0.00448867
0.0247501
0.0255765
0.0537913
0.0450272
0.172406
0.0670483
-0.0843234
0.0294598
0.110646
0.0242225
0.0469242
0.135387
0.0306043
0.0598086
0.130953
0.140554
0.0484609
-0.015464
-0.00321015
0.00241619
0.0729586
0.0782108
0.0807952
0.129957
0.235309
0.152323
0.461388
0.0550717
0.0339697
0.0539487
0.0917685
0.110884
0.106162
0.109548
0.12565
0.134572
0.113642
0.0890482
0.0286721
0.0762174
0.021927
0.0254606
0.051659
0.0553879
0.0530122
0.0372432
-0.0610431
-0.200569
-0.2599
-0.178971
-0.220229
-0.441039
-0.52938
-0.60609
-0.457388
-0.523868
-0.450469
-0.436007
-0.40799
-0.332989
-0.23591
-0.105014
0.0789289
-0.202837
-0.100182
0.0328976
-0.265249
-0.21167
-0.118087
-0.10488
-0.115029
-0.0892953
-0.143023
-0.117066
-0.0783739
-0.0188053
0.019891
0.00323436
0.01827
0.0584329
0.0721403
0.135883
0.110945
0.44158
0.215843
-0.193873
-0.054353
0.0828865
0.0342196
0.0728762
0.205909
0.0881781
0.0776876
0.13946
0.166019
0.0865336
-0.0109704
-0.0351632
-0.0297236
0.0469026
0.0710734
0.115055
0.226124
0.409095
0.305973
0.733893
0.210113
0.142244
0.052133
0.0922148
0.105596
0.101534
0.104143
0.11668
0.116214
0.0897428
0.0608156
0.00569241
0.0384129
-0.0145875
-0.00951393
0.0101123
0.00873163
-0.00262972
-0.0330324
-0.12238
-0.246881
-0.303667
-0.215815
-0.251921
-0.445149
-0.515331
-0.588077
-0.482228
-0.524824
-0.430304
-0.418194
-0.403679
-0.33704
-0.234428
-0.107571
0.075122
-0.193314
-0.11737
0.00094854
-0.271072
-0.229508
-0.137226
-0.120424
-0.14214
-0.115013
-0.15181
-0.122136
-0.0844815
-0.0303946
0.0141133
0.0109964
0.0405178
0.0943922
0.120286
0.214617
0.183756
0.561169
0.305245
-0.154006
-0.00546719
0.126355
0.0483709
0.0937613
0.213924
0.109264
0.110231
0.166055
0.167815
0.0797116
-0.0364984
-0.0577219
-0.0690598
-0.00423719
0.0286204
0.13666
0.265601
0.450565
0.395154
0.821103
0.361068
0.28551
0.0492163
0.0919946
0.103541
0.100698
0.101823
0.110058
0.103474
0.0721905
0.0387006
-0.0131989
0.00434156
-0.0455003
-0.0414627
-0.0260899
-0.0315711
-0.0497152
-0.0898911
-0.172135
-0.28307
-0.33627
-0.244979
-0.288141
-0.453841
-0.508285
-0.574447
-0.497672
-0.52795
-0.420748
-0.393505
-0.379281
-0.318281
-0.218458
-0.104636
0.0727793
-0.163875
-0.126209
-0.0166471
-0.255602
-0.236822
-0.152857
-0.136803
-0.163475
-0.134715
-0.156002
-0.125753
-0.0870609
-0.0385837
0.0100335
0.0188993
0.0641215
0.131035
0.165778
0.281445
0.248756
0.597167
0.328079
-0.0789088
0.0578609
0.175114
0.0574711
0.115753
0.224823
0.135052
0.142696
0.18763
0.161475
0.0790933
-0.0567969
-0.0781441
-0.0844398
-0.0274879
0.0123961
0.158266
0.31277
0.499701
0.512124
0.917279
0.507295
0.391515
0.0457281
0.0908467
0.102689
0.100177
0.0987294
0.102407
0.0898345
0.0527972
0.0164168
-0.0335354
-0.0277571
-0.0750385
-0.0733055
-0.0635004
-0.0725409
-0.0963016
-0.143391
-0.219881
-0.318735
-0.369026
-0.283439
-0.328785
-0.471118
-0.513442
-0.57402
-0.5093
-0.536426
-0.425113
-0.38127
-0.363202
-0.303384
-0.207754
-0.106778
0.0662413
-0.136779
-0.129715
-0.0254619
-0.236787
-0.241522
-0.168696
-0.154021
-0.180024
-0.149262
-0.157444
-0.128255
-0.0875648
-0.0413794
0.0123184
0.0308072
0.0888259
0.167239
0.209338
0.340459
0.307365
0.627656
0.34224
-0.016222
0.0851765
0.197443
0.0638965
0.137238
0.238581
0.161023
0.16301
0.193092
0.154569
0.0795402
-0.0707962
-0.0976597
-0.0903261
-0.044155
-0.00319541
0.160145
0.35566
0.5603
0.639579
1.03407
0.636984
0.564306
0.0421451
0.08841
0.100735
0.0982975
0.0943024
0.0931588
0.0747797
0.0329201
-0.0077357
-0.0572953
-0.0616003
-0.107141
-0.108847
-0.104064
-0.115954
-0.143817
-0.195346
-0.267002
-0.355067
-0.404896
-0.33164
-0.375594
-0.496561
-0.528714
-0.581763
-0.520033
-0.551035
-0.444356
-0.388871
-0.364272
-0.303289
-0.208806
-0.117194
0.0490352
-0.118437
-0.133028
-0.034104
-0.220629
-0.246367
-0.186366
-0.172722
-0.194383
-0.161914
-0.158663
-0.128731
-0.0864781
-0.0414646
0.016037
0.0444849
0.112154
0.202341
0.251667
0.393388
0.361341
0.672024
0.372157
0.0368547
0.0939327
0.206394
0.0707273
0.157697
0.249866
0.183726
0.176125
0.191674
0.150767
0.0844014
-0.0749198
-0.10678
-0.095168
-0.0633867
-0.0280247
0.141701
0.372522
0.601258
0.744833
1.13735
0.755248
0.649979
0.0390808
0.0855388
0.0982602
0.0956875
0.0894115
0.083315
0.0590496
0.0128545
-0.0320935
-0.0825164
-0.0958882
-0.139858
-0.145561
-0.145333
-0.159406
-0.190077
-0.244256
-0.311568
-0.39007
-0.440782
-0.38071
-0.419866
-0.522896
-0.547032
-0.589287
-0.529412
-0.566849
-0.472585
-0.409414
-0.376065
-0.312458
-0.216219
-0.130652
0.0268111
-0.106569
-0.135596
-0.0447159
-0.207222
-0.250226
-0.203091
-0.190251
-0.205351
-0.171781
-0.159253
-0.126904
-0.0840371
-0.038813
0.0216926
0.0594792
0.133989
0.236077
0.292944
0.441141
0.41099
0.719491
0.408806
0.0871044
0.103553
0.214803
0.0788939
0.17571
0.255863
0.198737
0.184341
0.190209
0.152099
0.0929314
-0.0723756
-0.106994
-0.0992948
-0.0848854
-0.0609716
0.109113
0.361911
0.618594
0.825763
1.21156
0.862883
0.761732
0.0366173
0.0825289
0.0952299
0.0922461
0.0837575
0.0724464
0.0420763
-0.00825249
-0.0577826
-0.110196
-0.131847
-0.174914
-0.1851
-0.189114
-0.204956
-0.237297
-0.292739
-0.356459
-0.426889
-0.477953
-0.42458
-0.462306
-0.553415
-0.569523
-0.59945
-0.543792
-0.583229
-0.507137
-0.43661
-0.392996
-0.32449
-0.225528
-0.143452
0.00386271
-0.0994096
-0.136938
-0.0566467
-0.195757
-0.252159
-0.217113
-0.204839
-0.213707
-0.17965
-0.159893
-0.12482
-0.081923
-0.0352833
0.0285524
0.0743301
0.153864
0.267915
0.333574
0.485334
0.457779
0.760832
0.44252
0.13484
0.118185
0.226246
0.0890297
0.191717
0.258454
0.208301
0.189955
0.189687
0.155684
0.0972373
-0.0683375
-0.103452
-0.102762
-0.106623
-0.0969224
0.066895
0.331866
0.621061
0.89475
1.25968
0.944361
0.925953
0.0347088
0.0795934
0.0919862
0.0884797
0.0778703
0.0612346
0.0248692
-0.0292068
-0.083467
-0.1386
-0.167754
-0.210914
-0.225638
-0.233645
-0.250966
-0.284049
-0.339544
-0.399954
-0.463542
-0.51349
-0.461329
-0.505447
-0.582415
-0.593704
-0.613758
-0.569103
-0.601034
-0.541916
-0.46279
-0.408656
-0.333263
-0.231697
-0.151777
-0.0157012
-0.094113
-0.136157
-0.067911
-0.186422
-0.25077
-0.22812
-0.215451
-0.219435
-0.185433
-0.160071
-0.122404
-0.0791301
-0.0309478
0.0363574
0.0893537
0.172999
0.297628
0.373049
0.526301
0.501311
0.795087
0.472454
0.178133
0.134745
0.242646
0.101223
0.203965
0.256956
0.2116
0.191527
0.189564
0.161172
0.0975868
-0.0629269
-0.0979874
-0.105645
-0.127335
-0.132314
0.0222672
0.297304
0.621516
0.943737
1.27996
1.02518
1.00936
0.0332305
0.076726
0.0883981
0.0841759
0.0712856
0.0491123
0.00678493
-0.0510232
-0.110211
-0.168716
-0.204966
-0.249344
-0.268732
-0.280689
-0.299333
-0.332281
-0.386613
-0.443953
-0.501452
-0.54853
-0.498161
-0.552208
-0.608441
-0.618542
-0.632729
-0.601951
-0.622119
-0.574954
-0.486467
-0.421976
-0.339241
-0.23532
-0.156808
-0.0327489
-0.0903035
-0.134516
-0.0778781
-0.18048
-0.246705
-0.236618
-0.223418
-0.223416
-0.190499
-0.160772
-0.120693
-0.0764042
-0.0267683
0.0433738
0.104109
0.191263
0.324702
0.41094
0.564926
0.542655
0.825142
0.501512
0.217558
0.150768
0.261962
0.117059
0.212879
0.251822
0.212357
0.191319
0.188777
0.16742
0.100078
-0.0592341
-0.093292
-0.111236
-0.146556
-0.165332
-0.0211778
0.265338
0.618914
0.969267
1.27731
1.09288
1.1064
0.0320798
0.0740317
0.0847679
0.0797448
0.0645093
0.0367804
-0.0111861
-0.0725472
-0.136613
-0.198872
-0.24173
-0.28824
-0.312323
-0.328141
-0.348013
-0.380161
-0.432184
-0.486154
-0.537893
-0.581243
-0.538484
-0.601289
-0.639505
-0.644957
-0.653261
-0.635824
-0.645838
-0.601956
-0.505345
-0.430557
-0.341337
-0.235234
-0.158069
-0.0462172
-0.0865796
-0.131289
-0.0850837
-0.177559
-0.241189
-0.242983
-0.229614
-0.225622
-0.194389
-0.161328
-0.118817
-0.0726636
-0.0218632
0.0502774
0.118994
0.20975
0.349612
0.446482
0.601097
0.581421
0.853533
0.530637
0.253309
0.164417
0.283472
0.137116
0.217397
0.242681
0.209558
0.18811
0.187327
0.174157
0.104735
-0.0561383
-0.090436
-0.119365
-0.165202
-0.196014
-0.061579
0.240077
0.610926
0.978976
1.26396
1.15283
1.23717
0.0311113
0.071394
0.080885
0.074871
0.057017
0.0236338
-0.0297841
-0.0948197
-0.163843
-0.230282
-0.279598
-0.329035
-0.357976
-0.377651
-0.398696
-0.42945
-0.478034
-0.52824
-0.574659
-0.613694
-0.580932
-0.650125
-0.674235
-0.670597
-0.674533
-0.668254
-0.670795
-0.624081
-0.520786
-0.436226
-0.341353
-0.233566
-0.157863
-0.0577675
-0.0834049
-0.127177
-0.0902753
-0.176138
-0.235796
-0.248163
-0.23559
-0.226778
-0.19791
-0.162477
-0.117627
-0.0691256
-0.0171848
0.0563154
0.132687
0.227737
0.372503
0.479523
0.635259
0.618491
0.881411
0.559395
0.28607
0.175173
0.301809
0.158062
0.220172
0.233876
0.206696
0.184264
0.183973
0.177766
0.105431
-0.0560197
-0.0916486
-0.131033
-0.186944
-0.227528
-0.103937
0.215765
0.591878
0.973824
1.23956
1.20624
1.33047
0.0302447
0.0688601
0.0770038
0.0699083
0.0493181
0.0103814
-0.0481076
-0.116782
-0.190671
-0.26149
-0.316965
-0.369884
-0.403686
-0.427101
-0.449297
-0.47837
-0.52264
-0.568297
-0.610277
-0.644262
-0.621075
-0.694453
-0.707681
-0.694224
-0.696638
-0.700361
-0.695052
-0.64051
-0.532369
-0.438739
-0.338241
-0.22986
-0.155348
-0.0662718
-0.0799586
-0.121731
-0.0939546
-0.174778
-0.230698
-0.252212
-0.241247
-0.227566
-0.200574
-0.163564
-0.116544
-0.0657026
-0.011832
0.0623792
0.145518
0.245697
0.394046
0.510083
0.667154
0.653642
0.908996
0.586769
0.315082
0.181425
0.316631
0.177044
0.221205
0.225568
0.201534
0.177958
0.178425
0.179104
0.10342
-0.0573174
-0.0964848
-0.145851
-0.214736
-0.263303
-0.150254
0.18779
0.563966
0.953938
1.21047
1.24734
1.4841
0.0293829
0.0662973
0.0729294
0.064514
0.0408897
-0.00360712
-0.0669888
-0.139508
-0.218341
-0.29382
-0.355453
-0.412347
-0.451069
-0.478133
-0.501452
-0.528683
-0.567978
-0.608378
-0.647088
-0.67469
-0.659772
-0.734992
-0.739861
-0.717851
-0.720469
-0.73348
-0.718289
-0.654272
-0.542528
-0.440636
-0.334556
-0.226062
-0.152381
-0.0732238
-0.0765168
-0.115518
-0.0969055
-0.172641
-0.225494
-0.255701
-0.246419
-0.229379
-0.203624
-0.165369
-0.116545
-0.0637142
-0.00747237
0.0679657
0.1572
0.262584
0.414045
0.538442
0.69679
0.687559
0.935725
0.612476
0.342105
0.182079
0.326574
0.19361
0.222893
0.219455
0.197705
0.1724
0.170997
0.177045
0.0976413
-0.0629018
-0.10653
-0.163944
-0.249612
-0.305544
-0.203431
0.150554
0.526309
0.921439
1.17854
1.28819
1.56461
0.0285406
0.0638144
0.0689732
0.0590527
0.0323434
-0.0175805
-0.0855361
-0.161922
-0.245619
-0.325852
-0.393464
-0.454592
-0.498116
-0.528637
-0.553073
-0.578548
-0.612594
-0.647129
-0.683546
-0.704131
-0.695336
-0.77048
-0.770019
-0.742202
-0.746049
-0.764
-0.740047
-0.665619
-0.550965
-0.441721
-0.330316
-0.221316
-0.147994
-0.077384
-0.0723121
-0.108172
-0.0984211
-0.168745
-0.22061
-0.258302
-0.250576
-0.23242
-0.206876
-0.167228
-0.117114
-0.0621539
-0.00354954
0.0744419
0.168721
0.278503
0.432794
0.564652
0.723699
0.719762
0.961022
0.63634
0.367836
0.17846
0.334568
0.209806
0.223322
0.212745
0.19253
0.165555
0.163494
0.174027
0.0904245
-0.0715339
-0.120213
-0.181338
-0.290272
-0.355604
-0.261686
0.104907
0.484498
0.886486
1.1537
1.33889
1.67272
0.0277385
0.0613463
0.0649232
0.053207
0.0231802
-0.0321968
-0.104614
-0.185061
-0.273687
-0.35887
-0.432598
-0.498194
-0.546406
-0.580214
-0.60572
-0.62946
-0.658011
-0.686706
-0.720707
-0.734438
-0.729462
-0.803423
-0.800403
-0.770039
-0.774501
-0.790673
-0.761184
-0.676413
-0.559116
-0.443642
-0.327325
-0.217209
-0.143614
-0.0800295
-0.0673864
-0.100114
-0.0989314
-0.163263
-0.216669
-0.26012
-0.254319
-0.236615
-0.210818
-0.169713
-0.118991
-0.0618004
-0.0008402
0.0805247
0.179141
0.292769
0.449541
0.588307
0.747591
0.750115
0.984196
0.658551
0.394895
0.173654
0.341507
0.224278
0.221883
0.208125
0.189578
0.1608
0.155984
0.169626
0.0805336
-0.0849583
-0.136349
-0.199601
-0.336148
-0.413095
-0.328258
0.0453017
0.438163
0.848831
1.13147
1.37549
1.83241
0.027075
0.0590967
0.0610502
0.047335
0.0139132
-0.0466901
-0.123354
-0.207867
-0.301318
-0.391427
-0.471284
-0.541387
-0.593955
-0.630878
-0.657377
-0.679371
-0.702233
-0.726123
-0.75643
-0.764214
-0.760831
-0.832694
-0.830418
-0.800335
-0.801924
-0.811254
-0.78197
-0.684505
-0.565626
-0.445359
-0.324425
-0.212528
-0.137888
-0.0798136
-0.0613142
-0.0910402
-0.097844
-0.156616
-0.213003
-0.260479
-0.257672
-0.241522
-0.214771
-0.17233
-0.121409
-0.0619098
0.00218785
0.0868172
0.189008
0.305804
0.464453
0.609047
0.76842
0.777799
1.00479
0.679004
0.422538
0.167997
0.345513
0.234745
0.214493
0.20308
0.184814
0.155358
0.14857
0.166012
0.0721495
-0.0986524
-0.154029
-0.222697
-0.385326
-0.476116
-0.399592
-0.0283533
0.389363
0.810108
1.11838
1.42448
1.92842
0.0265394
0.0569989
0.0571321
0.0411155
0.00401801
-0.0617039
-0.142637
-0.231371
-0.329605
-0.424748
-0.511072
-0.585741
-0.642449
-0.682284
-0.709609
-0.729701
-0.74711
-0.767
-0.792239
-0.794575
-0.79093
-0.860094
-0.860852
-0.831323
-0.825247
-0.827053
-0.802529
-0.690069
-0.570816
-0.447322
-0.322372
-0.208164
-0.131874
-0.0778229
-0.0545936
-0.0813391
-0.095546
-0.150043
-0.20953
-0.259959
-0.26096
-0.247548
-0.21915
-0.175966
-0.125
-0.0632172
0.00442656
0.0918577
0.197397
0.31672
0.477003
0.626083
0.785868
0.802602
1.02291
0.697831
0.451998
0.163817
0.337874
0.236178
0.205051
0.199909
0.181968
0.152714
0.141514
0.161264
0.0641871
-0.113362
-0.176572
-0.255228
-0.433429
-0.544028
-0.476448
-0.115486
0.332341
0.769536
1.10928
1.47277
2.04088
0.026141
0.0551857
0.0534525
0.0349749
-0.00585193
-0.0764187
-0.161551
-0.254477
-0.357337
-0.457659
-0.550256
-0.629505
-0.690227
-0.732516
-0.760415
-0.778405
-0.791548
-0.807512
-0.827117
-0.8241
-0.818347
-0.88415
-0.888894
-0.858266
-0.844304
-0.840469
-0.818144
-0.691776
-0.572747
-0.447773
-0.319543
-0.202786
-0.124139
-0.0728677
-0.0466677
-0.0707217
-0.0916723
-0.143586
-0.205566
-0.258478
-0.264234
-0.254067
-0.22325
-0.18012
-0.128998
-0.0647909
0.00692077
0.0966797
0.204946
0.326603
0.487732
0.639262
0.799512
0.824268
1.0395
0.715022
0.481183
0.16105
0.318326
0.230171
0.19346
0.194474
0.177014
0.149037
0.135577
0.155882
0.05814
-0.124653
-0.203537
-0.295426
-0.481155
-0.616649
-0.557321
-0.209354
0.271108
0.730969
1.11003
1.51821
2.18441
0.0258153
0.0535224
0.0497841
0.0286367
-0.0161386
-0.0914667
-0.180924
-0.278148
-0.385595
-0.491313
-0.590106
-0.674151
-0.738811
-0.78302
-0.811146
-0.827066
-0.83717
-0.848642
-0.862735
-0.85397
-0.844228
-0.905877
-0.91454
-0.880624
-0.860941
-0.854941
-0.828736
-0.692428
-0.57245
-0.446851
-0.316342
-0.197187
-0.115613
-0.0659925
-0.0374286
-0.059384
-0.0867849
-0.137331
-0.201551
-0.256809
-0.267837
-0.261031
-0.227602
-0.185433
-0.134062
-0.0674245
0.00875397
0.100556
0.211161
0.335453
0.496486
0.64865
0.809139
0.842829
1.05483
0.730829
0.511856
0.160207
0.290536
0.219316
0.184581
0.188982
0.17325
0.14771
0.130868
0.149228
0.0500658
-0.133895
-0.232833
-0.340912
-0.532859
-0.691648
-0.642618
-0.309964
0.206262
0.689376
1.11545
1.56437
2.29759
0.0255759
0.0521189
0.0463812
0.0224966
-0.0262231
-0.106055
-0.19984
-0.301294
-0.413191
-0.524301
-0.628862
-0.717888
-0.786346
-0.831945
-0.859971
-0.874391
-0.881972
-0.888216
-0.897438
-0.882955
-0.867296
-0.923894
-0.93618
-0.897332
-0.875085
-0.868525
-0.831621
-0.692011
-0.569441
-0.443645
-0.3118
-0.19023
-0.10514
-0.0562206
-0.0263769
-0.0471472
-0.0806287
-0.130901
-0.197325
-0.254792
-0.271557
-0.267999
-0.232154
-0.191271
-0.139427
-0.0702012
0.0106921
0.104605
0.217177
0.344218
0.504455
0.655859
0.816014
0.857983
1.06771
0.745324
0.542758
0.156651
0.260677
0.209537
0.175067
0.177575
0.165105
0.144298
0.126071
0.142597
0.0412196
-0.139354
-0.259094
-0.38892
-0.594569
-0.765097
-0.725582
-0.415838
0.138185
0.645801
1.13252
1.6158
2.45923
0.0253729
0.0508289
0.0430009
0.0162554
-0.0365683
-0.120839
-0.219128
-0.324868
-0.441172
-0.557621
-0.667715
-0.762065
-0.834158
-0.881007
-0.908708
-0.922008
-0.92687
-0.927397
-0.932192
-0.912406
-0.889313
-0.939396
-0.954902
-0.910409
-0.887618
-0.879455
-0.83057
-0.691601
-0.564978
-0.439106
-0.306728
-0.18244
-0.0936241
-0.044676
-0.0138201
-0.0341329
-0.0736719
-0.124616
-0.193484
-0.252976
-0.275696
-0.274803
-0.237906
-0.198125
-0.145645
-0.0740508
0.0111073
0.107619
0.22229
0.351769
0.511604
0.661689
0.821792
0.869025
1.07611
0.758945
0.577845
0.151326
0.229628
0.201004
0.16473
0.164278
0.158452
0.142646
0.121412
0.135467
0.0300737
-0.144987
-0.282537
-0.437356
-0.657588
-0.83171
-0.803353
-0.538124
0.0535755
0.595877
1.14623
1.67182
2.56166
0.0252311
0.0497701
0.0398904
0.0102923
-0.0465561
-0.135031
-0.237883
-0.347796
-0.468406
-0.590012
-0.705108
-0.804977
-0.880485
-0.928762
-0.95608
-0.968128
-0.969711
-0.964956
-0.965649
-0.941343
-0.909787
-0.951349
-0.969612
-0.920346
-0.897524
-0.887712
-0.824979
-0.690574
-0.558108
-0.432794
-0.300437
-0.172931
-0.0802945
-0.0307471
-5.79711e-05
-0.0203332
-0.0656916
-0.118261
-0.189773
-0.251008
-0.280339
-0.280825
-0.244523
-0.205349
-0.151964
-0.0781295
0.0108448
0.110372
0.227252
0.358661
0.518341
0.667101
0.827345
0.875613
1.07915
0.772168
0.616905
0.144916
0.199542
0.192866
0.149604
0.147825
0.149982
0.138465
0.11558
0.127585
0.0189705
-0.148694
-0.302047
-0.484222
-0.716863
-0.899086
-0.880679
-0.673702
-0.0599088
0.531348
1.14822
1.73026
2.68178
0.0251131
0.0488059
0.0368209
0.00430889
-0.0566226
-0.149268
-0.256909
-0.370986
-0.495883
-0.622531
-0.74257
-0.848051
-0.926761
-0.976524
-1.00338
-1.01375
-1.0114
-1.00253
-0.999292
-0.97102
-0.930748
-0.961859
-0.980905
-0.928735
-0.905311
-0.893296
-0.818838
-0.690158
-0.549847
-0.4254
-0.293197
-0.162382
-0.0660616
-0.0153306
0.0147105
-0.00590852
-0.0570831
-0.112116
-0.186666
-0.24932
-0.286271
-0.286537
-0.252034
-0.213447
-0.159139
-0.0832155
0.00910957
0.111619
0.231001
0.363993
0.523912
0.671402
0.832228
0.878558
1.08044
0.786094
0.664667
0.143569
0.171225
0.184603
0.13597
0.134865
0.145631
0.136855
0.110026
0.117707
0.00513653
-0.154414
-0.318627
-0.529857
-0.776776
-0.972732
-0.965956
-0.799631
-0.198827
0.440855
1.11811
1.75898
2.83491
0.0250557
0.0480625
0.0340267
-0.00135832
-0.06624
-0.162955
-0.275336
-0.393417
-0.522507
-0.654073
-0.779206
-0.889727
-0.971495
-1.02269
-1.04895
-1.05709
-1.0503
-1.03867
-1.03196
-1.00029
-0.95151
-0.970444
-0.987528
-0.934781
-0.910728
-0.896572
-0.816089
-0.687727
-0.539334
-0.416564
-0.284199
-0.150355
-0.0504426
0.00203921
0.0305342
0.00900809
-0.0476903
-0.105891
-0.183747
-0.247715
-0.292655
-0.291753
-0.260162
-0.221945
-0.166538
-0.0884144
0.00707961
0.112464
0.23443
0.368465
0.528676
0.674995
0.835485
0.878925
1.08119
0.801145
0.719834
0.14685
0.147987
0.177096
0.121894
0.119738
0.140133
0.135559
0.106319
0.107577
-0.00920872
-0.159361
-0.33128
-0.571982
-0.839618
-1.05283
-1.05277
-0.904893
-0.337712
0.333377
1.06041
1.78327
2.93224
0.0250285
0.0474102
0.031308
-0.00698391
-0.0758827
-0.176841
-0.293932
-0.415993
-0.549207
-0.685639
-0.816151
-0.931283
-1.01612
-1.06858
-1.09395
-1.09922
-1.08827
-1.07481
-1.06514
-1.03047
-0.973901
-0.979897
-0.992233
-0.940608
-0.916001
-0.89816
-0.816525
-0.683275
-0.528318
-0.406679
-0.273728
-0.137282
-0.0341296
0.0207327
0.0471746
0.0241547
-0.0377889
-0.0997851
-0.181143
-0.246609
-0.299421
-0.297368
-0.269606
-0.231552
-0.174818
-0.0945808
0.00383647
0.111955
0.236379
0.370981
0.531516
0.676738
0.836938
0.878212
1.08042
0.818064
0.786686
0.159187
0.129899
0.171252
0.111704
0.10448
0.134512
0.139493
0.108381
0.0987401
-0.0261779
-0.166899
-0.340316
-0.608235
-0.897531
-1.12929
-1.13714
-1.00509
-0.47644
0.211362
0.969657
1.78645
3.0261
0.0250737
0.0469809
0.0289125
-0.0121925
-0.0849872
-0.190237
-0.311803
-0.437721
-0.574923
-0.716099
-0.851924
-0.971122
-1.05919
-1.11271
-1.13683
-1.13866
-1.12453
-1.10983
-1.09783
-1.0605
-0.997533
-0.990752
-0.995203
-0.945358
-0.921579
-0.90068
-0.818041
-0.675347
-0.517487
-0.395245
-0.261871
-0.122877
-0.0168938
0.0408705
0.0644397
0.0391537
-0.0273317
-0.0935207
-0.178163
-0.245668
-0.306157
-0.30371
-0.28009
-0.241667
-0.183194
-0.10077
0.000399982
0.111266
0.237521
0.37258
0.532803
0.676669
0.836472
0.877561
1.07547
0.837082
0.863251
0.177328
0.115755
0.165308
0.100778
0.0836082
0.119025
0.139043
0.108387
0.0880783
-0.0436664
-0.174863
-0.345911
-0.637012
-0.948888
-1.19913
-1.21695
-1.10249
-0.619505
0.076735
0.857526
1.76909
3.12704
0.025155
0.0466449
0.0266779
-0.0171931
-0.0938913
-0.203586
-0.329609
-0.459403
-0.600476
-0.746361
-0.8875
-1.01047
-1.10185
-1.15616
-1.17859
-1.1771
-1.1608
-1.14521
-1.1311
-1.09081
-1.02352
-1.00472
-0.999246
-0.950783
-0.928585
-0.905639
-0.818379
-0.665146
-0.509164
-0.383515
-0.249308
-0.107713
0.000761212
0.0618859
0.082209
0.0539274
-0.0165228
-0.0873644
-0.174737
-0.245089
-0.312784
-0.311636
-0.291858
-0.252678
-0.19221
-0.107558
-0.0041852
0.109216
0.236367
0.371896
0.531412
0.673918
0.834145
0.878148
1.06817
0.859516
0.954457
0.204554
0.103377
0.158738
0.0929479
0.0645944
0.104499
0.137878
0.103391
0.0744244
-0.0616475
-0.185201
-0.349545
-0.658418
-0.992277
-1.26079
-1.29506
-1.20355
-0.7753
-0.0774751
0.714058
1.71531
3.17169
0.0253047
0.0465352
0.0248352
-0.0216497
-0.10205
-0.21611
-0.346467
-0.480025
-0.624783
-0.77526
-0.921584
-1.04858
-1.14266
-1.19748
-1.21809
-1.21387
-1.19581
-1.17942
-1.16311
-1.11977
-1.04975
-1.02056
-1.00483
-0.956679
-0.935279
-0.911394
-0.819191
-0.652521
-0.502672
-0.372209
-0.236344
-0.092025
0.0187095
0.0831635
0.099932
0.0683247
-0.00528581
-0.0811075
-0.170312
-0.244666
-0.318965
-0.320987
-0.304445
-0.264004
-0.2011
-0.114021
-0.0088859
0.106787
0.234237
0.370176
0.528499
0.66978
0.828996
0.878252
1.05744
0.885906
1.0586
0.237545
0.0917264
0.14889
0.0824993
0.0433508
0.0893995
0.128858
0.0892576
0.0578703
-0.0774249
-0.193349
-0.353073
-0.6733
-1.03013
-1.31583
-1.36693
-1.30676
-0.942139
-0.254201
0.547723
1.62387
3.20994
0.0254611
0.0465383
0.0232341
-0.0257844
-0.109836
-0.22827
-0.362995
-0.500288
-0.648509
-0.803451
-0.954986
-1.08649
-1.18262
-1.23793
-1.25707
-1.25057
-1.23092
-1.21341
-1.1945
-1.14834
-1.07671
-1.03851
-1.01275
-0.963596
-0.941852
-0.91719
-0.819552
-0.641522
-0.496165
-0.363218
-0.223661
-0.0760728
0.0366827
0.104442
0.117358
0.082423
0.00631918
-0.0750899
-0.165098
-0.244415
-0.3248
-0.332085
-0.318252
-0.276093
-0.210315
-0.120788
-0.0145239
0.102552
0.229876
0.365773
0.52311
0.663566
0.820657
0.875097
1.04164
0.918103
1.18171
0.281899
0.0818002
0.136394
0.0738291
0.0258076
0.081366
0.119711
0.0751237
0.0436584
-0.0904152
-0.200216
-0.356232
-0.683512
-1.06075
-1.36293
-1.43318
-1.41369
-1.11173
-0.457811
0.346422
1.47946
3.16191
0.0256891
0.0468039
0.0220705
-0.0292932
-0.116806
-0.239451
-0.37843
-0.519238
-0.670628
-0.82977
-0.986317
-1.12249
-1.22027
-1.27643
-1.29448
-1.28594
-1.26483
-1.24574
-1.22388
-1.17557
-1.10296
-1.05666
-1.02153
-0.970203
-0.947382
-0.921577
-0.818762
-0.633728
-0.486415
-0.35659
-0.211225
-0.0599297
0.0544278
0.125128
0.133818
0.096114
0.0182141
-0.0695711
-0.159012
-0.244173
-0.330167
-0.344468
-0.332939
-0.288367
-0.219125
-0.127072
-0.0200248
0.0977734
0.224742
0.36031
0.516776
0.655988
0.810058
0.864708
1.01519
0.95745
1.323
0.33373
0.0749593
0.118767
0.0605084
0.0042491
0.0708826
0.105273
0.0605099
0.0303276
-0.0984879
-0.202852
-0.359743
-0.692069
-1.08591
-1.39967
-1.49294
-1.51222
-1.26608
-0.679943
0.118583
1.29402
3.07332
0.0260074
0.0472283
0.0212064
-0.0323533
-0.123312
-0.250181
-0.393445
-0.53754
-0.691815
-0.854907
-1.01637
-1.15727
-1.25671
-1.31401
-1.33132
-1.32109
-1.2988
-1.27783
-1.25241
-1.20255
-1.12962
-1.07612
-1.03186
-0.977226
-0.952322
-0.924195
-0.816071
-0.628267
-0.474077
-0.35141
-0.199299
-0.0434189
0.0722792
0.143532
0.149317
0.109944
0.0303074
-0.0649677
-0.152514
-0.244538
-0.33527
-0.358153
-0.348694
-0.301157
-0.227942
-0.133391
-0.0262056
0.0915381
0.217399
0.352111
0.507747
0.645146
0.797069
0.849605
0.982885
1.00762
1.49036
0.40086
0.0746029
0.099046
0.0486049
-0.0151893
0.0598991
0.0943274
0.0512564
0.0199486
-0.102795
-0.203046
-0.362772
-0.700926
-1.10532
-1.42155
-1.55217
-1.59656
-1.40844
-0.920907
-0.152491
1.03532
2.93765
0.0265337
0.0479696
0.0208468
-0.0346748
-0.128928
-0.259925
-0.407373
-0.55436
-0.71125
-0.877946
-1.04403
-1.18953
-1.29104
-1.34918
-1.36619
-1.35465
-1.33143
-1.30865
-1.27923
-1.22829
-1.15529
-1.09562
-1.04282
-0.984219
-0.956542
-0.924996
-0.810052
-0.620554
-0.461989
-0.34355
-0.188076
-0.0271072
0.0899055
0.157781
0.163582
0.123883
0.042361
-0.0600224
-0.145818
-0.246369
-0.340538
-0.372686
-0.364909
-0.313824
-0.236173
-0.138979
-0.0320476
0.0853955
0.20971
0.343318
0.497305
0.632561
0.781263
0.831277
0.947835
1.07126
1.68381
0.483701
0.0817136
0.0782762
0.0332121
-0.039547
0.0348755
0.078005
0.0397376
0.00721713
-0.107295
-0.201376
-0.36898
-0.712652
-1.12422
-1.43316
-1.61452
-1.65377
-1.54625
-1.18127
-0.457185
0.730986
2.71287
0.0272555
0.0489294
0.0208835
-0.0363946
-0.133914
-0.269053
-0.420681
-0.570318
-0.729596
-0.899599
-1.07013
-1.22018
-1.32405
-1.38282
-1.40005
-1.38771
-1.36392
-1.33947
-1.30567
-1.25382
-1.1812
-1.11622
-1.05538
-0.992272