/*--------------------------------*- C++ -*----------------------------------*\
| =========                 |                                                 |
| \\      /  F ield         | OpenFOAM: The Open Source CFD Toolbox           |
|  \\    /   O peration     | Version:  4.1                                   |
|   \\  /    A nd           | Web:      www.OpenFOAM.org                      |
|    \\/     M anipulation  |                                                 |
\*---------------------------------------------------------------------------*/
FoamFile
{
    version     2.0;
    format      ascii;
    class       surfaceScalarField;
    location    "16";
    object      phi;
}
// * * * * * * * * * * * * * * * * * * * * * * * * * * * * * * * * * * * * * //

dimensions      [0 3 -1 0 0 0 0];

internalField   nonuniform List<scalar> 
13220
(
-949.866
2249.77
-1573.94
1924.27
-2053.97
1779.94
-2424.2
1670.12
-2699.81
1575.82
-2888.32
1488.41
-2992.99
1404.57
-3013.78
1320.99
-2949.53
1235.65
-2797.14
1147.52
-2551.07
1054.13
-2192.9
941.734
-1687.06
794.065
-1012.58
625.722
287.317
373.39
1876.41
442.765
1854.89
437.363
1785.4
406.734
1700.74
380.663
1601.95
359.955
1509.11
345.389
1419.2
337.606
1328.77
333.581
1239.72
327.038
1154.07
309.704
1071.5
267.547
983.915
191.486
870.169
111.467
705.784
398.786
33.6737
1842.78
-97.3413
1985.89
-253.495
1941.61
-371.006
1818.24
-472.984
1704.01
-567.329
1603.45
-651.471
1503.41
-725.51
1402.82
-787.723
1302.01
-836.922
1203.31
-867.823
1102.45
-855.705
971.894
-740.083
754.675
-434.23
400.072
-35.4435
28.9286
1813.9
-100.522
2115.32
-225.333
2066.52
-304.288
1897.18
-367.846
1767.67
-416.664
1652.26
-445.835
1532.7
-456.643
1413.62
-451.398
1296.86
-429.704
1181.64
-386.756
1059.58
-311.496
896.651
-192.635
635.876
-48.3117
255.814
-83.7545
169.881
1644.08
146.405
2138.75
124.074
2088.95
123.161
1898.04
127.368
1763.59
136.177
1643.39
149.586
1519.41
167.01
1396.15
187.422
1276.54
208.562
1160.49
229.51
1038.63
244.206
882.033
233.371
646.785
155.574
333.681
71.8182
223.737
1420.41
244.949
2117.46
235.657
2098.41
236.816
1896.79
241.362
1759.22
245.199
1639.44
247.609
1517.17
246.193
1397.46
242.196
1280.65
234.916
1167.69
222.348
1051.27
199.888
904.335
156.653
689.879
78.5507
411.651
150.37
205.019
1215.5
240.672
2081.69
216.022
2123.21
193.561
1919.14
179.521
1773.42
165.995
1652.88
152.339
1530.94
138.064
1411.67
123.186
1295.58
108.895
1181.98
94.5699
1065.57
77.3651
921.71
53.2768
714.152
19.6919
445.404
170.061
175.733
1039.9
227.815
2029.36
205.619
2145.72
175.925
1948.6
157.757
1791.88
143.114
1667.3
128.322
1545.94
113.783
1426.03
100.728
1308.77
87.8844
1194.7
76.0501
1077.52
62.4065
935.108
42.9725
733.377
17.0281
471.163
187.091
154.053
886.059
223.356
1959.78
210.929
2158.42
182.666
1976.61
164.88
1810
151.521
1680.43
138.94
1558.8
124.993
1439.79
111.98
1322.01
99.2114
1207.45
85.7792
1091.03
70.6194
950.555
49.8796
754.431
22.0712
499.257
209.16
132.553
753.794
212.216
1879.48
209.483
2161.81
180.673
2004.83
162.251
1829.05
147.312
1694.81
134.087
1572.54
119.979
1453.44
106.113
1336.19
92.1597
1221.09
78.9585
1104.47
62.9031
966.12
42.5468
774.427
17.7295
523.752
226.89
111.905
642.309
197.272
1792.94
205.362
2154.48
178.458
2030.7
160.37
1847.94
146.813
1707.41
134.201
1585.81
119.887
1467.02
106.627
1349.83
91.8185
1235.55
77.509
1118.92
61.7414
981.831
41.7325
794.488
17.8774
547.672
244.773
101.396
542.491
187.554
1705.3
204.576
2139.63
175.831
2058.18
150.502
1875.25
130.564
1726.25
116.953
1600.94
101.478
1481.73
89.1707
1363.25
76.7668
1247.73
65.1745
1131.29
51.6532
995.317
33.9354
812.929
12.3755
569.903
257.181
95.9614
451.933
228.112
1573.65
275.457
2096.33
267.605
2066.25
265.133
1880.67
263.991
1727.39
259.115
1607.66
246.205
1494.83
227.195
1382.59
204.523
1271.19
176.001
1157.99
146.558
1029.36
108.21
854.765
56.6954
624.268
313.66
97.1254
361.986
203.789
1463.13
250.786
2054.09
196.783
2116.42
126.151
1954.1
68.3292
1780.52
41.9798
1634.2
27.4423
1503.11
26.4459
1380.55
27.4528
1263.07
32.8131
1147.48
26.519
1021.1
1.98159
855.178
-15.8874
618.81
297.048
-295.107
146.728
734.89
1227.38
1458.04
1571.8
1531.61
1456.19
1297.16
1141.94
955.805
752.242
518.161
239.483
0.534614
487.882
-486.379
489.448
490.378
492.014
1115.66
-623.185
1117.87
1119.31
1121.23
1761.79
-639.85
1763.99
1764.74
2361.51
-594.727
2362.46
2364.8
2365.51
2893.94
-526.202
2896.36
2898.08
3353.31
-453.17
3355.35
3358.37
3359.36
3699.22
-336.802
3700.91
3704.18
3704.83
3918.44
-212.424
3919.48
3920.67
4014.85
-93.2584
4017.36
4018.17
4020.48
3947.55
73.4193
3949.88
3949.63
3738.2
213.062
3738.23
3738.69
3738.54
3380.08
358.15
3379.69
3379.37
3379.29
2919.89
459.55
2919.97
2920.14
2385.94
534.44
2386
2386.89
2386.17
1853.76
533.303
1852.96
1853.91
1852.48
1392.11
461.548
1390.13
1392.59
866.604
523.368
870.31
869.53
874.116
237.067
637.711
246.673
249.005
-540.812
795.772
-531.584
-524.87
-520.714
-1932.05
1410.56
-1930.71
-1933.13
-1936.11
-3836.37
1900.16
-3845.78
-3840.76
-6095.38
2248.04
-6088.7
-6095.82
-5992.35
-5884.75
-5767.69
-8169.98
2510.1
-8058.68
-7920.51
-7749.63
-7579.77
-7405.05
-7236.99
-7059.32
-6865.5
-9368.21
2697.71
-9157.63
-8952.2
-8750.81
-8523.12
-8294.74
-8060.3
-7825.29
-7596.08
-10117.3
2757.24
-9863.78
-9608.92
-9355.23
-9102.95
-8845.42
-8575.52
-8302.08
-8024.81
-7755.47
-10151.6
2657.28
-9866.53
-9577.47
-9290.45
-9002.28
-8720.23
-8418.26
-8109.35
-7804.36
-9851.1
2336.39
-9555.37
-9256.76
-8943.4
-8631.83
-8318.47
-8006.4
-7693.01
-7368.65
-8896.27
1843
-8581.21
-8268.49
-7957.91
-7634.84
-7307.26
-6978.81
-6652.52
-6339.51
-7242.98
1217.47
-6928.75
-6620.72
-6313.14
-6011.37
-5710.7
-5431.47
-5146.56
-4873.76
-4610.67
-4789.36
448.604
-4569.81
-4375.85
-4184.97
-3994
-3797.94
-3625.25
-3502.98
-3398.48
-3334.43
69.0201
-3223.51
-3104.47
-3095.03
-2924.01
-139.419
-2719.07
-202.794
-2694.11
-2501.63
-194.526
-2476.09
-2272.87
-200.11
-2001.39
-237.958
-2006.76
-1815.34
-154.878
-1559.2
-266.993
-1535.64
-1293.05
-258.66
-1270.08
-1065.44
-223.113
-805.673
-245.982
-833.125
-596.722
-235.956
-642.289
-368.866
-272.581
-56.8935
-344.181
-59.9487
224.029
-309.043
538.913
-316.845
520.884
793.718
-277.792
778.435
1009.08
-242.136
1225.95
-230.157
1215.98
1412.16
-205.593
1402.06
1570.99
-178.11
1720.98
-159.006
1716.64
1851.57
-144.754
1973.12
-123.902
1965.43
2078.64
-113.644
2071.44
2171.26
-100.354
2241.77
-77.5673
2242.05
2313.53
-77.4469
2314.8
2378.77
-68.8721
2427.92
-46.9336
2424.16
2479.63
-54.0177
2509.97
-34.1769
2511.07
2545.34
-37.1682
2546.7
2579.42
-35.0206
2596.65
-15.6071
2594.71
2623.16
-26.9205
2621.57
2648.92
-26.4222
2657.88
-10.0964
2658.92
2683.94
-25.6635
2697.32
-12.3809
2696.63
2718.62
-21.2629
2718.16
2742.33
-23.6669
2752.44
-10.2411
2752.84
2780.52
-27.8627
2780.8
2812.14
-31.7283
2833.36
-20.8814
2833.16
2874.76
-41.3306
2908.94
-34.0615
2909.11
2958.08
-48.8462
2958.12
-59.6128
-137.612
-48.2866
-139.022
-410.287
-139.864
-564.928
-146.055
-597.316
-137.258
-504.028
-129.906
-559.565
-134.645
-631.844
-143.463
-602.956
-145.59
-499.995
-140.785
-409.355
-134.065
-278.003
-128.915
-145.695
-122.387
45.758
-116.182
241.698
-113.922
454.801
-113.605
724.473
-72.8548
1185.52
-92.1342
1223.93
-103.768
637.633
-89.9192
1074.3
-103.511
1626.72
-116.829
1038.37
-96.2616
718.834
-59.4398
857.463
-13.6175
930.576
19.2378
1340.13
49.2277
833.966
95.2688
1136.15
121.931
1303.66
126.536
1227.87
118.567
1029.06
110.551
806.87
83.191
494.052
80.0038
840.352
92.2802
776.572
83.4285
611.959
90.7667
878.436
99.4031
587.687
97.171
469.309
91.662
460.567
97.626
477.889
98.6694
409.745
107.039
580.601
129.074
539.895
142.36
430.595
140.628
326.099
140.924
396.856
149.02
291.663
147.274
196.662
147.454
66.7952
133.928
-75.6096
108.514
-342.861
49.2718
-670.643
7.51082
-885.379
35.303
3503.91
49.1276
7123.77
40.024
6212.09
22.2339
3579.16
-1.35568
894.614
-50.4608
-411.128
-16.8049
241.311
-2.13179
203.98
-77.6735
-181.301
-98.0149
395.998
-118.97
501.523
-126.198
370.372
-139.896
122.021
-143.913
267.624
-132.264
350.248
-106.961
356.818
-81.5715
355.523
-68.951
52.0863
-66.6356
-67.0027
-69.7075
-200.891
-60.1715
-473.042
-73.3848
-336.549
20.2918
315.057
50.3077
-1994.82
-2706.24
-122.496
-99.2471
-123.786
-410.495
-133.17
-556.884
-146.74
-584.821
-138.173
-514.339
-130.619
-569.079
-136.716
-627.725
-146.441
-595.211
-145.983
-502.722
-139.512
-418.221
-132.018
-288.165
-126.175
-154.33
-118.188
34.7798
-110.056
230.379
-104.707
446.16
-99.9611
716.169
-30.1087
1111.15
-7.82024
1187.69
-73.9163
694.538
-107.897
1103.96
-106.926
1624.08
-98.8741
1027.72
-86.8368
701.7
-47.2078
813.583
-18.3619
898.2
17.6174
1301.99
30.5373
818.141
81.1946
1083.59
111.411
1272.54
117.527
1221.11
111.463
1034.87
103.158
815.282
76.4867
521.541
87.5209
830.157
92.7786
772.508
87.4062
619.045
105.045
862.344
85.5285
609.682
85.412
473.075
88.8999
460.575
95.3313
474.738
92.8947
415.9
112.092
564.539
126.219
529.054
132.512
427.603
127.497
334.489
140.749
386.47
140.308
295.106
139.897
199.739
140.486
69.4688
126.299
-58.5901
101.063
-315.188
47.5959
-614.031
3.54485
-838.2
35.0854
3473.39
50.1585
7109.22
39.091
6222.76
20.1104
3597.43
2.90077
912.202
-47.5912
-357.607
-12.5414
213.965
15.1672
184.109
-91.8191
-67.9932
-110.47
417.947
-116.591
508.018
-108.906
362.586
-135.126
148.252
-143.321
276.627
-132.926
346.504
-120.093
351
-91.4688
334.272
-75.9484
46.7265
-64.139
-77.3399
-50.1971
-214.418
-70.3406
-455.628
-107.839
-303.16
38.3769
162.806
42.8088
-2001.81
-2712.73
-129.506
-148.502
-127.937
-411.823
-139.821
-543.813
-149.302
-574.214
-139.524
-522.27
-135.613
-570.628
-142.912
-618.379
-148.438
-587.596
-144.602
-504.244
-138.153
-422.244
-130.333
-293.338
-124.185
-157.83
-115.631
29.3125
-106.13
224.63
-98.123
443.084
-89.1349
713.365
-34.8497
1063.82
-14.6167
1172.24
-73.36
751.44
-105.159
1134.67
-98.724
1617.79
-84.9623
1013.77
-73.919
689.994
-45.0436
784.254
-20.8252
873.975
17.832
1263.39
29.9149
806.158
76.1224
1037.44
107.025
1242.02
113.91
1214.48
107.293
1041.87
97.033
825.969
73.717
545.38
88.7639
815.536
93.3881
768.243
88.3648
624.47
106.68
844.439
86.4521
630.258
81.6361
478.739
87.1977
455.789
93.3922
469.211
90.0446
419.738
108.643
546.828
120.2
518.391
123.314
425.06
119.544
338.729
134.321
372.448
135.244
294.823
133.523
201.461
133.03
65.8026
120.052
-48.2123
95.924
-293.749
47.3238
-568.34
3.16113
-797.293
35.2536
3441.46
51.215
7093.55
39.361
6234.4
19.2412
3617.06
-0.68745
931.844
-41.2911
-323.245
-13.1528
187.58
5.2203
167.056
-96.05
25.0098
-116.351
438.554
-115.773
507.56
-105.325
352.777
-129.569
173.598
-137.82
284.719
-129.262
340.451
-121.353
343.756
-101.275
316.058
-93.2441
40.696
-81.3365
-91.6484
-66.5722
-229.537
-92.4787
-431.925
-115.422
-280.187
47.0108
-2.99535
45.8131
-1998.48
-2700.52
-136.079
-191.603
-132.141
-417.305
-142.155
-535.1
-148.89
-568.616
-139.763
-533.012
-136.07
-576.034
-141.536
-614.807
-145.848
-585.216
-142.67
-509.645
-137
-430.275
-129.27
-303.71
-123.043
-166.894
-113.959
17.2923
-103.357
211.134
-93.2531
430.497
-81.5611
699.58
-40.3866
1020.31
-23.9449
1144.04
-72.8674
793.128
-102.455
1160.54
-92.5585
1606.35
-78.2191
996.959
-67.4954
674.706
-43.9258
757.041
-21.5956
848.897
17.291
1222.9
30.0019
791.623
72.4894
993.743
104.364
1209.71
112.229
1206.31
105.016
1049.01
92.5034
838.631
71.3904
567.105
87.6416
799.961
92.5176
764.242
88.0792
630.148
105.965
827.788
88.9183
649.054
80.5201
489.789
85.6921
453.32
91.4329
466.045
87.6817
426.269
104.433
532.731
114.994
510.545
117.588
425.147
114.324
344.683
127.383
361.89
129.246
295.495
127.046
205.877
125.559
70.1304
114.057
-33.8798
91.0844
-268.477
46.3139
-520.38
3.55821
-751.613
35.4781
3410.41
51.8794
7077.68
39.6545
6246.31
18.7859
3637.22
0.754144
949.108
-35.9683
-285.682
-14.891
173.565
-11.8773
171.222
-99.1757
116.913
-120.512
463.032
-115.06
502.659
-104.269
342.216
-124.212
193.401
-128.92
288.791
-122.065
338.194
-117.909
343.416
-104.401
306.951
-104.592
45.7716
-97.5439
-102.085
-86.3901
-244.735
-117.051
-408.507
-120.861
-283.869
57.1374
-193.163
40.196
-1984.64
-2701.95
-143.495
-226.143
-136.773
-423.304
-143.696
-526.967
-148.67
-562.337
-140.38
-539.406
-136.976
-576.999
-141.736
-607.91
-145.45
-579.279
-142.079
-510.6
-136.364
-433.428
-128.428
-308.87
-121.886
-170.616
-112.498
11.187
-101.205
203.762
-89.3253
423.632
-75.3455
691.551
-41.6667
993.669
-28.7913
1138.55
-71.7493
835.918
-99.1073
1187.65
-88.1837
1596.11
-73.1337
982.502
-63.1467
665.479
-42.4002
737.093
-22.0016
829.636
16.0928
1185.68
27.8327
780.967
68.7439
953.582
102.009
1177.3
111.323
1197.59
104.012
1056.94
89.6061
853.576
69.3759
587.803
85.9812
783.715
91.7556
758.63
87.2643
634.73
104.375
810.785
91.0289
662.208
80.5862
500.3
84.3383
449.579
90.0183
460.27
86.3513
429.559
100.662
518.667
110.297
501.118
112.478
422.776
109.453
347.427
120.572
350.944
123.215
292.883
121.106
207.304
118.52
68.1236
108.574
-26.5722
86.7752
-249.49
45.1346
-481.535
3.85032
-713.47
35.7277
3378.51
52.4175
7061.23
39.9263
6258.62
18.708
3657.93
4.00115
963.277
-33.5773
-255.88
-18.9457
159.108
-28.0239
179.874
-103.723
186.666
-122.407
481.65
-113.326
493.732
-102.153
331.968
-116.306
208.652
-117.82
289.648
-114.038
335.881
-113.58
341.939
-106.785
300.434
-114.31
53.4234
-113.504
-105.656
-107.218
-250.923
-131.594
-384.701
-119.393
-291.715
75.8846
-394.157
44.0254
-1950.88
-2678.35
-150.253
-254.461
-141.537
-433.116
-145.414
-524.345
-148.734
-560.191
-141.154
-548.565
-138.103
-581.657
-142.187
-605.733
-144.905
-578.54
-141.296
-516.486
-135.626
-441.514
-127.669
-319.519
-120.966
-180.25
-111.513
-1.2454
-99.8112
189.225
-86.6474
408.299
-71.3606
674.768
-44.6152
965.784
-36.0703
1121.16
-70.3795
864.869
-93.2473
1207.65
-84.1862
1586
-69.4895
966.109
-59.9402
653.067
-41.6791
716.748
-22.0734
808.833
14.4296
1148.61
24.6823
770.514
64.9648
913.329
99.7521
1142.98
110.877
1186.83
103.972
1064.26
88.206
869.853
68.0493
608.811
84.3549
768.231
91.0618
752.791
86.2149
640.663
102.849
795.286
93.7658
672.686
82.38
513.72
83.7549
450.423
88.6546
457.518
85.1654
435.25
97.3496
508.801
106.188
494.608
108.083
423.136
105.213
352.558
114.324
344.046
117.404
291.983
115.612
210.895
111.842
74.1996
103.508
-15.3834
82.7883
-226.499
43.9528
-439.306
3.96833
-670.55
36.0243
3347.23
53.0065
7044.76
40.1872
6271.09
18.6745
3678.66
4.25926
976.642
-32.5449
-218.329
-24.3858
157.534
-41.6764
203.363
-107.455
256.104
-122.235
499.648
-110.58
482.777
-98.0875
319.829
-106.108
216.075
-106.287
287.983
-106.301
339.53
-110.863
348.911
-112.293
305.127
-125.681
70.1305
-128.838
-106.659
-125.289
-259.297
-140.297
-376.043
-114.41
-323.436
84.5497
-611.212
40.0484
-1910.49
-2670.05
-155.459
-277.025
-145.611
-441.963
-147.16
-521.55
-148.903
-556.948
-141.943
-553.593
-139.121
-582
-142.478
-600.149
-144.332
-574.308
-140.581
-517.702
-134.989
-444.382
-127.106
-324.474
-120.261
-184.06
-110.825
-7.18487
-98.9149
181.343
-84.6268
398.89
-67.8266
663.342
-44.0924
948.853
-38.9487
1125.44
-67.6057
894.389
-84.0736
1224.48
-77.7348
1580.81
-66.8049
956.468
-57.2559
645.298
-42.1481
703.298
-23.6627
792.199
12.3103
1114.05
21.2157
763.138
60.7897
874.848
97.1593
1107.68
110.521
1174.19
104.522
1070.94
87.9254
886.998
67.2769
629.849
82.7222
753.086
90.5381
745.007
85.8614
645.246
101.775
779.27
96.6036
677.354
85.3025
524.663
83.8286
451.408
87.118
453.614
83.8216
437.639
94.3176
498.088
102.577
486.074
104.39
420.599
101.713
354.44
108.881
336.598
112.111
288.333
110.805
210.982
105.821
74.4215
98.936
-11.0897
79.1874
-209.608
42.7999
-405.462
4.06731
-634.768
36.3338
3314.81
53.6314
7027.64
40.4492
6284.08
18.6029
3700.03
2.27819
992.574
-32.287
-189.277
-30.6807
154.844
-53.6616
224.527
-109.794
307.408
-120.993
510.451
-107.385
469.236
-92.6396
306.161
-95.6875
220.355
-96.9616
288.72
-101.167
344.845
-111.513
357.759
-120.924
314.269
-138.877
87.9209
-144.688
-102.64
-141.82
-260.644
-148.141
-368.119
-96.1712
-368.613
59.9674
-766.207
32.0354
-1880.43
-2665.6
-159.534
-296.871
-149.164
-453.017
-148.882
-522.959
-149.206
-557.709
-142.777
-561.511
-140.093
-586.144
-142.742
-599.328
-143.831
-575.131
-140.007
-523.735
-134.483
-452.233
-126.722
-334.811
-119.77
-193.831
-110.478
-19.3194
-98.6287
166.793
-83.7028
381.951
-66.0462
644.294
-45.4592
927.758
-43.6755
1117.54
-65.4736
912.315
-73.275
1230.23
-67.3927
1574.4
-64.7087
953.008
-55.9054
635.419
-43.9538
690.851
-26.0712
774.664
11.9717
1076.54
20.4177
755.887
56.7284
839.756
94.1919
1071.54
110.146
1159.24
105.569
1076.39
88.6862
904.713
67.1855
652.416
81.1437
740.138
90.1341
736.97
86.2158
650.207
101.112
765.466
99.1002
680.577
88.4447
536.905
83.7174
457.906
84.9395
454.144
82.1505
442.146
91.5408
490.646
99.4391
480.105
101.297
420.572
98.8427
358.732
104.272
333.017
107.402
286.993
106.517
213.167
100.5
82.0132
94.7894
-2.63683
75.8219
-188.426
41.6764
-367.683
4.24867
-594.322
36.6519
3283.09
54.2949
7010.49
40.726
6297.25
18.5228
3721.4
0.77114
1009.43
-32.2171
-155.834
-36.9263
165.64
-63.356
256.463
-111.214
358.766
-119.304
521.926
-104.188
454.926
-87.2921
289.698
-87.783
219.765
-92.4425
290.583
-100.775
356.184
-116.389
375.084
-131.622
332.34
-151.648
111.259
-159.485
-98.2041
-157.117
-266.318
-152.529
-375.41
-76.3066
-446.239
42.5063
-896.005
35.0624
-1877.58
-2640.48
-162.857
-313.197
-152.369
-462.41
-150.567
-523.481
-149.663
-556.939
-143.688
-565.518
-141.071
-586.238
-143.049
-595.027
-143.456
-572.187
-139.592
-524.932
-134.136
-454.794
-126.523
-339.328
-119.501
-197.595
-110.425
-24.6839
-98.7777
159.252
-83.3933
371.252
-64.5631
630.224
-43.7528
913.403
-43.9148
1128.81
-63.008
932.806
-63.8695
1231.88
-54.0983
1566.14
-59.3306
960.007
-54.6754
633.257
-45.7438
684.184
-26.488
757.851
14.1234
1037.78
21.4505
750.268
52.9246
809.533
90.8433
1034.85
109.56
1141.32
106.912
1079.77
90.3584
921.818
67.8605
675.244
79.7136
728.548
89.7403
726.902
86.9801
652.768
100.838
751.354
101.202
679.509
91.3487
546.131
83.474
464.919
82.6028
453.988
80.513
442.929
89.1597
481.383
96.8394
471.747
98.831
417.439
96.6814
359.689
100.608
328.434
103.478
283.348
102.87
212.144
96.0659
83.9822
91.0638
-0.282778
72.745
-173.105
40.4852
-337.83
4.44292
-561.106
36.9709
3250.32
54.9672
6992.63
41.0331
6311
18.5108
3743.5
0.0263212
1027.77
-32.1083
-127.771
-43.1355
174.964
-71.3825
282.266
-112.079
395.448
-117.817
527.19
-101.712
438.914
-83.063
272.426
-83.0655
221.396
-92.643
300.138
-104.88
369.545
-124.072
392.864
-142.832
350.875
-163.554
132.219
-173.098
-89.1167
-170.917
-265.169
-153.982
-388.309
-67.1225
-524.929
30.0264
-989.203
31.0216
-1876.27
-2633.07
-165.68
-328.527
-155.313
-473.298
-152.256
-527.591
-150.314
-559.903
-144.72
-572.596
-142.085
-590.299
-143.42
-595.534
-143.225
-574.308
-139.355
-531.039
-133.976
-462.504
-126.534
-349.329
-119.474
-207.451
-110.676
-36.3022
-99.4315
145.26
-84.0832
353.729
-64.798
609.143
-44.2734
892.233
-45.4437
1125.53
-61.5395
945.648
-58.8859
1227.75
-43.5975
1550.67
-50.9705
967.319
-49.9982
632.639
-43.7511
678.742
-22.5995
738.47
17.5379
999.256
23.0638
747.005
49.6503
785.139
87.277
999.32
108.734
1121.44
108.432
1081.35
92.7989
938.567
69.4162
699.859
78.582
720.576
89.3285
717.246
87.9726
655.196
100.906
739.511
103.02
678.53
94.5363
555.899
84.5811
476.253
81.4321
458.53
79.5793
446.098
87.5505
475.005
94.9658
465.907
97.0302
416.856
95.1795
363.032
97.8604
327.283
100.31
282.377
99.699
213.648
92.2418
92.336
87.6468
6.85846
69.8108
-153.049
39.2833
-303.255
4.61526
-523.196
37.3011
3218.28
55.6763
6974.74
41.3852
6324.86
18.5596
3765.47
1.41423
1044.23
-30.6982
-95.3532
-48.7611
198.992
-77.7208
316.684
-112.751
434.372
-116.808
535.058
-100.187
423.394
-80.6606
253.613
-81.6178
221.075
-96.2488
311.591
-111.424
387.409
-132.17
415.145
-151.808
373.471
-172.818
157.064
-183.861
-80.2608
-178.664
-271.339
-148.375
-417.008
-60.7769
-609.937
22.1666
-1080.09
25.9458
-1884.97
-2627.77
-168.191
-341.224
-158.07
-482.303
-153.932
-530.443
-151.123
-560.893
-145.852
-575.866
-143.145
-590.443
-143.891
-592.366
-143.177
-572.314
-139.324
-532.081
-134.039
-464.717
-126.791
-353.318
-119.72
-211.053
-111.203
-40.9116
-100.447
138.667
-85.3436
343.116
-65.5964
593.655
-42.6706
875.5
-43.0696
1138.66
-59.674
963.93
-56.3489
1225.34
-36.8013
1532.84
-43.9995
976.409
-44.7556
635.91
-39.251
675.496
-18.4406
720.111
19.743
962.891
24.072
744.072
46.7133
763.47
83.4792
963.618
107.539
1098.02
109.922
1079.54
95.7909
953.096
71.8668
723.937
77.9387
714.633
88.9428
706.069
89.1514
654.677
101.301
726.967
104.77
674.214
98.2979
561.612
87.8273
485.672
82.6116
462.476
80.2575
446.921
87.1696
467.211
94.0687
458.065
96.1186
413.397
94.5524
363.157
96.189
324.735
98.1029
279.448
97.331
212.522
89.3069
95.7299
84.5891
8.85041
67.085
-138.696
37.9839
-276.3
4.7135
-492.659
37.6421
3185.06
56.3997
6956.09
41.7874
6339.29
18.5436
3788.37
3.54092
1059.23
-29.3797
-65.6696
-54.0065
221.399
-82.9288
342.687
-113.562
461.483
-116.433
537.319
-99.6776
406.671
-81.0762
236.636
-84.3489
226.467
-101.96
329.894
-118.396
405.121
-139.48
435.006
-159.326
393.121
-181.649
179.771
-192.57
-69.0665
-180.436
-279.528
-138.592
-454.847
-54.7237
-686.705
18.5012
-1148.77
28.9668
-1893.02
-2611.31
-170.474
-353.736
-160.713
-492.543
-155.702
-536.422
-152.156
-565.335
-147.129
-582.309
-144.294
-594.605
-144.499
-593.923
-143.339
-575.293
-139.518
-538.036
-134.339
-472.088
-127.3
-362.745
-120.244
-220.705
-112.013
-51.753
-101.855
125.882
-87.3982
326.446
-68.0406
572.146
-44.6571
851.23
-43.0403
1133.72
-58.5192
976.344
-53.5149
1219.24
-31.729
1511.11
-38.8225
983.862
-40.4148
638.735
-35.5832
672.283
-16.5206
703.862
20.0033
928.752
24.5445
742.419
44.0159
746.723
79.5269
930.728
105.996
1073.52
111.287
1075.78
99.1452
966.516
75.2019
749.161
77.9753
713.123
88.6666
696.532
90.5077
653.898
102.057
716.461
106.507
670.801
102.068
567.083
92.4642
496.305
86.0543
469.919
82.7594
451.151
88.1636
463.027
94.2426
453.192
96.1534
412.628
94.7791
365.695
95.5115
325.222
96.8056
279.341
95.649
214.206
87.025
104.642
81.8256
16.1506
64.4244
-119.175
36.704
-244.116
4.77388
-457.212
38.0021
3152.41
57.1666
6937.41
42.2471
6353.76
18.3646
3811.4
3.83805
1073.23
-30.3116
-31.3813
-58.4611
255.356
-87.1132
376.777
-114.515
493.092
-116.447
543.461
-100.342
391.986
-85.0487
222.535
-91.2322
231.588
-109.136
344.797
-125.409
424.142
-146.954
458.211
-167.561
417.021
-190.429
207.059
-197.691
-62.7411
-177.511
-298.589
-129.556
-498.837
-49.8492
-761.742
16.3815
-1221.43
25.6002
-1907.35
-2610.43
-172.564
-363.852
-163.273
-500.727
-157.626
-540.794
-153.42
-567.61
-148.509
-585.182
-145.536
-594.957
-145.268
-591.66
-143.74
-573.939
-139.959
-538.848
-134.895
-473.893
-128.079
-366.118
-121.077
-224.017
-113.125
-55.5789
-103.577
120.604
-89.8838
317.171
-71.0592
557.313
-46.216
832.457
-40.472
1141.99
-56.9324
994.808
-50.6252
1213.93
-26.603
1489
-33.3943
992.539
-37.3193
644.971
-33.8468
670.853
-16.3489
688.614
19.2175
894.807
24.1961
738.415
40.8598
730.601
75.2408
897.156
103.989
1045.22
112.354
1067.83
102.635
976.496
79.2953
772.513
78.8301
713.587
88.6185
686.446
92.009
650.098
103.124
704.831
108.318
664.643
105.639
568.906
97.6679
503.099
91.0915
475.06
86.8821
453.678
90.5274
458.291
95.5517
447.015
97.2333
409.342
96.0211
365.296
96.0027
324.141
96.5984
277.557
94.9246
213.814
85.6406
109.513
79.4267
19.3564
61.8942
-105.055
35.3042
-219.432
4.78692
-429.391
38.3805
3118.49
57.9516
6917.93
42.7794
6368.77
18.1063
3835.8
3.04174
1088.44
-32.3662
1.43783
-62.3504
283.008
-90.6293
401.987
-115.596
514.917
-116.986
544.244
-102.85
377.92
-92.7117
214.397
-101.033
242.611
-117.074
362.288
-132.945
441.704
-155.634
480.067
-177.864
439.294
-198.886
228.797
-198.541
-62.1584
-171.689
-320.844
-119.924
-547.22
-42.2911
-833.536
17.9094
-1276.98
31.8528
-1918.91
-2589.37
-174.431
-374.147
-165.789
-509.908
-159.785
-547.756
-154.998
-573.24
-150.055
-591.549
-146.927
-599.403
-146.243
-594.112
-144.413
-577.568
-140.676
-544.707
-135.729
-480.987
-129.141
-375.024
-122.227
-233.42
-114.55
-65.7506
-105.62
109.084
-92.8583
302.089
-75.1564
537.07
-52.4091
808.381
-42.4011
1129.07
-56.0137
1005.26
-47.91
1204.9
-22.3514
1463.63
-28.5857
999.313
-34.1747
652.217
-31.3891
670.169
-15.4004
676.139
18.4954
863.841
23.6039
736.576
37.4541
719.745
70.6773
866.964
101.49
1016.73
113.026
1058.07
106.087
984.884
84.0106
795.943
80.5898
718.329
88.9641
679.286
93.6478
646.489
104.48
695.008
110.275
659.803
108.967
571.076
102.821
510.034
96.8894
481.761
92.1675
459.067
94.1342
457.257
97.966
444.106
99.2883
408.925
98.2112
367.32
97.6154
325.754
97.4482
278.725
95.059
216.505
84.9553
119.472
77.3333
28.6702
59.3928
-85.1638
33.9581
-189.111
4.83779
-396.341
38.782
3085.1
58.7861
6898.42
43.403
6383.71
17.7896
3860.62
0.441285
1105.42
-35.8722
38.0505
-65.5146
318.754
-93.4727
435.665
-116.665
542.804
-118.095
550.434
-107.494
369.202
-103.3
212.03
-113.047
251.782
-127.329
374.115
-142.579
460.14
-165.436
505.085
-188.223
466.05
-205.099
251.053
-197.687
-69.2003
-165.998
-349.103
-109.401
-598.417
-33.3694
-903.926
21.0082
-1336.94
33.0985
-1936.41
-2581.95
-176.496
-382.14
-168.211
-517.063
-161.957
-552.748
-156.714
-576.466
-151.734
-594.453
-148.463
-599.987
-147.433
-592.498
-145.374
-576.576
-141.689
-545.272
-136.864
-482.381
-130.515
-377.772
-123.742
-236.326
-116.342
-68.8586
-107.981
105.069
-96.1055
294.599
-79.503
524.349
-57.635
792.588
-42.4788
1127.25
-54.8215
1019.96
-45.5149
1196.55
-18.4259
1438.53
-24.0153
1006.62
-31.4128
661.445
-29.3637
669.616
-14.499
662.933
18.549
831.904
23.2742
732.198
34.0201
708.96
65.7974
835.579
98.3706
984.295
113.128
1043.48
109.292
988.768
89.1139
815.945
83.2474
724.021
89.8486
672.227
95.4591
640.361
106.124
683.719
112.428
652.462
112.214
570.405
107.85
513.197
103.048
485.085
98.2877
462.121
98.8607
455.515
101.507
440.22
102.382
406.367
101.398
366.632
100.36
325.6
99.3856
278.427
96.1491
217.622
85.1651
126.44
75.6178
34.5843
57.0363
-70.3742
32.4448
-166.294
4.89492
-371.504
39.2065
3050.47
59.6444
6878.06
44.129
6399.07
17.5791
3886.94
-3.37819
1126.58
-40.0151
72.4111
-68.2437
344.441
-95.8178
459.959
-117.761
561.798
-120.07
552.038
-114.424
363.528
-116.37
216.084
-126.899
265.293
-140.046
389.206
-154.966
476.993
-176.315
525.782
-197.366
487.156
-208.581
263.031
-195.788
-81.2275
-159.361
-381.633
-99.2588
-656.331
-26.5146
-972.564
24.06
-1383.36
32.6817
-1942.85
-2577.49
-178.964
-390.901
-170.636
-525.928
-164.21
-560.095
-158.648
-582.772
-153.64
-600.819
-150.214
-604.635
-148.893
-595.489
-146.667
-580.462
-143.042
-550.876
-138.338
-489.051
-132.231
-385.984
-125.639
-245.146
-118.508
-78.1924
-110.645
94.8561
-99.6121
281.4
-84.2606
506.435
-63.8668
770.863
-44.2793
1105.68
-54.1323
1026.83
-43.4207
1185.12
-15.5006
1410.95
-20.2774
1011.97
-28.626
671.507
-26.7862
670.002
-12.6179
652.479
19.9746
802.424
24.402
731.038
31.5565
704.667
60.8801
809.393
94.6428
953.042
112.578
1027.45
112.092
990.788
94.3984
835.002
86.7458
732.978
91.3926
668.778
97.4833
635.311
108.049
674.095
114.825
646.532
115.568
570.369
112.851
516.51
109.277
489.205
104.834
467.02
104.428
456.608
106.037
439.285
106.437
406.669
105.481
368.345
104.065
327.843
102.249
281.069
98.061
221.93
86.2054
137.839
74.2867
47.5524
54.7984
-49.4489
30.9944
-137.567
5.05711
-341.131
39.6557
3016.37
60.5573
6857.65
44.9641
6414.24
17.6275
3913.55
-5.88379
1149.85
-42.8048
109.743
-70.5177
378.543
-97.5911
492.893
-118.81
587.99
-122.783
561.173
-122.936
365.87
-129.819
225.314
-139.362
274.754
-151.539
399.536
-167.421
496.747
-187.465
548.575
-204.659
509.055
-209.9
274.779
-192.994
-96.6658
-151.812
-418.45
-89.0514
-713.198
-19.4404
-1036.07
28.5855
-1436.54
42.749
-1962.87
-2549.82
-181.455
-397.8
-173.036
-533.182
-166.512
-565.369
-160.739
-586.458
-155.717
-603.718
-152.158
-605.421
-150.609
-594.269
-148.288
-579.553
-144.747
-551.126
-140.173
-490.004
-134.329
-388.044
-127.971
-247.441
-121.114
-80.5647
-113.671
91.8947
-103.352
275.567
-89.1487
496.213
-69.56
757.518
-45.2793
1094.17
-53.2646
1037.83
-41.6091
1174.51
-12.8895
1384.34
-16.8465
1017.49
-26.3867
682.426
-24.7692
669.324
-11.3516
640.061
21.2539
770.376
26.5729
725.449
30.3327
700.293
56.1867
783.434
90.362
918.644
111.275
1006.43
114.306
987.607
99.5932
849.377
90.9436
741.304
93.669
665.455
99.8029
628.565
110.264
662.925
117.485
638.23
119.199
567.748
117.974
516.519
115.569
490.11
111.663
469.206
110.678
456.362
111.48
437.17
111.452
404.955
110.449
367.631
108.773
328.25
106.1
282.408
100.793
225.098
88.3444
146.589
73.5781
57.9995
52.7859
-33.9352
29.2662
-116.292
5.17927
-319.944
40.1323
2981.12
61.4939
6836.37
45.8899
6429.69
17.9059
3941.35
-5.86184
1173.9
-43.2529
145.004
-72.6041
405.303
-98.946
515.896
-119.807
606.06
-126.019
566.676
-131.682
371.473
-141.583
237.475
-148.535
285.049
-159.035
412.508
-176.543
516.498
-196.531
568.1
-209.962
522.596
-210.16
275.757
-188.797
-117.657
-144.537
-460.239
-79.9436
-776.895
-12.1059
-1101.16
34.5103
-1479.77
47.2634
-1973.95
-2539.59
-183.905
-405.75
-175.524
-542.11
-168.997
-572.834
-163.104
-593.07
-158.065
-610.118
-154.379
-610.309
-152.646
-597.651
-150.288
-583.519
-146.857
-556.482
-142.421
-496.318
-136.85
-395.612
-130.752
-255.613
-124.146
-89.1871
-117.009
82.5695
-107.256
263.786
-94.1232
480.596
-75.4473
737.673
-47.7774
1065.52
-52.8162
1040.32
-39.892
1161.12
-10.9332
1355.91
-13.9712
1021.14
-23.9384
694.034
-22.0728
669.661
-10.1086
631.772
21.3958
742.074
28.503
721.515
29.9355
701.503
52.0229
764.451
85.757
887.553
109.254
984.969
115.841
982.658
104.504
862.13
95.6598
751.47
96.6788
665.638
102.493
623.789
112.824
653.505
120.412
631.424
123.009
565.768
123.064
516.944
121.739
491.835
118.565
472.702
117.389
458.057
117.623
437.443
117.249
405.905
116.135
369.391
114.363
330.726
111.048
286.424
104.506
231.641
91.4415
159.089
73.9346
75.9205
50.9354
-10.8586
27.6813
-87.3584
5.42593
-292.307
40.6368
2946.39