/*--------------------------------*- C++ -*----------------------------------*\
| =========                 |                                                 |
| \\      /  F ield         | OpenFOAM: The Open Source CFD Toolbox           |
|  \\    /   O peration     | Version:  4.1                                   |
|   \\  /    A nd           | Web:      www.OpenFOAM.org                      |
|    \\/     M anipulation  |                                                 |
\*---------------------------------------------------------------------------*/
FoamFile
{
    version     2.0;
    format      ascii;
    class       volVectorField;
    location    "2";
    object      U;
}
// * * * * * * * * * * * * * * * * * * * * * * * * * * * * * * * * * * * * * //

dimensions      [0 1 -1 0 0 0 0];

internalField   nonuniform List<vector> 
6785
(
(1.21159e-14 -2.33645 16.5158)
(9.53581e-15 -7.91494 13.0152)
(-2.8171e-15 -5.12558 13.8254)
(3.52631e-15 -5.05094 13.3424)
(6.8377e-16 -4.24123 13.2121)
(-5.88174e-16 -3.79768 12.9326)
(1.84895e-15 -3.35029 12.6558)
(2.86864e-16 -3.01776 12.333)
(-1.16361e-16 -2.77116 12.0022)
(1.05694e-15 -2.66339 11.7062)
(1.94387e-16 -2.68396 11.5355)
(-1.3592e-16 -2.84248 11.4547)
(-1.69874e-18 -3.45891 10.9608)
(-1.91201e-17 -3.65293 9.75684)
(1.01093e-15 -0.167607 7.66898)
(1.60052e-14 -10.3933 27.0176)
(1.12231e-14 -16.3384 23.522)
(-3.2168e-15 -11.2952 23.8402)
(2.26774e-15 -12.0189 22.0425)
(-1.51644e-16 -10.306 21.2055)
(-1.51657e-15 -9.65523 20.0042)
(-7.25398e-16 -8.67508 18.9515)
(-7.30953e-16 -7.90265 17.879)
(-1.86424e-15 -7.15112 16.8661)
(-1.56764e-15 -6.42419 15.7839)
(-9.93245e-16 -5.46643 14.235)
(-2.15625e-15 -3.94267 11.5321)
(-1.10637e-15 -1.84757 7.15317)
(3.04267e-15 0.257865 1.91127)
(3.03446e-15 0.66355 -0.774363)
(1.8375e-14 -13.0543 28.7002)
(9.47177e-15 -17.1104 25.3486)
(-2.2457e-15 -12.2533 25.4106)
(3.78472e-15 -13.4738 22.8357)
(-1.08262e-15 -11.2648 21.8504)
(-5.86364e-16 -10.9435 20.0672)
(1.34451e-15 -9.79754 18.7251)
(-2.03712e-15 -9.15187 17.2527)
(-8.00113e-16 -8.41489 15.9827)
(2.19207e-15 -7.80654 14.6666)
(-3.66876e-15 -6.85717 12.8234)
(-1.53822e-15 -4.92776 9.2824)
(1.45929e-14 -0.9735 2.28668)
(6.69124e-15 4.13776 -6.21024)
(1.12256e-14 2.43066 -6.07704)
(1.40778e-14 -13.5616 27.7365)
(9.68603e-15 -17.4697 25.8726)
(-2.8776e-15 -12.7468 25.0759)
(3.62734e-15 -14.2096 22.142)
(-2.37416e-16 -11.7947 21.1893)
(-1.77773e-15 -11.7447 19.1)
(1.96175e-15 -10.5126 17.6722)
(7.24172e-17 -9.88655 15.9866)
(-2.06885e-15 -9.08886 14.4982)
(2.22138e-15 -8.42421 13.0255)
(1.76259e-15 -7.6773 11.3994)
(-1.90678e-15 -6.45488 9.1531)
(4.09022e-15 -4.44504 5.5649)
(1.2352e-14 -1.75328 2.29715)
(1.61508e-14 1.10614 -3.34903)
(1.48306e-14 -12.9876 25.5908)
(1.27718e-14 -17.523 26.5375)
(-1.57311e-15 -13.0476 24.7394)
(5.00973e-15 -13.9471 21.6686)
(3.90606e-15 -11.7146 20.6309)
(9.25106e-16 -11.5401 18.5207)
(4.37419e-15 -10.2939 17.0571)
(5.83571e-15 -9.54749 15.3319)
(2.85995e-15 -8.6324 13.7499)
(5.45413e-15 -7.77645 12.1865)
(9.2661e-15 -6.94709 10.6114)
(6.28079e-15 -5.92605 8.92598)
(5.77357e-15 -4.70506 6.69638)
(1.53566e-14 -2.78774 4.34487)
(2.28719e-14 0.107055 -2.05133)
(2.3739e-14 -12.0643 23.2011)
(1.91865e-14 -17.0647 26.5455)
(4.43891e-17 -13.2679 24.3587)
(5.9696e-15 -13.4394 21.1962)
(8.99612e-15 -11.5808 19.9857)
(4.97061e-15 -11.2285 18.0466)
(7.57798e-15 -10.1502 16.6266)
(1.08288e-14 -9.39598 15.0494)
(7.87199e-15 -8.54037 13.5776)
(8.39795e-15 -7.68717 12.1362)
(1.2088e-14 -6.86451 10.7007)
(1.01479e-14 -5.93277 9.29066)
(8.37658e-15 -5.01659 7.66979)
(1.39156e-14 -3.55422 5.8)
(1.02263e-14 -0.91796 0.365045)
(3.49376e-14 -11.4218 21.6051)
(3.0891e-14 -16.1379 25.7157)
(5.07269e-15 -13.1848 23.64)
(6.90886e-15 -12.8728 20.534)
(1.05552e-14 -11.3648 19.1592)
(5.93658e-15 -10.921 17.4652)
(7.71851e-15 -10.0795 16.1751)
(1.0757e-14 -9.41871 14.857)
(6.37983e-15 -8.72246 13.6301)
(4.66704e-15 -8.00564 12.4577)
(6.68085e-15 -7.29882 11.2872)
(4.19686e-15 -6.48148 10.1297)
(3.37215e-15 -5.69022 8.82091)
(1.02709e-14 -4.45672 7.31506)
(6.20082e-15 -1.85543 2.29823)
(2.69409e-14 -11.2571 20.9764)
(4.34674e-14 -15.0709 24.4419)
(1.17603e-14 -12.5941 22.421)
(5.46949e-15 -12.1276 19.4938)
(3.09156e-15 -10.8572 18.1266)
(-3.91754e-15 -10.4544 16.6926)
(-1.61107e-15 -9.81594 15.6264)
(1.53131e-15 -9.30362 14.6082)
(-5.87405e-15 -8.78474 13.677)
(-9.76075e-15 -8.24436 12.8138)
(-8.48968e-15 -7.70925 11.9546)
(-1.19024e-14 -7.06752 11.0936)
(-1.09537e-14 -6.41056 10.0606)
(-1.18016e-15 -5.40568 8.89078)
(1.61114e-15 -2.85565 4.24408)
(-1.86582e-14 -11.2447 20.6261)
(3.44142e-14 -14.494 23.7059)
(1.14308e-14 -11.7639 21.0533)
(-1.32086e-15 -11.255 18.2136)
(-1.43683e-14 -10.1254 17.0222)
(-2.53906e-14 -9.8741 15.8589)
(-1.99192e-14 -9.40042 15.0883)
(-1.58112e-14 -9.05863 14.3704)
(-2.69493e-14 -8.70226 13.7256)
(-3.03895e-14 -8.32488 13.1416)
(-2.92373e-14 -7.95899 12.5592)
(-3.47468e-14 -7.50163 11.9823)
(-3.01558e-14 -7.01066 11.23)
(-1.91673e-14 -6.26875 10.4055)
(-8.42802e-15 -3.77467 6.06797)
(-7.76374e-14 -10.8979 19.7189)
(-8.73851e-15 -14.5774 23.8916)
(-1.01914e-15 -11.3063 20.2543)
(-1.07114e-14 -10.4459 17.0534)
(-3.43303e-14 -9.3554 15.9561)
(-4.96158e-14 -9.26663 15.0508)
(-3.76534e-14 -8.94416 14.6005)
(-3.38664e-14 -8.76714 14.1575)
(-4.84238e-14 -8.54546 13.7555)
(-4.62352e-14 -8.29773 13.3924)
(-4.76615e-14 -8.07159 13.0193)
(-5.67825e-14 -7.76203 12.6687)
(-4.53842e-14 -7.43669 12.158)
(-4.05817e-14 -6.94323 11.6673)
(-2.27169e-14 -4.51501 7.51485)
(-1.03028e-13 -10.1365 18.1897)
(-4.71747e-14 -14.749 24.2292)
(-1.29057e-14 -11.5643 20.415)
(-1.31511e-14 -10.0097 16.4874)
(-4.33899e-14 -8.79826 15.1124)
(-5.99169e-14 -8.75567 14.3932)
(-4.36072e-14 -8.58187 14.2237)
(-4.41934e-14 -8.53405 14.0178)
(-5.66108e-14 -8.41776 13.8043)
(-4.75532e-14 -8.26277 13.6039)
(-5.73695e-14 -8.14196 13.3779)
(-6.59769e-14 -7.93394 13.1904)
(-4.92519e-14 -7.75295 12.8671)
(-5.88508e-14 -7.44817 12.6511)
(-3.13847e-14 -5.11424 8.62277)
(-6.8193e-14 -9.2111 16.4479)
(-3.23271e-14 -14.4229 23.814)
(-2.23431e-16 -12.0096 20.7597)
(1.22343e-15 -10.0267 16.508)
(-3.19842e-14 -8.60719 14.6042)
(-4.72744e-14 -8.4476 13.9129)
(-3.22999e-14 -8.38189 13.9084)
(-4.01657e-14 -8.40368 13.8783)
(-4.46492e-14 -8.35541 13.7952)
(-3.09475e-14 -8.25477 13.7013)
(-5.2126e-14 -8.19465 13.5759)
(-5.5033e-14 -8.04398 13.4921)
(-3.8435e-14 -7.96338 13.3095)
(-6.79744e-14 -7.76786 13.285)
(-2.45824e-14 -5.58022 9.40788)
(1.18066e-14 -8.48887 15.1956)
(2.86995e-14 -13.6661 22.731)
(3.55725e-14 -12.0654 20.6085)
(2.52906e-14 -10.209 16.723)
(-9.59709e-15 -8.76076 14.6317)
(-2.14876e-14 -8.47022 13.9406)
(-1.00151e-14 -8.43535 14.0056)
(-2.63064e-14 -8.47304 14.0815)
(-1.93152e-14 -8.45927 14.0883)
(-4.63612e-15 -8.39641 14.076)
(-3.74055e-14 -8.37596 14.0286)
(-2.88909e-14 -8.28374 14.0248)
(-1.8583e-14 -8.27323 13.954)
(-6.74768e-14 -8.16064 13.9953)
(-4.19497e-15 -6.10139 10.3532)
(9.71574e-14 -8.10532 14.3403)
(8.99467e-14 -12.6341 21.0035)
(6.55356e-14 -11.4752 19.4559)
(4.07505e-14 -10.0574 16.3597)
(7.20776e-15 -8.84606 14.6249)
(3.35975e-15 -8.59005 14.0131)
(8.58707e-15 -8.51251 14.0398)
(-9.73649e-15 -8.53807 14.0685)
(9.13853e-15 -8.47929 14.0528)
(1.76102e-14 -8.40667 13.9729)
(-1.59494e-14 -8.3298 13.9218)
(3.95249e-15 -8.20947 13.8294)
(1.94638e-15 -8.17999 13.8306)
(-5.22064e-14 -8.00747 13.8046)
(2.18596e-14 -6.28686 10.6113)
(1.05854e-13 -7.12121 12.6542)
(1.46045e-13 -12.9573 20.1217)
(9.3542e-14 -12.2817 19.2135)
(4.60895e-14 -10.9925 16.4726)
(2.0713e-14 -9.85069 14.9338)
(1.11507e-14 -9.51342 14.5481)
(1.46129e-14 -9.34148 14.698)
(2.33974e-15 -9.25474 14.8441)
(1.70702e-14 -9.12683 15.0295)
(2.42982e-14 -9.06475 15.1747)
(-2.96483e-16 -8.97565 15.3313)
(1.72657e-14 -9.04808 15.5523)
(3.27367e-15 -9.00205 15.619)
(-4.12764e-14 -9.04454 15.4491)
(2.42768e-14 -6.93407 12.1235)
(2.31072e-17 -0.349301 -0.708429)
(1.52386e-15 0.135539 -0.349622)
(2.22428e-15 0.0767641 0.014711)
(3.48017e-15 0.0380536 0.0444664)
(4.86168e-15 -0.0201206 0.00350465)
(9.09686e-15 0.029252 -0.00450727)
(6.93726e-15 0.00823198 0.119064)
(5.28707e-15 -0.000752738 0.0573124)
(3.62853e-15 -0.00585861 0.00510522)
(2.5231e-15 0.00381175 0.0166187)
(1.00791e-15 -0.0409009 0.0976553)
(1.42676e-15 -0.0386142 0.0902665)
(2.31021e-15 -0.0508469 0.15266)
(1.67893e-15 -0.0870966 0.150963)
(1.51911e-15 -0.0979604 0.11025)
(1.19217e-15 -0.0930935 0.080328)
(3.84153e-16 -0.119737 0.129272)
(-7.66256e-16 -0.157361 0.140526)
(-1.85969e-15 -0.147366 0.130675)
(-3.72338e-15 -0.191267 0.20114)
(-2.83036e-15 -0.208192 0.19397)
(-2.65617e-15 -0.228812 0.200815)
(-2.25596e-15 -0.2204 0.196447)
(-2.29351e-15 -0.285827 0.257587)
(-1.09252e-15 -0.288687 0.19166)
(-5.19509e-16 -0.315492 0.155983)
(8.9537e-17 -0.292599 0.136588)
(1.08285e-15 -0.373503 0.217173)
(1.03249e-15 -0.381536 0.198005)
(1.23313e-15 -0.36434 0.173227)
(1.41678e-15 -0.45229 0.207021)
(7.08608e-16 -0.435068 0.167024)
(3.12869e-16 -0.468871 0.131024)
(-1.52284e-16 -0.429985 0.100956)
(-7.11305e-16 -0.54501 0.158271)
(-5.73808e-16 -0.532663 0.164893)
(-4.32014e-16 -0.505775 0.147256)
(1.30964e-16 -0.625097 0.241307)
(4.72979e-16 -0.588502 0.246541)
(7.7679e-16 -0.635805 0.227986)
(8.74864e-16 -0.591938 0.186187)
(1.06569e-15 -0.751836 0.238511)
(6.0268e-16 -0.688756 0.212104)
(5.40887e-16 -0.743869 0.16147)
(5.12676e-16 -0.679152 0.121419)
(5.997e-16 -0.864076 0.211671)
(1.83515e-16 -0.826253 0.235841)
(-6.35572e-17 -0.788644 0.218037)
(-2.01119e-16 -0.975065 0.381724)
(5.61838e-17 -0.907162 0.387436)
(5.84561e-16 -0.982313 0.361899)
(1.24433e-15 -0.917068 0.319392)
(2.56056e-15 -1.16308 0.474119)
(1.98983e-15 -1.05492 0.443541)
(1.86852e-15 -1.15055 0.408579)
(1.32975e-15 -1.0643 0.379729)
(5.20799e-16 -1.34377 0.590814)
(-2.38359e-16 -1.27511 0.539736)
(-6.12472e-16 -1.23635 0.494003)
(-9.71278e-16 -1.50795 0.702724)
(-6.34133e-16 -1.38769 0.642231)
(-7.38142e-16 -1.51299 0.588899)
(-9.27631e-16 -1.4082 0.535395)
(-1.39464e-15 -1.77922 0.802283)
(-1.02922e-15 -1.6792 0.735402)
(-1.01296e-15 -1.63879 0.68648)
(-4.19729e-16 -2.04662 1.02926)
(7.49091e-17 -1.90485 0.923782)
(5.21549e-16 -2.0673 0.88312)
(1.07507e-15 -1.95366 0.911975)
(2.90821e-15 -2.59025 1.80058)
(2.63576e-15 -2.39427 1.85572)
(3.09391e-15 -2.66646 2.22386)
(2.8187e-15 -2.595 2.56864)
(1.40931e-15 -3.53925 4.41122)
(-2.47496e-15 -3.47821 3.85591)
(-6.9616e-15 -3.58543 4.35016)
(-1.81025e-14 -4.68842 6.96207)
(-1.86316e-14 -4.72099 6.1083)
(-2.22671e-14 -4.8585 7.45346)
(-2.17275e-14 -5.46644 10.4066)
(-1.85035e-14 -5.21227 10.6496)
(-1.66004e-14 -5.35858 11.1214)
(-1.81868e-14 -4.95121 11.1835)
(-1.38848e-14 -5.15843 11.536)
(-1.56925e-14 -5.09269 11.955)
(-1.64154e-14 -5.06859 12.0064)
(-1.4034e-14 -5.00782 12.1633)
(-1.21215e-14 -4.98771 12.5151)
(-1.07854e-14 -4.96026 12.9781)
(-8.61474e-15 -4.92924 13.4158)
(-6.27364e-15 -4.96674 13.6765)
(-1.33573e-14 -4.18311 13.215)
(-1.69672e-14 -4.7798 13.5412)
(-2.30216e-14 -4.66161 13.2721)
(-2.57748e-14 -4.70058 13.0739)
(-2.37426e-14 -4.64164 13.1267)
(-2.182e-14 -4.63518 13.4791)
(-1.80098e-14 -4.61371 14.0003)
(-1.19834e-14 -4.58205 14.5011)
(-6.592e-15 -4.64569 14.8432)
(-4.32132e-15 -3.96897 15.0667)
(-5.25128e-15 -4.58562 15.2772)
(-5.53873e-15 -4.48716 15.2911)
(-6.374e-15 -4.53891 15.2035)
(-7.2183e-15 -4.50957 15.1628)
(-7.03124e-15 -4.51563 15.1845)
(-5.83544e-15 -4.5166 15.3447)
(-6.64454e-15 -4.52661 15.6136)
(-7.80376e-15 -4.49404 15.8941)
(-9.26147e-15 -4.58299 16.1019)
(-1.8349e-14 -4.04343 16.5322)
(-1.27168e-14 -4.64631 16.4402)
(-7.61958e-15 -4.5911 16.3862)
(-2.08922e-15 -4.64126 16.3256)
(2.55091e-15 -4.63114 16.3345)
(5.01233e-15 -4.65682 16.4156)
(3.5245e-15 -4.67283 16.5666)
(1.20235e-15 -4.6334 16.732)
(2.05269e-16 -4.74893 16.8329)
(-5.60921e-15 -4.28175 17.2288)
(-8.49438e-15 -4.87419 16.8177)
(-1.43377e-14 -4.85508 16.6321)
(-1.92936e-14 -4.90127 16.5955)
(-2.53647e-14 -4.89822 16.6422)
(-3.00801e-14 -4.93596 16.7502)
(-3.13762e-14 -4.9573 16.8817)
(-2.90677e-14 -4.89849 16.9536)
(-2.49576e-14 -5.05063 16.9388)
(-2.15832e-14 -4.58932 17.3516)
(-1.55812e-14 -5.20712 16.8022)
(-8.71962e-15 -5.21337 16.6518)
(-4.52132e-15 -5.24679 16.6455)
(-2.74053e-15 -5.25645 16.6984)
(-4.53949e-15 -5.28988 16.7904)
(-6.11941e-15 -5.30411 16.8743)
(-8.30096e-15 -5.24551 16.9018)
(-1.11575e-14 -5.40309 16.8893)
(-2.87568e-14 -4.95428 17.2464)
(-2.63582e-14 -5.56485 16.7215)
(-3.22898e-14 -5.56018 16.5589)
(-3.91142e-14 -5.57807 16.5059)
(-4.59848e-14 -5.58624 16.5134)
(-5.02658e-14 -5.54487 16.6654)
(-4.65592e-14 -5.61443 17.2095)
(-5.02478e-14 -5.54239 17.2727)
(-5.34405e-14 -5.48198 17.4744)
(-5.92873e-14 -5.63093 17.5722)
(-1.24064e-13 -4.46084 16.8563)
(-1.24112e-13 -5.43152 16.2007)
(-1.60029e-13 -5.35243 15.5026)
(-1.87662e-13 -5.35826 14.8313)
(-1.99438e-13 -5.27029 14.1668)
(-1.85759e-13 -5.23485 13.2848)
(-1.49073e-13 -5.16077 11.5074)
(-9.71398e-14 -4.84841 8.91389)
(-4.4876e-14 -4.78095 6.65749)
(4.84305e-15 -3.59282 -0.279397)
(1.90838e-14 -3.99076 0.457345)
(2.96338e-14 -4.04084 -0.502707)
(-1.15505e-14 -2.56542 -1.17258)
(-3.87345e-16 -4.93188 -0.0979589)
(4.4016e-15 -4.03189 -1.10243)
(-4.5297e-17 -3.59309 -0.772905)
(3.66479e-16 -4.6911 -0.725379)
(-2.68862e-16 -3.28286 -0.601065)
(-3.52145e-17 -4.17323 -0.444303)
(1.44389e-16 -4.03427 -0.558888)
(2.07023e-16 -3.20024 -0.429338)
(6.47112e-16 -3.83421 -0.435227)
(7.2766e-16 -3.56165 -0.730709)
(5.10141e-16 -2.90698 -0.606185)
(4.81302e-16 -3.79902 -0.578186)
(2.63209e-16 -2.53945 -0.409911)
(3.35969e-16 -3.24556 -0.403831)
(1.9731e-16 -2.74146 -0.582766)
(9.76534e-17 -2.28168 -0.53919)
(-2.86389e-17 -2.94253 -0.70333)
(-1.9558e-16 -1.88958 -0.562421)
(-1.23296e-16 -2.41989 -0.667359)
(7.9774e-17 -2.02588 -0.756928)
(2.78851e-16 -1.53767 -0.705286)
(5.58699e-16 -1.78828 -0.944315)
(4.97185e-16 -1.46436 -0.851514)
(1.47455e-16 -1.07829 -0.669382)
(4.69097e-16 -1.47078 -0.789835)
(6.59332e-16 -0.695909 -0.63123)
(8.95226e-16 -0.997904 -1.07102)
(3.12307e-16 -0.64851 -1.16869)
(2.48513e-16 -0.208708 -0.846947)
(2.85738e-16 -0.724431 -1.18478)
(2.56304e-16 0.137329 -0.858555)
(2.27273e-16 0.0142177 -1.06492)
(2.4548e-16 0.204869 -1.39768)
(-2.58782e-17 0.584112 -0.835254)
(-5.3499e-16 0.57738 -1.01979)
(-6.88619e-16 0.919322 -1.21348)
(-5.78278e-16 1.01747 -0.660899)
(-6.73882e-16 1.28298 -0.896827)
(-4.422e-16 1.29315 -0.486852)
(-4.35772e-16 1.41233 -0.593109)
(-7.91484e-16 1.79517 -0.692153)
(-7.22346e-16 1.60687 -0.337379)
(-1.01655e-15 2.1148 -0.528477)
(-8.97746e-16 1.83929 -0.303661)
(-1.23414e-15 2.07542 -0.431325)
(-1.17697e-15 2.32758 -0.496734)
(-5.19764e-16 2.10759 -0.233484)
(-1.42261e-16 2.39647 -0.314254)
(3.22374e-16 2.75164 -0.31868)
(2.80234e-16 2.26335 -0.130733)
(-1.25394e-16 3.05908 -0.214377)
(-5.04981e-16 2.48574 -0.0817973)
(-1.01985e-15 2.74795 -0.10946)
(-1.69764e-15 3.1215 -0.061206)
(-1.32096e-15 2.51565 0.0162087)
(-1.52292e-15 3.4345 -0.0945299)
(-7.28484e-16 2.74182 -0.0546787)
(-2.25123e-16 3.10231 -0.135802)
(6.99872e-16 3.27777 -0.111288)
(7.0813e-16 2.76556 -0.0309015)
(7.16934e-16 3.22895 -0.0673765)
(-3.99407e-17 3.48316 -0.00466242)
(-5.26126e-16 2.71444 0.00639223)
(-1.22006e-15 3.77521 -0.0947562)
(-1.03773e-15 3.00309 -0.0148956)
(-1.21649e-15 3.33843 -0.00972111)
(-1.15909e-15 3.56447 0.0825907)
(-6.4522e-16 2.75131 0.0488829)
(-6.25461e-16 3.8455 -0.0718685)
(-2.38396e-16 3.04987 -0.0295021)
(9.22464e-17 3.46538 -0.105404)
(7.29999e-16 3.57937 -0.086767)
(6.92621e-16 2.95253 -0.0407426)
(8.25646e-16 3.46691 -0.117067)
(6.6502e-16 3.73136 -0.0712871)
(2.4979e-16 2.84007 -0.050636)
(9.349e-17 4.03049 -0.189463)
(-2.14921e-17 3.17153 -0.0637515)
(6.45034e-17 3.75497 -0.138511)
(3.64039e-102 0.00711052 0.00651082)
(4.7013e-101 0.011281 0.00610926)
(4.44769e-100 0.0145477 0.00605423)
(3.65157e-99 0.0174755 0.00593795)
(2.38567e-98 0.0204103 0.00591478)
(8.20981e-98 0.0232203 0.00589519)
(-7.41859e-97 0.0260305 0.00592455)
(-1.87035e-95 0.0288136 0.00597596)
(-2.10783e-94 0.0316166 0.00606271)
(-1.19686e-93 0.0344413 0.00617653)
(6.30603e-93 0.0373115 0.00632099)
(2.47348e-91 0.0402371 0.00649353)
(2.98338e-90 0.0432344 0.00669501)
(1.17506e-89 0.0463151 0.0069247)
(-2.48817e-88 0.049493 0.00718286)
(-5.73683e-87 0.0527804 0.0074695)
(-5.802e-86 0.0561904 0.00778493)
(-1.57197e-85 0.0597355 0.00812956)
(6.21515e-84 0.0634286 0.00850397)
(1.70234e-82 0.067283 0.00890889)
(2.7025e-81 0.0713119 0.00934522)
(1.4599e-80 0.075529 0.009814)
(-5.59376e-79 0.0799486 0.0103165)
(-1.54476e-77 0.0845853 0.010854)
(-8.30433e-77 0.0894544 0.0114282)
(3.42748e-75 0.0945717 0.0120407)
(6.71637e-74 0.099954 0.0126936)
(-2.66945e-73 0.105619 0.013389)
(-2.27755e-71 0.111584 0.0141291)
(-1.37593e-70 0.11787 0.0149167)
(5.63841e-69 0.124496 0.0157544)
(9.33367e-68 0.131485 0.0166454)
(-7.95949e-67 0.13886 0.0175929)
(-3.3063e-65 0.146644 0.0186006)
(-6.77418e-65 0.154865 0.0196724)
(7.68426e-63 0.163549 0.0208125)
(7.08761e-62 0.172727 0.0220255)
(-1.20927e-60 0.18243 0.0233163)
(-2.04753e-59 0.192692 0.0246902)
(1.45536e-58 0.203549 0.0261531)
(3.89932e-57 0.21504 0.0277112)
(-2.65152e-56 0.227206 0.029371)
(-7.21678e-55 0.240092 0.0311397)
(8.50579e-54 0.253746 0.0330248)
(1.92861e-52 0.268218 0.0350343)
(-2.13152e-51 0.283563 0.0371768)
(-5.91622e-50 0.299838 0.0394609)
(2.79431e-49 0.317106 0.0418957)
(1.50598e-47 0.33543 0.0444904)
(1.62401e-47 0.354881 0.047254)
(-2.90842e-45 0.375528 0.0501952)
(-1.7742e-44 0.397445 0.0533215)
(4.11782e-43 0.420707 0.056639)
(4.84005e-42 0.445388 0.0601513)
(-3.88248e-41 0.471555 0.0638579)
(-8.51179e-40 0.499272 0.0677529)
(1.33033e-39 0.528586 0.0718221)
(1.08605e-37 0.559523 0.0760396)
(2.8464e-37 0.592074 0.0803634)
(-1.02654e-35 0.626182 0.0847292)
(-6.45033e-35 0.661719 0.0890421)
(7.01023e-34 0.698454 0.0931665)
(7.54436e-33 0.736022 0.0969121)
(-3.14921e-32 0.773859 0.100021)
(-6.14215e-31 0.81117 0.102138)
(5.79674e-31 0.84675 0.102826)
(3.82554e-29 0.879152 0.101452)
(3.86564e-29 0.905862 0.0974225)
(-1.9717e-27 0.924821 0.0896163)
(-5.01117e-27 0.930518 0.0776817)
(8.85992e-26 0.921434 0.0596308)
(3.92942e-25 0.885363 0.0366624)
(-3.26748e-24 0.823832 0.00582032)
(-3.16171e-23 0.712164 -0.0274673)
(1.0667e-22 0.556907 -0.0684884)
(5.49552e-21 0.235718 -0.0871178)
(-8.47789e-20 -0.220944 -0.29589)
(4.27421e-18 -0.68918 0.0938427)
(-5.29678e-17 -0.398081 -1.5354)
(2.18732e-101 0.00719154 0.00834059)
(2.56636e-100 0.0113666 0.00777725)
(2.3418e-99 0.0145814 0.00770066)
(1.87264e-98 0.0175007 0.00754756)
(1.18721e-97 0.0204186 0.00751915)
(3.68714e-97 0.0232188 0.00749601)
(-4.30924e-96 0.0260168 0.00753591)
(-9.93584e-95 0.0287898 0.00760347)
(-1.09185e-93 0.0315822 0.00771585)
(-6.02939e-93 0.0343971 0.00786202)
(3.45583e-92 0.0372574 0.00804678)
(1.28695e-90 0.0401734 0.00826664)
(1.52914e-89 0.043161 0.00852282)
(5.69219e-89 0.0462322 0.00881427)
(-1.34194e-87 0.0494005 0.00914141)
(-2.99318e-86 0.0526783 0.00950416)
(-2.8859e-85 0.0560786 0.00990294)
(-4.61553e-85 0.0596138 0.0103382)
(3.57435e-83 0.0632969 0.0108107)
(8.39349e-82 0.0671409 0.0113213)
(1.22747e-80 0.0711591 0.011871)
(6.40307e-80 0.0753652 0.0124612)
(-2.52713e-78 0.0797733 0.0130933)
(-7.24393e-77 0.084398 0.0137691)
(-4.77029e-76 0.0892545 0.0144902)
(1.45863e-74 0.0943587 0.015259)
(3.30734e-73 0.0997272 0.0160777)
(-4.35957e-73 0.105377 0.0169489)
(-1.01538e-70 0.111328 0.0178753)
(-8.51334e-70 0.117597 0.0188601)
(2.25878e-68 0.124206 0.0199066)
(4.62501e-67 0.131177 0.0210185)
(-2.41129e-66 0.138532 0.0221996)
(-1.52439e-64 0.146296 0.0234542)
(-6.74914e-64 0.154495 0.024787)
(3.32195e-62 0.163156 0.0262028)
(4.19543e-61 0.172308 0.0277072)
(-4.40207e-60 0.181985 0.0293058)
(-1.14418e-58 0.192218 0.031005)
(2.24492e-58 0.203045 0.0328113)
(2.09404e-56 0.214504 0.0347319)
(1.4265e-56 0.226636 0.0367744)
(-3.32169e-54 0.239485 0.0389471)
(5.10207e-54 0.253099 0.0412584)
(6.99528e-52 0.267529 0.0437173)
(-2.95178e-51 0.282829 0.0463334)
(-1.93837e-49 0.299057 0.0491163)
(2.35409e-49 0.316274 0.0520759)
(4.79054e-47 0.334545 0.0552219)
(1.71948e-46 0.353939 0.0585637)
(-8.9277e-45 0.374527 0.0621098)
(-7.75555e-44 0.396384 0.0658672)
(1.16387e-42 0.419584 0.0698403)
(1.83361e-41 0.444202 0.07403)
(-8.50789e-41 0.470309 0.0784314)
(-2.964e-39 0.497968 0.0830319)
(-2.74355e-39 0.527232 0.0878074)
(3.44497e-37 0.55813 0.0927179)
(1.81726e-36 0.590661 0.0977017)
(-2.78993e-35 0.624776 0.102667)
(-2.88622e-34 0.660358 0.107481)
(1.30545e-33 0.697194 0.111957)
(2.83813e-32 0.734938 0.115837)
(9.01733e-33 0.773053 0.118778)
(-1.88333e-30 0.810775 0.120305)
(-7.05224e-30 0.846944 0.119856)
(8.07771e-29 0.880141 0.116589)
(6.05053e-28 0.907926 0.109799)
(-1.75349e-27 0.928213 0.0979729)
(-2.86029e-26 0.935611 0.0808785)
(-1.54956e-26 0.928383 0.0558408)
(8.17688e-25 0.894415 0.0247371)
(2.31214e-24 0.834694 -0.0158928)
(-2.28115e-23 0.724616 -0.0591519)
(-1.15902e-22 0.568122 -0.111069)
(8.29571e-21 0.268569 -0.128945)
(-9.19839e-21 -0.247505 -0.344617)
(3.43441e-18 -0.53117 0.191079)
(-5.08734e-17 -1.03374 -1.60304)
(1.03266e-100 0.00724136 0.00934916)
(1.21464e-99 0.0114174 0.00871802)
(1.11224e-98 0.0146012 0.00863192)
(8.94121e-98 0.017515 0.00845926)
(5.72856e-97 0.0204228 0.00842934)
(1.86159e-96 0.0232168 0.00840569)
(-1.95328e-95 0.0260075 0.00845288)
(-4.689e-94 0.0287743 0.00853089)
(-5.25918e-93 0.0315601 0.00865893)
(-3.04682e-92 0.0343687 0.00882451)
(1.40792e-91 0.0372228 0.00903308)
(5.95982e-90 0.0401326 0.00928063)
(7.32961e-89 0.0431141 0.0095686)
(3.00014e-88 0.0461792 0.00989579)
(-6.05011e-87 0.0493414 0.0102627)
(-1.40996e-85 0.052613 0.0106692)
(-1.36352e-84 0.056007 0.0111157)
(-1.64431e-84 0.0595359 0.0116029)
(1.74734e-82 0.0632125 0.0121314)
(3.72136e-81 0.0670498 0.0127022)
(5.03769e-80 0.0710612 0.0133166)
(2.70375e-79 0.0752602 0.0139759)
(-9.57737e-78 0.079661 0.0146817)
(-2.96701e-76 0.0842781 0.0154358)
(-2.47897e-75 0.0891266 0.0162404)
(5.00796e-74 0.0942225 0.0170978)
(1.41107e-72 0.0995822 0.0180103)
(2.6341e-72 0.105223 0.018981)
(-3.74563e-70 0.111164 0.0200128)
(-4.39577e-69 0.117423 0.021109)
(6.93083e-68 0.124021 0.0222734)
(1.91815e-66 0.130981 0.0235097)
(-3.04226e-66 0.138323 0.0248224)
(-5.71697e-64 0.146074 0.026216)
(-4.18665e-63 0.154259 0.0276955)
(1.12389e-61 0.162906 0.0292663)
(1.94021e-60 0.172043 0.0309341)
(-1.07614e-59 0.181703 0.0327053)
(-4.90094e-58 0.191919 0.0345864)
(-1.04522e-57 0.202727 0.0365846)
(8.29438e-56 0.214166 0.0387076)
(5.55614e-55 0.226276 0.0409635)
(-1.06921e-53 0.239103 0.0433609)
(-9.18475e-53 0.252693 0.045909)
(1.60034e-51 0.267098 0.0486172)
(8.53917e-51 0.282371 0.0514954)
(-3.97026e-49 0.29857 0.0545539)
(-1.48771e-48 0.315756 0.0578027)
(1.00345e-46 0.333996 0.0612518)
(6.87111e-46 0.353357 0.0649107)
(-1.86445e-44 0.373911 0.0687877)
(-2.22633e-43 0.395733 0.072889)
(2.24348e-42 0.418899 0.0772182)
(4.76808e-41 0.443483 0.0817742)
(-1.05931e-40 0.469558 0.0865494)
(-7.19182e-39 0.497189 0.0915271)
(-2.04207e-38 0.526432 0.0966771)
(7.6832e-37 0.557318 0.101951)
(5.76383e-36 0.589852 0.107276)
(-5.3314e-35 0.623992 0.112542)
(-7.78876e-34 0.659628 0.117597)
(1.34972e-33 0.69656 0.122224)
(6.82969e-32 0.734456 0.126125)
(1.79173e-31 0.772796 0.128909)
(-3.89493e-30 0.810839 0.130032)
(-2.63605e-29 0.847453 0.128863)
(1.15986e-28 0.881238 0.12444)
(1.78003e-27 0.909797 0.116004)
(1.41629e-27 0.931028 0.101809)
(-6.81226e-26 0.939588 0.0817137)
(-3.09375e-25 0.933622 0.0526441)
(1.11839e-24 0.900955 0.0168354)
(1.50799e-23 0.842298 -0.0293888)
(3.00071e-23 0.732754 -0.0783779)
(-5.64641e-22 0.574387 -0.136741)
(1.44663e-20 0.275499 -0.151778)
(-9.6245e-19 -0.295271 -0.286192)
(4.45768e-18 -0.518474 0.356254)
(1.2483e-16 0.187828 0.413096)
(4.74829e-100 0.00732011 0.0104637)
(5.64368e-99 0.0114952 0.00977851)
(5.2055e-98 0.0146333 0.00968779)
(4.22161e-97 0.0175372 0.00949836)
(2.74681e-96 0.0204295 0.00946913)
(9.48338e-96 0.0232138 0.00944712)
(-8.50788e-95 0.0259933 0.0095041)
(-2.17319e-93 0.0287506 0.00959544)
(-2.50465e-92 0.0315266 0.00974254)
(-1.5354e-91 0.034326 0.00993143)
(5.19795e-91 0.0371709 0.0101683)
(2.69808e-89 0.0400717 0.0104485)
(3.47127e-88 0.0430442 0.0107739)
(1.59095e-87 0.0461003 0.011143)
(-2.61503e-86 0.0492536 0.0115564)
(-6.52243e-85 0.0525163 0.012014)
(-6.43127e-84 0.0559012 0.0125164)
(-6.6539e-84 0.0594208 0.013064)
(8.39125e-82 0.0630879 0.0136579)
(1.64722e-80 0.0669156 0.014299)
(2.01388e-79 0.070917 0.0149887)
(1.03185e-78 0.0751057 0.0157285)
(-3.52954e-77 0.0794958 0.0165202)
(-1.15916e-75 0.0841017 0.0173658)
(-1.1754e-74 0.0889386 0.0182676)
(1.5342e-73 0.0940223 0.0192281)
(5.66133e-72 0.0993692 0.0202502)
(2.85455e-71 0.104997 0.0213369)
(-1.2538e-69 0.110923 0.0224915)
(-2.03243e-68 0.117167 0.0237178)
(1.68897e-67 0.12375 0.0250197)
(7.29371e-66 0.130693 0.0264015)
(1.46903e-65 0.138018 0.0278679)
(-1.93519e-63 0.14575 0.029424)
(-2.08288e-62 0.153915 0.0310751)
(3.29509e-61 0.16254 0.0328271)
(7.94877e-60 0.171655 0.0346863)
(-1.32091e-59 0.181291 0.0366595)
(-1.84908e-57 0.191481 0.0387539)
(-1.06213e-56 0.202262 0.0409773)
(2.80387e-55 0.213672 0.0433378)
(3.54892e-54 0.225752 0.0458443)
(-2.59835e-53 0.238546 0.048506)
(-6.22564e-52 0.252101 0.0513327)
(1.45921e-51 0.266469 0.0543345)
(7.27613e-50 0.281702 0.057522)
(-3.06079e-49 0.29786 0.0609058)
(-8.28023e-48 0.315002 0.0644966)
(1.258e-46 0.333196 0.0683047)
(1.83754e-45 0.352509 0.0723398)
(-2.80617e-44 0.373014 0.07661)
(-4.97911e-43 0.394786 0.0811213)
(3.26254e-42 0.4179 0.0858758)
(1.01688e-40 0.442434 0.090871)
(-2.54424e-41 0.468462 0.0960963)
(-1.47232e-38 0.496052 0.10153)
(-6.66257e-38 0.525261 0.107137)
(1.47074e-36 0.556128 0.112859)
(1.41816e-35 0.588664 0.11861)
(-8.72317e-35 0.622834 0.124264)
(-1.72697e-33 0.658543 0.129642)
(1.237e-34 0.695605 0.134498)
(1.38782e-31 0.733707 0.138488)
(5.69739e-31 0.77236 0.141166)
(-7.00066e-30 0.810848 0.141914)
(-6.32922e-29 0.848081 0.140019)
(1.40522e-28 0.882687 0.134386)
(3.78045e-27 0.912331 0.124181)
(8.20124e-27 0.93489 0.107401)
(-1.27189e-25 0.945092 0.0839746)
(-8.04116e-25 0.940928 0.0503674)
(1.35017e-24 0.910146 0.00919565)
(3.46988e-23 0.853112 -0.0435484)
(1.23051e-22 0.74456 -0.0995079)
(-1.1909e-21 0.584319 -0.165641)
(1.76829e-20 0.290003 -0.182575)
(-1.51743e-19 -0.314666 -0.35579)
(-1.17069e-17 -0.548325 0.219275)
(-4.32925e-17 -1.053 -0.475643)
(2.12213e-99 0.00739445 0.0115059)
(2.56919e-98 0.0115671 0.0107874)
(2.39578e-97 0.0146638 0.0106958)
(1.96705e-96 0.0175576 0.0104938)
(1.30599e-95 0.0204349 0.0104672)
(4.84647e-95 0.0232094 0.0104486)
(-3.52189e-94 0.0259779 0.0105164)
(-9.86015e-93 0.0287257 0.010622)
(-1.17623e-91 0.0314919 0.0107886)
(-7.68243e-91 0.0342821 0.011001)
(1.59995e-90 0.0371176 0.011266)
(1.18821e-88 0.0400094 0.0115787)
(1.61847e-87 0.0429728 0.011941)
(8.40348e-87 0.0460199 0.0123513)
(-1.06935e-85 0.0491641 0.0128103)
(-2.94958e-84 0.0524177 0.013318)
(-3.02044e-83 0.0557933 0.0138748)
(-3.4357e-83 0.0593036 0.0144816)
(3.93096e-81 0.0629612 0.0151391)
(7.30323e-80 0.066779 0.0158486)
(7.90552e-79 0.0707703 0.0166116)
(3.39156e-78 0.0749485 0.0174297)
(-1.29461e-76 0.0793278 0.0183049)
(-4.30425e-75 0.0839224 0.0192394)
(-5.09147e-74 0.0887476 0.0202356)
(3.96548e-73 0.093819 0.0212964)
(2.11422e-71 0.099153 0.0224248)
(1.75881e-70 0.104767 0.023624)
(-3.65639e-69 0.110679 0.0248979)
(-8.45753e-68 0.116908 0.0262503)
(2.08571e-67 0.123475 0.0276856)
(2.49272e-65 0.130401 0.0292085)
(1.47945e-64 0.137708 0.0308239)
(-5.70712e-63 0.145422 0.0325374)
(-8.82011e-62 0.153566 0.0343547)
(7.68913e-61 0.16217 0.0362824)
(2.8771e-59 0.171263 0.038327)
(5.17642e-59 0.180875 0.0404958)
(-6.09649e-57 0.19104 0.0427968)
(-5.76567e-56 0.201794 0.045238)
(7.88503e-55 0.213175 0.0478285)
(1.60486e-53 0.225224 0.0505774)
(-3.15814e-53 0.237985 0.0534948)
(-2.69942e-51 0.251506 0.056591)
(-9.81602e-51 0.265837 0.0598767)
(2.9869e-49 0.281032 0.063363)
(2.16447e-48 0.297149 0.0670612)
(-2.3391e-47 0.314249 0.0709825)
(-1.53796e-46 0.332398 0.0751374)
(2.68238e-45 0.351665 0.0795359)
(-1.11766e-44 0.372122 0.0841858)
(-7.0701e-43 0.393845 0.0890928)
(2.48492e-42 0.416911 0.0942582)
(1.58411e-40 0.441399 0.0996774)
(2.46102e-40 0.467384 0.105337)
(-2.37225e-38 0.494937 0.111213)
(-1.46368e-37 0.524119 0.117262)
(2.30434e-36 0.554975 0.123418)
(2.73657e-35 0.587521 0.129583)
(-1.16798e-34 0.621734 0.135614)
(-3.1259e-33 0.657531 0.141311)
(-3.33869e-33 0.694741 0.146395)
(2.3537e-31 0.733076 0.150484)
(1.22103e-30 0.77207 0.153078)
(-1.07165e-29 0.81104 0.153486)
(-1.17077e-28 0.848939 0.150919)
(1.32678e-28 0.884421 0.144153)
(6.39934e-27 0.915211 0.132282)
(1.83726e-26 0.939171 0.113055)
(-1.95215e-25 0.951082 0.0864571)
(-1.42152e-24 0.948802 0.0484962)
(1.4113e-24 0.919932 0.00214142)
(5.70366e-23 0.864572 -0.0569745)
(2.37835e-22 0.756858 -0.120014)
(-1.85135e-21 0.594758 -0.193618)
(5.17073e-20 0.303784 -0.218718)
(-3.01888e-18 -0.357237 -0.383697)
(6.84474e-17 -0.597895 0.0983076)
(6.61101e-16 -0.123535 0.654192)
(9.22578e-99 0.00747641 0.0125199)
(1.14609e-97 0.0116446 0.0117815)
(1.08401e-96 0.0146976 0.0116921)
(9.03935e-96 0.0175795 0.0114815)
(6.14881e-95 0.0204401 0.0114594)
(2.46797e-94 0.0232033 0.0114461)
(-1.36797e-93 0.0259594 0.0115261)
(-4.37478e-92 0.0286964 0.0116471)
(-5.44063e-91 0.0314516 0.0118343)
(-3.80204e-90 0.0342313 0.0120713)
(2.96642e-90 0.0370563 0.0123654)
(5.07433e-88 0.0399378 0.0127114)
(7.41229e-87 0.0428909 0.0131113)
(4.38007e-86 0.0459278 0.0135636)
(-4.06588e-85 0.0490617 0.014069)
(-1.29948e-83 0.052305 0.0146274)
(-1.40825e-82 0.0556702 0.0152395)
(-2.16508e-82 0.0591698 0.0159059)
(1.78239e-80 0.0628165 0.0166279)
(3.2501e-79 0.0666232 0.0174065)
(3.11019e-78 0.0706031 0.0182435)
(8.65439e-78 0.0747695 0.0191406)
(-4.932e-76 0.0791364 0.0201)
(-1.53032e-74 0.0837183 0.0211241)
(-2.01348e-73 0.0885302 0.0222155)
(7.69317e-73 0.0935876 0.0233773)
(7.31248e-71 0.0989071 0.0246128)
(8.6079e-70 0.104506 0.0259256)
(-8.59535e-69 0.110402 0.0273196)
(-3.1669e-67 0.116614 0.0287991)
(-8.24768e-67 0.123163 0.0303688)