/*--------------------------------*- C++ -*----------------------------------*\
| =========                 |                                                 |
| \\      /  F ield         | OpenFOAM: The Open Source CFD Toolbox           |
|  \\    /   O peration     | Version:  4.1                                   |
|   \\  /    A nd           | Web:      www.OpenFOAM.org                      |
|    \\/     M anipulation  |                                                 |
\*---------------------------------------------------------------------------*/
FoamFile
{
    version     2.0;
    format      ascii;
    class       volScalarField;
    location    "4";
    object      p;
}
// * * * * * * * * * * * * * * * * * * * * * * * * * * * * * * * * * * * * * //

dimensions      [0 2 -2 0 0 0 0];

internalField   nonuniform List<scalar> 
225
(
-4.12538e+10
-2.68129e+10
3.58788e+09
4.26147e+09
-1.44169e+10
-1.71232e+10
-6.69463e+09
-3.91362e+08
-2.84464e+09
-9.10944e+09
-1.47683e+10
-1.70381e+10
-1.68237e+10
-1.77669e+10
-2.47591e+10
8.40145e+09
3.87864e+08
-1.65204e+10
-2.97328e+10
-3.37241e+10
-3.58378e+10
-4.76669e+10
-6.54671e+10
-7.88808e+10
-7.88803e+10
-6.92389e+10
-6.11949e+10
-5.9955e+10
-6.61549e+10
-7.6966e+10
-2.65111e+10
-2.42543e+10
-1.57025e+10
-1.20989e+10
-1.1479e+10
-1.11488e+10
-1.14422e+10
-1.03113e+10
-8.30858e+09
-6.46232e+09
-3.59466e+09
4.84477e+08
1.4889e+10
3.18808e+10
3.20309e+10
-1.05312e+09
-3.59281e+09
-1.71354e+09
-3.57334e+07
-1.03072e+09
-3.22724e+09
-5.37956e+09
-7.69806e+09
-1.03402e+10
-8.67212e+09
-1.2913e+09
5.33403e+09
5.28343e+08
-1.1035e+10
-1.40677e+10
6.509e+09
6.62797e+09
6.85728e+09
7.47382e+09
7.94522e+09
6.87011e+09
2.81372e+09
-5.11893e+08
-2.90177e+09
-5.9755e+09
-8.48744e+09
-9.2207e+09
-8.20366e+09
-4.19617e+09
1.34501e+09
1.62608e+10
1.43858e+10
1.13616e+10
8.58773e+09
5.17348e+09
1.91638e+09
-2.03115e+09
-6.8306e+09
-9.31564e+09
-8.69575e+09
-8.3404e+09
-9.68663e+09
-1.27229e+10
-1.6454e+10
-1.60339e+10
1.88149e+10
1.65945e+10
1.60322e+10
1.59455e+10
1.58588e+10
1.27128e+10
7.06302e+09
6.08465e+09
5.848e+09
5.30839e+09
2.59523e+09
-8.0198e+07
-1.31075e+08
9.6679e+08
1.43888e+09
2.97502e+10
2.50624e+10
1.95112e+10
1.66258e+10
1.70461e+10
1.75998e+10
1.70524e+10
1.78014e+10
1.68207e+10
1.50349e+10
1.47999e+10
1.47476e+10
1.31699e+10
1.08928e+10
1.03866e+10
2.41874e+10
2.24152e+10
2.11292e+10
1.84481e+10
1.44541e+10
1.06871e+10
9.13816e+09
1.04407e+10
1.29049e+10
1.34555e+10
1.39586e+10
1.50382e+10
1.68068e+10
1.87786e+10
2.26364e+10
1.54271e+10
1.36527e+10
1.43189e+10
1.61212e+10
1.68833e+10
1.58133e+10
1.43503e+10
1.43452e+10
1.57514e+10
1.62765e+10
1.60851e+10
1.6773e+10
1.90464e+10
2.1139e+10
2.24912e+10
2.76712e+10
2.64495e+10
2.62853e+10
2.50612e+10
2.33558e+10
2.16957e+10
1.94615e+10
1.68552e+10
1.48713e+10
1.40295e+10
1.57131e+10
1.8261e+10
1.7591e+10
1.59282e+10
1.50289e+10
2.56443e+10
2.49468e+10
2.49524e+10
2.43065e+10
2.34533e+10
2.31294e+10
2.29786e+10
2.30631e+10
2.32398e+10
2.26757e+10
2.2133e+10
2.25095e+10
2.30238e+10
2.28008e+10
2.28581e+10
2.94541e+10
3.14218e+10
3.34781e+10
3.41825e+10
3.47933e+10
3.58642e+10
3.67251e+10
3.68145e+10
3.64209e+10
3.62129e+10
3.7033e+10
3.78028e+10
3.80577e+10
3.83359e+10
3.94918e+10
4.12971e+10
4.01051e+10
3.92382e+10
3.81985e+10
3.71711e+10
3.53773e+10
3.26706e+10
2.91226e+10
2.51908e+10
2.28495e+10
2.26103e+10
2.24711e+10
2.1677e+10
2.02967e+10
1.85891e+10
-2.24385e+09
6.3849e+09
1.11383e+09
-2.03609e+09
4.10725e+09
4.80603e+09
3.58968e+09
2.81653e+09
2.48607e+09
1.8031e+09
8.09447e+08
-1.40085e+09
-4.23136e+09
-5.12801e+09
-6.23416e+09
)
;

boundaryField
{
    inletFace
    {
        type            zeroGradient;
    }
    inlet
    {
        type            zeroGradient;
    }
    inletWalls
    {
        type            zeroGradient;
    }
    outletInlet
    {
        type            fixedValue;
        value           uniform 0;
    }
}


// ************************************************************************* //
