/*--------------------------------*- C++ -*----------------------------------*\
| =========                 |                                                 |
| \\      /  F ield         | OpenFOAM: The Open Source CFD Toolbox           |
|  \\    /   O peration     | Version:  4.1                                   |
|   \\  /    A nd           | Web:      www.OpenFOAM.org                      |
|    \\/     M anipulation  |                                                 |
\*---------------------------------------------------------------------------*/
FoamFile
{
    version     2.0;
    format      ascii;
    class       surfaceScalarField;
    location    "4";
    object      phi;
}
// * * * * * * * * * * * * * * * * * * * * * * * * * * * * * * * * * * * * * //

dimensions      [0 3 -1 0 0 0 0];

internalField   nonuniform List<scalar> 
420
(
-1.57374e+06
1.57651e+06
-1.48339e+07
1.32624e+07
-2.1683e+07
6.851e+06
-2.69108e+07
5.22955e+06
-3.55411e+07
8.63192e+06
-4.91404e+07
1.36009e+07
-6.07511e+07
1.16123e+07
-6.57337e+07
4.98411e+06
-6.39156e+07
-1.81656e+06
-5.94399e+07
-4.47394e+06
-5.39384e+07
-5.49984e+06
-4.66822e+07
-7.25418e+06
-3.43842e+07
-1.22958e+07
-1.65729e+07
-1.78085e+07
-1.65716e+07
-3.08675e+06
4.66529e+06
1.87978e+07
-8.61974e+06
2.31533e+07
2.49668e+06
2.34001e+07
4.98354e+06
2.35441e+07
8.48853e+06
3.06385e+07
6.5072e+06
5.77671e+07
-1.55158e+07
7.13175e+07
-8.56587e+06
7.02195e+07
-718134
6.25651e+07
3.18088e+06
5.38351e+07
3.23056e+06
4.46743e+07
1.90702e+06
3.1797e+07
582047
1.10578e+07
2.93132e+06
-5.51374e+06
-2.38529e+07
2.8519e+07
-4.85884e+07
1.61168e+07
-6.44656e+07
1.83748e+07
-6.33241e+07
3.84296e+06
-4.07746e+07
-1.40599e+07
-2.08074e+07
-1.34585e+07
-9.09159e+06
-2.72298e+07
-651997
-1.70045e+07
-481151
-887847
-2.48304e+06
5.18483e+06
-2.39654e+06
3.14658e+06
-925583
439851
533294
-872753
250870
3.2182e+06
-5.26288e+06
1.28525e+07
1.56673e+07
1.02867e+07
1.86838e+07
1.91702e+07
9.49401e+06
2.71198e+07
-4.102e+06
3.48768e+07
-2.18115e+07
3.35161e+07
-1.20927e+07
1.30681e+07
-6.77824e+06
-5.09041e+06
1.15607e+06
-1.67271e+07
1.075e+07
-2.4991e+07
1.34492e+07
-3.26044e+07
1.07605e+07
-3.12976e+07
-867128
-2.10491e+07
-1.11214e+07
-4.57019e+06
-1.32609e+07
-9.83306e+06
1.49845e+07
683857
1.60704e+07
1.75989e+07
1.20764e+07
1.3489e+07
3.3225e+06
4.65264e+06
-3.55983e+06
-1.49286e+07
-164270
-1.54877e+07
-2.27144e+06
-4.67071e+06
-1.80462e+06
689585
6.85261e+06
2.0932e+06
1.63027e+07
3.99959e+06
2.09796e+07
6.08374e+06
2.35528e+07
-3.43856e+06
1.33077e+07
-875222
4.5824e+06
-4.53477e+06
-5.25068e+06
3.70405e+06
-3.01973e+06
2.49891e+07
-3.68547e+06
3.42282e+07
4.25062e+06
4.12209e+07
-2.33921e+06
4.5953e+07
-1.96601e+07
4.1202e+07
-1.07362e+07
3.03848e+07
6.14652e+06
1.75577e+07
1.35168e+07
2.81731e+06
1.68334e+07
-1.33076e+07
2.01241e+07
-2.43643e+07
1.71404e+07
-2.78299e+07
25690.8
-2.04432e+07
-8.26302e+06
-1.7021e+07
-7.9581e+06
-2.22717e+07
-1.65079e+07
1.3488e+07
-2.0315e+07
121455
-2.40104e+07
7.94575e+06
-3.79563e+07
1.16066e+07
-6.5839e+07
8.22242e+06
-8.5236e+07
8.66057e+06
-8.82435e+07
9.15367e+06
-8.26838e+07
7.95672e+06
-7.19099e+07
6.05914e+06
-5.35678e+07
1.78182e+06
-2.8913e+07
-7.51518e+06
-7.28187e+06
-2.16043e+07
7.8267e+06
-2.33711e+07
3.28488e+06
-3.41609e+06
-1.89868e+07
-2.72567e+06
1.62134e+07
-1.29706e+07
1.03661e+07
-1.33729e+07
8.3478e+06
-1.33245e+07
1.15578e+07
-1.12772e+07
6.17458e+06
-3.79828e+06
1.18119e+06
7.63082e+06
-2.27611e+06
1.87559e+07
-3.16887e+06
2.98902e+07
-5.07596e+06
4.15499e+07
-9.87898e+06
4.75335e+07
-1.34993e+07
3.59647e+07
-1.00381e+07
1.25643e+07
27692.7
7.21574e+06
1.9314e+06
-1.17711e+07
1.58711e+07
341852
1.65859e+07
9.65073e+06
1.5293e+07
9.64026e+06
1.65476e+07
1.03029e+07
1.64516e+07
6.27039e+06
1.82773e+07
-644829
2.00495e+07
-4.04833e+06
2.03695e+07
-3.48919e+06
1.82974e+07
-3.0038e+06
9.52192e+06
-1.10321e+06
-2.78819e+06
-1.18934e+06
-1.46717e+07
1.84691e+06
-1.57186e+07
1.07522e+06
-1.01497e+07
-3.63697e+06
-2.19208e+07
-3.30493e+06
3.64544e+06
-4.35407e+06
1.06988e+07
-1.01015e+07
1.53868e+07
-1.80008e+07
1.82015e+07
-2.9694e+07
1.79628e+07
-4.5423e+07
1.50834e+07
-6.27801e+07
1.3308e+07
-7.51957e+07
8.92571e+06
-8.15961e+07
3.39581e+06
-8.52048e+07
2.50481e+06
-7.87713e+07
-7.62317e+06
-6.18962e+07
-1.50296e+07
-4.36513e+07
-1.71709e+07
-2.65715e+07
-2.07188e+07
-4.84923e+07
-4.7414e+06
8.38512e+06
-4.87465e+06
1.08307e+07
-1.86965e+06
1.23806e+07
4.3225e+06
1.20081e+07
9.81634e+06
1.24678e+07
1.05394e+07
1.43594e+07
7.49529e+06
1.63506e+07
3.21451e+06
1.32044e+07
-970289
7.57832e+06
-3.62766e+06
5.15969e+06
4.17671e+06
-1.54303e+07
1.4438e+07
-2.5292e+07
2.30613e+07
-2.57959e+07
2.7388e+07
-2.50491e+07
-2.11044e+07
5.02788e+06
3.35612e+06
7.88397e+06
7.97364e+06
1.29464e+07
7.31741e+06
1.87806e+07
6.17325e+06
2.40024e+07
7.24548e+06
2.85687e+07
9.7926e+06
3.55636e+07
9.35533e+06
3.7053e+07
1.17146e+07
3.4718e+07
9.9125e+06
3.39948e+07
5.88142e+06
3.18177e+07
-1.32543e+07
2.72572e+07
-2.07337e+07
2.43417e+07
-2.28822e+07
1.9791e+07
-2.05011e+07
-1.31344e+06
-4.73522e+06
8.08911e+06
-1.11096e+07
1.43466e+07
-1.55101e+07
1.17167e+07
-1.93658e+07
1.00278e+07
-2.39316e+07
1.181e+07
-3.1122e+07
1.69817e+07
-3.62273e+07
1.44599e+07
-3.33162e+07
8.80308e+06
-2.40914e+07
687320
-1.15453e+07
-6.66497e+06
-8.3761e+06
-1.64239e+07
-6.27251e+06
-2.28375e+07
-3.13569e+06
-2.60194e+07
1.17522e+06
-2.48128e+07
-138245
-8.00468e+06
1.6093e+07
-1.026e+07
1.66016e+07
-1.07764e+07
1.22325e+07
-1.5226e+07
1.44772e+07
-2.01218e+07
1.67055e+07
-2.2897e+07
1.97567e+07
-2.44411e+07
1.60039e+07
-1.89086e+07
3.27054e+06
-1.11439e+07
-7.07756e+06
-3.22672e+06
-1.45825e+07
151628
-1.98024e+07
2.40746e+06
-2.50938e+07
5.2173e+06
-2.88296e+07
6.723e+06
-2.63196e+07
6.58476e+06
-2.83584e+07
-4.31456e+07
-5.77897e+07
-6.44108e+07
-6.39056e+07
-5.65115e+07
-4.40557e+07
-3.22658e+07
-2.70956e+07
-2.58903e+07
-2.54826e+07
-2.4933e+07
-2.29589e+07
-1.95678e+07
)
;

boundaryField
{
    inletFace
    {
        type            calculated;
        value           nonuniform List<scalar> 
450
(
-5.61449e-06
-2.12351e-05
-2.18848e-05
-2.54648e-05
-2.54564e-05
-3.41794e-05
-4.67445e-05
-4.87981e-05
-4.59366e-05
-4.51009e-05
-4.66744e-05
-4.65768e-05
-4.45131e-05
-3.85523e-05
-2.13262e-05
-2.72066e-05
-3.84821e-05
-3.8742e-05
-4.0722e-05
-3.44754e-05
-2.87785e-05
-2.86729e-05
-3.88878e-05
-4.11512e-05
-4.10758e-05
-4.50217e-05
-4.65279e-05
-4.76321e-05
-4.52023e-05
-4.03141e-05
-3.95808e-05
-3.68448e-05
-3.63665e-05
-3.52442e-05
-3.5025e-05
-3.78712e-05
-4.14278e-05
-3.77166e-05
-3.82588e-05
-3.85395e-05
-3.79873e-05
-3.66299e-05
-3.68482e-05
-3.36097e-05
-2.13061e-05
-2.56493e-05
-3.81258e-05
-4.09452e-05
-4.18859e-05
-4.12317e-05
-3.99822e-05
-4.16889e-05
-3.97198e-05
-4.09901e-05
-4.14778e-05
-3.97817e-05
-3.76883e-05
-3.81585e-05
-3.43207e-05
-1.75092e-05
-2.68475e-05
-3.95213e-05
-4.04094e-05
-4.08889e-05
-4.05171e-05
-4.04035e-05
-4.0571e-05
-4.05766e-05
-4.04461e-05
-4.02774e-05
-4.01587e-05
-3.89964e-05
-5.19937e-05
-5.56495e-05
-3.43639e-05
-3.51616e-05
-4.24505e-05
-4.1659e-05
-4.10026e-05
-4.10989e-05
-4.31169e-05
-4.3492e-05
-4.36632e-05
-4.37724e-05
-4.44887e-05
-4.59092e-05
-4.9243e-05
-5.5232e-05
-5.38411e-05
-3.54847e-05
-3.91253e-05
-4.43542e-05
-4.23253e-05
-4.25568e-05
-4.33572e-05
-4.37552e-05
-4.37715e-05
-4.34837e-05
-4.2995e-05
-4.30159e-05
-4.67165e-05
-5.15951e-05
-4.77135e-05
-4.91699e-05
-4.53859e-05
-2.57017e-05
-3.92433e-05
-4.46777e-05
-4.49813e-05
-4.54964e-05
-4.57212e-05
-4.58116e-05
-4.59235e-05
-4.60753e-05
-4.61104e-05
-4.57804e-05
-4.58128e-05
-4.6016e-05
-4.96765e-05
-4.63724e-05
-1.59873e-05
-4.29098e-05
-4.34203e-05
-4.41134e-05
-4.46114e-05
-4.51033e-05
-4.56442e-05
-4.62824e-05
-4.67759e-05
-4.70847e-05
-4.73357e-05
-4.81962e-05
-4.93021e-05
-5.29422e-05
-4.97544e-05
-4.05937e-06
-2.69792e-05
-3.4468e-05
-3.89136e-05
-4.13786e-05
-4.30789e-05
-4.44538e-05
-4.55588e-05
-4.58351e-05
-4.60595e-05
-4.82696e-05
-4.96745e-05
-4.97222e-05
-5.64707e-05
-5.72507e-05
-3.86961e-05
-4.54387e-05
-4.39646e-05
-4.33496e-05
-4.39748e-05
-4.48692e-05
-4.50294e-05
-4.44897e-05
-4.38555e-05
-4.5601e-05
-5.41527e-05
-6.42314e-05
-6.7662e-05
-6.66578e-05
-3.58415e-05
-2.33546e-05
-4.67591e-05
-4.7411e-05
-4.8204e-05
-4.8134e-05
-4.71041e-05
-4.61729e-05
-4.56697e-05
-4.67166e-05
-4.80687e-05
-6.1405e-05
-6.84978e-05
-7.03811e-05
-6.62762e-05
-4.38639e-05
-4.71727e-05
-5.27753e-05
-5.30539e-05
-5.48961e-05
-5.56782e-05
-5.44657e-05
-5.18895e-05
-5.45017e-05
-5.73959e-05
-6.05874e-05
-6.57312e-05
-6.67992e-05
-6.85826e-05
-6.45497e-05
-6.08734e-05
-4.65715e-05
-5.12267e-05
-5.47019e-05
-5.89054e-05
-6.02112e-05
-6.1278e-05
-5.96978e-05
-5.90142e-05
-6.02598e-05
-6.16448e-05
-6.24767e-05
-6.35562e-05
-6.55554e-05
-6.29825e-05
-5.91468e-05
-4.71094e-05
-5.36041e-05
-5.61144e-05
-5.72772e-05
-5.75372e-05
-5.74672e-05
-5.75951e-05
-5.78231e-05
-5.84785e-05
-5.9253e-05
-6.09025e-05
-6.34903e-05
-6.61724e-05
-6.22952e-05
-2.99032e-05
5.61449e-06
2.12351e-05
2.18848e-05
2.54648e-05
2.54564e-05
3.41794e-05
4.67445e-05
4.87981e-05
4.59366e-05
4.51009e-05
4.66744e-05
4.65768e-05
4.45131e-05
3.85523e-05
2.13262e-05
2.72066e-05
3.84821e-05
3.8742e-05
4.0722e-05
3.44754e-05
2.87785e-05
2.86729e-05
3.88878e-05
4.11512e-05
4.10758e-05
4.50217e-05
4.65279e-05
4.76321e-05
4.52023e-05
4.03141e-05
3.95808e-05
3.68448e-05
3.63665e-05
3.52442e-05
3.5025e-05
3.78712e-05
4.14278e-05
3.77166e-05
3.82588e-05
3.85395e-05
3.79873e-05
3.66299e-05
3.68482e-05
3.36097e-05
2.13061e-05
2.56493e-05
3.81258e-05
4.09452e-05
4.18859e-05
4.12317e-05
3.99822e-05
4.16889e-05
3.97198e-05
4.09901e-05
4.14778e-05
3.97817e-05
3.76883e-05
3.81585e-05
3.43207e-05
1.75092e-05
2.68475e-05
3.95213e-05
4.04094e-05
4.08889e-05
4.05171e-05
4.04035e-05
4.0571e-05
4.05766e-05
4.04461e-05
4.02774e-05
4.01587e-05
3.89964e-05
5.19937e-05
5.56495e-05
3.43639e-05
3.51616e-05
4.24505e-05
4.1659e-05
4.10026e-05
4.10989e-05
4.31169e-05
4.3492e-05
4.36632e-05
4.37724e-05
4.44887e-05
4.59092e-05
4.9243e-05
5.5232e-05
5.38411e-05
3.54847e-05
3.91253e-05
4.43542e-05
4.23253e-05
4.25568e-05
4.33572e-05
4.37552e-05
4.37715e-05
4.34837e-05
4.2995e-05
4.30159e-05
4.67165e-05
5.15951e-05
4.77135e-05
4.91699e-05
4.53859e-05
2.57017e-05
3.92433e-05
4.46777e-05
4.49813e-05
4.54964e-05
4.57212e-05
4.58116e-05
4.59235e-05
4.60753e-05
4.61104e-05
4.57804e-05
4.58128e-05
4.6016e-05
4.96765e-05
4.63724e-05
1.59873e-05
4.29098e-05
4.34203e-05
4.41134e-05
4.46114e-05
4.51033e-05
4.56442e-05
4.62824e-05
4.67759e-05
4.70847e-05
4.73357e-05
4.81962e-05
4.93021e-05
5.29422e-05
4.97544e-05
4.05937e-06
2.69792e-05
3.4468e-05
3.89136e-05
4.13786e-05
4.30789e-05
4.44538e-05
4.55588e-05
4.58351e-05
4.60595e-05
4.82696e-05
4.96745e-05
4.97222e-05
5.64707e-05
5.72507e-05
3.86961e-05
4.54387e-05
4.39646e-05
4.33496e-05
4.39748e-05
4.48692e-05
4.50294e-05
4.44897e-05
4.38555e-05
4.5601e-05
5.41527e-05
6.42314e-05
6.7662e-05
6.66578e-05
3.58415e-05
2.33546e-05
4.67591e-05
4.7411e-05
4.8204e-05
4.8134e-05
4.71041e-05
4.61729e-05
4.56697e-05
4.67166e-05
4.80687e-05
6.1405e-05
6.84978e-05
7.03811e-05
6.62762e-05
4.38639e-05
4.71727e-05
5.27753e-05
5.30539e-05
5.48961e-05
5.56782e-05
5.44657e-05
5.18895e-05
5.45017e-05
5.73959e-05
6.05874e-05
6.57312e-05
6.67992e-05
6.85826e-05
6.45497e-05
6.08734e-05
4.65715e-05
5.12267e-05
5.47019e-05
5.89054e-05
6.02112e-05
6.1278e-05
5.96978e-05
5.90142e-05
6.02598e-05
6.16448e-05
6.24767e-05
6.35562e-05
6.55554e-05
6.29825e-05
5.91468e-05
4.71094e-05
5.36041e-05
5.61144e-05
5.72772e-05
5.75372e-05
5.74672e-05
5.75951e-05
5.78231e-05
5.84785e-05
5.9253e-05
6.09025e-05
6.34903e-05
6.61724e-05
6.22952e-05
2.99032e-05
)
;
    }
    inlet
    {
        type            calculated;
        value           nonuniform List<scalar> 
15
(
-1299.9
-1300.2
-1299.9
-1299.9
-1300.2
-1299.9
-1299.9
-1300.2
-1299.9
-1299.9
-1300.2
-1299.9
-1299.9
-1300.2
-1299.9
)
;
    }
    inletWalls
    {
        type            calculated;
        value           uniform 0;
    }
    outletInlet
    {
        type            calculated;
        value           nonuniform List<scalar> 
15
(
-1.2983e+07
-2.97107e+07
-3.08037e+07
-2.56434e+07
-2.02099e+07
-1.57874e+07
-1.22471e+07
-8.51819e+06
3.54956e+06
1.23638e+07
1.6202e+07
2.11e+07
2.68789e+07
3.13911e+07
4.44546e+07
)
;
    }
}


// ************************************************************************* //
