/*--------------------------------*- C++ -*----------------------------------*\
| =========                 |                                                 |
| \\      /  F ield         | OpenFOAM: The Open Source CFD Toolbox           |
|  \\    /   O peration     | Version:  4.1                                   |
|   \\  /    A nd           | Web:      www.OpenFOAM.org                      |
|    \\/     M anipulation  |                                                 |
\*---------------------------------------------------------------------------*/
FoamFile
{
    version     2.0;
    format      ascii;
    class       volScalarField;
    location    "21";
    object      p;
}
// * * * * * * * * * * * * * * * * * * * * * * * * * * * * * * * * * * * * * //

dimensions      [0 2 -2 0 0 0 0];

internalField   nonuniform List<scalar> 
6785
(
5662.24
5597.66
5546.21
5496.4
5450.17
5406.78
5366.05
5327.75
5291.64
5257.22
5224.27
5194.05
5165.73
5131.59
5099.71
5121.05
5102.92
5105.31
5100.49
5096.63
5092.72
5089.24
5086.42
5084.49
5083.51
5083.44
5084.81
5088.45
5091.29
5090.78
5059.75
5053.41
5062.88
5062.04
5065.07
5067.2
5069.46
5071.58
5073.54
5075.32
5076.83
5077.93
5078.64
5079.64
5081.22
5108
5105.55
5110.52
5106.9
5107.47
5106.03
5104.93
5103.63
5102.32
5101.04
5099.84
5098.81
5098.26
5098.82
5100.8
5117
5115.29
5118.78
5115.66
5117.44
5116.96
5117.23
5117.53
5117.95
5118.54
5119.31
5120.27
5121.48
5122.59
5123.93
5122.54
5121.99
5125.1
5123.32
5125.65
5125.83
5126.82
5127.7
5128.59
5129.49
5130.41
5131.33
5132.3
5133
5133.68
5133.22
5133.45
5135.84
5134.41
5136.31
5136.08
5136.8
5137.17
5137.57
5137.91
5138.26
5138.61
5139.02
5139.35
5139.69
5140.62
5140.86
5142.48
5141.19
5142.66
5142.17
5142.76
5142.82
5142.98
5142.96
5142.92
5142.92
5142.99
5143.17
5143.24
5142.86
5142.49
5143.59
5142.24
5143.28
5142.53
5142.86
5142.53
5142.32
5141.81
5141.3
5140.86
5140.51
5140.27
5139.77
5135.94
5135.04
5135.54
5134.06
5134.5
5133.39
5133.28
5132.55
5132.09
5131.39
5130.75
5130.16
5129.53
5128.78
5127.82
5124.85
5123.47
5123.19
5121.46
5121.17
5119.57
5119.39
5118.78
5118.32
5117.64
5117.12
5116.66
5115.99
5115.13
5114.44
5102.42
5102.53
5102.97
5102.28
5102.76
5102.24
5102.78
5103.17
5103.65
5103.95
5104.23
5104.51
5104.72
5104.99
5105.28
5119.31
5118.26
5117.69
5116.74
5116.66
5115.96
5115.95
5115.6
5115.24
5114.55
5113.85
5113.16
5112.68
5112.35
5111.88
5029.67
5032.25
5041.05
5047.95
5055.68
5061.88
5067.65
5071.74
5074.66
5076.76
5078.08
5079.36
5080.6
5082.21
5084.82
5159.13
5212.81
5241.81
5263.88
5277.79
5284.18
5284.31
5280.61
5273.29
5259.68
5242.86
5220.26
5195.41
5180.41
5180.17
4839.66
4839.79
4840.64
4839.49
4841.87
4829.46
4826.72
4825.7
4830.03
4810.88
4807.94
4817.6
4798.65
4784.86
4785.97
4797.35
4769.28
4760.51
4782.33
4758.42
4732.65
4735.47
4759.21
4735.24
4705.13
4710.96
4734.28
4696.36
4681.54
4719.32
4690.92
4655.22
4663.31
4693.45
4656.61
4639.64
4684.81
4663.79
4624.78
4631.69
4670.23
4655.25
4617.62
4626.18
4659.18
4633.67
4618
4662.55
4654.03
4621.84
4626.34
4661.85
4658.56
4631.08
4636.24
4664.76
4652.04
4643.25
4675.71
4674.42
4660.41
4662.19
4683.38
4681.39
4680.81
4700.25
4709.68
4712.68
4711.76
4724.45
4740.47
4749.97
4748.62
4758.24
4779.36
4788.06
4793.25
4823.9
4826.01
4831.94
4823.13
4808.1
4795.84
4683.85
4776.98
4757.59
4743.82
4736.86
4726.63
4715.89
4706.11
4698.76
4602.46
4694.21
4667.73
4663.97
4669.4
4667.47
4665
4676.49
4700.71
4692.81
4727.87
4686.56
4721.65
4750.69
4763.13
4783.01
4804.23
4820.32
4834.79
4832.76
4825.96
4774.39
4803.05
4836.43
4852.13
4869.23
4893.39
4911.04
4937.72
4868.83
4799.09
4829
4868.72
4885.29
4899.83
4924.71
4938.19
4976.78
4859.24
4769.28
4791.57
4825.98
4834.46
4842.27
4864.89
4870.36
4932.97
4740.64
4611.03
4627.97
4660.57
4660.79
4656.11
4647.75
4668.02
4659.97
4726.21
4473.88
4270.13
4271.5
4303.44
4290.03
4266.65
4245.6
4172.58
4245.03
3955.07
3685.85
3405.12
3914.21
4909.58
3839.78
3620.35
3759.49
3681.08
4798.63
3896.83
3052.62
4710
3705.44
3078.66
3353
3099.85
4804.73
3438.86
2665.1
3018.49
2729.05
4636.68
3339.7
1813.87
4363.29
3028.7
1990.53
2407.77
2066.82
4411.43
2678.82
1628.48
2085.15
1781.28
4105.2
2594.93
868.532
3691.7
2271.22
1157.85
1576.32
1274.86
3597.79
1907.82
851.166
1267.7
994.581
3077.4
1731.69
176.793
2561.4
1383.76
380.793
725.456
428.929
2304.01
965.731
42.1317
392.64
110.492
1794.49
749.833
-591.874
1422.64
486.173
-440.683
-56.2287
-389.211
1385.7
223.756
-722.644
-271.896
-615.284
1211.48
201.005
-1336.88
1012.55
19.3554
-1111.81
-669.858
-943.019
8.24322
-54.1609
-53.1488
-68.3771
-81.9306
-86.1338
-84.7362
-81.3657
-75.7871
-66.7094
-53.3574
-38.0589
-28.2645
-17.5569
-5.43332
18.0592
36.6348
41.8547
53.9929
62.8105
73.9319
79.095
81.0734
84.106
83.1622
77.4124
65.8274
50.86
26.4296
-9.25502
2.57748
1.07626
31.3845
36.24
27.1673
45.4489
72.588
84.5569
59.1782
25.8918
2.51476
-3.81075
-2.55373
5.70463
0.540641
15.3546
-13.9354
-8.76703
-13.4507
-15.9195
-18.4145
11.1192
12.5997
-7.5079
-3.93757
-18.73
1.38869
-44.5844
388.593
59.9767
-32.2533
-33.8077
-24.1993
-17.3844
-10.5918
-3.77805
2.8627
9.14788
14.3827
19.1078
21.236
24.0726
29.3538
29.1962
31.3439
38.6256
65.7373
73.5231
-22.1959
22.6031
-89.9589
-97.2415
-126.675
-151.363
-156.158
-150.501
-139.486
-122.407
-97.9377
-67.7573
-36.8836
-10.8314
17.6737
48.9371
88.7263
117.71
136.266
159.699
177.147
194.481
204.255
207.17
207.573
202.244
189.022
159.672
123.678
65.6805
-2.20227
18.1442
-17.2991
71.8531
96.4761
72.6413
129.195
158.807
170.654
130.578
70.5452
22.5517
6.37594
5.13345
15.7218
11.0384
55.1189
-5.59632
-17.7649
-44.5364
-55.2749
-64.6057
-3.59168
19.5022
1.14119
11.5023
-6.0755
-1.71433
-97.2764
584.56
42.2486
-85.5087
-75.8085
-45.2673
-23.3651
-4.44486
11.6595
25.3771
37.3263
46.9659
55.8919
60.8535
64.7119
68.7015
70.2895
106.266
118.932
78.1083
68.357
8.59812
29.255
-85.964
-95.0613
-130.51
-157.226
-159.088
-150.23
-134.816
-111.629
-80.4156
-44.6058
-8.44391
24.9707
61.2563
98.6337
139.813
169.633
194.373
220.228
239.67
256.696
266.8
269.581
267.888
259.311
243.09
208.714
166.088
104.341
29.0256
47.1807
-2.39991
115.305
143.586
122.609
205.491
211.943
200.41
157.622
96.1977
43.5715
22.2294
17.2592
22.7231
20.618
77.4412
-6.91555
-31.5635
-74.4324
-93.3676
-110.607
-35.0558
20.8261
23.1105
-1.54439
-34.9408
-15.4733
-90.082
357.391
-12.9498
-54.0294
-50.9701
-20.2435
2.44021
23.2311
41.3722
56.9315
70.3685
81.0365
90.8395
98.0651
105.211
115.1
114.22
153.198
179.799
161.747
165.117
47.4526
31.7959
-84.1543
-99.4445
-141.349
-169.902
-169.629
-158.379
-139.279
-110.976
-74.2176
-33.3175
8.60168
48.367
90.9369
132.759
177.051
210.03
239.223
267.584
289.444
307.677
318.592
322.063
320.354
309.923
291.756
255.413
208.968
146.345
63.9352
78.3825
13.6136
150.698
184.274
178.78
254.961
270.037
226.88
181.041
118.701
62.9616
36.5303
28.6558
29.9243
26.6307
92.9335
-0.280474
-42.4778
-105.753
-133.845
-156.701
-65.3974
18.0715
49.2169
-5.47848
-46.6186
-31.304
-131.477
176.688
-55.2003
-28.7115
-32.2757
-1.39964
22.1152
45.472
66.6652
85.1083
100.994
113.531
125.603
134.754
143.286
155.16
154.746
202.368
233.345
208.303
221.474
67.6577
29.0736
-92.5076
-118.384
-166.659
-197.64
-196.619
-183.425
-160.195
-125.908
-82.123
-33.95
15.8909
63.7062
114.4
163.286
214.208
252.867
287.926
320.883
346.911
368.228
381.2
385.958
384.647
372.615
351.905
311.624
259.078
189.881
97.0927
110.612
38.9581
183.455
219.689
228.806
259.666
333.645
261.266
212.942
144.841
82.1139
49.2161
38.7627
37.5573
32.1913
97.6595
5.86673
-53.1689
-136.204
-171.83
-202.774
-92.334
12.0449
80.2547
-10.576
-61.9123
-49.5678
-150.872
67.6892
-88.7294
-24.2102
-27.0113
9.28492
36.8995
64.8103
90.1874
112.147
130.88
145.52
159.254
169.816
179.962
194.097
193.069
243.128
281.28
263.791
285.457
121.202
22.0574
-106.577
-140.958
-192.467
-224.419
-222.489
-206.847
-178.808
-138.005
-86.7452
-30.9955
26.7632
82.7988
141.806
198.142
255.468
299.36
340.474
377.97
408.009
432.038
446.872
452.593
451.122
437.188
413.641
368.753
309.686
233.848
131.655
144.642
69.0994
213.936
255.69
278.771
264.88
397.025
294.106
245.07
171.375
101.264
61.6433
48.2017
44.8897
39.0502
90.9926
10.9962
-63.1214
-164.915
-206.723
-245.898
-116.33
3.09793
115.36
-8.90887
-71.418
-70.1275
-168.275
-36.0563
-118.164
-22.7768
-21.5228
20.8835
52.9132
85.2903
114.556
139.629
160.753
177.068
192.171
203.92
215.07
230.365
229.534
280.367
321.898
309.877
335.961
141.38
10.7151
-124.214
-164.153
-216.443
-248.676
-245.497
-226.714
-193.387
-146.001
-87.4541
-24.4698
40.7757
104.601
171.349
234.518
297.465
345.997
392.669
434.112
467.666
493.895
510.239
516.715
514.975
499.199
473.065
424.299
359.695
279.317
169.487
180.843
104.205
243.898
293.174
324.076
305.074
453.916
324.011
274.555
196.927
120.497
74.5128
57.926
52.0818
47.5985
72.9841
13.5731
-71.8633
-190.489
-236.268
-282.565
-135.478
-9.55595
150.152
-1.69229
-78.0935
-91.5456
-183.907
-127.265
-143.647
-23.709
-16.4016
32.1692
68.8584
105.744
138.822
166.842
190.141
207.969
224.199
236.84
248.855
264.858
264.089
313.564
358.545
355.991
397.985
172.119
-4.7741
-145.272
-189.844
-242.109
-274.961
-270.233
-247.692
-208.785
-154.836
-89.0589
-18.8308
53.9217
125.434
199.724
269.587
338.215
391.543
443.604
488.96
526.061
554.604
572.561
579.944
578.215
560.924
532.525
480.489
410.941
326.798
210.164
219.235
143.317
274.407
335.368
365.513
357.18
486.559
354.037
303.927
222.773
140.357
88.1893
68.7377
59.3616
58.5669
50.0223
14.6907
-78.8552
-211.73
-259.105
-310.609
-147.922
-23.7902
178.68
9.14025
-81.9503
-113.867
-195.205
-191.63
-165.545
-30.1764
-14.1186
41.6025
83.8246
125.6
162.618
193.575
218.969
238.236
255.413
268.761
281.385
297.578
297.063
343.688
390.956
399.608
449.33
260.006
-24.3127
-171.098
-218.762
-271.117
-304.48
-297.469
-270.443
-225.641
-165.034
-91.8724
-14.1926
66.2159
145.475
227.326
303.987
378.509
436.861
494.326
543.725
584.504
615.528
635.255
643.684
642.15
623.577
593.093
538.018
463.66
375.779
252.828
259.671
186.005
306.052
380.386
405.211
400.682
475.228
385.104
334.595
249.554
161.101
102.783
80.7636
66.7353
72.6935
33.1965
16.4597
-83.7058
-227.526
-274.586
-328.474
-153.714
-35.3535
194.429
18.0778
-85.851
-136.694
-202.877
-230.912
-184.629
-41.4
-14.1434
49.6158
98.1473
145.085
186.096
219.931
247.295
267.884
285.798
299.691
312.796
328.82
328.646
371.59
421.145
442.955
497.717
296.94
-47.754
-202.242
-250.518
-303.425
-336.438
-326.185
-293.942
-242.876
-175.399
-94.6234
-9.31755
78.8079
165.824
255.196
338.655
419.076
482.497
545.304
598.742
643.178
676.664
698.185
707.677
706.394
686.667
654.227
596.307
517.308
425.848
297.075
301.709
231.686
338.92
422.043
443.46
436.18
436.359
417.265
366.322
277.019
182.689
118.364
93.7705
74.3822
89.1706
29.2169
20.6096
-85.9402
-236.992
-282.657
-334.857
-154.194
-41.1346
191.656
18.8964
-92.6178
-160.234
-212.161
-251.504
-202.023
-56.2692
-15.964
56.4446
111.915
164.214
209.247
245.898
275.112
296.909
315.406
329.738
343.184
358.757
359.08
397.988
449.931
486.954
556.996
358.695
-75.1115
-237.674
-285.414
-338.827
-370.543
-356.248
-318.167
-260.418
-185.763
-97.1291
-4.08092
91.7741
186.525
283.336
373.524
459.784
528.289
596.331
653.751
701.778
737.661
760.975
771.55
770.584
749.842
715.602
655.114
571.755
476.938
342.906
344.664
279.432
372.815
458.456
479.261
467.99
413.894
449.488
398.519
305.002
205.151
135.126
107.7
82.8573
106.232
34.8445
27.6531
-85.0163
-239.403
-283.481
-329.199
-150.38
-40.3061
171.901
8.5301
-105.58
-185.179
-228.467
-260.881
-219.185
-74.445
-19.5695
62.0372
125.048
182.912
232.016
271.442
302.416
325.321
344.258
358.951
372.641
387.576
388.616
423.707
478.525
532.283
613.061
474.31
-106.363
-274.991
-324.343
-377.551
-407.183
-388.172
-343.617
-278.658
-196.41
-99.6584
1.2277
104.832
207.319
311.506
408.364
500.442
574.088
647.277
708.647
760.225
798.471
823.61
835.327
834.786
813.2
777.333
714.568
627.14
528.998
390.393
387.203
327.471
407.333
493.139
512.11
499.502
421.841
481.117
430.807
333.587
228.628
153.305
122.745
92.7356
122.353
46.0778
37.5551
-80.3484
-234.205
-277.044
-311.838
-142.939
-33.8322
146.366
-11.633
-127.552
-213.114
-256.528
-267.705
-237.661
-95.6399
-24.8323
66.4364
137.544
201.16
254.395
296.563
329.222
353.137
372.398
387.41
401.246
415.426
417.459
449.375
507.776
579.532
672.169
539.36
-141.127
-312.162
-368.38
-420.073
-446.761
-422.296
-370.535
-297.738
-207.395
-102.246
6.57495
117.973
228.223
339.744
443.225
541.112
619.966
698.226
763.525
818.618
859.187
886.195
899.122
899.108
876.859
839.541
774.771
683.55
581.95
439.346
427.816
374.111
442.142
527.514
543.103
531.098
446.986
513.044
463.045
362.867
253.263
173.086
139.197
104.523
137.157
60.9962
50.1608
-71.4359
-221.12
-263.109
-283.832
-132.33
-22.9043
122.452
-38.9422
-159.613
-245.91
-298.958
-280.365
-258.933
-119.551
-31.5267
69.7585
149.443
218.977
276.401
321.278
355.549
380.383
399.864
415.167
429.061
442.435
445.782
475.529
538.38
628.984
732.983
680.221
-178.608
-351.87
-417.802
-466.569
-489.402
-458.658
-398.96
-317.66
-218.669
-104.823
12.0436
131.304
249.361
368.172
478.223
581.9
666.021
749.27
818.465
877.02
919.843
948.759
962.959
963.558
940.824
902.245
835.726
741.016
635.808
489.35
466.559
418.263
477.212
561.703
573.134
561.747
479.892
545.231
495.115
392.868
279.168
194.596
157.388
118.688
151.11
78.2525
65.3057
-58.0216
-200.336
-241.557
-247.006
-118.986
-8.51327
102.092
-69.759
-200.851
-284.994
-356.204
-305.953
-284.29
-145.932
-39.4545
72.1835
160.841
236.427
298.075
345.629
381.42
407.087
426.697
442.276
456.131
468.696
473.688
502.508
570.794
680.878
791.075
736.52
-217.738
-396.235
-471.082
-516.939
-535.042
-497.276
-428.981
-338.48
-230.249
-107.384
17.6656
144.878
270.787
396.838
513.398
622.848
712.283
800.434
873.486
935.432
980.447
1011.28
1026.82
1028.11
1005.07
965.433
897.428
799.573
690.701
540.2
505.16
459.547
512.701
595.708
602.125
589.559
515.423
577.101
526.912
423.592
306.442
217.931
177.575
135.528
164.982
96.9448
82.8324
-40.0089
-172.429
-212.596
-203.768
-103.476
8.2114
88.5834
-98.9425
-248.11
-330.136
-429.397
-350.382
-314.692
-174.453
-48.3927
73.9853
171.934
253.651
319.506
369.685
406.867
433.279
452.932
468.77
482.482
494.282
501.227
530.489
605.2
735.877
863.246
828.356
-256.97
-439.168
-527.663
-571.61
-583.772
-538.349
-460.739
-360.272
-242.184
-109.95
23.4503
158.717
292.523
425.756
548.765
663.974
758.768
851.728
928.593
993.85
1041.01
1073.75
1090.69
1092.76
1069.59
1029.1
959.881
859.252
746.803
592.112
545.353
498.862
548.871
629.228
629.68
612.51
550.037
608.16
558.385
455.042
335.171
243.176
199.807
155.133
179.534
116.71
102.513
-17.4656
-138.023
-176.735
-156.638
-86.4437
25.9728
82.4977
-121.154
-295.754
-378.916
-517.86
-417.622
-350.648
-204.558
-57.9767
75.5263
183.012
270.853
340.827
393.519
431.923
458.986
478.601
494.672
508.122
519.241
528.394
559.498
641.549
793.155
928.559
984.072
-294.523
-477.545
-591.467
-631.767
-636.128
-582.14
-494.298
-383.075
-254.514
-112.526
29.4186
172.85
314.596
454.956
584.358
705.315
805.5
903.169
983.798
1052.28
1101.54
1136.16
1154.55
1157.48
1134.35
1093.2
1023.08
920.067
804.27
645.553
588.123
538.318
585.969
663.066
655.929
631.172
581.724
638.183
589.533
487.214
365.418
270.417
224.015
177.501
195.589
137.402
124.027
9.27239
-97.8269
-135.03
-107.937
-68.3519
43.538
81.3366
-132.046
-337.558
-428.121
-618.122
-508.94
-392.032
-235.365
-67.573
77.3044
194.432
288.272
362.2
417.192
456.63
484.237
503.724
519.986
533.043
543.611
555.147
589.469
679.757
852.509
991.949
1052.23
-329.074
-517.751
-664.905
-698.216
-692.509
-628.638
-529.643
-406.945
-267.268
-115.107
35.5889
187.307
337.046
484.477
620.218
746.911
852.503
954.776
1039.11
1110.72
1162.03
1198.49
1218.39
1222.24
1199.29
1157.71
1086.97
982.013
863.219
700.932
633.84
579.939
624.281
697.716
682.082
649.777
610.047
667.259
620.389
520.097
397.229
299.737
250.204
202.579
213.897
158.936
146.929
39.5309
-52.972
-89.0495
-59.8017
-49.413
60.0411
82.6081
-130.625
-369.341
-475.691
-726.983
-622.888
-437.8
-265.501
-76.1692
80.0329
206.629
306.186
383.791
440.764
481.037
509.058
528.315
544.703
557.228
567.427
581.429
620.279
719.577
914.204
1068.1
1149.6
-359.354
-560.334
-743.563
-771.271
-752.579
-677.656
-566.858
-431.986
-280.445
-117.676
41.9689
202.111
359.906
514.358
656.381
788.794
899.795
1006.56
1094.54
1169.16
1222.45
1260.69
1282.15
1286.99
1264.37
1222.54
1151.5
1045.06
923.715
758.41
682.459
624.557
664.042
733.848
709.642
670.596
635.37
695.746
651
553.677
430.634
331.2
278.489
230.248
234.959
181.427
170.664
72.2652
-5.13137
-40.2393
-14.1546
-29.6415
75.1056
85.3603
-120.762
-389.193
-519.52
-838.574
-753.158
-486.019
-293.036
-82.3472
84.6591
220.158
324.938
405.76
464.328
505.197
533.471
552.373
568.803
580.654
590.722
607.184
651.8
760.71
977.576
1139.47
1287.72
-383.646
-602.533
-830.275
-851.409
-816.345
-729.344
-606.157
-458.248
-293.997
-120.215
48.5623
217.284
383.211
544.632
692.879
830.989
947.386
1058.53
1150.08
1227.62
1282.8
1322.76
1345.81
1351.67
1329.52
1287.65
1216.58
1109.12
985.771
817.955
734.01
672.027
705.32
771.659
740.089
692.999
658
723.938
681.41
587.936
465.652
364.856
308.994
260.386
259.02
205.103
194.624
106.058
43.4696
9.41357
27.4326
-8.94252
88.4253
88.9296
-107.018
-396.281
-554.62
-944.703
-888.712
-534.283
-315.715
-84.4202
92.3004
235.677
344.904
428.277
488.002
529.164
557.495
575.886
592.256
603.303
613.544
632.383
683.929
802.932
1042.53
1211.64
1355.54
-402.651
-651.236
-929.765
-940.057
-884.557
-783.944
-647.595
-485.688
-307.879
-122.719
55.376
232.856
406.999
575.332
729.735
873.518
995.287
1110.71
1205.76
1286.09
1343.08
1384.7
1409.32
1416.25
1394.69
1352.99
1282.14
1174.11
1049.33
879.511
788.865
722.137
748.027
810.466
774.396
717.812
679.026
751.941
711.644
622.847
502.288
400.731
341.783
292.982
286.273
230.278
218.138
139.06
90.0073
56.707
63.8449
12.9187
99.8942
92.5755
-92.2637
-392.232
-575.572
-1039.28
-1016.85
-579.991
-331.054
-80.695
104.132
253.872
366.418
451.529
511.89
552.981
581.131
598.831
615.039
625.175
635.951
657.035
716.617
846.065
1108.64
1283.91
1521.88
-418.146
-711.242
-1035.72
-1037.91
-957.018
-841.074
-691.095
-514.336
-322.094
-125.177
62.4315
248.865
431.3
606.481
766.974
916.399
1043.51
1163.1
1261.59
1344.6
1403.34
1446.52
1472.69
1480.69
1459.83
1418.49
1348.1
1239.91
1114.29
943.095
847.099
775.002
791.931
849.705
811.95
746.336
700.457
779.578
741.704
658.377
540.528
438.836
376.91
328.074
316.649
257.006
240.496
169.074
131.247
98.0337
94.4502
36.1521
110.069
95.9212
-78.8107
-382.364
-582.32
-1118.7
-1126.21
-620.096
-336.263
-69.5631
121.215
275.39
389.775
475.678
536.055
576.662
604.363
621.179
637.136
646.294
658.015
681.198
749.883
890.065
1175.68
1349.59
1577.3
-430.89
-782.475
-1151.11
-1144.6
-1033.42
-900.495
-736.833
-544.301
-336.609
-127.547
69.766
265.349
456.143
638.098
804.616
959.653
1092.07
1215.72
1317.59
1403.17
1463.6
1508.23
1535.92
1544.97
1524.88
1484.08
1414.37
1306.4
1180.45
1008.65
907.992
830.864
836.641
889.301
852.017
778.097
724.465
806.411
771.592
694.476
580.342
479.162
414.429
365.645
349.556
284.696
261.066
193.843
163.707
129.739
118.9
60.5759
120.297
98.7192
-68.0294
-372.33
-580.299
-1181.43
-1211.7
-651.153
-329.09
-49.6916
144.182
300.615
415.168
500.785
560.494
600.179
627.147
642.899
658.55
666.712
679.828
704.972
783.807
934.907
1244.52
1432.17
1674.42
-444.607
-867.691
-1275.32
-1261.46
-1114.5
-962.426
-784.944
-575.543
-351.326
-129.778
77.4108
282.336
481.539
670.191
842.686
1003.31
1140.99
1268.61
1373.8
1461.81
1523.89
1569.85
1599.03
1609.09
1589.82
1549.67
1480.79
1373.37
1247.51
1075.83
970.511
889.417
881.698
928.979
893.16
812.586
752.958
832.03
801.313
731.086
621.676
521.668
454.375
405.599
384.444
312.959
279.475
211.348
183.813
148.25
136.881
85.6439
132.534
100.693
-60.0609
-364.036
-575.812
-1228.16
-1277.23
-670.634
-309.305
-21.0229
172.906
329.401
442.559
526.787
585.135
623.463
649.416
663.967
679.298
686.507
701.488
728.498
818.528
980.608
1314.4
1503.91
1826.33
-461.814
-969.734
-1396.97
-1388.37
-1199.79
-1026.3
-835.193
-607.98
-366.209
-131.855
85.3867
299.839
507.48
702.765
881.208
1047.4
1190.3
1321.78
1430.22
1520.56
1584.22
1631.41
1662.01
1673.05
1654.63
1615.22
1547.21
1440.54
1315.09
1144
1033.81
949.443
926.813
968.712
933.787
848.894
785.807
856.642
830.868
768.138
664.461
566.287
496.747
447.842
421.236
342.007
295.665
220.151
188.525
150.896
147.015
110.383
147.319
101.806
-54.1381
-355.908
-574.404
-1262.96
-1330.21
-677.871
-278.76
14.8248
206.443
361.147
471.687
553.521
609.858
646.419
671.104
684.375
699.415
705.77
723.104
751.95
854.235
1027.41
1385.53
1571.02
1895.56
-481.314
-1084.12
-1518.41
-1523.48
-1289.19
-1091.84
-887.575
-641.671
-381.261
-133.741
93.7289
317.864
533.952
735.821
920.209
1091.97
1240.03
1375.29
1486.91
1579.44
1644.62
1692.95
1724.88
1736.83
1719.29
1680.72
1613.55
1507.7
1382.78
1212.46
1097.34
1009.65
972.047
1008.24
973.249
885.793
821.22
881.458
860.196
805.553
708.602
612.922
541.504
492.275
460.021
371.991
309.85
219.656
175.948
136.276
147.075
133.589
162.785
102.301
-48.9222
-346.691
-577.849
-1291.27
-1375.59
-673.293
-239.969
55.5996
243.392
394.996
502.088
580.766
634.533
668.965
692.162
704.137
718.946
724.6
744.783
775.535
891.145
1075.49
1458.64
1655.08
2002.39
-501.85
-1202.97
-1634.78
-1666.68
-1383.97
-1159.18
-942.018
-676.52
-396.358
-135.348
102.466
336.406
560.941
769.365
959.724
1137.06
1290.25
1429.19
1543.91
1638.5
1705.1
1754.5
1787.6
1800.39
1783.78
1746.16
1679.83
1574.78
1450.33
1280.72
1160.9
1069.59
1017.72
1047.09
1009.8
922.508
858.376
907.598
889.233
843.253
753.986
661.449
588.558
538.809
500.752
403.013
322.479
210.086
145.595
104.695
137.267
154.269
176.997
103.137
-43.0932
-336.049
-580.737
-1315.28
-1414.99
-657.266
-195.14
99.542
282.532
430.138
533.201
608.27
659.03
691.039
712.578
723.287
737.94
743.104
766.637
799.493
929.483
1125.01
1533.48
1733.15
2143.64
-521.809
-1318.67
-1741.17
-1814.83
-1483.67
-1227.41
-997.954
-712.308
-411.381
-136.636
111.582
355.434
588.426
803.411
999.806
1182.75
1341.02
1483.55
1601.26
1697.78
1765.7
1816.07
1850.16
1863.67
1848.03
1811.51
1746.05
1641.87
1517.79
1348.68
1224.63
1129.4
1064.1
1085.42
1042.52
957.97
896.426
935.54
918.19
881.155
800.477
711.71
637.76
587.424
543.372
435.285
334.153
192.327
98.3425
58.1995
119.934
171.864
189.124
105.769
-35.865
-323.386
-576.67
-1334.91
-1448.16
-629.72
-145.958
145.627
323.125
466.069
564.648
635.806
683.229
712.598
732.361
741.877
756.453
761.396
788.777
824.099
969.489
1176.23
1610.45
1812.83
2221.68
-539.723
-1427.11
-1845.33
-1967.01
-1588.51
-1296.49
-1055.14
-748.979
-426.309
-137.616
121.037
374.909
616.403
838.007
1040.53
1229.11
1392.38
1538.43
1659.02
1757.3
1826.45
1877.67
1912.54
1926.61
1911.94
1876.67
1812.13
1708.97
1585.26
1416.54
1288.76
1189.25
1111.25
1123.78
1072.5
991.988
934.618
964.963
947.616
919.181
847.919
763.506
688.909
637.897
587.709
468.992
345.537
167.766
36.1955
0.400343
97.7168
186.534
198.112
110.227
-26.5219
-307.781
-562.629
-1348.47
-1472.79
-590.4
-93.5376
193.225
364.746
502.518
596.276
663.227
707.046
733.617
751.543
759.967
774.549
779.613
811.332
849.68
1011.42
1229.37
1689.48
1894.07
2390.19
-554.984
-1523.73
-1944.41
-2123.75
-1699.3
-1366.51
-1113.19
-786.262
-441.015
-138.255
130.798
394.809
644.918
873.241
1082.01
1276.23
1444.42
1593.89
1717.26
1817.14
1887.38
1939.31
1974.74
1989.19
1975.4
1941.52
1877.93
1775.94
1652.7
1484.44
1353.43
1249.21
1159.1
1162.28
1100.59
1024.93
972.011
995.129
978.13
957.267
896.145
816.6
741.754
689.915
633.52
504.278
357.305
138.102
-37.8904
-64.2605
73.9277
198.299
202.807
115.667
-14.2162
-288.193
-537.584
-1351.37
-1481.41
-539.176
-38.4693
241.939
407.172
539.344
627.988
690.436
730.433
754.088
770.17
777.622
792.316
797.926
834.455
876.631
1055.5
1284.74
1770.52
1966.94
2466.5
-567.254
-1607.3
-2041.74
-2277.78
-1814.98
-1436.26
-1171.05
-823.675
-455.354
-138.549
140.808
415.15
674.062
909.224
1124.35
1324.21
1497.23
1650
1776.02
1877.34
1948.52
2001.01
2036.77
2051.4
2038.32
2005.92
1943.24
1842.58
1719.92
1552.32
1418.64
1309.24
1207.5
1200.5
1125.79
1056.47
1007.91
1025.52
1009.7
995.465
944.977
870.721
795.985
743.341
680.539
541.244
370.119
105.2
-119.887
-131.829
51.9501
207.225
203.66
121.962
1.28183
-263.891
-502.199
-1336.46
-1460.93
-476.273
19.0587
291.649
450.273
576.45
659.677
717.358
753.371
774.041
788.311
794.924
809.887
816.559
858.343
905.352
1101.87
1342.51
1854.38
2062.04
2587.48
-576.678
-1680.56
-2147.95
-2429.83
-1935.26
-1506.1
-1228.25
-861.02
-469.365
-138.59
151.027
436.014
703.95
946.076
1167.67
1373.18
1550.91
1706.85
1835.37
1937.95
2009.92
2062.78
2098.63
2113.22
2100.63
2069.75
2007.94
1908.71
1786.75
1620.05
1484.3
1369.27
1256.26
1238.32
1147.01
1085.64
1042.04
1055.66
1041.77
1034
994.222
925.58
851.261
797.833
728.64
579.977
384.739
71.043
-204.304
-198.039
34.6751
214.015
202.122
129.298
19.6442
-234.631
-456.893
-1296.92
-1398.49
-402.471
79.0794
342.387
493.943
613.771
691.251
743.933
775.851
793.544
806.071
812.003
827.473
835.792
883.252
936.159
1150.61
1402.74
1940.3
2146.73
2755.6
-583.922
-1743.73
-2259.49
-2580.01
-2059.5
-1576.49
-1284.24
-897.883
-482.977
-138.36
161.56
457.567
734.706
983.924
1212.1
1423.24
1605.58
1764.55
1895.37
1999.03
2071.62
2124.63
2160.31
2174.64
2162.31
2132.93
2071.87
1974.16
1852.98
1687.44
1550.3
1429.18
1305.16
1276.12
1165.52
1112.35
1074.33
1085.34
1073.99
1073.05
1043.67
980.87
907.226
852.946
777.871
620.507
402.129
37.6489
-284.275
-257.482
24.6793
218.91
199.195
137.79
40.1678
-200.875
-401.19
-1228.53
-1288.68
-319.276
141.671
394.156
538.117
651.289
722.678
770.167
797.941
812.712
823.609
829.072
845.372
855.941
909.449
969.275
1201.81
1465.68
2028.39
2227.16
2849.66
-589.961
-1799.22
-2373.4
-2715.69
-2183.33
-1645.6
-1337.65
-933.532
-495.988
-137.705
172.653
479.999
766.459
1022.9
1257.74
1474.5
1661.33
1823.19
1956.1
2060.63
2133.65
2186.57
2221.82
2235.65
2223.35
2195.41
2134.93
2038.77
1918.41
1754.3
1616.43
1488.86
1354
1313.86
1183.66
1137.83
1104.76
1114.38
1106.29
1112.7
1093.07
1036.28
963.518
908.455
827.602
662.757
423.172
6.74673
-352.155
-304.017
24.1356
222.679
196.241
147.43
61.7997
-163.57
-335.228
-1131.03
-1135.78
-228.826
206.816
446.887
582.776
688.972
753.96
796.114
819.826
831.755
841.165
846.429
863.928
877.308
937.158
1004.87
1255.52
1531.43
2119.19
2326.96
2969.13
-595.768
-1851.73
-2495.41
-2839.67
-2304.54
-1713.68
-1387.96
-967.634
-508.371
-136.488
184.555
503.451
799.316
1063.11
1304.71
1527.07
1718.27
1882.87
2017.6
2122.8
2196.01
2248.58
2283.12
2296.24
2283.75
2257.12
2197.04
2102.42
1982.83
1820.39
1682.48
1548.26
1402.74
1351.08
1202.36
1163.48
1133.49
1142.52
1138.91
1153.01
1142.19
1091.51
1019.8
964.089
877.187
706.681
448.134
-20.8895
-400.602
-331.63
34.2977
225.738
194.764
157.926
83.3662
-124.139
-261.844
-1010.61
-952.196
-133.586
274.329
500.473
627.948
726.829
785.202
821.931
841.734
850.925
858.995
864.384
883.475
900.139
966.557
1043.08
1311.82
1600.03
2212.32
2421.52
3126.42
-601.874
-1902.09
-2624.32
-2959.34
-2422.83
-1781.94
-1435.09
-999.784
-519.985
-134.468
197.525
528.042
833.373
1104.67
1353.08
1581.01
1776.48
1943.66
2079.96
2185.56
2258.73
2310.65
2344.17
2356.36
2343.47
2318.02
2258.12
2164.99
2046.03
1885.46
1748.17
1607.14
1451.32
1387.74
1222.61
1190.05
1161.24
1169.54
1172.01
1193.89
1190.83
1146.18
1075.76
1019.53
926.789
752.204
476.864
-46.109
-424.375
-335.847
55.0776
228.136
194.343
169.253
104.255
-85.2098
-186.161
-878.453
-753.415
-35.9331
343.831
554.825
673.708
765.005
816.633
847.925
863.906
870.461
877.393
883.273
904.328
924.627
997.809
1084
1370.76
1671.6
2307.88
2518.53
3230.52
-608.361
-1948.63
-2748.48
-3060.97
-2533.41
-1847.86
-1477.51
-1028.8
-530.249
-131.204
211.873
553.923
868.749
1147.67
1402.94
1636.39
1836.03
2005.63
2143.24
2248.97
2321.79
2372.74
2404.93
2415.97
2402.48
2378.01
2318.07
2226.37
2107.81
1949.16
1813.18
1664.83
1499.4
1422.88
1246.44
1218.15
1189.24
1195.41
1205.34
1235.34
1238.77
1199.77
1131.11
1074.62
976.059
799.022
508.901
-71.6362
-421.791
-314.891
85.075
231.96
194.314
182.212
125.145
-48.6417
-111.626
-741.715
-553.94
62.1274
414.791
609.922
720.201
803.765
848.559
874.419
886.598
890.61
896.727
903.491
926.766
950.943
1031.07
1127.74
1432.42
1746.2
2405.63
2618.3
3393.58
-614.934
-1989.11
-2859.97
-3137.26
-2630.68
-1908.88
-1513.89
-1053.62
-538.656
-126.357
227.838
581.23
905.562
1192.23
1454.36
1693.28
1896.97
2068.86
2207.49
2313.07
2385.21
2434.84
2465.34
2475.01
2460.79
2437.03
2376.79
2286.43
2167.96
2011.09
1877.1
1720.29
1546.51
1454.97
1274.93
1248.24
1218.57
1220.72
1238.41
1277.17
1285.86
1251.66
1185.56
1129.18
1024.12
846.767
542.55
-100.32
-393.318
-269.924
122.129
237.106
196.652
197.1
147.059
-11.3942
-39.3287
-602.464
-364.428
159.05
486.617
665.836
767.655
843.426
881.327
901.713
910.084
911.669
917.346
925.365
950.969
979.209
1066.49
1174.39
1496.89
1823.97
2505.35
2709.7
3505.22
-621.188
-2021.28
-2956.31
-3200.55
-2715
-1966.09
-1544.54
-1074.01
-545.154
-119.864
245.507
610.013
943.893
1238.43
1507.42
1751.75
1959.38
2133.41
2272.8
2377.9
2449.01
2496.9
2525.36
2533.39
2518.36
2494.96
2434.16
2345.02
2226.29
2070.93
1939.46
1772.9
1592.51
1482.29
1308.44
1280.75
1249.84
1246.82
1271.13
1318.4
1331.93
1301.13
1238.69
1182.65
1070.79
895.261
575.286
-130.781
-339.28
-204.021
164.439
241.018
203.682
212.606
169.495
29.9067
29.6802
-465.719
-190.436
253.702
558.755
722.72
816.361
884.324
915.275
930.103
934.643
934.001
939.604
949.13
977.043
1009.5
1104.16
1224.05
1564.25
1904.93
2607.37
2821.73
3636.16
-626.869
-2043.52
-3033.44
-3255.07
-2787.41
-2019.19
-1569.32
-1089.58
-549.604
-111.623
264.971
640.315
983.797
1286.34
1562.19
1811.86
2023.33
2199.38
2339.25
2443.55
2513.21
2558.91
2584.91
2591.04
2575.09
2551.71
2490.05
2402.01
2282.62
2128.61
1999.76
1822.72
1637.83
1503.65
1347.38
1316.05
1283.34
1275.28
1304.1
1358.42
1376.96
1347.67
1289.84
1234.38
1116.7
944.533