/*--------------------------------*- C++ -*----------------------------------*\
| =========                 |                                                 |
| \\      /  F ield         | OpenFOAM: The Open Source CFD Toolbox           |
|  \\    /   O peration     | Version:  4.1                                   |
|   \\  /    A nd           | Web:      www.OpenFOAM.org                      |
|    \\/     M anipulation  |                                                 |
\*---------------------------------------------------------------------------*/
FoamFile
{
    version     2.0;
    format      ascii;
    class       surfaceScalarField;
    location    "21";
    object      phi;
}
// * * * * * * * * * * * * * * * * * * * * * * * * * * * * * * * * * * * * * //

dimensions      [0 3 -1 0 0 0 0];

internalField   nonuniform List<scalar> 
13220
(
-913.803
2213.73
-1421.14
1807.56
-1896.8
1775.57
-2261.87
1664.99
-2544.11
1582.46
-2747.06
1502.87
-2873.25
1426.11
-2923.56
1350.52
-2897.64
1273.98
-2794.53
1196.81
-2620.67
1126.34
-2372.27
1051.52
-1978.13
905.773
-1259.82
581.916
40.0802
-6.89938
2220.67
-47.7448
1848.46
-184.579
1912.45
-296.124
1776.59
-412.397
1698.78
-515.014
1605.53
-603.563
1514.7
-675.475
1422.47
-732.856
1331.4
-781.151
1245.14
-815.984
1161.2
-793.777
1029.34
-601.566
713.608
-192.897
173.38
-152.808
-133.101
2353.81
-337.514
2052.91
-530.94
2105.91
-649.045
1894.73
-758.923
1808.7
-832.27
1678.92
-881.7
1564.17
-907.667
1448.48
-912.351
1336.12
-897.122
1229.98
-852.075
1116.2
-739.144
916.564
-510.109
484.884
-248.951
-87.3042
-401.758
48.3399
2305.5
-24.8885
2126.18
-50.2754
2131.34
-38.5119
1883.01
-26.8891
1797.12
5.7953
1646.29
52.5662
1517.45
115.716
1385.39
195.238
1256.67
292.573
1132.69
399.284
1009.54
471.434
844.423
414.857
541.487
132.395
195.205
-269.359
140.229
2165.3
131.305
2135.13
177.41
2085.26
229.947
1830.51
283.294
1743.8
336.905
1592.71
390.789
1463.6
443.038
1333.16
493.523
1206.2
540.337
1085.9
579.199
970.665
578.555
845.176
467.025
653.131
251.635
410.83
-17.7316
111.4
2053.91
132.613
2113.93
173.923
2043.97
217.129
1787.32
256.621
1704.32
296.271
1553.07
332.654
1427.22
361.716
1304.11
380.595
1187.32
389.829
1076.64
391.011
969.478
372.825
863.224
297.027
728.772
157.341
550.133
139.613
53.421
2000.5
105.721
2061.64
145.065
2004.63
190.737
1741.65
227.829
1667.23
276.488
1504.41
320.328
1383.37
367.534
1256.89
411.195
1143.65
447.656
1040.18
465.399
951.716
448.213
880.497
370.369
806.689
225.096
695.519
364.705
-6.12939
2006.61
32.9967
2022.5
62.7686
1974.84
80.7792
1723.61
99.1627
1648.82
129.703
1473.84
173.499
1339.54
264.892
1165.47
392.37
1016.14
512.383
920.118
577.007
887.082
562.234
895.123
455.337
913.453
271.009
879.669
635.715
-42.779
2049.38
-93.5685
2073.27
-113.436
1994.69
-163.22
1773.38
-204.246
1689.83
-241.285
1510.87
-245.122
1343.36
-175.336
1095.67
-40.2798
881.073
114.437
765.407
246.998
754.498
320.663
821.546
296.617
937.553
170.629
1005.71
806.342
-3.02792
2052.38
-170.345
2240.57
-267.906
2092.23
-379.182
1884.64
-486.954
1797.58
-603.301
1627.2
-718.836
1458.88
-814.842
1191.66
-848.078
914.29
-807.126
724.422
-678.503
625.866
-470.496
613.426
-236.358
703.302
-64.2248
833.436
742.117
115.181
1937.17
-44.8786
2400.59
-171.314
2218.63
-280.573
1993.86
-381.213
1898.19
-489.393
1735.35
-616.658
1586.12
-793.153
1368.12
-974.449
1095.55
-1099.17
849.122
-1119.57
646.215
-979.312
473.196
-641.038
365.03
-231.069
423.465
511.046
179.323
1757.81
114.814
2465.07
27.3737
2306.03
-31.7109
2052.91
-69.8062
1936.24
-120.269
1785.78
-179.729
1645.55
-287.57
1475.94
-452.143
1260.08
-619.021
1015.94
-758.558
785.723
-833.437
547.942
-774.815
306.243
-188.063
-163.51
322.983
127.644
1630.13
139.322
2453.37
97.9254
2347.4
59.7454
2091.06
22.1651
1973.8
2.82764
1805.1
-9.91858
1658.28
-30.6914
1496.69
-62.0854
1291.45
-121.146
1074.98
-155.181
819.731
-200.195
592.931
-254.128
360.12
8.29585
-425.996
331.278
-439.482
2069.6
-658.683
2672.56
-620.826
2309.53
-538.077
2008.3
-321.521
1757.23
-59.1434
1542.71
296.277
1302.84
621.67
1171.29
787.662
1125.45
865.595
997.044
818.852
866.473
601.031
810.738
335.759
625.365
-64.765
-25.5168
266.515
-1486.02
-1810.15
-1790.19
-1657.66
-1166.83
-666.075
148.676
794.284
1672.29
2586.52
3462.34
3946.23
3612.35
2039.92
0.000154197
-1911.41
1911.41
-1911.41
-1911.41
-1911.41
-3670.94
1759.53
-3670.94
-3670.94
-3670.94
-5198.84
1527.9
-5198.84
-5198.84
-6539.62
1340.77
-6539.62
-6539.62
-6539.62
-7688.85
1149.24
-7688.85
-7688.85
-8706.51
1017.65
-8706.51
-8706.51
-8706.51
-9577.18
870.679
-9577.18
-9577.18
-9577.18
-10256.8
679.601
-10256.8
-10256.8
-10812.8
556.057
-10812.8
-10812.8
-10812.8
-11083.1
270.232
-11083.1
-11083.1
-11161.7
78.6579
-11161.7
-11161.7
-11161.7
-11097.9
-63.8718
-11097.9
-11097.9
-11097.9
-10852.6
-245.269
-10852.6
-10852.6
-10466.3
-386.337
-10466.3
-10466.3
-10466.3
-9963.45
-502.797
-9963.45
-9963.45
-9963.45
-9315.69
-647.761
-9315.69
-9315.69
-8513.6
-802.095
-8513.6
-8513.6
-8513.6
-7495.15
-1018.45
-7495.15
-7495.15
-6210.37
-1284.77
-6210.37
-6210.37
-6210.37
-4622.68
-1587.69
-4622.68
-4622.68
-4622.68
-2662.13
-1960.55
-2662.13
-2662.13
-413.209
-2248.92
-413.214
-413.213
50.821
539.458
1069.87
2209.84
-740.114
2521.99
2841.86
3138.52
3428.02
3715.63
3999.29
4264.25
4510.87
7051.55
-2332.2
7193.09
7337.61
7454.07
7556.31
7653.13
7729.13
7749.24
7759.95
11937.1
-4120.3
11947.6
11948.8
11907.4
11880.9
11867.7
11855.2
11846.3
11842.4
11861.9
16049
-4118.23
16125.6
16195.9
16211.2
16236.8
16278
16317.3
16355.7
16423.9
20328.4
-3784.16
20477.8
20615
20673.4
20745.7
20846
20948.2
21055.2
21208.4
24556.2
-3160.87
24788.1
25015.8
25179.4
25368.5
25588.1
25813.2
26049.1
26313.2
28844.9
-2249.62
29220.3
29596.6
29912.3
30247.9
30613.4
31017.6
31424.9
31840.5
32279.1
33878.1
-1174.3
34457
35057.7
35572.5
36102
36667
37248.5
37871.2
38492
39606.6
-556.818
40350.9
41147.3
41147.3
42061.6
-914.323
42779
-717.417
42779
43995.2
-1216.14
43995.2
45535.8
-1540.63
46930.1
-1394.29
46930.1
48724.7
-1794.58
50301.4
-1576.76
50301.4
52105.4
-1803.94
52105.4
53970.4
-1865.06
55511.5
-1541.13
55511.5
57159.2
-1647.63
57159.2
58787
-1627.87
59992.1
-1205.06
59992.1
61382.3
-1390.24
62267.1
-884.728
62267.1
63246.3
-979.253
63246.3
64221.6
-975.287
64641.1
-419.48
64641.1
65176.5
-535.372
65176.5
65716.3
-539.84
65641.8
74.4701
65641.8
65862.7
-220.881
65394.5
468.198
65394.5
65073.3
321.241
65073.3
64806.5
266.745
63890.4
916.132
63890.4
63198.2
692.227
63198.2
62611.5
586.695
61469.3
1142.19
61469.3
60751
718.259
59490.3
1260.73
59490.3
58525.3
964.955
58525.3
57734.2
791.134
56535.3
1198.92
56535.3
55687.7
847.581
55687.7
55058
629.698
54187.5
870.514
54187.5
53795.2
392.262
53226
569.237
53226
53092.8
133.238
53092.8
53225.6
-132.834
53307.2
-81.6411
53307.2
53773.1
-465.888
53773.1
54417.5
-644.391
55016.6
-599.12
55016.6
55871.5
-854.887
56609.5
-737.929
56609.5
57567.9
-958.422
57567.9
-1047.93
-2839.69
-6233.45
-2923.67
12049.7
-2993.85
16010.9
-3032.46
20291.1
-3040.23
24269.4
-3003.23
27921.6
-2934.77
31252.7
-2831.6
34367
-2684.36
37359.6
-2489.45
40101.1
-2266.6
42367.2
-2046.77
44272.6
-1793.83
46540.2
-1505.58
48772.5
-1169.33
50665.2
-859.586
50730.2
-596.061
50712.4
-292.65
52529.1
9.58248
53014.5
312.278
53133.3
593.925
52199
874.684
52071.8
1146.24
51622.3
1384.7
49657.6
1610.36
47614
1825.91
46083.5
1983.55
42736.9
2082.21
38877.5
2022.34
30562.6
1849.97
17393.4
1349.63
5533.19
261.712
-22318.8
-331.484
-32089.8
-497.168
-21361.7
-459.979
-16016.3
-124.521
-16452.7
134.061
-11438.1
372.916
18325.5
554.508
32693.8
707.064
34757.6
807.831
26617.2
894.642
16737.3
974.946
7362.33
1194.57
-271.226
1665.1
6188.33
2817.69
-5649.15
3789.38
-32286.4
4048.54
-40968.3
3988.06
-32868.1
3684.64
-19670.6
3081.12
-6775.81
2603.09
4223
2214.49
5557
2445.36
4416.01
3982.45
-6714.34
5457.13
-20308.4
5383.02
-30220.1
4641.32
-22744.9
4660.11
51755.2
4521.02
83116.2
4242.97
75280.1
4051.14
61923.8
3935.7
50135.8
3880.25
40393.9
3872.03
32268.9
3894.24
25263.2
3929.07
18933.9
3961.24
12937.4
3980.94
7143.05
3983.89
1365.11
3933.08
-4734.54
3704.32
-11421.2
3071.98
-17323
2561.86
-23166.1
2839.79
-41066.5
3154.06
-60426
2358.54
-72461.6
850.645
-88365.7
-102213
-2679.26
-6360.2
-2900.26
12270.7
-2976.23
16086.8
-3022.55
20337.4
-3038.13
24285
-3004.21
27887.7
-2936.7
31185.1
-2834.31
34264.6
-2687.6
37212.9
-2493
39906.5
-2270.39
42144.6
-2049.73
44051.9
-1796.98
46287.5
-1509.75
48485.2
-1175.16
50330.6
-864.684
50419.7
-600.02
50447.7
-297.284
52226.3
4.90995
52712.3
307.329
52830.8
589.754
51916.6
871.432
51790.1
1143.6
51350.1
1383.14
49418
1610.94
47386.2
1831.2
45863.2
1995.08
42573
2105.71
38766.8
2066.91
30601.4
1894.52
17565.8
1521.86
5905.85
415.835
-21212.8
-122.913
-31551.1
-246.598
-21238
-397.154
-15865.8
-163.583
-16686.3
138.138
-11739.8
394.91
18068.7
578.476
32510.2
729.868
34606.2
820.59
26526.5
891.862
16666
923.078
7331.12
1057.86
-406.01
1636.54
5609.64
3001.01
-7013.61
3987.63
-33273
4229.05
-41209.7
4158.09
-32797.1
3813.66
-19326.2
3144.61
-6106.76
2674.8
4692.81
2281.87
5949.93
2672.3
4025.58
4396.29
-8438.34
5637.33
-21549.4
5362.12
-29944.9
4574.12
-21956.9
4687.25
51642.1
4561.94
83241.5
4253.6
75588.5
4048.37
62129
3930.82
50253.4
3874.26
40450.4
3864.77
32278.4
3885.63
25242.3
3918.95
18900.6
3948.59
12907.8
3965.75
7125.88
3949.67
1381.19
3852.32
-4637.19
3584.48
-11153.4
2932.7
-16671.3
2395.32
-22628.7
2538.19
-41209.4
2713.08
-60600.9
2171.14
-71919.6
876.472
-87071
-102295
-2557.06
-6548.75
-2809.39
12523
-2949.51
16227
-3007.48
20395.4
-3027.68
24305.2
-3002.44
27862.4
-2939.82
31122.5
-2839.17
34164
-2693.53
37067.2
-2499.69
39712.6
-2277.98
41922.9
-2057.14
43831.1
-1804.54
46034.9
-1517.97
48198.7
-1183.73
49996.4
-873.23
50109.2
-608.216
50182.7
-305.048
51923.2
-3.03386
52410.3
299.983
52527.8
583.29
51633.3
866.129
51507.2
1139.84
51076.4
1381.35
49176.5
1612.4
47155.1
1838.13
45637.5
2011.18
42399.9
2135.2
38642.8
2109.71
30626.9
1952.23
17723.3
1643.56
6214.51
511.828
-20081
1.63328
-31040.9
76.9885
-21313.3
-101.058
-15687.7
-58.8332
-16728.5
247.249
-12045.9
413.957
17902
603.268
32320.9
754.821
34454.7
837.579
26443.7
889.949
16613.6
917.584
7303.48
967.59
-456.016
1572.21
5005.02
3105.34
-8546.74
4073.54
-34241.2
4290.81
-41427
4195.99
-32702.3
3827.41
-18957.6
3153.24
-5432.59
2679.23
5166.82
2316.78
6312.38
2852.79
3489.57
4612.32
-10197.9
5684.07
-22621.1
5416.16
-29677
4680
-21220.7
4687.93
51634.2
4592.25
83337.2
4265.13
75915.6
4046.1
62348.1
3924.53
50374.9
3866.06
40508.9
3854.69
32289.7
3873.66
25223.3
3905.06
18869.2
3931.76
12881.1
3944.49
7113.14
3913.45
1412.23
3794.39
-4518.13
3522.35
-10881.3
2897.08
-16046
2365.78
-22097.4
2394.73
-41238.4
2383.57
-60589.7
1901.03
-71437.1
855.467
-86025.5
-102178
-2423.16
-6789.4
-2684.42
12784.3
-2895.88
16438.4
-2988.38
20487.9
-3015.03
24331.9
-2998.38
27845.8
-2943.61
31067.8
-2846.32
34066.7
-2701.93
36922.9
-2509.22
39519.9
-2289.03
41702.7
-2068.09
43610.2
-1815.5
45782.3
-1528.87
47912
-1194.81
49662.3
-884.447
49798.8
-618.744
49917
-315.218
51619.7
-12.8999
52108
290.912
52224
575.486
51348.7
859.646
51223.1
1135.21
50800.8
1379.37
48932.4
1614.15
46920.4
1845.43
45406.2
2028.26
42217.1
2165.92
38505.2
2156.54
30636.3
2017.32
17862.5
1779.54
6452.29
646.316
-18947.8
130.606
-30525.2
309.188
-21491.9
160.167
-15538.7
-66.8846
-16501.5
302.579
-12415.3
431.059
17773.5
628.533
32123.4
781.768
34301.4
858.989
26366.5
895.133
16577.5
929.701
7268.91
921.167
-447.483
1522.58
4403.61
3211.44
-10235.6
4168.5
-35198.2
4356.06
-41614.6
4228.07
-32574.3
3809.17
-18538.7
3089.28
-4712.7
2608.7
5647.4
2269.4
6651.68
3008.24
2750.73
4828.41
-12018
5747.3
-23540
5438.77
-29368.4
4733
-20514.9
4681.91
51685.3
4604.26
83414.9
4272.62
76247.2
4044.91
62575.8
3918.32
50501.5
3856.95
40570.3
3842.95
32303.7
3859.48
25206.8
3888.54
18840.1
3911.72
12857.9
3917.45
7107.42
3873.48
1456.2
3737.53
-4382.18
3457.05
-10600.8
2847.22
-15436.2
2317.86
-21568.1
2242.03
-41162.5
2080.04
-60427.7
1672.18
-71029.2
813.361
-85166.7
-102219
-2284.32
-7075.32
-2538.23
13038.2
-2808.08
16708.3
-2954.3
20634.1
-3000.69
24378.3
-2993.13
27838.2
-2947.28
31021.9
-2855.69
33975.1
-2713.62
36780.8
-2522.52
39328.8
-2304.28
41484.5
-2083.39
43389.3
-1830.62
45529.5
-1543.55
47625
-1209.5
49328.3
-899.083
49488.4
-632.426
49650.3
-328.341
51315.6
-25.3092
51805
279.611
51919.1
565.85
51062.5
851.679
50937.3
1129.54
50523
1376.99
48684.9
1616.06
46681.3
1853.47
45168.8
2046.64
42023.9
2198.98
38352.8
2209
30626.3
2090.14
17981.4
1907.72
6634.71
794.674
-17834.8
279.686
-30010.2
518.601
-21730.8
425.022
-15445.1
-185.206
-15891.3
257.356
-12857.9
446.073
17584.8
657.312
31912.2
813.151
34145.6
885.519
26294.1
908.298
16554.7
945.221
7231.99
898.898
-401.16
1502.95
3799.57
3309.05
-12041.7
4240.24
-36129.4
4387.54
-41761.9
4220.92
-32407.7
3751.35
-18069.1
2972.54
-3933.89
2478.38
6141.55
2122.25
7007.82
3141.26
1731.72
5027.52
-13904.3
5780.76
-24293.3
5408.59
-28996.3
4749.31
-19855.7
4671.61
51763
4603.46
83483
4275.58
76575.1
4043.06
62808.3
3911.09
50633.5
3846.18
40635.2
3829.08
32320.8
3842.76
25193.1
3869.09
18813.8
3888.31
12838.7
3887.43
7108.29
3831.93
1511.7
3682.8
-4233.05
3399.34
-10317.4
2813.54
-14850.4
2293.06
-21047.6
2112.65
-40982.1
1799.44
-60114.5
1444.58
-70674.4
736.564
-84458.6
-102082
-2143.17
-7401.23
-2377.7
13272.8
-2687.5
17018.1
-2894.55
20841.1
-2980.02
24463.7
-2987.85
27846.1
-2950.86
30984.9
-2866.59
33890.8
-2728.64
36642.8
-2539.97
39140.1
-2324
41268.5
-2103.44
43168.7
-1850.42
45276.5
-1562.62
47337.2
-1228.23
48993.9
-917.563
49177.7
-649.853
49382.6
-344.828
51010.5
-40.7052
51500.8
265.753
51612.6
554.028
50774.2
841.924
50649.4
1122.63
50242.3
1373.98
48433.6
1617.98
46437.3
1862.19
44924.6
2066.49
41819.6
2233.8
38185.5
2264.76
30595.3
2165.31
18080.8
2027.32
6772.7
952.198
-16759.6
430.478
-29488.4
687.15
-21987.5
641.083
-15399.1
-287.998
-14962.2
195.669
-13341.6
461.417
17319.1
690.369
31683.2
849.954
33986
917.768
26226.3
930.465
16542
970.891
7191.56
888.276
-318.545
1514.53
3173.31
3401.78
-13929
4294.64
-37022.3
4393.89
-41861.1
4183.54
-32197.3
3659.11
-17544.7
2824.54
-3099.32
2304.66
6661.44
1942.39
7370.09
3318.01
356.096
5217.92
-15804.2
5791.54
-24866.9
5354.76
-28559.5
4750.25
-19251.1
4655.36
51857.9
4591.93
83546.5
4274.16
76892.9
4039.86
63042.6
3902.61
50770.7
3833.83
40704
3813.39
32341.3
3824.03
25182.5
3847.44
18790.4
3862.53
12823.6
3855.21
7115.61
3789.97
1576.94
3632.08
-4075.16
3347.66
-10033
2785.49
-14288.2
2277.67
-20539.8
2008.66
-40713.1
1574.44
-59680.3
1260.77
-70360.7
698.024
-83895.9
-102028
-1999.12
-7765.58
-2205.23
13478.9
-2540.93
17353.8
-2805.01
21105.2
-2945.05
24603.8
-2981.15
27882.2
-2955.23
30959
-2878.58
33814.2
-2746.34
36510.6
-2561.36
38955.2
-2348.13
41055.3
-2128.14
42948.7
-1874.9
45023.3
-1586.06
47048.3
-1250.97
48658.8
-939.959
48866.7
-671.089
49113.8
-364.788
50704.2
-59.1876
51195.2
249.212
51304.2
539.87
50483.5
830.185
50359
1114.22
49958.2
1370.06
48177.7
1619.54
46187.8
1871.01
44673.1
2087.03
41603.6
2269.02
38003.5
2321.07
30543.3
2240.52
18161.4
2135.43
6877.79
1113.13
-15737.3
576.402
-28951.7
790.256
-22201.4
749.977
-15358.8
-337.642
-13874.6
165.556
-13844.8
479.909
17004.7
727.253
31435.9
891.916
33821.3
955.724
26162.5
962.56
16535.2
1011.31
7142.81
877.415
-184.65
1550.25
2500.48
3488.57
-15867.3
4328.19
-37861.9
4372.63
-41905.5
4115.32
-31940
3539.7
-16969.1
2666.33
-2225.95
2096.81
7230.95
1843.76
7623.15
3560.1
-1360.25
5393.2
-17637.3
5778.99
-25252.7
5283.82
-28064.3
4737.55
-18704.9
4635.48
51959.9
4571.56
83610.4
4268.51
77195.9
4035.14
63276
3893.02
50912.9
3820.18
40776.8
3796.27
32365.2
3803.8
25174.9
3824.22
18769.9
3835.16
12812.7
3821.84
7128.93
3748.54
1650.23
3585.29
-3911.9
3302.08
-9749.74
2764.18
-13750.3
2272.81
-20048.4
1930.29
-40370.6
1405.02
-59155
1120.26
-70075.9
566.738
-83342.4
-101927
-1853.14
-8168.61
-2023.13
13648.9
-2376.41
17707.1
-2688.27
21417.1
-2888.51
24804
-2967.67
27961.3
-2960.2
30951.5
-2891.98
33746
-2766.15
36384.8
-2586.33
38775.4
-2376.62
40845.6
-2157.43
42729.5
-1904.01
44769.8
-1613.9
46758.2
-1277.88
48322.8
-966.424
48555.3
-696.236
48843.6
-388.383
50396.4
-80.9267
50887.8
229.777
50993.5
523.145
50190.2
816.191
50066
1103.98
49670.4
1364.84
47916.9
1620.27
45932.4
1879.37
44414
2107.44
41375.5
2303.91
37807.1
2376.07
30471.1
2314.1
18223.3
2232.53
6959.36
1269.58
-14774.4
712.284
-28394.4
863.123
-22352.2
820.605
-15316.3
-321.068
-12732.9
107.815
-14273.6
501.277
16611.3
767.755
31169.4
938.81
33650.3
999.272
26102
1005.53
16528.9
1058.54
7089.81
841.752
32.1331
1604.18
1738.05
3570.35
-17833.5
4340.51
-38632.1
4325.11
-41890.1
4019.93
-31634.9
3403.58
-16352.7
2512.96
-1335.32
1857.72
7886.19
1824.98
7655.89
3842.63
-3377.9
5538.49
-19333.2
5743.18
-25457.4
5200.66
-27521.8
4711.78
-18216
4615.14
52056.6
4545.58
83679.9
4259.06
77482.5
4028.57
63506.5
3882.22
51059.2
3805.34
40853.7
3777.97
32392.6
3782.42
25170.5
3799.85
18752.5
3806.72
12805.8
3787.86
7147.79
3708.11
1729.99
3542.73
-3746.52
3262.16
-9469.18
2748.17
-13236.3
2278.25
-19578.5
1882.19
-39974.5
1298.07
-58570.9
1031.7
-69809.5
528.93
-82839.6
-101480
-1713.03
-8605.48
-1841.13
13776.9
-2201.69
18067.6
-2551.06
21766.5
-2808.02
25061
-2940.5
28093.8
-2962.97
30974
-2906.97
33690
-2787.99
36265.8
-2614.43
38601.8
-2409.36
40640.5
-2191.35
42511.5
-1937.77
44516.3
-1646.27
46466.7
-1309.18
47985.7
-997.178
48243.3
-725.501
48571.9
-415.839
50086.7
-106.17
50578.1
207.191
50680.2
503.574
49893.8
799.656
49769.9
1091.59
49378.5
1357.97
47650.5
1619.81
45670.5
1886.9
44146.9
2127.28
41135.2
2338.23
37596.1
2428.5
30380.8
2383.56
18268.3
2317.42
7025.5
1415.19
-13872.2
838.566
-27817.8
933.93
-22447.6
899.83
-15282.2
-105.276
-11727.8
33.8164
-14412.7
525.033
16120
811.961
30882.5
990.545
33471.7
1048.43
26044.1
1059.87
16517.5
1098.71
7050.97
800.133
330.71
1726.14
812.039
3649.51
-19756.8
4331.17
-39313.7
4252.85
-41811.8
3902.37
-31284.4
3261.01
-15711.4
2372.52
-446.834
1635.99
8622.71
1868.98
7422.91
4126.64
-5635.56
5635.07
-20841.6
5684.05
-25506.3
5113.41
-26951.2
4678.49
-17781
4596.52
52138.5
4517.2
83759.3
4246.44
77753.2
4019.86
63733
3870.08
51209
3789.38
40934.4
3758.72
32423.2
3760.23
25169
3774.77
18738
3777.76
12802.8
3754.01
7171.54
3669.28
1814.72
3504.34
-3581.59
3227.32
-9192.15
2736.54
-12745.5
2293.2
-19135.1
1864.43
-39545.8
1250.33
-57956.8
989.694
-69548.9
493.623
-82343.5
-101119
-1585.05
-9068.53
-1667.77
13859.7
-2022.93
18422.8
-2399.87
22143.4
-2706.43
25367.5
-2894.91
28282.3
-2958.66
31037.8
-2922.4
33653.7
-2812.07
36155.5
-2645.37
38435.1
-2446.04
40441.2
-2229.86
42295.3
-1976.19
44262.6
-1683.22
46173.8
-1345.02
47647.5
-1032.4
47930.7
-759.055
48298.5
-447.335
49775
-135.122
50265.9
181.251
50363.8
480.939
49594.1
780.346
49470.5
1076.81
49082
1349.17
47378.1
1617.85
45401.9
1893.3
43871.5
2146.18
40882.3
2371.8
37370.5
2477.81
30274.8
2446.04
18300
2387.56
7083.98
1547.82
-13032.4
964.753
-27234.7
1023.29
-22506.1
996.526
-15255.4
389.605
-11120.9
94.2889
-14117.4
553.332
15661
859.215
30576.6
1046.84
33284.1
1103.25
25987.7
1124.54
16496.2
1135.6
7039.91
867.174
599.136
2000.73
-321.522
3726.41
-21482.5
4301.37
-39888.7
4158.34
-41668.8
3769.1
-30895.1
3123.07
-15065.3
2249.9
426.334
1507.79
9364.83
2018.96
6911.73
4370.19
-7986.78
5674.44
-22145.8
5603.66
-25435.6
5028.7
-26376.2
4642.81
-17395.2
4580.7
52200.6
4488.76
83851.2
4231.28
78010.7
4008.88
63955.4
3856.52
51361.3
3772.44
41018.5
3738.8
32456.9
3737.59
25170.2
3749.39
18726.2
3748.78
12803.4
3720.74
7199.58
3632.39
1903.07
3469.98
-3419.19
3196.81
-8918.98
2728.28
-12277
2316.95
-18723.8
1876.05
-39104.9
1256.18
-57336.9
984.598
-69277.3
387.318
-81746.3
-100599
-1468.66
-9554.64
-1501.72
13892.7
-1843.18
18764.2
-2238.54
22538.8
-2587.85
25716.8
-2829.82
28524.2
-2942.32
31150.3
-2935.35
33646.7
-2838.07
36058.2
-2679.1
38276.1
-2486.25
40248.3
-2272.74
42081.8
-2019.25
44009.1
-1724.77
45879.3
-1385.48
47308.2
-1072.25
47617.4
-797.025
48023.3
-483.005
49461
-167.934
49950.8
151.798
50044.1
455.063
49290.8
758.068
49167.5
1059.41
48780.7
1338.2
47099.3
1614.14
45125.9
1898.28
43587.3
2163.83
40616.7
2404.47
37129.8
2524.18
30155.1
2500.78
18323.4
2441.83
7142.92
1669.4
-12260
1097.04
-26662.4
1130.8
-22539.9
1099.24
-15223.8
820.491
-10842.1
198.969
-13495.9
585.818
15274.2
908.784
30253.6
1107.21
33085.6
1163.74
25931.2
1197.58
16462.3
1187.66
7049.83
1019.54
767.257
2273.64
-1575.62
3792.65
-23001.5
4253.18
-40349.2
4044.62
-41460.2
3626.99
-30477.5
2997.67
-14436
2147.32
1276.68
1488.8
10023.4
2268.66
6131.86
4566.25
-10284.4
5657.39
-23237
5502.84
-25281
4948.49
-25821.8
4607.73
-17054.4
4567.35
52241
4461.53
83957
4214.04
78258.2
3995.6
64173.9
3841.58
51515.4
3754.71
41105.3
3718.49
32493.1
3714.86
25173.8
3724.1
18716.9
3720.2
12807.3
3688.5
7231.29
3597.72
1993.85
3439.26
-3260.73
3169.61
-8649.33
2722.17
-11829.5
2347.94
-18349.6
1913.53
-38670.5
1306.29
-56729.7
1013.02
-68984.1
368.681
-81101.9
-99660.7
-1354.47
-10073.9
-1324.78
13863
-1660.37
19099.8
-2070.44
22948.8
-2454.95
26101.4
-2746.19
28815.5
-2910.44
31314.5
-2941.84
33678.1
-2864.58
35980.9
-2715.58
38127.1
-2529.75
40062.5
-2319.7
41871.8
-2066.87
43756.3
-1770.92
45583.3
-1430.63
46967.9
-1116.83
47303.6
-839.533
47746
-522.97
49144.4
-204.744
49632.6
118.68
49720.6
425.773
48983.8
732.631
48860.6
1039.18
48474.1
1324.82
46813.7
1608.42
44842.3
1901.56
43294.2
2179.92
40338.4
2436.13
36873.6
2568.81
30022.4
2545.79
18346.5
2479.76
7208.95
1782.8
-11563
1230.72
-26110.3
1241.5
-22550.6
1200.27
-15182.6
1026.38
-10668.2
250.824
-12720.3
620.615
14904.4
960.247
29914
1171.02
32874.9
1229.81
25872.4
1277.18
16415
1262.54
7064.47
1175.22
854.582
2485.38
-2885.79
3843.8
-24359.9
4188.18
-40693.6
3915.14
-41187.2
3482.47
-30044.8
2888.25
-13841.8
2068.31
2096.62
1552.33
10539.3
2567.49
5116.7
4711.37
-12428.3
5584.41
-24110
5381.71
-25078.3
4871.68
-25311.8
4573.84
-16756.6
4554.87
52260
4435.67
84076.2
4194.97
78498.9
3980.15
64388.7
3825.38
51670.1
3736.43
41194.3
3698.11
32531.4
3692.38
25179.5
3699.23
18710.1
3692.39
12814.2
3657.58
7266.09
3565.4
2086.03
3411.65
-3106.98
3144.55
-8382.24
2716.98
-11402
2384.33
-18016.9
1971.76
-38257.9
1389.09
-56147
1064.75
-68659.7
346.482
-80383.6
-98922
-1242.56
-10639.5
-1126.54
13747
-1470.62
19443.9
-1899.6
23377.8
-2311.2
26513
-2645.87
29150.2
-2861.27
31529.9
-2937.84
33754.7
-2889.04
35932.1
-2754.34
37992.4
-2576.46
39884.6
-2370.41
41665.7
-2118.84
43504.7
-1821.67
45286.2
-1480.55
46626.8
-1166.25
46989.3
-886.703
47466.5
-567.358
48825.1
-245.684
49310.9
81.7579
49393.2
392.9
48672.6
703.841
48549.7
1015.92
48162.1
1308.79
46520.8
1600.43
44550.7
1902.88
42991.8
2194.21
40047.1
2466.63
36601.2
2613.63
29875.4
2579
18381.1
2503.98
7283.98
1891.12
-10950.2
1359.57
-25578.7
1347.81
-22538.9
1299.87
-15134.7
1133.91
-10502.2
294.074
-11880.5
656.772
14541.7
1013.01
29557.8
1237.58
32650.3
1301.2
25808.8
1362.01
16354.2
1361.74
7064.74
1344.66
871.659
2670.75
-4211.87
3881.61
-25570.8
4108.98
-40920.9
3773.96
-40852.2
3341.11
-29612
2797.91
-13298.6
2021.67
2872.86
1673.65
10887.4
2866.73
3923.62
4796.08
-14357.6
5462.86
-24776.8
5241.83
-24857.3
4795.3
-24865.3
4539.66
-16500.9
4540.95
52258.7
4410.54
84206.6
4174.19
78735.2
3962.78
64600.1
3808.23
51824.7
3717.92
41284.6
3678
32571.3
3670.45
25187.1
3675.06
18705.5
3665.6
12823.6
3628.22
7303.48
3535.43
2178.82
3386.38
-2957.93
3120.31
-8116.16
2711.55
-10993.2
2424.06
-17729.4
2044.77
-37878.6
1493.39
-55595.6
1132.39
-68298.7
323.866
-79575.1
-97727.6
-1157.01
-11242
-939.355
13529.4
-1276.39
19780.9
-1726.41
23827.8
-2161.83
26948.4
-2532.41
29520.7
-2795.17
31792.7
-2920.32
33879.9
-2908.17
35920
-2794.13
37878.4
-2626.29
39716.7
-2424.7
41464.1
-2174.9
43254.9
-1876.96
44988.2
-1535.31
46285.1
-1220.62
46674.6
-938.649
47184.5
-616.3
48502.7
-290.878
48985.5
40.9024
49061.4
356.264
48357.2
671.499
48234.5
989.41
47844.2
1289.87
46220.4
1589.91
44250.6
1901.97
42679.7
2206.46
39742.6
2495.8
36311.9
2660.13
29711.1
2612.01
18429.2
2531.95
7364.03
2000.1
-10418.3
1484.28
-25062.9
1450.63
-22505.2
1401.46
-15085.5
1202.81
-10303.6
339.191
-11016.9
693.218
14187.6
1066.41
29184.6
1306.16
32410.5
1377.49
25737.5
1450.91
16280.7
1483.2
7032.46
1531.12
823.736
2838.22
-5518.97
3908.51
-26641.1
4019.44
-41031.9
3626.01
-40458.7
3207.14
-29193.1
2729.72
-12821.2
2018.99
3583.59
1837.68
11068.7
3138.67
2622.63
4822.2
-16041.1
5305.26
-25259.9
5085.43
-24637.5
4714.95
-24494.8
4502.06
-16288
4523.16
52237.6
4385.07
84344.7
4151.81
78968.5
3943.88
64808
3790.5
51978.1
3699.55
41375.6
3658.48
32612.4
3649.35
25196.2
3651.8
18703
3640.03
12835.4
3600.48
7343.03
3507.61
2271.69
3362.5
-2812.82
3095.53
-7849.18
2704.97
-10602.7
2465.3
-17489.8
2126.64
-37539.9
1608.73
-55077.7
1209.94
-67899.9
363.521
-78728.7
-96734.4
-1099.34
-11872.8
-776.76
13206.8
-1083.03
20087.2
-1548.28
24293.1
-2009.05
27409.1
-2410.22
29921.9
-2714.64
32097.1
-2888.1
34053.3
-2918.82
35950.7
-2832.85
37792.4
-2678.79
39562.7
-2482.46
41267.8
-2234.79
43007.2
-1936.62
44690
-1594.94
45943.5
-1280.01
46359.7
-995.467
46900
-669.923
48177.2
-340.459
48656.1
-4.04431
48725
315.672
48037.5
635.401
47914.7
959.432
47520.1
1267.82
45912
1576.56
43941.9
1898.55
42357.7
2216.42
39424.7
2523.4
36004.9
2708.62
29525.9
2660.37
18477.5
2584.09
7440.31
2115.11
-9949.32
1607.33
-24555.1
1549.84
-22447.7
1505.48
-15041.2
1248.34
-10046.4
379.969
-10148.5
728.689
13838.9
1119.78
28793.5
1376.03
32154.3
1458.01
25655.5
1542.96
16195.8
1617.1
6958.31
1724.89
715.951
2990.93
-6785.01
3927.6
-27577.8
3924.78
-41029.1
3477.29
-40011.3
3083.31
-28799.1
2683.81
-12421.7
2064.69
4202.71
2032.13
11101.2
3372.08
1282.68
4803.38
-17472.4
5125.14
-25581.6
4914.11
-24426.5
4625.08
-24205.8
4456
-16118.9
4498.81
52194.8
4357.99
84485.5
4127.93
79198.6
3923.9
65012.1
3772.68
52129.3
3681.73
41466.5
3639.83
32654.3
3629.24
25206.8
3629.57
18702.7
3615.68
12849.3
3574.24
7384.47
3481.47
2364.46
3338.84
-2670.19
3068.94
-7579.29
2696.71
-10230.4
2506.7
-17299.8
2212.21
-37245.4
1727.11
-54592.6
1287.8
-67460.6
321.926
-77762.8
-95564.9
-1044.39
-12556.3
-591.924
12754.3
-885.167
20380.4
-1366.84
24774.8
-1851.97
27894.3
-2282.05
30352
-2623.16
32438.2
-2841.98
34272.2
-2918.77
36027.5
-2867.9
37741.5
-2732.85
39427.6
-2543.51
41078.5
-2298.31
42762
-2000.49
44392.2
-1659.47
45602.4
-1344.52
46044.8
-1057.24
46612.7
-728.336
47848.3
-394.559
48322.3
-53.2502
48383.7
270.938
47713.3
595.347
47590.3
925.766
47189.7
1242.38
45595.4
1560.12
43624.1
1892.31
42025.5
2223.83
39093.2
2549.06
35679.7
2758.52
29316.4
2727.93
18508.1
2665.84
7502.41
2237.84
-9521.32
1729.88
-24047.2
1645.78
-22363.6
1608.87
-15004.3
1274.64
-9712.22
411.552
-9285.44
762.12
13488.3
1172.51
28383.1
1446.49
31880.3
1541.99
25560
1637.76
16100
1751.16
6844.92
1913.27
553.841
3132.07
-8003.81
3942.78
-28388.5
3831.67
-40917.9
3335.15
-39514.7
2971.78
-28435.8
2656.7
-12106.6
2150.64
4708.77
2244.73
11007.1
3567.88
-40.4715
4756.18
-18660.7
4935.82
-25761.2
4729.93
-24220.6
4519.94
-23995.8
4396
-15995
4464.54
52126.2
4327.71
84622.4
4102.57
79423.7
3903.27
65211.4
3755.18
52277.4
3664.8
41556.9
3622.25
32696.8
3610.2
25218.9
3608.34
18704.6
3592.41
12865.2
3549.13
7427.75
3456.21
2457.38
3314.05
-2528.03
3039.54
-7304.78
2686.76
-9877.65
2547.54
-17160.5
2297.61
-36995.5
1842.91
-54137.9
1369.89
-66987.6
388.283
-76781.2
-93977.7
-1018.28
-13298.2
-397.901
12133.9
-682.536
20665.1
-1183.05
25275.3
-1691.24
28402.4
-2149.15
30809.9
-2523.81
32812.8
-2784.09
34532.4
-2907.15
36150.5
-2896.68
37731.1
-2786.61
39317.6
-2607.33
40899.2
-2365.35
42520
-2068.39
44095.3
-1728.81
45262.9
-1414.17
45730.1
-1124.03
46322.5
-791.628
47515.9
-453.304
47984
-106.866
48037.3
221.902
47384.6
551.148
47261.1
888.191
46852.7
1213.3
45270.3
1540.31
43297.1
1882.97
41682.9
2228.4
38747.8
2572.33
35335.7
2808.83
29079.9
2809.61
18507.3
2769.9
7542.12
2367.57
-9118.99
1853.64
-23533.2
1739.75
-22249.8
1694.41
-14958.9
1274.94
-9292.76
430.736
-8441.23
792.763
13126.3
1224
27951.9
1516.9
31587.4
1628.64
25448.3
1735.34
15993.3
1879.7
6700.55
2091.8
341.744
3265.54
-9177.54
3958.43
-29081.4
3748.45
-40708
3208.52
-38974.8
2875.74
-28103
2644.36
-11875.2
2260.85
5092.28
2461.34
10806.6
3729.95
-1309.08
4688.6
-19619.4
4741.39
-25814
4534.29
-24013.5
4398.93
-23860.4
4321.24
-15917.3
4416.26
52031.2
4292.06
84746.6
4075.49
79640.3
3882.3
65404.5
3738.33
52421.3
3648.98
41646.2
3605.77
32740
3592.09
25232.5
3587.84
18708.8
3569.78
12883.3
3524.48
7473.06
3430.75
2551.11
3286.76
-2384.05
3006.71
-7024.73
2675.66
-9546.6
2587.83
-17072.7
2380.34
-36788
1951.75
-53709.4
1450.49
-66486.3
472.638
-75803.4
-92713.9
-1057.94
-14067
-258.55
11334.5
-489.806
20896.3
-995.28
25780.8
-1526.63
28933.8
-2012.08
31295.4
-2418.96
33219.7
-2717.2
34830.7
-2884.44
36317.8
-2917.11
37763.7
-2837.7
39238.2
-2672.83
40734.3
-2435.72
42282.9
-2140.21
43799.7
-1802.84
44925.5
-1488.98
45416.3
-1195.88
46029.4
-859.866
47179.9
-516.798
47640.9
-165.023
47685.5
168.425
47051.1
502.628
46926.9
846.494
46508.8
1180.34
44936.4
1516.86
42960.6
1870.2
41329.5
2229.81
38388.1
2592.65
34972.9
2858.29
28814.3
2898.21
18467.4
2885.27
7555.06
2502.19
-8735.92
1979.73
-23010.8
1832.53
-22102.5
1749.06
-14875.5
1257.09
-8800.79
437.337
-7621.48
820.392
12743.3
1273.75
27498.5
1586.63
31274.5
1717.2
25317.7
1835.7
15874.8
2004.6
6531.65
2262.84
83.5045
3394.46
-10309.2
3979.15
-29666
3685.09
-40413.9
3108.37
-38398.1
2800.63
-27795.3
2645.49
-11720.1
2380.5
5357.26
2669.28
10517.9
3860.21
-2500.01
4600.07
-20359.3
4538.24
-25752.2
4327
-23802.2
4263.85
-23797.3
4234.05
-15887.5
4349.89
51915.4
4248.28
84848.2
4046.05
79842.5
3861.05
65589.5
3722.29
52560.1
3634.29
41734.2
3590.23
32784.1
3574.58
25248.2
3567.56
18715.9
3547.1
12903.7
3499.33
7520.83
3403.73
2646.71
3255.76
-2236.08
2970.45
-6739.43
2664.49
-9240.63
2628.21
-17036.4
2459.38
-36619.2
2052.61
-53302.6
1524.77
-65958.5
470.61
-74749.2
-91278.4