/*--------------------------------*- C++ -*----------------------------------*\
| =========                 |                                                 |
| \\      /  F ield         | OpenFOAM: The Open Source CFD Toolbox           |
|  \\    /   O peration     | Version:  4.1                                   |
|   \\  /    A nd           | Web:      www.OpenFOAM.org                      |
|    \\/     M anipulation  |                                                 |
\*---------------------------------------------------------------------------*/
FoamFile
{
    version     2.0;
    format      ascii;
    class       volVectorField;
    location    "21";
    object      U;
}
// * * * * * * * * * * * * * * * * * * * * * * * * * * * * * * * * * * * * * //

dimensions      [0 1 -1 0 0 0 0];

internalField   nonuniform List<vector> 
6785
(
(1.11986e-13 -0.603304 16.107)
(1.05579e-13 -6.48736 12.4963)
(-1.93919e-14 -4.72143 12.8341)
(3.09285e-14 -4.18244 12.6154)
(1.14665e-14 -3.56585 12.4577)
(-1.16667e-14 -3.08901 12.249)
(2.77636e-14 -2.69862 12.0109)
(1.10419e-14 -2.4089 11.732)
(-4.81867e-15 -2.21397 11.4111)
(5.22587e-14 -2.08472 11.0616)
(9.52752e-15 -2.02974 10.6879)
(-9.40661e-15 -2.22106 10.2063)
(3.00022e-14 -2.57252 9.58231)
(-1.45852e-14 -1.75658 9.00715)
(-6.79813e-14 0.902687 6.84768)
(2.9336e-13 -7.36565 26.1775)
(1.21157e-13 -16.5742 21.8329)
(-4.41493e-15 -11.6816 22.3059)
(1.50342e-13 -11.8781 20.9335)
(5.83756e-15 -10.9416 19.9563)
(5.13627e-14 -10.2172 18.9307)
(1.51449e-13 -9.48582 17.9172)
(1.47083e-14 -8.78011 16.9014)
(7.48367e-14 -8.09988 15.8659)
(1.45444e-13 -7.43213 14.8468)
(3.52494e-14 -6.80161 13.9923)
(1.20248e-13 -6.35172 13.1657)
(2.10783e-13 -5.70723 11.0885)
(-8.94009e-14 -2.87035 5.86816)
(-1.594e-13 2.18813 -1.4059)
(1.2258e-13 -10.2032 28.2353)
(1.43808e-13 -17.7704 24.4072)
(-2.61009e-14 -12.0026 24.988)
(2.80223e-14 -12.8153 22.8557)
(3.28204e-14 -11.336 21.7189)
(-1.21281e-15 -10.5277 20.3138)
(-1.15129e-14 -9.63033 18.9745)
(5.10718e-14 -8.80102 17.6423)
(-3.1138e-15 -8.02666 16.3507)
(-1.04521e-13 -7.3253 15.1305)
(1.50489e-14 -6.58028 13.789)
(-4.65745e-14 -5.21863 11.2655)
(-3.94033e-13 -2.00839 5.562)
(-4.95697e-13 2.67881 -2.83782)
(-5.51008e-13 1.97037 -4.56904)
(2.09316e-13 -11.1055 27.2094)
(7.46445e-14 -17.7054 24.1336)
(-9.81448e-15 -11.785 24.5807)
(8.50172e-15 -13.5144 21.7805)
(-5.41335e-14 -11.5252 20.7995)
(8.9419e-14 -11.0487 19.0918)
(-9.96889e-14 -10.1376 17.6598)
(-1.0924e-13 -9.3934 16.1875)
(1.35191e-13 -8.67443 14.7762)
(-4.15444e-14 -8.02943 13.4414)
(-1.417e-13 -7.38598 12.0721)
(3.93649e-14 -6.31022 9.95966)
(-5.26361e-14 -3.91421 5.75048)
(-5.66862e-13 -0.924232 1.26655)
(-1.26636e-12 0.789539 -4.03773)
(1.52878e-13 -11.1971 25.6449)
(-8.09578e-14 -17.4858 24.5007)
(-4.25267e-14 -12.0368 24.1859)
(-4.29425e-14 -13.6383 21.2394)
(-3.00776e-13 -11.6735 20.2595)
(-4.24443e-14 -11.2159 18.4996)
(-1.32453e-13 -10.3436 17.011)
(-3.57782e-13 -9.56016 15.5003)
(-5.67527e-14 -8.78841 14.0152)
(-5.66291e-14 -8.04376 12.5906)
(-3.34699e-13 -7.33019 11.2251)
(-3.19027e-13 -6.44995 9.64061)
(-1.678e-13 -4.96116 7.00665)
(-6.76817e-13 -2.60021 3.78242)
(-1.66812e-12 -0.557937 -1.19346)
(2.28086e-13 -11.0331 24.1973)
(-7.30888e-14 -17.0626 24.6616)
(8.54055e-14 -12.1838 23.8565)
(2.03835e-14 -13.3492 20.9199)
(-2.82437e-13 -11.5219 19.916)
(-1.66458e-14 -11.0117 18.2033)
(-7.07207e-14 -10.1614 16.7132)
(-3.46306e-13 -9.3502 15.236)
(-1.22506e-13 -8.58191 13.8001)
(5.03875e-14 -7.8318 12.4502)
(-2.8186e-13 -7.11117 11.1591)
(-2.84516e-13 -6.30267 9.82927)
(-2.26922e-13 -5.28732 7.98875)
(-3.70345e-13 -3.50991 5.53927)
(2.52479e-13 -1.26141 0.423578)
(4.0951e-13 -10.9496 23.2789)
(-3.7787e-14 -16.5245 24.2102)
(3.07858e-13 -12.0169 23.4273)
(-4.39838e-15 -13.1225 20.4367)
(-2.52275e-13 -11.2082 19.5223)
(2.01383e-13 -10.8273 17.7537)
(3.22275e-16 -9.94218 16.3361)
(-1.98721e-13 -9.23836 14.97)
(1.61136e-13 -8.60476 13.715)
(1.07741e-13 -7.98393 12.5153)
(-3.73612e-14 -7.3695 11.3249)
(7.4858e-14 -6.68826 10.1994)
(3.54406e-14 -5.97019 8.93444)
(-3.20411e-13 -4.73241 7.28631)
(2.58155e-13 -2.68651 3.11827)
(2.6164e-13 -11.2502 23.0201)
(-1.41056e-14 -15.8488 23.5353)
(2.3517e-13 -11.7162 22.9854)
(-9.84931e-14 -12.924 19.9456)
(-1.78002e-13 -10.6958 19.1636)
(2.21254e-13 -10.5522 17.1977)
(-2.98838e-14 -9.43615 15.8619)
(-1.35847e-13 -8.82612 14.3533)
(2.29667e-13 -8.20026 13.0196)
(1.35509e-13 -7.74753 11.8591)
(8.60281e-14 -7.41524 11.0104)
(1.63685e-13 -7.11951 10.4899)
(2.2298e-13 -6.81371 10.0776)
(-1.24065e-13 -6.12417 9.26029)
(-6.3067e-14 -4.29667 6.16104)
(3.22007e-13 -11.9747 23.5544)
(-1.36704e-15 -15.3148 23.4363)
(7.04491e-14 -11.7621 22.8774)
(-8.69604e-14 -12.5779 20.1431)
(-8.54803e-14 -10.3755 19.2215)
(-3.0559e-14 -10.0434 17.1707)
(-5.8269e-14 -8.52475 15.4237)
(-1.45516e-13 -7.3779 12.9685)
(-2.8403e-13 -6.27602 10.9067)
(-4.05762e-13 -5.99604 9.9009)
(-5.23411e-13 -6.31786 10.031)
(-3.73889e-13 -6.92195 10.7494)
(1.91567e-13 -7.42806 11.5387)
(1.48842e-13 -7.49404 11.5957)
(-2.86139e-13 -5.57661 9.18949)
(2.60381e-13 -12.4665 24.0078)
(3.23099e-15 -15.7069 24.6693)
(-3.10463e-14 -12.0745 23.4128)
(-2.64273e-13 -12.6168 21.0459)
(-5.9814e-14 -10.4824 20.0275)
(-1.39275e-13 -9.94706 17.9542)
(-2.84727e-13 -8.05938 15.8248)
(-3.74459e-13 -6.26023 12.5589)
(-9.55866e-13 -4.33893 9.68211)
(-1.61662e-12 -3.40026 8.0201)
(-2.08082e-12 -3.29133 7.6387)
(-1.93883e-12 -4.11959 8.50888)
(-9.45447e-13 -5.68052 10.4512)
(9.0087e-14 -6.88514 11.9598)
(-1.10674e-13 -5.20465 9.74554)
(3.87597e-14 -12.2926 23.5095)
(5.75388e-14 -17.036 27.1521)
(-2.73086e-13 -13.1325 24.9543)
(-2.6018e-13 -13.4669 22.5252)
(2.02672e-14 -11.3633 21.5144)
(-4.35534e-13 -10.9817 19.6177)
(-2.85217e-13 -9.37613 17.864)
(-3.4336e-13 -7.73628 14.9702)
(-1.31666e-12 -5.19897 11.4427)
(-1.73333e-12 -3.445 8.72199)
(-2.79805e-12 -2.26666 6.84986)
(-4.23586e-12 -1.68193 5.71389)
(-4.45593e-12 -2.0036 5.82249)
(-3.51797e-12 -3.16798 7.15651)
(-7.6764e-13 -3.11855 7.1392)
(-2.47319e-14 -10.9115 20.4739)
(1.78409e-13 -17.1577 27.7232)
(-4.15747e-13 -14.018 25.7008)
(-2.16077e-13 -13.7598 22.8914)
(2.82749e-14 -11.9268 21.7117)
(-5.44758e-13 -11.5077 19.9352)
(-2.95803e-13 -10.2177 18.3246)
(-4.49209e-14 -9.0046 16.1592)
(-1.03838e-12 -6.95101 13.2466)
(-1.2667e-12 -4.85022 10.1471)
(-2.20831e-12 -2.95165 7.2831)
(-4.11406e-12 -1.07123 4.35302)
(-4.90971e-12 0.780728 1.53721)
(-5.29189e-12 0.926759 0.947739)
(-2.1068e-12 -0.617244 2.71532)
(-2.37056e-13 -11.3769 21.2822)
(1.47272e-13 -18.0898 29.8885)
(-3.20959e-13 -15.8113 28.2344)
(-4.31623e-13 -15.0351 25.2106)
(3.6453e-14 -13.2639 23.6259)
(-5.87355e-13 -12.6553 21.8027)
(-4.47146e-13 -11.4099 20.0508)
(3.12246e-13 -10.4499 18.2679)
(-9.47664e-13 -9.09782 16.2235)
(-9.85131e-13 -7.51526 13.698)
(-1.0056e-12 -5.97857 11.2714)
(-2.88323e-12 -4.4149 8.74236)
(-3.23042e-12 -2.62693 6.16382)
(-1.7214e-12 3.84284 -4.19771)
(-2.80449e-12 -1.57043 4.92837)
(-3.39066e-13 -5.98439 13.003)
(8.16886e-14 -14.1011 24.2846)
(-4.26947e-13 -11.9003 23.2935)
(-3.68113e-13 -11.0252 20.0062)
(-1.00264e-13 -9.74928 18.6036)
(-6.47831e-13 -9.16439 16.3125)
(-3.63109e-13 -8.31116 14.4574)
(5.233e-13 -7.66364 12.5204)
(-5.24828e-13 -6.71146 10.0603)
(-7.68078e-13 -5.67885 8.02583)
(-4.71833e-13 -4.05535 5.02091)
(-1.09424e-12 -2.12444 2.18513)
(-1.25805e-12 1.20654 -2.35401)
(-2.17645e-12 9.10205 -15.0273)
(-2.00408e-12 2.78694 -6.88778)
(-2.56649e-13 -27.7201 42.9785)
(-1.56042e-13 -21.6192 43.4476)
(-5.02943e-13 -17.6098 35.0238)
(-4.28722e-13 -15.751 32.0872)
(-3.98157e-13 -13.5875 27.5456)
(-3.91965e-13 -13.5814 25.9041)
(-9.86933e-14 -12.8918 24.1273)
(2.15439e-13 -14.2561 22.5426)
(-2.80822e-13 -14.6318 23.1295)
(-5.38887e-13 -15.0535 20.7624)
(-6.11841e-13 -16.0295 20.0979)
(-6.52258e-13 -17.609 21.0238)
(-7.13451e-13 -18.4568 21.6884)
(-8.44389e-13 -19.6093 24.6688)
(-1.34521e-12 -18.6272 25.3505)
(5.37465e-16 1.10136 0.685697)
(1.75645e-14 -2.73893 7.21065)
(1.98051e-14 -2.40273 4.38957)
(2.00474e-14 -2.53634 4.73303)
(2.08734e-14 -2.40598 4.73925)
(3.06686e-14 -4.56783 6.56498)
(2.32998e-14 -4.85457 3.33786)
(2.20415e-14 -4.95776 3.72785)
(1.98489e-14 -4.7744 3.71275)
(1.99601e-14 -7.45582 5.16906)
(1.21572e-15 -6.90275 2.33816)
(3.25102e-15 -6.58467 2.74132)
(3.21503e-15 -9.31978 3.74157)
(3.14042e-15 -8.62399 1.43047)
(3.91584e-15 -8.81742 1.71428)
(4.79187e-15 -8.31224 1.67619)
(7.32802e-15 -11.7262 2.43587)
(5.89124e-15 -10.1662 0.467291)
(3.63293e-15 -9.74031 0.720138)
(6.4615e-15 -12.9455 1.11061)
(4.84808e-15 -11.5706 -0.334661)
(5.09509e-15 -11.8215 -0.134773)
(4.72922e-15 -10.9297 -0.170585)
(1.55954e-15 -14.6205 0.0277673)
(1.28403e-15 -12.712 -1.09346)
(4.55244e-16 -12.939 -0.925631)
(-2.16968e-16 -12.0625 -0.947834)
(2.33593e-15 -16.1899 -1.11957)
(1.8107e-16 -13.5742 -1.86293)
(2.10838e-15 -13.0204 -1.75875)
(1.58043e-15 -16.6253 -2.1641)
(1.79065e-15 -14.447 -2.47119)
(4.76953e-15 -14.6361 -2.37417)
(5.67249e-15 -13.6017 -2.39909)
(1.34383e-14 -17.7887 -3.07872)
(1.12507e-14 -14.7455 -3.10365)
(1.40543e-14 -14.1014 -3.10931)
(2.14189e-14 -17.49 -4.01202)
(1.77839e-14 -15.034 -3.59174)
(2.03717e-14 -15.2445 -3.52639)
(2.1903e-14 -13.9741 -3.51374)
(2.73991e-14 -17.6054 -4.49821)
(2.17008e-14 -14.8572 -3.89859)
(2.32175e-14 -15.0362 -3.82303)
(2.35962e-14 -13.8736 -3.77385)
(3.0633e-14 -17.577 -4.95198)
(2.18287e-14 -14.5089 -4.23326)
(2.41469e-14 -13.7669 -4.2618)
(2.74972e-14 -16.5427 -5.6175)
(1.79643e-14 -14.181 -4.65256)
(1.42191e-14 -14.303 -4.59645)
(1.27546e-14 -13.0364 -4.56173)
(1.41317e-14 -15.8646 -6.09986)
(9.1849e-15 -13.4151 -5.03851)
(9.12048e-15 -13.4692 -4.99735)
(9.16444e-15 -12.3242 -4.96011)
(9.72146e-15 -15.0325 -6.75117)
(7.88747e-15 -12.5498 -5.57185)
(8.61293e-15 -11.7266 -5.65853)
(1.46031e-14 -13.5526 -7.67451)
(7.97986e-15 -11.6914 -6.25865)
(6.37869e-15 -11.5531 -6.24728)
(3.40639e-15 -10.5091 -6.25362)
(-2.90101e-15 -12.152 -8.73972)
(-1.48573e-14 -10.3654 -7.09359)
(-1.71913e-14 -9.48181 -7.24453)
(-2.73041e-14 -10.1989 -9.9606)
(-2.55302e-14 -8.92272 -7.83079)
(-2.28709e-14 -8.55205 -7.71288)
(-2.28938e-14 -7.70242 -7.63457)
(-2.66344e-14 -7.57597 -10.9952)
(-2.10604e-14 -6.7858 -8.75414)
(-1.64989e-14 -6.25667 -8.8767)
(-1.24951e-14 -5.45774 -8.80368)
(-2.10286e-14 -4.0749 -12.4757)
(1.02135e-14 -4.54228 -9.34111)
(5.89185e-15 -3.06704 -9.51898)
(-9.05723e-15 -0.474178 -12.8999)
(-4.52019e-14 -2.66755 -6.63742)
(-1.32468e-13 3.66459 0.351707)
(-7.55768e-13 -2.19355 26.102)
(-7.88394e-13 -0.767465 27.4552)
(-8.50463e-13 0.465267 30.7525)
(-3.3318e-13 11.3309 12.0764)
(-4.39214e-13 2.85611 10.9941)
(-3.75654e-13 4.11728 10.3942)
(-3.16087e-13 4.7263 9.77229)
(-2.91841e-13 4.61191 9.17868)
(-2.76886e-13 4.76322 8.54163)
(-2.65133e-13 5.09102 7.97869)
(-2.50328e-13 5.17934 6.95702)
(-2.26256e-13 6.0987 6.14384)
(-6.1082e-14 13.5725 -6.39635)
(-1.15784e-13 8.22002 -4.05749)
(-1.00549e-13 9.4917 -5.03114)
(-7.62998e-14 9.77718 -6.32078)
(-5.3446e-14 9.82377 -7.83676)
(-4.50495e-14 10.1424 -9.04823)
(-4.83074e-14 10.5303 -10.4465)
(-2.99095e-14 11.0048 -14.5439)
(-1.23252e-14 11.5448 -16.1004)
(1.05673e-13 17.1214 -26.3002)
(-1.731e-14 13.3483 -19.8995)
(-3.52443e-14 15.0344 -19.4214)
(-4.35217e-14 15.0752 -18.9398)
(-4.78074e-14 15.2666 -18.4133)
(-4.74559e-14 15.7387 -17.8246)
(-3.43737e-14 16.1628 -17.5849)
(-3.13759e-14 16.434 -17.2522)
(-3.31706e-14 16.8478 -17.0971)
(-5.62252e-14 17.2165 -15.6925)
(3.81472e-14 23.2928 -25.005)
(-3.38679e-14 19.5167 -16.5681)
(-5.21411e-14 21.0827 -15.6605)
(-6.76199e-14 21.2869 -14.9745)
(-8.26372e-14 21.3905 -14.3177)
(-1.05128e-13 21.8252 -13.6535)
(-8.00629e-14 22.1605 -12.9992)
(-6.58295e-14 22.537 -12.6773)
(-8.83841e-14 22.6827 -11.0932)
(-8.99053e-14 29.4207 -20.6058)
(-7.44371e-14 25.5079 -12.5474)
(-9.40542e-14 27.081 -11.4794)
(-1.18324e-13 27.3503 -10.3906)
(-1.25421e-13 27.3503 -9.35067)
(-1.33598e-13 27.7654 -8.28591)
(-1.54071e-13 28.0118 -7.0039)
(-1.55362e-13 28.4108 -6.20194)
(-2.20178e-13 28.2919 -3.72715)
(-1.70676e-13 35.8736 -13.3159)
(-2.25939e-13 31.7791 -4.65932)
(-2.29442e-13 33.3237 -3.21629)
(-2.26272e-13 33.555 -1.84656)
(-2.32024e-13 33.5506 -0.275245)
(-2.4243e-13 33.9347 1.28896)
(-2.54757e-13 34.1056 2.9009)
(-2.60224e-13 34.4827 4.12338)
(-2.74766e-13 34.1823 6.56932)
(-2.04439e-13 43.2554 -3.01171)
(-2.60604e-13 38.4352 6.37417)
(-2.62977e-13 40.0755 7.96319)
(-2.66411e-13 40.2578 9.50482)
(-2.6972e-13 40.1822 11.0699)
(-2.78615e-13 40.5531 12.3801)
(-3.03397e-13 40.7541 14.2208)
(-3.21335e-13 40.8389 15.7735)
(-3.33383e-13 41.2468 16.8748)
(-3.57689e-13 40.7 18.9743)
(-2.95708e-13 51.9085 9.06403)
(-3.38394e-13 45.9241 18.5525)
(-3.33078e-13 47.6728 20.2903)
(-3.44057e-13 47.8646 21.559)
(-3.59435e-13 47.7082 22.6747)
(-3.74684e-13 48.1147 23.6701)
(-3.9148e-13 48.2614 24.6052)
(-4.11166e-13 48.7268 25.2522)
(-4.12983e-13 48.2916 26.7275)
(-3.9965e-13 62.5669 16.2252)
(-4.03048e-13 53.7701 24.2992)
(-3.95583e-13 56.5899 25.5021)
(-3.10546e-13 53.4343 17.9864)
(-3.52525e-13 54.9158 17.5417)
(-3.86082e-13 65.8162 16.8143)
(-2.53442e-13 49.4015 11.4393)
(-3.24747e-13 71.5996 11.5426)
(-2.31546e-13 53.8466 8.4905)
(-2.67782e-13 61.1167 7.41762)
(-2.94897e-13 70.6139 5.71482)
(-2.03374e-13 55.8237 4.22795)
(-2.33761e-13 67.9448 2.73817)
(-2.68142e-13 78.5156 1.39104)
(-1.81871e-13 57.1603 1.21599)
(-2.47973e-13 84.8516 -0.589034)
(-1.87636e-13 64.2736 0.0871284)
(-2.29592e-13 72.9944 -1.43618)
(-2.88155e-13 85.583 -1.65948)
(-2.01418e-13 63.2094 -0.505764)
(-2.87947e-13 93.6521 -1.67625)
(-2.23581e-13 70.3025 -0.35563)
(-2.79494e-13 80.7861 -1.40358)
(-3.50054e-13 90.7771 -0.60039)
(-2.54523e-13 70.7244 0.726359)
(-3.16011e-13 87.3213 0.32324)
(-4.01947e-13 98.1905 1.93744)
(-2.79863e-13 70.4757 2.02564)
(-4.00041e-13 104.147 2.54097)
(-3.06303e-13 77.8868 2.85205)
(-3.82545e-13 88.1506 2.92709)
(-4.79352e-13 100.851 5.384)
(-3.32481e-13 73.4386 4.36095)
(-4.72011e-13 107.944 6.05167)
(-3.57764e-13 79.9066 5.43926)
(-4.45087e-13 91.1646 6.16577)
(-5.45957e-13 100.634 9.26749)
(-3.86209e-13 77.0536 7.49609)
(-4.74444e-13 94.9236 8.9344)
(-5.74725e-13 104.679 12.6008)
(-3.90571e-13 74.1013 8.99401)
(-5.37946e-13 108.464 12.2341)
(-3.96183e-13 79.9046 9.60746)
(-4.83713e-13 90.0388 11.2364)
(-5.67275e-13 100.812 14.6869)
(-3.7929e-13 72.5214 10.1286)
(-5.13646e-13 105.803 13.4148)
(-3.72673e-13 77.235 10.164)
(-4.50412e-13 87.7526 11.6055)
(-5.19742e-13 95.1138 14.3312)
(-3.52747e-13 71.8586 10.1787)
(-4.22108e-13 88.677 11.7106)
(-4.83097e-13 96.052 14.3528)
(-3.17432e-13 67.2124 9.53679)
(-4.2269e-13 98.4219 12.1189)
(-3.00749e-13 71.7281 8.86942)
(-3.59579e-13 80.9347 9.9312)
(-4.07509e-13 89.5955 11.8108)
(-2.65071e-13 63.8421 7.7307)
(-3.50318e-13 93.863 9.38972)
(-2.46497e-13 67.98 6.68203)
(-2.93423e-13 77.6248 6.95299)
(-3.27124e-13 83.838 7.44295)
(-2.15312e-13 63.0575 4.83988)
(-2.53776e-13 78.6376 4.6291)
(-2.83003e-13 85.5122 4.31301)
(-1.81636e-13 59.5079 2.34159)
(-2.41146e-13 89.1469 1.06737)
(-1.68543e-13 65.0626 0.200877)
(-2.0143e-13 74.2631 -1.38296)
(-2.3189e-13 83.6007 -2.87555)
(-1.49128e-13 59.6399 -2.41565)
(-2.03012e-13 90.235 -5.18347)
(-1.43362e-13 65.8501 -4.15868)
(-1.74732e-13 76.462 -6.59341)
(-2.02255e-13 84.0553 -8.39124)
(-1.34589e-13 63.8665 -5.8473)
(-1.64274e-13 81.082 -8.20422)
(-1.93179e-13 89.6778 -9.79838)
(-1.25286e-13 62.744 -6.74315)
(-1.74098e-13 96.3108 -10.5512)
(-1.21487e-13 70.1242 -7.56752)
(-1.59716e-13 84.2891 -11.7173)
(-2.17314e-16 7.78429 19.1791)
(-3.14197e-16 -15.5799 19.0173)
(-3.34654e-16 -21.0902 19.8508)
(-3.70543e-16 -26.7464 20.0985)
(-4.02698e-16 -32.1048 20.3336)
(-4.36355e-16 -37.0689 20.1943)
(-4.6473e-16 -41.5776 19.845)
(-4.86549e-16 -45.7949 19.2843)
(-5.01395e-16 -49.8613 18.4697)
(-5.08607e-16 -53.5983 17.3214)
(-5.06547e-16 -56.682 15.8704)
(-4.94597e-16 -59.2478 14.3487)
(-4.75364e-16 -62.323 12.9442)
(-4.5132e-16 -65.3535 10.9741)
(-4.20234e-16 -67.9494 9.10392)
(-3.85982e-16 -68.046 6.48265)
(-3.43326e-16 -67.9991 4.9767)
(-2.96065e-16 -70.4661 2.97786)
(-2.47422e-16 -71.128 0.921685)
(-1.98473e-16 -71.2969 -1.04691)
(-1.52401e-16 -70.045 -3.11856)
(-1.12307e-16 -69.8797 -4.79889)
(-7.62527e-17 -69.2698 -6.86151)
(-4.48586e-17 -66.6195 -8.42262)
(-2.42253e-17 -63.8825 -10.0398)
(-2.34802e-17 -61.8216 -11.4317)
(-5.59396e-17 -57.2758 -12.9125)
(-1.22478e-16 -52.0333 -13.536)
(-2.78115e-16 -40.7138 -14.2289)
(-2.56877e-16 -22.8244 -12.6804)
(-2.6238e-17 -6.22448 -12.0404)
(-8.48893e-16 31.3226 -5.86188)
(-3.07821e-15 43.4954 2.26663)
(-3.92593e-15 28.3222 2.08554)
(-4.43535e-15 21.2122 4.69156)
(-4.987e-15 21.9581 1.51996)
(-5.46741e-15 14.2044 -0.00692087)
(-5.60086e-15 -25.2271 -1.97612)
(-5.19639e-15 -44.0105 -2.96513)
(-4.40043e-15 -46.6108 -4.4179)
(-3.3127e-15 -35.619 -5.00028)
(-2.27408e-15 -22.3854 -5.76979)
(-1.82182e-15 -9.85732 -6.14832)
(-1.69701e-15 -0.127882 -6.97585)
(-1.64649e-15 -8.98806 -8.90648)
(-1.93838e-15 5.89108 -13.458)
(-1.93581e-15 41.9836 -23.8508)
(-1.19085e-15 54.3228 -26.7252)
(-6.24324e-16 43.8932 -27.2458)
(-4.01051e-16 26.5578 -25.9371)
(-3.28992e-16 9.78249 -23.0719)
(-1.50573e-16 -5.44449 -18.1874)
(-9.0804e-17 -7.15813 -16.5144)
(-9.51743e-17 -5.84649 -12.8776)
(-9.71842e-17 6.86307 -19.901)
(-8.15237e-17 25.3492 -33.0752)
(-4.43513e-17 40.3968 -39.7557)
(-2.22474e-17 31.307 -31.6687)
(-1.34081e-18 -69.7201 -30.7062)
(9.63855e-19 -110.794 -31.2144)
(1.83698e-19 -99.9943 -29.0816)
(5.00813e-20 -82.2801 -27.5055)
(7.12917e-20 -66.6579 -26.5132)
(8.25175e-20 -53.739 -25.962)
(6.50023e-20 -42.9613 -25.7747)
(6.80077e-20 -33.6581 -25.8525)
(3.76946e-19 -25.2391 -26.0709)
(-2.72823e-19 -17.2507 -26.3173)
(-1.54762e-19 -9.52678 -26.4989)
(1.41409e-17 -1.83723 -26.5847)
(-3.22156e-17 6.34905 -26.5274)
(3.95814e-17 15.4827 -25.9096)
(1.12429e-16 23.8275 -23.4913)
(-2.20199e-16 31.4676 -17.4624)
(-3.67343e-15 54.4271 -16.6914)
(-5.44437e-15 80.2055 -21.1578)
(1.52742e-15 97.5154 -20.9067)
(6.1075e-16 119.577 -10.5801)
(-1.79987e-13 136.112 -1.00071)
(-2.31814e-16 8.09844 18.0299)
(-3.19988e-16 -16.7598 18.473)
(-3.37909e-16 -21.7748 19.8289)
(-3.73335e-16 -27.4013 20.0012)
(-4.05177e-16 -32.6926 20.271)
(-4.38265e-16 -37.5135 20.1888)
(-4.66079e-16 -41.9013 19.8538)
(-4.87423e-16 -46.004 19.2964)
(-5.01864e-16 -49.9399 18.4869)
(-5.08696e-16 -53.5342 17.3425)
(-5.06295e-16 -56.5031 15.8945)
(-4.94143e-16 -59.0136 14.3766)
(-4.74863e-16 -61.9957 12.96)
(-4.50768e-16 -64.9291 11.0028)
(-4.19755e-16 -67.3983 9.13381)
(-3.85531e-16 -67.4627 6.52848)
(-3.4295e-16 -67.4399 5.00694)
(-2.95829e-16 -69.8294 3.007)
(-2.47345e-16 -70.4577 0.95574)
(-1.98554e-16 -70.6014 -1.01229)
(-1.52616e-16 -69.3491 -3.08431)
(-1.1261e-16 -69.1696 -4.77401)
(-7.66302e-17 -68.5711 -6.83756)
(-4.52563e-17 -65.9635 -8.4077)
(-2.44578e-17 -63.241 -10.0318)
(-2.32218e-17 -61.2096 -11.4498)
(-5.47237e-17 -56.7984 -12.9581)
(-1.19666e-16 -51.7045 -13.6447)
(-2.73053e-16 -40.7705 -14.4294)
(-2.63592e-16 -23.4134 -12.9368)
(-3.87771e-17 -7.76122 -12.5658)
(-7.08061e-16 28.8519 -7.23529)
(-2.88328e-15 42.2699 1.36665)
(-3.82002e-15 28.029 0.0564743)
(-4.37813e-15 20.7027 3.54726)
(-4.97917e-15 21.5763 1.78396)
(-5.46063e-15 14.9049 0.0589748)
(-5.60171e-15 -24.0535 -2.04119)
(-5.20168e-15 -43.3969 -3.11018)
(-4.4108e-15 -46.2432 -4.56191)
(-3.3318e-15 -35.4819 -5.11732)
(-2.29998e-15 -22.3531 -5.8042)
(-1.83925e-15 -9.93845 -6.05603)
(-1.71819e-15 0.423584 -6.26909)
(-1.63575e-15 -7.91109 -8.06287)
(-2.00453e-15 8.34459 -14.2531)
(-1.95833e-15 43.8647 -25.2641)
(-1.13761e-15 54.8375 -27.9771)
(-5.60509e-16 43.7615 -28.3803)
(-3.54539e-16 25.9297 -27.0802)
(-3.05645e-16 8.29523 -23.5765)
(-1.73946e-16 -5.57184 -18.6163)
(-9.79914e-17 -7.50201 -17.1227)
(-9.19027e-17 -5.77045 -12.9041)
(-9.20631e-17 10.3769 -23.1489)
(-7.57004e-17 28.3403 -35.3493)
(-3.80185e-17 40.1651 -39.8679)
(-1.77692e-17 29.2684 -31.224)
(-1.68044e-18 -68.2061 -30.4738)
(9.92748e-19 -110.828 -31.6075)
(2.22623e-19 -100.65 -29.2402)
(4.94362e-20 -82.7767 -27.5066)
(6.91346e-20 -66.9959 -26.4826)
(8.23567e-20 -53.9614 -25.9267)
(6.59746e-20 -43.0923 -25.7306)
(6.29019e-20 -33.7265 -25.7998)
(3.65513e-19 -25.2735 -26.0085)
(-2.16988e-19 -17.2715 -26.2444)
(-4.61604e-19 -9.54132 -26.4021)
(1.24804e-17 -1.80306 -26.4779)
(-2.60402e-17 6.28682 -26.1808)
(-5.74401e-18 15.0317 -25.1793)
(2.17686e-16 22.5364 -22.614)
(-1.62721e-16 30.4722 -16.4519)
(-4.82669e-15 55.0502 -15.5127)
(-5.18266e-15 80.8653 -18.3458)
(2.53014e-15 95.9862 -17.8049)
(5.83604e-15 116.488 -11.1687)
(-1.80583e-13 136.442 -0.81869)
(-2.4512e-16 8.28132 17.432)
(-3.28542e-16 -16.8653 17.5246)
(-3.42252e-16 -21.7003 19.6054)
(-3.76698e-16 -27.2804 19.9006)
(-4.08343e-16 -32.5456 20.1568)
(-4.40681e-16 -37.3122 20.154)
(-4.67748e-16 -41.6649 19.8676)
(-4.88502e-16 -45.7328 19.3235)
(-5.02439e-16 -49.6201 18.5222)
(-5.08791e-16 -53.1603 17.3851)
(-5.05967e-16 -56.1068 15.9424)
(-4.93572e-16 -58.6375 14.4315)
(-4.74232e-16 -61.5831 13.003)
(-4.50077e-16 -64.4752 11.0599)
(-4.19154e-16 -66.8854 9.18538)
(-3.84964e-16 -67.0059 6.59427)
(-3.42478e-16 -67.0662 5.05909)
(-2.95532e-16 -69.4011 3.05943)
(-2.47244e-16 -70.0392 1.00966)
(-1.98648e-16 -70.1891 -0.960883)
(-1.52876e-16 -68.9769 -3.0355)
(-1.1298e-16 -68.8034 -4.73673)
(-7.70937e-17 -68.2213 -6.80453)
(-4.57468e-17 -65.6676 -8.3899)
(-2.47506e-17 -62.9656 -10.0246)
(-2.29187e-17 -60.9427 -11.4776)
(-5.32505e-17 -56.608 -13.0228)
(-1.16228e-16 -51.5815 -13.7894)
(-2.66701e-16 -40.8329 -14.6825)
(-2.7092e-16 -23.5799 -13.2343)
(-5.67007e-17 -8.16896 -13.096)
(-6.47231e-16 27.719 -8.11738)
(-2.76936e-15 41.7189 0.795575)
(-3.72447e-15 28.2308 -1.0602)
(-4.25531e-15 20.4998 0.327017)
(-4.91606e-15 21.4835 0.890658)
(-5.44814e-15 13.2858 -0.657473)
(-5.60272e-15 -23.9471 -2.18344)
(-5.20831e-15 -43.203 -3.2688)
(-4.42397e-15 -46.0516 -4.73525)
(-3.35593e-15 -35.3511 -5.26743)
(-2.33256e-15 -22.2344 -5.86778)
(-1.8629e-15 -9.83357 -5.9659)
(-1.74853e-15 0.186668 -6.14125)
(-1.62013e-15 -6.97748 -6.94748)
(-2.06227e-15 10.0385 -14.8315)
(-1.96045e-15 44.9428 -25.9313)
(-1.09031e-15 55.0748 -28.4712)
(-5.13992e-16 43.6806 -28.6994)
(-3.22618e-16 25.5564 -27.2727)
(-2.86013e-16 7.60992 -23.5715)
(-1.86895e-16 -6.44047 -18.5952)
(-1.06123e-16 -8.06795 -17.3082)
(-8.88562e-17 -4.7971 -13.3652)
(-8.91835e-17 12.2533 -24.9702)
(-7.30126e-17 29.351 -36.3861)
(-3.54656e-17 39.7421 -39.4694)
(-1.58947e-17 29.0785 -32.4757)
(-1.98259e-18 -68.6664 -30.3517)
(1.005e-18 -111.041 -31.9022)
(2.69076e-19 -101.035 -29.3595)
(5.01674e-20 -83.0092 -27.5145)
(6.62801e-20 -67.1025 -26.4462)
(8.20228e-20 -53.9832 -25.8789)
(6.7231e-20 -43.051 -25.6696)
(5.70032e-20 -33.6465 -25.7266)
(3.51001e-19 -25.1807 -25.9224)
(-1.53416e-19 -17.1913 -26.1455)
(-8.06749e-19 -9.48817 -26.2764)
(1.1384e-17 -1.87396 -26.3171)
(-1.57561e-17 6.08938 -25.8591)
(-3.20431e-17 14.7025 -24.725)
(2.4012e-16 21.8583 -22.251)
(-1.18016e-16 29.8383 -16.3285)
(-5.10065e-15 54.9549 -15.2333)
(-4.11857e-15 80.8377 -16.7048)
(2.97303e-15 95.6793 -15.0572)
(5.27141e-15 115.489 -10.3438)
(-1.82941e-13 136.28 -0.683979)
(-2.61374e-16 8.6533 16.7483)
(-3.38391e-16 -16.9392 16.467)
(-3.47695e-16 -21.7228 19.0522)
(-3.80075e-16 -27.2116 19.7469)
(-4.11621e-16 -32.4121 20.0411)
(-4.43301e-16 -37.1302 20.0944)
(-4.69515e-16 -41.4501 19.8757)
(-4.89618e-16 -45.4834 19.3646)
(-5.03028e-16 -49.3286 18.5741)
(-5.08872e-16 -52.8255 17.4448)
(-5.05603e-16 -55.757 16.0111)
(-4.92958e-16 -58.3054 14.5102)
(-4.73557e-16 -61.2236 13.0703)
(-4.49341e-16 -64.0858 11.1385)
(-4.18514e-16 -66.4513 9.25339)
(-3.8436e-16 -66.6232 6.67539)
(-3.41974e-16 -66.7559 5.12886)
(-2.95212e-16 -69.0489 3.12892)
(-2.47129e-16 -69.7002 1.07772)
(-1.98738e-16 -69.857 -0.897483)
(-1.53141e-16 -68.68 -2.97691)
(-1.13361e-16 -68.5127 -4.6905)
(-7.75736e-17 -67.944 -6.7641)
(-4.62578e-17 -65.434 -8.36899)
(-2.50634e-17 -62.7464 -10.0176)
(-2.26226e-17 -60.7244 -11.5073)
(-5.17487e-17 -56.441 -13.092)
(-1.12685e-16 -51.4573 -13.9423)
(-2.59943e-16 -40.8565 -14.9453)
(-2.77519e-16 -23.6987 -13.5792)
(-7.779e-17 -8.43029 -13.6835)
(-5.71574e-16 26.0104 -9.17973)
(-2.63555e-15 40.9671 -0.0855952)
(-3.63294e-15 28.4043 -1.86716)
(-4.15768e-15 20.6642 -2.06886)
(-4.81927e-15 21.9735 -0.200628)
(-5.4386e-15 13.8869 -0.220682)
(-5.60378e-15 -23.9013 -2.34152)
(-5.21546e-15 -43.0362 -3.42534)
(-4.43822e-15 -45.8843 -4.91655)
(-3.38188e-15 -35.2368 -5.43886)
(-2.36742e-15 -22.1447 -5.96703)
(-1.88993e-15 -9.71833 -5.9265)
(-1.78778e-15 0.208816 -6.34796)
(-1.59993e-15 -6.19002 -5.90479)
(-2.13354e-15 12.2824 -15.4937)
(-1.95689e-15 46.2751 -26.6582)
(-1.03047e-15 55.3641 -29.0005)
(-4.5962e-16 43.5243 -29.026)
(-2.8855e-16 24.9902 -27.3822)
(-2.63904e-16 6.79572 -23.187)
(-1.88434e-16 -7.15886 -18.0868)
(-1.11671e-16 -8.55132 -16.8982)
(-8.84158e-17 -3.84778 -13.4148)
(-8.74284e-17 14.8902 -26.759)
(-6.9677e-17 30.8887 -37.5105)
(-3.21109e-17 39.3859 -39.2024)
(-1.36856e-17 27.6769 -33.0981)
(-2.15199e-18 -68.9765 -30.274)
(9.92107e-19 -111.176 -32.0074)
(3.13521e-19 -101.424 -29.4207)
(5.27083e-20 -83.2639 -27.5324)
(6.31818e-20 -67.236 -26.414)
(8.14877e-20 -54.0403 -25.8279)
(6.85962e-20 -43.0519 -25.5998)
(5.15005e-20 -33.6115 -25.6403)
(3.34182e-19 -25.1331 -25.8199)
(-7.97745e-20 -17.1553 -26.0278)
(-1.15303e-18 -9.48009 -26.1259)
(1.00821e-17 -1.90546 -26.1073)
(-6.78776e-18 5.94651 -25.5362)
(-5.54904e-17 14.3215 -24.2871)
(2.83955e-16 20.9661 -21.8194)
(-1.57217e-16 29.1128 -16.0839)
(-5.48074e-15 55.0079 -14.8448)
(-2.80709e-15 80.7511 -15.0596)
(3.85332e-15 94.9166 -12.6446)
(5.74308e-15 114.024 -9.72322)
(-1.85913e-13 136.296 -1.45211)
(-2.80011e-16 9.02492 16.0229)
(-3.49353e-16 -17.2527 15.3977)
(-3.54408e-16 -22.0875 18.2023)
(-3.83742e-16 -27.4263 19.4122)
(-4.14739e-16 -32.5021 19.9114)
(-4.45956e-16 -37.1557 20.0284)
(-4.71374e-16 -41.4263 19.8717)
(-4.90744e-16 -45.399 19.4144)
(-5.03601e-16 -49.1774 18.6467)
(-5.08932e-16 -52.6081 17.5274)
(-5.05211e-16 -55.5006 16.1066)
(-4.92317e-16 -58.0428 14.6181)
(-4.72854e-16 -60.9173 13.1669)
(-4.48582e-16 -63.7332 11.2437)
(-4.17851e-16 -66.0354 9.34549)
(-3.83734e-16 -66.2339 6.77989)
(-3.41451e-16 -66.4203 5.22134)
(-2.94875e-16 -68.6637 3.21922)
(-2.47001e-16 -69.3147 1.16419)
(-1.98818e-16 -69.4672 -0.817786)
(-1.53399e-16 -68.3118 -2.9048)
(-1.13738e-16 -68.143 -4.63292)
(-7.80522e-17 -67.5832 -6.71444)
(-4.67712e-17 -65.1108 -8.34299)
(-2.53861e-17 -62.4326 -10.0104)
(-2.23462e-17 -60.4125 -11.5394)
(-5.02735e-17 -56.1874 -13.1675)
(-1.09161e-16 -51.2588 -14.1086)
(-2.52996e-16 -40.8537 -15.2222)
(-2.83135e-16 -23.8844 -13.9804)
(-9.976e-17 -8.73571 -14.2897)
(-5.04713e-16 24.5105 -10.2191)
(-2.50136e-15 40.2982 -1.12374)
(-3.53259e-15 28.6868 -2.78802)
(-4.07232e-15 20.1475 -4.14939)
(-4.71128e-15 21.0835 -1.47473)
(-5.44008e-15 14.6177 1.70477)
(-5.60509e-15 -23.6428 -2.47973)
(-5.22298e-15 -42.7603 -3.59883)
(-4.45326e-15 -45.6801 -5.12154)
(-3.40903e-15 -35.1385 -5.64327)
(-2.40375e-15 -22.1117 -6.10346)
(-1.91922e-15 -9.66421 -5.94881)
(-1.83318e-15 0.303397 -6.62028)
(-1.57574e-15 -5.42191 -5.10413)
(-2.21281e-15 14.6273 -16.2425)
(-1.94093e-15 47.5118 -27.2594)
(-9.60474e-16 55.585 -29.3341)
(-4.03081e-16 43.3326 -29.0979)
(-2.55716e-16 24.4247 -27.2274)
(-2.42209e-16 5.81 -22.5133)
(-1.82361e-16 -7.79248 -17.2366)
(-1.13323e-16 -9.05183 -15.9613)
(-9.04073e-17 -2.8237 -12.9296)
(-8.61784e-17 17.3364 -28.5121)
(-6.63388e-17 31.9406 -38.4573)
(-2.90672e-17 38.9298 -38.7086)
(-1.1608e-17 26.8979 -33.2552)
(-2.19204e-18 -68.9716 -30.2223)
(9.60046e-19 -111.266 -31.9818)
(3.52408e-19 -101.879 -29.4366)
(5.68969e-20 -83.5861 -27.5462)
(6.00667e-20 -67.4219 -26.3772)
(8.07402e-20 -54.1374 -25.7674)
(6.99954e-20 -43.0848 -25.517)
(4.68545e-20 -33.6027 -25.5383)
(3.14141e-19 -25.1062 -25.6992)
(6.62279e-21 -17.1349 -25.8893)
(-1.44014e-18 -9.48046 -25.9519)
(8.3885e-18 -1.98168 -25.8803)
(1.43378e-18 5.73928 -25.2083)
(-7.65324e-17 13.9468 -23.8833)
(3.21597e-16 20.1914 -21.4573)
(-2.26561e-16 28.4097 -15.9899)
(-5.70561e-15 54.7958 -14.6037)
(-1.33959e-15 80.4246 -13.5732)
(4.45785e-15 94.4893 -10.3908)
(5.26621e-15 113.069 -8.95027)
(-1.895e-13 136.18 -0.42615)
(-3.01713e-16 9.48295 15.2894)
(-3.61807e-16 -17.5637 14.2985)
(-3.6261e-16 -22.534 17.159)
(-3.88346e-16 -27.7159 18.8269)
(-4.17774e-16 -32.6244 19.6977)
(-4.48418e-16 -37.191 19.9644)
(-4.73292e-16 -41.4092 19.864)
(-4.91916e-16 -45.3155 19.4667)
(-5.0415e-16 -49.019 18.7377)
(-5.08961e-16 -52.3786 17.6362)
(-5.04793e-16 -55.23 16.2311)
(-4.91652e-16 -57.7631 14.7569)
(-4.72126e-16 -60.5911 13.2959)
(-4.47799e-16 -63.3573 11.3791)
(-4.17166e-16 -65.5928 9.46534)
(-3.83085e-16 -65.818 6.91067)
(-3.40907e-16 -66.0587 5.33937)
(-2.94518e-16 -68.2501 3.33335)
(-2.46855e-16 -68.8994 1.27179)
(-1.98882e-16 -69.0466 -0.719454)
(-1.53644e-16 -67.9132 -2.81696)
(-1.14106e-16 -67.7431 -4.56208)
(-7.85238e-17 -67.1928 -6.6543)
(-4.72815e-17 -64.7596 -8.3106)
(-2.57157e-17 -62.0914 -10.0015)
(-2.20922e-17 -60.0734 -11.5737)
(-4.88388e-17 -55.9081 -13.2496)
(-1.05688e-16 -51.037 -14.2883)
(-2.45931e-16 -40.8316 -15.509)
(-2.87671e-16 -24.0628 -14.4227)
(-1.21475e-16 -8.9893 -14.863)
(-4.42108e-16 22.9907 -11.2311)
(-2.36471e-15 39.62 -2.26662)
(-3.43103e-15 29.1547 -3.62021)
(-3.99121e-15 20.2113 -5.79748)
(-4.62967e-15 19.4236 -2.68665)
(-5.43788e-15 14.9998 3.68354)
(-5.6066e-15 -23.326 -2.61118)
(-5.23091e-15 -42.449 -3.79738)
(-4.46914e-15 -45.4635 -5.35735)
(-3.43739e-15 -35.0468 -5.88771)
(-2.44161e-15 -22.0996 -6.27793)
(-1.95065e-15 -9.6355 -6.04998)
(-1.87841e-15 0.168266 -6.9104)
(-1.54656e-15 -4.58305 -4.52308)
(-2.2984e-15 17.2033 -17.0749)
(-1.91043e-15 48.7454 -27.7751)
(-8.8135e-16 55.7517 -29.515)
(-3.45648e-16 43.0816 -28.9864)
(-2.24911e-16 23.7555 -26.8528)
(-2.21716e-16 4.72579 -21.6103)
(-1.71488e-16 -8.47846 -16.2135)
(-1.10946e-16 -9.54838 -14.576)
(-9.10746e-17 -1.57821 -12.7112)
(-8.44946e-17 19.8847 -30.3251)
(-6.27452e-17 32.8584 -39.2306)
(-2.61625e-17 38.3817 -38.0826)
(-9.69868e-18 26.0726 -33.2093)
(-2.13405e-18 -69.0603 -30.1912)
(9.1591e-19 -111.35 -31.852)