/*--------------------------------*- C++ -*----------------------------------*\
| =========                 |                                                 |
| \\      /  F ield         | OpenFOAM: The Open Source CFD Toolbox           |
|  \\    /   O peration     | Version:  4.1                                   |
|   \\  /    A nd           | Web:      www.OpenFOAM.org                      |
|    \\/     M anipulation  |                                                 |
\*---------------------------------------------------------------------------*/
FoamFile
{
    version     2.0;
    format      ascii;
    class       volScalarField;
    location    "24";
    object      p;
}
// * * * * * * * * * * * * * * * * * * * * * * * * * * * * * * * * * * * * * //

dimensions      [0 2 -2 0 0 0 0];

internalField   nonuniform List<scalar> 
225
(
523.378
469.981
418.15
369.738
324.848
282.831
243.476
206.472
171.378
138.014
107.072
78.9331
49.9042
14.9854
-14.1667
56.944
34.683
28.9243
25.2141
19.74
14.0325
8.87965
4.49089
1.00696
-1.45179
-2.64309
-2.14144
-0.0449999
1.82653
2.0867
-45.8385
-52.4815
-46.7145
-42.5676
-39.4771
-35.8817
-31.9954
-28.058
-24.1537
-20.4378
-17.0923
-14.0252
-10.9483
-8.2955
-7.06125
0.295234
-2.12282
2.46999
2.79413
2.84771
3.0629
2.97377
2.59646
2.0149
1.25572
0.298973
-0.810372
-1.72067
-1.8729
-1.56243
16.7231
14.3903
15.944
13.846
12.4271
11.1836
9.77365
8.39179
7.13435
6.0433
5.14229
4.42975
3.95215
3.91943
4.16429
7.49494
5.47188
6.44587
5.22654
5.02353
5.00776
4.91998
4.9533
5.10889
5.35239
5.67167
6.03455
6.35421
6.61092
6.78566
4.02352
2.86807
3.95366
3.63055
4.01736
4.41148
4.71046
5.06111
5.41767
5.74244
6.03214
6.28606
6.46429
6.54532
6.56103
5.70132
5.1435
5.99784
5.76883
5.96733
6.07983
6.10374
6.14904
6.17364
6.16881
6.14512
6.11732
6.08366
6.03781
5.98934
6.00853
5.68312
6.19394
5.91806
5.96089
5.93008
5.85501
5.80791
5.75229
5.69172
5.63246
5.57935
5.53263
5.48655
5.43535
4.68877
4.48108
4.82676
4.65038
4.72315
4.73211
4.71922
4.72742
4.72483
4.71807
4.70848
4.69376
4.67156
4.63631
4.57858
3.31876
3.2026
3.50027
3.44638
3.56601
3.61271
3.64134
3.67631
3.69293
3.69979
3.69779
3.68525
3.66118
3.62292
3.55737
2.34483
2.28466
2.53892
2.54022
2.65856
2.69994
2.72902
2.7561
2.76364
2.76154
2.7501
2.72916
2.69926
2.66044
2.59576
1.56568
1.53068
1.73299
1.74676
1.84593
1.87231
1.89464
1.91175
1.91206
1.90518
1.89058
1.8683
1.8387
1.80395
1.74606
0.88078
0.868633
1.02953
1.03423
1.11125
1.12485
1.14268
1.15476
1.1542
1.14924
1.13834
1.12131
1.09633
1.06518
1.01096
0.438598
0.399279
0.455127
0.423037
0.459196
0.440526
0.434189
0.420148
0.399257
0.376588
0.349992
0.321325
0.290914
0.260979
0.217959
)
;

boundaryField
{
    inletFace
    {
        type            zeroGradient;
    }
    inlet
    {
        type            zeroGradient;
    }
    inletWalls
    {
        type            zeroGradient;
    }
    outletInlet
    {
        type            fixedValue;
        value           uniform 0;
    }
}


// ************************************************************************* //
