/*--------------------------------*- C++ -*----------------------------------*\
| =========                 |                                                 |
| \\      /  F ield         | OpenFOAM: The Open Source CFD Toolbox           |
|  \\    /   O peration     | Version:  4.1                                   |
|   \\  /    A nd           | Web:      www.OpenFOAM.org                      |
|    \\/     M anipulation  |                                                 |
\*---------------------------------------------------------------------------*/
FoamFile
{
    version     2.0;
    format      ascii;
    class       surfaceScalarField;
    location    "24";
    object      phi;
}
// * * * * * * * * * * * * * * * * * * * * * * * * * * * * * * * * * * * * * //

dimensions      [0 3 -1 0 0 0 0];

internalField   nonuniform List<scalar> 
420
(
-949.879
2249.78
-1573.96
1924.28
-2054
1779.95
-2424.23
1670.13
-2699.86
1575.83
-2888.38
1488.42
-2993.05
1404.58
-3013.85
1321
-2949.61
1235.66
-2797.23
1147.52
-2551.17
1054.13
-2193
941.735
-1687.17
794.064
-1012.68
625.703
287.234
373.334
1876.44
442.748
1854.86
437.302
1785.39
406.698
1700.74
380.581
1601.94
359.902
1509.1
345.293
1419.19
337.537
1328.76
333.485
1239.71
326.955
1154.05
309.608
1071.48
267.464
983.877
191.418
870.102
111.451
705.684
398.676
33.5756
1842.87
-97.3887
1985.83
-253.612
1941.62
-371.119
1818.24
-473.182
1704.01
-567.531
1603.45
-651.748
1503.4
-725.795
1402.8
-788.074
1301.99
-837.308
1203.28
-868.229
1102.4
-856.094
971.739
-740.343
754.348
-434.289
399.628
-35.6092
28.7747
1814.09
-100.653
2115.26
-225.559
2066.53
-304.495
1897.18
-368.157
1767.67
-416.953
1652.24
-446.23
1532.68
-457.018
1413.59
-451.857
1296.83
-430.16
1181.58
-387.233
1059.47
-311.879
896.384
-192.871
635.339
-48.4111
255.169
-84.0178
169.626
1644.47
146.159
2138.72
123.734
2088.95
122.871
1898.04
126.942
1763.6
135.805
1643.38
149.102
1519.38
166.59
1396.1
186.94
1276.47
208.128
1160.4
229.128
1038.47
243.819
881.693
233.002
646.157
155.226
332.946
71.211
223.078
1421.39
244.184
2117.62
234.748
2098.39
236.024
1896.76
240.373
1759.25
244.307
1639.45
246.549
1517.14
245.253
1397.4
241.163
1280.56
233.989
1167.57
221.383
1051.07
199.139
903.937
156.139
689.156
78.3013
410.786
149.512
203.32
1218.07
238.376
2082.57
213.623
2123.14
191.412
1918.97
177.205
1773.45
163.775
1652.88
150.04
1530.87
135.898
1411.54
121.072
1295.39
106.918
1181.72
92.8201
1065.17
75.7701
920.988
52.0257
712.904
19.0255
443.788
168.532
171.855
1046.21
221.986
2032.44
199.426
2145.7
170.41
1947.99
152.058
1791.81
137.676
1667.26
122.785
1545.76
108.584
1425.74
95.5871
1308.38
83.1072
1194.2
71.4876
1076.79
58.6383
933.837
40.3283
731.212
15.7503
468.36
184.281
146.098
900.113
210.06
1968.47
196.875
2158.89
170.053
1974.81
152.403
1809.46
139.531
1680.13
127.066
1558.23
113.86
1438.95
101.313
1320.93
89.4132
1206.1
76.979
1089.22
63.081
947.733
44.2978
749.994
19.1582
493.501
203.453
116.761
783.347
184.851
1900.38
179.627
2164.11
154.308
2000.13
137.218
1826.55
123.996
1693.35
111.365
1570.86
98.9554
1451.36
86.1008
1333.79
73.8574
1218.35
62.0873
1100.99
49.0028
960.82
32.8323
766.175
13.1671
513.183
216.643
83.1608
700.185
143.133
1840.41
144.691
2162.56
122.763
2022.06
106.157
1843.15
94.4696
1705.04
82.5901
1582.74
71.1795
1462.77
60.4003
1344.57
49.4718
1229.27
39.4377
1111.03
29.7491
970.511
18.0804
777.847
5.2352
526.034
221.887
51.2502
648.947
97.93
1793.73
102.723
2157.77
87.3961
2037.38
73.1724
1857.38
63.164
1715.04
54.2714
1591.63
44.8929
1472.14
36.1853
1353.27
28.2115
1237.24
20.4662
1118.77
13.7271
977.242
6.77515
784.778
-0.382226
533.175
221.484
25.1426
623.825
57.7215
1761.15
63.5104
2151.97
53.4744
2047.41
43.8981
1866.95
36.1854
1722.75
29.5585
1598.25
23.5153
1478.18
17.0723
1359.71
11.3291
1242.98
6.63236
1123.46
2.5073
981.351
-1.04654
788.303
-3.66875
535.776
217.798
1.42557
622.401
24.059
1738.5
33.3444
2142.67
27.6999
2053.05
20.3381
1874.31
15.038
1728.05
9.49716
1603.79
4.54284
1483.13
-0.00208351
1364.25
-4.87225
1247.85
-8.38191
1126.97
-9.6887
982.662
-9.74616
788.374
-7.15267
533.197
210.655
-11.7152
-3.10967
1.46902
-0.395405
-5.0936
-8.84225
-11.7942
-15.2348
-18.0987
-20.2313
-21.7958
-21.1322
-18.1374
-12.3906
)
;

boundaryField
{
    inletFace
    {
        type            calculated;
        value           nonuniform List<scalar> 
450
(
-1.33276e-14
6.24846e-13
-8.74516e-14
-1.51132e-13
1.25832e-13
-1.8789e-13
-6.1731e-14
7.52202e-14
-9.99912e-14
-2.57766e-14
6.10612e-14
-2.59293e-14
-1.28546e-14
4.53402e-15
1.87265e-15
-2.1172e-12
-2.21603e-12
1.24617e-13
-2.95571e-13
-2.44572e-13
2.63696e-14
-2.89423e-13
-1.62601e-13
-4.52981e-15
-1.60459e-13
-5.42774e-14
5.76034e-14
2.13809e-15
-4.6627e-15
-1.70606e-15
-2.28906e-12
-2.30825e-12
-4.48037e-14
-3.69336e-13
-2.54167e-13
-1.12149e-13
-2.81214e-13
-1.29066e-13
-8.83297e-14
-1.25377e-13
-3.71078e-14
-1.87792e-14
4.54408e-15
2.41929e-14
-1.43225e-15
-2.58137e-12
-2.27236e-12
-1.52161e-13
-5.98564e-13
-2.20948e-13
-2.24198e-13
-3.71379e-13
-4.49037e-14
-1.38533e-13
-1.50362e-13
-5.11349e-14
-6.18836e-14
-8.51535e-14
5.63896e-14
7.89873e-14
-2.39967e-12
-2.34739e-12
-2.71875e-13
-5.27133e-13
-1.78032e-13
-2.27184e-13
-3.26613e-13
-3.77099e-14
-1.03193e-13
-1.39235e-13
-6.12565e-14
-7.40123e-14
-8.11314e-14
2.39806e-14
8.88416e-14
-2.11617e-12
-2.33892e-12
-4.59109e-13
-4.09118e-13
-1.57002e-13
-1.87696e-13
-2.85505e-13
-6.18408e-14
-5.90868e-14
-1.32304e-13
-5.3891e-14
-7.9591e-14
-7.17444e-14
1.52721e-14
3.13162e-14
-1.90465e-12
-2.41743e-12
-7.39431e-13
-3.99704e-13
-1.99897e-13
-2.08561e-13
-2.78375e-13
-1.11793e-13
-1.069e-13
-1.35738e-13
-8.80587e-14
-1.24102e-13
-7.93912e-14
-7.32025e-14
-1.92356e-13
-1.66734e-12
-2.4553e-12
-9.77769e-13
-4.2149e-13
-2.23605e-13
-2.16232e-13
-2.65369e-13
-1.55402e-13
-1.42937e-13
-1.30192e-13
-1.22319e-13
-1.85859e-13
-8.48641e-14
-3.81785e-14
-2.75209e-13
-1.39143e-12
-2.42132e-12
-1.15451e-12
-4.61376e-13
-2.35077e-13
-1.98728e-13
-2.62718e-13
-1.72784e-13
-1.17949e-13
-1.54648e-13
-1.2805e-13
-1.51648e-13
-1.1969e-13
-4.31013e-14
-8.94521e-14
-1.19255e-12
-2.36417e-12
-1.29234e-12
-5.11089e-13
-2.37507e-13
-1.91947e-13
-2.57771e-13
-1.81339e-13
-9.27142e-14
-1.47899e-13
-1.25903e-13
-1.10294e-13
-1.38655e-13
-7.12615e-14
6.90353e-14
-9.84011e-13
-2.29064e-12
-1.39997e-12
-5.58225e-13
-2.5515e-13
-1.86765e-13
-2.19212e-13
-1.85186e-13
-9.03182e-14
-8.49613e-14
-1.21849e-13
-9.52005e-14
-7.53408e-14
-5.87618e-14
1.4449e-13
-8.54281e-13
-2.21668e-12
-1.44652e-12
-6.07594e-13
-2.90248e-13
-1.37107e-13
-2.07045e-13
-1.98311e-13
-6.00128e-14
-7.98461e-14
-1.27641e-13
-2.40111e-14
-3.15721e-14
8.52331e-14
1.72703e-13
-7.8784e-13
-2.15192e-12
-1.4836e-12
-6.42044e-13
-3.02399e-13
-1.24759e-13
-2.00771e-13
-2.20037e-13
-6.09077e-14
-8.58809e-14
-1.23711e-13
1.69362e-14
-3.37703e-14
1.18037e-13
1.50359e-13
-7.38101e-13
-2.10112e-12
-1.50724e-12
-6.62858e-13
-3.05627e-13
-1.36406e-13
-1.97869e-13
-2.37128e-13
-5.66372e-14
-8.92273e-14
-1.24042e-13
2.20608e-14
-3.1653e-14
1.0261e-13
1.26527e-13
-7.33729e-13
-2.02501e-12
-1.50301e-12
-6.84682e-13
-3.13007e-13
-1.47785e-13
-2.01141e-13
-2.24773e-13
-7.02344e-14
-9.62934e-14
-1.05789e-13
9.54986e-15
-1.38643e-14
9.84374e-14
6.73949e-14
1.33276e-14
-6.24846e-13
8.74516e-14
1.51132e-13
-1.25832e-13
1.8789e-13
6.1731e-14
-7.52202e-14
9.99912e-14
2.57766e-14
-6.10612e-14
2.59293e-14
1.28546e-14
-4.53402e-15
-1.87265e-15
2.1172e-12
2.21603e-12
-1.24617e-13
2.95571e-13
2.44572e-13
-2.63696e-14
2.89423e-13
1.62601e-13
4.52981e-15
1.60459e-13
5.42774e-14
-5.76034e-14
-2.13809e-15
4.6627e-15
1.70606e-15
2.28906e-12
2.30825e-12
4.48037e-14
3.69336e-13
2.54167e-13
1.12149e-13
2.81214e-13
1.29066e-13
8.83297e-14
1.25377e-13
3.71078e-14
1.87792e-14
-4.54408e-15
-2.41929e-14
1.43225e-15
2.58137e-12
2.27236e-12
1.52161e-13
5.98564e-13
2.20948e-13
2.24198e-13
3.71379e-13
4.49037e-14
1.38533e-13
1.50362e-13
5.11349e-14
6.18836e-14
8.51535e-14
-5.63896e-14
-7.89873e-14
2.39967e-12
2.34739e-12
2.71875e-13
5.27133e-13
1.78032e-13
2.27184e-13
3.26613e-13
3.77099e-14
1.03193e-13
1.39235e-13
6.12565e-14
7.40123e-14
8.11314e-14
-2.39806e-14
-8.88416e-14
2.11617e-12
2.33892e-12
4.59109e-13
4.09118e-13
1.57002e-13
1.87696e-13
2.85505e-13
6.18408e-14
5.90868e-14
1.32304e-13
5.3891e-14
7.9591e-14
7.17444e-14
-1.52721e-14
-3.13162e-14
1.90465e-12
2.41743e-12
7.39431e-13
3.99704e-13
1.99897e-13
2.08561e-13
2.78375e-13
1.11793e-13
1.069e-13
1.35738e-13
8.80587e-14
1.24102e-13
7.93912e-14
7.32025e-14
1.92356e-13
1.66734e-12
2.4553e-12
9.77769e-13
4.2149e-13
2.23605e-13
2.16232e-13
2.65369e-13
1.55402e-13
1.42937e-13
1.30192e-13
1.22319e-13
1.85859e-13
8.48641e-14
3.81785e-14
2.75209e-13
1.39143e-12
2.42132e-12
1.15451e-12
4.61376e-13
2.35077e-13
1.98728e-13
2.62718e-13
1.72784e-13
1.17949e-13
1.54648e-13
1.2805e-13
1.51648e-13
1.1969e-13
4.31013e-14
8.94521e-14
1.19255e-12
2.36417e-12
1.29234e-12
5.11089e-13
2.37507e-13
1.91947e-13
2.57771e-13
1.81339e-13
9.27142e-14
1.47899e-13
1.25903e-13
1.10294e-13
1.38655e-13
7.12615e-14
-6.90353e-14
9.84011e-13
2.29064e-12
1.39997e-12
5.58225e-13
2.5515e-13
1.86765e-13
2.19212e-13
1.85186e-13
9.03182e-14
8.49613e-14
1.21849e-13
9.52005e-14
7.53408e-14
5.87618e-14
-1.4449e-13
8.54281e-13
2.21668e-12
1.44652e-12
6.07594e-13
2.90248e-13
1.37107e-13
2.07045e-13
1.98311e-13
6.00128e-14
7.98461e-14
1.27641e-13
2.40111e-14
3.15721e-14
-8.52331e-14
-1.72703e-13
7.8784e-13
2.15192e-12
1.4836e-12
6.42044e-13
3.02399e-13
1.24759e-13
2.00771e-13
2.20037e-13
6.09077e-14
8.58809e-14
1.23711e-13
-1.69362e-14
3.37703e-14
-1.18037e-13
-1.50359e-13
7.38101e-13
2.10112e-12
1.50724e-12
6.62858e-13
3.05627e-13
1.36406e-13
1.97869e-13
2.37128e-13
5.66372e-14
8.92273e-14
1.24042e-13
-2.20608e-14
3.1653e-14
-1.0261e-13
-1.26527e-13
7.33729e-13
2.02501e-12
1.50301e-12
6.84682e-13
3.13007e-13
1.47785e-13
2.01141e-13
2.24773e-13
7.02344e-14
9.62934e-14
1.05789e-13
-9.54986e-15
1.38643e-14
-9.84374e-14
-6.73949e-14
)
;
    }
    inlet
    {
        type            calculated;
        value           nonuniform List<scalar> 
15
(
-1299.9
-1300.2
-1299.9
-1299.9
-1300.2
-1299.9
-1299.9
-1300.2
-1299.9
-1299.9
-1300.2
-1299.9
-1299.9
-1300.2
-1299.9
)
;
    }
    inletWalls
    {
        type            calculated;
        value           uniform 0;
    }
    outletInlet
    {
        type            calculated;
        value           nonuniform List<scalar> 
15
(
198.271
527.472
785.397
982.008
1128.54
1249.99
1367.12
1486.58
1606.74
1731.81
1879.01
2054.92
2138.08
1729.89
634.124
)
;
    }
}


// ************************************************************************* //
