/*--------------------------------*- C++ -*----------------------------------*\
| =========                 |                                                 |
| \\      /  F ield         | OpenFOAM: The Open Source CFD Toolbox           |
|  \\    /   O peration     | Version:  4.1                                   |
|   \\  /    A nd           | Web:      www.OpenFOAM.org                      |
|    \\/     M anipulation  |                                                 |
\*---------------------------------------------------------------------------*/
FoamFile
{
    version     2.0;
    format      ascii;
    class       volVectorField;
    location    "24";
    object      U;
}
// * * * * * * * * * * * * * * * * * * * * * * * * * * * * * * * * * * * * * //

dimensions      [0 1 -1 0 0 0 0];

internalField   nonuniform List<vector> 
225
(
(1.11234e-14 0.852194 15.7946)
(8.9578e-15 -4.89458 12.1215)
(-3.20447e-15 -4.19551 12.1321)
(2.76611e-15 -3.60118 11.9966)
(7.32418e-16 -3.00468 11.8778)
(-2.32147e-16 -2.55319 11.6992)
(1.92362e-15 -2.20881 11.4769)
(2.23782e-16 -1.96603 11.2116)
(-6.33869e-17 -1.79855 10.916)
(9.61614e-16 -1.71238 10.5882)
(-6.68581e-18 -1.83746 10.1561)
(-2.78223e-16 -2.28567 9.53762)
(3.55564e-16 -2.51301 8.96377)
(-3.13882e-17 -1.06551 8.91357)
(-1.2964e-17 1.76576 7.47091)
(1.53465e-14 -5.35014 22.493)
(1.53429e-14 -14.6049 21.394)
(-8.62697e-16 -13.2708 20.3412)
(2.41985e-15 -11.7697 19.5066)
(1.69332e-15 -11.1561 18.5044)
(-1.82552e-16 -10.6595 17.5174)
(2.11437e-15 -10.0901 16.5714)
(1.12578e-15 -9.525 15.6236)
(3.13589e-17 -8.96544 14.6638)
(1.07812e-15 -8.36731 13.6946)
(3.75795e-16 -7.75709 12.7179)
(-3.98777e-16 -7.30335 11.7194)
(-1.54999e-17 -7.01704 10.6244)
(3.22827e-17 -5.73094 9.16116)
(1.18107e-17 -2.30501 4.58321)
(1.78924e-14 -7.71562 23.9801)
(1.59796e-14 -16.7731 24.6729)
(3.10204e-16 -13.7365 23.9372)
(4.07619e-15 -12.3062 22.6249)
(1.75955e-15 -11.6447 21.2414)
(7.76475e-16 -10.814 20.0013)
(3.08678e-15 -9.94025 18.7738)
(7.02046e-16 -9.10011 17.5247)
(6.11561e-16 -8.28338 16.2654)
(1.45982e-15 -7.47523 15.0263)
(2.56891e-16 -6.66761 13.8176)
(1.3002e-16 -5.84164 12.4301)
(4.51863e-16 -4.81387 10.2752)
(-1.67483e-16 -3.12623 6.6844)
(9.91632e-18 -0.832106 1.68987)
(1.78634e-14 -8.50255 22.0462)
(1.57313e-14 -16.6211 24.332)
(1.05339e-15 -12.93 23.7971)
(4.14426e-15 -12.1536 21.9985)
(1.45839e-15 -11.4201 20.5028)
(1.57642e-15 -10.4936 19.1722)
(2.57131e-15 -9.63388 17.8167)
(2.31872e-16 -8.82359 16.459)
(9.86898e-16 -8.05362 15.123)
(1.02616e-15 -7.32377 13.8164)
(3.45869e-16 -6.55245 12.4394)
(4.09697e-16 -5.49085 10.583)
(5.6475e-16 -3.7852 7.50861)
(-1.97757e-16 -1.49357 2.76589)
(-7.38779e-16 0.153332 -1.77306)
(1.6401e-14 -8.4761 19.748)
(1.59064e-14 -16.3601 24.312)
(1.70384e-15 -13.099 23.6602)
(3.45465e-15 -12.628 21.5365)
(9.21551e-16 -11.8565 20.0248)
(1.35295e-15 -10.9574 18.6637)
(2.14421e-15 -10.1698 17.2587)
(1.24129e-17 -9.40277 15.8711)
(5.82057e-16 -8.65258 14.5236)
(8.93394e-16 -7.9305 13.2136)
(2.72609e-16 -7.16587 11.8292)
(4.27709e-16 -6.11613 9.99624)
(4.5532e-16 -4.42398 7.15548)
(-5.24208e-16 -2.30523 3.2878)
(-9.81206e-16 -0.787152 0.317669)
(1.48741e-14 -8.02186 17.5536)
(1.62339e-14 -16.0195 24.5277)
(3.3481e-15 -13.6434 24.0462)
(2.87845e-15 -12.9943 21.7651)
(1.13603e-15 -12.1264 20.2158)
(1.45561e-15 -11.2247 18.847)
(1.97652e-15 -10.439 17.4341)
(4.87404e-16 -9.64888 16.0434)
(6.00362e-16 -8.86035 14.6933)
(9.8484e-16 -8.09324 13.3817)
(4.48559e-16 -7.2973 12.0171)
(8.09829e-16 -6.28457 10.2818)
(4.96678e-16 -4.73297 7.72085)
(2.51885e-16 -2.75608 4.37237)
(1.16497e-15 -0.949344 1.29728)
(1.332e-14 -7.33734 15.2534)
(1.67569e-14 -15.491 24.3551)
(5.20356e-15 -14.0225 24.4218)
(2.76742e-15 -13.1279 22.0675)
(1.43417e-15 -12.1448 20.4401)
(1.55156e-15 -11.2358 19.0547)
(1.92738e-15 -10.4361 17.6437)
(8.99431e-16 -9.61984 16.2576)
(8.76513e-16 -8.81015 14.9066)
(9.39805e-16 -8.02723 13.5919)
(7.74498e-16 -7.22394 12.2368)
(1.23813e-15 -6.24025 10.5488)
(5.49679e-16 -4.78749 8.10745)
(1.3195e-16 -2.91407 4.94707)
(2.60408e-15 -1.01082 1.7973)
(1.12813e-14 -6.55611 13.0328)
(1.69992e-14 -14.847 23.8163)
(6.72664e-15 -14.2639 24.6691)
(2.91783e-15 -13.2372 22.3215)
(1.54812e-15 -12.1674 20.5832)
(1.38852e-15 -11.2657 19.1667)
(1.83707e-15 -10.4651 17.7586)
(1.07592e-15 -9.64315 16.3766)
(8.51902e-16 -8.83494 15.0246)
(9.76484e-16 -8.05529 13.7073)
(8.46872e-16 -7.255 12.3576)
(1.09639e-15 -6.28689 10.6996)
(7.07201e-16 -4.89099 8.33092)
(2.64327e-16 -3.08517 5.26756)
(1.40852e-15 -1.12212 2.0438)
(9.63272e-15 -5.77819 11.1235)
(1.67625e-14 -14.1745 23.0905)
(7.86762e-15 -14.4413 24.8463)
(3.19405e-15 -13.3963 22.6148)
(1.62741e-15 -12.2528 20.7553)
(1.21461e-15 -11.3493 19.2955)
(1.81877e-15 -10.5477 17.8904)
(1.19616e-15 -9.72543 16.5109)
(6.12741e-16 -8.91944 15.1562)
(1.07061e-15 -8.14022 13.8351)
(8.86476e-16 -7.33994 12.4864)
(7.69375e-16 -6.38013 10.8512)
(8.28597e-16 -5.02345 8.54664)
(2.98385e-16 -3.26568 5.55817)
(-3.17502e-16 -1.23743 2.24749)
(7.95715e-15 -5.08475 9.5989)
(1.63668e-14 -13.5191 22.3)
(8.90454e-15 -14.535 24.9523)
(3.44716e-15 -13.5531 22.9353)
(1.64423e-15 -12.3448 20.9699)
(1.27499e-15 -11.425 19.4566)
(1.61085e-15 -10.6174 18.0506)
(1.25539e-15 -9.79445 16.6721)
(5.73776e-16 -8.98825 15.3136)
(8.00828e-16 -8.20621 13.9874)
(8.71609e-16 -7.4047 12.6356)
(6.69943e-16 -6.45142 11.0132)
(7.28035e-16 -5.12516 8.75504)
(4.93335e-16 -3.40644 5.81942)
(-1.07833e-15 -1.31895 2.43079)
(6.66207e-15 -4.53844 8.46176)
(1.58839e-14 -12.9254 21.5502)
(9.54174e-15 -14.5349 24.9758)
(3.86441e-15 -13.6654 23.221)
(1.81686e-15 -12.4128 21.1812)
(1.07552e-15 -11.4736 19.6121)
(1.51753e-15 -10.659 18.2004)
(1.3454e-15 -9.83699 16.8209)
(3.50216e-16 -9.03209 15.4585)
(5.88159e-16 -8.24861 14.1269)
(9.26561e-16 -7.44653 12.7692)
(2.81289e-16 -6.49778 11.1499)
(5.2156e-16 -5.19263 8.91854)
(-2.59251e-16 -3.50183 6.01053)
(-1.55885e-15 -1.3637 2.5424)
(5.91409e-15 -4.17016 7.70222)
(1.53717e-14 -12.4377 20.9276)
(9.97158e-15 -14.4734 24.9366)
(4.2063e-15 -13.7316 23.4379)
(2.03476e-15 -12.4593 21.3594)
(8.66829e-16 -11.504 19.7405)
(1.43335e-15 -10.6833 18.3207)
(1.4688e-15 -9.86365 16.9392)
(3.80768e-16 -9.06126 15.5729)
(5.52765e-16 -8.27772 14.2365)
(8.83646e-16 -7.47504 12.8711)
(2.33526e-17 -6.52698 11.2467)
(2.77059e-16 -5.23319 9.02664)
(-6.73066e-16 -3.55805 6.12618)
(-1.3876e-15 -1.37729 2.57258)
(5.3555e-15 -3.97317 7.27927)
(1.48706e-14 -12.0682 20.4611)
(1.02931e-14 -14.3843 24.8626)
(4.41017e-15 -13.7599 23.5828)
(2.09347e-15 -12.4875 21.4969)
(8.6369e-16 -11.5229 19.8405)
(1.36017e-15 -10.6965 18.412)
(1.62013e-15 -9.87993 17.0278)
(3.86612e-16 -9.08053 15.6584)
(5.94612e-16 -8.2972 14.3169)
(8.98607e-16 -7.49314 12.9421)
(-1.65199e-16 -6.54213 11.3061)
(2.33814e-16 -5.25093 9.08425)
(-7.3464e-16 -3.57873 6.17526)
(-1.18892e-15 -1.36508 2.53866)
(5.06241e-15 -3.90351 7.10997)
(1.45332e-14 -11.8312 20.1816)
(1.04115e-14 -14.2999 24.7901)
(4.57693e-15 -13.7667 23.6685)
(2.10306e-15 -12.5018 21.5897)
(9.44293e-16 -11.5319 19.9094)
(1.38486e-15 -10.7002 18.4745)
(1.62546e-15 -9.88529 17.0882)
(3.92081e-16 -9.08771 15.7171)
(6.36909e-16 -8.30385 14.3727)
(8.37749e-16 -7.4976 12.9904)
(-1.52719e-16 -6.54289 11.3431)
(2.48152e-16 -5.25311 9.11684)
(-7.51277e-16 -3.58342 6.20123)
(-8.75906e-16 -1.34997 2.50621)
(5.06471e-15 -4.03899 7.28599)
(1.40119e-14 -11.6268 19.9517)
(1.04121e-14 -14.1917 24.668)
(4.73997e-15 -13.7465 23.7084)
(2.16039e-15 -12.5066 21.6738)
(1.03025e-15 -11.5393 19.9773)
(1.39248e-15 -10.6995 18.535)
(1.54799e-15 -9.88691 17.1437)
(4.95011e-16 -9.09045 15.7694)
(6.66628e-16 -8.30488 14.4183)
(7.2717e-16 -7.48984 13.0146)
(-6.02338e-17 -6.51518 11.3279)
(9.59808e-17 -5.20581 9.06101)
(-6.9165e-16 -3.50153 6.08266)
(-4.47493e-16 -1.25245 2.30726)
)
;

boundaryField
{
    inletFace
    {
        type            zeroGradient;
    }
    inlet
    {
        type            fixedValue;
        value           uniform (0 8.7 15);
    }
    inletWalls
    {
        type            noSlip;
    }
    outletInlet
    {
        type            zeroGradient;
    }
}


// ************************************************************************* //
