/*--------------------------------*- C++ -*----------------------------------*\
| =========                 |                                                 |
| \\      /  F ield         | OpenFOAM: The Open Source CFD Toolbox           |
|  \\    /   O peration     | Version:  4.1                                   |
|   \\  /    A nd           | Web:      www.OpenFOAM.org                      |
|    \\/     M anipulation  |                                                 |
\*---------------------------------------------------------------------------*/
FoamFile
{
    version     2.0;
    format      ascii;
    class       volScalarField;
    location    "20";
    object      p;
}
// * * * * * * * * * * * * * * * * * * * * * * * * * * * * * * * * * * * * * //

dimensions      [0 2 -2 0 0 0 0];

internalField   nonuniform List<scalar> 
6785
(
572.452
493.865
446.968
393.642
347.001
302.118
260.356
220.891
183.653
148.483
114.635
81.6858
53.3953
24.2738
-16.0909
-41.8163
-59.4367
-49.5114
-56.536
-55.9161
-58.3012
-58.9396
-59.4249
-58.9867
-57.7092
-55.3949
-52.3235
-48.1245
-42.6396
-38.5238
-17.4499
-20.3716
-10.8474
-14.5514
-10.0813
-10.355
-8.72326
-8.14489
-7.31952
-6.72723
-6.16155
-5.79773
-5.24936
-4.64459
-1.96231
22.0672
20.9281
24.5747
20.7168
23.2934
21.4533
22.2305
21.8496
22.1591
22.3336
22.58
22.512
22.217
21.9365
22.7912
20.6452
17.8993
19.8945
16.6182
18.7066
16.7509
17.6008
16.7933
16.7557
15.9985
14.9302
13.5658
12.6044
11.5581
9.15826
-12.8113
-17.4332
-17.0305
-21.1849
-21.3893
-24.9522
-26.1371
-29.0475
-30.8455
-32.8776
-34.0459
-34.7345
-35.4417
-36.7073
-37.6668
-44.1091
-47.5395
-46.4446
-49.4996
-48.8588
-51.4431
-51.6475
-53.4136
-54.081
-54.775
-54.7343
-54.5191
-54.1177
-53.8929
-51.7787
-34.5367
-34.6567
-32.22
-33.173
-30.7991
-31.1902
-29.6767
-29.3398
-28.4607
-27.8255
-26.9552
-26.1175
-24.6272
-23.0657
-19.9659
-8.13097
-6.84622
-4.68786
-4.65267
-2.28509
-1.80918
-0.0129636
1.07884
2.54022
3.88764
5.35777
6.73211
8.31946
9.52253
11.1595
7.51112
8.76929
10.2114
10.3019
11.9798
12.2893
13.5163
14.2264
15.176
16.0305
16.9594
17.8077
18.8146
19.514
20.5688
21.4261
22.6287
23.7514
23.9058
25.2316
25.4903
26.4782
27.0724
27.8478
28.5769
29.3392
30.0553
30.9431
31.5248
32.588
33.6543
35.0677
35.9404
36.3781
37.4893
37.8059
38.5252
38.6389
38.6879
38.5066
38.3781
38.6377
39.2885
39.9836
40.6629
50.3587
49.5752
49.2994
48.6043
48.3143
47.2167
46.4017
45.2728
44.3142
43.3975
42.6766
42.2084
41.7946
41.998
41.1706
36.2314
34.0561
31.279
27.5309
24.2803
21.0932
19.0047
17.1551
15.7637
14.3901
13.2838
12.5812
12.6974
13.5241
12.4249
54.5692
50.2797
41.5266
34.4081
29.0268
23.519
20.4822
18.91
17.3918
16.7073
15.8877
14.2765
12.3418
10.5288
8.98675
38.8895
38.8921
45.0066
39.3749
39.7786
41.4339
39.923
38.9063
38.8912
38.7905
38.4197
37.2032
37.7441
37.2999
36.1398
36.0214
36.7291
36.5622
34.9206
36.196
36.0174
34.6881
34.5801
35.7926
35.7568
34.4514
34.3821
35.4649
35.8362
34.2701
35.4788
35.8896
34.7688
34.7312
35.6187
36.1903
34.9959
35.8525
36.4301
35.6396
35.6193
36.332
36.7079
36.0763
36.1068
36.7479
36.8674
36.1761
36.9844
37.2222
36.7866
36.9109
37.5029
38.139
37.9095
38.0058
38.3862
39.4289
39.3417
39.3942
40.5239
40.4992
40.4016
40.3801
40.9837
41.0718
41.9273
42.1625
41.2075
42.5257
44.3186
39.3853
36.705
40.3581
45.641
23.9549
34.2804
42.862
1.17907
12.8274
20.1083
19.5601
24.9641
25.307
17.893
23.6041
23.5386
24.8032
24.9208
24.7792
23.9945
27.7283
36.6378
17.4016
17.1209
17.8804
18.7142
16.7715
16.171
14.1232
16.8547
29.138
13.0188
13.7984
12.0582
12.5067
15.3294
16.2636
15.3162
15.2652
15.0745
30.786
20.9713
20.7964
19.7586
18.6407
19.7777
22.4621
22.9403
18.5687
25.8204
28.0597
30.2838
30.5148
28.5179
26.714
24.7803
27.1983
22.1406
31.3652
35.4431
30.2229
29.8958
28.6904
25.7947
23.9067
22.6897
13.7853
21.3925
32.3116
27.1363
25.4988
22.4696
18.9853
15.9703
14.9221
13.5969
8.66157
8.20384
16.5356
12.7385
12.9381
12.2641
11.0383
6.03457
5.49421
7.21176
-4.43769
11.101
7.25175
2.88239
12.1282
3.53475
7.65119
5.65962
8.38324
11.7289
6.18395
9.44857
11.5276
7.93347
9.50195
8.4896
9.67683
11.5288
8.58369
9.73897
8.8583
9.74996
10.9959
8.41515
9.67648
10.388
8.66616
9.22613
8.66477
9.05855
9.70248
8.28776
8.68697
8.20514
8.48138
8.87333
7.65105
8.09247
8.253
7.41246
7.56157
7.24479
7.31362
7.44598
6.75955
6.83983
6.56863
6.58853
6.60961
6.02074
6.10637
6.02886
5.58896
5.56055
5.36341
5.30148
5.21346
4.8442
4.78816
4.62269
4.56892
4.46299
4.09256
4.05835
4.05757
3.70266
3.55565
3.52148
3.31668
3.28615
3.04515
2.89504
2.80575
2.608
2.52675
2.24761
2.05505
1.98462
1.50845
1.22741
0.960971
0.553247
0.260247
0.00216138
0.00381354
0.00543976
0.00686474
0.00814743
0.00948012
0.0107238
0.0120409
0.0133155
0.0146191
0.0159007
0.0172392
0.018709
0.0204532
0.0225474
0.0249883
0.0277476
0.0308088
0.0341049
0.0375734
0.0410848
0.0444338
0.0473529
0.0495872
0.0511
0.052308
0.0541416
0.0576706
0.0633553
0.0704599
0.0771279
0.0809738
0.0799154
0.0730777
0.0611673
0.0460452
0.0296874
0.0133203
-0.00279391
-0.0190869
-0.0360695
-0.0537516
-0.0732561
-0.101294
-0.161492
-0.203813
-0.757536
-0.711696
-0.607611
-0.737989
-0.87395
-1.0106
-1.13359
-1.22829
-1.2647
-1.23548
-1.14605
-0.9957
-0.780691
-0.506985
-0.207288
0.0502134
0.253035
0.405381
0.509079
0.572599
0.602839
0.597821
0.571931
0.514141
0.445873
0.365225
0.260805
0.247648
0.13031
0.127763
0.178299
0.120324
0.187404
0.00560842
0.00959786
0.0138686
0.0176269
0.0208123
0.0242104
0.0272767
0.0305645
0.0336975
0.0369031
0.0400224
0.0432848
0.0468994
0.0512714
0.0566031
0.0628594
0.0699401
0.0777891
0.0862144
0.0950662
0.104039
0.112639
0.120109
0.125312
0.126781
0.122977
0.112919
0.0969517
0.0771222
0.0567691
0.0394598
0.0275402
0.0212563
0.019212
0.0191812
0.0189131
0.0164926
0.0104373
-0.000315682
-0.0165725
-0.0392882
-0.0711216
-0.116943
-0.16713
-0.238659
-0.396067
-1.10868
-1.0754
-0.918494
-1.13335
-1.34839
-1.57071
-1.76714
-1.90253
-1.9249
-1.83455
-1.63904
-1.3461
-0.971727
-0.549983
-0.120098
0.260614
0.576131
0.82508
1.00371
1.11843
1.17475
1.17028
1.11914
1.0121
0.874487
0.723782
0.54456
0.53697
0.354585
0.393079
0.475853
0.362775
1.22868
0.00884587
0.0159203
0.0233596
0.029886
0.0354792
0.041403
0.0467827
0.0525273
0.0580169
0.0636259
0.0690893
0.0747907
0.0810869
0.0886667
0.0978765
0.108659
0.120854
0.134367
0.148879
0.164133
0.179612
0.194493
0.207576
0.217194
0.221442
0.218691
0.208443
0.192037
0.172506
0.15345
0.137546
0.125227
0.114669
0.103469
0.0898197
0.0728278
0.0519163
0.026239
-0.00545051
-0.0447492
-0.093604
-0.155512
-0.236645
-0.331166
-0.500508
-0.835353
-1.10995
-1.20746
-1.0143
-1.26805
-1.52386
-1.78838
-2.02077
-2.17794
-2.19668
-2.08145
-1.84046
-1.48545
-1.04067
-0.552196
-0.0618157
0.374833
0.740743
1.03308
1.24564
1.38436
1.45369
1.45027
1.38982
1.26117
1.09678
0.915059
0.720286
0.721629
0.6028
0.648119
0.795598
0.62972
1.66949
0.011713
0.0216423
0.0319775
0.0411291
0.0489074
0.057174
0.0646571
0.0726535
0.0802847
0.0880744
0.095646
0.103533
0.112239
0.12274
0.135519
0.150483
0.167405
0.18615
0.206275
0.227435
0.248912
0.269563
0.287679
0.30086
0.306327
0.301669
0.286041
0.261104
0.230851
0.200177
0.173078
0.151097
0.133185
0.117271
0.10106
0.0824133
0.059161
0.0289859
-0.0104694
-0.0616283
-0.127299
-0.212302
-0.323724
-0.453407
-0.691317
-1.21551
-1.05449
-1.49584
-1.21931
-1.51528
-1.83538
-2.16088
-2.44725
-2.64102
-2.66289
-2.52025
-2.22324
-1.78714
-1.24264
-0.647115
-0.0501399
0.482241
0.929349
1.28773
1.54937
1.72139
1.80857
1.8064
1.73468
1.57809
1.38022
1.15706
0.934683
0.933473
0.839679
0.906438
1.0925
0.899288
1.96752
0.0143043
0.0273313
0.0405866
0.0524832
0.062528
0.0732373
0.0829161
0.0932629
0.103133
0.113198
0.122962
0.133107
0.144292
0.157794
0.174245
0.193502
0.215279
0.239397
0.265294
0.292537
0.32019
0.346733
0.369858
0.386358
0.392691
0.386116
0.366219
0.33583
0.300293
0.265273
0.234656
0.20924
0.187133
0.165773
0.142641
0.115517
0.0821017
0.0397453
-0.0144682
-0.0837382
-0.171808
-0.284287
-0.428319
-0.598677
-0.909648
-1.55296
-0.930701
-1.81231
-1.43841
-1.77084
-2.16389
-2.55623
-2.90229
-3.13557
-3.15885
-2.98411
-2.62386
-2.09741
-1.44412
-0.734631
-0.026625
0.606369
1.1399
1.56919
1.88397
2.09216
2.19883
2.19829
2.11392
1.92667
1.69079
1.42128
1.16456
1.15499
1.07795
1.16162
1.38715
1.18142
2.22945
0.0166093
0.0327857
0.0488095
0.0634542
0.0756956
0.0888187
0.100645
0.113304
0.12537
0.137659
0.14955
0.161868
0.175434
0.191846
0.211887
0.235347
0.261879
0.291259
0.322808
0.356002
0.389655
0.421798
0.449398
0.468355
0.474408
0.464674
0.439375
0.402498
0.360385
0.319024
0.28219
0.25063
0.222667
0.196038
0.168084
0.135955
0.0964041
0.0457584
-0.0198494
-0.104511
-0.212891
-0.351293
-0.52643
-0.734893
-1.09448
-1.7698
-0.848101
-2.14664
-1.65333
-2.00089
-2.46805
-2.92481
-3.32881
-3.59976
-3.62254
-3.41546
-2.99366
-2.38019
-1.62345
-0.806548
0.00532544
0.732349
1.34664
1.84214
2.20652
2.44855
2.57363
2.57479
2.47882
2.26264
1.99125
1.6772
1.38964
1.37154
1.31271
1.41699
1.67313
1.46946
2.49271
0.0186613
0.038151
0.0568345
0.0742865
0.0887083
0.104272
0.118256
0.133251
0.147532
0.16206
0.176074
0.190539
0.206449
0.225748
0.249377
0.27704
0.308333
0.342979
0.38018
0.419304
0.458843
0.496246
0.527628
0.548012
0.552691
0.539132
0.5087
0.466717
0.420242
0.375082
0.334484
0.298848
0.266432
0.235032
0.201766
0.163331
0.11586
0.0549723
-0.0239578
-0.125847
-0.256225
-0.421812
-0.62861
-0.875542
-1.2687
-1.9267
-0.935358
-2.50785
-1.89348
-2.22965
-2.77747
-3.29997
-3.76432
-4.07459
-4.0965
-3.85618
-3.37202
-2.67046
-1.80909
-0.882779
0.0353474
0.858199
1.5543
2.11637
2.53035
2.80614
2.94981
2.953
2.84615
2.60157
2.2955
1.93647
1.61819
1.58966
1.54742
1.67097
1.95529
1.76307
2.72088
0.0204662
0.0434039
0.0645891
0.0848851
0.101433
0.119439
0.13556
0.152886
0.169373
0.186125
0.202224
0.218771
0.236946
0.25907
0.286252
0.318078
0.354094
0.393958
0.436738
0.481645
0.526723
0.568687
0.602734
0.623187
0.62532
0.607481
0.572405
0.526401
0.476556
0.427976
0.383347
0.343059
0.305749
0.269578
0.231508
0.187655
0.133303
0.0631487
-0.0283266
-0.146897
-0.298877
-0.491227
-0.729123
-1.01265
-1.42448
-2.05642
-1.27157
-2.84258
-2.15878
-2.45651
-3.09442
-3.68488
-4.21281
-4.56484
-4.58532
-4.30999
-3.76134
-2.96882
-2
-0.961164
0.066013
0.987021
1.76673
2.39646
2.86067
3.17061
3.33333
3.33897
3.22168
2.94876
2.60781
2.20252
1.85181
1.81087
1.78175
1.9245
2.23385
2.05889
3.00893
0.0220399
0.0485953
0.0721204
0.0953102
0.113935
0.134393
0.15264
0.172305
0.191002
0.209975
0.228133
0.246702
0.267066
0.291962
0.322677
0.358645
0.399369
0.444413
0.49268
0.543115
0.593143
0.638617
0.673894
0.69297
0.691717
0.669877
0.631484
0.583229
0.531623
0.480805
0.432983
0.388702
0.34705
0.306521
0.263831
0.214489
0.152953
0.0730643
-0.0315224
-0.167358
-0.341389
-0.560607
-0.82938
-1.14784
-1.57042
-2.19251
-1.8422
-3.0652
-2.43999
-2.67597
-3.41538
-4.076
-4.66949
-5.06516
-5.08315
-4.77069
-4.15551
-3.26956
-2.19133
-1.03835
0.099421
1.11939
1.98323
2.68062
3.19487
3.53878
3.72073
3.72922
3.60206
3.30121
2.92546
2.47309
2.08866
2.03439
2.01657
2.17731
2.50949
2.3553
3.27094
0.0233884
0.0537369
0.0794189
0.105549
0.126186
0.1491
0.169453
0.191461
0.212368
0.233554
0.253733
0.274249
0.296707
0.324309
0.358532
0.398615
0.444018
0.494167
0.547713
0.603172
0.657166
0.704677
0.739492
0.755879
0.751014
0.726227
0.686289
0.637486
0.585271
0.53273
0.481804
0.433463
0.387466
0.342742
0.295741
0.241285
0.172915
0.0835427
-0.0340183
-0.187028
-0.382878
-0.628398
-0.927213
-1.27831
-1.70894
-2.34159
-2.5213
-3.05872
-2.72987
-2.88813
-3.74179
-4.47686
-5.13737
-5.57828
-5.59271
-5.24063
-4.55654
-3.57425
-2.38425
-1.11538
0.135349
1.25519
2.20383
2.96889
3.53297
3.91063
4.11199
4.1238
3.9874
3.65912
3.24862
2.74841
2.3288
2.26056
2.25219
2.42968
2.78285
2.65008
3.45131
0.0245188
0.0588557
0.0864999
0.115622
0.138201
0.163576
0.186015
0.21037
0.233491
0.256887
0.279049
0.30143
0.325876
0.356116
0.393827
0.438
0.488043
0.543153
0.601581
0.661209
0.717757
0.765497
0.798152
0.811078
0.803284
0.777337
0.737879
0.690143
0.638337
0.58458
0.530801
0.478606
0.428545
0.379975
0.32899
0.26964
0.194495
0.0955484
-0.0351679
-0.205479
-0.422971
-0.694125
-1.02194
-1.40358
-1.84415
-2.48909
-3.08629
-2.82584
-3.03585
-3.09701
-4.07396
-4.89109
-5.62017
-6.10724
-6.1169
-5.72233
-4.96647
-3.88427
-2.57952
-1.19244
0.1739
1.39496
2.42919
3.26205
3.87576
4.28696
4.50794
4.5236
4.37865
4.02347
3.57809
3.02921
2.57259
2.48978
2.48907
2.68159
3.05568
2.94187
3.67132
0.0254335
0.0639693
0.0933662
0.125532
0.149975
0.177813
0.202313
0.229021
0.25436
0.279961
0.304065
0.328216
0.35453
0.387333
0.428513
0.476741
0.531339
0.591114
0.653713
0.716214
0.773495
0.819488
0.848648
0.858255
0.849118
0.824181
0.787111
0.741737
0.691032
0.636287
0.579672
0.523631
0.469645
0.417518
0.362903
0.298977
0.217257
0.108805
-0.0350626
-0.222559
-0.4612
-0.756954
-1.11235
-1.52263
-1.97656
-2.61838
-3.39763
-2.6125
-3.38004
-3.31453
-4.41083
-5.32095
-6.12129
-6.65432
-6.65724
-6.21687
-5.386
-4.19973
-2.77687
-1.26896
0.215531
1.53956
2.65989
3.56041
4.22347
4.66783
4.90866
4.92873
4.77593
4.3945
3.91401
3.31564
2.82004
2.72218
2.72749
2.93305
3.32805
3.23321
4.03049
0.0261333
0.069098
0.100025
0.135291
0.16151
0.19181
0.218347
0.247413
0.274977
0.302783
0.328786
0.354602
0.382648
0.417932
0.462564
0.514785
0.573753
0.637639
0.703278
0.766922
0.822835
0.865269
0.89045
0.897957
0.889665
0.867904
0.834831
0.792798
0.743672
0.688061
0.628608
0.568772
0.511081
0.455774
0.397934
0.329737
0.241566
0.123572
-0.0335145
-0.238072
-0.497279
-0.816487
-1.19796
-1.63546
-2.10726
-2.73827
-3.55682
-2.70539
-3.68867
-3.55027
-4.75066
-5.76794
-6.64473
-7.22265
-7.21582
-6.7257
-5.81615
-4.52107
-2.97632
-1.34465
0.260788
1.6896
2.89676
3.86437
4.57619
5.05329
5.31409
5.33919
5.17934
4.77241
4.25647
3.60781
3.07115
2.95785
2.96764
3.18399
3.59957
3.51967
4.22216
0.0266155
0.0742603
0.106479
0.144904
0.172805
0.205566
0.234109
0.26554
0.295339
0.325353
0.353208
0.380571
0.410195
0.447872
0.495926
0.552013
0.614968
0.682026
0.749136
0.811845
0.864246
0.901992
0.923893
0.931352
0.926217
0.909498
0.881645
0.843628
0.796366
0.739874
0.677484
0.613832
0.552633
0.494536
0.433903
0.361748
0.267234
0.139651
-0.0306912
-0.252087
-0.53117
-0.872646
-1.27872
-1.74247
-2.237
-2.86449
-3.69611
-3.20029
-3.75107
-3.79753
-5.09106
-6.23239
-7.19474
-7.81625
-7.7952
-7.25056
-6.25825
-4.84892
-3.17801
-1.41927
0.310201
1.84569
3.14074
4.17487
4.93425
5.44336
5.72427
5.75509
5.58901
5.15746
4.60565
3.90585
3.32585
3.19684
3.20962
3.43438
3.87118
3.80336
4.52785
0.0268749
0.0794754
0.112733
0.154379
0.183859
0.219075
0.249594
0.283397
0.315446
0.347674
0.377336
0.406113
0.437142
0.47711
0.528521
0.588204
0.654437
0.723297
0.789939
0.849428
0.89661
0.929743
0.950146
0.959919
0.959993
0.949762
0.927997
0.894443
0.849198
0.791723
0.726244
0.658739
0.594261
0.533818
0.470849
0.395013
0.294169
0.156847
-0.026834
-0.264843
-0.563137
-0.925838
-1.35529
-1.84464
-2.36599
-3.00263
-3.83734
-3.76458
-3.48367
-4.08102
-5.43748
-6.71431
-7.77568
-8.44043
-8.39869
-7.79318
-6.71363
-5.18387
-3.38203
-1.4925
0.364341
2.0085
3.39249
4.49286
5.29832
5.83808
6.1392
6.17642
6.00502
5.54986
4.96165
4.2098
3.58396
3.43906
3.45339
3.68417
4.14277
4.08325
4.81343
0.0269026
0.0847631
0.118789
0.163722
0.19467
0.232334
0.264794
0.300977
0.335295
0.369751
0.401172
0.431217
0.463452
0.505578
0.560192
0.622941
0.691335
0.760254
0.824198
0.878329
0.919677
0.949587
0.970822
0.98508
0.991967
0.989263
0.974174
0.945365
0.902193
0.843543
0.774748
0.703308
0.635789
0.573476
0.508624
0.429299
0.322
0.174675
-0.0224744
-0.276875
-0.593776
-0.976874
-1.4288
-1.94333
-2.49416
-3.15017
-3.9699
-4.09709
-3.22421
-4.45436
-5.81185
-7.21255
-8.3886
-9.09907
-9.03039
-8.35578
-7.1836
-5.52658
-3.58847
-1.56399
0.42382
2.17872
3.65267
4.81897
5.66917
6.23777
6.55863
6.60308
6.42734
5.94974
5.32447
4.51962
3.84512
3.68425
3.69872
3.93331
4.4141
4.35763
5.08818
0.0266866
0.0901442
0.124649
0.172938
0.205235
0.245336
0.279701
0.318273
0.354885
0.391589
0.424723
0.455872
0.489074
0.533164
0.59064
0.655547
0.724618
0.791559
0.850449
0.897917
0.934307
0.963228
0.987549
1.008
1.02285
1.02839
1.02038
0.996488
0.955373
0.895272
0.822863
0.747372
0.677089
0.613421
0.547095
0.46431
0.350218
0.192461
-0.0183571
-0.288944
-0.623921
-1.02681
-1.50068
-2.04021
-2.62217
-3.30445
-4.11012
-4.31803
-3.38167
-4.78537
-6.22917
-7.72672
-9.03955
-9.79738
-9.69424
-8.94101
-7.66967
-5.8777
-3.79744
-1.6334
0.489287
2.3571
3.92202
5.15366
6.04735
6.64292
6.98256
7.03497
6.85592
6.35721
5.69414
4.83519
4.10889
3.932
3.94525
4.18175
4.68519
4.62893
5.35527
0.0262111
0.0956411
0.130313
0.182034
0.215552
0.258074
0.294306
0.335276
0.374214
0.413197
0.448
0.480063
0.513931
0.559653
0.619333
0.685116
0.753133
0.81576
0.867679
0.908709
0.942208
0.972478
1.00168
1.02952
1.05312
1.06742
1.06676
1.0479
1.00877
0.946847
0.870441
0.790757
0.718034
0.653551
0.586042
0.499563
0.378051
0.209255
-0.01545
-0.30196
-0.654482
-1.07671
-1.5723
-2.13705
-2.75134
-3.46489
-4.275
-4.58209
-4.02517
-4.81098
-6.69425
-8.2591
-9.73665
-10.5465
-10.3968
-9.55188
-8.1737
-6.23794
-4.00911
-1.70035
0.561426
2.54442
4.20128
5.49749
6.43307
7.05391
7.41126
7.47182
7.29064
6.77233
6.07058
5.15637
4.3747
4.18174
4.19253
4.42941
4.95589
4.89881
5.65612
0.0254554
0.101279
0.13578
0.191015
0.225615
0.270541
0.308597
0.351976
0.393281
0.434586
0.471012
0.503758
0.537879
0.584642
0.645495
0.710664
0.775583
0.831539
0.875931
0.912308
0.945356
0.978874
1.01418
1.05022
1.08311
1.10656
1.11347
1.09973
1.06245
0.998224
0.917351
0.833324
0.758568
0.693807
0.625179
0.534375
0.40447
0.223917
-0.0147871
-0.316789
-0.686248
-1.12743
-1.64478
-2.23533
-2.88322
-3.63131
-4.46404
-4.88006
-4.65967
-4.55794
-7.27124
-8.82321
-10.4793
-11.3546
-11.1471
-10.194
-8.69766
-6.60812
-4.22363
-1.76447
0.640963
2.74153
4.49124
5.851
6.82653
7.47084
7.8447
7.91331
7.7313
7.19515
6.45373
5.48293
4.64194
4.43281
4.43999
4.67617
5.22555
5.16567
5.94629
0.0243945
0.107085
0.141049
0.199884
0.235422
0.282725
0.322561
0.368362
0.412084
0.455764
0.493764
0.526892
0.560637
0.607476
0.668261
0.731142
0.790523
0.838361
0.876535
0.910807
0.945475
0.983525
1.02571
1.07045
1.11306
1.14602
1.16072
1.15213
1.11651
1.04938
0.963485
0.874997
0.798724
0.734152
0.664071
0.567766
0.428187
0.235243
-0.0172714
-0.334065
-0.719713
-1.17944
-1.71871
-2.33601
-3.01916
-3.8047
-4.67165
-5.18771
-5.06892
-4.43784
-8.0023
-9.44882
-11.2655
-12.2233
-11.9524
-10.8741
-9.24483
-6.98922
-4.44118
-1.82535
0.728666
2.94929
4.79272
6.21474
7.22792
7.89358
8.28304
8.35965
8.1777
7.62567
6.84348
5.81462
4.90987
4.68438
4.68699
4.92192
5.49403
5.43304
6.2032
0.022997
0.11309
0.146118
0.208647
0.244965
0.294617
0.336185
0.384421
0.430618
0.476741
0.516241
0.549306
0.581692
0.627355
0.686842
0.745234
0.796848
0.837066
0.871626
0.906127
0.943813
0.987144
1.03665
1.09047
1.14321
1.18603
1.20873
1.20535
1.17112
1.10034
1.00878
0.915796
0.838659
0.774535
0.702009
0.598414
0.447816
0.242237
-0.0234416
-0.354021
-0.754966
-1.23278
-1.79418
-2.43946
-3.16014
-3.98712
-4.89746
-5.51435
-5.48138
-4.83441
-8.79131
-10.165
-12.0945
-13.1532
-12.8164
-11.5983
-9.82053
-7.38237
-4.66203
-1.88258
0.82535
3.16865
5.1066
6.58927
7.63737
8.32196
8.72638
8.81091
8.62955
8.06387
7.23968
6.15113
5.17775
4.93548
4.9328
5.16651
5.7609
5.6983
6.52417
0.0212253
0.119329
0.150984
0.217306
0.254239
0.306202
0.349452
0.400136
0.448878
0.49751
0.538373
0.570652
0.600301
0.64361
0.700298
0.751438
0.794669
0.829678
0.863337
0.899675
0.941165
0.990158
1.04726
1.11051
1.17379
1.22691
1.25783
1.25968
1.22649
1.15117
1.05324
0.955877
0.878664
0.814753
0.737838
0.624736
0.462165
0.244376
-0.0333156
-0.376405
-0.791623
-1.287
-1.87079
-2.54548
-3.30654
-4.18039
-5.14353
-5.86991
-6.02526
-5.85893
-9.50364
-10.976
-12.9684
-14.1469
-13.7395
-12.3717
-10.43
-7.78992
-4.88657
-1.93571
0.931878
3.4006
5.43378
6.97518
8.05502
8.75573
9.17429
9.26661
9.08638
8.50968
7.64216
6.49209
5.44475
5.18504
5.17663
5.4098
6.02526
5.96465
6.79161
0.0190336
0.125843
0.155644
0.225865
0.263238
0.317466
0.362343
0.415486
0.466844
0.518034
0.559955
0.590298
0.615764
0.655696
0.707158
0.748969
0.78563
0.818537
0.853278
0.892338
0.937993
0.992831
1.05776
1.13081
1.20515
1.26903
1.30842
1.31553
1.28291
1.20196
1.09691
0.995584
0.919113
0.854168
0.769873
0.645214
0.470609
0.2418
-0.0463316
-0.40045
-0.828821
-1.34122
-1.94773
-2.65351
-3.45824
-4.38533
-5.41132
-6.25837
-6.6944
-7.24612
-9.98626
-11.8805
-13.8932
-15.2092
-14.7221
-13.1967
-11.0772
-8.21532
-5.11518
-1.9843
1.04917
3.64621
5.77524
7.37303
8.48091
9.19457
9.62633
9.72675
9.54831
8.96299
8.05076
6.83709
5.71003
5.43183
5.41763
5.65156
6.28688
6.2323
7.09169
0.016367
0.132678
0.160092
0.234326
0.271953
0.328391
0.374835
0.430442
0.484475
0.538184
0.580505
0.607464
0.627821
0.662641
0.705886
0.738728
0.772222
0.805511
0.842448
0.884618
0.934567
0.995364
1.06837
1.15167
1.23767
1.31288
1.36102
1.3734
1.34075
1.25282
1.13995
1.03552
0.960219
0.891331
0.796135
0.65891
0.473338
0.235331
-0.0613788
-0.424917
-0.865271
-1.39418
-2.02391
-2.76274
-3.61478
-4.60186
-5.70107
-6.68043
-7.43445
-8.63766
-10.2012
-12.8949
-14.8783
-16.3454
-15.7659
-14.0734
-11.7659
-8.66156
-5.34882
-2.02798
1.17819
3.90661
6.132
7.78344
8.91506
9.63809
10.0819
10.1913
10.0156
9.42377
8.46526
7.18567
5.97277
5.67456
5.65488
5.89151
6.54462
6.4956
7.39123
0.0131595
0.139888
0.164325
0.242692
0.280377
0.338956
0.3869
0.444958
0.501677
0.557626
0.59919
0.621633
0.636185
0.662718
0.696172
0.722939
0.756627
0.79177
0.831406
0.876791
0.931082
0.997972
1.07938
1.17349
1.27185
1.35905
1.41626
1.43391
1.40039
1.30382
1.18259
1.07654
1.00145
0.923873
0.81502
0.665879
0.471378
0.226386
-0.0768845
-0.448179
-0.899375
-1.44442
-2.09812
-2.87221
-3.77542
-4.82916
-6.01174
-7.13388
-8.19148
-9.7528
-10.3292
-14.0706
-15.9376
-17.5591
-16.8746
-15.0013
-12.4982
-9.13047
-5.58972
-2.06643
1.31998
4.18305
6.50515
8.20703
9.35743
10.0858
10.5405
10.6598
10.488
9.89192
8.88543
7.53732
6.23216
5.91186
5.88748
6.12932
6.798
6.76043
7.65615
0.00933208
0.147535
0.168339
0.250962
0.288501
0.349137
0.398495
0.458955
0.518227
0.575654
0.615121
0.632674
0.639177
0.654021
0.679858
0.704349
0.740328
0.777926
0.820437
0.869048
0.927742
1.00092
1.09114
1.19673
1.30831
1.40826
1.47488
1.49779
1.46215
1.3548
1.22539
1.11942
1.04075
0.949109
0.826072
0.667251
0.466419
0.21683
-0.090944
-0.468372
-0.929403
-1.49045
-2.16913
-2.98095
-3.93922
-5.06588
-6.34129
-7.61535
-8.9433
-10.5978
-10.6357
-15.4695
-17.0925
-18.8509
-18.0519
-15.981
-13.2747
-9.62337
-5.83985
-2.09931
1.47561
4.47685
6.89587
8.64444
9.80791
10.5372
11.0012
11.1317
10.9649
10.3672
9.31102
7.89142
6.48746
6.14236
6.11455
6.36446
7.04653
7.02644
7.96831
0.00478955
0.155691
0.172128
0.259136
0.296312
0.358897
0.409559
0.472286
0.533632
0.59121
0.627918
0.640648
0.636044
0.636874
0.6591
0.684547
0.723951
0.764303
0.809722
0.861574
0.924796
1.00452
1.10407
1.22195
1.34779
1.4614
1.53779
1.56581
1.52608
1.40537
1.26943
1.16375
1.07446
0.965321
0.830317
0.664973
0.460588
0.208797
-0.101496
-0.483598
-0.953718
-1.53094
-2.23592
-3.08802
-4.10507
-5.31027
-6.68702
-8.12128
-9.69414
-11.3813
-11.3438
-16.9812
-18.367
-20.2209
-19.3003
-17.0145
-14.0948
-10.1416
-6.09958
-2.12651
1.64626
4.78946
7.30542
9.09634
10.2663
10.9915
11.4632
11.6064
11.4461
10.8494
9.74168
8.24729
6.73799
6.36477
6.33527
6.5963
7.28918
7.28683
8.28428
-0.000582504
0.164439
0.175689
0.267207
0.303794
0.368188
0.419992
0.484647
0.547008
0.603413
0.637265
0.64217
0.619994
0.612308
0.636188
0.664809
0.707841
0.750996
0.799416
0.854608
0.922552
1.00918
1.11867
1.24983
1.39117
1.51949
1.60601
1.63865
1.59151
1.45519
1.31603
1.20647
1.09864
0.972821
0.829951
0.661435
0.456217
0.204492
-0.106543
-0.49216
-0.970989
-1.5649
-2.29771
-3.19257
-4.27178
-5.56037
-7.04582
-8.64706
-10.4462
-12.1901
-12.5691
-18.4975
-19.7834
-21.672
-20.6199
-18.1041
-14.958
-10.6854
-6.3686
-2.14848
1.83308
5.12247
7.73516
9.56343
10.7325
11.448
11.9257
12.0832
11.9318
11.339
10.177
8.60406
6.98312
6.57787
6.54896
6.82407
7.52573
7.54988
8.55596
-0.00692228
0.173878
0.179016
0.275166
0.310922
0.376938
0.429614
0.495439
0.557314
0.612013
0.642041
0.634052
0.59343
0.586605
0.610777
0.645156
0.692109
0.738214
0.789751
0.848442
0.921373
1.01534
1.13554
1.28114
1.43948
1.58373
1.68063
1.71647
1.65673
1.50475
1.365
1.2418
1.11141
0.973937
0.82772
0.659161
0.455616
0.205961
-0.104391
-0.492784
-0.980352
-1.59178
-2.35397
-3.29389
-4.43817
-5.81417
-7.41435
-9.18679
-11.1964
-13.0547
-14.2645
-19.9446
-21.3528
-23.2108
-22.0099
-19.2517
-15.8643
-11.2543
-6.64689
-2.16547
2.03736
5.47761
8.18661
10.0465
11.206
11.9059
12.3874
12.5614
12.4219
11.8362
10.6166
8.96064
7.22225
6.78058
6.75505
7.04679
7.75598
7.80545
8.89668
-0.0143975
0.18412
0.182105
0.282991
0.317655
0.385031
0.438075
0.503759
0.56406
0.617817
0.642934
0.613156
0.565006
0.561938
0.585139
0.626383
0.676866
0.726164
0.78101
0.843422
0.921664
1.02349
1.15531
1.3168
1.49393
1.6555
1.76256
1.79813
1.71932
1.55557
1.41213
1.26386
1.11433
0.972028
0.826402
0.660551
0.460843
0.21485
-0.0938687
-0.484768
-0.981465
-1.61137
-2.40442
-3.39132
-4.60303
-6.06961
-7.78908
-9.73362
-11.9396
-13.9907
-16.3142
-21.1991
-23.0573
-24.8474
-23.4705
-20.4587
-16.8141
-11.847
-6.93446
-2.17702
2.2605
5.85687
8.66143
10.5462
11.6865
12.3641
12.8473
13.04
12.916
12.3411
11.0598
9.31562
7.45471
6.97198
6.95303
7.26321
7.97959
8.06236
9.19047
-0.0232131
0.195292
0.184946
0.290647
0.323926
0.392265
0.444766
0.508854
0.567772
0.621837
0.635168
0.586447
0.537623
0.536307
0.558969
0.608147
0.662296
0.715156
0.773503
0.839908
0.923856
1.0342
1.17872
1.3578
1.55587
1.73621
1.852
1.88039
1.77779
1.60807
1.4489
1.27061
1.11157
0.970418
0.828512
0.66765
0.473468
0.232202
-0.0744576
-0.468008
-0.974433
-1.62374
-2.44884
-3.48419
-4.76509
-6.32455
-8.16617
-10.2802
-12.6705
-14.9866
-18.4649
-22.084
-24.851
-26.5931
-25.0035
-21.7264
-17.8071
-12.4625
-7.23099
-2.18184
2.50416
6.26256
9.16153
11.0635
12.1735
12.8214
13.304
13.518
13.4135
12.8534
11.5059
9.66712
7.67956
7.15115
7.14229
7.47176
8.19703
8.31794
9.51737
-0.0336209
0.207539
0.187523
0.298076
0.329622
0.398274
0.448974
0.510991
0.57007
0.623365
0.615891
0.561577
0.509428
0.511027
0.533282
0.590937
0.648678
0.705459
0.767545
0.838275
0.928395
1.04802
1.20655
1.40524
1.62679
1.82715
1.9474
1.95803
1.83315
1.65742
1.46682
1.26554
1.10785
0.971866
0.836093
0.681931
0.494384
0.258341
-0.0462877
-0.44288
-0.959629
-1.62904
-2.48699
-3.57176
-4.92302
-6.57671
-8.54142
-10.819
-13.3841
-16
-20.3408
-22.5372
-26.71
-28.4597
-26.6114
-23.0568
-18.8429
-13.099
-7.53547
-2.17783
2.77033
6.6974
9.68911
11.5992
12.6662
13.2767
13.7561
13.9945
13.914
13.3731
11.9537
10.0127
7.89534
7.31714
7.32203
7.67069
8.40802
8.5584
9.85134
-0.0459329
0.221016
0.189804
0.305182
0.334543
0.402541
0.450573
0.512251
0.574862
0.615239
0.595415
0.537014
0.480433
0.486248
0.508123
0.574868
0.636264
0.697382
0.763451
0.838885
0.935722
1.06552
1.2396
1.46028
1.7082
1.92888
2.04397
2.02635
1.88696
1.69239
1.46371
1.25553
1.10684
0.978431
0.850517
0.704124
0.523724
0.292916
-0.00997389
-0.410009
-0.937462
-1.62729
-2.51844
-3.65312
-5.0753
-6.82355
-8.91021
-11.3431
-14.0764
-16.981
-21.6635
-22.8244
-28.7035
-30.4692
-28.2969
-24.4525
-19.9208
-13.7549
-7.84592
-2.16255
3.06137
7.16464
10.2469
12.1545
13.1641
13.7286
14.202
14.4681
14.4171
13.8997
12.4017
10.3489
8.09971
7.46876
7.49135
7.8584
8.61317
8.79755
10.1309
-0.0605367
0.23588
0.191735
0.311815
0.338365
0.404684
0.450507
0.514379
0.578985
0.600494
0.577965
0.511324
0.451611
0.461925
0.484156
0.560299
0.625346
0.691198
0.761512
0.842078
0.94624
1.08725
1.27861
1.52406
1.80152
2.04007
2.13329
2.085
1.93523
1.70144
1.44583
1.24699
1.11078
0.991381
0.872338
0.734166
0.560935
0.335107
0.0336573
-0.370001
-0.908167
-1.61831
-2.54256
-3.72717
-5.22021
-7.06221
-9.26747
-11.8462
-14.7446
-17.9107
-22.5528
-23.3467
-30.9125
-32.6658
-30.0615
-25.9165
-21.0404
-14.4277
-8.15951
-2.13372
3.38001
7.66815
10.8381
12.7303
13.666
14.1754
14.6398
14.9377
14.9225
14.4331
12.8478
10.6717
8.28898
7.60442
7.64922
8.03356
8.81321
9.03096
10.4457
-0.0779116
0.252275
0.193228
0.317733
0.340742
0.405122
0.451213
0.520321
0.574469
0.588304
0.560864
0.485438
0.423336
0.437787
0.461994
0.547413
0.616211
0.687161
0.761984
0.848133
0.960282
1.11365
1.32427
1.59764
1.90757
2.15565
2.20633
2.13769
1.96499
1.68194
1.42374
1.24361
1.12078
1.01107
0.901286
0.771318
0.605031
0.383937
0.0838664
-0.323214
-0.871671
-1.6016
-2.55845
-3.7926
-5.35585
-7.28947
-9.608
-12.3238
-15.3884
-18.7999
-23.3439
-24.5121
-33.2172
-35.1195
-31.9096
-27.4514
-22.2023
-15.1151
-8.47299
-2.08884
3.7294
8.21252
11.467
13.3283
14.171
14.6154
15.0678
15.4019
15.4298
14.9726
13.2892
10.9754
8.45742
7.72188
7.79405
8.19486
9.00803
9.24335
10.7511
-0.0986347
0.270291
0.194142
0.322618
0.341635
0.405148
0.454336
0.526373
0.566288
0.579143
0.543463
0.460194
0.395976
0.413245
0.442418
0.53642
0.60915
0.685487
0.765074
0.857256
0.978075
1.14503
1.37712
1.68191
2.02567
2.26536
2.2598
2.18423
1.961
1.64339
1.40579
1.2465
1.13694
1.03702
0.936467
0.81448
0.654947
0.438594
0.140229
-0.269642
-0.827554
-1.57637
-2.56503
-3.84799
-5.48013
-7.50175
-9.92698
-12.7732
-16.0082
-19.6605
-24.2159
-26.5487
-35.4976
-37.8918
-33.851
-29.0602
-23.4082
-15.8155
-8.78295
-2.02465
4.11305
8.80305
12.1388
13.9502
14.6777
15.0468
15.4838
15.8592
15.9392
15.5179
13.7222
11.2532
8.5969
7.8181
7.92272
8.34026
9.19768
9.45155
10.9731
-0.123354
0.289903
0.194286
0.326228
0.341711
0.406796
0.461513
0.526505
0.561683
0.570535
0.526703
0.435965
0.370247
0.387015
0.426123
0.527523
0.604463
0.686361
0.770934
0.869558
0.999719
1.18156
1.43753
1.77737
2.15171
2.35601
2.29904
2.21206
1.91752
1.60118
1.39514
1.25528
1.15851
1.06818
0.976725
0.862565
0.709864
0.498649
0.202743
-0.208888
-0.775087
-1.54164
-2.56107
-3.89187
-5.59081
-7.69535
-10.2209
-13.1945
-16.6052
-20.5015
-25.2463
-29.3381
-37.516
-40.9757