/*--------------------------------*- C++ -*----------------------------------*\
| =========                 |                                                 |
| \\      /  F ield         | OpenFOAM: The Open Source CFD Toolbox           |
|  \\    /   O peration     | Version:  4.1                                   |
|   \\  /    A nd           | Web:      www.OpenFOAM.org                      |
|    \\/     M anipulation  |                                                 |
\*---------------------------------------------------------------------------*/
FoamFile
{
    version     2.0;
    format      ascii;
    class       surfaceScalarField;
    location    "20";
    object      phi;
}
// * * * * * * * * * * * * * * * * * * * * * * * * * * * * * * * * * * * * * //

dimensions      [0 3 -1 0 0 0 0];

internalField   nonuniform List<scalar> 
13220
(
-804.829
2104.73
-1252.03
1747.41
-1711.73
1759.6
-2047.59
1635.75
-2321.75
1574.37
-2516.66
1494.8
-2640.07
1423.31
-2689.73
1349.87
-2667.94
1278.11
-2572.81
1204.77
-2403.04
1130.44
-2148.36
1045.22
-1742.67
894.207
-1048.68
606.21
251.224
-179.973
2284.7
-395.453
1962.89
-633.994
1998.14
-803.701
1805.46
-961.392
1732.06
-1067.13
1600.54
-1141.6
1497.78
-1180.2
1388.46
-1194.27
1292.18
-1186.9
1197.4
-1150.63
1094.17
-1062.78
957.371
-883.457
714.886
-555.54
278.296
-304.316
-102.593
2387.3
-240.84
2101.14
-328.051
2085.36
-359.483
1836.89
-380.05
1752.63
-356.48
1576.97
-315.004
1456.31
-241.295
1314.76
-132.196
1183.08
10.8408
1054.36
159.764
945.247
289.108
828.033
351.634
652.37
260.324
369.624
-43.9922
-4.88885
2392.19
-40.0592
2136.31
-49.7549
2095.05
-65.4165
1852.56
-82.7009
1769.92
-103.638
1597.91
-130.618
1483.29
-125.082
1309.22
-30.376
1088.38
183.491
840.5
459.058
669.682
693.948
593.142
763.795
582.522
547.994
585.424
504.002
-96.2301
2488.42
-214.47
2254.55
-317.224
2197.81
-447.654
1982.99
-583.702
1905.96
-737.391
1751.6
-908.159
1654.06
-1064.96
1466.02
-1157.19
1180.62
-1124.76
808.063
-954.917
499.842
-665.698
303.926
-324.1
240.926
-69.6212
330.947
434.381
-20.2936
2508.71
-178.128
2412.38
-271.653
2291.33
-365.718
2077.05
-457.051
1997.3
-546.32
1840.87
-637.097
1744.84
-747.68
1576.6
-905.487
1338.42
-1102.56
1005.13
-1268.39
665.674
-1305.21
340.741
-1128.5
64.2124
-647.575
-149.988
-213.194
186.14
2322.57
96.5906
2501.93
102.766
2285.16
138.296
2041.52
194.803
1940.79
258.294
1777.38
340.406
1662.72
405.428
1511.58
404.814
1339.03
294.414
1115.53
101.923
858.164
-122.274
564.942
-251.089
193.03
-261.612
-139.464
-474.806
252.635
2069.94
254.88
2499.68
308.614
2231.42
395.692
1954.44
505.62
1830.86
617.491
1665.51
744.39
1535.83
867.826
1388.14
965.599
1241.26
998.464
1082.66
950.125
906.503
803.365
711.698
521.036
475.355
186.581
194.985
-288.225
179.841
1890.09
218.531
2461
261.446
2188.51
323.549
1892.34
400.649
1753.76
472.88
1593.28
546.24
1462.46
611.542
1322.84
663.064
1189.74
686.924
1058.81
669.726
923.7
600.452
780.974
465.567
610.241
262.291
398.263
-25.9348
97.4652
1792.63
155.561
2402.9
197.87
2146.2
247.646
1842.56
310.407
1691
363.164
1540.52
409.352
1416.28
445.207
1286.99
471.4
1163.54
487.936
1042.27
487.89
923.746
454.753
814.108
364.067
700.923
195.94
566.382
170.005
29.4202
1763.21
118.119
2314.2
193.689
2070.63
266.606
1769.64
347.747
1609.86
427.359
1460.91
504.934
1338.7
582.48
1209.44
660.419
1085.6
730.045
972.641
764.352
889.438
725.737
852.723
580.088
846.572
334.147
812.322
504.152
-78.3266
1841.53
26.5508
2209.32
138.8
1958.38
201.961
1706.48
270.81
1541.01
374.346
1357.37
515.562
1197.48
687.071
1037.93
864.242
908.432
1002.43
834.455
1042.38
849.484
943.309
951.794
699.24
1090.64
370.54
1141.02
874.692
-63.4003
1904.93
-156.396
2302.32
-208.404
2010.38
-234.525
1732.6
-222.525
1529.01
-173.701
1308.55
-87.9846
1111.77
25.6863
924.258
151.574
782.544
267.59
718.437
348.512
768.561
361.395
938.911
281.081
1170.95
132.013
1290.09
1006.71
414.204
1490.73
434.539
2281.98
182.866
2262.06
-159.574
2075.04
-511.667
1881.1
-852.853
1649.73
-1153.98
1412.89
-1411.33
1181.61
-1599.38
970.592
-1678.13
797.189
-1603.03
693.459
-1347.52
683.394
-940.974
764.408
-484.629
833.743
522.076
923.964
2041.07
2632.09
2874.68
2940.82
2809.07
2493.76
2111
1632.4
1114.65
638.649
293.87
136.718
103.747
8.80985e-06
519.489
-519.489
519.489
519.489
519.489
1043.66
-524.17
1043.66
1043.66
1043.66
1392.21
-348.555
1392.21
1392.21
1609.17
-216.954
1609.17
1609.17
1609.17
1734.05
-124.885
1734.05
1734.05
1789.34
-55.2921
1789.34
1789.34
1789.34
1782.27
7.07535
1782.27
1782.27
1782.27
1727.53
54.7436
1727.53
1727.53
1634.56
92.964
1634.56
1634.56
1634.56
1522.88
111.682
1522.88
1522.88
1397.58
125.298
1397.58
1397.58
1397.58
1298.05
99.5271
1298.05
1298.05
1298.05
1296.36
1.6923
1296.36
1296.36
1217.67
78.6901
1217.67
1217.67
1217.67
999.685
217.987
999.685
999.685
999.685
642.857
356.828
642.857
642.857
222.552
420.305
222.552
222.552
222.552
-271.133
493.685
-271.133
-271.133
-1366.09
1094.95
-1366.09
-1366.09
-1366.09
-2967.83
1601.74
-2967.83
-2967.83
-2967.83
-4980.17
2012.35
-4980.17
-4980.17
-7274.31
2294.13
-7274.31
-7274.31
-7157.08
-7044.61
-6932.7
-9243.33
2427.07
-9117.32
-8969.82
-8808.16
-8646.41
-8482.55
-8316.91
-8152.14
-7985.4
-10367.6
2545.03
-10186.1
-10006.8
-9828.39
-9635.7
-9441.83
-9246.89
-9053.08
-8860.76
-11227.5
2564.69
-11007.7
-10786.5
-10564.1
-10341.6
-10110.1
-9861.54
-9611.55
-9359.99
-9108.96
-11362
2489.27
-11089.8
-10817.7
-10545.8
-10274.9
-10004.4
-9716.11
-9417.85
-9120.16
-10979.9
2145.04
-10687.8
-10384.6
-10062.5
-9739.05
-9413.55
-9088.25
-8762.23
-8411.81
-9823.65
1746.54
-9490.72
-9162.32
-8836.69
-8497.65
-8154.49
-7814.45
-7474.41
-7136.53
-7950.3
1155.47
-7606.1
-7262.44
-6918.18
-6575.5
-6236.87
-5902.31
-5574.87
-5256.79
-4952.24
-4927.29
275.032
-4669.99
-4437.75
-4214.28
-4001.85
-3798.05
-3634.02
-3536.15
-3433.79
-3044.13
-268.447
-2944.72
-2843.5
-2843.5
-2675.83
-167.672
-2500.13
-175.701
-2500.13
-2344.31
-155.821
-2344.31
-2204.97
-139.336
-2076.83
-128.145
-2076.83
-1955.5
-121.328
-1844.25
-111.256
-1844.25
-1737.17
-107.076
-1737.17
-1637.19
-99.98
-1545.98
-91.209
-1545.98
-1456.23
-89.7469
-1456.23
-1371.27
-84.9649
-1292.84
-78.4243
-1292.84
-1213.78
-79.0696
-1142.28
-71.4911
-1142.28
-1070.32
-71.9608
-1070.32
-1000.67
-69.6551
-938.242
-62.4266
-938.242
-874.532
-63.7097
-874.532
-812.173
-62.3587
-755.48
-56.693
-755.48
-695.991
-59.4888
-642.824
-53.1678
-642.824
-587.924
-54.8998
-587.924
-533.143
-54.7813
-484.082
-49.0609
-484.082
-432.731
-51.3509
-432.731
-380.218
-52.5131
-332.133
-48.085
-332.133
-280.001
-52.1313
-233.473
-46.5279
-233.473
-185.739
-47.7348
-185.739
-137.312
-48.4269
-94.1732
-43.1386
-94.1732
-52.2545
-41.9186
-52.2545
-12.0855
-40.1691
31.3818
-43.4673
31.3818
60.862
-29.4802
101.093
-40.2314
101.093
131.553
-30.4598
131.553
157.187
-25.6336
189.625
-32.4387
189.625
224.712
-35.0867
224.712
255.13
-30.4184
290.674
-35.544
290.674
331.619
-40.9445
390.343
-58.7242
390.343
461.616
-71.2724
461.616
-74.7607
-150.954
-599.015
-151.705
-674.426
-152.93
-713.59
-154.424
-755.388
-156.27
-792.787
-158.393
-828.327
-160.808
-861.616
-163.495
-893.578
-166.447
-924.105
-169.656
-953.684
-173.116
-982.293
-176.83
-1010.22
-180.809
-1037.64
-185.072
-1064.99
-189.644
-1092.73
-194.552
-1121.39
-199.822
-1151.34
-205.472
-1182.94
-211.511
-1216.39
-217.926
-1251.82
-224.69
-1289.18
-231.811
-1328.09
-239.481
-1367.64
-248.351
-1405.89
-259.871
-1439.51
-276.447
-1463.79
-301.081
-1473.44
-336.387
-1464.4
-383.311
-1435.63
-440.256
-1390.21
-503.08
-1335.1
-565.976
-1279.78
-622.941
-1233.95
-669.296
-1204.71
-702.646
-1194.62
-722.869
-1201.66
-731.323
-1221.02
-729.876
-1246.99
-720.217
-1274.08
-703.523
-1296.95
-680.548
-1309.49
-652.486
-1305.79
-621.477
-1287.23
-583.202
-1259.67
-510.24
-1128.37
-395.56
-513.397
-320.685
593.027
-292.567
1166.06
-267.686
1470.58
-241.903
1757.69
-215.505
2058.62
-188.833
2366.39
-162.093
2677.72
-134.795
2988.84
-106.772
3285.64
-78.6015
3554.27
-50.5966
3789.38
-23.3838
3979.44
1.46427
4096.62
21.364
4103.89
34.495
4009.25
42.2418
3893.03
46.3833
3781.54
48.322
3667.99
49.1797
3542.55
49.5985
3386.89
49.8583
3188.76
50.416
2958.04
50.7626
2663.29
51.3755
2344.37
50.9134
1892.91
50.7976
1484.89
50.8823
674.345
55.1361
166.198
35.2475
-1086.89
37.7962
-1410.2
20.1806
-1554.6
15.9046
-1943.17
3133.78
-158.58
-599.049
-159.179
-673.827
-160.381
-712.388
-161.875
-753.894
-163.772
-790.89
-165.972
-826.127
-168.496
-859.091
-171.314
-890.761
-174.418
-921
-177.796
-950.306
-181.443
-978.646
-185.366
-1006.3
-189.585
-1033.42
-194.127
-1060.44
-199.021
-1087.84
-204.293
-1116.12
-209.967
-1145.67
-216.052
-1176.85
-222.541
-1209.9
-229.409
-1244.96
-236.654
-1281.93
-244.458
-1320.29
-253.501
-1358.59
-265.405
-1393.98
-282.983
-1421.93
-309.858
-1436.91
-349.171
-1434.13
-401.845
-1411.73
-465.454
-1372.02
-534.496
-1321.17
-601.901
-1267.69
-660.999
-1220.68
-707.153
-1187.79
-738.551
-1173.31
-755.906
-1177.26
-761.378
-1196.19
-757.399
-1225
-745.97
-1258.42
-728.467
-1291.59
-705.685
-1319.73
-678
-1337.17
-646.127
-1337.66
-612.434
-1320.92
-576.066
-1296.04
-510.785
-1193.65
-385.064
-639.118
-304.494
512.456
-286.292
1147.86
-264.94
1449.23
-238.755
1731.51
-212.78
2032.65
-186.736
2340.35
-160.633
2651.62
-134.031
2962.23
-106.644
3258.26
-79.0058
3526.63
-51.4318
3761.8
-24.5449
3952.55
0.109187
4071.96
19.9526
4084.05
33.1668
3996.03
41.0815
3885.12
45.4295
3777.19
47.5936
3665.83
48.6761
3541.47
49.319
3386.25
49.8153
3188.26
50.6207
2957.24
51.2638
2662.65
52.1852
2343.45
52.1006
1892.99
52.4728
1484.51
53.1701
673.648
58.797
160.571
34.4792
-1062.57
35.0853
-1410.8
17.3356
-1536.85
11.5372
-1937.37
3074.05
-162.76
-599.157
-163.301
-673.285
-164.495
-711.194
-165.999
-752.391
-167.932
-788.957
-170.183
-823.876
-172.777
-856.498
-175.675
-887.863
-178.871
-917.804
-182.349
-946.828
-186.107
-974.888
-190.155
-1002.25
-194.517
-1029.06
-199.226
-1055.73
-204.311
-1082.76
-209.798
-1110.63
-215.704
-1139.76
-222.032
-1170.52
-228.764
-1203.17
-235.89
-1237.83
-243.522
-1274.3
-252.189
-1311.62
-263.292
-1347.49
-279.48
-1377.79
-304.448
-1396.97
-341.718
-1399.64
-392.724
-1383.13
-455.385
-1349.07
-524.292
-1303.12
-592.417
-1253.05
-653.214
-1206.89
-702.109
-1171.78
-737.071
-1152.83
-758.361
-1152.02
-767.699
-1167.92
-767.287
-1196.6
-759.093
-1233.2
-744.59
-1272.92
-724.783
-1311.39
-700.311
-1344.2
-671.533
-1365.95
-639.061
-1370.13
-605.137
-1354.85
-570.777
-1330.4
-514.027
-1250.4
-388.091
-765.055
-289.229
413.595
-272.791
1131.42
-260.45
1436.89
-234.929
1705.98
-208.942
2006.66
-183.711
2315.12
-158.481
2626.39
-132.825
2936.58
-106.37
3231.8
-79.5291
3499.79
-52.5934
3734.87
-26.1778
3926.14
-1.79962
4047.58
17.9591
4064.29
31.2529
3982.74
39.3638
3877.01
43.9772
3772.58
46.4437
3663.36
47.8411
3540.07
48.8064
3385.28
49.6377
3187.43
50.8011
2956.07
51.8527
2661.6
53.1986
2342.1
53.6244
1892.57
54.2735
1483.87
55.604
672.317
60.2279
155.947
34.7214
-1037.07
34.3461
-1410.43
18.9011
-1521.4
11.5842
-1930.05
3026.91
-167.775
-599.328
-168.268
-672.792
-169.463
-709.999
-170.986
-750.868
-172.968
-786.975
-175.286
-821.557
-177.966
-853.818
-180.965
-884.864
-184.275
-914.495
-187.877
-943.225
-191.771
-970.994
-195.97
-998.05
-200.505
-1024.52
-205.414
-1050.83
-210.728
-1077.44
-216.47
-1104.89
-222.652
-1133.58
-229.265
-1163.91
-236.292
-1196.15
-243.796
-1230.33
-252.169
-1265.93
-262.596
-1301.19
-277.555
-1332.53
-300.843
-1354.51
-336.503
-1361.3
-386.727
-1349.42
-449.945
-1319.91
-520.678
-1278.33
-591.413
-1232.38
-655.132
-1189.33
-707.014
-1155.01
-744.883
-1133.91
-768.827
-1128.89
-780.419
-1140.43
-781.85
-1166.49
-775.226
-1203.23
-762.199
-1246.22
-743.932
-1291.19
-721.232
-1334.09
-694.672
-1370.76
-664.663
-1395.96
-631.852
-1402.94
-598.456
-1388.24
-566.692
-1362.16
-518.312
-1298.78
-397.228
-886.139
-277.156
293.523
-255.329
1109.59
-252.099
1433.66
-230.568
1684.45
-204.436
1980.53
-179.844
2290.53
-155.678
2602.22
-131.169
2912.07
-105.892
3206.53
-80.1
3473.99
-54.0146
3708.78
-28.2349
3900.36
-4.25061
4023.6
15.3597
4044.68
28.7244
3969.37
37.0609
3868.67
41.9988
3767.64
44.8467
3660.51
46.6479
3538.27
48.0292
3383.9
49.2911
3186.17
50.9083
2954.45
52.4724
2660.03
54.3507
2340.23
55.381
1891.54
56.4076
1482.84
57.8866
670.838
62.0004
151.833
35.2817
-1010.35
33.577
-1408.72
20.0518
-1507.88
11.1655
-1921.17
2997.13
-172.659
-599.538
-173.126
-672.325
-174.332
-708.793
-175.882
-749.317
-177.92
-784.938
-180.311
-819.166
-183.082
-851.047
-186.187
-881.76
-189.614
-911.067
-193.345
-939.494
-197.378
-966.962
-201.73
-993.698
-206.439
-1019.81
-211.55
-1045.71
-217.094
-1071.9
-223.09
-1098.89
-229.539
-1127.13
-236.425
-1157.03
-243.773
-1188.8
-251.856
-1222.24
-261.634
-1256.15
-275.351
-1287.48
-296.805
-1311.08
-330.524
-1320.79
-379.572
-1312.26
-443.096
-1285.89
-515.628
-1247.38
-588.986
-1204.97
-655.384
-1165.98
-709.637
-1135.07
-749.616
-1115.03
-775.556
-1107.97
-789.085
-1115.36
-792.37
-1137.15
-787.517
-1171.34
-776.226
-1214.52
-759.719
-1262.73
-738.854
-1312.05
-714.296
-1358.65
-686.645
-1398.41
-656.488
-1426.12
-624.651
-1434.78
-593.338
-1419.56
-565.439
-1390.06
-526.469
-1337.75
-416.267
-996.342
-272.217
149.474
-236.843
1074.22
-238.801
1435.62
-224.407
1670.06
-199.45
1955.57
-175.16
2266.24
-152.137
2579.2
-129.004
2888.94
-105.145
3182.67
-80.6662
3449.52
-55.6707
3683.79
-30.7138
3875.4
-7.25641
4000.14
12.1259
4025.29
25.5332
3955.97
34.1117
3860.09
39.4273
3762.32
42.7378
3657.2
45.0388
3535.97
46.9405
3382
48.7395
3184.37
50.9203
2952.27
53.1118
2657.84
55.6483
2337.69
57.3982
1889.79
58.9661
1481.27
60.5452
669.259
63.9317
148.447
36.1337
-982.549
33.1104
-1405.7
21.4882
-1496.26
11.0352
-1910.71
2972.62
-177.639
-599.765
-178.098
-671.866
-179.323
-707.568
-180.912
-747.728
-183.013
-782.837
-185.485
-816.694
-188.357
-848.176
-191.575
-878.541
-195.13
-907.513
-198.997
-935.627
-203.177
-962.782
-207.69
-989.185
-212.582
-1014.92
-217.903
-1040.39
-223.685
-1066.12
-229.937
-1092.64
-236.651
-1120.42
-243.825
-1149.85
-251.632
-1180.99
-260.809
-1213.07
-273.31
-1243.65
-292.818
-1267.97
-324.26
-1279.63
-371.677
-1273.37
-435.232
-1248.7
-509.725
-1211.4
-586.261
-1170.84
-655.941
-1135.29
-712.839
-1109.08
-754.742
-1093.17
-782.198
-1087.58
-797.143
-1093.03
-801.878
-1110.62
-798.516
-1140.51
-788.745
-1181.11
-773.8
-1229.46
-754.557
-1281.97
-731.701
-1334.91
-705.891
-1384.46
-677.887
-1426.42
-648.566
-1455.44
-619.043
-1464.3
-591.519
-1447.08
-569.04
-1412.54
-540.243
-1366.55
-446.261
-1090.32
-280.774
-16.014
-220.466
1013.91
-221.257
1436.41
-214.815
1663.62
-193.64
1934.4
-169.849
2242.45
-147.81
2557.16
-126.256
2867.38
-104.046
3160.46
-81.1271
3426.6
-57.4672
3660.13
-33.5342
3851.47
-10.7513
3977.36
8.30398
4006.24
21.7045
3942.56
30.523
3851.27
36.2544
3756.59
40.0988
3653.36
42.99
3533.08
45.5127
3379.48
47.9532
3181.93
50.8028
2949.42
53.7309
2654.91
57.0381
2334.38
59.6185
1887.21
61.8271
1479.06
63.508
667.578
66.1241
145.831
37.3967
-953.821
33.0084
-1401.31
23.0989
-1486.35
11.2598
-1898.87
2953.46
-182.672
-599.991
-183.138
-671.4
-184.394
-706.312
-186.031
-746.091
-188.204
-780.664
-190.766
-814.132
-193.745
-845.196
-197.087
-875.199
-200.776
-903.823
-204.788
-931.615
-209.121
-958.449
-213.802
-984.503
-218.885
-1009.84
-224.423
-1034.86
-230.445
-1060.09
-236.95
-1086.13
-243.927
-1113.44
-251.464
-1142.31
-260.094
-1172.36
-271.439
-1201.72
-288.934
-1226.15
-317.757
-1239.15
-362.947
-1234.44
-425.994
-1210.32
-502.361
-1172.33
-582.564
-1131.2
-656.314
-1097.09
-716.483
-1075.13
-760.441
-1065.13
-789.018
-1064.59
-804.689
-1071.91
-810.179
-1087.54
-807.785
-1113.02
-799.21
-1149.08
-785.644
-1194.68
-767.912
-1247.2
-746.659
-1303.22
-722.518
-1359.05
-696.279
-1410.7
-668.984
-1453.71
-641.89
-1482.53
-616.398
-1489.8
-594.556
-1468.92
-579.062
-1428.03
-560.824
-1384.79
-483.356
-1167.79
-302.364
-197.005
-208.928
920.474
-201.389
1428.87
-200.809
1663.04
-185.901
1919.49
-163.956
2220.5
-142.73
2535.93
-122.834
2847.49
-102.517
3140.14
-81.3917
3405.47
-59.3149
3638.05
-36.6272
3828.78
-14.6893
3955.42
3.91809
3987.63
17.2422
3929.24
26.2849
3842.23
32.4602
3750.42
36.9026
3648.91
40.4715
3529.51
43.7139
3376.24
46.8981
3178.74
50.519
2945.8
54.2865
2651.14
58.4671
2330.2
61.9816
1883.69
64.8977
1476.15
66.6896
665.786
68.6413
143.879
39.2399
-924.42
33.3656
-1395.44
24.7343
-1477.71
11.6902
-1885.83
2930.07
-187.776
-600.2
-188.264
-670.911
-189.56
-705.016
-191.255
-744.396
-193.509
-778.41
-196.17
-811.471
-199.266
-842.1
-202.739
-871.726
-206.572
-899.99
-210.737
-927.451
-215.232
-953.954
-220.089
-979.647
-225.368
-1004.56
-231.129
-1029.09
-237.389
-1053.84
-244.138
-1079.38
-251.411
-1106.17
-259.553
-1134.17
-269.84
-1162.07
-285.334
-1186.23
-311.256
-1200.23
-353.554
-1196.85
-415.299
-1172.7
-493.124
-1132.5
-577.283
-1088.18
-655.961
-1052.52
-720.374
-1032.68
-767.031
-1028.47
-796.812
-1035.35
-812.77
-1048.64
-818.289
-1066.39
-816.13
-1089.7
-808.189
-1120.96
-795.64
-1161.63
-779.209
-1211.11
-759.427
-1266.98
-736.839
-1325.81
-712.176
-1383.71
-686.503
-1436.37
-661.268
-1478.95
-638.128
-1505.67
-618.621
-1509.3
-604.293
-1483.25
-596.935
-1435.39
-588.913
-1392.81
-525.657
-1231.05
-332.851
-389.811
-204.129
791.752
-181.66
1406.4
-182.689
1664.07
-174.868
1911.67
-157.058
2202.69
-136.991
2515.86
-118.669
2829.17
-100.47
3121.94
-81.3846
3386.39
-61.1354
3617.8
-39.9315
3807.58
-19.0331
3934.52
-1.01393
3969.61
12.1447
3916.08
21.3799
3832.99
28.0175
3743.78
33.1152
3643.82
37.4463
3525.18
41.5067
3372.18
45.5363
3174.71
50.0316
2941.31
54.7384
2646.44
59.8944
2325.05
64.4444
1879.14
68.1394
1472.45
70.0708
663.855
71.5005
142.449
41.6631
-894.582
34.2226
-1388
26.2955
-1469.79
12.1751
-1871.71
2909.8
-192.955
-600.375
-193.479
-670.388
-194.826
-703.668
-196.589
-742.634
-198.933
-776.066
-201.701
-808.703
-204.923
-838.878
-208.538
-868.111
-212.524
-896.004
-216.85
-923.124
-221.516
-949.288
-226.555
-974.607
-232.038
-999.077
-238.02
-1023.11
-244.51
-1047.35
-251.511
-1072.38
-259.223
-1098.46
-268.579
-1124.82
-282.174
-1148.48
-305.029
-1163.37
-343.79
-1161.47
-403.241
-1137.4
-481.734
-1094.21
-569.793
-1044.44
-654.14
-1003.83
-723.941
-982.72
-774.348
-982.272
-805.952
-996.864
-822.245
-1019.05
-827.32
-1043.56
-824.608
-1069.1
-816.47
-1097.84
-804.271
-1133.16
-788.701
-1177.2
-770.138
-1229.67
-748.955
-1288.16
-725.748
-1349.02
-701.507
-1407.95
-677.719
-1460.16
-656.299
-1500.37
-639.183
-1522.78
-627.679
-1520.81
-622.289
-1488.64
-623.373
-1434.31
-624.478
-1391.7
-574.032
-1281.49
-373.318
-590.525
-207.093
625.527
-164.236
1363.54
-161.991
1661.82
-159.682
1909.36
-148.193
2191.2
-130.56
2498.23
-113.761
2812.37
-97.8123
3105.99
-81.0312
3369.6
-62.852
3599.62
-43.378
3788.1
-23.7335
3914.88
-6.46302
3952.34
6.42219
3903.2
15.8006
3823.62
22.9073
3736.67
28.7092
3638.01
33.8819
3520
38.8563
3367.2
43.832
3169.74
49.3051
2935.83
55.0499
2640.69
61.2863
2318.81
66.9732
1873.46
71.5404
1467.88
73.6428
661.753
74.6768
141.415
44.6249
-864.531
35.534
-1378.9
28.168
-1462.42
13.2517
-1856.79
2897.42
-198.218
-600.503
-198.789
-669.817
-200.199
-702.258
-202.039
-740.793
-204.482
-773.624
-207.368
-805.817
-210.726
-835.52
-214.492
-864.346
-218.641
-891.855
-223.139
-918.626
-227.983
-944.444
-233.211
-969.378
-238.899
-993.39
-245.096
-1016.91
-251.808
-1040.63
-259.133
-1065.06
-267.699
-1089.89
-279.576
-1112.94
-299.354
-1128.7
-334.048
-1128.68
-390.117
-1105.4
-468.133
-1059.38
-559.603
-1002.74
-650.077
-953.965
-726.381
-927.524
-781.803
-927.298
-816.267
-947.807
-833.502
-979.628
-838.209
-1014.35
-834.498
-1047.27
-825.35
-1078.24
-812.591
-1110.6
-797.115
-1148.63
-779.25
-1195.07
-759.169
-1249.75
-737.242
-1310.09
-714.284
-1371.98
-691.712
-1430.52
-671.539
-1480.34
-656.075
-1515.83
-647.208
-1531.65
-645.424
-1522.59
-649.558
-1484.51
-658.207
-1425.66
-666.297
-1383.61
-627.912
-1319.88
-426.502
-791.934
-220.175
419.2
-150.791
1294.16
-140.872
1651.9
-140.505
1908.99
-136.161
2186.86
-123.036
2485.11
-108.158
2797.49
-94.4645
3092.3
-80.2469
3355.39
-64.3934
3583.77
-46.8951
3770.61
-28.7355
3896.72
-12.3957
3936
0.0919432
3890.71
9.54691
3814.16
17.1168
3729.1
23.6636
3631.47
29.7511
3513.92
35.7325
3361.22
41.7533
3163.72
48.3078
2929.28
55.1897
2633.81
62.6166
2311.38
69.5439
1866.53
75.1051
1462.32
77.4355
659.422
78.1711
140.679
48.0162
-834.376
37.2134
-1368.1
30.1241
-1455.33
14.5299
-1841.2
2881.49
-203.571
-600.569
-204.201
-669.187
-205.684
-700.774
-207.613
-738.865
-210.164
-771.072
-213.178
-802.804
-216.682
-832.016
-220.609
-860.419
-224.932
-887.532
-229.611
-913.947
-234.642
-939.414
-240.065
-963.956
-245.952
-987.502
-252.352
-1010.51
-259.312
-1033.67
-267.217
-1057.15
-277.615
-1079.49
-294.464
-1096.09
-324.763
-1098.4
-376.391
-1077.05
-452.503
-1029.29
-546.425
-965.459
-643.087
-906.074
-726.831
-870.221
-788.565
-865.791
-827.13
-888.732
-846.305
-928.633
-851.301
-974.632
-846.781
-1018.87
-836.268
-1057.79
-822.137
-1092.38
-805.757
-1126.98
-787.699
-1166.69
-768.088
-1214.68
-747.056
-1270.79
-725.147
-1332
-703.583
-1393.54
-684.347
-1449.76
-669.962
-1494.72
-662.851
-1522.94
-664.253
-1530.25
-673.126
-1513.72
-686.151
-1471.48
-700.211
-1411.6
-712.131
-1371.69
-685.302
-1346.71
-496.597
-980.64
-248.19
170.793
-142.679
1188.65
-121.387
1630.61
-118.542
1906.15
-120.066
2188.38
-113.571
2478.61
-101.803
2785.72
-90.4022
3080.9
-78.9368
3343.92
-65.6913
3570.52
-50.4145
3755.33
-33.9812
3880.29
-18.7746
3920.8
-6.82612
3878.76
2.62416
3804.71
10.6376
3721.09
17.9613
3624.14
25.0302
3506.85
32.1071
3354.14
39.2704
3156.55
47.0093
2921.54
55.1289
2625.69
63.8614
2302.65
72.137
1858.25
78.8343
1455.63
81.4964
656.76
82.0049
140.171
51.7118
-804.083
39.1416
-1355.53
31.7437
-1447.93
15.5585
-1825.01
2856.82
-209.022
-600.561
-209.721
-668.488
-211.289
-699.206
-213.316
-736.838
-215.987
-768.401
-219.138
-799.653
-222.799
-828.355
-226.899
-856.318
-231.408
-883.024
-236.279
-909.075
-241.504
-934.189
-247.119
-958.341
-253.195
-981.427
-259.796
-1003.91
-267.143
-1026.33
-276.313
-1047.98
-290.522
-1065.28
-316.343
-1070.27
-362.638
-1052.11
-435.258
-1004.43
-530.213
-934.333
-632.655
-863.017
-724.499
-814.23
-793.746
-800.974
-837.673
-821.864
-859.917
-866.488
-866.182
-922.367
-861.628
-979.187
-850.127
-1030.37
-834.423
-1073.49
-816.371
-1110.43
-797.05
-1146.3
-776.89
-1186.85
-755.994
-1235.57
-734.644
-1292.14
-713.76
-1352.88
-695.152
-1412.15
-681.409
-1463.5
-675.336
-1500.79
-678.881
-1519.4
-691.85
-1517.28
-711.05
-1494.52
-730.957
-1451.57
-747.263
-1395.29
-759.32
-1359.63
-742.745
-1363.28
-585.954
-1137.43
-300.199
-114.962
-141.295
1029.74
-104.908
1594.22
-95.7166
1896.95
-99.8463
2192.51
-101.075
2479.84
-94.3546
2779
-85.6359
3072.18
-77.0128
3335.3
-66.6707
3560.18
-53.8735
3742.53
-39.4108
3865.82
-25.5583
3906.94
-14.3096
3867.51
-4.95962
3795.36
3.46408
3712.66
11.5881
3616.02
19.6982
3498.74
27.9528
3345.89
36.3528
3148.15
45.377
2912.52
54.8355
2616.23
64.9918
2292.49
74.7283
1848.52
82.7098
1447.64
85.8479
653.622
86.2081
139.811
55.6531
-773.528
41.2444
-1341.12
33.3189
-1440.01
16.1897
-1807.88
2843.53
-214.579
-600.466
-215.358
-667.71
-217.022
-697.543
-219.158
-734.702
-221.958
-765.6
-225.258
-796.353
-229.086
-824.526
-233.372
-852.032
-238.078
-878.318
-243.153
-904.001
-248.575
-928.766
-254.374
-952.542
-260.624
-975.177
-267.487
-997.05
-275.662
-1018.15
-287.606
-1036.04
-309.125
-1043.76
-349.47
-1029.92
-417.004
-984.574
-511.172
-910.262
-618.462
-827.044
-718.723
-762.755
-796.544
-736.41
-847.016
-750.502
-873.401
-795.479
-881.935
-857.955
-878.348
-925.954
-866.807
-990.728
-850.154
-1047.02
-830.44
-1093.2
-809.179
-1131.69
-787.355
-1168.12
-765.451
-1208.76
-743.756
-1257.27
-722.926
-1312.97
-704.479
-1371.33
-690.918
-1425.71
-685.28
-1469.14
-690.09
-1495.98
-705.964
-1503.52
-730.496
-1492.75
-758.146
-1466.87
-781.755
-1427.96
-796.693
-1380.35
-805.156
-1351.17
-795.389
-1373.05
-673.939
-1258.88
-367.388
-421.513
-148.311
810.666
-91.6679
1537.58
-74.106
1879.39
-76.4915
2194.9
-84.6594
2488.01
-85.0847
2779.42
-80.1073
3067.2
-74.4149
3329.61
-67.2405
3553.01
-57.2124
3732.5
-44.9654
3853.58
-32.7023
3894.68
-22.3341
3857.14
-13.1962
3786.22
-4.40831
3703.88
4.53166
3607.08
13.7361
3489.53
23.2428
3336.38
32.9687
3138.43
43.3752
2902.11
54.2729
2605.34
65.9727
2280.79
77.2868
1837.2
86.6981
1438.23
90.4752
649.845
90.802
139.484
59.8723
-742.598
43.5151
-1324.77
35.1635
-1431.66
17.6652
-1790.39
2817.72
-220.25
-600.272
-221.118
-666.843
-222.889
-695.771
-225.145
-732.446
-228.086
-762.659
-231.546
-792.894
-235.554
-820.518
-240.039
-847.548
-244.955
-873.401
-250.241
-898.715
-255.859
-923.147
-261.826
-946.575
-268.263
-968.741
-275.643
-989.669
-285.724
-1008.07
-303.331
-1018.43
-337.47
-1009.63
-398.488
-968.905
-489.755
-893.308
-600.399
-799.618
-708.983
-718.46
-796.283
-675.455
-854.422
-678.271
-885.895
-719.029
-897.523
-783.851
-895.789
-859.688
-885.255
-936.488
-868.79
-1007.19
-848.312
-1067.5
-825.378
-1116.14
-801.358
-1155.71
-777.331
-1192.15
-754.042
-1232.04
-732.21
-1279.1
-713.131
-1332.05
-699.099
-1385.36
-693.236
-1431.57
-698.523
-1463.85
-716.295
-1478.21
-744.882
-1474.94
-779.262
-1458.37
-812.039
-1434.09
-835.552
-1404.45
-845.77
-1370.14
-847.379
-1349.56
-839.843
-1380.59
-748.633
-1350.09
-441.889
-728.256
-166.344
535.121
-80.9333
1452.17
-55.2819
1853.74
-51.8421
2191.46
-64.1031
2500.27
-73.0087
2788.33
-73.5508
3067.74
-71.1149
3327.17
-67.2962
3549.19
-60.3632
3725.57
-50.589
3843.8
-40.159
3884.25
-30.8726
3847.86
-22.0758
3777.43
-12.983
3694.78
-3.22058
3597.32
7.12656
3479.18
17.9524
3325.56
29.0858
3127.29
40.9671
2890.23
53.4013
2592.9
66.7649
2267.43
79.7777
1824.19
90.7623
1427.25
95.3405
645.267
95.7855
139.039
64.4308
-711.243
45.9666
-1306.3
36.9579
-1422.65
18.8097
-1772.24
2796.37
-226.044
-599.966
-227.01
-665.877
-228.9
-693.88
-231.287
-730.06
-234.38
-759.566
-238.011
-789.262
-242.213
-816.316
-246.909
-842.851
-252.049
-868.262
-257.551
-893.212
-263.355
-917.344
-269.48
-940.45
-276.231
-961.99
-284.841
-981.059
-299.072
-993.841
-327.124
-990.378
-380.533
-956.216
-466.645
-882.794
-578.582
-781.371
-694.877
-683.322
-792.389
-620.948
-859.317
-608.527
-896.758
-640.83
-912.096
-703.691
-912.814
-783.134
-904.081
-868.42
-888.895
-951.675
-868.964
-1027.12
-845.526
-1090.94
-819.86
-1141.8
-793.37
-1182.2
-767.419
-1218.1
-743.256
-1256.21
-722.327
-1300.03
-706.826
-1347.55
-699.86
-1392.33
-704.745
-1426.69
-723.472
-1445.13
-755.062
-1446.62
-794.912
-1435.09
-835.697
-1417.58
-869.347
-1400.44
-889.063
-1384.74
-892.055
-1367.14
-884.487
-1357.13
-874.405
-1390.67
-810.196
-1414.3
-532.481
-1005.97
-203.117
205.758
-72.4555
1321.51
-39.7246
1821.01
-28.0634
2179.8
-40.1627
2512.37
-57.247
2805.41
-65.4134
3075.91
-67.0859
3328.84
-66.7502
3548.85
-63.2377
3722.06
-56.2247
3836.79
-47.8779
3875.9
-39.8938
3839.87
-31.5852
3769.12
-22.2594
3685.46
-11.6794
3586.74
-0.146019
3467.65
12.0608
3313.35
24.6755
3114.68
38.1173
2876.79
52.1819
2578.84
67.3303
2252.28
82.1683
1809.35
94.8711
1414.55
100.401
639.736
101.139
138.302
69.3646
-679.469
48.6118
-1285.55
38.7674
-1412.8
20.0548
-1753.53
2774.5
-231.968
-599.538
-233.041
-664.804
-235.064
-691.858
-237.592
-727.532
-240.849
-756.31
-244.665
-785.446
-249.073
-811.908
-253.996
-837.928
-259.368
-862.89
-265.086
-887.494
-271.062
-911.368
-277.393
-934.118
-284.888
-954.496
-296.36
-969.586
-318.784
-971.417
-363.957
-945.204
-442.739
-877.435
-553.376
-772.156
-676.131
-658.616
-784.325
-575.128
-861.226
-544.047
-905.574
-564.179
-925.114
-621.29
-928.589
-700.217
-922.078
-789.644
-908.888
-881.61
-890.612
-969.95
-868.117
-1049.62
-842.219
-1116.83
-814.103
-1169.92
-785.372
-1210.93
-757.889
-1245.58
-733.713
-1280.38
-715.343
-1318.4
-706.029
-1356.86
-709.389
-1388.97
-728.012
-1408.07
-761.606
-1411.53
-805.955
-1402.27
-853.618
-1387.42
-896.123
-1375.08
-926.252
-1370.31
-939.162
-1371.83
-933.463
-1372.84
-915.457
-1375.14
-898.168
-1407.96
-854.559
-1457.91
-640.109
-1220.42
-271.542
-162.81
-68.3967
1118.36
-26.5227
1779.14
-6.97926
2160.25
-14.4953
2519.89
-37.3761
2828.3
-54.8314
3093.37
-62.1987
3336.21
-65.5723
3552.23
-65.7272
3722.21
-61.8028
3832.86
-55.8034
3869.9
-49.3601
3833.43
-41.7069
3761.46
-32.2322
3675.98
-20.8521
3575.36
-8.09515
3454.89
5.55388
3299.7
19.715
3100.52
34.7949
2861.71
50.5794
2563.05
67.6347
2235.23
84.431
1792.55
99.0034
1399.97
105.625
633.115
106.838
137.089
74.6855
-647.317
51.4444
-1262.31
40.6004
-1401.96
21.5113
-1734.44
2752.87
-238.033
-598.973
-239.222
-663.616
-241.388
-689.692
-244.07
-724.849
-247.503
-752.877
-251.517
-781.432
-256.146
-807.28
-261.309
-832.765
-266.921
-857.277
-272.847
-881.568
-279.005
-905.21
-285.775
-927.348
-295.116
-945.155
-312.65
-952.053
-349.498
-934.569
-419.097
-875.605
-525.442
-771.089
-652.625
-644.974
-771.551
-539.69
-859.679
-487
-912.065
-491.662
-936.324
-539.92
-942.668
-614.946
-938.451
-704.434
-927.547
-800.548
-911.574
-897.583
-891.122
-990.403
-866.532
-1074.21
-838.41
-1144.96
-808.006
-1200.32
-777.309
-1241.63
-748.971
-1273.92
-726.231
-1303.12
-712.937
-1331.69
-713.254
-1356.54
-730.444
-1371.78
-764.921
-1373.59
-812.863
-1363.59
-866.643
-1348.49
-917.091
-1336.98
-956.268
-1335.9
-979.092
-1347.49
-983.118
-1367.8
-968.088
-1387.87
-939.203
-1404.02
-910.713
-1436.45
-875.798
-1492.82
-722.621
-1373.6
-347.473
-537.957
-72.1714
843.06
-13.5212
1720.49
10.5875
2136.15
10.7757
2519.7
-13.6853
2852.76
-40.6859
3120.37
-55.9925
3351.52
-63.7681
3560
-67.7289
3726.17
-67.2278
3832.36
-63.8717
3866.55
-59.2258
3828.78
-52.4172
3754.65
-42.8906
3666.46
-30.7375
3563.2
-16.7278
3440.88
-1.58158
3284.55
14.1854
3084.75
30.9761
2844.92
48.5645
2545.46
67.6501
2216.14
86.5455
1773.66
103.149
1383.37
110.991
625.272
112.87
135.211
80.4088
-614.856
54.4597
-1236.36
42.3751
-1389.88
22.6541
-1714.72
2727.1
-244.248
-598.261
-245.561
-662.303