/*--------------------------------*- C++ -*----------------------------------*\
| =========                 |                                                 |
| \\      /  F ield         | OpenFOAM: The Open Source CFD Toolbox           |
|  \\    /   O peration     | Version:  4.1                                   |
|   \\  /    A nd           | Web:      www.OpenFOAM.org                      |
|    \\/     M anipulation  |                                                 |
\*---------------------------------------------------------------------------*/
FoamFile
{
    version     2.0;
    format      ascii;
    class       volScalarField;
    location    "15";
    object      p;
}
// * * * * * * * * * * * * * * * * * * * * * * * * * * * * * * * * * * * * * //

dimensions      [0 2 -2 0 0 0 0];

internalField   nonuniform List<scalar> 
6785
(
593.623
515.498
468.736
415.54
368.944
324.001
282.085
242.339
204.714
169.113
134.853
101.715
73.954
45.4466
3.83516
-11.4553
-29.6962
-19.7639
-27.1083
-26.4648
-28.9804
-29.597
-30.0742
-29.5267
-28.0381
-25.5811
-22.1256
-16.7575
-11.7189
-10.0045
-8.25507
-13.8426
-5.77332
-11.5938
-9.09649
-11.6343
-12.2469
-14.1624
-15.8951
-18.03
-20.2067
-21.9263
-22.4758
-22.8304
-22.1727
-7.02315
-10.5061
-7.98875
-13.6475
-12.5938
-16.3602
-17.4263
-19.7319
-21.3239
-22.9671
-24.1202
-24.7116
-23.5394
-22.429
-20.0959
-3.11414
-4.18977
-0.593507
-2.7865
1.02641
0.507544
2.86919
4.03737
5.89307
7.67885
9.70981
11.6129
13.9706
15.4934
18.1304
21.668
22.3022
25.7143
24.756
28.2745
28.3391
30.5561
31.7144
33.2474
34.6417
36.0703
37.3789
38.9178
40.0355
41.6395
42.9296
43.8618
46.1382
45.3676
47.8097
47.5113
48.9917
49.2074
49.7738
50.07
50.5426
51.253
52.2229
52.9716
53.9193
53.0154
53.5579
54.9344
54.2814
56.034
55.6563
56.7295
56.7467
57.1557
57.2211
57.1546
56.791
56.1631
56.0941
55.773
61.344
59.3247
60.1322
58.1553
58.6672
56.9605
56.5595
54.7122
52.9087
50.1868
47.2882
44.5382
42.8909
42.3238
39.5798
26.6726
21.5638
20.324
16.3182
14.6075
11.122
9.08332
6.50528
5.05267
3.73468
3.07657
2.83859
2.86598
1.91964
-0.822512
-12.7059
-16.9343
-17.7712
-20.7242
-21.9446
-24.5278
-25.9878
-27.8303
-29.1202
-30.5706
-31.9529
-33.1084
-34.1098
-34.8475
-33.4203
-18.4052
-18.6029
-18.2459
-19.2557
-19.028
-19.8386
-20.081
-20.7194
-21.0918
-21.3938
-21.2304
-20.5615
-18.9059
-17.2188
-14.232
9.1124
10.6193
11.6058
12.0084
13.0262
13.4282
14.1994
14.8957
15.7867
16.8009
18.0683
19.413
21.0889
22.43
24.3084
22.2713
25.0276
25.2832
25.2258
25.4261
25.7359
26.4675
27.1484
27.9348
28.6465
29.3074
29.8095
30.2643
30.4917
30.6891
66.1305
65.0431
60.5353
53.2548
47.243
43.0767
38.7402
35.0862
32.2253
29.6144
27.3084
25.673
24.3227
23.4514
21.5705
40.5783
40.9116
41.0664
41.0728
41.139
41.3188
41.8345
41.6621
41.5848
41.4707
41.7227
41.2908
41.1495
41.3137
40.7174
40.5918
40.6046
40.7681
39.8709
40.181
40.3486
39.5337
39.4362
39.9643
40.097
39.3119
39.2676
39.8844
40.1626
39.2902
40.0302
40.2412
39.686
39.6837
40.2418
40.4795
39.9917
40.4217
40.6428
40.3892
40.3746
40.614
40.712
40.5425
40.4958
40.6073
40.5443
40.3645
40.4139
40.3226
40.2345
40.1829
40.2208
40.2508
40.2248
40.1731
40.2376
40.3353
40.3419
40.2985
40.4121
40.3894
40.4671
40.4004
40.6457
40.9637
41.4329
40.2992
39.0401
40.4789
41.3828
34.7312
31.5413
35.267
38.1676
15.7514
25.6252
31.8157
-11.2796
1.09931
7.44108
5.12919
9.24177
3.17226
4.86979
9.51581
9.74775
10.6496
11.3288
12.1868
13.0238
16.2266
19.3608
12.8018
14.7554
16.7015
19.0347
19.4227
20.4514
20.6054
22.4522
29.5278
22.3401
24.0445
23.7259
24.7753
26.758
27.7498
27.7491
27.9002
27.0581
33.4573
30.1678
30.9919
30.9162
30.6371
31.4984
33.1833
33.1169
29.7337
34.3596
35.2696
37.0087
37.3007
36.4205
35.6564
34.7643
36.4882
32.9765
36.8697
42.696
39.7414
40.3922
40.3931
38.2802
36.6304
34.9514
28.3695
36.9164
41.5096
35.2926
32.4945
28.3905
25.0813
21.8511
19.4993
17.0042
12.1541
9.09827
17.8128
12.8442
12.1707
10.4746
8.15161
1.7134
-0.273055
2.30411
-8.96479
6.00796
3.23337
2.07742
8.96005
3.02324
6.30831
5.2696
7.31207
10.3628
6.04023
8.59517
10.4875
7.58478
8.81041
8.07658
8.97808
10.8121
8.11166
9.11882
8.32129
9.15705
10.6597
7.78903
9.21907
10.299
8.12449
8.86301
8.12105
8.74364
9.97025
7.78778
8.5013
7.72099
8.365
9.43494
7.06366
8.15994
8.92274
7.12145
7.66711
7.00565
7.45652
8.33205
6.5853
7.09468
6.449
6.88671
7.61561
5.80892
6.56534
7.03268
5.68645
6.02955
5.52042
5.77844
6.26731
5.03557
5.32255
4.84804
5.06567
5.38277
4.20944
4.59196
4.69884
3.83361
3.94591
3.58068
3.63061
3.68004
2.92981
2.96272
2.62296
2.6133
2.51286
1.81176
1.84114
1.60293
0.974041
0.932098
0.683377
0.38102
0.317812
0.00108198
0.00174492
0.00284484
0.00358725
0.00446011
0.0052242
0.00601574
0.00676291
0.00749916
0.00819908
0.00886511
0.00948387
0.0100495
0.0105538
0.0109919
0.0113614
0.0116636
0.0119038
0.0120921
0.012243
0.012375
0.0125073
0.0126569
0.0128343
0.0130419
0.0132765
0.0135377
0.0138402
0.0142261
0.0147739
0.0155974
0.0168174
0.0184987
0.0205589
0.0227801
0.0249516
0.0268524
0.0282516
0.0290167
0.0290558
0.0283951
0.0271584
0.0255173
0.0236093
0.0214267
0.0187998
0.0155299
0.0114906
0.0065502
0.000450806
-0.00739954
-0.017853
-0.0306363
-0.0436552
-0.0671373
-0.129913
-0.0409426
-0.55216
-0.453757
-0.590651
-0.703336
-0.773561
-0.836107
-0.840302
-0.772248
-0.67191
-0.497922
-0.325984
-0.134485
0.0387576
0.193478
0.305152
0.402105
0.426125
0.477583
0.466902
0.421924
0.557528
0.398511
0.00307571
0.00485934
0.00789274
0.00998119
0.0123584
0.0144487
0.0165747
0.0185716
0.0205128
0.0223398
0.0240528
0.0256187
0.0270195
0.0282338
0.0292489
0.0300594
0.0306705
0.0310991
0.0313751
0.0315417
0.0316518
0.0317613
0.0319181
0.0321514
0.0324665
0.032853
0.0333086
0.0338739
0.0346677
0.0359116
0.0379257
0.0410504
0.045465
0.0509233
0.0567976
0.0625044
0.0674413
0.0709824
0.0727878
0.0726262
0.0706056
0.0671212
0.0627231
0.057869
0.0525231
0.0459593
0.0370116
0.0244439
0.00720024
-0.0151383
-0.042354
-0.0736847
-0.105931
-0.133649
-0.165792
-0.222438
-0.0644539
-0.73551
-0.644385
-0.943781
-1.21939
-1.41403
-1.57481
-1.60727
-1.49001
-1.30273
-0.968318
-0.630465
-0.26392
0.0749269
0.34945
0.575948
0.725011
0.822237
0.885344
0.926371
0.917378
1.00935
0.879237
0.00479778
0.00787862
0.013068
0.0166324
0.0207025
0.0242789
0.0279244
0.0313519
0.0346912
0.0378409
0.0408031
0.0435213
0.0459655
0.048099
0.0499004
0.0513602
0.0524863
0.0533067
0.0538713
0.0542524
0.0545388
0.054825
0.0551917
0.0556885
0.0563241
0.0570808
0.0579532
0.0590089
0.0604466
0.0626406
0.0661341
0.0715083
0.079073
0.0884133
0.0984677
0.108251
0.116736
0.12286
0.126037
0.125862
0.122505
0.116622
0.109138
0.100844
0.0917413
0.0807456
0.066132
0.0461028
0.0190501
-0.0159025
-0.0590228
-0.109957
-0.164845
-0.217841
-0.277804
-0.359091
-0.24805
-0.753008
-0.737676
-1.11288
-1.47438
-1.72888
-1.93846
-1.98012
-1.83493
-1.60239
-1.18565
-0.767078
-0.313934
0.104692
0.437777
0.717114
0.891605
1.01329
1.09166
1.12739
1.17237
1.1882
1.25207
0.00642865
0.0107683
0.0179966
0.0230019
0.0286844
0.0336877
0.0387747
0.0435587
0.0482137
0.0526028
0.056727
0.0605088
0.0639055
0.0668668
0.0693623
0.0713791
0.0729283
0.0740492
0.0748114
0.0753163
0.0756886
0.0760606
0.0765461
0.0772138
0.0780752
0.0791033
0.0802876
0.0817192
0.0836733
0.0866728
0.0914822
0.0989261
0.10945
0.122466
0.136474
0.150104
0.161916
0.170433
0.174834
0.174554
0.169832
0.161592
0.151149
0.139637
0.127076
0.111947
0.0918364
0.0642338
0.0269121
-0.0212954
-0.0806279
-0.15035
-0.225675
-0.301181
-0.37975
-0.464355
-0.526191
-0.829721
-0.920824
-1.36382
-1.83183
-2.15527
-2.42186
-2.47198
-2.28805
-1.99555
-1.47211
-0.949424
-0.383852
0.137772
0.55095
0.897949
1.11233
1.2596
1.3613
1.38658
1.47521
1.44545
1.64909
0.00790099
0.0135677
0.0228469
0.0293323
0.0366594
0.0431262
0.0496901
0.0558676
0.0618757
0.0675428
0.0728681
0.0777532
0.0821425
0.0859714
0.0892007
0.0918134
0.0938235
0.0952813
0.0962764
0.096939
0.0974304
0.0979221
0.0985615
0.0994376
0.100564
0.101902
0.103434
0.10527
0.107761
0.11158
0.117721
0.127271
0.140827
0.157626
0.175707
0.193315
0.208579
0.219599
0.225307
0.224962
0.218868
0.208212
0.194709
0.179832
0.163614
0.144099
0.118246
0.0829827
0.0356554
-0.0250814
-0.0995431
-0.186978
-0.282589
-0.382567
-0.484753
-0.597077
-0.879664
-0.83334
-1.12142
-1.63102
-2.22108
-2.62306
-2.95523
-3.01484
-2.78863
-2.43032
-1.78895
-1.15164
-0.462639
0.172143
0.671485
1.09375
1.34924
1.52932
1.65182
1.67494
1.80498
1.73043
2.09214
0.00926819
0.0162844
0.0275564
0.0355266
0.0444761
0.0523994
0.0604237
0.0679819
0.0753268
0.0822562
0.0887655
0.0947364
0.1001
0.104778
0.108721
0.111909
0.114358
0.116131
0.117335
0.118131
0.118717
0.119305
0.120076
0.121139
0.12251
0.124135
0.125985
0.128187
0.131161
0.135731
0.143128
0.15472
0.171276
0.191844
0.213985
0.235564
0.254265
0.267773
0.274769
0.274331
0.266824
0.253699
0.237078
0.218787
0.198862
0.174892
0.143229
0.1003
0.0431043
-0.0298275
-0.118872
-0.223288
-0.338642
-0.462833
-0.589192
-0.73536
-1.16657
-0.735083
-1.33384
-1.88889
-2.59948
-3.07674
-3.4735
-3.53817
-3.26919
-2.84595
-2.08875
-1.3418
-0.534055
0.208247
0.788722
1.28247
1.57516
1.78649
1.92736
1.94679
2.11739
1.99717
2.40787
0.0105241
0.0189376
0.032165
0.0416401
0.0522102
0.061602
0.0710918
0.08004
0.088729
0.0969295
0.104631
0.111696
0.118042
0.123576
0.128239
0.132008
0.134902
0.136991
0.138406
0.139335
0.140014
0.140698
0.141602
0.142858
0.144479
0.146396
0.148562
0.151115
0.154543
0.159819
0.168424
0.18203
0.201608
0.226006
0.252272
0.277897
0.300103
0.316158
0.324477
0.323945
0.314975
0.299276
0.279375
0.257464
0.233579
0.204854
0.167089
0.116331
0.0493591
-0.0353796
-0.138422
-0.259274
-0.394336
-0.543234
-0.697021
-0.877402
-1.31415
-0.631067
-1.59705
-2.16232
-2.99267
-3.54522
-4.00801
-4.07277
-3.75758
-3.26611
-2.38914
-1.53147
-0.603387
0.246529
0.908192
1.47331
1.80251
2.04454
2.20266
2.21704
2.42512
2.2626
2.7617
0.0116875
0.0215362
0.036666
0.0476582
0.0598348
0.0706979
0.0816475
0.091985
0.102015
0.111484
0.120375
0.128532
0.135856
0.142242
0.14762
0.151964
0.155292
0.157689
0.159302
0.160351
0.16111
0.161876
0.162904
0.164345
0.166212
0.168413
0.170879
0.173755
0.177586
0.183499
0.193236
0.208806
0.231413
0.259689
0.29013
0.319864
0.345625
0.364265
0.373925
0.373271
0.362751
0.344306
0.320884
0.295056
0.266879
0.233046
0.188883
0.130187
0.0536079
-0.0425323
-0.159087
-0.296031
-0.450895
-0.624797
-0.808451
-1.0225
-1.40301
-0.628414
-1.86809
-2.46366
-3.40778
-4.03793
-4.5701
-4.62947
-4.26354
-3.69892
-2.69588
-1.72427
-0.672165
0.287304
1.03128
1.66899
2.03406
2.30782
2.48124
2.49148
2.73339
2.53018
3.08186
0.0127641
0.024092
0.0410734
0.0535977
0.0673692
0.0797098
0.0921174
0.103848
0.115219
0.125961
0.136043
0.145294
0.153598
0.160837
0.166931
0.171846
0.175607
0.178305
0.180108
0.181267
0.182096
0.182935
0.184081
0.185705
0.187818
0.190301
0.193058
0.196229
0.200415
0.206893
0.217681
0.235165
0.260823
0.29305
0.327745
0.361679
0.391072
0.412362
0.42339
0.422575
0.41036
0.388896
0.361563
0.331362
0.298406
0.25898
0.208046
0.141301
0.0553109
-0.0518394
-0.181524
-0.334445
-0.5095
-0.709198
-0.925673
-1.17549
-1.50278
-0.84416
-2.12709
-2.80506
-3.84307
-4.55312
-5.15803
-5.20476
-4.78316
-4.14022
-3.00516
-1.91741
-0.738647
0.330987
1.15728
1.86784
2.26727
2.57357
2.75961
2.76681
3.03851
2.79889
3.35696
0.0137636
0.0266127
0.0453909
0.0594604
0.0748115
0.0886336
0.102494
0.115619
0.128331
0.140345
0.151619
0.161965
0.17125
0.17934
0.186146
0.191629
0.195816
0.198806
0.200788
0.202043
0.202926
0.203826
0.20508
0.206884
0.20924
0.212003
0.215037
0.218471
0.222954
0.22991
0.241654
0.260994
0.289728
0.325989
0.365023
0.40326
0.436369
0.460374
0.472785
0.471722
0.45757
0.432668
0.400872
0.365694
0.327358
0.281804
0.223781
0.149013
0.0539312
-0.0637948
-0.206282
-0.37521
-0.57104
-0.797646
-1.04944
-1.33754
-1.65198
-1.2999
-2.37504
-3.19986
-4.30159
-5.09513
-5.77704
-5.80179
-5.31868
-4.59111
-3.31721
-2.11082
-0.802491
0.377865
1.28647
2.07002
2.50218
2.84182
3.03749
3.04295
3.34045
3.06535
3.68149
0.0146926
0.0291059
0.0496266
0.0652541
0.0821692
0.0974771
0.112787
0.127307
0.141359
0.154649
0.167116
0.178558
0.188824
0.197766
0.205282
0.21133
0.215935
0.219209
0.221358
0.222694
0.223618
0.224565
0.225918
0.227897
0.230499
0.233539
0.236838
0.240502
0.245218
0.252558
0.265147
0.286276
0.31812
0.358516
0.401996
0.444658
0.481581
0.508373
0.522154
0.520672
0.504194
0.475249
0.438266
0.397371
0.352976
0.300785
0.235491
0.152881
0.0491205
-0.0787466
-0.233792
-0.418908
-0.636305
-0.891328
-1.18076
-1.51097
-1.86321
-1.90087
-2.54326
-3.64341
-4.78768
-5.6699
-6.43463
-6.42564
-5.87402
-5.05409
-3.63328
-2.30508
-0.863647
0.428251
1.41941
2.27615
2.73926
3.11333
3.31526
3.32077
3.63976
3.32874
3.98052
0.0155576
0.0315776
0.0537858
0.0709833
0.0894452
0.106242
0.122995
0.138913
0.154305
0.168871
0.182533
0.195073
0.20632
0.216113
0.224337
0.230945
0.235963
0.23951
0.241812
0.243213
0.244158
0.245136
0.246578
0.24873
0.251578
0.254894
0.258445
0.262305
0.267184
0.274798
0.288108
0.310948
0.345945
0.390593
0.438636
0.485862
0.526705
0.556339
0.571407
0.569193
0.549798
0.516011
0.472976
0.425554
0.374452
0.315271
0.242746
0.152664
0.0407336
-0.0968305
-0.264244
-0.465831
-0.705734
-0.990945
-1.32033
-1.69713
-2.11669
-2.43182
-2.59504
-4.13941
-5.30578
-6.28258
-7.13815
-7.08059
-6.45213
-5.53062
-3.95377
-2.5001
-0.921701
0.482573
1.55632
2.48642
2.97861
3.38826
3.59267
3.60057
3.93588
3.59584
4.23397
0.016364
0.0340331
0.0578745
0.0766534
0.0966442
0.114933
0.133124
0.15044
0.167171
0.183016
0.197874
0.211514
0.223744
0.234387
0.243317
0.250481
0.255903
0.259712
0.262152
0.2636
0.264548
0.26554
0.267059
0.26938
0.272476
0.27607
0.279863
0.28388
0.288847
0.296615
0.3105
0.334965
0.373165
0.422199
0.474943
0.526886
0.571749
0.60423
0.620371
0.616899
0.593768
0.554179
0.504168
0.449449
0.391155
0.324887
0.245413
0.148384
0.0288452
-0.117992
-0.297652
-0.516088
-0.779557
-1.09691
-1.46876
-1.89667
-2.39006
-2.79622
-2.65477
-4.72604
-5.86338
-6.93798
-7.896
-7.77166
-7.05638
-6.02235
-4.2791
-2.69608
-0.976337
0.541204
1.69801
2.70112
3.2202
3.66668
3.86949
3.88242
4.22912
3.85752
4.54538
0.0171166
0.036477
0.0618976
0.0822687
0.10377
0.123553
0.143175
0.161891
0.17996
0.197086
0.213141
0.227883
0.241097
0.252591
0.262225
0.269939
0.275757
0.279817
0.282379
0.283853
0.284781
0.285768
0.287352
0.289839
0.293188
0.297063
0.301085
0.305223
0.310196
0.317983
0.332278
0.358267
0.39973
0.453304
0.510902
0.567723
0.616672
0.651892
0.668672
0.663144
0.635251
0.588837
0.531003
0.468412
0.402727
0.329567
0.243641
0.140296
0.0137359
-0.141977
-0.333822
-0.569561
-0.857734
-1.20928
-1.6264
-2.11057
-2.68117
-3.11595
-2.85624
-5.36822
-6.47219
-7.63966
-8.71791
-8.50498
-7.6909
-6.53125
-4.61018
-2.89352
-1.02727
0.604454
1.84569
2.92061
3.46414
3.94889
4.14547
4.16664
4.51924
4.12078
4.79887
0.0178196
0.0389132
0.0658602
0.0878334
0.110825
0.132104
0.153151
0.173267
0.192674
0.211083
0.228338
0.244185
0.258384
0.270729
0.281063
0.289323
0.295529
0.299825
0.302491
0.303971
0.304856
0.305816
0.307451
0.310101
0.313709
0.317869
0.322113
0.326333
0.331224
0.33888
0.353396
0.380794
0.425595
0.483883
0.546501
0.608346
0.661352
0.698993
0.71567
0.707012
0.673219
0.619064
0.552827
0.482119
0.409171
0.329567
0.23783
0.128856
-0.00414512
-0.168382
-0.372413
-0.625967
-0.940033
-1.32785
-1.79335
-2.33974
-2.99264
-3.45417
-3.31446
-6.00668
-7.14427
-8.39052
-9.61497
-9.28768
-8.36053
-7.05948
-4.94794
-3.0925
-1.07407
0.672792
1.99992
3.14501
3.71232
4.23461
4.42066
4.45345
4.80612
4.38138
5.0641
0.0184765
0.0413449
0.0697664
0.0933513
0.117814
0.14059
0.163055
0.184571
0.205315
0.22501
0.243466
0.260421
0.275607
0.288803
0.299836
0.308635
0.31522
0.31974
0.322491
0.323951
0.324766
0.325676
0.327348
0.330159
0.334033
0.338486
0.342946
0.347209
0.351926
0.359284
0.373805
0.402481
0.450706
0.513903
0.581708
0.648661
0.705508
0.744922
0.760397
0.747326
0.706573
0.644114
0.569328
0.490627
0.410823
0.325395
0.228569
0.114665
-0.0242243
-0.196681
-0.412951
-0.684874
-1.02603
-1.45219
-1.96935
-2.58406
-3.32346
-3.83378
-4.03319
-6.62165
-7.89551
-9.19393
-10.5996
-10.128
-9.07096
-7.60943
-5.29291
-3.29294
-1.11629
0.746718
2.16109
3.37448
3.9666
4.52376
4.69461
4.7429
5.08992
4.63848
5.33637
0.0190903
0.0437752
0.0736203
0.0988257
0.12474
0.149012
0.172888
0.195806
0.217885
0.238867
0.258529
0.276595
0.292769
0.306816
0.318545
0.327879
0.334833
0.339561
0.342377
0.343792
0.344508
0.345342
0.347034
0.350005
0.354155
0.358911
0.363584
0.367854
0.372299
0.379175
0.393453
0.423259
0.475011
0.543324
0.616451
0.688446
0.748595
0.788716
0.801552
0.782754
0.734367
0.663633
0.580631
0.494352
0.408274
0.317733
0.216563
0.0984107
-0.0458533
-0.226276
-0.454876
-0.745733
-1.11516
-1.58164
-2.15374
-2.84237
-3.67104
-4.27191
-5.00496
-7.1923
-8.73947
-10.0533
-11.6849
-11.0353
-9.82883
-8.18414
-5.64576
-3.49478
-1.15348
0.826733
2.32969
3.60932
4.22704
4.8161
4.96726
5.03573
5.37047
4.90017
5.57415
0.0196635
0.0462067
0.0774253
0.10426
0.131604
0.157374
0.182652
0.206971
0.230386
0.252658
0.273527
0.292707
0.309873
0.324771
0.337194
0.347056
0.354369
0.359291
0.362149
0.36349
0.364077
0.364806
0.366501
0.36963
0.374069
0.379144
0.38403
0.388271
0.392342
0.398534
0.412286
0.44305
0.498449
0.572079
0.650566
0.727253
0.78971
0.829017
0.837572
0.812046
0.756087
0.677781
0.587252
0.493957
0.402266
0.307348
0.20257
0.080819
-0.0683513
-0.256523
-0.497562
-0.807898
-1.20671
-1.71538
-2.34549
-3.11254
-4.03222
-4.76889
-6.09794
-7.62774
-9.65938
-10.9732
-12.8849
-12.0197
-10.6417
-8.78724
-6.00734
-3.69801
-1.18521
0.913366
2.50619
3.8498
4.49373
5.1106
5.24191
5.33109
5.64778
5.15725
5.82921
0.0201981
0.0486415
0.0811848
0.109656
0.13841
0.165676
0.192349
0.218068
0.242817
0.266383
0.288463
0.308762
0.326922
0.342671
0.355786
0.36617
0.373832
0.378931
0.381807
0.383045
0.383467
0.38406
0.385739
0.389026
0.39377
0.399183
0.404285
0.408466
0.412059
0.417345
0.430246
0.461772
0.520944
0.600043
0.683709
0.764298
0.827537
0.864103
0.866851
0.834388
0.771838
0.687188
0.589964
0.49023
0.393592
0.295022
0.187346
0.0626072
-0.0910358
-0.28676
-0.540331
-0.870642
-1.29985
-1.85236
-2.54316
-3.39181
-4.40375
-5.29938
-7.03251
-7.89467
-10.6508
-11.9581
-14.2144
-13.0919
-11.5181
-9.42282
-6.37858
-3.9026
-1.21098
1.00716
2.69105
4.0962
4.76694
5.40684
5.52178
5.62721
5.92203
5.40875
6.0974
0.0206958
0.0510818
0.0849015
0.115016
0.14516
0.173921
0.201979
0.229099
0.255181
0.280043
0.303338
0.32476
0.343917
0.360519
0.374322
0.385223
0.393223
0.398482
0.401352
0.402452
0.402673
0.403094
0.404737
0.408183
0.413251
0.419025
0.424355
0.428448
0.431456
0.435591
0.44727
0.479329
0.542387
0.626962
0.715251
0.798397
0.860326
0.892052
0.888165
0.849713
0.782333
0.692776
0.589638
0.483969
0.383021
0.2815
0.171606
0.0444602
-0.113238
-0.316309
-0.582466
-0.933168
-1.39364
-1.9914
-2.74498
-3.67706
-4.78216
-5.83667
-7.6858
-8.14356
-11.7164
-13.0084
-15.6905
-14.2634
-12.4672
-10.0954
-6.76058
-4.10849
-1.23033
1.10869
2.88468
4.34881
5.04679
5.70474
5.807
5.92424
6.19313
5.66822
6.33441
0.0211578
0.0535293
0.0885779
0.120343
0.151854
0.182109
0.211544
0.240064
0.267479
0.29364
0.318154
0.340703
0.36086
0.378316
0.392806
0.404217
0.412544
0.417945
0.420783
0.421711
0.421688
0.421901
0.423483
0.427089
0.432505
0.438669
0.444243
0.448226
0.450545
0.453263
0.463289
0.495603
0.562586
0.652358
0.744206
0.827933
0.885967
0.911168
0.901134
0.858748
0.788662
0.695566
0.58712
0.475902
0.371244
0.267448
0.156
0.0270208
-0.134301
-0.344478
-0.623217
-0.994646
-1.4871
-2.1312
-2.94899
-3.96521
-5.16513
-6.37504
-8.20719
-8.55237
-12.7513
-14.1416
-17.3324
-15.5464
-13.4994
-10.8099
-7.15476
-4.31562
-1.24274
1.21853
3.08752
4.60792
5.33333
6.0041
6.0973
6.22285
6.46054
5.91747
6.59339
0.0215851
0.0559858
0.0922162
0.125638
0.158496
0.190241
0.221045
0.250962
0.279709
0.307173
0.33291
0.356593
0.377754
0.396065
0.411239
0.423155
0.431797
0.437322
0.4401
0.440817
0.440507
0.440468
0.441966
0.445734
0.451525
0.458115
0.463955
0.467816
0.469344
0.470353
0.478225
0.510428
0.581197
0.675456
0.76922
0.850823
0.902316
0.920613
0.906409
0.862756
0.792034
0.696518
0.583146
0.46664
0.35884
0.253442
0.141113
0.0108955
-0.153578
-0.37057
-0.661833
-1.05427
-1.57932
-2.27054
-3.15333
-4.2537
-5.55133
-6.91366
-8.69559
-9.33075
-13.7374
-15.4002
-19.1605
-16.9528
-14.6253
-11.5715
-7.56294
-4.52394
-1.24771
1.33727
3.29996
4.87381
5.62654
6.3047
6.39253
6.52329
6.72455
6.16939
6.84323
0.0219782
0.0584526
0.0958181
0.130902
0.165086
0.198318
0.230481
0.261795
0.291873
0.320644
0.34761
0.372431
0.394601
0.413768
0.429624
0.442038
0.450984
0.456614
0.459303
0.459768
0.459121
0.458786
0.460171
0.464105
0.470303
0.477361
0.4835
0.487234
0.487877
0.486856
0.491974
0.52354
0.597637
0.695213
0.788506
0.86464
0.907939
0.92083
0.905413
0.86317
0.793573
0.696452
0.578299
0.456649
0.346271
0.239968
0.127473
-0.00333231
-0.170427
-0.393905
-0.697635
-1.11139
-1.66959
-2.40849
-3.35663
-4.54099
-5.94002
-7.45318
-9.24061
-10.5605
-14.6189
-16.7977
-21.195
-18.4946
-15.8565
-12.3853
-7.98737
-4.73344
-1.24469
1.46549
3.52237
5.14674
5.92634
6.60631
6.69238
6.8244
6.98667
6.41796
7.08071
0.0223374
0.0609312
0.0993853
0.136137
0.171624
0.206339
0.239853
0.272562
0.303971
0.334052
0.362251
0.388218
0.411401
0.431426
0.447962
0.460868
0.470107
0.475822
0.478391
0.478562
0.477525
0.476842
0.478084
0.482188
0.48883
0.496406
0.502884
0.506501
0.506174
0.502764
0.504383
0.534502
0.611133
0.710342
0.799685
0.867271
0.902849
0.913357
0.899844
0.861313
0.794217
0.696011
0.572998
0.446246
0.333883
0.227435
0.115572
-0.0150959
-0.184231
-0.413883
-0.730126
-1.16565
-1.75766
-2.54477
-3.55852
-4.82712
-6.33191
-7.99891
-9.88829
-11.9876
-15.2089
-18.3178
-23.4682
-20.1843
-17.2049
-13.2566
-8.4306
-4.94414
-1.23314
1.6038
3.75513
5.42696
6.23259
6.90868
6.99648
7.12541
7.24802
6.66638
7.34739
0.0226626
0.063423
0.102919
0.141344
0.178112
0.214306
0.249159
0.283261
0.316
0.347396
0.376835
0.403955
0.428156
0.449041
0.466255
0.479646
0.489167
0.494948
0.497365
0.497194
0.49571
0.494623
0.495687
0.499967
0.507098
0.515249
0.522117
0.525642
0.524272
0.518052
0.515176
0.542701
0.620901
0.719012
0.800079
0.857993
0.888577
0.900206
0.891281
0.858275
0.794699
0.695662
0.567498
0.435611
0.321924
0.216199
0.105873
-0.0238549
-0.194451
-0.430103
-0.759186
-1.21729
-1.84403
-2.6801
-3.76002
-5.11387
-6.7296
-8.55725
-10.6108
-13.129
-15.6236
-19.9745
-26.0128
-22.0368
-18.6828
-14.1908
-8.89509
-5.15613
-1.21251
1.75278
3.99855
5.71464
6.54508
7.21156
7.30429
7.42653
7.50821
6.9305
7.5832
0.0229534
0.065929
0.10642
0.146522
0.184549
0.222217
0.2584
0.293892
0.327961
0.360675
0.391362
0.419641
0.444867
0.466614
0.484504
0.498375
0.508165
0.513993
0.516224
0.515663
0.513668
0.512115
0.512964
0.517426
0.525095
0.53389
0.541211
0.544683
0.542205
0.532627
0.523882
0.547628
0.626048
0.718493
0.7879
0.838044
0.867465
0.883273
0.880992
0.854879
0.795555
0.695721
0.561913
0.424802
0.310564
0.206572
0.0988114
-0.0291357
-0.200729
-0.442541
-0.785302
-1.26734
-1.93023
-2.81646
-3.96361
-5.40456
-7.1374
-9.13627
-11.3895
-14.0148
-16.1438
-21.656
-28.8624
-24.0703
-20.3032
-15.1932
-9.38252
-5.36955
-1.18224
1.91302
4.25294
6.00997
6.86352
7.51465
7.61514
7.72754
7.76639
7.19565
7.81213
0.0232094
0.0684504
0.109888
0.151673
0.190936
0.230072
0.267574
0.304453
0.339851
0.373889
0.40583
0.435278
0.461535
0.484146
0.502711
0.517054
0.527104
0.532958
0.53497
0.533964
0.531391
0.529303
0.529894
0.534547
0.542811
0.552326
0.560174
0.563646
0.559973
0.546204
0.529978
0.549279
0.624785
0.705874
0.763545
0.81003
0.841807
0.864059
0.869912
0.851717
0.797175
0.696386
0.556232
0.41377
0.299904
0.19883
0.0947685
-0.0306126
-0.203054
-0.451789
-0.809841
-1.31793
-2.01902
-2.95704
-4.17288
-5.70349
-7.5607
-9.74583
-12.2261
-14.8697
-17.1821
-23.3718
-32.1232
-26.3063
-22.0783
-16.2687
-9.89358
-5.58463
-1.14177
2.08508
4.51857
6.31303
7.18757
7.81762
7.92823
8.02795
8.02323
7.4579
8.07344
0.0234297
0.0709883
0.113326
0.156796
0.197272
0.237869
0.276679
0.314942
0.351669
0.387035
0.420239
0.450864
0.478159
0.501638
0.520875
0.535686
0.545984
0.551844
0.553601
0.552096
0.548869
0.546169
0.546456
0.55131
0.560233
0.570556
0.579013
0.582533
0.577444
0.558182
0.533469
0.547484
0.61384
0.67998
0.729591
0.776732
0.813403
0.843637
0.858687
0.849214
0.799846
0.697769
0.55034
0.402368
0.289985
0.193198
0.0940142
-0.0282443
-0.201987
-0.459329
-0.83528
-1.3724
-2.11424
-3.10585
-4.39191
-6.01509
-8.00482
-10.3933
-13.1216
-15.8561
-19.1234
-25.2771
-35.9686
-28.7685
-24.0185
-17.4202
-10.4283
-5.80151
-1.09055
2.2695
4.79566
6.6239
7.51685
8.12007
8.24268
8.32726
8.28046
7.73957
8.30165
0.0236131
0.0735437
0.116731
0.16189
0.203556
0.245607
0.285713
0.325357
0.363411
0.400112
0.434587
0.4664
0.49474
0.51909
0.538997
0.55427
0.564806
0.570653
0.572119
0.570054
0.566094
0.562698
0.562627
0.567693
0.577348
0.588575
0.597724
0.601274
0.594125
0.567902
0.535174
0.540055
0.589639
0.642506
0.6895
0.740299
0.783502
0.822721
0.847761
0.847692
0.803809
0.699928
0.544022
0.390353
0.280782
0.189823
0.0966122
-0.0224759
-0.198939
-0.467766
-0.865334
-1.43515
-2.22032
-3.26685
-4.62439
-6.34315
-8.4741
-11.0834
-14.0792
-17.1127
-22.0501
-27.2707
-40.4235
-31.4846
-26.1306
-18.649
-10.9864
-6.02008
-1.02799
2.46682
5.08441
6.94257
7.85087
8.42146
8.55751
8.62437
8.5386
8.00967
8.53654
0.0237584
0.0761176
0.120105
0.166956
0.209787
0.253283
0.294674
0.335694
0.375076
0.413116
0.448872
0.481884
0.511279
0.536502
0.557078
0.572807
0.583571
0.589386
0.590524
0.587837
0.583054
0.578869
0.578381
0.583671
0.594139
0.60637
0.616266
0.619561
0.608998
0.575528
0.535725
0.524508
0.552771
0.596731
0.645826
0.702244
0.752917
0.801773
0.837467
0.847438
0.809298
0.70289
0.536972
0.377389
0.272199
0.188727
0.102268
-0.0144963
-0.196418
-0.480964
-0.904835
-1.51109
-2.34133
-3.44322
-4.87305
-6.69031
-8.97136
-11.8192
-15.1076
-18.6593
-25.1567
-29.1533
-45.503
-34.4794
-28.418
-19.9554
-11.5671
-6.23972
-0.953415
2.67756
5.38494
7.26898
8.18912
8.72116
8.87166
8.91826
8.79881
8.28971
8.77496
0.0238641
0.0787109
0.123447
0.171993
0.215964
0.260896
0.30356
0.34595
0.38666
0.426045
0.463092
0.497315
0.527773
0.553873
0.575115
0.591296
0.602279
0.608044
0.608817
0.605442
0.599741
0.594662
0.593691
0.599219
0.610583
0.623911
0.634485
0.63654
0.621058
0.58195
0.53145
0.490364
0.503937
0.546761
0.600642
0.663273
0.722173
0.781123
0.828097
0.848757
0.816584
0.706674
0.528788
0.363039
0.264054
0.189722
0.110114
-0.00649808
-0.198185
-0.503988
-0.959173
-1.60459
-2.48011
-3.63675
-5.13921
-7.05768
-9.49755
-12.6015
-16.2086
-20.4416
-28.007
-31.1623
-51.208
-37.7213
-30.8811
-21.3391
-12.1695
-6.45896
-0.865888
2.90229
5.69734
7.60302
8.531
9.01833
9.18398
9.2079
9.06152
8.56466
8.99313
0.0239282
0.0813244
0.126757
0.176999
0.222085
0.268443
0.312365
0.356121
0.398157
0.438895
0.477245
0.512691
0.544222
0.571203
0.59311
0.609736
0.62093
0.626629
0.627
0.622867
0.616143
0.610055
0.608525
0.614304
0.626647
0.641119
0.651886
0.650747
0.630211
0.58608
0.514266
0.436047
0.450042
0.491244
0.554802
0.623913
0.691537
0.761043
0.819972
0.852012
0.826007
0.711303
0.518976
0.346781
0.256066
0.192271
0.118462
-0.00185937
-0.209271
-0.542653
-1.0332
-1.71841
-2.6377
-3.84759
-5.42264
-7.44467
-10.0516
-13.4289
-17.3822
-22.437
-30.8951
-33.8631
-57.2305
-41.2296
-33.5157
-22.7997
-12.7917
-6.67522
-0.764102
3.14167
6.02164
7.94452
8.87582
9.31196
9.4933
9.4922
9.32758
8.83317
9.25146
0.023949
0.0839592
0.130033
0.181973
0.228148
0.275921
0.321088
0.366202
0.409565
0.451661
0.491327
0.528011
0.560625
0.58849
0.611059
0.628125
0.639524
0.645141
0.645073
0.64011
0.632251
0.625025
0.622849
0.628885
0.642272
0.65776
0.667307
0.660849
0.637554
0.587751
0.475476
0.375296
0.395691
0.433455
0.509039
0.584385
0.661326
0.741828
0.81347
0.857663
0.838007
0.716828
0.506953
0.328013
0.247798
0.195296
0.124614
-0.00523443
-0.235731
-0.602447
-1.12992
-1.85304
-2.81319
-4.07426
-5.72139
-7.84876
-10.6299
-14.2967
-18.6254
-24.6372
-33.91
-37.6123
-63.7607
-45.0617
-36.3159
-24.3354
-13.4306
-6.88475
-0.646213
3.39657
6.35786
8.29326
9.2228
9.60079
9.79836
9.77038
9.59772
9.12009
9.47683
0.023924
0.086616
0.133274
0.186914
0.23415
0.283325
0.329723
0.376189
0.420877
0.464339
0.505333
0.54327
0.576979
0.605733
0.62896
0.646463
0.65806
0.663581
0.663039
0.65717
0.648053
0.639544
0.636619
0.642905
0.657342
0.673192
0.679129
0.667031
0.643889
0.576868
0.42135
0.313869
0.338933
0.374866
0.463561
0.545022
0.631879
0.723857
0.809069
0.866289
0.853157
0.723344
0.492057
0.306065
0.238562
0.197018
0.124745
-0.0225562
-0.283753
-0.686965
-1.24957
-2.00669
-3.00396
-4.31365
-6.03166
-8.26515
-11.2261
-15.1968
-19.9302
-27.0253
-37.1066
-42.5611
-70.77
-49.2303
-39.2668
-25.9399
-14.0806
-7.0828
-0.509755
3.66814
6.70606
8.64898
9.571
9.88333
10.0979
10.0416
9.87195
9.39448
9.70071
0.023851
0.0892957
0.13648
0.19182
0.240089
0.290653
0.338266
0.386076
0.432087
0.476923
0.51926
0.558467
0.593283
0.622928
0.646811
0.664744
0.676536
0.68195
0.6809
0.674047
0.663538
0.653582
0.649782
0.656282
0.671547
0.686152
0.686783
0.672639
0.64939
0.542807
0.366303
0.248374
0.28012
0.316082
0.418485
0.506263
0.603609
0.707583
0.807352
0.878621
0.8722
0.73101
0.47356
0.280182
0.227327
0.194906
0.113692
-0.0606065
-0.357945
-0.796629
-1.38966
-2.17569
-3.20583
-4.56089
-6.34743
-8.68616
-11.8299
-16.1157
-21.2822
-29.5759
-40.5013
-48.7442
-78.1326
-53.7167
-42.3374
-27.6003
-14.7343
-7.2639
-0.351584
3.95798
7.06639
9.01143
9.91935
10.1578
10.3905
10.305
10.1509
9.65808
9.96774
0.0237273
0.0919991
0.139649
0.196688
0.245962
0.2979
0.346711
0.395856
0.44319
0.489406
0.533103
0.573598
0.609534
0.640074
0.664607
0.682966
0.694949
0.70025
0.698659
0.690741
0.678693
0.6671
0.662264
0.668857
0.684162
0.695388
0.692451
0.683157
0.640414
0.501761
0.309804
0.178974
0.219895
0.257992
0.374293
0.468506
0.576953
0.693538
0.809017
0.895561
0.89609
0.740081
0.450657
0.249474
0.212809
0.185512
0.0846521
-0.125454
-0.459464
-0.928496
-1.54557