/*--------------------------------*- C++ -*----------------------------------*\
| =========                 |                                                 |
| \\      /  F ield         | OpenFOAM: The Open Source CFD Toolbox           |
|  \\    /   O peration     | Version:  4.1                                   |
|   \\  /    A nd           | Web:      www.OpenFOAM.org                      |
|    \\/     M anipulation  |                                                 |
\*---------------------------------------------------------------------------*/
FoamFile
{
    version     2.0;
    format      ascii;
    class       volScalarField;
    location    "24";
    object      p;
}
// * * * * * * * * * * * * * * * * * * * * * * * * * * * * * * * * * * * * * //

dimensions      [0 2 -2 0 0 0 0];

internalField   nonuniform List<scalar> 
6785
(
535.983
482.586
430.755
382.344
337.453
295.436
256.081
219.077
183.983
150.619
119.677
91.5383
62.5094
27.5906
-1.56146
69.5496
47.2885
41.5298
37.8196
32.3455
26.638
21.4851
17.0963
13.6123
11.1535
9.96221
10.4638
12.5603
14.4318
14.6919
-33.2322
-39.8755
-34.1087
-29.9618
-26.8713
-23.2761
-19.3899
-15.4526
-11.5483
-7.83254
-4.4871
-1.42012
1.65659
4.30935
5.54357
12.9025
10.4842
15.0766
15.4006
15.4541
15.6691
15.5799
15.2024
14.6207
13.8614
12.9046
11.7952
10.8847
10.7323
11.0428
29.3364
27.0029
28.5561
26.4577
25.0383
23.7943
22.3838
21.0014
19.7435
18.652
17.7506
17.0378
16.5599
16.527
16.7719
20.121
18.096
19.0677
17.8469
17.6418
17.6244
17.535
17.5667
17.7209
17.9631
18.2813
18.6432
18.9624
19.2189
19.3937
16.678
15.5184
16.5975
16.27
16.6512
17.041
17.3357
17.6822
18.0351
18.3566
18.6433
18.8947
19.0711
19.1511
19.1663
18.4025
17.8385
18.6781
18.4379
18.6237
18.7263
18.7405
18.7767
18.7932
18.7811
18.7509
18.7176
18.6798
18.6314
18.5816
18.8077
18.4719
18.9512
18.6493
18.6651
18.6134
18.518
18.4521
18.3799
18.3044
18.232
18.1676
18.1119
18.0598
18.0043
17.595
17.3745
17.6612
17.4321
17.4537
17.4229
17.3716
17.3446
17.3107
17.2759
17.2414
17.2052
17.1661
17.1195
17.0537
16.5254
16.3806
16.5683
16.4123
16.435
16.4034
16.3559
16.3212
16.275
16.2246
16.1715
16.1144
16.0538
15.9885
15.9018
15.5776
15.5189
15.6221
15.4514
15.4092
15.3264
15.2368
15.1534
15.0594
14.9633
14.8658
14.7672
14.6726
14.5868
14.4851
16.4398
16.3095
16.1537
15.7854
15.5302
15.2353
14.9269
14.6301
14.3399
14.0675
13.8148
13.5858
13.3863
13.2282
13.0829
13.8865
14.3426
14.7116
14.5494
14.1986
13.7702
13.3648
12.9903
12.6206
12.2494
11.8778
11.5076
11.1494
10.8223
10.5012
30.8905
30.4969
29.6758
27.1189
23.5948
20.0727
16.8277
13.9285
11.3081
9.07936
7.18456
5.61869
4.39443
3.4979
2.77096
32.0589
30.8988
31.393
30.2242
29.3547
27.4812
27.5521
25.693
24.3286
22.6294
22.83
20.2686
17.3396
18.5635
16.3561
14.6116
14.4481
15.8286
12.5687
10.6253
13.432
11.2263
9.40576
10.8021
13.652
10.8946
9.11036
11.2397
14.9109
12.0845
11.1951
15.7249
14.3993
12.9825
14.5663
18.3989
16.4667
15.7826
19.7738
18.9852
17.9677
18.9721
22.0033
21.0054
20.1323
20.9455
23.5008
22.6406
21.9951
23.9849
23.6847
23.2494
23.523
25.0709
24.8123
24.5665
24.9095
26.5517
26.5382
26.3787
28.0445
28.2243
28.0372
27.8613
28.8442
28.9345
28.693
28.8827
28.6235
29.1027
29.322
26.4907
25.5376
25.729
22.768
17.5078
19.6878
13.365
-3.648
2.03431
5.934
6.27798
6.98213
2.59842
4.89239
8.37025
9.3255
9.70564
9.73701
10.4393
12.34
14.0066
15.6671
10.1419
10.824
12.7331
14.2973
14.5511
14.8744
15.0393
15.5234
19.4601
15.9989
16.1933
16.0585
16.6947
17.985
18.7402
18.7742
18.3979
18.0147
22.8854
20.6625
20.4418
19.8321
19.4495
20.2662
21.1741
20.318
18.6313
21.5217
22.6537
23.1998
23.0281
22.0294
21.1286
20.267
19.4398
18.5153
24.3665
23.5673
21.49
20.6918
19.898
18.6015
16.6589
13.6711
11.5243
17.0106
18.6731
15.6944
13.5539
10.8085
7.46579
5.03387
3.3124
1.48897
1.05963
1.49627
4.38083
2.31438
1.90077
1.3492
-0.462033
-3.11598
-3.44724
-1.88445
-4.98121
2.36296
1.73705
1.17428
3.13745
3.55469
4.20225
4.67687
5.11378
5.42297
5.50067
5.638
5.65408
5.68536
5.7137
5.62099
5.58383
5.44926
5.44894
5.3062
5.05451
4.9415
4.74498
4.80188
4.54832
4.14202
4.31079
4.05742
3.65191
3.53033
3.34257
3.59899
3.15263
2.6603
2.6171
2.5334
2.92358
2.44346
1.78925
2.35988
2.10429
1.63321
1.61796
1.56683
2.17396
1.59336
0.985899
1.06655
1.14062
1.84671
1.2565
0.442735
1.31927
1.06704
0.527576
0.581943
0.611866
1.47501
0.790736
0.0700934
0.219265
0.377001
1.30835
0.626333
-0.334572
0.748112
0.467308
-0.153888
-0.0764119
-0.0161252
1.03869
0.25177
-0.579595
-0.421444
-0.235272
0.875732
0.0854396
-1.02863
0.226261
-0.163054
-0.898859
-0.890075
-0.706911
0.0120946
0.0401193
0.0661639
0.0960334
0.12544
0.144622
0.145175
0.134072
0.120366
0.146668
0.183143
0.162167
0.131298
0.119119
0.0917368
0.0682975
0.0193455
0.0102086
0.018699
-0.00141696
0.0435301
-0.0073209
0.0216188
0.0451775
0.0517615
0.0492755
0.0927907
0.0386081
0.149602
0.169733
0.163412
-0.210409
-0.455788
-0.192194
-0.112462
-0.0433659
-0.0219433
-0.0189427
-0.0184547
0.0508848
0.0701893
0.0831424
0.172735
0.146476
0.111316
0.192597
0.165377
0.0976319
0.106888
0.107039
0.0520674
0.0130377
0.00183798
0.0354916
-0.343389
-0.936211
0.115885
0.249973
0.0998089
0.0542775
0.0115512
-0.00410604
0.00772883
-0.0828936
-0.166687
-0.19385
-0.20216
-0.197604
-0.15033
-0.138743
-0.166961
-0.187296
-0.20446
-0.0816514
0.045447
0.0789391
0.0948146
0.0328862
0.00401381
0.0128655
0.057283
0.103091
0.158424
0.215571
0.257854
0.265405
0.244007
0.20937
0.198718
0.220443
0.158334
0.149138
0.153394
0.110077
0.0763702
0.0335191
0.0276476
0.0343644
0.0158434
0.105606
-0.0174289
-0.00506319
0.0654299
0.0813888
0.0573928
0.113686
0.0923467
0.218614
0.222206
0.217358
-0.303856
-0.65439
-0.284517
-0.152383
-0.032151
0.0132436
0.0238359
0.0160197
0.060763
0.077699
0.0997882
0.202218
0.179422
0.112146
0.227516
0.199103
0.130958
0.132279
0.13312
0.0747413
0.0370637
0.0115083
0.0655676
-0.496794
-0.798628
0.373085
0.545928
0.254479
0.127151
0.027246
0.00385093
-0.0130292
-0.140945
-0.232232
-0.289339
-0.304529
-0.285639
-0.220429
-0.20759
-0.243501
-0.248761
-0.281477
-0.0636825
0.148883
0.178666
0.116667
0.0658587
0.0295396
0.0123245
0.0628455
0.115193
0.178974
0.244673
0.295214
0.310076
0.297931
0.27652
0.251129
0.251536
0.179786
0.137941
0.139386
0.100594
0.0779797
0.0447886
0.0428559
0.0479451
0.0234817
0.104977
-0.0296707
-0.0270455
0.0439691
0.0585556
0.0544836
0.124111
0.137819
0.23553
0.247336
0.260639
-0.176161
-0.461567
-0.16349
-0.0778826
0.0224956
0.0531437
0.0537955
0.0418176
0.0712273
0.0852159
0.106881
0.194285
0.186512
0.11416
0.214
0.195622
0.150742
0.150175
0.147994
0.100489
0.0698002
0.0331228
0.0959902
-0.445278
-0.638715
0.374106
0.610063
0.403171
0.194018
0.0621206
0.012403
-0.0215049
-0.157732
-0.252538
-0.313703
-0.331136
-0.310222
-0.243397
-0.230905
-0.265859
-0.254122
-0.264563
-0.0222965
0.201069
0.221387
0.117684
0.0938416
0.0634231
0.0127806
0.0687455
0.124112
0.191265
0.258727
0.311112
0.330955
0.330766
0.323722
0.294245
0.28534
0.222789
0.152258
0.142454
0.10507
0.0862297
0.0579453
0.0569219
0.0593512
0.0217496
0.0949012
-0.0373649
-0.0388946
0.0330579
0.0539522
0.0666562
0.141059
0.173867
0.255745
0.272239
0.305415
-0.0293649
-0.223841
-0.00201293
0.0268656
0.0942543
0.101709
0.0885115
0.0740914
0.0874023
0.0962429
0.116376
0.194542
0.198887
0.128116
0.210597
0.201068
0.1693
0.169556
0.168643
0.126415
0.101924
0.0652926
0.124402
-0.369861
-0.569497
0.322398
0.675084
0.523402
0.25562
0.101624
0.0340551
-0.0177343
-0.157442
-0.256708
-0.316425
-0.335528
-0.316215
-0.255605
-0.245725
-0.276129
-0.260416
-0.232339
0.0168485
0.235203
0.253382
0.132784
0.125762
0.0848097
0.0129729
0.0749245
0.133474
0.20461
0.274703
0.330157
0.355403
0.364015
0.360559
0.326499
0.315281
0.263755
0.183244
0.158684
0.118665
0.0958666
0.0706541
0.0693666
0.0683389
0.0219883
0.0905298
-0.048963
-0.0492226
0.0310891
0.0620656
0.0851025
0.159817
0.200823
0.276832
0.292931
0.333225
0.0587546
-0.0776451
0.108505
0.107503
0.155254
0.146547
0.122373
0.105268
0.104294
0.10758
0.127155
0.196666
0.211271
0.138619
0.211912
0.209513
0.187316
0.187458
0.18527
0.151299
0.135255
0.105894
0.153665
-0.304749
-0.475656
0.306751
0.751778
0.617532
0.307274
0.138902
0.0601353
-0.00827349
-0.15359
-0.253572
-0.315405
-0.336219
-0.32182
-0.268686
-0.260442
-0.283293
-0.266279
-0.207383
0.0392367
0.251361
0.274838
0.153035
0.15045
0.134907
0.012881
0.08114
0.143835
0.220594
0.295643
0.356717
0.388345
0.403536
0.398739
0.357197
0.343643
0.301829
0.218511
0.178735
0.133892
0.105965
0.0834951
0.0813393
0.0762176
0.0254127
0.0875313
-0.0629932
-0.0602406
0.0302726
0.0711653
0.104688
0.178236
0.221477
0.298671
0.311254
0.345538
0.110291
0.00950484
0.180039
0.166293
0.205009
0.18615
0.154081
0.134389
0.123084
0.120058
0.139002
0.198799
0.221899
0.150189
0.21481
0.218416
0.203104
0.204506
0.20232
0.175667
0.168395
0.14789
0.181822
-0.245646
-0.345682
0.317414
0.817579
0.686952
0.345404
0.170978
0.0856869
0.00136167
-0.149432
-0.248237
-0.314902
-0.337002
-0.328014
-0.283143
-0.275274
-0.288709
-0.268102
-0.190762
0.0459527
0.25075
0.281727
0.174368
0.179125
0.158486
0.0130858
0.0881371
0.155859
0.239269
0.320465
0.387988
0.425625
0.446197
0.441228
0.391349
0.372691
0.336792
0.251959
0.198601
0.14809
0.11599
0.0961468
0.091914
0.0822348
0.0286106
0.0813439
-0.0761921
-0.0714245
0.0280819
0.0767812
0.123023
0.196112
0.239442
0.319623
0.329219
0.352404
0.154555
0.0837498
0.241506
0.218145
0.250454
0.223465
0.185387
0.162964
0.14405
0.13383
0.15021
0.199144
0.229732
0.160354
0.217397
0.226397
0.216953
0.22031
0.218567
0.199296
0.201268
0.189947
0.210373
-0.191845
-0.221553
0.337337
0.866077
0.73807
0.372828
0.198524
0.110001
0.0113763
-0.144275
-0.243207
-0.315299
-0.338723
-0.334186
-0.295882
-0.28955
-0.292082
-0.26566
-0.177276
0.0482424
0.244767
0.280293
0.194091
0.209491
0.190056
0.0139313
0.096562
0.170061
0.260638
0.348229
0.421908
0.464639
0.489899
0.48748
0.430836
0.404056
0.370313
0.285366
0.220792
0.164964
0.128572
0.10977
0.10192
0.0874212
0.031358
0.0721411
-0.086853
-0.0820503
0.0249317
0.079524
0.139253
0.213301
0.257186
0.338887
0.347864
0.361624
0.202417
0.160902
0.305446
0.271217
0.296135
0.261239
0.218029
0.192456
0.167049
0.149491
0.161203
0.200671
0.234851
0.169521
0.219175
0.23302
0.228818
0.234914
0.234424
0.222375
0.233487
0.231361
0.23985
-0.140488
-0.116329
0.361811
0.894593
0.772786
0.393591
0.21998
0.131339
0.0209369
-0.139164
-0.240257
-0.317713
-0.342725
-0.34133
-0.30795
-0.305462
-0.296037
-0.262233
-0.164293
0.0524224
0.240375
0.276491
0.21023
0.23391
0.247249
0.0152436
0.105926
0.18551
0.283248
0.376932
0.456172
0.503351
0.532805
0.534527
0.472662
0.435871
0.401853
0.31787
0.244863
0.183754
0.143245
0.123015
0.110778
0.0911267
0.0322646
0.0600798
-0.0962921
-0.0920728
0.020645
0.0800202
0.152455
0.22933
0.274391
0.356269
0.366178
0.373844
0.251934
0.237928
0.370835
0.326077
0.342465
0.299514
0.251324
0.222324
0.191062
0.166503
0.172097
0.204918
0.23685
0.176835
0.220041
0.238369
0.238846
0.248107
0.249745
0.244918
0.265098
0.27259
0.271593
-0.0873782
-0.022475
0.392482
0.904735
0.794398
0.410162
0.237307
0.150409
0.0297473
-0.134034
-0.238492
-0.321245
-0.348195
-0.349218
-0.320729
-0.323405
-0.30178
-0.258845
-0.151002
0.058907
0.237434
0.274335
0.222478
0.260692
0.281188
0.0169023
0.115979
0.201904
0.306833
0.406471
0.491083
0.54265
0.575935
0.582025
0.515889
0.468435
0.432807
0.350238
0.271288
0.204531
0.160374
0.136886
0.120171
0.0952945
0.0328961
0.0469871
-0.104845
-0.101077
0.0156303
0.0789932
0.162968
0.243747
0.291079
0.372371
0.383063
0.386682
0.299662
0.310832
0.435493
0.382381
0.390111
0.339114
0.285756
0.253168
0.216824
0.185099
0.183748
0.211089
0.23458
0.182363
0.219653
0.242063
0.246932
0.259626
0.26444
0.266747
0.295365
0.314043
0.30606
-0.0309573
0.0680803
0.426245
0.897463
0.803356
0.422263
0.250207
0.166868
0.0370408
-0.129584
-0.238298
-0.32656
-0.356654
-0.360262
-0.336455
-0.344177
-0.311518
-0.257568
-0.139584
0.0632323
0.228
0.26992
0.229367
0.289364
0.316787
0.0187297
0.126291
0.218686
0.330784
0.436294
0.526211
0.582252
0.618889
0.628714
0.558727
0.500987
0.462765
0.381098
0.298059
0.225835
0.178077
0.150997
0.129797
0.0995551
0.0331153
0.0333037
-0.112664
-0.109125
0.0100691
0.0765889
0.171228
0.256096
0.307139
0.38733
0.397059
0.398043
0.342979
0.377318
0.497461
0.438755
0.438263
0.379346
0.320613
0.284307
0.243116
0.204287
0.196004
0.218135
0.229465
0.18639
0.218326
0.244339
0.253421
0.269469
0.278482
0.287986
0.324646
0.356202
0.344488
0.0292301
0.156438
0.459486
0.879721
0.804476
0.430036
0.260802
0.181916
0.0437711
-0.124841
-0.23836
-0.332612
-0.367231
-0.374542
-0.354519
-0.365727
-0.323837
-0.25808
-0.130451
0.0636771
0.20779
0.260456
0.231075
0.316022
0.358915
0.0207415
0.13693
0.236024
0.355385
0.466813
0.562061
0.622679
0.662252
0.675127
0.602268
0.53492
0.492896
0.411161
0.325216
0.248293
0.197129
0.167078
0.140962
0.105032
0.0350261
0.0204965
-0.119079
-0.116019
0.00429701
0.0735798
0.178065
0.266575
0.322278
0.401162
0.408591
0.408468
0.38267
0.438979
0.557829
0.495611
0.487317
0.42072
0.356613
0.316547
0.270677
0.224626
0.20981
0.226392
0.225677
0.189597
0.215834
0.244744
0.258068
0.277169
0.291418
0.308434
0.353488
0.399316
0.387123
0.0915276
0.24303
0.488909
0.852218
0.802156
0.433561
0.268349
0.194311
0.0494067
-0.120604
-0.239776
-0.340594
-0.381456
-0.393787
-0.376238
-0.388798
-0.338905
-0.261585
-0.125432
0.0583052
0.177153
0.243976
0.230899
0.343971
0.38937
0.022842
0.147625
0.253496
0.380021
0.497211
0.597578
0.662703
0.70489
0.720365
0.645854
0.569917
0.522725
0.439957
0.351522
0.271479
0.217795
0.184463
0.152846
0.110764
0.0381021
0.00826821
-0.12459
-0.121567
-0.00199916
0.0700015
0.183645
0.27576
0.336064
0.413467
0.418923
0.418661
0.419519
0.496855
0.617033
0.552403
0.536408
0.462293
0.392907
0.349007
0.298219
0.245541
0.224541
0.235083
0.224406
0.191996
0.212195
0.243486
0.261233
0.283042
0.303263
0.328409
0.382813
0.443804
0.435072
0.155532
0.327031
0.515562
0.813017
0.800146
0.436584
0.274511
0.204324
0.0550295
-0.116156
-0.241859
-0.349758
-0.398586
-0.41714
-0.401571
-0.412553
-0.354283
-0.266067
-0.123485
0.0493126
0.143871
0.222167
0.230699
0.366379
0.446724
0.0250831
0.15847
0.271208
0.404775
0.527537
0.632788
0.702374
0.747194
0.765377
0.690683
0.607315
0.553896
0.469808
0.378378
0.296539
0.241266
0.204257
0.166657
0.117986
0.0428075
-0.0026465
-0.128797
-0.125292
-0.00832531
0.0662474
0.188243
0.284495
0.349063
0.42352
0.429097
0.429878
0.455701
0.553415
0.676866
0.609905
0.586229
0.504753
0.430236
0.382596
0.326821
0.267787
0.240588
0.244557
0.225223
0.193611
0.207366
0.240272
0.262463
0.286394
0.313245
0.347391
0.412106
0.488499
0.485834
0.218389
0.408792
0.542471
0.763783
0.797738
0.437293
0.278203
0.211485
0.0606133
-0.11246
-0.245378
-0.361219
-0.419584
-0.444826
-0.432744
-0.439015
-0.371321
-0.272234
-0.124613
0.0366786
0.109314
0.195823
0.230802
0.392684
0.481953
0.0273985
0.169233
0.288785
0.429087
0.557064
0.666824
0.740765
0.788383
0.809725
0.73609
0.646724
0.58653
0.500193
0.405269
0.322835
0.265914
0.225391
0.181752
0.126161
0.0484167
-0.0117335
-0.131394
-0.127341
-0.0144631
0.0621665
0.191668
0.29315
0.361729
0.431574
0.439198
0.441396
0.49136
0.609229
0.737284
0.667597
0.636191
0.547432
0.467791
0.416574
0.355438
0.290553
0.257176
0.254425
0.227707
0.194574
0.202141
0.235705
0.262133
0.287675
0.321503
0.365322
0.441492
0.532513
0.536372
0.279394
0.486383
0.573983
0.707161
0.791889
0.436259
0.280668
0.217356
0.0675629
-0.108782
-0.248643
-0.373623
-0.442571
-0.474612
-0.468643
-0.466911
-0.389456
-0.279435
-0.127233
0.0227994
0.0764877
0.167439
0.231526
0.422686
0.526878
0.0298838
0.180081
0.306443
0.453214
0.586115
0.700119
0.7784
0.82918
0.854485
0.78317
0.689318
0.622206
0.532572
0.433366
0.351515
0.292577
0.248705
0.199023
0.136239
0.0553795
-0.0181722
-0.131977
-0.128018
-0.0197969
0.0582725
0.194386
0.30133
0.374419
0.440831
0.450494
0.453642
0.527312
0.666077
0.79958
0.726573
0.687382
0.591391
0.506517
0.451888
0.38519
0.314585
0.274917
0.265138
0.231793
0.195071
0.196266
0.229351
0.259462
0.28599
0.326712
0.379957
0.469705
0.574555
0.579803
0.336256
0.559945
0.613369
0.644671
0.781973
0.433545
0.281165
0.221749
0.0750767
-0.105726
-0.251728
-0.387512
-0.467872
-0.507138
-0.509537
-0.498344
-0.410815
-0.289828
-0.132623
0.00685769
0.0435668
0.138039
0.233786
0.449243
0.597301
0.0325143
0.190873
0.323967
0.476846
0.614312
0.732236
0.814766
0.868956
0.898941
0.831139
0.734409
0.660327
0.566417
0.462076
0.381874
0.320437
0.27299
0.217393
0.147957
0.0633367
-0.0214835
-0.130741
-0.127713
-0.0244823
0.0544417
0.196332
0.308293
0.38635
0.452451
0.463775
0.466506
0.562715
0.723645
0.863165
0.786422
0.739304
0.635959
0.545575
0.486991
0.414797
0.338806
0.292934
0.276314
0.236844
0.195219
0.190029
0.2217
0.254935
0.282261
0.328919
0.391174
0.496526
0.615818
0.620966
0.392689
0.628905
0.662608
0.579574
0.769336
0.431976
0.282334
0.225943
0.0828427
-0.102094
-0.253189
-0.400809
-0.493184
-0.541121
-0.553828
-0.533843
-0.434226
-0.302492
-0.140235
-0.00951496
0.0128992
0.109009
0.238666
0.481273
0.65133
0.0354108
0.20181
0.341627
0.500317
0.642086
0.763721
0.850466
0.90833
0.943737
0.880865
0.782784
0.701731
0.60267
0.492944
0.414372
0.350217
0.298842
0.23741
0.162249
0.0731273
-0.0214124
-0.127688
-0.126385
-0.0284447
0.0511749
0.197374
0.31459
0.397012
0.464737
0.479356
0.482235
0.598216
0.783159
0.929041
0.848177
0.793112
0.682162
0.585963
0.522607
0.445281
0.363997
0.311918
0.288434
0.242813
0.1951
0.183111
0.21218
0.247655
0.275733
0.326801
0.398631
0.519694
0.653937
0.663554
0.452824
0.694039
0.723074
0.514438
0.75617
0.433602
0.285707
0.229132
0.0892065
-0.0980444
-0.253907
-0.413798
-0.518871
-0.577262
-0.602434
-0.575962
-0.461407
-0.318501
-0.15125
-0.0273534
-0.017391
0.0791857
0.245439
0.519248
0.711001
0.0385512
0.212755
0.359229
0.523357
0.669092
0.794154
0.88498
0.946574
0.98788
0.931287
0.833283
0.745313
0.640636
0.525793
0.447369
0.380659
0.325105
0.258087
0.178456
0.0849399
-0.0183756
-0.123093
-0.124213
-0.0322386
0.0483819
0.197137
0.320128
0.406259
0.476365
0.494583
0.499575
0.633197
0.844153
0.996263
0.911115
0.848041
0.729112
0.626842
0.557758
0.47544
0.389233
0.331139
0.300933
0.249243
0.194918
0.175961
0.201478
0.23836
0.26735
0.321802
0.403888
0.53997
0.688936
0.705911
0.517603
0.7546
0.794066
0.453658
0.751146
0.444185
0.293108
0.231635
0.0942088
-0.0924314
-0.253001
-0.424732
-0.543366
-0.613423
-0.653255
-0.622874
-0.491659
-0.336839
-0.165064
-0.0453129
-0.0450369
0.0495274
0.254279
0.560271
0.781314
0.0420467
0.22387
0.376984
0.546223
0.69566
0.823959
0.918797
0.984229
1.03187
0.982873
0.886325
0.791563
0.681179
0.561807
0.481538
0.412859
0.352548
0.279934
0.196478
0.0991401
-0.0123994
-0.117438
-0.121422
-0.0357179
0.0464069
0.196906
0.325176
0.415002
0.487683
0.508007
0.517756
0.669153
0.908133
1.06575
0.976353
0.905138
0.777975
0.669286
0.593908
0.506529
0.415448
0.351454
0.314059
0.256197
0.194719
0.168176
0.188921
0.226015
0.255824
0.313207
0.405776
0.556887
0.721389
0.744477
0.579919
0.80944
0.875534
0.402257
0.767982
0.460596
0.294888
0.230775
0.0972103
-0.0850842
-0.251456
-0.434492
-0.566892
-0.649976
-0.705597
-0.674703
-0.527839
-0.35896
-0.182844
-0.064624
-0.0708958
0.0189559
0.265888
0.608311
0.846495
0.0458602
0.234989
0.394675
0.568621
0.721422
0.852685
0.951379
1.02062
1.07479
1.03436
0.940744
0.839177
0.723261
0.59991
0.516681
0.446299
0.38053
0.302491
0.215124
0.113943
-0.00418258
-0.111071
-0.118222
-0.0387957
0.0451644
0.196822
0.330141
0.424671
0.498837
0.517861
0.535295
0.706098
0.974725
1.13648
1.04315
0.963468
0.827854
0.712443
0.630108
0.537339
0.441711
0.371993
0.327077
0.263286
0.194628
0.160247
0.175287
0.211498
0.242085
0.302385
0.405511
0.571712
0.753802
0.783676
0.638346
0.85928
0.964752
0.359314
0.799515
0.478249
0.290969
0.22497
0.0992763
-0.0754242
-0.248315
-0.441714
-0.587711
-0.685459
-0.756631
-0.728834
-0.570083
-0.3844
-0.204316
-0.084994
-0.0930241
-0.0121619
0.280379
0.65668
0.939823
0.0500886
0.246234
0.41245
0.590738
0.74663
0.880677
0.983159
1.05631
1.11728
1.08631
0.996964
0.888587
0.767769
0.640788
0.554342
0.481863
0.409977
0.32655
0.233855
0.127245
0.00531031
-0.104377
-0.114887
-0.040879
0.0455508
0.1976
0.335942
0.436067
0.510567
0.526318
0.553281
0.745747
1.0453
1.20973
1.11269
1.02429
0.879988
0.757577
0.667756
0.569218
0.468876
0.393259
0.340434
0.270572
0.194496
0.151671
0.159757
0.193622
0.224612
0.28771
0.401162
0.581713
0.784394
0.825157
0.69342
0.910705
1.06097
0.318617
0.819173
0.490651
0.288233
0.215279
0.0999065
-0.0655668
-0.244199
-0.446862
-0.60633
-0.721081
-0.80635
-0.784652
-0.620778
-0.415884
-0.229977
-0.109221
-0.11355
-0.0433159
0.298423
0.71413
1.02153
0.054684
0.257419
0.430078
0.612279
0.770924
0.907502
1.01363
1.0907
1.15863
1.13771
1.05363
0.938501
0.813427
0.683547
0.594048
0.518642
0.440297
0.351661
0.252351
0.137354
0.0152155
-0.0982725
-0.111958
-0.0419598
0.047944
0.199441
0.34245
0.448407
0.522295
0.534032
0.571792
0.788039
1.11908
1.28481
1.18413
1.08673
0.933312
0.803772
0.705786
0.60109
0.495625
0.414305
0.353641
0.277747
0.194472
0.14299
0.143221
0.173502
0.204546
0.270445
0.393633
0.587906
0.813286
0.868749
0.749607
0.970556
1.15955
0.274469
0.8213
0.499866
0.290746
0.206727
0.0996305
-0.0561979
-0.238216
-0.448052
-0.621408
-0.755045
-0.852948
-0.838757
-0.676962
-0.454101
-0.259372
-0.138873
-0.132932
-0.0699067
0.320243
0.780023
1.11774
0.0597337
0.268644
0.447673
0.6334
0.794533
0.933482
1.04321
1.12439
1.1995
1.18897
1.11094
0.989199
0.860217
0.728956
0.636618
0.556963
0.472003
0.377908
0.271013
0.145558
0.0250565
-0.0935725
-0.109044
-0.0418493
0.0526046
0.203273
0.350274
0.461534
0.534281
0.543062
0.592124
0.83442
1.1971
1.36326
1.25879
1.15218
0.98915
0.852348
0.745695
0.634403
0.522664
0.43602
0.367259
0.284925
0.194345
0.133586
0.124693
0.149789
0.180171
0.248456
0.380745
0.589261
0.838811
0.91229
0.802743
1.04153
1.25817
0.227047
0.811682
0.507015
0.298638
0.200716
0.0980381
-0.0478373
-0.231216
-0.446483
-0.633294
-0.787037
-0.896975
-0.889992
-0.734915
-0.500224
-0.29136
-0.173761
-0.150638
-0.088004
0.34745
0.849244
1.241
0.0651818
0.279717
0.465006
0.65383
0.817148
0.958226
1.07144
1.15682
1.23909
1.23929
1.16714
1.03937
0.906425
0.775601
0.680746
0.595561
0.504217
0.404592
0.289575
0.154522
0.0349379
-0.089701
-0.106242
-0.0410013
0.0586388
0.208801
0.359174
0.474612
0.545814
0.553392
0.613802
0.884466
1.27835
1.44416
1.33569
1.21948
1.04633
0.902189
0.786258
0.667717
0.549322
0.457811
0.380827
0.291868
0.194225
0.124023
0.105114
0.12374
0.152876
0.223165
0.364291
0.587947
0.862571
0.956573
0.854539
1.11402
1.35147
0.178334
0.795977
0.51484
0.312933
0.198091
0.0951646
-0.0398421
-0.222547
-0.442073
-0.641182
-0.81603
-0.9373
-0.936045
-0.78898
-0.553233
-0.324999
-0.209976
-0.166989
-0.0967719
0.380186
0.927944
1.35769
0.0711018
0.29072
0.482167
0.673707
0.838987
0.982042
1.09866
1.18845
1.27806
1.28969
1.2224
1.08958
0.952438
0.82373
0.726204
0.634442
0.536929
0.43153
0.30765
0.165882
0.0440046
-0.0859247
-0.103283
-0.0390302
0.0659128
0.216414
0.369744
0.487913
0.557209
0.565026
0.637558
0.939411
1.36388
1.52901
1.4163
1.29001
1.10628
0.954758
0.829028
0.70233
0.577458
0.480618
0.39482
0.298729
0.193777
0.113534
0.0833165
0.0938389
0.120759
0.192333
0.34217
0.581425
0.88199
1.00192
0.910825
1.17724
1.43932
0.133389
0.775347
0.522029
0.330926
0.19623
0.0907988
-0.0328749
-0.21254
-0.435177
-0.646608
-0.843419
-0.975605
-0.978484
-0.83708
-0.609035
-0.360374
-0.245485
-0.183775
-0.0955204
0.41991
1.01672
1.48663
0.0774233
0.301457
0.498931
0.692781
0.85977
1.00458
1.12442
1.21871
1.3157
1.33946
1.27577
1.13841
0.997344
0.872234
0.771351
0.672801
0.569132
0.457678
0.324415
0.178683
0.051098
-0.0823894
-0.0999163
-0.0358517
0.0742247
0.225738
0.381532
0.50074
0.56817
0.576852
0.663037
0.998704
1.45276
1.61686
1.49956
1.36258
1.16777
1.00881
0.872584
0.736894
0.606053
0.503768
0.408802
0.305369
0.19317
0.102773
0.0604142
0.0615758
0.0855343
0.158053
0.316459
0.57114
0.897147
1.04739
0.978276
1.23433
1.51892
0.0931929
0.749185
0.529245
0.351157
0.196633
0.0879577
-0.0268055
-0.199999
-0.425304
-0.65
-0.868869
-1.01275
-1.01904
-0.87989
-0.660036
-0.397948
-0.27939
-0.202575
-0.0868893
0.465196
1.11114
1.63081
0.0842003
0.311997
0.515379
0.711203
0.879723
1.02616
1.14907
1.24805
1.35253
1.3888
1.32784
1.18602
1.04243
0.921353
0.816011
0.710764
0.600791
0.482753
0.339938
0.190913
0.0565177
-0.0788335
-0.0957624
-0.0307583
0.0842637
0.237859
0.395209
0.513331
0.579486
0.5896
0.692266
1.0634
1.54628
1.70948
1.58703
1.43879
1.23234
1.06584
0.918551
0.772955
0.636249
0.528266
0.423297
0.311832
0.191913
0.0907445
0.0349962
0.0251765
0.0449933
0.117977
0.284607
0.554178
0.904141
1.08627
1.04465
1.29064
1.59174
0.0611122
0.717234
0.534236
0.370641
0.198943
0.0877041
-0.0217545
-0.185074
-0.413312
-0.652358
-0.892957
-1.04982
-1.06057
-0.921751
-0.704523
-0.437032
-0.312424
-0.22081
-0.0715905
0.516902
1.21513
1.77739
0.0913427
0.322138
0.53128
0.728736
0.898608
1.04647
1.17223
1.27591
1.38767
1.43638
1.37711
1.23097
1.08753
0.969474
0.859087
0.747329
0.631078
0.50613
0.354318
0.201258
0.0605449
-0.0752308
-0.091196
-0.0238528
0.0957597
0.252589
0.410713
0.525489
0.591307
0.603225
0.725954
1.13327
1.6441
1.80578
1.67747
1.51722
1.29864
1.12409
0.965016
0.809176
0.667054
0.553455
0.437854
0.317829
0.190039
0.0779563
0.0081053
-0.0137794
0.000994324
0.0743989
0.248996
0.532932
0.905338
1.11935
1.10605
1.34668
1.65582
0.0377251
0.679221
0.537389
0.3894
0.204627
0.090764
-0.0160622
-0.168171
-0.399077
-0.653393
-0.915044
-1.08543
-1.10246
-0.963642
-0.744413
-0.478297
-0.34423
-0.239109
-0.0524258
0.572953
1.32133
1.94879
0.098881
0.331944
0.546709
0.745538
0.916669
1.06583
1.19426
1.30271
1.4216
1.48284
1.42326
1.27354
1.13317
1.01646
0.900555
0.782389
0.659621
0.527414
0.367217
0.209537
0.0637568
-0.0711212
-0.0850032
-0.0144584
0.109311
0.270383
0.429139
0.538879
0.604595
0.619444
0.765835
1.21085
1.74834
1.90742
1.77257
1.5994
1.36818
1.18469
1.01331
0.84701
0.699505
0.579783
0.452631
0.323045
0.186551
0.0628528
-0.0221643
-0.0574733
-0.048995
0.0245748
0.206585
0.50456
0.899005
1.14622
1.16272
1.39424
1.71202
0.0266224
0.634125
0.538081
0.406385
0.211194
0.0973001
-0.00987722
-0.150583
-0.383813
-0.654532
-0.936603
-1.12016
-1.14548
-1.00747
-0.782874
-0.521442
-0.373561
-0.257481
-0.0282169
0.634978
1.43699
2.12033
0.106701
0.34122
0.561442
0.761388
0.933699
1.08401
1.21485
1.328
1.45349
1.52747
1.46481
1.31349
1.17802
1.06095
0.939303
0.815155
0.685535
0.545918
0.378258
0.216615
0.0672021
-0.0659603
-0.0762994
-0.00209275
0.125224
0.290403
0.44963
0.553667
0.618311
0.638783
0.81187
1.29656
1.85842
2.01317
1.8709
1.68376
1.43949
1.24565
1.06173
0.88452
0.732119
0.606291
0.466895
0.327089
0.181415
0.0458156
-0.0548678
-0.104314
-0.102854
-0.0288905
0.160049
0.471806
0.888194
1.16925
1.21233
1.42498
1.75817
0.026983
0.585128
0.54042
0.42245
0.220804
0.107505
-0.00233391
-0.130993
-0.368125
-0.657126
-0.958139
-1.15397
-1.18938
-1.05328
-0.822129
-0.564345
-0.400671
-0.271871
0.00144881
0.700799
1.55929
2.30508
0.114804
0.350051
0.575587
0.776486
0.949969
1.10134
1.23438
1.3522
1.48371
1.56939
1.50114
1.35167
1.22159
1.10254
0.975054
0.845203
0.708301
0.5611
0.38736
0.223646
0.0721737
-0.058992
-0.0643633
0.0143094
0.144719
0.313184
0.471988
0.570342
0.633087
0.662357
0.865917
1.39189
1.97567
2.12478
1.97404
1.772
1.51424
1.30861
1.11219
0.922991
0.76601
0.63368
0.480851
0.329684
0.173763
0.0253541
-0.0920294
-0.156642
-0.163249
-0.0888871
0.105873
0.431362
0.870317
1.18599
1.25184
1.43429
1.79554
0.0414913
0.534532
0.544952
0.437115
0.233996
0.121713
0.00961127
-0.110668
-0.353523
-0.66263
-0.980326
-1.18697
-1.23409
-1.10055
-0.862794
-0.601656
-0.421702
-0.277216
0.0392379
0.773726
1.68628
2.50964
0.123044
0.358241
0.588921
0.790629
0.965294
1.11759
1.25257
1.37492
1.51141
1.60473
1.53222
1.3871
1.26227
1.14011
1.00702
0.871786
0.727335
0.57266
0.395076
0.231729
0.0792429
-0.0495827
-0.0498083
0.0337079
0.166912
0.337741
0.494675
0.587467
0.648662
0.689879
0.928133
1.49592
2.09867
2.24073
2.0803
1.86242
1.59091
1.37202
1.16229
0.960805
0.799888
0.661139
0.494088
0.330858
0.164141
0.00252863
-0.132134
-0.212388
-0.227558
-0.152528
0.0472828
0.386377
0.847179
1.19661
1.27881
1.42688
1.82498
0.0674068
0.484502
0.550843
0.451022
0.252837
0.139833
0.0270759
-0.0914163
-0.340538
-0.67112
-1.00367
-1.21862
-1.27886
-1.14667
-0.904548
-0.633576
-0.434758
-0.274222
0.0865964
0.854302
1.81999
2.70825
0.131394
0.365898
0.601585
0.804064
0.979987
1.13314
1.26983
1.39662
1.53745
1.63312
1.56014
1.42055
1.29958
1.17326
1.03487
0.894349
0.742265
0.580617
0.40152
0.241097
0.0881837
-0.0368233
-0.0323523
0.0554226
0.191501
0.363701
0.517126
0.60489
0.666432
0.723146
1.00042
1.61008
2.22878
2.3626
2.19133
1.95673
1.67136
1.43757
1.21299
0.999268
0.834418
0.688364
0.506511
0.330418
0.151865
-0.0239211
-0.176886
-0.273657
-0.298136
-0.222961
-0.0189417
0.33384
0.815731
1.19662
1.28802
1.40633
1.84948
0.106429
0.437222
0.555447
0.462421
0.275391
0.159387
0.0493789
-0.0741368
-0.329701
-0.683253
-1.03031
-1.25049
-1.3233
-1.19097
-0.946936
-0.662938
-0.437655
-0.255902
0.148882
0.947798
1.96386
2.91938
0.139681
0.372838
0.61336
0.816588
0.993882
1.1478
1.2859
1.41685
1.5618
1.65528
1.58493
1.4525
1.33225
1.20125
1.05814
0.912269
0.753205
0.586052
0.407287
0.25127
0.0980706
-0.0208543
-0.0126812
0.0780857
0.216803
0.389174
0.537845
0.621522
0.686083
0.76251
1.0827
1.73357
2.36474
2.48862
2.30542
2.05305
1.75403
1.50317
1.26162
1.03646
0.868126
0.71364
0.517365
0.328598
0.137848
-0.0527297
-0.2245
-0.337942
-0.371645
-0.296542
-0.0884818
0.277783
0.779034
1.18706
1.28217
1.37561
1.87011
0.155192
0.394334
0.558393
0.472406
0.301324
0.18005
0.0736061
-0.0580236
-0.322234
-0.699332
-1.05906
-1.28434
-1.36762
-1.23768
-0.990292
-0.689806
-0.433779
-0.220181
0.226151
1.05304
2.11359
3.1387
0.147854
0.379217
0.624448
0.828512
1.00734
1.16198
1.3012
1.43592
1.58453
1.67447