/*--------------------------------*- C++ -*----------------------------------*\
| =========                 |                                                 |
| \\      /  F ield         | OpenFOAM: The Open Source CFD Toolbox           |
|  \\    /   O peration     | Version:  4.1                                   |
|   \\  /    A nd           | Web:      www.OpenFOAM.org                      |
|    \\/     M anipulation  |                                                 |
\*---------------------------------------------------------------------------*/
FoamFile
{
    version     2.0;
    format      ascii;
    class       surfaceScalarField;
    location    "24";
    object      phi;
}
// * * * * * * * * * * * * * * * * * * * * * * * * * * * * * * * * * * * * * //

dimensions      [0 3 -1 0 0 0 0];

internalField   nonuniform List<scalar> 
13220
(
-949.878
2249.78
-1573.95
1924.28
-2054
1779.95
-2424.23
1670.13
-2699.86
1575.83
-2888.38
1488.42
-2993.06
1404.58
-3013.86
1321
-2949.62
1235.66
-2797.24
1147.52
-2551.17
1054.14
-2193.01
941.738
-1687.18
794.067
-1012.68
625.703
287.221
373.334
1876.44
442.748
1854.87
437.289
1785.4
406.688
1700.74
380.559
1601.95
359.884
1509.1
345.265
1419.19
337.512
1328.76
333.455
1239.72
326.928
1154.06
309.582
1071.48
267.451
983.881
191.423
870.105
111.453
705.681
398.674
33.5881
1842.85
-97.3835
1985.85
-253.614
1941.62
-371.113
1818.25
-473.187
1704.01
-567.528
1603.45
-651.751
1503.41
-725.793
1402.81
-788.076
1301.99
-837.31
1203.28
-868.229
1102.4
-856.104
971.736
-740.359
754.339
-434.3
399.6
-35.6261
28.8397
1813.99
-100.593
2115.28
-225.518
2066.52
-304.441
1897.18
-368.121
1767.66
-416.904
1652.24
-446.202
1532.68
-456.978
1413.59
-451.831
1296.83
-430.125
1181.58
-387.212
1059.47
-311.85
896.396
-192.847
635.356
-48.4085
255.184
-84.0343
169.81
1644.16
146.376
2138.73
123.919
2088.95
123.072
1898.04
127.122
1763.58
136.015
1643.37
149.292
1519.37
166.806
1396.1
187.145
1276.47
208.349
1160.4
229.363
1038.48
244.014
881.739
233.151
646.242
155.305
333.052
71.2713
223.657
1420.47
244.955
2117.44
235.424
2098.41
236.688
1896.79
240.992
1759.21
244.966
1639.42
247.149
1517.14
245.874
1397.41
241.732
1280.59
234.56
1167.62
221.876
1051.16
199.607
904.104
156.506
689.449
78.4854
411.173
149.756
204.836
1215.57
240.621
2081.67
215.746
2123.23
193.41
1919.15
179.153
1773.42
165.758
1652.85
151.971
1530.9
137.813
1411.61
122.925
1295.49
108.698
1181.86
94.5249
1065.38
77.1655
921.381
52.9797
713.568
19.4642
444.631
169.222
175.33
1040.17
227.6
2029.45
204.927
2145.78
175.492
1948.64
156.904
1791.91
142.504
1667.33
127.406
1545.95
113.077
1426.02
99.8007
1308.75
87.087
1194.66
75.0239
1077.43
61.7172
934.898
42.5851
732.924
16.8357
470.581
186.056
153.2
886.883
222.51
1960.2
209.693
2158.52
181.836
1976.57
163.659
1809.98
150.664
1680.38
137.823
1558.71
124.244
1439.65
111.121
1321.82
98.5708
1207.19
85.3414
1090.67
70.0308
949.977
49.2494
753.471
21.6755
497.946
207.734
130.586
756.194
210.034
1880.92
206.292
2162.03
178.475
2004.53
159.353
1828.88
145.177
1694.71
131.275
1572.42
117.802
1453.26
103.535
1335.99
90.0331
1220.84
76.4973
1104.12
61.3014
965.532
41.6686
773.431
17.3746
522.535
225.105
107.718
648.448
191.421
1797.65
197.816
2155.52
172.713
2030.04
153.971
1847.53
141.821
1707.27
128.581
1585.63
115.487
1466.74
102.09
1349.47
88.0434
1235.06
74.2543
1118.24
58.6234
980.663
39.1283
792.547
16.4072
544.925
241.525
95.2882
553.171
180.62
1713.12
194.84
2141
169.195
2056.41
142.933
1873.64
125.877
1725.04
111.562
1599.99
98.0757
1480.84
85.1975
1362.48
73.863
1247.04
61.5382
1130.58
49.1077
994.505
31.9734
811.095
11.1925
567.005
252.721
92.0559
459.927
227.132
1578.27
270.29
2096.88
264.762
2062.18
259.642
1878.14
258.458
1726.51
251.684
1606.48
239.396
1493.31
221.246
1380.78
199.647
1268.83
175.052
1155.8
143.931
1025.47
105.193
850.143
55.3213
617.294
308.1
134.403
323.9
246.348
1467.9
276.204
2065.82
218.908
2120.99
141.63
1954.74
88.8061
1781.2
60.5031
1634.84
50.163
1506.01
47.9678
1384.02
50.4534
1268.65
53.1746
1154.83
52.5999
1029.58
39.2638
869.827
15.8583
646.985
324.219
-139.19
318.798
915.423
1339.92
1544.49
1615.07
1583.42
1494.86
1364.15
1201.13
1019.09
815.363
593.972
319.363
0.768899
986.219
-983.234
986.772
988.969
988.24
1858.56
-869.311
1857.38
1857.61
1856.29
2533.71
-677.542
2532.42
2532.26
3041.54
-510.286
3041.05
3040.03
3039.8
3372.34
-333.27
3371.77
3371.2
3564.77
-193.993
3564.12
3563.65
3563.22
3580.31
-17.4572
3579.69
3579.26
3578.8
3465.75
112.774
3465.11
3464.74
3264.74
199.543
3263.68
3263.3
3262.43
2982.3
280.084
2981.46
2981.7
2658.72
322.413
2658.91
2658.76
2659
2307.69
351.477
2308.18
2308.07
2308.68
1972.87
335.026
1973.36
1972.48
1728.04
245.5
1727.67
1728.64
1728.52
1437.26
292.334
1437.71
1439.12
1439.38
1018.93
421.713
1020.21
1021.3
485.851
536.855
488.021
490.139
491.198
-80.0643
573.212
-76.3301
-74.7629
-1082.14
1008.15
-1081.44
-1079.9
-1079.47
-2641.38
1562.9
-2640.47
-2638.95
-2637.52
-4581.17
1944.1
-4578.12
-4579.14
-6789.07
2211.97
-6790.6
-6788.91
-6680.27
-6562.29
-6434.7
-8710.22
2401.3
-8594.11
-8445.47
-8272.26
-8093.99
-7916.67
-7744.31
-7566.18
-7363.11
-9693.72
2534.27
-9479.79
-9270.8
-9063.35
-8835.27
-8603.19
-8370.98
-8138.18
-7903.84
-10232.6
2567.87
-9980.89
-9728.72
-9476.6
-9225.2
-8969.17
-8701.19
-8431.56
-8159.71
-7887.53
-10104.1
2478.3
-9820.5
-9535.57
-9249.34
-8965.08
-8681.08
-8385.06
-8079.12
-7774.68
-9688.92
2206.26
-9394.79
-9093.6
-8780.51
-8466.55
-8152.47
-7838.5
-7525.01
-7194.54
-8627.31
1751.76
-8308.15
-7989.82
-7674.58
-7345.34
-7010.92
-6677.3
-6345.85
-6022.14
-6726.71
1025.57
-6403.58
-6083.57
-5766.77
-5453.33
-5146.89
-4852.29
-4567.07
-4289.59
-4024.56
-3602.99
-151.565
-3379.95
-3178.6
-2985.77
-2797.83
-2609.34
-2453.96
-2369.21
-2285.08
-1478.07
-708.717
-1398.83
-1314.49
-1315.11
-913.316
-398.583
-565.997
-348.152
-563.637
-254.128
-312.02
-255.146
-14.2957
-245.981
156.625
-175.295
151.907
323.405
-174.133
504.132
-183.004
501.657
671.067
-170.382
667.455
824.441
-157.253
960.609
-140.102
961.4
1084.19
-125.137
1086.19
1201.06
-115.364
1299.57
-95.9772
1298.76
1390.41
-89.0943
1457.41
-68.4834
1459.82
1522.84
-63.6946
1525.63
1588.24
-61.6359
1633.4
-42.1703
1634.24
1677.28
-40.4585
1677.86
1719.56
-39.1709
1741.51
-21.5451
1743.42
1769.5
-25.0119
1779.2
-7.77571
1779.96
1791.34
-9.87229
1791.9
1805.75
-12.451
1803.41
2.46863
1804.28
1806.78
-2.19384
1807.46
1812.54
-4.31341
1804.62
8.52024
1804.84
1805.04
0.336052
1792.36
12.7126
1792.59
1785.43
7.13494
1785.7
1783.1
2.51509
1770.37
12.9249
1770.34
1765.61
4.90506
1765.73
1764.37
1.61581
1754.23
10.3428
1754.37
1754.34
0.125297
1745.9
8.59458
1745.91
1744.57
1.44552
1744.88
1748.63
-3.69145
1745.57
3.47838
1745.58
1752.51
-6.55702
1752.38
1763.09
-10.4584
1767.63
-4.7617
1767.75
1784.44
-16.8353
1796.77
-12.1361
1796.69
1819.07
-22.3474
1819.08
-32.1883
-50.8282
459.013
-58.7638
543.967
-62.2603
649.992
-62.406
730.318
-57.6921
800.893
-47.8855
827.151
-34.0798
839.618
-20.1466
912.628
-2.02248
1142.72
7.49101
1012.78
1.20124
452.081
-4.32326
339.864
2.07009
80.2339
21.3648
203.062
39.9978
257.546
55.3176
170.927
75.2443
-14.0252
119.534
-203.986
166.605
-504.551
189.599
-625.205
201.868
-581.576
206.92
-510.783
197.597
-439.389
176.807
-344.048
159.798
-242.864
145.27
-283.341
124.299
-334.614
84.9915
-418.496
43.4877
-562.334
-0.459715
-611.385
-27.0085
918.542
-6.93448
2576.61
25.6964
3136.48
39.6341
2343.02
50.6906
1743.66
56.2058
1223
59.4292
812.596
58.0088
480.756
42.0989
296.477
74.9822
173.842
68.3201
-440.736
56.5703
-718.831
62.5667
-771.192
62.9815
-806.912
43.692
-907.755
42.8522
-838.16
53.8117
-787.412
48.5671
-806.382
32.226
-787.72
5.35965
-886.19
-27.1841
-1146.91
-33.1566
-1352.25
-4.60952
-979.205
-15.2208
-12.6782
-30.011
1343.96
32.1888
3529.67
35.4528
5207.42
-17.7687
397.747
-114.634
-606.218
-161.473
-94.3058
-145.8
291.474
-124.148
476.405
-120.304
608.96
-116.073
522.338
-92.071
648.074
-73.8565
709.532
-59.6947
718.32
-42.9708
710.397
-41.5523
656.895
-56.0978
560.024
-70.0635
591.254
-91.6106
715.141
-105.502
1002.74
-96.0815
1160.77
-69.5513
970.905
-14.2158
451.989
13.5192
-1001.56
18.5946
-1498.52
-1797.62
-56.7654
464.828
-64.0282
551.799
-66.7293
653.636
-65.9992
730.69
-60.0085
796.378
-49.045
817.858
-34.8998
827.406
-22.2694
901.989
-5.75441
1127.99
4.16415
1005.09
1.00786
459.28
6.49794
339.684
10.9239
84.3019
30.3585
190.559
50.1121
244.495
72.3995
157.024
77.4193
-11.0748
131.688
-256.681
178.34
-550.045
198.312
-644.014
206.133
-588.303
209.553
-513.204
205.678
-434.915
191.333
-329
170.438
-221.713
147.051
-260.031
123.882
-312.04
85.9676
-381.266
47.177
-524.561
-1.40914
-563.927
-19.6633
935.905
-2.74552
2559.18
26.3864
3106.8
40.9597
2327.4
51.299
1731.27
56.9839
1214.31
59.3157
805.494
58.3826
473.437
28.5111
315.644
77.9876
120.785
74.8865
-439.581
64.4069
-709.967
67.0118
-775.417
65.2803
-806.724
47.6095
-891.141
46.7609
-838.334
55.1706
-796.734
50.7473
-802.76
37.4814
-775.361
11.4567
-860.942
-22.928
-1113.04
-33.091
-1342.46
-7.52485
-1004.75
-34.8896
22.5922
-13.0321
1323.48
28.0812
3488.96
34.9353
5200.96
-21.0213
456.29
-114.786
-509.494
-158.934
-45.539
-140.175
276.245
-127.822
467.586
-113.121
597.535
-107.738
520.478
-88.4817
631.663
-70.0528
693.344
-56.0746
705.667
-44.2171
699.127
-41.0086
653.154
-52.0222
569.85
-66.6282
604.227
-92.8203
739.973
-107.995
1017.03
-99.8642
1151.81
-73.0346
942.522
-5.75029
381.364
11.9878
-1020.51
11.8262
-1499.17
-1808.89
-59.6052
470.624
-66.5106
558.893
-68.833
656.341
-67.5693
729.787
-60.8449
790.208
-49.1667
806.742
-34.8472
813.742
-22.6144
890.392
-6.49859
1112.46
3.52506
995.833
1.20028
462.598
10.4342
331.686
15.9233
80.668
33.8234
174.323
51.7512
228.196
64.2405
146.307
76.8329
-25.1454
142.745
-324.446
185.029
-593.963
201.398
-661.876
205.894
-594.327
209.113
-517.715
207.989
-434.928
196.62
-319.396
175.704
-203.21
151.114
-236.605
121.203
-284.775
85.3132
-346.409
53.5605
-493.223
5.57294
-515.945
-16.8173
957.835
-1.59723
2543.7
25.7139
3079.26
39.558
2313.21
50.4057
1719.75
56.9819
1206.96
60.346
800.97
60.6859
471.682
42.5749
333.066
81.3887
86.9823
79.4028
-434.292
70.0695
-698.17
70.9913
-774.037
68.5118
-802.419
53.2737
-874.736
52.1068
-836.081
58.8463
-802.361
54.9806
-797.969
42.8786
-762.162
17.5206
-834.663
-18.3491
-1076.63
-31.903
-1328.94
0.788203
-1038.14
-11.8794
32.3546
-9.37688
1321.39
26.29
3453.44
31.246
5196.23
-22.5986
510.388
-104.143
-428.487
-144.95
-4.40145
-131.748
264.153
-124.036
461.113
-107.705
582.597
-100.389
514.776
-83.9237
616.685
-67.7964
678.608
-55.5415
694.384
-45.6146
690.032
-42.4422
650.391
-51.7759
579.557
-67.5746
619.933
-95.9866
768.266
-111.523
1032.41
-102.492
1142.51
-71.6304
911.083
-3.62512
312.676
10.3443
-1033.8
11.4643
-1499.59
-1808.86
-61.9904
476.657
-68.6037
566.027
-70.588
659.222
-68.8042
729.057
-61.4012
784.23
-49.0976
796.051
-34.5861
801.087
-22.3446
880.02
-6.37951
1098.12
3.9082
987.49
1.98802
467.946
14.7878
323.6
21.694
81.1174
36.9181
165.391
47.9588
223.506
57.7141
144.342
86.0852
-49.4547
154.433
-391.68
190.637
-629.28
203.244
-673.517
204.625
-594.829
206.373
-518.639
207.32
-435.474
198.679
-310.589
179.45
-184.897
152.821
-210.828
119.41
-253.72
83.3469
-312.164
51.0996
-462.746
5.64846
-472.386
-14.9433
977.443
-0.829713
2529.03
25.1203
3052.71
38.222
2299.03
49.3914
1706.58
56.6915
1196.86
61.3014
792.099
63.4388
462.426
54.3956
332.711
84.8864
54.2208
83.8384
-434.394
75.5874
-691.009
75.666
-775.293
72.7242
-800.766
57.7525
-860.727
56.2394
-835.486
61.7704
-808.635
58.0632
-794.926
47.107
-751.943
22.7173
-810.912
-14.2992
-1040.1
-32.8053
-1310.9
-0.295815
-1070.81
-8.91713
47.3076
-7.20016
1320.96
24.3613
3422.17
28.1923
5192.72
-23.225
563.97
-92.9771
-354.76
-131.135
38.1982
-123.028
260.541
-117.635
460.163
-100.372
569.531
-92.5214
511.533
-79.1626
607.266
-65.4247
668.166
-55.0183
686.292
-47.0005
683.495
-44.477
648.05
-53.102
587.628
-70.4087
636.079
-100.44
797.146
-114.879
1045.89
-104.201
1130.81
-68.7561
873.92
-1.78561
241.46
8.71049
-1045.56
6.47668
-1498.24
-1819.95
-64.4231
482.683
-70.7297
572.404
-72.3626
661.07
-70.0418
726.878
-61.9758
776.457
-49.0974
783.425
-34.3908
786.688
-21.9239
867.823
-5.94346
1082.4
4.72967
977.149
3.55178
469.261
17.9389
309.323
25.9075
73.183
36.6648
154.744
39.6113
220.583
54.7965
128.413
100.418
-97.7362
164.193
-457.402
194.124
-660.949
203.072
-684.113
202.052
-595.525
202.792
-520.797
204.539
-438.642
197.292
-305.546
180.633
-170.809
152.605
-184.285
117.886
-221.722
81.5639
-276.938
47.8088
-429.484
4.37568
-429.061
-13.4046
994.896
-0.152789
2515.59
24.4785
3027.95
37.1738
2286.2
48.593
1694.88
56.5138
1188.8
62.0924
786.416
65.6126
459.374
62.6252
337.646
88.2585
33.6843
88.3925
-431.149
81.7265
-681.768
80.6724
-771.88
77.0112
-795.227
63.4847
-845.938
61.274
-832.153
65.0619
-811.292
61.7515
-790.674
52.1685
-741.275
28.8984
-786.771
-9.46518
-1001.28
-34.6089
-1285.92
-16.0058
-1090.12
-15.6928
41.2074
-5.84024
1311.16
22.1689
3394.21
24.7366
5190.3
-23.9983
612.537
-83.858
-295.075
-118.657
73.0344
-114.775
257.286
-109.82
455.982
-92.3892
553.184
-85.1165
505.464
-74.4637
597.848
-63.0903
658.069
-54.3548
678.52
-47.8021
677.919
-45.6293
646.549
-54.2449
597.019
-73.894
656.033
-105.071
828.522
-118.118
1058.98
-105.293
1117.89
-65.1415
833.376
-0.324806
176.356
7.04786
-1052.3
7.03662
-1497.46
-1816.95
-66.9497
488.993
-72.9586
578.876
-74.2252
663.156
-71.3559
724.962
-62.6295
769.044
-49.187
771.459
-34.2253
773.422
-21.4045
856.67
-5.24653
1067.63
5.8118
967.669
5.2021
472.468
19.5954
298.646
27.2795
71.1209
32.9196
154.056
34.8013
223.966
58.3211
111.62
114.048
-151.749
171.731
-514.359
195.823
-684.376
201.163
-688.686
198.17
-591.88
198.363
-520.374
200.958
-441.052
194.172
-299.089
179.756
-157.662
151.673
-157.869
116.617
-190.43
79.5297
-242.737
47.2125
-399.547
4.98988
-389.599
-12.0762
1010.91
0.419982
2502.55
23.7483
3004.07
36.2387
2272.75
47.9022
1681.45
56.4178
1177.93
62.863
776.499
67.7481
448.914
69.1007
328.577
91.6833
9.72561
92.7738
-432.847
87.8159
-677.517
86.1823
-771.124
81.8902
-792.023
69.5084
-834.443
66.5985
-830.082
69.0528
-814.374
66.0593
-788.255
57.4552
-733.298
35.1152
-765.006
-4.38151
-962.325
-35.7112
-1255.21
-19.9966
-1105.92
-11.1859
35.7599
-5.11699
1306.06
19.8319
3369.45
21.2049
5189.18
-27.5944
663.1
-78.4394
-238.181
-106.314
105.11
-106.096
261.901
-101.049
455.614
-84.3329
540.976
-78.4104
504.347
-70.0376
593.739
-60.8283
652.546
-53.5528
673.936
-47.9955
674.207
-46.0261
645.019
-55.7406
606.394
-78.5206
677.785
-109.967
858.848
-121.326
1069.25
-105.939
1101.29
-60.9262
786.474
0.883417
109.256
5.37714
-1058.13
4.31682
-1497.39
-1823.8
-69.5533
495.276
-75.2833
584.573
-76.1711
664.11
-72.7448
721.478
-63.3598
759.717
-49.36
757.432
-34.0816
758.141
-20.8264
843.368
-4.32142
1051.1
7.19233
956.136
6.87362
472.272
20.8117
283.845
27.6807
62.8798
31.1395
149.484
35.5465
218.129
63.7465
79.9511
126.559
-217.296
177.816
-567.536
195.855
-704.176
197.484
-692.025
192.804
-589.017
192.703
-521.697
195.652
-445.614
189.192
-294.845
176.78
-147.232
149.687
-132.484
115.724
-158.739
78.3336
-206.078
46.984
-368.586
5.01845
-347.698
-11.0341
1026.78
0.820521
2490.6
22.9825
2981.88
35.3653
2260.45
47.2814
1669.61
56.3755
1169.24
63.6062
770.032
69.5587
444.852
73.9755
328.026
95.0116
-6.46453
97.0788
-431.721
93.9243
-671.86
92.1061
-767.029
87.4098
-785.49
75.8668
-821.567
72.2048
-825.297
73.4619
-814.523
70.6691
-784.542
62.8074
-724.423
41.4106
-742.833
1.23341
-921.773
-35.5042
-1218.68
-27.0839
-1115.03
-9.97584
12.9606
-5.1321
1301.06
17.4378
3346.86
18.0492
5188.65
-32.6971
713.429
-75.2209
-196.798
-93.6358
122.864
-97.0228
264.951
-91.7502
450.283
-76.3157
525.925
-72.044
500.445
-65.7349
587.974
-58.3929
645.947
-52.3803
668.49
-47.5555
670.174
-46.1919
644.342
-58.2135
619.412
-84.2923
704.453
-115.073
890.117
-124.337
1078.82
-106.131
1083.28
-56.678
736.993
2.0957
51.5368
3.68667
-1059.08
-0.35678
-1492.45
-1829.93
-72.2592
501.802
-77.7207
590.414
-78.2157
665.313
-74.2199
718.284
-64.1731
750.817
-49.6248
744.165
-33.9836
743.983
-20.2101
831.033
-3.21131
1035.27
8.88842
945.281
8.66565
474.362
22.1085
273.092
28.4368
60.4235
31.531
149.877
37.4116
216.448
68.2296
53.1868
138.77
-287.144
182.279
-610.669
194.1
-715.587
192.256
-689.686
186.291
-582.695
186.203
-521.261
189.179
-448.74
183.172
-289.493
171.8
-137.134
145.966
-108.748
114.34
-130.69
77.3384
-172.63
47.1551
-341.091
4.75893
-308.706
-10.2875
1040.84
1.01825
2478.79
22.2117
2960.22
34.5831
2247.3
46.7579
1655.93
56.4049
1157.69
64.3379
759.422
71.247
433.881
78.1482
315.023
98.3658
-27.3332
101.393
-434.98
99.5774
-670.466
97.7639
-765.867
93.3421
-781.98
82.578
-811.597
78.1389
-821.618
78.3093
-815.233
75.5759
-782.323
68.2637
-717.672
47.7873
-722.92
7.36003
-881.987
-34.156
-1177.96
-30.919
-1118.29
-8.93779
-7.75139
-5.62455
1298.3
15.0448
3326.29
15.6304
5188.28
-39.4926
770.028
-75.4182
-151.413
-81.0978
132.762
-87.7838
276.348
-82.2902
449.3
-68.4451
516.452
-65.9183
502.372
-61.4161
587.571
-55.5573
643.737
-50.604
666.228
-46.4991
667.981
-46.6636
644.942
-62.0755
634.525
-91.0551
732.479
-120.307
918.299
-127.005
1084.42
-105.787
1060.75
-52.447
681.582
3.61922
-13.0163
2.07656
-1059.02
0.753806
-1492.18
-1826.45
-75.0647
508.255
-80.2568
595.494
-80.3402
665.35
-75.7584
713.49
-65.0484
739.989
-49.9677
728.842
-33.9317
727.718
-19.5506
816.386
-1.92984
1017.44
10.9003
932.216
10.7321
473.626
23.4843
258.814
29.1815
52.4482
31.611
145.551
41.8629
203.545
81.1719
8.65843
150.661
-359.293
184.783
-646.693
190.607
-723.231
185.728
-686.625
178.909
-577.855
178.82
-522.65
181.487
-453.297
176
-286.104
164.86
-127.589
141.145
-86.2353
112.081
-102.666
76.031
-136.908
46.9243
-312.246
3.98914
-265.668
-9.83916
1054.65
1.00307
2467.93
21.4092
2939.88
33.8725
2235.09
46.337
1643.82
56.5201
1148.34
65.1095
752.232
72.785
429.039
81.6742
311.392
101.737
-42.7842
105.834
-436.103
104.996
-667.237
103.162
-761.849
99.5719
-776.602
89.6218
-800.27
84.426
-815.33
83.5937
-813.36
80.7783
-778.668
73.8133
-709.832
54.1949
-702.679
13.9615
-841.506
-31.7682
-1132.51
-34.3073
-1116.44
-8.73283
-38.5047
-6.2337
1295.5
12.7127
3307.26
13.9622
5187.08
-34.3605
817.759
-66.3012
-122.795
-68.7494
133.921
-78.3389
284.783
-73.083
443.291
-60.97
504.077
-60.0328
501.086
-57.0171
584.497
-52.3131
639.313
-48.3702
662.509
-45.3834
665.647
-48.2252
648.49
-67.5618
655.055
-98.5961
764.373
-125.535
946.022
-129.141
1088.63
-104.683
1036.82
-51.9424
629.082
5.5099
-66.959
0.133605
-1052.81
-1.95243
-1489.07
-1831.29
-77.9979
514.914
-82.9122
600.724
-82.5607
665.623
-77.3734
708.99
-65.9975
729.639
-50.3979
714.386
-33.9378
712.608
-18.8482
802.607
-0.498945
1000.15
13.1694
919.619
13.056
475.185
25.0285
248.844
29.8564
50.2884
30.7587
147.107
47.7638
189.221
97.5933
-40.0115
159.979
-421.485
185.057
-671.633
185.758
-723.747
178.516
-679.177
171.311
-570.617
171.198
-522.482
173.21
-455.953
167.97
-281.91
157.31
-118.267
135.769
-66.4385
108.838
-78.4941
74.3728
-106.387
46.6039
-287.429
3.0834
-226.086
-9.65166
1066.51
0.789143
2457.03
20.5699
2919.69
33.2347
2221.76
46.0175
1629.72
56.7241
1136.04
65.8938
740.923
74.3249
417.584
85.0353
296.082
105.15
-63.0978
110.219
-441.262
110.461
-667.791
108.89
-760.852
106.056
-774.637
96.9455
-791.958
91.0417
-810.212
89.2822
-812.169
86.2718
-776.232
79.4631
-703.648
60.646
-684.535
20.9878
-802.679
-28.442
-1084.08
-36.1508
-1108.7
-9.02556
-65.3289
-6.96735
1293.69
10.4632
3289.87
12.5444
5185.22
-16.8071
848.648
-43.765
-86.8343
-57.1803
152.057
-68.959
301.307
-64.351
443.179
-54.1433
498.174
-54.5656
505.72
-52.7106
586.682
-49.0011
639.292
-46.2282
662.489
-45.0776
666.504
-51.629
655.466
-74.7348
677.897
-106.676
795.465
-130.593
968.96
-130.574
1087.57
-102.823
1007.67
-55.7283
579.241
2.36073
-134.827
-2.28003
-1049.95
-5.58804
-1486.9
-1836.29
-81.0487
521.47
-85.6721
605.175
-84.8589
664.682
-79.0474
702.851
-67.0062
717.351
-50.9027
697.881
-33.9945
695.306
-18.1134
786.3
1.05863
980.637
15.701
904.598
15.7751
473.995
26.919
235.801
30.3312
44.244
31.2
144
55.7731
160.974
112.744
-101.193
166.341
-477.495
183.585
-690.693
180.15
-722.133
171.167
-672.022
163.754
-565.228
163.307
-523.45
164.223
-458.876
159.24
-278.794
149.454
-109.722
129.867
-47.4257
104.718
-53.5389
71.6632
-73.0096
44.3204
-260.151
1.74274
-183.017
-9.7182
1078.08
0.372685
2446.99
19.6708
2900.53
32.6397
2209.18
45.7868
1617.12
57.0253
1125.9
66.7485
732.968
75.7707
411.898
88.0971
289.939
108.644
-79.4481
114.426
-444.378
115.687
-666.854
114.86
-757.993
112.635
-770.722
104.389
-782.318
97.946
-802.714
95.346
-808.594
92.0531
-772.167
85.2152
-696.052
67.0891
-665.902
28.3346
-763.734
-24.222
-1031.81
-37.4572
-1096.08
-9.62345
-97.4859
-7.94422
1291.7
8.30492
3273.5
11.1446
5182.41
-4.50147
863.359
-25.5591
-71.3374
-47
171.244
-60.1881
312.395
-56.3384
437.769
-48.1817
489.006
-49.8556
506.309
-48.9505
585.047
-46.282
636.341
-45.0292
661.016
-46.5224
668.416
-57.3544
666.952
-83.423
705.3
-114.99
828.108
-135.263
990.286
-131.129
1084.34
-100.537
977.939
-59.6632
539.366
-6.43307
-181.363
-4.7783
-1050.36
-5.4342
-1485.07
-1832.29
-84.2423
528.203
-88.5567
609.751
-87.2526
663.932
-80.7972
696.982
-68.09
705.568
-51.4917
682.307
-34.1119
679.17
-17.3661
770.777
2.70774
961.552
18.4583
889.821
18.8753
474.786
29.2028
227.034
31.2317
44.1097
34.731
142.3
66.0739
130.876
125.352
-160.661
170.58
-522.858
181.092
-701.266
174.458
-715.548
164.38
-662.053
156.995
-558.153
156.268
-522.958
155.666
-459.485
150.422
-274.988
141.39
-102.109
123.462
-30.9919
99.97
-32.0914
67.2418
-44.7413
39.7507
-235.834
0.0138078
-147.803
-10.0058
1087.43
-0.238507
2436.81
18.7156
2881.21
32.0942
2195.25
45.639
1602.41
57.4206
1112.78
67.6357
721.013
77.095
400.138
91.153
273.056
112.307
-100.417
118.843
-450.954
120.86
-669.133
120.837
-758.495
119.057
-769.778
111.666
-775.72
105.041
-796.91
101.798
-805.968
98.1389
-769.173
91.0941
-689.738
73.4924
-649.118
35.8995
-727.171
-19.1601
-977.937
-37.753
-1077.38
-10.5486
-124.667
-9.12829
1290.34
6.21555
3258.15
9.74584
5179.1
2.77703
871.833
-13.5821
-47.6769
-39.0374
201.3
-52.7196
330.632
-49.6649
439.047
-43.5399
486.954
-46.3941
513.075
-46.3663
588.904
-44.8909
638.491
-45.5222
664.382
-50.2335
675.196
-65.3956
682.564
-93.3281
733.086
-123.271
857.424
-139.382
1005.65
-130.845
1074.98
-97.7918
943.637
-59.3395
497.758
-11.8204
-234.614
-6.89012
-1056.95
-8.70524
-1484.34
-1841.78
-87.5674
534.811
-91.5499
613.524
-89.7227
661.931
-82.604
689.465
-69.2328
691.875
-52.1495
664.723
-34.2825
660.813
-16.6276
752.608
4.42137
940.101
21.4182
872.389
22.4541
472.578
32.0464
215.427
33.3712
40.164
39.9833
133.34
76.8701
88.4735
136.308
-223.46
173.51
-562.264
178.133
-707.66
169.181
-708.469
158.573
-653.329
151.149
-552.847
149.619
-522.82
147.152
-459.126
141.483
-271
133.126
-94.7591
116.649
-14.7178
94.7068
-9.91055
63.4783
-12.2357
35.3389
-207.622
-1.76107
-109.992
-10.5083
1096.33
-1.05069
2427.44
17.6879
2862.67
31.5753
2181.84
45.5687
1589.1
57.922
1101.71
68.6677
712.274
78.1058
394.261
93.9719
264.955
116.097
-118.706
123.704
-456.179
126.315
-669.731
126.81
-757.093
125.3
-766.656
118.719
-767.736
112.263
-789.439
108.643
-801.455
104.507
-764.372
97.1085
-681.754
79.8277
-631.508
43.5649
-690.839
-13.2223
-921.515
-37.5056
-1053.66
-11.3101
-154.553
-10.3571
1289.06
4.17763
3243.46
8.53673
5174.73
6.72444
872.328
-6.66076
-41.2534
-33.7388
225.21
-47.2572
341.291
-45.1691
434.739
-40.9997
481.167
-44.9364
515.39
-45.8454
588.574
-45.7109
637.644
-48.4214
666.549
-56.5189
683.583
-75.4621
702.183
-103.987
763.141
-131.233
886.014
-142.783
1018.57
-129.757
1063.22
-94.7928
909.991
-59.3746
464.259
-15.0194
-271.545
-8.38773
-1061.82
-6.888
-1484.46
-1837.4
-91.0478
541.566
-94.6694
617.387
-92.2844
660.082
-84.4826
682.215
-70.4486
678.744
-52.887
648.164
-34.5202
643.695
-15.927
735.265
6.16089
919.049
24.5236
855.036
26.4426
471.867
35.4342
207.892
36.7362
40.4849
47.5348
124.164
88.7894
46.8349
146.294
-281.439
175.352
-591.587
175.011
-707.488
164.733
-698.433
154.154
-643.154
146.676
-546.008
143.972
-520.612
139.356
-456.256
132.821
-266.258
124.821
-88.2839
109.538
-0.839784
88.469
9.46774
62.0202
9.42004
33.5978
-182.95
-2.95501
-78.4144
-11.1844
1104.03
-2.0554
2417.89
16.5947
2843.66
31.0934
2166.85
45.5747
1573.52
58.5272
1087.54
69.7817
699.434
78.8769
383.037
97.2256
245.13
120.1
-141.318
128.749
-464.974
131.883
-673.198
132.723
-758.501
131.476
-766.286
125.74
-762.855
119.623
-784.255
115.807
-798.394
111.15
-760.575
103.288
-674.862
86.1323
-615.452
51.2085
-657.258
-6.4619
-865.284
-36.2729
-1023.69
-11.9935
-178.865
-11.6661
1288.65
2.17162
3229.58
7.45565
5169.67
6.66687
874.598
-6.23275
-22.2583
-31.9838
255.295
-44.4695
358.207
-43.5229
438.088
-41.275
482.927
-46.1871
524.163
-48.0229
594.319
-49.257
642.59
-54.0499
674.199
-65.2846
697.07
-87.068
724.577
-114.975
791.125
-138.664
909.369
-145.384
1024.84
-127.921
1045.25
-91.4212
872.476
-58.2566
427.883
-16.4796
-316.2
-9.47071
-1070.18
-7.70586
-1487.22
-1844.5
-94.6694
548.146
-97.895
620.373
-94.9146
656.892
-86.4104
673.253
-71.7188
663.67
-53.6897
629.548
-34.8199
624.249
-15.2877
715.13
7.89133
895.398
27.7389
834.686
30.8822
467.509
39.5466
197.187
41.3306
36.2542
57.2205
105.74
102.279
-3.70596
155.471
-337.331
176.31
-614.408
172.072
-704.951
161.33
-689.551
151.031
-634.689
143.082
-540.129
138.505
-517.281
131.602
-451.345
124.193
-260.26
116.43
-81.2916
102.274
13.407
82.1294
30.1643
61.3491
32.6101
32.3169
-153.409
-3.90654
-41.0617
-12.038
1112.35
-3.26104
2409.25
15.4238
2825.23
30.6259
2152.2
45.658
1559.27
59.2541
1075.33
71.0756
689.695
79.5188
378.315
101.352
232.708
124.394
-160.9
133.849
-472.309
137.397
-674.914
138.667
-758.016
137.744
-763.833
132.851
-756.553
127.153
-777.551
123.198
-793.582
118.062
-754.809
109.666
-665.943
92.4581
-597.958
58.7189
-623.429
0.888279
-807.819
-34.3406
-988.902
-12.4266
-203.767
-13.1064
1289.05
0.223107
3216.06
6.33636
5163.5
3.70782
875.528
-10.6552
-15.3864
-33.9846
274.683
-45.0317
365.643
-45.4344
435.577
-45.0287
480.271
-50.661
527.625
-53.2901
595.167
-55.7711
643.878
-62.4389
679.942
-76.2325
710.96
-99.6696
748.618
-125.866
818.942
-145.34
930.334
-147.07
1028.16
-125.357
1025.09
-87.7953
836.722
-57.0861
400.23
-17.1198
-348.905
-10.099
-1075.03
-10.08
-1485.68
-1848.69
-98.4536
554.817
-101.242
623.388
-97.6263
653.803
-88.4011
664.556
-73.0582
649.22
-54.5732
612.052
-35.2018
606.142
-14.7397
695.953
9.56518
872.178
30.9983
814.311
35.6741
464.099
44.2523
190.076
46.9016
35.1501
67.7004
86.4076
115.631
-51.9459
162.821
-384.958
176.418
-628.312
169.572
-698.347
158.992
-679.371
148.939
-625.265
140.33
-532.429
133.755
-511.394
124.49
-444.171
115.902
-253.635
108.083
-75.0223
94.8683
25.3231
76.1268
47.4318
60.072
44.9892
31.3006
-128.9
-4.67388
-10.935
-13.0393
1120.26
-4.66362
2400.43
14.1835
2806.03
30.1832
2135.75
45.8202
1542.6
60.1018
1059.94
72.5098
675.825
80.1074
368.413
106.517
205.818
129.022
-183.182
139.086
-482.643
142.951
-679.178
144.646
-760.3
144.071
-764.132
140.004
-753.354
134.821
-773.373
130.826
-790.447
125.414
-750.425
116.469
-658.204
98.9908
-581.863
66.0615
-592.156
8.34034
-751.814
-32.2401
-948.144
-13.1643
-222.917
-14.4659
1290.11
-1.65755
3203.16
4.97582
5157.06
-1.73755
883.436
-19.0219
6.44452
-39.7737
299.03
-49.2661
379.152
-51.2081
441.541
-52.5936
485.412
-58.5136
537.208
-61.6394
602.055
-65.1373
651.022
-73.3126
690.971
-88.831
728.851
-112.654
773.223
-136.326
842.973
-151.131
945.16
-147.811
1024.76
-122.095
999.323
-83.7237
797.834
-55.3243
369.142
-16.9955
-388.075
-10.0525
-1082.81
-6.92326
-1489.61
-1843.71
-102.383
561.237
-104.686
625.43
-100.394
649.282
-90.4304
654.097
-74.4474
632.82
-55.5241
592.483
-35.6627
585.647
-14.3028
673.928
11.142
846.209
34.2387
790.683
40.7993
456.328
49.5605
179.345
53.3632
29.0857
78.6943
58.4064
128.07
-105.189
168.251
-427.346
176.008
-637.905
167.666
-691.701
157.36
-670.972
147.084
-616.824
137.406
-524.839
128.527
-503.655
117.032
-434.54
107.454
-245.232
99.6242
-67.8127
87.2295
37.9762
70.1243
65.2344
57.5616
60.5294
29.2916
-100.099
-5.12057
25.8037
-14.2085
1129.52
-6.27478
2392.65
12.8635
2787.17
29.7438
2119.48
46.0659
1527.13
61.0919
1046.39
74.1849
664.867
81.4165
365.092
111.621
184.721
133.865
-202.264
144.475
-491.354
148.565
-681.59
150.58
-760.675
150.367
-762.443
147.153
-748.71
142.664
-767.871
138.772
-785.725
133.251
-744.32
123.754
-648.286
105.75
-563.676
73.2716
-559.667
15.8608
-694.907
-30.3451
-902.336
-14.1034
-241.847
-15.6333
1291.33
-3.43513
3190.72
3.38403
5150.12
-8.68925
893.397
-29.5809
19.4162
-48.9099
313.756
-57.4067
383.381
-60.9411
441.554
-63.8999
485.575
-69.6385
540.307
-72.9494
603.122
-77.1549
653.616
-86.3312
698.876
-102.601
745.046
-125.511
796.649
-145.951
865.103
-155.839
956.684
-147.525
1018.28
-118.206
971.869
-79.5277
761.528
-53.4209
347.649
-16.1927
-418.258
-9.47851
-1086.95
-6.84419
-1490.44
-1846.88
-106.476
567.667
-108.239
627.427
-103.227
644.826
-92.5112
643.934
-75.9021
617.157
-56.5621
574.193
-36.2285
566.678
-14.0068
653.112
12.572
820.842
37.3763
767.08
46.1292
449.051
55.3037
171.86
60.7869
25.4161
90.1863
30.3731
139.006
-154.251
172.125
-460.723
175.375
-641.422
166.243
-682.851
155.827
-661.09
144.704
-606.49
134.132
-515.431
123.421
-493.797
109.78
-423.223
99.0747
-236.567
91.089
-61.4149
79.3658
48.4315
63.8424
79.3099
54.1544
67.418
26.057
-77.251
-4.05607
48.7681
-15.5332
1140.39
-8.09283
2384.67
11.4714
2767.22
29.3207
2101.2
46.3978
1509.03
62.223
1029.47
76.0741
649.554
83.6868
354.728
116.274
151.757
138.854
-224.787
149.995
-502.965
154.261
-686.392
156.509
-763.589
156.648
-763.5
154.283
-747.269
150.638
-765.34
147.023
-783.13
141.432
-739.998
131.374
-639.776
112.75
-546.86
80.4899
-529.543
23.7899
-640.386
-27.7526
-850.759
-15.4866
-254.448
-17.0613
1292.43
-5.06835
3178.57
1.61302