/*--------------------------------*- C++ -*----------------------------------*\
| =========                 |                                                 |
| \\      /  F ield         | OpenFOAM: The Open Source CFD Toolbox           |
|  \\    /   O peration     | Version:  4.1                                   |
|   \\  /    A nd           | Web:      www.OpenFOAM.org                      |
|    \\/     M anipulation  |                                                 |
\*---------------------------------------------------------------------------*/
FoamFile
{
    version     2.0;
    format      ascii;
    class       volScalarField;
    location    "21";
    object      p;
}
// * * * * * * * * * * * * * * * * * * * * * * * * * * * * * * * * * * * * * //

dimensions      [0 2 -2 0 0 0 0];

internalField   nonuniform List<scalar> 
6785
(
8094.4
8027.81
7976.75
7926.64
7880.27
7836.7
7795.78
7757.27
7720.97
7686.37
7652.99
7622.25
7594.55
7561.42
7527.18
7543.05
7524.89
7528.49
7523.58
7520.34
7516.88
7513.94
7511.66
7510.27
7509.87
7510.36
7512.14
7515.99
7519.48
7520.13
7493.65
7487.6
7497.29
7495.88
7499.05
7500.82
7502.84
7504.64
7506.27
7507.71
7508.9
7509.73
7510.03
7510.85
7512.68
7541.09
7538.93
7543.99
7540.15
7541.12
7539.67
7538.76
7537.65
7536.56
7535.53
7534.6
7533.86
7533.58
7534.38
7536.8
7553.04
7552.06
7555.75
7552.92
7555.35
7555.1
7555.9
7556.59
7557.38
7558.27
7559.24
7560.34
7561.73
7563.09
7564.63
7561.8
7561.63
7564.44
7562.67
7565.19
7565.03
7566.16
7566.77
7567.45
7567.95
7568.27
7568.46
7568.79
7569.16
7569.49
7567.49
7566.76
7568.6
7566.57
7568.15
7567.1
7567.5
7567.12
7566.97
7566.56
7566.03
7565.45
7564.99
7564.63
7563.95
7561.17
7559.53
7560.4
7558.17
7558.94
7557.46
7557.46
7556.65
7556.23
7555.54
7554.87
7554.22
7553.51
7552.63
7551.43
7544.79
7542.95
7543.14
7541.06
7541.27
7539.57
7539.17
7538.01
7537.27
7536.45
7535.85
7535.31
7534.53
7533.77
7533.51
7530.75
7529.73
7530.03
7528.49
7528.75
7527.41
7527.12
7526.24
7525.67
7525.13
7524.78
7524.57
7524.38
7524.49
7525.35
7528.76
7528.96
7529.64
7528.84
7529.47
7528.88
7529.04
7528.84
7528.78
7528.75
7528.83
7528.98
7529.31
7529.7
7530.66
7534.93
7536.05
7536.86
7536.69
7537.6
7537.6
7538.14
7538.43
7538.79
7539.17
7539.58
7539.99
7540.52
7540.95
7541.71
7546.99
7548.06
7548.47
7548.11
7548.59
7548.36
7548.52
7548.59
7548.74
7548.98
7549.31
7549.67
7550.2
7550.6
7551.34
7553.88
7556.65
7557.26
7557.48
7558.33
7558.67
7559.37
7559.91
7560.49
7560.95
7561.26
7561.37
7561.44
7561.54
7561.67
7601.43
7597.29
7590.88
7584.15
7578.01
7572.06
7566.88
7562.55
7558.85
7555.74
7552.91
7551.55
7551.29
7551.13
7551.68
7633.08
7633.04
7633.09
7633.09
7633.1
7633.04
7633.11
7633.1
7633.12
7633.11
7633.09
7633.1
7633.1
7633.09
7633.1
7633.11
7633.19
7633.08
7633.14
7633.14
7633.13
7633.13
7633.16
7633.18
7633.16
7633.17
7633.2
7633.23
7633.16
7633.25
7633.12
7633.22
7633.24
7633.3
7633.28
7633.27
7633.37
7633.27
7633.36
7633.38
7633.43
7633.41
7633.42
7633.42
7633.44
7633.41
7633.34
7633.37
7633.29
7633.23
7633.24
7633.23
7633.16
7633.24
7633.26
7633.3
7633.25
7633.37
7633.41
7633.35
7633.51
7633.44
7633.53
7633.31
7633.36
7633.46
7633.36
7632.18
7631.61
7632.06
7631.27
7626.22
7624.75
7625.86
7622.2
7610.89
7615.76
7609.87
7584.52
7592.16
7595.67
7594.41
7593.53
7587.1
7580.59
7583.29
7583.02
7582.9
7582.43
7582.91
7584.47
7583.94
7577.6
7570.38
7571.48
7572.01
7572.87
7573.36
7573.97
7574.75
7574.39
7566.05
7560.41
7561.51
7561.41
7562.3
7564.25
7565.29
7565.49
7566.1
7565.43
7554.08
7552.55
7553.06
7552.9
7552.67
7553.98
7555.75
7556.37
7554.73
7534.73
7541.18
7543
7543.88
7543.65
7543.12
7542.34
7544.44
7544.21
7521.53
7533.73
7532.58
7534.13
7535.4
7535.19
7534.99
7535.45
7533.48
7510.24
7530.59
7529.07
7528.94
7528.16
7529.2
7529.5
7529.13
7530.26
7528.33
7497.06
7524.29
7522.31
7523.42
7524.87
7523.01
7515.23
7514.31
7518.66
7487.62
7515.98
7504.49
7498.37
7523.88
7448.61
7461.99
7426.19
7475.28
7498.93
7412.88
7480.98
7516.09
7466.79
7502.04
7499.08
7547.48
7584.17
7580.68
7618.56
7630.01
7666.17
7681.54
7697.68
7705.27
7689.56
7705.57
7696.16
7662.56
7665.4
7630.81
7668.46
7621.31
7564.62
7578.85
7542.19
7619.43
7572.74
7486.32
7600.69
7559.93
7496.31
7531.47
7510.37
7607.01
7563.82
7514.08
7548.3
7538.22
7609.18
7579.42
7535.04
7607.88
7542.05
7513.72
7478.81
7435.41
7501.4
7425.17
7350.63
7392.9
7368.35
7529.71
7595.9
7545.31
7815.3
7943.39
7935.61
8117.14
8101.89
8617.56
8977.44
8337.51
9934.59
10394.7
5996.63
9263.69
12586.5
842.249
-814.113
-9703.96
-8052.53
11343.5
0.144406
0.317801
0.397126
0.499194
0.606244
0.719083
0.832386
0.948563
1.05579
1.15263
1.23598
1.33438
1.48891
1.70885
1.98256
2.29405
2.61191
2.91328
3.22305
3.50072
3.68841
3.87858
4.22613
4.75464
5.3531
5.91319
6.44258
6.92245
7.45001
8.13049
8.90525
9.72021
10.6251
11.6277
12.7234
13.9098
15.1967
16.6178
18.2037
19.929
21.7084
23.4416
25.0593
26.5496
27.9261
29.2212
30.4702
31.6351
32.5628
32.9339
32.1958
29.4584
23.2872
12.1074
-0.570362
-2.21791
1.88454
5.38691
7.90927
8.79755
9.95036
10.7089
10.7389
10.1842
9.35615
9.50131
11.3561
14.5647
19.651
27.7198
40.9374
63.3452
102.298
173.729
306.203
564.609
1028.2
1374.44
1757.87
0.351926
0.794275
1.12223
1.45452
1.78221
2.10884
2.4237
2.73216
3.02999
3.3435
3.67447
4.05744
4.54508
5.17193
5.93572
6.79098
7.6462
8.43318
9.19577
9.83563
10.3013
10.8453
11.7498
13.007
14.4243
15.9037
17.5072
19.0628
20.7337
22.6673
24.7591
26.8875
29.1859
31.6551
34.2653
36.992
39.8547
42.9236
46.2781
49.9247
53.7442
57.5947
61.4257
65.3415
69.4565
73.807
78.2882
82.5286
85.9182
87.5788
86.2382
79.9664
66.1925
43.3335
19.1743
14.3016
15.6604
18.9037
23.6856
24.6891
26.1103
27.3437
27.9206
27.5593
26.419
25.8299
27.2037
29.6706
32.8862
36.5562
40.7358
45.2386
48.6421
49.2402
36.0928
15.2106
-49.2679
-460.457
5378.38
0.548569
1.24523
1.84227
2.40481
2.95901
3.50949
4.04302
4.57192
5.08583
5.62395
6.19037
6.85072
7.69249
8.76674
10.0632
11.5074
12.9608
14.3231
15.6716
16.845
17.758
18.8173
20.4808
22.7045
25.1531
27.6669
30.3252
32.8583
35.6963
38.9816
42.5247
46.1614
50.1301
54.4185
58.9883
63.8193
68.9564
74.5285
80.628
87.2282
94.1044
101.022
107.9
114.885
122.116
129.62
137.215
144.312
149.97
152.73
150.375
139.45
115.121
73.668
27.3952
14.7568
22.2578
32.4788
41.2183
42.9547
45.6796
47.5204
47.7
46.4424
45.0451
45.6046
49.5075
55.4691
63.1567
72.4154
83.8049
97.8777
113.78
131.876
142.155
178.563
290.358
235.823
9593.06
0.716815
1.64726
2.5201
3.3161
4.09701
4.8657
5.60747
6.34402
7.0697
7.8433
8.66995
9.62554
10.8145
12.3097
14.1063
16.1084
18.1342
20.0443
21.9318
23.5878
24.9105
26.4287
28.7329
31.7648
35.115
38.6022
42.3139
45.8741
49.8914
54.4935
59.4213
64.4889
70.0053
75.9506
82.2772
88.9576
96.0501
103.717
112.067
121.083
130.489
140.002
149.551
159.353
169.592
180.276
191.103
201.235
209.352
213.439
210.467
195.783
163.003
107.386
44.7259
25.107
34.5514
47.3128
59.0801
61.5748
65.0555
67.3572
67.4925
65.6584
64.1198
65.8809
72.4807
82.8309
96.8457
115.173
140.083
175.221
224.939
301.041
416.538
671.618
1308.18
2124.37
10714.6
0.875928
2.02978
3.17713
4.2024
5.20611
6.1858
7.1286
8.0709
9.01769
10.0428
11.1462
12.4095
13.9524
15.8685
18.1588
20.7105
23.3075
25.773
28.2103
30.3696
32.1344
34.1413
37.0992
40.9403
45.1939
49.6548
54.3902
58.958
64.1551
70.0875
76.3979
82.9078
89.9813
97.594
105.696
114.256
123.348
133.161
143.815
155.298
167.29
179.471
191.785
204.505
217.834
231.744
245.812
258.982
269.59
275.1
271.698
253.569
212.825
143.558
64.2206
35.8778
47.1387
62.897
78.1692
81.7978
86.2136
88.9747
88.8439
86.3066
84.8117
87.9276
97.0061
111.214
130.61
156.404
192.097
243.512
318.621
437.56
633.107
1052.27
2056.56
3367.13
9374.57
1.02384
2.39035
3.80837
5.05876
6.27979
7.46154
8.59828
9.746
10.924
12.215
13.6094
15.1898
17.0872
19.4163
22.187
25.2745
28.4338
31.4495
34.4252
37.0772
39.2815
41.7661
45.3388
49.9328
55.0461
60.4571
66.1927
71.7812
78.1585
85.4219
93.092
101.021
109.609
118.834
128.647
139.01
150.006
161.839
174.639
188.42
202.834
217.549
232.532
248.117
264.523
281.679
299.037
315.326
328.541
335.653
332.132
311.144
263.53
182.465
88.2965
50.7695
62.4123
79.7647
98.1553
103.087
108.338
111.535
111.198
108.071
106.891
111.845
123.908
142.533
167.844
201.521
248.079
315.117
413.653
571.516
840.628
1399.18
2658.73
4389.09
8823.33
1.16397
2.73606
4.41866
5.88702
7.3171
8.691
10.0166
11.3739
12.7965
14.367
16.063
17.9683
20.224
22.9636
26.2066
29.8198
33.5351
37.0989
40.6075
43.7486
46.3979
49.3634
53.538
58.86
64.8115
71.1569
77.8633
84.4709
92.0258
100.621
109.637
118.972
129.047
139.853
151.344
163.474
176.332
190.129
205.009
221.015
237.785
254.99
272.629
291.085
310.589
331.014
351.688
371.14
387.051
395.935
392.605
369.296
315.711
224.132
116.05
68.3796
79.4062
97.8482
119.312
125.828
131.982
135.632
135.029
131.36
130.652
137.676
153.041
176.607
208.615
251.296
310.325
395.454
521.864
727.495
1088.14
1811.33
3324.57
5381.74
7629.04
1.29758
3.06906
5.00814
6.68532
8.31433
9.87105
11.3842
12.9599
14.6415
16.5023
18.5064
20.7414
23.3574
26.5052
30.2133
34.3431
38.6081
42.7156
46.7467
50.3662
53.458
56.9001
61.6554
67.6743
74.4376
81.6969
89.3502
96.9798
105.713
115.632
125.977
136.701
148.227
160.574
173.7
187.546
202.205
217.886
234.753
252.883
271.917
291.54
311.79
333.097
355.691
379.392
403.406
426.076
444.788
455.639
452.845
427.815
369.246
268.593
147.829
89.3752
98.6193
117.394
141.6
149.908
156.996
161.123
160.265
156.231
156.265
165.649
184.612
213.472
252.611
304.867
377.186
481.919
639.662
900.617
1366.99
2265.79
3983.62
6235.27
7029.6
1.42642
3.39146
5.57727
7.45163
9.26826
11.0005
12.7049
14.512
16.4659
18.6243
20.9399
23.5073
26.4857
30.0414
34.2098
38.8492
43.6579
48.3039
52.8457
56.9313
60.4618
64.3788
69.699
76.3925
83.9466
92.0998
100.676
109.328
119.243
130.467
142.126
154.221
167.165
181.018
195.739
211.259
227.665
245.164
263.943
284.117
305.344
327.332
350.163
374.304
399.982
426.957
454.324
480.252
501.865
514.883
512.989
486.85
424.272
315.898
183.569
113.696
119.965
138.508
165.127
175.456
183.565
188.217
187.077
182.857
183.9
195.913
218.836
253.407
300.128
362.449
448.715
574.356
766.576
1089.2
1669.2
2735.41
4590.16
6953.9
6692.46
1.55156
3.70429
6.12441
8.1827
10.1758
12.0804
13.9854
16.0387
18.2757
20.7351
23.3636
26.264
29.6058
33.5696
38.1955
43.3391
48.6859
53.8637
58.9015
63.4374
67.4001
71.788
77.6576
85.0045
93.3309
102.356
111.834
121.512
132.611
145.116
158.068
171.514
185.844
201.167
217.445
234.593
252.693
271.943
292.559
314.699
338.05
362.35
387.724
414.673
443.414
473.648
504.367
533.589
558.205
573.601
572.987
546.376
480.782
366.061
223.385
141.645
143.658
161.384
189.937
202.461
211.678
216.913
215.489
211.325
213.72
228.595
255.84
296.547
351.349
424.37
525.618
674.323
905.606
1297.78
1997.53
3218.08
5152.78
7534.02
6900.51
1.67398
4.00824
6.64705
8.87526
11.0353
13.1142
15.2342
17.5484
20.075
22.8355
25.7768
29.01
32.7157
37.0878
42.1703
47.8144
53.694
59.3953
64.9119
69.88
74.2666
79.1201
85.5275
93.5102
102.595
112.467
122.825
133.535
145.822
159.576
173.797
188.572
204.258
221.02
238.818
257.552
277.292
298.231
320.619
344.655
370.069
396.632
424.514
454.239
486.01
519.475
553.535
586.076
613.791
631.779
632.839
606.406
538.796
419.094
267.338
173.456
169.851
186.211
216.131
230.979
241.401
247.281
245.573
241.695
245.828
263.808
295.734
342.977
406.347
490.799
608.435
783.185
1059.38
1529.76
2352.74
3709.12
5647
7795.33
7695.91
1.79374
4.30304
7.14219
9.52638
11.8474
14.1085
16.4605
19.0472
21.8663
24.926
28.179
31.7442
35.8138
40.5945
46.1331
52.2761
58.683
64.8979
70.8735
76.2534
81.0538
86.3677
93.302
101.905
111.737
122.427
133.648
145.394
158.873
173.845
189.307
205.384
222.401
240.571
259.853
280.13
301.46
324.028
348.124
373.993
401.413
430.191
460.54
493.001
527.759
564.413
601.788
637.664
668.571
689.37
692.502
666.908
598.29
474.98
315.503
209.443
198.813
213.221
243.828
261.036
272.742
279.33
277.384
274.016
280.282
301.641
338.603
392.79
465.266
562.068
697.935
902.468
1230.15
1786.65
2731.26
4195.94
6067.81
7723.92
8178.15
1.90932
4.58727
7.60669
10.1343
12.6153
15.0716
17.6726
20.5393
23.6502
27.0066
30.5699
34.4656
38.8993
44.0889
50.083
56.7245
63.6532
70.3697
76.7823
82.5521
87.7551
93.5248
100.976
110.189
120.756
132.233
144.303
157.09
171.761
187.926
204.597
221.947
240.267
259.818
280.547
302.326
325.196
349.338
375.086
402.728
432.102
463.048
495.82
530.967
568.655
608.442
649.094
688.31
722.497
746.323
751.931
727.841
659.222
533.684
367.934
249.925
230.862
242.671
273.203
292.696
305.739
313.082
310.989
308.36
317.132
342.162
384.531
446.114
528.362
638.756
795.299
1034.18
1420.39
2069.2
3128.05
4664.33
6427.84
7545.06
8166.77
2.01758
4.85791
8.03731
10.6989
13.3446
16.0128
18.8766
22.0263
25.427
29.0773
32.9488
37.1736
41.9712
47.5704
54.0195
61.1597
68.6042
75.8083
82.6335
88.7708
94.3648
100.585
108.542
118.359
129.647
141.884
154.791
168.625
184.49
201.823
219.675
238.265
257.856
278.76
300.899
324.139
348.501
374.164
401.51
430.872
462.149
495.216
530.36
568.133
608.684
651.534
695.41
737.961
775.509
802.577
811.063
789.141
721.527
595.143
424.655
295.227
266.405
274.865
304.493
326.054
340.44
348.558
346.46
344.818
356.442
385.454
433.638
503.16
596.053
721.71
902.056
1180.6
1632.41
2377.12
3537.4
5102.47
6720.41
7414.21
8067.34
2.11377
5.1108
8.43131
11.2228
14.0425
16.9405
20.0766
23.5087
27.1964
31.1384
35.3154
39.8676
45.0291
51.0385
57.9429
65.5811
73.535
81.2101
88.4222
94.9046
100.878
107.544
115.998
126.413
138.405
151.38
165.118
180.009
197.062
215.537
234.548
254.343
275.172
297.395
320.907
345.57
371.377
398.512
427.406
458.437
491.569
526.705
564.164
604.495
647.826
693.658
740.695
786.566
827.548
858.065
869.824
850.728
785.116
659.268
485.659
345.654
305.921
310.152
338.011
361.27
376.949
385.817
383.898
383.503
398.303
431.64
486.124
564.281
668.983
812.076
1020.04
1344.12
1867.91
2708.61
3952.42
5503.95
6949.43
7352.8
7919.38
2.19246
5.34116
8.78763
11.7115
14.7177
17.8606
21.2739
24.9862
28.9585
33.1901
37.6694
42.5475
48.0726
54.4932
61.8532
69.9875
78.4437
86.5712
94.1432
100.95
107.292
114.396
123.34
134.35
147.031
160.724
175.291
191.248
209.478
229.068
249.219
270.184
292.218
315.722
340.572
366.617
393.825
422.387
452.781
485.434
520.37
557.522
597.232
640.042
686.062
734.78
784.903
834.069
878.549
912.714
928.134
912.507
849.88
725.94
550.893
401.471
349.949
348.947
374.154
398.583
415.435
424.981
423.465
424.587
442.867
480.936
542.321
630.027
748.063
911.313
1151.31
1527
2127.71
3060.29
4365.18
5863.64
7121.79
7367.63
7796.13
2.25026
5.54406
9.1085
12.1735
15.3804
18.7764
22.4683
26.4582
30.7135
35.2326
40.011
45.2131
51.1018
57.9346
65.7508
74.3776
83.3282
91.8869
99.7918
106.902
113.603
121.139
130.566
142.169
155.522
169.919
185.316
202.345
221.735
242.413
263.69
285.787
308.991
333.74
359.894
387.283
415.847
445.792
477.642
511.871
548.561
587.67
629.56
674.761
723.366
774.864
827.989
880.416
928.45
966.448
985.903
974.37
915.687
795.013
620.262
462.884
399.063
391.74
413.411
438.332
456.155
466.248
465.397
468.334
490.384
533.686
602.744
701.183
834.491
1021.16
1298.1
1731.16
2411.57
3427.48
4767.65
6179.08
7244.06
7439.01
7696.19
2.28783
5.71549
9.39952
12.619
16.0399
19.6902
23.6586
27.9248
32.4619
37.266
42.3399
47.8643
54.1167
61.3634
69.6361
78.7507
88.1858
97.1523
105.363
112.759
119.809
127.769
137.673
149.868
163.881
178.971
195.198
213.299
233.829
255.574
277.955
301.15
325.489
351.449
378.872
407.567
437.448
468.734
501.996
537.757
576.148
617.151
661.141
708.634
759.712
813.876
869.907
925.553
977.186
1019.19
1043.03
1036.2
982.387
866.308
693.616
530.02
453.839
439.097
456.356
480.97
499.464
509.91
510
515.111
541.231
590.405
668.124
778.801
929.741
1143.58
1462.57
1957.92
2718
3804.48
5152.77
6449.54
7316.85
7578.46
7646.22
2.31013
5.85273
9.66805
13.058
16.7027
20.6043
24.8433
29.3858
34.2037
39.29
44.656
50.5011
57.1176
64.7804
73.5099
83.1067
93.0127
102.362
110.851
118.516
125.909
134.285
144.663
157.448
172.11
187.882
204.943
224.108
245.754
268.551
292.014
316.269
341.71
368.848
397.508
427.472
458.629
491.217
525.848
563.095
603.132
645.96
691.966
741.645
795.074
851.781
910.616
969.43
1024.7
1070.87
1099.43
1097.86
1049.81
939.62
770.758
602.916
514.81
491.653
503.651
527.074
545.845
556.401
557.667
565.381
595.949
651.796
739.433
864.196
1035.53
1280.62
1646.65
2207.79
3044.26
4184.99
5514.03
6672.77
7341.35
7787.83
7609.66
2.32474
5.9546
9.92102
13.4975
17.3717
21.5192
26.0225
30.8411
35.939
41.304
46.9589
53.1235
60.1048
68.1867
77.3731
87.4454
97.8043
107.51
116.251
124.173
131.902
140.687
151.535
164.91
180.212
196.657
214.551
234.767
257.507
281.345
305.865
331.144
357.653
385.937
415.801
446.999
479.394
513.246
549.205
587.891
629.514
674.095
722.021
773.773
829.423
888.543
950.075
1012
1070.92
1121.4
1154.98
1159.22
1117.78
1014.72
851.438
681.507
582.431
550.095
556.034
577.348
595.919
606.323
608.947
619.731
655.26
718.778
817.887
958.933
1153.76
1434.3
1851.79
2480.25
3386.47
4562.56
5846.51
6853.96
7320.4
7877.04
7550.83
2.33902
6.02299
10.1631
13.9393
18.0469
22.4338
27.1974
32.2904
37.6672
43.3073
49.2482
55.7313
63.079
71.5838
81.2267
91.7655
102.556
112.591
121.557
129.725
137.785
146.973
158.292
172.257
188.189
205.298
224.024
245.271
269.083
293.95
319.504
345.769
373.316
402.717
433.752
466.15
499.746
534.824
572.069
612.147
655.293
701.546
751.294
804.998
862.734
924.133
988.249
1053.22
1115.8
1170.71
1209.6
1220.13
1186.09
1091.34
935.359
765.628
657.036
615.116
614.301
632.61
650.443
660.435
664.576
678.929
720.084
792.486
904.938
1064.78
1286.4
1606.43
2078.78
2773.68
3739.88
4931.04
6146.47
6999.2
7281
7773.57
7482.73
2.35743
6.06469
10.3967
14.3807
18.7248
23.3471
28.3693
33.7338
39.3873
45.2991
51.5233
58.3246
66.041
74.9736
85.0719
96.0656
107.262
117.598
126.764
135.17
143.557
153.144
164.936
179.492
196.046
213.809
233.36
255.615
280.476
306.36
332.923
360.141
388.698
419.186
451.362
484.927
519.689
555.956
594.445
635.862
680.465
728.305
779.77
835.298
894.982
958.52
1025.1
1093.04
1159.3
1218.73
1263.16
1280.44
1254.54
1169.2
1022.18
855.008
738.811
687.366
679.281
693.769
710.293
719.632
725.461
743.932
791.53
874.264
1002.24
1183.62
1435.34
1798.39
2327.54
3085.44
4099.15
5284.7
6411.05
7109.85
7258.83
7643.88
7434.15
2.38035
6.09132
10.6227
14.8164
19.4006
24.2587
29.5386
35.1716
41.0981
47.2784
53.7837
60.9036
68.992
78.3582
88.9093
100.343
111.918
122.524
131.866
140.508
149.218
159.2
171.469
186.62
203.784
222.193
242.56
265.796
291.682
318.567
346.113
374.253
403.794
435.344
468.632
503.332
539.225
576.644
616.333
659.035
705.023
754.363
807.431
864.653
926.142
991.682
1060.61
1131.45
1201.35
1265.39
1315.58
1340.01
1322.9
1248.01
1111.51
949.28
827.769
767.39
751.787
761.795
776.454
784.921
792.645
815.869
870.883
965.629
1111.57
1317.37
1602.25
2010.99
2597.06
3411.94
4458.61
5618.5
6640.02
7191.47
7259.36
7546.16
7400.22
2.40463
6.11561
10.8422
15.2418
20.0697
25.1683
30.7048
36.6042
42.7984
49.2441
56.0288
63.4686
71.9337
81.7398
92.7395
104.595
116.519
127.364
136.859
145.735
154.765
165.141
177.895
193.644
211.407
230.452
251.621
275.813
302.699
330.562
359.065
388.098
418.6
451.188
485.561
521.366
558.357
596.89
637.734
681.664
728.962
779.706
834.263
893.044
956.193
1023.6
1094.76
1168.41
1241.94
1310.64
1366.76
1398.68
1390.97
1327.44
1202.93
1047.99
923.746
855.572
832.558
837.658
849.979
857.405
867.288
896.007
959.57
1068.21
1234.78
1467.81
1788.41
2244.32
2885.38
3748.83
4812.59
5928.33
6835.09
7251.62
7271.23
7471.13
7381.19
2.42544
6.14688
11.0566
15.6551
20.7291
26.0747
31.868
38.031
44.4875
51.1948
58.258
66.0202
74.8682
85.121
96.5626
108.817
121.058
132.108
141.739
150.85
160.197
170.967
184.217
200.568
218.917
238.589
260.542
285.665
313.523
342.34
371.772
401.67
433.112
466.716
502.151
539.032
577.088
616.696
658.648
703.743
752.273
804.324
860.25
920.452
985.118
1054.24
1127.52
1203.9
1281.01
1354.4
1416.6
1456.32
1458.51
1407.17
1296
1150.59
1026.39
952.081
922.194
922.265
931.929
938.236
950.618
985.701
1059.1
1183.69
1373.61
1636.46
1994.54
2497.66
3189.65
4091.28
5155.72
6211.24
6998.64
7295.91
7288.74
7418.36
7374.87
2.43881
6.18948
11.2669
16.0578
21.3777
26.976
33.0278
39.4505
46.1648
53.1292
60.4709
68.5591
77.7983
88.5046
100.378
113.005
125.53
136.751
146.506
155.851
165.514
176.678
190.438
207.394
226.318
246.606
269.322
295.353
324.154
353.898
384.226
414.963
447.327
481.928
518.403
556.333
595.42
636.061
679.071
725.268
774.947
828.203
885.375
946.861
1012.9
1083.62
1158.89
1237.9
1318.55
1396.65
1465.02
1512.77
1525.3
1486.88
1390.25
1256.49
1135.18
1056.84
1021.08
1016.38
1023.3
1028.55
1043.88
1086.33
1170.96
1313.63
1529.59
1824.42
2220.75
2769.43
3506.28
4434.18
5483.2
6465.46
7133.48
7328.39
7311.94
7386.38
7378.01
2.44311
6.24425
11.4744
16.4531
22.0163
27.8704
34.1832
40.8614
47.8295
55.0462
62.6669
71.0868
80.7273
91.8935
104.185
117.154
129.927
141.287
151.156
160.738
170.714
182.275
196.561
214.126
233.61
254.505
277.962
304.874
334.592
365.235
396.42
427.973
461.242
496.824
534.32
573.27
613.354
654.985
699
746.231
796.974
851.33
909.625
972.256
1039.53
1111.71
1188.86
1270.42
1354.54
1437.32
1511.93
1567.9
1591.13
1566.22
1485.2
1365.02
1249.43
1169.51
1129.36
1120.54
1124.91
1129.38
1148.27
1199.2
1296.56
1459.43
1703.89
2032.25
2466.42
3057.31
3831.14
4772.46
5790.99
6690.44
7243.35
7352.33
7336.19
7368.98
7387.78
2.43877
6.31018
11.6807
16.8441
22.6468
28.7571
35.3326
42.2626
49.4802
56.945
64.8461
73.6052
83.6589
95.2907
107.983
121.257
134.242
145.711
155.69
165.509
175.798
187.762
202.59
220.765
240.796
262.286
286.462
314.229
344.836
376.348
408.35
440.698
474.858
511.405
549.903
589.845
630.889
673.468
718.433
766.624
818.343
873.692
932.985
996.626
1065.01
1138.52
1217.44
1301.44
1388.96
1476.39
1557.27
1621.59
1655.78
1644.89
1580.35
1475.49
1368.34
1289.5
1246.84
1234.99
1237.33
1241.58
1264.79
1325.45
1437.02
1622.08
1897.15
2259.85
2730.27
3358.31
4159.74
5101.28
6076.02
6886.72
7331.83
7369.11
7357.62
7363.98
7397.12
2.42732
6.38559
11.8871
17.234
23.2716
29.6361
36.4743
43.6531
51.115
58.825
67.0092
76.1166
86.5974
98.6993
111.768
125.312
138.471
150.02
160.109
170.167
180.768
193.142
208.529
227.311
247.876
269.951
294.821
323.418
354.885
387.234
420.013
453.135
488.174
525.671
565.153
606.059
648.029
691.507
737.362
786.441
839.043
895.277
955.443
1019.96
1089.32
1164.05
1244.63
1330.98
1421.81
1513.83
1600.98
1673.71
1719.05
1722.54
1675.23
1587.17
1490.98
1416
1373.06
1359.65
1360.81
1365.7
1394.22
1465.91
1593.15
1802.13
2109.37
2506.39
3010.25
3668.92
4487.48
5416.28
6336.14
7055.53
7402.58
7382.81
7364.33
7357.28
7399.45
2.41059
6.46885
12.0946
17.6249
23.8924
30.5083
37.6069
45.0315
52.7322
60.6859
69.1569
78.6241
89.5479
102.122
115.539
129.312
142.608
154.212
164.416
174.713
185.625
198.419
214.38
233.766
254.851
277.497
303.041
332.44
364.737
397.885
431.407
465.283
501.191
539.623
580.072
621.917
664.773
709.099
755.782
805.671
859.064
916.074
976.99
1042.26
1112.47
1188.31
1270.45
1359.05
1453.09
1549.63
1642.99
1724.17
1780.77
1798.89
1769.34
1699.32
1616.36
1548
1507.25
1494.06
1495.17
1501.94
1537.04
1621.07
1765.34
1999.56
2339.81
2770.22
3303.51
3985.18
4809.81
5713.74
6570.18
7198.91
7460.06
7396.88
7344.76
7350.5
7402.34
2.39017
6.55868
12.3038
18.0182
24.5108
31.3752
38.7298
46.3967
54.3305
62.527
71.2903
81.1311
92.5155
105.562
119.294
133.256
146.648
158.288
168.614
179.148
190.372
203.596
220.146
240.128
261.72
284.926
311.123
341.295
374.391
408.299
442.528
477.141
513.909
553.262
594.662
637.419
681.121
726.243
773.687
824.306
878.395
936.071
997.617
1063.52
1134.47
1211.31
1294.92
1385.66
1482.81
1583.77
1683.28
1772.86
1840.74
1873.63
1862.21
1811.21
1743.46
1684.35
1648.38
1637.45
1639.84
1650.04
1693.33
1791
1953.48
2213.75
2586.98
3048.88
3606.5
4302.76
5122.44
5990.72
6777.79
7319.12
7506.35
7415.9
7334.34
7353.55
7410.18
2.36705
6.65408
12.5148
18.4144
25.1283
32.2378
39.843
47.747
55.9086
64.3478
73.4112
83.642
95.5062
109.021
123.031
137.142
150.589
162.249
172.705
183.475
195.012
208.677
225.829
246.397
268.482
292.236
319.069
349.986
383.848
418.472
453.375
488.707
526.327
566.589
608.926
652.569
697.073
742.932
791.068
842.336
897.025
955.259
1017.32
1083.74
1155.32
1233.08
1318.06
1410.85
1511
1616.25
1721.8
1819.7
1898.82
1946.5
1953.41
1922.12
1871.23
1823.81
1795.22
1788.7
1793.87
1809.3
1862.73
1975.28
2156.95
2443.51
2848.68
3339.23
3915.24
4617.25
5421.48
6245.04
6959.4
7418.9
7544.15
7439.71
7338.77
7360.49
7422.15
2.34153
6.75422
12.7276
18.8136
25.7459
33.0968
40.9466
49.0815
57.4658
66.1481
75.521
86.1613
98.5264
112.5
126.748
140.968
154.429
166.097
176.694
187.696
199.547
213.665
231.429
252.571
275.136
299.428
326.879
358.514
393.106
428.401
463.945
499.98
538.444
579.603
622.867
667.366
712.626
759.162
807.92
859.752
914.945
973.632
1036.09
1102.92
1175.06
1253.64
1339.89
1434.63
1537.66
1647.09
1758.55
1864.63
1954.87
2017.25
2042.52
2031.38
1998.66
1965.08
1946.37
1946.47
1956.02
1978.65
2044.42
2173.05
2374.6
2687.04
3122.2
3637.68
4225.6
4924.42
5703.63
6475.33
7116.04
7501.2
7576.06
7464.02
7349.82
7368.83
7436.73
2.31331
6.85839
12.9421
19.2158
26.3639
33.9528
42.0409
50.3996
59.0016
67.928
77.6213
88.6937
101.582
116
130.445
144.735
158.167
169.839
180.585
191.813
203.981
218.565
236.947
258.648
281.679
306.503
334.556
366.88
402.165
438.084
474.236
510.959
550.256
592.306
636.485
681.812
727.778
774.927
824.233
876.545
932.147
991.183
1053.94
1121.09
1193.68
1273.01
1360.47
1457.05
1562.85
1676.3
1793.51
1907.61
2008.78
2085.67
2129.16
2138.36
2124.78
2106.86
2100.32
2109.21
2124.82
2156.73
2237.14
2382.96
2604.78
2942.06
3404.39
3940.37
4533.53
5220.41
5966.26
6680.98
7249.26
7568.71
7604.15
7486.77
7362.5
7374.66
7449.75
2.28192
6.96596
13.1578
19.6209
26.9825
34.8058
43.1261
51.7012
60.5154
69.6881
79.7148
91.2449
104.681
119.52
134.12
148.442
161.806
173.478
184.378
195.829
208.316
223.378
242.383
264.625
288.112
313.459
342.1
375.088
411.024
447.519
484.245
521.642
561.76
604.695
649.78
695.905
742.524
790.222
839.999
892.706
948.623
1007.91
1070.87
1138.24
1211.23
1291.24
1379.82
1478.15
1586.58
1703.9
1826.68
1948.6
2060.46
2151.57
2212.99
2242.49
2248.67
2247.89
2255.5
2275.22
2298.63
2341.95
2439.28
2603.29
2845.44
3205.93
3691.82
4243.37
4835.14
5501.92
6207.48
6862.08
7360.92
7623.96
7629.95
7507.71
7376.65
7377.68
7459
2.24713
7.07638
13.3745
20.0285
27.6014
35.656
44.2018
52.9864
62.0071
71.4295
81.8055
93.8227
107.83
123.06
137.775
152.092
165.348
177.021
188.079
199.747
212.555
228.107
247.735
270.501
294.432
320.299
349.513
383.14
419.684
456.702
493.97
532.027
572.953
616.77
662.751
709.643
756.86
805.039
855.212
908.227
964.368
1023.81
1086.88
1154.41
1227.72
1308.34
1397.98
1497.97
1608.9
1729.94
1858.09
1987.57
2109.82
2214.79
2293.72
2343.25
2369.52
2386.96
2410.37
2442.73
2475.73
2532.58
2648.96
2831.99
3094.17
3475.72
3980.9
4542.8
5126.85
5766.28
6426.13
7019.3
7453.11
7669.12
7655.13
7530.85
7393.43
7381.43
7463.86
2.20921
7.18922
13.592
20.4384
28.2204
36.5026
45.268
54.2551
63.477
73.154
83.8978
96.4359
111.034
126.617
141.41
155.684
168.796
180.475
191.69
203.572
216.7
232.755
253.002
276.272
300.639
327.022
356.797
391.041
428.142
465.629
503.411
542.116
583.829
628.526
675.396
723.022
770.779
819.371
869.863
923.101
979.378
1038.89
1101.99
1169.61
1243.18
1324.38
1415
1516.56
1629.87
1754.44
1887.75
2024.53
2156.83
2275.2
2371.1
2440.21
2486.59
2522.99
2563.42
2609.94
2654.36
2726.85
2864.12
3066.79
3348.34
3748.37
4268.04
4834.94
5405.53
6011.47
6621.72
7153.82
7527.97
7705.72
7680.09
7560.18
7411.25
7380.65
7453.62
2.16885
7.30405
13.8103
20.8503
28.839
37.345
46.3243
55.5074
64.926
74.8641
85.9973
99.0937
114.297
130.189
145.026
159.218
172.157
183.847
195.218
207.305
220.754
237.321
258.182
281.934
306.731
333.632
363.955
398.793
436.397
474.298
512.57
551.907
594.384
639.96
687.712
736.038
784.276
833.212
883.946
937.322
993.652
1053.15
1116.21
1183.86
1257.66
1339.38
1430.93
1533.97
1649.52
1777.47
1915.7
2059.49
2201.45
2332.71
2444.94
2533
2599.25
2654.99
2713.29
2775.16
2832.8
2922.93
3082.59
3305.26
3605.21
4020.82
4549.83
5116.36
5668.51
6236.15
6794.39
7267.17
7587.64
7735.29
7703.18
7588.31
7423.68
7372.17
7430.93
2.12692
7.42039
14.0294
21.264
29.4566
38.1827
47.3706
56.7437
66.3553
76.563
88.1108
101.805
117.624
133.774
148.623
162.694
175.435
187.142
198.664
210.951
224.719
241.806
263.271
287.485
312.707
340.13
370.992
406.397
444.449
482.706
521.449
561.399
604.614
651.068
699.694
748.684
797.342
846.553
897.452
950.887
1007.19
1066.61
1129.56
1197.21
1271.19
1353.39
1445.81
1550.24
1667.93
1799.06
1941.99
2092.47
2243.67
2387.26
2515.09
2621.33
2706.99
2782.14
2858.77
2936.8
3009.45
3119.08
3302.17
3544.94
3861.99
4290.07
4823.15
5384.04
5913.69
6439.59
6944.81
7361.21
7634.31
7759.12
7725.4
7613.51
7435.47
7357.38
7401.52
2.08419
7.53767
14.2491
21.6787
30.0724
39.0149
48.4068
57.9647
67.767
78.2549
90.247
104.579
121.013
137.369
152.201
166.109
178.636
190.367
202.032
214.51
228.595
246.211
268.263
292.918
318.567
346.521
377.911
413.857
452.296
490.853
530.054
570.596
614.515
661.844
711.335
760.953
809.97
859.387
910.376
963.794
1020
1079.26
1142.07
1209.67
1283.81
1366.45
1459.69
1565.44
1685.13
1819.28
1966.66
2123.5
2283.5
2438.81
2581.44
2705
2809.4
2903.74
2998.81
3093.45
3182.87
3313.65
3520.67
3783.38
4116.04
4553.34
5085.31
5635.45
6139.52
6621.65
7074.1
7437.92
7669.56
7777.35
7754.5
7634.88
7443.97
7338.83
7369.3
2.04117
7.65524
14.4693
22.0938
30.6861
39.8414
49.4329
59.1715
69.1639
79.946
92.417
107.422
124.465
140.971
155.758
169.462
181.766
193.526
205.325
217.985
232.385
250.534
273.154
298.23
324.311
352.809
384.718
421.175
459.938
498.741
538.39
579.498
624.082
672.279
722.627
772.836
822.15
871.706
922.713
976.043
1032.09
1091.15
1153.76
1221.29
1295.55
1378.6
1472.63
1579.61
1701.19
1838.19
1989.77
2152.64
2320.98
2487.38
2643.96
2783.87
2906.2
3019.26
3132.54
3243.85
3351.76
3505.2
3736.02
4018.28
4364.85
4808.17
5334.11
5868.65
6344.92
6782.66
7183.7