/*--------------------------------*- C++ -*----------------------------------*\
| =========                 |                                                 |
| \\      /  F ield         | OpenFOAM: The Open Source CFD Toolbox           |
|  \\    /   O peration     | Version:  4.1                                   |
|   \\  /    A nd           | Web:      www.OpenFOAM.org                      |
|    \\/     M anipulation  |                                                 |
\*---------------------------------------------------------------------------*/
FoamFile
{
    version     2.0;
    format      ascii;
    class       surfaceScalarField;
    location    "21";
    object      phi;
}
// * * * * * * * * * * * * * * * * * * * * * * * * * * * * * * * * * * * * * //

dimensions      [0 3 -1 0 0 0 0];

internalField   nonuniform List<scalar> 
13220
(
-892.978
2192.91
-1385.8
1793.04
-1853.9
1768.02
-2209.84
1655.87
-2485.33
1575.7
-2681.78
1496.37
-2801.73
1419.86
-2846.09
1344.58
-2815.35
1269.18
-2709.59
1194.15
-2533.37
1123.99
-2275.86
1042.41
-1862.78
886.849
-1147.15
584.591
152.754
-39.5381
2232.49
-115.334
1868.89
-278.197
1930.93
-408.494
1786.21
-542.013
1709.27
-656.948
1611.35
-755.115
1518.07
-833.111
1422.61
-892.857
1328.95
-939.447
1240.77
-968.911
1153.48
-935.887
1009.41
-714.346
665.352
-259.442
129.804
-106.676
-131.385
2363.91
-333.187
2070.73
-512.713
2110.49
-618.685
1892.22
-715.001
1805.63
-774.67
1671.06
-809.428
1552.87
-819.614
1432.84
-805.9
1315.29
-769.009
1203.97
-707.013
1091.54
-605.635
908.256
-437.326
497.534
-232.126
-74.6406
-338.806
60.328
2303.59
24.0437
2107.02
27.2088
2107.34
65.3292
1854.12
104.279
1766.69
163.075
1612.29
236.235
1479.74
324.187
1344.92
424.076
1215.44
533.36
1094.69
643.741
981.193
705.987
845.923
595.011
608.397
193.05
327.112
-145.758
104.098
2199.44
144.987
2066.08
203.437
2048.84
275.279
1782.22
336.364
1705.55
408.943
1539.65
479.27
1409.35
551.286
1272.83
618.502
1148.17
676.633
1036.49
726.167
931.554
738.7
833.41
627.178
719.856
378.741
575.416
232.973
33.9997
2165.34
69.2263
2030.74
97.3534
2020.59
124.482
1754.95
143.078
1686.81
173.385
1509.18
198.889
1383.67
240.813
1230.73
316.629
1072.16
431.243
921.663
540.806
821.885
584.878
789.006
509.501
794.899
314.985
769.431
547.953
-28.1923
2193.4
-67.8703
2070.29
-91.1507
2043.74
-135.705
1799.38
-175.961
1726.94
-216.75
1549.85
-259.764
1426.57
-268.16
1239.01
-198.778
1002.66
-37.8612
760.571
148.435
635.44
280.703
656.422
303.101
772.219
194.346
877.891
742.299
-8.62429
2201.94
-163.258
2224.83
-248.332
2128.73
-352.612
1903.57
-456.325
1830.58
-564.179
1657.63
-680.873
1543.21
-786.813
1344.89
-860.497
1076.29
-872.569
772.608
-794.588
557.405
-598.309
460.182
-321.878
495.815
-88.7629
644.803
653.53
110.316
2091.58
-55.9501
2391.05
-151.812
2224.55
-239
1990.71
-320.948
1912.47
-408.906
1745.53
-502.475
1636.72
-621.51
1463.87
-783.211
1237.95
-970.711
959.993
-1110.96
697.637
-1105.06
453.949
-859.389
249.805
-400.3
185.218
253.237
213.651
1877.96
155.62
2449.1
109.19
2271
88.3471
2011.55
93.1877
1907.65
87.3943
1751.33
88.131
1636
63.242
1488.77
-15.3047
1316.52
-160.107
1104.87
-332.589
870.131
-488.599
610.345
-548.967
310.626
-401.836
38.6892
-148.601
220.106
1657.9
253.192
2416.05
264.157
2260.09
294.871
1980.9
352.068
1850.52
402.588
1700.86
458.93
1579.71
504.051
1443.7
521.81
1298.81
489.258
1137.45
402.938
956.533
259.02
754.145
63.8817
505.672
-97.0295
199.476
-245.613
158.646
1499.34
218.184
2356.58
240.849
2237.51
266.511
1955.31
314.479
1802.64
360.655
1654.76
410.317
1530.15
454.704
1399.38
488.57
1265.02
500.268
1125.87
481.258
975.597
424.72
811.005
316.967
613.849
142.874
374.518
-102.734
143.188
1356.22
251.69
2248.12
326.396
2162.86
392.77
1888.99
467.15
1728.32
530.482
1591.47
581.809
1478.87
615.228
1366
626.455
1253.83
614.679
1137.69
574.814
1015.49
500.702
885.17
392.104
722.537
233.093
533.766
130.357
164.423
1191.84
238.838
2173.72
242.934
2158.79
221.57
1910.36
227.796
1722.12
247.998
1571.28
278.375
1448.52
316.307
1328.08
373.288
1196.87
439.474
1071.51
488.008
966.969
482.757
890.408
394.637
810.617
245.137
683.196
375.491
147.729
806.209
1259.71
1497.98
1562.25
1543.95
1453.9
1314.13
1143.26
952.851
745.084
559.138
366.905
176.562
-0.00296646
-66.751
66.7436
-66.7545
-66.7584
-66.7619
-119.16
52.3937
-119.163
-119.167
-119.17
-180.593
61.4181
-180.596
-180.601
-230.81
50.2058
-230.814
-230.817
-230.822
-262.072
31.2467
-262.077
-262.08
-260.358
-1.72782
-260.361
-260.366
-260.369
-227.436
-32.9381
-227.439
-227.445
-227.448
-173.065
-54.3884
-173.069
-173.075
-123.07
-50.0087
-123.077
-123.08
-123.088
-88.5769
-34.5143
-88.5854
-88.5884
-60.5244
-28.0726
-60.5273
-60.5355
-60.5387
-29.9434
-30.6048
-29.9462
-29.9554
-29.9582
33.7939
-63.7634
33.7907
33.7795
103.78
-70.0027
103.768
103.767
103.755
119.239
-15.4863
119.226
119.225
119.21
45.3826
73.8255
45.3654
45.3654
-59.3417
104.689
-59.342
-59.3596
-59.3556
-385.741
326.364
-385.741
-385.761
-1256.08
870.324
-1256.1
-1256.09
-1256.11
-2577.16
1321.06
-2577.17
-2577.17
-2577.19
-4253.09
1675.92
-4253.12
-4253.08
-6226.27
1973.18
-6226.23
-6226.24
-6134.29
-6032.27
-5926.84
-8115.24
2293.67
-8003.08
-7860.3
-7697.34
-7532.56
-7366.88
-7202.79
-7031.25
-6846.22
-9323.38
2661.75
-9130.73
-8938.94
-8747.47
-8550.36
-8350.83
-8149.79
-7946.5
-7739.26
-10455.5
2925.75
-10235.9
-10014.4
-9792.1
-9569.08
-9341.43
-9105.23
-8868.38
-8629.97
-8389.43
-11187.9
3032.11
-10932.6
-10675.9
-10419.1
-10162.8
-9906.76
-9637.57
-9360.3
-9079.6
-11739.1
2933.22
-11466.7
-11188
-10898.9
-10609.9
-10320.3
-10032.6
-9745.47
-9437.99
-11811.7
2675.62
-11517.2
-11223
-10930.5
-10624.8
-10313.2
-10003.3
-9693.04
-9380.18
-11412.9
2351.51
-11096.7
-10781.6
-10469.2
-10160.6
-9855.96
-9530.39
-9210.21
-8892.5
-8574.13
-9919.7
1670.57
-9629.05
-9340.79
-9057.99
-8776.63
-8491.33
-8235.64
-8049.06
-7854.05
-8895.69
1246.08
-8710.3
-8516.22
-8516.23
-9689.08
1172.86
-10399.2
710.148
-10399.2
-10905
505.75
-10905
-11174.5
269.536
-10994.5
-180.038
-10994.5
-10630.5
-363.969
-9878.8
-751.75
-9878.8
-8892.17
-986.638
-8892.17
-7624.74
-1267.44
-5919.97
-1704.78
-5919.97
-3770.81
-2149.17
-3770.82
-1323.38
-2447.44
1023.82
-2347.21
1023.81
3244.34
-2220.53
5512.86
-2268.53
5512.86
7483.78
-1970.92
7483.78
9102.8
-1619.03
10426.7
-1323.93
10426.7
11418.6
-991.918
11418.6
12122.6
-703.911
12485.5
-362.963
12485.5
12714.7
-229.148
12666.8
47.8204
12666.8
12495.5
171.358
12495.5
12197.4
298.055
11624.1
573.349
11624.1
11024.9
599.136
11024.9
10473.9
551.025
9907.17
566.735
9907.16
9862.86
44.302
11131.3
-1268.46
11131.3
13019.7
-1888.41
13019.7
14173.7
-1153.99
14671.2
-497.47
14671.2
14298.9
372.287
14298.9
12840.8
1458.07
10696
2144.78
10696
7359.43
3336.6
3487.78
3871.66
3487.78
-2021.5
5509.28
-2021.5
-11753
9731.52
-26373
14619.9
-26373
-45057.7
18684.8
-45057.7
-68715.9
23658.2
-95096.7
26380.8
-95096.7
-126990
31892.8
-160000
33010.9
-160000
-197396
37395.7
-197396
43160.3
25.1126
-1143.43
4.77442
-1863.14
-0.318622
-2554.44
-7.24937
-3184.75
-16.7088
-3746.64
-33.3408
-4268.75
-59.9144
-4736.54
-95.8938
-5170.47
-131.807
-5581.11
-157.072
-5986.5
-166.547
-6364.51
-164.371
-6688.83
-160.368
-6999.63
-161.99
-7382.57
-172.725
-7882.38
-194.377
-8486.22
-227.366
-9130.69
-272.293
-9724.45
-332.785
-10233.9
-410.064
-10639.2
-495.794
-10889.7
-582.725
-11077.9
-676.21
-11385.3
-786.303
-11870.9
-913.594
-12461.9
-1046.57
-13123.8
-1174.4
-13891
-1292.95
-14718.5
-1405.8
-15540.4
-1521.2
-16367.8
-1643.79
-17168.5
-1777.23
-17922.7
-1926.07
-18650.4
-2094.88
-19355.1
-2288.23
-20027
-2510.54
-20666.4
-2765.35
-21294.4
-3055.86
-21947.6
-3384.22
-22672.7
-3749.09
-23501.2
-4144.57
-24447.2
-4560.45
-25525.3
-4983.69
-26759.8
-5400.43
-28170.7
-5798.66
-29754.1
-6170.88
-31475.9
-6515.51
-33279.2
-6835.37
-35096.3
-7134.17
-36868.1
-7411.67
-38555.8
-7659.42
-40104.5
-7855.77
-41291.6
-7947.71
-41349.3
-7816.55
-38469.2
-7334.34
-30478.8
-6664.48
-18901.1
-6264.13
-11296.7
-6206.41
-10226.8
-6228.88
-9819.04
-6287.2
-8161.01
-6439.35
-6428.98
-6659.11
-4826.96
-6887.92
-3174.1
-7092.21
-1523.89
-7281.22
88.7809
-7525.43
1717.65
-7889.08
3534.24
-8398.25
5715.69
-9091.93
8438.58
-10022.7
11943.3
-11260.9
16575.4
-12904.2
22864.7
-15090.6
31629.2
-18020.3
44139.3
-21986.7
62434.6
-27403.9
89544.3
-34646.7
129541
-42581
183473
235099
-66.4805
-1142.21
-62.4725
-1867.15
-58.1544
-2558.76
-63.7076
-3179.2
-75.7726
-3734.58
-100.399
-4244.13
-139.385
-4697.56
-187.375
-5122.48
-229.098
-5539.38
-253.594
-5962.01
-259.759
-6358.35
-253.994
-6694.6
-245.581
-7008.04
-242.551
-7385.6
-250.233
-7874.69
-271.384
-8465.07
-306.095
-9095.98
-354.544
-9676
-420.455
-10168
-504.746
-10554.9
-596.996
-10797.4
-687.097
-10987.8
-779.452
-11292.9
-885.662
-11764.7
-1007.72
-12339.9
-1135.38
-12996.2
-1260.46
-13766
-1379.86
-14599.1
-1495.3
-15425
-1613.88
-16249.2
-1740.26
-17042.1
-1878.44
-17784.5
-2033.45
-18495.4
-2210.15
-19178.4
-2413.08
-19824.1
-2646.23
-20433.2
-2912.26
-21028.3
-3213.15
-21646.7
-3550.2
-22335.7
-3921.55
-23129.9
-4320.83
-24047.9
-4737.56
-25108.6
-5159.24
-26338.1
-5573.89
-27756
-5972.05
-29355.9
-6348.53
-31099.4
-6702.87
-32924.8
-7037.51
-34761.7
-7354.17
-36551.5
-7649.66
-38260.3
-7912.63
-39841.6
-8120.03
-41084.2
-8222.12
-41247.2
-8111.23
-38580
-7664.71
-30925.4
-7015.02
-19550.8
-6602.16
-11709.6
-6521.12
-10307.9
-6516.5
-9823.66
-6519.38
-8158.12
-6586.04
-6362.32
-6721.84
-4691.16
-6907.48
-2988.47
-7124.1
-1307.27
-7365.5
330.182
-7667.01
2019.17
-8075.13
3942.36
-8625.06
6265.63
-9359.92
9173.44
-10334.6
12918
-11621.9
17862.6
-13321.4
24564.3
-15573.1
33880.8
-18582
47148.2
-22673.2
66525.8
-28356.2
95227.3
-35925
137110
-43101.4
190649
229394
-110.736
-1151.01
-96.6145
-1881.27
-90.8376
-2564.54
-97.2148
-3172.82
-113.393
-3718.4
-145.789
-4211.73
-193.067
-4650.28
-244.464
-5071.09
-283.086
-5500.76
-302.176
-5942.92
-305.196
-6355.33
-298.627
-6701.17
-289.589
-7017.08
-285.665
-7389.53
-292.925
-7867.44
-314.334
-8443.66
-349.842
-9060.47
-400.046
-9625.8
-469.223
-10098.8
-557.944
-10466.2
-654.321
-10701.1
-746.75
-10895.4
-839.145
-11200.5
-943.46
-11660.4
-1062.17
-12221.1
-1186.45
-12871.9
-1309.85
-13642.6
-1429.86
-14479.1
-1546.91
-15308
-1667.16
-16128.9
-1795.41
-16913.9
-1936.14
-17643.8
-2094.76
-18336.8
-2276.18
-18996.9
-2484.77
-19615.5
-2724.21
-20193.8
-2996.64
-20755.9
-3303.26
-21340.1
-3644.49
-21994.4
-4017.83
-22756.5
-4416.64
-23649.1
-4830.68
-24694.6
-5248.59
-25920.2
-5660.18
-27344.4
-6057.94
-28958.2
-6438.06
-30719.3
-6800.44
-32562.4
-7146.84
-34415.3
-7477.39
-36220.9
-7786.82
-37950.8
-8062.03
-39566.4
-8279.29
-40866.9
-8390.12
-41136.3
-8291.39
-38678.8
-7863.52
-31353.2
-7225.85
-20188.4
-6811.42
-12124
-6727.05
-10392.2
-6726.54
-9824.18
-6737.25
-8147.41
-6805.32
-6294.25
-6930.15
-4566.33
-7097.38
-2821.24
-7303.48
-1101.17
-7555.33
582.029
-7886.19
2350.02
-8331.26
4387.43
-8921.65
6856.02
-9701.36
9953.16
-10726.2
13942.8
-12070.4
19206.8
-13834.2
26328
-16158.9
36205.5
-19269.9
50259.2
-23575.1
70831.1
-29702.9
101355
-37521.2
144928
-42786.4
195914
219618
-153.831
-1165.49
-134.467
-1900.64
-128.265
-2570.74
-136.614
-3164.47
-158.896
-3696.12
-200.521
-4170.11
-255.261
-4595.54
-307.146
-5019.2
-340.227
-5467.68
-353.524
-5929.62
-354.14
-6354.71
-347.458
-6707.85
-338.292
-7026.25
-333.87
-7393.95
-340.99
-7860.32
-362.857
-8421.79
-399.412
-9023.92
-451.943
-9573.27
-525.424
-10025.3
-619.556
-10372
-720.335
-10600.3
-814.868
-10800.8
-907.082
-11108.3
-1009.31
-11558.1
-1124.45
-12106
-1245.23
-12751.1
-1366.93
-13520.9
-1487.54
-14358.5
-1606.32
-15189.2
-1728.52
-16006.7
-1859.07
-16783.3
-2002.87
-17500
-2165.7
-18174
-2352.61
-18810
-2567.7
-19400.4
-2814.19
-19947.3
-3093.65
-20476.4
-3406.34
-21027.4
-3751.81
-21649
-4126.96
-22381.4
-4524.89
-23251.2
-4935.81
-24283.7
-5349.65
-25506.3
-5758.25
-26935.8
-6156.22
-28560.2
-6541.28
-30334.3
-6913.8
-32189.9
-7274.79
-34054.3
-7622.62
-35873.1
-7949.77
-37623.7
-8241.41
-39274.7
-8473.31
-40635
-8598.23
-41011.4
-8515.66
-38761.3
-8104.27
-31764.6
-7469.15
-20823.5
-7044.45
-12548.7
-6956.14
-10480.5
-6957.3
-9823.02
-6966.05
-8138.67
-7028.2
-6232.1
-7148.79
-4445.74
-7315.57
-2654.45
-7526.61
-890.131
-7793.7
849.119
-8149.81
2706.13
-8626.45
4864.08
-9254.63
7484.19
-10078.6
10777.1
-11154.6
15018.8
-12556.6
20608.8
-14384.6
28156.1
-16789.4
38610.3
-20046.6
53516.5
-24675.9
75460.3
-31282.3
107961
-38984.8
152631
-42319.6
199249
209191
-191.675
-1183.5
-169.989
-1922.32
-164.806
-2575.92
-176.847
-3152.43
-207.116
-3665.85
-258.005
-4119.22
-316.862
-4536.68
-364.153
-4971.91
-388.397
-5443.44
-395.499
-5922.52
-394.771
-6355.44
-389.272
-6713.35
-381.256
-7034.26
-377.444
-7397.76
-385.136
-7852.62
-407.726
-8399.2
-445.382
-8986.26
-500.459
-9518.19
-578.648
-9947.12
-678.282
-10272.4
-783.086
-10495.5
-879.411
-10704.5
-971.529
-11016.2
-1071.89
-11457.8
-1183.67
-11994.2
-1301.24
-12633.6
-1421.47
-13400.6
-1542.65
-14237.3
-1663.1
-15068.7
-1787.19
-15882.6
-1919.96
-16650.5
-2066.75
-17353.2
-2233.74
-18007
-2426.03
-18617.7
-2647.4
-19179
-2900.53
-19694.2
-3186.35
-20190.6
-3504.21
-20709.5
-3852.75
-21300.4
-4228.26
-22005.9
-4623.75
-22855.7
-5030.12
-23877.3
-5438.93
-25097.5
-5844.24
-26530.5
-6242.82
-28161.6
-6633.81
-29943.3
-7017.87
-31805.9
-7395.15
-33677
-7762.1
-35506.2
-8109
-37276.8
-8419.38
-38964.3
-8668.74
-40385.7
-8810.78
-40869.4
-8746.31
-38825.8
-8350.35
-32160.6
-7713.92
-21460
-7274.23
-12988.4
-7182.34
-10572.4
-7190.78
-9814.58
-7204.95
-8124.5
-7267.09
-6169.96
-7386.88
-4325.96
-7556.2
-2485.13
-7775.48
-670.85
-8059.24
1132.88
-8439.36
3086.25
-8945.59
5370.31
-9610.12
8148.73
-10477.3
11644.3
-11603
16144.4
-13060
22065.9
-14951.1
30047.2
-17453.6
41112.7
-20924.1
56987.1
-25970.3
80506.5
-32971.5
114963
-40119.3
159778
-40981.9
200112
194590
-227.369
-1203.52
-205.308
-1944.38
-202.48
-2578.75
-220.096
-3134.81
-259.705
-3626.24
-318.302
-4060.62
-376.457
-4478.52
-414.388
-4933.98
-428.195
-5429.63
-430.077
-5920.63
-429.429
-6356.09
-426.243
-6716.54
-420.42
-7040.09
-418.123
-7400.06
-426.952
-7843.79
-450.516
-8375.64
-489.524
-8947.25
-547.695
-9460.02
-631.263
-9863.55
-736.619
-10167.1
-845.154
-10386.9
-943.032
-10606.6
-1035.12
-10924.1
-1133.76
-11359.1
-1242.34
-11885.6
-1356.94
-12519
-1475.82
-13281.8
-1597.47
-14115.7
-1719.51
-14946.7
-1845.51
-15756.6
-1980.58
-16515.5
-2130.49
-17203.3
-2301.74
-17835.7
-2499.49
-18420
-2727.12
-18951.4
-2986.69
-19434.6
-3278.43
-19898.9
-3600.77
-20387.2
-3951.45
-20949.8
-4326.2
-21631.1
-4718.13
-22463.7
-5119.12
-23476.3
-5522.59
-24694
-5924.87
-26128.2
-6324.86
-27761.6
-6723
-29545.1
-7120.16
-31408.7
-7515.45
-33281.7
-7903.37
-35118.2
-8272.02
-36908.1
-8603.55
-38632.8
-8873.32
-40115.9
-9035.92
-40706.8
-8992.31
-38869.4
-8611.55
-32541.3
-7969.13
-22102.4
-7507.43
-13450.1
-7409.57
-10670.3
-7427.46
-9796.69
-7450.25
-8101.7
-7516.11
-6104.1
-7639.13
-4202.94
-7814.44
-2309.81
-8043.94
-441.352
-8344.68
1433.62
-8748.13
3489.7
-9282.98
5905.16
-9982.63
8848.38
-10891
12552.7
-12062.6
17316.1
-13570.4
23573.6
-15529
32005.8
-18164.5
43748.2
-21926.2
60748.8
-27427.4
86007.7
-34614.4
122150
-40746.8
165911
-39132.9
198498
179115
-261.594
-1224.55
-240.66
-1965.32
-241.778
-2577.63
-266.908
-3109.68
-316.173
-3576.98
-379.069
-3997.73
-430.893
-4426.7
-455.892
-4908.98
-459.399
-5426.12
-457.752
-5922.28
-458.436
-6355.4
-458.345
-6716.63
-455.507
-7042.93
-455.453
-7400.11
-465.875
-7833.37
-490.673
-8350.84
-531.421
-8906.51
-593.379
-9398.07
-682.95
-9773.98
-794.064
-10055.9
-905.947
-10275.1
-1005.17
-10507.4
-1097.32
-10832
-1194.35
-11262.1
-1299.91
-11780.1
-1411.76
-12407.1
-1529.42
-13164.1
-1651.41
-13993.7
-1774.93
-14823.2
-1902.88
-15628.7
-2040.35
-16378
-2193.49
-17050.1
-2369.1
-17660.1
-2572.34
-18216.7
-2806.15
-18717.6
-3071.88
-19168.9
-3369.01
-19601.8
-3695.06
-20061.1
-4046.86
-20597.9
-4419.72
-21258.3
-4807.06
-22076.4
-5202.02
-23081.3
-5600.03
-24296
-5999.75
-25728.5
-6402.05
-27359.3
-6808.6
-29138.6
-7220.26
-30997
-7635.02
-32866.9
-8045.44
-34707.8
-8437.52
-36516.1
-8792.18
-38278.1
-9084.86
-39823.2
-9270.96
-40520.7
-9251.01
-38889.4
-8886.84
-32905.5
-8236.53
-22752.7
-7746.48
-13940.1
-7638.08
-10778.7
-7666.19
-9768.58
-7700.86
-8067.03
-7774.02
-6030.95
-7903.36
-4073.6
-8086.94
-2126.23
-8327.8
-200.495
-8645.83
1751.65
-9072.58
3916.45
-9635.53
6468.11
-10368.8
9581.64
-11315.3
13499.2
-12528.6
18529.4
-14086.2
25131.2
-16129.4
34049
-18951.3
46570.1
-23074.9
64872.3
-29000.8
91933.6
-36104.1
129253
-40870.2
170677
-36696.8
194324
161103
-294.954
-1245.77
-276.63
-1983.64
-283.618
-2570.64
-317.872
-3075.43
-375.543
-3519.31
-437.709
-3935.56
-477.914
-4386.49
-488.494
-4898.4
-483.49
-5431.13
-480.244
-5925.53
-483.019
-6352.63
-486.306
-6713.34
-486.885
-7042.35
-489.57
-7397.43
-501.937
-7821
-528.269
-8324.51
-571.29
-8863.48
-637.837
-9331.52
-733.961
-9677.85
-850.71
-9939.19
-965.514
-10160.3
-1065.91
-10407
-1158.21
-10739.7
-1253.76
-11166.5
-1356.48
-11677.3
-1465.83
-12297.8
-1582.35
-13047.6
-1704.54
-13871.5
-1829.4
-14698.3
-1959.33
-15498.8
-2099.36
-16238
-2255.91
-16893.6
-2436
-17480
-2644.75
-18008
-2884.64
-18477.7
-3156.24
-18897.3
-3458.21
-19299.8
-3787.15
-19732.2
-4139.1
-20246
-4509.08
-20888.3
-4891.06
-21694.4
-5279.67
-22692.7
-5672.48
-23903.2
-6070.39
-25330.6
-6476.12
-26953.6
-6892.34
-28722.4
-7319.8
-30569.6
-7755.27
-32431.5
-8189.37
-34273.7
-8606.2
-36099.2
-8985.7
-37898.6
-9303.54
-39505.4
-9515.94
-40308.3
-9522.72
-38882.6
-9177.6
-33250.6
-8518.96
-23411.3
-7994.25
-14464.8
-7868.74
-10904.2
-7906.08
-9731.23
-7955.14
-8017.98
-8039.19
-5946.9
-8178.04
-3934.74
-8371.77
-1932.5
-8624.47
52.2104
-8959.71
2086.88
-9409.53
4366.27
-9999.59
7058.18
-10764.2
10346.2
-11745.1
14480.1
-12997.6
19781.8
-14612.4
26746.1
-16772.9
36209.5
-19844.6
49641.8
-24373.5
69401.3
-30622.1
98182.2
-37336.4
135967
-40449.5
173790
-33832.5
187707
141891
-328.042
-1266.58
-313.872
-1997.81
-328.848
-2555.67
-372.975
-3031.3
-435.922
-3456.36
-491.463
-3880.02
-516.313
-4361.64
-513.39
-4901.33
-502.748
-5441.77
-499.544
-5928.73
-504.531
-6347.64
-510.969
-6706.9
-515.016
-7038.3
-520.676
-7391.77
-535.233
-7806.45
-563.429
-8296.31
-609.369
-8817.54
-681.336
-9259.55
-784.414
-9574.77
-906.494
-9817.11
-1023.77
-10043
-1125.2
-10305.6
-1217.72
-10647.2
-1311.92
-11072.3
-1412
-11577.3
-1519.07
-12190.7
-1634.54
-12932.1
-1756.79
-13749.2
-1882.83
-14572.3
-2014.78
-15366.8
-2157.57
-16095.2
-2317.75
-16733.4
-2502.43
-17295.3
-2716.7
-17793.7
-2962.56
-18231.9
-3239.69
-18620.2
-3545.92
-18993.6
-3876.95
-19401.2
-4228.12
-19894.8
-4594.37
-20522
-4970.47
-21318.3
-5352.75
-22310.4
-5740.93
-23515
-6138.04
-24933.5
-6548.43
-26543.2
-6975.56
-28295.2
-7419.93
-30125.2
-7877.04
-31974.4
-8335.64
-33815.1
-8778.19
-35656.7
-9183.89
-37492.9
-9528.84
-39160.5
-9770.1
-40067
-9806.78
-38845.9
-9484.29
-33573.1
-8819.07
-24076.6
-8254.57
-15029.3
-8103.73
-11055
-8147.1
-9687.87
-8211.6
-7953.48
-8309.13
-5849.37
-8459.89
-3783.98
-8664.92
-1727.48
-8930.21
317.502
-9283.1
2439.77
-9755.3
4838.46
-10370.8
7673.65
-11163.8
11139.3
-12176.5
15492.8
-13470.7
21075.9
-15161.4
28436.8
-17484.9
38533.1
-20866
53022.8
-25799.9
74335.2
-32207.3
104589
-38236.3
141996
-39534.2
175088
-30619.5
178793
121003
-361.547
-1286.41
-353.205
-2006.15
-378.139
-2530.73
-431.445
-2978
-494.777
-3393.03
-538.082
-3836.71
-546.27
-4353.46
-532.805
-4914.79
-519.671
-5454.9
-517.529
-5930.87
-524.312
-6340.86
-533.284
-6697.93
-540.5
-7031.08
-549.125
-7383.14
-566.009
-7789.56
-596.419
-8265.9
-645.977
-8767.99
-724.156
-9181.37
-834.393
-9464.54
-961.336
-9690.16
-1080.61
-9923.71
-1182.98
-10203.2
-1275.81
-10554.3
-1368.79
-10979.4
-1466.43
-11479.6
-1571.42
-12085.7
-1685.9
-12817.6
-1808.12
-13627
-1935.2
-14445.2
-2069.18
-15232.8
-2214.95
-15949.4
-2379
-16569.4
-2568.43
-17105.9
-2788.22
-17573.9
-3039.87
-17980.2
-3322.19
-18337.8
-3632.06
-18683.7
-3964.39
-19068.8
-4313.96
-19545.3
-4675.83
-20160.2
-5045.82
-20948.3
-5422.12
-21934.1
-5806.55
-23130.6
-6204.07
-24536
-6620.43
-26126.8
-7059.66
-27856
-7521.85
-29663
-8001.2
-31495
-8484.76
-33331.6
-8953.63
-35187.8
-9386.6
-37060
-9760.34
-38786.7
-10032.8
-39794.5
-10102.7
-38776.1
-9807.29
-33868.5
-9139.23
-24744.6
-8531.38
-15637.2
-8345.9
-11240.5
-8389.83
-9643.94
-8468.97
-7874.33
-8581.02
-5737.33
-8744.81
-3620.19
-8961.59
-1510.7
-9240.76
596.674
-9612.15
2811.17
-10105.6
5331.89
-10744.5
8312.54
-11563.8
11958.6
-12608.8
16537.9
-13955
22422.1
-15751.9
30233.7
-18290.8
41072
-22022.7
56754.7
-27310.6
79623.1
-33672.8
110952
-38760.1
147084
-38174.4
174502
-27238.8
167857
99273.3
-396.378
-1304.64
-395.558
-2006.97
-431.679
-2494.61
-491.606
-2918.07
-549.322
-3335.31
-576.305
-3809.73
-569.182
-4360.58
-549.281
-4934.69
-536.298
-5467.88
-535.564
-5931.61
-543.47
-6332.95
-554.187
-6687.21
-564.013
-7021.26
-575.369
-7371.79
-594.611
-7770.32
-627.565
-8232.95
-681.444
-8714.11
-766.529
-9096.29
-883.927
-9347.14
-1015.13
-9558.96
-1135.97
-9802.87
-1239.18
-10100
-1332.4
-10461.1
-1424.28
-10887.5
-1519.71
-11384.2
-1622.79
-11982.6
-1736.32
-12704.1
-1858.45
-13504.9
-1986.47
-14317.2
-2122.52
-15096.8
-2271.47
-15800.5
-2439.67
-16401.2
-2634.02
-16911.6
-2859.3
-17348.7
-3116.56
-17722.9
-3403.67
-18050.7
-3716.58
-18370.8
-4049.45
-18736
-4396.7
-19198
-4753.76
-19803.1
-5117.72
-20584.4
-5488.69
-21563.2
-5870.52
-22748.8
-6269.83
-24136.7
-6693.5
-25703.2
-7145.9
-27403.6
-7626.59
-29182.3
-8128.46
-30993.1
-8637.07
-32823
-9132.52
-34692.3
-9593.53
-36599
-9997.51
-38382.7
-10303.4
-39488.6
-10409.7
-38669.8
-10146.6
-34131.6
-9481.44
-25409.7
-8829
-16289.6
-8599.07
-11470.5
-8635.8
-9607.21
-8726.54
-7783.59
-8852.19
-5611.68
-9028.98
-3443.4
-9258.23
-1281.45
-9552.71
891.153
-9942.81
3201.27
-10456.2
5845.23
-11117.1
8973.49
-11962.9
12804.3
-13046.4
17621.5
-14464.4
23840.1
-16406.9
32176.2
-19210.5
43875.6
-23305
60849.2
-28848.4
85166.4
-34943.3
117047
-38868.2
151008
-36356.4
171990
-23872.6
155373
79272.4
-433.667
-1320.53
-441.822
-1998.82
-488.9
-2447.53
-550.968
-2856
-597.089
-3289.19
-606.121
-3800.7
-587.195
-4379.5
-564.99
-4956.9
-553.805
-5479.07
-554.347
-5931.07
-562.778
-6324.52
-574.502
-6675.49
-586.244
-7009.52
-599.915
-7358.12
-621.43
-7748.81
-657.214
-8197.17
-716.071
-8655.25
-808.626
-9003.73
-932.997
-9222.77
-1067.78
-9424.17
-1189.74
-9680.91
-1293.75
-9995.97
-1387.39
-10367.5
-1478.32
-10796.6
-1571.73
-11290.8
-1673.03
-11881.3
-1785.66
-12591.5
-1907.72
-13382.8
-2036.65
-14188.2
-2174.8
-14958.6
-2327.15
-15648.1
-2499.76
-16228.5
-2699.18
-16712.1
-2929.93
-17117.9
-3192.58
-17460.3
-3484.07
-17759.3
-3799.41
-18055.4
-4132.13
-18403.2
-4476.49
-18853.7
-4828.56
-19451
-5186.86
-20226.1
-5553.43
-21196.6
-5933.99
-22368.2
-6336.58
-23734.1
-6768.88
-25270.9
-7235.4
-26937.1
-7735
-28682.7
-8259.34
-30468.8
-8792.74
-32289.6
-9314.73
-34170.3
-9804.3
-36109.4
-10239.7
-37947.3
-10581
-39147.4
-10726.9
-38523.9
-10501.7
-34356.7
-9847.19
-26064.3
-9151.67
-16985.2
-8867.89
-11754.2
-8887.65
-9587.46
-8984.87
-7686.37
-9121.66
-5474.88
-9310.8
-3254.27
-9553.14
-1039.11
-9863.5
1201.52
-10271.8
3609.6
-10804.4
6377.79
-11487.9
9656.96
-12364.2
13680.7
-13499.4
18756.7
-15017.4
25358.1
-17148.9
34307.7
-20253.4
46980.1
-24686.7
65282.5
-30349.2
90828.9
-35951.8
122649
-38531
153588
-34121.7
167581
-20562.3
141814
62046.7
-474.718
-1333.15
-492.676
-1980.86
-548.346
-2391.86
-606.594
-2797.76
-636.468
-3259.32
-628.684
-3808.48
-602.593
-4405.6
-581.28
-4978.21
-572.466
-5487.88
-573.996
-5929.53
-582.661
-6315.86
-594.855
-6663.29
-607.813
-6996.56
-623.257
-7342.67
-646.846
-7725.22
-685.676
-8158.34
-750.102
-8590.82
-850.556
-8903.28
-981.553
-9091.77
-1119.18
-9286.54
-1241.89
-9558.2
-1346.63
-9891.24
-1440.71
-10273.4
-1530.81
-10706.5
-1622.38
-11199.2
-1722.01
-11781.7
-1833.77
-12479.7
-1955.82
-13260.8
-2085.75
-14058.3
-2226.11
-14818.3
-2382.01
-15492.2
-2559.28
-16051.3
-2763.94
-16507.5
-3000.11
-16881.7
-3267.89
-17192.5
-3563.32
-17463.8
-3880.5
-17738.2
-4212.46
-18071.3
-4553.54
-18512.6
-4900.67
-19103.9
-5253.93
-19872.8
-5617.26
-20833.3
-5998.03
-21987.5
-6405.42
-23326.7
-6847.63
-24828.7
-7329.01
-26455.7
-7847.68
-28164.1
-8394.14
-29922.3
-8951.8
-31731.9
-9500.01
-33622.1
-10018.4
-35591
-10486.3
-37479.5
-10864.6
-38769
-11053.3
-38335.3
-10872.1
-34538
-10237.3
-26699.1
-9503.38
-17719.1
-9157.82
-12099.8
-9149.52
-9595.75
-9246.47
-7589.42
-9390.87
-5330.49
-9590.87
-3054.27
-9845.95
-784.027
-10171.9
1527.43
-10598.2
4035.89
-11150.6
6930.23
-11859.9
10366.2
-12776.1
14596.9
-13983.1
19963.6
-15635
27010
-17995.5
36668.2
-21416.1
50400.7
-26128
69994.4
-31746.6
96447.5
-36642.9
127546
-37749.9
154695
-31584.4
161415
-17346.6
127576
46844.9
-520.893
-1341.41
-548.374
-1953.38
-607.82
-2332.42
-655.735
-2749.84
-667.061
-3247.99
-645.945
-3829.6
-617.249
-4434.29
-598.591
-4996.87
-591.933
-5494.54
-594.301
-5927.17
-603.266
-6306.89
-615.642
-6650.92
-629.193
-6983.01
-645.809
-7326.06
-671.173
-7699.85
-713.199
-8116.31
-783.717
-8520.3
-892.367
-8794.63
-1029.53
-8954.61
-1169.27
-9146.8
-1292.39
-9435.08
-1397.79
-9785.84
-1492.29
-10178.9
-1581.65
-10617.1
-1671.54
-11109.3
-1769.59
-11683.6
-1880.52
-12368.8
-2002.67
-13138.6
-2133.77
-13927.2
-2276.54
-14675.5
-2436.18
-15332.6
-2618.27
-15869.2
-2828.29
-16297.5
-3069.81
-16640.2
-3342.44
-16919.9
-3641.37
-17164.9
-3959.82
-17419.8
-4290.52
-17740.6
-4628.1
-18175
-4970.57
-18761.4
-5319.64
-19523.8
-5681.06
-20471.9
-6063.62
-21604.9
-6477.3
-22913
-6930.56
-24375.4
-7427.38
-25958.9
-7965.01
-27626.4
-8532.96
-29354.4
-9114.07
-31150.8
-9687.98
-33048.2
-10235.3
-35043.7
-10736.4
-36978.4
-11153.4
-38352
-11387.6
-38101
-11256.3
-34669.2
-10651.8
-27303.6
-9887.62
-18483.2
-9474.97
-12512.5
-9427.2
-9643.52
-9516.05
-7500.56
-9663.62
-5182.91
-9871.92
-2845.97
-10138.3
-517.683
-10479.1
1868.22
-10923.8
4480.68
-11498.9
7505.29
-12240.9
11108.2
-13211.5
15567.5
-14515.7
21267.8
-16336.8
28831.1
-18955.8
39287.2
-22681.3
54126.2
-27579.1
74892.2
-32976.7
101845
-36978.5
131547
-36552.2
154268
-28831
153694
-14298.2
113043
34004.8
-573.438
-1344.3
-608.514
-1918.3
-664.761
-2276.17
-696.506
-2718.09
-689.726
-3254.77
-660.102
-3859.22
-632.304
-4462.09
-616.676
-5012.5
-611.659
-5499.56
-614.986
-5923.84
-624.562
-6297.32
-637.03
-6638.45
-650.675
-6969.36
-667.851
-7308.88
-694.623
-7673.08
-739.951
-8070.98
-817.036
-8443.22
-934.068
-8677.6
-1076.85
-8811.83
-1218.01
-9005.63
-1341.26
-9311.84
-1447.21
-9679.89
-1542.07
-10084
-1630.75
-10528.4
-1719.11
-11021
-1815.64
-11587.1
-1925.8
-12258.6
-2048.21
-13016.2
-2180.76
-13794.7
-2326.2
-14530.1
-2489.79
-15169
-2676.84
-15682.1
-2892.27
-16082
-3139.03
-16393.5
-3416.19
-16642.7
-3718.16
-16862.9
-4037.35
-17100.6
-4366.39
-17411.5
-4700.44
-17840.9
-5038.74
-18423.1
-5384.68
-19177.8
-5745.63
-20110.9
-6131.55
-21219
-6552.97
-22491.6
-7018.27
-23910.1
-7530.86
-25446.3
-8087.09
-27070.2
-8675.67
-28765.8
-9279.23
-30547.3
-9878.12
-32449.3
-10454.2
-34467.6
-10989.1
-36443.5
-11446.1
-37895
-11728.6
-37818.6
-11653
-34744.8
-11090
-27866.6
-10307
-19266.2
-9825.79
-12993.7
-9727.91
-9741.41
-9800.17
-7428.3
-9945.72
-5037.36
-10158.8
-2632.9
-10434.2
-242.233
-10789.4
2223.42
-11254.6
4945.81
-11857.4
8108.07
-12642.7
11893.6
-13686.6
16611.4
-15116.3
22697.6
-17137.7
30852.5
-20028.6
42178.1
-24019.7
58117.3
-28984.6
79857.1
-33982.6
106843
-36939.5
134504
-34987.8
152317
-25962.8
144669
-11422.2
98502.7
22954.9
-633.09
-1341.41
-671.753
-1879.64
-716.621
-2231.3
-728.309
-2706.41
-706.299
-3276.78
-673.078
-3892.44
-648.123
-4487.04
-634.995
-5025.62
-631.245
-5503.31
-635.889
-5919.19
-646.438
-6286.77
-659
-6625.89
-672.353
-6956.01
-689.509
-7291.72
-717.295
-7645.3
-766.028
-8022.25
-850.137
-8359.11
-975.644
-8552.09
-1123.46
-8664.02
-1265.42
-8863.67
-1388.53
-9188.73
-1494.91
-9573.51
-1590.03
-9988.91
-1678.04
-10440.4
-1764.98
-10934
-1860.09
-11492
-1969.55
-12149.2
-2092.43
-12893.3
-2226.72
-13660.4
-2375.18
-14381.6
-2542.95
-15001.2
-2735.07
-15490
-2955.91
-15861.2
-3207.76
-16141.6
-3489.1
-16361.4
-3793.63
-16558.4
-4113.1
-16781.1
-4440.2
-17084.4
-4770.88
-17510.3
-5105.71
-18088.3
-5449.69
-18833.8
-5811.66
-19748.9
-6202.5
-20828.1
-6632.97
-22061.1
-7111.13
-23431.9
-7639.59
-24917.9
-8213.82
-26496
-8821.94
-28157.7
-9446.79
-29922.4
-10069.8
-31826.3
-10674.5
-33862.9
-11243.5
-35874.5
-11741.6
-37396.9
-12074.6
-37485.6
-12060.2
-34759.2
-11550.3
-28376.5
-10763.1
-20053.4
-10216.4
-13540.4
-10059.7
-9898.13
-10106.6
-7381.36
-10244.5
-4899.5
-10458.4
-2419.01
-10740.8
40.1692
-11110.7
2593.34
-11599.6
5434.67
-12237.7
8746.2
-13080.1
12736
-14219
17750.2
-15801.6
24280.2
-18045.3
33096.2
-21201.1
45333.9
-25391.9
62308
-30287.9
84753.1
-34718.9
111274
-36526.2
136312
-33118.9
148909
-23064.2
134615
-8759.68
84198.1
13697.8
-699.305
-1333.59
-735.434
-1843.51
-761.137
-2205.6
-751.782
-2715.76
-719.041
-3309.52
-686.146
-3925.34
-664.497
-4508.69
-653.076
-5037.04
-650.596
-5505.79
-656.993
-5912.8
-668.763
-6275
-681.413
-6613.24
-694.156
-6943.27
-710.76
-7275.12
-739.187
-7616.87
-791.476
-7969.96
-883.079
-8267.51
-1017.08
-8418.1
-1169.31
-8511.79
-1311.51
-8721.46
-1434.3
-9065.94
-1540.98
-9466.83
-1636.19
-9893.69
-1723.52
-10353.1
-1809.12
-10848.4
-1902.86
-11398.3
-2011.71
-12040.3
-2135.29
-12769.8
-2271.69
-13524
-2423.55
-14229.7
-2595.78
-14829
-2793.06
-15292.7
-3019.24
-15635
-3275.97
-15884.9
-3561.12
-16076.2
-3867.75
-16251.8
-4187.09
-16461.8
-4512.12
-16759.4
-4839.74
-17182.7
-5171.93
-17756.1
-5515.25
-18490.5
-5879.74
-19384.4
-6276.97
-20430.9
-6717.66
-21620.4
-7209.24
-22940.4
-7753.44
-24373.7
-8344.84
-25904.6
-8971.26
-27531.2
-9616.15
-29277.5
-10262.4
-31180
-10895.2
-33230.2
-11498.6
-35271
-12038.7
-36856.9
-12424.2
-37100
-12475.8
-34707.6
-12030.4
-28821.9
-11255.9
-20828
-10651.9
-14144.4
-10430.6
-10119.4
-10443.8
-7368.15
-10568.1
-4775.22
-10778.7