/*--------------------------------*- C++ -*----------------------------------*\
| =========                 |                                                 |
| \\      /  F ield         | OpenFOAM: The Open Source CFD Toolbox           |
|  \\    /   O peration     | Version:  4.1                                   |
|   \\  /    A nd           | Web:      www.OpenFOAM.org                      |
|    \\/     M anipulation  |                                                 |
\*---------------------------------------------------------------------------*/
FoamFile
{
    version     2.0;
    format      ascii;
    class       volScalarField;
    location    "4";
    object      p;
}
// * * * * * * * * * * * * * * * * * * * * * * * * * * * * * * * * * * * * * //

dimensions      [0 2 -2 0 0 0 0];

internalField   nonuniform List<scalar> 
6785
(
561.811
483.269
436.395
383.101
336.489
291.639
249.908
210.469
173.245
138.072
104.218
71.2602
42.8869
13.6561
-26.6904
-51.697
-69.2347
-59.2858
-66.258
-65.6027
-67.9512
-68.5625
-69.0294
-68.5789
-67.2891
-64.9554
-61.8673
-57.6635
-52.093
-47.9622
-26.1424
-28.9814
-19.3807
-23.0093
-18.4458
-18.6319
-16.9007
-16.2214
-15.2849
-14.5725
-13.8978
-13.4402
-12.8408
-12.2099
-9.50488
14.4106
13.1542
16.7825
12.853
15.3796
13.4692
14.1667
13.6814
13.876
13.9474
14.136
14.1077
13.8577
13.5126
14.1178
9.51024
6.49593
8.37065
4.95735
6.87051
4.80877
5.53535
4.64835
4.54826
3.71172
2.53471
1.04011
-0.0488754
-1.30857
-3.96593
-25.965
-30.6263
-30.3023
-34.4879
-34.7701
-38.4188
-39.7286
-42.7939
-44.781
-46.9793
-48.2663
-48.9842
-49.6677
-50.8397
-51.5265
-55.4476
-58.7016
-57.5376
-60.5414
-59.7964
-62.3126
-62.4188
-64.0706
-64.62
-65.1492
-64.8997
-64.4247
-63.7648
-63.2998
-61.1986
-43.5752
-43.5259
-41.051
-41.89
-39.4391
-39.6771
-38.0498
-37.5377
-36.5101
-35.7107
-34.7504
-33.8508
-32.4859
-31.0279
-28.2509
-18.157
-16.9027
-14.8358
-14.8059
-12.5245
-12.0972
-10.3549
-9.36443
-7.9915
-6.77572
-5.48431
-4.279
-3.01154
-2.00463
-0.847401
-4.57609
-3.76959
-2.66771
-2.74599
-1.39008
-1.3733
-0.333217
-0.00350292
0.710317
1.17334
1.71432
2.14132
2.56041
2.85612
3.07088
1.4827
1.70471
2.2432
2.00007
2.77724
2.50285
3.12359
3.0523
3.42664
3.4997
3.72973
3.82909
3.99506
4.05504
4.18142
3.27343
3.35014
3.70892
3.43591
4.02573
3.72419
4.22676
4.0853
4.39751
4.41626
4.63275
4.70464
4.92785
4.97298
5.26818
9.96646
9.85637
10.0541
9.50967
9.83998
9.36717
9.55868
9.29813
9.37767
9.28352
9.36587
9.34318
9.52496
9.50583
9.86855
14.1968
14.7166
13.6963
12.5436
12.522
12.2279
12.4016
12.2616
12.2937
12.2209
12.2823
12.3075
12.5931
12.7192
13.305
41.9493
39.6972
34.7035
32.2359
31.9355
30.2351
28.296
26.6419
25.1989
24.0935
23.3134
22.7895
22.4678
22.3181
22.0026
-0.64909
-0.650124
-0.443128
-0.688964
-0.681584
-0.638459
-0.737904
-0.83757
-0.861336
-0.880265
-0.946931
-1.12366
-1.06821
-1.17901
-1.35162
-1.40383
-1.32357
-1.41506
-1.67502
-1.51641
-1.63656
-1.84551
-1.9037
-1.74174
-1.85961
-2.07811
-2.12827
-1.97849
-2.02098
-2.32751
-2.10031
-2.17498
-2.39735
-2.43153
-2.24
-2.26504
-2.55194
-2.29002
-2.33357
-2.53425
-2.53959
-2.29776
-2.33153
-2.52065
-2.50105
-2.26109
-2.23655
-2.48102
-2.14649
-2.15395
-2.32182
-2.26519
-1.96317
-1.97397
-2.12776
-2.05011
-1.73267
-1.76533
-1.98459
-1.64382
-1.53557
-1.72699
-1.70001
-1.59786
-1.15871
-1.2775
-1.39049
-0.663252
-0.720023
-0.791323
-0.805593
-0.679295
-1.20168
-1.08638
-0.0144881
-5.13356
-4.32878
-0.257257
-17.7878
-14.3247
-11.1526
-11.5797
-10.419
-21.4004
-10.2899
-7.5204
-6.80015
-6.11754
-5.56341
-4.84907
-3.31665
-2.80985
-10.8231
-3.30855
-2.2972
-0.157472
1.56188
2.46674
3.61356
5.14059
5.44717
-1.85121
6.86234
8.66776
10.3487
12.1499
14.3441
15.9524
17.2767
19.3004
19.1577
12.0806
20.8488
22.7412
24.5219
26.138
27.9505
29.8854
31.9507
30.9647
22.8859
32.0265
34.4883
36.2679
37.3799
38.2442
38.9153
41.2026
39.6092
32.7814
40.356
40.1914
41.8314
42.9779
42.2752
41.7018
40.8896
36.2967
39.4458
39.9431
36.5615
34.2939
30.8316
29.4997
26.9882
23.6327
20.9054
15.6672
13.8771
15.7131
10.514
8.39318
5.55394
2.13318
-3.79353
-5.77561
-4.94468
-15.346
-3.47369
-7.75062
-11.7851
-5.23713
-13.9155
-10.9241
-14.3375
-11.7112
-8.09444
-16.7806
-12.5475
-9.3045
-16.3507
-13.8718
-16.3637
-14.1323
-9.849
-16.7643
-14.0956
-16.2019
-13.8239
-9.72662
-16.7486
-12.7817
-9.68837
-14.5386
-12.2743
-13.4045
-11.5799
-8.29229
-12.3378
-10.2587
-11.0619
-9.40535
-6.82408
-10.1987
-7.82234
-6.04999
-8.08501
-6.71976
-6.93918
-5.88559
-4.36127
-5.72471
-4.66323
-4.78153
-3.92866
-3.03515
-3.90841
-2.95256
-2.5008
-2.9158
-2.45114
-2.57643
-2.18084
-2.00694
-2.49292
-2.39921
-2.51602
-2.5876
-2.61064
-2.87024
-2.8447
-2.74281
-2.77716
-2.6854
-2.55411
-2.35232
-2.24628
-2.08766
-2.16244
-1.96323
-1.77167
-1.64302
-1.31473
-1.57208
-1.5465
-0.724191
-1.4191
-1.07491
-0.870695
-0.634209
1.43376e-05
3.14484e-05
5.47944e-05
7.60376e-05
0.00010137
0.000127462
0.000156564
0.000187566
0.000221409
0.000257822
0.000297315
0.000339961
0.00038615
0.000436125
0.000490269
0.000548933
0.000612547
0.00068155
0.00075644
0.000837747
0.000926053
0.00102199
0.00112623
0.00123952
0.00136266
0.0014965
0.00164198
0.0018001
0.00197194
0.00215867
0.00236152
0.00258186
0.0028211
0.00308079
0.00336257
0.00366818
0.00399947
0.0043584
0.00474702
0.00516747
0.00562194
0.00611269
0.00664191
0.00721174
0.00782409
0.0084805
0.0091819
0.00992829
0.0107183
0.0115484
0.0124125
0.0133005
0.014197
0.0150804
0.0159207
0.0166786
0.0173045
0.017738
0.0179114
0.0177484
0.017176
0.0161148
0.0145047
0.0122498
0.00931567
0.00550861
0.000874527
-0.00484867
-0.0111162
-0.01807
-0.0220735
-0.0280174
-0.0227026
-0.0862114
-0.162422
-0.324421
-0.252783
-0.847321
-0.851344
4.2269e-05
9.34563e-05
0.000162461
0.000226362
0.000301397
0.000378974
0.000464994
0.000556676
0.000656509
0.000763892
0.00088022
0.00100579
0.00114171
0.00128872
0.00144794
0.00162042
0.00180739
0.00201016
0.00223017
0.00246898
0.00272829
0.00300993
0.00331588
0.00364829
0.00400949
0.00440197
0.00482844
0.0052918
0.00579519
0.00634196
0.00693574
0.00758038
0.00828004
0.00903914
0.00986239
0.0107548
0.0117217
0.0127687
0.0139016
0.0151266
0.0164499
0.017878
0.019417
0.0210732
0.0228518
0.0247574
0.0267926
0.0289576
0.0312485
0.0336559
0.0361626
0.0387408
0.0413485
0.0439258
0.0463908
0.0486362
0.050528
0.0519043
0.0525857
0.0523752
0.0510884
0.048532
0.0445675
0.0389615
0.0316249
0.0220112
0.0101122
-0.00496416
-0.0223503
-0.0428903
-0.0580621
-0.0798438
-0.0715456
-0.183186
-0.345201
-0.5808
-0.583951
-0.958781
-1.25356
6.6578e-05
0.000151162
0.000267741
0.000374881
0.000500797
0.000630777
0.000774901
0.000928434
0.00109561
0.00127539
0.00147014
0.00168035
0.00190787
0.00215395
0.00242046
0.00270914
0.0030221
0.00336149
0.00372976
0.00412949
0.00456354
0.00503498
0.00554713
0.00610359
0.00670826
0.00736532
0.00807932
0.00885512
0.00969798
0.0106135
0.0116079
0.0126874
0.0138592
0.0151307
0.0165096
0.0180046
0.0196245
0.0213787
0.023277
0.0253298
0.0275477
0.0299413
0.0325212
0.0352978
0.03828
0.0414755
0.0448888
0.04852
0.0523629
0.0564016
0.0606072
0.0649327
0.0693074
0.07363
0.077762
0.0815211
0.0846795
0.0869611
0.0880584
0.0876314
0.0853592
0.080902
0.0740104
0.0642709
0.0515128
0.0347929
0.0140776
-0.0121336
-0.0424735
-0.0783168
-0.105797
-0.144078
-0.127439
-0.25976
-0.44819
-0.716508
-0.74508
-1.04826
-1.36548
9.03612e-05
0.000208494
0.000371953
0.00052246
0.0006989
0.000881088
0.00108288
0.00129783
0.00153176
0.00178331
0.00205574
0.00234976
0.00266796
0.0030121
0.00338478
0.00378845
0.00422604
0.00470058
0.00521548
0.00577435
0.00638119
0.00704028
0.00775627
0.0085342
0.00937949
0.010298
0.0112961
0.0123805
0.0135587
0.0148384
0.0162282
0.0177371
0.0193748
0.0211517
0.0230789
0.0251681
0.0274317
0.029883
0.0325356
0.0354039
0.0385027
0.041847
0.0454516
0.0493308
0.0534973
0.0579618
0.0627306
0.0678043
0.073174
0.0788183
0.0846969
0.090745
0.0968644
0.102915
0.108703
0.113977
0.118418
0.121642
0.123221
0.122679
0.119569
0.113418
0.103875
0.0903639
0.0726294
0.0493339
0.0203417
-0.0165252
-0.0597731
-0.111393
-0.153446
-0.211495
-0.190134
-0.358586
-0.583126
-0.902397
-0.943603
-1.287
-1.59524
0.000112414
0.000264106
0.000474621
0.000668785
0.000895977
0.00113062
0.00139028
0.00166686
0.00196774
0.00229125
0.00264154
0.00301957
0.00342865
0.00387104
0.00435011
0.00486899
0.00543146
0.0060414
0.00670321
0.00742153
0.00820149
0.00904859
0.00996882
0.0109686
0.012055
0.0132355
0.0145183
0.015912
0.0174262
0.0190708
0.0208569
0.0227961
0.0249008
0.0271844
0.0296611
0.0323459
0.035255
0.0384052
0.0418141
0.0455002
0.0494826
0.0537805
0.0584129
0.0633984
0.0687534
0.0744916
0.0806215
0.0871439
0.094048
0.101306
0.108868
0.116651
0.124529
0.132323
0.139786
0.146593
0.152337
0.156521
0.158594
0.157942
0.153983
0.146106
0.133852
0.116475
0.0936243
0.0635524
0.0259819
-0.0219915
-0.0789485
-0.147482
-0.20653
-0.287671
-0.264772
-0.476929
-0.740823
-1.10985
-1.17131
-1.50909
-1.87514
0.000133583
0.00031903
0.000576193
0.000814177
0.00109202
0.00137913
0.00169654
0.00203463
0.00240228
0.00279754
0.00322544
0.00368719
0.00418681
0.00472709
0.00531213
0.00594577
0.00663261
0.00737742
0.00818552
0.00906263
0.010015
0.0110493
0.0121729
0.0133937
0.0147201
0.0161614
0.0177276
0.0194292
0.0212778
0.0232857
0.0254663
0.0278337
0.0304032
0.033191
0.0362145
0.0394921
0.0430433
0.0468888
0.0510501
0.0555498
0.0604111
0.0656575
0.0713124
0.0773983
0.0839356
0.0909411
0.0984255
0.10639
0.114822
0.123689
0.13293
0.142444
0.152081
0.161622
0.170769
0.179125
0.186195
0.191372
0.193981
0.193269
0.188523
0.178994
0.164117
0.142982
0.115138
0.0784176
0.0323451
-0.0267833
-0.0979174
-0.184253
-0.262967
-0.370543
-0.352306
-0.610214
-0.90848
-1.32042
-1.3977
-1.71803
-2.05084
0.000153706
0.000373146
0.000676657
0.000958635
0.0012871
0.00162675
0.00200188
0.00240148
0.00283582
0.00330277
0.00380816
0.0043535
0.00494351
0.00558151
0.00627232
0.00702049
0.00783146
0.00871085
0.00966495
0.0107005
0.0118249
0.013046
0.0143726
0.0158138
0.0173798
0.0190814
0.0209303
0.0229392
0.0251215
0.0274919
0.0300661
0.0328609
0.0358941
0.039185
0.0427541
0.0466231
0.0508151
0.0553544
0.0602665
0.0655781
0.0713164
0.0775095
0.0841848
0.0913692
0.0990869
0.107358
0.116195
0.125601
0.135561
0.146038
0.15696
0.168211
0.179615
0.190917
0.201765
0.211694
0.220117
0.226322
0.229503
0.228772
0.223279
0.212135
0.194669
0.169811
0.136999
0.0936418
0.0390113
-0.031474
-0.117414
-0.222603
-0.32389
-0.461003
-0.454034
-0.761515
-1.09376
-1.54683
-1.63363
-1.94322
-2.27505
0.000173054
0.000426778
0.000776193
0.00110229
0.00148125
0.00187345
0.0023062
0.0027672
0.00326809
0.00380654
0.00438922
0.00501791
0.00569802
0.00643343
0.00722966
0.008092
0.00902667
0.0100402
0.0111398
0.0123333
0.0136291
0.0150364
0.0165652
0.0182261
0.0200308
0.0219917
0.0241224
0.0264374
0.0289523
0.0316839
0.0346502
0.0378707
0.0413659
0.0451581
0.0492708
0.053729
0.0585593
0.0637898
0.0694499
0.0755702
0.0821823
0.0893184
0.0970105
0.10529
0.114184
0.123716
0.133903
0.144746
0.156232
0.168317
0.180921
0.193913
0.207092
0.220165
0.232732
0.244258
0.254068
0.261339
0.265141
0.264442
0.258257
0.245558
0.225568
0.19706
0.159365
0.109454
0.0462976
-0.0356558
-0.136959
-0.262015
-0.388947
-0.558614
-0.570807
-0.931605
-1.29994
-1.79332
-1.88527
-2.1732
-2.45598
0.000191676
0.000480006
0.000874877
0.00124521
0.00167453
0.00211928
0.00260952
0.00313184
0.00369911
0.0043089
0.00496864
0.00568044
0.00645039
0.00728289
0.00818422
0.00916034
0.0102183
0.0113655
0.0126101
0.013961
0.0154277
0.0170206
0.0187509
0.0206307
0.0226733
0.0248927
0.0273042
0.0299242
0.0327705
0.035862
0.0392192
0.0428639
0.0468196
0.0511113
0.0557656
0.060811
0.0662774
0.0721967
0.0786021
0.0855284
0.0930113
0.101087
0.109793
0.119163
0.12923
0.140021
0.151554
0.163834
0.176843
0.190537
0.204826
0.219564
0.234527
0.249388
0.263695
0.276847
0.288081
0.296463
0.300936
0.300324
0.293503
0.279306
0.25685
0.22476
0.182256
0.125873
0.0542237
-0.0393105
-0.156542
-0.302516
-0.458328
-0.663478
-0.703824
-1.12056
-1.52748
-2.06006
-2.15203
-2.40642
-2.57502
0.000209696
0.000532972
0.000972815
0.00138747
0.00186697
0.00236423
0.00291181
0.00349532
0.00412877
0.00480968
0.00554623
0.00634085
0.00720031
0.00812956
0.00913558
0.0102251
0.0114059
0.0126862
0.0140753
0.015583
0.0172198
0.0189975
0.0209286
0.0230266
0.0253061
0.0277829
0.0304741
0.033398
0.0365744
0.0400244
0.0437709
0.0478381
0.0522524
0.0570416
0.0622354
0.0678655
0.0739656
0.0805709
0.0877186
0.0954477
0.103798
0.112811
0.122526
0.132984
0.14422
0.156266
0.169142
0.182854
0.197386
0.212689
0.228665
0.245156
0.261913
0.278577
0.294649
0.30946
0.322159
0.331702
0.336902
0.336439
0.329045
0.313414
0.288558
0.252965
0.205747
0.143002
0.062938
-0.0422405
-0.175916
-0.343855
-0.531893
-0.775454
-0.854124
-1.329
-1.7783
-2.34951
-2.43592
-2.64646
-2.73727
0.000227187
0.000585756
0.00107008
0.00152912
0.00205861
0.00260832
0.00321306
0.0038576
0.00455701
0.0053088
0.00612188
0.00699902
0.00794764
0.00897325
0.0100835
0.0112859
0.0125891
0.014002
0.015535
0.0171987
0.0190051
0.0209669
0.0230978
0.025413
0.0279285
0.0306617
0.0336314
0.0368579
0.040363
0.04417
0.0483041
0.0527922
0.0576631
0.0629477
0.0686787
0.0748912
0.0816221
0.0889106
0.0967977
0.105326
0.114541
0.124486
0.135207
0.146749
0.15915
0.172447
0.186663
0.201806
0.217859
0.234771
0.252438
0.270688
0.289252
0.307739
0.325602
0.342107
0.356316
0.367075
0.373064
0.372816
0.364916
0.347917
0.320731
0.281719
0.22989
0.160913
0.0725421
-0.0443037
-0.194889
-0.385842
-0.609536
-0.894488
-1.02283
-1.55753
-2.05477
-2.66473
-2.74043
-2.89288
-2.85035
0.000244228
0.000638436
0.00116676
0.00167021
0.00224947
0.00285154
0.00351324
0.00421862
0.00498375
0.00580617
0.00669545
0.00765476
0.00869216
0.00981372
0.0110278
0.0123426
0.0137675
0.0153125
0.0169887
0.0188078
0.0207829
0.0229279
0.0252579
0.0277892
0.0305396
0.033528
0.036775
0.0403028
0.044135
0.0482974
0.0528174
0.0577243
0.0630498
0.0688276
0.0750934
0.0818856
0.0892446
0.0972132
0.105836
0.115161
0.125236
0.13611
0.147833
0.160454
0.174017
0.188561
0.204113
0.220683
0.238257
0.256779
0.276141
0.296158
0.316542
0.336872
0.356555
0.374793
0.390563
0.402596
0.409443
0.409481
0.401146
0.382851
0.353407
0.311065
0.254742
0.179687
0.0831621
-0.0453157
-0.213204
-0.428208
-0.691022
-1.02047
-1.211
-1.8066
-2.3594
-3.009
-3.06902
-3.15424
-2.87718
0.000260878
0.000691067
0.0012629
0.0018108
0.00243957
0.0030939
0.00381233
0.00457835
0.00540892
0.00630166
0.00726681
0.00830792
0.00943368
0.0106507
0.0119681
0.0133947
0.0149408
0.0166172
0.0184359
0.0204097
0.0225527
0.02488
0.0274081
0.0301546
0.0331387
0.0363811
0.039904
0.0437315
0.0478894
0.0524054
0.0573094
0.0626332
0.0684111
0.0746796
0.0814777
0.0888468
0.0968308
0.105476
0.114832
0.124949
0.13588
0.147679
0.1604
0.174096
0.188816
0.204603
0.221488
0.239484
0.258576
0.278709
0.299769
0.321562
0.343782
0.365976
0.387511
0.407525
0.424908
0.438282
0.446058
0.446459
0.437766
0.418249
0.386623
0.341044
0.280352
0.1994
0.0949183
-0.0450902
-0.230582
-0.470662
-0.776047
-1.15328
-1.41977
-2.07659
-2.69504
-3.3862
-3.42658
-3.44057
-2.97554
0.000277195
0.000743692
0.00135857
0.00195092
0.00262893
0.00333538
0.00411029
0.00493672
0.00583242
0.00679517
0.00783582
0.00895832
0.010172
0.011484
0.0129042
0.0144421
0.0161087
0.0179158
0.0198763
0.0220039
0.0243139
0.0268226
0.0295477
0.0325082
0.0357249
0.0392199
0.0430173
0.0471431
0.0516249
0.0564927
0.0617787
0.0675172
0.0737452
0.0805019
0.0878295
0.0957726
0.104379
0.113698
0.123782
0.134688
0.146471
0.15919
0.172904
0.187671
0.203543
0.220569
0.238783
0.258202
0.278812
0.300557
0.323321
0.346898
0.370968
0.395052
0.418472
0.440307
0.459363
0.474147
0.48293
0.483777
0.474806
0.454143
0.420411
0.371694
0.306771
0.220128
0.107936
-0.043422
-0.246711
-0.512864
-0.86419
-1.29281
-1.65042
-2.36794
-3.06515
-3.80056
-3.81549
-3.75368
-2.98583
0.000293226
0.000796346
0.00145381
0.00209059
0.00281757
0.00357599
0.0044071
0.00529368
0.00625419
0.00728659
0.00840234
0.0096058
0.0109069
0.0123134
0.0138358
0.0154843
0.0172708
0.0192079
0.0213093
0.0235899
0.0260661
0.0287551
0.0316761
0.0348495
0.0382973
0.0420436
0.0461141
0.0505364
0.0553403
0.0605581
0.066224
0.0723749
0.0790505
0.0862928
0.094147
0.102661
0.111886
0.121874
0.132684
0.144374
0.157005
0.17064
0.185343
0.201175
0.218196
0.236456
0.255995
0.276834
0.29896
0.322319
0.34679
0.372163
0.3981
0.424098
0.44944
0.473145
0.493935
0.510203
0.520079
0.521459
0.512294
0.490566
0.454806
0.403049
0.334042
0.241942
0.12234
-0.0400941
-0.261241
-0.554428
-0.954895
-1.43902
-1.90467
-2.68137
-3.47401
-4.25668
-4.23879
-4.09735
-3.17248
0.00030901
0.000849053
0.00154865
0.00222984
0.00300549
0.00381569
0.00470272
0.00564916
0.00667412
0.00777581
0.00896622
0.0102502
0.0116382
0.0131386
0.0147626
0.0165211
0.0184268
0.020493
0.0227346
0.0251673
0.0278085
0.0306769
0.0337926
0.0371775
0.0408553
0.0448514
0.0491932
0.0539103
0.0590346
0.0646001
0.0706438
0.0772048
0.0843254
0.0920505
0.100428
0.10951
0.11935
0.130005
0.141535
0.154005
0.16748
0.182026
0.197712
0.214605
0.232769
0.252259
0.27312
0.295375
0.319016
0.34399
0.370174
0.397352
0.425173
0.453112
0.480415
0.506043
0.528633
0.546465
0.557522
0.55953
0.55026
0.527546
0.489837
0.435141
0.362204
0.264908
0.138256
-0.0348757
-0.27379
-0.594906
-1.04744
-1.59198
-2.18453
-3.01765
-3.92696
-4.75975
-4.69929
-4.4725
-3.4411
0.000324584
0.000901831
0.00164314
0.00236868
0.0031927
0.00405449
0.0049971
0.0060031
0.00709213
0.0082627
0.00952733
0.0108913
0.0123657
0.0139594
0.0156844
0.0175521
0.0195762
0.0217708
0.0241516
0.0267355
0.0295407
0.0325873
0.0358965
0.0394918
0.043398
0.0476423
0.0522538
0.0572639
0.0627065
0.0686177
0.0750368
0.0820053
0.0895682
0.0977732
0.106671
0.116317
0.126768
0.138086
0.150333
0.163579
0.177892
0.193344
0.210009
0.227958
0.247259
0.267974
0.290152
0.31382
0.338976
0.365565
0.393468
0.422461
0.452186
0.482094
0.511397
0.539002
0.563464
0.582945
0.595279
0.598012
0.588732
0.565115
0.525533
0.467997
0.391293
0.289089
0.155803
-0.0275252
-0.283949
-0.633788
-1.14096
-1.75191
-2.49135
-3.37586
-4.42957
-5.31559
-5.1992
-4.87496
-3.76296
0.000339976
0.000954692
0.0017373
0.00250712
0.00337918
0.00429234
0.0052902
0.00635543
0.00750814
0.00874716
0.0100855
0.0115289
0.0130891
0.0147756
0.0166008
0.0185771
0.0207188
0.0230409
0.02556
0.028294
0.0312622
0.0344857
0.0379872
0.0417913
0.0459245
0.0504154
0.0552948
0.0605961
0.0663548
0.0726096
0.0794015
0.086775
0.0947773
0.103459
0.112875
0.123081
0.13414
0.146115
0.159075
0.173092
0.188238
0.204592
0.22223
0.241229
0.261663
0.283598
0.307088
0.332166
0.358834
0.387041
0.416667
0.447487
0.479133
0.51104
0.542387
0.572026
0.598433
0.619655
0.633367
0.636931
0.627736
0.603301
0.56192
0.501641
0.421334
0.314537
0.1751
-0.0177908
-0.291294
-0.670505
-1.23442
-1.91905
-2.82329
-3.75296
-4.98721
-5.93065
-5.74282
-5.3098
-4.17955
0.000355212
0.00100764
0.00183115
0.00264517
0.00356494
0.00452922
0.00558198
0.00670607
0.00792203
0.00922905
0.0106406
0.012163
0.0138083
0.0155868
0.0175116
0.0195957
0.0218542
0.0243029
0.0269593
0.0298423
0.0329723
0.0363716
0.040064
0.0440755
0.0484341
0.0531699
0.0583154
0.0639057
0.0699785
0.0765744
0.0837368
0.0915124
0.0999512
0.109107
0.119036
0.129799
0.141461
0.15409
0.167759
0.182541
0.198516
0.215766
0.234371
0.254415
0.275975
0.299124
0.323923
0.350408
0.378585
0.408411
0.439765
0.472424
0.506011
0.539947
0.573381
0.605116
0.633547
0.656604
0.671803
0.676308
0.667302
0.642131
0.599021
0.53609
0.45235
0.341297
0.196257
-0.00541173
-0.295383
-0.704431
-1.32676
-2.09344
-3.17419
-4.14944
-5.60794
-6.61217
-6.33326
-5.78024
-4.61383
0.000370312
0.00106069
0.00192471
0.00278282
0.00374997
0.00476511
0.00587238
0.00705496
0.00833372
0.00970825
0.0111925
0.0127932
0.0145231
0.0163929
0.0184165
0.0206076
0.0229819
0.0255563
0.028349
0.0313799
0.0346706
0.0382443
0.0421263
0.0463437
0.0509259
0.0559048
0.0613145
0.0671918
0.0735764
0.0805109
0.0880411
0.096216
0.105088
0.114714
0.125153
0.136469
0.148731
0.162009
0.176381
0.191924
0.208723
0.226862
0.246429
0.267511
0.290192
0.314551
0.340652
0.368539
0.398225
0.42967
0.462759
0.497267
0.532815
0.568811
0.604379
0.638273
0.668811
0.693804
0.710603
0.716167
0.707455
0.681632
0.636858
0.571359
0.484352
0.369403
0.219377
0.00987953
-0.295712
-0.734833
-1.41687
-2.27474
-3.53763
-4.57608
-6.30599
-7.36885
-6.97402
-6.28081
-5.07617
0.000385294
0.00111384
0.00201798
0.00292008
0.00393425
0.00499996
0.00616135
0.00740202
0.0087431
0.0101846
0.011741
0.0134194
0.0152332
0.0171937
0.0193153
0.0216125
0.0241018
0.0268008
0.0297287
0.0329065
0.0363565
0.0401033
0.0441733
0.048595
0.0533992
0.0586193
0.0642911
0.0704532
0.0771473
0.0844179
0.0923131
0.100884
0.110187
0.120279
0.131225
0.14309
0.155947
0.16987
0.184939
0.201238
0.218855
0.237878
0.258401
0.280515
0.304311
0.329872
0.357271
0.386557
0.417749
0.450814
0.485641
0.52201
0.559539
0.597628
0.635376
0.671496
0.704227
0.731263
0.749784
0.756531
0.748222
0.721832
0.675451
0.607456
0.517344
0.398874
0.244549
0.0283475
-0.29169
-0.760799
-1.50362
-2.46234
-3.91199
-5.05061
-7.09599
-8.2116
-7.66929
-6.83026
-5.57298
0.000400171
0.00116707
0.00211098
0.00305694
0.00411776
0.00523374
0.00644883
0.00774717
0.00915007
0.0106581
0.012286
0.0140415
0.0159384
0.0179888
0.0202076
0.02261
0.0252133
0.028036
0.031098
0.0344213
0.0380294
0.0419479
0.0462044
0.0508287
0.0558532
0.0613126
0.0672444
0.073689
0.08069
0.0882941
0.0965514
0.105516
0.115245
0.125801
0.137249
0.149659
0.163106
0.177669
0.193431
0.210481
0.228909
0.24881
0.270282
0.293422
0.318327
0.345085
0.373775
0.404455
0.43715
0.471835
0.508406
0.546647
0.586178
0.626392
0.66637
0.704783
0.739798
0.768989
0.78936
0.797421
0.789632
0.762755
0.714818
0.644385
0.551318
0.429717
0.271849
0.0502437
-0.282711
-0.781302
-1.58573
-2.65538
-4.29836
-5.589
-7.98673
-9.15326
-8.42421
-7.41627
-6.15596
0.000414954
0.0012204
0.00220371
0.00319337
0.00430048
0.00546641
0.00673477
0.00809031
0.00955452
0.0111284
0.0128272
0.0146591
0.0166386
0.018778
0.0210931
0.0235999
0.0263162
0.0292614
0.0324564
0.035924
0.0396888
0.0437775
0.0482189
0.0530442
0.058287
0.0639836
0.0701733
0.0768982
0.0842036
0.0921383
0.100755
0.110109
0.120262
0.131277
0.143223
0.156174
0.170207
0.185405
0.201855
0.219649
0.238882
0.259656
0.28207
0.306229
0.332235
0.360183
0.390159
0.422228
0.456424
0.492729
0.531048
0.571172
0.612725
0.655097
0.697355
0.738132
0.775526
0.80699
0.829346
0.83886
0.831711
0.804429
0.754973
0.682143
0.586258
0.461918
0.301327
0.0758074
-0.2682
-0.795272
-1.66184
-2.85275
-4.69707
-6.19872
-8.98659
-10.2087
-9.24346
-8.05183
-6.78393
0.000429651
0.00127382
0.00229617
0.00332938
0.00448238
0.00569791
0.00701909
0.00843138
0.00995634
0.0115956
0.0133646
0.0152723
0.0173334
0.0195611
0.0219717
0.0245818
0.0274101
0.0304767
0.0338035
0.0374141
0.0413342
0.0455915
0.0502162
0.0552406
0.0606998
0.0666317
0.073077
0.0800795
0.0876867
0.0959493
0.104922
0.114663
0.125235
0.136706
0.149146
0.162633
0.177247
0.193074
0.210207
0.228739
0.248772
0.270411
0.293761
0.318932
0.346032
0.375164
0.406419
0.439872
0.475564
0.513489
0.553559
0.595577
0.639172
0.683736
0.728324
0.771539
0.81141
0.845271
0.869756
0.88087
0.874487
0.846879
0.79593
0.720722
0.622133
0.495447
0.333013
0.105258
-0.247567
-0.801567
-1.73047
-3.05296
-5.10757
-6.88641
-10.1047
-11.3951
-10.1317
-8.73721
-7.39578
0.000444268
0.00132732
0.00238835
0.00346493
0.00466344
0.00592821
0.00730174
0.00877027
0.0103554
0.0120594
0.013898
0.0158807
0.0180227
0.0203378
0.0228429
0.0255554
0.0284946
0.0316815
0.0351388
0.038891
0.0429649
0.0473894
0.0521956
0.0574173
0.0630909
0.0692558
0.0759543
0.0832321
0.0911383
0.0997258
0.109051
0.119175
0.130164
0.142086
0.155016
0.169034
0.184224
0.200676
0.218484
0.23775
0.258576
0.281072
0.305351
0.331527
0.359714
0.390021
0.422549
0.45738
0.494566
0.534108
0.575934
0.619855
0.665513
0.712302
0.759272
0.804999
0.847449
0.883839
0.910604
0.923474
0.917989
0.890132
0.837701
0.760107
0.658901
0.53025
0.366905
0.138791
-0.220206
-0.799055
-1.79012
-3.25417
-5.52862
-7.6599
-11.3513
-12.7324
-11.0942
-9.45121
-8.06925
0.000458809
0.00138089
0.00248025
0.00360001
0.00484362
0.00615725
0.00758263
0.00910689
0.0107517
0.0125197
0.0144272
0.0164841
0.0187062
0.0211079
0.0237066
0.0265204
0.0295694
0.0328754
0.0364618
0.0403543
0.0445806
0.0491705
0.0541565
0.0595736
0.0654595
0.0718552
0.0788046
0.0863549
0.0945573
0.103467
0.113142
0.123645
0.135046
0.147415
0.160831
0.175375
0.191136
0.208207
0.226686
0.246677
0.26829
0.291637
0.316838
0.344011
0.373277
0.404752
0.438545
0.474748
0.513421
0.55458
0.598164
0.643999
0.691737
0.740785
0.79019
0.838506
0.883642
0.922695
0.951901
0.966694
0.962247
0.934215
0.880297
0.800279
0.696505
0.566248
0.402968
0.176569
-0.185495
-0.786552
-1.83926
-3.45407
-5.95835
-8.52874
-12.738
-14.2449
-12.1372
-10.2209
-8.80242
0.000473275
0.00143453
0.00257186
0.0037346
0.00502288
0.00638497
0.0078617
0.00944115
0.0111449
0.0129764
0.0149521
0.0170824
0.0193838
0.021871
0.0245624
0.0274764
0.0306341
0.0340579
0.0377722
0.0418035
0.0461805
0.0509342
0.0560982
0.0617086
0.0678048
0.074429
0.0816266
0.0894469
0.0979426
0.10717
0.117192
0.128071
0.13988
0.152692
0.166589
0.181655
0.197981
0.215665
0.234808
0.255519
0.277911
0.302102
0.328216
0.356378
0.386715
0.419351
0.454402
0.491969
0.532126
0.574899
0.620243
0.667999
0.717837
0.769176
0.821068
0.872052
0.919983
0.961843
0.99366
1.01055
1.00729
0.979158
0.923729
0.841211
0.734877
0.603336
0.441123
0.218714
-0.142807
-0.762496
-1.87583
-3.64978
-6.39443
-9.50546
-14.2785
-15.9621
-13.2661
-11.0474
-9.52192
0.000487666
0.00148823
0.00266317
0.00386866
0.00520119
0.00661132
0.00813886
0.00977296
0.0115351
0.0134293
0.0154724
0.0176754
0.0200551
0.0226271
0.02541
0.0284232
0.0316884
0.0352287
0.0390695
0.0432381
0.0477642
0.05268
0.05802
0.0638218
0.070126
0.0769763
0.0844197
0.092507
0.101293
0.110836
0.1212
0.132452
0.144664
0.157915
0.172288
0.18787
0.204756
0.223047
0.242848
0.264272
0.287436
0.312464
0.339484
0.368626
0.400026
0.433813
0.470114
0.509038
0.550672
0.595056
0.642161
0.691846
0.743803
0.797465
0.851897
0.905628
0.956466
1.00128
1.03589
1.05507
1.05315
1.02499
0.968006
0.882874
0.77393
0.641378
0.481247
0.265291
-0.0915499
-0.725115
-1.89723
-3.83748
-6.83436
-10.6065
-15.9877
-17.92
-14.4873
-11.8865
-10.2652
0.00050198
0.00154198
0.00275415
0.00400216
0.0053785
0.00683624
0.00841405
0.0101022
0.011922
0.0138783
0.015988
0.0182629
0.02072
0.0233757
0.0262491
0.0293604
0.0327318
0.0363874
0.0403532
0.0446576
0.0493312
0.0544072
0.0599213
0.0659124
0.0724224
0.0794962
0.0871827
0.0955342
0.104607
0.114463
0.125165
0.136785
0.149398
0.163083
0.177926
0.19402
0.21146
0.230352
0.250805
0.272934
0.296863
0.322719
0.350636
0.380751
0.413204
0.448135
0.485676
0.52595
0.569054
0.615045
0.663911
0.715532
0.769623
0.82564
0.882663
0.939222
0.993085
1.04101
1.0786
1.10028
1.09987
1.07175
1.01314
0.925231
0.813563
0.680208
0.523159
0.316297
-0.0311649
-0.672816
-1.90085
-4.01248
-7.2757
-11.8515
-17.8776
-20.1607
-15.8088
-12.8005
-11.0655
0.000516213
0.00159577
0.0028448
0.00413509
0.00555477
0.00705966
0.00868718
0.0104288
0.0123056
0.0143232
0.0164988
0.0188446
0.0213783
0.0241167
0.0270796
0.0302877
0.0337641
0.0375336
0.041623
0.0460616
0.0508809
0.0561152
0.0618015
0.0679797
0.074693
0.081988
0.0899148
0.0985276
0.107885
0.118048
0.129086
0.141071
0.154078
0.168193
0.183502
0.200101
0.21809
0.237577
0.258674
0.281503
0.306188
0.332865
0.361671
0.392749
0.426246
0.46231
0.501083
0.542698
0.587265
0.634858
0.685483
0.739046
0.795286
0.853688
0.913355
0.972822
1.02983
1.08103
1.12181
1.14619
1.14747
1.11947
1.05914
0.968243
0.853663
0.719627
0.566621
0.371649
0.0388624
-0.604143
-1.88419
-4.16978
-7.71597
-13.2591
-19.9548
-22.7307
-17.2379
-13.7343
-11.8451
0.000530362
0.00164959
0.0029351
0.00426739
0.00572995
0.00728151
0.00895816
0.0107526
0.0126858
0.0147639
0.0170045
0.0194204
0.0220297
0.0248497
0.027901
0.0312048
0.0347849
0.0386668
0.0428783
0.0474494
0.0524128
0.0578036
0.0636599
0.070023
0.0769373
0.0844507
0.0926151
0.101486
0.111124
0.121593
0.132962
0.145306
0.158705
0.173244
0.189014
0.206113
0.224645
0.244719
0.266454
0.289974
0.315409
0.342898
0.372583
0.404615
0.439147
0.476335
0.51633
0.559276
0.605298
0.654487
0.70687
0.762378
0.820781
0.881596
0.943957
1.00641
1.06669
1.12134
1.16551
1.19284
1.19601
1.16818
1.10603
1.01187
0.894098
0.759396
0.611323
0.431166
0.118984
-0.517683
-1.8446
-4.30381
-8.15197
-14.8403
-22.2268
-25.6827
-18.7832
-14.723
-12.7113
0.00054442
0.00170344
0.00302501
0.00439904
0.00590399
0.00750172
0.0092269
0.0110735
0.0130623
0.0152002
0.017505
0.0199901
0.0226739
0.0255746
0.028713
0.0321113
0.0357938
0.0397867
0.0441187
0.0488208
0.0539263
0.0594716
0.0654959
0.0720416
0.0791543
0.0868836
0.0952826
0.104409
0.114324
0.125094
0.13679
0.14949
0.163276
0.178234
0.19446
0.212053
0.231121
0.251777
0.274143
0.298346
0.324522
0.352814
0.38337
0.416347
0.451904
0.490204
0.53141
0.575678
0.623147
0.673924
0.728061
0.785517
0.846094
0.90935
0.974453
1.03998
1.10364
1.16192
1.20972
1.24024
1.24551
1.21795
1.15382
1.05606
0.934725
0.799242
0.656877
0.494563
0.209555
-0.412173
-1.77862
-4.40601
-8.57833
-16.5922
-24.7186
-29.0812
-20.4529
-15.7615
-13.4903
0.000558379
0.00175729
0.00311453
0.00453
0.00607684
0.00772023
0.00949332
0.0113914
0.0134351
0.015632
0.0180001
0.0205534
0.0233109
0.026291
0.0295155
0.0330069
0.0367904
0.0408929
0.0453439
0.050175
0.0554209
0.0611187
0.0673088
0.0740347
0.0813434
0.0892857
0.0979164
0.107294
0.117483
0.128551
0.140571
0.153622
0.167789
0.183162
0.199837
0.217919
0.237517
0.258748
0.281737
0.306616
0.333525
0.362611
0.394028
0.427939
0.46451
0.503913
0.54632
0.591899
0.640803
0.693161
0.749047
0.808451
0.871213
0.936933
1.00483
1.07351
1.14068
1.20276
1.25443
1.28842
1.29603
1.26881
1.20254
1.10077
0.975386
0.838854
0.702813
0.56143
0.310791
-0.286693
-1.68263
-4.4661
-8.9863
-18.4968
-27.494
-33.0119
-22.2548
-16.7789
-14.2471
0.000572231