/*--------------------------------*- C++ -*----------------------------------*\
| =========                 |                                                 |
| \\      /  F ield         | OpenFOAM: The Open Source CFD Toolbox           |
|  \\    /   O peration     | Version:  4.1                                   |
|   \\  /    A nd           | Web:      www.OpenFOAM.org                      |
|    \\/     M anipulation  |                                                 |
\*---------------------------------------------------------------------------*/
FoamFile
{
    version     2.0;
    format      ascii;
    class       surfaceScalarField;
    location    "4";
    object      phi;
}
// * * * * * * * * * * * * * * * * * * * * * * * * * * * * * * * * * * * * * //

dimensions      [0 3 -1 0 0 0 0];

internalField   nonuniform List<scalar> 
13220
(
-804.115
2104.02
-1250.2
1746.29
-1708.9
1758.6
-2043.44
1634.44
-2316.21
1572.98
-2509.62
1493.3
-2631.68
1421.97
-2680.39
1348.91
-2658.09
1277.59
-2562.35
1204.17
-2391.43
1129.28
-2136.58
1045.04
-1734.74
898.071
-1047.08
612.535
252.822
-176.553
2280.57
-388.449
1958.18
-622.951
1993.11
-788.262
1799.75
-941.143
1725.86
-1041.88
1594.04
-1111.23
1491.32
-1144.7
1382.38
-1153.59
1286.48
-1141.56
1192.14
-1102.62
1090.34
-1015.82
958.237
-844.969
727.223
-533.515
301.084
-280.692
-101.774
2382.35
-241.403
2097.81
-328.938
2080.64
-363.072
1833.89
-386.178
1748.97
-367.654
1575.52
-331.527
1455.2
-260.05
1310.91
-143.314
1169.75
17.3908
1031.44
183.4
924.339
320.829
820.815
383.42
664.642
283.412
401.111
2.71966
-15.5493
2397.9
-60.2302
2142.5
-80.5871
2101
-108.811
1862.11
-139.449
1779.61
-175.462
1611.53
-217.722
1497.46
-224.621
1317.81
-134.454
1079.59
84.7153
812.277
369.872
639.186
619.17
571.517
711.964
571.848
521.005
592.07
523.724
-98.5318
2496.43
-225.277
2269.24
-334.013
2209.74
-468.6
1996.7
-609.884
1920.89
-766.673
1768.32
-940.864
1671.65
-1104.41
1481.35
-1213.73
1188.91
-1207.74
806.292
-1059.06
490.504
-773.034
285.495
-412.601
211.418
-118.082
297.555
405.642
-5.28125
2501.71
-161.915
2425.88
-249.701
2297.52
-334.637
2081.64
-415.24
2001.49
-491.356
1844.44
-567.067
1747.36
-664.784
1579.07
-818.628
1342.75
-1024.87
1012.53
-1208.8
674.44
-1267.07
343.76
-1111.76
56.1021
-649.749
-164.469
-244.107
195.468
2306.24
116.843
2504.5
130.503
2283.86
174.375
2037.76
240.405
1935.46
313.223
1771.62
405.208
1655.37
479.523
1504.75
486.773
1335.5
380.226
1119.08
185.004
869.662
-53.5744
582.343
-212.433
214.966
-233.594
-143.304
-477.701
240.808
2065.43
248.415
2496.89
305.685
2226.59
392.922
1950.53
498.822
1829.56
606.408
1664.03
726.378
1535.4
842.237
1388.89
932.566
1245.17
960.929
1090.71
911.719
918.872
771.052
723.005
505.628
480.384
188.819
173.497
-288.882
157.009
1908.43
182.506
2471.4
225.065
2184.03
283.686
1891.91
344.165
1769.08
402.985
1605.21
460.578
1477.81
514.641
1334.83
556.909
1202.9
576.185
1071.44
558.024
937.032
493.351
787.681
372.802
600.935
206.117
340.185
-82.765
81.9138
1826.51
95.354
2457.95
110.672
2168.71
135.181
1867.4
157.326
1746.94
177.835
1584.7
193.417
1462.23
209.666
1318.58
219.669
1192.9
224.902
1066.2
218.301
943.632
193.449
812.529
144.72
649.659
73.344
411.542
-9.42123
59.1023
1767.41
65.7377
2451.32
58.6819
2175.77
63.0754
1863
73.0432
1736.97
80.3061
1577.44
82.5982
1459.94
84.3976
1316.78
84.3839
1192.91
84.5707
1066.01
84.1663
944.035
78.5125
818.183
62.1618
666.008
19.3183
454.368
9.89668
74.3372
1693.07
101.105
2424.55
79.9821
2196.89
64.4952
1878.49
75.1433
1726.32
85.5109
1567.07
98.0473
1447.4
103.508
1311.32
106.632
1189.79
106.055
1066.59
103.394
946.696
96.0497
825.525
80.9213
681.134
31.5554
503.722
41.452
115.504
1577.57
196.229
2343.82
226.033
2167.09
245.284
1859.24
284.38
1687.22
312.368
1539.08
336.253
1423.51
345.073
1302.5
343.806
1191.05
330.405
1079.99
307.702
969.399
274.287
858.94
229.446
725.974
155.414
577.753
196.866
242.676
1334.89
343.381
2243.12
308.47
2202
252.293
1915.41
256.849
1682.67
293.939
1501.99
351.076
1366.38
401.735
1251.84
437.254
1155.53
446.049
1071.2
424.05
991.398
368.971
914.019
278.693
816.252
154.636
701.81
351.502
599.032
1462.33
1880.77
1929.44
1902.47
1907.98
1894.28
1844.55
1750.34
1602.82
1402.92
1161.96
866.254
520.912
2.19243e-05
185.143
-185.143
185.143
185.143
185.143
352.659
-167.516
352.659
352.659
352.659
485.336
-132.678
485.336
485.336
574.529
-89.1927
574.529
574.529
574.529
626.931
-52.4015
626.931
626.931
661.009
-34.078
661.009
661.009
661.009
681.349
-20.3402
681.349
681.349
681.349
696.423
-15.0744
696.423
696.423
698.593
-2.17008
698.593
698.593
698.593
696.42
2.17356
696.42
696.42
695.365
1.05469
695.365
695.365
695.365
699.577
-4.21189
699.577
699.577
699.577
706.947
-7.36987
706.947
706.947
713.316
-6.36938
713.316
713.316
713.316
730.011
-16.6947
730.011
730.011
730.011
754.167
-24.156
754.167
754.167
691.853
62.3141
691.853
691.853
691.853
507.905
183.948
507.905
507.905
204.403
303.502
204.403
204.403
204.403
-588.939
793.342
-588.939
-588.939
-588.939
-2101.5
1512.56
-2101.5
-2101.5
-4089.08
1987.57
-4089.08
-4089.08
-3924.58
-3762.09
-3595.93
-5668.56
2232
-5502.71
-5316.44
-5120.78
-4925.1
-4728.65
-4531.44
-4330.4
-4121.86
-6321.26
2405.14
-6110.13
-5899.62
-5690.45
-5474.81
-5258.93
-5042.95
-4826.29
-4607.35
-6882.02
2494.52
-6657.21
-6432.9
-6209.37
-5986.23
-5761.58
-5533.46
-5305.31
-5075.96
-4844.79
-7116.43
2498.61
-6882.03
-6647.83
-6413.86
-6179.97
-5945.48
-5704.18
-5458.49
-5211.26
-7400.43
2432.37
-7158.64
-6912.1
-6656.98
-6400.25
-6141.03
-5880.1
-5616.33
-5333.59
-7412.93
2358.2
-7136.68
-6857.04
-6573.77
-6270.63
-5956.06
-5637.19
-5312.1
-4982.61
-6997.64
2348.29
-6648.8
-6297.1
-5945.2
-5595.36
-5250.02
-4884.78
-4530.88
-4188.57
-3861.92
-4400.33
848.076
-4121.03
-3855.21
-3593.11
-3335.8
-3083.95
-2872.41
-2731.14
-2591.07
-2563.77
119.052
-2436.82
-2314.34
-2314.34
-2450.56
136.225
-2502.44
51.8765
-2502.44
-2563.56
61.1209
-2563.56
-2623.68
60.1128
-2643.64
19.9652
-2643.64
-2663.95
20.3075
-2651.29
-12.6539
-2651.29
-2636.16
-15.1337
-2636.16
-2621.48
-14.6779
-2579.8
-41.6815
-2579.8
-2535.28
-44.5191
-2535.28
-2488.93
-46.3564
-2417.91
-71.0142
-2417.91
-2351.59
-66.3228
-2266.84
-84.7503
-2266.84
-2180.59
-86.2501
-2180.59
-2096.41
-84.1764
-1999.36
-97.0499
-1999.36
-1902.4
-96.9639
-1902.4
-1812.31
-90.0837
-1712.92
-99.3975
-1712.92
-1612.97
-99.9511
-1501.62
-111.346
-1501.62
-1389.12
-112.497
-1389.12
-1279.44
-109.682
-1163.26
-116.185
-1163.26
-1041.82
-121.44
-1041.82
-927.795
-114.02
-812.484
-115.311
-812.484
-688.659
-123.825
-564.059
-124.6
-564.059
-439.091
-124.967
-439.091
-307.502
-131.589
-173.32
-134.182
-173.32
-54.6356
-118.685
-54.6356
47.1811
-101.817
151.316
-104.135
151.316
233.042
-81.726
321.309
-88.2673
321.309
408.396
-87.0865
408.396
499.965
-91.5693
609.249
-109.284
609.249
719.413
-110.164
719.413
827.953
-108.54
947.993
-120.04
947.993
1063.68
-115.686
1186.77
-123.088
1186.77
1311.48
-124.708
1311.48
-126.835
-3.21565
-16.8047
-3.1571
-24.1073
-3.14883
-29.3764
-3.14635
-34.2588
-3.1634
-39.1442
-3.19129
-43.8153
-3.23391
-48.4862
-3.28876
-53.0998
-3.3571
-57.7376
-3.43813
-62.396
-3.53229
-67.1144
-3.63931
-71.9042
-3.75937
-76.7902
-3.89244
-81.788
-4.03866
-86.9169
-4.19814
-92.1931
-4.37107
-97.634
-4.55767
-103.256
-4.75822
-109.075
-4.97304
-115.108
-5.20252
-121.372
-5.4471
-127.882
-5.70727
-134.655
-5.98358
-141.709
-6.27665
-149.06
-6.58713
-156.727
-6.91577
-164.728
-7.26334
-173.08
-7.6307
-181.804
-8.01876
-190.919
-8.42851
-200.445
-8.861
-210.404
-9.31733
-220.816
-9.7987
-231.706
-10.3064
-243.095
-10.8416
-255.009
-11.4059
-267.472
-12.0006
-280.51
-12.6272
-294.15
-13.2873
-308.419
-13.9824
-323.346
-14.7141
-338.959
-15.4839
-355.288
-16.2933
-372.361
-17.1434
-390.207
-18.0352
-408.853
-18.9693
-428.324
-19.9455
-448.641
-20.9629
-469.819
-22.0192
-491.864
-23.1105
-514.771
-24.2305
-538.516
-25.3697
-563.052
-26.5145
-588.302
-27.6462
-614.148
-28.739
-640.42
-29.7587
-666.886
-30.6603
-693.237
-31.3861
-719.079
-31.8625
-743.904
-31.9975
-767.105
-31.6751
-787.893
-30.755
-805.369
-29.058
-818.245
-26.381
-825.115
-22.461
-823.5
-17.0529
-810.99
-9.84947
-782.119
-0.810413
-732.686
10.0534
-650.047
21.2229
-528.494
34.6464
-320.709
41.2808
55.5751
41.4502
426.847
35.0403
689.1
44.7828
1076.28
28.6782
1144.92
101.761
1881.03
2099.29
-3.77941
-16.8986
-3.69691
-24.1898
-3.68057
-29.3928
-3.67393
-34.2655
-3.69153
-39.1266
-3.72272
-43.7841
-3.77144
-48.4375
-3.83467
-53.0366
-3.91363
-57.6587
-4.00737
-62.3023
-4.11625
-67.0055
-4.23997
-71.7804
-4.37868
-76.6515
-4.53233
-81.6343
-4.70104
-86.7482
-4.88492
-92.0092
-5.08418
-97.4347
-5.29906
-103.041
-5.52984
-108.844
-5.7769
-114.861
-6.04065
-121.108
-6.32157
-127.601
-6.62021
-134.356
-6.93717
-141.392
-7.27313
-148.724
-7.62881
-156.372
-8.00502
-164.352
-8.40261
-172.683
-8.82253
-181.384
-9.26577
-190.476
-9.7334
-199.977
-10.2266
-209.91
-10.7465
-220.296
-11.2944
-231.158
-11.8717
-242.518
-12.4797
-254.401
-13.1201
-266.832
-13.7942
-279.836
-14.5037
-293.441
-15.2502
-307.673
-16.0352
-322.561
-16.8604
-338.134
-17.7273
-354.421
-18.6371
-371.451
-19.5909
-389.253
-20.5895
-407.854
-21.6329
-427.28
-22.7204
-447.553
-23.8501
-468.689
-25.0186
-490.696
-26.2201
-513.57
-27.4461
-537.29
-28.6841
-561.814
-29.9166
-587.07
-31.1198
-612.945
-32.2619
-639.277
-33.3012
-665.847
-34.1842
-692.354
-34.8431
-718.42
-35.1927
-743.555
-35.1288
-767.169
-34.5201
-788.502
-33.2094
-806.68
-30.9952
-820.459
-27.6474
-828.463
-22.8674
-828.28
-16.3744
-817.483
-7.82749
-790.666
2.80153
-743.315
15.467
-662.712
28.3934
-541.421
43.4176
-335.734
51.7546
47.2381
46.6657
431.936
38.2121
697.554
46.2238
1068.27
29.9731
1161.17
102.13
1808.88
2076.71
-4.08716
-17.005
-3.99621
-24.2808
-3.97502
-29.414
-3.96661
-34.2739
-3.98457
-39.1086
-4.01789
-43.7508
-4.07015
-48.3852
-4.13825
-52.9685
-4.2233
-57.5736
-4.32426
-62.2013
-4.44149
-66.8883
-4.57463
-71.6473
-4.72382
-76.5023
-4.889
-81.4691
-5.0703
-86.5669
-5.26781
-91.8117
-5.48175
-97.2208
-5.71236
-102.81
-5.95995
-108.597
-6.22491
-114.596
-6.50766
-120.825
-6.80873
-127.3
-7.12867
-134.036
-7.46811
-141.052
-7.82778
-148.365
-8.20842
-155.991
-8.61088
-163.949
-9.03607
-172.258
-9.48495
-180.935
-9.95858
-190.002
-10.4581
-199.478
-10.9846
-209.384
-11.5394
-219.742
-12.1239
-230.573
-12.7394
-241.902
-13.3874
-253.753
-14.0694
-266.15
-14.787
-279.118
-15.5418
-292.686
-16.3355
-306.879
-17.1697
-321.727
-18.0458
-337.258
-18.9655
-353.501
-19.93
-370.487
-20.9402
-388.243
-21.9966
-406.798
-23.0991
-426.178
-24.2467
-446.406
-25.4368
-467.499
-26.6653
-489.467
-27.9255
-512.309
-29.2075
-536.008
-30.497
-560.525
-31.7745
-585.792
-33.0132
-611.706
-34.1781
-638.113
-35.2236
-664.801
-36.0913
-691.486
-36.7086
-717.803
-36.9847
-743.278
-36.8092
-767.345
-36.0438
-789.267
-34.5228
-808.201
-32.0334
-822.949
-28.3304
-832.166
-23.0953
-833.515
-16.0224
-824.556
-6.75184
-799.937
4.75914
-754.826
18.458
-676.411
32.5475
-555.51
47.8201
-351.006
59.6407
35.4175
54.3576
437.219
43.1583
708.753
48.7581
1062.67
31.508
1178.42
99.2123
1741.17
2052.84
-4.43903
-17.1222
-4.34116
-24.3786
-4.31613
-29.439
-4.3066
-34.2834
-4.32567
-39.0896
-4.36196
-43.7145
-4.41878
-48.3284
-4.49294
-52.8943
-4.58541
-57.4811
-4.69513
-62.0916
-4.8224
-66.761
-4.96683
-71.5029
-5.12856
-76.3406
-5.3075
-81.2902
-5.50378
-86.3706
-5.71751
-91.598
-5.9489
-96.9894
-6.1982
-102.561
-6.46576
-108.329
-6.75197
-114.31
-7.05728
-120.52
-7.38224
-126.975
-7.72745
-133.691
-8.09358
-140.686
-8.48137
-147.977
-8.89164
-155.581
-9.32527
-163.515
-9.7832
-171.8
-10.2665
-180.452
-10.7762
-189.492
-11.3135
-198.941
-11.8797
-208.818
-12.4761
-219.145
-13.104
-229.945
-13.7649
-241.241
-14.4604
-253.057
-15.1921
-265.418
-15.9615
-278.349
-16.7703
-291.877
-17.6203
-306.029
-18.513
-320.834
-19.45
-336.321
-20.4329
-352.519
-21.4627
-369.457
-22.5404
-387.165
-23.6663
-405.672
-24.84
-425.004
-26.0599
-445.186
-27.3232
-466.236
-28.6247
-488.166
-29.9567
-510.977
-31.3078
-534.657
-32.6619
-559.171
-33.997
-584.457
-35.2832
-610.42
-36.4815
-636.914
-37.5419
-663.741
-38.4008
-690.628
-38.9795
-717.224
-39.1807
-743.077
-38.8865
-767.639
-37.9506
-790.203
-36.1973
-809.954
-33.4008
-825.745
-29.298
-836.269
-23.5467
-839.266
-15.8108
-832.292
-5.701
-810.046
6.8525
-767.38
21.8012
-691.36
37.3552
-571.064
54.0178
-367.669
69.0553
20.3799
64.4375
441.837
50.5983
722.592
52.6562
1060.62
34.1272
1196.95
97.2354
1678.06
2034.39
-4.77175
-17.2463
-4.67028
-24.4801
-4.6424
-29.4669
-4.63253
-34.2933
-4.65314
-39.069
-4.69268
-43.6749
-4.75425
-48.2668
-4.83454
-52.814
-4.93445
-57.3812
-5.05287
-61.9732
-5.19005
-66.6239
-5.34561
-71.3473
-5.51963
-76.1666
-5.71204
-81.0978
-5.92297
-86.1597
-6.15251
-91.3684
-6.40091
-96.741
-6.66841
-102.294
-6.95538
-108.042
-7.26223
-114.003
-7.58945
-120.192
-7.93761
-126.626
-8.30734
-133.321
-8.69935
-140.294
-9.11441
-147.562
-9.55339
-155.142
-10.0172
-163.052
-10.5069
-171.31
-11.0235
-179.935
-11.5681
-188.948
-12.1421
-198.367
-12.7466
-208.213
-13.3832
-218.509
-14.0531
-229.275
-14.7581
-240.537
-15.4995
-252.316
-16.2792
-264.638
-17.0987
-277.529
-17.9598
-291.016
-18.8642
-305.125
-19.8135
-319.885
-20.8095
-335.325
-21.8534
-351.475
-22.9464
-368.364
-24.0894
-386.022
-25.2825
-404.479
-26.5251
-423.762
-27.8152
-443.896
-29.1493
-464.902
-30.5216
-486.793
-31.9234
-509.576
-33.342
-533.238
-34.7593
-557.753
-36.151
-583.066
-37.4843
-609.086
-38.7168
-635.682
-39.7939
-662.664
-40.6473
-689.774
-41.1926
-716.679
-41.3266
-742.943
-40.9247
-768.04
-39.8335
-791.294
-37.8681
-811.919
-34.7911
-828.822
-30.3226
-840.737
-24.0968
-845.492
-15.745
-840.643
-4.84379
-820.948
8.71951
-780.943
24.9133
-707.554
42.0267
-588.178
60.5402
-386.182
78.4665
2.45366
76.3154
443.988
60.8795
738.028
58.6336
1062.86
37.9677
1217.61
94.5868
1621.45
2008.93
-5.09995
-17.375
-4.99694
-24.5831
-4.96726
-29.4966
-4.95782
-34.3027
-4.98047
-39.0463
-5.0237
-43.6317
-5.09036
-48.2002
-5.17713
-52.7273
-5.28479
-57.2736
-5.41221
-61.8458
-5.55961
-66.4765
-5.72656
-71.1803
-5.91316
-75.98
-6.11932
-80.8916
-6.34516
-85.9338
-6.5908
-91.1228
-6.85647
-96.4754
-7.14245
-102.008
-7.44911
-107.736
-7.77689
-113.675
-8.12632
-119.843
-8.49797
-126.255
-8.89253
-132.927
-9.31072
-139.876
-9.75339
-147.119
-10.2214
-154.674
-10.7158
-162.557
-11.2375
-170.788
-11.7878
-179.385
-12.3678
-188.368
-12.9788
-197.756
-13.6222
-207.57
-14.2994
-217.831
-15.0119
-228.563
-15.7613
-239.787
-16.5493
-251.528
-17.3775
-263.81
-18.2476
-276.659
-19.1616
-290.102
-20.121
-304.165
-21.1277
-318.878
-22.1832
-334.269
-23.289
-350.369
-24.4461
-367.207
-25.6553
-384.813
-26.9166
-403.217
-28.229
-422.449
-29.5904
-442.534
-30.9966
-463.495
-32.4413
-485.349
-33.9146
-508.102
-35.4025
-531.751
-36.8853
-556.271
-38.3362
-581.615
-39.7199
-607.703
-40.9902
-634.411
-42.0885
-661.565
-42.9415
-688.921
-43.4596
-716.161
-43.5336
-742.869
-43.0328
-768.541
-41.7969
-792.53
-39.6327
-814.084
-36.2916
-832.163
-31.4769
-845.552
-24.7987
-852.17
-15.8527
-849.589
-4.17386
-832.627
10.4076
-795.524
27.8905
-725.037
46.6947
-606.982
67.2171
-406.705
87.846
-18.1753
89.032
442.802
73.5458
753.515
66.9424
1069.46
43.4693
1241.08
90.8981
1574.02
1991.29
-5.42133
-17.5062
-5.31861
-24.6859
-5.28803
-29.5271
-5.27971
-34.3111
-5.30487
-39.0212
-5.35218
-43.5844
-5.42426
-48.1281
-5.51778
-52.6337
-5.63343
-57.1579
-5.77008
-61.7091
-5.92788
-66.3187
-6.10642
-71.0018
-6.30576
-75.7807
-6.52582
-80.6716
-6.76672
-85.6929
-7.02858
-90.8609
-7.31165
-96.1923
-7.61621
-101.703
-7.94267
-107.409
-8.29149
-113.327
-8.6632
-119.471
-9.05844
-125.86
-9.4779
-132.507
-9.92237
-139.432
-10.3927
-146.649
-10.8899
-154.177
-11.4149
-162.032
-11.9688
-170.234
-12.5528
-178.801
-13.1682
-187.752
-13.8163
-197.108
-14.4986
-206.887
-15.2165
-217.114
-15.9716
-227.808
-16.7656
-238.993
-17.6001
-250.693
-18.4769
-262.933
-19.3979
-275.738
-20.3648
-289.135
-21.3794
-303.151
-22.4435
-317.814
-23.5588
-333.154
-24.7265
-349.201
-25.9479
-365.985
-27.2235
-383.537
-28.5532
-401.888
-29.9359
-421.067
-31.369
-441.101
-32.8479
-462.016
-34.3656
-483.831
-35.9114
-506.557
-37.4698
-530.192
-39.0196
-554.721
-40.5319
-580.102
-41.9685
-606.266
-43.2798
-633.1
-44.4032
-660.442
-45.2608
-688.064
-45.7578
-715.664
-45.7794
-742.848
-45.1894
-769.131
-43.8208
-793.899
-41.4731
-816.431
-37.8873
-835.749
-32.7503
-850.689
-25.6479
-859.273
-16.1372
-859.1
-3.70457
-845.059
11.8908
-811.12
30.692
-743.838
51.29
-627.58
73.9312
-429.346
97.3309
-41.575
102.053
438.08
87.7004
767.867
77.5156
1079.65
51.2573
1267.34
88.2276
1537.05
1969.35
-5.73714
-17.6381
-5.63607
-24.7869
-5.60544
-29.5578
-5.59892
-34.3176
-5.62705
-38.993
-5.67883
-43.5326
-5.75664
-48.0503
-5.8572
-52.5332
-5.98111
-57.034
-6.12723
-61.563
-6.29566
-66.1502
-6.48599
-70.8115
-6.69827
-75.5684
-6.93242
-80.4374
-7.18855
-85.4368
-7.4668
-90.5827
-7.76742
-95.8917
-8.09073
-101.38
-8.43714
-107.063
-8.80713
-112.957
-9.20127
-119.077
-9.62023
-125.441
-10.0647
-132.063
-10.5356
-138.961
-11.0338
-146.151
-11.5602
-153.65
-12.116
-161.477
-12.7022
-169.648
-13.3201
-178.183
-13.9711
-187.101
-14.6565
-196.422
-15.3778
-206.166
-16.1366
-216.355
-16.9345
-227.01
-17.7732
-238.154
-18.6545
-249.812
-19.5802
-262.008
-20.5521
-274.766
-21.5722
-288.115
-22.6422
-302.081
-23.7641
-316.692
-24.9393
-331.979
-26.1694
-347.971
-27.4554
-364.699
-28.7978
-382.195
-30.1964
-400.489
-31.6499
-419.613
-33.1553
-439.596
-34.7078
-460.464
-36.2996
-482.239
-37.919
-504.937
-39.5495
-528.562
-41.1682
-553.102
-42.7442
-578.526
-44.2366
-604.774
-45.5926
-631.744
-46.7457
-659.289
-47.6134
-687.196
-48.096
-715.181
-48.0735
-742.87
-47.4041
-769.801
-45.9155
-795.388
-43.4002
-818.947
-39.5899
-839.559
-34.1558
-856.123
-26.6583
-866.77
-16.6137
-869.145
-3.45224
-858.221
13.1513
-827.723
33.2995
-763.986
55.7866
-650.067
80.6363
-454.196
107.031
-67.9696
115.191
429.92
102.536
780.522
89.7697
1092.42
60.999
1296.11
83.8452
1514.2
1943.92
-6.04777
-17.7694
-5.94944
-24.8853
-5.91954
-29.5877
-5.91543
-34.3217
-5.94698
-38.9615
-6.0036
-43.476
-6.08747
-47.9664
-6.19537
-52.4253
-6.32779
-56.9016
-6.4836
-61.4072
-6.66289
-65.971
-6.86522
-70.6091
-7.09063
-75.343
-7.33905
-80.189
-7.61059
-85.1652
-7.90539
-90.2879
-8.22373
-95.5733
-8.56593
-101.037
-8.93243
-106.696
-9.32374
-112.565
-9.74046
-118.66
-10.1833
-124.998
-10.653
-131.593
-11.1504
-138.463
-11.6765
-145.625
-12.2323
-153.094
-12.819
-160.89
-13.4377
-169.029
-14.0897
-177.531
-14.7764
-186.415
-15.4992
-195.699
-16.2597
-205.406
-17.0596
-215.555
-17.9004
-226.169
-18.784
-237.271
-19.7122
-248.884
-20.687
-261.033
-21.7101
-273.743
-22.7836
-287.041
-23.9093
-300.955
-25.0891
-315.513
-26.3246
-330.743
-27.6174
-346.678
-28.9683
-363.348
-30.3779
-380.785
-31.8459
-399.021
-33.3708
-418.088
-34.9493
-438.017
-36.5761
-458.837
-38.2429
-480.573
-39.9373
-503.243
-41.6415
-526.857
-43.3312
-551.412
-44.9734
-576.884
-46.5248
-603.222
-47.9294
-630.34
-49.1169
-658.101
-50.0005
-686.312
-50.4756
-714.706
-50.4175
-742.928
-49.6793
-770.539
-48.0838
-796.983
-45.4175
-821.613
-41.4039
-843.573
-35.6989
-861.828
-27.8376
-874.632
-17.2929
-879.689
-3.43114
-872.082
14.1698
-845.324
35.6889
-785.505
60.1471
-674.525
87.2813
-481.33
116.886
-97.5741
128.407
418.398
117.62
791.31
102.843
1107.19
71.3536
1327.6
75.3458
1510.21
1927.69
-6.35369
-17.8991
-6.25897
-24.98
-6.23052
-29.6161
-6.22939
-34.3228
-6.26479
-38.9261
-6.32663
-43.4141
-6.41687
-47.8762
-6.53238
-52.3098
-6.67358
-56.7604
-6.83933
-61.2414
-7.02969
-65.7806
-7.24423
-70.3946
-7.48298
-75.1042
-7.74585
-79.9261
-8.03297
-84.8781
-8.3445
-89.9763
-8.68072
-95.2371
-9.04197
-100.676
-9.42872
-106.309
-9.8415
-112.152
-10.2809
-118.221
-10.7478
-124.531
-11.2428
-131.098
-11.7669
-137.939
-12.3211
-145.07
-12.9065
-152.509
-13.5242
-160.272
-14.1755
-168.378
-14.8617
-176.845
-15.5843
-185.692
-16.3447
-194.939
-17.1446
-204.606
-17.9857
-214.714
-18.8697
-225.285
-19.7984
-236.342
-20.7738
-247.909
-21.7977
-260.009
-22.8723
-272.669
-23.9994
-285.914
-25.1811
-299.773
-26.4192
-314.274
-27.7153
-329.447
-29.071
-345.323
-30.4873
-361.932
-31.9646
-379.308
-33.5025
-397.483
-35.0993
-416.491
-36.7516
-436.365
-38.4537
-457.135
-40.1967
-478.83
-41.9674
-501.472
-43.747
-525.078
-45.5098
-549.65
-47.221
-575.173
-48.8347
-601.609
-50.292
-628.882
-51.519
-656.874
-52.4246
-685.407
-52.8998
-714.231
-52.815
-743.013
-52.0189
-771.335
-50.3301
-798.672
-47.5302
-824.413
-43.3354
-847.768
-37.3874
-867.776
-29.1959
-882.823
-18.1875
-890.698
-3.65765
-886.612
14.9248
-863.907
37.8347
-808.415
64.3346
-701.025
93.8365
-510.832
126.821
-130.559
141.76
403.46
132.857
800.213
116.139
1123.91
81.7605
1361.98
65.4548
1526.51
1906.06
-6.65531
-18.0261
-6.56487
-25.0704
-6.53854
-29.6424
-6.54091
-34.3205
-6.58059
-38.8864
-6.648
-43.3467
-6.74493
-47.7792
-6.86834
-52.1864
-7.01857
-56.6102
-7.19451
-61.0655
-7.39617
-65.5789
-7.62313
-70.1676
-7.87541
-74.8519
-8.15293
-79.6486
-8.45582
-84.5752
-8.78425
-89.6479
-9.13851
-94.8828
-9.51899
-100.296
-9.92614
-105.902
-10.3605
-111.718
-10.8229
-117.759
-11.3139
-124.04
-11.8344
-130.578
-12.3853
-137.388
-12.9678
-144.488
-13.5829
-151.894
-14.2318
-159.623
-14.9159
-167.694
-15.6365
-176.124
-16.3951
-184.933
-17.1933
-194.141
-18.0328
-203.766
-18.9153
-213.831
-19.8426
-224.358
-20.8166
-235.368
-21.8394
-246.886
-22.9129
-258.935
-24.0391
-271.542
-25.2201
-284.733
-26.458
-298.535
-27.7546
-312.978
-29.1117
-328.09
-30.5308
-343.904
-32.0129
-360.45
-33.5583
-377.762
-35.1667
-395.875
-36.8361
-414.822
-38.563
-434.638
-40.3413
-455.357
-42.1617
-477.009
-44.0101
-499.624
-45.867
-523.221
-47.7053
-547.811
-49.4883
-573.39
-51.1679
-599.929
-52.6823
-627.368
-53.9541
-655.603
-54.8882
-684.473
-55.371
-713.748
-55.2689
-743.115
-54.4263
-772.177
-52.6584
-800.44
-49.7428
-827.328
-45.3899
-852.121
-39.2282
-873.938
-30.7419
-891.309
-19.3098
-902.13
-4.14826
-901.774
15.3939
-883.449
39.7096
-832.731
68.3101
-729.626
100.27
-542.791
136.792
-167.082
155.331
384.921
148.31
807.234
129.544
1142.68
93.2002
1398.33
59.9444
1559.77
1877.74
-6.95298
-18.1498
-6.86737
-25.156
-6.84374
-29.6661
-6.85012
-34.3141
-6.89448
-38.842
-6.96782
-43.2734
-7.07174
-47.6753
-7.20333
-52.0548
-7.36285
-56.4506
-7.54922
-60.8791
-7.76241
-65.3657
-8.00202
-69.928
-8.26803
-74.5859
-8.5604
-79.3563
-8.87925
-84.2564
-9.22476
-89.3024
-9.59725
-94.5104
-9.99711
-99.8959
-10.4248
-105.475
-10.881
-111.262
-11.3664
-117.273
-11.8817
-123.525
-12.4279
-130.032
-13.0058
-136.81
-13.6167
-143.877
-14.2617
-151.249
-14.942
-158.943
-15.659
-166.977
-16.4142
-175.369
-17.209
-184.139
-18.0452
-193.304
-18.9244
-202.887
-19.8486
-212.907
-20.8194
-223.387
-21.8391
-234.348
-22.9094
-245.815
-24.0326
-257.812
-25.2108
-270.364
-26.4461
-283.498
-27.7405
-297.241
-29.096
-311.622
-30.5144
-326.672
-31.9972
-342.421
-33.5455
-358.902
-35.1596
-376.148
-36.839
-394.196
-38.5818
-413.079
-40.3841
-432.836
-42.2397
-453.501
-44.1386
-475.11
-46.0664
-497.696
-48.0026
-521.285
-49.9187
-545.895
-51.7765
-571.532
-53.5259
-598.18
-55.1021
-625.792
-56.4243
-654.28
-57.3936
-683.503
-57.8923
-713.249
-57.7824
-743.225
-56.9051
-773.055
-55.0726
-802.272
-52.0598
-830.341
-47.5726
-856.608
-41.228
-880.282
-32.485
-900.052
-20.6724
-913.942
-4.92043
-917.526
15.5529
-903.922
41.2841
-858.462
72.0329
-760.375
106.549
-577.307
146.77
-207.303
169.169
362.523
164.049
812.353
143.296
1163.43
106.896
1434.73
65.6304
1601.03
1861.64
-7.24702
-18.2697
-7.16668
-25.2364
-7.14631
-29.6864
-7.15714
-34.3032
-7.20657
-38.7926
-7.28618
-43.1938
-7.39741
-47.5641
-7.53746
-51.9147
-7.70654
-56.2816
-7.90359
-60.6821
-8.12854
-65.1408
-8.381
-69.6756
-8.66097
-74.3059
-8.96838
-79.0488
-9.30338
-83.9214
-9.66616
-88.9396
-10.0571
-94.1195
-10.4765
-99.4765
-10.925
-105.026
-11.4031
-110.784
-11.9117
-116.765
-12.4515
-122.985
-13.0235
-129.46
-13.6286
-136.205
-14.2681
-143.238
-14.9431
-150.574
-15.655
-158.231
-16.4051
-166.227
-17.195
-174.579
-18.0263
-183.307
-18.9007
-192.43
-19.8199
-201.968
-20.7859
-211.941
-21.8006
-222.372
-22.866
-233.283
-23.9842
-244.697
-25.1575
-256.639
-26.3879
-269.134
-27.6776
-282.208
-29.0289
-295.89
-30.4436
-310.208
-31.9237
-325.192
-33.4708
-340.874
-35.0857
-357.287
-36.7691
-374.465
-38.5202
-392.444
-40.337
-411.262
-42.2157
-430.957
-44.1495
-451.567
-46.1284
-473.132
-48.1372
-495.687
-50.1547
-519.267
-52.1512
-543.899
-54.0872
-569.596
-55.9102
-596.357
-57.553
-624.149
-58.9316
-652.902
-59.9432
-682.492
-60.4662
-712.726
-60.3587
-743.333
-59.4587
-773.955
-57.5765
-804.155
-54.4855
-833.432
-49.8889
-861.204
-43.3934
-886.778
-34.4341
-909.012
-22.288
-926.088
-5.99231
-933.822
15.3765
-925.291
42.5266
-885.612
75.4606
-793.309
112.642
-614.489
156.739
-251.4
183.328
335.934
180.123
815.558
157.617
1185.94
123.161
1469.18
84.1542
1640.04
1841.66
-7.53771
-18.3852
-7.463
-25.3111
-7.44638
-29.7031
-7.4621
-34.2875
-7.51699
-38.7377
-7.6032
-43.1076
-7.72204
-47.4452
-7.87084
-51.7659
-8.04974
-56.1026
-8.25771
-60.4741
-8.49466
-64.9038
-8.76021
-69.41
-9.05434
-74.0118
-9.377
-78.7262
-9.72835
-83.57
-10.1086
-88.5594
-10.5181
-93.71
-10.9572
-99.0373
-11.4267
-104.557
-11.927
-110.283
-12.4589
-116.233
-13.0234
-122.42
-13.6214
-128.862
-14.2539
-135.573
-14.9222
-142.569
-15.6274
-149.869
-16.371
-157.488
-17.1545
-165.443
-17.9794
-173.754
-18.8473
-182.439
-19.7601
-191.517
-20.7195
-201.008
-21.7276
-210.933
-22.7863
-221.314
-23.8978
-232.172
-25.0641
-243.531
-26.2877
-255.415
-27.5706
-267.851
-28.9152
-280.864
-30.3237
-294.481
-31.798
-308.733
-33.3403
-323.649
-34.9519
-339.262
-36.6341
-355.604
-38.3873
-372.712
-40.2107
-390.621
-42.1024
-409.371
-44.0583
-429.001
-46.0717
-449.554
-48.1319
-471.071
-50.2235
-493.595
-52.3244
-517.166
-54.4041
-541.819
-56.4215
-567.579
-58.3224
-594.456
-60.037
-622.434
-61.4781
-651.461
-62.5395
-681.43
-63.0955
-712.17
-63.0007
-743.427
-62.0904
-774.865
-60.1737
-806.071
-57.024
-836.582
-52.3435
-865.885
-45.7308
-893.391
-36.5981
-918.144
-24.1697
-938.517
-7.3829
-950.608
14.8376
-947.512
43.4032
-914.177
78.5474
-828.453
118.523
-654.465
166.696
-299.573
197.88
304.75
196.525
816.913
172.48
1209.98
140.12
1501.54
107.759
1672.4
1847.6
-7.82531
-18.4958
-7.75652
-25.3799
-7.74413
-29.7155
-7.76513
-34.2665
-7.82583
-38.677
-7.91898
-43.0144
-8.04574
-47.3185
-8.20358
-51.6081
-8.39257
-55.9137
-8.61171
-60.255
-8.8609
-64.6546
-9.13976
-69.1312
-9.44827
-73.7033
-9.78639
-78.3881
-10.1543
-83.2021
-10.5522
-88.1615
-10.9805
-93.2817
-11.4396
-98.5782
-11.9301
-104.066
-12.4527
-109.761
-13.0083
-115.677
-13.5976
-121.831
-14.2218
-128.237
-14.8818
-134.912
-15.5791
-141.872
-16.3148
-149.133
-17.0904
-156.712
-17.9074
-164.626
-18.7674
-172.894
-19.6722
-181.535
-20.6236
-190.566
-21.6235
-200.008
-22.6739
-209.883
-23.7769
-220.211
-24.9347
-231.014
-26.1496
-242.316
-27.4237
-254.141
-28.7595
-266.515
-30.1593
-279.464
-31.6253
-293.015
-33.1597
-307.199
-34.7645
-322.045
-36.4413
-337.585
-38.1913
-353.854
-40.0148
-370.888
-41.9113
-388.724
-43.8787
-407.403
-45.9129
-426.967
-48.0069
-447.46
-50.1499
-468.928
-52.3261
-491.419
-54.5128
-514.98
-56.6785
-539.653
-58.7809
-565.476
-60.764
-592.473
-62.5558
-620.642
-64.066
-649.95
-65.1849
-680.311
-65.783
-711.572
-65.7116
-743.499
-64.8036
-775.773
-62.8681
-808.007
-59.6795
-839.77
-54.9413
-870.623
-48.2463
-900.086
-38.9857
-927.405
-26.3303
-951.172
-9.11197
-967.827
13.9077
-970.531
43.8768
-944.147
81.2444
-865.82
124.163
-697.383
176.621
-352.031
212.866
268.505
213.175
816.604
187.714
1235.44
156.065
1533.19
129.689
1698.78
1858.61
-8.11007
-18.6015
-8.04744
-25.4425
-8.03969
-29.7232
-8.06635
-34.2399
-8.13323
-38.6101
-8.23365
-42.914
-8.36863
-47.1835
-8.53578
-51.4409
-8.73512
-55.7143
-8.96569
-60.0244
-9.22737
-64.393
-9.51977
-68.8388
-9.84289
-73.3802
-10.1967
-78.0343
-10.5814
-82.8175
-10.9971
-87.7457
-11.4444
-92.8344
-11.9236
-98.099
-12.4355
-103.554
-12.9806
-109.216
-13.5599
-115.098
-14.1743
-121.217
-14.8249
-127.587
-15.5127
-134.225
-16.2391
-141.146
-17.0055
-148.367
-17.8132
-155.904
-18.664
-163.776
-19.5594
-171.999
-20.5014
-180.593
-21.4916
-189.576
-22.5322
-198.968
-23.6253
-208.79
-24.7729
-219.063
-25.9773
-229.809
-27.2409
-241.052
-28.566
-252.816
-29.955
-265.126
-31.4103
-278.009
-32.9343
-291.491
-34.5292
-305.604
-36.197
-320.377
-37.9395
-335.843
-39.7578
-352.036
-41.6524
-368.994
-43.6227
-386.754
-45.6667
-405.359
-47.7801
-424.853
-49.9561
-445.284
-52.1834
-466.701
-54.4461
-489.157
-56.7209
-512.705
-58.9756
-537.398
-61.1668
-563.285
-63.2368
-590.403
-65.1113
-618.768
-66.6974
-648.364
-67.8818
-679.127
-68.5314
-710.923
-68.4943
-743.536
-67.6016
-776.666
-65.663
-809.945
-62.4557
-842.978
-57.6866
-875.392
-50.9455
-906.827
-41.6054
-936.745
-28.783
-963.995
-11.2002
-985.409
12.5565
-994.288
43.9072
-975.497
83.4983
-905.411
129.529
-743.414
186.491
-408.992
228.313
226.683
229.996
814.92
203.168
1262.27
170.221
1566.14
147.034
1721.97
1871.46
-8.3922
-18.7017
-8.33594
-25.4988
-8.33324
-29.7259
-8.36589
-34.2072
-8.43931
-38.5367
-8.54731
-42.806
-8.69082
-47.04
-8.86757
-51.2642
-9.07754
-55.5043
-9.3198
-59.7821
-9.5942
-64.1186
-9.90039
-68.5326
-10.2383
-73.0422
-10.608
-77.6645
-11.0097
-82.4158
-11.4435
-87.3119
-11.91
-92.368
-12.4096
-97.5994
-12.9429
-103.021
-13.5108
-108.648
-14.1141
-114.495
-14.7537
-120.577
-15.4309
-126.91
-16.1467
-133.509
-16.9025
-140.39
-17.6997
-147.569
-18.5399
-155.064
-19.4247
-162.891
-20.3558
-171.068
-21.335
-179.613
-22.3645
-188.546
-23.446
-197.886
-24.582
-207.654
-25.7745
-217.87
-27.0259
-228.558
-28.3385
-239.74
-29.7149
-251.44
-31.1575
-263.683
-32.6688
-276.497
-34.2512
-289.909
-35.907
-303.948
-37.6384
-318.646
-39.447
-334.034
-41.3342
-350.149
-43.3006
-367.027
-45.3455
-384.709
-47.467
-403.238
-49.6608
-422.66
-51.92
-443.025
-54.2334
-464.388
-56.5845
-486.805
-58.9499
-510.339
-61.2968
-535.052