/*--------------------------------*- C++ -*----------------------------------*\
| =========                 |                                                 |
| \\      /  F ield         | OpenFOAM: The Open Source CFD Toolbox           |
|  \\    /   O peration     | Version:  4.1                                   |
|   \\  /    A nd           | Web:      www.OpenFOAM.org                      |
|    \\/     M anipulation  |                                                 |
\*---------------------------------------------------------------------------*/
FoamFile
{
    version     2.0;
    format      ascii;
    class       volScalarField;
    location    "5";
    object      epsilon;
}
// * * * * * * * * * * * * * * * * * * * * * * * * * * * * * * * * * * * * * //

dimensions      [0 2 -3 0 0 0 0];

internalField   nonuniform List<scalar> 
6785
(
0.056669
0.288995
0.282209
0.282271
0.282309
0.282234
0.282256
0.282309
0.282246
0.282271
0.282328
0.282257
0.28172
0.471418
0.0803493
0.0811152
0.00480062
6.72519e-05
6.29547e-05
5.99217e-05
5.68805e-05
5.397e-05
5.11172e-05
4.82095e-05
4.5342e-05
4.2702e-05
5.23378e-05
0.00095177
0.0102203
0.0145688
0.111067
0.00210451
2.13496e-07
1.44448e-07
3.4555e-07
5.02105e-07
7.48189e-07
1.79347e-06
5.87493e-06
1.85654e-05
8.3547e-05
0.000456348
0.00173248
0.00112976
0.000522666
0.154508
0.00569667
9.68148e-05
7.68782e-08
4.89204e-08
5.98828e-08
1.41443e-07
4.06512e-07
1.72071e-06
5.86885e-06
3.12035e-05
0.000150186
0.000618235
0.000383966
0.000109462
0.199824
0.01322
0.000464587
1.56546e-05
8.10078e-07
1.71059e-07
2.37519e-07
5.82036e-07
1.67274e-06
5.45068e-06
1.544e-05
3.81847e-05
0.000349502
0.000682036
7.62232e-05
0.246219
0.0177658
0.000761221
5.43626e-05
3.27047e-06
4.6426e-07
1.04132e-06
2.1526e-06
6.16549e-06
1.39483e-05
1.70742e-05
4.68049e-05
0.000253145
0.000740825
0.000157483
0.291426
0.0149478
0.00070821
5.37575e-05
6.89996e-06
1.66849e-06
1.0496e-05
2.54725e-05
9.12088e-05
8.84542e-05
7.17382e-05
6.13933e-05
0.000113649
0.000580338
0.000468784
0.338302
0.0116146
0.00040702
4.78022e-05
1.63695e-05
2.47872e-05
0.000266369
0.000936714
0.00112661
0.000427655
0.000180459
0.000501592
6.08398e-05
0.000542054
0.00143732
0.392633
0.0102832
0.000332387
5.87052e-05
0.000242939
0.00103354
0.00391522
0.00738798
0.00774292
0.00258123
0.00125778
0.00327695
0.00384841
0.00176555
0.00223685
0.422299
0.0264689
0.000267185
0.00011161
0.000410385
0.00126886
0.00421791
0.00753881
0.00920026
0.00848134
0.00661966
0.00510212
0.0025795
0.002199
0.00161866
0.417177
0.0645225
0.00259657
0.000243183
0.000442914
0.00091818
0.00289908
0.00523898
0.00783005
0.00876329
0.00857811
0.00991425
0.00856572
0.00194389
0.000686182
0.383415
0.121535
0.0122168
0.000545449
0.000470179
0.000759638
0.00161779
0.00272847
0.004505
0.00574515
0.00664487
0.00769613
0.00751969
0.00542281
0.000771364
0.342621
0.238778
0.0293688
0.00638152
0.00107515
0.000804661
0.00113286
0.00197021
0.00270533
0.00367593
0.00449604
0.00501448
0.0055248
0.00618729
0.000732255
0.294342
0.368126
0.0212492
0.00107495
0.00435485
0.00266411
0.00131383
0.00193635
0.00221437
0.00284301
0.00349259
0.00383278
0.0045734
0.00591929
0.00103835
0.274002
1.16283
0.406467
0.0875292
0.020424
0.00273063
0.000322725
4.66599e-05
0.00104143
0.00149643
0.00220793
0.00242578
0.00278851
0.00526819
0.00147192
0.0308314
0.0206903
0.033605
0.033323
0.0336198
0.0208641
0.0341477
0.0337986
0.0339805
0.0208938
0.0345529
0.0343008
0.020578
0.0336234
0.0329678
0.0327235
0.0196048
0.032183
0.0315961
0.0185295
0.0300414
0.0291719
0.0285681
0.0166837
0.0270052
0.0261975
0.0256103
0.014947
0.024257
0.023639
0.013766
0.0221197
0.0214473
0.0209485
0.0123104
0.019722
0.0191598
0.0112103
0.0176476
0.0170135
0.016516
0.00974344
0.0151072
0.0145301
0.014081
0.0084008
0.0128095
0.0123279
0.00738537
0.0109958
0.0105521
0.0102026
0.00635572
0.00930168
0.00899075
0.00875193
0.00568381
0.00800764
0.00770149
0.00479755
0.00657429
0.00618268
0.00581047
0.00320834
0.00449969
0.00412099
0.00203629
0.00321531
0.00305845
0.00291105
0.00153135
0.00261634
0.00255679
0.00248803
0.00134446
0.00232774
0.00228427
0.0012446
0.00215939
0.00212215
0.0111849
0.0112407
0.0110483
0.0109133
0.0120807
0.0121845
0.0120917
0.0124015
0.0125466
0.012897
0.0131555
0.0135413
0.0145519
0.0160419
0.0165479
0.0165704
0.0170409
0.0171171
0.0175221
0.0176435
0.0181989
0.0196858
0.0225147
0.023863
0.0241482
0.0259684
0.0268048
0.0287194
0.0300354
0.0325516
0.0346631
0.0507526
0.0525513
0.0560401
0.0603461
0.06348
0.0658747
0.0644082
0.0612298
0.0644239
0.0691955
0.0744601
0.0779462
0.0766747
0.0791775
0.0820589
0.0895604
0.0952828
0.0971402
0.104654
0.111178
0.121501
0.124402
0.13499
0.138162
0.14449
0.151261
0.157778
0.16384
0.173235
0.181247
0.189788
0.208409
0.225727
0.243001
0.243461
0.255892
0.250886
0.2694
0.278839
0.217984
0.211934
0.159633
0.119772
0.0529972
0.0377036
0.0355685
0.00179936
0.0138842
0.00364483
0.000522136
0.000315936
0.000270779
0.00038536
0.000238676
0.000356319
0.000223922
0.000210595
0.000328932
0.000205233
0.000198854
0.000318284
0.000198932
0.000321487
0.000203009
0.000201439
0.000328924
0.000205863
0.000337588
0.000213307
0.000213924
0.000352616
0.000220823
0.000221726
0.000366292
0.000229296
0.00037911
0.000239469
0.000241036
0.000398613
0.000249386
0.000412776
0.000260581
0.000262439
0.000434486
0.000271775
0.000273492
0.000452578
0.00028297
0.000468824
0.000295802
0.000298161
0.000493687
0.00030855
0.000511501
0.000322582
0.000325252
0.000538919
0.000336791
0.000339186
0.000561651
0.000350794
0.000581726
0.000366609
0.000369701
0.000612278
0.000382117
0.000633729
0.000399025
0.000402164
0.000666197
0.000415377
0.00041798
0.000691637
0.000430724
0.000713848
0.000448499
0.00045125
0.000746289
0.000463816
0.000768246
0.000481731
0.000483783
0.000799686
0.000495984
0.000496976
0.000820455
0.000507945
0.000840088
0.000525023
0.000205466
0.000215798
0.000208189
0.00017378
0.000104037
5.5209e-05
2.91908e-05
2.24655e-05
1.61695e-05
9.83545e-06
7.30425e-06
4.28456e-06
3.12852e-06
2.94587e-06
4.10688e-06
4.15213e-06
4.08984e-06
9.4262e-06
3.34967e-05
0.000114554
0.000353283
0.000858774
0.00129597
0.00149909
0.00158681
0.00173804
0.0020616
0.00251719
0.00288166
0.00299555
0.00262645
0.00201152
0.00138343
0.000917177
0.000624527
0.000451983
0.000352354
0.000251443
0.000144327
0.000119291
0.00013617
0.000187571
0.000323555
0.000570175
0.000968572
0.00161702
0.0025222
0.00357998
0.00468921
0.00585169
0.0071247
0.00850822
0.00998595
0.0115373
0.013131
0.0147275
0.0162692
0.017674
0.0188368
0.019561
0.0198443
0.0196978
0.0188623
0.0175311
0.0158241
0.0139906
0.0123211
0.0107455
0.00957586
0.00874834
0.007928
0.00629018
0.00485802
0.00379526
0.00169894
0.000338859
2.76107e-05
0.000178612
0.000439081
0.00021201
0.000225041
0.000220709
0.000190502
0.000116572
6.10635e-05
3.03945e-05
2.10106e-05
1.6133e-05
1.01896e-05
7.42133e-06
4.31196e-06
3.12039e-06
3.06336e-06
3.62652e-06
3.87776e-06
4.11165e-06
9.35467e-06
3.2953e-05
0.000114159
0.000359714
0.000887179
0.00133442
0.00152645
0.0016058
0.00176731
0.00211543
0.00259904
0.00298764
0.00312107
0.00274186
0.0020947
0.00143102
0.000941131
0.000638209
0.000462214
0.000361588
0.000257013
0.000145872
0.000122403
0.000141852
0.000196824
0.000337507
0.000590262
0.000994828
0.00164765
0.00255371
0.00361296
0.00473516
0.00592391
0.00724057
0.00868188
0.0102375
0.0118846
0.0135899
0.0153099
0.0169801
0.018507
0.0197735
0.0205682
0.020887
0.0207401
0.0198411
0.0184062
0.0165754
0.0146045
0.0127935
0.0110715
0.0098029
0.00888844
0.00796852
0.00637088
0.00489615
0.00381212
0.00174805
0.000362026
2.97885e-05
0.000183206
0.000449623
0.00022133
0.000239494
0.000239573
0.000211967
0.000134272
6.95973e-05
3.12434e-05
1.89628e-05
1.49577e-05
9.72451e-06
7.31564e-06
4.41661e-06
3.22818e-06
3.53808e-06
3.55453e-06
3.40471e-06
4.16647e-06
9.31495e-06
3.25392e-05
0.000114075
0.000367505
0.000917279
0.00137489
0.00155666
0.00162736
0.0018049
0.00218207
0.00269243
0.00310789
0.00326618
0.00287425
0.00218538
0.00148208
0.000967134
0.000654182
0.000475045
0.000373915
0.000267117
0.000150444
0.000127034
0.000149208
0.000208701
0.000354989
0.000615142
0.00102723
0.00168598
0.00259911
0.00367777
0.00483572
0.00607009
0.00744611
0.00896854
0.0106234
0.0123818
0.0142057
0.0160476
0.0178374
0.0194733
0.0208288
0.0216816
0.0220256
0.0218659
0.0208957
0.0193475
0.0173747
0.0152512
0.0132841
0.0114258
0.0100851
0.00910613
0.00809422
0.00651681
0.004985
0.003854
0.00182074
0.000397942
3.41668e-05
0.000189668
0.000461077
0.000231825
0.000256895
0.000261357
0.000236196
0.000155157
7.77983e-05
3.44175e-05
1.8851e-05
1.38437e-05
9.30134e-06
7.11975e-06
4.37972e-06
3.27067e-06
3.13301e-06
3.36119e-06
3.31096e-06
4.38722e-06
9.34465e-06
3.2072e-05
0.000114331
0.000375545
0.000945948
0.00141216
0.00158204
0.00164167
0.00183811
0.00224746
0.00279184
0.00323843
0.00342469
0.00302052
0.00228008
0.00153257
0.000991672
0.000669481
0.000488444
0.000387279
0.000278541
0.000156171
0.000131828
0.000156266
0.000220152
0.000371951
0.000639319
0.00105883
0.0017235
0.00265016
0.00375789
0.00495763
0.00625019
0.00770372
0.00932589
0.0110965
0.0129788
0.0149307
0.0169017
0.0188181
0.0205698
0.02202
0.0229335
0.0233042
0.0231271
0.0220764
0.0204014
0.018269
0.0159761
0.0138343
0.0118352
0.0104288
0.00939794
0.00829705
0.00668485
0.00509074
0.00390141
0.00189015
0.000433219
3.88198e-05
0.000198588
0.000467713
0.000242524
0.000276575
0.000284754
0.000261168
0.000179823
8.81772e-05
3.75694e-05
1.93187e-05
1.38952e-05
9.53414e-06
7.08933e-06
4.35525e-06
3.2442e-06
2.74692e-06
3.33457e-06
3.39774e-06
4.54093e-06
9.42643e-06
3.16491e-05
0.000114959
0.000384181
0.000975496
0.00144825
0.00160369
0.00164939
0.00186901
0.00231005
0.00289117
0.00336886
0.00358435
0.00317297
0.00237626
0.00158117
0.00101437
0.000684959
0.000503157
0.000402063
0.000292179
0.000163173
0.000137001
0.000163083
0.000231037
0.000388676
0.00066329
0.00109045
0.0017612
0.00270806
0.00385131
0.00509956
0.00646216
0.00800426
0.00973514
0.0116261
0.0136335
0.0157129
0.0178127
0.0198568
0.0217261
0.0232726
0.0242465
0.0246424
0.0244402
0.023297
0.0214797
0.0191687
0.0166896
0.0143568
0.0122197
0.010764
0.0097048
0.0085233
0.00686222
0.00520726
0.00394995
0.00195427
0.000466855
4.38169e-05
0.000208284
0.000466585
0.000253066
0.000298094
0.00031136
0.000289749
0.000210009
0.000101831
4.22255e-05
1.93958e-05
1.33567e-05
9.38689e-06
7.01299e-06
4.28149e-06
3.22242e-06
2.74226e-06
2.95171e-06
3.39927e-06
4.69945e-06
9.52685e-06
3.12196e-05
0.000115339
0.000392617
0.00100436
0.00148112
0.00161929
0.00165093
0.00189486
0.00236665
0.00299061
0.00349989
0.00374319
0.00333072
0.00247295
0.00162667
0.00103483
0.000699852
0.000518462
0.000417535
0.00030667
0.000171278
0.000142484
0.000169634
0.000241362
0.000405013
0.000686793
0.00112183
0.00180132
0.00277344
0.00395493
0.00525776
0.00669946
0.0083409
0.0101884
0.0122051
0.0143419
0.0165535
0.0187885
0.0209684
0.0229643
0.0246138
0.0256509
0.0260732
0.0258393
0.0245912
0.0226145
0.0201039
0.0174192
0.0148759
0.0125955
0.0110988
0.0100286
0.00877787
0.00705376
0.00533487
0.00400364
0.00201443
0.000498933
4.87417e-05
0.000207816
0.000463529
0.000263212
0.000320507
0.000340491
0.000321131
0.000245847
0.000118095
4.90407e-05
2.01483e-05
1.29034e-05
9.16481e-06
6.8929e-06
4.20085e-06
3.21051e-06
2.6921e-06
2.78597e-06
3.61478e-06
4.9786e-06
9.64765e-06
3.07857e-05
0.000115529
0.000400953
0.00103229
0.00151014
0.00162645
0.00164571
0.00191597
0.00241686
0.00308991
0.00363044
0.00389618
0.00349144
0.00256948
0.00166861
0.00105367
0.000714299
0.000534073
0.000434283
0.000322381
0.000180321
0.000148178
0.000175822
0.000251029
0.000420856
0.000709581
0.00115267
0.00184506
0.00284526
0.00406692
0.00543143
0.0069608
0.00870999
0.0106797
0.0128267
0.0150974
0.0174463
0.0198234
0.0221478
0.0242792
0.0260381
0.0271407
0.0275896
0.027316
0.0259487
0.0237931
0.0210596
0.018148
0.0153744
0.0129478
0.0114209
0.0103572
0.00904164
0.00725314
0.00546886
0.00406161
0.00207096
0.000529561
5.3895e-05
0.000233637
0.00047159
0.000272954
0.000343773
0.000372607
0.00035549
0.000286733
0.000137937
5.77182e-05
2.15763e-05
1.28536e-05
9.00714e-06
6.79082e-06
4.13445e-06
3.18072e-06
2.55918e-06
2.47534e-06
4.00305e-06
5.38779e-06
9.77189e-06
3.03109e-05
0.000115425
0.000408715
0.00105829
0.00153368
0.00162686
0.00163305
0.00193162
0.00245966
0.00318907
0.0037612
0.00403973
0.00365267
0.00266451
0.00170625
0.00107089
0.000727913
0.000549167
0.000452177
0.00033971
0.000190304
0.000154067
0.000181613
0.000259974
0.000436038
0.000731368
0.00118274
0.00189272
0.00292241
0.00418739
0.00562105
0.00724582
0.00910916
0.0112078
0.0134909
0.0159014
0.0183946
0.0209224
0.0234018
0.0256795
0.0275558
0.0287265
0.0292027
0.0288803
0.0273778
0.0250216
0.0220395
0.0188771
0.0158524
0.0132774
0.0117326
0.0106933
0.00931709
0.00746009
0.00560693
0.00412282
0.00212383
0.000558476
5.89718e-05
0.000231863
0.000469857
0.00028212
0.000366647
0.000406258
0.000393952
0.00033301
0.000163796
6.84948e-05
2.3043e-05
1.29036e-05
8.88176e-06
6.70228e-06
4.07773e-06
3.14323e-06
2.45099e-06
2.30293e-06
4.33928e-06
5.84979e-06
9.90161e-06
2.97994e-05
0.000114909
0.000415628
0.00108186
0.00154915
0.00161769
0.0016144
0.00194254
0.00249488
0.00328785
0.00389283
0.00417085
0.00381038
0.00275687
0.00173918
0.00108619
0.000740714
0.000563446
0.000471389
0.000358609
0.000201264
0.000160137
0.000186989
0.000268221
0.000450336
0.000751928
0.00121206
0.00194386
0.00300413
0.0043165
0.00582528
0.00755173
0.0095371
0.0117713
0.0141973
0.0167542
0.0193997
0.0220869
0.0247328
0.0271691
0.0291713
0.0304126
0.0309168
0.030535
0.0288792
0.0262979
0.0230388
0.0195997
0.0163028
0.0135799
0.0120321
0.0110376
0.00960234
0.00767279
0.00574742
0.00418649
0.00217319
0.000585513
6.42661e-05
0.000242186
0.000459417
0.000290761
0.00038747
0.000440692
0.000437466
0.000384724
0.000197601
8.18914e-05
2.44678e-05
1.30024e-05
8.75004e-06
6.6113e-06
4.02097e-06
3.10706e-06
2.37253e-06
2.28798e-06
4.85637e-06
6.37945e-06
1.00278e-05
2.92498e-05
0.000114244
0.000421181
0.00110168
0.00155458
0.00159933
0.00159157
0.00194911
0.00252109
0.00338501
0.00402633
0.00428948
0.00395919
0.00284534
0.00176711
0.00109903
0.000752869
0.000577119
0.00049167
0.000379129
0.000213261
0.000166394
0.000191951
0.000275907
0.000463566
0.000771248
0.00124104
0.00199772
0.00309017
0.00445468
0.0060445
0.00787972
0.00999371
0.012371
0.0149476
0.0176591
0.0204665
0.0233227
0.0261459
0.0287545
0.0308925
0.0322069
0.0327397
0.0322863
0.0304565
0.0276225
0.0240549
0.0203117
0.0167219
0.013854
0.01232
0.0113939
0.00990463
0.00789129
0.00588907
0.00425152
0.00221902
0.000610583
6.97758e-05
0.000252336
0.000453114
0.000299034
0.000404835
0.000475076
0.000482208
0.000440568
0.000242463
9.81236e-05
2.5828e-05
1.32034e-05
8.61605e-06
6.51921e-06
3.96651e-06
3.0688e-06
2.32952e-06
2.53834e-06
5.62729e-06
6.93219e-06
1.01206e-05
2.86407e-05
0.000113241
0.000424037
0.00111484
0.0015525
0.00157238
0.00156764
0.00194916
0.00253115
0.00347791
0.00416214
0.00440079
0.00409267
0.00292815
0.00179006
0.0011094
0.000764772
0.000590927
0.000512555
0.000401316
0.000226404
0.00017288
0.000196512
0.000282852
0.000475599
0.000789498
0.0012706
0.00205371
0.00318071
0.00460207
0.00627819
0.0082284
0.0104789
0.0130078
0.0157433
0.0186193
0.0215989
0.024635
0.0276459
0.0304418
0.032727
0.0341166
0.0346787
0.0341391
0.0321114
0.0289933
0.0250833
0.0210079
0.0171065
0.014099
0.0125953
0.0117646
0.0102337
0.00811671
0.0060311
0.00431671
0.00226018
0.000633559
7.52258e-05
0.000257076
0.000442629
0.000306487
0.000418181
0.000508586
0.000526668
0.00049853
0.000299972
0.000117438
2.76339e-05
1.34997e-05
8.48607e-06
6.42919e-06
3.91616e-06
3.02521e-06
2.35726e-06
2.86192e-06
6.56149e-06
7.52747e-06
1.01579e-05
2.79633e-05
0.000111858
0.000424353
0.00111902
0.00153804
0.00153811
0.00154696
0.00193375
0.00253127
0.00356288
0.00429883
0.00451519
0.00420572
0.00300211
0.0018082
0.00111801
0.000776866
0.000605443
0.000533364
0.000425159
0.000240835
0.000179668
0.000200702
0.000288902
0.000486352
0.000806884
0.00130202
0.00211166
0.00327607
0.00475877
0.00652653
0.00859858
0.0109935
0.0136831
0.0165867
0.0196382
0.0228007
0.0260288
0.0292411
0.0322382
0.0346833
0.0361501
0.0367418
0.0360986
0.0338455
0.0304079
0.0261191
0.0216848
0.0174573
0.0143165
0.0128557
0.0121488
0.0106055
0.00835118
0.0061731
0.00438089
0.00229666
0.000654317
8.06257e-05
0.000261131
0.000428793
0.000312695
0.000427561
0.00053921
0.000570748
0.000557603
0.000370572
0.000140067
3.10143e-05
1.39051e-05
8.35548e-06
6.33913e-06
3.86796e-06
2.97402e-06
2.48953e-06
3.06598e-06
7.55528e-06
8.08759e-06
1.01538e-05
2.72325e-05
0.000110075
0.00042145
0.00111533
0.00151411
0.00149829
0.00153514
0.00190585
0.00252105
0.00363926
0.00443151
0.00464425
0.00429741
0.0030625
0.00182182
0.00112587
0.000789625
0.00062086
0.000553422
0.000450561
0.000256697
0.000186859
0.000204575
0.000293979
0.000495774
0.000823526
0.00133497
0.00217173
0.0033766
0.00492485
0.00678952
0.00899013
0.0115383
0.0143987
0.017481
0.0207191
0.024076
0.027509
0.0309383
0.0341513
0.036771
0.038316
0.0389371
0.0381693
0.035658
0.0318613
0.0271572
0.0223428
0.0177804
0.0145094
0.013096
0.012541
0.0110211
0.00859624
0.00631485
0.00444303
0.00232833
0.000672713
8.60524e-05
0.000258146
0.000418568
0.000317628
0.000433401
0.000565323
0.000614
0.000615501
0.000453735
0.000166228
3.63273e-05
1.45411e-05
8.21981e-06
6.24642e-06
3.81994e-06
2.91684e-06
2.6555e-06
3.38735e-06
8.47e-06
8.52204e-06
1.01199e-05
2.64664e-05
0.000107905
0.000415718
0.0011009
0.00147981
0.00145667
0.00152166
0.00187631
0.00250172
0.00371342
0.00455289
0.00479263
0.00437157
0.00310348
0.00183108
0.0011337
0.000803406
0.00063704
0.000572314
0.00047725
0.000274126
0.000194584
0.000208231
0.00029824
0.000503856
0.000839535
0.00136933
0.00223423
0.00348257
0.00510036
0.00706734
0.00940369
0.0121145
0.0151567
0.0184292
0.0218656
0.025429
0.029081
0.0327447
0.036192
0.0390005
0.040624
0.0412728
0.0403544
0.0375462
0.0333476
0.0281945
0.0229888
0.0180924
0.0146796
0.0133058
0.012925
0.0114644
0.0088533
0.00645643
0.00450217
0.00235496
0.000688562
9.1357e-05
0.000260703
0.000403325
0.000321487
0.000436076
0.00058565
0.000655943
0.000670334
0.00054637
0.000203601
4.32057e-05
1.56062e-05
8.07889e-06
6.15006e-06
3.77185e-06
2.84535e-06
2.89806e-06
3.70504e-06
9.28152e-06
8.72779e-06
9.97547e-06
2.56905e-05
0.000105339
0.000406335
0.00107403
0.001436
0.00141647
0.00150606
0.00184482
0.0024768
0.00379832
0.0046611
0.00495229
0.00443372
0.00312045
0.00183585
0.00114199
0.000818518
0.000653909
0.000590073
0.00050466
0.000293255
0.000203006
0.000211806
0.00030193
0.000510711
0.000855214
0.00140514
0.00229953
0.00359418
0.0052854
0.00736016
0.00983972
0.0127234
0.0159591
0.0194345
0.0230815
0.026864
0.0307501
0.0346675
0.0383726
0.0413835
0.0430837
0.0437561
0.0426544
0.0395042
0.0348593
0.0292327
0.0236382
0.0184095
0.0148224
0.0134672
0.0132687
0.0119064
0.00912831
0.00659824
0.00455758
0.00237622
0.000701648
9.65639e-05
0.000261308
0.000393869
0.000324632
0.000436307
0.000599202
0.000695627
0.000721126
0.000641514
0.000255832
5.22186e-05
1.73379e-05
7.93281e-06
6.04982e-06
3.72305e-06
2.77523e-06
3.13305e-06
4.0913e-06
9.70587e-06
8.69625e-06
9.74908e-06
2.49366e-05
0.000102416
0.00039304
0.00103349
0.00138391
0.00138032
0.00149763
0.00180356
0.00245951
0.00391146
0.00475967
0.00510322
0.0044866
0.00312176
0.00183816
0.00115139
0.000835416
0.000671694
0.000606963
0.000531932
0.000314214
0.000212316
0.00021548
0.000305198
0.000516768
0.000871786
0.00144255
0.00236795
0.00371157
0.00548005
0.00766823
0.0102989
0.0133665
0.0168084
0.0205
0.0243706
0.0283857
0.032522
0.0367144
0.0407046
0.0439324
0.0457057
0.0463927
0.0450664
0.0415227
0.0363909
0.0302817
0.0243145
0.0187424
0.0149217
0.0135531
0.0135499
0.0123077
0.00942816
0.0067404
0.00460798
0.00239174
0.000711707
0.000101678
0.000253028
0.000382327
0.000327546
0.000435011
0.000605036
0.000731522
0.000768112
0.000729439
0.00032788
6.46171e-05
1.98897e-05
7.78144e-06
5.94515e-06
3.67321e-06
2.71109e-06
3.33246e-06
4.51275e-06
9.82389e-06
8.48513e-06
9.44484e-06
2.42337e-05
9.91618e-05
0.000375879
0.000979097
0.00132437
0.00134785
0.00148485
0.00175538
0.00245568
0.00405772
0.00486401
0.00522348
0.00452303
0.00309915
0.00183677
0.00116283
0.000854849
0.000690817
0.000623197
0.000558136
0.000337176
0.000222716
0.000219479
0.000308259
0.000523452
0.000889922
0.00148184
0.00243974
0.00383482
0.00568437
0.00799178
0.0107821
0.0140452
0.0177067
0.0216289
0.025737
0.0299988
0.0344025
0.0388933
0.0432007
0.0466611
0.0485004
0.0491851
0.0475829
0.0435902
0.0379427
0.0313632
0.0250439
0.0190893
0.0149696
0.0135667
0.0137133
0.012637
0.00974216
0.00688164
0.00465156
0.00240092
0.00071867
0.00010646
0.000240574
0.000366857
0.000330794
0.000431714
0.000603881
0.000760914
0.000813212
0.000808992
0.000423949
8.09867e-05
2.45665e-05
7.62476e-06
5.83527e-06
3.62064e-06
2.69915e-06
3.4539e-06
4.94627e-06
9.79613e-06
7.97443e-06
9.08734e-06
2.36045e-05
9.56462e-05
0.000355292
0.000912548
0.0012588
0.00131564
0.00145942
0.00170962
0.00247449
0.00421945
0.0049923
0.00530423
0.00453663
0.00305425
0.00182849
0.00117763
0.000877694
0.000711652
0.000638921
0.000582519
0.00036231
0.00023445
0.000224061
0.000311315
0.000530933
0.000909721
0.00152324
0.00251507
0.00396397
0.00589838
0.00833107
0.0112901
0.014761
0.0186565
0.0228246
0.0271847
0.0317081
0.0363977
0.0412123
0.0458746
0.0495876
0.0514784
0.0521306
0.0501909
0.0456966
0.0395274
0.0325121
0.025849
0.0194347
0.0149662
0.0134177
0.0137426
0.0128772
0.0100606
0.00702001
0.00468794
0.00240591
0.000721124
0.000110744
0.00022434
0.000356616
0.000335101
0.000428602
0.000596079
0.000782223
0.000857717
0.000873118
0.000544279
0.000103998
3.12685e-05
7.46475e-06
5.71965e-06
3.56559e-06
2.69759e-06
3.56278e-06
5.38352e-06
9.60172e-06
7.36537e-06
8.73072e-06
2.30622e-05
9.19856e-05
0.000332251
0.0008381
0.00118709
0.00127899
0.00142017
0.00167842
0.00251756
0.00440055
0.00515569
0.00535496
0.00452368
0.00298843
0.00181631
0.00119723
0.000904674
0.00073445
0.000654298
0.000604618
0.000389398
0.000247836
0.000229465
0.000314576
0.000539386
0.000931295
0.00156695
0.00259404
0.00409899
0.00612209
0.00868635
0.0118237
0.0155154
0.0196604
0.0240903
0.028718
0.0335187
0.0385139
0.0436797
0.0487366
0.0527227
0.0546507
0.0552195
0.0528734
0.0478391
0.0411761
0.0337725
0.026742
0.019757
0.0148063
0.0130653
0.0135651
0.013004
0.0103791
0.00715306
0.00471656
0.00240255
0.000725446
0.000114682
0.000224047
0.000345646
0.000341307
0.00042627
0.000586368
0.000794549
0.000901949
0.000922709
0.000673427
0.000140112
4.09118e-05
7.31261e-06
5.59828e-06
3.50769e-06
2.73151e-06
3.74554e-06
5.76662e-06
9.12625e-06
6.75001e-06
8.43732e-06
2.26091e-05
8.834e-05
0.000308202
0.000760819
0.00110907
0.00123485
0.00137321
0.00166716
0.00258016
0.00460615
0.00535762
0.00539652
0.00445862
0.00290357
0.00180294
0.00122276
0.000936171
0.000759332
0.000669518
0.000624243
0.000417882
0.000263063
0.000236016
0.000318213
0.00054899
0.000954751
0.00161313
0.00267669
0.00423983
0.00635546
0.00905789
0.0123836
0.0163099
0.0207209
0.0254296
0.0303412
0.0354356
0.0407572
0.0463036
0.0517907
0.0560709
0.0580297
0.0584333
0.0556132
0.0500318
0.0429414
0.0351903
0.0277231
0.0200418
0.014531
0.0125486
0.0131468
0.0130291
0.0106894
0.00727694
0.00473679
0.00239414
0.000724078
0.000118181
0.000221901
0.000333153
0.000350443
0.000425331
0.000575428
0.000795737
0.000943523
0.000961648
0.000794529
0.000198763
5.4271e-05
7.18377e-06
5.47006e-06
3.44847e-06
2.76188e-06
4.01697e-06
6.00404e-06
8.40591e-06
6.19665e-06
8.2414e-06
2.22726e-05
8.48823e-05
0.000284729
0.000685942
0.0010263
0.00118406
0.00132885
0.00166991
0.00266776
0.00484098
0.00559663
0.00545301
0.00434199
0.00280699
0.00179478
0.00125515
0.000972163
0.000786226
0.000684739
0.000641317
0.000447184
0.000280084
0.000244026
0.00032231
0.000559905
0.000980169
0.00166186
0.00276299
0.00438638
0.00659846
0.00944595
0.0129709
0.0171461
0.0218408
0.0268457
0.0320583
0.0374637
0.043134
0.0490924
0.0550447
0.0596349
0.0616327
0.0617448
0.0584047
0.0523316
0.0449202
0.0368228
0.0287862
0.0202881
0.0141697
0.0119082
0.0125598
0.0130202
0.0109345
0.00738081
0.00474716
0.00237524
0.000719546
0.000121239
0.000214042
0.000323381
0.000363373
0.000425651
0.000564532
0.000787462
0.000979378
0.000996206
0.000890514
0.000287856
7.1945e-05
7.12282e-06
5.33507e-06
3.38803e-06
2.81374e-06
4.28594e-06
5.9782e-06
7.58871e-06
5.77462e-06
8.16506e-06
2.2085e-05
8.17425e-05
0.000263041
0.000618017
0.000944265
0.00113172
0.0012978
0.00169659
0.00278336
0.00510946
0.00587272
0.00552524
0.00418975
0.00271014
0.00179514
0.00129528
0.00101223
0.000814803
0.000700045
0.000655804
0.000476409
0.000298746
0.000253476
0.000327204
0.000572253
0.00100759
0.00171315
0.00285285
0.0045385
0.00685099
0.00985074
0.0135861
0.0180256
0.0230227
0.0283421
0.0338736
0.039608
0.0456503
0.052054
0.0585095
0.0633939
0.0654573
0.0651137
0.0612954
0.0548427
0.0472124
0.0387074
0.0299273
0.020507
0.0137491
0.011187
0.011868
0.012958
0.0111106
0.00745618
0.00474903
0.00234472
0.000710186
0.000123935
0.000204389
0.000312727
0.000380522
0.000431058
0.000554311
0.000774411
0.0010068
0.00103131
0.000966939
0.000414098
9.51122e-05
7.18164e-06
5.19393e-06
3.32644e-06
2.89515e-06
4.46597e-06
5.68755e-06
6.83227e-06
5.5434e-06
8.21717e-06
2.20718e-05
7.89565e-05
0.000243684
0.000559324
0.000870051
0.00108468
0.00128612
0.00174369
0.00293185
0.00541791
0.00619078
0.00560441
0.00403578
0.00262778
0.00181321
0.00134426
0.0010556
0.000844467
0.000715397
0.000667688
0.000504385
0.000318776
0.000264315
0.000333211
0.000586098
0.00103701
0.00176697
0.00294613
0.00469601
0.00711294
0.0102724
0.01423
0.0189499
0.0242688
0.0299222
0.0357907
0.0418733
0.0483121
0.0551942
0.0621916
0.0673522
0.0694467
0.0685731
0.0643508
0.0576867
0.0499049
0.0408613
0.031153
0.0207149
0.0132908
0.0104232
0.0111361
0.0127974
0.0111777
0.00751541
0.00474142
0.00231282
0.000698137
0.0001261
0.000193267
0.000303742
0.000402353
0.000443865
0.000546167
0.000757847
0.00102334
0.00106768
0.00102632
0.000566162
0.000125514
7.41689e-06
5.0463e-06
3.26374e-06
2.98221e-06
4.49449e-06
5.33645e-06
6.19906e-06
5.51335e-06
8.37975e-06
2.21998e-05
7.64453e-05
0.000226624
0.000510201
0.000807491
0.00104863
0.00129069
0.00181108
0.00311869
0.00577481
0.00654604
0.0056912
0.00391666
0.00258175
0.00185326
0.00140317
0.00110124
0.000874366
0.000730604
0.000676935
0.000529769
0.000339789
0.000276461
0.0003407
0.000601377
0.00106838
0.00182323
0.00304265
0.00485865
0.00738414
0.0107112
0.0149034
0.0199204
0.0255812
0.031589
0.0378135
0.0442645
0.051125
0.0585156
0.0660829
0.0714885
0.0735636
0.0721495
0.0676851
0.0610053
0.053068
0.0432928
0.0324706
0.0209268
0.0128096
0.00964621
0.0103752
0.0124997
0.0111507
0.00755354
0.0047196
0.00227878
0.000684704
0.000128115
0.000184446
0.000295389
0.000429121
0.000462729
0.000541915
0.000739219
0.00102724
0.00110562
0.00107402
0.000715681
0.000163963
8.3201e-06
4.8969e-06
3.19974e-06
3.06977e-06
4.41548e-06
5.04242e-06
5.75721e-06
5.64959e-06
8.70063e-06
2.24986e-05
7.40263e-05
0.000211496
0.000469714
0.000757286
0.00102711
0.00131516
0.00189887
0.00335085
0.00619111
0.00692813
0.00579084
0.00388187
0.0025759
0.00192144
0.00147239
0.00114784
0.000903414
0.0007453
0.000683437
0.000551309
0.00036129
0.000289792
0.000349755
0.000618189
0.00110159
0.00188178
0.00314217
0.00502612
0.0076644
0.0111671
0.0156069
0.0209389
0.0269622
0.0333454
0.0399454
0.0467868
0.0540945
0.0620166
0.0701587
0.0757694
0.0777753
0.0759141
0.071463
0.0649441
0.0567525
0.0460099
0.0338917
0.0211536
0.0123144
0.00887692
0.0095942
0.0120733
0.0110637
0.00756539
0.00468132
0.00224168
0.000669811
0.000128735
0.000176259
0.000286047
0.00046126
0.000482979
0.000541281
0.000720107
0.00101905
0.00114305
0.00111014
0.000815051
0.000221311
8.85335e-06
4.75243e-06
3.13368e-06
3.14441e-06
4.19156e-06
4.85713e-06
5.58227e-06
5.76805e-06
9.32347e-06
2.27069e-05
7.14709e-05
0.000197859
0.000436476
0.000718804
0.00102042
0.00135881
0.00200606
0.00362787
0.00665455
0.00731927
0.00593649
0.00392136
0.0026251
0.00201991
0.00155086
0.00119391
0.000930338
0.000758918
0.00068682
0.000568343
0.000382665
0.000304139
0.00036039
0.000636602
0.00113653
0.00194244
0.0032444
0.00519811
0.00795349
0.0116403
0.0163413
0.0220069
0.028414
0.0351941
0.0421901
0.0494456
0.057226
0.0656904
0.074373
0.0801524
0.0820688
0.0800019
0.0758888
0.0696345
0.0609942
0.049024
0.0354296
0.0214023
0.0118101
0.00813113
0.00880829
0.0115297
0.0108781
0.00757293
0.00463059
0.00220087
0.00065346
0.000135299
0.000168432
0.000278232
0.000499365
0.000504107
0.000543833
0.000702429
0.000996885
0.00117906
0.00114065
0.000893003
0.00028915
1.20742e-05
4.59962e-06
3.06224e-06
3.1725e-06
3.92114e-06
4.78849e-06
5.67586e-06
6.05315e-06
9.88841e-06
2.2956e-05
6.86274e-05
0.000185379
0.000409191
0.000690975
0.00102747
0.00142102
0.00213215
0.00392329
0.00707376
0.00769865
0.00610935
0.00403433
0.00273626
0.00214641
0.00163575
0.00123786
0.000953821
0.000770713
0.0006871
0.000580435
0.000403136
0.000319271
0.000372565
0.000656653
0.00117304
0.00200499
0.00334902
0.00537428
0.00825115
0.0121307
0.0171072
0.0231258
0.0299386
0.0371381
0.0445517
0.0522466
0.0605243
0.0695246
0.078657
0.084591
0.0864747
0.084617
0.0811834
0.0751845
0.065823
0.0523511
0.0371219
0.0217199
0.0113005
0.00742199
0.00803178
0.0108819
0.0105958
0.00754953
0.00456579
0.00215545
0.000635657
0.000135798
0.000162079
0.000270369
0.000544712
0.000526594
0.000560492
0.000687907
0.000956855
0.00121234
0.00117184
0.000952516
0.000370215
1.92844e-05
4.71719e-06
2.99512e-06
3.15158e-06
3.66702e-06
4.81828e-06
5.90765e-06
6.36229e-06
1.05188e-05
2.30164e-05
6.54698e-05
0.000173904
0.000386892
0.00067283
0.00104902
0.00150244
0.00227616
0.0042208
0.00743728
0.00805566
0.00633497
0.00422542
0.00291479
0.00229447
0.00172294
0.00127821
0.000972698
0.000779879
0.000684994
0.000587044
0.000421801
0.000334892
0.000386181