/*--------------------------------*- C++ -*----------------------------------*\
| =========                 |                                                 |
| \\      /  F ield         | OpenFOAM: The Open Source CFD Toolbox           |
|  \\    /   O peration     | Version:  4.1                                   |
|   \\  /    A nd           | Web:      www.OpenFOAM.org                      |
|    \\/     M anipulation  |                                                 |
\*---------------------------------------------------------------------------*/
FoamFile
{
    version     2.0;
    format      ascii;
    class       volScalarField;
    location    "5";
    object      k;
}
// * * * * * * * * * * * * * * * * * * * * * * * * * * * * * * * * * * * * * //

dimensions      [0 2 -2 0 0 0 0];

internalField   nonuniform List<scalar> 
6785
(
0.413007
0.000187515
0.000179269
0.000179268
0.00017929
0.00017925
0.000179273
0.000179289
0.000179248
0.000179271
0.000179286
0.000179236
0.000179648
0.000527892
0.545943
0.52421
0.000931543
3.10758e-07
2.90587e-07
2.76879e-07
2.62858e-07
2.49484e-07
2.36255e-07
2.22846e-07
2.09574e-07
1.97418e-07
4.32469e-07
0.000150564
0.0078789
0.191041
0.64476
0.00574553
1.17384e-08
4.4644e-09
2.13733e-08
4.59575e-08
1.38127e-07
1.47411e-06
1.77776e-05
0.000110298
0.000415557
0.00141533
0.00419143
0.00569509
0.0142294
0.804898
0.0268919
4.88751e-05
9.92659e-08
3.3618e-08
5.11779e-08
1.79336e-07
8.57711e-07
8.0796e-06
6.12943e-05
0.000212203
0.000676347
0.0019356
0.00343293
0.00620941
0.95609
0.0679376
0.00394231
0.000335053
4.59011e-05
7.69708e-06
2.33035e-06
3.03058e-06
1.02815e-05
4.47599e-05
0.000152212
0.000463141
0.00165582
0.00373009
0.00421852
1.09661
0.0869255
0.00714818
0.000711377
0.000124148
2.82943e-05
5.87442e-05
0.000123021
0.000241183
0.000331376
0.000429053
0.00062325
0.00169582
0.00429758
0.00684218
1.22699
0.0783476
0.00640403
0.000661916
0.000299231
0.000369295
0.00189117
0.00362298
0.00560412
0.00385005
0.00226994
0.00153184
0.00176922
0.00479125
0.0130297
1.34182
0.0698314
0.00483643
0.000855809
0.00208065
0.00525234
0.0141944
0.0243159
0.0284433
0.0133576
0.00744816
0.0113956
0.00986946
0.0089883
0.029047
1.48493
0.0726547
0.00452258
0.00183162
0.00530278
0.011557
0.0245108
0.0396547
0.0490468
0.0372452
0.0286417
0.0333342
0.0395745
0.0327945
0.0462654
1.57734
0.173429
0.00881481
0.00261509
0.00670697
0.0123557
0.0230017
0.0360127
0.0524564
0.0570128
0.0586495
0.0579292
0.0540074
0.0499079
0.0462084
1.5825
0.363732
0.0452343
0.0095549
0.00803945
0.011345
0.0187965
0.0267971
0.0381428
0.046659
0.0524167
0.0509724
0.0460159
0.0319247
0.0266099
1.5035
0.658622
0.111989
0.0289286
0.0138071
0.0122227
0.0171428
0.0229374
0.03027
0.03718
0.0404911
0.0365437
0.032435
0.0342664
0.0229934
1.38885
1.06795
0.211472
0.0630302
0.0293877
0.0191781
0.0194206
0.0224108
0.0279762
0.0338135
0.0361111
0.0324347
0.0286614
0.0326374
0.0258587
1.24443
1.55044
0.358001
0.124889
0.0457332
0.0207135
0.0185471
0.0210755
0.0254169
0.0307209
0.0324199
0.0295272
0.0257696
0.0311189
0.0310036
1.18588
2.96243
1.05316
0.491552
0.284143
0.181357
0.124599
0.102629
0.0907927
0.0792486
0.0651849
0.0484039
0.034642
0.0383436
0.0389525
0.984577
1.10613
1.03936
1.03324
1.03888
1.11007
1.04847
1.04117
1.04461
1.10977
1.05535
1.05006
1.09768
1.03568
1.02221
1.01708
1.06243
1.00551
0.993269
1.02312
0.960401
0.941864
0.928846
0.95412
0.894664
0.876859
0.863775
0.886981
0.83314
0.819021
0.839795
0.78369
0.767863
0.755963
0.779698
0.726142
0.712339
0.732494
0.674416
0.65829
0.645373
0.666958
0.607891
0.592327
0.579937
0.60341
0.543899
0.530061
0.552699
0.490671
0.477246
0.466352
0.498271
0.437386
0.427169
0.418935
0.458837
0.39252
0.381605
0.40491
0.340008
0.325239
0.310536
0.302103
0.256473
0.240186
0.216924
0.198786
0.191357
0.184427
0.176074
0.170963
0.168357
0.165446
0.161704
0.158698
0.156952
0.15435
0.15177
0.150344
0.148229
0.146349
0.149255
0.147549
0.146609
0.147103
0.145737
0.146706
0.147755
0.148993
0.150451
0.151856
0.152875
0.155522
0.158209
0.159632
0.161166
0.16231
0.164189
0.166614
0.169624
0.172856
0.179544
0.183555
0.186558
0.190551
0.19469
0.198878
0.203537
0.209049
0.215115
0.222634
0.24316
0.251448
0.259355
0.268336
0.278046
0.288302
0.299129
0.311112
0.326088
0.352847
0.366019
0.378853
0.392982
0.408549
0.42502
0.443412
0.461994
0.484184
0.512809
0.531269
0.552925
0.57459
0.596277
0.620215
0.646259
0.674017
0.711826
0.734478
0.755937
0.786596
0.816371
0.850111
0.884185
0.892129
0.89888
0.903369
0.914958
0.929516
0.860785
0.767902
0.650571
0.518947
0.368393
0.260681
0.229129
0.189724
0.150388
0.105788
0.0651144
0.0641643
0.0578443
0.0529325
0.0530236
0.0501485
0.0507342
0.0486419
0.0474258
0.0477562
0.0467215
0.0463213
0.0466995
0.0466045
0.047309
0.0470453
0.047286
0.0477192
0.0481027
0.0488526
0.0489381
0.049512
0.0499859
0.0501187
0.0507838
0.0512576
0.0519637
0.0527636
0.0529887
0.0537314
0.0542103
0.0549988
0.055822
0.0560845
0.0569114
0.0574118
0.0576486
0.0584815
0.0589774
0.0598746
0.0607479
0.061068
0.0619729
0.0624824
0.0634562
0.0643629
0.0647119
0.0657025
0.0662365
0.066547
0.067535
0.0680582
0.0691338
0.0700865
0.070473
0.0715279
0.0720411
0.0731857
0.0741463
0.0745291
0.0756546
0.0761487
0.0764572
0.0775561
0.077997
0.0791994
0.0801188
0.0804378
0.0815633
0.0819144
0.0831441
0.0839982
0.0842229
0.0853752
0.085621
0.0857251
0.0868236
0.0869674
0.0881895
0.0888922
0.0812249
0.0794347
0.0705868
0.0536018
0.0391429
0.024847
0.0156254
0.0129112
0.00903274
0.00618865
0.00565189
0.00504862
0.00414623
0.00347752
0.0035166
0.00357601
0.00783435
0.0198694
0.0451643
0.0888099
0.162642
0.261914
0.34995
0.392972
0.399167
0.396295
0.411426
0.446302
0.489089
0.500211
0.453741
0.382364
0.309351
0.246336
0.1972
0.160481
0.134746
0.114365
0.0978942
0.100559
0.113436
0.134606
0.176768
0.240326
0.324889
0.43416
0.56037
0.687414
0.800603
0.897193
0.983743
1.06453
1.14145
1.21564
1.28752
1.35757
1.42601
1.4918
1.55096
1.5967
1.62018
1.61679
1.58631
1.52292
1.41367
1.28985
1.17465
1.08695
1.02885
0.981406
0.921735
0.817154
0.717994
0.61151
0.402791
0.159672
0.0196853
0.052637
0.0818122
0.0826584
0.0813141
0.0730396
0.0563163
0.0413729
0.0263988
0.0160102
0.0124771
0.00880296
0.00634949
0.00570384
0.00504533
0.004115
0.00317477
0.00310452
0.00362593
0.00783399
0.0197434
0.0450406
0.0890083
0.163735
0.264954
0.354288
0.396004
0.401043
0.39839
0.414908
0.450959
0.495227
0.507571
0.460219
0.387416
0.313012
0.248587
0.198681
0.161716
0.135889
0.115147
0.0982097
0.101469
0.11524
0.137433
0.180055
0.244007
0.329154
0.438579
0.564397
0.691002
0.804371
0.901765
0.989921
1.07261
1.15195
1.22887
1.30366
1.3767
1.44816
1.51691
1.57886
1.62688
1.65191
1.64919
1.61816
1.5532
1.44146
1.31373
1.19409
1.10196
1.0403
0.98862
0.924598
0.824025
0.723476
0.614832
0.409599
0.168503
0.0236824
0.0547804
0.0834882
0.0852147
0.0845008
0.0771345
0.0606641
0.0447544
0.0287313
0.0174786
0.0118138
0.00787606
0.00620068
0.0055924
0.0049079
0.00396979
0.00272775
0.00268833
0.0035344
0.00788967
0.0196548
0.044978
0.0894557
0.165641
0.269778
0.360846
0.400737
0.404211
0.402185
0.420755
0.458006
0.504348
0.518528
0.469763
0.394867
0.318437
0.252002
0.201032
0.163832
0.137954
0.117008
0.099395
0.102724
0.117118
0.140105
0.183169
0.247547
0.33333
0.443198
0.569426
0.697132
0.812257
0.91152
1.00188
1.08766
1.17076
1.25177
1.33077
1.40802
1.48364
1.55648
1.62231
1.67361
1.70089
1.69912
1.66732
1.60007
1.48464
1.35098
1.22452
1.12631
1.06041
1.00342
0.93408
0.834423
0.731748
0.61979
0.416448
0.176796
0.027626
0.0566546
0.0845586
0.0885277
0.0885992
0.0824206
0.0661183
0.0488011
0.0310073
0.0192086
0.0123899
0.00791706
0.00620779
0.00555131
0.00484391
0.00389409
0.00277575
0.00305573
0.00404849
0.00804853
0.019578
0.044906
0.0900278
0.167893
0.27517
0.368068
0.405837
0.407415
0.406427
0.42765
0.466522
0.515522
0.531853
0.481429
0.403674
0.324628
0.255805
0.203661
0.166368
0.140545
0.119375
0.100976
0.104021
0.118832
0.142542
0.186068
0.250895
0.337406
0.448045
0.575363
0.704889
0.822157
0.924188
1.01793
1.10808
1.19616
1.28233
1.3664
1.44852
1.52887
1.60631
1.67654
1.73158
1.76142
1.7607
1.72798
1.65803
1.53831
1.39759
1.26295
1.15796
1.08789
1.0253
0.949759
0.846946
0.740984
0.625126
0.42308
0.184765
0.0316149
0.0587272
0.0854679
0.0922921
0.0932853
0.0886122
0.072699
0.0538427
0.0336872
0.0201913
0.0129934
0.00815488
0.00629677
0.00555789
0.00482094
0.00386022
0.00285392
0.00330653
0.00440224
0.0082394
0.0195296
0.0448353
0.0906379
0.170339
0.280863
0.375473
0.410842
0.41034
0.410869
0.435036
0.475665
0.527608
0.546156
0.494247
0.413122
0.331033
0.259622
0.206426
0.169237
0.143579
0.122308
0.102962
0.105421
0.120401
0.144704
0.188684
0.254011
0.341407
0.453224
0.582259
0.714052
0.833979
0.93968
1.0376
1.13289
1.22655
1.31826
1.40761
1.49472
1.57983
1.66195
1.73669
1.79564
1.82811
1.82835
1.79445
1.72134
1.59685
1.44821
1.30433
1.19232
1.11875
1.05105
0.968524
0.860921
0.751102
0.630815
0.429376
0.192281
0.0355308
0.0604457
0.0859707
0.0962527
0.0982711
0.0952992
0.0799897
0.0596958
0.0370938
0.0210914
0.0133784
0.00819414
0.00634296
0.00554528
0.00477968
0.00381186
0.00281271
0.00335376
0.00461147
0.00844732
0.0194956
0.0447522
0.0912096
0.172801
0.286572
0.382648
0.415291
0.412607
0.415134
0.442446
0.485067
0.540166
0.56071
0.507749
0.422803
0.337304
0.263222
0.209119
0.172259
0.146877
0.125517
0.105271
0.106883
0.12182
0.146607
0.191052
0.256996
0.345521
0.458938
0.590116
0.724355
0.847445
0.957583
1.06046
1.1615
1.26115
1.35864
1.45336
1.54544
1.63532
1.72215
1.80152
1.8645
1.89965
1.90076
1.8654
1.78865
1.65903
1.50173
1.34759
1.22836
1.15213
1.08009
0.990304
0.876502
0.762077
0.637049
0.435451
0.199372
0.0393353
0.0620189
0.0863022
0.10023
0.103411
0.102421
0.0879995
0.0663479
0.0410811
0.0223064
0.0138899
0.00824761
0.00637249
0.00552457
0.00473575
0.00376449
0.00281116
0.0034366
0.00491047
0.00869807
0.019486
0.0446659
0.091722
0.175209
0.292219
0.389369
0.418926
0.414102
0.419137
0.4497
0.494534
0.552889
0.574838
0.52159
0.432479
0.343258
0.26655
0.211666
0.175317
0.150455
0.128992
0.107814
0.108359
0.123068
0.148253
0.193209
0.259959
0.349905
0.46527
0.598796
0.73565
0.862475
0.977672
1.08618
1.19339
1.29927
1.40264
1.50273
1.59977
1.69441
1.78598
1.87009
1.93723
1.97508
1.97694
1.9398
1.8588
1.72369
1.55698
1.39147
1.26482
1.18684
1.11139
1.01394
0.893289
0.773635
0.643722
0.441325
0.206042
0.0430301
0.0633743
0.0869112
0.104045
0.108485
0.109776
0.0966646
0.073959
0.04573
0.0237878
0.0145116
0.00837283
0.00641382
0.00551181
0.00470282
0.0037313
0.00286648
0.00352258
0.0052735
0.00897823
0.0194954
0.0445664
0.0921451
0.17748
0.297706
0.395358
0.421488
0.41475
0.422816
0.456689
0.504005
0.565678
0.588058
0.535435
0.441983
0.348762
0.269556
0.213971
0.178256
0.154257
0.132759
0.110557
0.109834
0.124149
0.149659
0.195219
0.263013
0.354672
0.472205
0.608174
0.747934
0.879077
0.999891
1.11453
1.22826
1.34057
1.4499
1.55539
1.65739
1.75681
1.85321
1.94218
2.01362
2.05423
2.0567
2.01741
1.9315
1.79046
1.61357
1.4355
1.30122
1.22251
1.14473
1.03932
0.911174
0.78564
0.650724
0.446988
0.212208
0.046689
0.0644894
0.0867838
0.107572
0.113354
0.11719
0.105823
0.0825672
0.05122
0.0255824
0.0151159
0.00849179
0.00645491
0.00550215
0.00467489
0.00370626
0.002933
0.00360035
0.0056667
0.00927531
0.0195175
0.0444551
0.0924752
0.179548
0.302982
0.40033
0.422807
0.414615
0.426258
0.463424
0.513475
0.57851
0.600014
0.548868
0.45121
0.353733
0.272176
0.215997
0.180982
0.158272
0.136786
0.113482
0.111296
0.125073
0.150865
0.19716
0.266256
0.359859
0.479667
0.618171
0.761209
0.897142
1.02403
1.14533
1.26587
1.38478
1.50017
1.61111
1.71812
1.82238
1.92371
2.01772
2.09362
2.13702
2.13996
2.0981
2.00653
1.85897
1.67113
1.47921
1.33713
1.25885
1.18
1.06618
0.929976
0.797995
0.657959
0.452436
0.217849
0.0503091
0.0655128
0.0864496
0.11069
0.117857
0.124477
0.115319
0.092135
0.0576938
0.0278492
0.0156558
0.00858202
0.00648623
0.00549082
0.00464815
0.00368586
0.00301421
0.00376825
0.00612518
0.0095858
0.0195504
0.0443334
0.0927017
0.181319
0.30782
0.404077
0.422782
0.413884
0.429636
0.469933
0.522931
0.591408
0.61055
0.561401
0.460095
0.35812
0.274322
0.217736
0.183482
0.162446
0.141064
0.116574
0.112744
0.125858
0.151915
0.199104
0.269737
0.365429
0.487566
0.628761
0.775493
0.916672
1.05012
1.17846
1.30611
1.43181
1.55337
1.66985
1.78194
1.89113
1.99753
2.09675
2.17728
2.22351
2.22675
2.18185
2.08381
1.92893
1.72941
1.52232
1.3723
1.29573
1.21734
1.09461
0.949607
0.810619
0.665317
0.457652
0.222966
0.053873
0.0663559
0.0864393
0.113306
0.121847
0.131432
0.12498
0.102562
0.0653084
0.0307302
0.0160943
0.00865239
0.00650938
0.00547868
0.00462385
0.00367173
0.00311499
0.00404813
0.00662924
0.00990298
0.0195879
0.0441941
0.0928029
0.182686
0.31191
0.406435
0.421434
0.412905
0.433182
0.476189
0.532282
0.604358
0.61987
0.572467
0.468575
0.361907
0.275948
0.219215
0.185831
0.166698
0.145591
0.119832
0.114188
0.12653
0.152856
0.201101
0.273464
0.371316
0.495843
0.639957
0.790784
0.937613
1.07803
1.21385
1.34887
1.48158
1.60948
1.73162
1.84889
1.96313
2.07474
2.17937
2.26473
2.31382
2.31714
2.26864
2.16319
1.99996
1.78812
1.56459
1.40658
1.33303
1.25694
1.12477
0.970024
0.823457
0.672688
0.462599
0.227547
0.0573634
0.0669794
0.0858789
0.115345
0.125189
0.137836
0.13459
0.113627
0.0742457
0.034441
0.0165388
0.00868153
0.00652468
0.00546622
0.00460217
0.00366434
0.00323544
0.00438606
0.00714666
0.0102185
0.0196242
0.0440261
0.0927524
0.183534
0.314956
0.407207
0.418929
0.41214
0.437021
0.482008
0.54133
0.617219
0.62861
0.581563
0.476502
0.365095
0.277089
0.22048
0.188114
0.170912
0.150365
0.123259
0.115649
0.127118
0.153728
0.203188
0.277426
0.377467
0.504481
0.651783
0.807077
0.959952
1.10777
1.25149
1.39416
1.53413
1.66854
1.7965
1.91908
2.03848
2.15548
2.26573
2.35608
2.40806
2.41119
2.35843
2.2445
2.07164
1.84705
1.60597
1.44
1.37062
1.29892
1.15699
0.991251
0.836467
0.679974
0.467222
0.231574
0.0607594
0.0675392
0.0852643
0.116747
0.127761
0.143471
0.143957
0.125002
0.0846249
0.0392359
0.0172545
0.00862931
0.00652929
0.00545224
0.00458179
0.00366269
0.00338356
0.00473654
0.00765978
0.0105247
0.0196554
0.0438233
0.0925273
0.183747
0.316646
0.406231
0.415577
0.412066
0.440994
0.487074
0.549855
0.629628
0.637647
0.58848
0.483583
0.36768
0.277827
0.221591
0.190378
0.174965
0.155384
0.126857
0.117155
0.127656
0.154568
0.205386
0.28161
0.383863
0.513498
0.664263
0.824362
0.983665
1.13931
1.29139
1.44198
1.58948
1.73065
1.8646
1.99262
2.11733
2.23988
2.35597
2.4515
2.50635
2.50893
2.45112
2.32751
2.14339
1.90604
1.64667
1.47268
1.40818
1.34309
1.19156
1.01334
0.849611
0.687085
0.471454
0.235017
0.0640366
0.0679333
0.0845457
0.117463
0.129461
0.148136
0.15292
0.136307
0.0964482
0.0452389
0.0183661
0.00848303
0.00652141
0.00543573
0.0045618
0.00366632
0.00357015
0.00509263
0.00814917
0.0108156
0.0196801
0.0435858
0.0921089
0.183232
0.316659
0.403427
0.411784
0.412983
0.44458
0.491104
0.557846
0.641053
0.647598
0.593428
0.489397
0.369629
0.278234
0.222611
0.192625
0.178763
0.160628
0.130619
0.118741
0.128181
0.155406
0.207717
0.286016
0.39051
0.522923
0.677412
0.84263
1.00873
1.17263
1.33361
1.49239
1.64773
1.79592
1.93605
2.06967
2.19984
2.32813
2.45029
2.55114
2.60878
2.61034
2.54653
2.41193
2.21456
1.96519
1.68721
1.50483
1.44516
1.3888
1.22859
1.0363
0.862836
0.693937
0.475222
0.237836
0.0671795
0.0682433
0.0837948
0.117459
0.130211
0.151669
0.161313
0.147165
0.10957
0.0525683
0.0198856
0.00824768
0.00650115
0.00541643
0.00454197
0.00367584
0.00379452
0.00549267
0.00860948
0.011087
0.0197015
0.0433195
0.091487
0.181922
0.314689
0.398819
0.407938
0.414771
0.447021
0.494134
0.565778
0.651
0.658334
0.596936
0.493486
0.370866
0.278362
0.2236
0.194859
0.1823
0.166011
0.134535
0.120451
0.128732
0.156269
0.210202
0.290653
0.397437
0.532791
0.691238
0.861872
1.03515
1.20771
1.37828
1.54545
1.70898
1.86446
2.01101
2.15042
2.28621
2.42042
2.54887
2.65516
2.71543
2.7153
2.64434
2.49742
2.28528
2.02422
1.72836
1.5364
1.48055
1.43472
1.26778
1.06006
0.876057
0.700453
0.478444
0.239984
0.0701662
0.0684432
0.0832803
0.116721
0.12996
0.15396
0.16893
0.157269
0.123611
0.0615071
0.0218938
0.00792711
0.00646981
0.00539426
0.00452219
0.00369225
0.00404704
0.00594425
0.0090158
0.0113313
0.0197278
0.0430369
0.0906595
0.17979
0.310512
0.39253
0.404272
0.41681
0.447653
0.496704
0.574639
0.659373
0.668834
0.599513
0.495493
0.371279
0.278275
0.224637
0.197122
0.185635
0.171373
0.138599
0.122332
0.129357
0.157184
0.212862
0.295537
0.404677
0.543125
0.705742
0.88208
1.06289
1.24452
1.42498
1.60124
1.77333
1.93644
2.08965
2.23504
2.37664
2.51699
2.65194
2.76369
2.82628
2.82357
2.7441
2.58362
2.35616
2.08301
1.77091
1.56678
1.51269
1.47879
1.30826
1.08441
0.889145
0.706552
0.481029
0.241411
0.0729753
0.0685271
0.0823345
0.115249
0.128686
0.15494
0.175513
0.166442
0.137886
0.0723187
0.0245052
0.007537
0.00643038
0.00536918
0.00450233
0.00371674
0.00431212
0.00640049
0.00934895
0.0115472
0.019772
0.0427501
0.0896349
0.176849
0.304054
0.384746
0.400766
0.418156
0.446324
0.49974
0.585206
0.667092
0.677618
0.601283
0.495228
0.370767
0.278084
0.225846
0.199491
0.188821
0.176542
0.14283
0.124433
0.130111
0.158177
0.215723
0.300698
0.412264
0.553941
0.720919
0.903241
1.09195
1.28308
1.47383
1.65985
1.84092
2.01201
2.17215
2.32376
2.4714
2.61809
2.75972
2.87683
2.94121
2.93472
2.84524
2.67034
2.42801
2.1427
1.81446
1.59462
1.53937
1.51829
1.34858
1.10897
0.901922
0.712148
0.482866
0.242071
0.0755897
0.068598
0.0813642
0.113074
0.126397
0.154569
0.180774
0.17465
0.15147
0.0852276
0.0278653
0.00710829
0.00638407
0.00534109
0.00448238
0.00375036
0.0045667
0.00682122
0.00962594
0.0117435
0.0198454
0.0424629
0.0884351
0.173175
0.295476
0.375677
0.397169
0.417905
0.443637
0.504165
0.597591
0.675867
0.683575
0.601828
0.492618
0.369262
0.27794
0.227383
0.202058
0.191903
0.181362
0.147272
0.126798
0.131051
0.159278
0.218822
0.306166
0.420222
0.565244
0.736758
0.925345
1.12233
1.32341
1.52495
1.72137
1.91188
2.09133
2.25871
2.41681
2.57074
2.72402
2.87243
2.99461
3.05992
3.04811
2.94716
2.75768
2.50202
2.20511
1.85751
1.61816
1.55813
1.5501
1.38687
1.13316
0.914153
0.717144
0.483797
0.241941
0.0779941
0.0686104
0.0806876
0.110258
0.123132
0.152844
0.18446
0.181923
0.163443
0.100311
0.0322939
0.00672735
0.00633245
0.00531013
0.00446247
0.00379497
0.00480309
0.0071916
0.00986399
0.0119352
0.0199507
0.0421667
0.0871014
0.168939
0.285226
0.36555
0.393146
0.415664
0.440776
0.510178
0.612292
0.686918
0.686553
0.600371
0.487682
0.366753
0.278002
0.229407
0.20491
0.194924
0.185746
0.151907
0.129467
0.132241
0.160516
0.222193
0.311963
0.428566
0.577029
0.753244
0.948375
1.15404
1.36556
1.57846
1.78595
1.98634
2.17458
2.34955
2.51443
2.67496
2.8351
2.99032
3.11694
3.18191
3.16292
3.04938
2.84631
2.57975
2.27126
1.89872
1.63586
1.56695
1.57137
1.42107
1.15629
0.925565
0.72142
0.483525
0.241188
0.0801711
0.0685167
0.0796737
0.106915
0.118973
0.149781
0.186405
0.188237
0.173208
0.117175
0.0384084
0.00647158
0.0062789
0.00527651
0.00444281
0.00385164
0.00503993
0.00750789
0.0100731
0.0121408
0.0200845
0.0418549
0.0857016
0.16442
0.274063
0.354659
0.388487
0.411798
0.43881
0.517526
0.629995
0.700925
0.687332
0.596205
0.480529
0.363338
0.278425
0.232054
0.208126
0.197931
0.189692
0.156635
0.13247
0.133751
0.161905
0.225863
0.318102
0.4373
0.589284
0.770359
0.972318
1.18707
1.40957
1.63445
1.85376
2.06446
2.26193
2.44486
2.61689
2.78438
2.95164
3.11352
3.24354
3.3064
3.27825
3.15186
2.93765
2.66287
2.34141
1.93723
1.64689
1.56475
1.58012
1.44918
1.17762
0.935856
0.724836
0.481805
0.239954
0.0821217
0.0684115
0.0786817
0.103223
0.11406
0.145426
0.186541
0.193488
0.180528
0.134573
0.046834
0.00640803
0.00622689
0.00524019
0.00442351
0.00392013
0.00527372
0.00775095
0.0102632
0.0123747
0.0202475
0.0415452
0.084329
0.159968
0.262996
0.343506
0.383331
0.407199
0.43807
0.526625
0.650919
0.718115
0.687108
0.589083
0.471427
0.359279
0.279367
0.235418
0.211765
0.200974
0.193202
0.161389
0.135768
0.135669
0.163451
0.229849
0.324587
0.446416
0.601988
0.78808
0.997156
1.22143
1.45546
1.69301
1.925
2.14639
2.35357
2.54487
2.72446
2.89933
3.07396
3.2421
3.37392
3.43233
3.3933
3.25528
3.0338
2.75296
2.41533
1.97287
1.65134
1.55155
1.57567
1.4695
1.19633
0.944708
0.727224
0.478578
0.238191
0.0838339
0.0682281
0.0777026
0.0994469
0.108612
0.139859
0.184865
0.197387
0.186135
0.150206
0.0582778
0.00661094
0.00618037
0.00520143
0.00440462
0.00399811
0.00546996
0.00790242
0.0104539
0.0126521
0.0204503
0.0412817
0.0830836
0.155914
0.253115
0.333012
0.378179
0.402789
0.438763
0.537719
0.675129
0.738449
0.68698
0.57944
0.460934
0.355085
0.281015
0.239541
0.215856
0.20409
0.196283
0.166071
0.139312
0.137957
0.165263
0.23415
0.331406
0.455895
0.615113
0.806381
1.02287
1.25711
1.50324
1.75417
1.99996
2.23229
2.44965
2.64978
2.83741
3.02013
3.20229
3.37591
3.50729
3.55851
3.50777
3.3613
3.13735
2.85118
2.49266
2.00627
1.64995
1.52807
1.5584
1.48066
1.21154
0.95176
0.728392
0.473763
0.235861
0.0853036
0.0680356
0.0767423
0.0959499
0.102921
0.133228
0.181403
0.199682
0.190757
0.162131
0.0737145
0.00723768
0.00614562
0.00516097
0.00438561
0.00408196
0.00559847
0.00797654
0.0106725
0.0129942
0.0207133
0.0411189
0.0820424
0.152459
0.245066
0.324315
0.373395
0.399531
0.44085
0.550904
0.702512
0.761706
0.687743
0.568329
0.449961
0.351501
0.283602
0.244416
0.220387
0.207303
0.198949
0.170553
0.14304
0.140581
0.167454
0.238735
0.338535
0.46571
0.628629
0.82523
1.04944
1.29411
1.55295
1.8179
2.07808
2.32227
2.55034
2.75979
2.95601
3.14712
3.33683
3.51453
3.64256
3.68384
3.62226
3.47264
3.25099
2.95823
2.57316
2.03857
1.64369
1.4954
1.52913
1.48146
1.22237
0.956629
0.728129
0.467308
0.232921
0.08652
0.0678114
0.0760223
0.0931718
0.0973844
0.125778
0.176211
0.200188
0.194489
0.170635
0.0920828
0.00869524
0.00613692
0.0051184
0.00436534
0.00416626
0.00564246
0.00800937
0.0109369
0.0134197
0.0210588
0.0410987
0.0812314
0.149629
0.238816
0.31781
0.369689
0.397792
0.444261
0.566127
0.732682
0.787429
0.689931
0.557262
0.439731
0.349428
0.287401
0.249994
0.22531
0.210617
0.201227
0.174687
0.146875
0.143501
0.170145
0.243545
0.345939
0.475826
0.642497
0.844595
1.07684
1.33242
1.60458
1.88424
2.1593
2.41646
2.65578
2.8751
3.08051
3.28055
3.47757
3.65725
3.77841
3.80778
3.73865
3.59281
3.37706
3.07447
2.65693
2.07107
1.63354
1.45466
1.48877
1.47103
1.22786
0.958938
0.726143
0.459255
0.229364
0.0874731
0.0675412
0.0750437
0.0915591
0.0925103
0.117866
0.169374
0.1988
0.197245
0.176769
0.110653
0.0118008
0.00617792
0.00507521
0.00434259
0.00424286
0.00560006
0.00803752
0.0112618
0.0139387
0.0214959
0.0412222
0.0806069
0.147312
0.234136
0.313425
0.367454
0.397545
0.448919
0.58318
0.764916
0.814834
0.694074
0.548109
0.431688
0.349749
0.292656
0.256191
0.230534
0.214016
0.203156
0.178324
0.150728
0.146669
0.173289
0.248641
0.353581
0.486201
0.656677
0.864438
1.10505
1.37205
1.65818
1.95327
2.24389
2.51497
2.7661
2.9959
3.21115
3.42061
3.6243
3.80301
3.91362
3.93084
3.8602
3.72563
3.51731
3.20011
2.74431
2.1049
1.6203
1.40686
1.43819
1.44905
1.2272
0.958317
0.721886
0.449929
0.225221
0.0881268
0.0672854
0.0740921
0.0914395
0.0888322
0.109987
0.161029
0.195498
0.198941
0.180975
0.126731
0.0189911
0.00632871
0.00503743
0.00431656
0.00430225
0.00548524
0.00809886
0.011671
0.0145535
0.0220192
0.04145
0.0800631
0.145335
0.230705
0.310899
0.366758
0.39866
0.454768
0.601695
0.798123
0.842822
0.701038
0.54318
0.427311
0.353136
0.299491
0.262897
0.235936
0.217456
0.204772
0.181346
0.154494
0.150028
0.176836
0.25406
0.361421
0.496791
0.671123
0.884722
1.13404
1.41298
1.71377
2.02508
2.33205
2.61796
2.88144
3.12235
3.34813
3.56734
3.77652
3.95055
4.04748
4.05505
3.99137
3.87469
3.67287
3.33541
2.83581
2.1409
1.60456
1.35287
1.37825
1.4158
1.21979
0.954436
0.714733
0.439807
0.220564
0.0885093
0.0669951
0.0734221
0.0929077
0.086702
0.102733
0.151409
0.190371
0.199447
0.183712
0.138686
0.0327037
0.00667657
0.00502342
0.00428821
0.00433577
0.00531893
0.00823538
0.0121842
0.015266
0.0226185
0.0417149
0.0794847
0.143533
0.228215
0.30992
0.367508
0.401034
0.461791
0.621133
0.83084
0.870159
0.712364
0.54508
0.427919
0.359895
0.307838
0.26998
0.241368
0.220872
0.206121
0.18369
0.158054
0.153516
0.180739
0.259814
0.36942
0.507549
0.685789
0.905408
1.16379
1.45521
1.77137
2.09972
2.42391
2.72565
3.00193
3.25463
3.49159
3.72058
3.93333
4.09864
4.18046
4.18426
4.13725
4.04286
3.84443
3.48072
2.93197
2.17964
1.58679
1.29351
1.30984
1.37214
1.20529
0.947057
0.704597
0.428873
0.215416
0.0886916
0.0666709
0.0725649
0.0957922
0.08617
0.0966589
0.140873
0.183614
0.198623
0.185457
0.147007
0.0519355
0.00778688
0.00507533
0.00426401
0.00433845
0.00513258
0.00847579
0.0128082
0.0160762
0.0232778
0.0419582
0.0787835
0.141791
0.226417
0.31021
0.369554
0.404657
0.470001
0.640797
0.861445
0.895803
0.729904
0.556194
0.434469
0.369883
0.317441
0.277301
0.246684
0.22418
0.207246
0.18535
0.161291
0.157059
0.184951
0.265899
0.377537
0.518425
0.700628
0.926454
1.19427
1.49874
1.83102
2.17727
2.51959
2.83836
3.12773
3.39291
3.6416
3.87991
4.09358
4.24653
4.31473
4.32394
4.30288
4.23212
4.03242
3.63652
3.03335
2.22158
1.56741
1.22969
1.23397
1.31942
1.18377
0.936
0.691447
0.417127
0.209834
0.0886208
0.0663794
0.0717621
0.0997173
0.0870208
0.0922491
0.129928
0.175436
0.196393
0.186284
0.152584
0.0703985
0.0107513
0.00529097
0.00426205
0.00431188
0.00498123
0.00883994
0.0135421
0.0169819
0.0239801
0.0421349
0.0779174
0.140049
0.225141
0.311553
0.372768
0.409633
0.479429
0.660027
0.88869
0.919228
0.755619
0.576402
0.447293
0.382559
0.327941
0.284724
0.251765
0.227289
0.208167
0.186374
0.164102
0.160583
0.189426
0.272291
0.385729
0.529369
0.715593
0.947819
1.22543
1.54355
1.89273
2.25775
2.61909
2.95643
3.259
3.53736
3.79814
4.04465
4.25595
4.39452
4.45449
4.48061
4.49256
4.44374
4.2373
3.80341
3.14044
2.26707
1.54688
1.16252
1.15206
1.25948
1.15575
0.921116
0.675367
0.404587
0.203898
0.0883323
0.0660553
0.0710408
0.104193
0.0888715
0.0895927
0.119259
0.166118
0.192769
0.186121
0.156229
0.0862682
0.015751
0.00582738
0.00431877
0.00426993
0.00492538
0.00934382
0.0143911
0.0179834
0.0247197
0.042222
0.0768875
0.1383
0.224293
0.313816
0.377128
0.416138
0.490138
0.678349
0.912108
0.942581
0.788286
0.602502
0.464841
0.397207
0.338997
0.292122
0.256526
0.230107
0.208882
0.186835
0.166418
0.164015
0.194124
0.27895
0.393955
0.54033
0.730634
0.969457
1.25726
1.58963
1.9565
2.34116
2.72229
3.07833
3.39588
3.68813
3.96108
4.21394
4.41938
4.54433
4.60579
4.66102
4.70954
4.6785
4.45965
3.98215
3.25355
2.31626
1.52574
1.09341
1.06615
1.19465
1.12225
0.902072
0.656849
0.391315
0.197659
0.0878744
0.0657588
0.0703771
0.108683
0.0912996
0.0884198
0.109663
0.156056
0.187865
0.185104
0.158354
0.0971578
0.0239187
0.00698769
0.00450133
0.0042445
0.00500738
0.00998817
0.0153548
0.0190777
0.0255051
0.042224
0.0757272
0.136572
0.223835
0.316937
0.382751
0.424389
0.502238
0.695571
0.93219
0.966632
0.824493
0.631997
0.485331
0.413255
0.350347
0.29937
0.260913
0.232564
0.20937
0.186824
0.16821
0.167298
0.199017
0.285812
0.402173
0.551258
0.745704
0.991324
1.28971
1.63695
2.02236
2.42755
2.82925
3.20453
3.5385
3.84532
4.13014
4.38687
4.58366
4.69933
4.77566
4.8709
4.95605
4.93707
4.70022
4.17364
3.37302
2.36906
1.50457
1.02412
0.979134
1.12798
1.08461
0.878281
0.636964
0.377408
0.191202
0.0872568
0.0654617
0.0699653
0.112666
0.0939416
0.0882505
0.101833
0.145745
0.181894
0.18346
0.159221
0.105074
0.0334857
0.00903559
0.00492265
0.00429004
0.00526141
0.0107626
0.0164255
0.020264
0.0263503
0.0421621
0.074485
0.134918
0.22378
0.320938
0.389872
0.434632
0.515871
0.711768
0.949955
0.991403
0.861427
0.662915
0.507954
0.4304
0.361816
0.306341
0.264883
0.234608
0.209603
0.186425
0.169494
0.170398
0.204117
0.292777
0.41034
0.562101
0.760754
1.01337
1.32273
1.68551
2.09029
2.51695
2.9401
3.33541
3.68704
4.00893
4.30487
4.56276
4.7501
4.86483
4.97064
5.11375
5.23329
5.22025
4.95985
4.37885
3.49914
2.42515
1.48403
0.956733
0.894751
1.06331
1.04437
0.850292
0.615757
0.36296
0.184588
0.0865372
0.0651784
0.069445
0.115694
0.0965285
0.0887684
0.0960895
0.135833
0.175163
0.181249
0.1593
0.110837
0.0434842
0.0124885
0.00575146
0.00448811
0.00573713
0.0116784
0.0176028
0.0215427
0.0272668
0.042064
0.0732137
0.133403
0.224181
0.32592
0.398776
0.447101
0.531163
0.72721
0.96671
1.01741
0.897852
0.694531
0.533001
0.448506
0.37326
0.312891
0.26838
0.236202
0.209548
0.185704
0.170316
0.173313
0.20951
0.299672
0.418411
0.572813
0.775735
1.03554
1.3563
1.73527
2.16032
2.60944
3.05499
3.47123
3.84164
4.17882
4.48462
4.74133
4.92155
5.04748
5.19642
5.39135
5.54134
5.5289
5.23993
4.59871
3.63226
2.48392
1.46478
0.893541
0.81747
1.00472
1.00283
0.818988
0.593327
0.348081
0.17789
0.0857362
0.06496
0.0689988
0.117465
0.0988416
0.0895446
0.0922075
0.126831
0.168032
0.178474
0.158812
0.114977
0.0530275
0.0171077
0.0071561
0.00495528
0.00648916
0.0127459
0.018883
0.0229154
0.0282642
0.0419603
0.071967
0.132105
0.22514
0.332061
0.409735
0.461983
0.548208
0.74225
0.983496
1.04587
0.934425
0.727988
0.560757
0.467431
0.384513
0.318866
0.271317
0.237312
0.209174
0.184712
0.170744
0.17607
0.215208
0.306406
0.426339
0.583345
0.790597
1.05779
1.39033
1.78619
2.23244
2.70503
3.17399
3.61217
4.00246
4.35464
4.66864
4.92295
5.10214
5.25404
5.45746
5.70479
5.88079
5.86387
5.54189
4.83405
3.77273
2.54451
1.44749
0.836753
0.753345
0.95568
0.960254
0.786272
0.569809
0.332893
0.171179
0.0848923
0.0647716
0.0688672
0.11813
0.100635
0.0904042
0.0898521
0.119106
0.160875
0.17523
0.157893
0.117906
0.0615538
0.0227766
0.00938216
0.00583101
0.00755233
0.0139719
0.0202644
0.0243845
0.0293572
0.0418893
0.0708007
0.131115
0.226815
0.339586
0.422975
0.479384
0.567106
0.757261
1.0009
1.07791
0.972766
0.765151
0.590827
0.486928
0.395348
0.324099
0.273587
0.237902
0.208452
0.183483
0.170863
0.178717
0.22116
0.312944
0.434081
0.593655
0.805291
1.08005
1.42478
1.83823
2.30664
2.80375
3.29712
3.75826
4.16967
4.53583
4.85619
5.10888
5.29691
5.4903
5.75637
6.0545
6.25204
6.22636
5.86711
5.08551
3.92112
2.60598
1.43264
0.788955
0.710633