/*--------------------------------*- C++ -*----------------------------------*\
| =========                 |                                                 |
| \\      /  F ield         | OpenFOAM: The Open Source CFD Toolbox           |
|  \\    /   O peration     | Version:  4.1                                   |
|   \\  /    A nd           | Web:      www.OpenFOAM.org                      |
|    \\/     M anipulation  |                                                 |
\*---------------------------------------------------------------------------*/
FoamFile
{
    version     2.0;
    format      ascii;
    class       volScalarField;
    location    "5";
    object      nut;
}
// * * * * * * * * * * * * * * * * * * * * * * * * * * * * * * * * * * * * * //

dimensions      [0 2 -1 0 0 0 0];

internalField   nonuniform List<scalar> 
6785
(
0.270902
1.09503e-08
1.0249e-08
1.02466e-08
1.02478e-08
1.02459e-08
1.02477e-08
1.02477e-08
1.02453e-08
1.0247e-08
1.02467e-08
1.02435e-08
1.03103e-08
5.32019e-08
0.333853
0.304895
1.62686e-05
1.29236e-10
1.20717e-10
1.15143e-10
1.09326e-10
1.03795e-10
9.82734e-11
9.27083e-11
8.71796e-11
8.21426e-11
3.21616e-10
2.14366e-06
0.000546652
0.225463
0.336862
0.00141173
5.80858e-11
1.24182e-11
1.1898e-10
3.78583e-10
2.29502e-09
1.09046e-07
4.84158e-06
5.89753e-05
0.000186026
0.000395057
0.000912639
0.0025838
0.0348653
0.377375
0.0114252
2.22063e-06
1.15356e-08
2.0792e-09
3.93645e-09
2.04643e-08
1.62874e-07
3.4144e-06
5.76142e-05
0.00012988
0.000274127
0.000545406
0.00276236
0.0317016
0.41171
0.0314217
0.00301076
0.000645394
0.000234079
3.11707e-05
2.05772e-06
1.42018e-06
5.68762e-06
3.30804e-05
0.00013505
0.000505568
0.00070602
0.001836
0.0210124
0.439565
0.0382783
0.0060412
0.000837804
0.000424145
0.000155196
0.000298255
0.000632758
0.000849115
0.000708541
0.000970345
0.000746924
0.00102243
0.00224375
0.0267546
0.464938
0.0369586
0.00521179
0.000733515
0.00116791
0.0073564
0.0306676
0.046377
0.0309899
0.0150819
0.00646431
0.00343994
0.0024788
0.00356008
0.032594
0.478992
0.0377867
0.00517221
0.00137895
0.0238015
0.100166
0.0680755
0.0568091
0.0646293
0.0375498
0.0276669
0.0233007
0.144093
0.0134139
0.0528316
0.505435
0.0462001
0.00553822
0.00514324
0.0104172
0.0116306
0.0138102
0.0191561
0.0279614
0.0483679
0.0586993
0.0305178
0.0366263
0.0548232
0.0861227
0.530242
0.10227
0.0261731
0.00551459
0.00986514
0.0108284
0.0112892
0.0154829
0.0269178
0.0344923
0.0467666
0.0591953
0.101769
0.101943
0.118721
0.540272
0.184542
0.0709216
0.0337879
0.0131334
0.0126161
0.0109683
0.0123359
0.0167226
0.0223587
0.0288264
0.0235859
0.0222482
0.0471871
0.0928727
0.530619
0.321227
0.0923916
0.138084
0.0364911
0.0177
0.0163487
0.0173545
0.0183051
0.021655
0.0222062
0.015617
0.0125913
0.0194874
0.0616867
0.506689
0.429881
0.137045
0.0560294
0.0722947
0.0411375
0.0299635
0.0229428
0.0260375
0.0279934
0.0261032
0.0188815
0.013382
0.0154943
0.0821853
0.473509
0.587703
0.542835
1.30588
0.0432246
0.0144943
0.0235643
0.020645
0.0262566
0.0298768
0.0270843
0.0204725
0.0130683
0.0147239
0.0833153
0.461923
0.67924
0.245586
0.248444
0.355775
1.08405
4.3295
20.316
0.712386
0.37772
0.173202
0.0869266
0.0387327
0.0251169
0.0927742
2.82975
5.32213
2.89316
2.88335
2.88923
5.31555
2.89727
2.8866
2.89018
5.30509
2.90103
2.8931
5.26971
2.87111
2.85255
2.84508
5.18178
2.82741
2.81024
5.08428
2.7633
2.73687
2.71799
4.91085
2.66756
2.64146
2.62198
4.73716
2.57538
2.55389
4.61085
2.49892
2.47421
2.45522
4.44451
2.40622
2.38356
4.30759
2.31959
2.29236
2.26966
4.10891
2.20146
2.17318
2.14966
3.90074
2.07849
2.05118
3.72261
1.97059
1.94262
1.91849
3.51568
1.85102
1.82661
1.80481
3.33365
1.73165
1.70175
3.07566
1.5826
1.53982
1.49367
2.56018
1.31566
1.2599
2.07978
1.10609
1.07753
1.05158
1.82203
1.00543
0.997719
0.990144
1.7504
0.973754
0.970575
1.72277
0.960024
0.958596
0.176797
0.171486
0.181471
0.17954
0.16013
0.159837
0.158087
0.156194
0.156603
0.154913
0.154856
0.153266
0.144542
0.135697
0.136133
0.138403
0.137181
0.138517
0.138466
0.141606
0.142289
0.136603
0.12886
0.127072
0.129713
0.12584
0.127268
0.123948
0.124135
0.120828
0.120148
0.0878954
0.101261
0.101541
0.100319
0.102085
0.105623
0.116144
0.131521
0.135216
0.138304
0.150484
0.154687
0.168474
0.175544
0.183065
0.181529
0.185713
0.19775
0.201608
0.21288
0.20907
0.221181
0.220118
0.231606
0.239601
0.248501
0.259142
0.278336
0.280262
0.283754
0.293412
0.287806
0.288145
0.289548
0.294217
0.284177
0.292749
0.279671
0.278871
0.305919
0.250411
0.238621
0.202363
0.230469
0.162211
0.132842
1.8004
0.146604
0.276337
0.730825
1.17282
1.11212
0.654366
1.06016
0.635212
1.03454
1.01115
0.61541
1.00012
0.987966
0.606721
0.98665
0.608044
0.992233
0.988853
0.611802
0.99552
0.616871
1.00696
1.00758
0.625693
1.01834
1.01959
0.633674
1.03125
0.641028
1.04631
1.0484
0.651849
1.06056
0.65953
1.07624
1.0787
0.670911
1.09153
1.09364
0.68012
1.1063
0.688204
1.12281
1.12569
0.700156
1.13876
0.708506
1.15578
1.15875
0.720913
1.1724
1.17507
0.730859
1.18837
0.739444
1.20589
1.20903
0.752046
1.22238
0.760661
1.24
1.24306
0.773233
1.25639
1.2587
0.782701
1.27116
0.790827
1.2881
1.29046
0.802278
1.30202
0.809851
1.31819
1.31963
0.820326
1.33026
1.33083
0.826919
1.34011
0.833204
1.35454
2.88989
2.63157
2.15392
1.488
1.32545
1.00642
0.752761
0.667817
0.454135
0.350461
0.393599
0.535405
0.494549
0.369462
0.271004
0.277184
1.35065
3.76943
5.48063
6.1966
6.73887
7.18921
8.50471
9.27122
9.03706
8.13242
7.38962
7.12172
7.47094
7.51749
7.05488
6.54141
6.22572
5.95452
5.60407
5.12822
4.6376
4.68154
5.97596
7.62912
8.50475
8.69378
8.69163
9.11664
9.80801
10.4913
11.205
11.8795
12.302
12.3804
12.2247
11.9872
11.7427
11.5278
11.362
11.2626
11.2493
11.3326
11.4931
11.73
11.9052
11.9435
12.0068
11.9067
11.3664
10.7024
10.0788
9.89539
9.94883
9.90864
9.64477
9.55403
9.55048
8.86763
8.59455
6.77142
1.26314
1.39609
1.37194
2.90041
2.64431
2.1754
1.49834
1.32154
1.02714
0.758995
0.666858
0.432299
0.356092
0.394544
0.531309
0.488396
0.29612
0.239189
0.305141
1.34336
3.75022
5.5406
6.24585
6.70759
7.12151
8.46573
9.24613
9.01431
8.08252
7.324
7.04212
7.38791
7.42904
6.95228
6.44875
6.16195
5.90946
5.5666
5.0922
4.59615
4.64296
5.95085
7.57034
8.42586
8.6367
8.64511
9.07824
9.80151
10.5069
11.2264
11.8943
12.2976
12.3544
12.1806
11.9265
11.6658
11.4358
11.2553
11.1417
11.1157
11.1899
11.3461
11.5812
11.7582
11.8025
11.8774
11.796
11.282
10.6358
10.0306
9.87123
9.93594
9.89636
9.65541
9.59231
9.62133
8.92461
8.63788
7.0586
1.69452
1.47418
1.39522
2.95278
2.6833
2.23512
1.56256
1.34254
1.06748
0.880034
0.662398
0.373245
0.355838
0.384757
0.490846
0.439358
0.189271
0.182988
0.330214
1.3446
3.73248
5.59546
6.31347
6.71917
7.14091
8.5235
9.2847
9.03599
8.06569
7.30182
7.01198
7.36609
7.40878
6.90997
6.42121
6.15769
5.90968
5.55998
5.0852
4.58075
4.61287
5.91014
7.47594
8.27364
8.46494
8.50615
8.96565
9.73476
10.4854
11.2277
11.8929
12.2791
12.3191
12.1322
11.8716
11.6122
11.3896
11.2199
11.1186
11.1063
11.1967
11.3722
11.6268
11.8213
11.883
11.9736
11.9095
11.4175
10.7706
10.1589
9.99241
10.0348
9.95127
9.70142
9.61568
9.66718
8.97059
8.57271
7.06917
2.01036
1.52307
1.39568
3.04257
2.75009
2.33927
1.66576
1.38144
1.11224
0.964838
0.732896
0.407491
0.372882
0.389554
0.482157
0.41727
0.221331
0.250024
0.445528
1.32888
3.69162
5.6588
6.38017
6.75531
7.20407
8.63402
9.36975
9.09976
8.08792
7.32365
7.01611
7.38588
7.43368
6.90599
6.4321
6.18864
5.9387
5.57597
5.09998
4.59041
4.60452
5.87601
7.38717
8.13289
8.30625
8.37727
8.86152
9.67658
10.4827
11.2422
11.8998
12.2709
12.299
12.1053
11.8494
11.6048
11.4027
11.2542
11.1728
11.1791
11.2895
11.4882
11.7667
11.9821
12.0641
12.1729
12.1274
11.6578
11.0035
10.3767
10.1965
10.2135
10.0672
9.78465
9.65744
9.70688
9.01482
8.52298
7.09208
2.31725
1.56303
1.40562
3.16094
2.83175
2.48176
1.82129
1.45094
1.15829
0.976643
0.786523
0.430736
0.37428
0.392154
0.480278
0.413388
0.266858
0.295085
0.513334
1.34552
3.6415
5.71639
6.43159
6.79725
7.27788
8.76107
9.47265
9.1877
8.129
7.37348
7.04322
7.43675
7.48972
6.9289
6.46405
6.23744
5.98039
5.59893
5.12307
4.61453
4.60794
5.84724
7.30089
8.00005
8.15683
8.24377
8.75475
9.62014
10.4968
11.2672
11.915
12.275
12.2977
12.1055
11.8653
11.646
11.472
11.3489
11.2883
11.3124
11.4418
11.6639
11.9683
12.2058
12.31
12.4396
12.4151
11.9724
11.3099
10.665
10.4705
10.465
10.2448
9.90502
9.72087
9.7506
9.06681
8.4905
7.1274
2.59305
1.57877
1.42565
3.29484
2.91569
2.62517
1.98742
1.52718
1.21608
0.948156
0.830507
0.452427
0.385748
0.394626
0.480226
0.405822
0.259648
0.342952
0.563034
1.36657
3.59058
5.77357
6.49151
6.84485
7.35901
8.89719
9.58565
9.28084
8.18542
7.4444
7.08085
7.50313
7.55922
6.96631
6.50585
6.29483
6.02587
5.62374
5.15099
4.65004
4.62353
5.82312
7.21594
7.87344
8.01465
8.11101
8.65507
9.57778
10.5235
11.3005
11.9401
12.2932
12.3184
12.1343
11.9172
11.7283
11.5835
11.4841
11.4408
11.4785
11.6234
11.8671
12.1973
12.4565
12.5839
12.7353
12.7323
12.3217
11.6519
10.9869
10.7815
10.7638
10.4693
10.0552
9.8023
9.79753
9.1229
8.47167
7.17018
2.85698
1.66575
1.44613
3.43505
3.00287
2.77278
2.1703
1.61151
1.28616
0.913154
0.861796
0.474453
0.398783
0.398509
0.480489
0.397266
0.264193
0.381525
0.600353
1.36767
3.54214
5.83236
6.55389
6.89068
7.44492
9.03541
9.71126
9.3779
8.25213
7.53074
7.12343
7.57809
7.63298
7.01288
6.5513
6.35517
6.06871
5.645
5.17953
4.69117
4.6451
5.80155
7.1316
7.75282
7.87996
7.98295
8.57134
9.55958
10.5594
11.3417
11.9762
12.326
12.3586
12.1907
12.0018
11.8447
11.7282
11.6493
11.6193
11.6666
11.824
12.0881
12.4446
12.7253
12.8769
13.0509
13.0694
12.6972
12.0221
11.3343
11.12
11.1
10.7332
10.2333
9.90149
9.84958
9.18208
8.46424
7.21499
3.09199
1.54713
1.44155
3.56942
3.08114
2.91075
2.36565
1.7169
1.36447
0.882348
0.878405
0.490866
0.411045
0.402633
0.481439
0.393946
0.28896
0.451159
0.625243
1.34652
3.50048
5.89738
6.62043
6.9362
7.53727
9.17252
9.82792
9.48015
8.32959
7.63149
7.16882
7.65694
7.70424
7.0639
6.59836
6.41588
6.10655
5.66075
5.20744
4.73614
4.66939
5.78056
7.04702
7.63805
7.75388
7.86611
8.51258
9.57208
10.6027
11.3909
12.0234
12.3731
12.4182
12.273
12.1145
11.9889
11.8982
11.8367
11.8164
11.8697
12.0366
12.32
12.7033
13.0052
13.182
13.3793
13.4188
13.091
12.4131
11.6991
11.4771
11.4645
11.0291
10.4343
10.0161
9.90752
9.24362
8.46672
7.25706
3.32681
1.61431
1.44263
3.69155
3.15405
3.04244
2.55833
1.84247
1.44152
0.859941
0.892424
0.502955
0.422206
0.406523
0.482355
0.393313
0.315883
0.506583
0.666017
1.32361
3.46245
5.96869
6.69788
6.98073
7.63666
9.31073
9.94563
9.58343
8.41818
7.74728
7.21723
7.73747
7.76857
7.11558
6.64633
6.47513
6.13812
5.66877
5.23193
4.78266
4.69576
5.75878
6.96168
7.52933
7.63708
7.7686
8.48528
9.61574
10.6526
11.4483
12.0814
12.4351
12.4975
12.3789
12.2518
12.1563
12.0892
12.042
12.0286
12.0849
12.2588
12.5605
12.9713
13.2942
13.4975
13.7186
13.7789
13.4999
12.8237
12.0793
11.8493
11.8535
11.3536
10.6543
10.1446
9.97171
9.3066
8.47736
7.29488
3.54449
1.59495
1.46407
3.79247
3.22638
3.16435
2.7359
1.98583
1.51604
0.852375
0.901574
0.509799
0.432731
0.410422
0.483584
0.393524
0.34465
0.558559
0.695295
1.29633
3.43042
6.04758
6.76991
7.02519
7.74069
9.45274
10.0586
9.68663
8.52332
7.88363
7.27062
7.8182
7.82132
7.16445
6.69581
6.53186
6.16244
5.66741
5.25005
4.83044
4.72377
5.73501
6.87534
7.42705
7.52804
7.69643
8.49045
9.68417
10.7096
11.5141
12.1502
12.5115
12.5953
12.5068
12.4106
12.3436
12.2976
12.2618
12.2532
12.3107
12.4889
12.808
13.2472
13.5909
13.8219
14.0674
14.1481
13.921
13.2522
12.4729
12.2338
12.2647
11.7056
10.8873
10.2845
10.0422
9.37035
8.49478
7.3278
3.74352
1.57045
1.48408
3.86392
3.30063
3.27249
2.91533
2.14884
1.5832
0.866161
0.902607
0.510304
0.442603
0.414381
0.485111
0.395381
0.374877
0.581035
0.702863
1.27322
3.412
6.13744
6.84479
7.08353
7.85397
9.57619
10.1659
9.78806
8.66437
8.06275
7.33173
7.89794
7.85802
7.20669
6.74851
6.58523
6.17746
5.65525
5.2595
4.87934
4.7536
5.70823
6.78797
7.33229
7.4344
7.65301
8.52498
9.76609
10.7744
11.5883
12.2294
12.6025
12.7113
12.6549
12.5887
12.5487
12.5213
12.4945
12.4886
12.5461
12.7263
13.0617
13.5303
13.8944
14.1545
14.4249
14.5256
14.3517
13.698
12.879
12.6295
12.6974
12.0864
11.126
10.4334
10.1188
9.43447
8.52135
7.35525
3.93682
1.57059
1.4996
3.90688
3.37295
3.36205
3.0955
2.33086
1.65388
0.909041
0.890858
0.502471
0.451496
0.418274
0.486751
0.399464
0.399669
0.60497
0.700562
1.24844
3.41208
6.23841
6.9219
7.14414
7.97824
9.70293
10.2692
9.88222
8.88888
8.26062
7.40229
7.97572
7.87642
7.23762
6.80685
6.63449
6.18066
5.63161
5.26029
4.92905
4.78614
5.67755
6.69968
7.24615
7.36207
7.63988
8.58468
9.84879
10.847
11.6707
12.3191
12.7075
12.8445
12.8222
12.7845
12.7704
12.759
12.7394
12.7342
12.7897
12.9705
13.321
13.8202
14.2042
14.4948
14.7907
14.9107
14.7881
14.1594
13.2967
13.0356
13.1516
12.4989
11.3599
10.5892
10.2009
9.4987
8.55444
7.37622
4.12093
1.57216
1.52591
3.92293
3.4359
3.4357
3.26787
2.52202
1.73927
0.989178
0.863943
0.481969
0.459201
0.422048
0.488461
0.405974
0.413878
0.658561
0.698914
1.23266
3.42435
6.34696
6.99994
7.21004
8.09073
9.80916
10.3741
9.95468
9.18374
8.46939
7.47697
8.05117
7.87929
7.25268
6.8724
6.67846
6.17026
5.59663
5.25389
4.97839
4.82284
5.64221
6.61071
7.16925
7.31421
7.65775
8.66686
9.93394
10.9273
11.761
12.419
12.8262
12.9944
13.0081
12.9968
13.0073
13.0105
12.9966
12.9902
13.0413
13.2217
13.5856
14.1165
14.5198
14.8424
15.164
15.3025
15.2251
14.6342
13.7252
13.4528
13.6276
12.9456
11.5945
10.7508
10.2877
9.56279
8.59166
7.38942
4.28881
1.60895
1.53695
3.90951
3.48041
3.49354
3.42769
2.71675
1.84514
1.10806
0.83569
0.445396
0.465655
0.425724
0.490296
0.414754
0.431986
0.689077
0.705644
1.23538
3.44445
6.46009
7.07627
7.26851
8.19744
9.89843
10.4766
10.0876
9.48065
8.67663
7.54219
8.1235
7.87552
7.25006
6.94569
6.71533
6.14562
5.55138
5.24206
5.02534
4.86563
5.60147
6.52137
7.10137
7.28808
7.70694
8.76972
10.023
11.0152
11.859
12.529
12.9581
13.1603
13.2128
13.2252
13.2589
13.2756
13.2662
13.2567
13.301
13.4786
13.855
14.4188
14.8407
15.1965
15.5443
15.7003
15.655
15.1194
14.1607
13.8837
14.1265
13.4305
11.8497
10.9171
10.3778
9.62634
8.63083
7.39357
4.44605
1.60774
1.56683
3.86238
3.49925
3.53507
3.57037
2.90777
1.97761
1.22155
0.823721
0.392292
0.470837
0.429328
0.492239
0.427384
0.447144
0.732852
0.718749
1.26755
3.50194
6.57412
7.15107
7.33044
8.29826
9.9687
10.5736
10.2806
9.74865
8.87238
7.58478
8.18307
7.87642
7.23319
7.02385
6.74278
6.10662
5.49738
5.22598
5.06885
4.91492
5.55477
6.43213
7.04167
7.27918
7.78649
8.89029
10.1172
11.1101
11.9646
12.6488
13.1026
13.3409
13.4373
13.4692
13.5251
13.5546
13.5488
13.5344
13.5691
13.7405
14.129
14.7269
15.1664
15.5566
15.9306
16.1029
16.0788
15.6006
14.6039
14.3329
14.6491
13.962
12.1493
11.0794
10.4684
9.68871
8.66999
7.38736
4.58864
1.61343
1.5848
3.77699
3.48394
3.5603
3.69218
3.08685
2.14364
1.33088
0.826147
0.326193
0.474896
0.432875
0.494357
0.442106
0.470489
0.777278
0.753731
1.32884
3.59282
6.68477
7.2227
7.40181
8.39643
10.0203
10.6564
10.4403
9.99985
9.02796
7.5979
8.22106
7.88924
7.20977
7.07813
6.74933
6.05297
5.43629
5.20642
5.10973
4.96901
5.50226
6.34364
6.98902
7.28577
7.89119
9.01686
10.2171
11.2116
12.0775
12.7783
13.2593
13.5348
13.6723
13.7288
13.806
13.8479
13.8449
13.8241
13.8463
14.0075
14.4074
15.0401
15.4961
15.9216
16.3214
16.5085
16.4995
16.0605
15.0594
14.8061
15.1952
14.5252
12.5157
11.2254
10.5561
9.75034
8.70704
7.3698
4.71375
1.67032
1.59577
3.64959
3.42614
3.57097
3.78996
3.24596
2.3458
1.43558
0.836396
0.257047
0.47825
0.436412
0.496674
0.458589
0.50218
0.817012
0.800727
1.4143
3.72521
6.78728
7.29209
7.48857
8.49805
10.0596
10.7246
10.5983
10.2134
9.15289
7.59589
8.23415
7.91139
7.19399
7.12211
6.73581
5.9852
5.37005
5.18474
5.14896
5.02573
5.44535
6.25696
6.94183
7.30488
8.00128
9.14431
10.3227
11.3195
12.1975
12.9172
13.4278
13.7418
13.919
14.0037
14.1019
14.1561
14.1553
14.1265
14.1336
14.2797
14.6898
15.3577
15.8293
16.2901
16.7144
16.914
16.917
16.4992
15.522
15.2879
15.72
15.129
12.9525
11.3612
10.6387
9.81261
8.74013
7.33837
4.83036
1.76042
1.6241
3.47863
3.33056
3.56071
3.86526
3.37579
2.55243
1.54202
0.862893
0.18511
0.481074
0.439989
0.499429
0.468987
0.543423
0.846621
0.851284
1.55645
3.90055
6.87491
7.3591
7.59676
8.61056
10.0905
10.7909
10.7701
10.361
9.24488
7.61718
8.23502
7.92852
7.18545
7.15085
6.7115
5.90384
5.30169
5.16329
5.18752
5.08187
5.38767
6.17183
6.89853
7.33423
8.11682
9.27357
10.4335
11.4331
12.3243
13.0652
13.6077
13.9616
14.1788
14.2942
14.4131
14.4798
14.4809
14.4428
14.4322
14.5576
14.9751
15.6783
16.1648
16.6601
17.1067
17.3153
17.3293
16.9301
15.9781
15.7463
16.2844
15.7359
13.4428
11.4868
10.7138
9.87354
8.75567
7.30551
4.94362
1.8885
1.64307
3.26505
3.18367
3.52723
3.91486
3.47276
2.75359
1.66386
0.90252
0.130264
0.483471
0.443695
0.502645
0.48049
0.582767
0.864624
0.912008
1.74063
4.10306
6.93874
7.42288
7.73102
8.73623
10.131
10.8763
10.9493
10.4178
9.30478
7.66747
8.23693
7.92198
7.17117
7.16262
6.66503
5.80976
5.23555
5.14523
5.22632
5.1357
5.33343
6.08688
6.85894
7.37145
8.23764
9.40503
10.5493
11.5521
12.4577
13.2222
13.799
14.1943
14.4527
14.6013
14.7403
14.8196
14.8225
14.7742
14.7434
14.8431
15.2644
15.9994
16.5016
17.0288
17.4937
17.7077
17.7351
17.3613
16.4227
16.2663
16.9134
16.3823
13.9763
11.5935
10.7786
9.93101
8.75805
7.21688
5.04409
1.8858
1.65288
3.01422
2.9885
3.44339
3.93583
3.53568
2.92625
1.83493
0.947588
0.0921328
0.485219
0.447591
0.50645
0.488799
0.610347
0.879745
1.00064
1.96532
4.30289
6.97351
7.48277
7.89436
8.88511
10.2072
10.9997
11.1141
10.3948
9.34243
7.75495
8.25303
7.87884
7.17519
7.15728
6.58995
5.70582
5.17685
5.13407
5.26635
5.18783
5.28406
6.00365
6.82179
7.41387
8.36313
9.53864
10.6692
11.676
12.5974
13.3879
14.0013
14.44
14.7413
14.9259
15.0841
15.1764
15.1814
15.122
15.069
15.1397
15.56
16.3166
16.8381
17.392
17.8702
18.087
18.1351
17.7973
16.8526
16.7987
17.5605
17.0923
14.5068
11.676
10.8321
9.98248
8.7264
7.15672
5.13582
1.8982
1.67243
2.73638
2.75287
3.30775
3.93571
3.57107
3.0501
2.0514
0.99318
0.0680964
0.485772
0.451799
0.510683
0.500771
0.623129
0.900553
1.12778
2.22409
4.47697
6.97448
7.54015
8.08871
9.07514
10.3476
11.1691
11.23
10.3428
9.3562
7.87705
8.29285
7.79213
7.19296
7.12576
6.47287
5.59625
5.13079
5.13339
5.30882
5.23832
5.24209
5.92309
6.78837
7.46008
8.49209
9.67396
10.7927
11.8043
12.7432
13.5621
14.2145
14.6985
15.0451
15.2699
15.445
15.5509
15.5583
15.4876
15.4107
15.4498
15.8634
16.6226
17.172
17.7435
18.2244
18.4406
18.5237
18.2394
17.2663
17.3203
18.1939
17.7906
14.9267
11.7799
10.8826
10.0264
8.67842
7.09633
5.21723
1.95735
1.68035
2.44947
2.49426
3.11843
3.90589
3.5804
3.13005
2.28022
1.06187
0.0546724
0.482635
0.456403
0.515361
0.511291
0.628297
0.94014
1.29608
2.49485
4.60982
6.9448
7.6002
8.31739
9.32989
10.5699
11.3736
11.251
10.2123
9.34939
8.02861
8.35688
7.68741
7.21228
7.05552
6.32134
5.48706
5.10183
5.14655
5.35502
5.28728
5.21013
5.84681
6.75764
7.51232
8.62266
9.81023
10.9189
11.9364
12.8947
13.7445
14.4384
14.9695
15.3636
15.6361
15.8238
15.9437
15.9543
15.8724
15.7703
15.7739
16.1799
16.9132
17.5028
18.0666
18.5412
18.7634
18.9016
18.6853
17.6652
17.82
18.7852
18.4172
15.227
11.89
10.934
10.0547
8.61538
7.04991
5.28427
2.03825
1.69491
2.17746
2.21166
2.88193
3.82438
3.56433
3.17551
2.44666
1.18099
0.0495684
0.473314
0.46154
0.520382
0.517974
0.631633
1.00681
1.50042
2.74135
4.69912
6.89427
7.6724
8.58458
9.66372
10.8801
11.5685
11.1702
10.0312
9.31649
8.19818
8.43473
7.59565
7.203
6.93433
6.13263
5.3849
5.09333
5.17644
5.40639
5.33523
5.19035
5.77658
6.72935
7.57378
8.75196
9.94641
11.047
12.072
13.0516
13.935
14.6726
15.2528
15.6956
16.0146
16.2209
16.3557
16.3703
16.2778
16.1501
16.113
16.5054
17.195
17.8111
18.3505
18.8142
19.0603
19.275
19.1283
18.0556
18.2949
19.3089
18.8972
15.4348
12.0308
10.9591
10.0635
8.4978
6.9939
5.34272
2.14136
1.71245
1.9418
1.92296
2.6069
3.68747
3.52451
3.18852
2.55329
1.34791
0.0542141
0.457006
0.467238
0.525489
0.523837
0.637528
1.0819
1.73664
2.93979
4.76296
6.8478
7.76854
8.89138
10.0607
11.2574
11.7298
11.0339
9.808
9.24908
8.36636
8.52486
7.5275
7.13583
6.74065
5.92955
5.29797
5.10762
5.22526
5.46448
5.38354
5.18412
5.71388
6.70371
7.64734
8.87676
10.0813
11.1763
12.2105
13.2137
14.1334
14.9172
15.5482
16.0405
16.404
16.6366
16.7873
16.8071
16.7053
16.5525
16.4704
16.8389
17.4662
18.0864
18.5857
19.0433
19.3414
19.6502
19.5664
18.4471
18.7485
19.7428
19.2263
15.5807
12.1686
10.9565
10.055
8.33007
6.91495
5.37514
2.22592
1.71584
1.75819
1.66455
2.30723
3.4927
3.46261
3.16702
2.61842
1.53976
0.0764396
0.412856
0.4734
0.530425
0.52778
0.63922
1.15305
1.98266
3.09507
4.77974
6.7975
7.89953
9.23462
10.5038
11.6748
11.8312
10.8152
9.55178
9.13467
8.50554
8.62511
7.48709
6.96523
6.51107
5.72967
5.23523
5.14623
5.29451
5.53099
5.43506
5.1912
5.65949
6.68082
7.72717
9.00052
10.2141
11.3059
12.3514
13.3807
14.3393
15.1719
15.8558
16.3989
16.8071
17.0715
17.239
17.2652
17.1558
16.9802
16.8504
17.1792
17.7238
18.3185
18.7664
19.2355
19.6191
20.0319
19.9994
18.8504
19.1876
20.0669
19.4029
15.6524
12.2511
10.9252
10.0187
8.12748
6.81565
5.42953
2.31171
1.72723
1.63142
1.47047
2.01141
3.24081
3.37545
3.11619
2.65522
1.77348
0.146669
0.40716
0.480557
0.535136
0.529778
0.646039
1.21538
2.19607
3.30482
4.68022
6.80979
8.07195
9.60786
10.9748
12.1023
11.8638
10.5267
9.27854
8.98138
8.61516
8.73466
7.45069
6.77164
6.26016
5.55639
5.2052
5.21007
5.38504
5.60776
5.49468
5.20775
5.61365
6.66067
7.80927
9.12527
10.3441
11.4352
12.4943
13.5522
14.5527
15.4366
16.1755
16.7713
17.226
17.5266
17.7113
17.7451
17.6301
17.4354
17.2588
17.5243
17.9653
18.4985
18.8933
19.4041
19.9052
20.4236
20.4282
19.2741
19.6201
20.2582
19.4093
15.6469
12.31
10.8261
9.92873
7.90989
6.7003
5.21108
2.3983
1.74377
1.55571
1.34208
1.74661
2.93726
3.27191
3.03641
2.66296
1.93845
0.332899
0.33227
0.493765
0.54045
0.533303
0.64935
1.27471
2.35398
3.46506
4.65634
6.82226
8.28538
10.002
11.4553
12.5107
11.8306
10.186
9.00154
8.85038
8.78267
8.85167
7.47569
6.62813
6.02294
5.431
5.21399
5.29947
5.4971
5.69679
5.565
5.23188
5.57702
6.64339
7.89122
9.25191
10.4706
11.5634
12.6388
13.7281
14.7733
15.7113
16.5075
17.1582
17.6622
18.0037
18.2045
18.2468
18.1284
17.9195
17.7022
17.873
18.1887
18.6219
18.9758
19.5655
20.2082
20.8284
20.8416
19.6859
20.053
20.289
19.225
15.5718
12.3394
10.6924
9.78607
7.67999
6.57012
5.21331
2.46825
1.75283
1.51613
1.26905
1.50023
2.59636
3.17107
2.9287
2.64157
2.04195
0.655718
0.282985
0.49146
0.546342
0.537508
0.646548
1.34187
2.49923
3.65592
4.63618
6.88396
8.53242
10.4047
11.9253
12.8721
11.7169
9.80891
8.73449
8.75567
8.98015
8.96533
7.56884
6.58909
5.82844
5.36646
5.26378
5.41428
5.63049
5.79977
5.64322
5.26695
5.55081
6.62925
7.97194
9.38047
10.5934
11.69
12.7844
13.908
15.001
15.9958
16.8518
17.5597
18.1164
18.5057
18.7191
18.7707
18.6506
18.4326
18.187
18.2283
18.394
18.6923
19.031
19.7353
20.5331
21.249
21.2169
20.0661
20.4942
20.1264
18.828
15.4569
12.3115
10.5462
9.59368
7.4397
6.4317
5.19823
2.55212
1.77297
1.49863
1.23594
1.35537
2.24056
2.99323
2.79482
2.59649
2.09951
0.983896
0.42989
0.542972
0.55914
0.539435
0.630648
1.42706
2.65984
3.83224
4.63239
6.96473
8.80026
10.7994
12.3635
13.1589
11.5241
9.4113
8.48995
8.7065
9.19222
9.06672
7.70073
6.62176
5.70088
5.36505
5.3528
5.55419
5.78476
5.91814
5.72976
5.31644
5.53577
6.61882
8.05139
9.51031
10.7119
11.8145
12.9308
14.0917
15.2354
16.29
17.2083
17.9755
18.5879
19.0357
19.2556
19.3169
19.1963
18.9725
18.7157
18.6047
18.584
18.7239
19.0807
19.9249
20.8819
21.6979
21.6734
20.4787
20.9511
19.7353
18.199
15.2637
12.2406
10.3805
9.33121
7.19107
6.28881
4.99861
2.61739
1.78563
1.49741
1.22747
1.2689
1.89565
2.76316
2.63875
2.53224
2.12178
1.26066
0.364644
0.494314
0.579872
0.545981
0.596671
1.50095
2.74867
3.99367
4.63399
7.04806
9.07167
11.1645
12.7472
13.359
11.2571
9.0115
8.27645
8.70371
9.40234
9.16855
7.81785
6.64192
5.62861
5.41985
5.47667
5.71794
5.95974
6.04826
5.82379
5.36993
5.53239
6.61305
8.13056
9.64021
10.8259
11.9365
13.0776
14.2787
15.4764
16.5938
17.5767
18.4054
19.0741
19.5733
19.814
19.8862
19.7656
19.5347
19.2771
19.042
18.7644
18.741
19.1464
20.1403
21.2539
22.1929
22.2147
21.0283
21.3762
19.0844
17.3034
14.9877
12.1453
10.1602
9.01483
6.93837
6.14504
4.96497
2.69178
1.80891
1.50222
1.22386
1.24226
1.60693
2.49018
2.46687
2.45166
2.11604
1.40569
0.627907
0.608674
0.603582
0.555726
0.581645
1.63102
2.94672
4.15956
4.63484
7.11062
9.32666
11.479
13.0514
13.4535
10.925
8.62857
8.09803
8.73905
9.59488
9.28506
7.93976
6.62696
5.60094
5.51999
5.62999
5.90491
6.14726
6.18636
5.92444
5.43215
5.54283
6.61343
8.21171
9.76815
10.935
12.0555
13.2245
14.4689
15.7238
16.9069
17.9571
18.8491
19.5752
20.124
20.3947
20.4795
20.3595
20.1147
19.8229
19.4782
19.0217
18.8817
19.2445
20.3831
21.7321
22.7371
22.8444
21.7624
21.7241
18.1639
16.1028
14.6258
11.9117
9.85848
8.67549
6.68633
6.00369
4.76724
2.66501
1.82799
1.50829
1.21168
1.15019
1.39446
2.19949
2.28716
2.35804
2.08768
1.48854
0.783849
0.477273
0.602257
0.577251
0.581268
1.74065
3.12195
4.3147
4.63286
7.13341
9.54275
11.7216
13.2482
13.4326
10.5431
8.27859
7.95407
8.8026
9.76449
9.41196
8.09846
6.62629
5.61763
5.65588
5.80806
6.11652
6.33624
6.33867
6.03185
5.50648
5.56937
6.6218
8.29915
9.89065
11.0388
12.1714
13.3711
14.6619
15.9771
17.2291
18.3493
19.3067
20.0918
20.6913
20.9985
21.0984
20.9807
20.7166
20.3638
19.8923
19.3182
19.1476
19.5331
20.6835
22.2529
23.3365
23.5576
22.7481
21.9693
17.0029
14.5005
14.1503
11.5428
9.4771
8.31595
6.43951
5.87403
4.65645
2.68614
1.83975
1.51483
1.20639
1.15195
1.24854
1.96393
2.10577
2.2556
2.04577
1.53538
0.927847
0.717858
0.734874
0.597773
0.576428
1.82797
3.25986
4.45741
4.63054
7.1021
9.69597
11.8704
13.3234
13.2954
10.132
7.9719
7.84011
8.88365
9.91238
9.53146
8.2655
6.63737
5.68012
5.82226
6.00873
6.35067
6.54113
6.5048
6.14567
5.5905
5.61553
6.63964
8.39859
10.0027
11.1367
12.2837
13.5171
14.8572
16.236
17.5602
18.7531
19.7782
20.6243
21.2772
21.6271
21.7445
21.6321
21.3458
20.917
20.3075
19.6234
19.4769
19.8917
21.105
22.8156
23.9894
24.3398
23.8925
22.1318
15.6664
12.5471
13.391
11.0601
9.03452
7.94118
6.20418
5.75521
4.55108
2.70111
1.87081
1.51015
1.19854
1.08591
1.10227
1.72701
1.92519
2.14736
1.99493
1.56065
1.05213
0.813359
0.700163
0.650729
0.627174
1.89702
3.37373
4.58514
4.6299
7.00725
9.76198
11.9057
13.2634
13.0498
9.71432
7.71272
7.74903
8.97283
10.0486
9.63478
8.41794
6.6612
5.7788
6.01782
6.24432
6.59287
6.76926
6.684
6.26477
5.68261
5.6661
6.66729
8.51111
10.103
11.2283
12.3922
13.6621
15.0545
16.5001
17.8998
19.1683
20.2633
21.1731
21.8834
22.2827
22.419
22.3157
22.0053
21.4926
20.7505
19.9742
19.8901
20.3851
21.6496
23.4282
24.6888
25.1707
25.2606
22.3489
14.0289
10.8353
12.4909
10.4977
8.55866
7.55563
5.98703
5.65199
4.46254
2.69334
1.88797
1.49244
1.18937
1.07884
1.05017
1.53049
1.7503
2.03555
1.93653
1.57268
1.15617
0.969919
0.889217
0.762392
0.704125
1.95044
3.46448
4.70374
4.63191
6.84344
9.7183
11.8057
13.0603
12.7109
9.31015
7.50037
7.67262
9.06303
10.1865
9.727
8.54888
6.732
5.9418
6.27238
6.54034
6.86027
7.01976
6.87477
6.38781
5.78061
5.72323
6.7067
8.63504
10.1923
11.3132
12.4968
13.8057
15.2532
16.769
18.2475
19.5943
20.7616
21.7377
22.5103
22.969
23.123
23.0322
22.6966
22.1002
21.2507
20.4175
20.4172
21.0146
22.2803
24.0956
25.4208
26.0217
26.3479
22.5214
12.9368
9.71837
11.6828
9.90705
8.06118
7.16688
5.79388
5.56558
4.38566
2.69336
1.91643
1.4615
1.17352
1.05107
1.02272
1.37853
1.58472
1.92258
1.87243
1.57655
1.24262
1.10333
0.986323
0.827364
0.799455
1.98016
3.5328
4.81814
4.65036
6.55071
9.54602
11.583
12.7286
12.2964
8.93468
7.33093
7.60659
9.14659
10.337
9.81844
8.6621
6.90003
6.19919
6.60444
6.87121
7.16098
7.29288
7.07504
6.5132
5.88245
5.7913
6.76012
8.76806
10.2716
11.3911
12.5971
13.9475
15.4529
17.0422
18.6027
20.0305
21.2722
22.3168
23.1564
23.692
23.8565
23.781
23.4193
22.7485
21.8348
20.9937
21.125
21.7807
22.986
24.8162
26.1658
26.8602
27.6694
22.5374
11.7329
9.43289
10.9948
9.3381
7.55925
6.77995
5.6396
5.5019
4.31776
2.6571
1.94885
1.42233
1.15122
1.02628
0.978555
1.26091
1.43607
1.81303
1.80479
1.58395
1.31757
1.22069
1.10573
0.924071
0.91775
1.99908
3.58125
4.92857
4.68561
6.23661
9.24428
11.215
12.3016
11.8302
8.59538
7.19909
7.55606
9.20841
10.5056
9.91461
8.77542
7.13289
6.54358
7.0196
7.26541
7.50864
7.58853
7.28192
6.63903
5.98639
5.86605
6.83098
8.90729
10.3419
11.462
12.693
14.0871
15.653
17.319
18.9649
20.4761
21.7939
22.9087
23.8165
24.4231
24.6183
24.5595
24.1721
23.4457
22.5192
21.7234
22.0054
22.6864
23.7759
25.5844
26.9006
27.6446
28.5647
23.0257
11.1174
9.48266
10.4044
8.80198
7.06418
6.41199
5.51387
5.46199
4.25316
2.68913
1.95361
1.35743
1.12324
0.992176
0.909512
1.15172
1.33408
1.71341
1.73866
1.60581
1.38847
1.32186
1.22011
1.09934
1.05644
2.0087
3.61539
5.03264
4.73933
5.90005
8.80413
10.7415
11.8168
11.339
8.29595
7.09986
7.52145
9.24358
10.6958
10.018
8.96433
7.4097
6.96205
7.48579
7.73136
7.90558
7.90381
7.49145
6.76349
6.09055
5.94223
6.93049
9.04655
10.4041
11.526
12.7841
14.2239
15.8529
17.5989
19.3331
20.93
22.3252
23.5112
24.4878
25.164
25.4066
25.3635
24.9524
24.1984
23.3072
22.6649
23.0483
23.7348
24.6571
26.3916
27.6004
28.346
29.398
22.8338
10.6855
9.35744
9.83072
8.29638
6.58637
6.0724
5.42383
5.45032
4.20335
2.65415
1.98066
1.2985
1.089
0.968839
0.888221
1.06745
1.21182
1.61616
1.67248
1.6146
1.45297
1.40747
1.31827
1.34294
1.19986
2.00639
3.63592
5.12758
4.81211
5.5654
8.28712
10.1924
11.3126
10.8438
8.03975
7.02917
7.50473
9.25846
10.8987
10.133
9.2258
7.72606
7.44234
7.98766
8.25241
8.34677
8.23304
7.69864
6.8838
6.19271
6.02174
7.06328
9.1839
10.4586
11.583
12.8703
14.3575
16.052
17.881
19.7065
21.391
22.8649
24.1225
25.1683
25.9169
26.2197
26.1868
25.7574
25.0125
24.1748
23.8153
24.2514
24.9291
25.6345
27.2271
28.2413
28.933
29.9933
22.9147
10.3665
9.16333
9.30479
7.82222
6.13458
5.77223
5.37855
5.47891
4.21898
2.6806
2.01232
1.22976
1.0509
0.944827
0.854907
0.939863
1.16211
1.53965
1.61385
1.64241
1.51792
1.48177
1.4026
1.5061
1.36513
2.02262
3.64091
5.21473
4.90456
5.25703
7.73366
9.61085
10.8245
10.3597
7.83042
6.98402