/*--------------------------------*- C++ -*----------------------------------*\
| =========                 |                                                 |
| \\      /  F ield         | OpenFOAM: The Open Source CFD Toolbox           |
|  \\    /   O peration     | Version:  4.1                                   |
|   \\  /    A nd           | Web:      www.OpenFOAM.org                      |
|    \\/     M anipulation  |                                                 |
\*---------------------------------------------------------------------------*/
FoamFile
{
    version     2.0;
    format      ascii;
    class       volScalarField;
    location    "5";
    object      p;
}
// * * * * * * * * * * * * * * * * * * * * * * * * * * * * * * * * * * * * * //

dimensions      [0 2 -2 0 0 0 0];

internalField   nonuniform List<scalar> 
6785
(
568.497
501.924
450.886
400.788
354.434
310.859
269.94
231.415
195.096
160.454
126.992
96.1471
68.3985
35.2533
1.00475
17.9128
-0.303706
3.32993
-1.58698
-4.79598
-8.21987
-11.134
-13.3734
-14.7204
-15.0909
-14.5781
-12.6772
-8.59156
-5.31094
-5.08249
-32.3457
-38.6199
-29.0332
-30.5919
-27.5458
-25.9357
-24.0704
-22.461
-21.0237
-19.8038
-18.8273
-18.1777
-18.0062
-17.372
-15.8359
10.6795
8.14084
12.8407
8.72064
9.37313
7.55982
6.28766
4.78646
3.31072
1.87338
0.522709
-0.566468
-0.915185
-0.0426468
2.31111
19.339
17.8728
21.5395
18.4657
20.6891
20.2952
20.8752
21.4423
22.1449
23.0348
24.1041
25.3531
26.8998
28.3282
29.9281
29.5692
29.388
32.5509
30.8605
33.5145
33.6436
34.8936
35.8389
36.7986
37.6945
38.5537
39.3988
40.3517
41.1362
41.8867
41.0886
41.232
43.413
41.9301
43.9012
43.4453
44.2721
44.4734
44.7748
44.8539
44.8452
44.8106
44.8836
45.0975
45.167
44.7298
44.0371
45.4495
43.6981
44.9635
43.9734
44.3363
43.8895
43.6266
42.9693
42.2344
41.5769
41.0923
40.6968
39.8626
35.1082
33.4547
33.9449
31.8766
32.2785
30.7769
30.5588
29.5702
28.9355
28.0247
27.2423
26.5419
25.7138
24.6015
23.2268
15.1863
13.4227
13.2916
11.2594
11.0255
9.2064
8.43721
7.02988
6.00646
4.96836
4.18668
3.50966
2.6312
1.87763
1.85693
1.05194
0.279301
0.390589
-1.10857
-1.10932
-2.42188
-2.90169
-3.82044
-4.45723
-4.98283
-5.28795
-5.43139
-5.47125
-5.24105
-4.27335
0.334978
0.873304
1.42725
0.828423
1.33921
0.903194
1.03096
0.894882
0.880734
0.924199
1.07062
1.28477
1.67561
2.09843
3.12509
11.6053
12.5931
13.1061
12.7963
13.2819
13.066
13.2393
13.3324
13.5111
13.7685
14.1177
14.5103
15.0799
15.5929
16.4546
22.6983
24.5927
24.5358
24.0819
24.2769
24.2515
24.6317
24.9513
25.3317
25.6762
25.9863
26.2377
26.6141
26.9031
27.4349
56.8281
55.1653
50.3484
44.986
40.8773
37.1772
34.1199
31.8866
30.274
29.3515
28.7186
28.2847
27.8775
27.2743
26.4531
40.1659
40.0618
40.0833
40.0718
40.0602
40.0474
40.0318
40.0236
40.0288
40.006
40.0296
39.9665
40.1007
40.0224
39.9916
40.0309
40.0465
40.0977
39.9881
40.2489
40.1278
40.0811
40.1333
40.2521
40.2542
40.2019
40.2659
40.3688
40.4311
40.3166
40.6228
40.5406
40.4843
40.5635
40.6382
40.731
40.6555
40.8786
40.8604
40.8301
40.8932
40.9207
41.0295
41.0043
41.0545
41.048
41.1562
41.1365
41.1893
41.2309
41.2089
41.2116
41.1816
41.2573
41.2046
41.1835
41.1445
41.218
41.2006
41.0887
41.3343
41.1915
41.2915
41.0004
41.23
41.3399
41.4844
41.0952
40.491
41.1698
41.2777
37.8655
36.5462
38.0148
36.2682
27.9186
32.5017
30.0761
10.327
17.3757
21.114
20.7392
21.9425
12.4841
18.0088
21.0779
21.8258
22.4286
22.8426
23.6175
25.2414
26.5994
21.3862
22.8878
24.6872
26.303
27.8389
28.8887
29.9575
31.1882
32.4888
31.5324
31.0134
32.8671
33.7874
35.3536
37.352
38.8304
39.5738
39.9941
40.2971
44.1979
40.5422
41.3237
41.1015
40.8811
42.094
43.6872
43.1611
41.2299
42.6555
42.0113
43.3424
43.2877
42.2688
41.2916
40.3176
40.2559
38.4297
41.7615
41.5292
39.0982
38.9164
38.3345
36.5381
34.7993
31.8176
27.8224
34.0985
36.2679
31.7817
28.7415
25.0671
22.436
19.7611
16.8633
13.4651
9.98493
7.93486
14.2821
9.78955
8.15155
6.25682
2.88318
-2.96904
-4.65363
-2.83613
-12.5624
0.972065
-2.21577
-5.21164
0.140015
-3.63725
-2.0716
-2.44236
-0.803272
1.06848
-1.83957
0.0907528
1.50651
-0.608327
-0.0841513
-0.591859
0.381385
1.76252
-0.331599
0.108167
-0.472725
0.506486
1.53535
-0.934141
0.505988
1.51016
-0.475294
-0.0927735
-0.738806
0.172873
1.41603
-0.71923
-0.313894
-1.00011
0.0397947
1.09101
-1.58329
-0.0157676
1.07418
-1.12704
-0.693303
-1.43135
-0.378937
1.01335
-1.39157
-0.915955
-1.69062
-0.479368
0.722481
-2.32263
-0.500179
0.772412
-1.76463
-1.25229
-2.09046
-0.828457
0.851722
-2.01257
-1.45361
-2.35869
-0.854433
0.688996
-3.17055
-0.829058
0.934873
-2.48381
-1.87415
-2.98812
-1.20221
1.38374
-2.9679
-2.29441
-3.64295
-1.26805
1.4466
-5.3816
-1.31981
2.20249
-4.5962
-3.70021
-6.17585
-3.19683
6.75629
0.00242094
0.00516125
0.00889115
0.0164368
0.0231376
0.0181527
0.065192
0.113864
0.134207
0.147742
0.140444
0.118803
0.104012
0.0771625
0.0773516
0.0580212
0.00937619
0.0256787
0.0191786
0.017152
0.0252606
0.0271325
0.0224016
0.0238224
0.0263628
0.0241915
0.00932689
-0.00101474
-0.00151733
0.00030017
0.00338932
0.00877152
0.0119471
0.0140954
0.0187577
0.0178558
0.0178765
0.0172738
0.0227511
0.0308695
0.0476634
0.0584047
0.0585731
0.0562989
0.0523882
0.0443119
0.0311505
0.0144942
-0.00361657
-0.0156436
-0.020601
-0.0265749
-0.0362186
-0.0479113
-0.0604017
-0.0725667
-0.0832604
-0.0919273
-0.0978178
-0.100855
-0.102009
-0.103805
-0.107897
-0.117092
-0.12589
-0.142827
-0.15091
-0.160534
-0.150184
-0.138543
-0.110793
-0.0905026
-0.0702906
-0.0292534
0.0143649
0.111126
0.44292
0.622706
0.415675
0.0129051
0.027892
0.0421795
0.0633049
0.0828427
0.0665296
0.158443
0.252552
0.284017
0.301293
0.28799
0.247154
0.218911
0.170376
0.167897
0.135338
0.0406366
0.0762877
0.0666834
0.0716952
0.0699835
0.0570962
0.0421989
0.0295168
0.0152955
0.00948403
0.00511357
0.0275411
0.0448146
0.0485974
0.0465628
0.0464694
0.0501897
0.0517158
0.0608209
0.0604481
0.0678885
0.0654678
0.0680447
0.0756617
0.0973644
0.11426
0.119855
0.109876
0.0957006
0.0746713
0.0444807
0.00744114
-0.0290543
-0.0549645
-0.0777323
-0.106814
-0.140108
-0.174868
-0.207554
-0.235253
-0.254819
-0.26514
-0.264475
-0.253187
-0.234045
-0.215817
-0.203281
-0.211195
-0.227702
-0.286096
-0.334825
-0.413782
-0.445105
-0.472607
-0.424464
-0.399774
-0.386495
-0.321083
-0.203926
-0.0391565
0.498553
0.443497
0.0602375
0.0230489
0.0502247
0.0781564
0.117073
0.153526
0.137673
0.22261
0.313884
0.341015
0.351115
0.33332
0.286577
0.253323
0.204601
0.196793
0.169125
0.0720381
0.133651
0.124322
0.130266
0.128574
0.110647
0.0827658
0.0576528
0.0293355
0.0188087
0.00760889
0.0412168
0.0700026
0.0805321
0.0814599
0.0845416
0.0921248
0.0959933
0.113964
0.112725
0.126376
0.128799
0.137229
0.150289
0.175119
0.180123
0.179721
0.16371
0.139123
0.106303
0.0655911
0.0214766
-0.0240209
-0.0699621
-0.125316
-0.187483
-0.255301
-0.323977
-0.387564
-0.441288
-0.479907
-0.501891
-0.50433
-0.488155
-0.458337
-0.430539
-0.413536
-0.433474
-0.468573
-0.575524
-0.662626
-0.800523
-0.850411
-0.892067
-0.801628
-0.709553
-0.640635
-0.536841
-0.384688
-0.183002
0.363036
0.235816
0.312084
0.0317869
0.070403
0.108555
0.160657
0.216356
0.217431
0.312003
0.393087
0.412445
0.413335
0.390004
0.339099
0.300317
0.251893
0.237551
0.208289
0.108669
0.184261
0.17595
0.185933
0.180655
0.153087
0.113276
0.0719181
0.0242654
0.00701549
-0.00334328
0.055561
0.102369
0.118537
0.118396
0.120817
0.130984
0.135923
0.160686
0.159802
0.180585
0.18158
0.204065
0.216602
0.248529
0.25126
0.24749
0.225383
0.190761
0.14555
0.0906909
0.0302999
-0.0356691
-0.10692
-0.186835
-0.278768
-0.377909
-0.477698
-0.569456
-0.646295
-0.700724
-0.730726
-0.732254
-0.7069
-0.661894
-0.619651
-0.592905
-0.620317
-0.673169
-0.83099
-0.965887
-1.17658
-1.26273
-1.33069
-1.19449
-1.03582
-0.910478
-0.747889
-0.547177
-0.286698
0.284003
0.264838
0.573972
0.0409258
0.0927445
0.144567
0.206934
0.277628
0.292204
0.404357
0.488369
0.503507
0.499443
0.470723
0.412633
0.366725
0.312693
0.291973
0.254441
0.151646
0.239622
0.233303
0.243879
0.235359
0.200749
0.147996
0.0877231
0.0177695
-0.00664774
-0.0174627
0.0661127
0.131962
0.154677
0.153875
0.156721
0.169861
0.176577
0.208882
0.208337
0.236592
0.238537
0.267667
0.280537
0.318078
0.317203
0.31107
0.283078
0.238677
0.18139
0.112285
0.036364
-0.0474724
-0.141899
-0.251267
-0.376979
-0.51103
-0.644997
-0.767476
-0.869476
-0.941261
-0.980442
-0.981803
-0.947695
-0.887734
-0.831369
-0.795884
-0.832744
-0.907153
-1.12094
-1.31076
-1.60232
-1.73062
-1.82581
-1.63901
-1.40285
-1.20915
-0.985042
-0.728908
-0.405069
0.217493
0.262272
0.389417
0.0493689
0.113181
0.179805
0.254409
0.342316
0.369727
0.489544
0.57825
0.58942
0.581016
0.546824
0.480882
0.427941
0.368504
0.341803
0.295541
0.195465
0.29194
0.286448
0.298211
0.288011
0.245828
0.179401
0.0966222
-0.000959647
-0.0342939
-0.0428225
0.0731504
0.163211
0.192746
0.18929
0.191454
0.207108
0.215511
0.254781
0.255466
0.290406
0.296032
0.332043
0.345803
0.388832
0.383144
0.373699
0.340024
0.28606
0.217133
0.13376
0.041672
-0.0622693
-0.182409
-0.322195
-0.481961
-0.651406
-0.820062
-0.973653
-1.10091
-1.18972
-1.23731
-1.23726
-1.19272
-1.11578
-1.04315
-0.996985
-1.04242
-1.14031
-1.41443
-1.66803
-2.05216
-2.23451
-2.365
-2.12089
-1.79948
-1.52432
-1.23126
-0.919679
-0.537782
0.124577
0.202339
0.380154
0.0587182
0.135071
0.216628
0.301391
0.407443
0.450122
0.575474
0.665509
0.671024
0.657129
0.617244
0.544423
0.484856
0.421655
0.38874
0.335082
0.242343
0.343402
0.339543
0.353707
0.341883
0.291601
0.21037
0.101042
-0.0309579
-0.0747523
-0.0791309
0.0753596
0.194617
0.231868
0.224164
0.225475
0.243533
0.25381
0.299961
0.302538
0.344558
0.351293
0.395997
0.410108
0.458723
0.448985
0.436216
0.396974
0.333715
0.253241
0.154758
0.0446696
-0.0820844
-0.230054
-0.399657
-0.595117
-0.801551
-1.0064
-1.19234
-1.34569
-1.45184
-1.50773
-1.5056
-1.44949
-1.35401
-1.26348
-1.20541
-1.25936
-1.38342
-1.72289
-2.04966
-2.53859
-2.78737
-2.96173
-2.6575
-2.235
-1.86107
-1.4873
-1.11564
-0.675516
0.016529
0.117458
0.281022
0.0681807
0.15701
0.255576
0.349199
0.472872
0.531125
0.664469
0.754655
0.754238
0.734831
0.689265
0.609976
0.543809
0.476936
0.436795
0.376375
0.292601
0.396925
0.393305
0.40914
0.394094
0.336192
0.238458
0.0977865
-0.0777753
-0.134469
-0.131962
0.0704223
0.226081
0.27251
0.258457
0.258306
0.278519
0.290732
0.343513
0.348609
0.39763
0.406704
0.459102
0.473587
0.527598
0.51392
0.497852
0.453239
0.381012
0.289048
0.174897
0.0458668
-0.103984
-0.279104
-0.482282
-0.714965
-0.959963
-1.20242
-1.42185
-1.60204
-1.72572
-1.78957
-1.78444
-1.71523
-1.59916
-1.48849
-1.41659
-1.47837
-1.63083
-2.04052
-2.45038
-3.05739
-3.38729
-3.61732
-3.2488
-2.71127
-2.22216
-1.75633
-1.31911
-0.818758
-0.0976616
0.0248791
0.224157
0.078458
0.179612
0.296681
0.398482
0.539852
0.613145
0.754105
0.843902
0.838259
0.813825
0.762638
0.676853
0.604149
0.533585
0.485604
0.418784
0.345478
0.450145
0.445856
0.463387
0.445966
0.380708
0.263665
0.0858374
-0.145165
-0.217534
-0.205103
0.0556827
0.256196
0.314329
0.292042
0.289935
0.312119
0.326365
0.385653
0.394187
0.449881
0.462055
0.521816
0.536613
0.595723
0.57818
0.558777
0.509068
0.428217
0.324717
0.194323
0.0450947
-0.130071
-0.335508
-0.571842
-0.842986
-1.12805
-1.40964
-1.66388
-1.87178
-2.01326
-2.08478
-2.07571
-1.99182
-1.85291
-1.71967
-1.63183
-1.70069
-1.88359
-2.36822
-2.87123
-3.60999
-4.03779
-4.33841
-3.90344
-3.23196
-2.60883
-2.03805
-1.53008
-0.967951
-0.215621
-0.0387704
0.122483
0.0894258
0.202935
0.340183
0.449365
0.608839
0.696462
0.842592
0.931353
0.921427
0.892167
0.835377
0.743286
0.664361
0.590704
0.535461
0.463884
0.401075
0.50327
0.497766
0.517146
0.496967
0.423678
0.284637
0.0624688
-0.238629
-0.32962
-0.303466
0.0276025
0.282859
0.35663
0.324492
0.320006
0.343971
0.360379
0.425872
0.438531
0.501067
0.516824
0.58394
0.598829
0.662806
0.641748
0.619184
0.564743
0.475601
0.360359
0.213065
0.0425403
-0.158849
-0.394785
-0.667031
-0.978458
-1.30551
-1.62803
-1.91858
-2.15522
-2.31482
-2.39371
-2.37966
-2.27931
-2.11504
-1.9564
-1.8501
-1.92485
-2.13977
-2.70335
-3.3091
-4.19289
-4.73738
-5.12741
-4.62384
-3.80003
-3.02303
-2.33239
-1.74779
-1.12189
-0.33902
-0.128272
-0.0682558
0.101182
0.22719
0.386354
0.502411
0.680129
0.780768
0.928305
1.01693
1.00397
0.969967
0.907589
0.809519
0.724789
0.648689
0.587613
0.512408
0.459092
0.55669
0.550008
0.570426
0.546685
0.465426
0.300727
0.0251575
-0.362795
-0.474416
-0.429654
-0.0170716
0.303269
0.398135
0.355012
0.348265
0.373959
0.39265
0.464247
0.481584
0.550921
0.570712
0.645051
0.659938
0.728624
0.704526
0.679148
0.620429
0.523295
0.396018
0.231171
0.0382759
-0.190982
-0.459793
-0.769028
-1.12227
-1.49321
-1.85854
-2.18704
-2.45351
-2.63161
-2.71753
-2.69737
-2.57862
-2.38619
-2.19897
-2.0713
-2.15035
-2.39822
-3.04361
-3.76053
-4.80122
-5.48304
-5.98574
-5.41327
-4.41841
-3.46668
-2.63953
-1.97181
-1.27964
-0.465796
-0.238002
-0.138694
0.113722
0.252535
0.43531
0.55831
0.754174
0.866256
1.01126
1.1019
1.08644
1.04777
0.979792
0.875967
0.785837
0.707754
0.641895
0.56408
0.519053
0.610393
0.602338
0.623413
0.595075
0.505088
0.310911
-0.0289966
-0.520745
-0.652659
-0.582885
-0.0802802
0.314946
0.436608
0.382493
0.374339
0.401946
0.422953
0.50046
0.52291
0.599217
0.623392
0.704854
0.719744
0.793036
0.766527
0.73881
0.676316
0.57142
0.431792
0.248756
0.0324439
-0.226052
-0.529037
-0.877331
-1.27437
-1.69144
-2.10175
-2.47002
-2.76758
-2.96458
-3.05717
-3.02968
-2.8904
-2.6667
-2.44729
-2.29488
-2.37606
-2.65689
-3.38527
-4.22005
-5.42703
-6.26822
-6.91128
-6.27162
-5.0892
-3.94141
-2.95935
-2.20149
-1.44001
-0.591378
-0.315254
-0.201982
0.127007
0.279115
0.487069
0.617722
0.831548
0.953741
1.09413
1.18795
1.16895
1.12555
1.05187
0.942405
0.847266
0.76768
0.696761
0.618076
0.580318
0.664467
0.654985
0.675959
0.641738
0.542097
0.314537
-0.102188
-0.711739
-0.859434
-0.756839
-0.160674
0.316615
0.46865
0.405882
0.397907
0.427863
0.451123
0.534466
0.562216
0.645807
0.674288
0.763036
0.777977
0.855884
0.827802
0.798326
0.732583
0.620076
0.467806
0.265958
0.0251653
-0.264123
-0.603282
-0.992535
-1.43533
-1.90088
-2.35851
-2.76857
-3.09856
-3.31492
-3.41377
-3.37761
-3.21548
-2.95707
-2.70143
-2.5204
-2.60083
-2.91355
-3.7241
-4.68152
-6.06123
-7.08491
-7.89964
-7.19675
-5.81354
-4.44867
-3.29149
-2.4359
-1.60166
-0.717001
-0.402348
-0.379551
0.141034
0.307015
0.54159
0.681328
0.91294
1.04403
1.17858
1.27583
1.25152
1.20311
1.12355
1.0085
0.908723
0.828213
0.751119
0.672716
0.641709
0.718159
0.708129
0.728157
0.686412
0.575728
0.311208
-0.195081
-0.929683
-1.08305
-0.939473
-0.252775
0.307534
0.490548
0.424482
0.418674
0.451524
0.476983
0.566075
0.599222
0.690412
0.722836
0.819186
0.834325
0.917001
0.888406
0.857838
0.789377
0.669348
0.504182
0.282917
0.016557
-0.305073
-0.682252
-1.11463
-1.60544
-2.12212
-2.62966
-3.08372
-3.44763
-3.68382
-3.78849
-3.74221
-3.5547
-3.25781
-2.96138
-2.74731
-2.82331
-3.16564
-4.05559
-5.13943
-6.69584
-7.92632
-8.94592
-8.18454
-6.5912
-4.98963
-3.63544
-2.67392
-1.76344
-0.840273
-0.488311
-0.426562
0.155756
0.33625
0.598785
0.749672
0.999093
1.13789
1.26442
1.36498
1.33422
1.28043
1.1947
1.07407
0.969974
0.889072
0.806327
0.728553
0.702809
0.770318
0.761009
0.780026
0.728732
0.605482
0.300962
-0.305533
-1.16209
-1.30583
-1.11462
-0.348308
0.287313
0.498932
0.437814
0.436308
0.472652
0.500344
0.595084
0.633676
0.732603
0.768949
0.8728
0.88853
0.976216
0.94839
0.91748
0.846825
0.719316
0.54105
0.299776
0.00673926
-0.348838
-0.766089
-1.24395
-1.78519
-2.35587
-2.91615
-3.41665
-3.81609
-4.07263
-4.18259
-4.12458
-3.90896
-3.56947
-3.22718
-2.97506
-3.0421
-3.41059
-4.37594
-5.59139
-7.32771
-8.79155
-10.0487
-9.23131
-7.42065
-5.56506
-3.99051
-2.91421
-1.92381
-0.959233
-0.57514
-0.518408
0.17108
0.366743
0.658567
0.822959
1.09072
1.23637
1.35127
1.45422
1.41711
1.35756
1.2653
1.139
1.0308
0.949725
0.864145
0.785989
0.76374
0.820937
0.813584
0.83161
0.768417
0.631211
0.284542
-0.427562
-1.39029
-1.50754
-1.26583
-0.439474
0.255999
0.4904
0.444995
0.450322
0.490977
0.521031
0.621295
0.665322
0.771919
0.812432
0.923263
0.940385
1.03339
1.00778
0.977379
0.905004
0.770065
0.578544
0.31668
-0.00416124
-0.395331
-0.854753
-1.38063
-1.97503
-2.60286
-3.21899
-3.7686
-4.20532
-4.48274
-4.5974
-4.52593
-4.27925
-3.89269
-3.49893
-3.20314
-3.25589
-3.6463
-4.68342
-6.04
-7.96154
-9.69001
-11.2146
-10.3371
-8.29967
-6.17533
-4.35578
-3.15523
-2.08114
-1.07271
-0.662102
-0.545905
0.186842
0.398329
0.720795
0.901166
1.1881
1.33999
1.43849
1.54153
1.50011
1.43456
1.33528
1.20313
1.09096
1.00948
0.92349
0.843934
0.824742
0.871333
0.866141
0.882764
0.805292
0.653194
0.263454
-0.551353
-1.59237
-1.67001
-1.38034
-0.521651
0.213826
0.461321
0.443962
0.460095
0.506419
0.538927
0.644601
0.693969
0.808021
0.852741
0.970101
0.9896
1.08836
1.06653
1.0376
0.963941
0.821689
0.616805
0.333782
-0.0160071
-0.444464
-0.94827
-1.525
-2.1755
-2.8639
-3.53927
-4.14092
-4.61684
-4.9157
-5.03435
-4.94751
-4.66662
-4.22816
-3.77678
-3.43127
-3.46388
-3.87204
-4.98037
-6.49128
-8.6109
-10.6438
-12.4619
-11.5091
-9.22654
-6.82039
-4.73014
-3.39525
-2.2336
-1.17831
-0.717057
-0.566302
0.20281
0.430719
0.785242
0.98424
1.29069
1.44812
1.52517
1.62402
1.58317
1.51142
1.40455
1.2663
1.15023
1.06775
0.981967
0.902384
0.885846
0.922441
0.919382
0.933404
0.839397
0.672166
0.24011
-0.664452
-1.74867
-1.7812
-1.4511
-0.593303
0.159644
0.408226
0.431391
0.464977
0.519146
0.553995
0.664957
0.71948
0.840635
0.890089
1.01277
1.03586
1.14086
1.1246
1.09811
1.02365
0.874294
0.655983
0.351244
-0.0286452
-0.496138
-1.04668
-1.67737
-2.38711
-3.13984
-3.87818
-4.53507
-5.05225
-5.37315
-5.49497
-5.39067
-5.07224
-4.57671
-4.06111
-3.65955
-3.6661
-4.0885
-5.27213
-6.95492
-9.29681
-11.6864
-13.8209
-12.7634
-10.2012
-7.4998
-5.11218
-3.63242
-2.37929
-1.27603
-0.774804
-0.636976
0.218691
0.463552
0.851621
1.07225
1.39813
1.56117
1.61088
1.70015
1.66621
1.58819
1.47307
1.32837
1.20852
1.12448
1.03893
0.961051
0.946478
0.97545
0.974378
0.983432
0.87114
0.689081
0.217681
-0.754016
-1.84674
-1.83675
-1.47813
-0.651013
0.0901063
0.327596
0.403567
0.464308
0.529482
0.566235
0.682392
0.741786
0.869533
0.924584
1.05082
1.07916
1.19063
1.18191
1.15893
1.08417
0.928004
0.696242
0.369248
-0.0419021
-0.550239
-1.15002
-1.83802
-2.61041
-3.43161
-4.23698
-4.95262
-5.51331
-5.85687
-5.98091
-5.85685
-5.49736
-4.93935
-4.3526
-3.88874
-3.86376
-4.29849
-5.56496
-7.44539
-10.0442
-12.8592
-15.3322
-14.1244
-11.2262
-8.21278
-5.50022
-3.86466
-2.51641
-1.36426
-0.836843
-0.624894
0.234099
0.496364
0.919603
1.16525
1.51143
1.68281
1.6965
1.77182
1.74927
1.66495
1.54081
1.38924
1.26575
1.18012
1.0961
1.01973
1.00585
1.03074
1.03141
1.03292
0.901401
0.705399
0.200132
-0.809704
-1.88328
-1.83727
-1.46658
-0.688964
0.00256986
0.215919
0.357559
0.457439
0.537807
0.575683
0.696953
0.760866
0.894597
0.955801
1.08424
1.11953
1.23777
1.23836
1.22008
1.14556
0.982965
0.737766
0.388001
-0.0555788
-0.606631
-1.25832
-2.00727
-2.84599
-3.7402
-4.61704
-5.39528
-6.00192
-6.36879
-6.49396
-6.34761
-5.94337
-5.31736
-4.65248
-4.12055
-4.05956
-4.50709
-5.86622
-7.97911
-10.8793
-14.2065
-17.0439
-15.6214
-12.307
-8.9582
-5.89217
-4.08978
-2.64289
-1.43989
-0.862709
-0.597569
0.248599
0.528617
0.988785
1.26301
1.63113
1.81366
1.78406
1.84116
1.83224
1.74172
1.60776
1.44883
1.32172
1.23499
1.15401
1.07903
1.06405
1.08775
1.09039
1.0822
0.931778
0.722229
0.191722
-0.824173
-1.8643
-1.78376
-1.42015
-0.704126
-0.10329
0.0712289
0.292154
0.444057
0.544564
0.582419
0.708669
0.776715
0.915746
0.983338
1.11312
1.15685
1.28248
1.29385
1.28155
1.20792
1.03935
0.780764
0.407738
-0.0694487
-0.665158
-1.37159
-2.18538
-3.09443
-4.06666
-5.01983
-5.86489
-6.52012
-6.91099
-7.03606
-6.8647
-6.41183
-5.71243
-4.96272
-4.35788
-4.25769
-4.7208
-6.18397
-8.5724
-11.8277
-15.7729
-19.0085
-17.2856
-13.4509
-9.73458
-6.28549
-4.30551
-2.75662
-1.50342
-0.886906
-0.632408
0.261678
0.559653
1.05859
1.36512
1.75705
1.95164
1.87881
1.90717
1.91442
1.81843
1.67393
1.50709
1.37614
1.28886
1.21069
1.13786
1.12233
1.14692
1.15151
1.13216
0.964502
0.741821
0.195561
-0.798909
-1.79847
-1.68214
-1.33981
-0.695059
-0.225079
-0.104677
0.208735
0.424844
0.550314
0.586612
0.717537
0.789332
0.932909
1.00667
1.13762
1.19101
1.32477
1.34824
1.34333
1.27137
1.09736
0.825476
0.428727
-0.0832524
-0.725633
-1.48982
-2.37259
-3.35638
-4.41212
-5.44694
-6.36345
-7.07017
-7.48576
-7.60934
-7.41007
-6.90453
-6.1268
-5.28634
-4.60501
-4.46365
-4.94664
-6.52592
-9.24038
-12.9131
-17.6021
-21.2801
-19.1498
-14.667
-10.54
-6.67709
-4.50962
-2.85567
-1.55269
-0.898997
-0.584797
0.272812
0.588707
1.12823
1.47117
1.88909
2.09681
1.98689
1.96793
1.99447
1.89501
1.73932
1.564
1.42877
1.34127
1.26544
1.19565
1.18181
1.209
1.21518
1.18422
1.00155
0.7666
0.213632
-0.744129
-1.69016
-1.54466
-1.22799
-0.660631
-0.356427
-0.303681
0.112583
0.402047
0.555687
0.588501
0.7235
0.798671
0.946017
1.02539
1.15799
1.22201
1.36462
1.40147
1.40564
1.3361
1.15724
0.872175
0.451274
-0.0966954
-0.787837
-1.61301
-2.5691
-3.63287
-4.77779
-5.9001
-6.89312
-7.6545
-8.09565
-8.21618
-7.98593
-7.4236
-6.56346
-5.62758
-4.86745
-4.68364
-5.19124
-6.89897
-9.9955
-14.1564
-19.737
-23.9128
-21.2489
-15.9641
-11.3722
-7.06332
-4.69982
-2.93787
-1.58612
-0.901474
-0.574912
0.281465
0.614921
1.19677
1.5808
2.02695
2.2485
2.11042
2.02536
2.07084
1.97134
1.80399
1.61958
1.4795
1.39174
1.32014
1.25391
1.24234
1.27504
1.28266
1.24002
1.04444
0.798769
0.24611
-0.668606
-1.54829
-1.38156
-1.08954
-0.60138
-0.486234
-0.509102
0.0141142
0.379499
0.561221
0.588335
0.726487
0.804621
0.954992
1.0395
1.17461
1.24994
1.4021
1.45363
1.46874
1.4023
1.21926
0.921173
0.475722
-0.109443
-0.851515
-1.7411
-2.77516
-3.92535
-5.16492
-6.38117
-7.45626
-8.2758
-8.74349
-8.85924
-8.59489
-7.9717
-7.02635
-5.99206
-5.15165
-4.92366
-5.45985
-7.30873
-10.8466
-15.5746
-22.2194
-26.9595
-23.6198
-17.3496
-12.2283
-7.43995
-4.87379
-3.00111
-1.60244
-0.896627
-0.512778
0.287132
0.637397
1.26327
1.69329
2.17037
2.40595
2.24846
2.0895
2.14221
2.04733
1.868
1.67389
1.52824
1.43983
1.37533
1.3127
1.30349
1.34525
1.3552
1.30126
1.09389
0.839654
0.291649
-0.575296
-1.38587
-1.2007
-0.930905
-0.519305
-0.598978
-0.695219
-0.0711862
0.362016
0.567141
0.586326
0.726408
0.806986
0.95975
1.04935
1.18788
1.27501
1.43732
1.50492
1.53277
1.47024
1.28375
0.972824
0.50246
-0.121115
-0.916372
-1.87403
-2.99102
-4.23497
-5.57477
-6.89215
-8.05542
-8.93703
-9.4325
-9.54165
-9.24004
-8.55225
-7.52055
-6.38666
-5.46428
-5.18867
-5.75576
-7.75911
-11.7988
-17.181
-25.0902
-30.4696
-26.2987
-18.827
-13.1045
-7.80211
-5.0293
-3.04329
-1.5994
-0.855503
-0.439938
0.289439
0.655366
1.32673
1.80755
2.31881
2.56954
2.39686
2.17103
2.20796
2.12284
1.93144
1.72702
1.575
1.48531
1.4293
1.37139
1.36602
1.41932
1.43306
1.36837
1.14986
0.889072
0.349105
-0.46786
-1.21149
-1.00972
-0.759857
-0.417535
-0.676488
-0.830389
-0.125407
0.3543
0.573219
0.582624
0.7231
0.805466
0.960211
1.05524
1.19821
1.29754
1.47044
1.55562
1.59788
1.54021
1.35107
1.02753
0.531921
-0.131283
-0.982062
-2.01168
-3.21696
-4.56239
-6.0087
-7.43516
-8.69337
-9.64147
-10.1664
-10.2671
-9.92517
-9.16973
-8.05239
-6.81913
-5.81139
-5.48195
-6.08007
-8.25216
-12.8535
-18.9859
-28.3874
-34.4841
-29.3173
-20.395
-13.9953
-8.14461
-5.16361
-3.06239
-1.57697
-0.810529
-0.406869
0.288218
0.668343
1.38627
1.92236
2.47185
2.74008
2.55339
2.2714
2.26892
2.19783
1.99447
1.77907
1.61997
1.52808
1.48263
1.43124
1.43133
1.49731
1.51568
1.44096
1.21196
0.94618
0.416988
-0.35069
-1.03138
-0.81558
-0.584686
-0.300888
-0.702161
-0.885298
-0.133718
0.359567
0.578808
0.577301
0.716298
0.799685
0.956269
1.05727
1.2059
1.31791
1.50164
1.60604
1.66432
1.6126
1.42163
1.08573
0.564585
-0.139468
-1.04819
-2.1539
-3.45327
-4.90842
-6.46811
-8.01249
-9.37312
-10.3928
-10.9494
-11.0401
-10.6549
-9.82999
-8.62941
-7.29736
-6.19749
-5.80477
-6.43191
-8.78792
-14.009
-20.9953
-32.1435
-39.0291
-32.6984
-22.0469
-14.8931
-8.46243
-5.27288
-3.05679
-1.53352
-0.763411
-0.308656
0.283615
0.676181
1.44115
2.03625
2.62914
2.91813
2.71912
2.38783
2.32919
2.27207
2.05728
1.83021
1.66351
1.56829
1.53664
1.49324
1.49915
1.57921
1.60301
1.51843
1.27972
1.01018
0.493417
-0.22721
-0.851912
-0.624983
-0.413535
-0.176537
-0.667451
-0.84483
-0.0909845
0.378067
0.583098
0.57023
0.705567
0.789231
0.947798
1.05544
1.2112
1.33653
1.5311
1.65657
1.73243
1.68783
1.49588
1.14792
0.600979
-0.145135
-1.11432
-2.30048
-3.70024
-5.27405
-6.9545
-8.62655
-10.098
-11.1951
-11.7867
-11.866
-11.435
-10.5405
-9.26001
-7.82841
-6.62501
-6.15632
-6.80876
-9.36343
-15.2593
-23.2099
-36.3779
-44.1066
-36.4493
-23.7689
-15.7868
-8.75038
-5.35285
-3.02494
-1.46629
-0.676817
-0.195445
0.276126
0.679099
1.49078
2.14776
2.79034
3.10382
2.8937
2.51887
2.39626
2.34498
2.1201
1.88071
1.70606
1.607
1.58995
1.5572
1.569
1.66364
1.69425
1.60001
1.35271
1.0803
0.576191
-0.101645
-0.679408
-0.444813
-0.253738
-0.0538195
-0.575093
-0.717851
-0.00451717
0.406441
0.585472
0.560876
0.690338
0.773701
0.934684
1.04979
1.21432
1.35376
1.55903
1.70766
1.80262
1.76639
1.5743
1.21462
0.64168
-0.147693
-1.17995
-2.45117
-3.95816
-5.66023
-7.46977
-9.27995
-10.8716
-12.0532
-12.6838
-12.7516
-12.2728
-11.3105
-9.95278
-8.41754
-7.09402
-6.53383
-7.20598
-9.97088
-16.5922
-25.6205
-41.0862
-49.6803
-40.5513
-25.5397
-16.6612
-9.00263
-5.39996
-2.96542
-1.37601
-0.585466
-0.130079
0.266531
0.677575
1.53478
2.25552
2.95524
3.29709
3.07567
2.66328
2.47697
2.41657
2.18329
1.93109
1.7481
1.64586
1.64157
1.62278
1.64099
1.74958
1.78845
1.68505
1.43056
1.15573
0.663241
0.0208475
-0.519638
-0.281258
-0.110839
0.0578355
-0.434873
-0.537426
0.109302
0.439392
0.585678
0.54822
0.669997
0.752727
0.916864
1.04041
1.21544
1.36989
1.58565
1.75983
1.87531
1.84882
1.65744
1.28643
0.687311
-0.14649
-1.24451
-2.60565
-4.22725
-6.0678
-8.01699
-9.97545
-11.6979
-12.9723
-13.6474
-13.7046
-13.1771
-12.1503
-10.7155
-9.06742
-7.60271
-6.93282
-7.61548
-10.5975
-17.987
-28.2025
-46.2215
-55.6537
-44.945
-27.3286
-17.4962
-9.21319
-5.41122
-2.87734
-1.26088
-0.478488
0.00524662
0.255782
0.672339
1.57313
2.35867
3.12344
3.49759
3.26502
2.81914
2.57367
2.48885
2.24774
1.98211
1.79023
1.68566
1.69309
1.69015
1.7148
1.83714
1.88575
1.77318
1.51286
1.23549
0.752622
0.135463
-0.376971
-0.138381
0.0121917
0.151866
-0.266897
-0.341257
0.230274
0.471837
0.583701
0.531032
0.643987
0.725993
0.894358
1.0274
1.21474
1.38515
1.61125
1.81368
1.95104
1.93572
1.74585
1.36396
0.738548
-0.140813
-1.30736
-2.76355
-4.50776
-6.49772
-8.60021
-10.7159
-12.5815
-13.9586
-14.6847
-14.7336
-14.1585
-13.0703
-11.5539
-9.77788
-8.14782
-7.34701
-8.02572
-11.2267
-19.4121
-30.9092
-51.6691
-61.8358
-49.5088
-29.0933
-18.2691
-9.374
-5.38371
-2.75975
-1.12024
-0.36025
0.110572
0.244983
0.664579
1.60629
2.45715
3.29388
3.70472
3.46235
2.9844
2.68461
2.56521
2.31477
2.03486
1.8332
1.72657
1.74572
1.75987
1.79051
1.9258
1.98607
1.86429
1.5993
1.31866
0.842392
0.239147
-0.253573
-0.0173042
0.115012
0.226224
-0.0982142
-0.152195
0.34195
0.499749
0.579344
0.508284
0.611836
0.693244
0.867251
1.01094
1.21242
1.3997
1.63623
1.86995
2.03025
2.02774
1.84016
1.44786
0.796109
-0.129885
-1.3678
-2.92441
-4.79991
-6.95104
-9.22257
-11.5042
-13.5274
-15.0193
-15.8034
-15.8469
-15.2276
-14.0786
-12.4696
-10.5456
-8.72429
-7.76825
-8.42268
-11.8383
-20.8252
-33.6662
-57.2094
-67.896
-54.0308
-30.778
-18.955
-9.47324
-5.3145
-2.61199
-0.953663
-0.232669
0.262308
0.235249
0.656293
1.63553
2.55144
3.46555
3.91771
3.66708
3.15764
2.80693
2.64832
2.38553
2.09059
1.87789
1.76908
1.79939
1.83159
1.86831
2.01475
2.08939
1.95826
1.68947
1.40437
0.930755
0.331113
-0.149276
0.0833761
0.199226
0.282933
0.0558532
0.01901
0.436265
0.520557
0.571867
0.479258
0.573135
0.654302
0.835693
0.991304
1.20871
1.41368
1.66109
1.92955
2.11361
2.12556
1.94098
1.53884
0.860763
-0.112863
-1.42505
-3.0877
-5.10389
-7.42881
-9.88593
-12.3436
-14.5416
-16.1627
-17.0117
-17.0519
-16.3931
-15.1799
-13.4595
-11.364
-9.32411
-8.18672
-8.79038
-12.4085
-22.1744
-36.3684
-62.4837
-73.3484
-58.1847
-32.3127
-19.525
-9.5002
-5.20122
-2.43377
-0.760066
-0.0683585
0.424529
0.226641
0.65018
1.66295
2.64258
3.63802
4.13566
3.87767
3.33773
2.93827
2.73935
2.46123
2.15055
1.92524
1.81383
1.85424
1.90437
1.94794
2.10316
2.19485
2.05484
1.78297
1.49191
1.01681
0.412503
-0.062022
0.166237
0.2674
0.325946
0.192296
0.169143
0.513089
0.533274
0.560149
0.443451
0.527513
0.609063
0.799868
0.968831
1.20389
1.42723
1.68644
1.99357
2.20207
2.22986
2.04899
1.63759
0.933319
-0.0888348
-1.47824
-3.25281
-5.41982
-7.9322
-10.5924
-13.2377
-15.6308
-17.3982
-18.3183
-18.3558
-17.6605
-16.3737
-14.5162
-12.2233
-9.93685
-8.59071
-9.11119
-12.9114
-23.4018
-38.8887
-67.0109
-77.6216
-61.5425
-33.6195
-19.9428
-9.44964
-5.04237
-2.22513
-0.541033
0.098181
0.557741
0.217793
0.648479
1.69072
2.73207
3.81144
4.35809
4.09274
3.52379
3.077
2.83842
2.54326
2.21597
1.97629
1.86138
1.91117
1.97869
2.0291
2.1901
2.30131
2.15366
1.87944
1.58068
1.10078
0.485334
0.0111374
0.233642
0.32219
0.360379
0.311504
0.300472
0.575489
0.538223
0.543381
0.400592
0.474733
0.557515
0.760032
0.943934
1.19825
1.44045
1.71305
2.06321
2.29641
2.3413
2.16486
1.74489
1.01463
-0.0568173
-1.52641
-3.41903
-5.74776
-8.46259
-11.3448
-14.1909
-16.8027
-18.7361
-19.7323
-19.766
-19.0322
-17.655
-15.6299
-13.1124
-10.5515
-8.96654
-9.36684
-13.3204
-24.4482
-41.1036
-70.3507
-80.2314
-63.6728
-34.637
-20.1662
-9.31922
-4.83719
-1.98695
-0.29635
0.266487
0.74928
0.208122
0.652716
1.72068
2.82183
3.98712
4.58515
4.31128
3.71506
3.22215
2.945
2.6325
2.28816
2.03239
1.91247
1.97093
2.05507
2.11186
2.27527
2.40769
2.25428
1.97846
1.6702
1.18326
0.551403
0.0726788
0.287006
0.365919
0.392168
0.415417
0.417042
0.626228
0.536827
0.521266
0.350701
0.41481
0.499794
0.716535
0.917105
1.19217
1.45355
1.74183
2.13963
2.39738
2.46058
2.28928
1.86147
1.1056
-0.0157561
-1.5685
-3.58554
-6.08768
-9.02142
-12.1465
-15.2083
-18.0663
-20.1874
-21.2628
-21.2889
-20.5079
-19.0156
-16.7896
-14.0196
-11.1566
-9.29915
-9.53933
-13.6104
-25.2641
-42.9172
-72.3676
-81.0921
-64.4321
-35.3034