/*--------------------------------*- C++ -*----------------------------------*\
| =========                 |                                                 |
| \\      /  F ield         | OpenFOAM: The Open Source CFD Toolbox           |
|  \\    /   O peration     | Version:  4.1                                   |
|   \\  /    A nd           | Web:      www.OpenFOAM.org                      |
|    \\/     M anipulation  |                                                 |
\*---------------------------------------------------------------------------*/
FoamFile
{
    version     2.0;
    format      ascii;
    class       surfaceScalarField;
    location    "5";
    object      phi;
}
// * * * * * * * * * * * * * * * * * * * * * * * * * * * * * * * * * * * * * //

dimensions      [0 3 -1 0 0 0 0];

internalField   nonuniform List<scalar> 
13220
(
-890.627
2190.53
-1381.32
1790.9
-1847.33
1765.91
-2201.13
1653.7
-2474.62
1573.69
-2669.19
1494.47
-2787.42
1418.13
-2830.21
1342.99
-2798.06
1267.75
-2691.79
1193.63
-2517.11
1125.52
-2262.06
1044.86
-1851.05
888.891
-1146.9
596.051
152.997
-41.7784
2232.31
-121.801
1870.92
-288.915
1933.02
-424.777
1789.57
-564.334
1713.25
-685.884
1616.03
-791.2
1523.45
-877.302
1429.09
-947.375
1337.83
-1006.44
1252.69
-1039.88
1158.97
-973.763
978.737
-673.395
588.525
-176.757
99.4205
-23.7589
-145.62
2377.93
-360.835
2086.14
-553.692
2125.88
-672.923
1908.8
-783.677
1824.01
-857.034
1689.38
-906.422
1572.84
-931.959
1454.63
-935.32
1341.19
-916.833
1234.21
-868.158
1110.29
-759.088
869.68
-549.382
378.84
-324.96
-124.967
-348.719
56.9965
2320.94
0.925161
2142.21
-6.24996
2133.06
20.1631
1882.39
49.4769
1794.69
98.3198
1640.54
161.824
1509.34
241.19
1375.26
336.925
1245.46
449.317
1121.82
561.806
997.807
602.721
828.759
451.532
530.023
96.5272
230.029
-252.192
132.035
2188.9
153.032
2121.21
215.085
2071
284.621
1812.85
352.209
1727.11
422.573
1570.18
492.717
1439.2
560.506
1307.47
622.43
1183.54
675.372
1068.87
714.504
958.671
701.768
841.499
558.421
673.37
313.696
474.755
61.5032
80.2216
2108.68
128.249
2073.18
176.49
2022.76
232.109
1757.23
276.611
1682.6
333.324
1513.46
385.955
1386.56
441.829
1251.6
496.394
1128.97
544.461
1020.8
571.971
931.161
555.442
858.016
451.153
777.649
266.291
659.598
327.794
5.43838
2103.24
44.4858
2034.13
69.3647
1997.88
85.5408
1741.05
99.6062
1668.53
121.659
1491.41
148.152
1360.06
216.951
1182.8
340.508
1005.41
490.672
870.637
598.635
823.196
613.373
843.276
510.568
880.451
308.451
861.711
636.245
-51.4452
2154.68
-112.987
2095.67
-151.05
2035.94
-219.99
1809.99
-282.855
1731.4
-350.099
1558.65
-406.246
1416.21
-404.398
1180.95
-318.101
919.11
-164.717
717.25
13.701
644.777
170.559
686.415
235.542
815.464
163.567
933.683
799.812
-3.82013
2158.5
-191.461
2283.31
-306.368
2150.85
-434.071
1937.69
-562.644
1859.97
-697.388
1693.39
-838.091
1556.91
-973.53
1316.38
-1085.38
1030.96
-1135.22
767.081
-1066.42
575.978
-837.116
457.11
-486.102
464.446
-155.614
603.189
644.199
151.092
2007.41
-8.76429
2443.17
-123.203
2265.29
-216.034
2030.52
-295.221
1939.15
-383.3
1781.47
-483.108
1656.72
-624.798
1458.07
-812.623
1218.79
-1008.68
963.139
-1149.4
716.699
-1158.08
465.789
-935.271
241.639
-468.734
136.654
175.465
260.347
1747.06
237.541
2465.97
191.935
2310.89
178.386
2044.07
198.095
1919.45
210.46
1769.11
220.513
1646.67
189.494
1489.09
100.428
1307.85
-41.7186
1105.29
-209.562
884.545
-375.815
632.037
-465.988
331.809
-363.376
34.0385
-187.911
256.405
1490.65
322.036
2400.34
330.578
2302.35
352.818
2021.83
409.24
1863.02
466.425
1711.92
529.168
1583.92
574.184
1444.08
589.526
1292.51
564.929
1129.88
496.17
953.303
370.813
757.398
182.769
519.858
-17.5725
234.388
-205.484
220.615
1270.04
339.581
2281.38
409.563
2232.37
480.039
1951.36
564.2
1778.86
635.004
1641.12
692.785
1526.14
730.396
1406.47
740.679
1282.23
719.298
1151.26
664.008
1008.59
569.876
851.529
428.204
661.531
225.568
437.024
20.0841
250.76
1019.28
369.466
2162.67
355.843
2245.99
296.849
2010.35
278.561
1797.15
294.815
1624.86
337.612
1483.35
393.51
1350.57
457.513
1218.23
519.074
1089.7
556.987
970.681
540.394
868.124
444.647
757.279
269.237
612.437
289.321
385.448
1202.05
1790.62
2083.25
2140.51
2098.3
1959.03
1768.71
1531.68
1294.68
1055
825.432
600.243
349.135
2.73966e-06
126.58
-126.58
126.58
126.58
126.58
208.15
-81.5705
208.15
208.15
208.15
283.44
-75.29
283.44
283.44
349.839
-66.3986
349.839
349.839
349.839
406.702
-56.8629
406.702
406.702
445.143
-38.4416
445.143
445.143
445.143
462.626
-17.483
462.626
462.626
462.626
459.85
2.77645
459.85
459.85
436.625
23.2247
436.625
436.625
436.625
395.049
41.5767
395.049
395.049
336.861
58.1878
336.861
336.861
336.861
269.024
67.8369
269.024
269.024
269.024
200.559
68.4653
200.559
200.559
136.985
63.5738
136.985
136.985
136.985
116.557
20.4282
116.557
116.557
116.557
77.7964
38.7602
77.7964
77.7964
-50.7465
128.543
-50.7465
-50.7465
-50.7465
-269.387
218.64
-269.387
-269.387
-1022.65
753.26
-1022.65
-1022.65
-1022.65
-2208.94
1186.3
-2208.94
-2208.94
-2208.94
-3713.2
1504.25
-3713.2
-3713.2
-5540.73
1827.53
-5540.73
-5540.73
-5426.45
-5311.71
-5191.05
-7171.74
2105.9
-7049.65
-6903.14
-6742.02
-6579.44
-6415.89
-6252.78
-6086.26
-5908.78
-8176.12
2449.62
-7988.83
-7799.97
-7608.85
-7409.35
-7206.1
-7000.37
-6792.73
-6581.25
-9140.01
2773.25
-8914.25
-8686.31
-8456.9
-8226.25
-7989.99
-7743.45
-7493.9
-7241.36
-6986.86
-9618.07
2875.76
-9348.02
-9076.03
-8802.81
-8529.46
-8255.71
-7968.17
-7672.53
-7376.89
-9722.49
2625.42
-9435.66
-9142.8
-8838.87
-8535.04
-8230.5
-7926.11
-7620.89
-7297.12
-9143.92
2155.17
-8832.35
-8521.72
-8211.92
-7886.84
-7555.62
-7225.77
-6896.54
-6571.61
-7744.71
1493.69
-7414.17
-7088.81
-6767.9
-6452.78
-6143.59
-5820.02
-5502.78
-5190.69
-4887.24
-4933.14
351.63
-4656.85
-4393.83
-4137.26
-3887.27
-3643.03
-3442.21
-3322.56
-3204.3
-2819.35
-259.6
-2710.02
-2603.83
-2603.83
-2434.72
-169.105
-2254.84
-179.886
-2254.84
-2115.34
-139.494
-2115.34
-2007.92
-107.426
-1921.62
-86.2972
-1921.62
-1854.86
-66.756
-1800.7
-54.1603
-1800.7
-1757.56
-43.1423
-1757.56
-1729.89
-27.6693
-1706.79
-23.0987
-1706.79
-1690.59
-16.1988
-1690.59
-1685.81
-4.78472
-1679.25
-6.55687
-1679.25
-1682.61
3.35574
-1683.13
0.519405
-1683.13
-1687.7
4.5741
-1687.7
-1700.56
12.8535
-1707.78
7.2207
-1707.78
-1717.99
10.2143
-1717.99
-1735.44
17.4489
-1744.69
9.24855
-1744.69
-1762.15
17.4597
-1772.65
10.5059
-1772.65
-1785.85
13.2011
-1785.85
-1806.36
20.5021
-1819.51
13.1527
-1819.51
-1835.92
16.4137
-1835.92
-1860.68
24.7557
-1877.44
16.7662
-1877.44
-1905.19
27.7409
-1927.26
22.0782
-1927.26
-1955.49
28.2252
-1955.49
-1996
40.5084
-2031.05
35.0558
-2031.05
-2075.09
44.0363
-2075.09
-2135.24
60.1531
-2189.1
53.8555
-2189.1
-2265.35
76.249
-2337.57
72.2248
-2337.57
-2426.91
89.342
-2426.91
-2543.07
116.154
-2653.42
110.356
-2653.42
-2788.05
134.629
-2788.05
-2958.61
170.56
-3118.28
159.663
-3118.28
-3330.12
211.847
-3529.86
199.737
-3529.86
-3770.16
240.3
-3770.16
303.235
-41.3887
-307.037
-36.2541
-350.24
-31.2029
-357.48
-30.1105
-386.394
-28.9379
-431.992
-21.3404
-343.508
-10.2163
-146.751
-1.95997
30.4455
0.576871
73.8903
3.49891
327.501
7.42522
480.929
10.5832
404.748
14.8508
357.058
16.7814
30.7137
22.4843
-13.5797
42.1553
-19.8766
53.4176
-438.186
44.6161
-775.439
41.6582
-767.134
45.0935
-775.28
35.3776
-906.752
18.4121
-1002.88
2.6412
-1086.78
-17.2152
-1174.06
-42.3629
-1236.93
-64.2796
-1263.31
-68.2513
-1287.48
-53.465
-1320.45
-34.3801
-1293.45
-17.0962
-1185.43
-4.08459
-1058.95
1.25495
-940.488
3.32927
-858.488
2.87032
-767.606
-1.62646
-684.169
-5.78279
-605.505
-6.97459
-514.129
-9.17619
-308.441
-17.057
28.0933
-33.9002
109.16
-54.8046
245.285
-69.1023
465.694
-78.7147
557.101
-88.7083
608.689
-98.1464
679.677
-107.001
673.836
-116.016
568.727
-127.012
376.897
-139.694
152.646
-150.968
-63.0218
-160.656
-266.655
-169.48
-473.86
-175.929
-685.066
-179.333
-901.068
-179.224
-1119.95
-175.298
-1338.66
-167.381
-1552.52
-155.421
-1756.36
-139.439
-1945.1
-119.441
-2112.99
-95.1081
-2254.8
-66.0377
-2364.66
-31.5591
-2432.82
8.37084
-2451.23
53.0172
-2400.2
99.8459
-2263.96
145.368
-2026.2
182.847
-1675.96
205.484
-1210.42
207.744
-665.108
189.045
-55.5987
154.536
421.032
112.603
774.022
70.9476
1103.41
43.615
1672.66
10.4895
1906.84
-37.8736
1970.63
-184.131
1684.27
3259.52
-49.9811
-308.816
-44.542
-355.679
-38.0657
-363.956
-35.9102
-388.55
-34.3954
-433.507
-27.5577
-350.346
-16.3388
-157.97
-4.17343
18.2801
-0.164458
69.8814
3.86365
323.473
8.4218
476.37
11.6833
401.486
16.7263
352.015
17.9377
29.5023
25.5031
-21.1451
47.1139
-41.4875
57.7008
-448.773
47.1095
-764.848
45.2575
-765.282
48.6752
-778.698
37.3294
-895.406
17.9439
-983.49
-1.61234
-1067.23
-26.0301
-1149.64
-55.9057
-1207.05
-77.7655
-1241.45
-76.543
-1288.7
-56.1029
-1340.89
-33.8433
-1315.71
-15.0903
-1204.18
-0.576804
-1073.47
5.01706
-946.082
6.30246
-859.774
5.53128
-766.834
0.727454
-679.365
-4.67821
-600.099
-7.9321
-510.875
-10.235
-306.138
-16.8431
34.7013
-33.7315
126.049
-55.2223
266.776
-69.6155
480.088
-79.0791
566.565
-89.0748
618.685
-98.5101
689.113
-107.136
682.462
-115.59
577.181
-126.203
387.51
-140.01
166.453
-154.149
-48.8831
-166.747
-254.058
-177.677
-462.93
-185.79
-676.953
-190.463
-896.395
-191.227
-1119.18
-187.769
-1342.12
-179.927
-1560.36
-167.68
-1768.6
-151.06
-1961.72
-130.049
-2134
-104.23
-2280.62
-73.1184
-2395.77
-35.9655
-2469.97
7.38388
-2494.58
56.3795
-2449.2
108.114
-2315.69
158.766
-2076.85
200.306
-1717.5
225.073
-1235.19
225.807
-665.842
200.982
-30.7732
159.62
462.394
114.303
819.339
71.5381
1146.18
43.2365
1700.96
8.58812
1941.48
-41.4664
2020.68
-180.957
1823.76
3318.86
-56.8479
-311.07
-51.0792
-361.448
-43.806
-371.229
-40.0942
-392.262
-37.117
-436.484
-30.1637
-357.299
-19.3173
-168.816
-5.42869
4.3915
-0.167809
64.6205
4.32445
318.981
9.24853
471.446
12.6815
398.053
17.664
347.032
19.2142
27.952
29.2992
-31.2301
52.0872
-64.2754
60.05
-456.736
49.6275
-754.426
47.7501
-763.405
49.843
-780.791
38.0453
-883.608
16.4636
-961.908
-6.01353
-1044.75
-34.1615
-1121.49
-68.1002
-1173.12
-88.8999
-1220.65
-82.8845
-1294.71
-57.5953
-1366.18
-32.4904
-1340.82
-13.0301
-1223.64
2.53623
-1089.03
8.7076
-952.254
9.32233
-860.389
8.19688
-765.709
2.96776
-674.136
-3.3774
-593.754
-7.96903
-506.284
-11.0218
-303.085
-17.3753
41.0548
-34.136
142.809
-55.6149
288.255
-69.984
494.457
-79.3373
575.918
-89.2944
628.642
-98.6917
698.51
-107.104
690.874
-115.572
585.649
-127.293
399.23
-142.761
181.922
-158.523
-33.1213
-172.627
-239.954
-184.594
-450.963
-193.517
-668.03
-198.802
-891.11
-199.96
-1118.02
-196.671
-1345.41
-188.777
-1568.25
-176.278
-1781.1
-159.199
-1978.8
-137.485
-2155.72
-110.647
-2307.45
-78.1373
-2428.28
-39.1428
-2508.96
6.56157
-2540.28
58.5489
-2501.19
113.62
-2370.76
167.869
-2131.1
212.392
-1762.02
239.08
-1261.88
239.304
-666.067
211.792
-3.26072
165.997
508.189
116.615
868.721
72.1996
1190.59
42.6047
1730.55
7.39799
1976.69
-44.3455
2072.43
-166.964
1946.38
3351.63
-62.0498
-313.866
-56.1856
-367.312
-48.9837
-378.431
-44.6751
-396.57
-40.6181
-440.541
-32.9447
-364.972
-20.3957
-181.365
-5.70128
-10.303
0.209232
58.71
4.82509
314.365
9.95437
466.317
13.5569
394.451
18.4581
342.131
20.599
25.8111
32.6761
-43.3072
56.6063
-88.2055
64.2785
-464.408
54.5915
-744.739
52.0426
-760.856
51.6767
-780.425
38.5756
-870.507
14.4134
-937.746
-11.5612
-1018.78
-44.524
-1088.53
-82.9369
-1134.7
-102.155
-1201.44
-90.679
-1306.19
-59.5598
-1397.3
-30.4997
-1369.88
-10.3353
-1243.8
5.79608
-1105.17
12.6266
-959.084
12.846
-860.608
11.1972
-764.06
5.07594
-668.015
-2.41467
-586.263
-8.2179
-500.481
-12.0208
-299.282
-18.3102
47.3442
-34.9708
159.47
-56.0668
309.351
-70.1525
508.542
-79.3303
585.096
-89.1607
638.472
-98.411
707.76
-106.727
699.19
-115.967
594.889
-129.505
412.768
-146.772
199.189
-163.99
-15.9036
-179.291
-224.652
-192.225
-438.029
-202.012
-658.243
-207.988
-885.134
-209.612
-1116.4
-206.542
-1348.48
-198.621
-1576.18
-185.862
-1793.86
-168.294
-1996.37
-145.834
-2178.18
-117.917
-2335.37
-83.9191
-2462.28
-42.9384
-2549.94
5.3541
-2588.57
60.6772
-2556.51
119.56
-2429.65
177.973
-2189.52
226.08
-1810.13
255.09
-1290.89
254.939
-665.916
224.126
27.5518
173.157
559.159
119.156
922.721
72.5949
1237.15
41.7368
1761.41
6.09455
2012.33
-48.0466
2126.57
-164.267
2062.6
3399.21
-66.2561
-317.363
-60.0066
-373.562
-53.1204
-385.317
-48.8198
-400.871
-44.1723
-445.189
-35.9206
-373.224
-21.805
-195.481
-5.74569
-26.3623
0.58342
52.3809
5.32331
309.625
10.6771
460.963
14.4732
390.655
19.6382
336.966
22.4276
23.0218
36.2733
-57.1529
60.0641
-111.996
67.3068
-471.651
58.9029
-736.335
55.717
-757.67
52.9535
-777.661
38.5462
-856.1
11.8394
-911.039
-18.0218
-988.915
-56.6514
-1049.9
-99.4784
-1091.88
-116.598
-1184.32
-99.5126
-1323.28
-61.9444
-1434.87
-27.7908
-1404.03
-6.79991
-1264.8
9.30024
-1121.27
16.7186
-966.503
16.5981
-860.487
14.2546
-761.717
7.07599
-660.837
-1.32946
-577.858
-8.10442
-493.706
-12.7438
-294.643
-19.3222
53.9226
-35.8901
176.038
-56.4144
329.875
-70.0515
522.179
-78.9283
593.973
-88.4847
648.029
-97.5513
716.827
-106.164
707.802
-116.875
605.6
-132.279
428.172
-150.885
217.795
-169.236
2.44801
-185.643
-208.245
-199.612
-424.06
-210.316
-647.54
-217.019
-878.431
-219.14
-1114.28
-216.319
-1351.3
-208.403
-1584.09
-195.428
-1806.84
-177.424
-2014.37
-154.29
-2201.31
-125.381
-2364.28
-89.9849
-2497.68
-47.1078
-2592.82
3.69762
-2639.38
62.2882
-2615.1
124.956
-2492.31
187.583
-2252.14
239.468
-1862.01
271.076
-1322.49
270.72
-665.56
236.669
61.6027
180.774
615.053
121.967
981.528
72.7049
1286.42
40.5329
1793.58
4.32895
2048.54
-50.5697
2181.47
-154.663
2166.69
3404.21
-69.6265
-321.596
-62.7842
-380.404
-56.2387
-391.863
-52.2833
-404.826
-47.2893
-450.183
-38.2515
-382.262
-23.207
-210.525
-5.7553
-43.814
0.939431
45.6861
5.81333
304.751
11.4376
455.339
15.4818
386.61
21.0292
331.419
24.6691
19.3819
39.8351
-72.3189
62.733
-134.894
70.1446
-479.062
63.1296
-729.32
59.1712
-753.712
54.664
-773.154
38.7337
-840.17
9.00636
-881.311
-25.438
-954.471
-70.788
-1004.55
-117.975
-1044.69
-132.733
-1169.56
-110.053
-1345.96
-65.2834
-1479.64
-24.421
-1444.89
-2.12148
-1287.1
13.2111
-1136.6
20.9731
-974.265
20.3683
-859.883
17.2188
-758.567
9.12195
-652.74
-0.272092
-568.464
-8.07285
-485.905
-13.4078
-289.308
-20.2242
60.7389
-36.6961
192.51
-56.5008
349.68
-69.5427
535.221
-77.9855
602.415
-87.1695
657.213
-96.2264
725.884
-105.715
717.291
-118.272
618.158
-135.288
445.188
-154.919
237.426
-174.414
21.9425
-192.046
-190.613
-207.111
-408.995
-218.764
-635.887
-226.227
-870.968
-228.874
-1111.63
-226.329
-1353.84
-218.443
-1591.98
-205.278
-1820
-186.874
-2032.77
-163.111
-2225.07
-133.268
-2394.12
-96.5363
-2534.41
-51.8221
-2637.54
1.44713
-2692.65
63.2478
-2676.9
129.676
-2558.74
196.594
-2319.06
252.556
-1917.98
287.22
-1357.16
287.003
-665.343
249.646
98.9597
188.769
675.93
125.058
1045.24
72.6536
1338.82
39.0457
1827.19
2.39997
2085.18
-52.0482
2235.91
-146.977
2261.62
3427.8
-72.2835
-326.595
-64.6124
-388.075
-58.1991
-398.276
-54.9774
-408.048
-50.1187
-455.041
-40.2592
-392.121
-24.3067
-226.478
-5.63213
-62.4885
1.32428
38.7297
6.28852
299.787
12.1925
449.435
16.534
382.269
22.4723
325.48
27.1914
14.6629
42.8652
-87.9927
64.619
-156.648
72.9536
-487.397
67.4
-723.766
62.6053
-748.917
56.5662
-767.115
38.6072
-822.211
5.66427
-848.369
-34.0429
-914.763
-87.0387
-951.557
-138.342
-993.386
-150.566
-1157.33
-122.413
-1374.11
-69.8155
-1532.24
-20.4303
-1494.28
3.95059
-1311.48
17.6586
-1150.31
25.3567
-981.963
24.0268
-858.553
20.1228
-754.663
11.643
-644.26
1.13239
-557.953
-8.07107
-476.701
-14.0296
-283.349
-20.9221
67.6314
-37.2322
208.82
-56.193
368.641
-68.5042
547.533
-76.4325
610.344
-85.3111
666.091
-94.7381
735.311
-105.602
728.155
-119.974
632.53
-138.276
463.49
-158.912
258.063
-179.632
42.6624
-198.484
-171.76
-214.657
-392.822
-227.303
-623.242
-235.568
-862.702
-238.777
-1108.42
-236.537
-1356.08
-228.711
-1599.8
-215.386
-1833.33
-196.622
-2051.54
-172.29
-2249.41
-141.588
-2424.82
-103.607
-2572.39
-57.1599
-2683.98
-1.55699
-2748.25
63.2556
-2741.71
133.234
-2628.72
204.351
-2390.18
264.641
-1978.27
302.959
-1395.48
303.436
-665.82
262.84
139.556
196.977
741.793
128.335
1113.88
72.4895
1394.67
37.3289
1862.35
0.430661
2122.08
-52.9167
2289.26
-140.082
2348.78
3422.35
-74.3314
-332.326
-65.6762
-396.73
-58.9534
-404.999
-56.6988
-410.302
-52.6244
-459.116
-42.2304
-402.515
-25.3554
-243.353
-5.44438
-82.3996
1.68402
31.6013
6.71602
294.755
12.9076
443.243
17.58
377.596
23.9497
319.111
30.0401
8.57239
45.5434
-103.496
66.0679
-177.173
75.2365
-496.566
71.1838
-719.713
65.7798
-743.513
58.4013
-759.737
38.0679
-801.877
1.74533
-812.046
-43.9943
-869.024
-105.374
-890.176
-160.337
-938.423
-169.805
-1147.87
-136.285
-1407.63
-75.5009
-1593.02
-15.8758
-1553.9
11.6214
-1338.97
22.7844
-1161.47
29.8036
-988.982
27.5797
-856.329
23.0791
-750.163
14.7723
-635.953
2.98651
-546.167
-8.07739
-465.637
-14.5263
-276.9
-21.3381
74.4433
-37.3532
224.835
-55.3497
386.637
-66.8599
559.043
-74.3342
617.818
-83.1771
674.934
-93.4201
745.554
-105.89
740.625
-121.826
648.466
-141.228
482.892
-162.888
279.722
-184.792
64.5659
-204.916
-151.635
-222.28
-375.459
-235.971
-609.55
-245.085
-853.589
-248.892
-1104.61
-246.987
-1357.99
-239.244
-1607.55
-225.789
-1846.78
-206.708
-2070.62
-181.869
-2274.25
-150.395
-2456.3
-111.278
-2611.51
-63.2531
-2732.01
-5.54858
-2805.95
61.8979
-2809.16
134.983
-2701.8
210.02
-2465.22
274.856
-2043.1
317.618
-1438.24
319.674
-667.876
276.219
183.011
205.326
812.686
131.705
1187.5
72.2233
1454.15
35.4037
1899.17
-1.54897
2159.03
-52.9757
2340.69
-127.017
2422.83
3405.68
-75.8735
-338.743
-66.1306
-406.473
-58.515
-412.614
-57.2162
-411.601
-54.5868
-461.745
-44.0559
-413.046
-26.4257
-260.983
-5.33144
-103.494
1.95534
24.3145
7.06082
289.649
13.5565
436.748
18.5837
372.569
25.4215
312.273
32.9367
1.05717
47.7924
-118.352
67.4396
-196.82
77.0406
-506.167
74.1148
-716.788
68.3922
-737.79
59.9845
-751.329
37.0907
-778.983
-2.79382
-772.161
-55.3804
-816.437
-125.523
-820.034
-183.249
-880.697
-189.404
-1141.71
-150.464
-1446.57
-81.6694
-1661.82
-10.7911
-1624.78
20.9818
-1370.75
28.7286
-1169.22
34.1835
-994.437
31.1503
-853.295
26.2434
-745.256
18.3571
-628.067
5.26746
-533.078
-7.91939
-452.451
-14.8329
-269.987
-21.41
81.0204
-36.9361
240.361
-53.8586
403.56
-64.6053
569.789
-71.8518
625.064
-81.0626
684.145
-92.4686
756.96
-106.491
754.647
-123.688
665.663
-144.09
503.294
-166.823
302.455
-189.973
87.716
-211.405
-130.203
-229.997
-356.867
-244.786
-594.761
-254.793
-843.582
-259.238
-1100.17
-257.696
-1359.53
-250.061
-1615.18
-236.503
-1860.34
-217.151
-2089.97
-191.877
-2299.52
-159.739
-2488.44
-119.639
-2651.61
-70.2755
-2781.37
-10.8573
-2865.37
58.5879
-2878.61
134.028
-2777.24
212.474
-2543.66
282.03
-2112.66
330.23
-1486.44
335.137
-672.783
289.567
228.58
213.719
888.535
135.073
1266.15
71.8507
1517.37
33.2792
1937.74
-3.56021
2195.87
-52.869
2390
-120.055
2490.01
3401.78
-77.0039
-345.793
-66.128
-417.349
-57.0015
-421.741
-56.3458
-412.257
-55.745
-462.346
-45.6039
-423.187
-27.4708
-279.116
-5.41207
-125.553
2.11288
16.7896
7.29795
284.464
14.1068
429.939
19.504
367.172
26.8114
304.965
35.3229
-7.45427
49.3968
-132.426
68.8782
-216.301
78.5902
-515.879
76.2696
-714.467
70.5916
-732.112
61.5014
-742.239
35.8069
-753.289
-7.95397
-728.4
-68.138
-756.253
-146.785
-741.386
-205.646
-821.837
-207.331
-1140.03
-162.73
-1491.17
-86.8513
-1737.7
-5.18059
-1706.45
31.8835
-1407.81
35.6628
-1173
38.3458
-997.12
34.7726
-849.722
29.6442
-740.127
22.0491
-620.472
7.84081
-518.869
-7.39852
-437.211
-14.891
-262.494
-21.0939
87.2233
-35.8914
255.159
-51.6568
419.325
-61.7923
579.925
-69.1544
632.427
-79.1472
694.138
-91.885
769.698
-107.244
770.006
-125.489
683.908
-146.895
524.7
-170.739
326.299
-195.134
112.11
-217.919
-107.418
-237.811
-336.975
-253.757
-578.814
-264.711
-832.628
-269.831
-1095.05
-268.682
-1360.68
-261.178
-1622.69
-247.549
-1873.97
-227.976
-2109.54
-202.352
-2325.14
-169.685
-2521.1
-128.817
-2692.47
-78.4757
-2831.71
-17.9474
-2925.9
52.5359
-2949.09
129.242
-2853.95
210.389
-2624.81
284.834
-2187.1
339.642
-1541.25
349.067
-682.208
302.603
275.044
222.053
969.085
138.342
1349.86
71.346
1584.37
30.9624
1978.13
-5.63791
2232.47
-52.4046
2436.76
-113.324
2550.93
3377.8
-77.8148
-353.441
-65.7763
-429.388
-54.6088
-432.908
-53.9791
-412.887
-55.8171
-460.508
-46.7572
-432.247
-28.509
-297.364
-5.8017
-148.26
2.1445
8.8434
7.40681
279.202
14.5238
422.822
20.2944
361.401
28.0556
297.204
37.2472
-16.6459
50.8235
-146.002
70.2483
-235.726
79.9529
-525.583
78.0388
-712.553
72.7911
-726.864
63.0938
-732.542
34.2977
-724.493
-13.6826
-680.42
-81.9229
-688.013
-167.875
-655.434
-225.242
-764.47
-220.576
-1144.69
-169.97
-1541.77
-88.7424
-1818.92
1.06253
-1796.26
43.7765
-1450.52
43.7352
-1172.95
42.2305
-995.615
38.2897
-845.781
33.0913
-734.929
25.601
-612.981
10.7051
-503.973
-6.29508
-420.211
-14.6423
-254.147
-20.36
92.941
-34.1716
268.97
-48.7268
433.88
-58.4857
589.684
-66.3468
640.288
-77.4518
705.243
-91.5382
783.784
-108.009
786.476
-127.203
703.102
-149.645
547.142
-174.621
351.276
-200.297
137.786
-224.48
-83.2346
-245.734
-315.721
-262.899
-561.65
-274.851
-820.676
-280.689
-1089.21
-279.962
-1361.41
-272.614
-1630.03
-258.943
-1887.64
-239.207
-2129.28
-213.338
-2351.01
-180.321
-2554.12
-138.993
-2733.8
-88.2039
-2882.5
-27.4463
-2986.66
42.7576
-3019.29
119.367
-2930.56
202.477
-2707.92
282.065
-2266.69
344.73
-1603.91
360.606
-698.084
314.927
320.724
230.202
1053.81
141.414
1438.65
70.6644
1655.12
28.4548
2020.33
-7.74977
2268.68
-51.4492
2480.46
-101.917
2601.4
3348.11
-78.3907
-361.694
-65.1404
-442.638
-51.5908
-446.458
-50.1313
-414.346
-54.5264
-456.113
-47.3668
-439.407
-29.2238
-315.507
-6.43631
-171.047
2.04004
0.367047
7.36932
273.873
14.7779
415.413
20.9116
355.268
29.0974
289.018
38.8874
-26.4359
52.1391
-159.254
71.3334
-254.92
81.1869
-535.437
79.7896
-711.156
75.2102
-722.285
64.7255
-722.057
32.5997
-692.367
-19.87
-627.951
-96.0354
-611.847
-186.839
-564.631
-238.999
-712.31
-225.574
-1158.12
-168.792
-1598.56
-84.5619
-1903.15
8.32742
-1889.15
55.7142
-1497.91
52.9353
-1170.18
45.9451
-988.625
41.4997
-841.336
36.3551
-729.784
29.0043
-605.63
14.0017
-488.971
-4.4444
-401.765
-14.0239
-244.568
-19.1851
98.1021
-31.7716
281.557
-45.0866
447.195
-54.7303
599.327
-63.4529
649.01
-75.8905
717.68
-91.2663
799.16
-108.7
803.911
-128.837
723.238
-152.35
570.655
-178.475
377.401
-205.45
164.76
-231.077
-57.6073
-253.767
-293.031
-272.217
-543.199
-285.225
-807.668
-291.826
-1082.61
-291.55
-1361.68
-284.382
-1637.2
-270.704
-1901.32
-250.874
-2149.11
-224.894
-2376.99
-191.775
-2587.24
-150.426
-2775.15
-99.9458
-2932.98
-40.1579
-3046.45
28.1522
-3087.6
103.271
-3005.68
187.918
-2792.57
273.17
-2351.94
344.817
-1675.56
368.98
-722.247
326.072
363.632
238.016
1141.87
144.192
1532.47
69.7433
1729.56
25.7393
2064.34
-9.93074
2304.35
-50.7255
2521.26
-96.4263
2647.1
3327.93
-78.7889
-370.595
-64.2656
-457.161
-48.245
-462.478
-44.9705
-417.621
-51.6361
-449.447
-47.3364
-443.707
-29.6383
-333.206
-7.05969
-193.626
1.79718
-8.48982
7.17299
268.497
14.8473
407.739
21.3185
348.796
29.8825
280.454
40.3408
-36.8941
53.1568
-172.07
72.1101
-273.874
82.46
-545.787
81.6814
-710.377
77.8288
-718.432
66.2567
-710.485
30.6968
-656.807
-26.2812
-570.973
-109.345
-528.784
-201.136
-472.84
-243.562
-669.883
-219.085
-1182.59
-156.571
-1661.07
-71.9178
-1987.81
17.4727
-1978.54
66.788
-1547.23
62.989
-1166.38
49.7488
-975.385
44.3441
-835.931
39.3698
-724.81
32.4271
-598.688
17.9036
-474.447
-1.76628
-382.095
-12.9595
-233.375
-17.5602
102.703
-28.7232
292.72
-40.7822
459.254
-50.548
609.093
-60.4445
658.907
-74.3532
731.589
-90.9492
815.756
-109.292
822.253
-130.405
744.351
-155.01
595.259
-182.296
404.688
-210.592
193.056
-237.712
-30.4875
-261.913
-268.83
-281.721
-523.391
-295.846
-793.543
-303.254
-1075.2
-303.461
-1361.48
-296.496
-1644.17
-282.85
-1914.96
-263.013
-2168.95
-237.105
-2402.9
-204.23
-2620.11
-163.481
-2815.9
-114.348
-2982.11
-57.034
-3103.76
7.69594
-3152.33
80.3767
-3078.36
166.972
-2879.16
258.887
-2443.86
340.227
-1756.9
373.811
-755.831
335.569
401.873
245.312
1232.12
146.576
1631.21
68.5038
1807.64
22.7842
2110.06
-12.2495
2339.38
-49.8459
2558.85
-88.7552
2686.01
3293.03
-79.0569
-380.219
-63.2152
-473.003
-44.8661
-480.828
-38.7819
-423.705
-46.9665
-441.263
-46.4735
-444.2
-30.0585
-349.621
-7.54436
-216.14
1.41979
-17.454
6.81282
263.104
14.7183
399.834
21.4855
342.029
30.3747
271.565
41.5841
-48.1035
53.6246
-184.11
72.5365
-292.786
83.8556
-557.106
83.7186
-710.24
80.5558
-715.27
67.506
-697.435
28.5691
-617.87
-32.4653
-509.938
-120.283
-440.966
-207.951
-385.171
-235.995
-641.839
-199.281
-1219.31
-132.671
-1727.68
-49.9112
-2070.57
29.7878
-2058.24
76.7647
-1594.2
73.4124
-1163.02
53.9587
-955.931
46.9516
-828.924
42.265
-720.124
36.0441
-592.467
22.4127
-460.816
1.71559
-361.398
-11.3457
-220.313
-15.4924
106.85
-25.0822
302.309
-35.8832
470.055
-45.958
619.168
-57.2834
670.232
-72.7625
747.068
-90.532
833.525
-109.793
841.515
-131.921
766.478
-157.623
620.962
-186.082
433.146
-215.716
222.691
-244.377
-1.82714
-270.173
-243.034
-291.418
-502.146
-306.724
-778.237
-314.986
-1066.94
-315.706
-1360.76
-308.969
-1650.9
-295.403
-1928.53
-275.677
-2188.67
-250.091
-2428.49
-217.947
-2652.26
-178.665
-2855.18
-132.227
-3028.55
-79.0768
-3156.91
-19.2393
-3212.17
51.1912
-3148.79
141.507
-2969.48
241.689
-2544.04
332.736
-1847.94
375.467
-798.562
343.069
434.271
251.883
1323.31
148.462
1734.63
66.855
1889.24
19.5456
2157.37
-14.7115
2373.64
-49.0383
2593.18
-82.8949
2719.87
3270.29
-79.2564
-390.648
-62.0844
-490.175
-41.6675
-501.245
-31.9037
-433.469
-40.4436
-432.723
-44.4403
-440.203
-30.3467
-363.714
-7.92737
-238.559
0.914333
-26.2957
6.29228
257.726
14.3867
391.739
21.3926
335.023
30.5649
262.393
42.2564
-59.795
53.268
-195.122
72.4656
-311.983
85.0993
-569.739
85.6539
-710.794
83.2114
-712.827
68.2692
-682.493
26.2692
-575.87
-37.7227
-445.946
-127.005
-351.684
-204.788
-307.388
-214.681
-631.946
-166.682
-1267.31
-99.1867
-1795.18
-19.9353
-2149.82
46.5343
-2124.71
86.4642
-1634.13
83.7136
-1160.27
58.8183
-931.036
49.5058
-819.612
45.1493
-715.767
39.8564
-587.174
27.3273
-448.287
5.94941
-340.02
-9.04645
-205.317
-12.9967
110.8
-20.9124
310.225
-30.4802
479.623
-40.9991
629.687
-53.9526
683.186
-71.0912
764.207
-90.0137
852.448
-110.23
861.732
-133.395
789.643
-160.191
647.758
-189.829
462.784
-220.816
253.678
-251.068
28.4241
-278.547
-215.555
-301.313
-479.38
-317.867
-761.683
-327.032
-1057.77
-328.293
-1359.5
-321.813
-1657.38
-308.388
-1941.95
-288.934
-2208.13
-264.027
-2453.39
-233.299
-2682.99
-196.645
-2891.84
-154.538
-3070.66
-107.167
-3204.28
-52.5541
-3266.78
17.6479
-3218.99
115.039
-3066.87
225.578
-2654.58
325.57
-1947.94
375.284
-848.276
348.468
461.088
257.506
1414.27
149.743
1842.39
64.6996
1974.29
15.9639
2206.1
-17.3659
2406.97
-48.4009
2624.22
-78.3456
2749.81
3235.98
-79.456
-401.964
-60.9663
-508.665
-38.7246
-523.486
-24.6986
-447.495
-32.1639
-425.257
-40.8588
-431.508
-30.3006
-374.272
-8.29061
-260.569
0.280619
-34.8669
5.62082
252.386
13.8554
383.505
21.0323
327.846
30.4616
252.964
42.2621
-71.5955
52.3918
-205.251
71.7247
-331.316
85.4484
-583.463
86.9493
-712.295
85.5347
-711.413
68.4059
-665.364
23.9865
-531.451
-41.1677
-380.792
-127.726
-265.126
-190.156
-244.958
-180.134
-641.969
-124.399
-1323.04
-60.3901
-1859.19
14.521
-2224.73
68.1472
-2178.33
97.4694
-1663.46
93.6227
-1156.43
64.3743
-901.787
52.0595
-807.297
47.8931
-711.601
43.6789
-582.96
32.4648
-437.073
10.905
-318.46
-6.01113
-188.401
-10.0877
114.876
-16.2704
316.408
-24.6774
488.03
-35.7416
640.751
-50.4713
697.916
-69.3538
783.089
-89.4246
872.519
-110.632
882.939
-134.836
813.847
-162.712
675.633
-193.536
493.608
-225.898
286.04
-257.792
60.3174
-287.036
-186.311
-311.413
-455.002
-329.285
-743.812
-339.4
-1047.66
-341.232
-1357.66
-335.038
-1663.58
-321.841
-1955.15
-302.889
-2227.08
-279.166
-2477.12
-250.798
-2711.35
-218.26
-2924.37
-182.278
-3106.64
-141.819
-3244.74
-91.2116
-3317.39
-17.0781
-3293.12
91.9464
-3175.89
214.988
-2777.62
322.691
-2055.64
375.45
-901.035
352.003
484.534
261.965
1504.31
150.296
1954.06
61.9389
2062.64
11.9723
2256.07
-20.2459
2439.19
-47.8501
2651.82
-70.5809
2772.54
3200.45
-79.7099
-414.241
-59.9242
-528.45
-36.0044
-547.406
-17.5625
-465.936
-22.4114
-420.408
-35.3481
-418.572
-29.6328
-379.987
-8.75432
-281.448
-0.483295
-43.1379
4.81537
247.087
13.1344
375.186
20.4107
320.57
30.1068
243.268
41.7639
-83.2526
51.3471
-214.835
70.2141
-350.183
84.2319
-597.481
87.2474
-715.311
87.3335
-711.499
67.8403
-645.871
21.9953
-485.606
-41.8677
-316.929
-121.126
-185.868
-164.113
-201.97
-135.272
-670.81
-77.2681
-1381.05
-20.7733
-1915.68
49.421
-2294.92
93.6868
-2222.6
111.174
-1680.94
103.191
-1148.44
70.4421
-869.038
54.5083
-791.363
50.2272
-707.32
47.3148
-580.047
37.7218
-427.48
16.5274
-297.266
-2.26576
-169.608
-6.77068
119.381
-11.2
320.837
-18.5766
495.407
-30.2832
652.458
-46.897
714.529
-67.5894
803.782
-88.8071
893.736
-111.025
905.157
-136.25
839.073
-165.185
704.568
-197.199
525.622
-230.969
319.811
-264.555
93.9036
-295.64
-155.226
-321.723
-428.919
-340.986
-724.548
-352.1
-1036.55
-354.529
-1355.24
-348.659
-1669.45
-335.811
-1968
-317.696
-2245.19
-295.869
-2498.94
-271.124
-2736.1
-244.478
-2951.02
-216.295
-3134.83
-182.836
-3278.2
-133.092
-3367.13
-49.2733
-3376.94
76.0165
-3301.18
213.234
-2914.84
327.531
-2169.94
378.455
-951.96
354.246
508.744
265.07
1593.48
149.99
2069.14
58.4776
2154.16
7.49948
2307.05
-23.4115
2470.1
-47.7381
2676.15
-67.3973
2792.2
3173.57
-80.0701
-427.557
-59.0055
-549.515
-33.4439
-572.968
-10.8821
-488.498
-11.6148
-419.676
-27.5824
-402.604
-27.9312
-379.639
-9.50835
-299.871
-1.36884
-51.2774
3.89998
241.818
12.2401
366.845
19.5425
313.268
29.5749
233.235
40.7717
-94.4494
50.0421
-224.105
68.0701
-368.211
81.7442
-611.155