/*--------------------------------*- C++ -*----------------------------------*\
| =========                 |                                                 |
| \\      /  F ield         | OpenFOAM: The Open Source CFD Toolbox           |
|  \\    /   O peration     | Version:  4.1                                   |
|   \\  /    A nd           | Web:      www.OpenFOAM.org                      |
|    \\/     M anipulation  |                                                 |
\*---------------------------------------------------------------------------*/
FoamFile
{
    version     2.0;
    format      ascii;
    class       volSymmTensorField;
    location    "5";
    object      R;
}
// * * * * * * * * * * * * * * * * * * * * * * * * * * * * * * * * * * * * * //

dimensions      [0 2 -2 0 0 0 0];

internalField   nonuniform List<symmTensor> 
6785
(
(0.264517 5.36913e-17 6.23736e-17 0.19151 0.0371371 0.369987)
(0.000124948 3.02766e-22 3.89595e-22 0.000124447 2.32088e-07 0.000125635)
(0.000119511 -1.05055e-23 -7.56006e-24 0.00011952 1.11358e-08 0.000119508)
(0.000119511 5.81828e-24 3.96488e-24 0.000119516 8.60675e-09 0.000119509)
(0.000119526 -9.13186e-24 -2.73893e-24 0.00011953 8.23416e-09 0.000119524)
(0.0001195 3.60104e-24 -9.32305e-25 0.000119503 7.52295e-09 0.000119498)
(0.000119515 8.28823e-25 2.23869e-24 0.000119517 6.91657e-09 0.000119513)
(0.000119526 -5.95522e-24 -2.17897e-24 0.000119528 6.30126e-09 0.000119525)
(0.000119499 1.73263e-24 -2.9692e-25 0.0001195 5.78466e-09 0.000119498)
(0.000119514 1.14119e-24 1.5182e-24 0.000119514 5.4572e-09 0.000119514)
(0.000119524 -3.86563e-24 -7.39696e-25 0.000119523 4.8828e-09 0.000119525)
(0.000119491 1.32288e-24 -4.54235e-25 0.000119488 3.67736e-09 0.000119492)
(0.000119767 3.55436e-25 1.20666e-24 0.00011976 -4.30052e-09 0.00011977)
(0.000360561 -8.93351e-24 -1.91008e-21 0.000329703 -3.71031e-05 0.00036552)
(0.398568 -1.11337e-19 -7.99505e-18 0.267732 -0.150643 0.425586)
(0.329881 6.20832e-17 1.57405e-16 0.134065 -0.00338751 0.584472)
(0.000607624 4.28264e-20 1.52923e-19 0.000360688 -1.50163e-05 0.000894775)
(2.07146e-07 -1.39233e-25 -8.23726e-26 2.07284e-07 4.86512e-11 2.07086e-07)
(1.93741e-07 4.892e-26 4.98878e-26 1.93765e-07 -2.05123e-12 1.93669e-07)
(1.8459e-07 -6.55854e-26 -3.47048e-26 1.84638e-07 8.38117e-12 1.8453e-07)
(1.75244e-07 2.12734e-26 7.23983e-27 1.75282e-07 4.12682e-12 1.7519e-07)
(1.66326e-07 -9.77219e-27 2.94335e-26 1.66362e-07 2.74849e-12 1.66279e-07)
(1.57506e-07 -3.00622e-26 -1.53693e-26 1.57538e-07 8.56977e-13 1.57465e-07)
(1.48566e-07 1.07509e-26 3.68241e-27 1.48594e-07 -3.76435e-13 1.48531e-07)
(1.39717e-07 -7.4004e-27 1.27441e-26 1.39742e-07 -2.30828e-13 1.39688e-07)
(1.31615e-07 -1.71381e-26 -8.24678e-27 1.31634e-07 -1.70494e-11 1.31587e-07)
(2.905e-07 -1.10092e-25 -2.79114e-25 2.86579e-07 -2.20787e-08 2.87859e-07)
(0.000102783 -1.43725e-22 -3.2195e-22 9.82206e-05 -2.4726e-05 0.000100125)
(0.00544485 -1.28454e-20 -3.72334e-20 0.0050051 -0.00185259 0.00530785)
(0.143413 3.04129e-19 -1.50255e-18 0.0957458 -0.0573242 0.142924)
(0.399876 5.01013e-17 2.01849e-16 0.127863 -0.0674496 0.761782)
(0.00381921 -4.47338e-19 1.08527e-19 0.00147576 -0.000758236 0.0061961)
(7.80643e-09 -3.81712e-25 -9.71267e-26 5.82711e-09 -6.86339e-10 9.84323e-09)
(2.97788e-09 1.04545e-26 -6.99171e-27 2.98125e-09 -4.95766e-12 2.96968e-09)
(1.42252e-08 -1.70746e-25 -9.6052e-26 1.44313e-08 -5.20723e-11 1.40902e-08)
(3.05499e-08 3.13987e-25 3.75499e-26 3.14168e-08 -5.48612e-10 2.99484e-08)
(8.83384e-08 7.81888e-25 -4.44557e-24 1.03972e-07 -1.3158e-08 8.39428e-08)
(8.71458e-07 2.71191e-24 -5.0414e-23 1.29064e-06 -3.76654e-07 7.86123e-07)
(1.00881e-05 1.86099e-22 -7.53224e-22 1.6575e-05 -5.91374e-06 8.89208e-06)
(6.10071e-05 3.91143e-22 -5.73089e-21 0.000106373 -4.18684e-05 5.32153e-05)
(0.000225773 -2.53542e-21 -2.69697e-21 0.000410849 -0.000172841 0.000194492)
(0.000758831 2.31202e-20 -6.94802e-21 0.00143246 -0.000638761 0.000639366)
(0.00227532 -1.25925e-19 -1.57157e-20 0.00429504 -0.00205915 0.00181251)
(0.00374276 -4.08411e-19 1.97758e-19 0.0052052 -0.00318542 0.00244222)
(0.00808865 1.69947e-18 2.1704e-18 0.00554408 -0.00142829 0.0148261)
(0.497109 3.26319e-17 2.80889e-16 0.155821 -0.139024 0.956865)
(0.0178075 -7.85739e-19 -6.77721e-18 0.00656805 -0.00518447 0.0294083)
(3.10037e-05 -8.65873e-21 -4.50872e-21 3.49174e-05 -1.60654e-06 3.18291e-05)
(7.3036e-08 3.2176e-23 4.82643e-24 7.71749e-08 -5.95222e-08 4.83208e-08)
(2.14116e-08 -2.61079e-24 -5.36436e-24 2.66545e-08 -1.94846e-09 1.91698e-08)
(3.38238e-08 1.93077e-24 3.65284e-24 3.92397e-08 -5.16196e-09 2.92922e-08)
(1.13259e-07 -1.5233e-23 -4.14873e-24 1.47786e-07 -2.56505e-08 9.7628e-08)
(5.22876e-07 -2.16524e-23 -8.41479e-23 7.35611e-07 -1.87082e-07 4.56934e-07)
(4.69115e-06 1.56942e-22 -6.10922e-23 7.36968e-06 -2.43252e-06 4.09838e-06)
(3.42693e-05 -1.4413e-22 -2.56751e-21 5.83341e-05 -2.24528e-05 2.99852e-05)
(0.000116981 -2.96907e-22 -9.42247e-21 0.000205562 -8.30189e-05 0.000101862)
(0.000365565 1.1193e-20 -1.44468e-21 0.000680254 -0.000286244 0.000306876)
(0.00102829 5.88648e-20 -5.74926e-21 0.00202488 -0.0007959 0.000818035)
(0.00157161 -1.67711e-18 3.0676e-20 0.00529425 -0.00292665 1e-15)
(0.00221726 2.66673e-18 2.33252e-18 0.00611363 0.00254131 0.00408794)
(0.591569 1.83094e-17 3.21754e-16 0.19416 -0.203067 1.12645)
(0.0443822 -2.7823e-18 -1.79689e-17 0.0175272 -0.0150155 0.0739659)
(0.00259206 -6.54506e-19 -1.58641e-18 0.00152746 -0.000721769 0.00376509)
(0.000230719 -3.53247e-20 -1.27586e-19 0.000137605 -8.36084e-05 0.000301781)
(3.11398e-05 -6.38051e-21 -2.35414e-20 2.30734e-05 -1.18446e-05 3.75891e-05)
(5.21675e-06 -5.00325e-22 -3.64101e-21 4.28477e-06 -2.3313e-06 5.89263e-06)
(1.41994e-06 -1.53455e-22 -6.99463e-22 1.6803e-06 -8.20338e-07 1.56046e-06)
(1.61117e-06 -6.53623e-22 -3.42634e-22 2.65924e-06 -1.19187e-06 1.79075e-06)
(5.55068e-06 7.27034e-22 -1.09974e-21 9.47128e-06 -3.88128e-06 5.54111e-06)
(2.45999e-05 2.11558e-21 -2.74537e-21 4.23607e-05 -1.68974e-05 2.25593e-05)
(8.17728e-05 -4.17219e-21 -1.1966e-20 0.000145444 -6.04793e-05 7.72078e-05)
(0.000244558 -3.02741e-21 -2.39137e-20 0.000473032 -0.000203689 0.000208692)
(0.000842524 -4.62099e-20 -2.72505e-20 0.00169472 -0.000655281 0.000774385)
(0.00191458 -1.39088e-18 1.71773e-19 0.00462213 -0.00228546 0.000923463)
(0.00223339 -1.16237e-19 3.2642e-19 0.00502598 -0.00227691 0.00117767)
(0.681989 7.87563e-18 3.83229e-16 0.234225 -0.255968 1.277)
(0.0566291 -1.42219e-17 -1.73343e-17 0.0249281 -0.0197284 0.0922939)
(0.00468567 -2.49914e-18 -1.69034e-18 0.00312236 -0.0013846 0.00648833)
(0.000485946 -1.81055e-19 -1.58328e-19 0.000328259 -0.000178426 0.000608549)
(8.1773e-05 -3.81378e-20 -2.78746e-20 7.13875e-05 -3.3283e-05 9.51362e-05)
(1.76223e-05 -6.21646e-21 -3.54821e-21 1.8342e-05 -1.02067e-05 2.06244e-05)
(2.56228e-05 -1.59877e-20 8.21336e-21 5.32011e-05 -3.04206e-05 3.86645e-05)
(5.15938e-05 -5.1106e-20 3.91046e-20 0.000109986 -6.77163e-05 8.4462e-05)
(0.000102267 -6.64156e-21 3.9485e-20 0.000214147 -0.000131699 0.000165951)
(0.000145934 -1.96355e-20 4.26368e-21 0.000295162 -0.00017358 0.000221656)
(0.00019679 -6.15766e-20 2.17702e-20 0.000391813 -0.000212736 0.000269504)
(0.000307047 -4.10844e-20 4.43732e-20 0.000611151 -0.000289443 0.000328302)
(0.000845177 -7.99465e-20 5.53723e-20 0.00169861 -0.000667797 0.000847862)
(0.0021671 -4.71887e-19 2.03695e-19 0.00475183 -0.00221022 0.00167624)
(0.00369462 -2.0796e-19 -5.67265e-20 0.00725778 -0.00380615 0.00273198)
(0.767554 -1.18355e-18 4.4838e-16 0.270628 -0.298516 1.4158)
(0.0514134 -2.36626e-17 -2.01725e-17 0.0253581 -0.0175168 0.0799237)
(0.00418412 -3.15766e-18 -1.28078e-18 0.00320885 -0.00124463 0.00541509)
(0.00045162 -1.9463e-19 -1.12571e-19 0.000336327 -0.000173843 0.000535883)
(0.000158303 -9.70567e-20 8.9974e-21 0.000254749 -0.000105905 0.000185411)
(0.000169968 -5.21715e-20 9.16408e-20 0.00029251 -0.000218275 0.000276112)
(0.000820831 -6.37327e-19 3.59587e-19 0.00174604 -0.00105025 0.00121547)
(0.00159726 2.21797e-20 -1.34166e-19 0.00305071 -0.00213434 0.00259799)
(0.00244091 -8.18213e-19 1.15073e-18 0.00464669 -0.00317641 0.00412063)
(0.00168264 -5.34806e-19 4.77544e-19 0.00311006 -0.00214581 0.00290739)
(0.00101048 2.45459e-20 2.70393e-19 0.00183977 -0.0012082 0.00168964)
(0.00071683 -2.84584e-19 2.83758e-19 0.00130015 -0.000761986 0.00104671)
(0.000879922 -8.39236e-19 2.60681e-19 0.00167196 -0.000736209 0.000986562)
(0.00238788 1.22021e-18 -3.66259e-19 0.00514298 -0.0022143 0.00205165)
(0.00710088 -7.54973e-19 -4.50752e-20 0.0126885 -0.00770307 0.00626998)
(0.84286 -1.38762e-17 4.65112e-16 0.30039 -0.330935 1.54039)
(0.0465442 -2.88424e-17 -2.25932e-17 0.0243841 -0.0154253 0.0687346)
(0.00312319 -2.74996e-18 -9.93494e-19 0.00282471 -0.000954533 0.00372495)
(0.000499852 -1.82566e-19 -7.22776e-20 0.000614592 -0.000333165 0.000597175)
(0.00091185 -4.49821e-19 1.68622e-19 0.00209764 -0.00102623 0.00115181)
(0.00231682 -6.98887e-19 2.89952e-19 0.00504584 -0.00308619 0.00314203)
(0.00611215 -1.94641e-18 1.11328e-18 0.0138788 -0.0074968 0.00839786)
(0.010578 -9.1778e-19 8.22219e-19 0.0225386 -0.0132326 0.0155152)
(0.0124302 -2.96497e-18 2.21062e-18 0.0255701 -0.0154679 0.0188863)
(0.00599187 -1.30493e-18 1.33607e-18 0.0105323 -0.00741407 0.0101911)
(0.00344241 -2.37963e-19 1.00089e-18 0.00388755 -0.00359719 0.00756635)
(0.00534022 -5.30759e-19 -1.23617e-18 0.00415377 -0.00415219 0.0132973)
(0.00600321 -2.41368e-18 -3.07141e-18 0.00116212 -0.0050918 0.0125736)
(0.00465674 4.70576e-18 -1.8554e-18 0.00772922 -0.00399442 0.00559065)
(0.0161653 -5.23403e-19 2.67265e-19 0.0259201 -0.0179846 0.0160087)
(0.93571 -1.67965e-17 4.93194e-16 0.336043 -0.368016 1.6981)
(0.0500544 -4.28346e-17 -3.65408e-17 0.0257708 -0.0158248 0.0694842)
(0.00277384 -2.91511e-18 -8.61311e-19 0.00321767 -0.00105097 0.00305365)
(0.000909716 -2.42901e-19 8.89054e-21 0.00165696 -0.000832813 0.00109656)
(0.00240061 -1.07504e-18 2.54378e-19 0.00530617 -0.00238175 0.00289878)
(0.00538439 -1.0104e-18 -2.26776e-19 0.0110739 -0.00545649 0.00665569)
(0.0114566 -2.0891e-18 1.03543e-18 0.0235163 -0.0107231 0.0140487)
(0.0185725 -2.06439e-18 6.94978e-19 0.0370991 -0.0179862 0.0236378)
(0.0228125 -1.3218e-18 -5.39274e-19 0.0449409 -0.0225461 0.0303403)
(0.0175473 3.49082e-19 4.82684e-19 0.0298596 -0.0174832 0.0270836)
(0.0141213 4.98234e-20 5.86016e-20 0.0150846 -0.0112653 0.0280774)
(0.0165459 6.67164e-19 -6.74492e-19 0.0124744 -0.0106098 0.0376481)
(0.0196847 -2.62442e-19 5.14899e-19 0.0140528 -0.0129435 0.0454116)
(0.0168024 2.43466e-18 7.37806e-20 0.0183231 -0.0131542 0.0304634)
(0.0265087 -9.51871e-19 1.01505e-19 0.0378107 -0.029333 0.0282114)
(0.999122 -7.40831e-18 4.74096e-16 0.363174 -0.392646 1.79239)
(0.115173 -6.19592e-17 -8.16508e-17 0.0509576 -0.0369444 0.180727)
(0.00511385 -1.12816e-17 -4.67767e-19 0.00784198 -0.00302113 0.00467378)
(0.00126085 -1.94239e-19 -1.66303e-19 0.00242466 -0.00121618 0.00154466)
(0.00309186 -1.35618e-18 3.24237e-19 0.00667447 -0.00284223 0.00364761)
(0.00594364 -9.43567e-19 -3.47542e-19 0.0116965 -0.00540164 0.00707131)
(0.0112072 -1.22903e-18 -5.98605e-19 0.0218949 -0.00903596 0.0129012)
(0.0175781 -1.33749e-18 2.87559e-19 0.033865 -0.0148229 0.0205823)
(0.0252704 1.64411e-19 -1.16735e-18 0.0495748 -0.0220355 0.0300677)
(0.0276597 1.82654e-18 -2.02889e-18 0.0516265 -0.0246435 0.0347393)
(0.0288879 -2.3526e-19 -8.26017e-19 0.0484779 -0.0253461 0.0399332)
(0.0291845 -5.35317e-18 -5.38774e-19 0.0403308 -0.0245152 0.0463431)
(0.0280785 -7.43702e-18 5.96962e-19 0.0278882 -0.0222972 0.0520482)
(0.0269176 -1.90588e-19 1.63763e-18 0.023916 -0.0215974 0.0489822)
(0.0275491 6.85467e-19 2.87914e-19 0.0328444 -0.0283855 0.0320234)
(1.01105 -1.88717e-17 4.48937e-16 0.373506 -0.394928 1.78045)
(0.225829 -9.23474e-17 -1.35954e-16 0.0984769 -0.0748972 0.403157)
(0.0280419 -3.18364e-17 -2.57201e-17 0.024724 -0.0124541 0.0377027)
(0.0051678 -5.03035e-18 -1.74531e-19 0.00700178 -0.00405158 0.00694022)
(0.00377645 -2.34428e-18 1.12927e-18 0.00770821 -0.00340761 0.00459423)
(0.00549947 -3.84717e-20 -1.81413e-18 0.0105858 -0.00497104 0.00660471)
(0.00933186 -1.43033e-18 -6.86453e-19 0.0176551 -0.00709201 0.0106061)
(0.0134533 -1.50569e-18 1.48269e-18 0.0248716 -0.010376 0.0152693)
(0.0189926 1.97459e-18 -3.28285e-18 0.0359226 -0.0147479 0.0213704)
(0.0231965 6.39134e-19 -9.00851e-19 0.0437797 -0.0185146 0.0263419)
(0.0259947 2.47222e-18 3.03749e-19 0.0489648 -0.0211 0.0298739)
(0.0254826 4.33498e-19 -2.58205e-18 0.0471268 -0.0201127 0.0293352)
(0.0237035 -5.59065e-18 2.5188e-18 0.0398368 -0.0201466 0.0284915)
(0.0197956 -8.09983e-18 8.21871e-18 0.0127403 -0.0202414 0.0313135)
(0.0166557 8.94666e-18 1.14604e-17 1e-15 -0.00497618 0.036564)
(0.970939 -9.07e-18 4.27228e-16 0.364307 -0.374835 1.67176)
(0.381134 -1.07978e-16 -2.43989e-16 0.170498 -0.128294 0.765611)
(0.0678691 -6.63036e-17 -6.18273e-17 0.0518063 -0.0274314 0.104302)
(0.0163931 -1.98335e-17 -3.0159e-18 0.0192391 -0.0115069 0.0222251)
(0.00684587 -6.50027e-18 2.00629e-18 0.01199 -0.00601203 0.00877842)
(0.00594434 -5.89218e-19 -1.38805e-18 0.0111145 -0.00547655 0.00738664)
(0.00848613 -1.28135e-18 -4.35599e-19 0.0159109 -0.00675102 0.00988843)
(0.0115288 -2.572e-18 2.07951e-18 0.0211085 -0.00900777 0.0132375)
(0.0152523 4.20794e-19 -1.75785e-18 0.0281303 -0.0116204 0.0171575)
(0.0187235 1.70348e-19 -6.98372e-19 0.0347279 -0.0144212 0.0209085)
(0.0203968 1.12988e-18 -2.50967e-19 0.0380873 -0.0156908 0.022498)
(0.0186049 1.02087e-18 -1.64906e-18 0.0345295 -0.0137176 0.0199531)
(0.0165537 -1.03462e-18 6.9417e-19 0.031265 -0.0120516 0.0170512)
(0.0177221 -6.94097e-18 3.45866e-18 0.0337218 -0.0181469 0.0170888)
(0.0115602 1.29606e-17 4.86898e-18 0.0231177 -0.000279081 0.011309)
(0.905352 1.21236e-17 3.76668e-16 0.344211 -0.34434 1.52814)
(0.585114 -3.03323e-17 -4.32776e-16 0.275978 -0.190253 1.2748)
(0.124125 -1.13547e-16 -9.77459e-17 0.0896993 -0.0471359 0.20912)
(0.0358042 -4.00206e-17 -1.20977e-17 0.0397857 -0.0221832 0.0504705)
(0.0151333 -1.57343e-17 2.29655e-18 0.0233855 -0.0126073 0.0202567)
(0.00938228 -4.68805e-18 4.75184e-19 0.0165589 -0.00884006 0.0124149)
(0.00945906 -1.3013e-18 -5.45516e-19 0.0176762 -0.00833259 0.011706)
(0.0111038 -3.07366e-18 2.95777e-18 0.0205451 -0.00922774 0.0131728)
(0.0139521 -1.59276e-18 -5.19091e-19 0.0259565 -0.011221 0.0160437)
(0.0169158 -5.49402e-20 -5.04865e-19 0.0316406 -0.0134614 0.0190706)
(0.0181529 -1.20283e-19 3.93343e-19 0.0340971 -0.0141193 0.0199721)
(0.0164943 -7.48453e-20 -4.68547e-19 0.0307959 -0.0123397 0.0175792)
(0.0146068 6.55632e-19 1.01751e-19 0.0277021 -0.0105924 0.0150139)
(0.0166187 -5.75515e-18 3.0729e-18 0.0314186 -0.015231 0.0172375)
(0.0144963 -2.97378e-18 2.11803e-18 0.023327 -0.0110487 0.0138942)
(0.818862 1.00288e-17 3.21944e-16 0.316159 -0.307166 1.35383)
(0.824621 1.75639e-17 -5.42586e-16 0.399032 -0.238923 1.87723)
(0.204079 -1.60304e-16 -2.26862e-16 0.140602 -0.0697988 0.371322)
(0.0705254 -9.21426e-17 -4.4456e-17 0.0796113 -0.0438018 0.0996412)
(0.0244517 -2.38338e-17 -2.83794e-18 0.0351635 -0.017801 0.0318511)
(0.0106249 -5.61565e-18 6.65033e-19 0.0172801 -0.00859452 0.013522)
(0.00925369 -1.58647e-18 5.04263e-19 0.0165467 -0.0078025 0.0112938)
(0.0107318 -1.92832e-18 1.51664e-18 0.0190542 -0.00902743 0.0123651)
(0.0127798 -2.38107e-18 3.78914e-19 0.0230918 -0.0103222 0.0149623)
(0.0154361 -3.06298e-18 1.37078e-18 0.0280558 -0.0124092 0.01795)
(0.0163642 -3.77427e-18 2.66297e-19 0.0299242 -0.0128342 0.0185514)
(0.0150357 -3.21469e-18 1.48151e-19 0.0275714 -0.011437 0.0164472)
(0.0131848 -1.43901e-18 9.27381e-20 0.0245735 -0.00948967 0.013781)
(0.0157996 -5.59791e-18 1.12937e-18 0.0298745 -0.0132886 0.0165638)
(0.017506 2.07597e-18 -7.35878e-21 0.0277086 -0.0144129 0.0167927)
(0.776285 5.13866e-18 2.84766e-16 0.312521 -0.290715 1.28295)
(1.53052 7.43287e-17 5.91162e-17 0.838059 -0.587522 3.55629)
(0.569599 -1.25443e-16 -1.68386e-16 0.375061 -0.216599 1.16165)
(0.272652 -1.46028e-16 -1.10357e-16 0.224992 -0.126975 0.485459)
(0.156755 -1.08162e-16 -4.87898e-17 0.162136 -0.0901472 0.249395)
(0.0998658 -7.79961e-17 -5.13285e-18 0.123479 -0.071452 0.13937)
(0.0719175 -4.74253e-17 8.98397e-18 0.101813 -0.0684304 0.0754675)
(0.0633686 -3.09577e-17 7.91702e-18 0.0954111 -0.0744363 0.046478)
(0.0527202 -2.07863e-17 7.53559e-18 0.0870139 -0.0609772 0.0418512)
(0.0423675 -1.12758e-17 5.47282e-18 0.0782893 -0.046326 0.0378404)
(0.0334373 3.41224e-18 1.34293e-18 0.0655161 -0.033161 0.0314165)
(0.0246746 1.15253e-17 2.40407e-18 0.0488917 -0.0213274 0.0232416)
(0.0177802 5.87673e-18 3.72143e-18 0.0349014 -0.0131893 0.0166025)
(0.0192223 -7.76708e-18 7.40379e-18 0.0388197 -0.0147732 0.0186451)
(0.0217579 -1.23253e-17 6.23639e-18 0.0356571 -0.0186021 0.0204899)
(0.727311 -1.44839e-18 6.66534e-16 0.52133 -0.00207424 0.720513)
(0.794259 -9.34021e-18 1.1546e-15 0.605415 -0.0130553 0.812578)
(0.760769 -2.89977e-17 7.49479e-16 0.592213 -0.0196325 0.725744)
(0.75812 -4.16595e-17 7.39069e-16 0.597567 -0.0269771 0.710787)
(0.761536 -5.31434e-17 7.47246e-16 0.606589 -0.033319 0.709644)
(0.798931 -1.1131e-16 1.20003e-15 0.64679 -0.0569057 0.774429)
(0.76652 -1.3711e-16 8.03509e-16 0.62602 -0.0461313 0.704391)
(0.76299 -1.53963e-16 7.84181e-16 0.627907 -0.0491827 0.691444)
(0.765046 -1.70733e-16 7.81468e-16 0.633736 -0.052038 0.690446)
(0.798796 -2.61645e-16 1.23928e-15 0.667996 -0.0842556 0.752751)
(0.771091 -1.76319e-16 8.03887e-16 0.651311 -0.0618565 0.688303)
(0.768236 -1.67336e-16 7.8064e-16 0.652142 -0.0642818 0.679735)
(0.791936 -2.39546e-16 1.21245e-15 0.677745 -0.105278 0.725671)
(0.757797 -1.95683e-16 8.07645e-16 0.649763 -0.0802848 0.663793)
(0.750012 -2.01582e-16 7.79796e-16 0.645723 -0.0806103 0.648686)
(0.746567 -2.01482e-16 7.64956e-16 0.645193 -0.0808093 0.642401)
(0.768116 -3.01121e-16 1.20372e-15 0.66815 -0.124641 0.688589)
(0.738098 -1.99854e-16 7.75602e-16 0.647427 -0.0882703 0.625493)
(0.73116 -1.83484e-16 7.25866e-16 0.644826 -0.0878018 0.610552)
(0.745214 -2.50188e-16 1.06813e-15 0.665418 -0.135759 0.635601)
(0.710117 -1.58182e-16 6.82645e-16 0.636031 -0.100327 0.574655)
(0.699142 -1.4788e-16 6.37492e-16 0.62936 -0.0976727 0.555226)
(0.691106 -1.36701e-16 5.98789e-16 0.625382 -0.0951715 0.541204)
(0.702019 -1.90831e-16 8.97101e-16 0.643384 -0.140094 0.562837)
(0.668314 -1.18959e-16 5.78294e-16 0.615298 -0.0970128 0.505716)
(0.657285 -1.07401e-16 5.3906e-16 0.607849 -0.0937567 0.488585)
(0.648857 -9.97718e-17 5.05488e-16 0.602907 -0.0899616 0.475787)
(0.658448 -1.55622e-16 7.5032e-16 0.620216 -0.132755 0.495298)
(0.627214 -1.07132e-16 4.87756e-16 0.592816 -0.0893885 0.446251)
(0.618018 -1.08138e-16 4.57002e-16 0.586797 -0.0854405 0.433228)
(0.62626 -1.76965e-16 6.6868e-16 0.605224 -0.127978 0.448107)
(0.593215 -1.30862e-16 4.37748e-16 0.574362 -0.0859735 0.399803)
(0.582683 -1.29093e-16 4.09605e-16 0.566903 -0.0826415 0.38614)
(0.574338 -1.23381e-16 3.82567e-16 0.561682 -0.0789689 0.375906)
(0.584016 -1.80619e-16 5.57998e-16 0.583235 -0.119891 0.392146)
(0.551519 -1.2217e-16 3.55432e-16 0.550522 -0.077146 0.350244)
(0.541932 -1.16311e-16 3.30058e-16 0.543626 -0.0730399 0.33912)
(0.549558 -1.61615e-16 4.74255e-16 0.565622 -0.111046 0.349808)
(0.514247 -1.15871e-16 3.02306e-16 0.528146 -0.0685098 0.306438)
(0.502934 -1.16637e-16 2.8192e-16 0.518958 -0.0647462 0.294688)
(0.493318 -1.07214e-16 2.60243e-16 0.511405 -0.0614275 0.286023)
(0.501161 -1.28575e-16 3.6923e-16 0.534811 -0.0964486 0.297942)
(0.463912 -8.84532e-17 2.28808e-16 0.490701 -0.057415 0.26117)
(0.452609 -8.01424e-17 2.10214e-16 0.480714 -0.0534888 0.251331)
(0.443219 -7.09301e-17 1.92913e-16 0.473285 -0.0502311 0.243368)
(0.45209 -6.44417e-17 2.6848e-16 0.500662 -0.0807985 0.254069)
(0.414436 -5.11824e-17 1.65804e-16 0.453138 -0.0449739 0.220223)
(0.404105 -4.55044e-17 1.51999e-16 0.444219 -0.0412181 0.211798)
(0.411767 -1.39893e-17 1.97238e-16 0.473415 -0.0678695 0.220216)
(0.372857 -2.70065e-17 1.21402e-16 0.420617 -0.0347408 0.187869)
(0.362562 -1.73224e-17 1.08829e-16 0.411449 -0.0319316 0.180481)
(0.353844 -7.30777e-18 9.72663e-17 0.404531 -0.0298428 0.174327)
(0.364985 8.9888e-17 9.57671e-17 0.441756 -0.0601762 0.189801)
(0.328004 2.35289e-17 7.03838e-17 0.387358 -0.0276484 0.15941)
(0.319383 3.1877e-17 5.9832e-17 0.380171 -0.0261301 0.154785)
(0.311961 4.13385e-17 4.98557e-17 0.374933 -0.0250198 0.150977)
(0.32406 2.05958e-16 -1.15921e-17 0.415649 -0.063863 0.177965)
(0.286419 7.12377e-17 2.6041e-17 0.357559 -0.0238244 0.141061)
(0.277223 6.1508e-17 2.56146e-17 0.349548 -0.0219915 0.136439)
(0.27841 1.71474e-16 -2.51566e-17 0.37337 -0.0561765 0.158039)
(0.240975 4.34776e-17 1.76758e-17 0.313067 -0.0226764 0.125973)
(0.228671 3.54875e-17 2.0091e-17 0.298493 -0.0241132 0.123315)
(0.216291 2.86885e-17 2.33642e-17 0.284207 -0.0256175 0.120573)
(0.20045 7.75613e-17 3.53822e-17 0.274604 -0.0556297 0.129152)
(0.170691 1.64436e-17 4.44174e-17 0.22842 -0.0325099 0.113835)
(0.157411 -9.38367e-19 6.11784e-17 0.211214 -0.0349756 0.111747)
(0.136571 -2.91548e-17 1.04833e-16 0.186394 -0.0549981 0.110882)
(0.122994 -4.43454e-17 1.22838e-16 0.167684 -0.0409307 0.106893)
(0.116719 -5.65065e-17 1.27741e-16 0.159713 -0.0452725 0.106282)
(0.110734 -7.11263e-17 1.28152e-16 0.151928 -0.0474342 0.106192)
(0.103631 -1.0042e-16 1.23537e-16 0.14298 -0.0600623 0.105536)
(0.0995075 -8.84803e-17 1.27682e-16 0.136969 -0.0476277 0.105449)
(0.0966184 -8.38162e-17 1.13186e-16 0.132117 -0.0529223 0.107978)
(0.0938983 -7.82165e-17 1.0257e-16 0.128191 -0.0549647 0.108803)
(0.091029 -8.35073e-17 9.16984e-17 0.12425 -0.0627602 0.108129)
(0.0883128 -6.9552e-17 9.00345e-17 0.119457 -0.0522954 0.109626)
(0.0869294 -7.14019e-17 8.62083e-17 0.117724 -0.0560406 0.10925)
(0.0852643 -7.66661e-17 8.17399e-17 0.115493 -0.0616872 0.107943)
(0.0830128 -6.93009e-17 8.23265e-17 0.111359 -0.0528806 0.109167)
(0.0819698 -7.14647e-17 7.96033e-17 0.110057 -0.0561511 0.10866)
(0.0807414 -7.1703e-17 7.85153e-17 0.108538 -0.0551214 0.107178)
(0.0800517 -8.04529e-17 8.11351e-17 0.107289 -0.0534054 0.105357)
(0.0812889 -9.07525e-17 8.5271e-17 0.10955 -0.0545009 0.107672)
(0.0808455 -1.0259e-16 8.87051e-17 0.107524 -0.052968 0.106729)
(0.0802719 -1.15322e-16 9.19006e-17 0.102327 -0.0510456 0.110619)
(0.0806463 -1.16592e-16 8.99231e-17 0.102806 -0.050565 0.110753)
(0.0803538 -1.20215e-16 8.81178e-17 0.10215 -0.0489663 0.108971)
(0.0810324 -1.23621e-16 8.70468e-17 0.102917 -0.0487114 0.109462)
(0.0817625 -1.26851e-16 8.59707e-17 0.103444 -0.0485838 0.110304)
(0.0825966 -1.2966e-16 8.45326e-17 0.103999 -0.0485165 0.111391)
(0.0835525 -1.32569e-16 8.28034e-17 0.104733 -0.0484137 0.112617)
(0.0845393 -1.35957e-16 8.06561e-17 0.105461 -0.0480389 0.113712)
(0.0855464 -1.4215e-16 7.89141e-17 0.105413 -0.047252 0.11479)
(0.0869549 -1.41601e-16 7.7123e-17 0.103186 -0.0466353 0.120902)
(0.0884933 -1.39149e-16 7.30335e-17 0.10456 -0.0471721 0.123365)
(0.0895447 -1.34817e-16 6.66741e-17 0.105291 -0.0467884 0.124428)
(0.0906875 -1.28756e-16 5.92674e-17 0.106094 -0.046263 0.12555)
(0.0917107 -1.21576e-16 5.13797e-17 0.106405 -0.0452943 0.126504)
(0.09308 -1.1234e-16 4.32377e-17 0.107043 -0.0446143 0.128255)
(0.0947228 -1.02482e-16 3.56314e-17 0.107791 -0.0441902 0.130715)
(0.0966619 -9.32126e-17 2.88572e-17 0.108793 -0.0439268 0.133793)
(0.0988577 -8.83281e-17 2.37215e-17 0.109408 -0.0434736 0.137446)
(0.102464 -7.56213e-17 2.25763e-17 0.109943 -0.043877 0.146682)
(0.104794 -7.11378e-17 1.90577e-17 0.11133 -0.0444481 0.150985)
(0.106766 -6.49107e-17 1.43449e-17 0.111948 -0.0443037 0.154401)
(0.109197 -6.05504e-17 1.0906e-17 0.113138 -0.0445728 0.158767)
(0.111765 -5.68291e-17 7.77874e-18 0.114284 -0.0446715 0.163331)
(0.114419 -5.36464e-17 4.90279e-18 0.11526 -0.0444259 0.168077)
(0.117316 -5.04664e-17 2.20828e-18 0.116281 -0.0440036 0.173476)
(0.120652 -4.75657e-17 -1.83051e-19 0.117595 -0.0437899 0.179852)
(0.124324 -4.49783e-17 -2.35629e-18 0.118833 -0.0436101 0.187074)
(0.128774 -4.35791e-17 -4.24579e-18 0.120668 -0.0434838 0.195826)
(0.139716 -4.06042e-17 -9.46769e-18 0.128169 -0.0481841 0.218435)
(0.144266 -4.02485e-17 -1.06556e-17 0.130776 -0.0493248 0.227854)
(0.148747 -3.92237e-17 -1.23143e-17 0.132849 -0.0498891 0.237113)
(0.153764 -3.89886e-17 -1.36205e-17 0.135327 -0.0506957 0.247579)
(0.15918 -3.90377e-17 -1.49184e-17 0.138055 -0.0513564 0.258858)
(0.164926 -3.99006e-17 -1.61286e-17 0.140846 -0.051587 0.270832)
(0.170924 -4.09208e-17 -1.72305e-17 0.143468 -0.0513704 0.283865)
(0.177431 -4.15337e-17 -1.82146e-17 0.146213 -0.051481 0.29858)
(0.185347 -4.20331e-17 -1.91948e-17 0.150583 -0.0520521 0.316246)
(0.1994 -4.47975e-17 -2.19267e-17 0.160551 -0.0581493 0.345743)
(0.206331 -4.61753e-17 -2.23426e-17 0.164231 -0.0590736 0.361475)
(0.213214 -4.70333e-17 -2.31218e-17 0.167367 -0.0593405 0.377126)
(0.220756 -4.73791e-17 -2.38718e-17 0.171049 -0.0601962 0.39416)
(0.229 -4.75314e-17 -2.46703e-17 0.175161 -0.0612894 0.412937)
(0.237753 -4.76401e-17 -2.55732e-17 0.179228 -0.062075 0.433059)
(0.24745 -4.73697e-17 -2.66926e-17 0.184031 -0.0627197 0.455344)
(0.257407 -4.60801e-17 -2.82377e-17 0.187492 -0.0623604 0.479089)
(0.269053 -4.3505e-17 -2.89776e-17 0.193926 -0.0630614 0.50539)
(0.285027 -5.27584e-17 -1.97108e-17 0.204847 -0.0690819 0.535744)
(0.294924 -5.19764e-17 -1.95271e-17 0.208821 -0.0697143 0.558794)
(0.306281 -5.01811e-17 -1.97478e-17 0.214595 -0.0709278 0.584975)
(0.317847 -4.81695e-17 -1.99991e-17 0.219431 -0.0710579 0.611901)
(0.329387 -4.53604e-17 -1.89678e-17 0.223963 -0.0707854 0.639203)
(0.341889 -4.26949e-17 -1.64484e-17 0.229536 -0.0715509 0.669005)
(0.355491 -4.01562e-17 -1.32704e-17 0.235174 -0.0728998 0.701854)
(0.370084 -3.76934e-17 -9.42849e-18 0.240157 -0.0750077 0.737793)
(0.389276 -3.5034e-17 -4.49885e-18 0.252742 -0.0796998 0.781634)
(0.40509 -4.26288e-17 1.34767e-18 0.258774 -0.0845436 0.805092)
(0.416364 -4.02946e-17 8.2012e-18 0.262089 -0.0848286 0.83342)
(0.43149 -3.85621e-17 1.66201e-17 0.270003 -0.0899349 0.8717)
(0.4465 -3.58644e-17 2.53387e-17 0.27553 -0.0946309 0.910712)
(0.463404 -3.07597e-17 3.39779e-17 0.283068 -0.100536 0.953751)
(0.480772 -1.7145e-17 4.06841e-17 0.289761 -0.105087 0.997837)
(0.484455 -6.71679e-18 4.96179e-17 0.289924 -0.106551 1.00988)
(0.487515 -3.35102e-18 6.17366e-17 0.289806 -0.109929 1.02044)
(0.489713 2.98962e-18 7.43499e-17 0.287878 -0.113066 1.02915)
(0.494786 7.84668e-18 8.90878e-17 0.296434 -0.11979 1.0387)
(0.509075 2.94369e-17 7.4657e-17 0.277913 -0.134722 1.07204)
(0.475137 3.42353e-17 7.5736e-17 0.252928 -0.119537 0.993504)
(0.426916 2.96428e-17 7.44799e-17 0.229428 -0.106679 0.87946)
(0.367592 2.3487e-17 7.33777e-17 0.194707 -0.0873717 0.738843)
(0.301049 1.59787e-17 7.15539e-17 0.158476 -0.0677872 0.578368)
(0.225246 4.04393e-18 7.02121e-17 0.115774 -0.0488566 0.395767)
(0.167875 -8.00851e-18 6.58069e-17 0.0906073 -0.0397823 0.26288)
(0.146518 -1.27547e-17 5.89555e-17 0.0863695 -0.0388643 0.22537)
(0.120228 -1.4889e-17 4.93297e-17 0.0786324 -0.0318535 0.180587)
(0.103339 -1.85381e-17 3.16095e-17 0.0731961 -0.0237006 0.12424)
(0.0748032 -2.04e-17 2.021e-17 0.0634804 -0.0141367 0.0732925)
(0.0468821 -2.58413e-17 1.11977e-17 0.0588486 -0.00963113 0.0244981)
(0.0460093 -2.7871e-17 1.1641e-17 0.059713 -0.0111792 0.0226064)
(0.042808 -2.59996e-17 9.69146e-18 0.054405 -0.00734198 0.0184757)
(0.0404848 -2.3269e-17 7.49165e-18 0.0491088 -0.00343096 0.0162714)
(0.0406085 -2.53666e-17 8.2086e-18 0.0492394 -0.00461188 0.0161993)
(0.0392867 -2.24277e-17 6.13448e-18 0.0459242 -0.00163135 0.015086)
(0.0396808 -2.45184e-17 6.77018e-18 0.0466534 -0.00260012 0.0151342)
(0.0387071 -2.28114e-17 5.47632e-18 0.0440292 -0.00117166 0.0145475)
(0.0381705 -2.09109e-17 4.03155e-18 0.0424812 0.000308815 0.0141999)
(0.0384586 -2.2912e-17 4.71121e-18 0.0428911 -0.00075559 0.0141626)
(0.0380255 -2.15465e-17 3.78241e-18 0.0415125 -7.9195e-05 0.0139049)
(0.0379185 -2.00276e-17 2.645e-18 0.0409448 0.000859716 0.0137793)
(0.0382143 -2.21316e-17 3.29713e-18 0.0413052 8.91801e-05 0.0138795)
(0.0382747 -2.01301e-17 2.13063e-18 0.0411327 0.000963192 0.0138016)
(0.0387494 -2.2276e-17 2.80959e-18 0.0419305 0.000208256 0.0139381)
(0.0387371 -2.14014e-17 2.20907e-18 0.0414697 0.000559063 0.0138838)
(0.0389905 -2.03245e-17 1.42174e-18 0.0416709 0.00116602 0.0139105)
(0.0393246 -2.26351e-17 2.12038e-18 0.0420652 0.000412334 0.0140485)
(0.0396566 -2.10766e-17 1.25517e-18 0.0424532 0.00103416 0.0140956)
(0.0401634 -2.34715e-17 1.99802e-18 0.0432772 0.000205558 0.0142646)
(0.0403566 -2.28834e-17 1.67705e-18 0.043217 0.00041597 0.0143027)
(0.0408075 -2.19789e-17 1.1182e-18 0.0438079 0.000889367 0.0144086)
(0.0411745 -2.44447e-17 1.97749e-18 0.0442444 -5.60282e-05 0.0145528)
(0.0414022 -2.38747e-17 1.7348e-18 0.0442236 9.70397e-05 0.0146116)
(0.0419118 -2.30993e-17 1.24512e-18 0.0449118 0.000532586 0.0147441)
(0.0422745 -2.58354e-17 2.11605e-18 0.0453118 -0.000367633 0.014929)
(0.0428018 -2.4118e-17 1.40178e-18 0.0460637 0.000138056 0.0150619)
(0.0433353 -2.69186e-17 2.35118e-18 0.0468964 -0.00085224 0.0152955)
(0.0436224 -2.64123e-17 2.07194e-18 0.0469844 -0.000675016 0.0153705)
(0.0441863 -2.55568e-17 1.55032e-18 0.0477699 -0.000206072 0.0155065)
(0.0445518 -2.86168e-17 2.50799e-18 0.0481573 -0.00125027 0.0157116)
(0.0451373 -2.68461e-17 1.76579e-18 0.0490152 -0.000649191 0.0158452)
(0.0456829 -3.00284e-17 2.75781e-18 0.0498611 -0.00181577 0.0161)
(0.0460017 -2.94893e-17 2.48848e-18 0.049991 -0.00161696 0.0161763)
(0.0466241 -2.85516e-17 1.97427e-18 0.0508859 -0.00109933 0.0163129)
(0.0470053 -3.18754e-17 3.03936e-18 0.0513011 -0.00251557 0.0165173)
(0.0473178 -3.12987e-17 2.81555e-18 0.0513885 -0.00236328 0.0165908)
(0.047953 -3.03148e-17 2.30249e-18 0.0522905 -0.00182634 0.0167194)
(0.0483266 -3.38937e-17 3.30153e-18 0.0526739 -0.00316668 0.0169542)
(0.0489954 -3.17161e-17 2.54553e-18 0.0536728 -0.00242665 0.0170809)
(0.0495653 -3.5344e-17 3.60746e-18 0.0545561 -0.00385416 0.0173745)
(0.0499327 -3.46646e-17 3.35364e-18 0.0547444 -0.00364401 0.017459)
(0.0506209 -3.3446e-17 2.77591e-18 0.0557401 -0.00303166 0.0175848)