/*--------------------------------*- C++ -*----------------------------------*\
| =========                 |                                                 |
| \\      /  F ield         | OpenFOAM: The Open Source CFD Toolbox           |
|  \\    /   O peration     | Version:  4.1                                   |
|   \\  /    A nd           | Web:      www.OpenFOAM.org                      |
|    \\/     M anipulation  |                                                 |
\*---------------------------------------------------------------------------*/
FoamFile
{
    version     2.0;
    format      ascii;
    class       volVectorField;
    location    "5";
    object      U;
}
// * * * * * * * * * * * * * * * * * * * * * * * * * * * * * * * * * * * * * //

dimensions      [0 1 -1 0 0 0 0];

internalField   nonuniform List<vector> 
6785
(
(1.46063e-14 -0.840384 16.167)
(1.03307e-14 -6.73743 12.5406)
(-2.60897e-15 -4.81124 12.9465)
(4.41909e-15 -4.32804 12.6952)
(8.17041e-16 -3.70619 12.5276)
(-1.31468e-16 -3.23635 12.3034)
(2.39756e-15 -2.84926 12.0513)
(6.36519e-16 -2.56239 11.76)
(-6.15131e-16 -2.37541 11.4287)
(1.37944e-15 -2.26237 11.0802)
(1.74936e-16 -2.21204 10.7558)
(-4.9918e-16 -2.41552 10.3778)
(7.11378e-16 -2.92064 9.79046)
(1.35364e-17 -2.28401 9.17034)
(-2.97396e-16 0.796236 7.24009)
(1.82513e-14 -7.8335 26.2967)
(1.44594e-14 -16.572 22.0417)
(-3.28542e-15 -11.5528 22.5043)
(5.12928e-15 -11.8696 21.0508)
(7.85132e-16 -10.801 20.0849)
(4.76966e-16 -10.0574 19.0322)
(2.33346e-15 -9.28014 17.9976)
(1.99704e-16 -8.53732 16.9605)
(-7.14284e-17 -7.8317 15.9197)
(1.14451e-15 -7.15992 14.9207)
(-2.95802e-16 -6.49952 14.0225)
(-5.03259e-16 -5.87591 12.8918)
(2.4293e-16 -5.04115 10.4337)
(-5.16642e-17 -2.97983 5.94043)
(-8.94002e-17 -0.0240281 1.03378)
(2.14705e-14 -10.6905 28.3308)
(1.25731e-14 -17.6586 24.5558)
(-2.16697e-15 -11.9415 25.0495)
(5.50339e-15 -12.8772 22.8317)
(4.20355e-16 -11.2437 21.7254)
(1.3239e-15 -10.4928 20.2644)
(2.22758e-15 -9.55664 18.9165)
(-2.89011e-17 -8.7318 17.5653)
(5.67513e-16 -7.96342 16.2856)
(1.18909e-15 -7.27475 15.0841)
(-4.68274e-16 -6.44872 13.5805)
(2.78305e-16 -4.65615 10.2837)
(1.17824e-15 -0.678844 3.31298)
(-2.36133e-16 3.51674 -4.36866)
(-7.52138e-16 1.7901 -3.88701)
(2.16856e-14 -11.5463 27.3767)
(1.2276e-14 -17.6787 24.4182)
(-1.8393e-15 -11.9086 24.6788)
(5.73831e-15 -13.6772 21.8375)
(4.52533e-16 -11.6229 20.8644)
(1.73681e-15 -11.2002 19.1167)
(2.57142e-15 -10.2977 17.6704)
(1.23522e-16 -9.5714 16.1814)
(6.12769e-16 -8.87445 14.7575)
(1.41022e-15 -8.2486 13.4094)
(3.72783e-16 -7.59282 11.9883)
(4.61358e-16 -6.41995 9.72027)
(1.21914e-15 -3.94203 5.40254)
(1.41685e-15 -1.05951 1.55122)
(-3.09008e-15 0.808048 -4.00434)
(2.04298e-14 -11.5724 25.859)
(1.25646e-14 -17.3987 24.6232)
(-1.49177e-15 -12.1733 24.1726)
(4.65461e-15 -13.6889 21.2251)
(4.4014e-16 -11.7547 20.2114)
(6.87881e-16 -11.3028 18.4333)
(2.38892e-15 -10.451 16.9145)
(1.33924e-16 -9.67118 15.3814)
(-7.20204e-16 -8.92131 13.8849)
(5.14889e-16 -8.20438 12.4798)
(-3.44755e-16 -7.51663 11.1413)
(-9.67241e-16 -6.66551 9.61932)
(-8.96209e-16 -5.28304 7.1995)
(-1.82631e-15 -3.16972 4.47321)
(-5.18826e-15 -1.10358 -0.564438)
(2.04788e-14 -11.4064 24.65)
(1.35196e-14 -16.8717 24.3537)
(-5.9586e-16 -12.0439 23.6711)
(4.17988e-15 -13.3625 20.6646)
(9.31051e-16 -11.3691 19.7215)
(1.30776e-15 -10.9703 17.8924)
(2.48948e-15 -10.057 16.3906)
(4.24257e-16 -9.29388 14.9072)
(3.93716e-16 -8.61873 13.5506)
(1.04838e-15 -7.99203 12.3124)
(6.20221e-17 -7.39224 11.1127)
(1.25021e-16 -6.70465 9.92161)
(1.88957e-16 -5.86438 8.44234)
(-3.06513e-16 -4.41111 6.58462)
(2.88614e-16 -2.29181 2.15198)
(2.21435e-14 -11.5654 24.1519)
(1.37353e-14 -16.1618 23.6575)
(9.96338e-16 -11.678 23.1838)
(4.34718e-15 -13.0813 20.0837)
(1.93747e-15 -10.725 19.303)
(3.41002e-15 -10.5748 17.255)
(2.25587e-15 -9.3807 15.8409)
(1.27113e-15 -8.68271 14.2305)
(2.93084e-15 -7.95785 12.7844)
(1.23969e-15 -7.48038 11.5389)
(2.21358e-15 -7.18203 10.6522)
(3.47138e-15 -6.95282 10.1391)
(9.32991e-16 -6.69654 9.75339)
(-1.43135e-15 -5.99208 8.93247)
(4.78193e-15 -4.11223 5.89153)
(2.16756e-14 -12.274 24.6175)
(1.18916e-14 -15.5347 23.5421)
(8.51455e-16 -11.7397 23.1584)
(3.71522e-15 -12.6934 20.3625)
(1.94372e-15 -10.3611 19.4777)
(2.39072e-15 -10.0645 17.4407)
(1.25535e-15 -8.5361 15.8408)
(1.30098e-15 -7.2951 13.3836)
(1.29479e-15 -5.7465 10.7596)
(6.47467e-16 -4.93646 8.93878)
(1.05451e-15 -5.09301 8.75827)
(8.07059e-16 -5.99787 9.77028)
(-8.67837e-16 -6.99819 11.0676)
(-1.49395e-15 -7.42099 11.4877)
(3.23593e-15 -5.54292 9.38331)
(2.11142e-14 -12.9146 25.3297)
(1.07855e-14 -16.0833 25.0581)
(-2.73812e-16 -12.2356 24.0472)
(3.58096e-15 -12.9576 21.6218)
(1.35418e-15 -10.6841 20.6988)
(9.83246e-16 -10.3076 18.7483)
(3.77246e-16 -8.57565 17.0511)
(2.08969e-16 -6.93386 14.0875)
(-7.3897e-16 -4.59454 10.6655)
(-2.62338e-16 -2.82347 7.81193)
(-2.82948e-16 -1.91755 6.31462)
(-4.89719e-16 -2.16872 6.29733)
(5.30594e-16 -3.70029 8.05136)
(3.8021e-16 -5.55263 10.3594)
(5.51651e-16 -4.65095 9.33118)
(1.92871e-14 -12.6239 24.3649)
(1.27085e-14 -17.4082 27.5068)
(3.36556e-17 -13.3115 25.4449)
(2.96775e-15 -13.8409 22.9267)
(9.7956e-16 -11.6327 22.0284)
(1.00545e-15 -11.4256 20.1162)
(2.26099e-17 -9.79946 18.6337)
(-1.48361e-16 -8.43351 15.9961)
(-6.20836e-16 -6.1415 12.7861)
(-3.98061e-16 -3.98645 9.5021)
(-4.76846e-17 -2.02054 6.56405)
(4.96917e-16 -0.288313 3.81094)
(-8.94578e-16 0.750805 2.11754)
(-2.47417e-15 -0.0246118 2.74635)
(-1.05984e-15 -1.41375 4.2968)
(1.76051e-14 -11.4974 21.6377)
(1.53182e-14 -17.8747 28.6061)
(2.69642e-15 -14.6822 26.5405)
(2.62432e-15 -14.4379 23.6185)
(9.76799e-16 -12.6667 22.387)
(1.33219e-15 -12.3317 20.619)
(7.91386e-16 -11.1635 19.2137)
(4.4512e-17 -10.1848 17.2393)
(2.71417e-16 -8.6617 14.8822)
(2.16176e-16 -6.9308 12.2046)
(-7.213e-17 -4.97057 9.32403)
(1.54478e-15 -2.65783 5.98002)
(5.35555e-16 0.27184 2.0627)
(7.90597e-17 2.65001 -1.63184)
(-2.65975e-15 1.10242 -2.4278)
(1.64126e-14 -10.1568 18.4283)
(1.71907e-14 -17.3434 28.1357)
(4.98459e-15 -15.2429 26.6309)
(2.49531e-15 -14.3419 23.3735)
(1.18967e-15 -12.8059 21.7377)
(1.24137e-15 -12.2806 20.0393)
(1.35245e-15 -11.3786 18.6141)
(7.28769e-16 -10.5677 16.9659)
(4.52395e-16 -9.56312 15.1491)
(4.05519e-16 -8.39486 13.1483)
(3.18765e-16 -7.06395 10.9426)
(5.53078e-16 -5.44644 8.44551)
(5.24221e-16 -3.48641 5.40937)
(4.49882e-16 -0.851416 2.01952)
(-2.20121e-15 0.299008 -2.57467)
(1.53041e-14 -9.14993 16.0173)
(1.82498e-14 -16.6021 27.2662)
(7.498e-15 -15.5314 26.5367)
(2.75965e-15 -14.3811 23.3273)
(1.43645e-15 -12.9507 21.295)
(1.03424e-15 -12.2323 19.5215)
(9.18362e-16 -11.3887 17.9968)
(1.83033e-15 -10.5581 16.4168)
(8.10969e-16 -9.6485 14.7566)
(3.58773e-16 -8.63157 13.0224)
(1.11816e-15 -7.53256 11.177)
(4.68603e-16 -6.25327 9.20488)
(5.63071e-16 -4.83886 6.86247)
(1.47536e-15 -2.78608 4.06123)
(-2.06004e-15 -0.853592 -0.93931)
(1.34228e-14 -7.995 13.0253)
(1.86658e-14 -15.3142 25.2829)
(7.25768e-15 -14.7466 24.8962)
(1.42073e-15 -13.1712 21.6491)
(1.15531e-15 -11.7264 19.7259)
(1.34056e-15 -11.0858 18.3463)
(1.44292e-15 -10.45 17.2635)
(2.2999e-15 -9.87061 16.1123)
(1.77131e-15 -9.28875 14.927)
(1.22039e-15 -8.65627 13.6699)
(9.74699e-17 -7.9532 12.2473)
(-1.65264e-15 -7.00087 10.6168)
(-2.14593e-15 -5.86782 8.62178)
(-2.753e-15 -4.17712 6.33613)
(-5.44607e-15 -2.15698 2.23329)
(9.9352e-15 -7.03675 12.2716)
(1.92854e-14 -15.9158 25.3388)
(1.45038e-14 -18.0961 27.4246)
(6.30536e-15 -17.5796 25.0694)
(1.44307e-15 -15.9315 21.9982)
(2.01884e-16 -14.4005 19.3194)
(-6.58325e-16 -12.9383 17.045)
(-5.37512e-16 -11.5395 15.0716)
(8.48138e-16 -10.1087 13.1516)
(1.42806e-15 -8.75461 11.4117)
(1.72473e-15 -7.64314 10.1156)
(5.63617e-15 -6.86889 9.38987)
(8.76113e-15 -6.25068 8.87192)
(8.46657e-15 -5.3045 7.82964)
(6.95567e-15 -2.67455 4.37102)
(-2.75036e-16 -0.0149508 -0.0359574)
(-2.9576e-15 0.0988001 -0.664309)
(-1.54177e-15 0.128146 -0.488729)
(-7.59151e-16 0.182699 -0.275757)
(-4.30066e-16 0.163048 -0.0943623)
(-2.04836e-15 0.257887 -0.284237)
(-1.34073e-15 0.256192 -0.257401)
(-7.46615e-16 0.292072 -0.241742)
(-5.00432e-16 0.280867 -0.150087)
(1.37661e-15 0.357563 -0.283967)
(1.66365e-15 0.371012 -0.189716)
(1.44376e-15 0.380179 -0.134608)
(1.98054e-16 0.470285 -0.255236)
(-4.75604e-17 0.43548 -0.188145)
(4.59611e-16 0.486567 -0.172296)
(1.01739e-15 0.45775 -0.120594)
(5.47457e-16 0.562445 -0.207069)
(1.51622e-15 0.528249 -0.123513)
(1.67214e-15 0.541957 -0.0738119)
(1.39668e-15 0.642567 -0.107852)
(1.09639e-15 0.559339 -0.0528626)
(9.70165e-16 0.62255 -0.0236111)
(1.25125e-15 0.565939 0.010312)
(9.09863e-16 0.718728 0.0205122)
(4.72137e-16 0.587979 0.0337514)
(4.01748e-16 0.640946 0.0555676)
(-1.6637e-17 0.589888 0.0749039)
(-4.29155e-16 0.695932 0.131005)
(-7.51969e-16 0.598814 0.115405)
(-6.27272e-16 0.609792 0.115687)
(-9.89689e-16 0.675346 0.197293)
(-9.18077e-16 0.559844 0.142653)
(-4.89014e-16 0.607366 0.147289)
(-5.99574e-16 0.552645 0.144742)
(-8.29159e-16 0.635361 0.258093)
(-3.91751e-16 0.514297 0.181324)
(-3.49872e-16 0.526988 0.160758)
(-7.48244e-16 0.549949 0.281033)
(-6.80765e-16 0.435624 0.174275)
(-7.88005e-16 0.470593 0.163052)
(-2.80178e-16 0.425363 0.144084)
(-5.73087e-16 0.482099 0.270901)
(-3.85492e-16 0.3439 0.150111)
(-2.5762e-16 0.368958 0.121495)
(-1.88663e-16 0.342161 0.0899628)
(-1.76731e-16 0.370616 0.202)
(-7.07232e-16 0.249423 0.0897984)
(-5.41918e-16 0.273525 0.053732)
(-8.48587e-16 0.251829 0.170093)
(5.07886e-16 0.171254 0.0752245)
(5.45057e-16 0.189816 0.0299468)
(3.85648e-16 0.171349 -0.0163448)
(5.79844e-16 0.23001 0.0945249)
(4.33169e-16 0.142014 0.0139897)
(2.32192e-16 0.156526 -0.0955425)
(1.05258e-15 0.160324 -0.166267)
(1.98776e-15 0.234803 -0.248073)
(2.16628e-15 0.0558699 -0.306998)
(7.12626e-16 0.145392 -0.300822)
(4.02644e-15 0.0187702 -0.936457)
(3.65716e-15 -0.138007 -0.777354)
(3.59743e-15 -0.0773404 -0.72635)
(4.74176e-15 0.0181197 -0.78971)
(1.87304e-14 -0.0459731 -2.21978)
(4.0476e-15 -0.518977 -0.907929)
(-6.85268e-16 -0.218336 -0.421865)
(-1.68293e-14 -0.795866 1.67691)
(-1.85776e-14 -1.24903 2.4011)
(-1.94791e-14 -1.38728 2.37869)
(-2.20897e-14 -1.35272 2.65092)
(-3.25189e-14 -2.36009 4.78155)
(-2.46083e-14 -2.75922 4.33759)
(-2.29507e-14 -3.05744 4.32944)
(-2.08193e-14 -3.01568 4.36548)
(-2.63404e-14 -4.87989 6.88141)
(-1.83589e-14 -4.83987 5.60687)
(-1.83746e-14 -4.83954 5.94259)
(-2.52925e-14 -7.2333 9.1427)
(-1.95076e-14 -6.97074 7.24891)
(-2.14185e-14 -7.14742 7.89206)
(-2.46031e-14 -7.83108 9.50193)
(-2.58498e-14 -7.63392 9.20345)
(-2.76142e-14 -7.74322 9.41795)
(-3.52759e-14 -9.14861 11.5834)
(-3.05893e-14 -8.58628 10.7323)
(-3.15323e-14 -8.74886 11.3573)
(-3.1863e-14 -8.72237 11.5397)
(-3.23776e-14 -8.76092 11.6916)
(-3.26667e-14 -8.8037 11.8514)
(-3.29634e-14 -8.85089 12.0057)
(-3.32231e-14 -8.8777 12.2149)
(-3.35775e-14 -8.93201 12.4922)
(-3.8517e-14 -9.85539 14.35)
(-3.15903e-14 -9.64396 13.6566)
(-3.06194e-14 -9.72567 14.0045)
(-2.8729e-14 -9.72461 14.2733)
(-2.70534e-14 -9.80495 14.6856)
(-2.46603e-14 -9.83819 15.0527)
(-2.21167e-14 -9.90878 15.3554)
(-1.9627e-14 -9.96846 15.643)
(-1.74633e-14 -10.0338 15.9198)
(-1.49286e-14 -10.8932 17.9394)
(-1.10273e-14 -10.5368 16.8386)
(-8.65799e-15 -10.664 17.2191)
(-7.21018e-15 -10.6939 17.3664)
(-5.82086e-15 -10.769 17.5919)
(-4.68227e-15 -10.8264 17.8699)
(-3.62932e-15 -10.9253 18.2162)
(-2.60771e-15 -10.9677 18.4609)
(-1.71896e-15 -11.0661 18.7309)
(-8.90065e-16 -11.1623 18.9847)
(9.98369e-16 -11.4982 20.4577)
(1.12564e-15 -11.2682 19.2468)
(1.85156e-15 -11.3742 19.459)
(2.17128e-15 -11.4077 19.5265)
(2.5236e-15 -11.4965 19.6745)
(2.73441e-15 -11.5168 19.8521)
(2.74753e-15 -11.6149 20.207)
(2.83901e-15 -11.6569 20.3619)
(2.98603e-15 -11.7659 20.4397)
(4.03498e-15 -11.239 20.393)
(3.2679e-15 -11.3049 19.629)
(3.33266e-15 -11.3369 19.7892)
(3.34861e-15 -11.3945 19.8782)
(3.49028e-15 -11.379 19.8055)
(3.57875e-15 -11.4258 19.8297)
(3.72928e-15 -11.4385 19.8623)
(3.96474e-15 -11.4386 19.9565)
(4.36714e-15 -11.6177 20.2582)
(5.52698e-15 -9.8851 18.4841)
(4.95508e-15 -10.5476 18.8635)
(5.27979e-15 -10.4668 18.774)
(5.47455e-15 -10.459 18.775)
(5.7729e-15 -10.4709 18.948)
(5.91434e-15 -10.4245 18.8651)
(6.00131e-15 -10.3561 18.6871)
(6.04938e-15 -10.3467 18.4807)
(6.05661e-15 -10.3566 18.1594)
(6.47411e-15 -7.86384 14.9491)
(6.20562e-15 -8.85708 16.473)
(6.01507e-15 -8.59246 15.7001)
(5.84629e-15 -8.62005 15.1894)
(5.79652e-15 -8.50038 14.5553)
(6.01065e-15 -8.40089 13.9837)
(7.22159e-15 -8.29444 13.6645)
(6.62374e-15 -8.08632 12.8657)
(6.6187e-15 -7.95018 12.2391)
(6.40817e-15 -7.7583 11.4957)
(4.13974e-15 -4.3044 5.93625)
(6.14324e-15 -6.0399 9.61385)
(5.81024e-15 -5.47692 8.39486)
(5.37826e-15 -5.53509 7.9031)
(4.96192e-15 -5.20351 7.03102)
(4.36295e-15 -5.12802 6.01876)
(3.24028e-15 -4.93027 4.23031)
(2.18414e-15 -4.52259 2.48832)
(2.30151e-15 -4.47704 2.33765)
(3.07182e-16 -3.27062 -0.923997)
(1.80153e-15 -3.74733 1.36975)
(1.34092e-15 -3.58896 0.353048)
(-7.55771e-16 -2.34588 -2.22573)
(3.77478e-16 -4.27628 -1.08841)
(7.23578e-17 -3.06547 -1.17277)
(1.43667e-16 -2.83722 -0.738023)
(1.99098e-16 -3.54135 -1.04965)
(2.00709e-16 -2.39788 -0.616261)
(3.76063e-16 -3.18894 -0.922207)
(4.45638e-16 -2.82024 -0.645211)
(4.20547e-16 -2.27622 -0.46247)
(7.19311e-16 -2.8506 -0.673862)
(7.43209e-16 -2.56982 -0.484529)
(6.58905e-16 -2.2213 -0.340299)
(9.62182e-16 -2.9591 -0.470549)
(7.49023e-16 -1.99233 -0.279491)
(1.14619e-15 -2.6987 -0.414848)
(1.03111e-15 -2.39151 -0.306688)
(8.34343e-16 -2.103 -0.214116)
(1.13601e-15 -2.82698 -0.296217)
(8.29754e-16 -1.89884 -0.173871)
(1.26668e-15 -2.64781 -0.25385)
(1.10803e-15 -2.45419 -0.201947)
(9.43239e-16 -1.97153 -0.139221)
(1.41924e-15 -2.54821 -0.20641)
(1.26187e-15 -2.37659 -0.169157)
(1.05e-15 -2.06438 -0.112483)
(1.47062e-15 -2.82163 -0.156815)
(1.08047e-15 -1.90911 -0.0932259)
(1.60247e-15 -2.62578 -0.131796)
(1.33948e-15 -2.38431 -0.123206)
(1.05175e-15 -2.0989 -0.0828257)
(1.39342e-15 -2.8639 -0.116891)
(9.54441e-16 -1.92942 -0.0707153)
(1.39536e-15 -2.71262 -0.0979923)
(1.11105e-15 -2.55152 -0.108599)
(8.74852e-16 -2.04451 -0.075067)
(1.26931e-15 -2.6592 -0.115966)
(1.05857e-15 -2.50064 -0.119699)
(8.67193e-16 -2.17192 -0.0806963)
(1.233e-15 -2.98284 -0.114749)
(9.19991e-16 -2.01915 -0.0741835)
(1.43523e-15 -2.78397 -0.101756)
(1.26363e-15 -2.54092 -0.111805)
(1.06982e-15 -2.23504 -0.0754911)
(1.51253e-15 -3.0583 -0.105571)
(1.10795e-15 -2.06124 -0.0645677)
(1.7135e-15 -2.90398 -0.0839882)
(1.50555e-15 -2.74345 -0.0965377)
(1.23481e-15 -2.19899 -0.0613416)
(1.88946e-15 -2.86823 -0.089932)
(1.66644e-15 -2.71081 -0.0884065)
(1.3749e-15 -2.36046 -0.0473685)
(1.95982e-15 -3.25189 -0.061356)
(1.46743e-15 -2.21338 -0.0245129)
(2.26398e-15 -3.06029 -0.0164152)
(1.99375e-15 -2.82067 -0.0196084)
(1.64209e-15 -2.49474 0.0125897)
(2.30665e-15 -3.42962 0.0271343)
(1.71322e-15 -2.33863 0.0501821)
(2.69194e-15 -3.30778 0.103852)
(2.39258e-15 -3.17118 0.0938727)
(2.00584e-15 -2.56736 0.113292)
(3.04634e-15 -3.37322 0.185802)
(2.72132e-15 -3.24025 0.187268)
(2.28865e-15 -2.86033 0.202267)
(3.28719e-15 -3.96812 0.303181)
(2.47532e-15 -2.765 0.275201)
(3.8249e-15 -3.84121 0.460981)
(3.37242e-15 -3.62607 0.441311)
(2.80768e-15 -3.25973 0.421752)
(3.99938e-15 -4.51839 0.619262)
(3.00976e-15 -3.17692 0.528301)
(4.65033e-15 -4.51933 0.858295)
(4.2231e-15 -4.43879 0.805106)
(3.61871e-15 -3.67037 0.736133)
(5.43004e-15 -4.87721 1.14059)
(4.87099e-15 -4.78421 1.07917)
(4.07986e-15 -4.30125 0.972862)
(5.79532e-15 -6.04105 1.40802)
(4.46307e-15 -4.41673 1.14954)
(7.05844e-15 -5.92101 1.89621)
(3.34926e-56 0.408291 0.288822)
(-3.1342e-53 0.463421 0.263247)
(-5.18511e-53 0.475078 0.220475)
(-6.2199e-53 0.520879 0.19587)
(-8.24944e-53 0.579499 0.204025)
(-1.00115e-52 0.471925 0.188886)
(-1.2324e-52 0.270341 0.103928)
(-1.50507e-52 -0.0533359 0.0276186)
(-1.62583e-52 -0.118564 -0.000366989)
(-1.47814e-52 -0.456143 -0.00827513)
(-1.16355e-52 -0.65708 -0.038039)
(-7.05323e-53 -0.551136 -0.0601754)
(-4.46497e-53 -0.485131 -0.081213)
(4.82396e-50 -0.0289352 -0.112895)
(-8.58696e-47 0.0311072 -0.115158)
(1.82686e-44 0.0395395 -0.187291)
(-7.57528e-43 0.579377 -0.375722)
(3.60002e-42 1.04779 -0.339935)
(-2.40953e-41 1.0285 -0.254619)
(2.6756e-40 1.03173 -0.300737)
(-4.55833e-39 1.22195 -0.300798)
(4.8049e-37 1.35822 -0.170901)
(9.7369e-36 1.46831 -0.0744595)
(-2.63746e-34 1.58895 0.0391423)
(-1.36412e-32 1.67848 0.190326)
(5.72248e-32 1.70966 0.374451)
(1.69234e-30 1.72111 0.482912)
(4.74328e-31 1.74377 0.427158)
(-8.64658e-29 1.7031 0.285544)
(-2.80342e-28 1.56148 0.172831)
(4.73366e-27 1.398 0.0551397)
(3.66537e-26 1.249 -0.000775367)
(-5.98912e-25 1.14344 -0.0159679)
(-1.1004e-23 1.02522 -0.0283473)
(7.01084e-22 0.918862 -0.010105)
(1.23811e-20 0.813588 0.0318699)
(-9.56833e-20 0.68917 0.0452404)
(-9.65808e-19 0.416756 0.0479203)
(-8.48633e-19 -0.0243593 0.0749238)
(-1.97532e-18 -0.124429 0.152394)
(-2.06147e-18 -0.303163 0.299278)
(-2.13203e-18 -0.606165 0.431393)
(-2.01912e-18 -0.733684 0.490069)
(-1.21753e-18 -0.801976 0.559463)
(-1.64289e-19 -0.897242 0.623273)
(-7.53084e-19 -0.889984 0.685328)
(-9.93876e-19 -0.749262 0.741357)
(-8.87166e-19 -0.490388 0.805544)
(-9.88629e-19 -0.188125 0.888083)
(-7.02683e-18 0.0982555 0.974509)
(-2.65204e-17 0.36699 1.03823)
(-5.66428e-17 0.641344 1.10381)
(-7.31797e-17 0.919665 1.15596)
(-7.25344e-17 1.20385 1.18978)
(-1.04109e-16 1.49149 1.20135)
(-1.77377e-16 1.7787 1.18833)
(-2.25478e-16 2.05931 1.14899)
(-2.23019e-16 2.32654 1.08278)
(-2.28846e-16 2.57371 0.989511)
(-2.59617e-16 2.79311 0.869678)
(-2.93323e-16 2.97734 0.722855)
(-3.28426e-16 3.1185 0.545258)
(-3.55541e-16 3.2032 0.335229)
(-3.79996e-16 3.22143 0.0856262)
(-3.71463e-16 3.14775 -0.197306)
(-3.1591e-16 2.96319 -0.509437)
(-2.32658e-16 2.64726 -0.821944)
(-1.6995e-16 2.18891 -1.11608)
(-1.55968e-16 1.58451 -1.32215)
(-1.69086e-16 0.87992 -1.41736)
(-1.04097e-16 0.0882657 -1.35321)
(2.23523e-17 -0.525208 -1.16712)
(3.1247e-16 -0.986633 -0.893259)
(3.84322e-16 -1.42725 -0.608385)
(1.69594e-16 -2.20309 -0.337307)
(5.44701e-17 -2.51154 -0.243089)
(-4.24967e-18 -2.59601 0.100206)
(1.83136e-16 -2.11408 0.402843)
(3.00146e-15 -4.21463 2.08638)
(-6.67785e-55 0.410133 0.344923)
(-6.84126e-53 0.470466 0.322112)
(-1.04097e-52 0.480987 0.272656)
(-9.49705e-53 0.518585 0.236048)
(-1.03389e-52 0.576812 0.23885)
(-1.05747e-52 0.463581 0.230994)
(-1.24397e-52 0.25297 0.149472)
(-1.50847e-52 0.0166892 0.0507269)
(-1.62581e-52 -0.0455648 0.00736881)
(-1.47877e-52 -0.403163 -0.00817527)
(-1.16581e-52 -0.615602 -0.0425735)
(-7.12883e-53 -0.514097 -0.0665233)
(-1.49088e-52 -0.447587 -0.0889344)
(8.72866e-49 0.0133318 -0.123705)
(-5.75384e-46 0.0921934 -0.123101)
(7.31846e-44 0.127649 -0.220558)
(-1.5451e-42 0.603838 -0.418387)
(7.47323e-42 1.02768 -0.356895)
(-5.21657e-41 1.01997 -0.271013)
(5.84907e-40 1.03573 -0.332896)
(-1.08787e-38 1.1995 -0.316028)
(1.02701e-36 1.32134 -0.181598)
(2.53222e-35 1.43411 -0.0577127)
(-1.00483e-34 1.54718 0.0791575)
(-8.31463e-33 1.62707 0.268082)
(3.68566e-33 1.66585 0.477233)
(5.38452e-31 1.71451 0.559846)
(1.12396e-30 1.77459 0.46033)
(-1.79003e-29 1.74149 0.287548)
(-1.25121e-28 1.59516 0.163762)
(3.80417e-28 1.42247 0.0375482)
(1.16392e-26 1.25747 -0.0298148)
(4.55923e-27 1.14505 -0.0371993)
(-6.44177e-24 1.02165 -0.0466784)
(3.75059e-22 0.906433 -0.0273356)
(1.24448e-20 0.801208 0.0177924)
(-9.42427e-20 0.681113 0.0443671)
(-1.21589e-18 0.404778 0.0614893)
(-1.32425e-18 -0.0462346 0.0757353)
(-2.02221e-18 -0.161354 0.148586)
(-2.05713e-18 -0.343697 0.300944)
(-2.13576e-18 -0.630025 0.435238)
(-2.0087e-18 -0.747881 0.492864)
(-1.18584e-18 -0.817153 0.561656)
(-1.71678e-19 -0.911492 0.625947)
(-7.62657e-19 -0.903441 0.687484)
(-9.98974e-19 -0.763958 0.74101)
(-8.99068e-19 -0.511105 0.800262)
(-8.74414e-19 -0.215952 0.882541)
(-6.01511e-18 0.0714582 0.984138)
(-2.59319e-17 0.345656 1.07109)
(-5.68352e-17 0.624211 1.15223)
(-7.18166e-17 0.908853 1.21684)
(-7.53294e-17 1.20014 1.26042)
(-1.05129e-16 1.49544 1.27914)
(-1.72711e-16 1.79062 1.2706)
(-2.23101e-16 2.07935 1.23301)
(-2.20116e-16 2.35466 1.16604)
(-2.3016e-16 2.60977 1.0697)
(-2.63494e-16 2.83704 0.944429)
(-3.00488e-16 3.02981 0.789497)
(-3.37451e-16 3.18043 0.600229)
(-3.70572e-16 3.27606 0.374582)
(-4.01876e-16 3.30567 0.105064)
(-3.91448e-16 3.24219 -0.203737)
(-3.4239e-16 3.06317 -0.547622)
(-2.44419e-16 2.74565 -0.894167)
(-1.84266e-16 2.27246 -1.22206)
(-1.9291e-16 1.63935 -1.44909)
(-2.59423e-16 0.895882 -1.55098)
(-2.34058e-16 0.0677983 -1.46136)
(-4.65512e-17 -0.586066 -1.21792)
(2.82343e-16 -1.0637 -0.910063)
(3.78562e-16 -1.50071 -0.614214)
(1.72375e-16 -2.24783 -0.339986)
(5.8282e-17 -2.56193 -0.233678)
(-6.24376e-18 -2.64446 0.1066)
(2.727e-16 -2.31955 0.450899)
(3.15977e-15 -4.42612 1.9169)
(-2.70461e-53 0.414267 0.393829)
(-2.14489e-52 0.480846 0.365383)
(-3.08321e-52 0.495754 0.317292)
(-2.11841e-52 0.531005 0.26946)
(-1.71338e-52 0.590296 0.25994)
(-1.22379e-52 0.477176 0.245071)
(-1.26315e-52 0.212785 0.171225)
(-1.5122e-52 -0.00442701 0.0645239)
(-1.62577e-52 -0.0745973 0.0100563)
(-1.47946e-52 -0.415171 -0.0096671)
(-1.16844e-52 -0.621176 -0.0473531)
(-7.30785e-53 -0.522297 -0.0724018)
(-1.05566e-51 -0.453335 -0.0954246)
(4.7586e-48 -0.0176153 -0.131115)
(-2.02328e-45 0.0619302 -0.129861)
(1.91072e-43 0.119065 -0.260733)
(-2.86465e-42 0.611278 -0.441576)
(1.42513e-41 1.01695 -0.367376)
(-1.05704e-40 1.02209 -0.294225)
(1.20318e-39 1.04181 -0.343092)
(-2.42275e-38 1.18855 -0.321356)
(2.17173e-36 1.30063 -0.185866)
(5.81437e-35 1.41118 -0.0336713)
(1.6677e-35 1.51756 0.113756)
(-6.12761e-33 1.5906 0.342068)
(-1.68675e-32 1.64347 0.565716)
(1.19064e-31 1.72197 0.62)
(4.67441e-31 1.80273 0.484497)
(-2.01629e-30 1.76901 0.28316)
(-2.88285e-29 1.61759 0.150107)
(-1.46368e-28 1.44115 0.0237849)
(8.86999e-28 1.26571 -0.057548)
(6.20304e-26 1.14751 -0.0587402)
(-3.41975e-24 1.02276 -0.0652685)
(1.41916e-22 0.904067 -0.0445551)
(9.97177e-21 0.797638 0.00533501)
(-7.81623e-20 0.680159 0.03941)
(-1.04354e-18 0.40884 0.0670069)
(-1.72304e-18 -0.0508294 0.0803634)
(-2.1763e-18 -0.178833 0.1511)
(-2.06506e-18 -0.370271 0.303734)
(-2.13831e-18 -0.650649 0.437972)
(-1.9953e-18 -0.762595 0.494939)
(-1.14829e-18 -0.832413 0.56298)
(-1.8464e-19 -0.925923 0.627573)
(-7.76356e-19 -0.916398 0.688297)
(-9.98236e-19 -0.775735 0.739768)
(-8.39811e-19 -0.52406 0.801182)
(-9.28292e-19 -0.230931 0.896042)
(-7.9375e-18 0.0559725 1.00732)
(-3.15247e-17 0.330311 1.10637)
(-6.06521e-17 0.609519 1.19535)
(-6.99867e-17 0.896384 1.26598)
(-8.03419e-17 1.191 1.31434)
(-1.13766e-16 1.49047 1.33644)
(-1.79187e-16 1.79041 1.32979)
(-2.25642e-16 2.08421 1.29255)
(-2.24918e-16 2.3647 1.22454)
(-2.40501e-16 2.625 1.12586)
(-2.74932e-16 2.85756 0.996798)
(-3.113e-16 3.05616 0.836255)
(-3.46224e-16 3.21314 0.639034)
(-3.82715e-16 3.31591 0.402629)
(-4.15782e-16 3.35268 0.119475)
(-3.92501e-16 3.29579 -0.207323)
(-3.34262e-16 3.11945 -0.572677)
(-2.0884e-16 2.8003 -0.942716)
(-1.479e-16 2.31505 -1.2944)
(-1.87002e-16 1.66087 -1.53822)
(-2.931e-16 0.885472 -1.64797)
(-3.29047e-16 0.0186953 -1.54497)
(-1.40626e-16 -0.647279 -1.27891)
(2.36863e-16 -1.12529 -0.934302)
(3.6932e-16 -1.55969 -0.62074)
(1.75816e-16 -2.28943 -0.342273)
(6.32353e-17 -2.61464 -0.223357)
(-7.18513e-18 -2.72834 0.11215)
(3.7097e-16 -2.53027 0.490714)
(3.19758e-15 -4.45312 1.6906)
(-1.50022e-52 0.416406 0.432127)
(-7.27192e-52 0.486007 0.39685)
(-1.03142e-51 0.500677 0.354292)
(-5.97001e-52 0.530774 0.303113)
(-3.83299e-52 0.59332 0.287734)
(-1.73777e-52 0.496277 0.264144)
(-1.30402e-52 0.239966 0.182388)
(-1.5156e-52 0.00442668 0.0691902)
(-1.62573e-52 -0.0828296 0.00853411)
(-1.4801e-52 -0.422807 -0.0121285)
(-1.17103e-52 -0.625231 -0.0515769)
(-7.92426e-53 -0.527478 -0.0774859)
(-6.17316e-51 -0.456722 -0.100926)
(1.53008e-47 -0.0244027 -0.138019)
(-5.94722e-45 0.0649926 -0.139543)
(4.33744e-43 0.133687 -0.289679)
(-5.16133e-42 0.618829 -0.472527)
(2.60827e-41 1.00027 -0.394238)
(-2.01352e-40 1.01667 -0.333589)
(2.3213e-39 1.04199 -0.361256)
(-5.08946e-38 1.16999 -0.327493)
(4.48801e-36 1.26685 -0.186792)
(1.22883e-34 1.37661 -0.0054764)
(1.48329e-34 1.47479 0.15954)
(-5.91084e-33 1.53975 0.434674)
(-3.49051e-32 1.6137 0.670862)
(-1.09317e-31 1.73193 0.691693)
(-3.32578e-32 1.8407 0.516348)
(2.82686e-30 1.80622 0.277394)
(1.05288e-29 1.6452 0.129372)
(-1.57039e-28 1.463 0.00867952)
(-1.97869e-27 1.27408 -0.0858566)
(4.48026e-26 1.14736 -0.0827778)
(-1.47405e-24 1.01988 -0.0880874)
(2.01251e-23 0.894618 -0.0619434)
(7.91471e-21 0.786403 -0.00523016)
(-6.91266e-20 0.670887 0.0369122)
(-9.23043e-19 0.401193 0.0732586)
(-1.99443e-18 -0.0580244 0.0868628)
(-2.35032e-18 -0.201061 0.157493)
(-2.10259e-18 -0.397972 0.308235)
(-2.12884e-18 -0.668412 0.439586)
(-1.96854e-18 -0.773969 0.495506)
(-1.10461e-18 -0.8447 0.562314)
(-1.98319e-19 -0.937522 0.626461)
(-7.90364e-19 -0.926647 0.685664)
(-9.7997e-19 -0.786564 0.737359)
(-7.20644e-19 -0.540621 0.808829)
(-1.17408e-18 -0.25346 0.917892)
(-1.09119e-17 0.0335074 1.039)
(-3.77269e-17 0.309971 1.14752)
(-6.36096e-17 0.59312 1.24312)
(-6.88489e-17 0.884864 1.32)
(-8.5764e-17 1.185 1.37365)
(-1.22717e-16 1.49055 1.39966)
(-1.84947e-16 1.79693 1.39532)
(-2.26125e-16 2.09735 1.35867)
(-2.33079e-16 2.3844 1.28969)
(-2.50513e-16 2.65123 1.18851)
(-2.84216e-16 2.89039 1.0554)
(-3.20043e-16 3.09633 0.888929)
(-3.54535e-16 3.26148 0.683288)
(-3.94692e-16 3.37368 0.435388)
(-4.21066e-16 3.42032 0.137389)
(-3.83855e-16 3.37282 -0.209267)
(-2.96902e-16 3.20137 -0.598868)
(-1.57588e-16 2.88158 -0.995882)
(-8.70598e-17 2.38295 -1.37549)
(-1.51051e-16 1.70376 -1.63984)
(-3.08394e-16 0.890993 -1.7591)
(-4.05335e-16 -0.0114239 -1.64316)
(-2.35196e-16 -0.70834 -1.34551)
(1.74943e-16 -1.19195 -0.963226)
(3.58076e-16 -1.61722 -0.625911)
(1.80647e-16 -2.32776 -0.342241)
(6.82794e-17 -2.66016 -0.212324)
(-7.53831e-18 -2.80233 0.120312)
(4.44342e-16 -2.68221 0.531236)
(3.287e-15 -4.50632 1.66571)
(-6.38237e-52 0.421479 0.464911)
(-2.53442e-51 0.495994 0.420663)
(-3.60306e-51 0.512357 0.381459)
(-1.88105e-51 0.536627 0.332195)
(-1.05572e-51 0.596452 0.314293)
(-3.40567e-52 0.501363 0.286232)
(-1.43598e-52 0.267468 0.195826)
(-1.51937e-52 0.0369456 0.0729113)
(-1.6257e-52 -0.0637955 0.00616713)
(-1.48066e-52 -0.411116 -0.0146279)
(-1.17361e-52 -0.614343 -0.0556216)
(-9.95306e-53 -0.518074 -0.0827194)
(-2.65917e-50 -0.445202 -0.107192)
(4.17332e-47 -0.00854033 -0.147429)
(-1.6413e-44 0.0997127 -0.154627)
(8.56184e-43 0.170602 -0.316262)
(-9.0159e-42 0.630841 -0.492091)
(4.56238e-41 0.989429 -0.416356)
(-3.58972e-40 1.01455 -0.368875)
(4.20902e-39 1.04067 -0.375195)
(-1.01665e-37 1.15266 -0.330579)
(9.12906e-36 1.23469 -0.183359)
(2.49616e-34 1.34078 0.0253842)
(2.87787e-34 1.42852 0.214849)
(-8.9707e-33 1.48682 0.541317)
(-5.5526e-32 1.59077 0.784687)
(-1.79379e-31 1.75187 0.770577)
(-2.42576e-31 1.88616 0.554871)
(1.44918e-30 1.84737 0.270527)
(1.00666e-29 1.67209 0.100154)
(-2.82694e-29 1.48454 -0.00913949)
(-1.06199e-27 1.28382 -0.114737)
(9.95473e-27 1.1478 -0.108532)
(-6.46194e-25 1.01782 -0.112242)
(-2.84274e-23 0.886734 -0.0787835)
(6.25695e-21 0.77678 -0.0148704)
(-6.43567e-20 0.663768 0.0319298)
(-8.89971e-19 0.395611 0.0766954)
(-2.0191e-18 -0.0673793 0.0930779)
(-2.526e-18 -0.223939 0.164887)
(-2.1644e-18 -0.426454 0.312924)
(-2.10374e-18 -0.68723 0.439682)
(-1.91713e-18 -0.786096 0.493964)
(-1.04359e-18 -0.857731 0.558499)
(-2.02418e-19 -0.94976 0.621269)
(-8.01571e-19 -0.937828 0.679389)
(-9.43333e-19 -0.799839 0.736124)
(-5.61804e-19 -0.560272 0.822152)
(-1.48567e-18 -0.278247 0.941512)
(-1.37636e-17 0.00803827 1.0702)
(-4.22843e-17 0.288613 1.18632)
(-6.45943e-17 0.574763 1.28905)
(-6.88976e-17 0.870523 1.37259)
(-9.16287e-17 1.17568 1.43181)
(-1.31501e-16 1.48706 1.46195)
(-1.91109e-16 1.79977 1.46011)
(-2.26143e-16 2.10673 1.42426)
(-2.42711e-16 2.4003 1.35455)
(-2.60839e-16 2.67361 1.25119)
(-2.926e-16 2.91937 1.11446)
(-3.27758e-16 3.13271 0.942586)
(-3.64389e-16 3.30612 0.729137)
(-4.1095e-16 3.42778 0.470345)
(-4.20618e-16 3.48437 0.158085)
(-3.5463e-16 3.44656 -0.207989)
(-2.27812e-16 3.27999 -0.621401)
(-6.77214e-17 2.95972 -1.04542)
(-8.23553e-19 2.44694 -1.45363)
(-9.2242e-17 1.74152 -1.74037)
(-3.05102e-16 0.888017 -1.87103)
(-4.64759e-16 -0.0594452 -1.74241)
(-3.19813e-16 -0.781227 -1.41399)
(1.10296e-16 -1.26799 -0.996458)
(3.45014e-16 -1.68153 -0.630234)
(1.86971e-16 -2.36966 -0.339313)
(7.35576e-17 -2.70725 -0.199483)
(-6.76475e-18 -2.87267 0.131582)
(5.12188e-16 -2.82302 0.549677)
(3.24761e-15 -4.53414 1.46268)
(-2.45383e-51 0.425951 0.492327)
(-8.94295e-51 0.503427 0.438711)
(-1.28109e-50 0.520475 0.400494)
(-6.21354e-51 0.542629 0.355753)
(-3.20989e-51 0.604117 0.337192)
(-8.89661e-52 0.510931 0.304715)
(-1.92192e-52 0.282373 0.207416)
(-1.52588e-52 0.0604411 0.0767604)
(-1.62566e-52 -0.0517238 0.00367766)
(-1.48111e-52 -0.401697 -0.0169929)
(-1.17618e-52 -0.604613 -0.0596967)
(-1.51275e-52 -0.510841 -0.0883837)
(-9.47435e-50 -0.436103 -0.114315)
(1.11394e-46 -0.0030478 -0.158675)
(-4.23425e-44 0.122287 -0.173436)
(1.61671e-42 0.192847 -0.338873)
(-1.54402e-41 0.638733 -0.506075)
(7.64641e-41 0.978795 -0.440944)
(-5.97337e-40 1.0092 -0.400541)
(7.18154e-39 1.0351 -0.389876)
(-1.94676e-37 1.13192 -0.338739)
(1.82709e-35 1.19636 -0.177684)
(4.89831e-34 1.29756 0.0574219)
(4.65337e-34 1.37238 0.281744)
(-1.5472e-32 1.42626 0.663232)
(-8.66414e-32 1.56888 0.909316)
(-2.339e-31 1.77803 0.861191)
(-3.41644e-31 1.94082 0.604341)
(1.66564e-31 1.89697 0.26541)
(3.44836e-30 1.70089 0.0603908)
(1.6719e-29 1.50582 -0.0316149)
(-6.61828e-29 1.29393 -0.144391)
(-1.0519e-27 1.14721 -0.135674)
(-4.23861e-25 1.01391 -0.135263)
(-4.57327e-23 0.875937 -0.0954882)
(4.63733e-21 0.764482 -0.0252879)
(-5.86824e-20 0.653394 0.0281291)
(-8.80238e-19 0.390137 0.0801715)
(-1.90707e-18 -0.07625 0.0982694)
(-2.69891e-18 -0.245697 0.171869)
(-2.24205e-18 -0.453262 0.316487)
(-2.07629e-18 -0.705173 0.437446)
(-1.85375e-18 -0.797837 0.489326)
(-9.68629e-19 -0.870372 0.550553)
(-1.95301e-19 -0.961862 0.611688)