/*--------------------------------*- C++ -*----------------------------------*\
| =========                 |                                                 |
| \\      /  F ield         | OpenFOAM: The Open Source CFD Toolbox           |
|  \\    /   O peration     | Version:  4.1                                   |
|   \\  /    A nd           | Web:      www.OpenFOAM.org                      |
|    \\/     M anipulation  |                                                 |
\*---------------------------------------------------------------------------*/
FoamFile
{
    version     2.0;
    format      ascii;
    class       volScalarField;
    location    "1";
    object      p;
}
// * * * * * * * * * * * * * * * * * * * * * * * * * * * * * * * * * * * * * //

dimensions      [0 2 -2 0 0 0 0];

internalField   nonuniform List<scalar> 
6785
(
478.753
400.437
353.433
300.146
253.584
208.801
167.18
127.848
90.8008
55.872
22.4254
-10.156
-38.681
-68.21
-108.548
-137.764
-155.428
-145.358
-152.399
-151.57
-153.762
-154.098
-154.26
-153.45
-151.847
-149.225
-145.888
-141.701
-135.907
-130.973
-112.343
-115.026
-105.215
-108.662
-103.723
-103.809
-101.913
-101.109
-100.116
-99.27
-98.4693
-97.6405
-96.7567
-96.5865
-92.476
-62.7779
-63.0777
-58.2631
-62.5586
-59.0653
-60.5658
-59.7926
-59.653
-59.2135
-58.5473
-57.5931
-56.4463
-54.7103
-53.6458
-50.7932
-52.4921
-52.1609
-49.1324
-51.2775
-48.1582
-48.332
-46.9143
-45.7932
-44.5368
-43.2146
-41.7056
-40.2979
-38.7636
-37.5272
-35.8546
-41.4616
-41.9936
-39.3018
-41.183
-38.6326
-39.0359
-38.1177
-37.6172
-37.0648
-36.6281
-36.0826
-35.7554
-35.4099
-35.342
-34.8479
-34.9951
-36.9525
-34.1627
-36.3906
-34.4859
-35.1231
-34.6478
-34.5567
-34.3707
-34.3123
-34.1
-34.0852
-33.9561
-34.0735
-33.7856
-33.5922
-35.7229
-32.9067
-35.0249
-33.6389
-34.1252
-33.8201
-33.8005
-33.6773
-33.667
-33.506
-33.5097
-33.4065
-33.4885
-33.2102
-31.9538
-33.4959
-31.1081
-32.9373
-31.9497
-32.3712
-32.1859
-32.2408
-32.2033
-32.2326
-32.1805
-32.1844
-32.1994
-32.2587
-32.0476
-31.7308
-32.7173
-30.8927
-32.4193
-31.624
-32.0715
-31.9097
-32.0128
-32.0337
-32.0404
-32.1041
-32.0339
-32.1795
-32.1858
-32.0446
-30.2384
-31.0548
-29.7223
-31.0992
-30.4343
-30.979
-30.8625
-31.0435
-31.1674
-31.1692
-31.4077
-31.2734
-31.6093
-31.5672
-31.5725
-32.8922
-33.5409
-32.5451
-33.7029
-33.0462
-33.5778
-33.3921
-33.5239
-33.6232
-33.4806
-33.7652
-33.4135
-33.8165
-33.5826
-33.5749
-31.1447
-31.715
-31.0042
-31.9809
-31.3638
-31.8468
-31.569
-31.6232
-31.6558
-31.3403
-31.6265
-31.0469
-31.4517
-31.0914
-30.9469
-38.4114
-39.2442
-38.6539
-39.3773
-38.6281
-38.725
-38.0613
-37.527
-36.9514
-35.8111
-35.388
-33.8761
-33.3984
-32.2819
-30.958
-45.6628
-42.7194
-39.248
-37.4705
-33.422
-30.7533
-26.7219
-23.1827
-19.8752
-16.1717
-13.637
-10.4459
-9.0383
-6.61514
-6.25423
2.33526
2.3811
2.39795
2.39264
2.39631
2.38561
2.39871
2.40064
2.40588
2.39088
2.26112
2.28203
2.50874
2.51921
2.53183
2.56119
2.57936
2.56079
2.59193
2.65846
2.66236
2.71096
2.77676
2.68241
2.72643
2.79048
2.83699
2.79618
2.84701
2.9607
2.8941
2.91266
2.99323
3.10156
3.02007
3.04492
3.26502
3.16762
3.14463
3.26099
3.4896
3.42629
3.337
3.48735
3.77101
3.61143
3.4871
4.01595
3.80975
3.54209
3.70981
4.24288
4.09708
3.58569
3.78897
4.45818
4.09489
3.32021
4.5257
4.07538
2.86146
3.00785
4.20996
3.64348
1.6135
3.74752
3.04825
0.158791
0.00147889
2.08681
1.82787
-2.84149
-3.19857
-0.376124
-1.04468
-8.75549
-3.91284
-3.65923
-17.281
-10.7102
-6.34144
-6.34112
-6.88594
-17.3589
-5.16392
-3.57791
-3.74226
-4.28734
-4.82127
-5.49544
-6.04837
-7.84918
-11.762
-7.96066
-8.48881
-8.60479
-9.05836
-9.52883
-10.0078
-10.0446
-11.5667
-15.877
-12.6582
-13.0811
-13.2463
-13.7945
-14.3584
-15.1062
-15.7639
-16.4053
-17.9221
-22.237
-20.6015
-21.1201
-21.5105
-22.2448
-23.0275
-23.8643
-24.7929
-26.5291
-32.2383
-29.9397
-30.3231
-30.6447
-31.3072
-32.0518
-32.8852
-33.7395
-35.5004
-42.4135
-39.3998
-39.566
-39.584
-39.9814
-40.5333
-41.2439
-42.1349
-43.7678
-50.4276
-46.9059
-46.6588
-46.5075
-46.7079
-46.9789
-47.7272
-48.3688
-49.3621
-51.0361
-57.5554
-51.9821
-51.6085
-51.7528
-52.3099
-52.9697
-54.1082
-54.4767
-55.3872
-60.0265
-51.844
-52.045
-52.6214
-50.013
-53.0312
-47.0672
-46.5748
-41.4261
-37.2075
-35.44
-30.725
-27.1749
-24.3048
-22.3409
-20.9791
-20.7418
-20.6659
-20.3001
-20.0021
-19.2065
-18.8777
-18.2945
-17.289
-17.3132
-16.8399
-14.5368
-15.5427
-14.7949
-13.7018
-13.9506
-10.5441
-12.4847
-12.385
-11.0252
-11.8067
-7.62523
-9.62783
-11.7815
-5.82001
-8.78982
-9.79053
-7.86466
-9.53159
-3.86245
-7.25649
-8.44976
-6.51447
-8.25875
-2.56227
-5.40299
-8.79028
-1.3751
-5.12421
-6.81486
-4.59145
-6.73901
-0.279634
-4.17898
-5.78676
-3.68719
-5.73143
0.448807
-2.72764
-6.50592
1.3852
-2.67961
-4.59452
-2.30735
-4.64074
2.09975
-2.06208
-3.82598
-1.71585
-3.92015
2.46054
-0.941984
-5.00334
3.19339
-1.26613
-3.24494
-1.29553
-3.25951
7.44939e-07
2.15747e-06
4.02887e-06
6.04053e-06
8.43274e-06
1.10728e-05
1.40606e-05
1.73594e-05
2.10323e-05
2.50849e-05
2.95699e-05
3.45222e-05
3.99957e-05
4.60461e-05
5.27387e-05
6.01463e-05
6.83512e-05
7.74454e-05
8.7532e-05
9.87261e-05
0.000111156
0.000124966
0.000140314
0.000157381
0.000176363
0.000197484
0.000220988
0.000247151
0.000276279
0.000308713
0.000344831
0.000385055
0.000429855
0.000479753
0.00053533
0.00059723
0.00066617
0.000742945
0.000828435
0.000923615
0.00102957
0.00114747
0.00127865
0.00142454
0.00158672
0.0017669
0.00196694
0.00218886
0.00243477
0.00270694
0.00300768
0.00333932
0.00370412
0.00410411
0.0045409
0.00501534
0.00552709
0.00607395
0.0066509
0.00724879
0.00785235
0.00843749
0.00896752
0.00938784
0.00961896
0.00954726
0.00901359
0.00779969
0.00561717
0.00207177
-0.00317616
-0.0110364
-0.0210252
-0.0354479
-0.051377
-0.0720024
-0.092244
-0.147968
-0.126503
2.21251e-06
6.46449e-06
1.21186e-05
1.81934e-05
2.53827e-05
3.33197e-05
4.22857e-05
5.21841e-05
6.31985e-05
7.53493e-05
8.87937e-05
0.000103637
0.000120042
0.000138175
0.000158231
0.000180429
0.000205016
0.000232267
0.00026249
0.000296031
0.000333273
0.000374647
0.000420631
0.000471757
0.00052862
0.000591882
0.00066228
0.000740636
0.000827862
0.000924977
0.00103311
0.00115353
0.00128763
0.00143697
0.00160327
0.00178848
0.00199471
0.00222433
0.00247997
0.00276453
0.00308121
0.00343356
0.00382545
0.00426117
0.00474537
0.00528316
0.00588002
0.00654187
0.00727502
0.00808605
0.0089818
0.00996907
0.0110545
0.0122438
0.0135418
0.0149506
0.0164691
0.0180903
0.0197993
0.0215684
0.0233523
0.0250793
0.0266408
0.0278753
0.0285481
0.0283241
0.0267339
0.0231337
0.016671
0.00618127
-0.00935689
-0.0326253
-0.0622942
-0.105075
-0.152725
-0.212891
-0.275655
-0.331275
-0.34752
3.57807e-06
1.06067e-05
2.01316e-05
3.03174e-05
4.2356e-05
5.56333e-05
7.06225e-05
8.71644e-05
0.000105565
0.000125862
0.000148316
0.000173105
0.000200498
0.000230776
0.000264265
0.00030133
0.000342382
0.000387881
0.000438344
0.000494344
0.000556525
0.000625603
0.000702376
0.000787735
0.000882671
0.00098829
0.00110582
0.00123664
0.00138226
0.00154439
0.00172492
0.00192595
0.00214981
0.00239911
0.00267674
0.0029859
0.00333016
0.00371347
0.00414019
0.00461518
0.00514378
0.00573189
0.006386
0.00711324
0.00792139
0.00881894
0.00981506
0.0109196
0.0121431
0.0134966
0.0149914
0.0166389
0.01845
0.0204347
0.0226004
0.0249512
0.0274848
0.03019
0.0330415
0.0359936
0.0389705
0.0418529
0.0444596
0.0465216
0.0476474
0.0472779
0.0446297
0.038628
0.0278472
0.0103449
-0.0156061
-0.0544491
-0.104064
-0.175535
-0.255253
-0.356314
-0.461631
-0.552651
-0.635282
4.93541e-06
1.47642e-05
2.81653e-05
4.24818e-05
5.93768e-05
7.80043e-05
9.90189e-05
0.000122206
0.000147992
0.000176431
0.000207889
0.000242616
0.00028099
0.000323403
0.000370313
0.000422232
0.000479735
0.000543468
0.000614151
0.000692591
0.000779688
0.000876444
0.000983978
0.00110354
0.00123651
0.00138444
0.00154905
0.00173227
0.00193622
0.00216329
0.00241611
0.00269764
0.00301115
0.00336026
0.00374903
0.00418195
0.004664
0.0052007
0.00579817
0.00646319
0.00720323
0.00802655
0.00894222
0.00996021
0.0110914
0.0123476
0.0137418
0.0152876
0.0169997
0.0188936
0.0209851
0.02329
0.0258238
0.0286001
0.0316297
0.0349178
0.0384616
0.0422454
0.046234
0.0503637
0.054529
0.0585639
0.0622158
0.0651101
0.0667012
0.0662097
0.0625426
0.0541991
0.0391838
0.0147829
-0.0214543
-0.0757069
-0.145193
-0.245215
-0.357205
-0.499172
-0.648242
-0.790598
-0.957738
6.25442e-06
1.88891e-05
3.61953e-05
5.46703e-05
7.64436e-05
0.000100441
0.000127496
0.000157344
0.000190525
0.000227118
0.00026759
0.000312265
0.000361629
0.000416188
0.00047653
0.000543313
0.000617279
0.000699258
0.000790177
0.000891072
0.0010031
0.00112755
0.00126587
0.00141965
0.00159068
0.00178095
0.00199267
0.00222832
0.00249063
0.00278266
0.00310782
0.00346988
0.00387305
0.00432201
0.00482196
0.00537865
0.0059985
0.0066886
0.00745682
0.00831186
0.00926332
0.0103218
0.011499
0.0128076
0.0142617
0.0158764
0.0176683
0.019655
0.0218554
0.0242892
0.0269768
0.0299385
0.0331942
0.0367613
0.0406536
0.0448781
0.0494312
0.0542929
0.0594184
0.0647264
0.0700821
0.0752735
0.0799781
0.0837169
0.0857925
0.0852074
0.0805616
0.0699306
0.0507494
0.0195332
-0.0269151
-0.0964935
-0.185888
-0.314494
-0.45912
-0.64266
-0.835769
-0.995645
-1.17014
7.56046e-06
2.30267e-05
4.42463e-05
6.68996e-05
9.3562e-05
0.000122941
0.000156043
0.000192555
0.000233133
0.00027788
0.000327363
0.000381983
0.000442333
0.000509031
0.000582798
0.00066444
0.000754861
0.000855076
0.00096622
0.00108956
0.00122651
0.00137865
0.00154773
0.00173571
0.00194478
0.00217736
0.00243617
0.00272421
0.00304485
0.00340181
0.00379924
0.00424178
0.00473456
0.00528328
0.00589431
0.00657467
0.0073322
0.00817556
0.00911435
0.0101592
0.0113218
0.0126152
0.0140535
0.0156524
0.0174289
0.0194016
0.0215906
0.0240176
0.0267054
0.0296782
0.0329608
0.0365783
0.0405545
0.0449112
0.049665
0.0548247
0.0603862
0.0663255
0.0725884
0.0790768
0.0856274
0.0919836
0.0977545
0.102359
0.104952
0.104321
0.098763
0.0859356
0.0627053
0.0248183
-0.0316918
-0.116428
-0.225697
-0.382838
-0.560488
-0.786158
-1.02537
-1.26585
-1.46999
8.85192e-06
2.71768e-05
5.23199e-05
7.91708e-05
0.000110733
0.000145504
0.000184657
0.000227836
0.000275811
0.000328709
0.000387199
0.000451758
0.000523086
0.000601915
0.000689097
0.000785584
0.000892447
0.00101088
0.00114224
0.001288
0.00144985
0.00162965
0.00182947
0.00205162
0.0022987
0.00257356
0.0028794
0.00321979
0.00359869
0.00402051
0.00449015
0.00501307
0.00559534
0.00624371
0.00696567
0.00776954
0.00866455
0.00966093
0.01077
0.0120044
0.0133778
0.0149056
0.0166046
0.0184931
0.0205914
0.0229213
0.0255066
0.0283727
0.0315468
0.0350573
0.0389335
0.0432049
0.0479
0.0530442
0.0586575
0.0647504
0.0713185
0.078334
0.085734
0.0934038
0.101153
0.108681
0.115532
0.121025
0.124168
0.123541
0.117143
0.102218
0.0750644
0.0306626
-0.0357488
-0.135467
-0.264584
-0.450238
-0.661376
-0.929414
-1.21583
-1.46511
-1.71543
1.0137e-05
3.13535e-05
6.04246e-05
9.14896e-05
0.000127958
0.000168129
0.000213333
0.00026318
0.000318547
0.00037959
0.000447077
0.000521563
0.000603855
0.000694799
0.000795378
0.000906691
0.00102997
0.00116661
0.00131814
0.00148631
0.00167302
0.00188044
0.00211096
0.00236724
0.00265227
0.00296935
0.00332217
0.00371483
0.00415191
0.00463849
0.00518023
0.00578341
0.00645504
0.00720289
0.00803561
0.00896277
0.00999502
0.0111442
0.0124233
0.0138467
0.0154306
0.0171924
0.0191515
0.0213291
0.0237485
0.0264348
0.0294154
0.0327197
0.0363789
0.0404258
0.0448943
0.0498183
0.0552306
0.0611608
0.0676322
0.0746572
0.0822312
0.0903231
0.0988618
0.107717
0.116672
0.125386
0.133336
0.139748
0.143488
0.142931
0.135787
0.118888
0.0879737
0.0372553
-0.0388478
-0.153321
-0.302224
-0.516348
-0.761495
-1.073
-1.40786
-1.69052
-1.972
1.14186e-05
3.55617e-05
6.85648e-05
0.000103859
0.000145239
0.000190814
0.000242068
0.000298579
0.000361329
0.000430506
0.000506977
0.000591374
0.000684611
0.000787649
0.000901601
0.00102771
0.00116739
0.00132219
0.00149387
0.00168439
0.00189592
0.00213092
0.00239208
0.00268243
0.00300534
0.00336456
0.00376427
0.00420911
0.00470426
0.00525548
0.00586918
0.00655247
0.00731328
0.00816041
0.00910365
0.0101539
0.0113231
0.0126246
0.0140733
0.0156855
0.0174793
0.0194745
0.0216931
0.024159
0.0268986
0.0299404
0.0333154
0.0370567
0.0411997
0.0457817
0.0508408
0.0564157
0.0625436
0.0692581
0.0765859
0.0845417
0.0931209
0.10229
0.111969
0.122014
0.132184
0.142097
0.15117
0.158536
0.162926
0.162516
0.15473
0.136003
0.101512
0.044704
-0.0408469
-0.169813
-0.338413
-0.580955
-0.860664
-1.21641
-1.60214
-1.96161
-2.25975
1.27003e-05
3.98066e-05
7.67438e-05
0.00011628
0.000162574
0.000213555
0.000270855
0.000334022
0.000404143
0.000481439
0.000566875
0.000661161
0.000765318
0.000880421
0.00100771
0.00114859
0.00130462
0.00147754
0.00166932
0.00188214
0.00211844
0.00238094
0.00267267
0.00299701
0.00335772
0.00375898
0.00420546
0.00470235
0.00525543
0.00587113
0.00655659
0.00731978
0.00816954
0.00911569
0.0101692
0.011342
0.0126478
0.0141013
0.0157192
0.0175195
0.0195225
0.0217504
0.0242276
0.026981
0.0300398
0.0334359
0.0372038
0.0413806
0.0460058
0.0511209
0.0567687
0.0629923
0.0698335
0.07733
0.0855121
0.0943967
0.10398
0.114225
0.125047
0.136286
0.147679
0.158806
0.169027
0.177386
0.182482
0.182301
0.173991
0.153593
0.115731
0.0530882
-0.041633
-0.184791
-0.372973
-0.643871
-0.958704
-1.35933
-1.79829
-2.17049
-2.54422
1.39851e-05
4.40916e-05
8.4965e-05
0.000128756
0.000179963
0.000236351
0.000299688
0.000369502
0.000446979
0.000532376
0.000626754
0.000730904
0.000845952
0.000973087
0.00111369
0.00126929
0.00144162
0.00163261
0.00184443
0.0020795
0.00234049
0.00263043
0.00295265
0.00331088
0.00370928
0.00415247
0.0046456
0.0051944
0.00580525
0.00648525
0.00724229
0.00808516
0.00902361
0.0100685
0.0112319
0.0125271
0.013969
0.0155741
0.0173605
0.0193484
0.02156
0.0240199
0.026755
0.0297948
0.0331718
0.0369211
0.0410807
0.0456917
0.0507976
0.0564442
0.062679
0.0695496
0.0771023
0.0853792
0.0944142
0.104227
0.114814
0.126137
0.138105
0.150547
0.163175
0.175537
0.186937
0.196335
0.202207
0.202353
0.193656
0.171773
0.13078
0.0626007
-0.0409622
-0.197955
-0.405553
-0.704725
-1.05523
-1.50211
-1.99661
-2.40173
-2.89827
1.5275e-05
4.84187e-05
9.32295e-05
0.000141284
0.000197404
0.000259196
0.00032856
0.000405007
0.00048982
0.000583296
0.000686588
0.00080057
0.000926473
0.0010656
0.00121946
0.00138973
0.00157831
0.00178732
0.00201912
0.00227635
0.00256196
0.00287924
0.00323185
0.00362387
0.00405983
0.00454481
0.00508443
0.00568496
0.00635338
0.00709746
0.00792582
0.00884808
0.00987492
0.0110182
0.0122911
0.0137082
0.0152858
0.0170418
0.0189961
0.0211709
0.0235903
0.0262812
0.0292731
0.0325983
0.0362921
0.0403931
0.0449428
0.0499861
0.0555706
0.0617466
0.068566
0.076081
0.0843427
0.0933974
0.103283
0.114022
0.125612
0.138013
0.15113
0.164779
0.178655
0.19227
0.204879
0.215364
0.222081
0.222657
0.213716
0.190545
0.146678
0.073282
-0.0387624
-0.209196
-0.436011
-0.763357
-1.15005
-1.64461
-2.19643
-2.66474
-3.28218
1.65721e-05
5.27892e-05
0.000101539
0.000153867
0.000214896
0.000282086
0.000357465
0.000440529
0.000532656
0.000634184
0.000746359
0.000870137
0.00100685
0.00115793
0.001325
0.00150989
0.00171466
0.00194161
0.00219331
0.00247263
0.00278277
0.00312729
0.00351017
0.00393584
0.00440924
0.00493584
0.00552178
0.00617385
0.00689963
0.00770755
0.00860697
0.00960833
0.0107232
0.0119645
0.0133464
0.014885
0.0165977
0.018504
0.0206257
0.0229865
0.0256129
0.0285339
0.0317816
0.0353909
0.0394003
0.0438515
0.0487897
0.0542635
0.0603248
0.0670282
0.07443
0.0825873
0.0915557
0.101386
0.11212
0.123784
0.136377
0.149859
0.164128
0.178993
0.194131
0.209024
0.222879
0.234504
0.242148
0.243269
0.234246
0.210008
0.163557
0.0853082
-0.0348042
-0.218221
-0.463992
-0.819378
-1.24276
-1.78667
-2.39697
-2.89626
-3.55842
1.78776e-05
5.72036e-05
0.000109893
0.000166502
0.000232435
0.000305016
0.000386394
0.000476056
0.00057547
0.00068502
0.000806042
0.000939575
0.00108706
0.00125003
0.00143025
0.0016297
0.00185059
0.00209541
0.00236693
0.00266824
0.00300279
0.00337444
0.00378747
0.00424665
0.00475732
0.00532538
0.00595744
0.00666083
0.00744372
0.0083152
0.00928537
0.0103655
0.011568
0.0129068
0.0143974
0.0160568
0.017904
0.01996
0.0222482
0.0247943
0.0276266
0.0307767
0.0342788
0.0381709
0.0424944
0.0472941
0.052619
0.0585214
0.0650572
0.0722855
0.0802671
0.089064
0.0987365
0.10934
0.120921
0.133508
0.147103
0.161665
0.177091
0.193181
0.209594
0.225788
0.240926
0.25375
0.262403
0.264191
0.255259
0.230188
0.181465
0.0987564
-0.0289698
-0.22486
-0.489272
-0.872527
-1.33303
-1.92821
-2.59941
-3.20022
-3.92618
1.91929e-05
6.16618e-05
0.000118292
0.000179189
0.000250017
0.00032798
0.000415339
0.000511576
0.000618249
0.000735786
0.000865615
0.00100886
0.00116706
0.00134187
0.00153518
0.00174911
0.00198605
0.00224865
0.00253989
0.00286308
0.00322194
0.00362059
0.00406362
0.00455617
0.00510392
0.00571325
0.00639121
0.00714567
0.00798541
0.00892015
0.00996073
0.0111192
0.012409
0.0138449
0.0154435
0.0172232
0.0192043
0.0214092
0.0238631
0.0265934
0.0296307
0.0330086
0.036764
0.0409375
0.0455734
0.0507199
0.0564295
0.0627583
0.0697663
0.077517
0.086076
0.0955097
0.105883
0.117258
0.129682
0.143191
0.157788
0.173433
0.19002
0.207343
0.225048
0.242569
0.259031
0.273114
0.282868
0.285454
0.276796
0.251149
0.200492
0.113757
-0.0210776
-0.228867
-0.511532
-0.922439
-1.42044
-2.06844
-2.80222
-3.43774
-4.23311
2.05188e-05
6.61633e-05
0.000126736
0.000191924
0.00026764
0.000350972
0.000444291
0.000547078
0.000660977
0.000786463
0.000925055
0.00107796
0.00124682
0.00143341
0.00163974
0.00186808
0.00212097
0.00240126
0.00271212
0.00305709
0.00344012
0.00386563
0.00433851
0.00486423
0.00544889
0.00609926
0.00682289
0.00762817
0.00852444
0.00952211
0.0106327
0.0118692
0.0132457
0.0147782
0.0164843
0.0183836
0.0204978
0.0228509
0.0254695
0.0283832
0.0316243
0.0352288
0.039236
0.0436893
0.0486358
0.0541273
0.0602194
0.0669723
0.0744501
0.0827205
0.0918539
0.101922
0.112994
0.125135
0.138402
0.152831
0.168429
0.185158
0.202911
0.221477
0.24049
0.259365
0.277193
0.292599
0.303549
0.307071
0.298884
0.272932
0.220706
0.13041
-0.0109775
-0.230026
-0.530483
-0.968769
-1.50454
-2.20791
-3.00574
-3.70496
-4.55137
2.1856e-05
7.07072e-05
0.000135223
0.000204705
0.000285299
0.000373986
0.000473242
0.00058255
0.000703639
0.000837032
0.000984339
0.00114685
0.00132631
0.0015246
0.00174388
0.00198654
0.0022553
0.00255318
0.00288354
0.00325016
0.00365723
0.00410944
0.004612
0.00517072
0.00579207
0.00648325
0.00725228
0.00810808
0.00906058
0.0101208
0.0113011
0.012615
0.0140778
0.0157064
0.0175194
0.0195376
0.0217841
0.0242844
0.0270668
0.0301627
0.0336064
0.0374361
0.0416937
0.046425
0.0516805
0.0575148
0.0639872
0.0711617
0.0791066
0.087894
0.0975987
0.108297
0.120065
0.132971
0.147077
0.162424
0.179023
0.196838
0.215762
0.23558
0.255919
0.276176
0.295414
0.312211
0.324457
0.329059
0.321551
0.295582
0.242175
0.148823
0.00149114
-0.228103
-0.545802
-1.01112
-1.58485
-2.34586
-3.21028
-4.02498
-4.91454
2.3205e-05
7.52925e-05
0.000143751
0.000217529
0.000302989
0.000397015
0.000502182
0.00061798
0.000746219
0.000887474
0.00104344
0.00121549
0.00140549
0.00161542
0.00184756
0.00210446
0.00238898
0.00270433
0.00305407
0.00344221
0.00387317
0.00435192
0.00488397
0.00547548
0.0061333
0.00686504
0.0076792
0.00858521
0.00959358
0.010716
0.0119655
0.0133565
0.014905
0.0166289
0.0185481
0.0206845
0.0230625
0.0257091
0.0286543
0.0319312
0.0355762
0.0396297
0.044136
0.0491437
0.054706
0.0608809
0.0677313
0.0753249
0.083734
0.0930352
0.103308
0.114634
0.127093
0.140762
0.155704
0.171967
0.189566
0.208468
0.228568
0.249649
0.271332
0.293
0.313693
0.331951
0.345597
0.351432
0.34482
0.319137
0.264964
0.169098
0.0164826
-0.222868
-0.557162
-1.0491
-1.66081
-2.48167
-3.41534
-4.28738
-5.27364
2.4566e-05
7.99177e-05
0.00015232
0.000230394
0.000320705
0.000420052
0.000531101
0.000653354
0.0007887
0.000937768
0.00110234
0.00128388
0.00148433
0.00170581
0.00195073
0.00222176
0.00252195
0.00285465
0.00322365
0.00363315
0.00408784
0.00459295
0.0051543
0.00577839
0.00647243
0.00724446
0.00810344
0.00905932
0.0101232
0.0113074
0.0126256
0.0140931
0.0157268
0.0175455
0.0195701
0.0218239
0.0243325
0.0271244
0.0302313
0.0336879
0.0375328
0.0418086
0.0465619
0.051844
0.0577111
0.0642244
0.0714502
0.07946
0.0883304
0.0981423
0.10898
0.12093
0.134078
0.148504
0.16428
0.181457
0.200056
0.220047
0.241328
0.263681
0.286726
0.309836
0.332032
0.351822
0.366975
0.3742
0.36871
0.343634
0.289131
0.191329
0.0341493
-0.214088
-0.56422
-1.08226
-1.73182
-2.61547
-3.62015
-4.5755
-5.68728
2.59394e-05
8.45814e-05
0.000160927
0.000243295
0.000338442
0.000443088
0.000559989
0.000688659
0.000831067
0.000987895
0.00116101
0.00135196
0.0015628
0.00179575
0.00205335
0.00233842
0.00265414
0.00300408
0.00339219
0.0038229
0.00430115
0.00483243
0.00542287
0.00607929
0.00680929
0.00762133
0.00852481
0.00953021
0.0106492
0.0118947
0.0132812
0.0148246
0.0165428
0.0184556
0.020585
0.0229553
0.0255935
0.0285297
0.031797
0.035432
0.0394754
0.0439718
0.0489703
0.0545248
0.0606945
0.0675437
0.0751422
0.0835654
0.0928938
0.103213
0.114612
0.127182
0.141015
0.156196
0.172802
0.190891
0.210488
0.23157
0.254036
0.277673
0.302098
0.32668
0.350427
0.371824
0.388594
0.397372
0.393238
0.369101
0.31473
0.215608
0.0546393
-0.201528
-0.566623
-1.11014
-1.7972
-2.74666
-3.82355
-4.90338
-6.14549
2.7325e-05
8.92818e-05
0.000169569
0.000256229
0.000356195
0.000466116
0.000588834
0.000723882
0.000873301
0.00103783
0.00121943
0.00141972
0.00164086
0.00188519
0.00215537
0.00245436
0.00278551
0.00315254
0.00355961
0.00401137
0.00451299
0.00507024
0.00568955
0.00637806
0.00714375
0.00799548
0.00894312
0.00999766
0.0111713
0.0124777
0.0139319
0.0155507
0.0173528
0.019359
0.0215922
0.0240781
0.026845
0.0299243
0.0333507
0.0371629
0.0414031
0.0461184
0.0513601
0.057185
0.0636549
0.0708374
0.0788058
0.0876393
0.0974225
0.108245
0.120202
0.133389
0.147902
0.163834
0.181268
0.200266
0.22086
0.243033
0.26669
0.291621
0.317444
0.343529
0.368877
0.391954
0.410455
0.420952
0.418417
0.395565
0.341807
0.242019
0.0780956
-0.184954
-0.564007
-1.13225
-1.85625
-2.87475
-4.02444
-5.20279
-6.48131
2.87229e-05
9.40174e-05
0.000178245
0.00026919
0.000373956
0.000489128
0.000617627
0.000759008
0.000915387
0.00108756
0.00127757
0.00148712
0.00171849
0.0019741
0.00225675
0.00256955
0.00291598
0.00329997
0.00372585
0.00419848
0.00472328
0.00530629
0.00595422
0.00667456
0.00747564
0.00836674
0.00935819
0.0104615
0.0116893
0.0130561
0.0145774
0.016271
0.0181563
0.020255
0.0225913
0.0251919
0.0280863
0.0313075
0.0348919
0.0388796
0.0433151
0.0482475
0.0537305
0.0598234
0.0665911
0.0741042
0.0824395
0.0916801
0.101915
0.113238
0.125748
0.139547
0.154737
0.171416
0.189673
0.209578
0.231168
0.254434
0.279286
0.305521
0.332762
0.36038
0.387377
0.412211
0.432557
0.444942
0.444254
0.423045
0.370404
0.270637
0.104655
-0.164134
-0.555996
-1.14807
-1.90819
-2.99917
-4.22292
-5.58516
-6.91315
3.01328e-05
9.87862e-05
0.000186951
0.000282176
0.000391721
0.000512114
0.000646356
0.000794024
0.000957307
0.00113706
0.0013354
0.00155414
0.00179563
0.00206243
0.00235744
0.00268392
0.00304551
0.0034463
0.00389082
0.00438414
0.00493192
0.00554046
0.00621677
0.00696865
0.00780482
0.00873495
0.00976981
0.0109214
0.012203
0.0136296
0.0152175
0.0169852
0.018953
0.0211435
0.0235819
0.0262961
0.029317
0.0326789
0.0364197
0.0405815
0.0452106
0.050358
0.0560802
0.0624389
0.0695017
0.0773426
0.0860418
0.095686
0.106368
0.118187
0.131247
0.145654
0.161517
0.178939
0.198015
0.218823
0.241409
0.265768
0.291819
0.319368
0.348044
0.377227
0.405922
0.43259
0.454896
0.469342
0.470754
0.451555
0.400554
0.301532
0.134445
-0.138842
-0.542209
-1.15702
-1.95219
-3.11861
-4.41772
-5.90262
-7.31427
3.15545e-05
0.000103586
0.000195685
0.000295181
0.000409482
0.000535066
0.000675009
0.000828916
0.000999042
0.00118631
0.00139291
0.00162074
0.00187227
0.00215014
0.0024574
0.00279743
0.00317404
0.00359147
0.00405445
0.00456827
0.00513881
0.00577264
0.00647706
0.00726021
0.00813114
0.00909994
0.0101778
0.0113773
0.0127122
0.014198
0.0158519
0.017693
0.0197425
0.0220239
0.0245635
0.0273903
0.0305365
0.0340377
0.0379336
0.0422678
0.0470886
0.0524493
0.0584084
0.0650303
0.0723857
0.0805514
0.0896112
0.0996555
0.110782
0.123093
0.136697
0.151708
0.168238
0.186399
0.206291
0.227999
0.251578
0.27703
0.304286
0.333157
0.363288
0.394066
0.424508
0.453084
0.477466
0.494147
0.497917
0.481104
0.432282
0.334762
0.167586
-0.108855
-0.522258
-1.15853
-1.98736
-3.23303
-4.60694
-6.25343
-7.70487
3.29878e-05
0.000108416
0.000204444
0.0003082
0.000427232
0.000557975
0.000703575
0.000863667
0.00104058
0.00123528
0.00145007
0.0016869
0.00194836
0.0022372
0.00255658
0.00291003
0.0033015
0.0037354
0.00421667
0.00475078
0.00534387
0.00600274
0.006735
0.0075491
0.00845445
0.00946154
0.010582
0.0118289
0.0132165
0.014761
0.0164803
0.018394
0.0205244
0.0228959
0.0255357
0.028474
0.0317442
0.0353835
0.0394329
0.0439378
0.0489485
0.0545202
0.0607139
0.0675967
0.0752417
0.0837291
0.0931461
0.103587
0.115153
0.127951
0.142097
0.157706
0.1749
0.193794
0.214497
0.237103
0.261671
0.288218
0.31668
0.346885
0.378486
0.410889
0.443126
0.473687
0.50026
0.51935
0.525737
0.511692
0.465605
0.370375
0.204186
-0.0739616
-0.495754
-1.15195
-2.01274
-3.34102
-4.79027
-6.67389
-8.16126
3.44323e-05
0.000113273
0.000213225
0.000321228
0.000444965
0.000580831
0.000732042
0.000898263
0.00108189
0.00128396
0.00150684
0.00175259
0.00202387
0.00232356
0.00265493
0.00302166
0.00342784
0.00387805
0.0043774
0.0049316
0.00554699
0.00623065
0.00699045
0.00783518
0.0087746
0.00981959
0.0109822
0.012276
0.0137158
0.0153184
0.0171023
0.0190881
0.0212985
0.0237591
0.0264981
0.0295467
0.0329397
0.0367155
0.0409168
0.0455908
0.0507893
0.05657
0.0629959
0.0701367
0.0780685
0.0868745
0.0966451
0.107479
0.11948
0.132762
0.147443
0.163647
0.181498
0.201121
0.222631
0.246129
0.271686
0.299326
0.328999
0.360544
0.393633
0.427689
0.461769
0.494389
0.523267
0.544939
0.554204
0.543315
0.500531
0.408407
0.24434
-0.0339598
-0.462308
-1.13665
-2.0273
-3.44116
-4.96662
-7.03635
-8.60282
3.58875e-05
0.000118156
0.000222024
0.000334261
0.000462674
0.000603625
0.000760396
0.000932689
0.00112296
0.00133232
0.00156321
0.00181777
0.00209877
0.00240919
0.00275242
0.00313228
0.003553
0.00401933
0.00453658
0.00511063
0.00574808
0.00645626
0.00724331
0.00811834
0.00909146
0.0101739
0.0113783
0.0127184
0.0142099
0.01587
0.0177178
0.0197747
0.0220644
0.0246131
0.0274502
0.0306079
0.0341223
0.0380333
0.0423849
0.0472259
0.0526104
0.0585977
0.0652534
0.0726495
0.080865
0.0899861
0.100107
0.111329
0.123762
0.137522
0.152734
0.169527
0.188031
0.208377
0.230689
0.255076
0.281617
0.31035
0.341236
0.37413
0.408723
0.44446
0.480427
0.515178
0.546475
0.570901
0.583303
0.575959
0.537056
0.448882
0.288128
0.0113368
-0.421537
-1.11196
-2.02994
-3.53278
-5.1325
-7.42725
-9.01667
3.73529e-05
0.000123062
0.000230837
0.000347292
0.00048035
0.000626346
0.000788626
0.00096693
0.00116378
0.00138035
0.00161915
0.00188242
0.00217302
0.00249404
0.002849
0.00324183
0.00367692
0.00415919
0.00469412
0.00528781
0.00594707
0.00667947
0.00749346
0.00839844
0.00940487
0.0105244
0.01177
0.013156
0.0146985
0.0164154
0.0183265
0.0204537
0.0228217
0.0254576
0.0283916
0.0316572
0.0352917
0.0393362
0.0438363
0.0488426
0.0544108
0.0606024
0.0674853
0.0751339
0.0836299
0.0930627
0.10353
0.115136
0.127996
0.14223
0.157968
0.175344
0.194495
0.215559
0.238668
0.263938
0.291462
0.321285
0.353386
0.387636
0.423747
0.461192
0.499092
0.536044
0.569868
0.597216
0.613014
0.609605
0.575167
0.49181
0.335611
0.0620966
-0.37307
-1.07717
-2.01952
-3.61423
-5.28649
-7.87125
-9.49568
3.88281e-05
0.00012799
0.000239662
0.000360317
0.000497986
0.000648985
0.000816719
0.00100097
0.00120432
0.00142801
0.00167463
0.00194651
0.00224659
0.00257809
0.00294462
0.00335026
0.00379955
0.00429756
0.00484996
0.00546304
0.00614384
0.00690019
0.00774079
0.00867536
0.00971471
0.0108708
0.0121571
0.0135885
0.0151815
0.0169545
0.018928
0.0211248
0.0235701
0.0262921
0.0293219
0.0326941
0.0364472
0.0406237
0.0452706
0.0504402
0.0561899
0.0625834
0.0696907
0.0775888
0.0863621
0.096103
0.106912
0.118899
0.132181
0.146884
0.163142
0.181095
0.200888
0.222664
0.246564
0.272713
0.301215
0.332127
0.365444
0.401057
0.438699
0.477877
0.51775
0.556971
0.593429
0.623865
0.643311
0.644224
0.61484
0.537182
0.386834
0.118466
-0.316553
-1.03157
-1.99489
-3.68391
-5.42728
-8.27963
-9.92195
4.03126e-05
0.000132938
0.000248495
0.000373329
0.000515575
0.00067153
0.000844661
0.00103479
0.00124456
0.00147528
0.00172963
0.00201
0.00231945
0.00266128
0.00303924
0.00345753
0.00392083
0.00443438
0.00500402
0.00563625
0.00633832
0.0071183
0.00798519
0.00894898
0.0100208
0.0112131
0.0125396
0.0140158
0.0156585
0.017487
0.0195222
0.0217876
0.0243093
0.0271163
0.0302407
0.0337182
0.0375884
0.0418952
0.0466871
0.0520179
0.0579469
0.0645398
0.0718688
0.0800133
0.0890605
0.0991058
0.110253
0.122615
0.136315
0.151481
0.168254
0.18678
0.207208
0.22969
0.254374
0.281397
0.310872
0.342871
0.377405
0.414384
0.453571
0.494504
0.536391
0.577945
0.617138
0.650821
0.674162
0.679781
0.656039
0.584976
0.441816
0.180565
-0.251653
-0.974446
-1.95484
-3.74
-5.55223
-8.78904
-10.414
4.18057e-05
0.000137903
0.000257331
0.000386323
0.000533108
0.000693972
0.000872439
0.00106838
0.00128449
0.00152215
0.00178412
0.00207287
0.00239155
0.00274357
0.00313281
0.00356358
0.00404071
0.00456959
0.00515624
0.00580737
0.00653042
0.00733373
0.00822654
0.00921916
0.0103231
0.011551
0.0129173
0.0144375
0.0161295
0.0180126
0.0201087
0.0224418
0.025039
0.0279298
0.0311476
0.034729
0.0387148
0.0431502
0.0480851
0.053575
0.059681
0.0664707
0.0740185
0.0824062
0.0917238
0.10207
0.113551
0.126284
0.140396
0.156021
0.173303
0.192394
0.213451
0.236633
0.262096
0.289987
0.32043
0.353512
0.389262
0.427612
0.468354
0.511063
0.555
0.598947
0.640973
0.678055
0.705532
0.71623
0.698713
0.635149
0.500554
0.248483
-0.178069
-0.905052
-1.8981
-3.77972
-5.66172
-9.23529
-10.9008
4.33068e-05
0.000142883