/*--------------------------------*- C++ -*----------------------------------*\
| =========                 |                                                 |
| \\      /  F ield         | OpenFOAM: The Open Source CFD Toolbox           |
|  \\    /   O peration     | Version:  4.1                                   |
|   \\  /    A nd           | Web:      www.OpenFOAM.org                      |
|    \\/     M anipulation  |                                                 |
\*---------------------------------------------------------------------------*/
FoamFile
{
    version     2.0;
    format      ascii;
    class       volVectorField;
    location    "1";
    object      U;
}
// * * * * * * * * * * * * * * * * * * * * * * * * * * * * * * * * * * * * * //

dimensions      [0 1 -1 0 0 0 0];

internalField   nonuniform List<vector> 
6785
(
(4.87723e-15 -2.29834 16.4769)
(7.07743e-15 -7.8798 12.9647)
(-2.82675e-15 -5.07039 13.7345)
(1.8282e-15 -5.0073 13.2251)
(-6.27093e-17 -4.20299 13.0791)
(-1.68065e-15 -3.78332 12.7827)
(9.09186e-16 -3.35175 12.494)
(-1.73703e-16 -3.0436 12.1524)
(-9.98009e-16 -2.80422 11.7706)
(-1.80637e-16 -2.67287 11.3361)
(-7.06604e-16 -2.63196 10.9076)
(-6.68269e-16 -2.68766 10.5688)
(-4.05133e-16 -3.17769 10.1289)
(1.87197e-16 -3.35051 9.38689)
(1.50971e-15 -0.10244 7.50228)
(1.40033e-14 -10.03 27.1576)
(1.09248e-14 -16.5489 22.9319)
(-2.50256e-15 -11.1731 23.5749)
(2.09697e-15 -12.23 21.5755)
(-2.72912e-15 -10.4441 20.7251)
(1.09924e-15 -9.9459 19.4658)
(9.69845e-16 -9.02561 18.4052)
(-1.21283e-15 -8.33105 17.2574)
(3.48092e-15 -7.59162 16.1039)
(-3.93745e-16 -6.90382 14.8957)
(-2.21343e-15 -6.2832 13.7193)
(3.6923e-15 -5.70174 12.6025)
(-6.01234e-16 -4.69385 10.6085)
(-4.06713e-15 -1.97774 5.26817)
(-1.05215e-15 1.55877 -2.37157)
(5.27442e-14 -11.7648 27.2362)
(1.52196e-14 -17.1817 23.9114)
(-1.08261e-15 -11.5744 24.4149)
(2.22653e-14 -13.5429 21.44)
(-2.3319e-15 -11.1142 20.7292)
(3.79598e-16 -11.0481 18.8389)
(1.72322e-14 -9.94674 17.5804)
(2.71612e-15 -9.32508 16.084)
(5.77357e-15 -8.54226 14.6836)
(1.90322e-14 -7.81566 13.2218)
(3.56281e-15 -7.05789 11.7923)
(4.6733e-15 -6.37326 10.407)
(1.79793e-14 -5.53656 8.68368)
(5.42742e-15 -2.6544 4.85607)
(-1.79789e-15 1.19606 -5.70691)
(4.33092e-14 -11.7736 24.4551)
(3.2772e-14 -15.9848 23.3365)
(1.37382e-15 -11.6952 22.5338)
(2.56633e-14 -12.9646 19.6178)
(1.30312e-14 -11.2662 18.8554)
(5.60594e-15 -11.1389 17.2276)
(1.60861e-14 -10.3886 16.0292)
(1.13183e-14 -9.83399 14.7772)
(9.63158e-15 -9.23593 13.6102)
(1.77123e-14 -8.62928 12.4916)
(1.26318e-14 -7.9925 11.4052)
(9.87738e-15 -7.32417 10.3998)
(1.71509e-14 -6.66079 9.25609)
(1.30121e-14 -5.13318 7.5832)
(2.88639e-15 -2.53748 2.0762)
(-2.11335e-14 -12.0645 23.7833)
(5.34522e-14 -14.4222 22.2209)
(7.95803e-15 -10.9045 20.5013)
(8.11423e-15 -11.6056 17.9456)
(1.81954e-15 -10.4429 17.3183)
(5.07156e-15 -10.3496 16.1685)
(4.63698e-15 -9.86746 15.2962)
(-7.04665e-15 -9.43043 14.4431)
(-1.91689e-15 -9.0177 13.6394)
(2.55226e-15 -8.54467 12.9419)
(-4.79408e-15 -8.11437 12.2432)
(3.3693e-15 -7.58528 11.6713)
(7.35772e-15 -7.07945 10.9149)
(-2.22424e-15 -6.14555 10.0354)
(3.54458e-15 -3.56653 5.2847)
(-9.86577e-14 -12.4771 24.485)
(1.98735e-14 -13.8862 21.4633)
(-2.19122e-15 -9.60054 18.6492)
(-1.82173e-14 -10.3064 16.1448)
(-4.20419e-14 -9.29314 15.8741)
(-2.70013e-14 -9.42694 15.1416)
(-1.63694e-14 -9.14885 14.6594)
(-4.86267e-14 -8.88931 14.1727)
(-3.99456e-14 -8.68389 13.6928)
(-2.03073e-14 -8.37115 13.3339)
(-4.27476e-14 -8.17786 12.9236)
(-2.61805e-14 -7.81801 12.6738)
(-1.18812e-14 -7.57814 12.1983)
(-4.19188e-14 -6.96264 11.8083)
(-1.92216e-14 -4.49151 7.32633)
(-1.0685e-13 -12.1295 23.8438)
(-4.19291e-14 -14.5481 22.2021)
(-2.62137e-14 -9.20106 17.8152)
(-3.17434e-14 -9.41843 14.7414)
(-7.93106e-14 -8.515 14.6656)
(-6.16624e-14 -8.79924 14.3206)
(-3.07342e-14 -8.68387 14.1595)
(-8.34417e-14 -8.55727 13.953)
(-7.09579e-14 -8.49804 13.7121)
(-3.36663e-14 -8.29571 13.5829)
(-7.72482e-14 -8.26115 13.3601)
(-5.34016e-14 -7.99921 13.3111)
(-2.84399e-14 -7.97036 13.0365)
(-8.41281e-14 -7.53642 12.9782)
(-4.60114e-14 -5.34242 8.78657)
(1.22809e-14 -11.0616 21.6213)
(1.28907e-15 -14.6543 22.4157)
(-7.2075e-15 -9.67848 17.7837)
(-1.94298e-14 -9.11657 14.2503)
(-7.39427e-14 -8.31123 14.04)
(-4.53744e-14 -8.56034 13.9632)
(-1.93544e-14 -8.53773 13.9811)
(-8.21805e-14 -8.46579 13.9437)
(-5.34145e-14 -8.47387 13.8476)
(-2.59171e-14 -8.32852 13.8471)
(-8.16739e-14 -8.36865 13.7385)
(-3.6772e-14 -8.1673 13.7969)
(-3.03089e-14 -8.25047 13.6687)
(-1.03972e-13 -7.90268 13.7208)
(-2.16106e-14 -6.0123 9.92989)
(1.88359e-13 -9.91298 19.2842)
(1.21683e-13 -13.7874 21.2948)
(5.56193e-14 -9.89336 17.5443)
(7.50423e-15 -9.17856 14.3639)
(-3.62723e-14 -8.45284 14.0839)
(1.24003e-14 -8.62064 14.0841)
(9.27566e-15 -8.60711 14.1501)
(-4.5619e-14 -8.54788 14.1747)
(2.25111e-15 -8.57022 14.1437)
(-4.70115e-15 -8.45821 14.1876)
(-5.02099e-14 -8.50814 14.1453)
(1.92503e-14 -8.37364 14.2293)
(-1.66971e-14 -8.46485 14.2125)
(-9.23616e-14 -8.17615 14.1742)
(5.24914e-14 -6.51829 10.8992)
(2.91576e-13 -9.01009 17.5218)
(1.93359e-13 -12.5287 19.5095)
(9.11101e-14 -9.52605 16.8461)
(2.42583e-14 -9.16934 14.461)
(1.93435e-15 -8.53576 14.3341)
(5.49955e-14 -8.69092 14.3104)
(3.07636e-14 -8.64478 14.3774)
(-1.66294e-15 -8.60376 14.4057)
(4.56335e-14 -8.61798 14.4032)
(1.36853e-14 -8.54829 14.4423)
(-7.14343e-15 -8.56423 14.4486)
(6.3024e-14 -8.5291 14.4958)
(3.74051e-15 -8.54319 14.5784)
(-6.15987e-14 -8.35109 14.3472)
(9.91914e-14 -6.87122 11.7049)
(2.39167e-13 -8.46731 16.4852)
(1.60422e-13 -11.5755 18.1136)
(7.34117e-14 -9.14741 16.3511)
(1.38461e-14 -9.21033 14.6889)
(1.56567e-14 -8.64168 14.7427)
(5.47271e-14 -8.82369 14.664)
(2.63098e-14 -8.73774 14.722)
(2.01135e-14 -8.72226 14.7246)
(4.80969e-14 -8.71095 14.732)
(1.22488e-14 -8.69284 14.7316)
(1.60829e-14 -8.63666 14.7785)
(6.09898e-14 -8.72876 14.7458)
(9.60276e-15 -8.5988 14.93)
(-2.31027e-14 -8.55845 14.4576)
(6.89942e-14 -7.20102 12.5686)
(3.70054e-14 -7.97642 15.476)
(6.07233e-14 -10.7227 16.8267)
(1.84509e-14 -8.69559 15.7548)
(-1.59292e-14 -9.08556 14.6234)
(9.64599e-15 -8.54744 14.809)
(1.61729e-14 -8.77628 14.6876)
(8.3072e-16 -8.65911 14.7549)
(1.61301e-14 -8.67871 14.7363)
(9.60087e-15 -8.63617 14.7624)
(-7.90836e-15 -8.68356 14.728)
(1.77991e-14 -8.53352 14.8195)
(1.70418e-14 -8.76504 14.6887)
(-6.90498e-15 -8.43719 14.9674)
(-2.70731e-15 -8.6312 14.3421)
(-1.05167e-14 -7.3945 13.2209)
(-1.86742e-13 -7.77417 14.9412)
(-4.02293e-14 -10.5 16.6253)
(-4.30611e-14 -8.65186 15.8402)
(-4.29054e-14 -9.16097 14.9425)
(6.90166e-15 -8.59241 15.217)
(-3.51224e-14 -8.85915 15.0586)
(-2.5765e-14 -8.6879 15.1525)
(5.7954e-15 -8.74516 15.1239)
(-4.05909e-14 -8.66971 15.1637)
(-2.9029e-14 -8.77325 15.076)
(1.29835e-14 -8.5524 15.2221)
(-3.8644e-14 -8.94811 14.9984)
(-3.15449e-14 -8.48517 15.4144)
(-1.13429e-14 -8.75738 14.3206)
(-8.26287e-14 -7.65325 13.9866)
(-3.04386e-13 -7.15035 13.8769)
(-8.97509e-14 -10.0434 16.1214)
(-8.13613e-14 -8.3547 15.5688)
(-5.14647e-14 -8.94771 14.9908)
(1.67498e-14 -8.39378 15.1594)
(-7.65207e-14 -8.62406 14.9251)
(-5.26133e-14 -8.42245 14.9339)
(2.11961e-14 -8.4447 14.7045)
(-7.39118e-14 -8.25747 14.684)
(-4.22861e-14 -8.41778 14.4275)
(2.01241e-14 -7.96604 14.5037)
(-8.98613e-14 -8.47488 14.0609)
(-4.10196e-14 -7.66418 14.3652)
(-4.36466e-14 -8.32605 13.6685)
(-1.16399e-13 -7.36494 13.9019)
(-4.20801e-13 -7.8936 14.5623)
(-1.30233e-13 -10.7901 17.3837)
(-8.65237e-14 -9.06024 16.7875)
(-4.14874e-14 -9.16719 15.4616)
(8.69452e-15 -8.46503 15.6667)
(-7.17039e-14 -8.41215 15.3468)
(-2.29164e-14 -8.08137 15.2923)
(1.76412e-14 -7.95909 15.4472)
(-5.50669e-14 -7.84701 15.3779)
(-1.89754e-14 -7.80797 15.3966)
(-1.15151e-14 -7.74076 15.4938)
(-7.85702e-14 -8.16669 15.3799)
(-3.88963e-14 -8.11075 16.1238)
(-8.29149e-14 -9.14827 15.7644)
(-1.06709e-13 -6.1614 12.4224)
(2.64667e-17 1.64321 6.27469)
(1.17521e-15 -0.224707 0.692238)
(1.26724e-15 -0.123692 -0.560623)
(1.05727e-15 0.00713785 -0.378126)
(6.83202e-16 -0.00385508 -0.163784)
(9.58947e-16 -0.0311955 0.37387)
(4.32262e-16 -0.0995909 0.166167)
(4.21589e-16 -0.0532076 0.0286392)
(2.5772e-15 0.0294116 0.0364147)
(1.28751e-14 0.218801 0.476108)
(1.40542e-14 -0.493015 0.221227)
(1.21151e-14 0.311747 0.167374)
(9.12969e-15 -0.524577 0.470925)
(1.58724e-15 -0.163332 0.0660411)
(7.58243e-16 -0.155347 0.0476753)
(9.95771e-16 -0.149417 0.214226)
(3.26242e-15 -0.258449 0.507105)
(3.19499e-15 -0.249164 0.128635)
(2.53026e-15 -0.224872 0.248873)
(2.28951e-15 -0.349058 0.407776)
(2.10923e-15 -0.328146 0.0617464)
(2.62471e-15 -0.299558 0.205464)
(1.53453e-15 -0.334883 0.331)
(-2.00212e-15 -0.461279 0.365593)
(-3.4221e-15 -0.377374 0.0783407)
(-3.91044e-15 -0.425461 0.253484)
(-3.35545e-15 -0.403914 0.388169)
(-3.00225e-15 -0.599411 0.492799)
(-2.07078e-15 -0.491622 0.226952)
(-2.07192e-15 -0.509527 0.341383)
(-1.44847e-15 -0.678363 0.397628)
(6.31189e-17 -0.597303 0.232859)
(7.00293e-16 -0.64276 0.410688)
(1.01578e-15 -0.618989 0.430924)
(1.85033e-15 -0.865876 0.52033)
(1.79102e-15 -0.740371 0.303677)
(1.91125e-15 -0.752773 0.371274)
(1.22598e-15 -0.970829 0.394172)
(-1.80516e-16 -0.867815 0.252577)
(-8.6712e-16 -0.92572 0.380146)
(-1.02265e-15 -0.873895 0.360388)
(-1.25132e-15 -1.17306 0.445604)
(-5.58229e-16 -1.01923 0.311145)
(2.38951e-16 -1.09223 0.479749)
(1.13705e-15 -1.03777 0.501232)
(1.94286e-15 -1.41648 0.657314)
(9.0889e-16 -1.23176 0.387391)
(4.67937e-16 -1.23161 0.453721)
(6.32114e-16 -1.57501 0.568213)
(9.66222e-16 -1.42035 0.381705)
(1.23328e-15 -1.51118 0.504331)
(9.45369e-16 -1.42138 0.481158)
(-4.1747e-17 -1.88864 0.71157)
(-8.97652e-16 -1.66684 0.524869)
(-1.13737e-15 -1.78486 0.704575)
(-4.61731e-16 -1.68779 0.71086)
(1.28362e-15 -2.27764 0.988815)
(2.06026e-15 -2.01536 0.620179)
(2.9723e-15 -2.00238 0.731911)
(4.22789e-15 -2.54725 1.07749)
(2.21141e-15 -2.31929 0.798397)
(7.97359e-16 -2.47485 0.977553)
(-5.15096e-16 -2.34129 0.973065)
(-1.2876e-15 -3.12528 1.39232)
(-6.47476e-16 -2.7949 0.917794)
(-3.52023e-16 -2.76917 1.06876)
(-1.0074e-16 -3.50429 1.5592)
(-1.99199e-16 -3.20167 1.07002)
(-4.52642e-16 -3.41994 1.16876)
(-6.46398e-16 -3.22248 1.16633)
(-9.43021e-16 -4.20369 1.92969)
(-5.06738e-16 -3.76181 1.41302)
(-2.07533e-16 -4.04427 1.53555)
(1.18094e-16 -3.80149 1.43244)
(7.53419e-16 -4.97105 2.0562)
(1.27354e-15 -4.49487 1.50336)
(2.50189e-15 -4.42226 2.02512)
(6.05152e-15 -5.5479 3.95159)
(5.77152e-15 -5.28851 3.65366)
(4.14971e-15 -5.2796 4.86293)
(-8.79022e-15 -5.77611 7.06082)
(-1.05218e-14 -5.45156 6.67317)
(-1.31194e-14 -5.58878 6.78949)
(2.51737e-15 -4.96275 6.64137)
(-1.07738e-14 -5.06709 8.49619)
(-1.01386e-14 -4.94741 10.0871)
(-9.99234e-15 -4.87002 10.5383)
(-1.03582e-14 -4.79717 10.9094)
(-1.03912e-14 -4.75834 11.0931)
(-9.83957e-15 -4.70924 10.9901)
(-6.34194e-15 -4.61011 10.5733)
(-1.87573e-15 -4.61884 10.1733)
(3.69937e-15 -3.58237 8.98743)
(1.96352e-15 -4.10382 10.8124)
(3.5612e-15 -3.89484 11.8379)
(2.48505e-15 -3.88421 12.3128)
(-5.0688e-15 -3.80241 12.7985)
(-5.71097e-15 -3.81211 13.1641)
(-8.75682e-15 -3.76059 12.7447)
(-1.23861e-14 -3.65831 11.7739)
(-1.53531e-14 -3.68981 11.0501)
(-3.44968e-15 -2.57275 10.0477)
(-4.14866e-15 -3.20495 11.8101)
(-3.85486e-15 -2.97455 13.296)
(-2.95263e-15 -2.9723 13.9748)
(-1.90941e-15 -2.90662 14.5272)
(-1.19949e-15 -2.91338 14.8647)
(-1.11227e-15 -2.89909 15.0269)
(-8.39177e-16 -2.89098 14.9239)
(-1.90746e-16 -2.8165 14.5467)
(4.54972e-16 -2.89425 14.1033)
(4.13853e-15 -1.76259 13.3298)
(-1.81954e-15 -2.52823 14.4395)
(-3.89427e-15 -2.35279 15.9015)
(-6.8471e-15 -2.39751 16.2269)
(-8.77774e-15 -2.36119 16.5465)
(-6.22627e-15 -2.39768 16.7203)
(7.10017e-15 -2.37467 16.7663)
(1.24141e-14 -2.34407 16.5501)
(1.16512e-14 -2.43972 16.1958)
(5.52672e-15 -1.32941 15.7504)
(7.19425e-15 -2.17976 16.5525)
(4.52518e-15 -1.99865 18.0082)
(4.73992e-17 -2.09774 17.8982)
(1.42021e-15 -2.06046 17.7529)
(1.0297e-15 -2.12607 17.4898)
(-1.35518e-15 -2.08272 17.2322)
(-9.9875e-15 -2.04328 16.9353)
(-2.96011e-14 -2.17829 16.8015)
(-4.50916e-15 -1.03788 17.5982)
(-8.95339e-15 -2.13574 17.9242)
(-1.35507e-14 -1.99553 18.5372)
(-1.49132e-14 -2.13718 17.9837)
(-5.35276e-15 -2.08364 17.7381)
(-9.39464e-16 -2.16549 17.5208)
(-8.02513e-16 -2.09481 17.2323)
(-1.59766e-16 -2.1023 16.8787)
(-4.80611e-16 -2.15735 16.8424)
(-1.08803e-14 -1.18195 18.4216)
(-1.67221e-14 -2.35932 18.2278)
(-1.78316e-14 -2.26143 17.9425)
(-1.85519e-14 -2.4145 17.7442)
(-1.9392e-14 -2.3232 17.4644)
(-2.25815e-14 -2.43658 17.2044)
(-3.45926e-14 -2.37214 17.1337)
(-3.62393e-14 -2.37858 16.7923)
(-3.9432e-14 -2.28781 16.4264)
(-4.37685e-14 -2.37147 16.1434)
(-5.6087e-14 -0.874362 16.3985)
(-7.59098e-14 -2.26718 17.2158)
(-8.5072e-14 -2.07127 17.1682)
(-8.22544e-14 -2.25569 17.1652)
(-8.53232e-14 -2.05213 17.0102)
(-1.05448e-13 -2.21406 16.4742)
(-1.80743e-13 -2.04499 15.1472)
(-2.69366e-13 -1.87549 13.5645)
(-2.59523e-13 -2.01799 13.0994)
(-2.03605e-13 -0.858884 11.7071)
(-2.31781e-13 -1.46545 12.9177)
(-1.91761e-13 -1.5746 12.5322)
(3.98402e-14 -1.5206 2.9829)
(4.48395e-15 -3.16284 1.27195)
(7.27918e-15 -2.95958 -1.41985)
(3.01299e-15 -2.76538 -1.39042)
(3.68605e-15 -3.51062 -2.28096)
(1.96208e-15 -2.47276 -1.91091)
(2.85866e-15 -2.90271 -3.17188)
(-3.37503e-16 -2.51901 -2.40022)
(-1.25506e-15 -2.02963 -1.89975)
(-1.40864e-15 -1.89239 -3.31483)
(-1.10512e-15 -1.5334 -2.64531)
(-7.15311e-16 -1.12545 -1.71181)
(-3.43784e-16 -0.752572 -2.58009)
(7.5158e-19 -0.713206 -1.41014)
(1.03945e-15 -0.337995 -2.32997)
(4.69844e-16 0.0712116 -2.56452)
(1.51801e-16 0.32732 -1.26874)
(6.81389e-16 0.564739 -1.67834)
(7.88007e-16 0.787004 -0.903232)
(1.89148e-16 0.936183 -1.20675)
(-1.83764e-15 1.36843 -1.32859)
(-2.12096e-15 1.42775 -0.626409)
(-2.49375e-15 1.60071 -0.757667)
(-1.54681e-15 2.10785 -0.770313)
(-4.9223e-16 1.81724 -0.360987)
(-1.88051e-16 2.50225 -0.547184)
(-2.82064e-17 2.12909 -0.318722)
(1.83008e-16 2.39505 -0.502835)
(2.2347e-16 2.87504 -0.525925)
(1.34752e-16 2.34465 -0.249376)
(1.60944e-16 3.24632 -0.318325)
(7.38853e-17 2.59634 -0.161551)
(2.1984e-17 2.98365 -0.279385)
(2.18685e-16 3.26551 -0.252655)
(1.89545e-16 2.77583 -0.0865008)
(-7.65562e-17 3.24885 -0.103461)
(-9.35607e-16 3.55626 -0.0210805)
(-9.40497e-16 2.78035 -0.00333237)
(-1.20592e-15 3.84763 -0.0697306)
(-6.02189e-16 2.98512 -0.0638893)
(-3.89056e-16 3.36626 -0.181432)
(-3.2462e-16 3.74867 -0.165115)
(-2.33962e-16 2.93171 -0.0755344)
(2.96809e-16 4.06861 -0.0788523)
(7.63538e-16 3.11439 -0.0268864)
(1.39757e-15 3.57401 -0.10763)
(1.69893e-15 3.78547 -0.0666766)
(9.05696e-16 3.14111 0.00840329)
(3.57751e-16 3.70429 0.0150173)
(-9.25103e-16 3.93657 0.107417)
(-1.0264e-15 3.03806 0.0595142)
(-1.57286e-15 4.21339 0.00976999)
(-1.02979e-15 3.21477 -0.017667)
(-3.09177e-16 3.6261 -0.125452)
(1.69337e-15 3.98271 -0.107832)
(1.74521e-15 3.09284 -0.0462147)
(1.73556e-15 4.29827 -0.040433)
(3.54092e-16 3.2608 -0.00189583)
(-6.52599e-16 3.74174 -0.0777431)
(-1.85874e-15 3.93502 -0.0388299)
(-1.42738e-15 3.25238 0.0241019)
(-1.43084e-15 3.84114 0.0326896)
(-9.65011e-16 4.05968 0.123658)
(-3.30036e-16 3.12571 0.0685819)
(-4.26246e-17 4.33888 0.0171581)
(2.58665e-16 3.29924 -0.0114849)
(8.22136e-16 3.72119 -0.121363)
(1.77443e-15 4.07967 -0.110869)
(1.39628e-15 3.16463 -0.0475873)
(1.42231e-15 4.40174 -0.04813)
(4.99062e-16 3.33623 -0.00432239)
(1.4009e-16 3.82772 -0.0859179)
(-1.31658e-16 4.03113 -0.0584756)
(-1.67459e-16 3.33448 0.012541)
(-2.85493e-16 3.93276 0.0106082)
(-1.80759e-16 4.18672 0.089802)
(5.14303e-17 3.21469 0.0496004)
(2.44269e-16 4.50821 -0.0477038)
(2.11135e-16 3.38671 -0.0947668)
(2.54599e-16 3.99333 -0.219094)
(8.15287e-113 0.00282532 0.00229601)
(4.40767e-112 0.00494818 0.00209608)
(2.56186e-111 0.00673679 0.00204276)
(1.52522e-110 0.00832401 0.00197399)
(9.07419e-110 0.00990692 0.00194651)
(5.25208e-109 0.0114244 0.00192344)
(2.81159e-108 0.0129384 0.00192008)
(1.20965e-107 0.0144382 0.00192684)
(1.14828e-107 0.0159471 0.00194679)
(-6.86443e-106 0.0174692 0.00197756)
(-1.3347e-104 0.0190163 0.0020194)
(-1.91425e-103 0.0205961 0.00207171)
(-2.45537e-102 0.0222173 0.00213432)
(-2.92948e-101 0.0238882 0.00220705)
(-3.24321e-100 0.0256168 0.00228985)
(-3.23931e-99 0.0274114 0.0023827)
(-2.71476e-98 0.0292801 0.00248568)
(-1.47241e-97 0.0312313 0.00259894)
(5.74026e-97 0.0332734 0.00272269)
(3.22498e-95 0.0354153 0.00285721)
(5.76226e-94 0.037666 0.00300286)
(6.75029e-93 0.040035 0.00316007)
(4.1292e-92 0.0425323 0.00332933)
(-3.88449e-91 0.0451683 0.00351122)
(-1.63361e-89 0.047954 0.0037064)
(-2.49839e-88 0.0509012 0.0039156)
(-8.91562e-88 0.0540224 0.00413964)
(6.52317e-86 0.0573309 0.00437944)
(2.2105e-84 0.0608411 0.00463601)
(4.01457e-83 0.0645683 0.00491047)
(3.3476e-82 0.0685292 0.00520405)
(-5.85378e-81 0.0727416 0.0055181)
(-3.09068e-79 0.0772248 0.00585412)
(-6.88375e-78 0.082 0.00621375)
(-8.2138e-77 0.0870899 0.00659878)
(1.76014e-76 0.0925192 0.00701117)
(3.09542e-74 0.0983149 0.00745308)
(6.76507e-73 0.104507 0.00792687)
(7.99855e-72 0.111126 0.00843513)
(1.35966e-70 0.118209 0.00898067)
(6.02566e-69 0.125793 0.00956658)
(1.24614e-67 0.13392 0.0101962)
(-3.8716e-66 0.142636 0.0108733)
(-3.24774e-64 0.151991 0.0116017)
(-7.71471e-63 0.16204 0.0123859)
(7.33744e-62 0.172843 0.0132305)
(9.69106e-60 0.184465 0.0141405)
(2.03642e-58 0.196978 0.0151215)
(-3.44555e-57 0.210459 0.0161792)
(-2.53922e-55 0.224992 0.0173198)
(-2.30777e-54 0.240671 0.0185497)
(1.61724e-52 0.257593 0.0198758)
(4.2999e-51 0.275867 0.0213047)
(-6.0501e-50 0.295604 0.0228435)
(-3.74359e-48 0.316928 0.0244986)
(2.70076e-49 0.339966 0.026276)
(2.33265e-45 0.364849 0.0281804)
(2.02792e-44 0.391713 0.0302145)
(-1.07657e-42 0.42069 0.0323784)
(-1.78209e-41 0.451905 0.0346674)
(3.50264e-40 0.485469 0.0370705)
(9.23033e-39 0.521466 0.0395675)
(-6.99375e-38 0.559933 0.0421252)
(-3.2411e-36 0.600843 0.0446926)
(3.72355e-36 0.644069 0.0471946)
(7.82642e-34 0.689343 0.0495242)
(2.21119e-33 0.7362 0.0515335)
(-1.22752e-31 0.783905 0.0530248)
(-6.85635e-31 0.831369 0.053741)
(8.39752e-30 0.877024 0.0533765)
(9.89069e-29 0.918889 0.0515155)
(2.19291e-27 0.953653 0.0479562)
(-1.68344e-26 0.9798 0.0418004)
(-1.46308e-24 0.98817 0.0342944)
(6.06492e-24 0.987132 0.0221298)
(6.53562e-22 0.946629 0.0131899)
(-1.36209e-21 0.919127 -0.0118036)
(-5.71843e-19 0.795131 -0.000161858)
(-2.45466e-18 0.869687 -0.426441)
(3.93466e-112 0.00286538 0.00332676)
(2.08114e-111 0.00499555 0.0030333)
(1.18608e-110 0.00675917 0.00295845)
(6.86787e-110 0.00834015 0.00286277)
(3.92302e-109 0.00991484 0.00282525)
(2.12579e-108 0.0114276 0.00279397)
(9.98318e-108 0.0129363 0.00279111)
(2.74506e-107 0.0144318 0.00280223)
(-2.07453e-106 0.0159364 0.0028325)
(-5.51219e-105 0.0174546 0.00287804)
(-8.24204e-104 0.0189979 0.00293955)
(-1.06579e-102 0.020574 0.003016)
(-1.28858e-101 0.0221916 0.00310727)
(-1.47638e-100 0.0238589 0.00321308)
(-1.5821e-99 0.025584 0.00333334)
(-1.52913e-98 0.027375 0.00346805)
(-1.22154e-97 0.0292401 0.00361731)
(-5.70239e-97 0.0311876 0.00378132)
(4.55448e-96 0.0332259 0.00396038)
(1.74418e-94 0.0353639 0.00415489)
(2.93396e-93 0.0376106 0.00436534)
(3.32429e-92 0.0399755 0.00459234)
(1.9331e-91 0.0424684 0.00483656)
(-2.05784e-90 0.0450998 0.00509882)
(-8.1208e-89 0.0478807 0.00538003)
(-1.22367e-87 0.0508228 0.0056812)
(-4.41974e-87 0.0539386 0.00600348)
(3.09982e-85 0.0572414 0.00634813)
(1.04566e-83 0.0607456 0.00671656)
(1.87913e-82 0.0644663 0.00711032)
(1.50545e-81 0.0684202 0.00753111)
(-2.95644e-80 0.0726252 0.00798081)
(-1.49336e-78 0.0771005 0.00846146)
(-3.28232e-77 0.0818672 0.00897533)
(-3.82194e-76 0.0869479 0.00952487)
(1.23677e-75 0.0923673 0.0101128)
(1.58648e-73 0.0981525 0.0107421)
(3.40769e-72 0.104333 0.0114159)
(3.69825e-71 0.11094 0.0121378)
(4.57511e-70 0.118009 0.0129116)
(2.27556e-68 0.125579 0.0137416)
(5.508e-67 0.13369 0.0146323)
(-1.4602e-65 0.14239 0.0155887)
(-1.38431e-63 0.151727 0.0166162)
(-3.52458e-62 0.161756 0.0177206)
(2.42295e-61 0.172538 0.0189083)
(4.17714e-59 0.184137 0.020186)
(9.57371e-58 0.196624 0.021561)
(-1.25498e-56 0.210078 0.023041)
(-1.11229e-54 0.224583 0.0246341)
(-1.26554e-53 0.240231 0.0263489)
(6.50818e-52 0.25712 0.0281939)
(1.9956e-50 0.275358 0.030178)
(-1.96968e-49 0.295059 0.0323097)
(-1.62086e-47 0.316343 0.0345967)
(-4.41123e-47 0.33934 0.0370457)
(9.59541e-45 0.364181 0.0396613)
(1.09495e-43 0.391003 0.0424448)
(-4.23775e-42 0.419938 0.0453928)
(-8.54314e-41 0.451116 0.0484944)
(1.29359e-39 0.484648 0.0517288)
(4.29274e-38 0.520621 0.0550607)
(-2.095e-37 0.559081 0.0584346)
(-1.51147e-35 0.600006 0.0617675)
(-1.77717e-35 0.643278 0.0649397)
(3.7593e-33 0.688643 0.0677834)
(1.98883e-32 0.73565 0.07007)
(-6.4509e-31 0.783584 0.0714974)
(-5.19598e-30 0.831374 0.0716776)
(7.33452e-29 0.877475 0.0701658)
(5.9437e-28 0.919902 0.0663246)
(-5.98402e-27 0.955389 0.0599982)
(2.10035e-26 0.982241 0.049663)
(7.45218e-25 0.991592 0.0378187)
(-1.88266e-23 0.990817 0.0190393)
(-1.43803e-22 0.95203 0.00611335)
(3.82057e-21 0.921862 -0.0225942)
(-2.28242e-19 0.822347 -0.0144467)
(-1.82397e-18 0.925891 -0.0476627)
(1.87641e-111 0.00289186 0.00391218)
(9.85652e-111 0.00502679 0.00357457)
(5.57995e-110 0.00677549 0.00349107)
(3.19647e-109 0.0083525 0.00338174)
(1.79482e-108 0.00992211 0.00333982)
(9.43396e-108 0.0114315 0.00330521)
(4.13118e-107 0.0129365 0.00330373)
(7.62753e-107 0.014429 0.00331831)
(-1.44815e-105 0.0159305 0.0033554)
(-2.99959e-104 0.0174458 0.00341022)
(-4.21558e-103 0.0189862 0.0034838)
(-5.28551e-102 0.0205596 0.00357488)
(-6.27035e-101 0.0221745 0.00368335)
(-7.09354e-100 0.0238391 0.00380889)
(-7.5317e-99 0.0255615 0.0039514)
(-7.22226e-98 0.0273498 0.00411089)
(-5.71203e-97 0.0292122 0.00428747)
(-2.58072e-96 0.0311569 0.00448138)
(2.31813e-95 0.0331924 0.00469297)
(8.46674e-94 0.0353275 0.00492269)
(1.41745e-92 0.0375712 0.00517113)
(1.61585e-91 0.039933 0.00543896)
(9.77792e-91 0.0424226 0.00572699)
(-8.96195e-90 0.0450506 0.00603614)
(-3.80221e-88 0.047828 0.00636746)
(-5.94444e-87 0.0507663 0.00672213)
(-2.76435e-86 0.0538781 0.00710146)
(1.30426e-84 0.0571767 0.00750691)
(4.68204e-83 0.0606763 0.0079401)
(8.67725e-82 0.0643922 0.0084028)
(7.48404e-81 0.0683409 0.00889696)
(-1.20821e-79 0.0725404 0.00942474)
(-6.64582e-78 0.0770098 0.00998849)
(-1.50483e-76 0.0817701 0.0105908)
(-1.82157e-75 0.086844 0.0112344)
(4.32193e-75 0.0922561 0.0119225)
(7.33849e-73 0.0980333 0.0126584)
(1.63717e-71 0.104205 0.0134458)
(1.71024e-70 0.110803 0.0142887)
(1.15839e-69 0.117862 0.0151915)
(6.94286e-68 0.125421 0.016159)
(2.32763e-66 0.133521 0.0171963)
(-3.62651e-65 0.142207 0.018309)
(-5.06596e-63 0.151531 0.0195034)
(-1.49455e-61 0.161545 0.0207859)
(2.35696e-61 0.172311 0.0221637)
(1.53219e-58 0.183892 0.0236444)
(4.13852e-57 0.196361 0.0252361)
(-2.8166e-56 0.209795 0.0269475)
(-4.16203e-54 0.224278 0.0287876)
(-6.40771e-53 0.239902 0.0307657)
(2.04243e-51 0.256767 0.0328914)
(8.00107e-50 0.274978 0.0351741)
(-3.258e-49 0.29465 0.0376229)
(-5.74073e-47 0.315905 0.0402459)
(-3.96978e-46 0.338872 0.0430496)
(3.0664e-44 0.363683 0.0460377)
(4.81987e-43 0.390474 0.04921)
(-1.22991e-41 0.419381 0.05256)
(-3.22359e-40 0.450534 0.0560724)
(3.25591e-39 0.484047 0.0597192)
(1.51358e-37 0.520011 0.0634544)
(-2.68883e-37 0.558475 0.0672078)
(-5.15203e-35 0.599425 0.0708754)
(-2.00603e-34 0.642752 0.0743086)
(1.25808e-32 0.688211 0.077301)
(1.07082e-31 0.735366 0.0795727)
(-2.12085e-30 0.783515 0.0807572)
(-2.78598e-29 0.831604 0.0803853)
(2.27516e-28 0.878103 0.0779308)
(4.31504e-27 0.921022 0.0726112)
(-1.42233e-26 0.957117 0.0643412)
(-3.41109e-25 0.984547 0.0511549)
(1.62305e-24 0.994625 0.0364478)
(-8.94705e-24 0.993961 0.0134687)
(-7.20838e-22 0.95591 -0.00212756)
(7.17644e-21 0.92388 -0.0356694)
(5.20297e-19 0.806965 -0.0321005)
(-6.40161e-18 0.917968 0.0376047)
(8.88281e-111 0.00293197 0.0045374)
(4.63663e-110 0.00507214 0.00416842)
(2.60783e-109 0.00679826 0.00408075)
(1.47758e-108 0.00836866 0.00395963)
(8.14667e-108 0.00993054 0.0039148)
(4.13806e-107 0.0114349 0.00387797)
(1.65998e-106 0.0129345 0.00387905)
(1.03845e-106 0.0144224 0.00389843)
(-9.00862e-105 0.0159195 0.00394388)
(-1.59208e-103 0.0174306 0.00400978)
(-2.1249e-102 0.0189669 0.0040975)
(-2.59034e-101 0.0205363 0.00420557)
(-3.01836e-100 0.0221473 0.00433391)
(-3.37379e-99 0.023808 0.00448216)
(-3.55223e-98 0.0255266 0.00465023)
(-3.38395e-97 0.027311 0.00483814)
(-2.65667e-96 0.0291695 0.00504603)
(-1.17278e-95 0.0311102 0.00527418)
(1.13962e-94 0.0331417 0.005523)
(4.04694e-93 0.0352726 0.00579304)
(6.77433e-92 0.037512 0.00608495)
(7.80543e-91 0.0398692 0.00639954)
(4.96957e-90 0.0423542 0.00673774)
(-3.68142e-89 0.0449773 0.00710062)
(-1.74692e-87 0.0477494 0.00748939)
(-2.86069e-86 0.0506823 0.00790543)
(-1.67085e-85 0.0537884 0.00835024)
(5.18215e-84 0.0570808 0.00882553)
(2.04069e-82 0.0605739 0.00933315)
(3.94186e-81 0.0642829 0.00987515)
(3.71684e-80 0.0682243 0.0104538)
(-4.54283e-79 0.0724159 0.0110716)
(-2.86453e-77 0.0768769 0.0117312)
(-6.75964e-76 0.0816282 0.0124356)
(-8.6245e-75 0.0866923 0.0131881)
(9.59856e-75 0.092094 0.0139921)
(3.28088e-72 0.0978601 0.0148517)
(7.75121e-71 0.10402 0.0157709)
(8.12689e-70 0.110605 0.0167545)
(1.52202e-69 0.11765 0.0178074)
(1.41424e-67 0.125194 0.0189351)
(8.74092e-66 0.133277 0.0201435)
(-3.78234e-65 0.141946 0.0214392)
(-1.6625e-62 0.15125 0.022829)
(-5.91644e-61 0.161244 0.0243205)
(-2.39403e-60 0.171988 0.0259219)
(5.07186e-58 0.183545 0.0276417)
(1.66836e-56 0.195988 0.0294893)
(-1.02858e-56 0.209394 0.0314745)
(-1.4179e-53 0.223848 0.0336073)
(-2.91035e-52 0.23944 0.0358985)
(5.27231e-51 0.256271 0.0383586)
(2.93566e-49 0.274446 0.0409982)
(5.56893e-49 0.29408 0.0438273)
(-1.80809e-46 0.315296 0.0468546)
(-2.21603e-45 0.338222 0.0500868)
(8.30343e-44 0.362993 0.0535273)
(1.85863e-42 0.389744 0.0571745)
(-2.82358e-41 0.418614 0.0610194)
(-1.06414e-39 0.449734 0.065042)
(5.43923e-39 0.483224 0.0692075)
(4.58189e-37 0.519177 0.0734593)
(7.13265e-37 0.557651 0.0777115)
(-1.47762e-34 0.598638 0.0818383)
(-1.02007e-33 0.642043 0.0856605)
(3.45174e-32 0.687635 0.08893)
(4.21385e-31 0.734995 0.0913119)
(-5.43196e-30 0.783444 0.092368)
(-1.06686e-28 0.831947 0.0915391)
(4.53888e-28 0.878998 0.0882028)
(1.81219e-26 0.922599 0.0814188)
(1.4199e-26 0.959531 0.0711379)
(-2.04559e-24 0.987776 0.0549532)
(-9.14685e-24 0.998839 0.0370848)
(1.35333e-22 0.998388 0.00952668)
(1.07472e-21 0.961501 -0.00927354)
(-8.38212e-22 0.927474 -0.0471854)
(3.13105e-19 0.827441 -0.0462593)
(-3.8798e-18 0.872599 -0.326566)
(4.1735e-110 0.00297062 0.00512383)
(2.1659e-109 0.00511539 0.00473461)
(1.21047e-108 0.00682109 0.00464589)
(6.78193e-108 0.00838506 0.00451581)
(3.66716e-107 0.00993937 0.00446969)
(1.79185e-106 0.0114384 0.00443202)
(6.41389e-106 0.0129325 0.00443655)
(-7.20915e-106 0.0144156 0.00446142)
(-5.24081e-104 0.0159079 0.00451567)
(-8.27571e-103 0.0174145 0.00459292)
(-1.05647e-101 0.0189464 0.0046949)
(-1.25447e-100 0.0205115 0.00481992)
(-1.43656e-99 0.0221183 0.00496797)
(-1.58711e-98 0.0237749 0.00513866)
(-1.65817e-97 0.0254893 0.00533192)
(-1.57127e-96 0.0272695 0.00554776)
(-1.22799e-95 0.0291237 0.00578638)
(-5.3589e-95 0.0310602 0.0060481)
(5.41116e-94 0.0330872 0.0063334)
(1.90126e-92 0.0352136 0.00664288)
(3.197e-91 0.0374483 0.00697731)
(3.73985e-90 0.0398007 0.00733759)
(2.52764e-89 0.0422806 0.0077248)
(-1.38447e-88 0.0448983 0.00814014)
(-7.83753e-87 0.0476649 0.00858498)
(-1.3577e-85 0.0505919 0.00906089)
(-9.71142e-85 0.0536918 0.00956957)
(1.89366e-83 0.0569776 0.0101129)
(8.59622e-82 0.0604637 0.0106931)
(1.75229e-80 0.0641653 0.0113124)
(1.82706e-79 0.0680987 0.0119734)
(-1.49418e-78 0.0722818 0.0126788)
(-1.18601e-76 0.0767337 0.0134317)
(-2.95798e-75 0.0814753 0.0142355)
(-4.03259e-74 0.086529 0.0150938)
(-2.07058e-74 0.0919195 0.0160107)
(1.40213e-71 0.0976734 0.0169904)
(3.59132e-70 0.10382 0.0180378)
(3.9757e-69 0.110391 0.019158)
(-4.71303e-69 0.117421 0.0203566)
(-1.50289e-67 0.124949 0.0216399)
(2.62637e-65 0.133015 0.0230144)
(2.59073e-64 0.141664 0.0244874)
(-4.58817e-62 0.150948 0.0260668)
(-2.12304e-60 0.16092 0.0277609)
(-2.16902e-59 0.171639 0.0295788)
(1.44074e-57 0.183171 0.0315302)
(6.12215e-56 0.195587 0.0336254)
(3.42995e-55 0.208963 0.0358753)
(-4.23951e-53 0.223385 0.0382913)
(-1.17262e-51 0.238943 0.040885)
(8.98032e-51 0.255737 0.0436682)
(9.59902e-49 0.273873 0.0466525)
(7.98562e-48 0.293468 0.0498486)
(-4.83899e-46 0.314642 0.053266)
(-9.63512e-45 0.337525 0.0569116)
(1.71516e-43 0.362252 0.0607882)
(6.16189e-42 0.388962 0.0648932)
(-3.88796e-41 0.417793 0.0692147)
(-2.96561e-39 0.448881 0.0737289)
(-8.49327e-40 0.482348 0.0783938)
(1.13525e-36 0.518294 0.0831429)
(6.27275e-36 0.556784 0.0878754)
(-3.37543e-34 0.59782 0.0924444)
(-3.56828e-33 0.641319 0.0966412)
(7.34927e-32 0.687068 0.100178)
(1.22978e-30 0.734669 0.102665)
(-1.03712e-29 0.783464 0.103596)
(-2.93064e-28 0.832443 0.102323)
(5.23264e-28 0.880123 0.0981273)
(4.96467e-26 0.924501 0.0899146)
(1.40499e-25 0.962375 0.0776564)
(-5.94122e-24 0.991542 0.0585287)
(-4.1892e-23 1.00367 0.0374964)
(4.80369e-22 1.00344 0.00542571)
(6.64627e-21 0.967477 -0.0166827)
(-2.4425e-20 0.930896 -0.0576285)
(-9.79753e-19 0.830687 -0.0541525)
(2.56006e-18 0.906741 0.0420568)
(1.94732e-109 0.00301254 0.0056898)
(1.00526e-108 0.00516127 0.00528832)
(5.58351e-108 0.00684559 0.00520111)
(3.09274e-107 0.00840236 0.00506461)
(1.63804e-106 0.00994828 0.00501868)
(7.65802e-106 0.0114413 0.00498148)
(2.34865e-105 0.0129291 0.00499038)
(-8.99902e-105 0.0144068 0.00502155)
(-2.91347e-103 0.0158936 0.00508523)
(-4.22558e-102 0.017395 0.00517439)
(-5.18701e-101 0.0189219 0.00529108)
(-6.00748e-100 0.0204821 0.00543347)
(-6.76268e-99 0.022084 0.0056016)
(-7.38611e-98 0.0237357 0.00579506)
(-7.66115e-97 0.0254453 0.0060138)
(-7.22984e-96 0.0272207 0.00625785)
(-5.64026e-95 0.02907 0.00652746)
(-2.46277e-94 0.0310015 0.00682299)
(2.48602e-93 0.0330234 0.00714498)
(8.77904e-92 0.0351445 0.00749412)
(1.48914e-90 0.0373738 0.00787128)
(1.77516e-89 0.0397205 0.00827748)
(1.27977e-88 0.0421945 0.0087139)