/*--------------------------------*- C++ -*----------------------------------*\
| =========                 |                                                 |
| \\      /  F ield         | OpenFOAM: The Open Source CFD Toolbox           |
|  \\    /   O peration     | Version:  4.1                                   |
|   \\  /    A nd           | Web:      www.OpenFOAM.org                      |
|    \\/     M anipulation  |                                                 |
\*---------------------------------------------------------------------------*/
FoamFile
{
    version     2.0;
    format      ascii;
    class       surfaceScalarField;
    location    "2";
    object      phi;
}
// * * * * * * * * * * * * * * * * * * * * * * * * * * * * * * * * * * * * * //

dimensions      [0 3 -1 0 0 0 0];

internalField   nonuniform List<scalar> 
13220
(
-798.118
2098.02
-1253.63
1755.71
-1719.16
1765.43
-2063.77
1644.51
-2347.76
1584.19
-2554.81
1506.95
-2692.72
1437.81
-2760.55
1368.04
-2762.52
1301.87
-2696.96
1234.34
-2549.54
1152.78
-2275.75
1026.11
-1785.36
809.508
-1003.16
517.996
296.743
-219.262
2317.28
-485.563
2022.02
-777.702
2057.57
-1010.6
1877.41
-1233.59
1807.18
-1411.49
1684.86
-1561.38
1587.7
-1676.17
1482.83
-1763.92
1389.62
-1821.72
1292.14
-1820.39
1151.45
-1682.49
888.225
-1282.47
409.486
-594.332
-170.137
-297.589
-124.617
2441.9
-320.704
2218.11
-450.53
2187.4
-522.386
1949.27
-582.101
1866.9
-596.851
1699.61
-589.417
1580.27
-550.903
1444.32
-485.938
1324.66
-397.417
1203.62
-298.729
1052.77
-210.6
800.103
-137.712
336.617
-121.546
-186.282
-419.135
128.329
2313.58
72.4627
2273.98
98.7204
2161.14
148.17
1899.82
202.377
1812.7
271.971
1630.02
349.006
1503.24
439.08
1354.25
543.498
1220.24
659.964
1087.16
765.58
947.152
790.319
775.37
606.443
520.503
149.713
270.463
-269.421
201.285
2112.3
177.211
2298.06
213.042
2125.32
257.256
1855.61
311.658
1758.3
358.585
1583.1
402.757
1459.07
440.708
1316.3
476.238
1184.72
507.709
1055.7
528.771
926.093
510.828
793.325
402.566
628.78
223.625
449.436
-45.7965
170.446
1941.85
202.987
2265.52
247.928
2080.38
294.683
1808.86
355.539
1697.45
398.968
1539.68
435.691
1422.35
454.697
1297.3
459.338
1180.08
448.176
1066.86
420.137
954.133
370.848
842.609
284.007
715.614
163.867
569.56
118.071
96.7938
1845.06
188.966
2173.35
273.069
1996.28
347.614
1734.32
429.578
1615.49
489.074
1480.18
533.759
1377.67
554.701
1276.36
551.773
1183.01
524.203
1094.43
471.972
1006.37
395.625
918.972
294.132
817.124
162.812
700.914
280.882
42.6441
1802.42
130.289
2085.71
243.334
1883.24
343.937
1633.72
436.966
1522.46
507.212
1409.94
554.205
1330.67
575.402
1255.16
571.518
1186.89
541.497
1124.45
486.118
1061.74
405.629
999.443
300.398
922.337
165.612
835.67
446.495
54.1644
1748.26
76.9145
2062.96
170.087
1790.06
275.473
1528.33
368.461
1429.47
438.852
1339.55
482.882
1286.64
501.4
1236.64
497.28
1191.01
471.753
1149.98
424.642
1108.85
355.673
1068.43
264.259
1013.77
142.913
957.035
589.408
105.931
1642.32
83.9518
2084.94
111.498
1762.52
186.67
1453.16
270.061
1346.08
333.614
1275.99
371.418
1248.84
387.322
1220.74
383.985
1194.35
364.304
1169.66
329.449
1143.71
277.204
1120.65
206.671
1084.28
110.013
1053.67
699.421
139.629
1502.69
141.791
2082.77
119.069
1785.23
140.946
1431.28
198.008
1289.01
246.149
1227.84
274.474
1220.51
285.241
1209.96
282.523
1197.06
267.63
1184.55
242.316
1169.02
205.735
1157.24
154.464
1135.55
83.2517
1124.88
782.672
133.665
1369.02
200.593
2015.84
195.044
1790.78
188.58
1437.73
212.891
1264.69
236.398
1204.33
249.98
1206.92
250.774
1209.16
242.28
1205.55
225.88
1200.94
201.143
1193.75
168.656
1189.71
125.397
1178.79
70.4265
1179.83
853.099
87.0477
1281.97
206.336
1896.55
258.496
1738.61
259.894
1436.33
253.421
1271.16
242.246
1215.5
229.509
1219.65
214.027
1224.64
194.549
1225.02
174.323
1221.16
150.824
1217.24
126.878
1213.65
95.2165
1210.45
63.7066
1211.34
916.805
117.307
1164.65
233.016
1780.83
296.629
1674.99
311.993
1420.96
306.147
1277
290.337
1231.31
272.268
1237.71
254.428
1242.48
231.821
1247.62
204.399
1248.58
171.053
1250.59
129.898
1254.8
82.6174
1257.73
45.1942
1248.76
961.999
473.915
793.337
896.404
890.48
782.191
647.163
511.003
370.005
246.682
136.415
56.5232
20.0036
13.0603
55.2734
8.04254e-05
18.3963
-18.3962
18.3964
18.3965
18.3965
-2.16417
20.5607
-2.16415
-2.16415
-2.16413
-29.2289
27.0648
-29.2289
-29.2289
-72.3847
43.1559
-72.3847
-72.3847
-72.3847
-116.379
43.9947
-116.379
-116.379
-169.595
53.2161
-169.595
-169.595
-169.595
-228.518
58.9228
-228.518
-228.518
-228.518
-284.23
55.712
-284.23
-284.23
-341.464
57.2337
-341.464
-341.464
-341.464
-397.798
56.3343
-397.798
-397.798
-466.22
68.422
-466.22
-466.22
-466.22
-539.284
73.0637
-539.284
-539.284
-539.284
-617.216
77.932
-617.216
-617.216
-717.475
100.259
-717.475
-717.475
-717.475
-829.88
112.406
-829.88
-829.88
-829.88
-955.738
125.858
-955.738
-955.738
-1098.23
142.497
-1098.23
-1098.23
-1098.23
-1270.74
172.507
-1270.74
-1270.74
-1515.57
244.832
-1515.57
-1515.57
-1515.57
-1919.96
404.386
-1919.96
-1919.96
-1919.96
-2677.64
757.678
-2677.64
-2677.64
-3786.02
1108.39
-3786.02
-3786.02
-3603.48
-3415.96
-3222.47
-4599.37
1572.38
-4407.98
-4195.44
-3973.82
-3750.65
-3524.1
-3292.96
-3056.56
-2816.04
-4464.38
1889.58
-4228.29
-3993.86
-3761.9
-3529.74
-3293.91
-3053.33
-2807.43
-2556.39
-4494.83
2190.24
-4245.49
-3995.65
-3746.82
-3497.93
-3249.15
-2999.73
-2748
-2492.47
-2233.01
-4423.41
2448.98
-4166.36
-3909.09
-3652.52
-3396
-3138.68
-2880.68
-2620.62
-2357.86
-4686.89
2588.24
-4427.95
-4170.84
-3915.06
-3658.67
-3400.85
-3142.27
-2882.41
-2621.39
-5005.69
2641.09
-4749.51
-4495.14
-4241.01
-3983.89
-3724.78
-3465.64
-3205.21
-2942.34
-5342.47
2663.82
-5074.24
-4807.52
-4540.91
-4274.48
-4007.01
-3714.56
-3421.14
-3124.77
-2826.19
-4993.83
2463.84
-4705.26
-4420.23
-4142.05
-3869.62
-3603.55
-3371.22
-3200.51
-3050.2
-3068.08
137.376
-2971.73
-2881.8
-2881.8
-2947.86
66.0614
-2895.59
-52.2657
-2895.59
-2845.96
-49.6358
-2845.96
-2785.09
-60.8662
-2667.77
-117.323
-2667.77
-2549.18
-118.584
-2374.06
-175.126
-2374.06
-2204.44
-169.614
-2204.44
-2044.89
-159.558
-1859.56
-185.325
-1859.56
-1671.4
-188.159
-1671.4
-1490.71
-180.687
-1295.58
-195.136
-1295.58
-1094.49
-201.086
-894.933
-199.559
-894.933
-702.705
-192.228
-702.705
-493.643
-209.062
-277.295
-216.348
-277.295
-64.6834
-212.612
-64.6833
142.851
-207.534
380.648
-237.798
380.648
586.614
-205.966
801.908
-215.293
801.908
987.589
-185.681
987.589
1147.91
-160.323
1309.49
-161.58
1309.49
1446.3
-136.807
1446.3
1562.25
-115.947
1680.89
-118.642
1680.89
1795.21
-114.325
1893.61
-98.3996
1893.61
1981.75
-88.1354
1981.75
2044.54
-62.7948
2114.42
-69.8795
2114.42
2199.58
-85.1616
2199.58
2239.47
-39.8823
2255.88
-16.4128
2255.88
2298.57
-42.6871
2311.67
-13.1008
2311.67
2405.01
-93.3405
2405.01
2391.17
13.8361
2345.9
45.2745
2345.9
2451.06
-105.168
2451.06
2474.02
-22.9513
2420.72
53.3004
2420.72
2472.18
-51.4632
2434
38.1751
2434
2568.53
-134.531
2568.53
-123.955
-0.946124
-5.36657
-0.912454
-8.49708
-0.899342
-10.9272
-0.889028
-13.1201
-0.885743
-15.3148
-0.886514
-17.4188
-0.892549
-19.5219
-0.902922
-21.6054
-0.917956
-23.7037
-0.93733
-25.8186
-0.961103
-27.9675
-0.989156
-30.1581
-1.02149
-32.4025
-1.05808
-34.7094
-1.09894
-37.0893
-1.1441
-39.5512
-1.1936
-42.105
-1.24753
-44.7601
-1.30598
-47.5262
-1.36907
-50.4131
-1.43696
-53.4307
-1.5098
-56.5893
-1.5878
-59.8997
-1.67118
-63.3726
-1.76018
-67.0196
-1.85509
-70.8525
-1.95621
-74.8838
-2.06387
-79.1267
-2.17845
-83.5948
-2.30035
-88.3027
-2.43
-93.2658
-2.56789
-98.5002
-2.71453
-104.023
-2.87049
-109.853
-3.03638
-116.01
-3.21286
-122.514
-3.40064
-129.387
-3.6005
-136.653
-3.81327
-144.338
-4.03984
-152.469
-4.28117
-161.074
-4.53831
-170.184
-4.81234
-179.833
-5.10444
-190.057
-5.41584
-200.894
-5.74783
-212.384
-6.10175
-224.57
-6.47896
-237.499
-6.88083
-251.22
-7.30869
-265.784
-7.76374
-281.244
-8.24703
-297.656
-8.75926
-315.076
-9.30068
-333.559
-9.87081
-353.158
-10.4681
-373.92
-11.0896
-395.883
-11.7302
-419.066
-12.382
-443.468
-13.0329
-469.048
-13.6657
-495.714
-14.2559
-523.302
-14.77
-551.543
-15.162
-580.026
-15.3723
-608.167
-15.3211
-635.081
-14.9152
-659.693
-14.0284
-680.148
-12.546
-694.892
-10.299
-699.838
-7.21918
-693.756
-3.18712
-667.535
1.63655
-622.098
7.1435
-538.937
11.8553
-422.052
27.5882
-189.151
16.2385
181.688
106.378
456.18
411.462
-1.2078
-5.41136
-1.16139
-8.54349
-1.14343
-10.9452
-1.13021
-13.1334
-1.12613
-15.3189
-1.12749
-17.4174
-1.13548
-19.5139
-1.14901
-21.5919
-1.16838
-23.6843
-1.19321
-25.7937
-1.22355
-27.9372
-1.25925
-30.1224
-1.30032
-32.3614
-1.34672
-34.663
-1.39846
-37.0375
-1.45558
-39.4941
-1.51813
-42.0425
-1.58621
-44.6921
-1.65994
-47.4525
-1.73947
-50.3335
-1.82497
-53.3452
-1.91664
-56.4977
-2.01472
-59.8016
-2.11949
-63.2678
-2.23124
-66.9078
-2.3503
-70.7334
-2.47704
-74.7571
-2.61186
-78.9919
-2.7552
-83.4515
-2.90755
-88.1504
-3.06943
-93.1039
-3.24139
-98.3283
-3.42407
-103.841
-3.61813
-109.659
-3.82427
-115.804
-4.04329
-122.295
-4.27601
-129.154
-4.52335
-136.406
-4.78625
-144.075
-5.06577
-152.189
-5.363
-160.776
-5.67914
-169.868
-6.01543
-179.497
-6.37319
-189.7
-6.75382
-200.513
-7.15874
-211.979
-7.58942
-224.139
-8.04733
-237.041
-8.53391
-250.734
-9.0505
-265.267
-9.59826
-280.696
-10.178
-297.076
-10.7902
-314.464
-11.4346
-332.915
-12.1097
-352.483
-12.8129
-373.217
-13.5394
-395.156
-14.2815
-418.324
-15.0277
-442.722
-15.7611
-468.314
-16.4579
-495.018
-17.0847
-522.675
-17.5962
-551.031
-17.9315
-579.69
-18.0119
-608.087
-17.734
-635.359
-16.9779
-660.449
-15.5844
-681.542
-13.4102
-697.066
-10.2556
-702.992
-6.03615
-697.976
-0.665786
-672.905
5.66326
-628.427
12.6493
-545.923
18.458
-427.861
32.9131
-203.606
16.3217
198.279
99.6719
372.83
376.603
-1.35344
-5.46237
-1.30222
-8.59471
-1.28152
-10.9659
-1.26698
-13.1479
-1.26261
-15.3233
-1.26455
-17.4155
-1.27383
-19.5046
-1.28934
-21.5764
-1.31133
-23.6624
-1.3394
-25.7657
-1.3736
-27.903
-1.41377
-30.0823
-1.4599
-32.3153
-1.51196
-34.611
-1.56996
-36.9795
-1.63394
-39.4301
-1.70397
-41.9725
-1.78014
-44.6159
-1.86259
-47.3701
-1.95149
-50.2447
-2.04701
-53.2497
-2.14939
-56.3953
-2.25889
-59.6921
-2.37579
-63.1509
-2.50044
-66.7832
-2.63318
-70.6007
-2.77442
-74.6159
-2.92461
-78.8417
-3.08421
-83.2919
-3.25375
-87.9808
-3.4338
-92.9239
-3.62498
-98.1371
-3.82795
-103.638
-4.04343
-109.444
-4.2722
-115.575
-4.5151
-122.052
-4.77302
-128.896
-5.04693
-136.132
-5.33788
-143.784
-5.64697
-151.88
-5.97538
-160.448
-6.32437
-169.519
-6.69528
-179.126
-7.08949
-189.305
-7.50847
-200.094
-7.95371
-211.534
-8.42675
-223.666
-8.92909
-236.539
-9.46219
-250.2
-10.0274
-264.702
-10.6257
-280.098
-11.258
-296.444
-11.9244
-313.797
-12.6242
-332.215
-13.3557
-351.752
-14.1153
-372.457
-14.8971
-394.374
-15.692
-417.529
-16.4864
-441.927
-17.2605
-467.54
-17.9867
-494.291
-18.6264
-522.035
-19.1277
-550.53
-19.4209
-579.397
-19.4169
-608.091
-18.9987
-635.777
-18.0313
-661.417
-16.3385
-683.235
-13.7581
-699.647
-10.0795
-706.671
-5.19955
-702.856
0.937915
-679.043
8.13896
-635.628
15.9746
-553.759
22.4029
-434.289
30.2112
-211.415
-1.99705
230.488
-47.3974
418.23
367.38
-1.51609
-5.51838
-1.46133
-8.64948
-1.43852
-10.9887
-1.42302
-13.1634
-1.4187
-15.3276
-1.42155
-17.4126
-1.43254
-19.4936
-1.45049
-21.5585
-1.47564
-23.6372
-1.50759
-25.7337
-1.54636
-27.8642
-1.59178
-30.0368
-1.64386
-32.2632
-1.70255
-34.5523
-1.76788
-36.9142
-1.83988
-39.3581
-1.91863
-41.8937
-2.00424
-44.5303
-2.09687
-47.2774
-2.19668
-50.1448
-2.30389
-53.1425
-2.41875
-56.2804
-2.54155
-59.5693
-2.6726
-63.0199
-2.81228
-66.6435
-2.96098
-70.452
-3.11914
-74.4577
-3.28724
-78.6736
-3.46581
-83.1133
-3.65542
-87.7912
-3.85669
-92.7226
-4.07031
-97.9235
-4.29699
-103.411
-4.53752
-109.203
-4.79275
-115.32
-5.0636
-121.781
-5.35102
-128.609
-5.65609
-135.827
-5.97992
-143.461
-6.3237
-151.536
-6.68872
-160.083
-7.07633
-169.131
-7.48795
-178.715
-7.92508
-188.868
-8.38927
-199.63
-8.8821
-211.041
-9.40519
-223.143
-9.9601
-235.984
-10.5483
-249.612
-11.1712
-264.079
-11.8298
-279.439
-12.5247
-295.749
-13.256
-313.066
-14.0225
-331.448
-14.822
-350.952
-15.65
-371.629
-16.4997
-393.525
-17.3602
-416.669
-18.2156
-441.072
-19.0431
-466.713
-19.8107
-493.524
-20.4742
-521.371
-20.9743
-550.03
-21.2316
-579.14
-21.1448
-608.178
-20.5819
-636.34
-19.3899
-662.609
-17.3723
-685.252
-14.3449
-702.674
-10.0793
-710.936
-4.45225
-708.483
2.57232
-686.067
10.8038
-643.859
19.6905
-562.646
27.0797
-441.678
37.3568
-221.692
12.9862
254.858
12.0561
419.16
327.973
-1.66954
-5.57755
-1.61297
-8.70605
-1.58866
-11.013
-1.57265
-13.1794
-1.56866
-15.3316
-1.57265
-17.4086
-1.58547
-19.4808
-1.60597
-21.538
-1.63434
-23.6088
-1.67017
-25.6979
-1.71348
-27.8209
-1.76411
-29.9862
-1.82205
-32.2052
-1.88725
-34.4871
-1.95975
-36.8417
-2.03959
-39.2783
-2.12686
-41.8064
-2.22168
-44.4355
-2.32421
-47.1749
-2.43465
-50.0344
-2.55323
-53.0239
-2.68022
-56.1534
-2.81595
-59.4335
-2.96075
-62.8751
-3.11503
-66.4892
-3.27922
-70.2878
-3.45379
-74.2831
-3.63928
-78.4881
-3.83625
-82.9163
-4.04533
-87.5821
-4.26719
-92.5007
-4.50255
-97.6881
-4.75222
-103.161
-5.01703
-108.939
-5.2979
-115.039
-5.59581
-121.483
-5.91182
-128.293
-6.24705
-135.492
-6.60271
-143.105
-6.98008
-151.159
-7.38052
-159.682
-7.80549
-168.706
-8.2565
-178.264
-8.73512
-188.39
-9.24302
-199.122
-9.78185
-210.502
-10.3533
-222.572
-10.959
-235.378
-11.6005
-248.971
-12.2791
-263.401
-12.9959
-278.723
-13.7513
-294.994
-14.5451
-312.272
-15.3761
-330.617
-16.2412
-350.087
-17.1356
-370.735
-18.0509
-392.609
-18.975
-415.745
-19.8898
-440.157
-20.7696
-465.833
-21.5782
-492.715
-22.2663
-520.683
-22.7674
-549.529
-22.993
-578.914
-22.8301
-608.34
-22.1323
-637.038
-20.7294
-664.012
-18.405
-687.577
-14.9529
-706.126
-10.1262
-715.763
-3.77969
-714.829
4.10856
-693.955
13.3627
-653.113
23.3036
-572.586
31.9831
-450.358
42.5797
-232.288
23.7371
273.701
-45.5525
488.45
335.721
-1.81984
-5.6387
-1.7626
-8.76329
-1.73737
-11.0382
-1.72126
-13.1955
-1.71788
-15.335
-1.72324
-17.4033
-1.73811
-19.4659
-1.76132
-21.5147
-1.79306
-23.5771
-1.83293
-25.658
-1.88091
-27.7729
-1.93687
-29.9303
-2.00077
-32.1413
-2.0726
-34.4152
-2.15238
-36.7619
-2.24017
-39.1905
-2.33606
-41.7106
-2.44019
-44.3313
-2.55273
-47.0624
-2.6739
-49.9132
-2.80396
-52.8938
-2.9432
-56.0142
-3.09196
-59.2848
-3.25063
-62.7164
-3.41962
-66.3202
-3.59942
-70.108
-3.79054
-74.092
-3.99355
-78.2851
-4.20906
-82.7008
-4.43775
-87.3535
-4.68034
-92.2581
-4.93762
-97.4308
-5.21044
-102.889
-5.49971
-108.649
-5.80641
-114.732
-6.1316
-121.158
-6.4764
-127.948
-6.84201
-135.126
-7.22974
-142.717
-7.64095
-150.748
-8.0771
-159.246
-8.53971
-168.244
-9.03041
-177.773
-9.55087
-187.869
-10.1028
-198.57
-10.688
-209.917
-11.3083
-221.952
-11.9652
-234.722
-12.6604
-248.275
-13.3953
-262.666
-14.1708
-277.947
-14.9874
-294.177
-15.8446
-311.415
-16.7409
-329.721
-17.6728
-349.155
-18.6346
-369.773
-19.6171
-391.627
-20.6066
-414.755
-21.583
-439.181
-22.5176
-464.898
-23.3707
-491.862
-24.0876
-519.966
-24.595
-549.021
-24.7954
-578.714
-24.5644
-608.571
-23.7413
-637.861
-22.1387
-665.614
-19.5199
-690.196
-15.656
-709.99
-10.2788
-721.14
-3.21914
-721.889
5.53892
-702.713
15.8411
-663.415
26.8922
-583.638
37.0126
-460.478
47.3055
-242.581
47.8455
273.161
26.3115
509.984
339.081
-1.96636
-5.70082
-1.90937
-8.82028
-1.88369
-11.0639
-1.86785
-13.2113
-1.86536
-15.3375
-1.8723
-17.3963
-1.88938
-19.4488
-1.91546
-21.4887
-1.9507
-23.5418
-1.99471
-25.614
-2.04747
-27.7202
-2.10883
-29.8689
-2.17879
-32.0714
-2.25731
-34.3367
-2.34443
-36.6748
-2.44021
-39.0947
-2.54476
-41.606
-2.65824
-44.2179
-2.78082
-46.9398
-2.91275
-49.7813
-3.05431
-52.7523
-3.20581
-55.8627
-3.36762
-59.123
-3.54015
-62.5438
-3.72387
-66.1365
-3.91929
-69.9126
-4.12695
-73.8843
-4.34747
-78.0646
-4.58152
-82.4668
-4.82981
-87.1052
-5.09313
-91.9948
-5.37231
-97.1517
-5.66827
-102.593
-5.98198
-108.336
-6.31449
-114.4
-6.66692
-120.805
-7.04048
-127.575
-7.43646
-134.73
-7.85623
-142.297
-8.30125
-150.303
-8.77305
-158.774
-9.27327
-167.744
-9.80362
-177.243
-10.3659
-187.307
-10.9618
-197.974
-11.5934
-209.285
-12.2623
-221.283
-12.9705
-234.013
-13.7195
-247.527
-14.5106
-261.875
-15.3449
-277.113
-16.2227
-293.299
-17.1435
-310.494
-18.1052
-328.759
-19.1041
-348.156
-20.1339
-368.744
-21.1843
-390.576
-22.2402
-413.699
-23.2795
-438.141
-24.2711
-463.907
-25.1714
-490.962
-25.9207
-519.217
-26.4393
-548.503
-26.6209
-578.532
-26.3301
-608.862
-25.3922
-638.799
-23.6023
-667.404
-20.7036
-693.094
-16.4435
-714.25
-10.5306
-727.053
-2.76893
-729.651
6.85932
-712.342
18.2276
-674.784
30.4294
-595.839
42.0503
-472.099
53.5608
-254.092
64.102
262.62
128.037
446.048
361.951
-2.10973
-5.76317
-2.05364
-8.87637
-2.02795
-11.0896
-2.01272
-13.2266
-2.01136
-15.3389
-2.02009
-17.3876
-2.03955
-19.4294
-2.06865
-21.4596
-2.10753
-23.503
-2.15579
-25.5657
-2.21343
-27.6625
-2.2803
-29.802
-2.35639
-31.9953
-2.44167
-34.2514
-2.5362
-36.5803
-2.64004
-38.9909
-2.75332
-41.4927
-2.87619
-44.095
-3.00886
-46.8071
-3.1516
-49.6386
-3.30469
-52.5992
-3.46849
-55.6989
-3.64339
-58.9481
-3.82983
-62.3574
-4.0283
-65.938
-4.23936
-69.7015
-4.4636
-73.6601
-4.70167
-77.8265
-4.95428
-82.2142
-5.22221
-86.8372
-5.50628
-91.7107
-5.80739
-96.8505
-6.12652
-102.273
-6.4647
-107.997
-6.82304
-114.041
-7.20276
-120.426
-7.60512
-127.172
-8.03149
-134.304
-8.48333
-141.846
-8.96218
-149.824
-9.46969
-158.267
-10.0076
-167.206
-10.5776
-176.673
-11.1817
-186.703
-11.8217
-197.334
-12.4997
-208.607
-13.2175
-220.565
-13.9769
-233.254
-14.7797
-246.724
-15.6273
-261.027
-16.5206
-276.22
-17.4598
-292.36
-18.4444
-309.51
-19.472
-327.732
-20.5385
-347.089
-21.637
-367.645
-22.7562
-389.457
-23.8798
-412.576
-24.984
-437.037
-26.035
-462.856
-26.9856
-490.011
-27.7718
-518.431
-28.3071
-547.967
-28.4773
-578.362
-28.1359
-609.204
-27.0945
-639.84
-25.1311
-669.368
-21.9682
-696.257
-17.329
-718.889
-10.8959
-733.486
-2.44413
-738.102
8.05539
-722.841
20.5089
-687.237
33.9099
-609.24
47.0065
-485.196
58.3345
-265.42
60.3929
260.561
10.2101
496.231
417.435
-2.25025
-5.82516
-2.19556
-8.93105
-2.17023
-11.1149
-2.15592
-13.2409
-2.15591
-15.3389
-2.16661
-17.3769
-2.18862
-19.4074
-2.22089
-21.4273
-2.26353
-23.4603
-2.31616
-25.5131
-2.37878
-27.5999
-2.45125
-29.7296
-2.53356
-31.913
-2.62569
-34.1593
-2.72769
-36.4783
-2.83965
-38.8789
-2.96171
-41.3707
-3.09403
-43.9627
-3.23684
-46.6643
-3.39042
-49.485
-3.55509
-52.4345
-3.73123
-55.5228
-3.91925
-58.7601
-4.11963
-62.157
-4.33289
-65.7248
-4.55963
-69.4748
-4.80047
-73.4193
-5.05612
-77.5709
-5.32732
-81.9429
-5.6149
-86.5497
-5.91975
-91.4059
-6.24282
-96.5275
-6.58514
-101.931
-6.94781
-107.635
-7.33203
-113.657
-7.73905
-120.019
-8.17023
-126.741
-8.62702
-133.847
-9.11096
-141.362
-9.62369
-149.311
-10.1669
-157.724
-10.7425
-166.63
-11.3522
-176.063
-11.9982
-186.057
-12.6824
-196.65
-13.4068
-207.883
-14.1734
-219.798
-14.9843
-232.443
-15.841
-245.867
-16.7451
-260.123
-17.6975
-275.267
-18.6985
-291.359
-19.7472
-308.461
-20.8411
-326.638
-21.9758
-345.955
-23.1437
-366.477
-24.3328
-388.268
-25.5256
-411.383
-26.6965
-435.866
-27.8094
-461.743
-28.814
-489.007
-29.6415
-517.603
-30.1996
-547.409
-30.3662
-578.195
-29.9841
-609.586
-28.8515
-640.973
-26.7294
-671.49
-23.3193
-699.667
-18.3193
-723.889
-11.3833
-740.422
-2.25458
-747.231
9.11633
-734.212
22.674
-700.795
37.3302
-623.897
51.9754
-499.841
63.424
-276.868
73.2268
250.759
18.0676
551.39
449.339
-2.3882
-5.88632
-2.33529
-8.98396
-2.31063
-11.1396
-2.29751
-13.254
-2.29908
-15.3373
-2.31194
-17.364
-2.33666
-19.3826
-2.37222
-21.3917
-2.41875
-23.4138
-2.47587
-25.456
-2.54358
-27.5322
-2.62174
-29.6514
-2.71034
-31.8244
-2.8094
-34.0603
-2.91895
-36.3687
-3.0391
-38.7588
-3.16999
-41.2398
-3.31181
-43.8208
-3.46481
-46.5113
-3.62929
-49.3205
-3.80559
-52.2582
-3.9941
-55.3343
-4.19528
-58.5589
-4.40963
-61.9427
-4.63773
-65.4967
-4.88017
-69.2324
-5.13765
-73.1618
-5.41091
-77.2976
-5.70073
-81.6531
-6.00801
-86.2424
-6.33367
-91.0802
-6.67873
-96.1824
-7.04427
-101.566
-7.43147
-107.248
-7.84158
-113.247
-8.27594
-119.584
-8.73598
-126.281
-9.22323
-133.36
-9.73931
-140.846
-10.2859
-148.764
-10.8649
-157.145
-11.4782
-166.017
-12.1278
-175.413
-12.8157
-185.369
-13.544
-195.922
-14.3149
-207.112
-15.1306
-218.983
-15.9929
-231.581
-16.9037
-244.956
-17.8645
-259.162
-18.8763
-274.255
-19.9392
-290.296
-21.0523
-307.348
-22.213
-325.477
-23.4165
-344.751
-24.6547
-365.239
-25.9148
-387.008
-27.1783
-410.119
-28.418
-434.627
-29.5956
-460.565
-30.6577
-487.944
-31.5316
-516.73
-32.1191
-546.822
-32.2903
-578.024
-31.8781
-609.998
-30.6677
-642.183
-28.4027
-673.755
-24.7638
-703.306
-19.423
-729.23
-12.003
-747.842
-2.21235
-757.022
10.0288
-746.453
24.7089
-715.475
40.669
-639.857
56.9248
-516.097
71.4869
-291.431
87.0277
235.218
129.896
508.522
485.894
-2.52382
-5.9463
-2.47297
-9.03482
-2.44928
-11.1633
-2.43758
-13.2657
-2.44093
-15.3339
-2.45612
-17.3488
-2.48369
-19.3551
-2.52269
-21.3527
-2.57323
-23.3633
-2.63495
-25.3943
-2.70785
-27.4593
-2.79179
-29.5675
-2.88679
-31.7294
-2.99284
-33.9542
-3.11001
-36.2515
-3.23841
-38.6304
-3.3782
-41.1
-3.52959
-43.6694
-3.69284
-46.348
-3.86826
-49.1451
-4.05622
-52.0702
-4.25716
-55.1333
-4.47154
-58.3445
-4.69991
-61.7143
-4.94287
-65.2537
-5.20107
-68.9742
-5.47522
-72.8876
-5.76612
-77.0067
-6.07461
-81.3446
-6.40162
-85.9154
-6.74812
-90.7337
-7.11521
-95.8153
-7.50401
-101.177
-7.91578
-106.836
-8.35183
-112.811
-8.81356
-119.123
-9.3025
-125.792
-9.82025
-132.842
-10.3685
-140.297
-10.9491
-148.184
-11.5639
-156.53
-12.215
-165.366
-12.9044
-174.724
-13.6342
-184.639
-14.4068
-195.149
-15.2244
-206.294
-16.0891
-218.118
-17.003
-230.667
-17.968
-243.991
-18.9857
-258.144
-20.057
-273.184
-21.1821
-289.171
-22.3601
-306.17
-23.5881
-324.249
-24.861
-343.478
-26.1703
-363.93
-27.5027
-385.675
-28.8385
-408.784
-30.1492
-433.316
-31.3945
-459.32
-32.5182
-486.821
-33.4436
-515.804
-34.0673
-546.198
-34.2522
-577.839
-33.8214
-610.429
-32.5471
-643.457
-30.1564
-676.145
-26.3084
-707.154
-20.6484
-734.89
-12.7651
-755.726
-2.3294
-767.457
10.7795
-759.562
26.5995
-731.295
43.9027
-657.16
61.8784
-534.072
77.4398
-306.992
91.0634
221.594
76.1583
523.428
548.952
-2.65733
-6.00483
-2.60872
-9.08342
-2.58625
-11.1857
-2.57621
-13.2757
-2.58151
-15.3286
-2.59919
-17.3312
-2.62977
-19.3245
-2.67235
-21.3102
-2.72701
-23.3086
-2.79344
-25.3278
-2.87163
-27.3811
-2.96146
-29.4776
-3.06293
-31.6279
-3.17606
-33.8411
-3.30093
-36.1267
-3.43765
-38.4937
-3.58641
-40.9512
-3.74741
-43.5084
-3.92096
-46.1745
-4.10738
-48.9587
-4.30706
-51.8706
-4.52047
-54.9199
-4.7481
-58.1169
-4.99054
-61.4719
-5.2484
-64.9958
-5.52239
-68.7002
-5.81326
-72.5968
-6.12185
-76.6981
-6.44904
-81.0174
-6.79581
-85.5686
-7.16321
-90.3663
-7.55236
-95.4262
-7.96447
-100.765
-8.40085
-106.399
-8.86287
-112.349
-9.35203
-118.634
-9.86992
-125.274
-10.4182
-132.294
-10.9987
-139.717
-11.6133
-147.569
-12.264
-155.879
-12.9529
-164.677
-13.6822
-173.995
-14.4541
-183.867
-15.271
-194.332
-16.1353
-205.43
-17.0491
-217.204
-18.0147
-229.701
-19.0341
-242.972
-20.1088
-257.07
-21.24
-272.053
-22.4277
-287.983
-23.6709
-304.927
-24.9667
-322.953
-26.3098
-342.135
-27.6912
-362.548
-29.0971
-384.269
-30.507
-407.374
-31.891
-431.932
-33.2071
-458.004
-34.3966
-485.631
-35.3791
-514.822
-36.0464
-545.531
-36.2544
-577.631
-35.8169
-610.866
-34.494
-644.78
-31.9957
-678.644
-27.9598
-711.19
-22.0038
-740.846
-13.68
-764.049
-2.61825
-778.519
11.3543
-773.535
28.3304
-748.271
47.0245
-675.854
66.8322
-553.88
83.2194
-323.379
98.9882
205.825
80.4641
541.952
586.729
-2.78889
-6.06171
-2.74268
-9.12962
-2.72164
-11.2068
-2.71345
-13.2839
-2.72088
-15.3212
-2.74122
-17.3108
-2.77494
-19.2908
-2.82122
-21.2639
-2.88014
-23.2497
-2.95139
-25.2566
-3.03497
-27.2975
-3.13077
-29.3818
-3.23881
-31.5199
-3.3591
-33.7208
-3.49174
-35.994
-3.63686
-38.3485
-3.79464
-40.7935
-3.96534
-43.3377
-4.14924
-45.9906
-4.34671
-48.7612
-4.55817
-51.6591
-4.7841
-54.694
-5.02503
-57.8759
-5.28157
-61.2153
-5.55439
-64.723
-5.84422
-68.4103
-6.15185
-72.2891
-6.47817
-76.3718
-6.82411
-80.6715
-7.1907
-85.202
-7.57903
-89.978
-7.9903
-95.0149
-8.42576
-100.329
-8.88679
-105.938
-9.37485
-111.861
-9.89149
-118.117
-10.4384
-124.727
-11.0173
-131.715
-11.63
-139.104
-12.2787
-146.921
-12.9653
-155.193
-13.6921
-163.95
-14.4614
-173.225
-15.2755
-183.053
-16.1368
-193.471
-17.0479
-204.519
-18.011
-216.241
-19.0285
-228.684
-20.1024
-241.898
-21.2344
-255.938
-22.4256
-270.862
-23.6761
-286.733
-24.985
-303.618
-26.3492
-321.589
-27.7632
-340.721
-29.2178
-361.094
-30.6986
-382.789
-32.1843
-405.888
-33.6441
-430.472
-35.0343
-456.614
-36.294
-484.372
-37.3396
-513.776
-38.0581
-544.812
-38.2993
-577.39
-37.868
-611.298
-36.5123
-646.136
-33.9258
-681.23
-29.7245
-715.391
-23.4977
-747.073
-14.7583
-772.789
-3.09191
-790.186
11.7381
-788.365
29.8841
-766.417
50.026
-695.996
71.7759
-575.63
88.6306
-340.234
111.826
182.63
78.9221
574.856
649.238
-2.91866
-6.11677
-2.87496
-9.17331
-2.85555
-11.2262
-2.84938
-13.2901
-2.85911
-15.3115
-2.88224
-17.2877
-2.91925
-19.2538
-2.96935
-21.2138
-3.03264
-23.1864
-3.10883
-25.1804
-3.19791
-27.2085
-3.29978
-29.28
-3.41447
-31.4052
-3.54201
-33.5932
-3.6825
-35.8535
-3.83609
-38.195
-4.00297
-40.6266
-4.18341
-43.1573
-4.37773
-45.7963
-4.58632
-48.5526
-4.80961
-51.4358
-5.04811
-54.4555
-5.30239
-57.6216
-5.5731
-60.9446
-5.86092
-64.4352
-6.16663
-68.1046
-6.49108
-71.9647
-6.83518
-76.0277
-7.19992
-80.3068
-7.58637
-84.8156
-7.9957
-89.5687
-8.42913
-94.5815
-8.888
-99.8703
-9.37374
-105.453
-9.88788
-111.347
-10.4321
-117.573
-11.008
-124.151
-11.6176
-131.105
-12.2627
-138.459
-12.9455
-146.238
-13.6681
-154.47
-14.4329
-163.185
-15.2422
-172.416
-16.0986
-182.197
-17.0044
-192.565
-17.9624
-203.561
-18.9749
-215.228
-20.0444
-227.614
-21.173
-240.769
-22.3625
-254.748
-23.614
-269.61
-24.9278
-285.419
-26.3028
-302.243
-27.736
-320.156
-29.2218
-339.236
-30.7505
-359.565
-32.3076
-381.232
-33.8711
-404.325
-35.4093
-428.934
-36.8771
-455.146
-38.2116
-483.037
-39.3263
-512.661
-40.1042
-544.034
-40.3891
-577.105
-39.9774
-611.709
-38.6058
-647.508
-35.9517
-683.884
-31.6093
-719.734
-25.1385
-753.544
-16.0108
-781.916
-3.76394
-802.433
11.9149
-804.044
31.2419
-785.744
52.9024
-717.656
76.592
-599.32
94.7872
-358.429
127.157
150.26
94.6094
607.403
703.965
-3.04677
-6.1699
-3.00566
-9.21442
-2.98805
-11.2438
-2.98406
-13.2941
-2.99624
-15.2993
-3.02231
-17.2616
-3.06273
-19.2133
-3.11679
-21.1597
-3.18457
-23.1186
-3.2658
-25.0992
-3.36048
-27.1138
-3.46852
-29.1719
-3.58996
-31.2837
-3.72483
-33.4584
-3.87325
-35.7051
-4.03538
-38.0328
-4.21143
-40.4505
-4.40169
-42.967
-4.6065
-45.5914
-4.82625
-48.3329
-5.06143
-51.2006
-5.31257
-54.2043
-5.58026
-57.3539
-5.86518
-60.6597
-6.16807
-64.1323
-6.48972
-67.783
-6.83104
-71.6233
-7.19297
-75.6658
-7.57657
-79.9232
-7.98294
-84.4092
-8.41331
-89.1383
-8.86896
-94.1258
-9.3513
-99.388
-9.86182
-104.942
-10.4021
-110.807
-10.9739
-117.001
-11.5789
-123.546
-12.2192
-130.465
-12.8968
-137.781
-13.6138
-145.521
-14.3726
-153.711
-15.1754
-162.382
-16.0249
-171.567
-16.9235
-181.298
-17.874
-191.615
-18.879
-202.556
-19.9411
-214.166
-21.0628
-226.493
-22.2463
-239.586
-23.4935
-253.501
-24.8057
-268.298
-26.1831
-284.042
-27.6247
-300.801
-29.1276
-318.653
-30.6858
-337.677
-32.2899
-357.961
-33.9248
-379.597
-35.5681
-402.681
-37.1874
-427.315
-38.7364
-453.597
-40.1505
-481.623
-41.3408
-511.471
-42.1866
-543.189
-42.5262
-576.766
-42.1482
-612.087
-40.7785
-648.877
-38.0784
-686.584
-33.6205
-724.192
-26.9348
-760.229
-17.4486
-791.403
-4.64854
-815.233
11.867
-820.559
32.3844
-806.262
55.6261
-740.898
81.2847
-624.978
103.967
-381.112
136.176
118.051
147.555
596.025
766.358
-3.17335
-6.221
-3.13487
-9.2529
-3.11922
-11.2595
-3.11756
-13.2958
-3.13233
-15.2845
-3.16148
-17.2325
-3.20545
-19.1694
-3.26358
-21.1016
-3.33597
-23.0462
-3.42235
-25.0128
-3.52274
-27.0134
-3.63705
-29.0576
-3.76532
-31.1554
-3.90762
-33.3161
-4.06405
-35.5487
-4.23479
-37.8621
-4.42009
-40.2652
-4.62024
-42.7669
-4.83559
-45.3761
-5.06659
-48.1019
-5.31372
-50.9535
-5.57755
-53.9405
-5.85872
-57.0728
-6.15791
-60.3605
-6.47591
-63.8143
-6.81357
-67.4453
-7.17181
-71.2651
-7.55165
-75.2859
-7.95415
-79.5206
-8.38051
-83.9828
-8.83198
-88.6868
-9.30992
-93.6479
-9.81579
-98.8821
-10.3512
-104.407
-10.9177
-110.24
-11.5171
-116.401
-12.1514
-122.912
-12.8225
-129.794
-13.5325
-137.071
-14.2839
-144.769
-15.0788
-152.916
-15.9198
-161.541
-16.8095
-170.677
-17.7506
-180.357
-18.7459
-190.619
-19.798
-201.504
-20.9098
-213.055
-22.0839
-225.319
-23.3225
-238.347
-24.6277
-252.196
-26.0009
-266.925
-27.4423
-282.6
-28.9511
-299.293
-30.5242
-317.08
-32.1559
-336.046
-33.8364
-356.281
-35.5506
-377.882
-37.2758
-400.956
-38.979
-425.612
-40.6129
-451.963
-42.1118
-480.124
-43.3843
-510.199
-44.3067
-542.266
-44.7125
-576.36
-44.3831
-612.417
-43.0338
-650.227
-40.3107
-689.308
-35.7646
-728.738
-28.8952
-767.099
-19.0831
-801.215
-5.76048
-828.555
11.5757
-837.895
33.2894
-827.975
58.1632
-765.772
85.9624
-652.778
110.834
-405.983
141.192
87.6931
144.274
592.943
840.753
-3.29849
-6.27002
-3.2627
-9.28869
-3.24913
-11.273
-3.24993
-13.295
-3.26743
-15.267
-3.29979
-17.2001
-3.34743
-19.1217
-3.40977
-21.0392
-3.48688
-22.9691
-3.57853
-24.9211
-3.68472
-26.9072
-3.8054
-28.9369
-3.94061
-31.0202
-4.09041
-33.1663
-4.25494
-35.3841
-4.43439
-37.6826
-4.629
-40.0706
-4.83911
-42.5568
-5.06509
-45.1501
-5.30739
-47.8596
-5.56655
-50.6943
-5.84314
-53.6639
-6.13783
-56.7781
-6.45136
-60.047
-6.78455
-63.4811
-7.13827
-67.0916
-7.5135
-70.8899
-7.9113
-74.8881
-8.33278
-79.0992
-8.77919
-83.5364
-9.25183
-88.2142
-9.75214
-93.1476
-10.2816
-98.3526
-10.8419
-103.846
-11.4347
-109.647
-12.0619
-115.774
-12.7254
-122.248
-13.4274
-129.092
-14.1701
-136.329
-14.9558
-143.984
-15.787
-152.085
-16.6663
-160.662
-17.5964
-169.747
-18.5801
-179.373
-19.6202
-189.579