/*--------------------------------*- C++ -*----------------------------------*\
| =========                 |                                                 |
| \\      /  F ield         | OpenFOAM: The Open Source CFD Toolbox           |
|  \\    /   O peration     | Version:  4.1                                   |
|   \\  /    A nd           | Web:      www.OpenFOAM.org                      |
|    \\/     M anipulation  |                                                 |
\*---------------------------------------------------------------------------*/
FoamFile
{
    version     2.0;
    format      ascii;
    class       volSymmTensorField;
    location    "2";
    object      turbulenceProperties:R;
}
// * * * * * * * * * * * * * * * * * * * * * * * * * * * * * * * * * * * * * //

dimensions      [0 2 -2 0 0 0 0];

internalField   nonuniform List<symmTensor> 
6785
(
(0.753313 1.28546e-19 7.04622e-20 0.753188 0.000167354 0.753499)
(0.753354 -1.03234e-19 -4.81502e-20 0.75332 6.76402e-06 0.753325)
(0.753325 -3.23877e-20 -2.4641e-20 0.75336 3.87841e-05 0.753315)
(0.753334 1.92123e-20 1.60193e-20 0.753345 2.66245e-05 0.753321)
(0.753332 -2.70903e-20 -6.58598e-21 0.753347 2.71663e-05 0.753322)
(0.753333 9.15865e-21 -2.5354e-21 0.753343 2.41336e-05 0.753324)
(0.753332 3.2466e-21 6.33487e-21 0.753342 2.23535e-05 0.753326)
(0.753333 -1.29863e-20 1.73852e-21 0.75334 2.0448e-05 0.753328)
(0.753333 5.71921e-21 -4.02228e-21 0.753337 1.90287e-05 0.75333)
(0.753333 -1.84429e-22 9.79115e-21 0.753334 1.8405e-05 0.753333)
(0.753332 -8.28958e-21 5.86418e-22 0.75333 1.80389e-05 0.753337)
(0.753334 -1.55327e-22 -3.02431e-21 0.753325 1.28966e-05 0.753341)
(0.753334 -3.26755e-22 5.43402e-21 0.753324 4.77594e-06 0.753341)
(0.753318 6.15668e-21 5.31604e-21 0.753358 7.99077e-06 0.753324)
(0.753346 -5.0581e-21 -1.08304e-20 0.753393 -7.9162e-05 0.753261)
(0.75333 1.61396e-19 1.07322e-19 0.753005 0.000221807 0.753666)
(0.753351 -1.16875e-19 -6.75039e-20 0.75334 -1.5221e-05 0.753309)
(0.753325 -5.44528e-20 -3.19267e-20 0.753378 1.18202e-05 0.753297)
(0.75334 1.03406e-20 2.71546e-20 0.753353 -5.88507e-06 0.753307)
(0.753333 -2.30096e-20 -1.19036e-20 0.753362 1.46504e-06 0.753305)
(0.753336 -3.48885e-21 -2.018e-21 0.753356 -2.32451e-06 0.753309)
(0.753334 6.29252e-22 1.14535e-20 0.753356 -1.66671e-06 0.75331)
(0.753335 -6.92445e-21 -2.16551e-21 0.753353 -2.47548e-06 0.753312)
(0.753334 -5.08737e-21 -2.39991e-21 0.753352 -3.08147e-06 0.753313)
(0.753334 3.22215e-21 1.04576e-20 0.753355 -6.01184e-06 0.753311)
(0.753334 -3.5789e-21 9.84805e-22 0.753364 -1.38323e-05 0.753302)
(0.753334 -6.88197e-22 7.10658e-22 0.753378 -2.8692e-05 0.753288)
(0.753334 3.05736e-20 1.08808e-20 0.753385 -4.56983e-05 0.75328)
(0.753333 2.51773e-20 9.24881e-21 0.753364 -4.5534e-05 0.753303)
(0.753332 -3.69484e-20 -2.94288e-20 0.753321 -1.22046e-05 0.753346)
(0.753329 1.94189e-19 4.96182e-20 0.752963 0.00022511 0.753708)
(0.753339 -1.25376e-19 -6.29577e-20 0.753349 -1.62896e-05 0.753312)
(0.753325 -3.45787e-20 -2.0255e-20 0.753369 -1.35107e-06 0.753306)
(0.753338 3.19569e-20 -2.18687e-20 0.75335 -1.64417e-05 0.753313)
(0.75333 -3.07228e-20 -2.35869e-20 0.75336 -6.7644e-06 0.75331)
(0.753334 1.47576e-20 8.73645e-21 0.753352 -1.21945e-05 0.753314)
(0.753332 3.62192e-21 -3.21048e-20 0.753354 -9.36355e-06 0.753314)
(0.753333 -1.30387e-20 -8.17117e-21 0.75335 -1.02469e-05 0.753317)
(0.753333 2.57145e-20 1.5025e-20 0.753349 -9.46445e-06 0.753318)
(0.753333 -4.99834e-21 -3.79581e-20 0.753352 -1.21536e-05 0.753315)
(0.753333 -2.2679e-20 -1.11394e-20 0.753368 -2.08722e-05 0.753299)
(0.753333 1.11035e-19 6.39825e-20 0.753404 -4.14024e-05 0.753263)
(0.753332 5.004e-20 2.37786e-20 0.753442 -6.02851e-05 0.753226)
(0.753339 -2.25449e-20 -1.50425e-20 0.753381 -3.72983e-05 0.75328)
(0.75333 -1.08947e-19 -7.33396e-20 0.75325 5.12788e-05 0.75342)
(0.753332 1.36204e-19 1.02916e-19 0.752954 0.000216859 0.753714)
(0.753337 -8.64996e-20 -8.70764e-20 0.753347 -1.29889e-05 0.753316)
(0.753329 -4.51285e-20 -1.35256e-20 0.753368 -1.05991e-05 0.753303)
(0.753338 1.6053e-20 8.31063e-21 0.75335 -1.99113e-05 0.753312)
(0.75333 -2.04218e-20 -4.78219e-20 0.75336 -9.47698e-06 0.75331)
(0.753336 5.07748e-21 6.53451e-21 0.753351 -1.64067e-05 0.753313)
(0.753332 1.12494e-20 4.10765e-21 0.753355 -1.20075e-05 0.753313)
(0.753334 -1.62118e-20 -3.69763e-20 0.753351 -1.3982e-05 0.753315)
(0.753333 8.91972e-21 1.29544e-20 0.753351 -1.26928e-05 0.753316)
(0.753334 2.32961e-20 1.08872e-20 0.753351 -1.39044e-05 0.753316)
(0.753333 -1.68044e-20 -3.71726e-20 0.753357 -1.65525e-05 0.75331)
(0.753334 1.20802e-20 6.14807e-21 0.753373 -2.33263e-05 0.753293)
(0.753333 8.87708e-20 5.50092e-20 0.75339 -2.22128e-05 0.753278)
(0.753337 7.48853e-20 3.3462e-20 0.753405 -2.9214e-05 0.753258)
(0.75333 -1.73813e-19 -1.08336e-19 0.753338 1.05056e-05 0.753331)
(0.753332 1.76113e-19 7.27681e-20 0.752961 0.000208536 0.753706)
(0.753336 -8.31482e-20 -9.00437e-20 0.753335 -5.7077e-06 0.753329)
(0.75333 -3.89034e-20 -3.78852e-20 0.753373 -1.66238e-05 0.753297)
(0.753337 4.16067e-20 9.1077e-21 0.753353 -2.09034e-05 0.75331)
(0.75333 -1.65403e-20 -4.65388e-20 0.75336 -1.085e-05 0.75331)
(0.753335 1.11394e-20 -1.19844e-20 0.753353 -1.71447e-05 0.753312)
(0.753332 3.40036e-20 4.52284e-21 0.753356 -1.26723e-05 0.753311)
(0.753334 3.23591e-21 -2.21187e-20 0.753354 -1.46572e-05 0.753312)
(0.753333 1.82613e-21 -1.74937e-20 0.753355 -1.33341e-05 0.753312)
(0.753333 4.30972e-20 1.34834e-20 0.753354 -1.37424e-05 0.753313)
(0.753333 1.33215e-20 -1.76989e-20 0.753356 -1.39642e-05 0.753311)
(0.753333 -1.91617e-20 -2.59496e-20 0.753361 -1.63374e-05 0.753306)
(0.753332 5.7257e-20 2.64343e-20 0.753371 -1.6373e-05 0.753297)
(0.753336 1.06036e-19 5.67803e-20 0.753395 -3.48532e-05 0.753269)
(0.75333 -2.332e-19 -1.2654e-19 0.753362 -2.92583e-06 0.753308)
(0.753333 2.56836e-19 1.43255e-19 0.752979 0.00019885 0.753689)
(0.753335 -1.52362e-19 -8.10058e-20 0.75332 1.71436e-06 0.753344)
(0.753331 -9.28053e-20 -2.68169e-20 0.753375 -1.96756e-05 0.753295)
(0.753336 5.44277e-20 2.99584e-20 0.753357 -2.15091e-05 0.753307)
(0.753331 -1.02224e-20 -4.72902e-22 0.753358 -1.1657e-05 0.753311)
(0.753335 -1.69181e-20 7.64589e-21 0.753352 -1.58857e-05 0.753313)
(0.753332 3.56181e-20 1.79436e-20 0.753355 -1.19526e-05 0.753313)
(0.753334 -2.36076e-21 5.43711e-21 0.753353 -1.29825e-05 0.753313)
(0.753333 -2.30757e-20 1.11798e-21 0.753354 -1.16362e-05 0.753313)
(0.753333 2.56331e-20 1.129e-20 0.753354 -1.14212e-05 0.753313)
(0.753333 6.49157e-21 1.23402e-20 0.753355 -1.08575e-05 0.753312)
(0.753334 -2.8788e-20 1.04673e-21 0.753356 -1.14952e-05 0.75331)
(0.753333 2.0833e-20 1.51369e-20 0.753362 -1.2086e-05 0.753305)
(0.753335 9.17119e-21 1.25924e-20 0.753385 -2.86908e-05 0.753279)
(0.753332 -1.46796e-19 -7.28401e-20 0.753386 -2.02164e-05 0.753282)
(0.753333 3.91983e-19 2.37132e-19 0.752998 0.000190237 0.753669)
(0.753335 -1.89872e-19 -1.07553e-19 0.753313 4.60032e-06 0.753352)
(0.753331 -1.62397e-19 -6.86519e-20 0.753371 -2.05639e-05 0.753298)
(0.753336 3.3335e-20 1.96635e-20 0.753358 -2.18849e-05 0.753307)
(0.753332 -1.00574e-20 9.54557e-21 0.753355 -1.2371e-05 0.753313)
(0.753334 -2.55407e-20 1.36476e-20 0.75335 -1.42384e-05 0.753316)
(0.753333 2.93094e-20 2.42043e-20 0.753351 -1.08429e-05 0.753316)
(0.753334 -1.22852e-20 2.64509e-21 0.75335 -1.07778e-05 0.753316)
(0.753333 -4.53215e-20 6.05379e-21 0.75335 -9.42883e-06 0.753316)
(0.753333 1.83028e-21 1.54106e-20 0.753351 -8.80166e-06 0.753316)
(0.753333 -7.00521e-21 2.29073e-20 0.753352 -8.1304e-06 0.753315)
(0.753334 -2.63378e-20 1.40971e-20 0.753353 -8.44524e-06 0.753313)
(0.753333 3.69317e-20 3.66258e-20 0.753358 -8.89594e-06 0.753309)
(0.753335 1.92741e-20 1.7727e-20 0.753381 -2.4718e-05 0.753284)
(0.753332 -1.01183e-19 -4.90021e-20 0.753409 -3.47341e-05 0.753259)
(0.753333 4.36376e-19 2.81493e-19 0.753013 0.000183482 0.753654)
(0.753334 -9.23019e-20 -5.61351e-20 0.753318 2.78547e-06 0.753348)
(0.753332 -2.2274e-19 -1.46857e-19 0.753367 -2.08641e-05 0.753301)
(0.753335 -5.68531e-20 -2.39574e-20 0.753356 -2.12848e-05 0.753309)
(0.753332 -5.70755e-20 -1.32901e-20 0.753352 -1.21314e-05 0.753316)
(0.753334 -2.44468e-20 -6.12942e-23 0.753347 -1.23698e-05 0.753319)
(0.753333 3.31296e-20 4.09946e-20 0.753347 -9.16605e-06 0.75332)
(0.753333 -2.592e-20 6.01775e-21 0.753346 -8.51342e-06 0.753321)
(0.753333 -6.45101e-20 -2.1634e-20 0.753346 -7.20363e-06 0.753321)
(0.753333 -1.59023e-20 1.85191e-20 0.753346 -6.44053e-06 0.75332)
(0.753333 -1.30218e-20 2.08631e-20 0.753348 -5.80159e-06 0.753319)
(0.753333 -1.0835e-20 1.79743e-20 0.753349 -6.14544e-06 0.753317)
(0.753333 6.51936e-20 6.41832e-20 0.753353 -6.50957e-06 0.753314)
(0.753334 7.63974e-20 6.74255e-20 0.753377 -2.14404e-05 0.753288)
(0.753333 -2.61934e-21 1.00491e-20 0.753433 -4.9312e-05 0.753234)
(0.753333 9.57949e-20 1.38022e-19 0.75302 0.000178798 0.753647)
(0.753334 1.8293e-19 1.46995e-19 0.753328 3.82919e-07 0.753338)
(0.753332 -2.04835e-19 -1.40376e-19 0.753371 -2.3029e-05 0.753297)
(0.753335 -1.5686e-19 -7.78758e-20 0.753355 -2.00809e-05 0.75331)
(0.753332 -1.46345e-19 -5.50082e-20 0.753349 -1.06511e-05 0.753319)
(0.753334 -2.13076e-20 2.05892e-23 0.753343 -1.01495e-05 0.753323)
(0.753333 5.82437e-20 6.21539e-20 0.753343 -6.87346e-06 0.753324)
(0.753333 -4.27462e-20 3.27063e-21 0.753342 -6.25582e-06 0.753325)
(0.753333 -8.03442e-20 -3.00469e-20 0.753342 -5.08179e-06 0.753325)
(0.753333 -1.3912e-20 2.07892e-20 0.753342 -4.43754e-06 0.753324)
(0.753333 -2.64939e-20 1.56482e-20 0.753343 -3.86908e-06 0.753323)
(0.753333 2.71079e-21 1.98021e-20 0.753345 -4.20004e-06 0.753322)
(0.753333 9.47234e-20 8.19647e-20 0.753348 -4.44331e-06 0.753319)
(0.753334 1.32107e-19 1.07502e-19 0.753373 -1.87983e-05 0.753293)
(0.753333 1.7194e-19 1.09994e-19 0.753455 -6.35566e-05 0.753212)
(0.753333 -5.12798e-19 -2.53503e-19 0.753023 0.000174764 0.753644)
(0.753334 4.65856e-19 3.33761e-19 0.753329 2.02162e-06 0.753337)
(0.753332 -3.70384e-21 4.00499e-21 0.753383 -2.72156e-05 0.753285)
(0.753335 -1.90097e-19 -1.24312e-19 0.753358 -2.0262e-05 0.753307)
(0.753332 -2.36543e-19 -1.13782e-19 0.753347 -9.08053e-06 0.753321)
(0.753334 -1.19054e-20 7.32182e-21 0.753339 -7.68084e-06 0.753327)
(0.753333 1.04056e-19 5.74831e-20 0.753339 -4.32303e-06 0.753328)
(0.753334 -6.54816e-20 -1.5412e-20 0.753338 -4.15118e-06 0.753328)
(0.753333 -7.1053e-20 -2.83146e-20 0.753339 -3.22709e-06 0.753328)
(0.753333 1.29305e-20 3.80219e-21 0.753339 -2.85997e-06 0.753327)
(0.753333 -6.4127e-20 -1.48275e-20 0.75334 -2.37294e-06 0.753327)
(0.753333 1.7997e-20 2.43966e-20 0.753341 -2.66387e-06 0.753325)
(0.753333 1.068e-19 5.95879e-20 0.753343 -2.6244e-06 0.753324)
(0.753334 1.37817e-19 1.11024e-19 0.753369 -1.70305e-05 0.753297)
(0.753333 3.86923e-19 2.36444e-19 0.753473 -7.52997e-05 0.753194)
(0.753333 -9.09051e-19 -5.43554e-19 0.75303 0.000169122 0.753636)
(0.753334 5.39671e-19 3.51959e-19 0.753317 8.39044e-06 0.75335)
(0.753333 2.31755e-19 6.91792e-20 0.75339 -2.98597e-05 0.753277)
(0.753334 -1.85352e-19 -1.16568e-19 0.753368 -2.28508e-05 0.753298)
(0.753332 -2.88495e-19 -1.57912e-19 0.753348 -8.91751e-06 0.75332)
(0.753334 1.52616e-20 -3.57959e-20 0.753337 -5.29045e-06 0.753329)
(0.753333 9.55971e-20 5.1019e-20 0.753336 -1.94809e-06 0.753331)
(0.753334 -8.32128e-20 -3.24253e-20 0.753335 -2.26059e-06 0.753331)
(0.753333 -3.84303e-21 -4.38229e-20 0.753337 -1.71345e-06 0.75333)
(0.753333 -4.61626e-21 -1.47551e-20 0.753337 -1.6573e-06 0.75333)
(0.753333 -1.16168e-19 -5.29238e-20 0.753337 -1.26129e-06 0.753329)
(0.753333 6.59398e-20 2.25783e-21 0.753338 -1.51576e-06 0.753328)
(0.753333 4.33226e-20 1.95433e-20 0.753339 -1.15556e-06 0.753328)
(0.753333 1.25228e-19 5.95575e-20 0.753366 -1.58814e-05 0.753301)
(0.753333 5.50706e-19 3.14426e-19 0.753486 -8.43574e-05 0.753181)
(0.753333 -6.11152e-19 -4.44027e-19 0.753046 0.000160431 0.753621)
(0.753334 4.13259e-19 1.95476e-19 0.7533 1.5525e-05 0.753366)
(0.753333 2.16439e-19 5.47087e-20 0.753386 -2.85759e-05 0.753281)
(0.753334 -1.93102e-19 -1.41994e-19 0.753375 -2.53116e-05 0.75329)
(0.753333 -2.99015e-19 -1.88849e-19 0.753352 -1.02586e-05 0.753315)
(0.753334 6.37596e-21 -4.80753e-20 0.753337 -3.66445e-06 0.75333)
(0.753333 4.32254e-20 -1.56483e-21 0.753334 -1.71835e-07 0.753333)
(0.753334 -8.33786e-20 -4.50958e-20 0.753334 -6.43408e-07 0.753333)
(0.753333 6.01967e-20 -5.37699e-21 0.753335 -5.20052e-07 0.753332)
(0.753333 -4.54534e-20 -6.0191e-20 0.753335 -6.62769e-07 0.753331)
(0.753333 -1.46438e-19 -1.00421e-19 0.753336 -3.46179e-07 0.753331)
(0.753333 9.15402e-20 2.21275e-21 0.753336 -5.30501e-07 0.75333)
(0.753333 -8.28239e-20 -6.14172e-20 0.753337 1.22367e-07 0.75333)
(0.753334 8.83849e-20 5.13662e-20 0.753363 -1.47842e-05 0.753304)
(0.753333 5.62786e-19 3.03808e-19 0.753496 -9.02909e-05 0.753171)
(0.753333 2.54591e-19 -4.9219e-21 0.753064 0.000151873 0.753603)
(0.753334 1.52795e-19 -2.14209e-20 0.75329 1.89284e-05 0.753376)
(0.753333 -2.90239e-20 -5.56659e-20 0.753375 -2.48026e-05 0.753293)
(0.753334 -2.62199e-19 -2.06581e-19 0.753374 -2.47021e-05 0.753292)
(0.753333 -2.84419e-19 -1.95375e-19 0.753354 -1.06178e-05 0.753313)
(0.753334 -2.53743e-21 -4.1487e-20 0.753337 -2.55046e-06 0.753329)
(0.753333 -2.51518e-20 -5.75483e-20 0.753333 9.50039e-07 0.753334)
(0.753333 -6.89912e-20 -3.18559e-20 0.753333 5.24989e-07 0.753334)
(0.753333 1.35906e-19 2.5347e-20 0.753334 3.33777e-07 0.753333)
(0.753333 -1.09994e-19 -1.01958e-19 0.753334 4.98636e-08 0.753332)
(0.753333 -1.51625e-19 -1.05546e-19 0.753335 1.9148e-07 0.753332)
(0.753333 1.1859e-19 1.12293e-20 0.753335 3.82051e-08 0.753332)
(0.753333 -2.34612e-19 -1.67527e-19 0.753335 4.24477e-07 0.753332)
(0.753333 8.33134e-20 4.63745e-20 0.75336 -1.4071e-05 0.753307)
(0.753333 4.39905e-19 2.06859e-19 0.753507 -9.73576e-05 0.75316)
(0.753333 1.14172e-18 5.83149e-19 0.753081 0.000140928 0.753586)
(0.753334 -1.88121e-19 -2.12176e-19 0.753293 1.87009e-05 0.753374)
(0.753333 -2.86675e-19 -2.43588e-19 0.753364 -1.90086e-05 0.753303)
(0.753334 -3.46345e-19 -2.2971e-19 0.753366 -1.9514e-05 0.7533)
(0.753333 -2.23198e-19 -1.63657e-19 0.753351 -8.24962e-06 0.753316)
(0.753334 8.38472e-21 -2.0954e-20 0.753338 -1.56087e-06 0.753329)
(0.753333 -8.37774e-20 -5.71983e-20 0.753334 1.23577e-06 0.753333)
(0.753334 7.50064e-21 -2.89991e-20 0.753334 8.13645e-07 0.753332)
(0.753334 1.66272e-19 6.73418e-20 0.753335 4.08118e-07 0.753331)
(0.753334 -1.56691e-19 -1.02746e-19 0.753335 2.57175e-07 0.753331)
(0.753334 -7.88947e-20 -8.56245e-20 0.753336 2.94513e-07 0.75333)
(0.753334 1.08812e-19 2.64085e-20 0.753336 5.76032e-07 0.753331)
(0.753333 -3.45607e-19 -2.06343e-19 0.753336 1.13525e-06 0.753331)
(0.753334 1.25225e-19 4.09785e-20 0.753357 -1.22224e-05 0.753309)
(0.753334 1.84532e-19 8.41602e-20 0.753507 -9.75584e-05 0.753159)
(0.753332 1.53152e-18 9.89314e-19 0.753088 0.000125566 0.75358)
(0.753335 -6.65796e-20 1.91012e-19 0.753272 1.50848e-05 0.753393)
(0.753333 -6.1605e-19 -2.27126e-19 0.753357 -2.0482e-05 0.753311)
(0.753334 -4.4281e-19 -1.85851e-19 0.753363 -2.15574e-05 0.753303)
(0.753333 -2.08281e-19 -1.1564e-19 0.753351 -9.6658e-06 0.753316)
(0.753333 -4.12379e-20 2.13681e-21 0.75334 -2.65369e-06 0.753327)
(0.753333 -5.35685e-20 1.17927e-21 0.753336 -6.34741e-07 0.75333)
(0.753333 1.90926e-20 -4.08265e-21 0.753336 -5.28387e-07 0.753331)
(0.753333 1.29365e-19 9.6938e-20 0.753335 -8.67273e-07 0.753331)
(0.753333 -1.05585e-19 -3.79151e-20 0.753335 -1.01029e-06 0.753332)
(0.753333 -3.86035e-20 -4.04646e-20 0.753333 -1.02803e-06 0.753334)
(0.753333 1.75597e-20 3.9373e-20 0.753332 -1.61916e-06 0.753335)
(0.753333 -3.55935e-19 -1.90081e-19 0.753333 -3.60915e-06 0.753333)
(0.753332 1.31867e-19 3.13922e-20 0.753357 -1.68133e-05 0.75331)
(0.753333 9.91971e-20 1.01435e-19 0.753528 -0.000112429 0.753139)
(0.753324 -1.57774e-20 -9.37954e-22 0.753349 -3.0725e-06 0.753327)
(0.753336 -1.92128e-20 -4.74784e-21 0.753329 -6.47293e-06 0.753335)
(0.753332 -3.92567e-20 -4.50888e-21 0.753335 -4.89021e-06 0.753333)
(0.753332 -6.69766e-20 -9.44465e-21 0.753337 1.75732e-07 0.753332)
(0.753333 -7.96076e-20 -1.78251e-20 0.753335 1.17272e-06 0.753333)
(0.753334 -1.81165e-20 -8.20361e-21 0.753333 -8.93759e-07 0.753333)
(0.753333 6.46103e-20 -2.1571e-20 0.753334 2.28026e-07 0.753333)
(0.753333 8.40248e-20 -1.35924e-20 0.753334 2.89873e-06 0.753333)
(0.753333 5.37399e-20 -7.26158e-21 0.753333 1.21679e-06 0.753333)
(0.753333 2.28755e-20 -1.59432e-21 0.753334 -5.87483e-07 0.753333)
(0.753333 5.29246e-21 -3.66815e-21 0.753334 -5.71789e-07 0.753333)
(0.753333 -1.99243e-20 -4.69632e-21 0.753334 -3.52055e-07 0.753333)
(0.753333 -2.20105e-21 -2.07855e-22 0.753334 -2.48855e-07 0.753332)
(0.753333 1.06952e-20 -5.35659e-21 0.753335 1.25879e-06 0.753332)
(0.753333 1.23612e-20 -4.12301e-21 0.753334 2.05838e-06 0.753333)
(0.753333 1.67973e-20 -2.37649e-21 0.753334 5.27143e-07 0.753333)
(0.753333 1.7094e-20 1.7729e-21 0.753334 -1.60021e-07 0.753332)
(0.753333 3.98017e-20 1.38495e-21 0.753334 5.51642e-07 0.753333)
(0.753333 4.73606e-20 6.12112e-21 0.753334 -5.17696e-08 0.753333)
(0.753333 8.47241e-21 2.45408e-21 0.753334 -1.23641e-07 0.753332)
(0.753333 -1.38118e-20 8.9987e-21 0.753335 4.50141e-07 0.753332)
(0.753333 -1.45869e-20 7.45676e-21 0.753334 5.56543e-07 0.753332)
(0.753333 -9.76855e-21 6.25276e-21 0.753334 1.33849e-07 0.753332)
(0.753333 -1.0155e-20 4.08203e-22 0.753335 5.53052e-07 0.753332)
(0.753333 -2.71775e-20 4.22198e-21 0.753335 2.39691e-06 0.753332)
(0.753334 -3.00183e-20 1.1045e-21 0.753334 2.25138e-06 0.753333)
(0.753333 -2.57891e-20 -1.89143e-21 0.753334 5.25132e-07 0.753333)
(0.753333 -8.23049e-21 -1.18134e-21 0.753335 5.62238e-08 0.753332)
(0.753334 -4.44551e-21 -3.01243e-21 0.753333 1.89669e-06 0.753333)
(0.753333 -7.02595e-21 -3.60518e-21 0.753334 1.35133e-06 0.753332)
(0.753333 4.57825e-21 -5.95676e-22 0.753335 7.11828e-07 0.753332)
(0.753333 1.74948e-20 -2.97674e-21 0.753335 2.54756e-06 0.753332)
(0.753334 2.18623e-20 -8.66946e-22 0.753333 2.94464e-06 0.753333)
(0.753333 1.76895e-20 1.18302e-21 0.753334 1.44212e-06 0.753333)
(0.753333 3.67924e-21 -1.5177e-22 0.753335 2.12145e-07 0.753332)
(0.753334 -5.04635e-21 1.73297e-21 0.753333 1.88894e-06 0.753333)
(0.753333 -9.51942e-21 9.62782e-22 0.753334 9.45391e-07 0.753332)
(0.753333 -7.89916e-21 -7.33857e-22 0.753335 -1.18364e-08 0.753332)
(0.753333 -1.13109e-20 -6.55236e-22 0.753335 2.05708e-06 0.753332)
(0.753334 -1.02058e-20 -1.89224e-21 0.753334 3.25423e-06 0.753332)
(0.753333 -4.73732e-21 -2.56951e-21 0.753334 2.27555e-06 0.753332)
(0.753333 2.37574e-21 -1.19641e-21 0.753335 7.72507e-07 0.753332)
(0.753333 6.43684e-21 -2.09612e-21 0.753335 3.5206e-06 0.753332)
(0.753334 2.28565e-21 -1.52769e-21 0.753333 4.30759e-06 0.753333)
(0.753333 -1.98463e-22 -1.49831e-21 0.753334 2.09494e-06 0.753333)
(0.753333 2.87305e-21 -1.25447e-21 0.753336 1.44037e-07 0.753331)
(0.753335 1.06497e-20 -7.50748e-22 0.753332 2.54121e-06 0.753333)
(0.753333 7.72057e-21 2.63789e-22 0.753335 1.05679e-06 0.753332)
(0.753333 -1.04515e-21 -9.66182e-22 0.753335 -2.27535e-07 0.753331)
(0.753333 -1.61231e-20 6.49512e-22 0.753336 3.1376e-06 0.753331)
(0.753334 -3.01729e-20 -1.56417e-21 0.753334 4.38857e-06 0.753332)
(0.753333 -3.05923e-20 -4.93574e-21 0.753335 2.19368e-06 0.753331)
(0.753333 -6.50704e-21 -8.25924e-22 0.753336 3.57352e-07 0.753331)
(0.753333 9.08072e-21 -6.03314e-21 0.753336 4.22146e-06 0.753331)
(0.753334 1.67627e-20 -4.69532e-21 0.753334 4.72992e-06 0.753332)
(0.753334 2.17053e-20 -2.06451e-21 0.753335 1.69957e-06 0.753331)
(0.753333 1.36871e-20 1.05771e-21 0.753337 1.93669e-07 0.753331)
(0.753335 1.74816e-20 3.91424e-22 0.753332 5.30592e-06 0.753332)
(0.753333 1.37539e-20 1.81329e-21 0.753337 2.61717e-06 0.75333)
(0.753333 1.89066e-22 6.02574e-23 0.753336 3.81758e-07 0.753331)
(0.753333 -9.0309e-22 2.00055e-21 0.753337 5.9129e-06 0.75333)
(0.753334 7.45336e-21 2.15687e-21 0.753335 6.80506e-06 0.753331)
(0.753334 9.72171e-21 3.17679e-21 0.753336 2.76435e-06 0.75333)
(0.753333 5.25012e-23 -2.00448e-21 0.753338 1.1321e-07 0.75333)
(0.753336 -4.25457e-21 3.11925e-21 0.753332 6.72978e-06 0.753332)
(0.753333 -6.64954e-21 2.52387e-21 0.753339 2.47072e-06 0.753328)
(0.753333 -9.49538e-21 -5.10923e-21 0.753338 -1.09004e-07 0.753329)
(0.753333 -1.55801e-20 2.13625e-22 0.753339 7.47893e-06 0.753328)
(0.753334 -2.5399e-20 -1.29532e-21 0.753337 5.90376e-06 0.753329)
(0.753333 -3.33284e-20 -4.68763e-21 0.753341 -4.14529e-06 0.753326)
(0.753333 -1.36224e-20 -6.10961e-21 0.753341 -5.9572e-06 0.753326)
(0.753333 -8.77044e-21 -7.42563e-21 0.753343 -3.16341e-06 0.753323)
(0.753334 -4.64575e-21 -8.23399e-21 0.753344 -1.07928e-05 0.753321)
(0.753334 2.18058e-20 -6.24404e-21 0.75335 -1.99654e-05 0.753315)
(0.753332 4.78737e-20 -3.90107e-21 0.753348 -8.787e-06 0.75332)
(0.753339 1.54773e-19 5.52147e-21 0.753344 3.10818e-06 0.753317)
(0.753333 2.31062e-19 2.72779e-20 0.753362 -2.9216e-05 0.753305)
(0.753332 1.01861e-19 3.47488e-21 0.753351 -1.33719e-05 0.753317)
(0.753342 9.78857e-20 4.92479e-20 0.75335 -1.20457e-05 0.753308)
(0.753331 7.26254e-20 5.9407e-20 0.753383 -0.000127818 0.753286)
(0.753331 -2.2879e-19 4.47814e-20 0.753342 -0.000125536 0.753327)
(0.753339 -3.32441e-19 3.27891e-20 0.753325 -4.85459e-05 0.753336)
(0.753331 -1.03428e-19 4.24266e-20 0.75334 -3.30623e-05 0.753329)
(0.753334 -3.49457e-20 1.04319e-20 0.753329 -7.83873e-06 0.753337)
(0.753333 6.32079e-20 4.30244e-20 0.753329 -3.36883e-05 0.753338)
(0.753334 1.64093e-19 -1.41485e-20 0.753322 -3.40733e-05 0.753344)
(0.753334 -1.0759e-19 -2.86307e-20 0.753323 -1.81431e-05 0.753343)
(0.753334 -2.78556e-19 -2.94686e-20 0.753324 -3.77825e-05 0.753342)
(0.753333 -2.10764e-19 -3.69928e-20 0.753327 -5.77826e-05 0.753339)
(0.753335 -2.27344e-19 -4.46987e-20 0.753328 -6.34423e-05 0.753337)
(0.753333 -2.92523e-19 -3.74211e-20 0.753334 -5.01458e-05 0.753333)
(0.753337 -6.28658e-20 9.33832e-21 0.753322 -1.66666e-05 0.753341)
(0.753333 1.20538e-19 -5.04618e-21 0.753329 -2.3658e-06 0.753338)
(0.753332 4.37748e-19 -7.2465e-21 0.753332 8.10921e-06 0.753336)
(0.753336 5.70973e-19 -4.42629e-21 0.753326 2.54823e-05 0.753338)
(0.753333 4.66791e-20 2.98756e-20 0.75333 4.22685e-06 0.753338)
(0.753334 -2.56569e-19 5.35344e-20 0.753326 -3.14845e-05 0.75334)
(0.753333 -3.71647e-19 4.3586e-20 0.75333 -6.19726e-05 0.753337)
(0.753336 -6.37798e-19 2.33843e-20 0.753329 -7.17037e-05 0.753336)
(0.753333 -7.40714e-19 -7.50685e-22 0.753337 -5.98898e-05 0.75333)
(0.753337 -3.78391e-19 5.41452e-21 0.753328 -3.07561e-05 0.753335)
(0.753333 -1.15103e-20 -1.5199e-20 0.753332 -8.91094e-06 0.753335)
(0.753332 3.03205e-20 3.44114e-21 0.753335 -9.10225e-06 0.753333)
(0.753335 7.28471e-20 2.02533e-21 0.753329 -3.23272e-07 0.753335)
(0.753333 1.08961e-19 2.69463e-21 0.753335 2.86158e-06 0.753332)
(0.753334 4.26326e-20 6.72373e-21 0.753331 -4.08984e-06 0.753335)
(0.753333 -8.96776e-20 1.72016e-20 0.753334 -1.72071e-05 0.753333)
(0.753333 -2.5047e-20 3.71381e-20 0.753335 -3.32954e-05 0.753332)
(0.753336 1.27687e-19 4.31524e-20 0.753333 -4.12023e-05 0.753331)
(0.753333 1.69662e-19 5.0042e-20 0.75334 -3.68395e-05 0.753327)
(0.753336 2.08601e-19 5.8887e-20 0.753334 -2.44945e-05 0.75333)
(0.753333 3.57149e-20 3.36284e-20 0.753335 -8.05647e-06 0.753332)
(0.753332 -4.01315e-19 6.08241e-20 0.75334 -1.13578e-06 0.753328)
(0.753335 -6.89029e-19 6.2169e-20 0.753334 2.05658e-06 0.753331)
(0.753333 -6.59384e-19 4.07298e-20 0.753338 -2.16145e-06 0.753329)
(0.753334 -4.60668e-19 2.09329e-20 0.753336 -1.12341e-05 0.753331)
(0.753333 -6.32403e-20 1.61909e-20 0.753338 -2.03994e-05 0.753329)
(0.753336 2.47003e-19 1.47453e-20 0.753333 -2.60792e-05 0.753331)
(0.753332 2.15175e-19 1.35307e-20 0.753342 -2.24212e-05 0.753326)
(0.753334 1.37691e-19 1.40219e-20 0.753338 -1.69538e-05 0.753328)
(0.753333 9.77044e-20 1.21113e-20 0.753336 -4.37471e-06 0.75333)
(0.753332 4.14965e-19 -1.40172e-20 0.753344 1.13618e-05 0.753324)
(0.753334 7.00148e-19 -1.23596e-20 0.753338 9.02295e-06 0.753328)
(0.753333 7.15396e-19 1.95703e-20 0.753339 -6.12562e-06 0.753328)
(0.753333 6.99798e-19 4.0776e-20 0.753338 -1.53785e-05 0.753329)
(0.753333 3.89823e-19 5.62952e-20 0.75334 -2.07973e-05 0.753327)
(0.753337 -6.57107e-20 5.06114e-20 0.753332 -1.8606e-05 0.753331)
(0.753331 -4.16441e-19 2.80892e-20 0.753343 -8.56735e-06 0.753325)
(0.753333 -3.09103e-19 2.19662e-20 0.753341 -9.45262e-06 0.753326)
(0.753334 -1.03516e-19 -3.17361e-21 0.753337 -3.48585e-06 0.753329)
(0.753331 -5.20376e-19 6.93834e-20 0.753347 1.07406e-05 0.753323)
(0.753334 -7.17454e-19 6.70499e-20 0.753339 4.85488e-06 0.753327)
(0.753333 -3.8794e-19 3.44793e-20 0.753339 -8.27781e-06 0.753328)
(0.753333 1.10666e-21 2.69101e-20 0.753339 -1.48149e-05 0.753329)
(0.753333 2.19065e-19 3.19073e-20 0.753339 -1.6888e-05 0.753328)
(0.753337 2.44036e-19 3.98618e-20 0.753331 -1.28374e-05 0.753332)
(0.753331 3.26831e-19 5.20315e-20 0.753343 -6.04279e-06 0.753326)
(0.753332 4.06264e-19 6.82262e-20 0.753341 -8.87022e-06 0.753327)
(0.753334 1.77881e-19 4.53482e-20 0.753337 -3.4578e-06 0.753329)
(0.75333 3.54805e-19 6.18911e-20 0.753344 9.90075e-06 0.753326)
(0.753333 8.27524e-19 4.33006e-20 0.753335 7.40862e-06 0.753331)
(0.753332 8.87912e-19 6.63887e-20 0.753336 -3.64594e-06 0.753332)
(0.753335 7.2296e-19 9.52272e-20 0.75333 -1.6849e-05 0.753335)
(0.753333 3.71046e-20 1.10536e-19 0.753336 -5.16459e-05 0.753331)
(0.753332 -1.31541e-21 1.73908e-19 0.753332 -4.75417e-05 0.753336)
(0.753338 4.46158e-19 1.93284e-19 0.753321 -2.56745e-05 0.753341)
(0.753329 5.86127e-19 2.18468e-19 0.75334 -2.70709e-05 0.753331)
(0.753335 1.19274e-18 2.95139e-19 0.753325 -6.07486e-06 0.75334)
(0.753334 7.40465e-19 1.14609e-19 0.753329 9.1271e-06 0.753337)
(0.753328 2.32856e-18 1.72352e-19 0.753342 4.40223e-05 0.75333)
(0.753336 4.12009e-18 1.74041e-19 0.753326 7.99016e-05 0.753338)
(0.753334 2.55633e-18 3.29053e-19 0.753323 7.75695e-05 0.753343)
(0.753334 -1.22948e-19 3.98557e-19 0.753318 9.11226e-05 0.753348)
(0.75333 -3.26495e-18 3.20936e-19 0.753316 0.000162939 0.753354)
(0.753337 -5.74591e-18 9.39239e-20 0.753287 0.000275165 0.753376)
(0.753334 -6.75976e-18 -1.78294e-19 0.753285 0.000310525 0.753382)
(0.753329 -4.01607e-18 -1.26489e-19 0.75329 0.000228992 0.753381)
(0.753334 -7.28533e-19 1.16381e-20 0.753316 6.70462e-05 0.75335)
(0.75332 -8.63046e-19 1.61595e-19 0.753337 4.86252e-05 0.753343)
(0.753343 1.15851e-19 1.01983e-19 0.753292 7.25134e-05 0.753366)
(0.753339 7.15242e-19 -6.58327e-21 0.753318 1.46965e-05 0.753343)
(0.753327 -8.56598e-20 -1.54369e-20 0.753347 3.46219e-06 0.753325)
(0.753338 4.99015e-21 -7.81992e-21 0.753325 6.99436e-06 0.753338)
(0.753328 3.06629e-20 -2.4342e-21 0.753338 7.90329e-06 0.753333)
(0.753334 1.29828e-21 4.87907e-23 0.753331 4.56023e-06 0.753335)
(0.753335 3.05247e-21 4.6097e-22 0.753327 8.02061e-06 0.753338)
(0.75333 -8.19336e-22 -3.44262e-22 0.753339 5.08023e-06 0.753331)
(0.753336 1.7387e-22 -2.14717e-22 0.753325 4.98615e-06 0.753338)
(0.753334 -3.82009e-21 -7.79262e-22 0.75333 8.73193e-06 0.753336)
(0.753331 -2.90607e-21 -5.31249e-22 0.753336 6.40704e-06 0.753333)
(0.753336 9.12756e-22 -3.7506e-22 0.753326 5.50661e-06 0.753339)
(0.753331 1.87208e-21 -1.56958e-21 0.753335 7.68745e-06 0.753335)
(0.753334 1.43398e-21 -2.25934e-22 0.753329 3.81254e-06 0.753337)
(0.753335 1.10439e-21 -8.52981e-22 0.753327 6.64417e-06 0.753338)
(0.753331 1.49953e-21 -1.96408e-23 0.753335 5.15439e-06 0.753334)
(0.753335 1.18195e-21 -1.40307e-22 0.753326 4.43914e-06 0.753339)
(0.753331 1.71694e-21 -2.8001e-22 0.753334 7.83624e-06 0.753334)
(0.753334 3.02179e-21 3.21055e-22 0.753329 4.06805e-06 0.753337)
(0.753335 7.19281e-22 4.63384e-22 0.753327 5.63606e-06 0.753338)
(0.753331 -1.30321e-21 -2.58231e-23 0.753334 4.52653e-06 0.753335)
(0.753335 -2.03951e-21 6.07703e-23 0.753326 3.20843e-06 0.753339)
(0.753333 -3.63936e-21 -8.3782e-22 0.75333 6.08249e-06 0.753337)
(0.753332 -1.35752e-21 -2.08936e-22 0.753332 3.8873e-06 0.753336)
(0.753335 2.29853e-21 3.05638e-23 0.753327 1.33718e-06 0.753338)
(0.753332 2.13435e-22 -7.33842e-22 0.753332 2.9243e-06 0.753336)
(0.753334 -2.97253e-21 -1.65716e-22 0.753329 2.50054e-06 0.753337)
(0.753334 -3.23807e-21 -1.93747e-21 0.753327 4.52564e-06 0.753339)
(0.753332 1.49584e-21 -3.25121e-23 0.753332 5.343e-06 0.753336)
(0.753335 2.90639e-21 -1.5663e-22 0.753327 7.99878e-07 0.753339)
(0.753331 2.01898e-22 -7.4794e-22 0.753332 1.14869e-06 0.753337)
(0.753333 -4.52437e-23 -1.47421e-22 0.753329 2.35967e-06 0.753337)
(0.753335 4.44276e-22 -7.05168e-22 0.753324 -1.03023e-06 0.753341)
(0.753332 8.93807e-23 -1.10942e-22 0.753332 4.45412e-06 0.753336)
(0.753334 1.41416e-21 4.21049e-22 0.753328 -4.36144e-08 0.753338)
(0.753333 5.93064e-21 2.04645e-22 0.753328 -4.34262e-06 0.753339)
(0.753333 3.62482e-21 2.1008e-22 0.75333 3.46135e-06 0.753337)
(0.753333 -3.02134e-22 1.29194e-22 0.753329 -8.9485e-07 0.753337)
(0.753334 -1.11987e-22 1.72449e-21 0.753328 -5.26795e-06 0.753338)
(0.753333 -7.90229e-22 1.68936e-22 0.75333 2.16737e-07 0.753337)
(0.753333 -1.8094e-21 1.31452e-21 0.753331 -6.01132e-06 0.753336)
(0.753334 1.51016e-21 3.42001e-23 0.753329 2.1603e-06 0.753337)
(0.753333 1.80549e-21 1.58626e-22 0.753332 -6.92653e-07 0.753336)
(0.753334 1.71023e-21 2.17851e-21 0.753329 -6.0547e-06 0.753337)
(0.753333 3.59092e-22 4.97732e-22 0.753331 5.02966e-07 0.753336)
(0.753332 1.65342e-21 2.79115e-21 0.753333 -6.13643e-06 0.753334)
(0.753334 1.70476e-21 5.22435e-22 0.753329 1.69827e-06 0.753336)
(0.753332 -5.38406e-21 7.2199e-22 0.753333 -6.41436e-07 0.753335)
(0.753333 -7.86277e-21 1.57172e-21 0.753332 -7.54888e-06 0.753335)
(0.753335 -4.21357e-21 -5.3599e-23 0.753328 1.01526e-06 0.753337)
(0.753332 -1.77666e-21 -2.95552e-23 0.753334 -8.47461e-07 0.753334)
(0.753335 3.4025e-21 -7.14625e-22 0.75333 -7.68699e-06 0.753336)
(0.753334 4.55983e-21 6.91365e-23 0.753331 -2.54092e-07 0.753335)
(0.753332 6.7968e-21 1.6014e-21 0.753336 -8.13223e-06 0.753332)
(0.753335 4.61965e-21 6.75321e-22 0.753329 1.43108e-07 0.753336)
(0.753332 -5.57639e-22 5.79981e-22 0.753335 -7.75324e-07 0.753333)
(0.753335 -1.3277e-21 4.0007e-21 0.75333 -7.49707e-06 0.753335)