/*--------------------------------*- C++ -*----------------------------------*\
| =========                 |                                                 |
| \\      /  F ield         | OpenFOAM: The Open Source CFD Toolbox           |
|  \\    /   O peration     | Version:  4.1                                   |
|   \\  /    A nd           | Web:      www.OpenFOAM.org                      |
|    \\/     M anipulation  |                                                 |
\*---------------------------------------------------------------------------*/
FoamFile
{
    version     2.0;
    format      ascii;
    class       volScalarField;
    location    "28";
    object      p;
}
// * * * * * * * * * * * * * * * * * * * * * * * * * * * * * * * * * * * * * //

dimensions      [0 2 -2 0 0 0 0];

internalField   nonuniform List<scalar> 
6785
(
3637.2
3572.58
3521.06
3471.11
3424.68
3381.02
3339.95
3301.23
3264.6
3229.49
3195.59
3164.29
3135.06
3099.91
3066.92
3098.38
3080.16
3082.57
3077.71
3073.86
3069.95
3066.46
3063.64
3061.7
3060.68
3060.52
3061.97
3065.75
3068.2
3067.21
3038.19
3031.58
3041.02
3040.08
3043.13
3045.26
3047.57
3049.77
3051.83
3053.73
3055.43
3056.98
3058.14
3058.95
3060.1
3080.4
3077.44
3082.12
3078.05
3078.14
3076.18
3074.54
3072.66
3070.76
3068.83
3066.95
3065.48
3065.13
3065.86
3067.57
3083.29
3080.98
3084.17
3080.78
3082.25
3081.41
3081.41
3081.41
3081.56
3081.9
3082.41
3083.12
3084.22
3085.25
3086.6
3087.11
3086.04
3089.06
3087.28
3089.59
3089.79
3090.86
3091.86
3092.88
3093.94
3095
3095.99
3096.98
3097.65
3098.36
3097.09
3096.99
3099.56
3098.24
3100.18
3100.18
3100.97
3101.57
3102.14
3102.7
3103.24
3103.73
3104.24
3104.62
3105.16
3105.48
3105.96
3108.03
3106.9
3108.51
3108.36
3108.98
3109.36
3109.74
3110.12
3110.53
3110.95
3111.42
3111.82
3112.43
3114
3114.86
3116.48
3115.62
3117.07
3116.91
3117.55
3117.82
3118.14
3118.44
3118.78
3119.19
3119.64
3120.04
3120.57
3121.05
3121.94
3123.1
3122.4
3123.58
3123.3
3123.88
3124
3124.2
3124.24
3124.32
3124.48
3124.68
3124.91
3125.11
3126.31
3126.56
3127.27
3126.4
3127.19
3126.53
3126.62
3125.87
3125.43
3124.91
3124.54
3124.3
3124.14
3123.92
3123.44
3116.8
3116.47
3116.88
3115.93
3116.53
3115.9
3115.96
3115.46
3115.14
3114.64
3114.37
3114.45
3114.43
3113.41
3111.69
3105.01
3101.64
3100.04
3097.71
3096.77
3095.11
3094.59
3093.69
3092.78
3091.47
3089.99
3088.1
3086.34
3084.38
3080.94
2984.85
2982.52
2987.85
2990.87
2995.24
2998.11
3000.96
3002.76
3004.02
3004.89
3005.85
3010.39
3018.76
3024.23
3020.97
2946.9
2977.8
2993.26
3002.63
3008.11
3010.97
3013.3
3014.64
3016.39
3018.16
3020.89
3025.79
3024.53
3007.55
2988.87
3623.48
3623.2
3622.58
3619.13
3618.86
3616.21
3613.18
3606.21
3604.65
3603.95
3598.19
3583.56
3586.07
3578.68
3561.42
3557.22
3568.03
3557.2
3526.6
3538.96
3529.79
3500.51
3492.74
3522.2
3501.71
3462.68
3454.86
3493.1
3475.79
3417.19
3447.9
3439.2
3390.41
3377.9
3435.36
3415.96
3338.47
3382.16
3375.33
3314.03
3297.18
3378.57
3346.66
3269.77
3254.78
3345.64
3323.6
3216.48
3278.65
3278.99
3198.16
3175.88
3288.13
3254.29
3154.37
3135.65
3257.26
3236.81
3101.23
3182.81
3192.03
3092.35
3067.13
3202.11
3186.85
3037.66
3128.67
3144.26
3037.51
3008.63
3163.38
3133.81
3007.09
2983.59
3144.82
3131.65
2971.69
3058.56
3124.68
2958.73
3068.22
3196.59
3188.37
3116.5
3162.44
3160.13
3158.42
3158.65
3156.83
3152.81
3153.55
3157.01
3242.37
3189.19
3159.71
3160.32
3137.39
3081.28
3061.65
3076.15
3073.3
3177.53
3095.92
3034.72
3034.44
3043.98
3039.54
3029.83
3019.37
3019.09
3007.42
3056.61
3028.74
2969.36
2963.17
2966.3
2958.5
2946.14
2939.29
2921.05
2945.53
2939.94
2872.28
2855.37
2850.45
2836
2817.29
2807.55
2781.94
2755.9
2776.65
2693.2
2667.11
2657.3
2630.1
2598.32
2577.32
2541.44
2473.76
2503.15
2386.67
2340.77
2317.8
2279.25
2229.45
2169.93
2133.32
2073.49
1907.5
1945.12
1754.22
1664.17
1611.59
1534.51
1442.56
1343.7
1198.02
848.187
951.374
659.19
260.698
979.602
1478.15
970.311
983.574
1004.51
1077.52
1314.66
1098.49
1032.52
1270.04
1098.71
1076.28
1089.98
1084.3
1258.25
1109.38
1071.81
1101.16
1076.72
1269.53
1154.87
1021.29
1303.29
1170.74
1072.91
1143.2
1081.27
1392.6
1202.77
1071.24
1162.86
1081.44
1463.92
1261.46
949.813
1506.8
1246.01
1004.08
1138.33
1008.7
1600.64
1198.48
904.183
1063.88
912.16
1604.57
1189.34
594.625
1570.18
1092.04
641.387
853.504
645.02
1627.01
934.368
426.469
674.654
447.042
1548.57
868.65
-75.1179
1434.56
691.552
-8.31746
297.312
2.54149
1479.71
418.992
-352.397
-2.74227
-322.88
1302.94
269.14
-1142.58
1073.87
-59.7231
-1086.71
-754.044
-964.497
0.305346
0.919565
0.930112
0.996406
0.723679
0.148682
-0.510453
-0.758945
0.0602978
2.53181
7.05012
13.2596
18.7817
19.3848
14.762
10.9935
9.60179
10.6057
11.6965
12.5262
14.3357
16.5148
18.8463
19.3347
17.2606
14.5535
12.6885
11.6838
11.2347
10.9844
9.84799
7.68262
5.13548
3.07094
1.93248
1.48351
1.04073
0.473725
-0.173651
-0.908677
-1.49495
-2.81597
-5.11182
-10.9929
-15.3161
-11.7893
-9.42557
-10.071
-12.7407
-13.724
-15.1705
-16.0458
-12.6363
-8.20319
-6.56818
-5.91944
-4.3361
-18.9753
-32.3062
-13.5057
17.6566
-2.25784
104.862
125.724
47.7176
5.79962
-2.24573
5.10017
13.8981
20.8795
25.6133
28.0253
29.7375
31.5699
34.2389
34.8204
33.4319
22.9957
19.3295
0.494298
3.22402
5.36335
7.22488
8.85233
9.96873
10.9364
12.1594
14.5692
19.3252
27.6184
39.1469
49.2315
49.6089
40.0498
32.8359
31.3955
35.107
36.7003
38.5852
40.3884
43.2551
47.2913
47.8633
43.5956
38.2905
34.5492
32.0543
29.6613
27.336
24.1098
19.0652
13.4343
8.66835
5.88684
4.63795
3.35519
1.73782
-0.0668865
-2.01041
-3.94868
-7.79233
-10.4972
-20.0627
-34.4467
-37.0261
-34.3671
-32.7218
-35.3819
-39.3365
-46.5074
-51.1358
-40.1547
-25.8532
-20.8652
-21.3658
-18.2299
-29.8873
-23.9999
19.7691
51.2857
-37.6642
111.933
201.296
64.1115
13.7283
17.7529
38.183
55.6442
68.5456
77.7223
82.7733
85.5794
86.142
86.344
82.1199
84.2682
80.8697
52.3815
0.916937
5.0802
8.58726
11.789
14.8178
17.3653
19.781
22.2938
25.6821
30.9265
39.0393
49.5699
58.2998
58.6955
50.8913
45.4292
44.3758
48.1442
49.6863
52.1477
54.0312
56.4573
59.6913
59.9393
56.0465
51.1678
47.4786
44.529
40.6834
36.9391
32.967
26.9365
20.2704
14.2715
10.3022
8.04259
5.71656
2.89644
-0.282555
-3.74036
-7.33535
-14.1296
-19.4659
-37.0687
-57.4619
-59.6444
-56.1855
-57.3607
-63.4703
-70.428
-81.6599
-89.1844
-71.1253
-43.9675
-32.7744
-37.0434
-44.8871
-52.9519
-22.8529
14.8951
63.3053
-8.23067
65.5435
157.903
76.376
53.4706
64.869
88.1229
106.497
119.987
129.848
136.029
141.357
144.055
147.302
143.166
144.07
135.256
132.583
1.49683
6.8214
11.3327
15.5877
19.6226
23.1576
26.5351
29.939
34.088
39.7725
47.7138
57.2728
64.9511
66.1078
60.4842
56.4612
55.2384
58.4676
60.0723
63.0107
65.583
68.1243
70.7203
70.6916
67.3186
63.1151
59.9073
57.245
52.5474
46.8967
42.336
35.5081
27.7893
20.3895
14.9596
11.5081
8.14338
4.15625
-0.380849
-5.33062
-10.7543
-20.386
-27.8901
-52.0161
-78.1453
-82.8841
-79.5881
-81.8626
-91.2984
-101.605
-116.913
-127.449
-105.862
-63.272
-45.1329
-51.481
-66.9602
-80.21
-31.1745
17.151
59.0579
-10.7118
75.7766
143.168
97.2293
93.4079
109.198
135.274
155.165
169.925
181.094
188.752
195.667
198.886
202.905
197.394
199.349
190.863
174.867
2.07625
8.63068
14.3173
19.698
24.818
29.3537
33.6764
37.9468
42.9168
49.345
57.8774
67.7606
75.6552
77.4877
72.5379
68.8539
67.4434
70.7185
72.5201
75.9835
79.194
82.0688
84.5695
84.3818
81.0083
76.8535
73.7146
71.1029
65.8036
57.9737
52.5821
44.5596
35.4027
26.3643
19.5071
15.0406
10.6988
5.49062
-0.502218
-7.06854
-14.5673
-27.0965
-37.5478
-68.4142
-99.0125
-105.913
-102.947
-107.379
-120.668
-134.104
-152.747
-166.014
-143.23
-83.413
-57.0032
-65.6688
-86.5289
-104.657
-41.2287
17.59
64.309
1.17918
99.3383
153.25
117.477
126.936
148.46
179.395
202.133
218.995
231.791
240.572
249.054
253.186
258.605
252.483
254.966
246.76
251.431
2.66987
10.4428
17.3959
23.9306
30.1903
35.7736
41.0971
46.2782
52.0948
59.2829
68.4503
78.7419
86.8452
89.0062
84.3353
81.0068
79.6544
83.2414
85.2397
89.2371
92.8812
95.9355
98.3715
98.0795
94.6405
90.3882
87.1319
84.3532
78.7058
68.6894
62.4146
53.1916
42.7137
32.2606
24.2138
18.7881
13.3887
6.89003
-0.59999
-8.84168
-18.5999
-33.9754
-47.7498
-84.8117
-119.456
-129.235
-127.045
-134.427
-150.912
-166.809
-187.831
-203.344
-182.445
-104.541
-68.4122
-79.6018
-104.751
-129.459
-55.1524
13.9567
56.1688
13.4504
113.864
164.005
135.998
160.475
188.198
223.942
249.22
267.853
281.891
291.61
301.367
306.031
312.37
305.548
308.949
295.808
296.292
3.31226
12.2272
20.4311
28.0762
35.4386
42.0272
48.313
54.3679
60.9888
68.8614
78.5211
89.0048
97.1121
99.5263
95.2395
92.4005
91.1579
95.0184
97.194
101.699
105.748
108.944
111.268
110.895
107.479
103.218
99.9139
97.0493
91.4705
79.2581
71.9435
61.6039
49.9403
38.2378
29.0999
22.6829
16.1715
8.35118
-0.67924
-10.6875
-22.8947
-41.1221
-58.7738
-101.685
-139.964
-152.849
-151.832
-162.847
-182.241
-199.622
-221.408
-237.716
-222.468
-126.973
-80.1916
-93.0346
-120.404
-154.663
-75.2631
10.7446
47.4535
24.6421
125.697
176.233
153.783
194.634
228.405
268.657
296.112
316.234
331.321
341.81
352.704
357.857
365.093
357.782
362.325
357.326
344.583
3.99817
14.0002
23.4606
32.1841
40.6228
48.1713
55.3693
62.2477
69.6343
78.1672
88.3111
99.0008
107.16
109.84
105.872
103.441
102.28
106.412
108.773
113.766
118.243
121.629
123.884
123.455
120.063
115.8
112.472
109.544
104.36
90.3135
81.5098
70.0132
57.1576
44.2643
34.1136
26.7176
19.062
9.88386
-0.730386
-12.5918
-27.4076
-48.5027
-70.4725
-118.82
-160.595
-176.931
-177.553
-192.684
-214.579
-232.175
-252.718
-267.866
-260.261
-151.076
-93.584
-106.287
-134.581
-180.327
-102.12
5.67176
35.8061
33.5298
133.601
190.793
170.431
228.066
267.998
312.885
342.476
364.028
380.063
391.187
403.053
408.54
416.492
408.711
414.564
409.738
423.946
4.71897
15.7681
26.514
36.2977
45.8047
54.2858
62.3681
70.0407
78.1746
87.3685
98.0296
108.994
117.27
120.155
116.356
114.257
113.198
117.658
120.221
125.697
130.586
134.177
136.406
135.947
132.551
128.248
124.847
121.801
117.178
102.068
91.1038
78.3962
64.3349
50.336
39.2802
30.9094
22.0599
11.4863
-0.750946
-14.559
-32.1283
-56.1542
-82.8406
-136.288
-181.549
-201.595
-204.412
-224.199
-248.056
-264.454
-281.533
-293.603
-293.046
-178.301
-110.048
-120.461
-151.162
-209.81
-132.617
1.01819
21.9556
38.4461
133.462
203.906
185.549
260.68
307.032
356.7
388.365
411.258
428.097
439.729
452.443
458.17
466.738
458.609
465.709
457.958
470.692
5.47558
17.528
29.584
40.4055
50.9706
60.3577
69.3006
77.7444
86.6107
96.4581
107.64
118.886
127.271
130.286
126.564
124.775
123.853
128.687
131.46
137.418
142.692
146.483
148.7
148.237
144.827
140.471
136.953
133.769
129.788
114.553
100.664
86.7539
71.5085
56.5115
44.6333
35.2578
25.1606
13.1628
-0.733308
-16.5856
-37.0348
-64.0904
-95.7995
-154.06
-202.955
-226.971
-232.805
-257.832
-282.88
-296.654
-307.997
-315.554
-318.123
-212.396
-133.012
-138.33
-174.614
-245.997
-163.571
-2.51662
7.11187
38.0529
124.272
212.206
199.074
292.605
345.688
400.201
433.799
457.904
475.401
487.436
500.879
506.741
515.813
507.421
515.932
514.706
519.362
6.2698
19.2793
32.6663
44.4995
56.1097
66.3733
76.1512
85.3411
94.9219
105.409
117.1
128.613
137.082
140.173
136.482
134.992
134.223
139.453
142.443
148.878
154.525
158.518
160.734
160.291
156.868
152.46
148.797
145.475
142.102
127.645
110.259
95.1379
78.7433
62.8451
50.1864
39.7583
28.3664
14.9224
-0.669517
-18.6683
-42.1088
-72.3285
-109.293
-172.179
-224.958
-253.206
-263.125
-294.052
-319.352
-329.206
-332.703
-334.541
-335.481
-252.618
-163.949
-162.177
-205.901
-288.15
-191.499
-4.35715
-9.17338
31.2154
106.278
213.598
211.013
323.702
383.921
443.358
478.732
503.936
521.956
534.307
548.369
554.277
563.765
555.17
565.12
565.707
589.095
7.10161
21.0231
35.764
48.5834
61.2269
72.3382
82.9266
92.8386
103.117
114.233
126.422
138.188
146.721
149.846
146.151
144.94
144.334
149.98
153.191
160.101
166.111
170.314
172.548
172.147
168.715
164.254
160.413
156.935
153.981
140.98
120.233
103.62
86.0805
69.3726
55.9512
44.412
31.6858
16.7776
-0.549694
-20.799
-47.3282
-80.8713
-123.261
-190.706
-247.692
-280.488
-295.785
-333.258
-357.814
-362.672
-356.572
-351.708
-348.908
-287.094
-200.106
-193.673
-245.015
-333.725
-216.062
-5.10785
-27.2934
17.4192
80.1115
206.895
221.41
353.831
421.68
486.149
523.141
549.335
567.749
580.338
594.913
600.781
610.608
601.882
613.307
615.893
631.251
7.9711
22.76
38.8793
52.6596
66.3257
78.2573
89.6345
100.247
111.21
122.941
135.619
147.621
156.193
159.309
155.582
154.635
154.206
160.287
163.721
171.104
177.467
181.881
184.15
183.811
180.385
175.88
171.828
168.148
165.33
154.1
131.214
112.289
93.555
76.125
61.9397
49.224
35.1316
18.7433
-0.362234
-22.965
-52.6685
-89.7123
-137.657
-209.69
-271.281
-309.063
-331.282
-375.824
-398.671
-397.661
-380.717
-368.494
-360.524
-310.159
-240.776
-235.646
-294.036
-382.996
-239.695
-6.43137
-47.9232
-3.55034
46.7217
191.913
230.356
382.962
458.977
528.579
567.018
594.087
612.766
625.524
640.504
646.257
656.366
647.573
660.472
665.195
693.951
8.87899
24.4903
42.0128
56.7279
71.4063
84.1313
96.2771
107.571
119.205
131.541
144.692
156.905
165.484
168.553
164.78
164.082
163.844
170.378
174.034
181.886
188.59
193.215
195.532
195.268
191.879
187.351
183.066
179.122
176.16
166.682
143.539
121.312
101.243
83.1311
68.1567
54.1996
38.7183
20.8342
-0.0951269
-25.1503
-58.1026
-98.8361
-152.438
-229.173
-295.855
-339.271
-370.105
-422.261
-442.46
-434.793
-406.319
-386.224
-371.547
-327.475
-285.024
-288.4
-354.44
-440.082
-267.81
-10.7793
-71.4884
-31.4369
7.21435
169.3
237.963
411.133
495.851
570.652
610.357
638.176
656.996
669.855
685.131
690.701
701.055
692.301
706.569
708.073
734.363
9.82618
26.214
45.1654
60.7886
76.4691
89.9611
102.857
114.815
127.109
140.035
153.642
166.038
174.588
177.578
173.752
173.288
173.25
180.251
184.126
192.442
199.477
204.313
206.687
206.514
203.2
198.686
194.159
189.884
186.555
178.572
156.654
131.031
109.323
90.4326
74.5899
59.3341
42.4561
23.0611
0.262233
-27.3368
-63.6036
-108.222
-167.574
-249.209
-321.575
-371.367
-412.642
-473.121
-489.866
-474.753
-434.519
-405.89
-383.113
-340.177
-328.527
-348.589
-426.056
-509.482
-306.706
-20.7795
-98.2818
-65.7454
-36.8968
140.132
244.353
438.454
532.364
612.371
653.152
681.59
700.426
713.315
728.773
734.105
744.696
736.098
751.848
758.991
773.857
10.8137
27.9313
48.3381
64.8424
81.5152
95.7489
109.379
121.985
134.927
148.43
162.472
175.019
183.507
186.392
182.508
182.259
182.43
189.908
193.995
202.767
210.129
215.173
217.609
217.542
214.349
209.895
205.147
200.478
196.613
189.703
169.599
141.705
118.021
98.0975
81.2151
64.609
46.3473
25.4296
0.717859
-29.5066
-69.1456
-117.844
-183.045
-269.872
-348.554
-405.39
-459.262
-528.952
-541.675
-518.402
-466.379
-428.273
-395.91
-350.028
-367.24
-410.65
-506.428
-593.528
-361.019
-38.8146
-128.307
-105.667
-83.2697
105.783
249.684
465.109
568.583
653.738
695.394
724.313
743.042
755.883
771.407
776.462
787.308
778.96
796.185
802.925
833.233
11.8426
29.6423
51.5318
68.8896
86.5457
101.496
115.845
129.084
142.665
156.732
171.187
183.853
192.242
194.999
191.053
190.997
191.383
199.344
203.632
212.855
220.54
225.788
228.285
228.342
225.318
220.979
216.066
210.965
206.441
200.024
181.709
153.004
127.502
106.238
88.0349
70.003
50.3848
27.94
1.27725
-31.6417
-74.7041
-127.676
-198.841
-291.233
-376.836
-441.578
-510.426
-590.357
-598.772
-566.847
-502.906
-453.944
-410.464
-358.937
-397.762
-467.327
-590.111
-691.107
-432.548
-66.5679
-161.422
-150.125
-129.375
67.8599
254.205
491.341
604.546
694.765
737.077
766.331
784.828
797.528
813.003
817.762
828.917
820.974
839.562
843.026
871.042
12.9145
31.3468
54.7474
72.9306
91.5611
107.205
122.259
136.12
150.331
164.946
179.79
192.543
200.798
203.402
199.389
199.5
200.105
208.552
213.026
222.697
230.698
236.14
238.693
238.897
236.089
231.929
226.938
221.413
216.135
209.571
192.683
164.249
137.683
114.927
95.0781
75.5064
54.5541
30.5879
1.94459
-33.7237
-80.2545
-137.688
-214.966
-313.346
-406.546
-480.499
-566.691
-657.992
-662.171
-621.325
-545.076
-483.297
-427.073
-368.322
-418.2
-512.457
-671.496
-798.625
-519.858
-104.093
-196.495
-197.598
-174.122
27.8487
258.261
517.405
640.281
735.466
778.192
807.628
825.761
838.211
853.529
858.001
869.557
862.183
882.167
888.596
906.958
14.031
33.0447
57.9856
76.9653
96.5621
112.876
128.624
143.095
157.929
173.078
188.284
201.094
209.183
211.601
207.51
207.758
208.587
217.522
222.165
232.28
240.589
246.207
248.806
249.176
246.64
242.736
237.766
231.893
225.795
218.595
202.494
174.97
148.164
124.108
102.388
81.1422
58.8407
33.3645
2.72414
-35.7327
-85.7719
-147.854
-231.414
-336.264
-437.943
-522.625
-628.626
-732.553
-733.023
-683.095
-593.833
-516.538
-445.814
-378.565
-430.267
-542.71
-746.377
-911.79
-618.543
-148.861
-230.628
-245.784
-218.72
-13.2809
262.227
543.555
675.857
775.862
818.73
848.184
865.81
877.888
892.951
897.18
909.267
902.618
923.96
929.8
956.253
15.1939
34.7359
61.2472
80.9939
101.549
118.512
134.944
150.017
165.466
181.132
196.674
209.516
217.409
219.587
215.405
215.762
216.822
226.242
231.039
241.596
250.197
255.977
258.597
259.155
256.954
253.39
248.546
242.443
235.546
227.461
211.385
185.063
158.547
133.651
110.033
86.9808
63.2439
36.2604
3.62091
-37.648
-91.2321
-158.152
-248.184
-360.103
-471.182
-568.224
-696.746
-814.695
-812.625
-753.602
-650.116
-553.738
-466.692
-389.817
-436.608
-555.557
-808.536
-1024
-722.443
-196.635
-260.324
-291.866
-264.793
-55.0884
266.504
570.041
711.387
815.971
858.677
887.969
904.934
916.505
931.24
935.311
948.102
942.348
965.002
969.88
987.451
16.4053
36.4203
64.5326
85.0164
106.524
124.114
141.223
156.889
172.947
189.113
204.964
217.816
225.483
227.343
223.056
223.494
224.798
234.705
239.641
250.638
259.51
265.444
268.055
268.821
267.017
263.882
259.266
253.075
245.502
236.463
219.851
194.645
168.632
143.274
117.975
93.1024
67.7916
39.2723
4.63945
-39.4508
-96.6146
-168.562
-265.293
-384.951
-506.096
-617.307
-771.478
-905.052
-902.498
-834.598
-714.94
-594.799
-489.675
-402.11
-439.018
-551.085
-850.314
-1125.59
-824.213
-244.402
-283.709
-334.094
-310.609
-97.057
271.542
597.145
746.976
855.803
898.005
926.944
943.079
954.013
968.376
972.42
986.122
981.427
1005.34
1009.51
1027.59
17.6676
38.0978
67.8425
89.0326
111.485
129.685
147.464
163.717
180.38
197.029
213.157
225.996
233.409
234.846
230.438
230.941
232.508
242.903
247.974
259.409
268.528
274.611
277.195
278.18
276.821
274.197
269.913
263.778
255.724
245.776
228.379
203.915
178.374
152.731
126.06
99.5257
72.5145
42.3956
5.78076
-41.1269
-101.905
-179.069
-282.757
-410.806
-542.673
-670.043
-853.252
-1004.28
-1004.34
-928.004
-789.431
-639.74
-514.539
-415.158
-439.585
-534.656
-868.321
-1207.25
-915.061
-290.337
-300.799
-371.688
-351.068
-137.998
277.761
625.152
782.689
895.343
936.664
965.05
980.184
990.361
1004.35
1008.55
1023.4
1019.94
1044.99
1044.4
1056.73
18.9831
39.7683
71.1772
93.0424
116.434
135.225
153.672
170.507
187.769
204.886
221.257
234.048
241.179
242.066
237.53
238.088
239.948
250.834
256.043
267.914
277.259
283.49
286.05
287.26
286.369
284.304
280.443
274.499
266.186
255.471
237.189
213.147
187.742
161.942
134.19
106.151
77.4153
45.6146
7.04263
-42.6673
-107.092
-189.654
-300.58
-437.765
-581.481
-727.663
-942.625
-1113.12
-1119.92
-1035.83
-874.808
-689.165
-541.045
-428.933
-439.53
-513.568
-866.963
-1266.41
-987.125
-330.015
-309.353
-402.122
-384.273
-176.538
285.451
654.262
818.521
934.529
974.569
1002.21
1016.18
1025.51
1039.18
1043.74
1060.02
1057.96
1084.15
1084.44
1080.45
20.3544
41.4314
74.5369
97.0455
121.372
140.738
159.849
177.264
195.12
212.689
229.269
241.961
248.757
248.973
244.314
244.929
247.12
258.504
263.855
276.166
285.718
292.1
294.658
296.108
295.678
294.175
290.771
285.12
276.752
265.48
246.326
222.582
196.685
170.759
142.195
112.807
82.436
48.8857
8.4214
-44.0645
-112.165
-200.293
-318.783
-466.037
-623.192
-791.342
-1039.98
-1232.37
-1251.03
-1160.12
-972.532
-744.323
-568.988
-443.596
-439.859
-491.169
-854.03
-1308.05
-1037.08
-357.893
-307.064
-422.264
-414.587
-211.788
294.721
684.548
854.393
973.251
1011.6
1038.31
1051
1059.45
1072.89
1078.08
1096.06
1095.52
1122.83
1120.09
1114.83
21.784
43.0862
77.9221
101.042
126.3
146.226
166.002
183.995
202.439
220.442
237.191
249.713
256.084
255.537
250.784
251.469
254.031
265.919
271.422
284.18
293.919
300.464
303.053
304.768
304.791
303.816
300.829
295.482
287.19
275.607
255.824
232.137
205.268
179.081
149.915
119.341
87.4238
52.1422
9.91394
-45.3071
-117.105
-210.957
-337.391
-495.768
-668.048
-861.102
-1145.51
-1362.83
-1399.11
-1302.83
-1084.3
-806.878
-599.089
-460.096
-440.944
-466.652
-835.432
-1338.57
-1065.54
-373.119
-295.534
-433.69
-447.322
-242.982
305.554
715.975
890.159
1011.36
1047.64
1073.27
1084.58
1092.16
1105.55
1111.64
1131.62
1132.72
1161.07
1153.29
1139.13
23.2749
44.7318
81.333
105.03
131.217
151.691
172.135
190.706
209.733
228.147
245.019
257.278
263.115
261.734
256.936
257.715
260.697
273.096
278.76
291.973
301.878
308.602
311.253
313.275
313.757
313.281
310.632
305.499
297.269
285.558
265.63
241.694
213.8
186.903
157.284
125.678
92.3012
55.3698
11.5115
-46.3809
-121.884
-221.608
-356.425
-527.042
-716.051
-937.018
-1259.46
-1505.16
-1565.15
-1465.33
-1211.27
-878.431
-633.046
-480.17
-443.178
-440.627
-813.635
-1354.56
-1072.5
-378.176
-277.45
-440.699
-485.554
-269.074
317.792
748.421
925.639
1048.72
1082.54
1106.98
1116.89
1123.67
1137.21
1144.49
1166.77
1169.62
1199.03
1189.87
1157.39
24.8298
46.367
84.7699
109.01
136.126
157.137
178.252
197.404
217.007
235.808
252.748
264.633
269.814
267.546
262.777
263.687
267.146
280.058
285.89
299.563
309.608
316.53
319.263
321.639
322.613
322.646
320.294
315.266
306.966
295.15
275.526
251.379
222.641
194.341
164.262
131.807
97.0761
58.5885
13.1887
-47.2712
-126.468
-232.21
-375.911
-559.891
-767.29
-1019.42
-1382.11
-1659.78
-1749.65
-1647.67
-1353.88
-960.316
-672.291
-504.946
-449.025
-419.91
-789.618
-1342.87
-1056.54
-375.758
-254.773
-447.328
-532.395
-289.19
331.184
781.701
960.634
1085.17
1116.22
1139.39
1147.92
1154
1167.97
1176.72
1201.61
1206.26
1236.77
1223.88
1182.18
26.4518
47.9902
88.2322
112.982
141.027
162.567
184.36
204.096
224.267
243.428
260.364
271.748
276.148
272.974
268.326
269.41
273.404
286.829
292.835
306.969
317.117
324.258
327.086
329.852
331.37
331.963
329.943
324.99
316.529
304.512
285.39
261.276
231.901
201.733
170.919
137.691
101.747
61.8138
14.9155
-47.9684
-130.818
-242.726
-395.859
-594.264
-821.861
-1108.45
-1513.64
-1826.77
-1952.53
-1848.77
-1511.93
-1052.74
-717.147
-534.64
-460.981
-411.541
-767.508
-1306.64
-1021.33
-368.766
-229.966
-458.221
-590.99
-303.039
345.567
815.608
994.937
1120.59
1148.59
1170.46
1177.68
1183.21
1197.91
1208.43
1236.22
1242.69
1274.36
1257.24
1199.06
28.1439
49.5996
91.7191
116.946
145.921
167.984
190.466
210.788
231.518
251.004
267.845
278.58
282.095
278.049
273.619
274.921
279.497
293.43
299.619
314.203
324.424
331.798
334.725
337.897
340.01
341.236
339.632
334.815
326.235
313.927
295.307
271.345
241.485
209.418
177.363
143.289
106.292
65.0183
16.6546
-48.4753
-134.899
-253.12
-416.267
-630.25
-879.949
-1204.22
-1654.08
-2005.72
-2172.88
-2066.14
-1683.84
-1154.44
-767.599
-569.801
-481.192
-414.502
-746.731
-1261.88
-972.446
-360.026
-205.825
-477.744
-663.739
-310.861
360.928
849.973
1028.37
1154.85
1179.61
1200.2
1206.17
1211.36
1227.12
1239.72
1270.67
1278.95
1311.92
1290.68
1215.19
29.909
51.1932
95.229
120.901
150.809
173.393
196.575
217.484
238.763
258.528
275.161
285.093
287.668
282.832
278.696
280.257
285.45
299.879
306.262
321.276
331.551
339.164
342.189
345.765
348.504
350.436
349.337
344.753
336.167
323.538
305.346
281.563
251.295
217.495
183.716
148.589
110.635
68.1589
18.3816
-48.8139
-138.674
-263.354
-437.151
-667.972
-941.759
-1306.85
-1803.22
-2195.74
-2408.67
-2295.7
-1866.51
-1264.02
-824.216
-610.945
-510.634
-423.344
-720.171
-1210.83
-913.314
-351.269
-183.962
-507.749
-752.474
-313.123
377.362
884.628
1060.8
1187.86
1209.23
1228.6
1233.45
1238.56
1255.72
1270.7
1305.01
1315.09
1349.5
1321.66
1231.59
31.7498
52.7689
98.7601
124.846
155.693
178.797
202.693
224.192
246.002
265.984
282.271
291.276
292.908
287.386
283.603
285.465
291.296
306.196
312.784
328.197
338.522
346.368
349.496
353.467
356.831
359.52
359.012
354.753
346.276
333.333
315.498
291.928
261.282
225.93
190.137
153.598
114.715
71.2006
20.0956
-49.0217
-142.11
-273.384
-458.491
-707.328
-1007.55
-1416.4
-1960.65
-2395.42
-2656.41
-2532.39
-2055.69
-1379.85
-886.656
-657.446
-548.17
-432.797
-685.903
-1147.23
-845.241
-343.165
-163.776
-546.5
-857.893
-310.413
395.051
919.385
1092.11
1219.55
1237.44
1255.7
1259.55
1264.94
1283.84
1301.52
1339.29
1351.14
1387.23
1355.65
1241.71
33.6689
54.3243
102.31
128.781
160.578
184.205
208.828
230.913
253.233
273.349
289.141
297.15
297.866
291.773
288.383
290.583
297.064
312.402
319.206
334.977
345.358
353.426
356.666
361.022
364.992
368.463
368.617
364.766
356.504
343.284
325.753
302.431
271.407
234.687
196.734
158.357
118.498
74.1038
21.8107
-49.0965
-145.161
-283.157
-480.228
-748.316
-1077.27
-1532.79
-2125.73
-2602.91
-2910.93
-2770.22
-2246.19
-1499.52
-953.373
-707.788
-591.468
-441.294
-646.028
-1071.12
-769.025
-334.219
-142.989
-590.75
-978.047
-303.11
414.29
954.037
1122.2
1249.86
1264.25
1281.55
1284.62
1290.72
1311.67
1332.27
1373.52
1387.12
1425.18
1387.79
1258.92
35.6681
55.8569
105.876
132.704
165.465
189.622
214.984
237.65
260.447
280.594
295.758
302.765
302.59
296.053
293.072
295.644
302.779
318.523
325.545
341.637
352.081
360.352
363.723
368.454
373.005
377.259
378.122
374.752
366.802
353.371
336.1
313.049
281.641
243.723
203.556
162.985
121.978
76.8278
23.5288
-48.9749
-147.781
-292.611
-502.301
-790.974
-1150.33
-1655.71
-2297.65
-2815.86
-3165.68
-3002.57
-2432.04
-1620.37
-1022.73
-760.477
-638.121
-449.88
-604.843
-987.424
-688.362
-321.358
-120.268
-638.39
-1107.35
-290.637
435.471
988.4
1151.07
1278.81
1289.72
1306.27
1308.88
1316.14
1339.38
1363.02
1407.68
1423.04
1463.41
1419.44
1274.99
37.7494
57.3647
109.456
136.614
170.354
195.053
221.163
244.404
267.634
287.696
302.138
308.172
307.122
300.272
297.697
300.673
308.461
324.583
331.818
348.195
358.703
367.162
370.681
375.782
380.895
385.922
387.517
384.679
377.103
363.548
346.504
323.74
291.986
253.007
210.635
167.639
125.164
79.3109
25.2304
-48.5932
-149.954
-301.665
-524.623
-835.12
-1227.24
-1784.92
-2474.75
-3031.63
-3413.28
-3222.72
-2607.16
-1739.41
-1092.84
-814.312
-686.181
-460.219
-566.617
-901.199
-608.609
-303.032
-98.6902
-688.187
-1235.71
-271.172
459.15
1022.28
1178.84
1306.47
1314
1330.07
1332.61
1341.42
1367.09
1393.76
1441.73
1458.94
1502.06
1453.6
1288.58
39.9138
58.8458
113.048
140.514
175.248
200.504
227.369
251.172
274.778
294.64
308.317
313.418
311.498
304.462
302.275
305.689
314.123
330.593
338.035
354.66
365.225
373.864
377.551
383.026
388.685
394.474
396.81
394.529
387.35
373.747
356.91
334.439
302.445
262.525
218.001
172.448
128.115
81.5093
26.8566
-47.9324
-151.663
-310.211
-547.07
-880.699
-1308.65
-1919.55
-2653.92
-3248.06
-3646.53
-3424.61
-2766.47
-1853.76
-1161.52
-868.545
-734.29
-474.508
-533.281
-817.668
-534.117
-280.447
-84.2899
-737.738
-1349.01
-241.825
485.754
1055.58
1205.71
1332.96
1337.26
1353.19
1356.08
1366.72
1394.83
1424.46
1475.62
1494.81
1541.23
1487.71
1310.95
42.1618
60.2988
116.651
144.405
180.153
205.979
233.603
257.955
281.862
301.432
314.331
318.532
315.742
308.639
306.816
310.701
319.77
336.559
344.2
361.035
371.645
380.459
384.338
390.196
396.396
402.938
406.02
404.306
397.519
383.928
367.298
345.094
312.959
272.258
225.689
177.5
130.966
83.4217
28.3316
-47.0348
-152.93
-318.166
-569.512
-927.772
-1393.66
-2058.05
-2832.11
-3464.68
-3860.27
-3603.46
-2906.71
-1961.08
-1227.84
-923.187
-781.426
-494.196
-508.136
-742.615
-467.599
-256.156
-80.7334
-783.221
-1431.64
-200.778
516.6
1088.31
1231.92
1358.41
1359.72
1375.88
1379.53
1392.14
1422.61
1455.04
1509.28
1530.68
1581.02
1523.09
1332.62
44.4926
61.7225
120.261
148.291
185.074
211.482
239.87
264.744
288.874
308.087
320.21
323.531
319.869
312.812
311.324
315.712
325.4
342.476
350.308
367.316
377.961
386.946
391.043
397.299
404.045
411.337
415.168
414.028
407.617
394.097
377.716
355.728
323.457
282.196
233.71
182.837
133.872
85.101
29.6203
-45.9801
-153.903
-325.559
-591.816
-976.309
-1482.19
-2199.09
-3008.11
-3683.52
-4053.07
-3756.29
-3026.73
-2059.05
-1292.24
-976.906
-826.09
-519.006
-493.411
-678.518
-410.444
-232.304
-86.6114
-821.634
-1467.88
-148.845
553.4
1120.65
1257.7
1382.95
1381.69
1398.48
1403.14
1417.71
1450.37
1485.43
1542.67
1566.55
1621.54
1560.38
1362.48
46.9045
63.1163
123.878
152.172
190.015
217.015
246.17
271.531
295.808
314.627
325.97
328.422
323.9
316.986
315.805
320.724
331.006
348.336
356.352
373.495
384.168
393.317
397.662
404.336
411.645
419.696
424.286
423.728
417.678
404.303
388.255
366.446
333.952
292.293
242.026
188.485
136.953
86.6831
30.7735
-44.848
-154.73
-332.653
-613.918
-1026.31
-1575.06
-2341.49
-3182.86
-3908.03
-4225.49
-3882.99
-3127.38
-2146.94
-1354.08
-1026.02
-865.658
-545.706
-487.758
-623.6
-362.582
-210.283
-96.8374
-848.073
-1444.86
-86.5885
596.451
1152.84
1283.26
1406.76
1403.47
1421.21
1426.97
1443.39
1478.06
1515.54
1575.71
1602.45
1662.88
1598.56
1389.85
49.394
64.4796
127.499
156.052
194.977
222.582
252.502
278.305
302.667
321.071
331.618
333.209
327.854
321.161
320.26
325.734
336.582
354.133
362.32
379.566
390.263
399.567
404.189
411.305
419.2
428.032
433.403
433.455
427.758
414.622
399.011
377.381
344.566
302.466
250.568
194.435
140.252
88.3567
31.9319
-43.6426
-155.362
-339.981
-635.968
-1077.84
-1671.74
-2483.98
-3358.62
-4138.8
-4378.48
-3986.42
-3210.65
-2225.5
-1410.57
-1068.43
-898.584
-569.091
-488.899
-575.822
-323.096
-191.03
-105.186
-850.44
-1361.82
-13.9613
645.238
1185.08
1308.84
1430.13
1425.35
1444.22
1451.03
1469.13
1505.6
1545.29
1608.36
1638.39
1705.17
1640.52
1427.48
51.9563
65.8113
131.122
159.932
199.964
228.184
258.862
285.058
309.464
327.428
337.156
337.893
331.752
325.334
324.695
330.741
342.123
359.862
368.208
385.521
396.238
405.689
410.621