/*--------------------------------*- C++ -*----------------------------------*\
| =========                 |                                                 |
| \\      /  F ield         | OpenFOAM: The Open Source CFD Toolbox           |
|  \\    /   O peration     | Version:  4.1                                   |
|   \\  /    A nd           | Web:      www.OpenFOAM.org                      |
|    \\/     M anipulation  |                                                 |
\*---------------------------------------------------------------------------*/
FoamFile
{
    version     2.0;
    format      ascii;
    class       surfaceScalarField;
    location    "28";
    object      phi;
}
// * * * * * * * * * * * * * * * * * * * * * * * * * * * * * * * * * * * * * //

dimensions      [0 3 -1 0 0 0 0];

internalField   nonuniform List<scalar> 
13220
(
-903.302
2203.21
-1399.02
1795.92
-1863.27
1764.15
-2216.45
1653.09
-2486.24
1569.99
-2675.63
1489.3
-2786.53
1410.8
-2818.67
1332.34
-2771.23
1252.47
-2646.4
1175.07
-2455.24
1109.04
-2188.65
1033.31
-1763.6
874.86
-1051.74
588.344
248.163
-5.71341
2208.94
-49.8594
1840.08
-188.74
1903.05
-303.948
1768.32
-425.335
1691.39
-534.152
1598.13
-629.999
1506.66
-710.817
1413.17
-779.849
1321.51
-837.697
1232.93
-850.609
1121.96
-722.817
905.524
-366.25
518.307
53.2154
168.917
301.381
-164.511
2373.46
-394.44
2070.02
-616.717
2125.34
-768.01
1919.62
-911.612
1835.01
-1021.92
1708.45
-1112.32
1597.08
-1185.64
1486.5
-1246.59
1382.47
-1291.01
1277.36
-1283.48
1114.45
-1149.08
771.168
-854.833
224.133
-552.047
-133.757
-250.665
17.8596
2355.61
-69.1048
2157
-113.661
2169.91
-120.668
1926.64
-127.55
1841.91
-112.035
1692.95
-82.8191
1567.88
-36.9465
1440.65
24.9745
1320.57
100.052
1202.31
163.531
1050.98
151.08
783.649
16.9624
358.318
-117.574
0.85842
-368.237
143.632
2211.99
119.366
2181.28
159.689
2129.6
211.838
1874.51
261.591
1792.17
317.831
1636.73
376.109
1509.62
437.233
1379.53
502.493
1255.32
567.815
1137
610.544
1008.25
564.737
829.511
373.819
549.311
131.493
243.291
-236.746
145.083
2066.91
121.507
2204.87
147.539
2103.57
177.331
1844.73
206.249
1763.25
234.754
1608.23
262.086
1482.29
288.251
1353.38
316.337
1227.23
345.96
1107.37
366.892
987.316
347.808
848.54
255.421
641.626
126.646
371.917
-110.096
114.635
1952.29
111.491
2208.02
128.922
2086.15
146.501
1827.15
170.822
1738.94
189.502
1589.56
207.648
1464.15
224.135
1336.89
237.955
1213.42
250.555
1094.78
260.132
977.741
253.455
855.269
205.242
689.903
111.895
465.482
1.79375
81.5522
1870.74
120.532
2169.04
153.689
2052.99
185.112
1795.73
221.544
1702.5
253.368
1557.73
278.802
1438.71
295.911
1319.78
305.582
1203.74
309.389
1090.96
307.499
979.628
292.607
870.087
241.585
740.845
136.555
570.315
138.352
38.7959
1831.94
107.355
2100.48
157.126
2003.22
207.402
1745.46
252.676
1657.24
306.993
1503.41
358.518
1387.19
408.256
1270.04
449.524
1162.48
478.589
1061.9
483.054
975.164
450.946
902.255
364.391
827.457
218.992
715.809
357.341
-14.645
1846.58
42.3723
2043.46
92.3198
1953.26
129.622
1708.14
168.337
1618.51
214.777
1456.97
284.514
1317.44
409.579
1144.97
535.778
1036.27
622.833
974.825
647.727
950.267
595.292
954.609
458.794
963.879
261.105
913.39
618.446
-67.9933
1914.55
-80.3556
2055.8
-75.7494
1948.64
-111.635
1744.01
-139.17
1646.02
-164.426
1482.2
-147.866
1300.86
-53.6785
1050.76
86.338
896.223
225.43
835.706
342.805
832.854
406.77
890.653
376.186
994.457
234.572
1055
853.018
-119.649
2034.18
-301.208
2237.34
-429.856
2077.26
-589.774
1903.9
-749.291
1805.52
-920.018
1652.92
-1084.55
1465.38
-1236.4
1202.6
-1317.65
977.456
-1289.64
807.682
-1081.71
624.914
-610.361
419.239
8.0315
375.993
186.148
876.801
1039.17
5.86762
2028.29
-232.421
2475.61
-472.048
2316.87
-726.342
2158.18
-974.565
2053.73
-1208.84
1887.18
-1436.99
1693.51
-1681.77
1447.37
-1880.03
1175.71
-1932.08
859.724
-1708.55
401.373
-1063.96
-225.35
-147.658
-540.323
172.595
556.534
1211.76
-713.616
2741.9
-1299.19
3061.17
-1698.92
2716.6
-2024.93
2484.18
-2243.06
2271.85
-2399.27
2043.39
-2512.12
1806.35
-2595.32
1530.56
-2657.95
1238.34
-2649.9
851.671
-2596.06
347.529
-2078.7
-742.724
-1532.66
-1086.37
-626.232
-349.923
585.528
-1917.48
-2597.49
-2699.05
-2433.15
-1916.89
-1413.58
-864.927
-429.556
-130.962
75.7991
-204.68
-1002.24
-1494.94
-1323.28
0.000118794
1637.4
-1637.4
1637.4
1637.4
1637.4
3361.68
-1724.28
3361.68
3361.68
3361.68
4956.36
-1594.68
4956.36
4956.36
6422.41
-1466.05
6422.41
6422.41
6422.41
7767.12
-1344.71
7767.12
7767.12
9029.44
-1262.32
9029.44
9029.44
9029.44
10205.9
-1176.43
10205.9
10205.9
10205.9
11289.9
-1083.99
11289.9
11289.9
12299.6
-1009.7
12299.6
12299.6
12299.6
13208.8
-909.255
13208.8
13208.8
14061
-852.198
14061
14061
14061
14838.5
-777.448
14838.5
14838.5
14838.5
15563.1
-724.619
15563.1
15563.1
16253.2
-690.113
16253.2
16253.2
16253.2
16878.7
-625.474
16878.7
16878.7
16878.7
17448.1
-569.432
17448.1
17448.1
17971.3
-523.204
17971.3
17971.3
17971.3
18411.6
-440.312
18411.6
18411.6
18795.1
-383.45
18795.1
18795.1
18795.1
19079.8
-284.7
19079.8
19079.8
19079.8
19273.7
-193.891
19273.7
19273.7
19383.4
-109.765
19383.4
19383.4
19031.6
18755.1
18726.1
18670
17.5887
18614.2
18536.5
18436.4
18336.4
18242.2
18146
18035
17888.5
17393
336.809
17314.5
17235.1
17151.8
17269.3
17422
17411.5
17344.7
17245.9
16620.5
603.678
16826
17022.6
17088.4
17153.8
17260.3
17391.3
17513.6
17637.5
17752.5
17510.7
352.597
17704.6
17907.5
18065.4
18222.7
18390.6
18572.6
18765.8
18953.9
18751.4
400.854
18971.5
19215.3
19441.8
19669.1
19907.1
20145.8
20387.9
20653.8
20434.8
504.181
20723.9
21034.5
21314.6
21612.6
21931.9
22254.6
22583.2
22921.1
22610
673.757
23002.6
23429.8
23837.2
24255.1
24694.7
25184.4
25689.5
26210.6
26755.5
25596.1
1699.21
26223.2
26925.9
27605.8
28301
29030.4
29801.3
30646
31510.8
29515.4
2784.18
30408
31402
31402
28686.1
2715.88
25683.6
3002.5
25683.6
23279.7
2403.88
23279.7
21345.4
1934.32
19422.1
1923.28
19422.1
18122.2
1299.94
16912.5
1209.66
16912.5
16172.9
739.571
16172.9
15773.6
399.39
15505.4
268.155
15505.4
15557
-51.5788
15557
15819.8
-262.853
16203.4
-383.581
16203.4
16768.3
-564.874
17424.1
-655.853
17424.1
18235.1
-810.978
18235.1
19125.2
-890.108
20106.5
-981.227
20106.5
21203.5
-1097.08
21203.5
22348.6
-1145.11
23557.6
-1208.95
23557.6
24812.9
-1255.3
26075.6
-1262.71
26075.6
27397.3
-1321.66
27397.3
28708.2
-1310.94
29984.2
-1275.98
29984.2
31310.2
-1326.02
31310.2
32621.2
-1310.95
33863.3
-1242.12
33863.3
35162
-1298.7
36352.7
-1190.69
36352.7
37627.4
-1274.74
37627.4
38908.5
-1281.06
40081.1
-1172.62
40081.1
41363.3
-1282.23
41363.3
42667
-1303.63
43847.6
-1180.65
43847.6
45169.4
-1321.81
46330.1
-1160.68
46330.1
47641.1
-1311.03
47641.1
49001.4
-1360.28
50215.2
-1213.81
50215.2
51620.3
-1405.07
51620.3
53101.2
-1480.97
54447.3
-1346.07
54447.3
56043.9
-1596.61
57493.7
-1449.8
57493.7
59216.3
-1722.54
59216.3
-1936.79
-3086.61
18815.6
-3073.77
19062.8
-3030.5
19265.2
-2965.82
19463.7
-2872.75
19731.9
-2752.25
20018.4
-2606.06
20380.6
-2444.19
20828.9
-2278.87
21380.6
-2115.29
21923.4
-1942.26
22073.3
-1732.53
21073.9
-1460.97
18093.2
-1144.18
13393.2
-858.597
9826.26
-651.048
10679.7
-458.765
14629.6
-232.744
17273.9
-0.54507
16145.3
225.861
16781.8
441.484
13759.1
666.719
11015.6
911.43
10913.5
1138.08
11977.4
1327.9
12197.9
1493.51
11156.8
1651.69
9365.17
1803.45
7446.26
1944.59
5902.81
2070.42
4417.93
2171.4
2913.54
2239.13
1485.17
2278.91
159.204
2306.14
-940.464
2332.41
-1753.72
2366.46
-2334.35
2416.27
-2762.94
2484.37
-3069.89
2574.7
-3212.02
2709.54
-3261.3
2841.9
-3327.48
2917.4
-2545.45
3368.66
-1071.61
4274.04
-4686.66
4825.11
-11856.6
4735.62
-15959.1
4494.1
-17284.6
4528
-17963.7
4768.64
-17269.4
4973.66
-15329.9
5044.63
-12334.2
5011.81
-8601.77
4921.56
-5085.08
4782.21
-2490.32
4596.96
-188.576
4517.91
3040.74
4633.62
10339.7
4894.21
18044.5
5431.11
16655.2
6183.05
9754.32
6003.4
1865.94
4756.72
-778.829
4246
23915.1
4285.43
53131.5
4078.07
58439.3
3894.35
50794.9
3821
40614
3808.91
30871
3814.17
21811.2
3818.46
13205.8
3821.26
4858.4
3798.78
-3527.97
3682.62
-12074.7
3441.76
-20327.5
3045.13
-27974.4
2554.4
-33714
2269.82
-41526
2225.45
-55788
-66068.6
-3088.25
18820.7
-3072.91
19047.5
-3027.52
19219.8
-2960.61
19396.8
-2865.32
19636.6
-2743.14
19896.2
-2596.47
20233.9
-2435.86
20668.2
-2273.26
21218
-2112.73
21762.9
-1940.92
21901.5
-1727.26
20860.2
-1444.68
17810.6
-1117.82
13066.3
-838.87
9547.31
-643.942
10484.7
-458.332
14443.9
-232.736
17048.3
-2.29857
15914.9
222.197
16557.3
433.835
13547.4
654.565
10794.9
900.513
10667.6
1132.01
11745.9
1323.93
12006
1487.56
10993.1
1642.28
9210.45
1791.45
7297.08
1929.46
5764.81
2053.56
4293.83
2160.66
2806.44
2243.17
1402.66
2304.28
98.0869
2354.02
-990.197
2403.66
-1803.37
2463.31
-2394
2538.87
-2838.5
2631.06
-3162.09
2745.4
-3326.36
2903.05
-3418.95
3053.61
-3478.04
3179.89
-2671.73
3694.51
-1586.23
4541.95
-5534.1
4924.97
-12239.6
4736.59
-15770.7
4522.33
-17070.3
4645.24
-18086.6
4937.1
-17561.2
5130.02
-15522.8
5145.65
-12349.9
5047.33
-8503.45
4884.96
-4922.71
4677.06
-2282.42
4501.93
-13.4453
4481.19
3061.47
4610.63
10210.3
4839.93
17815.2
5377.39
16117.7
5796.88
9334.83
5119
2543.83
4177.87
162.298
4166.68
23926.3
4307.92
52990.3
4104.59
58642.6
3902.79
50996.7
3817.09
40699.7
3800.86
30887.2
3804.91
21807.1
3808.03
13202.7
3804.23
4862.2
3761.73
-3485.47
3623.87
-11936.9
3374.83
-20078.4
2979.19
-27578.7
2502.56
-33237.4
2240.14
-41263.6
2059.21
-55607.1
-65731.9
-3091.29
18824.3
-3073.09
19029.3
-3025.09
19171.8
-2955.39
19327.1
-2857.42
19538.7
-2733.09
19771.9
-2585.71
20086.5
-2426.4
20508.9
-2266.75
21058.3
-2109.27
21605.4
-1937.93
21730.1
-1718.91
20641.2
-1425.21
17516.9
-1090.6
12731.7
-818.282
9275
-635.893
10302.4
-456.935
14265
-233.144
16824.5
-4.58697
15686.4
217.58
16335.2
425.18
13339.8
641.824
10578.2
888.036
10421.4
1123.41
11510.5
1317.55
11811.8
1479.53
10831.1
1631.27
9058.71
1779.15
7149.21
1914.88
5629.08
2036.67
4172.03
2149.26
2693.85
2244.61
1307.31
2322.2
20.4999
2387.15
-1055.15
2451.96
-1868.17
2525.56
-2467.61
2612.91
-2925.85
2715.7
-3264.88
2842.23
-3452.88
3011.27
-3587.99
3175.47
-3642.23
3348.55
-2844.82
3905.41
-2143.08
4690.31
-6319
4974.53
-12523.8
4748.9
-15545.1
4564.39
-16885.8
4734.57
-18256.8
5039.44
-17866.1
5205.91
-15689.3
5170.99
-12314.9
5018.56
-8351.01
4801.82
-4705.97
4548.8
-2029.39
4384.08
151.27
4430.57
3014.98
4570.37
10070.5
4782.81
17602.8
5347.16
15553.4
5652.34
9029.66
4734.95
3461.21
3859.37
1037.88
4077.62
23708.1
4315.89
52752
4128.04
58830.4
3910.14
51214.6
3811.2
40798.6
3790.32
30908.1
3793.18
21804.3
3795.16
13200.7
3785.35
4872.01
3732.18
-3432.31
3588.43
-11793.1
3338.12
-19828.1
2944.87
-27185.5
2478.88
-32771.4
2225.59
-41010.3
2052.97
-55434.5
-65128.8
-3095.55
18826
-3074.29
19008
-3023.56
19121.1
-2950.89
19254.5
-2850.09
19437.9
-2723.52
19645.3
-2575.41
19938.4
-2417.36
20350.9
-2260.41
20901.4
-2105.4
21450.4
-1933.69
21558.4
-1709.17
20416.7
-1406.13
17213.8
-1066.39
12392
-800.391
9008.99
-628.296
10130.3
-455.027
14091.7
-233.644
16603.1
-7.24182
15459.9
212.259
16115.7
416.455
13135.6
629.753
10364.9
875.597
10175.5
1113.59
11272.5
1309.45
11616
1469.87
10670.7
1619.17
8909.42
1768.04
7000.33
1904.89
5492.23
2023.58
4053.33
2138.99
2578.45
2244.3
1202.01
2337.46
-72.6662
2419.69
-1137.38
2501.01
-1949.49
2589.97
-2556.56
2691.51
-3027.39
2808.08
-3381.45
2950
-3594.8
3133.24
-3771.23
3313.39
-3822.39
3528.99
-3060.41
4117.83
-2731.92
4838.6
-7039.77
5029.68
-12714.9
4769.27
-15284.7
4620.22
-16736.8
4842.24
-18478.8
5156.46
-18180.3
5286.15
-15819
5188.53
-12217.3
4968.91
-8131.4
4680.74
-4417.81
4382.79
-1731.43
4221.58
312.478
4351.04
2885.53
4526.48
9895.06
4770.32
17358.9
5408.24
14915.4
5659.18
8778.72
4593.27
4527.11
3668.44
1962.71
3994.37
23382.2
4317.33
52429.1
4145.12
59002.6
3915.05
51444.7
3804.11
40909.5
3778.57
30933.6
3780.05
21802.8
3780.23
13200.5
3764.13
4888.11
3700.75
-3368.92
3549.81
-11642.2
3296.29
-19574.6
2903.84
-26793
2448.52
-32316.1
2207.17
-40768.9
2022.64
-55250
-64702.8
-3101.07
18825.9
-3076.64
18983.6
-3023.05
19067.5
-2947.34
19178.8
-2843.61
19334.1
-2714.78
19516.5
-2565.97
19789.6
-2409.19
20194.1
-2254.83
20747
-2101.94
21297.5
-1929.44
21385.9
-1699.38
20186.6
-1387.86
16902.3
-1044.06
12048.2
-784.206
8749.14
-621.135
9967.19
-453.134
13923.7
-234.26
16384.2
-10.4122
15236.1
206.37
15898.9
407.561
12934.4
617.964
10154.5
863.376
9930.12
1103.48
11032.4
1300.73
11418.7
1459.51
10511.9
1606.45
8762.48
1758.02
6848.77
1899.79
5350.45
2016.72
3936.41
2133.84
2461.33
2247.62
1088.23
2355.02
-180.076
2452.5
-1234.85
2548.02
-2045.01
2650.66
-2659.2
2765.48
-3142.21
2895.34
-3511.31
3052.07
-3751.54
3248.77
-3967.92
3446.25
-4019.87
3703.57
-3317.73
4313.86
-3342.21
4967.68
-7693.6
5080.56
-12827.8
4800.86
-15005
4692.73
-16628.6
4958.58
-18744.7
5270.25
-18492
5354.58
-15903.3
5189.82
-12052.6
4893.96
-7835.54
4531.55
-4055.39
4205.3
-1405.18
4032.61
485.168
4229.29
2688.84
4470.66
9653.69
4802.82
17026.8
5535.16
14183.1
5711.7
8602.17
4553.77
5685.04
3577.97
2938.51
3923.61
23036.5
4317.24
52035.4
4158.35
59161.5
3917.38
51685.6
3795.04
41031.9
3764.77
30963.9
3764.66
21802.9
3762.61
13202.5
3740.58
4910.13
3668.48
-3296.82
3512.21
-11485.9
3255.98
-19318.4
2864.71
-26401.8
2421.19
-31872.5
2190.58
-40538.3
1966.72
-55026.1
-64082.1
-3107.92
18823.9
-3080.26
18955.9
-3023.7
19011
-2944.88
19099.9
-2838.13
19227.4
-2707.03
19385.4
-2557.56
19640.2
-2402.08
20038.6
-2250.2
20595.1
-2099.16
21146.5
-1925.46
21212.2
-1689.72
19950.9
-1370.15
16582.8
-1023.11
11701.1
-769.428
8495.46
-614.542
9812.3
-451.469
13760.6
-235.125
16167.9
-14.0552
15015
200.109
15684.7
398.649
12735.9
606.523
9946.66
851.441
9685.21
1093.33
10790.5
1291.86
11220.2
1449.06
10354.7
1593.44
8618.09
1748.38
6693.83
1898.41
5200.43
2016.16
3818.66
2134.64
2342.84
2254.73
968.143
2373.08
-298.431
2483.25
-1345.02
2592.02
-2153.78
2708.1
-2775.29
2836.24
-3270.35
2979.58
-3654.65
3151.34
-3923.3
3362.03
-4178.61
3578.59
-4236.44
3875.37
-3614.51
4496.96
-3963.79
5085.06
-8281.7
5132.8
-12875.5
4845.14
-14717.3
4781.36
-16564.9
5083.4
-19046.7
5383.02
-18791.6
5416.09
-15936.4
5181.27
-11817.7
4799.55
-7453.81
4365.8
-3621.64
4043.15
-1082.53
3851.96
676.354
4056.63
2484.17
4366
9344.33
4863.77
16529
5697.95
13348.9
5750.4
8549.73
4555.68
6879.76
3569.59
3924.6
3875.18
22730.9
4315.24
51595.4
4167.86
59308.9
3916.96
51936.5
3783.85
41165
3748.9
30998.9
3747.16
21804.7
3742.89
13206.8
3715.47
4937.55
3636.16
-3217.51
3475.42
-11325.2
3216.05
-19059
2825.72
-26011.4
2394.12
-31440.9
2174.71
-40318.9
1988.43
-54839.8
-63574.7
-3116.08
18819.8
-3085.14
18925
-3025.51
18951.3
-2943.49
19017.9
-2833.66
19117.6
-2700.3
19252
-2550.22
19490.1
-2396.05
19884.5
-2246.51
20445.6
-2096.96
20996.9
-1921.63
21036.9
-1680.03
19709.3
-1352.96
16255.7
-1003.61
11351.8
-756.094
8247.95
-608.595
9664.8
-450.033
13602.1
-236.263
15954.1
-18.0723
14796.8
193.552
15473.1
389.804
12539.7
595.516
9740.95
839.818
9440.9
1083.14
10547.2
1282.82
11020.5
1438.58
10199
1579.92
8476.74
1738.05
6535.7
1899.3
5039.18
2021.43
3696.53
2141.29
2222.99
2265.94
843.493
2392.49
-424.986
2513.7
-1466.23
2634.81
-2274.89
2763.56
-2904.04
2904.44
-3411.23
3061.12
-3811.33
3248.06
-4110.24
3473.44
-4403.99
3710.83
-4473.83
4044.38
-3948.07
4667.59
-4587.01
5191.93
-8806.03
5187.2
-12870.8
4903.05
-14433.2
4885.95
-16547.8
5215.51
-19376.3
5494.15
-19070.3
5472.77
-15915
5168.39
-11513.4
4695.77
-6981.19
4196.82
-3122.7
3904.9
-790.611
3710.93
870.322
3844.49
2350.61
4200.37
8988.45
4958.47
15770.9
5874.44
12433
5742.75
8681.42
4585.02
8037.49
3640.37
4869.25
3857.57
22513.8
4311.63
51141.3
4173.13
59447.4
3913.62
52196
3770.64
41308
3731.25
31038.2
3727.94
21808
3721.57
13213.2
3689.25
4969.87
3603.76
-3132.01
3439.11
-11160.5
3176.27
-18796.2
2787.25
-25622.4
2368.54
-31022.2
2157.07
-40107.5
1876.06
-54558.8
-63103.7
-3125.55
18813.6
-3091.25
18890.7
-3028.48
18888.6
-2943.17
18932.6
-2830.17
19004.6
-2694.56
19116.4
-2543.93
19339.4
-2391.07
19731.6
-2243.73
20298.3
-2095.33
20848.5
-1917.93
20859.5
-1670.35
19461.7
-1336.29
15921.6
-985.399
11000.9
-744.023
8006.58
-603.237
9524.01
-448.823
13447.7
-237.65
15742.9
-22.4183
14581.6
186.718
15263.9
380.991
12345.4
584.869
9537.07
828.475
9197.3
1072.91
10302.8
1273.65
10819.8
1428.09
10044.5
1565.81
8339.03
1726.09
6375.42
1900.68
4864.59
2032.35
3564.86
2154.61
2100.73
2283.24
714.865
2416
-557.746
2546.2
-1596.43
2678.09
-2406.78
2818.28
-3044.23
2971.16
-3564.11
3141.08
-3981.24
3343.61
-4312.77
3584.65
-4645.03
3843.98
-4733.16
4210.1
-4314.19
4826.02
-5202.92
5290.37
-9270.38
5245.5
-12825.9
4975.32
-14163
5005.93
-16578.4
5354.19
-19724.6
5604.82
-19320.9
5529.02
-15839.2
5158.05
-11142.4
4599.15
-6422.3
4068.49
-2592.04
3831.84
-553.957
3665.87
1036.29
3674.37
2342.11
4065.78
8597.03
5134.52
14702.2
6042.95
11524.5
5676.98
9047.39
4634.34
9080.13
3784.25
5719.33
3876.8
22421.2
4307.29
50710.8
4173.77
59580.9
3907.12
52462.7
3755.39
41459.7
3711.93
31081.7
3707.16
21812.7
3698.85
13221.5
3662.18
5006.55
3571.51
-3041.34
3403.29
-10992.3
3136.57
-18529.5
2749.37
-25235.2
2344.95
-30617.8
2142.47
-39905
1888.89
-54305.2
-62428.6
-3136.35
18805
-3098.61
18852.9
-3032.59
18822.5
-2943.88
18843.9
-2827.66
18888.3
-2689.82
18978.6
-2538.69
19188.3
-2387.16
19580.1
-2241.87
20153
-2094.28
20700.9
-1914.44
20679.6
-1660.75
19208
-1320.05
15580.9
-968.205
10649
-732.997
7771.37
-598.425
9389.44
-447.868
13297.1
-239.279
15534.4
-27.0694
14369.4
179.644
15057.2
372.195
12152.8
574.509
9334.76
817.377
8954.43
1062.71
10057.4
1264.42
10618.1
1417.76
9891.21
1551.31
8205.47
1711.79
6214.94
1900.51
4675.87
2048.14
3417.23
2175.35
1973.52
2308.2
582.018
2445.41
-694.964
2582.59
-1733.61
2723.59
-2547.78
2873.92
-3194.56
3038.06
-3728.25
3221.31
-4164.5
3439.95
-4531.41
3697.26
-4902.34
3978.36
-5014.26
4371.42
-4707.25
4972.4
-5803.9
5381.87
-9679.86
5308.74
-12752.8
5062.28
-13916.6
5140.85
-16656.9
5499.37
-20083.1
5717.27
-19538.8
5590.33
-15712.2
5159.15
-10711.2
4537.9
-5801.04
4026.4
-2080.54
3859.44
-386.991
3774.05
1121.68
3693.81
2422.35
4139.42
8151.42
5443.61
13398
6185.78
10782.4
5563.56
9669.6
4693.83
9949.86
3983.31
6429.85
3935.76
22468.8
4302.73
50343.9
4169.04
59714.6
3897.09
52734.6
3738.03
41618.8
3690.96
31128.8
3684.92
21818.8
3674.95
13231.5
3634.45
5047.05
3539.43
-2946.32
3367.69
-10820.6
3096.7
-18258.5
2712.13
-24850.6
2322.28
-30228
2129.62
-39712.3
1901.65
-54077.3
-61887.2
-3148.5
18794.1
-3107.22
18811.6
-3037.85
18753.2
-2945.63
18751.7
-2826.11
18768.8
-2686.06
18838.6
-2534.51
19036.8
-2384.32
19429.9
-2240.94
20009.6
-2093.83
20553.8
-1911.17
20497
-1651.19
18948
-1304.13
15233.9
-951.822
10296.7
-722.871
7542.42
-594.141
9260.71
-447.19
13150.2
-241.147
15328.3
-31.993
14160.2
172.379
14852.9
363.438
11961.8
564.42
9133.77
806.517
8712.33
1052.59
9811.36
1255.24
10415.4
1407.74
9738.71
1536.75
8076.47
1694.63
6057.05
1896.74
4473.76
2067
3246.96
2203.12
1837.4
2341.58
443.562
2482.15
-835.535
2624.71
-1876.17
2773.27
-2696.35
2932.59
-3353.88
3107.42
-3903.08
3304.19
-4361.27
3538.99
-4766.21
3812.02
-5175.37
4113
-5315.23
4526.41
-5120.66
5106.73
-6384.22
5467.82
-10041
5377.69
-12662.7
5164.1
-13703
5290.38
-16783.2
5651.72
-20444.4
5834.68
-19721.8
5662.78
-15540.3
5182.6
-10231
4538.9
-5157.35
4061.81
-1603.44
3925.52
-250.707
3978.29
1068.9
3963.17
2437.47
4526.64
7587.95
5884.69
12039.9
6295.8
10371.3
5423.03
10542.4
4746.25
10626.6
4208.34
6967.76
4031.33
22645.8
4298.29
50076.9
4157.92
59855
3883.01
53009.5
3718.44
41783.3
3668.43
31178.8
3661.38
21825.8
3650.04
13242.8
3606.23
5090.86
3507.54
-2847.63
3332.1
-10645.1
3056.53
-17982.9
2675.64
-24469.8
2301.21
-29853.5
2115.57
-39526.7
1809.33
-53771
-61388.9
-3161.99
18780.5
-3117.09
18766.7
-3044.24
18680.3
-2948.4
18655.9
-2825.52
18645.9
-2683.3
18696.3
-2531.39
18884.9
-2382.55
19281
-2240.91
19868
-2093.96
20406.9
-1908.09
20311.1
-1641.66
18681.6
-1288.44
14880.6
-936.112
9944.38
-713.532
7319.84
-590.357
9137.54
-446.792
13006.6
-243.247
15124.8
-37.1541
13954.2
164.961
14650.7
354.731
11772
554.585
8933.92
795.891
8471.03
1042.59
9564.66
1246.16
10211.8
1398.16
9586.71
1522.48
7952.15
1674.49
5905.05
1887.41
4260.84
2085.65
3048.72
2236.12
1686.93
2382.52
297.165
2526.53
-979.542
2673.86
-2023.49
2829.05
-2851.55
2996.57
-3521.39
3181.69
-4088.2
3391.73
-4571.31
3641.49
-5015.97
3928.12
-5461.99
4245.66
-5632.78
4672.9
-5547.9
5229.27
-6940.58
5549.44
-10361.1
5452.82
-12566
5280.77
-13530.9
5454.55
-16957
5812.74
-20802.6
5960.91
-19869.9
5752.38
-15331.8
5240.47
-9719.11
4609.76
-4526.63
4185.88
-1179.56
4111.91
-176.733
4336.37
844.442
4496.14
2277.69
5190.73
6893.36
6401.33
10829.3
6376.47
10396.1
5274.87
11644
4773.21
11128.3
4426.96
7314.01
4153.16
22919.6
4294.11
49935.9
4139.39
60009.7
3864.25
53284.7
3696.49
41951.1
3644.42
31230.9
3636.67
21833.6
3624.27
13255.2
3577.6
5137.53
3475.76
-2745.79
3296.19
-10465.6
3015.87
-17702.6
2640.02
-24093.9
2282.25
-29495.8
2103.89
-39348.3
1818.47
-53485.6
-60731.1
-3176.83
18764.2
-3128.21
18718.1
-3051.77
18603.9
-2952.17
18556.3
-2825.87
18519.6
-2681.52
18552
-2529.34
18732.7
-2381.85
19133.5
-2241.8
19727.9
-2094.67
20259.7
-1905.2
20121.6
-1632.11
18408.5
-1272.89
14521.4
-920.951
9592.44
-704.875
7103.76
-587.035
9019.7
-446.664
12866.2
-245.563
14923.7
-42.5244
13751.1
157.415
14450.8
346.074
11583.3
544.971
8735.02
785.483
8230.51
1032.73
9317.41
1237.28
10007.3
1389.11
9434.87
1509
7832.26
1651.95
5762.1
1870.98
4041.81
2099.14
2820.57
2271.59
1514.48
2428.96
139.79
2578.22
-1128.79
2730.84
-2176.12
2892.38
-3013.08
3067.58
-3696.6
3262.31
-4282.93
3484.19
-4793.19
3746.06
-5277.84
4042.95
-5758.88
4373.37
-5963.21
4809.03
-5983.56
5340.61
-7472.16
5627.89
-10648.4
5534.63
-12472.8
5412.44
-13408.7
5633.76
-17178.3
5984.66
-21153.5
6100.04
-19985.3
5864.55
-15096.3
5341.3
-9195.86
4751.94
-3937.27
4457.85
-885.468
4567.82
-286.709
4965.65
446.612
5300.01
1943.34
6035.35
6158.02
6932.36
9932.32
6435.15
10893.3
5131.03
12948.1
4764.29
11495
4613.28
7465.01
4286.17
23246.7
4289.56
49932.6
4112.57
60186.7
3840.09
53557.2
3671.97
42119.2
3618.94
31283.9
3610.88
21841.6
3597.7
13268.4
3548.61
5186.61
3443.94
-2641.11
3259.6
-10281.2
2974.62
-17417.6
2605.41
-23724.7
2264.73
-29155.1
2093.31
-39176.9
1814.07
-53206.4
-60238.8
-3193.05
18745
-3140.6
18665.7
-3060.43
18523.7
-2956.93
18452.8
-2827.16
18389.9
-2680.72
18405.5
-2528.36
18580.3
-2382.22
18987.4
-2243.58
19589.3
-2095.92
20112.1
-1902.46
19928.2
-1622.49
18128.5
-1257.4
14156.3
-906.224
9241.26
-696.8
6894.34
-584.134
8907.03
-446.799
12728.9
-248.082
14725
-48.0831
13551.1
149.757
14253
337.452
11395.6
535.53
8536.95
775.263
7990.78
1023.03
9069.65
1228.63
9801.68
1380.71
9282.79
1496.87
7716.11
1628.47
5630.49
1846.75
3823.53
2102.8
2564.52
2306.03
1311.25
2477.87
-32.0422
2635.66
-1286.59
2794.92
-2335.38
2962.94
-3181.11
3145.24
-3878.9
3348.07
-4485.75
3578.99
-5024.12
3849.14
-5547.98
4153.04
-6062.78
4493.4
-6303.57
4933.67
-6423.83
5441.7
-7980.19
5704.26
-10911
5623.59
-12392.1
5559.35
-13344.5
5828.75
-17447.7
6170.15
-21494.9
6256.01
-20071.2
6003.1
-14843.4
5486.71
-8679.47
4959.41
-3409.97
4829.82
-755.883
5161.34
-618.231
5715.55
-107.59
6212.4
1446.49
6919.74
5450.68
7426.76
9425.3
6475.72
11844.4
4996.06
14427.8
4716.71
11774.4
4750.22
7431.51
4414.18
23582.7
4282.9
50063.8
4076.8
60392.8
3809.88
53824.1
3644.59
42284.5
3592
31336.5
3584.08
21849.6
3570.38
13282.1
3519.26
5237.74
3411.82
-2533.67
3221.91
-10091.3
2932.73
-17128.4
2571.95
-23363.9
2248.84
-28832
2083.54
-39011.6
1784.35
-52907.2
-59635.1
-3210.64
18722.7
-3154.24
18609.3
-3070.18
18439.6
-2962.66
18345.2
-2829.38
18256.6
-2680.92
18257.1
-2528.45
18427.8
-2383.66
18842.6
-2246.25
19451.9
-2097.69
19963.5
-1899.83
19730.3
-1612.73
17841.4
-1241.86
13785.5
-891.828
8891.23
-689.217
6691.73
-581.617
8799.43
-447.188
12594.5
-250.795
14528.6
-53.8178
13354.1
141.991
14057.2
328.834
11208.8
526.203
8339.58
765.183
7751.8
1013.45
8821.39
1220.26
9594.87
1373.05
9130.01
1486.6
7602.56
1606.1
5510.98
1815.34
3614.29
2093.11
2286.75
2333.47
1070.88
2524.45
-223.022
2694.59
-1456.73
2862.32
-2503.11
3037.23
-3356.01
3225.78
-4067.45
3434.55
-4694.52
3671.22
-5260.79
3946.39
-5823.15
4255.4
-6371.8
4603.96
-6652.13
5046.5
-6866.36
5533.67
-8467.36
5779.56
-11156.9
5720.22
-12332.8
5721.88
-13346.2
6040.55
-17766.4
6372.07
-21826.4
6432.5
-20131.6
6169.85
-14580.8
5672.34
-8181.96
5214.65
-2952.28
5217.82
-759.047
5697.66
-1098.07
6342.04
-751.969
6967.23
821.303
7656.72
4761.18
7821.34
9260.68
6491.47
13174.2
4865.87
16053.4
4625.85
12014.4
4825.36
7232
4522.37
23885.7
4271.27
50314.9
4031.62
60632.4
3773.05
54082.7
3614.05
42443.5
3563.51
31387
3556.29
21856.8
3542.31
13296.1
3489.45
5290.59
3379.06
-2423.29
3182.72
-9894.97
2890.22
-16835.9
2539.77
-23013.5
2234.16
-28526.4
2074.72
-38852.1
1812.48
-52644.9
-59126.3
-3229.62
18697.1
-3169.14
18548.8
-3081.04
18351.5
-2969.34
18233.5
-2832.52
18119.8
-2682.1
18106.7
-2529.63
18275.4
-2386.18
18699.2
-2249.79
19315.5
-2099.96
19813.7
-1897.26
19527.6
-1602.78
17546.9
-1226.2
13408.9
-877.664
8542.69
-682.038
6496.1
-579.445
8696.84
-447.828
12462.8
-253.699
14334.4
-59.7314
13160.2
134.098
13863.3
320.168
11022.7
516.907
8142.84
755.165
7513.54
1003.94
8572.62
1212.16
9386.64
1366.16
8976
1478.53
7490.19
1586.9
5402.61
1779.22
3421.97
2068.15
1997.82
2346.14
792.894
2562.76
-439.638
2748.69
-1642.66
2926.72
-2681.14
3108.97
-3538.26
3302.91
-4261.39
3515.59
-4907.2
3755.71
-5500.91
4034.57
-6102.01
4348.42
-6685.65
4704.24
-7007.95
5147.72
-7309.84
5617.76
-8937.4
5854.74
-11393.8
5825.29
-12303.3
5900.63
-13421.5
6270.44
-18136.2
6593.53
-22149.5
6632.92
-20171
6365.04
-14312.9
5889.55
-7706.47
5490.68
-2553.4
5566.52
-834.891
6093.4
-1624.95
6741.46
-1400.03
7419.73
143.028
8111.66
4069.25
8054.57
9317.77
6467.54
14761.3
4727.84
17793.1
4479.88
12262.4
4827.69
6884.19
4598.58
24114.8
4251.08
50662.4
3976.66
60906.9
3729.14
54330.2
3579.99
42592.6
3533.31
31433.7
3527.45
21862.6
3513.39
13310.1
3459
5344.98
3345.19
-2309.47
3141.63
-9691.42
2847.23
-16541.5
2509.06
-22675.3
2220.75
-28238.1
2064.06
-38695.4
1741.45
-52322.3
-58667.1
-3250
18668.2
-3185.3
18484.1
-3092.97
18259.2
-2976.96
18117.5
-2836.58
17979.4
-2684.29
17954.4
-2531.9
18123
-2389.76
18557
-2254.18
19179.9
-2102.67
19662.2
-1894.7
19319.7
-1592.54
17244.8
-1210.32
13026.7
-863.63
8196
-675.176
6307.65
-577.586
8599.25
-448.722
12334
-256.807
14142.5
-65.8488
12969.2
126.03
13671.5
311.37
10837.4
507.523
7946.68
745.073
7275.99
994.371
8323.32
1204.24
9176.77
1360.02
8820.22
1472.78
7377.43
1572.54
5302.85
1742.48
3252.03
2028.75
1711.55
2338.18
483.465
2586.08
-687.534
2791.83
-1848.41
2981.79
-2871.1
3171.71
-3728.18
3370.48
-4460.16
3586.09
-5122.82
3829.3
-5744.12
4112.51
-6385.21
4431.67
-7004.82
4793.83
-7370.11
5237.76
-7753.77
5695.28
-9394.92
5930.92
-11629.5
5939.42
-12311.8
6095.97
-13578
6519.77
-18560
6837.91
-22467.6
6860.64
-20193.7
6588.5
-14040.7
6128.9
-7246.87
5765.24
-2189.75
5856.23
-925.879
6344.82
-2113.54
6921.98
-1977.2
7571.76
-506.745
8258.97
3382.04
8096.93
9479.81
6387.45
16470.7
4569.1
19611.4
4274.5
12557
4754.69
6404
4634.68
24234.8
4218.65
51078.5
3911.6
61213.9
3677.83
54563.9
3542.01
42728.5
3501.15
31474.6
3497.36
21866.4
3483.44
13324.1
3427.62
5400.79
3309.65
-2191.5
3098.37
-9480.14
2804.03
-16247.2
2479.99
-22351.3
2209.01
-27967.1
2054.76
-38541.2
1757.5
-52025.1
-58082.2
-3271.77
18635.6
-3202.7
18415
-3105.96
18162.5
-2985.51
17997.1
-2841.54
17835.4
-2687.48
17800.3
-2535.27
17970.8
-2394.41
18416.2
-2259.39
19044.9
-2105.79
19508.6
-1892.07
19105.9
-1581.94
16934.6
-1194.13
12638.9
-849.624
7851.49
-668.552
6126.57
-576.019
8506.71
-449.888
12207.8
-260.148
13952.8
-72.2198
12781.3
117.71
13481.5
302.313
10652.8
497.872
7751.13
734.693
7039.17
984.54
8073.47
1196.31
8965.01
1354.44
8662.09
1469.17
7262.7
1564.03
5207.99
1710.18
3105.88
1979.46
1442.26
2307.32
155.61
2587.48
-967.7
2818.02
-2078.94
3022.53
-3075.61
3220.93
-3926.58
3424.78
-4664.01
3643.86
-5341.9
3891.66
-5991.91
4180.6
-6674.16
4504.96
-7329.18
4872.3
-7737.44
5317.25
-8198.73
5767.69
-9845.35
6009.14
-11870.9
6063.06
-12365.7
6308.03
-13823
6789.97
-19041.9
7108.98
-22786.7
7119.29
-20204
6840.51
-13762
6383.63
-6789.99
6025.85
-1831.97
6085.13
-985.152
6458.22
-2486.63
6890.18
-2409.15
7461.37
-1077.94
8138.7
2704.72
7955.78
9662.73
6238.85
18187.7
4391.09
21459.2
4037.7
12910.3
4624.54
5817.16
4628.21
24231.2
4170.59
51536.1
3836.06
61548.4
3618.84
54781.2
3499.62
42847.7
3466.63
31507.6
3465.72
21867.3
3452.15
13337.6
3394.86
5458.09
3271.87
-2068.51
3052.81
-9261.07
2760.99
-15955.4
2452.69
-22042.9
2197.84
-27712.2
2045.74
-38389.1
1774.87
-51754.2
-57588.4
-3294.95
18599.1
-3221.33
18341.4
-3119.99
18061.1
-2994.96
17872.1
-2847.43
17687.9
-2691.7
17644.6
-2539.76
17818.8
-2400.12
18276.5
-2265.39
18910.1
-2109.24
19352.4
-1889.31
18886
-1570.88
16616.2
-1177.52
12245.5
-835.539
7509.51
-662.099
5953.13
-574.741
8419.36
-451.36
12084.5
-263.767
13765.2
-78.915
12596.4
109.039
13293.6
292.841
10469
487.702
7556.26
723.697
6803.18
974.093
7823.07
1187.98
8751.12
1349.02
8501.06
1467.12
7144.59
1561.44
5113.67
1688.13
2979.19
1930.17
1200.22
2257.86
-172.081
2563.64
-1273.48
2822.04
-2337.35
3045.45
-3299.02
3254.8
-4135.93
3465.32
-4874.53
3689.78
-5566.35
3944.25
-6246.38
4239.35
-6969.27
4567.54
-7657.37
4939.28
-8109.17
5387.39
-8646.84
5836.69
-10294.7
6090.57
-12124.8
6197.7
-12472.9
6537.72
-14163
7082.61
-19586.8
7410.72
-23114.8
7412.67
-20206
7122.19
-13471.5
6651.6
-6319.39
6270.53
-1450.9
6257.71
-972.332
6459.56
-2688.48
6686.98
-2636.58
7150.72
-1541.67
7824.12
2031.31
7667.9
9818.95
6016.49
19839.1
4210.43
23265.2
3825.24
13295.5
4473.2
5169.2
4582.61
24121.8
4104.08
52014.6
3749.55
61903
3551.93
54978.8
3452.31
42947.3
3429.21
31530.6
3432.07
21864.5
3419.1
13350.6
3360.17
5517.02
3231.27
-1939.62
3005.03
-9034.83
2718.65
-15669
2427.28
-21751.6
2187.5
-27472.5
2034.63
-38236.2
1716.43
-51436
-57146.7
-3319.53
18558.7
-3241.2