/*--------------------------------*- C++ -*----------------------------------*\
| =========                 |                                                 |
| \\      /  F ield         | OpenFOAM: The Open Source CFD Toolbox           |
|  \\    /   O peration     | Version:  4.1                                   |
|   \\  /    A nd           | Web:      www.OpenFOAM.org                      |
|    \\/     M anipulation  |                                                 |
\*---------------------------------------------------------------------------*/
FoamFile
{
    version     2.0;
    format      ascii;
    class       volVectorField;
    location    "28";
    object      U;
}
// * * * * * * * * * * * * * * * * * * * * * * * * * * * * * * * * * * * * * //

dimensions      [0 1 -1 0 0 0 0];

internalField   nonuniform List<vector> 
6785
(
(7.66103e-14 -0.607164 16.0838)
(7.72504e-14 -6.5083 12.475)
(-2.35291e-14 -4.74949 12.8115)
(3.14546e-14 -4.21993 12.5921)
(1.2177e-14 -3.61343 12.4308)
(-1.03381e-14 -3.14574 12.2174)
(3.15411e-14 -2.76506 11.9713)
(8.84559e-15 -2.48552 11.6795)
(-8.67866e-15 -2.30087 11.3377)
(3.30553e-14 -2.17667 10.9655)
(7.19298e-15 -2.12009 10.5908)
(-1.37637e-14 -2.32744 10.1402)
(3.04498e-14 -2.71959 9.53433)
(-1.44386e-14 -1.84448 8.95553)
(-6.69452e-14 0.721538 6.67364)
(1.74264e-13 -7.37625 26.1025)
(9.64559e-14 -16.5872 21.7444)
(-1.63082e-14 -11.6889 22.2194)
(1.25993e-13 -11.8915 20.8443)
(7.4574e-15 -10.9422 19.8656)
(2.92169e-14 -10.2118 18.8319)
(1.15148e-13 -9.46487 17.8025)
(9.486e-15 -8.73817 16.7535)
(5.54812e-14 -8.04001 15.6877)
(9.35463e-14 -7.39135 14.7184)
(1.85723e-14 -6.84394 14.0142)
(7.30834e-14 -6.54799 13.2388)
(9.9072e-14 -6.38039 11.3089)
(-3.85578e-14 -5.58923 8.16782)
(-5.49727e-14 -3.77817 7.84201)
(9.32858e-14 -10.3112 28.2355)
(7.57094e-14 -17.7414 24.5234)
(-1.89042e-14 -12.0205 25.0632)
(2.92027e-14 -12.7777 22.9649)
(1.47281e-14 -11.2643 21.847)
(1.61295e-16 -10.4238 20.4557)
(7.98954e-16 -9.48583 19.1302)
(1.90207e-14 -8.61732 17.822)
(-4.0046e-15 -7.80701 16.5745)
(-2.25565e-14 -6.97981 15.286)
(-3.33346e-15 -5.75507 13.2335)
(-1.26984e-13 -3.38318 8.86117)
(-2.75741e-13 0.431195 1.76133)
(-3.83867e-13 3.20101 -3.57467)
(-2.31585e-13 1.09256 -1.64244)
(1.45119e-13 -11.371 27.6346)
(4.39733e-14 -17.7257 24.3759)
(6.36058e-15 -11.9839 24.9099)
(-2.66623e-15 -13.6057 22.1864)
(-3.92644e-14 -11.652 21.2042)
(6.8462e-14 -11.156 19.5415)
(-3.41479e-14 -10.2393 18.1508)
(-5.66271e-14 -9.5065 16.7388)
(8.28848e-14 -8.81529 15.4323)
(-5.5337e-14 -8.15329 14.1417)
(-1.14813e-13 -7.16623 12.2913)
(-7.17989e-15 -5.07176 8.604)
(-1.17692e-13 -1.67022 2.69099)
(-9.53623e-13 2.08561 -1.57316)
(-3.10569e-13 1.89224 -5.30337)
(8.91288e-14 -11.5663 26.3035)
(-3.34679e-14 -17.7085 24.8988)
(-2.84435e-14 -12.2785 24.6716)
(-7.44542e-14 -13.9349 21.7646)
(-1.53952e-13 -11.9187 20.8152)
(8.77957e-15 -11.51 19.0475)
(-9.68933e-14 -10.6193 17.5889)
(-1.90917e-13 -9.86916 16.1086)
(-2.15398e-14 -9.15244 14.7084)
(-9.81943e-14 -8.47198 13.3702)
(-2.64061e-13 -7.68021 11.8364)
(-1.89237e-13 -6.30536 9.47147)
(-1.58636e-13 -4.13248 5.72155)
(-6.95337e-13 -1.16253 2.09871)
(1.23754e-13 0.577587 -2.95571)
(1.36356e-13 -11.3945 24.6675)
(1.89542e-16 -17.4866 25.3808)
(1.91059e-14 -12.4231 24.4353)
(-8.94581e-14 -13.7218 21.4662)
(-1.28121e-13 -11.7063 20.5342)
(4.00124e-14 -11.2866 18.7321)
(-1.27666e-13 -10.342 17.2667)
(-1.55912e-13 -9.52515 15.7671)
(1.38522e-14 -8.73594 14.3143)
(-1.19248e-13 -7.97267 12.9259)
(-1.97282e-13 -7.21015 11.5012)
(-8.73255e-14 -6.17656 9.75005)
(-1.46515e-13 -4.66576 7.04298)
(-3.16195e-13 -2.19624 3.6666)
(1.31266e-12 -0.0428369 -2.04071)
(2.56625e-13 -11.1102 23.1026)
(4.76213e-14 -17.086 25.5545)
(1.24065e-13 -12.5491 24.1855)
(-8.9337e-14 -13.3995 21.1873)
(-9.76684e-14 -11.5003 20.2162)
(1.28148e-13 -11.059 18.443)
(-7.18637e-14 -10.1048 16.9896)
(-1.12226e-13 -9.26722 15.4889)
(1.63324e-13 -8.45129 14.018)
(-4.31054e-14 -7.64863 12.6169)
(-1.3607e-13 -6.88615 11.2388)
(1.08136e-13 -5.99368 9.76274)
(-1.05201e-13 -4.84219 7.65166)
(-4.45109e-13 -2.79294 4.72836)
(1.33053e-12 -0.524842 -1.00258)
(1.80637e-13 -10.8383 21.9008)
(6.75396e-14 -16.5858 25.3525)
(1.39514e-13 -12.6762 23.9047)
(-3.3612e-14 -13.1248 20.9263)
(-9.97368e-14 -11.4368 19.8551)
(8.91603e-14 -10.948 18.1682)
(1.39823e-14 -10.0612 16.7282)
(-9.48309e-14 -9.25846 15.2901)
(5.91343e-14 -8.49621 13.9015)
(4.4871e-14 -7.72715 12.5702)
(-8.68106e-14 -6.9799 11.2435)
(6.27248e-15 -6.14962 9.88604)
(3.0666e-14 -5.21246 8.17712)
(-3.06929e-13 -3.57432 5.89886)
(-5.87581e-14 -1.36808 0.669751)
(1.89354e-13 -10.739 21.2692)
(7.26085e-14 -16.0265 24.7214)
(5.80438e-14 -12.5414 23.4957)
(1.01292e-15 -12.9183 20.5215)
(-9.9688e-14 -11.2562 19.4586)
(-6.01594e-15 -10.8514 17.8057)
(4.31294e-14 -10.0454 16.4951)
(-5.31084e-14 -9.40247 15.2109)
(-6.71958e-14 -8.76427 13.9335)
(8.38479e-14 -8.0967 12.6759)
(5.74151e-14 -7.43865 11.4531)
(-1.03184e-13 -6.74549 10.3013)
(2.76376e-14 -5.9933 9.04372)
(-1.11751e-13 -4.73935 7.44132)
(-4.52794e-13 -2.71802 3.06901)
(1.29431e-13 -10.9909 21.105)
(6.04786e-14 -15.3144 23.8589)
(1.22054e-14 -12.1363 22.8419)
(-1.05607e-13 -12.6362 19.8912)
(-8.30492e-14 -10.7753 18.9298)
(-5.55535e-14 -10.5195 17.067)
(-7.43591e-14 -9.4954 15.7254)
(-3.34161e-14 -8.97167 14.3401)
(-1.36875e-13 -8.46718 13.1711)
(-8.28819e-14 -8.05839 12.1305)
(1.02357e-13 -7.70656 11.3551)
(-1.21648e-14 -7.3808 10.8399)
(8.73168e-15 -6.97482 10.3859)
(1.43043e-13 -6.16498 9.493)
(-3.3572e-13 -4.2339 5.9498)
(4.77319e-14 -11.766 21.8674)
(7.53313e-14 -14.7982 23.6479)
(-1.48808e-13 -12.0516 22.564)
(-1.33012e-13 -12.2726 19.915)
(-6.82235e-14 -10.4096 18.8182)
(-2.62861e-13 -9.89035 16.8951)
(-1.83925e-13 -8.29257 14.9698)
(-3.87684e-13 -7.09289 12.3842)
(-8.14642e-13 -6.60411 11.124)
(-6.53549e-13 -6.73252 10.8242)
(-4.13849e-13 -7.06623 11.07)
(-6.47696e-13 -7.55614 11.6603)
(-1.28947e-13 -7.93159 12.2829)
(-1.48431e-13 -7.81839 12.0622)
(-5.05978e-13 -5.67391 8.95423)
(4.91008e-14 -12.3317 22.5638)
(6.88342e-14 -14.5927 24.0672)
(-2.8756e-13 -11.9433 22.6778)
(-9.42509e-14 -11.8214 20.6248)
(-1.26015e-13 -10.0763 19.4704)
(-3.698e-13 -9.15644 17.5628)
(-3.14974e-13 -7.23466 15.2396)
(-8.11381e-13 -5.30148 12.0753)
(-1.50445e-12 -3.74106 9.83558)
(-1.71943e-12 -3.10004 8.77619)
(-1.66862e-12 -3.0521 8.48767)
(-1.09074e-12 -4.09752 9.3028)
(-3.54001e-13 -6.22134 11.2779)
(-4.45803e-13 -8.06518 13.0627)
(-4.37826e-13 -6.76632 11.5213)
(-2.44858e-14 -13.6629 25.6656)
(7.66274e-14 -17.1676 28.555)
(-2.46666e-13 -13.8897 26.1875)
(-1.45325e-13 -13.4678 24.1553)
(-1.25974e-13 -11.6228 22.9163)
(-4.25135e-13 -10.6784 21.1311)
(-3.49086e-13 -8.86705 18.9994)
(-6.21193e-13 -6.95944 16.0919)
(-1.58462e-12 -4.77265 13.1665)
(-1.79838e-12 -2.94252 10.3093)
(-1.59712e-12 -0.69112 6.3912)
(-5.9644e-13 1.95631 0.836592)
(2.72207e-13 2.42999 -2.24831)
(-5.07727e-15 -4.56321 7.77803)
(-4.66219e-13 -5.89746 12.6481)
(-1.45753e-13 -8.61903 19.1292)
(-1.53244e-14 -14.7592 26.7945)
(-2.78751e-13 -11.7384 25.4387)
(-1.8035e-13 -11.119 23.8532)
(-1.85526e-13 -9.62285 22.8084)
(-3.39814e-13 -8.56312 20.9363)
(-3.11878e-13 -6.93416 18.7388)
(-6.76336e-13 -5.23021 15.9087)
(-1.1386e-12 -3.08977 12.4657)
(-1.04416e-12 -0.564383 8.0535)
(-8.10523e-13 3.16958 1.50591)
(-2.87606e-13 7.55775 -7.47046)
(1.09221e-13 9.04943 -11.8609)
(-1.82481e-13 0.175155 2.29911)
(-3.49023e-13 -4.88623 13.5903)
(-8.53822e-15 -29.9682 52.1936)
(-3.44822e-14 -24.4279 48.8019)
(-2.15928e-13 -19.2392 40.7255)
(-1.93315e-13 -17.0456 36.3266)
(-2.17145e-13 -14.9646 31.8379)
(-2.49996e-13 -13.7565 27.9819)
(-3.3281e-13 -12.3099 24.441)
(-6.06885e-13 -10.9324 20.4411)
(-7.5345e-13 -9.50419 17.0301)
(-7.3479e-13 -7.06716 12.2146)
(-8.87616e-13 -4.26879 6.46194)
(-2.01615e-13 6.76967 -11.4111)
(6.36998e-14 12.8859 -15.1297)
(3.86248e-14 7.91421 -12.006)
(-3.22911e-16 5.73139 -3.00938)
(-2.31977e-15 0.240848 -0.431548)
(-9.07944e-15 1.04745 -6.17567)
(-7.82255e-15 1.58146 -5.17779)
(-7.79947e-15 2.30142 -5.24915)
(-7.40575e-15 2.46242 -4.84737)
(-1.04816e-14 4.19005 -7.72919)
(-7.81757e-15 3.95827 -5.20308)
(-7.22406e-15 4.75231 -5.09711)
(-8.97576e-15 4.79026 -4.71796)
(7.68024e-15 6.84822 -7.10493)
(1.17603e-14 6.2336 -4.76026)
(1.11601e-14 6.74394 -4.30121)
(9.70173e-15 9.46246 -6.44764)
(6.43461e-15 7.84685 -4.23574)
(6.35935e-15 8.87136 -4.14628)
(6.70323e-15 8.64551 -3.8761)
(7.34359e-15 11.4565 -5.81716)
(5.93545e-15 9.82146 -3.89075)
(6.04824e-15 10.3195 -3.55189)
(6.85014e-15 13.9818 -5.38006)
(5.42528e-15 11.1389 -3.54171)
(5.53991e-15 12.3979 -3.49535)
(5.64915e-15 11.921 -3.26591)
(6.78258e-15 15.8177 -4.97217)
(5.24884e-15 12.687 -3.2248)
(6.1223e-15 14.1002 -3.11265)
(4.14851e-15 13.5395 -2.86046)
(5.19017e-15 17.3949 -4.35441)
(4.66041e-15 14.3968 -2.76025)
(5.11327e-15 14.8834 -2.41404)
(7.29098e-15 19.8484 -3.70295)
(6.43552e-15 15.3926 -2.24904)
(7.12594e-15 16.8687 -2.1295)
(7.77342e-15 16.1655 -1.91059)
(1.10852e-14 20.651 -3.04525)
(9.88277e-15 16.8518 -1.82072)
(1.06727e-14 17.3159 -1.58112)
(1.59702e-14 23.024 -2.56887)
(1.45262e-14 17.6312 -1.47916)
(1.63778e-14 19.2737 -1.43723)
(1.91507e-14 18.3566 -1.31335)
(2.92467e-14 23.9035 -2.27391)
(2.57786e-14 18.5705 -1.32696)
(2.8313e-14 20.4234 -1.28489)
(2.97012e-14 19.4654 -1.20681)
(4.24506e-14 24.6739 -2.14672)
(3.39475e-14 19.8668 -1.26524)
(3.30568e-14 20.3823 -1.13477)
(4.41327e-14 27.0093 -1.93396)
(3.46553e-14 20.4195 -1.11463)
(3.38907e-14 22.2792 -1.11217)
(3.14533e-14 21.209 -1.06913)
(3.90931e-14 27.4874 -1.86375)
(2.75722e-14 21.1308 -1.10528)
(2.44199e-14 23.2325 -1.06429)
(2.21061e-14 22.1291 -1.03479)
(2.51091e-14 27.9216 -1.79813)
(1.64018e-14 22.2673 -1.05184)
(1.23951e-14 22.8486 -0.946239)
(1.26707e-14 30.1434 -1.49563)
(7.07396e-15 22.5987 -0.84661)
(5.17223e-15 24.6096 -0.82678)
(2.97916e-15 23.5076 -0.820953)
(6.47039e-15 29.6671 -1.32335)
(3.28176e-15 23.49 -0.743761)
(2.53702e-15 24.072 -0.704976)
(4.05242e-15 31.7456 -0.967227)
(1.28738e-15 23.6315 -0.498982)
(7.52324e-16 25.743 -0.506893)
(2.08271e-16 24.5041 -0.535569)
(-2.94927e-16 31.5545 -0.729564)
(-8.53824e-16 23.8774 -0.378773)
(-1.39963e-15 26.2315 -0.345723)
(-1.16735e-15 24.9767 -0.393972)
(-1.72688e-15 31.3864 -0.500096)
(-6.73199e-15 24.5165 -0.178657)
(-6.37649e-15 25.3067 -0.196382)
(-9.62977e-15 31.9779 0.125077)
(-4.66775e-15 25.2323 0.213123)
(-1.13272e-14 23.6133 0.403)
(-8.68648e-16 26.6973 -0.430592)
(3.57663e-15 24.6945 -0.598406)
(8.97776e-15 24.2718 -0.644177)
(4.2971e-15 29.2064 0.741542)
(1.84907e-14 24.8493 0.778642)
(2.30583e-14 24.7394 0.152759)
(2.29342e-14 24.659 -0.236581)
(2.22501e-14 24.4753 -0.214318)
(2.3292e-14 24.3805 -0.183801)
(2.30139e-14 24.1955 -0.176123)
(2.21309e-14 24.1484 -0.153329)
(1.60867e-14 23.8212 -0.573133)
(8.03624e-15 26.2358 2.62829)
(4.65141e-15 22.97 0.527382)
(-7.43319e-15 22.9535 0.884283)
(2.99624e-15 23.4761 0.627343)
(-5.78076e-14 22.6345 1.84603)
(-7.49989e-14 23.4359 2.53843)
(-8.17592e-14 23.3374 3.48464)
(-6.79834e-14 23.1541 4.11907)
(-5.07615e-14 22.4603 3.76508)
(3.90936e-14 27.5112 4.66753)
(-1.13088e-13 22.1724 5.22134)
(-1.02044e-13 23.107 4.50223)
(-8.10642e-14 23.0303 3.79514)
(-6.56234e-14 22.8581 3.11735)
(-4.63573e-14 22.932 2.67893)
(-1.21971e-14 23.0566 2.76368)
(-9.61819e-15 23.1274 2.62074)
(-1.7477e-14 23.4477 2.53115)
(-3.25845e-14 23.0572 2.58246)
(6.33807e-14 29.5415 1.01814)
(-4.24307e-14 23.1792 3.68545)
(-4.47256e-14 24.1205 3.66427)
(-4.19405e-14 24.2371 3.54829)
(-3.64109e-14 24.1593 3.39377)
(-3.03625e-14 24.4123 3.14845)
(-1.69719e-14 24.4708 3.23836)
(-8.37277e-15 24.8793 3.24279)
(-1.45296e-14 24.579 3.32814)
(6.23604e-14 31.6807 0.869165)
(-2.04033e-14 24.8434 3.70374)
(-1.82567e-14 25.8664 3.82004)
(-3.47538e-15 26.0745 4.2184)
(-1.04288e-14 26.1062 4.36174)
(-2.04787e-14 26.3935 4.44897)
(-3.17006e-14 26.5209 4.58704)
(-4.31017e-14 27.0219 4.45449)
(-5.15325e-14 26.6146 5.24072)
(-3.00776e-14 34.7813 1.75846)
(-7.62059e-14 27.2528 5.65943)
(-8.41851e-14 28.36 5.80496)
(-9.00031e-14 28.7108 5.8255)
(-9.56355e-14 28.7006 6.28398)
(-1.03083e-13 29.0504 6.7291)
(-1.13743e-13 29.2698 7.11675)
(-1.2319e-13 29.7726 7.34953)
(-1.4547e-13 29.4647 8.37208)
(-1.26674e-13 38.5771 3.86262)
(-1.80057e-13 30.4932 9.91599)
(-2.00257e-13 31.8646 10.8218)
(-2.24642e-13 32.3164 11.8215)
(-2.51119e-13 32.3451 13.0512)
(-2.80387e-13 32.7353 14.0505)
(-3.14018e-13 32.9643 16.0575)
(-3.47985e-13 33.1659 17.7491)
(-3.82962e-13 33.6348 19.2061)
(-4.17504e-13 33.1103 21.5847)
(-4.34787e-13 44.1883 16.5617)
(-4.57907e-13 35.3405 24.4127)
(-4.66425e-13 36.9213 26.5205)
(-4.80273e-13 37.4445 28.3354)
(-4.90914e-13 37.4172 30.0419)
(-4.97714e-13 37.8023 31.6129)
(-5.0053e-13 37.9699 33.2545)
(-4.99393e-13 38.4505 35.0587)
(-4.82965e-13 38.0401 37.5396)
(-5.22805e-13 52.3228 31.5623)
(-4.72385e-13 41.595 38.4937)
(-4.54311e-13 43.6594 41.0306)
(-3.79218e-13 43.1654 30.5348)
(-4.53339e-13 39.0075 33.1725)
(-5.07429e-13 41.1079 34.47)
(-3.33892e-13 30.0782 22.7622)
(-4.37694e-13 40.039 27.519)
(-3.1106e-13 27.9771 19.8026)
(-3.71626e-13 29.3606 21.9423)
(-4.11156e-13 31.0359 21.6775)
(-2.72685e-13 23.1658 14.4383)
(-3.2072e-13 26.195 15.4562)
(-3.53302e-13 28.178 14.631)
(-2.28436e-13 19.4722 9.43528)
(-2.9851e-13 27.6556 10.1678)
(-2.094e-13 19.6457 7.1159)
(-2.49671e-13 21.4764 6.9662)
(-2.79254e-13 24.8929 5.64328)
(-1.79591e-13 17.4817 3.55593)
(-2.37932e-13 26.3289 2.75353)
(-1.66803e-13 18.7994 1.81216)
(-1.97762e-13 21.7096 0.770151)
(-2.21735e-13 24.8293 -0.888288)
(-1.46539e-13 18.8956 -0.72793)
(-1.73131e-13 23.7507 -2.03692)
(-2.01401e-13 27.5376 -3.63344)
(-1.30784e-13 19.13 -2.51451)
(-1.78539e-13 30.4871 -4.68906)
(-1.26988e-13 22.2319 -3.44837)
(-1.55477e-13 25.9627 -5.06762)
(-1.81583e-13 31.1729 -6.59557)
(-1.18919e-13 22.2691 -4.38223)
(-1.61533e-13 35.345 -6.87425)
(-1.15477e-13 25.8984 -4.91147)
(-1.39641e-13 30.8304 -6.71182)
(-1.62314e-13 35.3979 -8.05061)
(-1.08931e-13 27.4794 -5.26117)
(-1.29944e-13 35.1376 -6.90736)
(-1.50541e-13 40.5124 -7.96402)
(-1.00272e-13 28.8796 -5.13745)
(-1.35611e-13 45.1373 -7.56725)
(-9.79624e-14 33.6231 -5.24631)
(-1.18418e-13 39.1079 -6.89035)
(-1.36615e-13 46.1203 -7.77529)
(-9.10087e-14 33.6248 -4.96493)
(-1.2392e-13 51.7271 -7.28282)
(-8.98896e-14 38.4213 -5.0165)
(-1.083e-13 45.1153 -6.69345)
(-1.26847e-13 50.9375 -7.52447)
(-8.65903e-14 39.6708 -4.77769)
(-1.03565e-13 50.0935 -6.27567)
(-1.20313e-13 56.6875 -6.95604)
(-8.01911e-14 40.6352 -4.46298)
(-1.07863e-13 61.9005 -6.72164)
(-7.84977e-14 46.2938 -4.63478)
(-9.45832e-14 53.2928 -6.24687)
(-1.11069e-13 61.7807 -6.94783)
(-7.43755e-14 45.1866 -4.43696)
(-1.00441e-13 68.2633 -6.70126)
(-7.32142e-14 50.8364 -4.58613)
(-8.79896e-14 59.1347 -6.30868)
(-1.01267e-13 66.1358 -7.03174)
(-6.96232e-14 51.433 -4.39186)
(-8.36131e-14 64.5078 -5.92128)
(-9.56306e-14 72.4652 -6.50092)
(-6.3528e-14 51.989 -4.13158)
(-8.53847e-14 78.3029 -6.46491)
(-6.2865e-14 58.6861 -4.40712)
(-7.55302e-14 67.2065 -6.13919)
(-9.00088e-14 77.4781 -6.91189)
(-6.13557e-14 56.7484 -4.38793)
(-8.30381e-14 85.0447 -6.9618)
(-6.1507e-14 63.5087 -4.75497)
(-7.42454e-14 73.552 -6.79925)
(-8.55352e-14 82.138 -7.92001)
(-5.96324e-14 63.9435 -4.98468)
(-7.15769e-14 79.864 -6.96574)
(-8.42498e-14 89.9368 -8.25454)
(-5.75453e-14 64.5335 -5.3024)
(-7.89367e-14 97.5539 -8.83821)
(-5.76647e-14 72.2277 -6.01911)
(-7.79784e-14 87.0564 -9.79185)
(-3.8279e-16 -25.0807 20.5369)
(-4.26053e-16 -25.4314 20.6176)
(-4.47989e-16 -25.7334 20.3666)
(-4.70343e-16 -26.0197 20.0399)
(-4.87389e-16 -26.4054 19.5046)
(-4.99762e-16 -26.8132 18.799)
(-5.06886e-16 -27.32 17.8981)
(-5.08466e-16 -27.9327 16.8498)
(-5.04259e-16 -28.6752 15.7397)
(-4.94712e-16 -29.4082 14.6453)
(-4.80654e-16 -29.6403 13.558)
(-4.62579e-16 -28.3825 12.337)
(-4.40062e-16 -24.5176 10.7599)
(-4.12494e-16 -18.3244 8.7189)
(-3.81247e-16 -13.5059 6.5445)
(-3.49536e-16 -14.5117 4.90525)
(-3.16604e-16 -19.7449 3.77452)
(-2.80583e-16 -23.3156 2.33974)
(-2.42191e-16 -21.8263 0.763131)
(-2.03851e-16 -22.6711 -0.754813)
(-1.67912e-16 -18.6463 -2.25728)
(-1.35911e-16 -15.0291 -3.62939)
(-1.05695e-16 -14.9395 -5.26305)
(-7.71889e-17 -16.3353 -6.89027)
(-5.24617e-17 -16.5667 -8.28164)
(-3.3179e-17 -15.1291 -9.42132)
(-2.36293e-17 -12.7172 -10.4913)
(-2.23317e-17 -10.1443 -11.5308)
(-3.54533e-17 -8.08153 -12.5151)
(-6.99663e-17 -6.10575 -13.4146)
(-1.20743e-16 -4.07388 -14.1916)
(-1.71569e-16 -2.10678 -14.759)
(-2.06921e-16 -0.229901 -15.093)
(-2.25623e-16 1.3069 -15.2989)
(-2.38582e-16 2.35259 -15.4643)
(-2.47837e-16 3.08792 -15.6455)
(-2.53198e-16 3.63373 -15.9084)
(-2.57098e-16 4.01914 -16.3082)
(-2.6185e-16 4.17641 -16.8179)
(-2.54431e-16 4.18644 -17.5103)
(-2.5918e-16 4.26446 -18.6225)
(-3.29014e-16 3.22483 -19.2862)
(-1.99264e-16 0.870772 -19.6285)
(-4.65892e-17 5.12672 -25.2873)
(-1.36838e-15 15.2165 -31.6581)
(-3.38558e-15 21.4192 -32.6933)
(-4.44434e-15 23.3282 -30.4555)
(-4.33884e-15 23.8706 -29.4692)
(-3.98818e-15 22.7173 -30.8963)
(-3.91222e-15 20.1798 -32.6875)
(-4.09446e-15 16.3424 -33.6258)
(-4.34129e-15 11.4729 -33.6279)
(-4.54088e-15 6.86031 -33.2015)
(-4.67127e-15 3.46007 -32.4379)
(-4.79801e-15 0.464274 -31.3152)
(-4.90436e-15 -4.00002 -29.9786)
(-5.13196e-15 -13.9833 -30.2788)
(-5.38382e-15 -24.3578 -31.4919)
(-5.61435e-15 -22.7296 -33.7436)
(-5.50244e-15 -13.7758 -38.6739)
(-4.46245e-15 -2.24193 -43.8333)
(-2.157e-15 2.49778 -36.0405)
(-1.65337e-16 -31.6089 -27.5252)
(3.17602e-17 -71.1392 -29.0889)
(5.19221e-18 -77.7477 -28.0137)
(-4.51816e-20 -67.4921 -26.3589)
(-1.79177e-19 -54.0124 -25.5691)
(5.8227e-20 -41.0924 -25.382)
(-1.6757e-19 -29.0442 -25.4052)
(1.06249e-18 -17.5851 -25.4515)
(-4.20711e-18 -6.47313 -25.4634)
(1.90058e-17 4.71719 -25.4853)
(-6.91286e-17 16.2273 -25.1631)
(1.62112e-16 27.3779 -23.9377)
(2.66975e-16 37.7567 -21.9551)
(-3.74345e-15 45.5197 -18.6464)
(-2.94844e-15 55.6927 -15.4168)
(3.64452e-15 74.47 -14.8387)
(1.08863e-14 88.4624 -15.3005)
(-3.85207e-16 -25.0913 20.5566)
(-4.28428e-16 -25.407 20.6176)
(-4.49997e-16 -25.6575 20.3552)
(-4.71953e-16 -25.9089 20.0124)
(-4.88556e-16 -26.2497 19.4626)
(-5.00486e-16 -26.617 18.7426)
(-5.07177e-16 -27.0869 17.8332)
(-5.08351e-16 -27.6768 16.7872)
(-5.03816e-16 -28.4086 15.6916)
(-4.94046e-16 -29.1249 14.6189)
(-4.7984e-16 -29.2999 13.5492)
(-4.61608e-16 -27.9118 12.3231)
(-4.38847e-16 -23.855 10.6958)
(-4.10974e-16 -17.5277 8.56724)
(-3.79665e-16 -12.8134 6.36594)
(-3.48377e-16 -14.0537 4.82359)
(-3.15892e-16 -19.3491 3.75773)
(-2.80166e-16 -22.8471 2.33924)
(-2.42036e-16 -21.3316 0.767816)
(-2.03987e-16 -22.1835 -0.738692)
(-1.68358e-16 -18.1447 -2.22233)
(-1.36712e-16 -14.4508 -3.56118)
(-1.06789e-16 -14.2769 -5.17779)
(-7.84042e-17 -15.7107 -6.83317)
(-5.36611e-17 -16.0488 -8.25183)
(-3.42112e-17 -14.693 -9.39232)
(-2.4102e-17 -12.3136 -10.4387)
(-2.19658e-17 -9.75209 -11.4576)
(-3.28036e-17 -7.68169 -12.4257)
(-6.19417e-17 -5.6798 -13.3004)
(-1.05724e-16 -3.65924 -14.0835)
(-1.51059e-16 -1.75671 -14.7211)
(-1.8405e-16 0.000497256 -15.1834)
(-2.03456e-16 1.39006 -15.5523)
(-2.17239e-16 2.40036 -15.8681)
(-2.28217e-16 3.15878 -16.206)
(-2.36167e-16 3.74298 -16.6404)
(-2.43403e-16 4.16887 -17.2099)
(-2.49927e-16 4.37708 -17.8729)
(-2.42469e-16 4.48194 -18.7318)
(-2.57688e-16 4.55558 -19.9913)
(-3.22217e-16 3.47735 -20.7283)
(-1.32013e-16 1.8356 -21.682)
(-1.08932e-16 6.97845 -27.6236)
(-1.60125e-15 16.2088 -32.8629)
(-3.55456e-15 21.1483 -32.8132)
(-4.33827e-15 22.8391 -30.3511)
(-4.00448e-15 24.0259 -29.9613)
(-3.63565e-15 23.267 -31.968)
(-3.66899e-15 20.631 -33.862)
(-3.97953e-15 16.5141 -34.5281)
(-4.31257e-15 11.4558 -34.052)
(-4.55501e-15 6.68248 -33.2636)
(-4.70283e-15 3.16389 -31.9277)
(-4.8565e-15 0.047314 -30.4114)
(-4.9258e-15 -4.09867 -29.6015)
(-5.10684e-15 -13.642 -30.1733)
(-5.38503e-15 -23.8849 -31.2851)
(-5.58723e-15 -21.901 -33.2271)
(-4.90722e-15 -12.553 -38.4897)
(-2.82509e-15 -2.89394 -38.8859)
(-1.08008e-15 -0.200122 -29.17)
(-1.34581e-16 -31.7066 -26.6135)
(2.96973e-17 -70.5425 -29.0656)
(6.69546e-18 -78.016 -28.2528)
(2.17381e-20 -67.893 -26.4777)
(-2.3066e-19 -54.2628 -25.5702)
(4.20424e-20 -41.2247 -25.3339)
(-1.70791e-19 -29.1215 -25.3462)
(1.08685e-18 -17.6349 -25.387)
(-4.69817e-18 -6.48929 -25.3896)
(2.30858e-17 4.69212 -25.3318)
(-8.76462e-17 15.9966 -24.8235)
(2.43469e-16 26.8889 -23.4926)
(8.27087e-17 36.9461 -21.508)
(-4.25486e-15 44.5165 -18.2071)
(-2.68392e-15 55.1256 -15.1676)
(4.5246e-15 74.2637 -14.7098)
(8.64125e-15 87.8336 -13.2291)
(-3.88201e-16 -25.0982 20.5879)
(-4.31338e-16 -25.3836 20.6263)
(-4.52445e-16 -25.5901 20.349)
(-4.73905e-16 -25.8094 19.9865)
(-4.89961e-16 -26.1076 19.4189)
(-5.01345e-16 -26.4337 18.681)
(-5.07502e-16 -26.8659 17.7607)
(-5.08179e-16 -27.4346 16.7164)
(-5.03247e-16 -28.1648 15.6365)
(-4.93209e-16 -28.8889 14.5873)
(-4.78822e-16 -29.0565 13.535)
(-4.60395e-16 -27.6222 12.2983)
(-4.37337e-16 -23.4873 10.6118)
(-4.09119e-16 -17.1222 8.39201)
(-3.77774e-16 -12.4791 6.1747)
(-3.46984e-16 -13.8073 4.73721)
(-3.15021e-16 -19.0967 3.73973)
(-2.79651e-16 -22.535 2.33874)
(-2.41843e-16 -21.0163 0.775069)
(-2.0415e-16 -21.8774 -0.717586)
(-1.68896e-16 -17.8697 -2.18224)
(-1.37672e-16 -14.184 -3.48579)
(-1.08103e-16 -13.9871 -5.0813)
(-7.98798e-17 -15.4361 -6.76248)
(-5.51326e-17 -15.8208 -8.20888)
(-3.54981e-17 -14.5005 -9.35094)
(-2.47458e-17 -12.1373 -10.3733)
(-2.16549e-17 -9.59847 -11.3774)
(-3.01316e-17 -7.56421 -12.3395)
(-5.37868e-17 -5.59283 -13.189)
(-9.03662e-17 -3.6117 -13.9732)
(-1.30072e-16 -1.76499 -14.6771)
(-1.60756e-16 -0.0571765 -15.2475)
(-1.81292e-16 1.36296 -15.7225)
(-1.97628e-16 2.44957 -16.1432)
(-2.11662e-16 3.24898 -16.5795)
(-2.22342e-16 3.85039 -17.0982)
(-2.3201e-16 4.28759 -17.7397)
(-2.3945e-16 4.51424 -18.4731)
(-2.32241e-16 4.658 -19.4232)
(-2.54828e-16 4.71744 -20.7539)
(-3.12239e-16 3.6316 -21.586)
(-8.56778e-17 2.39312 -23.1095)
(-1.55629e-16 7.81995 -28.989)
(-1.72155e-15 16.4974 -33.4512)
(-3.61279e-15 20.8984 -32.8952)
(-4.24547e-15 22.6479 -30.4414)
(-3.79815e-15 24.2012 -30.4319)
(-3.43356e-15 23.5915 -32.6849)
(-3.54402e-15 20.7981 -34.5107)
(-3.93372e-15 16.4499 -34.8876)
(-4.31625e-15 11.248 -34.0132)
(-4.58124e-15 6.44749 -32.917)
(-4.72671e-15 2.88296 -31.2214)
(-4.89161e-15 -0.112648 -29.4172)
(-4.9564e-15 -4.10987 -29.0133)
(-5.08551e-15 -13.5466 -30.0663)
(-5.41122e-15 -23.5943 -30.8479)
(-5.39866e-15 -21.1017 -32.9339)
(-4.11981e-15 -12.2409 -38.3552)
(-1.9401e-15 -3.80164 -37.0832)
(-5.51612e-16 -0.545343 -25.9334)
(-8.18856e-17 -31.8741 -25.506)
(2.52518e-17 -70.4828 -28.9952)
(7.36132e-18 -78.3255 -28.4604)
(1.58818e-19 -68.1592 -26.5835)
(-2.77751e-19 -54.3468 -25.5568)
(1.93943e-20 -41.2077 -25.268)
(-1.77567e-19 -29.0806 -25.2704)
(1.13825e-18 -17.6036 -25.3058)
(-5.23589e-18 -6.4854 -25.2984)
(2.46619e-17 4.61003 -25.1693)
(-9.70814e-17 15.827 -24.5947)
(2.93204e-16 26.6242 -23.2477)
(-6.01124e-17 36.5434 -21.2664)
(-4.52352e-15 44.0456 -17.9899)
(-2.50203e-15 54.8693 -15.0706)
(5.0064e-15 74.0303 -14.5958)
(7.20812e-15 87.2709 -12.3569)
(-3.91338e-16 -25.1009 20.6283)
(-4.34344e-16 -25.3588 20.6426)
(-4.54959e-16 -25.5289 20.349)
(-4.75896e-16 -25.7209 19.966)
(-4.91381e-16 -25.9835 19.3794)
(-5.02195e-16 -26.2761 18.6229)
(-5.07797e-16 -26.6796 17.6914)
(-5.07962e-16 -27.2345 16.6485)
(-5.02626e-16 -27.967 15.5837)
(-4.92317e-16 -28.6988 14.5555)
(-4.77744e-16 -28.8574 13.5153)
(-4.59113e-16 -27.3764 12.2628)
(-4.35749e-16 -23.1665 10.5201)
(-4.07202e-16 -16.7684 8.22804)
(-3.75863e-16 -12.203 6.0114)
(-3.45572e-16 -13.6228 4.66064)
(-3.14123e-16 -18.9023 3.71853)
(-2.79114e-16 -22.2846 2.33587)
(-2.41639e-16 -20.7649 0.784312)
(-2.04314e-16 -21.635 -0.692003)
(-1.69442e-16 -17.6549 -2.13866)
(-1.38642e-16 -13.9733 -3.41403)
(-1.09435e-16 -13.7481 -4.98962)
(-8.13914e-17 -15.2045 -6.68682)
(-5.66557e-17 -15.6298 -8.15446)
(-3.68543e-17 -14.3418 -9.29788)
(-2.54903e-17 -11.9853 -10.2976)
(-2.14884e-17 -9.44248 -11.2938)
(-2.79621e-17 -7.4257 -12.275)
(-4.7036e-17 -5.4929 -13.1118)
(-7.73571e-17 -3.52059 -13.8819)
(-1.11841e-16 -1.66834 -14.6305)
(-1.39834e-16 0.0730028 -15.2892)
(-1.60742e-16 1.51834 -15.8793)
(-1.78626e-16 2.58837 -16.4194)
(-1.94717e-16 3.3701 -16.9628)
(-2.07434e-16 3.97771 -17.5771)
(-2.19301e-16 4.4362 -18.3096)
(-2.2728e-16 4.70121 -19.1356)
(-2.20735e-16 4.90818 -20.1991)
(-2.51922e-16 4.96656 -21.6125)
(-2.96583e-16 3.92279 -22.5557)
(-3.8941e-17 3.22032 -24.5741)
(-2.18184e-16 8.93018 -30.3407)
(-1.86147e-15 16.8632 -34.0682)
(-3.6746e-15 20.5579 -33.0136)
(-4.12917e-15 22.3938 -30.5992)
(-3.55791e-15 24.4643 -31.0233)
(-3.21043e-15 24.0328 -33.5254)
(-3.41384e-15 21.0267 -35.2306)
(-3.89256e-15 16.3858 -35.2347)
(-4.32923e-15 11.0212 -33.891)
(-4.61843e-15 6.13611 -32.3484)
(-4.76371e-15 2.52666 -30.2628)
(-4.92753e-15 -0.321351 -28.1601)
(-4.99211e-15 -3.98079 -28.0898)
(-5.07895e-15 -13.3536 -29.9235)
(-5.41657e-15 -23.3409 -30.3909)
(-5.12949e-15 -20.3495 -33.238)
(-3.52029e-15 -11.8731 -38.8737)
(-1.42736e-15 -5.38253 -36.6401)
(-2.90527e-16 -2.03687 -24.4779)
(-3.65104e-17 -31.4671 -24.4524)
(2.08695e-17 -70.1862 -28.893)
(7.16043e-18 -78.5633 -28.6093)
(3.19789e-19 -68.4264 -26.6647)
(-3.01089e-19 -54.4563 -25.5358)
(-5.41259e-21 -41.2162 -25.1946)
(-1.89052e-19 -29.0634 -25.1863)
(1.2105e-18 -17.596 -25.2147)
(-5.73453e-18 -6.50497 -25.1901)
(2.63569e-17 4.53874 -24.9948)
(-1.07558e-16 15.6236 -24.3515)
(3.53902e-16 26.2616 -22.9744)
(-2.49391e-16 35.9717 -20.9838)
(-4.84809e-15 43.3704 -17.7221)
(-2.26743e-15 54.5062 -14.9355)
(5.58536e-15 73.7931 -14.4914)
(5.49605e-15 86.5603 -13.0579)
(-3.94512e-16 -25.1018 20.6777)
(-4.37343e-16 -25.3286 20.667)
(-4.57449e-16 -25.4604 20.356)
(-4.77853e-16 -25.6236 19.9523)
(-4.92761e-16 -25.8498 19.3458)
(-5.03002e-16 -26.1096 18.5702)
(-5.08046e-16 -26.4867 17.6275)
(-5.07703e-16 -27.0307 16.5866)
(-5.01969e-16 -27.766 15.5368)
(-4.91396e-16 -28.4997 14.528)
(-4.7664e-16 -28.633 13.4966)
(-4.57801e-16 -27.0765 12.225)
(-4.34134e-16 -22.7562 10.4283)
(-4.05285e-16 -16.3054 8.07511)
(-3.73992e-16 -11.8426 5.8663)
(-3.4419e-16 -13.3976 4.58967)
(-3.1323e-16 -18.6778 3.6959)
(-2.78573e-16 -21.9958 2.3327)
(-2.4143e-16 -20.4691 0.79605)
(-2.04472e-16 -21.3487 -0.662115)
(-1.69976e-16 -17.3862 -2.0911)
(-1.39586e-16 -13.6872 -3.34363)
(-1.10739e-16 -13.4139 -4.90213)
(-8.28873e-17 -14.8799 -6.61055)
(-5.81777e-17 -15.363 -8.09566)
(-3.82326e-17 -14.1237 -9.24004)
(-2.63133e-17 -11.7791 -10.2169)
(-2.14692e-17 -9.2277 -11.2061)
(-2.62916e-17 -7.22049 -12.2308)
(-4.17365e-17 -5.3101 -13.0785)
(-6.67623e-17 -3.33032 -13.8306)
(-9.64015e-17 -1.47648 -14.6109)
(-1.21297e-16 0.256831 -15.3498)
(-1.41941e-16 1.64704 -16.0494)
(-1.60585e-16 2.69072 -16.6916)
(-1.77987e-16 3.48599 -17.3248)
(-1.92233e-16 4.11954 -18.0266)
(-2.05952e-16 4.60099 -18.8465)
(-2.13939e-16 4.89938 -19.7629)
(-2.0858e-16 5.15667 -20.9351)
(-2.48367e-16 5.21216 -22.4229)
(-2.7574e-16 4.23284 -23.5093)
(1.73867e-18 4.00241 -25.9736)
(-2.87773e-16 9.81943 -31.5328)
(-1.98719e-15 17.0407 -34.5957)
(-3.7118e-15 20.1963 -33.164)
(-4.0026e-15 22.2303 -30.8757)
(-3.32658e-15 24.7982 -31.7152)
(-3.00762e-15 24.4461 -34.381)
(-3.30508e-15 21.1621 -35.8923)
(-3.86716e-15 16.2057 -35.4843)
(-4.35341e-15 10.6821 -33.656)
(-4.66295e-15 5.68224 -31.5395)
(-4.80659e-15 2.09755 -29.1855)
(-4.95938e-15 -0.551691 -26.8758)
(-5.03422e-15 -3.75442 -26.8268)
(-5.09484e-15 -13.0715 -29.5619)
(-5.39392e-15 -22.9725 -29.9965)
(-4.87692e-15 -19.4364 -34.0757)
(-3.06817e-15 -11.5429 -39.7288)
(-1.07644e-15 -6.74428 -36.4761)
(-1.49285e-16 -3.2558 -24.1246)
(-7.34114e-18 -30.9247 -23.6064)
(1.70415e-17 -69.6675 -28.7781)
(6.50148e-18 -78.778 -28.7291)
(4.78991e-19 -68.7464 -26.7262)
(-2.97064e-19 -54.6213 -25.5026)
(-2.95425e-20 -41.2624 -25.1081)
(-2.05792e-19 -29.07 -25.0881)
(1.29114e-18 -17.6025 -25.1076)
(-6.10428e-18 -6.53132 -25.0624)
(2.73847e-17 4.44506 -24.807)
(-1.16008e-16 15.4206 -24.1106)
(4.14646e-16 25.9324 -22.7128)
(-4.7144e-16 35.4683 -20.7098)
(-5.15292e-15 42.7951 -17.4721)
(-2.00875e-15 54.2049 -14.822)
(6.14525e-15 73.5226 -14.374)
(3.68636e-15 85.8399 -11.3809)
(-3.97697e-16 -25.1006 20.7362)
(-4.40308e-16 -25.2936 20.7)
(-4.59895e-16 -25.386 20.3711)
(-4.7976e-16 -25.5193 19.9462)
(-4.9409e-16 -25.7076 19.319)
(-5.03758e-16 -25.9342 18.5241)
(-5.08246e-16 -26.2855 17.5704)
(-5.07402e-16 -26.8201 16.5318)
(-5.01283e-16 -27.5591 15.4969)
(-4.90454e-16 -28.2934 14.5064)
(-4.75517e-16 -28.3962 13.4812)
(-4.56469e-16 -26.7556 12.1876)
(-4.32503e-16 -22.3189 10.3373)
(-4.0338e-16 -15.8236 7.92943)
(-3.72171e-16 -11.4821 5.73348)
(-3.42845e-16 -13.1745 4.52441)
(-3.12347e-16 -18.4482 3.6746)
(-2.78033e-16 -21.6954 2.33077)
(-2.41217e-16 -20.1609 0.810362)
(-2.04621e-16 -21.0499 -0.628918)
(-1.70493e-16 -17.1066 -2.04138)
(-1.40499e-16 -13.3917 -3.27471)
(-1.12008e-16 -13.0674 -4.81807)
(-8.43567e-17 -14.5402 -6.53508)
(-5.9686e-17 -15.0843 -8.03566)
(-3.96191e-17 -13.9011 -9.1813)
(-2.72032e-17 -11.5748 -10.1359)
(-2.1585e-17 -9.01684 -11.1136)
(-2.50093e-17 -7.02341 -12.1979)
(-3.76842e-17 -5.14455 -13.0835)
(-5.82297e-17 -3.16144 -13.8237)
(-8.33835e-17 -1.31426 -14.6252)
(-1.04904e-16 0.402953 -15.4264)
(-1.24876e-16 1.768 -16.214)
(-1.43686e-16 2.81971 -16.9442)
(-1.61715e-16 3.63498 -17.6636)
(-1.77011e-16 4.2856 -18.4542)
(-1.9222e-16 4.78487 -19.3625)
(-1.99679e-16 5.11975 -20.3709)
(-1.96278e-16 5.43021 -21.6535)
(-2.4447e-16 5.49246 -23.2181)
(-2.50457e-16 4.60958 -24.4739)
(3.54916e-17 4.84033 -27.3171)
(-3.64322e-16 10.6651 -32.6119)
(-2.10388e-15 17.1504 -35.0849)
(-3.73321e-15 19.8125 -33.3679)
(-3.86949e-15 22.1099 -31.2688)
(-3.10306e-15 25.1802 -32.5021)
(-2.82059e-15 24.8603 -35.2572)
(-3.2104e-15 21.2459 -36.5195)
(-3.84971e-15 15.9419 -35.6775)
(-4.38184e-15 10.233 -33.3533)
(-4.70897e-15 5.17814 -30.5288)
(-4.84995e-15 1.6742 -28.0954)
(-4.97915e-15 -0.786452 -25.8244)
(-5.08328e-15 -3.45156 -25.4261)
(-5.16388e-15 -12.6981 -28.6628)
(-5.39959e-15 -22.4469 -29.4888)
(-4.63009e-15 -18.397 -35.4025)
(-2.64246e-15 -11.3952 -40.5795)
(-7.92895e-16 -8.38596 -36.1181)