/*--------------------------------*- C++ -*----------------------------------*\
| =========                 |                                                 |
| \\      /  F ield         | OpenFOAM: The Open Source CFD Toolbox           |
|  \\    /   O peration     | Version:  4.1                                   |
|   \\  /    A nd           | Web:      www.OpenFOAM.org                      |
|    \\/     M anipulation  |                                                 |
\*---------------------------------------------------------------------------*/
FoamFile
{
    version     2.0;
    format      ascii;
    class       volScalarField;
    location    "6";
    object      p;
}
// * * * * * * * * * * * * * * * * * * * * * * * * * * * * * * * * * * * * * //

dimensions      [0 2 -2 0 0 0 0];

internalField   nonuniform List<scalar> 
225
(
523.38
469.984
418.152
369.741
324.85
282.833
243.478
206.474
171.38
138.016
107.074
78.9354
49.9065
14.9877
-14.1644
56.9462
34.6851
28.9263
25.2161
19.7423
14.0349
8.88201
4.49327
1.00937
-1.44937
-2.64069
-2.13907
-0.0426502
1.82888
2.08905
-45.8365
-52.4794
-46.7118
-42.5642
-39.4735
-35.8785
-31.9924
-28.0551
-24.1508
-20.4351
-17.0896
-14.0226
-10.9459
-8.29314
-7.05887
0.301122
-2.11633
2.47616
2.79881
2.8509
3.06561
2.97636
2.59887
2.01706
1.25789
0.301368
-0.807703
-1.71798
-1.87035
-1.55991
16.7242
14.39
15.9411
13.8417
12.4235
11.1813
9.77228
8.3912
7.13451
6.04414
5.14377
4.43179
3.95445
3.92161
4.16639
7.48584
5.46233
6.43821
5.22339
5.02473
5.01094
4.92381
4.95768
5.11378
5.35699
5.6753
6.03704
6.35597
6.61241
6.78724
4.03016
2.87759
3.96837
3.64884
4.035
4.42591
4.72191
5.0703
5.4248
5.74756
6.0356
6.28849
6.46655
6.54785
6.56373
5.72325
5.16642
6.01914
5.78392
5.9745
6.08162
6.10301
6.14711
6.17081
6.16619
6.14384
6.11789
6.08561
6.04034
5.9919
6.00965
5.68068
6.18337
5.89953
5.93964
5.91153
5.84099
5.79792
5.74562
5.68854
5.63245
5.58173
5.53612
5.49029
5.43889
4.66667
4.45677
4.80043
4.62746
4.70898
4.72696
4.72028
4.73186
4.73146
4.7259
4.71628
4.69999
4.67654
4.64089
4.58338
3.31596
3.20287
3.50861
3.46572
3.59421
3.64384
3.67094
3.70271
3.71637
3.72007
3.71481
3.6991
3.67306
3.6342
3.56921
2.3802
2.32403
2.58556
2.59098
2.7068
2.74094
2.76209
2.78322
2.78666
2.78152
2.76796
2.74649
2.71664
2.67808
2.61361
1.60756
1.5722
1.77168
1.77746
1.86566
1.8827
1.89958
1.9149
1.91505
1.90866
1.8953
1.87488
1.84687
1.81268
1.75454
0.895051
0.879126
1.03137
1.02582
1.09589
1.10813
1.12873
1.1451
1.14829
1.14625
1.13785
1.12313
1.09919
1.06778
1.01286
0.428768
0.387557
0.439351
0.406071
0.445766
0.433399
0.433007
0.422635
0.403241
0.380833
0.353791
0.324167
0.292699
0.261929
0.218455
)
;

boundaryField
{
    inletFace
    {
        type            zeroGradient;
    }
    inlet
    {
        type            zeroGradient;
    }
    inletWalls
    {
        type            zeroGradient;
    }
    outletInlet
    {
        type            fixedValue;
        value           uniform 0;
    }
}


// ************************************************************************* //
