/*--------------------------------*- C++ -*----------------------------------*\
| =========                 |                                                 |
| \\      /  F ield         | OpenFOAM: The Open Source CFD Toolbox           |
|  \\    /   O peration     | Version:  4.1                                   |
|   \\  /    A nd           | Web:      www.OpenFOAM.org                      |
|    \\/     M anipulation  |                                                 |
\*---------------------------------------------------------------------------*/
FoamFile
{
    version     2.0;
    format      ascii;
    class       surfaceScalarField;
    location    "6";
    object      phi;
}
// * * * * * * * * * * * * * * * * * * * * * * * * * * * * * * * * * * * * * //

dimensions      [0 3 -1 0 0 0 0];

internalField   nonuniform List<scalar> 
420
(
-949.879
2249.78
-1573.96
1924.28
-2054
1779.95
-2424.23
1670.13
-2699.86
1575.83
-2888.38
1488.42
-2993.06
1404.58
-3013.86
1321
-2949.62
1235.66
-2797.24
1147.52
-2551.17
1054.13
-2193
941.735
-1687.17
794.064
-1012.67
625.704
287.228
373.337
1876.44
442.746
1854.87
437.296
1785.4
406.69
1700.74
380.573
1601.94
359.895
1509.1
345.288
1419.18
337.532
1328.76
333.479
1239.71
326.95
1154.05
309.608
1071.48
267.466
983.875
191.428
870.101
111.448
705.683
398.676
33.5814
1842.86
-97.3825
1985.83
-253.606
1941.62
-371.104
1818.24
-473.164
1704
-567.511
1603.44
-651.73
1503.4
-725.776
1402.8
-788.055
1301.99
-837.29
1203.29
-868.208
1102.4
-856.076
971.74
-740.326
754.353
-434.282
399.641
-35.6066
28.7507
1814.11
-100.665
2115.25
-225.565
2066.51
-304.489
1897.17
-368.158
1767.66
-416.959
1652.25
-446.241
1532.68
-457.029
1413.6
-451.87
1296.83
-430.173
1181.59
-387.255
1059.47
-311.892
896.388
-192.876
635.341
-48.4042
255.173
-84.0109
169.628
1644.47
146.16
2138.71
123.734
2088.94
122.846
1898.04
126.906
1763.61
135.751
1643.39
149.055
1519.39
166.529
1396.11
186.885
1276.48
208.072
1160.39
229.068
1038.46
243.781
881.682
232.972
646.14
155.216
332.921
71.2054
223.151
1421.33
244.235
2117.62
234.769
2098.41
236.003
1896.8
240.345
1759.27
244.275
1639.45
246.528
1517.13
245.231
1397.39
241.154
1280.55
233.991
1167.55
221.429
1051.04
199.163
903.91
156.149
689.138
78.2826
410.772
149.488
203.276
1218.06
238.295
2082.61
213.524
2123.18
191.347
1918.99
177.169
1773.44
163.785
1652.84
150.063
1530.84
135.951
1411.52
121.129
1295.37
106.99
1181.7
92.8761
1065.15
75.8202
920.986
52.0597
712.914
19.0474
443.798
168.535
171.659
1046.38
221.781
2032.5
199.268
2145.67
170.356
1947.91
152.039
1791.73
137.694
1667.21
122.782
1545.74
108.594
1425.72
95.5764
1308.37
83.0813
1194.2
71.4224
1076.8
58.551
933.852
40.233
731.212
15.6922
468.32
184.227
146.078
900.253
210.102
1968.45
196.959
2158.79
170.141
1974.72
152.449
1809.41
139.51
1680.13
126.994
1558.25
113.737
1438.96
101.155
1320.94
89.2192
1206.11
76.7594
1089.23
62.9038
947.714
44.1709
749.929
19.1067
493.371
203.334
117.079
783.169
185.246
1900.24
179.967
2164.06
154.476
2000.15
137.271
1826.61
123.92
1693.42
111.249
1570.9
98.7861
1451.37
85.9288
1333.78
73.6754
1218.33
62.0065
1100.95
48.8786
960.741
32.7186
766.049
13.0476
513.006
216.38
83.4434
699.763
143.423
1840.25
144.901
2162.61
122.848
2022.18
106.219
1843.25
94.5359
1705.08
82.7336
1582.72
71.3715
1462.71
60.6879
1344.5
49.8033
1229.19
39.955
1110.92
30.1091
970.387
18.3157
777.714
5.30989
525.894
221.692
51.1328
648.638
97.7833
1793.63
102.543
2157.83
87.302
2037.46
73.1635
1857.38
63.3133
1714.98
54.4962
1591.54
45.2056
1472.06
36.4886
1353.2
28.5598
1237.18
20.6383
1118.72
14.084
977.217
7.1921
784.798
0.00896004
533.25
221.701
24.8896
623.729
57.5523
1761
63.4318
2151.94
53.5609
2047.38
44.0726
1866.86
36.4711
1722.63
29.8315
1598.17
23.7982
1478.14
17.2841
1359.7
11.5141
1242.99
6.69258
1123.5
2.55733
981.435
-1.01144
788.425
-3.63697
535.93
218.064
1.64867
622.074
24.5726
1738.09
34.0209
2142.49
28.3965
2053.02
20.9909
1874.26
15.6156
1728.02
9.97303
1603.81
4.92531
1483.19
0.3061
1364.32
-4.63523
1247.92
-8.18074
1127.07
-9.59651
982.787
-9.75401
788.514
-7.22343
533.338
210.84
-11.1909
-2.33405
2.33622
0.415554
-4.36169
-8.22099
-11.2853
-14.8501
-17.8152
-20.0409
-21.672
-21.0512
-18.0806
-12.3686
)
;

boundaryField
{
    inletFace
    {
        type            calculated;
        value           nonuniform List<scalar> 
450
(
-5.77797e-15
6.48145e-13
-9.42778e-14
-1.62053e-13
1.1847e-13
-1.87289e-13
-6.74425e-14
6.77863e-14
-1.05032e-13
-3.30068e-14
4.68124e-14
-7.00768e-14
-1.72293e-14
2.04005e-14
1.52548e-15
-2.11176e-12
-2.15798e-12
1.5288e-13
-3.35071e-13
-3.22501e-13
1.36854e-14
-2.91621e-13
-1.36642e-13
7.90891e-15
-9.51853e-14
-5.08103e-14
2.54252e-14
-8.44998e-14
-1.27966e-14
-1.88013e-15
-2.26291e-12
-2.34545e-12
-2.43311e-14
-3.90752e-13
-1.36749e-13
-1.19144e-13
-2.84644e-13
-1.0101e-13
-1.38938e-13
-1.73979e-13
7.36192e-15
-3.9744e-14
-3.88987e-14
4.37035e-15
2.94644e-15
-2.56681e-12
-2.30522e-12
-1.04212e-13
-4.76858e-13
-1.36068e-13
-2.39889e-13
-4.02461e-13
-1.23226e-13
-2.14125e-13
-2.62517e-13
-6.72662e-15
-6.60302e-14
-9.66501e-14
3.73916e-14
7.89536e-14
-2.40657e-12
-2.40697e-12
-2.22768e-13
-3.73728e-13
-2.25196e-13
-2.08634e-13
-3.55333e-13
-1.117e-13
-1.55209e-13
-1.81443e-13
-3.56411e-14
-7.69441e-14
-7.14684e-14
1.00494e-14
7.59714e-14
-2.13564e-12
-2.46377e-12
-4.15591e-13
-3.7304e-13
-1.75507e-13
-1.35045e-13
-3.35816e-13
-1.05216e-13
-1.17087e-13
-1.82613e-13
-3.56704e-14
-4.17967e-14
-9.64302e-14
-6.97431e-15
1.45653e-15
-1.91715e-12
-2.44915e-12
-6.93167e-13
-3.85333e-13
-2.24226e-13
-2.12339e-13
-3.56078e-13
-1.2281e-13
-2.13664e-13
-1.5215e-13
-6.09477e-14
-6.96238e-14
-4.90453e-14
-6.55246e-14
-1.9799e-13
-1.68267e-12
-2.45857e-12
-9.32737e-13
-3.85574e-13
-2.43287e-13
-2.49938e-13
-2.93647e-13
-1.43037e-13
-2.02091e-13
-1.35256e-13
-9.45944e-14
-1.21749e-13
-6.86896e-14
-1.98993e-14
-2.31883e-13
-1.44464e-12
-2.4405e-12
-1.11536e-12
-4.1863e-13
-2.54226e-13
-2.34194e-13
-2.67463e-13
-1.86826e-13
-1.54892e-13
-1.69583e-13
-1.13802e-13
-1.62298e-13
-1.47967e-13
-3.25005e-14
-9.8147e-14
-1.20588e-12
-2.36527e-12
-1.2507e-12
-4.83778e-13
-2.81683e-13
-1.81587e-13
-3.03661e-13
-1.98334e-13
-1.35782e-13
-2.00558e-13
-1.12704e-13
-1.13675e-13
-9.1626e-14
-5.79535e-14
4.03844e-15
-9.91674e-13
-2.30111e-12
-1.35877e-12
-5.24813e-13
-2.62466e-13
-1.60532e-13
-2.75259e-13
-2.02679e-13
-1.14754e-13
-1.44854e-13
-1.15448e-13
-1.76901e-14
-2.26699e-14
-2.83598e-14
1.18062e-13
-8.85472e-13
-2.24025e-12
-1.41724e-12
-5.80686e-13
-2.75417e-13
-1.41232e-13
-2.38168e-13
-2.26675e-13
-9.26773e-14
-1.0729e-13
-1.38832e-13
1.32338e-14
-1.36784e-14
1.06607e-13
1.57534e-13
-8.14719e-13
-2.16249e-12
-1.45037e-12
-6.27962e-13
-3.2176e-13
-1.33169e-13
-2.30069e-13
-2.51189e-13
-9.7228e-14
-1.14e-13
-1.31936e-13
2.52259e-14
-1.67321e-14
1.16383e-13
1.23105e-13
-7.53105e-13
-2.10387e-12
-1.46897e-12
-6.45866e-13
-3.271e-13
-1.47373e-13
-2.24134e-13
-2.60938e-13
-7.81116e-14
-1.12392e-13
-1.23937e-13
2.78864e-14
-1.17085e-14
9.77337e-14
1.15047e-13
-7.36536e-13
-2.02258e-12
-1.46543e-12
-6.68304e-13
-3.3465e-13
-1.58993e-13
-2.25407e-13
-2.44186e-13
-8.84053e-14
-1.13503e-13
-1.09138e-13
1.48378e-14
-3.98121e-15
9.80028e-14
6.18668e-14
5.77797e-15
-6.48145e-13
9.42778e-14
1.62053e-13
-1.1847e-13
1.87289e-13
6.74425e-14
-6.77863e-14
1.05032e-13
3.30068e-14
-4.68124e-14
7.00768e-14
1.72293e-14
-2.04005e-14
-1.52548e-15
2.11176e-12
2.15798e-12
-1.5288e-13
3.35071e-13
3.22501e-13
-1.36854e-14
2.91621e-13
1.36642e-13
-7.90891e-15
9.51853e-14
5.08103e-14
-2.54252e-14
8.44998e-14
1.27966e-14
1.88013e-15
2.26291e-12
2.34545e-12
2.43311e-14
3.90752e-13
1.36749e-13
1.19144e-13
2.84644e-13
1.0101e-13
1.38938e-13
1.73979e-13
-7.36192e-15
3.9744e-14
3.88987e-14
-4.37035e-15
-2.94644e-15
2.56681e-12
2.30522e-12
1.04212e-13
4.76858e-13
1.36068e-13
2.39889e-13
4.02461e-13
1.23226e-13
2.14125e-13
2.62517e-13
6.72662e-15
6.60302e-14
9.66501e-14
-3.73916e-14
-7.89536e-14
2.40657e-12
2.40697e-12
2.22768e-13
3.73728e-13
2.25196e-13
2.08634e-13
3.55333e-13
1.117e-13
1.55209e-13
1.81443e-13
3.56411e-14
7.69441e-14
7.14684e-14
-1.00494e-14
-7.59714e-14
2.13564e-12
2.46377e-12
4.15591e-13
3.7304e-13
1.75507e-13
1.35045e-13
3.35816e-13
1.05216e-13
1.17087e-13
1.82613e-13
3.56704e-14
4.17967e-14
9.64302e-14
6.97431e-15
-1.45653e-15
1.91715e-12
2.44915e-12
6.93167e-13
3.85333e-13
2.24226e-13
2.12339e-13
3.56078e-13
1.2281e-13
2.13664e-13
1.5215e-13
6.09477e-14
6.96238e-14
4.90453e-14
6.55246e-14
1.9799e-13
1.68267e-12
2.45857e-12
9.32737e-13
3.85574e-13
2.43287e-13
2.49938e-13
2.93647e-13
1.43037e-13
2.02091e-13
1.35256e-13
9.45944e-14
1.21749e-13
6.86896e-14
1.98993e-14
2.31883e-13
1.44464e-12
2.4405e-12
1.11536e-12
4.1863e-13
2.54226e-13
2.34194e-13
2.67463e-13
1.86826e-13
1.54892e-13
1.69583e-13
1.13802e-13
1.62298e-13
1.47967e-13
3.25005e-14
9.8147e-14
1.20588e-12
2.36527e-12
1.2507e-12
4.83778e-13
2.81683e-13
1.81587e-13
3.03661e-13
1.98334e-13
1.35782e-13
2.00558e-13
1.12704e-13
1.13675e-13
9.1626e-14
5.79535e-14
-4.03844e-15
9.91674e-13
2.30111e-12
1.35877e-12
5.24813e-13
2.62466e-13
1.60532e-13
2.75259e-13
2.02679e-13
1.14754e-13
1.44854e-13
1.15448e-13
1.76901e-14
2.26699e-14
2.83598e-14
-1.18062e-13
8.85472e-13
2.24025e-12
1.41724e-12
5.80686e-13
2.75417e-13
1.41232e-13
2.38168e-13
2.26675e-13
9.26773e-14
1.0729e-13
1.38832e-13
-1.32338e-14
1.36784e-14
-1.06607e-13
-1.57534e-13
8.14719e-13
2.16249e-12
1.45037e-12
6.27962e-13
3.2176e-13
1.33169e-13
2.30069e-13
2.51189e-13
9.7228e-14
1.14e-13
1.31936e-13
-2.52259e-14
1.67321e-14
-1.16383e-13
-1.23105e-13
7.53105e-13
2.10387e-12
1.46897e-12
6.45866e-13
3.271e-13
1.47373e-13
2.24134e-13
2.60938e-13
7.81116e-14
1.12392e-13
1.23937e-13
-2.78864e-14
1.17085e-14
-9.77337e-14
-1.15047e-13
7.36536e-13
2.02258e-12
1.46543e-12
6.68304e-13
3.3465e-13
1.58993e-13
2.25407e-13
2.44186e-13
8.84053e-14
1.13503e-13
1.09138e-13
-1.48378e-14
3.98121e-15
-9.80028e-14
-6.18668e-14
)
;
    }
    inlet
    {
        type            calculated;
        value           nonuniform List<scalar> 
15
(
-1299.9
-1300.2
-1299.9
-1299.9
-1300.2
-1299.9
-1299.9
-1300.2
-1299.9
-1299.9
-1300.2
-1299.9
-1299.9
-1300.2
-1299.9
)
;
    }
    inletWalls
    {
        type            calculated;
        value           uniform 0;
    }
    outletInlet
    {
        type            calculated;
        value           nonuniform List<scalar> 
15
(
198.472
527.651
785.572
982.182
1128.71
1250.15
1367.3
1486.76
1606.89
1731.88
1879.05
2054.94
2137.82
1729.23
633.256
)
;
    }
}


// ************************************************************************* //
