/*--------------------------------*- C++ -*----------------------------------*\
| =========                 |                                                 |
| \\      /  F ield         | OpenFOAM: The Open Source CFD Toolbox           |
|  \\    /   O peration     | Version:  4.1                                   |
|   \\  /    A nd           | Web:      www.OpenFOAM.org                      |
|    \\/     M anipulation  |                                                 |
\*---------------------------------------------------------------------------*/
FoamFile
{
    version     2.0;
    format      ascii;
    class       volVectorField;
    location    "6";
    object      U;
}
// * * * * * * * * * * * * * * * * * * * * * * * * * * * * * * * * * * * * * //

dimensions      [0 1 -1 0 0 0 0];

internalField   nonuniform List<vector> 
225
(
(1.10712e-14 0.852194 15.7946)
(8.79651e-15 -4.89459 12.1215)
(-3.15722e-15 -4.19551 12.1321)
(7.06204e-15 -3.60118 11.9966)
(7.8338e-16 -3.00468 11.8778)
(-2.36307e-16 -2.55319 11.6992)
(1.96316e-15 -2.20881 11.4769)
(2.75245e-16 -1.96603 11.2116)
(-2.84879e-17 -1.79855 10.916)
(1.01167e-15 -1.71238 10.5882)
(9.19563e-17 -1.83746 10.1561)
(2.74024e-17 -2.28567 9.53762)
(6.52416e-16 -2.51301 8.96378)
(-1.41229e-16 -1.06551 8.91356)
(-1.05606e-17 1.76574 7.4709)
(1.53089e-14 -5.35015 22.493)
(1.4941e-14 -14.6049 21.394)
(-1.05835e-15 -13.2708 20.3411)
(2.6933e-15 -11.7697 19.5066)
(2.23286e-15 -11.156 18.5043)
(-9.47411e-17 -10.6594 17.5174)
(2.12959e-15 -10.0901 16.5714)
(9.46057e-16 -9.52498 15.6236)
(-5.47518e-17 -8.96542 14.6638)
(4.79058e-16 -8.36729 13.6946)
(3.5179e-16 -7.75708 12.7179)
(-1.76013e-16 -7.30334 11.7194)
(5.90562e-16 -7.01705 10.6244)
(8.85984e-17 -5.73094 9.16114)
(1.30157e-17 -2.30499 4.58317)
(1.77115e-14 -7.7156 23.9801)
(1.62371e-14 -16.7731 24.673)
(1.68459e-16 -13.7365 23.9372)
(3.84462e-15 -12.3061 22.6249)
(9.46688e-16 -11.6447 21.2414)
(8.24907e-16 -10.814 20.0013)
(3.11054e-15 -9.94026 18.7737)
(6.99275e-16 -9.10012 17.5247)
(9.61953e-16 -8.28339 16.2654)
(1.99358e-15 -7.47526 15.0263)
(1.97231e-15 -6.66764 13.8176)
(2.75172e-16 -5.84167 12.4301)
(7.52615e-16 -4.8139 10.2753)
(-3.02551e-17 -3.12625 6.68442)
(-2.04e-17 -0.832101 1.68986)
(1.77626e-14 -8.50254 22.0462)
(1.59588e-14 -16.6211 24.3319)
(4.94107e-16 -12.9299 23.7971)
(3.30161e-15 -12.1537 21.9985)
(8.70771e-16 -11.4201 20.5028)
(1.46616e-15 -10.4937 19.1722)
(2.78651e-15 -9.63392 17.8167)
(7.74091e-16 -8.82362 16.459)
(1.51021e-15 -8.05366 15.123)
(1.80268e-15 -7.32379 13.8165)
(3.84357e-17 -6.55247 12.4394)
(3.54185e-16 -5.49089 10.5831)
(6.44349e-16 -3.78529 7.50875)
(-6.62377e-17 -1.4937 2.7662)
(-5.90989e-16 0.153182 -1.77294)
(1.64488e-14 -8.47621 19.7482)
(1.47634e-14 -16.3602 24.3119)
(1.36388e-15 -13.0991 23.6601)
(2.39268e-15 -12.6281 21.5364)
(1.24809e-15 -11.8566 20.0247)
(1.22454e-15 -10.9574 18.6637)
(2.34303e-15 -10.1698 17.2587)
(5.24677e-16 -9.40274 15.8711)
(2.26537e-15 -8.65252 14.5235)
(1.18559e-15 -7.93042 13.2135)
(7.77029e-16 -7.16576 11.8292)
(4.48e-16 -6.11603 9.99616)
(3.88421e-16 -4.42396 7.15541)
(-4.27774e-16 -2.30523 3.28777)
(-1.89698e-15 -0.787286 0.3177)
(1.50088e-14 -8.02184 17.5534)
(1.70982e-14 -16.0196 24.5278)
(3.00446e-15 -13.6437 24.0462)
(2.16695e-15 -12.9943 21.7651)
(1.26414e-15 -12.1262 20.2158)
(1.55926e-15 -11.2244 18.847)
(1.82618e-15 -10.4388 17.4341)
(7.87683e-16 -9.64872 16.0433)
(1.00194e-15 -8.86019 14.6932)
(1.26421e-15 -8.09309 13.3816)
(3.22421e-16 -7.29719 12.017)
(5.48148e-16 -6.28451 10.2816)
(6.67575e-16 -4.73296 7.72067)
(4.05909e-16 -2.75605 4.37208)
(3.61633e-16 -0.94926 1.29699)
(1.34067e-14 -7.33701 15.2528)
(1.7168e-14 -15.4908 24.355)
(4.88327e-15 -14.0223 24.4219)
(2.66792e-15 -13.1274 22.0677)
(1.6026e-15 -12.1443 20.4402)
(1.57771e-15 -11.2356 19.0546)
(2.46537e-15 -10.436 17.6436)
(1.54043e-15 -9.6198 16.2575)
(1.68385e-15 -8.81015 14.9065)
(1.05344e-15 -8.0273 13.5918)
(5.86803e-16 -7.22407 12.2367)
(-8.646e-17 -6.24039 10.5488)
(3.39574e-16 -4.78767 8.10752)
(7.88209e-17 -2.91421 4.94713)
(1.65149e-15 -1.01073 1.7973)
(1.14634e-14 -6.55621 13.0334)
(1.70218e-14 -14.847 23.8166)
(6.41489e-15 -14.2632 24.669)
(3.08751e-15 -13.2368 22.3213)
(1.68439e-15 -12.1675 20.5829)
(1.62185e-15 -11.266 19.1664)
(2.61693e-15 -10.4654 17.7585)
(9.90311e-16 -9.64334 16.3765)
(1.2614e-15 -8.83512 15.0245)
(1.01154e-15 -8.0555 13.7073)
(6.54922e-16 -7.25517 12.3576)
(6.5257e-16 -6.28693 10.6996)
(5.95237e-16 -4.89088 8.33093)
(1.37772e-16 -3.08492 5.26736)
(1.10825e-15 -1.1218 2.0435)
(1.00011e-14 -5.7793 11.1257)
(1.68953e-14 -14.1751 23.0913)
(7.59654e-15 -14.4412 24.846)
(2.89813e-15 -13.3967 22.6143)
(1.75998e-15 -12.2534 20.755)
(1.46017e-15 -11.3497 19.2953)
(1.85161e-15 -10.5478 17.8903)
(1.29338e-15 -9.72541 16.5109)
(8.68496e-16 -8.91937 15.1561)
(1.174e-15 -8.14005 13.835)
(7.87841e-16 -7.33959 12.4862)
(1.06376e-18 -6.37964 10.851)
(1.02436e-15 -5.02294 8.54614)
(2.24997e-16 -3.26512 5.55733)
(5.47638e-17 -1.23718 2.24672)
(8.62975e-15 -5.08551 9.59957)
(1.63745e-14 -13.5197 22.2999)
(8.61629e-15 -14.5357 24.952)
(3.66958e-15 -13.5538 22.9351)
(1.95006e-15 -12.345 20.9698)
(1.6878e-15 -11.4247 19.4566)
(1.98653e-15 -10.6168 18.0506)
(1.37304e-15 -9.79384 16.672)
(8.71921e-16 -8.98762 15.3133)
(1.23979e-15 -8.20546 13.987)
(7.80235e-16 -7.40388 12.6351)
(1.53596e-15 -6.45052 11.0125)
(4.02357e-16 -5.12409 8.75383)
(4.01205e-16 -3.40511 5.81754)
(-3.28415e-16 -1.31794 2.42856)
(6.4041e-15 -4.53696 8.45833)
(1.59812e-14 -12.9246 21.5482)
(9.06396e-15 -14.5353 24.9756)
(3.42647e-15 -13.6654 23.2214)
(2.32055e-15 -12.4122 21.1814)
(8.93936e-16 -11.4727 19.6121)
(2.49067e-15 -10.6583 18.2002)
(1.46651e-15 -9.83648 16.8205)
(5.19413e-16 -9.03168 15.458)
(1.00278e-15 -8.24819 14.1263)
(8.82224e-16 -7.44633 12.7685)
(-2.55146e-16 -6.49763 11.1489)
(1.56936e-16 -5.19186 8.9171)
(-4.69734e-16 -3.50025 6.00829)
(-4.33854e-16 -1.36212 2.53903)
(6.13002e-15 -4.16723 7.69712)
(1.5794e-14 -12.4358 20.9251)
(9.96529e-15 -14.4727 24.9364)
(4.02002e-15 -13.7308 23.4382)
(1.95749e-15 -12.4583 21.3594)
(8.95396e-16 -11.5034 19.7402)
(1.64881e-15 -10.6831 18.3201)
(1.66515e-15 -9.8637 16.9385)
(2.59595e-16 -9.06129 15.5723)
(7.42756e-16 -8.27772 14.2359)
(9.61117e-16 -7.47509 12.8704)
(-1.86878e-16 -6.52712 11.246)
(1.53165e-16 -5.2333 9.026)
(-8.21045e-16 -3.55801 6.12563)
(-1.28387e-15 -1.37743 2.5727)
(5.54155e-15 -3.97114 7.2764)
(1.49438e-14 -12.0666 20.4594)
(1.0063e-14 -14.3836 24.8623)
(4.30096e-15 -13.7596 23.5828)
(2.2275e-15 -12.4876 21.4967)
(9.21911e-16 -11.5235 19.8401)
(1.56303e-15 -10.6973 18.4116)
(1.83578e-15 -9.8807 17.0276)
(6.38062e-16 -9.08113 15.6583)
(7.89301e-16 -8.29774 14.317)
(9.55537e-16 -7.49365 12.9422)
(-2.22576e-16 -6.54263 11.3064)
(1.15848e-16 -5.2515 9.08497)
(-7.23192e-16 -3.57947 6.17647)
(-1.00016e-15 -1.36598 2.54155)
(5.14899e-15 -3.90277 7.10889)
(1.45523e-14 -11.8301 20.1792)
(1.01466e-14 -14.3003 24.7893)
(4.56566e-15 -13.768 23.6685)
(2.25174e-15 -12.5035 21.5896)
(1.02021e-15 -11.5335 19.9092)
(1.56668e-15 -10.7015 18.4744)
(1.79032e-15 -9.88631 17.0884)
(5.40741e-16 -9.08858 15.7175)
(7.97272e-16 -8.30468 14.3732)
(8.37015e-16 -7.49842 12.9911)
(-1.93049e-16 -6.54376 11.3441)
(1.10078e-16 -5.25404 9.1183)
(-7.17499e-16 -3.58444 6.20305)
(-7.96431e-16 -1.35113 2.50909)
(5.08456e-15 -4.03511 7.27799)
(1.39951e-14 -11.6239 19.9451)
(1.01519e-14 -14.192 24.666)
(4.62659e-15 -13.7488 23.7099)
(2.31022e-15 -12.5089 21.6752)
(1.10785e-15 -11.541 19.9786)
(1.56046e-15 -10.7009 18.5363)
(1.68238e-15 -9.88807 17.1451)
(6.20821e-16 -9.09154 15.7706)
(7.85771e-16 -8.30592 14.4193)
(7.50356e-16 -7.49072 13.0158)
(-9.6846e-17 -6.5161 11.3293)
(2.75614e-17 -5.20708 9.06266)
(-6.88639e-16 -3.50311 6.08467)
(-4.09231e-16 -1.25399 2.30944)
)
;

boundaryField
{
    inletFace
    {
        type            zeroGradient;
    }
    inlet
    {
        type            fixedValue;
        value           uniform (0 8.7 15);
    }
    inletWalls
    {
        type            noSlip;
    }
    outletInlet
    {
        type            zeroGradient;
    }
}


// ************************************************************************* //
