/*--------------------------------*- C++ -*----------------------------------*\
| =========                 |                                                 |
| \\      /  F ield         | OpenFOAM: The Open Source CFD Toolbox           |
|  \\    /   O peration     | Version:  4.1                                   |
|   \\  /    A nd           | Web:      www.OpenFOAM.org                      |
|    \\/     M anipulation  |                                                 |
\*---------------------------------------------------------------------------*/
FoamFile
{
    version     2.0;
    format      ascii;
    class       volScalarField;
    location    "10";
    object      p;
}
// * * * * * * * * * * * * * * * * * * * * * * * * * * * * * * * * * * * * * //

dimensions      [0 2 -2 0 0 0 0];

internalField   nonuniform List<scalar> 
225
(
6.19401e+07
6.00558e+07
3.46361e+07
185736
-2.79093e+07
-5.21962e+07
-5.99298e+07
-1.08085e+08
-2.09147e+08
-2.79445e+08
-3.12059e+08
-3.08565e+08
-2.58446e+08
-1.69399e+08
-1.06635e+08
-1.30099e+08
-3.4798e+08
-4.63937e+08
-5.43364e+08
-5.92298e+08
-5.49772e+08
-4.27009e+08
-2.67923e+08
-1.69991e+08
-1.20715e+08
-9.58222e+07
-1.42281e+08
-1.86307e+08
-2.08887e+08
-1.97338e+08
-4.35437e+08
-4.36286e+08
-4.38638e+08
-3.65924e+08
-3.00064e+08
-2.59287e+08
-2.12496e+08
-1.76689e+08
-1.56855e+08
-1.51519e+08
-1.29234e+08
-8.91825e+07
-5.65301e+07
-4.34276e+07
-5.31017e+07
-1.52895e+08
-1.48743e+08
-1.84054e+08
-1.9263e+08
-2.31229e+08
-2.6669e+08
-2.6208e+08
-2.25171e+08
-1.85128e+08
-1.51823e+08
-1.46024e+08
-1.47733e+08
-1.26281e+08
-1.25869e+08
-1.56345e+08
-4.02966e+07
-4.66644e+07
-8.45167e+07
-1.33446e+08
-1.57144e+08
-1.69505e+08
-1.79628e+08
-1.97225e+08
-2.20425e+08
-2.2263e+08
-2.09406e+08
-2.21084e+08
-2.45025e+08
-2.66045e+08
-2.8924e+08
4.13136e+07
3.92774e+07
3.36756e+07
3.17628e+07
2.87325e+07
1.86024e+07
7.34933e+06
-6.71613e+06
-3.15004e+07
-5.52867e+07
-6.76644e+07
-8.43179e+07
-8.80141e+07
-7.04784e+07
-2.41101e+07
3.64439e+07
3.54487e+07
2.81362e+07
2.44013e+07
3.34913e+07
3.99741e+07
3.1107e+07
1.85836e+07
7.98718e+06
-7.00775e+06
-2.16084e+07
-3.67942e+07
-4.97961e+07
-7.23765e+07
-7.75608e+07
4.87931e+07
5.24956e+07
5.08254e+07
4.96213e+07
5.06171e+07
5.60989e+07
5.89212e+07
5.19891e+07
4.35002e+07
4.17379e+07
4.36948e+07
4.37879e+07
4.92442e+07
6.21113e+07
4.52483e+07
8.02696e+07
8.11701e+07
7.53484e+07
6.73618e+07
5.73304e+07
4.99101e+07
4.64691e+07
4.17167e+07
3.52531e+07
2.9014e+07
2.47582e+07
1.95151e+07
1.51005e+07
1.22559e+07
1.18272e+07
5.99401e+07
6.37468e+07
6.25106e+07
5.5351e+07
4.30087e+07
3.17068e+07
2.40448e+07
2.01384e+07
1.53755e+07
1.51364e+07
2.37626e+07
3.77387e+07
4.81256e+07
5.33857e+07
5.7037e+07
2.35477e+07
1.95971e+07
1.66765e+07
1.51132e+07
1.04637e+07
5.52238e+06
3.57131e+06
8.71231e+06
1.07872e+07
4.32051e+06
3.98001e+06
1.55968e+07
2.34424e+07
1.96875e+07
1.46752e+07
3.94219e+07
3.52583e+07
3.10457e+07
3.07311e+07
3.24973e+07
3.47399e+07
3.5566e+07
3.57488e+07
2.97367e+07
1.90959e+07
1.54487e+07
1.7428e+07
2.0482e+07
2.10699e+07
1.65354e+07
2.32469e+07
2.13119e+07
2.12893e+07
2.38663e+07
3.02913e+07
4.04772e+07
4.90587e+07
5.26511e+07
5.50713e+07
5.74649e+07
5.94824e+07
6.16273e+07
6.32401e+07
6.11417e+07
6.43955e+07
8.96686e+07
8.72087e+07
8.309e+07
7.70147e+07
7.0127e+07
6.07086e+07
4.89963e+07
3.82995e+07
3.20605e+07
2.74348e+07
2.14911e+07
1.66791e+07
1.73331e+07
1.50262e+07
9.66028e+06
1.12292e+07
1.35994e+07
1.3952e+07
1.4561e+07
1.12699e+07
8.5503e+06
6.88437e+06
5.6931e+06
4.72992e+06
3.04993e+06
1.96122e+06
-1.18005e+06
-5.02579e+06
-6.95232e+06
-2.21048e+06
)
;

boundaryField
{
    inletFace
    {
        type            zeroGradient;
    }
    inlet
    {
        type            zeroGradient;
    }
    inletWalls
    {
        type            zeroGradient;
    }
    outletInlet
    {
        type            fixedValue;
        value           uniform 0;
    }
}


// ************************************************************************* //
