/*--------------------------------*- C++ -*----------------------------------*\
| =========                 |                                                 |
| \\      /  F ield         | OpenFOAM: The Open Source CFD Toolbox           |
|  \\    /   O peration     | Version:  4.1                                   |
|   \\  /    A nd           | Web:      www.OpenFOAM.org                      |
|    \\/     M anipulation  |                                                 |
\*---------------------------------------------------------------------------*/
FoamFile
{
    version     2.0;
    format      ascii;
    class       volVectorField;
    location    "10";
    object      U;
}
// * * * * * * * * * * * * * * * * * * * * * * * * * * * * * * * * * * * * * //

dimensions      [0 1 -1 0 0 0 0];

internalField   nonuniform List<vector> 
225
(
(3.3765e-09 -43985.1 -16882.7)
(4.32407e-08 -36565.2 -12644.1)
(4.6385e-08 -40342.5 11981.5)
(4.03716e-08 -45726.6 23270.4)
(4.53595e-08 -44104.8 20820)
(2.28654e-08 -57019.5 12091.7)
(2.44614e-08 -36994.2 -2956.73)
(3.73374e-08 -12308 13129.6)
(3.92361e-08 -11584.1 5575.77)
(2.06079e-08 -71295.9 -29549.1)
(1.90635e-08 29187.8 2546.73)
(3.61257e-08 18366.1 1141.87)
(4.6136e-08 1487.52 -9470.84)
(4.3708e-08 -7361.63 -6574.58)
(2.94215e-08 -19168.2 -68226.5)
(2.19095e-08 2671.92 -50992.3)
(5.39517e-08 -7311.09 -29330.6)
(5.34195e-08 -1292.35 -19257.7)
(5.07021e-08 -7832.24 -10785)
(5.02574e-08 -4669.8 3901.41)
(4.37598e-08 -27619.3 25634.2)
(4.01705e-08 -24527.2 31032)
(3.99486e-08 -20386.2 28603.1)
(4.036e-08 -10380.3 30180)
(3.98105e-08 -20292.2 20011.2)
(4.01439e-08 -2387.96 20425.9)
(4.30246e-08 -564.228 14461.7)
(4.32112e-08 -4731.08 7296.5)
(4.48444e-08 -3226.95 5400.42)
(4.64261e-08 -2795.38 -755.379)
(3.22317e-08 9344.41 -35611.8)
(5.18974e-08 8034.33 -27861.8)
(5.05476e-08 19825.2 -25445.3)
(4.76497e-08 25748.9 -5867.65)
(4.78662e-08 22904.4 102.364)
(4.76866e-08 18409.8 6767.43)
(4.75293e-08 12082.1 8002.59)
(4.69171e-08 9476.1 4623.26)
(4.54202e-08 1673.3 6388.8)
(4.48007e-08 -4757.98 7818.4)
(4.54453e-08 1739.66 8656.19)
(4.71918e-08 5477.49 -3521.28)
(4.7043e-08 4938.07 -7320.46)
(4.73517e-08 2006.77 2404.83)
(4.39094e-08 3307.39 6095.2)
(3.66578e-08 6065.14 -25058.5)
(4.76065e-08 7737.28 -11156.6)
(4.8181e-08 3980.63 -7093.74)
(4.88151e-08 6083.79 -4910.23)
(4.92699e-08 5333.07 -6259.34)
(4.9179e-08 924.325 -14252.8)
(4.94923e-08 -1334.85 -13368.4)
(4.96823e-08 38.5035 -11386.7)
(4.94281e-08 -300.507 -8370.23)
(4.91613e-08 -1308.33 -3004.95)
(4.89945e-08 579.279 1749.94)
(4.92985e-08 -528.882 -11151.1)
(4.90396e-08 -2867.2 -21097.7)
(5.04768e-08 5863.12 1050.48)
(4.10907e-08 4305.15 -298.302)
(3.00314e-08 10266.5 -21257.1)
(4.524e-08 6863.59 -22492.4)
(5.0025e-08 6519.15 -17570.8)
(5.01128e-08 4371.55 -14764.2)
(5.00957e-08 3348.06 -13380.5)
(5.01407e-08 3228.93 -13481.1)
(5.04503e-08 2931.22 -12576.8)
(5.06646e-08 2344.6 -11086.2)
(5.06053e-08 1693.17 -10479.8)
(5.0652e-08 1152.09 -10237.1)
(5.04292e-08 1065.94 -10912.3)
(5.04001e-08 2214.01 -11055.4)
(5.10452e-08 -2694.02 -7314.04)
(5.39193e-08 -9130.63 17489.4)
(3.9892e-08 12603.2 33700.1)
(5.04421e-08 10899.1 -16078.2)
(4.89558e-08 8528.39 -15525.3)
(4.89527e-08 10221.1 -13882)
(4.97465e-08 11295.1 -12897.5)
(4.95535e-08 11143.1 -11229.2)
(4.98851e-08 11374.9 -9729.15)
(5.05622e-08 11146.5 -8966.34)
(5.09591e-08 11664.9 -6905.42)
(5.12764e-08 11572.5 -3962.18)
(5.14629e-08 7956.17 -1211.97)
(5.15377e-08 7805.46 3615.89)
(5.09771e-08 8790.55 7315.32)
(4.85062e-08 1722.54 6206.83)
(4.6135e-08 570.784 17838.4)
(2.65885e-08 6327.36 19250.2)
(3.19838e-08 -2183.01 -17369.4)
(4.14803e-08 -120.541 -11688.9)
(4.58289e-08 -420.987 -7329.69)
(5.05476e-08 2397.46 -7877.08)
(5.04119e-08 1471.96 -8778.09)
(4.92119e-08 1150.41 -7565.14)
(5.01987e-08 1768.85 -5637.78)
(5.04811e-08 1710.56 -4201.45)
(5.09144e-08 1992.88 -3566.32)
(5.13204e-08 -111.572 -5367.17)
(5.11646e-08 2386.75 -5604.98)
(5.01747e-08 6020.45 -4701.73)
(4.85928e-08 6375.13 -5676.03)
(4.30167e-08 3547.55 -19311.5)
(1.6318e-08 2360.2 -38298.6)
(2.94533e-08 1233.41 5247.85)
(4.3015e-08 5002.07 6193.57)
(5.18304e-08 5520.32 8138.89)
(5.5477e-08 8993.47 6403.9)
(5.58519e-08 8966.34 3949.65)
(5.38649e-08 8217.78 4330.51)
(5.36332e-08 9903.82 4881.62)
(5.3059e-08 10168.3 4309.13)
(5.20307e-08 10243.3 3895.19)
(5.07741e-08 9519.67 3478.34)
(4.98838e-08 8635.6 3373.04)
(4.87705e-08 7018.08 3043.19)
(4.45389e-08 3685.59 -436.531)
(2.95797e-08 -1137.01 -18471.7)
(2.15329e-10 -211.067 -69816)
(4.98342e-08 -3077.92 11074.8)
(4.77463e-08 18.3669 11047.6)
(6.1824e-08 -5485.19 3507.28)
(6.01025e-08 -1873.49 5666.76)
(5.91914e-08 -4490.24 4240.06)
(5.90928e-08 -19313.2 -254.54)
(5.88684e-08 -17953.4 1714.85)
(5.92464e-08 -17407.9 2200.04)
(6.01686e-08 -18892.4 948.414)
(6.0737e-08 -20217.4 -2495.59)
(6.09152e-08 -20952.9 -7765.92)
(6.07248e-08 -20271.1 -15743.9)
(5.89539e-08 -24380.7 -44833.3)
(7.3378e-08 -13571.6 -65809.8)
(4.83664e-08 -1289.41 -58858.6)
(5.80789e-08 -8366.66 -337.741)
(5.23112e-08 -6430.32 1425.21)
(6.00111e-08 -19933.6 -3285.8)
(5.97243e-08 -15711.7 -1904.08)
(5.8647e-08 -13560 -6757.15)
(5.86032e-08 -11979.6 -5911.94)
(5.8822e-08 -12046.8 -3303.28)
(5.91367e-08 -10835.5 -1441.71)
(5.96912e-08 -8488.25 -1954.47)
(6.02181e-08 -8391.68 -8482.69)
(6.11811e-08 -16256.3 -22137.2)
(6.24188e-08 -12169.1 -4460.1)
(6.23577e-08 -9898.86 1187.84)
(6.30545e-08 -6525.36 -8670.33)
(6.56057e-08 -2643.45 -13249.4)
(4.56386e-08 -9247.21 -4732.39)
(4.89004e-08 -11456.5 -4236.58)
(5.3092e-08 -11869 2564.42)
(5.60495e-08 -9497.8 5173.86)
(5.81636e-08 -6241.67 4898.61)
(5.881e-08 -4972.74 3519.46)
(5.88863e-08 -5653.29 2328.47)
(5.90352e-08 -6310.62 2896.78)
(5.96659e-08 -5527.79 4083.44)
(6.02651e-08 -4675.76 3488.11)
(6.06174e-08 -4670.41 2317.77)
(6.10039e-08 -4144.64 3124.51)
(6.17904e-08 -4162.04 3905.71)
(6.71376e-08 -2685.5 6551)
(6.26955e-08 -4066.77 -2104.86)
(1.92794e-08 -7968.27 -8879.35)
(5.1555e-08 -3695.76 -4884.24)
(5.93536e-08 -3240.47 -8900.34)
(6.19575e-08 -1706.13 -11276.4)
(6.27108e-08 32.1292 -15223)
(6.2618e-08 -251.005 -25554.1)
(6.07474e-08 -1947.87 -12658.2)
(6.07657e-08 -2519.73 -3252.14)
(6.09211e-08 -2374.82 5941.35)
(6.03394e-08 -2619.71 10186.1)
(5.9083e-08 -2754.12 7776.41)
(5.68325e-08 -1896.61 6700.2)
(5.30463e-08 -1759.43 6988.02)
(4.48331e-08 -1964.79 5992.51)
(2.63673e-08 -2966.77 -5327.31)
(3.79268e-08 -5902.4 -14543.9)
(6.88373e-08 -4175.53 -6672.87)
(6.53935e-08 -5114.84 -17930.9)
(6.3514e-08 -5329.36 -10883.6)
(6.28195e-08 -5520.46 -8370.15)
(6.25359e-08 -5317.72 -9154.36)
(6.24252e-08 -2377.08 -6408.72)
(6.23646e-08 -1692.35 -5206.06)
(6.2371e-08 -1332.14 -6326.66)
(6.08776e-08 -5507.52 -4106.76)
(5.97763e-08 -6764.9 -5126.86)
(5.93874e-08 -4218.93 -1342.51)
(5.81138e-08 -5950.87 -4645.84)
(5.3912e-08 -1201.37 -9977.04)
(3.05003e-08 -9267.69 -48988.5)
(6.21488e-08 -6293.03 -5292.16)
(6.37605e-08 -4426.81 3570.64)
(6.29564e-08 -3100.84 5499.23)
(6.33009e-08 -2928.7 7957.76)
(6.31044e-08 -2760.97 10269.6)
(6.27486e-08 -2626.88 11312.7)
(6.23847e-08 -2194.71 10447)
(6.20907e-08 -1996.59 10066.9)
(6.31242e-08 -886.541 8565.55)
(6.47613e-08 -1259.71 2699.3)
(6.42525e-08 -2173.74 -220.929)
(6.18878e-08 -5078.69 286.082)
(5.7466e-08 -9611.77 -5302.99)
(4.5678e-08 -6698.44 -8027.16)
(1.62986e-08 -7899.28 -27062.3)
(6.46824e-08 -4392.33 13866.2)
(6.61109e-08 -2115.74 8762.09)
(6.63194e-08 668.035 4810.83)
(6.68112e-08 2830.13 2143.99)
(6.68758e-08 4235.85 355.104)
(6.68457e-08 4936.13 -1252.02)
(6.6896e-08 5110.52 -3743.49)
(6.71726e-08 5929.28 -4500.57)
(6.7486e-08 6266.7 -6550.17)
(6.78883e-08 5821.04 -9003.1)
(6.83418e-08 4473.74 -7659.68)
(6.84371e-08 374.086 -2350.79)
(6.65075e-08 -1661.35 2290.12)
(5.22839e-08 -13815.3 -50943.8)
(3.11e-08 -4858.22 865.788)
)
;

boundaryField
{
    inletFace
    {
        type            zeroGradient;
    }
    inlet
    {
        type            fixedValue;
        value           uniform (0 8.7 15);
    }
    inletWalls
    {
        type            noSlip;
    }
    outletInlet
    {
        type            zeroGradient;
    }
}


// ************************************************************************* //
