/*--------------------------------*- C++ -*----------------------------------*\
| =========                 |                                                 |
| \\      /  F ield         | OpenFOAM: The Open Source CFD Toolbox           |
|  \\    /   O peration     | Version:  4.1                                   |
|   \\  /    A nd           | Web:      www.OpenFOAM.org                      |
|    \\/     M anipulation  |                                                 |
\*---------------------------------------------------------------------------*/
FoamFile
{
    version     2.0;
    format      ascii;
    class       volScalarField;
    location    "3";
    object      p;
}
// * * * * * * * * * * * * * * * * * * * * * * * * * * * * * * * * * * * * * //

dimensions      [0 2 -2 0 0 0 0];

internalField   nonuniform List<scalar> 
225
(
523.53
470.136
418.304
369.888
324.99
282.966
243.605
206.595
171.495
138.125
107.178
79.0355
50.0029
15.0819
-14.07
57.1368
34.8797
29.0364
25.2666
19.7966
14.0891
8.92175
4.52157
1.03273
-1.42763
-2.61887
-2.1171
-0.0198728
1.86128
2.11545
-46.2291
-52.9488
-47.1569
-42.8943
-39.7279
-36.1098
-32.1923
-28.2114
-24.261
-20.5198
-17.1625
-14.0601
-10.934
-8.26765
-7.03567
0.060278
-2.29116
2.4911
2.91824
2.97887
3.20045
3.13153
2.76307
2.18273
1.41234
0.408034
-0.780175
-1.71546
-1.83822
-1.52344
17.4705
15.2311
16.7949
14.5384
12.9588
11.6191
10.1184
8.63366
7.28221
6.13462
5.20492
4.45837
3.9684
3.95829
4.21403
8.19293
6.09525
6.84552
5.35161
5.03381
5.00526
4.90032
4.91371
5.07624
5.3663
5.76644
6.22598
6.59341
6.86439
7.03553
3.54984
2.26096
3.21523
2.8921
3.44278
4.01357
4.43784
4.90345
5.37706
5.79989
6.16844
6.47825
6.68591
6.77443
6.7851
5.11426
4.56256
5.54737
5.57772
6.03614
6.29974
6.39894
6.50707
6.58359
6.58509
6.5314
6.46331
6.37903
6.2898
6.22424
6.33623
6.11111
6.80998
6.72422
6.8312
6.73741
6.56507
6.43843
6.30413
6.13923
5.96648
5.81293
5.69828
5.61868
5.56732
5.47576
5.32583
5.72558
5.53354
5.47099
5.29638
5.13389
5.04427
4.9598
4.87994
4.8147
4.77416
4.74351
4.70617
4.65227
3.75637
3.61653
3.84018
3.65707
3.60515
3.51608
3.47922
3.4969
3.50307
3.51332
3.5308
3.55362
3.56443
3.54605
3.4815
2.21885
2.09879
2.24652
2.1269
2.145
2.15622
2.21824
2.29619
2.34246
2.38246
2.42067
2.44555
2.45593
2.43747
2.36953
1.20021
1.12332
1.25261
1.20464
1.28802
1.36209
1.46307
1.54466
1.58553
1.62041
1.64887
1.66406
1.6613
1.64021
1.57944
0.614017
0.584992
0.707588
0.691618
0.79516
0.873438
0.956586
1.00137
1.0113
1.01841
1.01926
1.00318
0.982992
0.959572
0.906794
0.207447
0.188554
0.258713
0.262896
0.363212
0.414831
0.449303
0.441373
0.414649
0.392548
0.36166
0.318415
0.272777
0.236526
0.194551
)
;

boundaryField
{
    inletFace
    {
        type            zeroGradient;
    }
    inlet
    {
        type            zeroGradient;
    }
    inletWalls
    {
        type            zeroGradient;
    }
    outletInlet
    {
        type            fixedValue;
        value           uniform 0;
    }
}


// ************************************************************************* //
