/*--------------------------------*- C++ -*----------------------------------*\
| =========                 |                                                 |
| \\      /  F ield         | OpenFOAM: The Open Source CFD Toolbox           |
|  \\    /   O peration     | Version:  4.1                                   |
|   \\  /    A nd           | Web:      www.OpenFOAM.org                      |
|    \\/     M anipulation  |                                                 |
\*---------------------------------------------------------------------------*/
FoamFile
{
    version     2.0;
    format      ascii;
    class       surfaceScalarField;
    location    "3";
    object      phi;
}
// * * * * * * * * * * * * * * * * * * * * * * * * * * * * * * * * * * * * * //

dimensions      [0 3 -1 0 0 0 0];

internalField   nonuniform List<scalar> 
420
(
-949.833
2249.78
-1573.63
1924.08
-2053.47
1779.76
-2423.65
1670.15
-2699.4
1575.96
-2888
1488.55
-2992.78
1404.69
-3013.68
1321.12
-2949.58
1235.79
-2797.32
1147.65
-2551.44
1054.24
-2193.28
941.843
-1687.54
794.179
-1012.93
625.618
286.966
372.608
1877.19
442.127
1854.65
436.512
1785.41
405.618
1701.13
379.286
1602.29
358.668
1509.22
344.026
1419.3
336.279
1328.88
332.21
1239.79
325.717
1154.1
308.213
1071.64
265.862
984.053
189.948
869.869
110.615
704.719
397.568
34.6997
1842.46
-98.0785
1986.4
-255.193
1942.71
-374.485
1819.35
-476.495
1704.45
-572.006
1603.68
-656.291
1503.7
-731.536
1403.11
-793.841
1302.02
-843.548
1202.92
-874.12
1101.75
-861.411
970.67
-744.35
751.8
-435.765
395.035
-38.2055
29.2577
1813.3
-101.836
2116.86
-227.285
2068.09
-306.339
1897.61
-369.527
1767.39
-418.606
1652.02
-448.025
1532.53
-458.791
1413.31
-453.92
1296.37
-432.276
1180.71
-388.189
1057.89
-312.949
893.943
-193.506
631.242
-48.9322
249.363
-87.1487
166.984
1645.95
144.535
2140.02
122.743
2089.09
124.427
1896.82
128.293
1762.42
138.752
1642.69
151.544
1518.56
171.224
1395.07
191.569
1275.6
213.323
1159.79
236.26
1037.64
247.013
879.929
233.907
643.224
152.459
329.694
65.3409
221.887
1423.62
245.478
2117.03
237.699
2096.62
240.799
1894.7
245.167
1758.38
249.482
1639.42
251.785
1516.94
250.346
1397.11
245.276
1280.8
237.25
1168.55
219.926
1052.18
201.233
904.15
159.974
687.997
83.4238
409.575
148.755
208.732
1214.93
245.474
2079.73
220.944
2121.72
196.256
1918.83
180.876
1774.63
165.275
1654.36
151.236
1531.82
135.232
1412.36
120.106
1296.47
104.947
1183.01
91.6221
1066.07
73.8379
920.378
50.1834
710.466
17.5793
441.131
166.34
178.619
1037.22
228.777
2028.96
204.593
2146.79
171.506
1950.98
152.188
1794.92
136.017
1669.44
121.712
1546.95
106.326
1426.68
94.0227
1309.1
82.0434
1194.39
71.4815
1076.19
60.6678
931.902
43.7146
728.082
19.2339
466.201
185.572
146.717
891.796
209.561
1966.34
195.553
2161.83
167.447
1978.95
150.888
1812.28
138.826
1681.13
128.214
1558.28
115.562
1438.93
104.808
1320.57
94.0383
1205.01
83.0857
1087.54
69.1932
945.523
49.0595
747.961
21.077
493.949
206.659
112.248
780.454
179.705
1899.88
175.36
2166.61
152.662
2002.67
137.92
1827.24
127.807
1692.4
116.56
1569.68
106.035
1450.67
93.8147
1333.07
82.6261
1217.3
69.7894
1099.98
57.0607
960.189
39.489
766.85
17.4647
517.177
224.151
78.0998
702.344
138.325
1840.69
141.025
2163.5
122.394
2022.51
106.935
1842.23
97.2895
1703.44
84.6027
1581.87
73.7981
1462.87
61.403
1344.95
50.2976
1229.78
36.8228
1112
28.6664
972.282
17.7159
781.018
5.7573
532.043
229.886
49.8717
652.008
97.4167
1793.39
103.551
2157.23
89.7441
2036.68
75.5244
1856.12
65.2113
1714.02
54.9536
1591.79
44.7919
1473.17
35.5177
1354.45
26.4219
1238.56
19.535
1120.47
9.12743
979.248
0.229024
787.128
-6.50645
536.307
223.386
27.1488
623.854
61.5621
1758.46
67.6175
2150.45
57.1076
2046.92
46.1311
1866.58
36.8962
1723.12
28.5518
1599.78
21.4563
1480.21
13.9465
1361.7
7.38181
1245.15
1.67034
1125.93
-2.36334
983.97
-5.30163
790.867
-6.40581
538.093
216.964
8.81266
614.668
35.6136
1731
45.4314
2140.67
37.0004
2054.74
27.386
1876.31
19.2826
1730.48
12.3154
1606.77
5.68126
1485.95
0.459187
1366.73
-5.70341
1250.34
-9.22339
1129.38
-11.829
984.719
-12.7678
789.877
-10.011
533.589
206.951
-2.46262
9.687
14.1365
9.90918
2.744
-3.37953
-8.37726
-13.6192
-17.9825
-21.2845
-23.6911
-23.3372
-19.9917
-13.0195
)
;

boundaryField
{
    inletFace
    {
        type            calculated;
        value           nonuniform List<scalar> 
450
(
3.63909e-13
6.29993e-13
-3.26375e-13
-8.10539e-14
1.58341e-13
-1.8825e-13
-5.33156e-14
6.64104e-14
-1.08899e-13
-3.12551e-14
5.11135e-14
-6.83804e-14
-1.55789e-14
2.11596e-14
1.69926e-15
-2.03415e-12
-1.30596e-12
8.56679e-14
-6.10042e-13
-3.24905e-13
3.14079e-14
-3.33053e-13
-1.6382e-13
-2.07425e-15
-1.75909e-13
-6.90539e-14
1.85103e-14
-7.46242e-14
-9.49375e-15
2.36648e-16
-2.07002e-12
-1.8113e-12
-1.78229e-13
-8.53253e-13
-2.66662e-13
-1.31457e-13
-3.48399e-13
-1.13423e-13
-7.82201e-14
-1.27633e-13
-4.31214e-14
-7.03412e-14
-8.50279e-14
1.37971e-14
8.78493e-15
-2.22876e-12
-1.82834e-12
-3.03408e-13
-9.12659e-13
-1.88487e-13
-2.26728e-13
-4.00744e-13
-6.52157e-14
-9.30035e-14
-1.30529e-13
-3.18128e-14
-7.854e-14
-1.31787e-13
3.57567e-14
8.21278e-14
-2.1271e-12
-1.96926e-12
-4.06237e-13
-6.6711e-13
-1.73009e-13
-2.10566e-13
-3.62689e-13
-6.64495e-14
-6.66575e-14
-1.00166e-13
-4.32776e-15
-7.79434e-14
-5.31439e-14
3.11729e-14
8.03874e-14
-1.88073e-12
-2.06394e-12
-5.34098e-13
-6.19728e-13
-2.00806e-13
-1.97652e-13
-3.41876e-13
-9.51528e-14
-6.98638e-14
-1.40555e-13
-3.72595e-14
-5.25676e-14
-3.67423e-14
2.51148e-14
2.43483e-14
-1.70508e-12
-2.15481e-12
-7.75278e-13
-5.95019e-13
-2.59485e-13
-2.40101e-13
-3.43136e-13
-1.5119e-13
-1.2805e-13
-1.69598e-13
-9.73108e-14
-4.67471e-14
-7.08913e-14
-7.03627e-14
-2.09268e-13
-1.49092e-12
-2.20966e-12
-1.0087e-12
-5.70337e-13
-2.81192e-13
-2.67205e-13
-3.29273e-13
-1.91827e-13
-1.92134e-13
-1.77307e-13
-1.22864e-13
-8.36447e-14
-6.45355e-14
-2.83919e-14
-2.81059e-13
-1.25268e-12
-2.2254e-12
-1.195e-12
-6.10197e-13
-3.18708e-13
-2.36511e-13
-3.31453e-13
-2.22309e-13
-1.29965e-13
-1.70599e-13
-1.25222e-13
-8.4069e-14
-3.96303e-14
-1.73692e-14
-4.46142e-14
-1.06774e-12
-2.19117e-12
-1.29201e-12
-6.56416e-13
-3.36624e-13
-2.36241e-13
-3.07601e-13
-2.26376e-13
-1.06743e-13
-1.79816e-13
-1.53746e-13
-8.36117e-14
-3.73046e-14
1.67598e-14
8.48062e-14
-9.33277e-13
-2.14546e-12
-1.37455e-12
-6.75629e-13
-3.54349e-13
-2.05357e-13
-2.61024e-13
-2.2832e-13
-1.00653e-13
-1.65303e-13
-1.11705e-13
-8.27652e-14
-8.64812e-15
-4.28497e-14
1.05646e-13
-8.32408e-13
-2.10268e-12
-1.42833e-12
-7.14316e-13
-3.76419e-13
-1.68025e-13
-2.65186e-13
-2.4214e-13
-8.52592e-14
-1.2226e-13
-9.16031e-14
7.76065e-15
-1.51426e-14
2.39382e-14
1.48982e-13
-7.58079e-13
-2.05547e-12
-1.47499e-12
-7.47696e-13
-3.91717e-13
-1.87085e-13
-2.52415e-13
-2.64043e-13
-1.08154e-13
-1.15017e-13
-1.29865e-13
3.66343e-14
-2.10555e-14
9.99261e-14
1.22805e-13
-7.16074e-13
-2.01605e-12
-1.50814e-12
-7.69878e-13
-4.00767e-13
-1.7887e-13
-2.45961e-13
-2.78523e-13
-8.16064e-14
-1.25258e-13
-1.32894e-13
1.78383e-14
-1.35861e-14
8.69307e-14
1.10143e-13
-6.92102e-13
-1.94682e-12
-1.51001e-12
-7.87599e-13
-4.03629e-13
-1.92639e-13
-2.46009e-13
-2.57446e-13
-9.74405e-14
-1.2763e-13
-1.17234e-13
6.39775e-15
-5.51796e-15
8.96074e-14
5.76788e-14
-3.63909e-13
-6.29993e-13
3.26375e-13
8.10539e-14
-1.58341e-13
1.8825e-13
5.33156e-14
-6.64104e-14
1.08899e-13
3.12551e-14
-5.11135e-14
6.83804e-14
1.55789e-14
-2.11596e-14
-1.69926e-15
2.03415e-12
1.30596e-12
-8.56679e-14
6.10042e-13
3.24905e-13
-3.14079e-14
3.33053e-13
1.6382e-13
2.07425e-15
1.75909e-13
6.90539e-14
-1.85103e-14
7.46242e-14
9.49375e-15
-2.36648e-16
2.07002e-12
1.8113e-12
1.78229e-13
8.53253e-13
2.66662e-13
1.31457e-13
3.48399e-13
1.13423e-13
7.82201e-14
1.27633e-13
4.31214e-14
7.03412e-14
8.50279e-14
-1.37971e-14
-8.78493e-15
2.22876e-12
1.82834e-12
3.03408e-13
9.12659e-13
1.88487e-13
2.26728e-13
4.00744e-13
6.52157e-14
9.30035e-14
1.30529e-13
3.18128e-14
7.854e-14
1.31787e-13
-3.57567e-14
-8.21278e-14
2.1271e-12
1.96926e-12
4.06237e-13
6.6711e-13
1.73009e-13
2.10566e-13
3.62689e-13
6.64495e-14
6.66575e-14
1.00166e-13
4.32776e-15
7.79434e-14
5.31439e-14
-3.11729e-14
-8.03874e-14
1.88073e-12
2.06394e-12
5.34098e-13
6.19728e-13
2.00806e-13
1.97652e-13
3.41876e-13
9.51528e-14
6.98638e-14
1.40555e-13
3.72595e-14
5.25676e-14
3.67423e-14
-2.51148e-14
-2.43483e-14
1.70508e-12
2.15481e-12
7.75278e-13
5.95019e-13
2.59485e-13
2.40101e-13
3.43136e-13
1.5119e-13
1.2805e-13
1.69598e-13
9.73108e-14
4.67471e-14
7.08913e-14
7.03627e-14
2.09268e-13
1.49092e-12
2.20966e-12
1.0087e-12
5.70337e-13
2.81192e-13
2.67205e-13
3.29273e-13
1.91827e-13
1.92134e-13
1.77307e-13
1.22864e-13
8.36447e-14
6.45355e-14
2.83919e-14
2.81059e-13
1.25268e-12
2.2254e-12
1.195e-12
6.10197e-13
3.18708e-13
2.36511e-13
3.31453e-13
2.22309e-13
1.29965e-13
1.70599e-13
1.25222e-13
8.4069e-14
3.96303e-14
1.73692e-14
4.46142e-14
1.06774e-12
2.19117e-12
1.29201e-12
6.56416e-13
3.36624e-13
2.36241e-13
3.07601e-13
2.26376e-13
1.06743e-13
1.79816e-13
1.53746e-13
8.36117e-14
3.73046e-14
-1.67598e-14
-8.48062e-14
9.33277e-13
2.14546e-12
1.37455e-12
6.75629e-13
3.54349e-13
2.05357e-13
2.61024e-13
2.2832e-13
1.00653e-13
1.65303e-13
1.11705e-13
8.27652e-14
8.64812e-15
4.28497e-14
-1.05646e-13
8.32408e-13
2.10268e-12
1.42833e-12
7.14316e-13
3.76419e-13
1.68025e-13
2.65186e-13
2.4214e-13
8.52592e-14
1.2226e-13
9.16031e-14
-7.76065e-15
1.51426e-14
-2.39382e-14
-1.48982e-13
7.58079e-13
2.05547e-12
1.47499e-12
7.47696e-13
3.91717e-13
1.87085e-13
2.52415e-13
2.64043e-13
1.08154e-13
1.15017e-13
1.29865e-13
-3.66343e-14
2.10555e-14
-9.99261e-14
-1.22805e-13
7.16074e-13
2.01605e-12
1.50814e-12
7.69878e-13
4.00767e-13
1.7887e-13
2.45961e-13
2.78523e-13
8.16064e-14
1.25258e-13
1.32894e-13
-1.78383e-14
1.35861e-14
-8.69307e-14
-1.10143e-13
6.92102e-13
1.94682e-12
1.51001e-12
7.87599e-13
4.03629e-13
1.92639e-13
2.46009e-13
2.57446e-13
9.74405e-14
1.2763e-13
1.17234e-13
-6.39775e-15
5.51796e-15
-8.96074e-14
-5.76788e-14
)
;
    }
    inlet
    {
        type            calculated;
        value           nonuniform List<scalar> 
15
(
-1299.9
-1300.2
-1299.9
-1299.9
-1300.2
-1299.9
-1299.9
-1300.2
-1299.9
-1299.9
-1300.2
-1299.9
-1299.9
-1300.2
-1299.9
)
;
    }
    inletWalls
    {
        type            calculated;
        value           uniform 0;
    }
    outletInlet
    {
        type            calculated;
        value           nonuniform List<scalar> 
15
(
193.931
526.452
786.368
984.224
1131.55
1253.39
1370.8
1490.91
1611.57
1736.33
1883.3
2058.7
2135.94
1718.52
616.551
)
;
    }
}


// ************************************************************************* //
