/*--------------------------------*- C++ -*----------------------------------*\
| =========                 |                                                 |
| \\      /  F ield         | OpenFOAM: The Open Source CFD Toolbox           |
|  \\    /   O peration     | Version:  4.1                                   |
|   \\  /    A nd           | Web:      www.OpenFOAM.org                      |
|    \\/     M anipulation  |                                                 |
\*---------------------------------------------------------------------------*/
FoamFile
{
    version     2.0;
    format      ascii;
    class       volVectorField;
    location    "3";
    object      U;
}
// * * * * * * * * * * * * * * * * * * * * * * * * * * * * * * * * * * * * * //

dimensions      [0 1 -1 0 0 0 0];

internalField   nonuniform List<vector> 
225
(
(8.51187e-15 0.852746 15.7933)
(1.34238e-14 -4.89483 12.1217)
(-1.55112e-15 -4.19668 12.1326)
(-2.19268e-16 -3.6023 11.9973)
(5.0758e-16 -3.00589 11.8784)
(-2.29824e-16 -2.55438 11.6999)
(1.86547e-15 -2.20992 11.4778)
(2.84815e-16 -1.96705 11.2126)
(-1.73389e-18 -1.79943 10.917)
(9.99541e-16 -1.71308 10.5893)
(6.21566e-17 -1.83796 10.1572)
(1.56887e-17 -2.28595 9.53868)
(8.70931e-17 -2.51305 8.96482)
(-1.46484e-16 -1.06563 8.91448)
(-1.17637e-17 1.76532 7.47125)
(1.47716e-14 -5.35092 22.4971)
(9.04197e-15 -14.6101 21.3923)
(-5.93062e-16 -13.2752 20.343)
(4.597e-15 -11.7755 19.5074)
(2.24951e-15 -11.1603 18.5048)
(-2.1743e-16 -10.6623 17.5185)
(2.52731e-15 -10.0935 16.5725)
(1.13422e-15 -9.52864 15.6246)
(1.43596e-17 -8.96857 14.6648)
(1.03776e-15 -8.37002 13.6954)
(4.78102e-16 -7.7595 12.7185)
(-1.28143e-16 -7.3055 11.7212)
(5.16258e-16 -7.02098 10.628)
(6.57309e-17 -5.73349 9.1663)
(-1.63827e-18 -2.30742 4.58489)
(1.63752e-14 -7.71768 23.9844)
(1.25393e-14 -16.7815 24.6759)
(1.23399e-15 -13.7455 23.9376)
(7.42325e-15 -12.3084 22.6273)
(5.63122e-15 -11.642 21.2445)
(9.10161e-16 -10.8113 20.0036)
(3.54905e-15 -9.93669 18.7755)
(7.85209e-16 -9.09466 17.5259)
(5.41566e-16 -8.27673 16.2661)
(1.47338e-15 -7.46732 15.0275)
(2.98522e-16 -6.65871 13.8187)
(4.87016e-16 -5.83243 12.4259)
(1.0707e-15 -4.80041 10.2607)
(-9.55151e-17 -3.108 6.65876)
(-6.08235e-17 -0.823283 1.66792)
(1.54262e-14 -8.50208 22.0414)
(1.26806e-14 -16.6246 24.3439)
(2.10046e-15 -12.9237 23.8054)
(6.31896e-15 -12.1406 22.0059)
(1.23374e-15 -11.4111 20.5053)
(1.5939e-15 -10.4867 19.172)
(2.77462e-15 -9.62439 17.816)
(3.72602e-16 -8.8128 16.4572)
(6.71659e-16 -8.04447 15.119)
(8.88863e-16 -7.31672 13.8099)
(2.08044e-16 -6.54118 12.4287)
(5.25014e-16 -5.46779 10.5583)
(8.87581e-16 -3.74877 7.45085)
(-5.33337e-17 -1.45303 2.67611)
(-8.71055e-16 0.183495 -1.80191)
(1.4514e-14 -8.47378 19.7468)
(1.50174e-14 -16.3529 24.3181)
(2.63398e-15 -13.0771 23.6677)
(4.42362e-15 -12.6176 21.5385)
(1.81948e-15 -11.8554 20.0219)
(1.34787e-15 -10.9561 18.6605)
(2.39416e-15 -10.1663 17.2558)
(2.11758e-16 -9.40053 15.8674)
(-8.57829e-16 -8.65327 14.5195)
(6.23132e-16 -7.93389 13.208)
(-8.76329e-16 -7.17147 11.8202)
(4.55286e-16 -6.11001 9.97746)
(2.61456e-16 -4.38978 7.11062)
(-5.77626e-16 -2.25752 3.21487)
(-9.26842e-16 -0.733324 0.2488)
(1.32469e-14 -8.02868 17.5722)
(1.43721e-14 -16.0176 24.5287)
(3.44401e-15 -13.6387 24.0441)
(4.2903e-15 -13.0096 21.758)
(1.43919e-15 -12.1458 20.2088)
(1.52418e-15 -11.2368 18.8442)
(2.36677e-15 -10.4491 17.4322)
(7.17855e-16 -9.66079 16.0409)
(6.10837e-16 -8.8706 14.6922)
(3.54509e-16 -8.09864 13.3822)
(-3.44574e-16 -7.29867 12.0137)
(6.23438e-16 -6.27764 10.2675)
(2.54362e-16 -4.70927 7.69409)
(1.83369e-16 -2.73095 4.35093)
(2.27677e-16 -0.933072 1.27185)
(1.19293e-14 -7.34677 15.2608)
(1.51511e-14 -15.4984 24.3535)
(5.64135e-15 -14.0504 24.4206)
(4.11972e-15 -13.1588 22.0658)
(2.07249e-15 -12.1633 20.4412)
(1.76968e-15 -11.2416 19.0598)
(2.37577e-15 -10.4413 17.6469)
(1.10938e-15 -9.62579 16.2583)
(1.70534e-15 -8.81102 14.9078)
(1.17424e-15 -8.02105 13.5936)
(8.38645e-16 -7.2129 12.2335)
(1.5564e-15 -6.22378 10.5315)
(4.90828e-16 -4.7576 8.07339)
(1.09984e-16 -2.88268 4.91198)
(2.74834e-15 -0.993131 1.76892)
(9.64944e-15 -6.54019 12.9764)
(1.52985e-14 -14.84 23.7951)
(6.9409e-15 -14.2956 24.6768)
(3.94826e-15 -13.2531 22.335)
(1.94683e-15 -12.1621 20.595)
(1.74149e-15 -11.2533 19.1762)
(2.27945e-15 -10.4572 17.762)
(1.32811e-15 -9.63584 16.3764)
(1.19234e-15 -8.82358 15.0231)
(5.50313e-16 -8.04075 13.7045)
(8.50648e-16 -7.23873 12.349)
(3.88608e-16 -6.27035 10.6775)
(1.64505e-15 -4.87089 8.29663)
(1.9657e-16 -3.07143 5.24456)
(1.43582e-15 -1.13669 2.04084)
(8.67215e-15 -5.73133 11.0154)
(1.54061e-14 -14.1424 23.0488)
(8.52544e-15 -14.4498 24.8568)
(4.22432e-15 -13.3892 22.6343)
(2.20638e-15 -12.2319 20.7675)
(1.96004e-15 -11.3333 19.2994)
(2.29461e-15 -10.5408 17.8877)
(1.53902e-15 -9.71894 16.5066)
(1.30706e-15 -8.91225 15.1509)
(1.18104e-15 -8.13629 13.828)
(8.66897e-16 -7.33725 12.4763)
(3.95716e-16 -6.37916 10.834)
(2.74356e-16 -5.02408 8.52518)
(1.20245e-16 -3.27271 5.55415)
(-6.19471e-16 -1.2597 2.26939)
(6.60786e-15 -5.03488 9.50962)
(1.51692e-14 -13.4813 22.2614)
(9.28204e-15 -14.5272 24.9609)
(4.40763e-15 -13.5421 22.9521)
(2.3304e-15 -12.3341 20.9782)
(1.58168e-15 -11.427 19.456)
(1.95624e-15 -10.6276 18.0471)
(1.56717e-15 -9.80342 16.6712)
(6.71205e-16 -8.9986 15.3139)
(1.09694e-15 -8.22244 13.9873)
(1.06436e-15 -7.42256 12.6363)
(4.85705e-16 -6.47123 11.0149)
(2.79277e-17 -5.15144 8.76488)
(-1.16026e-16 -3.44281 5.85754)
(-8.80638e-16 -1.35418 2.49597)
(6.36227e-15 -4.51917 8.44703)
(1.49037e-14 -12.9059 21.5372)
(9.34419e-15 -14.5284 24.9838)
(4.67716e-15 -13.6641 23.2333)
(2.50366e-15 -12.42 21.1883)
(1.20421e-15 -11.4919 19.6138)
(1.25164e-15 -10.6792 18.2042)
(1.32793e-15 -9.85194 16.8304)
(7.65436e-16 -9.04746 15.4703)
(8.06349e-16 -8.26821 14.1391)
(1.60264e-15 -7.46328 12.7831)
(1.94163e-16 -6.51365 11.1675)
(5.98681e-17 -5.22176 8.95079)
(-1.85419e-15 -3.55224 6.07788)
(-1.26917e-15 -1.4038 2.64317)
(5.76266e-15 -4.18455 7.74239)
(1.45825e-14 -12.4385 20.9324)
(9.84561e-15 -14.4778 24.9433)
(4.94513e-15 -13.7446 23.4487)
(2.63129e-15 -12.4814 21.3681)
(1.1084e-15 -11.5305 19.7471)
(1.83585e-15 -10.7054 18.3319)
(2.05971e-15 -9.87932 16.9562)
(5.55582e-16 -9.07833 15.5914)
(8.46394e-16 -8.29824 14.255)
(6.34158e-16 -7.49331 12.891)
(2.79329e-16 -6.54177 11.2699)
(1.63395e-16 -5.25236 9.05911)
(-2.47942e-16 -3.58937 6.18044)
(-1.67014e-15 -1.39262 2.63159)
(5.014e-15 -3.99926 7.31775)
(1.42163e-14 -12.0758 20.4638)
(1.02223e-14 -14.3955 24.8663)
(5.03647e-15 -13.7799 23.5948)
(2.71181e-15 -12.513 21.5091)
(1.29517e-15 -11.5457 19.8523)
(1.58326e-15 -10.711 18.4283)
(1.74723e-15 -9.88913 17.0476)
(7.13667e-16 -9.09177 15.6775)
(7.96338e-16 -8.30963 14.3354)
(9.41299e-16 -7.5013 12.9604)
(-3.01593e-16 -6.54537 11.3233)
(1.45782e-16 -5.25764 9.10329)
(-6.10115e-16 -3.59567 6.20343)
(-9.97052e-16 -1.36795 2.54851)
(4.83176e-15 -3.91623 7.10428)
(1.39512e-14 -11.826 20.1479)
(1.04798e-14 -14.3187 24.7851)
(5.37663e-15 -13.7973 23.685)
(2.76826e-15 -12.5313 21.6048)
(1.23826e-15 -11.5515 19.9231)
(1.71773e-15 -10.7106 18.4918)
(1.91212e-15 -9.89326 17.1072)
(5.64934e-16 -9.09835 15.735)
(8.8629e-16 -8.31399 14.3906)
(8.99097e-16 -7.50316 13.008)
(-1.23489e-16 -6.54294 11.3589)
(1.22871e-16 -5.252 9.13052)
(-6.42322e-16 -3.58323 6.2114)
(-7.62485e-16 -1.33502 2.47493)
(4.78166e-15 -3.94856 7.10265)
(1.34741e-14 -11.5689 19.8301)
(1.04577e-14 -14.2022 24.652)
(5.45245e-15 -13.7879 23.7577)
(2.75856e-15 -12.5433 21.7209)
(1.37244e-15 -11.5602 20.0165)
(1.70309e-15 -10.7123 18.5712)
(1.77418e-15 -9.89886 17.1749)
(6.83364e-16 -9.1022 15.796)
(8.83569e-16 -8.31185 14.4424)
(8.0642e-16 -7.49131 13.0335)
(-3.84346e-17 -6.50931 11.338)
(3.82001e-17 -5.19302 9.06019)
(-6.30501e-16 -3.48288 6.06563)
(-3.79998e-16 -1.2304 2.25451)
)
;

boundaryField
{
    inletFace
    {
        type            zeroGradient;
    }
    inlet
    {
        type            fixedValue;
        value           uniform (0 8.7 15);
    }
    inletWalls
    {
        type            noSlip;
    }
    outletInlet
    {
        type            zeroGradient;
    }
}


// ************************************************************************* //
