/*--------------------------------*- C++ -*----------------------------------*\
| =========                 |                                                 |
| \\      /  F ield         | OpenFOAM: The Open Source CFD Toolbox           |
|  \\    /   O peration     | Version:  4.1                                   |
|   \\  /    A nd           | Web:      www.OpenFOAM.org                      |
|    \\/     M anipulation  |                                                 |
\*---------------------------------------------------------------------------*/
FoamFile
{
    version     2.0;
    format      ascii;
    class       volScalarField;
    location    "13";
    object      p;
}
// * * * * * * * * * * * * * * * * * * * * * * * * * * * * * * * * * * * * * //

dimensions      [0 2 -2 0 0 0 0];

internalField   nonuniform List<scalar> 
6785
(
538.101
484.704
432.872
384.461
339.57
297.553
258.198
221.194
186.1
152.736
121.794
93.6548
64.6259
29.707
0.554247
71.6679
49.4065
43.6476
39.9373
34.4632
28.7555
23.6024
19.2135
15.7294
13.2705
12.079
12.5805
14.6768
16.5483
16.8083
-31.1159
-37.7595
-31.993
-27.8463
-24.756
-21.161
-17.275
-13.338
-9.43397
-5.71847
-2.37331
0.693356
3.76976
6.4223
7.65629
15.0159
12.5973
17.1895
17.5134
17.5668
17.7817
17.6924
17.315
16.7333
15.9741
15.0173
13.9078
12.9971
12.8442
13.1545
31.4487
29.1152
30.6684
28.5701
27.1506
25.9067
24.4962
23.1139
21.856
20.7645
19.863
19.1501
18.6719
18.6385
18.8833
22.2309
20.2058
21.1775
19.9566
19.7514
19.7338
19.6442
19.6757
19.8297
20.0716
20.3895
20.7512
21.07
21.3263
21.5009
18.7822
17.6224
18.7016
18.3738
18.7548
19.1443
19.4387
19.785
20.1375
20.4587
20.745
20.9961
21.1722
21.2518
21.2665
20.4987
19.9343
20.7742
20.534
20.7198
20.8223
20.8364
20.8724
20.8888
20.8765
20.8461
20.8125
20.7744
20.7257
20.6752
20.8938
20.5578
21.0382
20.7371
20.7538
20.7026
20.6078
20.5424
20.4706
20.3954
20.3231
20.2588
20.2032
20.1509
20.095
19.6705
19.4498
19.7391
19.5119
19.5355
19.506
19.4559
19.4299
19.397
19.3628
19.3289
19.293
19.2541
19.2076
19.1415
18.5768
18.433
18.6267
18.476
18.5037
18.4759
18.4321
18.4006
18.3573
18.3095
18.2586
18.2034
18.1442
18.0798
17.9934
17.6343
17.5739
17.6826
17.5187
17.4842
17.4076
17.324
17.246
17.157
17.0652
16.9714
16.8758
16.7835
16.6993
16.5984
18.3651
18.2387
18.107
17.7711
17.5452
17.2742
16.9883
16.711
16.4369
16.177
15.934
15.7119
15.5182
15.3655
15.2245
16.072
16.5232
16.9024
16.76
16.4377
16.0314
15.6404
15.2685
14.8945
14.5144
14.1325
13.7532
13.3884
13.0595
12.7417
32.7263
32.3777
31.6163
29.2445
25.9195
22.5529
19.3992
16.5431
13.9267
11.6727
9.7208
8.07579
6.75289
5.75262
4.89942
34.6569
33.5568
34.1829
33.1742
32.4357
30.7775
30.9888
29.3149
28.091
26.5333
26.7375
24.3081
21.5089
22.6326
20.4791
18.7326
18.3907
19.5933
16.409
14.4138
16.9903
14.7937
12.9262
14.0036
16.57
13.8317
11.9917
13.7328
17.017
14.2073
13.1348
17.267
15.9168
14.4626
15.7496
19.2557
17.3979
16.6864
20.3977
19.6511
18.6855
19.5998
22.4643
21.5858
20.8426
21.7043
24.1167
23.3775
22.9416
24.9091
24.7372
24.4445
24.8831
26.4875
26.336
26.1733
26.6003
28.3014
28.3777
28.3516
30.0841
30.3226
30.174
30.0259
30.9477
31.0448
30.9038
31.0854
30.8536
31.3975
31.6689
28.7085
27.7805
28.0409
25.0972
19.5442
21.61
14.9036
-2.2333
3.72492
7.79659
8.20407
9.00449
4.55224
7.17279
10.6702
11.5784
11.8932
11.8688
12.5347
14.4472
16.2256
18.1923
12.7024
13.3723
15.2418
16.7568
16.9609
17.2479
17.4541
18.128
22.8503
19.4571
19.7239
19.6285
20.2866
21.5682
22.3108
22.3445
22.0587
21.9461
27.9974
25.7248
25.64
25.1172
24.8036
25.6313
26.5628
25.8573
24.5187
28.8438
29.665
30.3863
30.3612
29.5205
28.7433
27.999
27.3523
26.7217
33.7823
32.6195
30.8659
30.3339
29.8428
28.8566
27.2477
24.5301
22.4577
28.0828
29.545
27.0433
25.2575
22.8249
19.7931
17.729
16.4518
14.7975
13.793
11.7747
14.3558
12.7673
12.8679
12.6761
10.8344
7.86204
7.3277
8.57239
3.85157
10.0639
9.08367
7.72369
8.95964
5.27387
5.3931
5.35388
6.88624
7.7797
4.50954
6.78272
7.54184
3.43805
3.88973
4.0569
6.20863
7.43031
3.04041
3.72125
4.05004
6.50286
8.02783
4.47081
7.53255
8.71598
4.55458
5.47009
6.01838
8.51407
10.1366
6.30199
7.24046
7.81243
10.2314
11.9419
9.4123
12.1492
13.3781
10.6827
11.567
12.1048
13.9527
15.2826
13.2855
14.0283
14.4339
15.8934
16.9945
16.0896
17.4742
18.0606
17.3333
17.8416
17.9881
18.6658
19.1655
19.0495
19.3351
19.3262
19.659
19.9063
20.1355
20.2465
20.0431
20.4566
20.4161
19.8342
19.622
19.0661
19.1305
18.0453
16.6964
16.1993
15.1155
14.9646
12.2459
8.84485
9.9833
6.77584
2.60173
0.226619
-1.14797
-0.00296552
0.00156287
0.00747934
0.0122135
0.0153057
0.0197232
0.0235869
0.0266329
0.0285866
0.0296154
0.0299624
0.0301321
0.02877
0.0268934
0.025368
0.0243747
0.0236674
0.0235952
0.024296
0.0256321
0.0271111
0.02907
0.0311688
0.0339156
0.0363879
0.0391918
0.0414365
0.0435919
0.0449323
0.0462332
0.0478705
0.0519691
0.0610548
0.0805251
0.115956
0.179016
0.271804
0.397151
0.501668
0.460265
0.280713
0.146393
0.151324
0.11974
0.0868449
0.0492811
0.0951168
0.233378
0.131637
0.146313
0.0332337
-0.00849251
-0.0293297
-0.0147182
-0.235872
-0.00207325
0.0903696
0.29417
0.383397
0.202137
0.173326
0.390465
0.637139
0.749124
0.722288
0.63352
0.491348
0.0559268
-1.16393
-1.08972
-0.977195
-1.57648
-1.02561
-0.476003
0.00482728
0.100595
0.365671
0.828028
1.4705
-0.0050144
-0.000842642
0.00724036
0.0135329
0.0166865
0.022556
0.0282033
0.0331519
0.0368389
0.038737
0.0387514
0.0395097
0.0383307
0.0367076
0.035365
0.0340899
0.0333211
0.0336115
0.0350875
0.0374048
0.0403137
0.043985
0.0479913
0.0526664
0.0567682
0.061444
0.0651725
0.0690553
0.0718202
0.0750778
0.0790008
0.0868474
0.101214
0.129847
0.179937
0.268753
0.402391
0.590655
0.77294
0.781214
0.552898
0.285103
0.224853
0.202852
0.155906
0.131182
0.216385
0.263671
0.17619
0.155464
0.046853
-0.011621
-0.0335085
-0.119464
-0.192422
0.169116
-0.0196161
0.392507
0.646025
0.42248
0.389775
0.629156
0.873581
1.01084
0.921714
0.681578
0.359965
-0.32561
-1.74613
-1.73188
-1.43598
-1.95155
-1.27904
-0.527119
0.193286
0.492886
1.20133
2.42131
3.92203
-0.00306844
0.00105487
0.00855781
0.0150826
0.0196258
0.0258169
0.0314174
0.0363072
0.0400565
0.0423879
0.0431422
0.0437068
0.0422634
0.0405975
0.0395737
0.0388045
0.0384088
0.0393044
0.0415657
0.0446256
0.0482771
0.0532349
0.0588233
0.0655375
0.0716044
0.0786874
0.0847883
0.0916001
0.0974723
0.104446
0.112401
0.124862
0.143871
0.176995
0.230379
0.320257
0.449021
0.623093
0.780357
0.766157
0.551524
0.320258
0.284016
0.235362
0.194624
0.181654
0.279098
0.288944
0.211928
0.148365
0.0688808
0.0136854
-0.028444
-0.0444633
-0.032568
0.314663
0.193837
0.571805
0.786854
0.61024
0.55562
0.747966
0.990625
1.0963
0.994414
0.753913
0.398283
-0.338557
-1.75824
-1.86015
-1.69372
-2.14661
-1.41373
-0.557085
0.29504
0.8484
2.01237
3.92003
6.3378
-0.000149816
0.00434096
0.0116366
0.0183597
0.0237473
0.0299552
0.0353843
0.040111
0.0437705
0.046278
0.0473541
0.0477707
0.0462569
0.0446927
0.0440364
0.0438542
0.0440324
0.0456482
0.048903
0.0531243
0.0577218
0.0638829
0.0708596
0.0794336
0.0874321
0.0968636
0.105626
0.115568
0.124831
0.135788
0.147953
0.164944
0.188156
0.224742
0.279588
0.366668
0.482431
0.627224
0.736096
0.678469
0.479445
0.313045
0.33058
0.272409
0.244167
0.240258
0.336297
0.329592
0.240156
0.14653
0.104317
0.0648833
-0.00235141
0.0547748
0.0600257
0.395013
0.476324
0.78159
0.922418
0.782026
0.719293
0.880275
1.11306
1.19243
1.09942
0.881727
0.523081
-0.230795
-1.63591
-1.87922
-1.88942
-2.27155
-1.50168
-0.595532
0.362107
1.23466
2.84079
5.33895
8.428
0.00197995
0.00675944
0.01415
0.0209681
0.026751
0.0329186
0.0382685
0.0429876
0.0466504
0.04925
0.0505457
0.0509516
0.0496563
0.0484299
0.048108
0.0484637
0.0492535
0.0515741
0.0556679
0.0609998
0.0666956
0.0740527
0.0824012
0.0926814
0.102651
0.114286
0.125594
0.138459
0.150821
0.165273
0.18104
0.201838
0.228508
0.268089
0.324478
0.410259
0.517603
0.643194
0.722853
0.649499
0.474139
0.339812
0.365871
0.309749
0.287704
0.290857
0.378028
0.346373
0.249874
0.150252
0.145149
0.125852
0.0432315
0.131401
0.127912
0.468112
0.632871
0.931093
1.04747
0.935261
0.872028
1.0093
1.21262
1.27749
1.20517
0.995893
0.630077
-0.135911
-1.53682
-1.9017
-2.0473
-2.40966
-1.63715
-0.655921
0.412424
1.62421
3.64378
6.61306
10.2325
0.00320937
0.00814253
0.0156852
0.0225201
0.0285439
0.0347186
0.0400857
0.0448889
0.0486229
0.0513647
0.0529692
0.0535507
0.052635
0.0518895
0.0519063
0.0527301
0.0540459
0.0570049
0.0617633
0.0679747
0.0747097
0.0832918
0.0930044
0.104872
0.116794
0.130664
0.144412
0.160092
0.17543
0.193117
0.212202
0.236465
0.266366
0.308909
0.367172
0.452859
0.555329
0.670297
0.73732
0.670677
0.520576
0.39003
0.391889
0.332556
0.306925
0.315481
0.393864
0.358307
0.250985
0.158854
0.190705
0.189178
0.102909
0.188619
0.194109
0.5558
0.714585
1.04319
1.1658
1.07477
1.01151
1.12635
1.29379
1.35239
1.30211
1.10276
0.730724
-0.0450387
-1.42814
-1.89279
-2.16434
-2.51305
-1.75585
-0.67555
0.501755
2.03087
4.42772
7.77615
11.8203
0.0037862
0.00880029
0.0165205
0.0234083
0.0296627
0.035925
0.0414078
0.0463804
0.0502918
0.0533007
0.0552966
0.0562091
0.0557537
0.0555586
0.0559925
0.057248
0.059039
0.062578
0.0679465
0.0749028
0.0825599
0.0923494
0.103452
0.116893
0.130686
0.146819
0.163011
0.181496
0.199822
0.220778
0.243191
0.270935
0.30409
0.34968
0.410118
0.496451
0.596077
0.703857
0.7641
0.708299
0.572954
0.433235
0.409009
0.340843
0.305427
0.315105
0.391507
0.361131
0.246724
0.172055
0.239479
0.254569
0.169713
0.234829
0.24624
0.643901
0.79716
1.15373
1.28099
1.19885
1.13484
1.23177
1.36515
1.41756
1.38855
1.2044
0.830042
0.0464104
-1.31122
-1.89154
-2.26634
-2.5965
-1.86566
-0.695381
0.602085
2.42217
5.15866
8.81958
13.1146
0.00396602
0.00903814
0.016963
0.0239795
0.0304791
0.0369008
0.0425736
0.0477885
0.0519692
0.055351
0.0577793
0.0591182
0.0591652
0.0595485
0.0604664
0.0621714
0.0644148
0.0684848
0.0744267
0.0820863
0.0905531
0.101462
0.113911
0.128958
0.144584
0.162957
0.181652
0.20298
0.224369
0.248722
0.274659
0.306105
0.342775
0.391621
0.454568
0.54201
0.63935
0.740393
0.793527
0.74474
0.613896
0.462388
0.420397
0.339728
0.290112
0.296211
0.376521
0.356354
0.241789
0.191001
0.291643
0.322649
0.240402
0.27844
0.294366
0.72787
0.902683
1.27336
1.3968
1.31367
1.2485
1.3355
1.44049
1.48425
1.47659
1.30861
0.928378
0.154145
-1.19496
-1.86849
-2.33921
-2.69231
-2.00061
-0.758577
0.699671
2.79918
5.83949
9.76352
14.2351
0.003982
0.00913261
0.0172793
0.0244875
0.0312719
0.0379132
0.0438306
0.0493326
0.0538337
0.0576407
0.0605324
0.0623328
0.0629092
0.063877
0.0653215
0.0675212
0.0702416
0.0748237
0.0813257
0.0896734
0.0989187
0.110854
0.124549
0.141164
0.158608
0.179164
0.200367
0.224553
0.249021
0.276788
0.306288
0.341495
0.381767
0.433909
0.49931
0.587765
0.682763
0.776263
0.821357
0.777401
0.647364
0.486579
0.433219
0.337029
0.268322
0.266251
0.354726
0.345644
0.238949
0.216588
0.346286
0.39319
0.313602
0.328678
0.362958
0.813353
1.01089
1.3858
1.50493
1.41762
1.35282
1.43476
1.51218
1.54816
1.56235
1.40763
1.02233
0.246123
-1.09053
-1.84885
-2.44851
-2.81954
-2.13817
-0.841747
0.792468
3.14149
6.44072
10.5963
15.1907
0.0039703
0.00924006
0.0176258
0.0250741
0.0321592
0.0390601
0.0452532
0.0510609
0.0559023
0.060149
0.0635031
0.0657773
0.0669074
0.068468
0.0704726
0.0732177
0.0764618
0.0815852
0.0886498
0.0976862
0.107721
0.120659
0.135523
0.153628
0.172855
0.195547
0.21923
0.246269
0.273851
0.305027
0.33813
0.377104
0.421093
0.476614
0.544391
0.633501
0.725204
0.809915
0.84598
0.806742
0.678603
0.511264
0.448137
0.334072
0.242021
0.228728
0.325001
0.32802
0.238957
0.247984
0.401586
0.464457
0.387158
0.392388
0.465495
0.905443
1.11464
1.48752
1.60555
1.51534
1.45217
1.53265
1.58751
1.61811
1.64683
1.50105
1.12255
0.341844
-0.968086
-1.84652
-2.53673
-2.90412
-2.21966
-0.897213
0.898764
3.4582
6.96389
11.3139
15.974
0.00400319
0.0094469
0.0180831
0.0257985
0.0331958
0.0403778
0.0468667
0.0529732
0.0581507
0.0628236
0.0666242
0.0693623
0.0710627
0.0732143
0.0758071
0.0791344
0.0829637
0.0886923
0.0963578
0.106095
0.116958
0.130916
0.146938
0.166472
0.187434
0.212205
0.238315
0.268164
0.298847
0.333417
0.370087
0.412767
0.460389
0.519192
0.589076
0.678242
0.765826
0.840492
0.867484
0.83408
0.709158
0.53962
0.459442
0.328903
0.213242
0.1876
0.289535
0.305266
0.242177
0.282573
0.45467
0.534254
0.462764
0.471055
0.593526
1.00258
1.20814
1.57512
1.69457
1.60613
1.54453
1.62402
1.66142
1.68937
1.72681
1.58922
1.21082
0.44244
-0.865387
-1.84462
-2.60145
-2.97095
-2.25978
-0.928759
0.999498
3.72684
7.3808
11.8737
16.5374
0.00409079
0.00975516
0.0186547
0.0266574
0.0343603
0.0418311
0.0486236
0.0550168
0.0605234
0.0656039
0.0698199
0.073013
0.0752929
0.078038
0.0812426
0.0851904
0.0896606
0.0960801
0.104405
0.114886
0.126624
0.141652
0.158874
0.17984
0.202514
0.229324
0.257813
0.290411
0.324167
0.36212
0.402383
0.448769
0.500005
0.561992
0.633754
0.722372
0.804524
0.867762
0.884849
0.857074
0.734891
0.568803
0.46655
0.320949
0.180476
0.142224
0.246398
0.276432
0.246495
0.316331
0.503941
0.600808
0.542272
0.572649
0.740205
1.10429
1.301
1.65804
1.77444
1.69244
1.63347
1.70864
1.7397
1.7658
1.81139
1.68414
1.30676
0.55647
-0.76964
-1.80848
-2.63648
-3.03293
-2.28929
-0.939343
1.09874
3.95525
7.6969
12.2692
16.8534
0.00422437
0.0101537
0.0193237
0.0276228
0.0356293
0.0433863
0.0504817
0.057146
0.0629708
0.0684349
0.0730391
0.0766691
0.0795181
0.0828508
0.0866771
0.091265
0.0964233
0.103612
0.112668
0.123949
0.136627
0.152774
0.171264
0.193706
0.21811
0.246959
0.277805
0.313118
0.349897
0.391208
0.435029
0.485099
0.539849
0.604816
0.678083
0.765391
0.841075
0.891467
0.898228
0.875732
0.754545
0.597633
0.468673
0.31277
0.14691
0.0933332
0.196167
0.243818
0.251055
0.34857
0.54975
0.66241
0.626318
0.699225
0.900776
1.20882
1.39125
1.73568
1.84589
1.77347
1.7211
1.78755
1.81831
1.84191
1.88945
1.76523
1.39988
0.647413
-0.668719
-1.78295
-2.73048
-3.14981
-2.37979
-0.975072
1.17402
4.12464
7.90003
12.4592
16.9196
0.00438512
0.0106077
0.0200543
0.0286602
0.0369604
0.0449997
0.0523919
0.0593276
0.0654688
0.0713
0.0762664
0.0803209
0.0837223
0.0876473
0.0920966
0.0973409
0.103226
0.111253
0.121113
0.133272
0.146971
0.164313
0.184153
0.208155
0.234348
0.265275
0.298495
0.336515
0.376304
0.420949
0.468343
0.522112
0.580409
0.648277
0.722773
0.808105
0.875863
0.912017
0.907158
0.888952
0.770551
0.624615
0.471756
0.309559
0.118001
0.0431103
0.138586
0.206398
0.254037
0.378976
0.59438
0.720556
0.719878
0.849644
1.07015
1.31525
1.48395
1.81299
1.91392
1.84976
1.80518
1.86247
1.90202
1.925
1.97628
1.85729
1.49781
0.739934
-0.550158
-1.78517
-2.81507
-3.2269
-2.45984
-0.991013
1.24333
4.24826
8.01013
12.49
16.7828
0.0045571
0.0110942
0.0208202
0.0297385
0.0383301
0.046643
0.0543228
0.0615347
0.067989
0.0741708
0.079483
0.083944
0.0878737
0.0923844
0.0974434
0.103339
0.109978
0.118877
0.129608
0.142712
0.157517
0.176123
0.197406
0.223064
0.251137
0.284227
0.319891
0.360674
0.403508
0.451517
0.502494
0.559993
0.621848
0.692576
0.768078
0.85079
0.909741
0.930749
0.914028
0.90002
0.788243
0.644614
0.479778
0.318961
0.102724
-0.00117201
0.0784767
0.164726
0.253841
0.407528
0.639823
0.778097
0.82538
1.0179
1.24036
1.41888
1.57108
1.88347
1.97785
1.91991
1.88204
1.9341
1.98076
2.00063
2.05764
1.94795
1.58568
0.845544
-0.462529
-1.78914
-2.86669
-3.25674
-2.52519
-1.0037
1.288
4.31108
8.02373
12.3918
16.501
0.00473246
0.0115913
0.0216008
0.0308408
0.0397191
0.0483028
0.0562657
0.06377
0.0705413
0.0770665
0.082712
0.0875721
0.0920151
0.0971086
0.102763
0.109308
0.116722
0.126518
0.138175
0.152294
0.168292
0.188252
0.211082
0.238511
0.268576
0.303933
0.34214
0.385768
0.43173
0.483167
0.537831
0.599168
0.664746
0.738476
0.814974
0.894727
0.943872
0.949368
0.920143
0.908838
0.808819
0.661711
0.496785
0.341901
0.102917
-0.0344055
0.0201095
0.118899
0.248413
0.433619
0.685691
0.838986
0.9488
1.20456
1.41006
1.51714
1.65506
1.94862
2.03522
1.98137
1.95093
2.00367
2.05951
2.07653
2.14112
2.03886
1.67638
0.964019
-0.37045
-1.74675
-2.85114
-3.20485
-2.53581
-0.992783
1.31816
4.32639
7.95973
12.1874
16.1229
0.00490072
0.012086
0.0223844
0.0319528
0.0411206
0.0499683
0.0582115
0.0660159
0.0731067
0.0799679
0.0859418
0.0911942
0.0961309
0.101791
0.108022
0.115201
0.123398
0.134092
0.146707
0.161886
0.179143
0.200534
0.225007
0.25432
0.286507
0.324268
0.365164
0.411784
0.461018
0.516038
0.574524
0.639876
0.709364
0.786309
0.863957
0.940558
0.979643
0.969906
0.928806
0.91784
0.833906
0.677865
0.514935
0.368431
0.113278
-0.0545295
-0.0308683
0.07216
0.238595
0.456561
0.729343
0.905583
1.09035
1.4094
1.57504
1.60766
1.72865
2.00363
2.0837
2.0344
2.01107
2.06898
2.13715
2.15367
2.22417
2.12213
1.77305
1.06495
-0.26855
-1.68775
-2.81515
-3.13435
-2.52249
-0.991725
1.31052
4.27892
7.81714
11.8895
15.6667
0.00506212
0.012571
0.0231657
0.0330704
0.0425274
0.0516366
0.0601642
0.0682796
0.0757056
0.082902
0.0892031
0.0948518
0.100273
0.106491
0.11329
0.121099
0.130085
0.141679
0.155277
0.171564
0.190138
0.213044
0.239262
0.27058
0.305021
0.345327
0.389063
0.43883
0.491507
0.550284
0.612818
0.682434
0.756175
0.836707
0.915816
0.989378
1.01799
0.993651
0.940515
0.926922
0.865289
0.69574
0.530994
0.389765
0.129175
-0.062796
-0.0721153
0.0267109
0.22373
0.473238
0.767016
0.976616
1.2534
1.62565
1.73087
1.69227
1.79747
2.05348
2.12248
2.0777
2.06305
2.12879
2.2074
2.22974
2.31139
2.21487
1.88108
1.16546
-0.137292
-1.60283
-2.77284
-3.07798
-2.50692
-0.991689
1.27661
4.17963
7.61163
11.5158
15.1512
0.0052142
0.0130433
0.0239404
0.0341838
0.0439339
0.0532964
0.0621109
0.0705384
0.0783142
0.08584
0.092473
0.0985208
0.104416
0.111176
0.118534
0.126959
0.136728
0.149208
0.163796
0.181213
0.20114
0.225614
0.253661
0.287091
0.323928
0.366942
0.413707
0.466836
0.52318
0.585971
0.652808
0.727003
0.805352
0.889897
0.970898
1.04155
1.05981
1.0216
0.957659
0.937881
0.898709
0.715103
0.549449
0.406033
0.150904
-0.0598981
-0.102119
-0.0137611
0.204758
0.480878
0.795528
1.04915
1.44025
1.85261
1.86916
1.77237
1.85832
2.09713
2.15283
2.11674
2.11053
2.18296
2.27101
2.30158
2.38538
2.30252
1.98027
1.27204
-0.00829169
-1.55665
-2.76575
-3.06154
-2.51268
-1.01653
1.20098
4.01904
7.33743
11.0746
14.5917
0.00536944
0.0135091
0.0247118
0.0352946
0.0453419
0.0549613
0.0640656
0.0728149
0.0809541
0.0888089
0.0957826
0.102242
0.10862
0.115913
0.123825
0.132873
0.143425
0.156787
0.17237
0.190951
0.212266
0.238367
0.268324
0.303971
0.343336
0.389213
0.439178
0.495864
0.556105
0.62316
0.69462
0.773756
0.857184
0.94626
1.0296
1.09763
1.10529
1.05381
0.979985
0.951976
0.926757
0.732865
0.574242
0.428325
0.181598
-0.0467292
-0.121657
-0.0482426
0.183129
0.476824
0.811871
1.12094
1.65424
2.08716
2.00207
1.84998
1.91703
2.1389
2.17505
2.15399
2.15392
2.23573
2.33327
2.37492
2.46052
2.39277
2.07703
1.40422
0.106099
-1.50699
-2.72044
-3.02483
-2.50048
-1.04394
1.09787
3.81308
7.00387
10.5903
14.0126
0.0055251
0.0139657
0.0254756
0.0363935
0.0467455
0.0566267
0.0660143
0.0750854
0.0835879
0.0917725
0.0990973
0.10598
0.112846
0.120653
0.129113
0.138791
0.150119
0.164344
0.180917
0.200671
0.223393
0.25115
0.283077
0.321026
0.363051
0.411959
0.465332
0.525825
0.590242
0.661891
0.738321
0.822824
0.911806
1.00596
1.09217
1.15775
1.15492
1.09032
1.00838
0.972358
0.941605
0.744671
0.600182
0.457029
0.219818
-0.0252992
-0.129386
-0.0752107
0.158549
0.460013
0.819046
1.18433
1.87273
2.31192
2.12715
1.92431
1.96913
2.17558
2.1944
2.19359
2.19769
2.28829
2.39
2.44823
2.53774
2.47466
2.17442
1.5296
0.201497
-1.4329
-2.6383
-2.97646
-2.48668
-1.09359
0.953404
3.55621
6.6154
10.0624
13.3985
0.00569012
0.014418
0.0262341
0.0374849
0.048145
0.0583007
0.0679703
0.0773688
0.0862323
0.0947597
0.102445
0.109771
0.117138
0.125457
0.134469
0.144804
0.156909
0.171998
0.189565
0.210515
0.234669
0.264124
0.29808
0.338412
0.383206
0.435293
0.492248
0.556755
0.625606
0.702144
0.783931
0.874249
0.969349
1.06916
1.15864
1.22194
1.20828
1.13036
1.04068
0.999536
0.95314
0.75904
0.62685
0.48997
0.262309
0.00149092
-0.127375
-0.0965523
0.127725
0.430597
0.822706
1.22673
2.06104
2.50412
2.22409
1.99146
2.01959
2.20926
2.21129
2.23121
2.2363
2.33239
2.43666
2.51516
2.61762
2.55879
2.28922
1.64445
0.327137
-1.30189
-2.48724
-2.87814
-2.44706
-1.14666
0.781089
3.2606
6.1874
9.49937
12.792
0.00585813
0.0148585
0.0269799
0.0385604
0.0495301
0.0599663
0.0699127
0.0796346
0.0888489
0.0977274
0.105783
0.113568
0.121443
0.130266
0.139833
0.150838
0.163721
0.179665
0.198224
0.220372
0.245968
0.27714
0.313172
0.355953
0.403625
0.459046
0.519792
0.588573
0.662161
0.743953
0.831494
0.928119
1.02988
1.13592
1.22911
1.29013
1.26546
1.17363
1.07647
1.03347
0.969034
0.77664
0.652847
0.524501
0.308879
0.0325248
-0.118213
-0.114894
0.088263
0.395038
0.81523
1.24188
2.19369
2.64443
2.27593
2.04869
2.06473
2.23607
2.22741
2.27054
2.27621
2.37624
2.48267
2.57613
2.68998
2.64049
2.40053
1.75488
0.476395
-1.13814
-2.29894
-2.75517
-2.40782
-1.22303
0.569725
2.91902
5.72217
8.91459
12.1408
0.00604139
0.0152996
0.0277211
0.0396274
0.0509058
0.0616353
0.0718575
0.0819071
0.0914649
0.1007
0.109141
0.117405
0.125803
0.135142
0.145274
0.156974
0.170652
0.187463
0.207027
0.230399
0.257458
0.290387
0.328545
0.373843
0.424483
0.483363
0.548061
0.621315
0.699893
0.78724
0.880936
0.984335
1.09332
1.20608
1.30313
1.3617
1.32531
1.21917
1.11655
1.072
0.984145
0.794212
0.678853
0.563433
0.361486
0.0679862
-0.103171
-0.133842
0.0410912
0.357555
0.784887
1.22558
2.25879
2.72877
2.28053
2.09244
2.10959
2.25789
2.2385
2.30131
2.31209
2.41891
2.52808
2.63803
2.75697
2.72891
2.50952
1.8865
0.659047
-0.940297
-2.07699
-2.60155
-2.35963
-1.30995
0.331254
2.54086
5.22203
8.3039
11.5085
0.00623295
0.0157351
0.0284505
0.0406729
0.0522597
0.0632886
0.073779
0.0841527
0.0940405
0.103629
0.112476
0.12123
0.130158
0.140018
0.150721
0.163127
0.177614
0.195295
0.215873
0.240474
0.26901
0.303718
0.344043
0.391923
0.445633
0.508116
0.576965
0.654951
0.738827
0.832107
0.932368
1.04304
1.15979
1.27974
1.38088
1.43666
1.38796
1.26693
1.16269
1.10548
0.989446
0.811479
0.704489
0.606078
0.41866
0.109673
-0.082876
-0.157457
-0.00778906
0.310948
0.730476
1.17854
2.25759
2.75803
2.24993
2.12458
2.15212
2.2743
2.24772
2.32769
2.34359
2.45905
2.57309
2.70516
2.82137
2.81386
2.60527
2.03064
0.84574
-0.746184
-1.87716
-2.47021
-2.33133
-1.42383
0.0598696
2.12652
4.6889
7.68418
10.8988
0.00644264
0.0161753
0.0291737
0.0417006
0.0535992
0.0649399
0.0756996
0.0863974
0.0966075
0.106551
0.115823
0.125079
0.134551
0.14495
0.156244
0.169379
0.184701
0.203276
0.224892
0.250754
0.280798
0.317332
0.359872
0.410403
0.46727
0.533469
0.606616
0.689522
0.778944
0.878454
0.985674
1.10407
1.22907
1.35653
1.46154
1.51401
1.45186
1.31488
1.21378
1.1309
0.994096
0.83932
0.731455
0.652041
0.480659
0.160009
-0.0588057
-0.191583
-0.0525308
0.245832
0.651224
1.09964
2.19842
2.7315
2.1874
2.14208
2.19671
2.29048
2.25061
2.35121
2.36453
2.48565
2.6078
2.76908
2.88992
2.89509
2.7045
2.18911
1.02149
-0.562349
-1.69032
-2.34392
-2.3082
-1.55177
-0.233202
1.69086
4.13543
7.05275
10.2215
0.00666083
0.0166089
0.0298803
0.0426969
0.0549086
0.0665651
0.0775998
0.0886044
0.0991279
0.109423
0.119126
0.128899
0.138915
0.149866
0.161769
0.175639
0.19181
0.211292
0.233966
0.261102
0.29268
0.331071
0.375875
0.429127
0.489261
0.559323
0.636971
0.72506
0.820342
0.926472
1.04107
1.16767
1.30138
1.43664
1.54545
1.59398
1.5177
1.36203
1.26792
1.15114
1.00549
0.877738
0.758197
0.700204
0.548648
0.219894
-0.0356687
-0.236244
-0.0998859
0.16058
0.550629
0.996431
2.08963
2.65747
2.10409
2.14781
2.24104
2.30729
2.24952
2.37912
2.38635
2.50951
2.64034
2.82177
2.95616
2.96514
2.80796
2.33197
1.16988
-0.383243
-1.5172
-2.23121
-2.3035
-1.70403
-0.553206
1.23604
3.5761
6.41459
9.56097
0.00689849
0.0170508
0.0305835
0.0436752
0.0561962
0.068178
0.0795045
0.0908014
0.101636
0.112283
0.122425
0.13273
0.143298
0.154821
0.167361
0.181989
0.199027
0.219456
0.243225
0.271676
0.304835
0.345144
0.392268
0.448322
0.511815
0.58586
0.668154
0.761611
0.862995
0.976034
1.09839
1.23358
1.37635
1.51947
1.63148
1.67508
1.5836
1.40776
1.3263
1.17784
1.02847
0.924283
0.78782
0.751466
0.623332
0.286666
-0.019442
-0.281514
-0.161126
0.054133
0.42697
0.869171
1.93187
2.53158
2.00355
2.1365
2.28643
2.32917
2.24048
2.40622
2.40723
2.52903
2.67304
2.86768
3.01525
3.02669
2.91366
2.45216
1.32606
-0.178629
-1.33136
-2.11143
-2.30406
-1.87091
-0.892961
0.76808
3.01676
5.79005
8.93067
0.00714298
0.0174881
0.0312727
0.0446212
0.0574425
0.0697526
0.0813788
0.0929498
0.104096
0.115093
0.125675
0.136516
0.147637
0.159744
0.172942
0.188339
0.206252
0.227654
0.252541
0.282331
0.317111
0.359384
0.408892
0.467833
0.534813
0.613005
0.700167
0.799271
0.907094
1.02745
1.15798
1.30222
1.45436
1.6054
1.72034
1.75802
1.65114
1.45464
1.37918
1.20639
1.06069
0.970295
0.820334
0.802412
0.698214
0.350628
-0.0157572
-0.316714
-0.242878
-0.0700803
0.285266
0.717368
1.73344
2.35829
1.89847
2.11075
2.3331
2.35819
2.22992
2.43735
2.43618
2.55064
2.71247
2.91976
3.06271
3.08898
3.00438
2.56421
1.49808
0.0450659
-1.14386
-1.99876
-2.31843
-2.05684
-1.2532
0.289537
2.46238
5.19239
8.23372
0.00740316
0.0179371
0.0319611
0.0455508
0.0586633
0.0713084
0.0832414
0.0950835
0.106543
0.117894
0.128919
0.140294
0.151983
0.164691
0.178575
0.194768
0.21358
0.235995
0.262042
0.29322
0.329683
0.373995
0.425964
0.487888
0.558465
0.640942
0.733133
0.838084
0.952597
1.08056
1.21964
1.37322
1.53492
1.69367
1.81067
1.84089
1.71854
1.50825
1.41704
1.22635
1.09983
1.00982
0.854389
0.850922
0.768496
0.406099
-0.02297
-0.350396
-0.343898
-0.209344
0.126091
0.534059
1.49799
2.13985
1.77898
2.06353
2.38436
2.3969
2.21599
2.46736
2.46105
2.5622
2.74759
2.97342
3.10398
3.15242
3.07879
2.68998
1.69323
0.293411
-0.940456
-1.87882
-2.33342
-2.25214
-1.62621
-0.193783
1.91098
4.60309
7.56682
0.00766696
0.018388
0.0326356
0.0464502
0.0598407
0.0728114
0.0850524
0.0971671
0.108937
0.120642
0.132111
0.144014
0.156278
0.169594
0.184182
0.201185
0.220909
0.244357
0.271593
0.30419
0.342386
0.388798
0.443312
0.508329
0.582656
0.669613
0.767089
0.878204
0.99978
1.13579
1.28381
1.44711
1.61851
1.78481
1.90352
1.92502
1.78608
1.5672
1.43953
1.24694
1.14001
1.0391
0.885814
0.897006
0.830247
0.451998
-0.0400499
-0.389636
-0.46176
-0.354956
-0.0482636
0.326646
1.23615
1.88695
1.64172
1.99912
2.44401
2.44703
2.20775
2.49928
2.48859
2.56724
2.77712
3.0226
3.15026
3.21153
3.15107
2.83313
1.89643
0.545166
-0.740921
-1.76235
-2.3492
-2.45282
-2.00496
-0.67368
1.37089
4.03146
6.8501
0.00794331
0.0188573
0.0333086
0.0473362
0.0609909
0.0742786
0.0868359
0.099237
0.111314
0.123381
0.135295
0.147722
0.160569
0.17451
0.189826
0.207667
0.22833
0.252847
0.28132
0.315395
0.355399
0.404001
0.461158
0.529392
0.607605
0.699209
0.802163
0.919673
1.04859
1.19293
1.35022
1.5234
1.70442
1.87779
1.99724
2.00826
1.85014
1.62873
1.45873
1.27129
1.18308
1.065
0.917314
0.945153
0.883115
0.484526
-0.0697677
-0.437107
-0.589425
-0.503645
-0.244874
0.0968983
0.945508
1.60142
1.4668
1.91316
2.51311
2.50762
2.20792
2.52446
2.50871
2.56935
2.80131
3.05538
3.19986
3.26656
3.23616
2.98148
2.0849
0.782813
-0.543975
-1.63559
-2.35337
-2.64927
-2.38153
-1.14712
0.841844
3.4576
6.19889
0.00821478
0.0193248
0.0339626
0.0481922
0.0620945
0.0756799
0.0885514
0.101248
0.113633
0.126066
0.138427
0.151374
0.1648
0.17938
0.195437
0.214129
0.235747
0.261348
0.291093
0.326682
0.368552
0.419417
0.479325
0.550915
0.633203
0.729689
0.838426
0.962695
1.09936
1.25249
1.41941
1.6027
1.79325
1.97334
2.09302
2.09226
1.91299
1.69161
1.47708
1.29604
1.22437
1.08994
0.95016
0.996987
0.92241
0.499684
-0.101897
-0.490802
-0.718363
-0.655553
-0.459632
-0.145769
0.635246
1.29636
1.25706
1.8204
2.59979
2.57982
2.22844
2.54556
2.52004
2.57876
2.83064
3.08548
3.24502
3.32066
3.33318
3.11988
2.23932
0.985201
-0.359682
-1.49386
-2.3362
-2.83227
-2.74764
-1.60615
0.33672
2.91486
5.64815
0.00848721
0.0198024
0.0346096
0.0490369
0.0631712
0.0770409
0.0902234
0.103233
0.115935
0.128737
0.141547
0.155014
0.169022
0.184259
0.201074
0.220643
0.243244
0.269966
0.301036
0.338206
0.382025
0.435256
0.498039
0.573137
0.659673
0.761251
0.876002
1.0073
1.15202
1.31421
1.49096
1.68432
1.88406
2.07014
2.18859
2.17501
1.97745
1.75023
1.49352
1.3305
1.26371
1.10839
0.983911
1.05075
0.943418
0.508265
-0.131978
-0.549562
-0.846333
-0.819505
-0.69246
-0.403268
0.303226
0.960649
1.00002
1.72721
2.71157
2.6708
2.26839
2.55884
2.51962
2.58502
2.85443
3.11298
3.28169
3.38116
3.4273
3.24529
2.39056
1.18285
-0.156797
-1.31251
-2.28399
-2.99917
-3.1055
-2.05084
-0.146376
2.40054
5.02683
0.00874307
0.0202666
0.0352313
0.0498463
0.0641926
0.0783253
0.0918096
0.105144
0.118173
0.131342
0.144612
0.158601
0.173188
0.189086
0.206674
0.227133
0.250732
0.278587
0.311015
0.349812
0.395644
0.451328
0.517116
0.595893
0.686908
0.79386
0.914987
1.05373
1.20694
1.37861
1.56546
1.7689
1.9775
2.16904
2.28524
2.25835
2.04453
1.79454
1.50922
1.37656
1.30059
1.11369
1.01093
1.09559
0.945215
0.511917
-0.158769
-0.611265
-0.969097
-0.994149
-0.933242
-0.671771
-0.0402457
0.597558
0.697307
1.64067
2.86102
2.78986
2.33369
2.57696
2.51581
2.58975
2.86995
3.13336
3.31768
3.44349
3.51229
3.38426
2.5704
1.39561
0.0801016
-1.07809
-2.18273
-3.14287
-3.45039
-2.46978
-0.598184
1.90747
4.47887
0.00898867
0.0207276
0.035844
0.0506326
0.0651763
0.0795599
0.0933425
0.107013
0.120381
0.133927
0.147661
0.162177
0.177346
0.193915
0.212294
0.233665
0.258288
0.287313
0.321151
0.361656
0.409596
0.467856
0.5368
0.619449
0.71516
0.827749
0.95553
1.10202
1.26401
1.44536
1.64233
1.85554
2.07239
2.26846
2.38033
2.33788
2.11306
1.82955
1.52448
1.42652
1.33302
1.11738
1.03292
1.12926
0.941253
0.514394
-0.183013
-0.673948
-1.08863
-1.17834
-1.18121
-0.956344
-0.394812
0.201783
0.350677
1.55163
3.05004
2.93543
2.41894
2.59899
2.50872
2.59212
2.87839
3.14198
3.3581
3.49393
3.60592
3.54633
2.78263
1.63319
0.366396
-0.781207
-2.03283
-3.27218
-3.79023
-2.86883
-1.02903
1.44286
4.05248
0.00920365
0.0211547
0.0364226
0.0513646
0.066092
0.0807078
0.0947819
0.108788
0.122509
0.136444
0.15065
0.165703
0.181457
0.198699
0.21788
0.240171
0.265827
0.296036
0.331314