/*--------------------------------*- C++ -*----------------------------------*\
| =========                 |                                                 |
| \\      /  F ield         | OpenFOAM: The Open Source CFD Toolbox           |
|  \\    /   O peration     | Version:  4.1                                   |
|   \\  /    A nd           | Web:      www.OpenFOAM.org                      |
|    \\/     M anipulation  |                                                 |
\*---------------------------------------------------------------------------*/
FoamFile
{
    version     2.0;
    format      ascii;
    class       surfaceScalarField;
    location    "13";
    object      phi;
}
// * * * * * * * * * * * * * * * * * * * * * * * * * * * * * * * * * * * * * //

dimensions      [0 3 -1 0 0 0 0];

internalField   nonuniform List<scalar> 
13220
(
-949.875
2249.78
-1573.95
1924.27
-2053.99
1779.94
-2424.22
1670.13
-2699.83
1575.82
-2888.35
1488.42
-2993.02
1404.58
-3013.82
1321
-2949.57
1235.66
-2797.19
1147.52
-2551.12
1054.13
-2192.96
941.737
-1687.12
794.067
-1012.63
625.709
287.268
373.361
1876.44
442.756
1854.87
437.338
1785.4
406.714
1700.74
380.627
1601.95
359.927
1509.11
345.346
1419.2
337.57
1328.77
333.538
1239.73
327
1154.06
309.667
1071.49
267.525
983.902
191.485
870.144
111.484
705.745
398.752
33.6432
1842.83
-97.3468
1985.86
-253.521
1941.62
-371.032
1818.25
-473.041
1704.02
-567.392
1603.46
-651.562
1503.42
-725.611
1402.82
-787.851
1302.01
-837.074
1203.3
-867.981
1102.43
-855.877
971.824
-740.213
754.522
-434.273
399.851
-35.5195
28.9065
1813.96
-100.552
2115.29
-225.39
2066.53
-304.352
1897.19
-367.94
1767.68
-416.767
1652.26
-445.974
1532.7
-456.792
1413.62
-451.58
1296.86
-429.893
1181.62
-386.959
1059.54
-311.657
896.551
-192.725
635.661
-48.3562
255.556
-83.8748
169.87
1644.13
146.391
2138.73
124.02
2088.97
123.095
1898.07
127.264
1763.61
136.072
1643.41
149.451
1519.42
166.884
1396.16
187.286
1276.54
208.445
1160.48
229.429
1038.59
244.107
881.936
233.273
646.585
155.477
333.442
71.6019
223.694
1420.48
244.905
2117.44
235.54
2098.45
236.686
1896.83
241.168
1759.25
245.007
1639.47
247.363
1517.2
245.96
1397.48
241.936
1280.67
234.685
1167.69
222.094
1051.26
199.716
904.276
156.557
689.745
78.5048
411.497
150.107
204.845
1215.7
240.468
2081.7
215.74
2123.28
193.254
1919.21
179.145
1773.48
165.607
1652.92
151.914
1530.98
137.643
1411.7
122.772
1295.59
108.492
1181.97
94.2438
1065.52
76.9909
921.593
52.9252
713.904
19.5027
445.007
169.61
175.255
1040.52
227.154
2029.56
204.825
2145.83
175.151
1948.66
156.884
1791.96
142.236
1667.38
127.382
1546.01
112.856
1426.08
99.7652
1308.81
86.962
1194.72
75.0905
1077.5
61.6381
935.006
42.4404
733.119
16.7047
470.76
186.315
152.921
887.733
221.618
1960.62
209.043
2158.6
180.939
1976.54
163.103
1810.03
149.819
1680.46
137.227
1558.79
123.419
1439.74
110.487
1321.92
97.8645
1207.28
84.6809
1090.77
69.5807
950.119
49.0384
753.699
21.6654
498.172
207.981
129.963
757.959
208.109
1881.95
204.963
2162.21
176.645
2004.36
158.294
1828.84
143.579
1694.7
130.361
1572.41
116.481
1453.24
102.707
1335.95
89.0312
1220.79
75.9577
1104.05
60.5709
965.42
41.0318
773.306
17.0031
522.267
224.985
106.515
651.758
187.533
1800.02
194.347
2155.99
168.306
2029.62
150.473
1847.32
137.341
1707.17
124.82
1585.49
111.108
1466.51
98.255
1349.18
84.1807
1234.69
70.6768
1117.79
55.8815
980.102
37.3805
791.856
15.7098
543.997
240.7
92.8211
559.643
173.559
1717.71
188.768
2142.18
161.901
2055.2
138.177
1872.41
120.169
1724.09
107.706
1599.09
93.5672
1479.9
82.1676
1361.48
70.6974
1246.03
59.6677
1129.4
47.2045
992.964
30.5119
809.139
10.1001
564.871
250.747
91.3339
470.966
215.321
1593.34
257.959
2101.68
252.701
2060.23
251.057
1875.6
250.192
1724.96
245.084
1604.9
234.303
1491.34
217.435
1378.23
196.931
1265.9
173.992
1152.1
141.622
1020.55
101.249
843.889
50.8462
609.957
301.575
145.515
329.97
245.699
1490.21
278.726
2072.03
220.786
2115.47
152.832
1946.42
101.404
1773.25
80.4722
1627.79
69.2284
1498.49
70.8277
1376.8
73.8288
1261.1
76.8253
1147.4
76.8319
1022.42
56.3472
862.653
22.4338
641.573
323.644
-221.06
232.425
804.185
1241.51
1447.56
1543.44
1513.1
1447.16
1310.93
1166.49
991.521
791.905
564.472
287.195
-0.153542
922.43
-923.194
922.252
921.576
921.689
1756.99
-835.633
1757.18
1756.95
1757.24
2426.28
-668.927
2426.59
2426.63
2936.7
-509.888
2936.75
2936.92
2936.89
3283.19
-346.192
3283.13
3283.23
3491.25
-208.063
3491.33
3491.31
3491.39
3545.4
-54.0167
3545.49
3545.45
3545.53
3480.18
65.484
3480.33
3480.38
3327.38
153.049
3327.42
3327.39
3327.39
3089.37
237.923
3089.25
3089.15
2798.93
290.011
2798.76
2798.36
2798.28
2463.74
334.084
2463.48
2463.01
2462.87
2138.46
324.173
2138.19
2137.92
1876.88
260.703
1876.29
1875.83
1875.24
1546.04
328.773
1545
1544.21
1543.3
1098.42
444.04
1096.62
1096.02
540.633
553.333
538.27
535.29
534.562
-55.874
586.49
-61.7685
-66.0004
-1101.77
1036.44
-1104.3
-1104.9
-1107.01
-2692.22
1585.79
-2694.59
-2694.56
-2697.82
-4653.59
1957.4
-4657.63
-4653.54
-6869.47
2212.9
-6864.98
-6867.99
-6754.37
-6636.63
-6509.7
-8783.04
2393.25
-8663.53
-8516.96
-8342.79
-8167.48
-7989.98
-7818.2
-7639.3
-7441.61
-9769.63
2525.3
-9557.86
-9350.95
-9146.45
-8919.16
-8689.45
-8457.6
-8225.6
-7997.14
-10322.2
2558.61
-10072.4
-9822.18
-9572.03
-9323.09
-9068.9
-8803.06
-8534.76
-8264.39
-7998.31
-10221.4
2479.29
-9940.59
-9657.59
-9374.35
-9091.7
-8811.96
-8516.94
-8214.25
-7915.08
-9866.79
2237.08
-9574.92
-9278.36
-8968.55
-8659.07
-8348.11
-8038.34
-7728.28
-7405.39
-8942.58
1850.09
-8627.09
-8313.22
-8001.36
-7676.45
-7346.24
-7016.28
-6687.92
-6369.87
-7340.14
1287.41
-7019.84
-6702.9
-6388.17
-6076.77
-5769.49
-5478.79
-5190.11
-4909.26
-4638.44
-4825.14
460.132
-4602.2
-4403.96
-4210.93
-4019.36
-3821.28
-3655.67
-3557.29
-3467.51
-3492.71
130.719
-3404.75
-3306.14
-3306.91
-3464.86
161.937
-3564.13
95.4432
-3563.08
-3668.18
100.87
-3667.27
-3779.06
107.793
-3832.33
55.3559
-3836.2
-3904.22
68.848
-3919.88
11.3436
-3920.6
-3930.77
5.88279
-3931.6
-3945.72
9.07419
-3898.58
-47.2833
-3902.67
-3849.99
-53.2705
-3854.73
-3811.45
-46.9847
-3725.2
-91.2783
-3728.88
-3658.91
-75.6783
-3544.95
-117.851
-3549.45
-3432.49
-120.907
-3436.76
-3331.87
-110.68
-3189.83
-146.27
-3194.5
-3045.18
-152.96
-3049.85
-2909.52
-145.101
-2745.57
-169.011
-2748.48
-2596.46
-157.533
-2418.54
-181.364
-2422.41
-2235.32
-190.104
-2240.86
-2061.57
-183.72
-1868.54
-200.588
-1872.62
-1664.09
-216.452
-1667.75
-1457.73
-219.35
-1234.01
-227.339
-1242.43
-1012.58
-235.827
-773.526
-254.63
-777.83
-504.58
-291.751
-508.326
-220.7
-308.397
63.1339
-285.693
45.8162
347.661
-301.003
326.511
635.267
-304.771
847.632
-238.784
863.068
1074.16
-223.345
1310.53
-220.011
1308.76
1553.57
-228.249
1551.17
1809.69
-242.175
2044.63
-236.713
2057.3
2317.84
-258.599
2330.37
2607.27
-269.568
2905.37
-288.049
2912.26
3211.09
-291.553
3543.05
-325.566
3546.08
3895.06
-346.539
3895.71
-384.643
-157.052
174.06
-155.154
180.177
-153.554
163.57
-152.057
151.477
-150.13
141.417
-147.655
126.105
-145.277
105.684
-143.291
81.3207
-141.821
56.8741
-140.487
36.9697
-138.892
19.5056
-137.386
-4.98378
-136.522
-29.3375
-136.172
-48.7193
-135.987
-60.4686
-135.938
-68.8381
-136.417
-73.8996
-137.356
-69.196
-138.347
-55.3321
-139.13
-37.4611
-139.797
-15.711
-140.489
9.96358
-141.414
42.016
-142.467
79.7999
-143.691
125.526
-145.038
177.9
-146.58
240.105
-148.273
311.251
-150.113
394.407
-152.064
488.811
-154.214
597.054
-156.848
718.315
-160.609
855.544
-166.433
1007.64
-175.378
1178.34
-188.027
1360.45
-204.04
1537.57
-219.28
1655.44
-220.183
1618.28
-186.566
1299.19
-125.112
740.352
-86.6232
415.382
-79.7089
496.229
-66.9545
588.455
-49.6324
619.753
-14.3159
604.341
-11.1471
-53.5915
-39.8935
-556.832
-83.4135
-1259.86
-103.832
-1677.77
-80.1885
-1670.33
5.15877
-1037.18
27.0053
165.218
9.76987
1369.2
37.1909
4274.24
53.3575
7494.19
45.4459
6021.66
36.1536
3325.63
-0.0516675
-782.119
-60.1493
-1474.94
-76.8096
-707.912
-55.5652
283.419
-43.6954
737.366
-51.1827
249.701
-71.7933
562.145
-82.8552
1226.78
-100.95
1558.13
-120.026
1913.72
-47.1295
2394.06
-32.369
2147.53
-41.3699
1917.97
60.0617
1852.11
135.619
1501.19
36.5349
1177.18
146.275
810.227
428.607
-1051.92
593.757
-2562.38
575.182
-3484.74
-3908.32
-159.443
173.48
-156.388
177.203
-154.563
161.815
-152.96
149.931
-150.332
138.802
-147.235
123.013
-144.306
102.668
-142.017
78.9378
-140.617
55.2141
-139.049
35.1359
-136.496
16.5661
-134.503
-7.36836
-133.772
-30.6864
-133.928
-49.195
-134.228
-60.9718
-134.812
-69.0672
-136.51
-73.2439
-138.442
-68.3689
-139.79
-55.3774
-140.533
-38.1994
-141.24
-17.0673
-141.877
8.49893
-142.812
40.2361
-143.624
78.0236
-144.686
123.509
-145.737
176.165
-146.994
238.501
-148.423
310.119
-149.991
393.639
-151.907
488.654
-154.078
597.584
-157.186
720.046
-161.483
858.972
-168.299
1013.82
-178.393
1187.85
-192.032
1373.64
-208.606
1552.69
-221.713
1667.17
-215.223
1610.92
-172.44
1255.02
-110.18
677.032
-77.4761
380.638
-66.1807
483.029
-53.8585
574.108
-34.897
598.478
4.45602
561.874
-27.7554
-35.9633
-37.1971
-549.06
-79.2412
-1218.41
-106.087
-1651.49
-88.3463
-1688.29
-7.6495
-1118.58
2.45533
148.238
12.4769
1359.79
35.9797
4250.6
51.7216
7478.42
45.4427
6028.32
44.896
3325.75
3.93906
-737.268
-61.0567
-1409.79
-93.0602
-674.413
-82.7964
281.109
-47.1843
707.777
-57.1626
269.206
-85.5347
597.673
-91.4031
1238.27
-99.938
1571.42
-98.871
1916.82
-42.5241
2342.36
-13.0699
2122.83
-1.56405
1909.44
60.4501
1795.39
93.6093
1477.04
-26.6557
1305.53
183.832
604.537
476.86
-1342.08
590.217
-2672.49
527.561
-3417.66
-3721.83
-159.198
172.632
-156.372
174.396
-154.331
159.801
-152.419
148.075
-149.619
136.077
-146.558
120.071
-143.748
99.9755
-141.586
76.9746
-140.16
53.9708
-138.489
33.74
-136.172
14.5265
-134.62
-8.54275
-134.323
-30.5807
-134.801
-48.158
-135.466
-59.6639
-136.531
-67.2587
-138.558
-70.3493
-140.557
-65.302
-141.867
-52.9341
-142.567
-36.2607
-143.287
-15.3069
-143.871
10.2326
-144.701
41.7858
-145.317
79.4309
-146.217
124.641
-147.065
177.322
-148.151
239.534
-149.404
311.304
-150.863
394.855
-152.738
490.201
-155.013
599.521
-158.392
722.986
-163.19
863.442
-170.731
1021.06
-181.732
1198.53
-196.293
1388.15
-213.203
1569.01
-224.098
1677.58
-210.737
1597.25
-159.204
1202.5
-95.9517
612.975
-70.0535
352.977
-61.4596
473.031
-50.2039
561.816
-31.7596
579.141
11.224
518.371
0.522187
-26.5442
-30.8648
-516.67
-72.2187
-1176.36
-104.305
-1618.58
-92.614
-1700.18
-28.7317
-1183.63
4.74241
111.472
11.6553
1352.4
34.9775
4227.11
50.8242
7462.46
43.8407
6035.36
35.3884
3334.15
0.796029
-724.139
-61.3363
-1349.34
-98.206
-639.184
-91.7244
276.047
-52.0561
669.83
-59.353
279.374
-84.3298
624.482
-87.841
1243.61
-91.4584
1576.58
-86.5225
1913.26
-32.5114
2290.41
-0.935942
2093.7
13.8499
1896.31
44.8475
1766.4
11.8756
1512.68
-25.7335
1344.28
260.042
315.319
502.275
-1585.47
584.708
-2754.21
512.501
-3344.15
-3532.58
-158.591
171.407
-155.83
171.679
-153.629
157.669
-151.53
146.073
-148.752
133.394
-145.852
117.311
-143.233
97.4762
-141.19
75.1224
-139.757
52.6653
-138.175
32.3598
-136.33
12.8424
-135.323
-9.31217
-135.448
-30.3262
-136.228
-47.1891
-137.282
-58.5231
-138.739
-65.7008
-140.872
-68.298
-142.76
-63.5406
-144.004
-52.0318
-144.697
-35.857
-145.445
-15.1915
-145.965
10.3035
-146.689
41.6796
-147.14
79.289
-147.903
124.372
-148.581
177.171
-149.522
239.404
-150.627
311.4
-151.991
395.158
-153.829
490.963
-156.19
600.961
-159.805
725.701
-165.049
868.105
-173.227
1028.79
-185.014
1209.96
-200.323
1403.33
-217.237
1584.89
-225.474
1684.79
-205.376
1576.43
-146.936
1142.46
-84.7053
549.006
-64.555
329.703
-58.4642
464.312
-48.1364
548.981
-29.3575
557.99
18.1654
468.673
18.9925
-40.8306
-22.4844
-476.57
-65.0576
-1134.21
-101.491
-1582.57
-97.811
-1704.23
-46.7283
-1235.7
-0.124281
57.3684
10.7946
1341.71
33.9835
4203.56
49.8311
7446.49
42.3001
6043.14
28.7736
3346.78
-0.316225
-701.309
-61.3889
-1288.54
-99.3124
-600.555
-94.6113
277.965
-54.6172
635.321
-60.1897
293.744
-81.4352
652.717
-82.867
1250.99
-83.8579
1582.92
-76.7597
1911
-22.6808
2241.67
10.4444
2065.96
10.3356
1900.26
11.0577
1772.14
-21.2918
1553.53
-2.3065
1340.79
305.277
11.7573
521.674
-1798.13
578.026
-2805.36
487.504
-3246.35
-3326.15
-157.834
169.851
-155.039
168.896
-152.795
155.451
-150.647
143.987
-148
130.842
-145.273
114.735
-142.837
95.2039
-140.923
73.4728
-139.585
51.5906
-138.26
31.4059
-136.953
11.9201
-136.435
-9.33218
-136.912
-29.3281
-137.972
-45.4535
-139.361
-56.3933
-141.067
-63.1565
-143.174
-65.2559
-144.932
-60.6575
-146.149
-49.6132
-146.877
-33.7568
-147.641
-13.1792
-148.095
12.2308
-148.721
43.4626
-149.044
80.9472
-149.689
125.874
-150.217
178.661
-151.024
240.809
-151.987
312.908
-153.262
396.733
-155.061
492.901
-157.506
603.431
-161.343
729.377
-167.015
873.631
-175.781
1037.39
-188.285
1222.27
-204.19
1419.35
-220.732
1601.11
-225.788
1689.61
-199.02
1549.49
-134.992
1077.42
-75.1828
488.38
-60.2962
313.19
-56.2547
459.238
-46.0651
538.32
-26.7988
538.681
25.1628
417.481
26.0493
-38.1982
-12.7911
-436.308
-55.5721
-1090.6
-96.6612
-1540.67
-101.714
-1699.29
-57.1661
-1281.03
0.28093
-0.350414
9.82934
1331.44
32.7856
4180.38
48.8359
7430.29
40.7437
6051.2
27.0097
3359.99
-4.1966
-701.427
-61.5733
-1233
-99.0519
-564.597
-94.9507
273.439
-56.4866
597.342
-60.676
298.928
-77.9683
670.32
-77.5083
1251.24
-76.1734
1582.13
-66.7119
1901.97
-12.5125
2188.7
17.0716
2038.07
7.85729
1910.65
-1.11143
1781.69
-95.3252
1649.43
-35.6233
1281.59
342.925
-369.312
539.996
-1996.17
572.265
-2836.82
471.147
-3143.86
-3141.14
-156.924
168.242
-154.178
166.192
-151.997
153.36
-149.877
142.006
-147.377
128.497
-144.821
112.403
-142.585
93.2015
-140.863
72.0886
-139.737
50.7804
-138.757
30.8473
-137.955
11.5254
-137.853
-8.92521
-138.645
-28.1015
-139.964
-43.6243
-141.606
-54.3297
-143.428
-60.8979
-145.452
-62.9646
-147.109
-58.7675
-148.336
-48.3406
-149.103
-32.8536
-149.871
-12.5497
-150.263
12.725
-150.808
43.7954
-151.031
81.2203
-151.576
126.047
-151.97
178.855
-152.654
241.001
-153.488
313.239
-154.679
397.279
-156.446
493.918
-158.977
605.269
-163.034
732.672
-169.114
879.19
-178.434
1046.28
-191.589
1235.08
-207.937
1435.58
-223.764
1615.93
-225.215
1690.04
-191.907
1515.34
-123.303
1006.81
-66.888
429.623
-56.7867
299.813
-54.4388
454.554
-44.1573
526.179
-24.4757
517.742
27.436
366.102
23.3982
-39.4943
-3.35564
-410.039
-44.3527
-1049.83
-90.0469
-1495.32
-103.894
-1685.93
-64.0088
-1321.84
1.03474
-69.5796
8.54099
1323.58
31.4607
4156.94
47.8365
7413.74
39.1669
6060.04
26.8404
3371.46
-10.7152
-672.018
-61.8471
-1182
-98.2466
-527.832
-94.2898
274.212
-58.0138
565.569
-60.9282
308.971
-74.3064
689.31
-71.8349
1253.83
-67.8185
1582.7
-55.4645
1893.79
-3.54627
2141.62
23.6098
2015.61
-0.60399
1938.34
-49.675
1836.71
-154.384
1762.63
18.2537
1121.54
392.83
-739.608
557.831
-2156.43
566.585
-2838.64
454.585
-3022.37
-2942.22
-155.904
166.752
-153.336
163.633
-151.272
151.314
-149.207
139.986
-146.851
126.22
-144.491
110.169
-142.506
91.3506
-141.049
70.8594
-140.204
50.148
-139.584
30.5362
-139.232
11.4866
-139.504
-8.23709
-140.59
-26.6076
-142.135
-41.5353
-143.938
-51.9464
-145.794
-58.3672
-147.736
-60.283
-149.337
-56.2438
-150.591
-46.0934
-151.393
-30.8683
-152.153
-10.7274
-152.496
14.3943
-152.979
45.3306
-153.121
82.6484
-153.577
127.368
-153.849
180.147
-154.416
242.266
-155.128
314.63
-156.24
398.839
-157.979
495.959
-160.596
608.055
-164.867
736.919
-171.338
885.618
-181.177
1056.03
-194.924
1248.71
-211.566
1452.42
-226.32
1630.49
-223.789
1687.4
-184.121
1475.58
-111.872
933.572
-59.6823
376.885
-53.7604
292.766
-52.4534
452.781
-42.092
515.943
-22.0913
498.472
28.1633
317.845
18.0631
-20.1842
5.84712
-396.011
-31.7817
-1011.32
-81.3182
-1445.08
-104.211
-1663.03
-70.2726
-1356.05
-0.407638
-138.421
6.82366
1315.72
30.0968
4133.47
46.7573
7396.93
37.6258
6069.11
26.5101
3381.93
-16.1474
-650.726
-62.1447
-1137.83
-96.6532
-494.709
-92.7774
268.682
-59.0424
531.279
-60.6587
310.035
-70.2554
697.87
-65.5879
1248.74
-58.8395
1575.39
-43.9108
1878.2
4.96826
2092.95
21.4188
1999.88
-28.6082
1988.55
-87.0615
1894.43
-93.0689
1769.92
156.443
866.923
441.905
-1027.61
572.326
-2288.12
561.248
-2827.41
437.638
-2898.35
-2763.1
-154.85
165.509
-152.537
161.377
-150.598
149.493
-148.602
138.162
-146.414
124.225
-144.299
108.321
-142.615
89.9499
-141.465
70.1021
-140.926
49.9873
-140.656
30.7526
-140.711
12.0146
-141.327
-7.05174
-142.678
-24.7638
-144.394
-39.2563
-146.286
-49.5837
-148.14
-56.028
-150.031
-58.0663
-151.621
-54.3394
-152.917
-44.6483
-153.745
-29.7774
-154.501
-9.94977
-154.812
14.9895
-155.251
45.7705
-155.325
82.9977
-155.698
127.609
-155.859
180.347
-156.316
242.462
-156.914
314.942
-157.952
399.424
-159.67
497.094
-162.372
610.204
-166.852
740.745
-173.689
892.009
-184.011
1065.98
-198.271
1262.66
-215.012
1469.1
-228.34
1642.85
-221.512
1679.55
-175.718
1428.88
-100.825
856.303
-53.6792
327.076
-51.2754
287.603
-50.4548
450.4
-40.056
504.803
-20.2928
478.898
16.3754
284.358
12.2342
-8.79791
15.6987
-399.047
-17.9126
-977.762
-70.4351
-1392.85
-102.511
-1631.49
-76.2123
-1383.15
-3.68592
-212.654
4.79548
1306.42
28.7195
4108.94
45.5664
7379.88
36.1524
6078.65
24.8859
3392.65
-19.0402
-612.057
-62.3652
-1094.66
-95.1472
-461.715
-91.1293
267.885
-59.8056
503.59
-60.1924
316.115
-66.1048
708.107
-58.9328
1245.59
-49.1859
1569.21
-31.8455
1864.01
11.618
2053.35
8.29471
2006.84
-49.0549
2048.99
-74.6539
1924.61
-41.7921
1748
224.906
606.752
477.219
-1275.78
583.488
-2389.22
556.2
-2792.37
430.648
-2762.55
-2555.15
-153.807
164.481
-151.766
159.341
-149.948
147.68
-148.057
136.294
-146.08
122.298
-144.257
106.583
-142.906
88.6805
-142.08
69.4356
-141.851
49.8827
-141.922
31.0265
-142.355
12.6416
-143.287
-5.84
-144.858
-22.949
-146.692
-37.0586
-148.631
-47.2691
-150.487
-53.7009
-152.369
-55.6678
-153.98
-52.0298
-155.319
-42.5472
-156.173
-27.9591
-156.934
-8.34611
-157.231
16.4147
-157.64
47.06
-157.657
84.1675
-157.952
128.682
-158.011
181.385
-158.362
243.513
-158.852
316.158
-159.82
400.912
-161.518
499.196
-164.304
613.266
-168.983
745.516
-176.164
899.252
-186.927
1076.75
-201.616
1277.32
-218.257
1486.02
-229.787
1654.32
-218.383
1668.18
-166.783
1377.28
-90.2457
778.799
-48.5995
285.354
-48.94
287.507
-48.377
449.918
-37.8033
494.803
-18.7991
461.091
4.1568
264.091
14.0709
-7.15499
25.9276
-408.854
-3.14436
-947.818
-57.4833
-1337.89
-98.592
-1590.21
-81.3623
-1400.23
-7.99936
-284.51
2.49877
1295.55
27.3537
4083.96
44.3222
7362.77
34.7284
6088.18
23.2289
3403.51
-21.3839
-582.687
-62.565
-1055.3
-93.4569
-432.217
-89.2125
261.257
-60.1938
473.251
-59.2052
313.504
-61.5447
708.443
-51.8877
1234.62
-38.9505
1554.76
-19.2071
1842.61
12.5031
2020.92
-2.48554
2021.86
-42.5532
2088.4
-66.7947
1947.73
-22.5481
1705.02
276.112
303.243
509.099
-1511.48
593.557
-2475.57
552.307
-2752.17
423.592
-2635.26
-2377.37
-152.814
163.648
-151.029
157.626
-149.34
146.133
-147.601
134.75
-145.879
120.792
-144.378
105.367
-143.37
87.9698
-142.869
69.3365
-142.951
50.3487
-143.352
31.9088
-144.129
13.8753
-145.331
-4.09747
-147.073
-20.7536
-148.984
-34.6337
-150.96
-44.8789
-152.842
-51.3894
-154.754
-53.4776
-156.407
-50.0901
-157.794
-41.0171
-158.681
-26.7954
-159.462
-7.50266
-159.761
17.0595
-160.149
47.5371
-160.116
84.5136
-160.337
128.895
-160.3
181.521
-160.55
243.64
-160.941
316.402
-161.843
401.492
-163.528
500.427
-166.394
615.698
-171.263
749.84
-178.76
906.397
-189.917
1087.62
-204.927
1292.11
-221.23
1502.36
-230.618
1662.82
-214.447
1651.05
-157.419
1319.32
-80.2977
698.906
-44.4591
246.878
-46.7516
287.812
-46.3084
448.763
-35.4747
484.297
-18.4048
445.43
-14.3911
264.83
17.0212
-26.8664
36.1592
-426.845
12.1662
-923.77
-42.6061
-1283.42
-92.2695
-1541.13
-85.4426
-1407.8
-13.0718
-357.116
0.0477378
1281.29
25.9956
4057.34
43.0821
7345.46
33.344
6098.02
21.4742
3415.01
-23.2685
-542.386
-62.6396
-1016.16
-92.0364
-402.621
-87.4871
258.999
-60.5036
449.359
-58.0878
315.863
-56.9006
710.748
-44.5423
1225.52
-28.8105
1541.75
-8.34345
1824.39
13.999
2001.52
-2.67732
2041.54
-49.3843
2138.19
-111.766
2014.12
-37.5315
1647.49
325.543
-54.0256
539.54
-1721.25
603.054
-2533.73
549.819
-2690.93
415.727
-2490.93
-2176.87
-151.899
162.904
-150.346
156.068
-148.809
144.58
-147.27
133.196
-145.835
119.362
-144.668
104.226
-144
87.3119
-143.822
69.2298
-144.212
50.7561
-144.925
32.7015
-146.002
15.0095
-147.427
-2.53998
-149.298
-18.8101
-151.272
-32.4775
-153.298
-42.6755
-155.239
-49.1734
-157.208
-51.2058
-158.916
-47.9024
-160.355
-39.0446
-161.286
-25.1251
-162.101
-6.07531
-162.415
18.2822
-162.788
48.5919
-162.712
85.4192
-162.862
129.692
-162.736
182.283
-162.889
244.445
-163.184
317.416
-164.023
402.875
-165.694
502.56
-168.639
618.986
-173.682
755.062
-181.467
914.327
-192.965
1099.21
-208.182
1307.39
-223.913
1518.46
-230.816
1669.78
-209.732
1630.1
-147.728
1257.39
-71.0282
621.32
-41.0752
217.461
-44.6768
291.443
-44.1528
448.556
-32.921
473.693
-18.9255
432.546
-25.8013
273.791
18.9795
-65.768
45.9416
-452.034
27.5674
-904.581
-26.0826
-1229.22
-83.4273
-1483.48
-88.0835
-1402.68
-18.8235
-425.082
-2.47307
1264.93
24.6576
4030.16
41.8998
7328.1
32.0008
6107.88
19.6138
3426.74
-25.4219
-508.608
-62.7067
-980.612
-90.4517
-376.318
-85.6932
251.615
-60.4818
422.384
-56.4907
309.674
-51.9212
703.648
-36.6673
1208.44
-18.3431
1521.35
0.742378
1803.05
19.2085
1981.86
-11.7227
2072.09
-81.2632
2206.53
-141.927
2073.06
22.6878
1479.69
384.392
-421.047
569.157
-1909.11
612.198
-2579.5
548.848
-2630.06
414.564
-2360.19
-1989.04
-151.11
162.238
-149.772
154.797
-148.414
143.365
-147.108
132.079
-145.975
118.434
-145.142
103.656
-144.805
87.2422
-144.939
69.7247
-145.621
51.773
-146.613
34.1127
-147.939
16.7197
-149.541
-0.483167
-151.516
-16.4752
-153.555
-30.0248
-155.655
-40.2635
-157.681
-46.8189
-159.729
-48.9699
-161.503
-45.9167
-163.006
-37.4574
-163.995
-23.9027
-164.856
-5.1739
-165.194
18.9575
-165.557
49.0629
-165.441
85.719
-165.526
129.832
-165.313
182.324
-165.374
244.478
-165.578
317.584
-166.359
403.447
-168.021
503.89
-171.036
621.689
-176.241
759.843
-184.28
922.131
-196.058
1110.81
-211.345
1322.57
-226.235
1533.52
-230.35
1673.15
-204.295
1603.22
-137.831
1190.05
-62.645
543.035
-38.5205
191.126
-43.1001
294.866
-42.16
447.577
-30.4855
462.98
-20.1325
424.169
-29.1778
287.749
21.6819
-108.134
55.3053
-484.203
42.6374
-891.832
-8.34268
-1178.6
-72.0228
-1420.34
-89.0017
-1386.39
-25.0199
-488.424
-4.92761
1243.67
23.3328
4001.25
40.7961
7310.41
30.707
6118.06
17.7741
3439.43
-27.5908
-467.243
-62.7353
-945.872
-89.1712
-349.691
-84.1653
248.281
-60.3984
401.255
-54.8756
308.238
-46.9785
698.589
-28.8674
1192.94
-8.02892
1502.51
10.7156
1785.75
18.9841
1975.71
-30.6661
2124.31
-87.36
2265.97
-74.9666
2064.42
158.844
1254.92
443.014
-700.158
595.517
-2057.68
620.342
-2599.41
548.989
-2551.4
416.321
-2218.32
-1782.97
-150.499
161.573
-149.363
153.639
-148.204
142.16
-147.152
130.968
-146.323
117.559
-145.814
103.11
-145.79
87.1567
-146.216
70.1364
-147.163
52.6381
-148.393
35.3113
-149.922
18.1871
-151.669
1.27004
-153.741
-14.469
-155.864
-27.8627
-158.064
-38.037
-160.195
-44.559
-162.337
-46.6857
-164.187
-43.7496
-165.762
-35.5217
-166.821
-22.2779
-167.737
-3.82044
-168.105
20.0604
-168.462
49.9451
-168.313
86.4119
-168.335
130.394
-168.042
182.841
-168.013
245.057
-168.13
318.413
-168.855
404.73
-170.505
506.047
-173.585
625.165
-178.929
765.431
-187.186
930.595
-199.174
1122.95
-214.385
1337.89
-228.182
1547.75
-229.214
1674.32
-198.185
1572.41
-127.878
1119.87
-55.1851
469.496
-36.3441
173.502
-41.6798
300.552
-40.078
446.229
-28.0787
451.238
-20.9382
417.504
-26.2499
293.689
26.2645
-159.66
64.4287
-521.275
56.9944
-883.757
9.99858
-1131.14
-58.2335
-1351.67
-87.844
-1356.06
-31.58
-543.606
-7.27049
1219.82
22.0612
3971.99
39.8063
7292.57
29.4862
6128.35
15.7853
3452.49
-30.1374
-429.977
-62.8741
-914.794
-87.7029
-326.442
-82.5161
240.364
-60.0366
376.676
-53.0176
298.594
-41.8515
684.461
-20.8893
1169.7
1.51091
1477.55
20.0497
1764.53
14.6976
1979.6
-36.1906
2174.45
-61.2976
2289.38
-25.0743
2024.63
229.101
996.014
486.959
-963.738
617.94
-2192.42
627.794
-2613.15
549.906
-2477.82
419.821
-2094.26
-1612.75
-150.131
160.943
-149.187
152.752
-148.238
141.344
-147.445
130.347
-146.911
117.208
-146.705
103.137
-146.968
87.6514
-147.653
71.1385
-148.826
54.0951
-150.25
37.0954
-151.941
20.1973
-153.813
3.52448
-155.986
-12.0093
-158.212
-25.2997
-160.533
-35.4787
-162.785
-42.0504
-165.03
-44.3186
-166.967
-41.6557
-168.628
-33.8239
-169.766
-20.9474
-170.744
-2.82972
-171.147
20.7782
-171.503
50.4062
-171.324
86.6548
-171.288
130.443
-170.917
182.768
-170.802
244.974
-170.837
318.485
-171.508
405.27
-173.148
507.441
-176.281
628.078
-181.747
770.566
-190.179
938.881
-202.298
1134.97
-217.265
1352.84
-229.684
1560.45
-227.399
1671.41
-191.487
1535.79
-117.954
1045.51
-48.6112
396.712
-34.1975
157.355
-40.2604
306.044
-37.7234
443.987
-25.6498
440.21
-20.3386
414.074
-18.5903
295.988
32.8237
-206.565
73.7568
-560.955
70.5114
-880.524
28.2713
-1089.33
-42.3571
-1281.48
-84.448
-1314.62
-38.1857
-588.978
-9.45942
1190.14
20.8703
3941.09
38.9522
7274.28
28.3491
6139.05
13.7911
3466.91
-32.7835
-387.026
-63.0336
-885.123
-86.4169
-302.818
-80.9968
236.299
-59.7344
357.761
-51.2523
293.774
-36.712
672.308
-12.3799
1147.48
11.2337
1455.36
26.425
1750.18
14.0761
1993.53
-26.4927
2217.49
-41.4385
2306.45
4.1114
1983.31
283.216
723.282
526.121
-1202.06
638.056
-2300.83
634.681
-2605.55
550.991
-2387.94
422.727
-1958.39
-1483.54
-150.062
160.295
-149.296
151.947
-148.558
140.531
-148.017
129.705
-147.757
116.854
-147.824
103.11
-148.338
88.0394
-149.243
71.954
-150.599
55.2857
-152.179
38.5521
-154.006
21.868
-155.997
5.42298
-158.284
-9.89288
-160.634
-23.0188
-163.091
-33.1096
-165.471
-39.6529
-167.828
-41.9438
-169.862
-39.4357
-171.614
-31.856
-172.838
-19.3072
-173.882
-1.50486
-174.325
21.7937
-174.685
51.1404
-174.481
87.1511
-174.392
130.777
-173.948
183.04
-173.752
245.318
-173.707
319.115
-174.325
406.43
-175.948
509.582
-179.124
631.667
-184.683
776.401
-193.246
947.681
-205.404
1147.31
-219.95
1367.53
-230.733
1571.7
-224.915
1665.77
-184.25
1495.39
-108.111
969.522
-42.8811
330.683
-32.1357
148.412
-38.7921
313.072
-34.9227
440.123
-22.949
428.026
-17.8295
408.7
-7.81783
285.335
41.04
-256.833
83.4501
-602.985
83.3346
-879.934
45.9663
-1051.53
-24.7364
-1210.22
-78.5155
-1259.99
-44.7623
-621.931
-11.4491
1157.62
19.8165
3909.97
38.2728
7255.76
27.3256
6150
11.6528
3481.98
-35.8583
-345.954
-63.3373
-859.125
-84.819
-283.037
-79.2428
228.041
-59.2352
335.496
-49.2212
280.952
-31.5066
651.423
-3.96515
1117.49
21.337
1427.37
31.7787
1736.96
19.9218
2003.87
-11.2494
2247.62
-33.8452
2326.77
24.7042
1916.5
334.705
408.135
563.516
-1436.88
656.912
-2398.59
641.421
-2594.92
553.445
-2305.82
425.137
-1838.21
-1373.65
-150.358
159.68
-149.757
151.386
-149.217
140.103
-148.906
129.536
-148.887
116.981
-149.187
103.599
-149.907
88.9424
-150.987
73.2928
-152.485
57.0078
-154.189
40.5485
-156.135
24.0637
-158.245
7.84297
-160.658
-7.26336
-163.144
-20.2645
-165.746
-30.3351
-168.259
-36.9388
-170.734
-39.3979
-172.873
-37.1808
-174.726
-30.0005
-176.041
-17.8335
-177.154
-0.407624
-177.638
22.5617
-178.006
51.5935
-177.782
87.3336
-177.644
130.725
-177.132
182.84
-176.858
245.1
-176.737
319.073
-177.303
406.912
-178.908
511.002
-182.11
634.715
-187.738
781.768
-196.378
956.239
-208.472
1159.37
-222.401
1381.49
-231.271
1580.93
-221.769
1655.76
-176.554
1449.56
-98.377
890.566
-37.9649
266.515
-30.7043
139.901
-37.7167
319.902
-31.9652
434.674
-19.8724
416.646
-13.1622
403.254
4.41227
270.546
50.7438
-301.543
93.707
-645.187
95.6228
-882.034
62.7887
-1019.19
-5.75746
-1141.94
-69.9596
-1196.28
-50.9937
-639.988
-13.1228
1119.24
18.9217
3877.49
37.7852
7236.72
26.4191
6161.47
9.59971
3498.73
-39.0598
-300.469
-63.6249
-835.355
-83.3147
-263.169
-77.6392
223.52
-58.9769
318.91
-47.4565
272.738
-26.7394
632.677
3.6087
1088.77
30.0764
1401.79
39.1452
1728.25
28.5799
2015.65
-13.63
2292.18
-51.9346
2367.13
33.5346
1832.76
389.845
57.4555
599.888
-1643.08
674.464
-2470.5
647.616
-2565
556.813
-2210.41
429.979
-1706.41
-1224.18
-151.068
159.05
-150.609
150.87
-150.243
139.634
-150.13
129.283
-150.309
117.023
-150.797
103.942
-151.678
89.6433
-152.889
74.3505
-154.496
58.3801
-156.303
42.1587
-158.361
25.8903
-160.595
9.9076
-163.144
-4.96522
-165.774
-17.7829
-168.521
-27.758
-171.17
-34.3497
-173.765
-36.8702
-176.015
-34.8353
-177.97
-27.9279
-179.378
-16.1138
-180.561
0.948677
-181.092
23.5493
-181.472
52.2418
-181.235
87.6916
-181.055
130.881
-180.48
182.908
-180.132
245.238
-179.938
319.522
-180.45
407.946
-182.026
513.093
-185.239
638.343
-190.9
787.715
-199.56
965.139
-211.476
1171.46
-224.583
1394.73
-231.291
1588.09
-217.978
1642.61
-168.471
1400.3
-88.8927
811.083
-33.8524
210.568
-29.9345
138.274
-36.6801
326.835
-28.9201
426.353
-16.4644
403.055
-6.70723
392.235
16.6442
245.056
61.7228
-349.206
104.527
-688.34
107.467
-884.808
78.5265
-989.941
13.8524
-1076.69
-58.6998
-1122.86
-56.6942
-641.397
-14.4124
1078.02
18.2308
3845.07
37.5225
7217.39
25.6626
6173.36
7.54079
3516.31
-42.4118
-255.334
-64.0737
-814.995
-81.5452
-247.503
-75.858
215.153
-58.606
299.246
-45.4439
256.53
-21.8167
605.595
11.5833
1052.7
38.1389
1372.41
48.8068
1714.79
33.7841
2029.17
-17.4041
2342.05
-24.116
2370.9
145.648
1652.5
456.338
-259.048
634.834
-1828.12
690.661
-2531.55
653.585
-2534
560.474
-2125.02
436.311
-1593.03
-1120.32
-152.24
158.448
-151.895
150.551
-151.668
139.501
-151.708
129.439
-152.04
117.472
-152.668
104.722
-153.664
90.7857
-154.968
75.8717
-156.655
60.2484
-158.551
44.3016
-160.717
28.2611
-163.076
12.5309
-165.762
-2.10429
-168.535
-14.7782
-171.426
-24.7241
-174.209
-31.3888
-176.927
-34.0962
-179.289
-32.3651
-181.351
-25.8658
-182.854
-14.458
-184.108
2.18634
-184.687
24.4012
-185.084
52.7208
-184.839
87.8436
-184.62
130.749
-183.988
182.591
-183.572
244.886
-183.308
319.351
-183.764
408.331
-185.305
514.469