/*--------------------------------*- C++ -*----------------------------------*\
| =========                 |                                                 |
| \\      /  F ield         | OpenFOAM: The Open Source CFD Toolbox           |
|  \\    /   O peration     | Version:  4.1                                   |
|   \\  /    A nd           | Web:      www.OpenFOAM.org                      |
|    \\/     M anipulation  |                                                 |
\*---------------------------------------------------------------------------*/
FoamFile
{
    version     2.0;
    format      ascii;
    class       volVectorField;
    location    "13";
    object      U;
}
// * * * * * * * * * * * * * * * * * * * * * * * * * * * * * * * * * * * * * //

dimensions      [0 1 -1 0 0 0 0];

internalField   nonuniform List<vector> 
6785
(
(1.83905e-14 0.852191 15.7946)
(8.98695e-15 -4.89459 12.1215)
(-3.34338e-15 -4.19552 12.1321)
(7.07709e-15 -3.60121 11.9966)
(8.66959e-16 -3.00471 11.8778)
(-1.83908e-16 -2.55323 11.6992)
(2.04644e-15 -2.20885 11.4769)
(3.34171e-16 -1.96608 11.2116)
(-8.82954e-16 -1.79861 10.916)
(1.25148e-15 -1.71244 10.5882)
(2.26622e-16 -1.83752 10.1561)
(-5.17396e-16 -2.28575 9.53763)
(5.24781e-16 -2.51312 8.9638)
(-4.31054e-16 -1.06562 8.91363)
(-2.40562e-16 1.76581 7.4711)
(1.39476e-14 -5.35018 22.493)
(1.56504e-14 -14.6049 21.394)
(-1.3125e-15 -13.2709 20.3412)
(1.89513e-15 -11.7698 19.5066)
(1.46965e-15 -11.1561 18.5044)
(-8.86275e-17 -10.6595 17.5174)
(1.43457e-15 -10.0902 16.5715)
(1.64199e-15 -9.52507 15.6236)
(-9.88167e-16 -8.96552 14.6639)
(1.2223e-15 -8.3674 13.6946)
(7.30697e-16 -7.75718 12.7179)
(-5.55499e-16 -7.30342 11.7194)
(1.82577e-15 -7.01706 10.6243)
(4.29243e-16 -5.73094 9.16107)
(-2.26425e-16 -2.30491 4.58347)
(1.85887e-14 -7.71569 23.98)
(1.70102e-14 -16.7731 24.6731)
(-7.11981e-17 -13.7367 23.9373)
(3.76549e-15 -12.3063 22.625)
(9.51907e-16 -11.6449 21.2414)
(5.48437e-16 -10.8143 20.0013)
(5.24857e-15 -9.94054 18.7738)
(1.36582e-15 -9.10043 17.5248)
(-4.71052e-16 -8.28374 16.2656)
(8.78681e-16 -7.47563 15.0264)
(4.97396e-16 -6.66803 13.8178)
(-1.06483e-16 -5.84215 12.4304)
(3.82668e-16 -4.81461 10.276)
(-1.77791e-17 -3.12711 6.68573)
(-1.18476e-16 -0.832592 1.69097)
(1.88988e-14 -8.50241 22.0454)
(1.55519e-14 -16.6214 24.3325)
(1.39338e-15 -12.9303 23.7972)
(4.28356e-15 -12.1539 21.9987)
(1.82542e-15 -11.4204 20.503)
(-1.0247e-16 -10.4941 19.1724)
(2.18093e-15 -9.63437 17.817)
(6.8857e-16 -8.82414 16.4593)
(9.19819e-16 -8.05422 15.1233)
(3.9145e-16 -7.32444 13.8169)
(-1.31005e-15 -6.55336 12.4402)
(1.2527e-15 -5.49235 10.5848)
(-4.43899e-16 -3.78749 7.51203)
(-1.77058e-15 -1.49588 2.77012)
(1.83977e-15 0.152186 -1.77246)
(1.72085e-14 -8.47554 19.7459)
(1.55259e-14 -16.3603 24.3126)
(1.21115e-15 -13.0999 23.6604)
(2.82116e-15 -12.6283 21.5368)
(2.98799e-17 -11.8571 20.025)
(-7.03695e-16 -10.9581 18.6641)
(2.34219e-15 -10.1705 17.2591)
(1.37569e-15 -9.40358 15.8716)
(2.30545e-16 -8.65344 14.5242)
(-1.28924e-16 -7.93145 13.2142)
(-1.90549e-15 -7.16706 11.8303)
(5.6605e-16 -6.11805 9.9986)
(-2.10634e-15 -4.42709 7.15992)
(-1.12348e-14 -2.30867 3.29336)
(-4.99351e-15 -0.789945 0.321458)
(1.7398e-14 -8.02003 17.5478)
(1.61626e-14 -16.0192 24.5275)
(4.41826e-15 -13.6458 24.0467)
(1.85818e-15 -12.9952 21.7656)
(5.2618e-16 -12.1277 20.2159)
(1.82417e-15 -11.2261 18.8474)
(1.96307e-15 -10.4405 17.4348)
(-1.03016e-15 -9.65056 16.0442)
(2.68897e-15 -8.86214 14.6943)
(-1.96249e-15 -8.09514 13.383)
(-9.79639e-16 -7.29951 12.019)
(-1.17907e-15 -6.28762 10.2852)
(-1.75884e-16 -4.73723 7.72652)
(-1.7918e-15 -2.76042 4.37882)
(3.05648e-16 -0.952478 1.30234)
(1.48548e-14 -7.33199 15.2382)
(1.9114e-14 -15.4891 24.3514)
(5.80248e-15 -14.0284 24.4231)
(2.459e-15 -13.1307 22.069)
(1.1879e-15 -12.1479 20.4405)
(2.16162e-15 -11.2391 19.0553)
(1.97881e-15 -10.4395 17.6449)
(1.33692e-15 -9.62351 16.2592)
(1.26084e-15 -8.81393 14.9085)
(1.3809e-15 -8.0311 13.5941)
(3.64688e-15 -7.22808 12.2399)
(5.48185e-15 -6.24539 10.5541)
(8.58448e-16 -4.79458 8.1164)
(-1.71077e-15 -2.92208 4.95859)
(3.31728e-15 -1.01664 1.80747)
(1.18642e-14 -6.54042 12.9926)
(1.78501e-14 -14.8391 23.7998)
(7.93668e-15 -14.2765 24.6711)
(2.81322e-15 -13.2453 22.3256)
(1.55972e-15 -12.1751 20.5836)
(2.41262e-15 -11.2732 19.1674)
(2.19523e-15 -10.4728 17.7604)
(2.07073e-15 -9.65129 16.3792)
(1.63462e-15 -8.84323 15.028)
(8.16546e-16 -8.06373 13.7115)
(3.44942e-16 -7.26399 12.3635)
(9.12447e-16 -6.29742 10.7093)
(7.5128e-17 -4.90384 8.34628)
(-1.0664e-15 -3.09811 5.28597)
(3.42333e-15 -1.13046 2.0589)
(1.02443e-14 -5.74028 11.0339)
(1.77513e-14 -14.1521 23.0421)
(9.65949e-15 -14.4664 24.8487)
(3.45877e-15 -13.4181 22.6281)
(1.59203e-15 -12.2723 20.7603)
(1.04959e-15 -11.3674 19.2996)
(2.66508e-15 -10.5661 17.8965)
(1.76941e-15 -9.74458 16.5185)
(6.2187e-16 -8.93857 15.1651)
(1.56438e-15 -8.1593 13.8454)
(5.36429e-16 -7.3596 12.4994)
(-3.21032e-15 -6.40232 10.8713)
(4.85202e-16 -5.05056 8.57861)
(-9.45332e-16 -3.29554 5.59993)
(-3.9939e-15 -1.25886 2.28639)
(8.20973e-15 -4.9944 9.39623)
(1.71119e-14 -13.4557 22.1656)
(8.92823e-15 -14.5752 24.9423)
(1.65896e-15 -13.5992 22.9612)
(1.66235e-15 -12.3828 20.9773)
(8.55785e-16 -11.4571 19.4593)
(3.78473e-15 -10.6495 18.057)
(1.51952e-15 -9.82784 16.6821)
(2.68049e-15 -9.02166 15.327)
(2.52314e-15 -8.23972 14.004)
(3.10888e-16 -7.43968 12.658)
(1.42805e-15 -6.49081 11.048)
(-1.20528e-15 -5.1714 8.80853)
(3.17742e-16 -3.45478 5.88574)
(-8.32578e-15 -1.3519 2.49276)
(5.32236e-15 -4.36559 8.09617)
(1.68338e-14 -12.7933 21.2675)
(9.34271e-15 -14.6057 24.9493)
(1.7587e-15 -13.7759 23.3009)
(1.90841e-15 -12.5139 21.2353)
(-1.84929e-15 -11.5608 19.6495)
(2.07684e-15 -10.745 18.2392)
(1.30528e-15 -9.92439 16.8641)
(-1.41982e-15 -9.11796 15.5054)
(-2.26371e-15 -8.33254 14.1772)
(4.2394e-15 -7.53083 12.8284)
(5.2755e-16 -6.58953 11.2334)
(-2.23385e-15 -5.30004 9.04406)
(-4.2602e-15 -3.6204 6.1738)
(-1.02122e-14 -1.45107 2.70382)
(5.20338e-15 -3.77711 6.86966)
(1.62643e-14 -12.1051 20.252)
(9.24552e-15 -14.532 24.7935)
(4.23221e-15 -13.886 23.5156)
(2.15871e-15 -12.5809 21.3847)
(-1.07143e-15 -11.5903 19.7365)
(1.66009e-18 -10.7692 18.3321)
(1.89727e-15 -9.95665 16.9716)
(-1.90827e-15 -9.15862 15.6244)
(-1.53478e-15 -8.38029 14.3057)
(4.97069e-16 -7.5865 12.9651)
(-5.20133e-15 -6.6556 11.3839)
(-9.80429e-16 -5.38486 9.22542)
(-7.77192e-15 -3.72448 6.38065)
(-6.50087e-15 -1.49926 2.83008)
(4.98563e-15 -3.46489 6.30369)
(1.49973e-14 -11.615 19.4647)
(1.1002e-14 -14.5812 24.6973)
(4.66031e-15 -14.2551 23.9608)
(2.71695e-15 -13.0063 21.8626)
(-5.41724e-16 -11.9791 20.0968)
(-4.88025e-16 -11.1275 18.6136)
(3.48668e-15 -10.2992 17.212)
(-1.2954e-15 -9.47892 15.8305)
(-1.4622e-15 -8.67088 14.4823)
(9.54754e-16 -7.85039 13.1239)
(-3.67557e-15 -6.90617 11.564)
(-1.51975e-15 -5.64738 9.48839)
(-4.24045e-15 -3.98885 6.71396)
(-5.81838e-15 -1.66028 3.06424)
(-1.49751e-15 -2.15036 3.12258)
(1.23391e-14 -10.1843 16.8591)
(1.06084e-14 -13.9665 23.4935)
(4.45274e-15 -13.8702 23.3216)
(2.07156e-15 -12.5069 21.182)
(-2.37035e-16 -11.4394 19.491)
(1.93323e-16 -10.6844 18.255)
(3.25905e-15 -9.98177 17.0813)
(-9.24762e-16 -9.28777 15.8959)
(-4.14567e-16 -8.60453 14.7062)
(6.16076e-16 -7.90179 13.4863)
(-3.34993e-15 -7.07632 12.0548)
(2.74223e-16 -5.93391 10.1165)
(-5.44013e-15 -4.43654 7.58179)
(-4.44299e-15 -2.17861 4.27178)
(1.65122e-15 -3.96063 8.00876)
(1.26885e-14 -11.0897 18.4934)
(1.3399e-14 -15.2545 24.9061)
(8.34615e-15 -16.5875 25.8086)
(2.74981e-15 -15.996 23.9759)
(2.32646e-15 -14.8319 21.5441)
(5.17456e-17 -13.5878 19.3044)
(2.99813e-16 -12.4013 17.4233)
(7.25831e-18 -11.251 15.6614)
(-2.48184e-16 -10.1234 14.0874)
(-9.67408e-16 -9.01619 12.5599)
(-2.12178e-15 -7.8284 10.9658)
(-2.20287e-15 -6.43471 9.05925)
(-4.06789e-15 -4.52836 6.19673)
(-4.12809e-15 -0.987256 1.9679)
(-6.2321e-16 0.694418 -3.61461)
(-7.64238e-16 0.822668 -5.84617)
(-5.22494e-16 0.763179 -4.15408)
(-5.15243e-16 1.2521 -4.09766)
(-4.81103e-16 1.67955 -3.88565)
(-8.00904e-16 2.41755 -5.3928)
(-6.15815e-16 2.03521 -3.71079)
(-6.65257e-16 2.45915 -3.64518)
(-4.61794e-16 2.72197 -3.4772)
(2.55787e-15 3.65991 -4.59924)
(-7.8715e-16 3.03595 -3.18581)
(-7.98992e-16 3.30835 -2.98868)
(-1.2056e-15 4.60552 -3.82919)
(-8.34024e-16 3.63274 -2.63626)
(-8.61579e-16 3.96558 -2.58938)
(-8.1425e-16 4.07186 -2.5002)
(-1.32605e-15 5.22295 -3.108)
(-8.23266e-16 4.15018 -2.18203)
(-7.04748e-16 4.30351 -2.07659)
(-1.16372e-15 5.75815 -2.46541)
(-8.13365e-16 4.37976 -1.73893)
(-8.02691e-16 4.66782 -1.70973)
(-7.38576e-16 4.68548 -1.6764)
(-1.14525e-15 5.91808 -1.89768)
(-7.91948e-16 4.45144 -1.38589)
(-7.75515e-16 4.77884 -1.3575)
(-8.71328e-16 4.79009 -1.34239)
(-1.1321e-15 5.89149 -1.40784)
(-1.08578e-15 4.44258 -1.0709)
(-7.24228e-16 4.49958 -1.05831)
(-1.08021e-15 5.82216 -0.943941)
(-1.04815e-15 4.24432 -0.750651)
(-7.24447e-16 4.42827 -0.734579)
(-5.38587e-16 4.41998 -0.754004)
(-1.02543e-15 5.35192 -0.543057)
(-7.16507e-16 3.9491 -0.477078)
(-6.56406e-16 3.96445 -0.509213)
(-9.71574e-16 5.00376 -0.176168)
(-6.69659e-16 3.58604 -0.219446)
(-7.66747e-16 3.70474 -0.213757)
(-6.53851e-16 3.69266 -0.256115)
(-7.18162e-16 4.38888 0.136654)
(-5.58926e-16 3.12791 -0.00228306)
(-5.61156e-16 3.26637 0.00154129)
(-5.39881e-16 3.26641 -0.045046)
(-8.17787e-16 3.78454 0.391727)
(-6.04948e-16 2.73458 0.229153)
(-5.65851e-16 2.73307 0.165252)
(-8.77795e-16 3.34842 0.697933)
(-5.37165e-16 2.4398 0.502685)
(-5.36181e-16 2.47379 0.50603)
(-5.17346e-16 2.45081 0.440652)
(-7.59751e-16 2.75924 1.0437)
(-5.18982e-16 1.98484 0.691211)
(-6.91826e-16 2.01604 0.685292)
(-4.813e-16 1.99909 0.622194)
(-2.81484e-16 2.09014 1.149)
(-4.95259e-16 1.40136 0.624175)
(-3.85333e-16 1.34262 0.567068)
(-9.58467e-17 1.40765 0.646803)
(-3.16883e-16 0.661492 0.00600571)
(-4.95029e-16 0.604327 -0.0251298)
(-2.04973e-16 0.677305 0.00420245)
(1.21932e-14 1.27483 -1.39908)
(-3.86663e-16 -0.522206 -0.192145)
(-6.95603e-16 -0.0035732 0.148337)
(-1.20615e-15 -0.127131 1.79796)
(-8.42664e-16 -1.46462 3.53291)
(-7.19415e-16 -1.45372 3.48703)
(-7.47623e-16 -1.454 3.65796)
(-8.11664e-16 -2.91997 6.61747)
(-5.08665e-16 -3.36143 6.17771)
(-5.50051e-16 -3.62614 6.30255)
(-6.08013e-16 -3.78503 6.47826)
(-5.16889e-16 -6.44241 10.1024)
(-3.52894e-17 -5.85403 8.16838)
(-1.56268e-16 -6.14515 8.65197)
(6.22968e-17 -9.52927 12.6844)
(7.7001e-17 -8.50769 9.75859)
(-1.40749e-17 -8.89104 10.4548)
(-3.43295e-16 -9.72521 12.1761)
(-2.34882e-16 -9.59759 12.0968)
(-1.80295e-16 -9.75619 12.3756)
(1.0473e-15 -11.8857 15.1503)
(2.75957e-16 -10.4424 13.3731)
(2.80965e-16 -10.8056 14.0737)
(2.6031e-16 -10.7913 14.2298)
(3.19643e-16 -10.8643 14.3537)
(3.79534e-16 -10.9565 14.5012)
(4.59183e-16 -11.0343 14.674)
(6.61098e-16 -11.1227 14.9869)
(9.36356e-16 -11.2411 15.3654)
(1.80805e-15 -12.1056 16.7503)
(1.24343e-15 -11.5629 15.7596)
(1.351e-15 -11.7084 15.9871)
(1.38991e-15 -11.6874 16.1158)
(1.52137e-15 -11.8501 16.4847)
(1.55628e-15 -11.8225 16.5182)
(1.61232e-15 -11.9033 16.6619)
(1.66715e-15 -11.9581 16.7858)
(1.72882e-15 -12.0136 16.9369)
(2.67682e-15 -12.5373 18.0098)
(2.2729e-15 -12.0578 17.2755)
(2.35139e-15 -12.1678 17.4498)
(2.39304e-15 -12.1947 17.5331)
(2.45455e-15 -12.235 17.6608)
(2.53671e-15 -12.2752 17.8547)
(2.65005e-15 -12.3455 18.0703)
(2.72968e-15 -12.3486 18.1344)
(2.82054e-15 -12.4165 18.2491)
(2.92699e-15 -12.4637 18.3495)
(4.13821e-15 -12.3331 18.6164)
(3.26644e-15 -12.1464 18.3153)
(3.38568e-15 -12.1924 18.4168)
(3.43352e-15 -12.2161 18.4743)
(3.51268e-15 -12.2495 18.5521)
(3.59766e-15 -12.2379 18.6508)
(3.62033e-15 -12.2929 18.8856)
(3.65841e-15 -12.3202 18.9594)
(3.76792e-15 -12.3572 18.9552)
(4.49883e-15 -11.4856 18.0532)
(3.84079e-15 -11.6065 18.2642)
(3.99585e-15 -11.5881 18.3831)
(4.08834e-15 -11.6165 18.5188)
(4.21906e-15 -11.564 18.4467)
(4.3366e-15 -11.5598 18.4313)
(4.47048e-15 -11.5366 18.3994)
(4.63821e-15 -11.5247 18.399)
(4.91198e-15 -11.6052 18.5858)
(4.34003e-15 -9.68274 16.0923)
(5.17121e-15 -10.415 17.2841)
(5.29778e-15 -10.2823 17.0448)
(5.42682e-15 -10.2414 16.9621)
(5.79709e-15 -10.2101 17.0051)
(5.89457e-15 -10.1076 16.8081)
(5.90647e-15 -10.0079 16.5091)
(5.94048e-15 -9.96695 16.1906)
(5.93995e-15 -9.86886 15.7903)
(5.76713e-15 -7.40921 12.1863)
(6.37049e-15 -8.49798 14.4183)
(6.19234e-15 -8.20065 13.7378)
(6.10238e-15 -8.13774 13.3418)
(5.99656e-15 -8.0027 12.804)
(5.97208e-15 -7.92853 12.2247)
(6.50598e-15 -7.66987 11.5076)
(6.0054e-15 -7.59958 10.9655)
(5.71386e-15 -7.41295 10.2992)
(5.30727e-15 -7.183 9.56241)
(2.91087e-15 -4.76934 4.48436)
(4.25785e-15 -6.05211 7.2578)
(3.69478e-15 -5.6168 6.13702)
(3.41115e-15 -5.60859 5.829)
(3.02334e-15 -5.37986 5.25926)
(2.5456e-15 -5.33365 4.6191)
(1.56509e-15 -5.16425 3.44873)
(5.60532e-16 -4.78915 2.27883)
(6.68466e-16 -4.81009 2.32218)
(-4.50599e-16 -4.60056 0.785623)
(5.49448e-16 -4.54609 1.77343)
(3.63412e-16 -4.49745 1.38017)
(-2.38768e-16 -3.36671 -0.415413)
(5.28961e-17 -5.49782 0.761756)
(-2.62892e-16 -4.94553 0.331422)
(-1.83906e-16 -4.34385 0.280972)
(8.66445e-17 -5.98838 0.467762)
(-1.32877e-16 -4.15715 0.268785)
(-2.29682e-16 -6.02561 0.529967)
(-3.22532e-16 -5.51656 0.313613)
(-1.57226e-17 -4.43268 0.216697)
(-4.68452e-17 -6.10346 0.37727)
(-6.36476e-17 -5.5701 0.162504)
(-7.30482e-17 -4.75427 0.145195)
(-8.36319e-17 -6.58372 0.18774)
(-1.10445e-16 -4.40181 0.090396)
(1.55011e-16 -6.34685 0.1534)
(-1.79647e-17 -5.54881 -0.032645)
(-1.03578e-16 -4.73678 0.0135513)
(-2.59167e-16 -6.51887 -0.0432286)
(-5.31395e-17 -4.28873 -0.03413)
(-8.99207e-17 -6.31745 -0.0834179)
(-1.0286e-16 -5.44186 -0.187825)
(-1.14365e-16 -4.27141 -0.132665)
(-1.77916e-16 -5.91632 -0.246457)
(-6.42871e-16 -5.10092 -0.313928)
(-1.0016e-16 -4.31108 -0.203169)
(-1.59256e-16 -5.90031 -0.342711)
(-1.8582e-16 -3.7838 -0.238456)
(-7.1353e-16 -5.52463 -0.397047)
(-5.35797e-17 -4.56129 -0.421706)
(-1.45439e-16 -3.89498 -0.290766)
(-1.55872e-16 -5.22506 -0.46918)
(-1.73797e-16 -3.3449 -0.304141)
(-2.98056e-16 -4.94735 -0.523121)
(3.97877e-16 -4.05955 -0.49438)
(-3.73296e-17 -3.12038 -0.379278)
(-2.82665e-16 -4.29888 -0.614872)
(-8.09978e-16 -3.52091 -0.58184)
(9.41306e-17 -2.96422 -0.433864)
(-3.55256e-17 -3.89643 -0.648364)
(1.52624e-17 -2.42489 -0.449682)
(1.45936e-16 -3.50942 -0.72448)
(-1.64106e-16 -2.70187 -0.669032)
(-2.57048e-16 -2.30578 -0.509757)
(-1.79713e-15 -2.87447 -0.754066)
(-4.37067e-16 -1.78965 -0.512793)
(-4.7165e-16 -2.56165 -0.849941)
(-2.97056e-16 -1.89157 -0.783036)
(-1.83834e-16 -1.38666 -0.609735)
(-3.12689e-16 -1.7702 -0.986127)
(-3.71678e-16 -1.19423 -0.969884)
(-3.91164e-16 -0.991584 -0.728297)
(-5.8144e-16 -0.876889 -1.1431)
(-7.99577e-16 -0.511657 -0.747024)
(-4.16255e-15 -0.458823 -1.33698)
(3.49808e-15 0.0432198 -1.26608)
(-6.13057e-16 0.0082502 -0.883463)
(-6.43601e-15 0.747175 -1.43906)
(6.55413e-17 0.425752 -0.874083)
(1.00613e-16 1.34247 -1.59244)
(6.19646e-16 1.4195 -1.30715)
(1.29336e-15 0.970831 -0.675892)
(4.72895e-15 1.68665 -0.944188)
(-3.1928e-16 2.33068 -1.26973)
(1.76519e-15 1.29516 -0.795773)
(5.25303e-15 3.1069 -1.05707)
(4.00991e-15 1.8426 -0.701683)
(3.20983e-15 2.66135 -0.922007)
(2.46658e-15 3.36402 -1.12392)
(2.13845e-15 2.2176 -0.581738)
(2.3779e-15 4.10726 -1.05665)
(1.79455e-15 2.8196 -0.568592)
(1.68437e-15 3.64672 -0.870317)
(7.75728e-16 4.34524 -1.24521)
(7.88216e-16 3.39118 -0.615465)
(5.47251e-16 4.37749 -0.940645)
(1.00971e-15 5.3694 -1.42702)
(8.15072e-16 4.00522 -0.718998)
(9.15391e-16 5.9535 -1.44853)
(7.03476e-16 4.75363 -0.862007)
(6.97297e-16 6.00045 -1.63189)
(-9.78892e-16 -0.231656 1.05262)
(-9.79105e-16 -0.249058 1.04012)
(-9.79208e-16 -0.233506 1.02839)
(-9.79325e-16 -0.223267 1.01897)
(-9.79471e-16 -0.215575 1.00875)
(-9.79625e-16 -0.201764 0.992734)
(-9.79756e-16 -0.180043 0.975955)
(-9.79859e-16 -0.152222 0.96104)
(-9.79953e-16 -0.123401 0.949587)
(-9.80058e-16 -0.100211 0.94139)
(-9.80169e-16 -0.0798585 0.931694)
(-9.8026e-16 -0.0488161 0.919997)
(-9.80319e-16 -0.0145423 0.912078)
(-9.80359e-16 0.0159622 0.908485)
(-9.80387e-16 0.0376309 0.907164)
(-9.80402e-16 0.055123 0.905963)
(-9.804e-16 0.0698466 0.906839)
(-9.80384e-16 0.0706665 0.912055)
(-9.80357e-16 0.0546203 0.919144)
(-9.80316e-16 0.0293246 0.925293)
(-9.80257e-16 -0.00210831 0.929858)
(-9.8017e-16 -0.0387902 0.933999)
(-9.80043e-16 -0.0831876 0.939301)
(-9.79858e-16 -0.13464 0.946032)
(-9.79597e-16 -0.195338 0.953617)
(-9.79239e-16 -0.263748 0.962142)
(-9.78757e-16 -0.344357 0.971753)
(-9.78116e-16 -0.436342 0.982593)
(-9.77281e-16 -0.544034 0.994438)
(-9.76215e-16 -0.66689 1.00709)
(-9.74898e-16 -0.808501 1.02053)
(-9.73351e-16 -0.968262 1.03575)
(-9.7168e-16 -1.14993 1.0557)
(-9.70094e-16 -1.35256 1.08587)
(-9.68893e-16 -1.58123 1.13348)
(-9.68325e-16 -1.82766 1.20484)
(-9.6837e-16 -2.07095 1.30216)
(-9.68458e-16 -2.24309 1.41732)
(-9.65635e-16 -2.2241 1.50411)
(-9.47519e-16 -1.84205 1.43139)
(-8.90674e-16 -1.11688 1.06067)
(-8.0642e-16 -0.647416 0.613871)
(-7.69408e-16 -0.732653 0.531059)
(-7.83508e-16 -0.838459 0.533788)
(-7.95744e-16 -0.873127 0.358762)
(-8.00286e-16 -0.855419 0.307795)
(-7.99873e-16 0.0345948 -0.0978445)
(-7.9862e-16 0.818461 0.160464)
(-7.91033e-16 1.74369 0.434153)
(-7.67696e-16 2.26005 0.674346)
(-7.24704e-16 2.19568 0.709849)
(-6.76761e-16 1.29307 0.358448)
(-6.47043e-16 0.0463022 -0.384986)
(-6.5134e-16 -1.81184 -0.0186235)
(-5.91863e-16 -5.71542 -0.102307)
(-4.51131e-16 -10.0099 -0.397768)
(-2.70078e-16 -8.02631 -0.312415)
(-1.92711e-16 -4.44586 -0.2953)
(-1.7041e-16 1.0858 -0.21676)
(-1.65319e-16 2.03991 0.246939)
(-1.69132e-16 0.974652 0.592149)
(-1.67593e-16 -0.571969 0.398553)
(-1.75937e-16 -1.17473 0.335649)
(-1.80977e-16 -0.635149 0.244667)
(-1.80307e-16 -0.971403 0.442399)
(-1.7456e-16 -1.76878 0.515878)
(-1.64332e-16 -2.16584 0.58425)
(-1.49947e-16 -2.56949 0.754139)
(-1.29953e-16 -3.16538 0.877998)
(-1.05464e-16 -2.75773 -0.267296)
(-7.84694e-17 -2.40681 0.685108)
(-5.45381e-17 -2.33382 -0.0979543)
(-4.2929e-17 -1.88512 -0.725267)
(-3.51626e-17 -1.30001 -1.08478)
(-1.57448e-17 -1.28514 0.3308)
(-3.45047e-17 1.07894 -1.99976)
(-5.62272e-17 3.25496 -3.72267)
(-4.79356e-17 4.6936 -4.20773)
(-1.72647e-16 5.46547 -3.50517)
(-9.78972e-16 -0.232575 1.06844)
(-9.79172e-16 -0.23234 1.05265)
(-9.79276e-16 -0.204692 1.03569)
(-9.79408e-16 -0.183685 1.0259)
(-9.79558e-16 -0.165496 1.01201)
(-9.79702e-16 -0.13983 0.991765)
(-9.79821e-16 -0.108142 0.971194)
(-9.79922e-16 -0.0718698 0.953485)
(-9.80024e-16 -0.0363863 0.941671)
(-9.80134e-16 -0.00742955 0.932732)
(-9.80233e-16 0.0183634 0.918444)
(-9.80305e-16 0.0525716 0.902153)
(-9.8035e-16 0.0842491 0.893335)
(-9.80378e-16 0.106958 0.892022)
(-9.80393e-16 0.118529 0.893743)
(-9.80391e-16 0.125493 0.896038)
(-9.80372e-16 0.126392 0.903529)
(-9.80339e-16 0.114414 0.916523)
(-9.80294e-16 0.0937866 0.927943)
(-9.80234e-16 0.0708322 0.934715)
(-9.80152e-16 0.0433151 0.939179)
(-9.80041e-16 0.0104751 0.943464)
(-9.7989e-16 -0.0315247 0.948738)
(-9.79683e-16 -0.0815098 0.954558)
(-9.79403e-16 -0.143119 0.960759)
(-9.79028e-16 -0.214436 0.967728)
(-9.7853e-16 -0.299517 0.975399)
(-9.77874e-16 -0.396949 0.984403)
(-9.77025e-16 -0.510641 0.994435)
(-9.75948e-16 -0.639301 1.00608)
(-9.74628e-16 -0.786169 1.01941)
(-9.73093e-16 -0.949851 1.03633)
(-9.71456e-16 -1.13412 1.0596)
(-9.69929e-16 -1.33721 1.09496)
(-9.68808e-16 -1.5638 1.1498)
(-9.68323e-16 -1.80341 1.22826)
(-9.68462e-16 -2.03382 1.33151)
(-9.68596e-16 -2.17995 1.44415)
(-9.64901e-16 -2.1098 1.50267)
(-9.42736e-16 -1.65898 1.37003)
(-8.79766e-16 -0.908397 0.946266)
(-7.98237e-16 -0.498497 0.529308)
(-7.69705e-16 -0.610444 0.4664)
(-7.84617e-16 -0.753956 0.439661)
(-7.96215e-16 -0.80472 0.273748)
(-8.0034e-16 -0.793248 0.21807)
(-7.9984e-16 -0.0028733 -0.0264514)
(-7.98489e-16 0.713328 0.119878)
(-7.9315e-16 1.63974 0.382487)
(-7.7335e-16 2.22197 0.664167)
(-7.31991e-16 2.25195 0.748315)
(-6.81156e-16 1.45731 0.436811)
(-6.4728e-16 -0.441873 -0.179846)
(-6.51347e-16 -1.81882 -0.0291401)
(-5.92243e-16 -5.69479 -0.102122)
(-4.51845e-16 -9.98281 -0.388559)
(-2.71067e-16 -8.0253 -0.306768)
(-1.93062e-16 -4.41273 -0.29651)
(-1.70874e-16 0.991119 -0.314247)
(-1.65392e-16 1.90405 0.274399)
(-1.69901e-16 0.906659 0.60717)
(-1.68437e-16 -0.222022 0.603782)
(-1.76298e-16 -0.820127 0.405937)
(-1.8108e-16 -0.0769794 0.283947)
(-1.80079e-16 -0.552343 0.514246)
(-1.74174e-16 -1.50661 0.582681)
(-1.63824e-16 -1.97592 0.607972)
(-1.49303e-16 -2.49536 0.681089)
(-1.29479e-16 -3.20491 0.780068)
(-1.05312e-16 -2.91566 -0.332299)
(-7.85738e-17 -2.65082 0.504269)
(-5.47603e-17 -2.6029 -0.24394)
(-4.44981e-17 -2.10989 -0.75974)
(-3.36689e-17 -1.81125 -0.358129)
(-1.06093e-17 -0.976172 0.341395)
(-3.6732e-17 1.65956 -2.50933)
(-5.55572e-17 3.52785 -3.87278)
(-3.77925e-17 4.60145 -4.02688)
(-1.89052e-16 5.03694 -3.06741)
(-9.79062e-16 -0.232796 1.0662)
(-9.7925e-16 -0.2359 1.05358)
(-9.79359e-16 -0.215103 1.03467)
(-9.79504e-16 -0.198761 1.02345)
(-9.7965e-16 -0.182742 1.00731)
(-9.79779e-16 -0.160346 0.987017)
(-9.79888e-16 -0.132126 0.967027)
(-9.7999e-16 -0.0997407 0.950284)
(-9.80098e-16 -0.0674569 0.938954)
(-9.80204e-16 -0.0393349 0.929108)
(-9.80286e-16 -0.0127597 0.915004)
(-9.80339e-16 0.0198651 0.901383)
(-9.80371e-16 0.0506624 0.895706)
(-9.80388e-16 0.0747207 0.896946)
(-9.80388e-16 0.0898163 0.900642)
(-9.80371e-16 0.0991694 0.905825)
(-9.80336e-16 0.102384 0.916467)
(-9.80287e-16 0.0944964 0.930787)
(-9.80223e-16 0.0772091 0.941977)
(-9.80142e-16 0.0548709 0.948304)
(-9.80036e-16 0.0274526 0.952761)
(-9.79899e-16 -0.00597808 0.95706)
(-9.7972e-16 -0.0476237 0.961808)
(-9.79487e-16 -0.0976834 0.966499)
(-9.79183e-16 -0.15818 0.971497)
(-9.78785e-16 -0.228753 0.977245)
(-9.78266e-16 -0.312349 0.983667)
(-9.77589e-16 -0.40863 0.991475)
(-9.76721e-16 -0.520749 1.0005)
(-9.75629e-16 -0.648314 1.01159)
(-9.74306e-16 -0.794324 1.02504)
(-9.72786e-16 -0.958493 1.04313)
(-9.71191e-16 -1.14466 1.06892)
(-9.69738e-16 -1.35235 1.10837)
(-9.68713e-16 -1.58553 1.16882)
(-9.68333e-16 -1.83374 1.25357)
(-9.68606e-16 -2.07059 1.3629)
(-9.6877e-16 -2.21484 1.47426)
(-9.63754e-16 -2.11723 1.50509)
(-9.36435e-16 -1.60673 1.30851)
(-8.67001e-16 -0.818675 0.829005)
(-7.89939e-16 -0.456747 0.455052)
(-7.70324e-16 -0.619833 0.442232)
(-7.85926e-16 -0.738512 0.403938)
(-7.96764e-16 -0.76877 0.257978)
(-8.00402e-16 -0.702524 0.191864)
(-7.99817e-16 0.0977411 -0.2048)
(-7.98318e-16 0.717966 0.0722481)
(-7.94363e-16 1.59997 0.314434)
(-7.76723e-16 2.18236 0.634044)
(-7.37022e-16 2.25964 0.754756)
(-6.84886e-16 1.53259 0.487834)
(-6.45431e-16 -0.203092 -0.0786892)
(-6.51403e-16 -1.82012 -0.0287961)
(-5.92686e-16 -5.65362 -0.0943492)
(-4.52711e-16 -9.95902 -0.382333)
(-2.72264e-16 -8.04695 -0.301354)
(-1.93483e-16 -4.43999 -0.280749)
(-1.70508e-16 0.847244 -0.249423)
(-1.65436e-16 1.84006 0.29623)
(-1.70416e-16 0.879448 0.593418)
(-1.69391e-16 -0.340253 0.686798)
(-1.76735e-16 -0.889624 0.440975)
(-1.81179e-16 -0.317942 0.313865)
(-1.79821e-16 -0.782074 0.510362)
(-1.73736e-16 -1.64391 0.570823)
(-1.6326e-16 -2.10225 0.573853)
(-1.48622e-16 -2.57676 0.600696)
(-1.29022e-16 -3.13112 0.688451)
(-1.05375e-16 -2.86276 -0.368066)
(-7.85978e-17 -2.57349 0.390043)
(-5.56384e-17 -2.40221 -0.347274)
(-4.49702e-17 -2.0232 -0.458678)
(-2.67622e-17 -1.77221 0.488564)
(-1.38802e-17 -0.553078 -0.460869)
(-3.77683e-17 1.96165 -2.81495)
(-5.48485e-17 3.62199 -3.91709)
(-2.54894e-17 4.51352 -3.91894)
(-2.08186e-16 4.84915 -2.91445)
(-9.79156e-16 -0.229419 1.06312)
(-9.79338e-16 -0.230694 1.05032)
(-9.79453e-16 -0.211973 1.03053)
(-9.79601e-16 -0.196326 1.01797)
(-9.79735e-16 -0.179366 1.00111)
(-9.79849e-16 -0.157741 0.981736)
(-9.79952e-16 -0.130959 0.962996)
(-9.80058e-16 -0.100631 0.947433)
(-9.80166e-16 -0.0701248 0.936314)
(-9.80259e-16 -0.0425715 0.926299)
(-9.80323e-16 -0.0161924 0.914156)
(-9.80361e-16 0.0138469 0.904355)
(-9.80383e-16 0.0421035 0.902005)
(-9.80388e-16 0.0645206 0.905493)
(-9.80375e-16 0.0792361 0.911318)
(-9.80342e-16 0.0884727 0.919403)
(-9.80292e-16 0.0916479 0.931983)
(-9.80225e-16 0.0848769 0.946051)
(-9.80142e-16 0.0689655 0.956338)
(-9.80038e-16 0.0469779 0.962416)
(-9.79908e-16 0.0190783 0.967126)
(-9.79745e-16 -0.015067 0.971384)
(-9.7954e-16 -0.0570732 0.975494)
(-9.79281e-16 -0.107269 0.979192)
(-9.78953e-16 -0.167457 0.983198)
(-9.78531e-16 -0.237741 0.987904)
(-9.77989e-16 -0.320647 0.993265)
(-9.7729e-16 -0.416413 1.00006)
(-9.76403e-16 -0.527815 1.00824)
(-9.75299e-16 -0.65511 1.01883)
(-9.73975e-16 -0.801137 1.03237)
(-9.72474e-16 -0.966444 1.05144)
(-9.70926e-16 -1.15482 1.07947)
(-9.69552e-16 -1.36692 1.12256)
(-9.68626e-16 -1.60594 1.18785)
(-9.68363e-16 -1.8613 1.27806)
(-9.68794e-16 -2.10312 1.39208)
(-9.68913e-16 -2.24281 1.49932)
(-9.62148e-16 -2.11778 1.49997)
(-9.29234e-16 -1.5647 1.2434)
(-8.54248e-16 -0.7746 0.725555)
(-7.83088e-16 -0.454432 0.403371)
(-7.71246e-16 -0.624817 0.426905)
(-7.8722e-16 -0.743534 0.380434)
(-7.97288e-16 -0.762338 0.251489)
(-8.00459e-16 -0.663846 0.167052)
(-7.9978e-16 0.0907243 -0.314056)
(-7.982e-16 0.660274 -0.00141542)
(-7.95301e-16 1.53757 0.259405)
(-7.8001e-16 2.1363 0.591802)
(-7.42561e-16 2.27348 0.758428)
(-6.89303e-16 1.61342 0.54827)
(-6.45648e-16 -0.151216 0.0448755)
(-6.5136e-16 -1.79812 -0.0259996)
(-5.93127e-16 -5.61818 -0.0858081)
(-4.53602e-16 -9.93837 -0.376748)
(-2.73495e-16 -8.05308 -0.296378)
(-1.93908e-16 -4.45569 -0.264997)
(-1.7007e-16 0.95604 -0.214027)
(-1.65459e-16 1.75705 0.312669)
(-1.70933e-16 0.823629 0.578992)
(-1.70282e-16 -0.378815 0.715475)
(-1.77169e-16 -0.873952 0.456741)
(-1.81255e-16 -0.390574 0.332378)
(-1.79572e-16 -0.864404 0.496975)
(-1.73317e-16 -1.67304 0.546849)
(-1.62735e-16 -2.11688 0.534144)
(-1.48038e-16 -2.56031 0.534053)
(-1.28676e-16 -3.0264 0.616128)
(-1.05367e-16 -2.77599 -0.420551)
(-7.8789e-17 -2.52665 0.303664)
(-5.51551e-17 -2.35632 -0.234366)
(-4.11601e-17 -2.06068 -0.11498)
(-2.43846e-17 -1.7111 0.65194)
(-1.54126e-17 -0.203801 -0.91664)
(-3.75473e-17 2.26442 -3.04168)
(-5.36234e-17 3.71457 -3.95157)
(-1.15247e-17 4.39659 -3.80032)
(-2.13744e-16 4.5679 -2.77498)
(-9.79257e-16 -0.226788 1.0596)
(-9.79439e-16 -0.225998 1.04458)
(-9.79555e-16 -0.207651 1.02519)
(-9.79696e-16 -0.192031 1.01205)
(-9.79813e-16 -0.174477 0.995538)
(-9.79916e-16 -0.152881 0.977303)
(-9.80018e-16 -0.126558 0.959795)
(-9.80125e-16 -0.0971412 0.945281)
(-9.80226e-16 -0.067509 0.934695)
(-9.80302e-16 -0.0403817 0.925696)
(-9.80349e-16 -0.0144338 0.916423)
(-9.80376e-16 0.0141133 0.910296)
(-9.80387e-16 0.0409462 0.910702)
(-9.80381e-16 0.0624538 0.916135)
(-9.80353e-16 0.076959 0.924067)
(-9.80306e-16 0.0859958 0.934396)
(-9.8024e-16 0.0889989 0.947739)
(-9.80156e-16 0.0828526 0.961002)
(-9.80052e-16 0.0680624 0.970619)
(-9.79924e-16 0.0468927 0.976806)
(-9.79769e-16 0.0193971 0.981816)
(-9.7958e-16 -0.0145948 0.985915)
(-9.7935e-16 -0.0563927 0.989406)
(-9.79066e-16 -0.106484 0.992307)
(-9.78713e-16 -0.166561 0.99551)
(-9.78267e-16 -0.237 0.999309)
(-9.777e-16 -0.319927 1.0037)
(-9.7698e-16 -0.415994 1.00954)
(-9.76075e-16 -0.527681 1.01693)
(-9.74961e-16 -0.655606 1.02702)
(-9.73639e-16 -0.802544 1.04065)
(-9.72163e-16 -0.969602 1.06065)
(-9.70668e-16 -1.16065 1.09084)
(-9.69376e-16 -1.37698 1.13736)
(-9.68553e-16 -1.62114 1.20712)
(-9.6842e-16 -1.8818 1.30225)
(-9.69024e-16 -2.12492 1.41946)
(-9.68962e-16 -2.2525 1.51904)
(-9.59949e-16 -2.08988 1.48573)
(-9.21142e-16 -1.48962 1.17235)
(-8.41801e-16 -0.70503 0.631698)
(-7.77775e-16 -0.437153 0.367973)
(-7.72429e-16 -0.613789 0.414687)
(-7.88489e-16 -0.724696 0.359323)
(-7.97784e-16 -0.729824 0.244618)
(-8.00509e-16 -0.587721 0.14401)
(-7.99706e-16 0.0873354 -0.360795)
(-7.97957e-16 0.59889 -0.0665798)
(-7.95976e-16 1.48396 0.190557)
(-7.83053e-16 2.08442 0.533951)
(-7.48239e-16 2.27188 0.750192)
(-6.94521e-16 1.6778 0.601833)
(-6.46251e-16 -0.0532957 0.0882701)
(-6.51294e-16 -1.77996 -0.0237474)
(-5.93556e-16 -5.58823 -0.0772493)
(-4.54488e-16 -9.91787 -0.370023)
(-2.74715e-16 -8.06009 -0.290596)
(-1.94318e-16 -4.46957 -0.252497)
(-1.69675e-16 1.0036 -0.19067)
(-1.65459e-16 1.68067 0.329813)
(-1.71399e-16 0.775624 0.564467)
(-1.71077e-16 -0.369399 0.723635)
(-1.77579e-16 -0.819065 0.465379)
(-1.81306e-16 -0.395053 0.346119)
(-1.79332e-16 -0.884781 0.482009)
(-1.7293e-16 -1.66842 0.519383)
(-1.62282e-16 -2.10975 0.492703)
(-1.4756e-16 -2.54168 0.466918)
(-1.28409e-16 -2.95011 0.542094)
(-1.05364e-16 -2.73229 -0.475126)
(-7.87055e-17 -2.54181 0.275309)
(-5.44836e-17 -2.36014 -0.18824)
(-4.19486e-17 -2.10835 0.0316842)
(-1.90352e-17 -1.87378 1.49298)
(-1.48594e-17 0.21891 -1.26965)
(-3.65725e-17 2.53537 -3.2569)
(-5.21163e-17 3.76803 -3.98051)
(3.90833e-18 4.26266 -3.69466)
(-2.31898e-16 4.30539 -2.59059)
(-9.79363e-16 -0.22466 1.05435)
(-9.7955e-16 -0.222376 1.0378)
(-9.79658e-16 -0.204741 1.01985)
(-9.79787e-16 -0.189422 1.0067)
(-9.79889e-16 -0.171563 0.990877)
(-9.79986e-16 -0.150051 0.973682)
(-9.80087e-16 -0.124222 0.957432)
(-9.8019e-16 -0.0957052 0.94419)
(-9.80278e-16 -0.0669999 0.93483)
(-9.80336e-16 -0.04041 0.927698)
(-9.80368e-16 -0.0148334 0.921436)
(-9.80386e-16 0.0125712 0.91849)
(-9.80387e-16 0.0383015 0.921239)
(-9.80368e-16 0.0590593 0.928516)
(-9.80327e-16 0.0732455 0.93833)
(-9.80265e-16 0.0820152 0.950064)
(-9.80183e-16 0.0848189 0.963373)
(-9.80079e-16 0.0791074 0.975787)
(-9.79952e-16 0.0650362 0.985096)
(-9.79801e-16 0.0444277 0.991571)
(-9.79622e-16 0.0173979 0.996775)
(-9.79408e-16 -0.0162489 1.00063)
(-9.79152e-16 -0.0576809 1.0036)
(-9.78844e-16 -0.107529 1.0059)
(-9.78466e-16 -0.167318 1.00844)
(-9.77996e-16 -0.237734 1.01144)
(-9.77406e-16 -0.320598 1.01496)
(-9.76665e-16 -0.416845 1.01992)
(-9.75743e-16 -0.52877 1.02656)
(-9.7462e-16 -0.657313 1.03622)
(-9.73305e-16 -0.805218 1.04996)
(-9.71859e-16 -0.974099 1.07091)
(-9.70421e-16 -1.16792 1.10319)
(-9.69214e-16 -1.3885 1.15297)
(-9.68497e-16 -1.63768 1.22692)
(-9.6851e-16 -1.90298 1.32644)
(-9.69289e-16 -2.14511 1.4454)
(-9.6887e-16 -2.25509 1.53409)
(-9.57131e-16 -2.0473 1.4639)
(-9.12316e-16 -1.39515 1.09742)
(-8.29903e-16 -0.617017 0.546063)
(-7.7389e-16 -0.409038 0.341702)
(-7.738e-16 -0.605971 0.403489)