/*--------------------------------*- C++ -*----------------------------------*\
| =========                 |                                                 |
| \\      /  F ield         | OpenFOAM: The Open Source CFD Toolbox           |
|  \\    /   O peration     | Version:  4.1                                   |
|   \\  /    A nd           | Web:      www.OpenFOAM.org                      |
|    \\/     M anipulation  |                                                 |
\*---------------------------------------------------------------------------*/
FoamFile
{
    version     2.0;
    format      ascii;
    class       volScalarField;
    location    "23";
    object      k;
}
// * * * * * * * * * * * * * * * * * * * * * * * * * * * * * * * * * * * * * //

dimensions      [0 2 -2 0 0 0 0];

internalField   nonuniform List<scalar> 
225
(
0.355263
2.44322e-12
1.5e-15
1.5e-15
1.5e-15
1.5e-15
1.5e-15
1.5e-15
1.5e-15
1.28281e-14
0.000849943
0.00504919
0.0190556
0.151138
1.15926
1.5e-15
1.5e-15
1.5e-15
0.00373277
1.5e-15
1.5e-15
1.5e-15
1.5e-15
1.5e-15
1.5e-15
1.5e-15
0.0733909
0.0633831
0.15302
0.721138
1.5e-15
0.42469
1.5e-15
0.00747663
0.0441033
0.0444263
0.0418692
0.0402827
0.0337446
0.0263368
0.0260437
0.00952629
0.00222253
0.153271
1.96485
1.3389
9.08153
1.5e-15
1.5e-15
1.5e-15
0.0235875
0.0384869
0.0396099
0.0372616
0.0422795
0.0449727
0.0958707
0.0396822
0.0611013
0.38556
14.2931
16.5949
8.60363
4.73372
3.92377
3.25076
2.75179
2.10423
1.64216
1.70925
2.10422
0.8974
0.450916
0.105209
1.5e-15
62.2858
9.75503
1.85316
1.73182
1.91964
1.1755
0.898183
0.895969
0.815869
0.557828
0.421345
0.285816
0.171319
0.0441503
0.119925
1.5e-15
3.27833
4.71371
1.38345
3.19227
4.08942
3.78195
3.38057
1.62061
0.66607
0.0821911
0.280819
0.431691
0.367736
1.5e-15
2.30371
10.7754
1.47416
1.5e-15
1.5e-15
0.845929
1.1456
2.03607
1.64326
0.599542
0.0963476
0.295617
0.521596
0.0941193
1.5e-15
1.5e-15
10.989
1.5e-15
1.5e-15
10.3389
9.52931
2.14565
1.93559
1.62155
0.183464
0.0538637
0.0231654
1.5e-15
1.5e-15
1.5e-15
1.5e-15
10.7215
2.84845
1.96077
1.95901
1.21103
0.817416
0.718981
1.10731
1.5e-15
1.5e-15
1.5e-15
1.5e-15
1.5e-15
16.0157
4.51475
3.79427
2.97042
2.01373
1.44766
1.05467
0.794228
0.637295
0.241608
1.5e-15
1.5e-15
1.5e-15
1.5e-15
1.5e-15
10.2968
1.5e-15
1.5e-15
1.5e-15
1.5e-15
1.5e-15
1.5e-15
1.5e-15
1.5e-15
1.5e-15
1.5e-15
1.5e-15
1.5e-15
1.5e-15
1.5e-15
0.0734833
1.5e-15
1.5e-15
6.27792
2.63195
4.75089
12.0236
1.5e-15
1.5e-15
1.5e-15
1.5e-15
1.5e-15
1.5e-15
1.5e-15
1.5e-15
1.5e-15
1.5e-15
1.5e-15
1.5e-15
1.5e-15
1.5e-15
1.5e-15
1.5e-15
1.5e-15
1.5e-15
1.5e-15
1.5e-15
1.5e-15
1.5e-15
1.5e-15
1.5e-15
14.0714
1.5e-15
1.5e-15
1.5e-15
1.5e-15
1.5e-15
1.5e-15
1.5e-15
1.5e-15
1.5e-15
1.5e-15
1.5e-15
1.5e-15
1.5e-15
1.5e-15
)
;

boundaryField
{
    inletFace
    {
        type            calculated;
        value           nonuniform List<scalar> 
450
(
0.355263
2.44322e-12
1.5e-15
1.5e-15
1.5e-15
1.5e-15
1.5e-15
1.5e-15
1.5e-15
1.28281e-14
0.000849943
0.00504919
0.0190556
0.151138
1.15926
1.5e-15
1.5e-15
1.5e-15
0.00373277
1.5e-15
1.5e-15
1.5e-15
1.5e-15
1.5e-15
1.5e-15
1.5e-15
0.0733909
0.0633831
0.15302
0.721138
1.5e-15
0.42469
1.5e-15
0.00747663
0.0441033
0.0444263
0.0418692
0.0402827
0.0337446
0.0263368
0.0260437
0.00952629
0.00222253
0.153271
1.96485
1.3389
9.08153
1.5e-15
1.5e-15
1.5e-15
0.0235875
0.0384869
0.0396099
0.0372616
0.0422795
0.0449727
0.0958707
0.0396822
0.0611013
0.38556
14.2931
16.5949
8.60363
4.73372
3.92377
3.25076
2.75179
2.10423
1.64216
1.70925
2.10422
0.8974
0.450916
0.105209
1.5e-15
62.2858
9.75503
1.85316
1.73182
1.91964
1.1755
0.898183
0.895969
0.815869
0.557828
0.421345
0.285816
0.171319
0.0441503
0.119925
1.5e-15
3.27833
4.71371
1.38345
3.19227
4.08942
3.78195
3.38057
1.62061
0.66607
0.0821911
0.280819
0.431691
0.367736
1.5e-15
2.30371
10.7754
1.47416
1.5e-15
1.5e-15
0.845929
1.1456
2.03607
1.64326
0.599542
0.0963476
0.295617
0.521596
0.0941193
1.5e-15
1.5e-15
10.989
1.5e-15
1.5e-15
10.3389
9.52931
2.14565
1.93559
1.62155
0.183464
0.0538637
0.0231654
1.5e-15
1.5e-15
1.5e-15
1.5e-15
10.7215
2.84845
1.96077
1.95901
1.21103
0.817416
0.718981
1.10731
1.5e-15
1.5e-15
1.5e-15
1.5e-15
1.5e-15
16.0157
4.51475
3.79427
2.97042
2.01373
1.44766
1.05467
0.794228
0.637295
0.241608
1.5e-15
1.5e-15
1.5e-15
1.5e-15
1.5e-15
10.2968
1.5e-15
1.5e-15
1.5e-15
1.5e-15
1.5e-15
1.5e-15
1.5e-15
1.5e-15
1.5e-15
1.5e-15
1.5e-15
1.5e-15
1.5e-15
1.5e-15
0.0734833
1.5e-15
1.5e-15
6.27792
2.63195
4.75089
12.0236
1.5e-15
1.5e-15
1.5e-15
1.5e-15
1.5e-15
1.5e-15
1.5e-15
1.5e-15
1.5e-15
1.5e-15
1.5e-15
1.5e-15
1.5e-15
1.5e-15
1.5e-15
1.5e-15
1.5e-15
1.5e-15
1.5e-15
1.5e-15
1.5e-15
1.5e-15
1.5e-15
1.5e-15
14.0714
1.5e-15
1.5e-15
1.5e-15
1.5e-15
1.5e-15
1.5e-15
1.5e-15
1.5e-15
1.5e-15
1.5e-15
1.5e-15
1.5e-15
1.5e-15
1.5e-15
0.355263
2.44322e-12
1.5e-15
1.5e-15
1.5e-15
1.5e-15
1.5e-15
1.5e-15
1.5e-15
1.28281e-14
0.000849943
0.00504919
0.0190556
0.151138
1.15926
1.5e-15
1.5e-15
1.5e-15
0.00373277
1.5e-15
1.5e-15
1.5e-15
1.5e-15
1.5e-15
1.5e-15
1.5e-15
0.0733909
0.0633831
0.15302
0.721138
1.5e-15
0.42469
1.5e-15
0.00747663
0.0441033
0.0444263
0.0418692
0.0402827
0.0337446
0.0263368
0.0260437
0.00952629
0.00222253
0.153271
1.96485
1.3389
9.08153
1.5e-15
1.5e-15
1.5e-15
0.0235875
0.0384869
0.0396099
0.0372616
0.0422795
0.0449727
0.0958707
0.0396822
0.0611013
0.38556
14.2931
16.5949
8.60363
4.73372
3.92377
3.25076
2.75179
2.10423
1.64216
1.70925
2.10422
0.8974
0.450916
0.105209
1.5e-15
62.2858
9.75503
1.85316
1.73182
1.91964
1.1755
0.898183
0.895969
0.815869
0.557828
0.421345
0.285816
0.171319
0.0441503
0.119925
1.5e-15
3.27833
4.71371
1.38345
3.19227
4.08942
3.78195
3.38057
1.62061
0.66607
0.0821911
0.280819
0.431691
0.367736
1.5e-15
2.30371
10.7754
1.47416
1.5e-15
1.5e-15
0.845929
1.1456
2.03607
1.64326
0.599542
0.0963476
0.295617
0.521596
0.0941193
1.5e-15
1.5e-15
10.989
1.5e-15
1.5e-15
10.3389
9.52931
2.14565
1.93559
1.62155
0.183464
0.0538637
0.0231654
1.5e-15
1.5e-15
1.5e-15
1.5e-15
10.7215
2.84845
1.96077
1.95901
1.21103
0.817416
0.718981
1.10731
1.5e-15
1.5e-15
1.5e-15
1.5e-15
1.5e-15
16.0157
4.51475
3.79427
2.97042
2.01373
1.44766
1.05467
0.794228
0.637295
0.241608
1.5e-15
1.5e-15
1.5e-15
1.5e-15
1.5e-15
10.2968
1.5e-15
1.5e-15
1.5e-15
1.5e-15
1.5e-15
1.5e-15
1.5e-15
1.5e-15
1.5e-15
1.5e-15
1.5e-15
1.5e-15
1.5e-15
1.5e-15
0.0734833
1.5e-15
1.5e-15
6.27792
2.63195
4.75089
12.0236
1.5e-15
1.5e-15
1.5e-15
1.5e-15
1.5e-15
1.5e-15
1.5e-15
1.5e-15
1.5e-15
1.5e-15
1.5e-15
1.5e-15
1.5e-15
1.5e-15
1.5e-15
1.5e-15
1.5e-15
1.5e-15
1.5e-15
1.5e-15
1.5e-15
1.5e-15
1.5e-15
1.5e-15
14.0714
1.5e-15
1.5e-15
1.5e-15
1.5e-15
1.5e-15
1.5e-15
1.5e-15
1.5e-15
1.5e-15
1.5e-15
1.5e-15
1.5e-15
1.5e-15
1.5e-15
)
;
    }
    inlet
    {
        type            calculated;
        value           uniform 0.648;
    }
    inletWalls
    {
        type            calculated;
        value           nonuniform List<scalar> 
30
(
1.15926
0.721138
1.96485
0.38556
1.5e-15
0.119925
1.5e-15
1.5e-15
1.5e-15
16.0157
10.2968
0.0734833
1.5e-15
1.5e-15
1.5e-15
14.0714
1.5e-15
1.5e-15
1.5e-15
4.51475
1.5e-15
1.5e-15
2.30371
1.5e-15
62.2858
14.2931
1.3389
1.5e-15
1.5e-15
0.355263
)
;
    }
    outletInlet
    {
        type            calculated;
        value           nonuniform List<scalar> 
15
(
1.5e-15
1.5e-15
1.5e-15
1.5e-15
1.5e-15
1.5e-15
1.5e-15
1.5e-15
1.5e-15
1.5e-15
1.5e-15
1.5e-15
1.5e-15
1.5e-15
14.0714
)
;
    }
}


// ************************************************************************* //
