/*--------------------------------*- C++ -*----------------------------------*\
| =========                 |                                                 |
| \\      /  F ield         | OpenFOAM: The Open Source CFD Toolbox           |
|  \\    /   O peration     | Version:  4.1                                   |
|   \\  /    A nd           | Web:      www.OpenFOAM.org                      |
|    \\/     M anipulation  |                                                 |
\*---------------------------------------------------------------------------*/
FoamFile
{
    version     2.0;
    format      ascii;
    class       volScalarField;
    location    "23";
    object      p;
}
// * * * * * * * * * * * * * * * * * * * * * * * * * * * * * * * * * * * * * //

dimensions      [0 2 -2 0 0 0 0];

internalField   nonuniform List<scalar> 
225
(
587.996
534.637
483.052
434.597
389.698
347.666
308.293
271.252
236.106
202.709
171.765
143.491
113.928
78.4077
49.5263
122.506
100.321
94.7576
91.1596
85.8031
80.0819
74.8597
70.4536
66.9982
64.5521
63.3203
63.7355
65.7593
67.4763
67.8693
24.8105
18.3573
23.9958
28.1877
30.9468
34.21
37.9946
41.911
45.6905
49.162
52.2731
55.259
58.387
60.7845
61.3844
74.0719
73.2071
78.8825
78.4259
78.1427
78.3949
78.1045
77.2476
76.3107
75.6114
75.0273
74.2694
73.5906
73.7984
73.8641
107.221
102.889
106.96
104.945
99.8655
95.5012
92.1602
89.3785
87.0745
84.9531
83.0581
81.9047
81.2025
80.8662
80.919
55.399
61.1554
72.5181
71.9991
66.7888
65.0198
65.5393
65.8169
65.4452
64.8681
64.3649
64.3098
64.3666
63.4263
62.522
21.3003
20.483
23.1552
23.2674
22.9489
25.8947
30.8029
34.1493
35.774
37.1512
38.2257
38.5798
38.4895
38.0989
37.2522
3.33734
4.22089
8.86107
10.8892
13.1524
15.7489
18.2271
19.7128
20.3996
21.3045
22.0411
22.3977
22.9815
23.5469
23.3439
18.1286
14.2049
16.4737
16.0502
14.0777
14.319
16.4028
16.8352
16.3988
16.4637
16.1838
15.3754
14.0296
11.6528
13.4561
42.8728
35.4591
36.1547
37.841
35.4534
32.8601
31.2891
29.1378
27.215
26.384
25.3073
23.3094
21.5669
16.3295
14.2314
50.8024
47.0127
46.5335
47.2876
45.8265
44.3194
44.1676
44.251
44.197
44.2888
44.4444
44.9215
47.5217
48.3111
47.7257
40.9689
41.9377
40.6202
39.9557
39.8283
41.1969
42.4017
42.9405
43.4143
43.9944
45.2598
46.9204
49.2274
49.4702
49.5277
39.5563
37.5712
33.4936
33.509
33.8709
32.6309
36.1899
39.1234
39.5436
40.2056
40.9309
40.9996
41.4543
40.2506
39.7059
39.2734
38.575
37.7841
38.5676
38.6902
35.3928
34.8849
35.2572
34.4451
33.7695
32.9123
31.3944
30.2145
27.4919
26.1387
20.396
22.8384
24.9408
23.4819
22.1394
19.7375
18.6163
17.9144
16.2423
14.8848
13.8043
11.9853
10.3589
7.59574
6.28354
)
;

boundaryField
{
    inletFace
    {
        type            zeroGradient;
    }
    inlet
    {
        type            zeroGradient;
    }
    inletWalls
    {
        type            zeroGradient;
    }
    outletInlet
    {
        type            fixedValue;
        value           uniform 0;
    }
}


// ************************************************************************* //
