/*--------------------------------*- C++ -*----------------------------------*\
| =========                 |                                                 |
| \\      /  F ield         | OpenFOAM: The Open Source CFD Toolbox           |
|  \\    /   O peration     | Version:  4.1                                   |
|   \\  /    A nd           | Web:      www.OpenFOAM.org                      |
|    \\/     M anipulation  |                                                 |
\*---------------------------------------------------------------------------*/
FoamFile
{
    version     2.0;
    format      ascii;
    class       surfaceScalarField;
    location    "23";
    object      phi;
}
// * * * * * * * * * * * * * * * * * * * * * * * * * * * * * * * * * * * * * //

dimensions      [0 3 -1 0 0 0 0];

internalField   nonuniform List<scalar> 
420
(
-948.695
2248.59
-1563.08
1914.58
-2045.52
1782.35
-2414.72
1669.09
-2688.81
1574.28
-2875.42
1486.51
-2977.96
1402.44
-2996.72
1318.96
-2930.96
1234.14
-2777.93
1146.86
-2532.63
1054.9
-2176.99
944.266
-1676.44
799.341
-1034.6
658.357
265.304
384.387
1864.19
459.603
1839.35
463.815
1778.12
435.703
1697.19
415.019
1594.95
400.723
1500.79
391.281
1411.86
388.31
1321.91
390.317
1232.12
391.432
1145.73
381.476
1064.84
341.929
983.794
257.279
883.968
154.117
761.497
419.421
48.6495
1815.53
-40.3997
1928.38
-177.223
1914.93
-256.648
1776.6
-323.329
1661.61
-389.322
1566.77
-446.811
1469.33
-493.106
1368.19
-528.467
1267.46
-551.027
1168.27
-561.366
1075.16
-555.54
977.92
-503.965
832.335
-287.059
544.532
132.361
211.398
1604.12
221.49
1918.28
103.043
2033.36
12.9522
1866.67
-41.7919
1716.34
-69.2027
1594.16
-80.2966
1480.41
-87.1832
1375.05
-86.7102
1266.96
-79.5989
1161.14
-60.0376
1055.58
-23.9872
941.86
12.5869
795.747
45.2961
511.81
177.657
475.874
1128.24
1207.03
1187.12
1522.99
1717.4
1495.35
1894.31
1368.42
1843.27
1245
1717.58
1139.36
1586.04
1040.07
1474.35
940.253
1366.77
838.269
1263.12
739.856
1154
641.632
1040.06
515.387
921.967
282.816
744.355
460.474
369.519
758.715
1237.2
319.428
1819.47
1135.12
1987.2
1726.58
1865.72
1964.75
1638.34
1944.95
1423.86
1800.52
1231.41
1666.8
1056.22
1541.97
896.728
1422.62
735.734
1315
569.345
1206.49
402.589
1088.77
195.076
951.918
655.55
-264.964
1023.68
297.884
-243.423
779.952
653.052
962.729
1543.81
927.822
1999.66
783.887
2088.89
638.47
1945.94
504.218
1801.06
390.328
1655.87
294.326
1518.62
195.344
1413.98
93.6097
1308.22
2.39881
1179.98
-52.9065
1007.22
602.644
-97.652
1121.32
-61.5489
-279.541
-4.72721
596.227
-64.1569
1603.23
-134.15
2069.66
-181.992
2136.73
-225.134
1989.09
-272.62
1848.55
-304.385
1687.64
-340.71
1554.96
-395.163
1468.44
-457.066
1370.14
-525.377
1248.31
-523.622
1005.49
79.0222
82.3504
1038.98
-395.687
198.508
-454.128
654.672
-481.8
1630.91
-467.253
2055.11
-409.143
2078.62
-360.022
1939.97
-327.616
1816.15
-289.237
1649.26
-249.662
1515.38
-210.444
1429.23
-164.013
1323.7
-75.3476
1159.63
-96.2222
1026.35
-17.1997
367.364
671.615
3.37367
562.5
101.347
556.701
280.222
1452.03
382.222
1953.11
415.286
2045.56
430.985
1924.27
464.43
1782.7
503.633
1610.06
566.521
1452.5
656.07
1339.68
742.636
1237.15
857.235
1045.05
731.182
1152.42
713.983
488.272
183.358
406.181
644.608
377.62
585.278
635.645
1194.02
805.117
1783.65
836.208
2014.48
788.735
1971.75
747.439
1824.01
703.619
1653.88
661.872
1494.25
628.184
1373.37
570.11
1295.22
484.542
1130.62
295.823
1341.13
1009.81
239.944
-56.5694
337.046
547.522
300.686
621.653
411.717
1083
478.397
1716.98
497.755
1995.13
481.351
1988.16
422.694
1882.67
361.784
1714.8
295.931
1560.11
229.198
1440.12
156.387
1368.06
72.7162
1214.31
-26.487
1440.36
983.318
-204.009
147.472
26.9409
316.612
126.517
522.104
209.221
1000.31
279.301
1646.91
336.599
1937.84
356.345
1968.42
300.744
1938.28
232.509
1783.05
166.74
1625.89
111.184
1495.68
62.1683
1417.08
7.86294
1268.62
-44.3495
1492.57
938.969
-133.561
281.071
114.312
68.7782
296.544
339.893
446.333
850.527
601.315
1491.93
639.189
1899.97
579.476
2028.14
490.82
2026.94
383.852
1890.02
281.029
1728.72
194.732
1581.98
125.123
1486.7
51.8673
1341.89
8.77227
1535.68
947.741
74.2067
473.799
543.334
564.492
615.127
606.737
536.554
442.56
338.002
245.759
164.941
98.5711
20.6881
-18.6668
)
;

boundaryField
{
    inletFace
    {
        type            calculated;
        value           nonuniform List<scalar> 
450
(
-6.38012e-11
5.75997e-11
9.31689e-12
2.6778e-12
5.98281e-13
7.63262e-13
2.42955e-12
5.31933e-12
1.02496e-11
1.97986e-11
3.54134e-11
4.81442e-11
4.79463e-11
3.08126e-12
-1.80287e-10
4.02883e-10
-3.03904e-10
-1.02459e-10
-3.29234e-11
-5.72482e-12
2.80302e-12
4.38238e-12
6.23895e-12
1.15038e-11
3.55152e-11
-4.16139e-11
-1.65861e-10
-5.03113e-10
-7.64552e-10
2.0755e-09
-1.91743e-09
2.10877e-09
-4.83904e-11
7.82303e-11
4.20459e-12
-5.98543e-12
-4.67544e-13
9.1689e-12
1.7468e-11
-8.26819e-12
-1.62293e-10
-3.78673e-10
-4.81318e-10
2.15727e-10
2.47359e-09
-6.06548e-09
5.66544e-09
-6.65682e-11
-4.31278e-10
-5.61768e-11
3.2541e-11
3.03419e-11
2.20133e-11
1.70125e-11
-4.12771e-11
-2.30145e-10
-4.49099e-10
-4.6508e-10
-1.19127e-10
3.5387e-09
-1.07663e-08
5.90421e-09
4.37362e-09
1.47688e-09
1.70859e-10
-1.29803e-10
-9.47823e-11
-2.22977e-11
1.43271e-11
-1.19088e-11
-1.5036e-10
-3.64927e-10
-4.76425e-10
-5.97086e-10
1.93233e-09
-2.19214e-08
5.34417e-11
3.56825e-09
2.81592e-09
1.42734e-09
4.57119e-10
3.29672e-11
-5.50873e-11
-2.59241e-11
-4.00033e-12
-6.69934e-11
-2.4008e-10
-4.03581e-10
-4.96475e-10
7.57313e-10
-1.64095e-08
5.1158e-08
2.27099e-08
7.81118e-09
2.65084e-09
8.88027e-10
1.96344e-10
-3.62594e-11
-5.05471e-11
-1.11388e-11
-3.07713e-11
-1.77061e-10
-3.8293e-10
-4.57353e-10
4.17013e-10
-1.37798e-08
7.29477e-08
3.14032e-08
9.80904e-09
3.0041e-09
9.55363e-10
2.1195e-10
-3.80517e-11
-4.86023e-11
-7.30611e-12
-5.15131e-11
-2.21858e-10
-3.52598e-10
-1.70148e-10
2.41068e-10
-2.3053e-08
3.77183e-08
2.68213e-08
7.43463e-09
2.51393e-09
8.26415e-10
1.59881e-10
-4.21197e-11
-3.11446e-11
-7.22461e-12
-8.98184e-11
-2.63328e-10
-3.24291e-10
-7.04403e-11
1.25676e-10
-2.59802e-08
1.42028e-09
2.83752e-08
9.50038e-09
2.51875e-09
7.76242e-10
2.27217e-10
9.29089e-12
-7.89873e-12
9.32812e-12
-6.13435e-11
-2.0743e-10
-3.03789e-10
-1.54521e-10
-7.93181e-11
-1.78079e-08
-1.77138e-08
1.01992e-08
1.22517e-08
5.16293e-09
1.43548e-09
3.04319e-10
2.3835e-11
-1.44586e-11
5.50525e-12
-2.83499e-11
-1.38408e-10
-2.57888e-10
-1.97077e-10
-1.41019e-10
-6.30092e-09
-1.88939e-08
-4.60729e-09
9.90584e-09
7.32573e-09
2.57846e-09
5.51576e-10
3.39065e-11
-3.20814e-11
-4.69534e-12
-1.58005e-11
-1.0667e-10
-2.32593e-10
-1.95382e-10
-1.63529e-10
-1.34752e-08
-1.78632e-08
-8.7688e-09
7.7626e-09
8.2541e-09
3.30558e-09
7.26716e-10
6.19472e-11
-3.26408e-11
-1.19633e-11
-1.35977e-11
-9.49847e-11
-2.20295e-10
-1.95752e-10
-1.52918e-10
-1.38954e-08
-1.68499e-08
-1.29852e-08
2.82648e-09
8.94996e-09
5.21151e-09
1.37335e-09
4.13541e-11
-9.04298e-11
-2.46339e-11
-1.04484e-11
-8.4253e-11
-2.08504e-10
-1.96986e-10
-1.44176e-10
-8.05716e-09
-1.00733e-08
-1.25198e-08
-6.54509e-09
3.97282e-09
6.19296e-09
3.17122e-09
6.88611e-10
-6.04074e-11
-7.18008e-11
-2.03635e-11
-7.25188e-11
-1.92661e-10
-1.95225e-10
-1.27395e-10
6.38012e-11
-5.75997e-11
-9.31689e-12
-2.6778e-12
-5.98281e-13
-7.63262e-13
-2.42955e-12
-5.31933e-12
-1.02496e-11
-1.97986e-11
-3.54134e-11
-4.81442e-11
-4.79463e-11
-3.08126e-12
1.80287e-10
-4.02883e-10
3.03904e-10
1.02459e-10
3.29234e-11
5.72482e-12
-2.80302e-12
-4.38238e-12
-6.23895e-12
-1.15038e-11
-3.55152e-11
4.16139e-11
1.65861e-10
5.03113e-10
7.64552e-10
-2.0755e-09
1.91743e-09
-2.10877e-09
4.83904e-11
-7.82303e-11
-4.20459e-12
5.98543e-12
4.67544e-13
-9.1689e-12
-1.7468e-11
8.26819e-12
1.62293e-10
3.78673e-10
4.81318e-10
-2.15727e-10
-2.47359e-09
6.06548e-09
-5.66544e-09
6.65682e-11
4.31278e-10
5.61768e-11
-3.2541e-11
-3.03419e-11
-2.20133e-11
-1.70125e-11
4.12771e-11
2.30145e-10
4.49099e-10
4.6508e-10
1.19127e-10
-3.5387e-09
1.07663e-08
-5.90421e-09
-4.37362e-09
-1.47688e-09
-1.70859e-10
1.29803e-10
9.47823e-11
2.22977e-11
-1.43271e-11
1.19088e-11
1.5036e-10
3.64927e-10
4.76425e-10
5.97086e-10
-1.93233e-09
2.19214e-08
-5.34417e-11
-3.56825e-09
-2.81592e-09
-1.42734e-09
-4.57119e-10
-3.29672e-11
5.50873e-11
2.59241e-11
4.00033e-12
6.69934e-11
2.4008e-10
4.03581e-10
4.96475e-10
-7.57313e-10
1.64095e-08
-5.1158e-08
-2.27099e-08
-7.81118e-09
-2.65084e-09
-8.88027e-10
-1.96344e-10
3.62594e-11
5.05471e-11
1.11388e-11
3.07713e-11
1.77061e-10
3.8293e-10
4.57353e-10
-4.17013e-10
1.37798e-08
-7.29477e-08
-3.14032e-08
-9.80904e-09
-3.0041e-09
-9.55363e-10
-2.1195e-10
3.80517e-11
4.86023e-11
7.30611e-12
5.15131e-11
2.21858e-10
3.52598e-10
1.70148e-10
-2.41068e-10
2.3053e-08
-3.77183e-08
-2.68213e-08
-7.43463e-09
-2.51393e-09
-8.26415e-10
-1.59881e-10
4.21197e-11
3.11446e-11
7.22461e-12
8.98184e-11
2.63328e-10
3.24291e-10
7.04403e-11
-1.25676e-10
2.59802e-08
-1.42028e-09
-2.83752e-08
-9.50038e-09
-2.51875e-09
-7.76242e-10
-2.27217e-10
-9.29089e-12
7.89873e-12
-9.32812e-12
6.13435e-11
2.0743e-10
3.03789e-10
1.54521e-10
7.93181e-11
1.78079e-08
1.77138e-08
-1.01992e-08
-1.22517e-08
-5.16293e-09
-1.43548e-09
-3.04319e-10
-2.3835e-11
1.44586e-11
-5.50525e-12
2.83499e-11
1.38408e-10
2.57888e-10
1.97077e-10
1.41019e-10
6.30092e-09
1.88939e-08
4.60729e-09
-9.90584e-09
-7.32573e-09
-2.57846e-09
-5.51576e-10
-3.39065e-11
3.20814e-11
4.69534e-12
1.58005e-11
1.0667e-10
2.32593e-10
1.95382e-10
1.63529e-10
1.34752e-08
1.78632e-08
8.7688e-09
-7.7626e-09
-8.2541e-09
-3.30558e-09
-7.26716e-10
-6.19472e-11
3.26408e-11
1.19633e-11
1.35977e-11
9.49847e-11
2.20295e-10
1.95752e-10
1.52918e-10
1.38954e-08
1.68499e-08
1.29852e-08
-2.82648e-09
-8.94996e-09
-5.21151e-09
-1.37335e-09
-4.13541e-11
9.04298e-11
2.46339e-11
1.04484e-11
8.4253e-11
2.08504e-10
1.96986e-10
1.44176e-10
8.05716e-09
1.00733e-08
1.25198e-08
6.54509e-09
-3.97282e-09
-6.19296e-09
-3.17122e-09
-6.88611e-10
6.04074e-11
7.18008e-11
2.03635e-11
7.25188e-11
1.92661e-10
1.95225e-10
1.27395e-10
)
;
    }
    inlet
    {
        type            calculated;
        value           nonuniform List<scalar> 
15
(
-1299.9
-1300.2
-1299.9
-1299.9
-1300.2
-1299.9
-1299.9
-1300.2
-1299.9
-1299.9
-1300.2
-1299.9
-1299.9
-1300.2
-1299.9
)
;
    }
    inletWalls
    {
        type            calculated;
        value           uniform 0;
    }
    outletInlet
    {
        type            calculated;
        value           nonuniform List<scalar> 
15
(
929.074
1575.01
1419.74
1553.05
1662.79
1820.95
1994.56
2120.92
2098.31
1908.35
1441.28
829.357
270.332
-330.828
206.852
)
;
    }
}


// ************************************************************************* //
