/*--------------------------------*- C++ -*----------------------------------*\
| =========                 |                                                 |
| \\      /  F ield         | OpenFOAM: The Open Source CFD Toolbox           |
|  \\    /   O peration     | Version:  4.1                                   |
|   \\  /    A nd           | Web:      www.OpenFOAM.org                      |
|    \\/     M anipulation  |                                                 |
\*---------------------------------------------------------------------------*/
FoamFile
{
    version     2.0;
    format      ascii;
    class       surfaceScalarField;
    location    "13";
    object      phi;
}
// * * * * * * * * * * * * * * * * * * * * * * * * * * * * * * * * * * * * * //

dimensions      [0 3 -1 0 0 0 0];

internalField   nonuniform List<scalar> 
13220
(
-7.33244e+55
7.65929e+55
-9.91927e+55
2.76865e+55
-8.89439e+54
-8.83873e+55
1.05608e+56
-1.1298e+56
2.0304e+56
-9.56331e+55
2.79623e+56
-7.52097e+55
3.20543e+56
-3.93416e+55
3.17642e+56
4.24263e+54
2.95752e+56
2.33662e+55
2.6755e+56
2.96491e+55
2.31174e+56
3.8176e+55
1.87579e+56
4.48391e+55
1.35293e+56
5.47032e+55
7.37744e+55
6.52245e+55
7.38613e+55
-2.23499e+55
1.0146e+56
8.90964e+54
-1.86011e+54
1.7051e+55
-9.45915e+55
-2.21852e+55
-7.2334e+55
-8.67516e+55
-2.93388e+55
-1.60096e+56
-5.88155e+53
-2.20745e+56
2.29368e+55
-2.60856e+56
4.57166e+55
-2.73026e+56
3.7534e+55
-2.59156e+56
1.77302e+55
-2.22751e+56
3.37687e+54
-1.65439e+56
-9.27356e+54
-1.04461e+56
-2.82271e+54
-6.05346e+55
2.68868e+55
1.32869e+55
-7.24167e+54
1.11693e+56
5.27126e+54
-1.2406e+55
-8.05632e+55
-6.51031e+54
-1.79751e+56
2.8402e+55
-2.68198e+56
6.10799e+55
-3.404e+56
7.33204e+55
-3.73889e+56
5.8985e+55
-3.59535e+56
3.3086e+55
-3.22759e+56
2.84197e+54
-2.74943e+56
-2.98304e+55
-2.01355e+56
-6.83056e+55
-1.09003e+56
-1.05265e+56
-1.7616e+55
-9.64649e+55
2.5939e+55
-1.9111e+55
3.96067e+55
-2.8421e+55
1.44826e+56
-1.30601e+56
9.30528e+55
-2.16486e+56
8.33982e+55
-2.57852e+56
7.28346e+55
-2.51902e+56
5.95283e+55
-2.12779e+56
3.73924e+55
-1.63576e+56
1.43604e+55
-1.25141e+56
-2.53313e+54
-1.08983e+56
-9.6528e+54
-1.2144e+56
-1.43427e+55
-1.38831e+56
-4.90711e+55
-1.37025e+56
-1.00163e+56
-1.03873e+56
-1.16883e+56
-2.21411e+55
-7.11072e+55
1.81263e+55
-3.00699e+54
1.55309e+56
-6.02019e+55
1.56252e+56
-9.66704e+55
1.28377e+56
-1.14156e+56
9.83229e+55
-1.08413e+56
6.47102e+55
-9.43341e+55
3.22596e+55
-7.94812e+55
9.45505e+54
-6.55451e+55
-8.55388e+54
-5.39574e+55
-1.34388e+55
-4.34614e+55
-1.85718e+55
-4.65572e+55
-3.94431e+55
-1.09859e+56
-3.43467e+55
-1.443e+56
-7.18012e+55
-8.64441e+55
-9.78952e+55
-6.74862e+55
7.05216e+55
9.7981e+55
9.92357e+55
1.35672e+56
1.12258e+56
1.26033e+56
1.16583e+56
1.0434e+56
1.15772e+56
7.94097e+55
1.03112e+56
5.70163e+55
9.37357e+55
3.54921e+55
9.45425e+55
4.00693e+54
1.05644e+56
-7.34949e+54
8.87391e+55
1.40828e+55
4.23012e+55
1.6712e+55
2.00224e+55
1.69813e+54
9.39303e+53
-3.70938e+55
-3.09495e+54
-6.64084e+55
-7.02381e+55
4.16761e+55
8.35852e+55
8.73092e+55
1.05652e+56
1.21607e+56
1.0937e+56
1.45814e+56
9.79064e+55
1.58655e+56
8.92073e+55
1.62711e+56
7.52077e+55
1.81502e+56
4.47422e+55
1.57223e+56
5.25752e+55
9.4327e+55
7.18614e+55
7.77987e+54
1.11389e+56
-4.93863e+55
8.10568e+55
-2.68969e+55
-1.24942e+55
3.13113e+55
-7.95944e+55
4.79753e+55
-5.85661e+55
-2.19165e+55
1.66719e+55
1.33245e+56
3.42489e+55
1.27676e+56
7.50493e+55
1.10456e+56
1.31532e+56
8.20056e+55
1.83953e+56
1.07796e+56
1.75033e+56
1.32194e+56
9.81142e+55
1.39223e+56
-2.04439e+55
1.81833e+56
-1.35115e+56
1.98123e+56
-1.88983e+56
1.72602e+56
-1.70426e+56
6.84498e+55
-4.38655e+55
-1.27207e+56
1.31281e+56
-2.29925e+56
2.14854e+56
-1.11845e+56
1.93772e+56
-1.10867e+56
3.43478e+56
-2.23822e+56
2.91906e+56
-2.85207e+56
2.08735e+56
-3.21145e+56
1.34672e+56
-3.55834e+56
1.60129e+56
-4.18427e+56
2.04177e+56
-5.19601e+56
2.52363e+56
-6.11467e+56
2.82103e+56
-6.73399e+56
2.70624e+56
-7.01751e+56
2.0972e+56
-6.93543e+56
7.49959e+55
-4.02875e+56
-1.42611e+56
-1.80201e+56
-1.47492e+56
-2.84321e+55
-1.50789e+56
1.64544e+56
5.69205e+55
4.65076e+56
-1.25208e+55
4.48078e+56
-5.71474e+55
3.10754e+56
-1.31698e+56
2.26183e+56
-1.83986e+56
2.35236e+56
-2.35219e+56
2.62979e+56
-2.58075e+56
2.89394e+56
-2.71601e+56
3.0007e+56
-2.83969e+56
2.92703e+56
-3.3779e+56
2.57219e+56
-4.11033e+56
1.67221e+56
-7.56124e+56
1.37717e+56
-9.80993e+56
3.18665e+55
-7.83339e+56
-4.11563e+56
-6.17836e+56
4.05158e+55
5.52493e+56
-4.93981e+54
5.50585e+56
-5.73253e+55
4.02986e+56
-1.64383e+56
3.38432e+56
-2.22748e+56
3.11436e+56
-2.48172e+56
2.87882e+56
-2.14724e+56
2.63264e+56
-1.54413e+56
2.40689e+56
-8.68194e+55
2.25025e+56
-1.70813e+55
2.10559e+56
-5.79517e+55
1.94072e+56
1.22018e+56
2.7936e+56
-3.6505e+54
2.52688e+56
-2.41852e+56
-1.22031e+56
-8.61189e+56
-2.48217e+56
9.37298e+56
-4.3776e+56
7.56855e+56
-5.98098e+56
6.03259e+56
-7.36085e+56
4.71882e+56
-7.17435e+56
3.1573e+56
-6.22868e+56
1.77856e+56
-4.1818e+56
6.69963e+55
-1.89755e+56
-8.61095e+54
8.16471e+55
-4.4827e+55
3.09566e+56
-5.27671e+55
5.54201e+56
-3.70961e+55
6.62897e+56
-1.52593e+54
6.49973e+56
6.07099e+55
2.63282e+56
9.64671e+55
-5.95366e+56
-7.30155e+56
1.6638e+57
-6.07745e+56
6.06538e+56
-6.75709e+55
5.49923e+55
7.76068e+56
-4.07828e+56
1.74549e+57
-6.7437e+56
2.68922e+57
-8.02887e+56
3.55704e+57
-8.17772e+56
4.26574e+57
-7.41547e+56
4.78024e+57
-5.75693e+56
5.07834e+57
-3.25583e+56
4.99402e+57
5.94952e+54
4.74833e+57
4.17736e+56
4.05028e+57
9.01961e+56
2.71944e+57
1.57905e+57
2.11942e+57
2.78903e+57
-1.25922e+57
5.63564e+57
-2.39161e+57
7.60588e+57
-1.98984e+57
8.96105e+57
-1.89147e+57
9.94661e+57
-1.7374e+57
1.06026e+58
-1.57633e+57
1.10133e+58
-1.31192e+57
1.1205e+58
-1.04603e+57
1.11856e+58
-6.33566e+56
1.09339e+58
-2.23943e+56
1.05241e+58
3.66003e+56
9.53857e+57
1.09633e+57
7.95574e+57
2.18632e+57
4.80448e+57
4.43147e+57
6.91932e+57
-1.30835e+58
-1.83198e+58
-2.23932e+58
-2.46747e+58
-2.69225e+58
-2.80084e+58
-2.90486e+58
-2.91911e+58
-2.87642e+58
-2.79272e+58
-2.58242e+58
-2.34699e+58
-1.94407e+58
-1.39033e+58
-8.85333e+55
-2.39774e+58
2.38676e+58
-2.40056e+58
-2.4041e+58
-2.40531e+58
-3.92095e+57
-2.01441e+58
-3.93219e+57
-3.95052e+57
-3.95272e+57
1.82619e+58
-2.22231e+58
1.82582e+58
1.82504e+58
4.41076e+58
-2.58571e+58
4.40998e+58
4.40981e+58
4.4091e+58
7.11139e+58
-2.7023e+58
7.11078e+58
7.1109e+58
9.67822e+58
-2.56791e+58
9.67825e+58
9.67754e+58
9.67767e+58
1.20411e+59
-2.36403e+58
1.2041e+59
1.20404e+59
1.20405e+59
1.41534e+59
-2.11338e+58
1.41532e+59
1.41527e+59
1.59649e+59
-1.81222e+58
1.59643e+59
1.59642e+59
1.59636e+59
1.75431e+59
-1.57943e+58
1.75424e+59
1.75425e+59
1.88526e+59
-1.31078e+58
1.88527e+59
1.8852e+59
1.88521e+59
1.99754e+59
-1.12402e+58
1.99756e+59
1.99748e+59
1.99752e+59
2.09288e+59
-9.54483e+57
2.0929e+59
2.0928e+59
2.16855e+59
-7.57018e+57
2.16843e+59
2.16847e+59
2.16836e+59
2.23248e+59
-6.4072e+57
2.23234e+59
2.23239e+59
2.23223e+59
2.28595e+59
-5.36705e+57
2.2858e+59
2.28586e+59
2.32588e+59
-4.01827e+57
2.3259e+59
2.32572e+59
2.32578e+59
2.36027e+59
-3.46875e+57
2.36024e+59
2.36003e+59
2.38492e+59
-2.4825e+57
2.38466e+59
2.38468e+59
2.38444e+59
2.40723e+59
-2.26948e+57
2.40694e+59
2.40701e+59
2.40668e+59
2.42783e+59
-2.09704e+57
2.42747e+59
2.42788e+59
2.44765e+59
-2.00525e+57
2.44813e+59
2.448e+59
2.43853e+59
2.41545e+59
2.39802e+59
2.35492e+59
3.00683e+57
2.34681e+59
2.34279e+59
2.34016e+59
2.33768e+59
2.33557e+59
2.33376e+59
2.33231e+59
2.32943e+59
2.29381e+59
3.23107e+57
2.28884e+59
2.28494e+59
2.28185e+59
2.27886e+59
2.27636e+59
2.27413e+59
2.27236e+59
2.27005e+59
2.22405e+59
4.29559e+57
2.21958e+59
2.21594e+59
2.21297e+59
2.21042e+59
2.20813e+59
2.20615e+59
2.20437e+59
2.203e+59
2.20117e+59
2.14588e+59
5.29065e+57
2.14234e+59
2.13963e+59
2.13749e+59
2.13584e+59
2.13432e+59
2.13313e+59
2.13221e+59
2.13097e+59
2.06626e+59
6.29697e+57
2.06352e+59
2.0615e+59
2.06021e+59
2.05923e+59
2.05871e+59
2.05833e+59
2.05835e+59
2.05805e+59
1.98508e+59
7.21129e+57
1.98318e+59
1.98195e+59
1.98142e+59
1.98141e+59
1.98197e+59
1.98272e+59
1.98391e+59
1.98465e+59
1.90501e+59
7.99755e+57
1.90436e+59
1.90465e+59
1.90556e+59
1.90691e+59
1.90872e+59
1.91174e+59
1.91553e+59
1.91978e+59
1.92369e+59
1.84325e+59
8.35535e+57
1.84533e+59
1.84885e+59
1.85364e+59
1.85916e+59
1.86625e+59
1.87741e+59
1.89913e+59
1.92188e+59
1.87644e+59
6.70524e+57
1.89582e+59
1.92064e+59
1.92049e+59
1.86631e+59
5.44005e+57
1.79932e+59
6.66209e+57
1.79934e+59
1.74029e+59
5.86744e+57
1.74026e+59
1.68938e+59
5.05148e+57
1.62922e+59
6.00922e+57
1.62892e+59
1.57736e+59
5.13674e+57
1.51849e+59
5.85722e+57
1.51836e+59
1.49249e+59
2.56382e+57
1.49236e+59
1.48799e+59
4.1272e+56
1.47428e+59
1.35988e+57
1.4741e+59
1.45988e+59
1.40935e+57
1.45973e+59
1.44911e+59
1.04553e+57
1.4278e+59
2.11839e+57
1.42769e+59
1.43265e+59
-5.09809e+56
1.46766e+59
-3.51104e+57
1.46757e+59
1.58548e+59
-1.18023e+58
1.58541e+59
1.81381e+59
-2.28524e+58
2.21744e+59
-4.03666e+58
2.21736e+59
2.5511e+59
-3.33754e+58
2.55103e+59
2.77226e+59
-2.21244e+58
2.92941e+59
-1.57241e+58
2.92943e+59
2.99302e+59
-6.36741e+57
3.00017e+59
-7.11026e+56
3.00013e+59
2.91767e+59
8.25092e+57
2.91761e+59
2.73287e+59
1.84797e+58
2.47668e+59
2.56121e+58
2.47673e+59
2.09616e+59
3.80509e+58
2.09623e+59
1.59437e+59
5.01839e+58
1.01115e+59
5.83326e+58
1.01115e+59
2.81729e+58
7.29581e+58
-5.55866e+58
8.37598e+58
-5.55703e+58
-1.59327e+59
1.03754e+59
-1.59317e+59
-2.84772e+59
1.25455e+59
-4.26017e+59
1.41254e+59
-4.26017e+59
-5.8435e+59
1.58341e+59
-5.84351e+59
-7.63445e+59
1.79101e+59
-9.4672e+59
1.83274e+59
-9.46714e+59
-1.15223e+60
2.05514e+59
-1.35489e+60
2.02669e+59
-1.35489e+60
-1.57418e+60
2.19297e+59
-1.57418e+60
-1.81212e+60
2.37946e+59
-2.03657e+60
2.2445e+59
-2.03657e+60
-2.27924e+60
2.42676e+59
-2.27924e+60
-2.54292e+60
2.63679e+59
-2.78383e+60
2.40917e+59
-2.78383e+60
-3.05704e+60
2.73211e+59
-3.30034e+60
2.43302e+59
-3.30034e+60
-3.57132e+60
2.70989e+59
-3.57132e+60
3.36216e+59
-1.87828e+57
-1.02262e+57
-1.75319e+57
7.47892e+56
-9.43704e+56
7.44176e+57
-1.33051e+57
6.7799e+57
-1.95622e+57
3.93841e+57
-1.48271e+57
1.00995e+58
-4.93003e+56
1.93083e+58
-2.40859e+57
9.15202e+56
1.49902e+56
1.36372e+58
-1.0626e+57
1.7807e+57
-3.47853e+56
5.83873e+56
-8.91508e+56
4.86787e+56
-1.04977e+57
-1.89121e+57
-8.85118e+56
2.32019e+57
-9.50659e+56
-1.72898e+57
-4.83214e+56
-4.36413e+57
-1.24327e+57
-1.28574e+58
-2.23124e+56
-1.05481e+57
-1.50901e+57
-1.27008e+58
-7.54154e+56
3.62157e+57
-7.61708e+56
-1.51524e+57
-8.92718e+56
-8.36128e+57
-1.32073e+57
-6.71721e+57
-1.4268e+57
5.67289e+56
-1.3669e+57
4.57066e+57
-7.30934e+56
1.24459e+58
-1.31587e+57
7.97146e+57
-1.10031e+57
6.74453e+57
-1.05413e+57
1.10448e+58
-1.06285e+57
6.02876e+57
-7.35068e+56
2.52117e+57
-7.07428e+56
-4.41415e+57
-4.14122e+56
2.15533e+57
-1.88278e+56
4.04089e+57
-5.62201e+56
-2.43967e+57
-5.28993e+56
-5.952e+56
-2.85267e+56
4.40398e+57
4.29781e+56
4.54673e+57
-3.80391e+56
-1.94271e+58
-2.60664e+56
-7.7257e+57
-5.52295e+55
-1.74065e+56
1.05131e+56
1.31217e+58
-2.07674e+55
6.35083e+57
1.25086e+57
6.46637e+57
1.38961e+57
2.19655e+58
1.72298e+56
-2.58433e+57
-2.77584e+56
-1.26177e+58
-4.87297e+56
1.3082e+58
6.59643e+56
9.86451e+57
8.09465e+56
2.18414e+57
-1.15226e+56
1.54012e+57
-2.12034e+56
7.35215e+56
-1.28725e+56
-5.70669e+56
1.7634e+56
6.91707e+57
-2.67962e+56
-1.69621e+57
4.46239e+56
5.0475e+57
7.09712e+56
7.04392e+57
5.23864e+56
5.80692e+57
1.63191e+56
4.18185e+57
6.86313e+55
7.89938e+57
5.38539e+55
1.04308e+58
5.00257e+55
1.2015e+58
5.34873e+55
1.32237e+58
6.36639e+55
1.43951e+58
8.04601e+55
1.58182e+58
1.04469e+56
1.77208e+58
1.36225e+56
2.03407e+58
1.76624e+56
2.38982e+58
2.2466e+56
2.86383e+58
2.76965e+56
3.48289e+58
3.1536e+56
4.26312e+58
2.56797e+56
5.20143e+58
-7.75263e+55
6.22251e+58
-1.83051e+57
6.1087e+58
-8.4248e+57
5.30336e+58
-2.97774e+58
1.92162e+59
-8.99655e+58
6.44483e+59
-2.12449e+59
1.64202e+60
3.24116e+60
-2.01078e+57
-1.13292e+57
-1.8217e+57
5.58813e+56
-3.60935e+56
5.981e+57
-1.0598e+57
7.47877e+57
-2.18505e+57
5.06365e+57
-1.53508e+57
9.44951e+57
-4.18514e+56
1.81918e+58
-2.47544e+57
2.97213e+57
-8.19289e+55
1.12437e+58
-1.85885e+57
3.55762e+57
-2.04354e+57
7.68568e+56
-1.38502e+57
-1.7174e+56
-1.31356e+57
-1.96266e+57
-1.21788e+57
2.22451e+57
-7.42302e+56
-2.20455e+57
-3.25935e+56
-4.78049e+57
-1.35858e+57
-1.18247e+58
-2.06576e+56
-2.2068e+57
-1.61028e+57
-1.12971e+58
-7.07754e+56
2.71905e+57
-3.5309e+56
-1.86989e+57
-8.03679e+56
-7.91068e+57
-1.52185e+57
-5.99904e+57
-1.49395e+57
5.39398e+56
-1.39175e+57
4.46847e+57
-2.36027e+56
1.12902e+58
-8.98285e+56
8.63376e+57
-1.33745e+57
7.18373e+57
-1.42717e+57
1.11346e+58
-1.43999e+57
6.04163e+57
-1.15728e+57
2.23851e+57
-9.70684e+56
-4.60052e+57
-1.37867e+57
2.56337e+57
-6.10011e+56
3.27237e+57
-8.19918e+56
-2.22955e+57
-7.74646e+56
-6.40231e+56
-2.67878e+56
3.89749e+57
8.51948e+56
3.4272e+57
-3.9257e+55
-1.85356e+58
-1.51615e+56
-7.61324e+57
-1.14356e+55
-3.13633e+56
2.9102e+56
1.28196e+58
4.61052e+56
6.18133e+57
1.36938e+57
5.55876e+57
1.41818e+57
2.19169e+58
7.37566e+55
-1.23971e+57
-1.34947e+56
-1.24087e+58
-3.48489e+56
1.32964e+58
5.80861e+56
8.93616e+57
8.05524e+56
1.96065e+57
-1.64447e+56
2.51185e+57
-8.26975e+56
1.39889e+57
-9.82372e+56
-4.09093e+56
-1.79647e+56
6.11686e+57
-2.86416e+56
-1.58471e+57
2.6959e+56
4.49489e+57
6.94608e+56
6.62359e+57
6.91479e+56
5.8158e+57
4.40416e+56
4.43869e+57
2.67584e+56
8.07661e+57
1.66438e+56
1.05348e+58
1.1419e+56
1.20707e+58
9.34888e+55
1.32474e+58
9.90485e+55
1.43931e+58
1.24779e+56
1.57958e+58
1.67003e+56
1.76822e+58
2.23291e+56
2.02874e+58
2.94151e+56
2.38304e+58
3.77854e+56
2.85565e+58
4.70007e+56
3.47388e+58
5.37312e+56
4.25648e+58
4.93319e+56
5.20598e+58
-4.12091e+55
6.27598e+58
-2.07964e+57
6.31265e+58
-7.93294e+57
5.88866e+58
-2.80837e+58
2.12314e+59
-9.15519e+58
7.07952e+59
-2.16138e+59
1.76661e+60
3.29602e+60
-2.00727e+57
-1.27575e+57
-1.81347e+57
3.65012e+56
-5.3975e+56
4.70728e+57
-9.38397e+56
7.87741e+57
-1.97841e+57
6.10367e+57
-1.58168e+57
9.05278e+57
-7.02002e+56
1.73121e+58
-2.07305e+57
4.34318e+57
-6.81437e+56
9.85207e+57
-1.53139e+57
4.40757e+57
-1.87571e+57
1.11289e+57
-2.04032e+57
-7.1277e+54
-1.73457e+57
-2.26842e+57
-1.20907e+57
1.69901e+57
-8.20202e+56
-2.59342e+57
-6.13435e+56
-4.98725e+57
-1.19727e+57
-1.12409e+58
-3.34339e+56
-3.06972e+57
-1.55615e+57
-1.00753e+58
-6.92319e+56
1.85522e+57
-4.81132e+56
-2.08107e+57
-8.84115e+56
-7.5077e+57
-1.532e+57
-5.35115e+57
-1.51088e+57
5.18265e+56
-1.38257e+57
4.34016e+57
-4.52887e+56
1.03606e+58
-9.52629e+56
9.13355e+57
-1.35601e+57
7.58713e+57
-1.40158e+57
1.11802e+58
-1.37996e+57
6.02004e+57
-1.21951e+57
2.07813e+57
-1.24192e+57
-4.57787e+57
-1.33562e+57
2.65712e+57
-6.58882e+56
2.59573e+57
-9.18652e+56
-1.96964e+57
-8.72888e+56
-6.85863e+56
-3.79839e+56
3.40458e+57
6.14378e+56
2.43307e+57
3.3956e+56
-1.82609e+58
1.66369e+55
-7.29055e+57
1.77913e+56
-4.75555e+56
4.61942e+56
1.25356e+58
8.71386e+56
5.77187e+57
1.36952e+57
5.05959e+57
1.70807e+57
2.15783e+58
3.90768e+56
7.74687e+55
-7.10595e+55
-1.19471e+58
-4.56414e+55
1.32709e+58
6.13566e+56
8.27544e+57
6.818e+56
1.89144e+57
-9.03344e+55
3.2851e+57
-1.01088e+57
2.32e+57
-1.22503e+57
-1.91743e+56
-4.4027e+56
5.33261e+57
-7.15788e+56
-1.3106e+57
1.12687e+56
3.66859e+57
6.28825e+56
6.10947e+57
6.53393e+56
5.79466e+57
4.37299e+56
4.65886e+57
2.88629e+56
8.22905e+57
1.84614e+56
1.06416e+58
1.28638e+56
1.21303e+58
1.08024e+56
1.32714e+58
1.1719e+56
1.4388e+58
1.49838e+56
1.5767e+58
2.02121e+56
1.76342e+58
2.71562e+56
2.02216e+58
3.58747e+56
2.37473e+58
4.61895e+56
2.84565e+58
5.75479e+56
3.46291e+58
6.63579e+56
4.24796e+58
6.20128e+56
5.21072e+58
1.07442e+56
6.32755e+58
-1.81284e+57
6.50512e+58
-6.80818e+57
6.38877e+58
-2.81395e+58
2.33648e+59
-9.83686e+58
7.78182e+59
-2.2154e+59
1.88978e+60
3.31778e+60
-2.03075e+57
-1.41696e+57
-1.85881e+57
1.93073e+56
-8.99397e+56
3.74786e+57
-8.16122e+56
7.79414e+57
-1.85638e+57
7.14393e+57
-1.6591e+57
8.8555e+57
-9.62145e+56
1.66151e+58
-1.99709e+57
5.37813e+57
-9.73969e+56
8.82895e+57
-1.16172e+57
4.59532e+57
-1.51624e+57
1.46742e+57
-2.06177e+57
5.38403e+56
-1.93173e+57
-2.39846e+57
-1.221e+57
9.8829e+56
-8.75746e+56
-2.93867e+57
-7.3294e+56
-5.13005e+57
-1.11427e+57
-1.08595e+58
-4.05207e+56
-3.77878e+57
-1.50127e+57
-8.9792e+57
-6.02708e+56
9.56669e+56
-5.02506e+56
-2.18125e+57
-8.82553e+56
-7.12766e+57
-1.55889e+57
-4.6748e+57
-1.53802e+57
4.974e+56
-1.39399e+57
4.19613e+57
-6.3126e+56
9.59786e+57
-1.01824e+57
9.5206e+57
-1.36019e+57
7.92913e+57
-1.38384e+57
1.12038e+58
-1.37501e+57
6.01128e+57
-1.25493e+57
1.95815e+57
-1.66997e+57
-4.16246e+57
-1.36461e+57
2.35185e+57
-6.68626e+56
1.89994e+57
-8.55559e+56
-1.78246e+57
-8.27271e+56
-7.13881e+56
-4.46577e+56
3.02417e+57
4.4384e+56
1.54294e+57
6.46688e+56
-1.84634e+58
2.10786e+56
-6.85463e+57
3.53504e+56
-6.17715e+56
6.85147e+56
1.22042e+58
1.55026e+57
4.90737e+57
1.49894e+57
5.11144e+57
1.79209e+57
2.12853e+58
5.34782e+56
1.335e+57
-1.07871e+56
-1.13041e+58
2.2179e+56
1.29419e+58
6.67113e+56
7.83076e+57
5.32839e+56
2.02683e+57
-1.13158e+56
3.93712e+57
-7.74811e+56
2.98245e+57
-1.14911e+57
1.89584e+56
-4.41996e+56
4.62851e+57
-7.28008e+56
-1.02025e+57
1.00495e+56
2.84564e+57
6.28576e+56
5.58751e+57
6.7358e+56
5.75721e+57
4.5481e+56
4.88643e+57
3.07176e+56
8.38372e+57
1.99082e+56
1.07553e+58
1.38861e+56
1.2197e+58
1.18729e+56
1.32978e+58
1.32108e+56
1.43818e+58
1.71885e+56
1.57343e+58
2.33833e+56
1.75796e+58
3.15544e+56
2.01466e+58
4.17868e+56
2.36518e+58
5.39312e+56
2.83408e+58
6.74263e+56
3.45002e+58
7.87035e+56
4.23718e+58
7.65109e+56
5.21348e+58
3.44982e+56
6.37003e+58
-1.33543e+57
6.67379e+58
-5.65519e+57
6.82139e+58
-2.9871e+58
2.57866e+59
-1.08625e+59
8.56938e+59
-2.33479e+59
2.01464e+60
3.35751e+60
-2.07162e+57
-1.54616e+57
-1.92864e+57
5.00925e+55
-1.33936e+57
3.15859e+57
-8.69066e+56
7.32384e+57
-1.80092e+57
8.07579e+57
-1.83137e+57
8.88595e+57
-1.11603e+57
1.58998e+58
-1.93276e+57
6.19486e+57
-1.17542e+57
8.07161e+57
-1.19345e+57
4.61336e+57
-1.28352e+57
1.55749e+57
-1.53118e+57
7.86061e+56
-1.68782e+57
-2.24183e+57
-1.24144e+57
5.41911e+56
-9.37592e+56
-3.24251e+57
-7.77757e+56
-5.28989e+57
-1.13703e+57
-1.05003e+58
-5.01513e+56
-4.4143e+57
-1.4328e+57
-8.04793e+57
-4.07553e+56
-6.85829e+55
-3.26576e+56
-2.26223e+57
-9.18421e+56
-6.53581e+57
-1.59695e+57
-3.99627e+57
-1.56475e+57
4.65194e+56
-1.41182e+57
4.0432e+57
-7.8447e+56
8.97054e+57
-1.10253e+57
9.8387e+57
-1.38918e+57
8.2158e+57
-1.38253e+57
1.11972e+58
-1.38446e+57
6.01327e+57
-1.2314e+57
1.80514e+57
-1.89988e+57
-3.49385e+57
-1.41204e+57
1.86407e+57
-6.31685e+56
1.11967e+57
-7.00363e+56
-1.71368e+57
-7.7657e+56
-6.37591e+56
-5.07617e+56
2.75529e+57
3.37226e+56
6.98118e+56
8.92515e+56
-1.90188e+58
4.4813e+56
-6.41042e+57
5.05769e+56
-6.76053e+56
1.03912e+57
1.16708e+58
2.55987e+57
3.38631e+57
1.58663e+57
6.0836e+57
1.88691e+57
2.0985e+58
6.68866e+56
2.5529e+57
-1.49767e+56
-1.04856e+58
3.11655e+56
1.24803e+58
6.8546e+56
7.45557e+57
9.41162e+56
1.77044e+57
1.33569e+56
4.74644e+57
-4.5516e+56
3.57147e+57
-9.52691e+56
6.8771e+56
-4.63948e+56
4.13949e+57
-7.53326e+56
-7.32313e+56
8.7026e+55
2.00755e+57
6.35922e+56
5.0402e+57
7.13335e+56
5.68264e+57
4.85842e+56
5.11723e+57
3.30993e+56
8.54212e+57
2.15256e+56
1.08738e+58
1.49126e+56
1.22668e+58
1.28666e+56
1.33219e+58
1.4609e+56
1.43686e+58
1.93144e+56
1.56913e+58
2.64996e+56
1.75122e+58
3.5924e+56
2.00563e+58
4.77068e+56
2.35384e+58
6.17558e+56
2.82039e+58
7.75877e+56
3.43462e+58
9.19517e+56
4.22318e+58
9.40367e+56
5.21187e+58
6.49098e+56
6.39954e+58
-7.35269e+56
6.81276e+58
-4.68944e+57
7.21745e+58
-3.38035e+58
2.86983e+59
-1.2243e+59
9.45566e+59
-2.45552e+59
2.13776e+60
3.35288e+60
-2.1145e+57
-1.66658e+57
-1.98982e+57
-7.45802e+55
-1.62704e+57
2.79581e+57
-1.04196e+57
6.73876e+57
-1.80088e+57
8.83471e+57
-1.99245e+57
9.07752e+57
-1.19596e+57
1.51033e+58
-1.82044e+57
6.81934e+57
-1.26388e+57
7.51505e+57
-1.236e+57
4.58547e+57
-1.22725e+57
1.54874e+57
-1.39718e+57
9.55998e+56
-1.65825e+57
-1.98077e+57
-1.28216e+57
1.65826e+56
-1.00667e+57
-3.51799e+57
-8.18051e+56
-5.4785e+57
-1.23327e+57
-1.00851e+58
-6.26592e+56
-5.02097e+57
-1.39095e+57
-7.28356e+57
-3.50371e+56
-1.10915e+57
-1.51058e+56
-2.46153e+57
-9.74011e+56
-5.71286e+57
-1.63608e+57
-3.3342e+57
-1.59677e+57
4.25883e+56
-1.43814e+57
3.88459e+57
-9.18512e+56
8.45094e+57
-1.19096e+57
1.01112e+58
-1.42141e+57
8.44631e+57
-1.32496e+57
1.11008e+58
-1.23854e+57
5.92693e+57
-9.94762e+56
1.56146e+57
-1.81415e+57
-2.67425e+57
-1.40865e+57
1.45868e+57
-6.31749e+56
3.42977e+56
-6.14919e+56
-1.73027e+57
-7.73872e+56
-4.78407e+56
-5.59253e+56
2.54091e+57
3.17618e+56
-1.78498e+56
1.09038e+57
-1.97912e+58
6.96711e+56
-6.01675e+57
6.21063e+56
-5.99884e+56
1.18919e+57
1.1103e+58
3.0492e+57
1.52666e+57
1.49229e+57
7.64089e+57
1.86739e+57
2.061e+58
7.14551e+56
3.70601e+57
-9.3348e+55
-9.67744e+57
3.96811e+56
1.19906e+58
7.4297e+56
7.10986e+57
1.13907e+57
1.37536e+57
4.85865e+56
5.4055e+57
-3.25853e+56
4.38383e+57
-8.28582e+56
1.19494e+57
-5.21398e+56
3.83497e+57
-8.06753e+56
-4.44266e+56
8.63566e+55
1.12114e+57
6.51128e+56
4.48213e+57
7.63447e+56
5.57809e+57
5.22893e+56
5.36641e+57
3.56067e+56
8.71625e+57
2.30955e+56
1.1005e+58
1.58612e+56
1.23462e+58
1.37841e+56
1.33497e+58
1.59579e+56
1.43548e+58
2.1429e+56
1.56445e+58
2.96466e+56
1.74383e+58
4.03722e+56
1.99567e+58
5.37706e+56
2.34122e+58
6.98363e+56
2.805e+58
8.82445e+56
3.41692e+58
1.06303e+57
4.20573e+58
1.1453e+57
5.20433e+58
9.81967e+56
6.41647e+58
-2.88244e+55
6.9146e+58
-4.14068e+57
7.6294e+58
-3.99977e+58
3.22842e+59
-1.37989e+59
1.04356e+60
-2.58489e+59
2.25826e+60
3.35807e+60
-2.15802e+57
-1.78196e+57
-2.04239e+57
-1.90207e+56
-1.80851e+57
2.56192e+57
-1.29057e+57
6.22082e+57
-1.80318e+57
9.34732e+57
-2.06478e+57
9.33911e+57
-1.29677e+57
1.43353e+58
-1.74358e+57
7.26615e+57
-1.31687e+57
7.08835e+57
-1.25339e+57
4.522e+57
-1.27764e+57
1.57299e+57
-1.41234e+57
1.0907e+57
-1.69856e+57
-1.69455e+57
-1.31745e+57
-2.15281e+56
-1.07832e+57
-3.75712e+57
-9.33359e+56
-5.62347e+57
-1.37348e+57
-9.64494e+57
-7.48534e+56
-5.64592e+57
-1.35814e+57
-6.67397e+57
-6.32133e+56
-1.83517e+57
-3.32662e+56
-2.76101e+57
-1.05058e+57
-4.99494e+57
-1.67152e+57
-2.71325e+57
-1.62904e+57
3.83397e+56
-1.46811e+57
3.72365e+57
-1.03179e+57
8.01465e+57
-1.26535e+57
1.03448e+58
-1.41617e+57
8.59715e+57
-1.20463e+57
1.08892e+58
-1.03355e+57
5.75589e+57
-7.59361e+56
1.2873e+57
-1.64762e+57
-1.78597e+57
-1.37715e+57
1.18825e+57
-6.94051e+56
-3.40069e+56
-6.29292e+56
-1.79497e+57
-7.92003e+56
-3.15671e+56
-5.89476e+56
2.33839e+57
3.84246e+56
-1.15226e+57
1.26528e+57
-2.06724e+58
9.35446e+56
-5.68705e+57
6.98928e+56
-3.64065e+56
1.0134e+57
1.07884e+58
2.67758e+57
-1.38024e+56
1.34383e+57
8.97338e+57
1.73055e+57
2.02232e+58
6.12463e+56
4.82394e+57
7.76717e+52
-9.06522e+57
4.82003e+56
1.15083e+58
8.03411e+56
6.78719e+57
1.23131e+57
9.46816e+56
6.36596e+56
5.99979e+57
-2.55751e+56
5.27624e+57
-7.65323e+56
1.70344e+57
-5.82711e+56
3.65126e+57
-8.30326e+56
-1.97849e+56
1.10104e+56
1.82621e+56
6.77583e+56
3.91542e+57
8.24558e+56
5.43305e+57
5.68105e+56
5.62464e+57
3.81724e+56
8.90511e+57
2.45188e+56
1.11435e+58
1.6658e+56
1.24276e+58
1.45814e+56
1.33731e+58
1.7237e+56
1.43315e+58
2.35261e+56
1.55846e+58
3.28263e+56
1.73487e+58
4.49057e+56
1.98389e+58
5.99889e+56
2.32649e+58
7.81854e+56
2.78709e+58
9.94038e+56
3.39607e+58
1.21651e+57
4.18379e+58
1.37522e+57
5.18887e+58
1.32447e+57
6.42188e+58
8.07579e+56
6.96673e+58
-4.28418e+57
8.13907e+58
-4.84728e+58
3.67033e+59
-1.5514e+59
1.15023e+60
-2.71453e+59
2.37458e+60
3.3293e+60
-2.20613e+57
-1.89428e+57
-2.09106e+57
-3.05277e+56
-1.92628e+57
2.39714e+57
-1.58918e+57
5.88372e+57
-1.76167e+57
9.5198e+57
-2.07229e+57
9.64973e+57
-1.40119e+57
1.36642e+58
-1.70289e+57
7.56785e+57
-1.37341e+57
6.75887e+57
-1.28736e+57
4.43595e+57
-1.34484e+57
1.63047e+57
-1.48141e+57
1.22727e+57
-1.73922e+57
-1.43674e+57
-1.347e+57
-6.07496e+56
-1.15892e+57
-3.94519e+57
-1.09135e+57
-5.69104e+57
-1.51791e+57
-9.21838e+57
-8.65689e+56
-6.29813e+57
-1.32671e+57
-6.21295e+57
-9.01267e+56
-2.2606e+57
-5.57217e+56
-3.10505e+57
-1.13145e+57
-4.42071e+57
-1.68785e+57
-2.15684e+57
-1.66547e+57
3.61019e+56
-1.5087e+57
3.56689e+57
-1.12596e+57
7.63194e+57
-1.33258e+57
1.05515e+58
-1.41137e+57
8.67601e+57
-1.12057e+57
1.05985e+58
-9.70106e+56
5.6055e+57
-7.73437e+56
1.09072e+57
-1.60592e+57
-9.53378e+56
-1.34423e+57
9.26685e+56
-7.57578e+56
-9.26526e+56
-6.72314e+56
-1.88002e+57
-8.19101e+56
-1.68698e+56
-5.97705e+56
2.11719e+57
5.0525e+56
-2.25501e+57
1.38922e+57
-2.15559e+58
1.15416e+57
-5.45201e+57
7.73925e+56
1.66355e+55
9.72216e+56
1.05906e+58
2.71165e+57
-1.87742e+57
1.32024e+57
1.03651e+58
1.7195e+57
1.98241e+58
6.23732e+56
5.92004e+57
8.39834e+55
-8.52516e+57
5.29813e+56
1.10628e+58
8.44947e+56
6.47244e+57
1.33268e+57
4.59889e+56
6.94408e+56
6.64228e+57
-2.37841e+56
6.20894e+57
-7.58154e+56
2.22642e+57
-6.09905e+56
3.50495e+57
-7.84056e+56
-2.18959e+55
1.51319e+56
-7.45896e+56
7.11924e+56
3.36152e+57
8.96671e+56
5.25575e+57
6.22833e+56
5.90603e+57
4.08474e+56
9.12621e+57
2.57821e+56
1.12999e+58
1.72786e+56
1.25193e+58
1.52368e+56
1.34003e+58
1.84291e+56
1.43073e+58
2.55933e+56
1.55208e+58
3.60292e+56
1.72525e+58
4.95158e+56
1.97115e+58
6.63517e+56
2.31042e+58
8.67859e+56
2.76732e+58
1.11028e+57
3.37253e+58
1.37819e+57
4.15761e+58
1.62521e+57
5.16487e+58
1.66952e+57
6.41806e+58
1.80098e+57
6.95433e+58
-5.39865e+57
8.85968e+58
-5.92709e+58
4.20907e+59
-1.73417e+59
1.26438e+60
-2.8087e+59
2.48203e+60
3.27288e+60
-2.26507e+57
-2.00321e+57
-2.14821e+57
-4.22135e+56
-2.02164e+57
2.27057e+57
-1.8291e+57
5.69118e+57
-1.76008e+57
9.45078e+57
-2.06418e+57
9.95384e+57
-1.50202e+57
1.3102e+58
-1.68698e+57
7.75281e+57
-1.42605e+57
6.49794e+57
-1.32901e+57
4.3389e+57
-1.43245e+57
1.73391e+57
-1.57527e+57
1.37009e+57
-1.77855e+57
-1.23346e+57
-1.39382e+57
-9.92221e+56
-1.25909e+57
-4.07993e+57
-1.25149e+57
-5.69864e+57
-1.63421e+57
-8.83566e+57
-1.02931e+57
-6.90304e+57
-1.34247e+57
-5.8998e+57
-1.07588e+57
-2.52721e+57
-7.73648e+56
-3.40729e+57
-1.22514e+57
-3.96922e+57
-1.6931e+57
-1.68888e+57
-1.70707e+57
3.74987e+56
-1.5618e+57
3.42162e+57
-1.21825e+57
7.28841e+57
-1.40871e+57
1.0742e+58
-1.42927e+57
8.69659e+57
-1.08914e+57
1.02583e+58
-9.70978e+56
5.48736e+57
-8.79948e+56
9.99711e+56
-1.58045e+57
-2.52886e+56
-1.31772e+57
6.63975e+56
-8.20405e+56
-1.42381e+57
-7.30817e+56
-1.96958e+57
-8.47811e+56
-5.1718e+55
-5.81145e+56
1.85049e+57
6.68298e+56
-3.50453e+57
1.46088e+57
-2.23487e+58
1.34524e+57
-5.33646e+57
8.6564e+56
4.95511e+56
9.84565e+56
1.04715e+58
2.91643e+57
-3.80966e+57
1.46541e+57
1.18147e+58
1.78706e+57
1.95024e+58
7.58011e+56
6.9489e+57
1.46419e+56
-7.91374e+57
5.49005e+56
1.06597e+58
8.65666e+56
6.15462e+57
1.39316e+57
-6.82117e+55
7.01921e+56
7.3324e+57
-2.8757e+56
7.19836e+57
-7.92428e+56
2.72945e+57
-6.43487e+56
3.35429e+57
-7.37112e+56
7.05285e+55
1.90893e+56
-1.67319e+57
7.51488e+56
2.8007e+57
9.82624e+56
5.02546e+57
6.87243e+56
6.20192e+57
4.36351e+56
9.37862e+57
2.68557e+56
1.14688e+58
1.76934e+56
1.26128e+58
1.57303e+56
1.34217e+58
1.95213e+56
1.42717e+58
2.76208e+56
1.54419e+58
3.92455e+56
1.71388e+58
5.41915e+56
1.95642e+58
7.28445e+56
2.29204e+58
9.56125e+56
2.74477e+58
1.23062e+57
3.34538e+58
1.54613e+57
4.1263e+58
1.891e+57
5.13073e+58
2.00758e+57
6.40667e+58
2.94418e+57
6.861e+58
-7.82273e+57
9.93668e+58
-7.2171e+58
4.85257e+59
-1.91741e+59
1.38395e+60
-2.89896e+59
2.58019e+60
3.22093e+60
-2.33572e+57
-2.10878e+57
-2.21637e+57
-5.41484e+56
-2.10981e+57
2.164e+57
-1.97396e+57
5.55534e+57
-1.80225e+57
9.27907e+57
-2.06717e+57
1.02188e+58
-1.59783e+57
1.26327e+58
-1.69297e+57
7.84795e+57
-1.48391e+57
6.28888e+57
-1.39493e+57
4.24993e+57
-1.54671e+57
1.8857e+57
-1.67697e+57
1.50035e+57
-1.82148e+57
-1.08895e+57
-1.46259e+57
-1.35111e+57
-1.3802e+57
-4.16232e+57
-1.40238e+57
-5.67646e+57
-1.70003e+57
-8.53801e+57
-1.19038e+57
-7.41269e+57
-1.35796e+57
-5.73221e+57
-1.1437e+57
-2.74146e+57
-1.02392e+57
-3.52706e+57
-1.34542e+57
-3.64772e+57
-1.71299e+57
-1.3213e+57
-1.75389e+57
4.15897e+56
-1.62323e+57
3.29096e+57
-1.31705e+57
6.98226e+57
-1.49114e+57
1.09162e+58
-1.45149e+57
8.65701e+57
-1.08613e+57
9.89301e+57
-9.69923e+56
5.37121e+57
-9.73486e+56
1.00336e+57
-1.57602e+57
3.4973e+56
-1.3067e+57
3.94772e+56
-8.9253e+56
-1.83781e+57
-8.07571e+56
-2.05435e+57
-8.8291e+56
2.37769e+55
-5.51629e+56
1.51937e+57
8.44644e+56
-4.90063e+57
1.4743e+57
-2.2978e+58
1.49965e+57
-5.36181e+57
9.77915e+56
1.01764e+57
1.00186e+57
1.0448e+58
2.73582e+57
-5.54366e+57
1.64261e+57
1.29083e+58
1.79177e+57
1.93534e+58
8.32754e+56
7.9083e+57
1.86674e+56
-7.26733e+57
5.51693e+56
1.0295e+58
8.63365e+56
5.84344e+57
1.40539e+57
-6.09493e+56
7.15908e+56
8.0251e+57
-3.95723e+56
8.31025e+57
-8.39126e+56
3.17451e+57
-6.93452e+56
3.21004e+57
-7.43068e+56
1.21518e+56
2.35384e+56
-2.64493e+57
7.90851e+56
2.25165e+57
1.08033e+57
4.7433e+57
7.59843e+56
6.52909e+57
4.64964e+56
9.67975e+57
2.77117e+56
1.16621e+58
1.78702e+56
1.27177e+58
1.60382e+56
1.34467e+58
2.04974e+56
1.42346e+58
2.95974e+56
1.53586e+58
4.24665e+56
1.70181e+58
5.89231e+56
1.9407e+58
7.94537e+56
2.27226e+58
1.04637e+57
2.72024e+58
1.35447e+57
3.31527e+58
1.71855e+57
4.0905e+58
2.16816e+57
5.08647e+58
2.33386e+57
6.39072e+58
4.12362e+57
6.68273e+58
-1.18902e+58
1.15385e+59
-8.69505e+58
5.60319e+59
-2.10072e+59
1.50707e+60
-2.97607e+59
2.66773e+60
3.14262e+60
-2.41832e+57
-2.21201e+57
-2.2955e+57
-6.64309e+56
-2.19832e+57
2.06683e+57
-2.08537e+57
5.44239e+57
-1.87346e+57
9.06716e+57
-2.08262e+57
1.04279e+58
-1.68721e+57
1.22373e+58
-1.71704e+57
7.87777e+57
-1.55015e+57
6.122e+57
-1.48666e+57
4.18643e+57
-1.67755e+57
2.07659e+57
-1.78343e+57
1.60622e+57
-1.87379e+57
-9.98584e+56
-1.55395e+57
-1.67096e+57
-1.51692e+57
-4.19935e+57
-1.54775e+57
-5.64563e+57
-1.73593e+57
-8.34984e+57
-1.30986e+57
-7.83876e+57
-1.29427e+57
-5.74782e+57
-1.05159e+57
-2.98415e+57
-1.22386e+57
-3.3548e+57
-1.46671e+57
-3.40488e+57
-1.75156e+57
-1.03645e+57
-1.80705e+57
4.71384e+56
-1.69499e+57
3.17891e+57
-1.42443e+57
6.71173e+57
-1.57577e+57
1.10675e+58