/*--------------------------------*- C++ -*----------------------------------*\
| =========                 |                                                 |
| \\      /  F ield         | OpenFOAM: The Open Source CFD Toolbox           |
|  \\    /   O peration     | Version:  4.1                                   |
|   \\  /    A nd           | Web:      www.OpenFOAM.org                      |
|    \\/     M anipulation  |                                                 |
\*---------------------------------------------------------------------------*/
FoamFile
{
    version     2.0;
    format      ascii;
    class       volVectorField;
    location    "1";
    object      U;
}
// * * * * * * * * * * * * * * * * * * * * * * * * * * * * * * * * * * * * * //

dimensions      [0 1 -1 0 0 0 0];

internalField   nonuniform List<vector> 
6785
(
(1.03857e-14 -1.83244 16.3701)
(6.71064e-15 -7.5493 12.8346)
(-1.49351e-15 -5.02268 13.4802)
(2.8714e-15 -4.79433 13.0752)
(3.35399e-16 -4.07788 12.9091)
(-7.23218e-16 -3.62694 12.6379)
(1.35693e-15 -3.21712 12.3524)
(-2.30075e-16 -2.91206 12.0245)
(-8.22484e-16 -2.69684 11.6598)
(-5.85506e-17 -2.58957 11.2623)
(-4.47753e-16 -2.54732 10.8849)
(-2.84176e-16 -2.62755 10.538)
(-5.6079e-16 -3.1503 10.0124)
(-2.63462e-16 -3.07944 9.31239)
(1.90926e-15 0.176056 7.47948)
(5.73389e-15 -9.42881 26.7944)
(1.00678e-14 -16.5325 22.8275)
(-3.46656e-15 -11.2367 23.2234)
(1.00917e-16 -12.017 21.4524)
(-1.47001e-16 -10.4814 20.5223)
(-7.96049e-16 -9.8515 19.3384)
(-1.54829e-15 -8.98029 18.2462)
(-5.11741e-16 -8.24518 17.1138)
(-1.04089e-15 -7.51613 15.9713)
(-4.18885e-15 -6.86217 14.8281)
(-1.7222e-15 -6.29107 13.7596)
(-1.21893e-15 -5.69451 12.6572)
(-3.93447e-15 -4.61071 10.4399)
(-3.49447e-16 -1.91652 5.11694)
(-3.26407e-16 1.33596 -2.07048)
(2.18703e-14 -11.5835 28.0775)
(9.39226e-15 -17.4686 24.2403)
(-2.28349e-15 -11.6287 24.7793)
(8.02941e-15 -13.3287 22.0109)
(-3.31634e-15 -11.0284 21.0845)
(1.18679e-15 -10.7153 19.2787)
(7.87774e-15 -9.61272 17.9228)
(-2.1267e-15 -8.88461 16.3769)
(1.65176e-15 -8.03253 14.8785)
(7.36869e-15 -7.24988 13.3298)
(-3.51825e-15 -6.51535 11.863)
(-7.61544e-16 -5.85549 10.4316)
(1.32115e-14 -4.80029 8.26363)
(1.64224e-15 -1.07916 2.91607)
(-2.57084e-15 1.14259 -5.98392)
(4.61756e-14 -11.6298 25.7681)
(1.75768e-14 -17.0993 24.105)
(-3.24754e-15 -12.0178 23.8831)
(1.47287e-14 -13.5832 20.8076)
(6.3257e-15 -11.5224 19.8841)
(9.37111e-16 -11.2641 18.0378)
(1.1678e-14 -10.3354 16.6371)
(9.60884e-15 -9.63728 15.1326)
(3.56941e-15 -8.85676 13.6932)
(1.13292e-14 -8.09864 12.2256)
(1.09426e-14 -7.27948 10.8114)
(8.00887e-16 -6.49254 9.40126)
(9.3164e-15 -5.68754 7.94558)
(1.64682e-14 -3.68602 5.3298)
(3.30291e-15 -1.82624 0.57961)
(4.28308e-14 -11.6109 24.1602)
(3.60684e-14 -15.8203 23.3897)
(3.56224e-15 -11.9257 22.5864)
(1.72589e-14 -12.8064 19.7122)
(1.64218e-14 -11.2736 18.7627)
(9.04584e-15 -10.9627 17.2381)
(1.37591e-14 -10.26 16.0155)
(1.3612e-14 -9.63296 14.7923)
(8.65969e-15 -8.97489 13.6412)
(1.18677e-14 -8.33374 12.5166)
(1.07448e-14 -7.60241 11.4477)
(3.03005e-15 -6.87272 10.3411)
(7.39218e-15 -6.09714 9.31446)
(1.72168e-14 -4.66649 7.46414)
(9.1865e-15 -2.50125 2.98373)
(-2.78107e-14 -12.1002 24.1989)
(4.67382e-14 -14.3509 21.9713)
(5.35125e-15 -10.8459 20.7712)
(9.20125e-15 -11.6535 18.1833)
(4.04431e-15 -10.3389 17.471)
(4.93935e-16 -10.2048 16.2699)
(5.61117e-15 -9.69609 15.3754)
(-3.98941e-15 -9.2473 14.4995)
(-7.8736e-15 -8.79407 13.6887)
(-7.97676e-16 -8.35597 12.9402)
(-1.23105e-14 -7.8514 12.2498)
(-1.30323e-14 -7.37649 11.5319)
(-2.71003e-15 -6.7827 10.9025)
(-4.07655e-15 -5.62293 9.3014)
(-8.65412e-16 -3.43317 5.37108)
(-1.25469e-13 -12.6085 25.03)
(6.74745e-15 -14.0764 21.5093)
(-7.47759e-15 -9.42149 18.9854)
(-7.13983e-15 -10.5764 16.4296)
(-2.84599e-14 -9.19492 16.146)
(-3.10579e-14 -9.39802 15.2074)
(-1.43309e-14 -9.03359 14.6873)
(-3.37114e-14 -8.78161 14.1335)
(-4.14e-14 -8.52498 13.6237)
(-2.30105e-14 -8.26024 13.1869)
(-4.66735e-14 -7.96974 12.7869)
(-4.17446e-14 -7.71019 12.399)
(-2.05322e-14 -7.34529 12.083)
(-3.44563e-14 -6.44988 10.7731)
(-1.75106e-14 -4.28381 7.17478)
(-1.4677e-13 -12.3589 24.4682)
(-5.13154e-14 -15.0979 22.9567)
(-2.67345e-14 -9.0411 18.3092)
(-1.82995e-14 -9.64289 14.9992)
(-5.6462e-14 -8.32419 14.8908)
(-6.003e-14 -8.71015 14.2853)
(-3.15189e-14 -8.50558 14.0956)
(-5.6523e-14 -8.39916 13.815)
(-6.57993e-14 -8.28617 13.5427)
(-3.88015e-14 -8.13821 13.3333)
(-7.51629e-14 -8.00507 13.1301)
(-6.26608e-14 -7.8712 12.9738)
(-3.40332e-14 -7.70874 12.8632)
(-6.45375e-14 -7.07824 11.9681)
(-2.86557e-14 -4.99088 8.47375)
(-5.91587e-14 -11.5092 22.5785)
(-3.08621e-14 -15.5876 23.9635)
(-1.55522e-14 -9.90518 18.7571)
(-7.10657e-15 -9.20272 14.5087)
(-5.26783e-14 -8.03871 14.0003)
(-5.32259e-14 -8.32444 13.7304)
(-2.69956e-14 -8.28212 13.7488)
(-5.59077e-14 -8.24398 13.6662)
(-5.66201e-14 -8.20622 13.5561)
(-3.50453e-14 -8.12983 13.4822)
(-8.07055e-14 -8.07341 13.4091)
(-5.5573e-14 -8.01535 13.3742)
(-3.04176e-14 -7.96487 13.404)
(-7.90898e-14 -7.56731 12.8726)
(-1.40295e-14 -5.66811 9.59106)
(7.75773e-14 -10.5353 20.5201)
(5.50198e-14 -14.9523 23.2837)
(3.24985e-14 -10.4689 18.8367)
(2.38965e-14 -9.20867 14.572)
(-2.20093e-14 -8.13402 13.695)
(-1.55422e-14 -8.2538 13.5776)
(-9.80162e-16 -8.27515 13.674)
(-3.23695e-14 -8.25576 13.6878)
(-2.08355e-14 -8.23125 13.6707)
(-1.05164e-14 -8.20648 13.6499)
(-5.82123e-14 -8.14373 13.6681)
(-2.23775e-14 -8.16843 13.6513)
(-8.69895e-15 -8.10656 13.8016)
(-7.55505e-14 -7.90602 13.4111)
(2.68309e-14 -6.29334 10.6952)
(1.67472e-13 -9.76565 19.0429)
(1.1675e-13 -13.8552 21.7119)
(7.19536e-14 -10.3008 18.2611)
(4.28951e-14 -9.28534 14.6916)
(5.34088e-15 -8.34723 13.9032)
(2.22606e-14 -8.40292 13.8172)
(2.0095e-14 -8.40118 13.9114)
(-5.72427e-15 -8.38771 13.9368)
(1.65119e-14 -8.33986 13.9618)
(1.3518e-14 -8.36705 13.9311)
(-2.48276e-14 -8.23865 14.017)
(1.49694e-14 -8.38069 13.9433)
(1.19021e-14 -8.20714 14.2171)
(-5.19695e-14 -8.18201 13.7118)
(5.98847e-14 -6.85393 11.8664)
(1.46093e-13 -9.14895 17.9661)
(1.07064e-13 -12.7206 19.8924)
(6.77608e-14 -9.68183 17.2981)
(3.54433e-14 -9.19802 14.5759)
(1.42405e-14 -8.41614 14.1259)
(2.99655e-14 -8.51086 14.0406)
(1.88207e-14 -8.46315 14.1159)
(6.87768e-15 -8.46643 14.1156)
(2.52726e-14 -8.38067 14.1622)
(1.97234e-14 -8.47318 14.0937)
(6.79634e-16 -8.23823 14.2355)
(2.69497e-14 -8.52728 14.056)
(1.47908e-14 -8.1453 14.4391)
(-2.56781e-14 -8.34881 13.7444)
(4.71062e-14 -7.25744 12.9174)
(2.61348e-14 -8.73825 17.3046)
(4.28419e-14 -11.948 18.6146)
(2.54055e-14 -9.13011 16.6556)
(9.99164e-15 -9.14691 14.5725)
(1.16546e-14 -8.40855 14.5089)
(7.82641e-15 -8.60791 14.3977)
(2.2492e-15 -8.47611 14.4976)
(3.41905e-15 -8.52749 14.4866)
(5.90716e-15 -8.40219 14.5635)
(9.51688e-15 -8.57205 14.4544)
(8.48199e-15 -8.23975 14.6722)
(1.11041e-14 -8.73304 14.3884)
(-5.38986e-16 -8.15883 14.953)
(-1.03767e-14 -8.5725 13.8379)
(-7.92822e-15 -7.59575 13.9127)
(-1.03921e-13 -8.30548 16.7385)
(-1.13857e-14 -11.2244 17.3895)
(-2.28781e-14 -8.40418 16.0251)
(-1.58878e-14 -9.02775 14.5651)
(1.47014e-14 -8.18089 14.7505)
(-3.38724e-14 -8.55047 14.5248)
(-2.80743e-14 -8.28053 14.5806)
(7.20326e-15 -8.38321 14.3767)
(-3.18194e-14 -8.1215 14.4291)
(-1.52943e-14 -8.42824 14.1015)
(1.68066e-14 -7.80705 14.3496)
(-2.34891e-14 -8.55093 13.7327)
(-2.11972e-14 -7.49905 14.2938)
(-1.16226e-14 -8.13359 12.8899)
(-7.61782e-14 -7.56042 14.3888)
(-2.35654e-13 -8.49432 16.7733)
(-7.69229e-14 -12.2139 18.2154)
(-6.76859e-14 -8.74575 16.6154)
(-3.7833e-14 -9.51674 14.7927)
(1.39598e-14 -8.3353 15.2121)
(-7.66388e-14 -8.65289 14.7451)
(-3.35743e-14 -8.19702 14.886)
(-1.85309e-17 -8.17667 14.838)
(-5.9237e-14 -7.94515 14.8477)
(-2.02069e-14 -8.01215 14.8348)
(-6.84678e-15 -7.73737 14.9858)
(-6.06246e-14 -8.33592 14.8982)
(-5.03871e-14 -7.92806 15.7087)
(-8.51733e-14 -9.26987 15.351)
(-1.3179e-13 -6.72953 13.8251)
(1.79036e-16 1.42801 7.75153)
(1.26956e-14 -0.0901469 1.23399)
(1.53427e-14 -0.185131 0.0435391)
(1.73249e-14 -0.179046 0.180384)
(1.54124e-14 -0.178354 0.136741)
(1.18183e-14 -0.258029 0.188902)
(2.07924e-15 -0.255487 0.118469)
(-6.6804e-16 -0.266641 0.129938)
(1.71869e-16 -0.254714 0.111658)
(3.6427e-15 -0.366663 0.153015)
(3.25494e-15 -0.338174 0.0868395)
(3.60818e-15 -0.328511 0.089907)
(4.88782e-15 -0.442836 0.137139)
(2.72261e-15 -0.411823 0.0939188)
(2.23026e-15 -0.429678 0.108859)
(2.24062e-15 -0.404666 0.0924535)
(3.14421e-15 -0.560899 0.135026)
(8.20093e-16 -0.495413 0.0704608)
(-1.63724e-15 -0.482743 0.068928)
(-6.63287e-15 -0.630855 0.105523)
(-6.20908e-15 -0.566796 0.0680457)
(-6.33363e-15 -0.593777 0.0824542)
(-5.32899e-15 -0.552152 0.0671622)
(-5.56166e-15 -0.741641 0.126995)
(-3.73684e-15 -0.647109 0.0912727)
(-4.01315e-15 -0.680525 0.117645)
(-4.15382e-15 -0.636435 0.105391)
(-4.71178e-15 -0.869947 0.161612)
(-1.90083e-15 -0.74477 0.085147)
(-5.14308e-16 -0.730449 0.0957117)
(1.20638e-15 -0.945594 0.171366)
(1.5023e-15 -0.837482 0.124214)
(1.8861e-15 -0.878877 0.156033)
(2.02244e-15 -0.821839 0.142886)
(2.68027e-15 -1.12092 0.21819)
(1.42433e-15 -0.960869 0.112347)
(5.32104e-16 -0.939917 0.12286)
(-1.06883e-15 -1.21187 0.207652)
(-1.25945e-15 -1.07954 0.130565)
(-1.22556e-15 -1.13366 0.156297)
(-7.86336e-16 -1.05078 0.149812)
(6.3149e-17 -1.40253 0.299211)
(9.58199e-16 -1.22912 0.208579)
(1.66198e-15 -1.29438 0.248896)
(1.68825e-15 -1.20662 0.233522)
(1.49276e-15 -1.63787 0.354938)
(6.51499e-16 -1.42038 0.192576)
(7.60272e-16 -1.38161 0.218556)
(1.51376e-15 -1.76999 0.364341)
(1.04692e-15 -1.59269 0.23734)
(5.84906e-16 -1.67337 0.277692)
(-2.49983e-17 -1.55225 0.284887)
(-1.62574e-16 -2.05244 0.536723)
(7.83752e-16 -1.81812 0.384384)
(2.51271e-15 -1.91844 0.43576)
(4.42997e-15 -1.78928 0.418294)
(8.59614e-15 -2.39845 0.642164)
(6.40166e-15 -2.11194 0.431865)
(5.71714e-15 -2.05395 0.520738)
(3.58868e-15 -2.60871 0.876441)
(-1.34612e-16 -2.36806 0.670929)
(-1.31257e-15 -2.50435 0.740582)
(-1.07145e-15 -2.34621 0.718718)
(-5.96228e-16 -3.10878 1.07196)
(-2.6013e-16 -2.76781 0.78122)
(-4.04819e-16 -2.69683 0.884496)
(-9.92323e-16 -3.39122 1.3549)
(-9.13582e-16 -3.0825 1.065)
(-1.01942e-15 -3.2876 1.18361)
(-8.59032e-16 -3.08882 1.20319)
(-5.30129e-16 -3.98648 1.77608)
(2.03365e-16 -3.55846 1.32208)
(7.39426e-16 -3.81122 1.4175)
(1.3092e-15 -3.59191 1.50148)
(3.46387e-15 -4.68941 2.5885)
(3.7474e-15 -4.25473 2.45013)
(5.0926e-15 -4.24026 3.18837)
(7.52438e-15 -5.41505 5.40921)
(3.00083e-15 -5.12773 4.70599)
(-4.9609e-15 -5.13266 5.76835)
(-2.69513e-14 -5.72378 8.37122)
(-2.77345e-14 -5.39116 8.3372)
(-2.92923e-14 -5.57442 8.98027)
(-3.89117e-15 -4.7847 9.06302)
(-2.41691e-14 -4.98597 10.5703)
(-1.8966e-14 -4.91067 11.3232)
(-1.82631e-14 -4.86472 11.3642)
(-1.88428e-14 -4.80701 11.4328)
(-1.8505e-14 -4.76809 11.3771)
(-1.68863e-14 -4.71651 11.2311)
(-1.18264e-14 -4.66169 11.1339)
(-6.33278e-15 -4.67663 11.2479)
(3.32661e-15 -3.70773 10.7874)
(-3.24325e-15 -4.16257 12.2481)
(-4.39394e-15 -4.01337 12.7736)
(-7.74457e-15 -4.00274 12.9775)
(-1.26845e-14 -3.96782 13.0119)
(-1.43333e-14 -3.96226 12.8117)
(-1.72527e-14 -3.90491 12.1978)
(-1.89889e-14 -3.83521 11.8174)
(-1.8789e-14 -3.91218 11.9292)
(-2.38773e-15 -2.85535 12.0931)
(-3.9302e-15 -3.43645 13.4892)
(-3.1749e-15 -3.29359 14.2992)
(-2.61202e-15 -3.31466 14.5087)
(-2.41103e-15 -3.27617 14.697)
(-3.11666e-15 -3.28282 14.6894)
(-4.18109e-15 -3.27805 14.5567)
(-3.72942e-15 -3.24876 14.3777)
(-3.68156e-15 -3.20107 14.2798)
(-3.74246e-15 -3.3097 14.351)
(-2.24266e-15 -2.36927 14.6534)
(-1.09213e-14 -3.01957 15.4704)
(-1.35691e-14 -2.94174 15.9841)
(-1.47282e-14 -2.98675 15.8768)
(-1.29562e-14 -2.97188 15.9191)
(-6.97748e-15 -2.99252 15.8662)
(5.54584e-15 -2.97141 15.7898)
(7.43835e-15 -2.93213 15.7312)
(5.64167e-15 -3.07572 15.8203)
(4.06606e-15 -2.23048 16.501)
(2.6464e-15 -2.89216 16.9476)
(-2.57891e-15 -2.85541 17.1534)
(-7.57155e-15 -2.92612 16.6728)
(-7.74426e-15 -2.91644 16.4858)
(-1.16544e-14 -2.95648 16.3336)
(-1.83841e-14 -2.9313 16.3024)
(-2.89312e-14 -2.87575 16.3837)
(-4.3358e-14 -3.09499 16.5842)
(-1.57951e-14 -2.25274 17.5481)
(-2.19549e-14 -3.04256 17.4282)
(-2.34858e-14 -3.05195 17.1032)
(-1.86873e-14 -3.13587 16.5792)
(-3.13654e-15 -3.11742 16.5207)
(7.713e-16 -3.16117 16.4467)
(-2.8159e-16 -3.12914 16.415)
(-9.12563e-16 -3.10511 16.5161)
(-3.36602e-15 -3.26891 16.7174)
(-1.78924e-14 -2.55976 17.2775)
(-2.3386e-14 -3.34498 16.8718)
(-2.48341e-14 -3.35451 16.54)
(-2.68756e-14 -3.40385 16.5093)
(-3.07859e-14 -3.37273 16.4812)
(-3.8499e-14 -3.46466 16.51)
(-5.21233e-14 -3.39256 16.6973)
(-5.3931e-14 -3.43097 16.4345)
(-6.11478e-14 -3.31935 16.4158)
(-6.95597e-14 -3.52509 16.5101)
(-8.37316e-14 -2.708 16.9409)
(-8.87307e-14 -3.37314 17.2592)
(-9.41929e-14 -3.38951 17.4385)
(-9.96466e-14 -3.35935 17.3036)
(-1.20505e-13 -3.31849 16.9376)
(-1.60868e-13 -3.35513 16.3522)
(-2.19441e-13 -3.29264 15.6512)
(-2.55905e-13 -3.0914 15.1861)
(-2.41042e-13 -3.37277 15.1287)
(-1.91747e-13 -2.37376 13.3573)
(-1.54344e-13 -3.01904 11.7259)
(-7.78609e-14 -3.43251 7.30093)
(7.2749e-14 -2.50244 -4.07244)
(-5.9546e-15 -4.35632 -1.42184)
(4.41042e-15 -4.43845 -2.41196)
(2.53455e-15 -3.67872 -1.94144)
(4.1711e-15 -4.69512 -2.9155)
(1.97812e-15 -3.13101 -2.2291)
(1.54688e-15 -3.87573 -3.03913)
(-7.94001e-16 -3.49399 -2.49326)
(-1.13251e-15 -2.65164 -2.24326)
(-1.06805e-15 -2.95464 -3.09274)
(-8.5685e-16 -2.6169 -2.25686)
(-3.89823e-16 -1.89496 -1.80767)
(1.66322e-16 -2.30999 -2.27385)
(7.70347e-16 -1.33533 -1.67206)
(1.42651e-15 -1.40128 -2.65764)
(1.2923e-16 -1.12484 -2.27297)
(-1.03446e-17 -0.610626 -1.60167)
(-8.55814e-17 -0.83281 -2.07588)
(-3.32149e-16 -0.190182 -1.38292)
(-4.96558e-16 -0.194201 -1.71271)
(-1.2785e-15 0.233706 -2.06938)
(-1.38556e-15 0.668671 -1.11211)
(-1.88401e-15 0.654992 -1.32783)
(-1.49804e-15 1.20872 -1.40398)
(-7.83278e-16 1.23982 -0.653715)
(-5.01274e-16 1.66902 -0.936034)
(-4.06744e-16 1.61551 -0.476685)
(-5.55229e-16 1.77005 -0.698754)
(-9.46287e-16 2.30541 -0.801887)
(-6.85977e-16 1.97514 -0.392745)
(-1.05159e-15 2.72435 -0.592758)
(-1.00072e-15 2.31756 -0.274081)
(-1.51866e-15 2.61846 -0.411605)
(-1.50459e-15 2.99515 -0.411291)
(-7.54927e-16 2.5994 -0.167794)
(-5.03195e-16 3.02507 -0.263548)
(-6.55365e-16 3.45524 -0.142425)
(-6.53325e-16 2.69218 -0.0204408)
(-1.31522e-15 3.76365 -0.0825841)
(-1.28596e-15 3.00598 -0.0110124)
(-1.89603e-15 3.36153 -0.120678)
(-2.50954e-15 3.79501 -0.134672)
(-1.73217e-15 2.92728 -0.0943223)
(-1.73768e-15 4.11514 -0.151635)
(-6.25704e-16 3.22661 -0.044099)
(2.19835e-16 3.69424 -0.104491)
(1.4815e-15 3.95933 -0.0661279)
(1.29997e-15 3.21131 -0.0215148)
(1.49117e-15 3.82975 -0.0633972)
(8.40234e-16 4.16835 0.0722376)
(4.63719e-17 3.12696 0.0671321)
(-5.6045e-16 4.39555 0.067525)
(-6.21543e-16 3.38105 0.0519772)
(-6.94729e-16 3.82168 -0.0254468)
(-4.13112e-16 4.22323 -0.0509433)
(-7.92188e-17 3.20602 -0.0589248)
(-1.40098e-16 4.50024 -0.0881126)
(-3.85413e-16 3.42523 -0.0211871)
(-9.71683e-16 3.92332 -0.0629856)
(-2.14106e-15 4.18316 -0.0351842)
(-1.89705e-15 3.38322 -0.0067071)
(-2.45083e-15 4.04684 -0.0273411)
(-2.29741e-15 4.33501 0.0869059)
(-1.18639e-15 3.26469 0.0727006)
(-1.14893e-15 4.59193 0.069244)
(-5.69166e-16 3.48435 0.0521811)
(-3.44092e-16 3.92033 -0.0234832)
(4.05692e-16 4.32883 -0.060563)
(6.90638e-16 3.30095 -0.0661329)
(1.23032e-15 4.64266 -0.104822)
(7.98176e-16 3.5197 -0.03136)
(6.23199e-16 4.02602 -0.0786038)
(1.49706e-16 4.29811 -0.0666523)
(-9.71533e-17 3.48703 -0.0252015)
(-2.6927e-16 4.1652 -0.058708)
(-2.61379e-16 4.49495 0.0329106)
(-5.46529e-17 3.38293 0.0435973)
(1.73461e-16 4.81208 0.00956581)
(2.72709e-16 3.60644 0.00165106)
(4.07775e-16 4.25412 -0.160188)
(2.21029e-100 0.0043324 0.00379243)
(1.10225e-99 0.00722961 0.00349905)
(4.78828e-99 0.00957387 0.00343396)
(2.0823e-98 0.011669 0.00333415)
(8.75155e-98 0.0137548 0.00329709)
(3.35324e-97 0.0157559 0.00326464)
(1.00269e-96 0.0177497 0.00326274)
(5.81356e-97 0.0197239 0.00327624)
(-2.46369e-95 0.0217078 0.00331066)
(-2.74709e-94 0.0237066 0.00336224)
(-2.004e-93 0.0257353 0.00343162)
(-1.04619e-92 0.0278034 0.00351783)
(-2.27652e-92 0.0299218 0.00362069)
(3.28259e-91 0.0321006 0.00373991)
(6.14333e-90 0.0343499 0.00387537)
(6.78994e-89 0.0366794 0.00402704)
(5.92195e-88 0.0390992 0.00419501)
(4.25123e-87 0.0416192 0.00437945)
(2.38119e-86 0.0442495 0.00458065)
(7.43705e-86 0.0470004 0.00479901)
(-4.18956e-85 0.0498826 0.005035)
(-1.03725e-83 0.052907 0.00528922)
(-1.17373e-82 0.0560849 0.00556235)
(-9.70764e-82 0.0594281 0.00585521)
(-5.98156e-81 0.0629491 0.00616868)
(-2.09951e-80 0.0666607 0.0065038)
(8.39251e-80 0.0705767 0.00686169)
(2.29506e-78 0.0747115 0.0072436)
(2.25858e-77 0.0790806 0.00765092)
(1.12161e-76 0.0837001 0.00808517)
(-4.78402e-76 0.0885874 0.00854801)
(-1.74992e-74 0.0937613 0.00904126)
(-1.71465e-73 0.0992414 0.0095669)
(8.63024e-73 0.105049 0.0101271)
(7.17474e-71 0.111207 0.0107242)
(1.69051e-69 0.117741 0.0113608)
(2.49387e-68 0.124676 0.0120396)
(1.72918e-67 0.132041 0.0127638)
(-2.84281e-66 0.139868 0.0135365)
(-1.27455e-64 0.148189 0.0143615)
(-2.47252e-63 0.157041 0.0152424)
(-2.50677e-62 0.166464 0.0161836)
(1.23157e-61 0.176498 0.0171896)
(1.125e-59 0.187192 0.0182652)
(2.54249e-58 0.198594 0.0194158)
(2.78109e-57 0.210758 0.0206468)
(-2.21207e-56 0.223744 0.0219643)
(-1.76101e-54 0.237613 0.0233745)
(-3.81473e-53 0.252434 0.0248842)
(-1.99402e-52 0.26828 0.0265001)
(1.25791e-50 0.285229 0.0282291)
(3.77896e-49 0.303363 0.0300783)
(2.38072e-48 0.322772 0.0320542)
(-1.11939e-46 0.343546 0.0341628)
(-2.78937e-45 0.36578 0.036409)
(-7.70225e-46 0.389569 0.0387958)
(9.13301e-43 0.415006 0.0413234)
(1.04779e-41 0.442179 0.0439879)
(-1.50643e-40 0.471164 0.0467793)
(-3.88113e-39 0.502012 0.049679)
(7.19339e-39 0.534747 0.0526566)
(8.51849e-37 0.569337 0.0556648)
(2.76208e-36 0.605681 0.058634)
(-1.39399e-34 0.64357 0.0614642)
(-9.18218e-34 0.682647 0.0640156)
(1.87691e-32 0.722352 0.0660976)
(1.83756e-31 0.761847 0.0674569)
(-1.99146e-30 0.799928 0.0677663)
(-2.90179e-29 0.834911 0.0666182)
(1.1864e-28 0.864488 0.063543)
(3.56172e-27 0.885757 0.0579507)
(6.99845e-27 0.894142 0.049585)
(-3.28538e-25 0.887062 0.0373091)
(-3.08357e-24 0.852412 0.0230434)
(2.46204e-23 0.797537 0.00294105)
(6.20929e-22 0.686951 -0.0125374)
(-1.6562e-21 0.564296 -0.0450989)
(-5.00102e-19 0.294838 -0.0178826)
(-7.86917e-18 0.379438 -0.654319)
(9.57731e-100 0.00439326 0.0051525)
(4.77762e-99 0.00729741 0.00473437)
(2.07474e-98 0.00960538 0.00464545)
(9.02533e-98 0.011693 0.00451319)
(3.80664e-97 0.0137668 0.00446527)
(1.47601e-96 0.015761 0.00442423)
(4.60463e-96 0.0177468 0.00442437)
(4.9746e-96 0.0197145 0.00444467)
(-8.622e-95 0.0216918 0.00449328)
(-1.03567e-93 0.0236845 0.00456456)
(-7.64116e-93 0.0257072 0.00465977)
(-3.9287e-92 0.0277696 0.00477744)
(-7.219e-92 0.0298823 0.00491741)
(1.45239e-90 0.0320556 0.00507928)
(2.55474e-89 0.0342993 0.00526289)
(2.77711e-88 0.0366232 0.00546822)
(2.40023e-87 0.0390374 0.00569537)
(1.70983e-86 0.0415517 0.00594456)
(9.47383e-86 0.0441762 0.00621618)
(2.8485e-85 0.0469213 0.00651072)
(-1.82335e-84 0.0497973 0.00682881)
(-4.28133e-83 0.0528154 0.00717122)
(-4.79302e-82 0.0559867 0.00753885)
(-3.94207e-81 0.059323 0.00793272)
(-2.41726e-80 0.0628368 0.00835401)
(-8.39453e-80 0.0665408 0.00880404)
(3.51291e-79 0.0704489 0.00928427)
(9.41829e-78 0.0745753 0.00979631)
(9.3281e-77 0.0789355 0.010342)
(4.8517e-76 0.0835456 0.0109232)
(-1.45029e-75 0.088423 0.011542)
(-6.48522e-74 0.0935862 0.0122009)
(-6.56856e-73 0.099055 0.0129024)
(2.83244e-72 0.104851 0.0136492)
(2.60786e-70 0.110996 0.0144444)
(6.21399e-69 0.117516 0.0152911)
(9.25745e-68 0.124436 0.016193)
(6.62806e-67 0.131786 0.0171539)
(-9.97285e-66 0.139595 0.0181779)
(-4.6425e-64 0.147899 0.0192696)
(-9.12656e-63 0.156732 0.0204339)
(-9.46146e-62 0.166133 0.0216759)
(3.88971e-61 0.176146 0.0230014)
(4.00496e-59 0.186815 0.0244164)
(9.13451e-58 0.198192 0.0259273)
(1.01431e-56 0.210329 0.0275412)
(-7.00732e-56 0.223284 0.0292653)
(-6.01398e-54 0.237122 0.0311072)
(-1.32539e-52 0.251909 0.0330749)
(-7.83853e-52 0.267719 0.0351765)
(4.06803e-50 0.28463 0.0374201)
(1.28918e-48 0.302725 0.0398135)
(9.4593e-48 0.322091 0.0423639)
(-3.53065e-46 0.342821 0.0450774)
(-9.64953e-45 0.36501 0.047958)
(-1.7979e-44 0.388754 0.0510071)
(2.95634e-42 0.414147 0.0542215)
(3.96935e-41 0.441279 0.0575916)
(-4.15321e-40 0.470227 0.0610991)
(-1.357e-38 0.501048 0.0647126)
(-6.93642e-39 0.533768 0.0683834)
(2.75891e-36 0.568364 0.0720384)
(1.5923e-35 0.604743 0.0755719)
(-4.05637e-34 0.642707 0.0788347)
(-3.98294e-33 0.681916 0.0816211)
(4.82286e-32 0.721827 0.0836537)
(6.74119e-31 0.761627 0.0845675)
(-4.65583e-30 0.800135 0.0838966)
(-9.20435e-29 0.835695 0.0810655)
(2.77717e-28 0.86602 0.0754321)
(9.75923e-27 0.888196 0.0661497)
(4.66565e-27 0.897686 0.0530444)
(-6.84318e-25 0.891627 0.0342949)
(-2.41522e-24 0.858265 0.0132658)
(2.03847e-23 0.803602 -0.0156783)
(5.40789e-23 0.694941 -0.0381111)
(2.68714e-21 0.56716 -0.0740917)
(2.59671e-19 0.330188 -0.0654252)
(-3.53009e-18 0.448601 -0.185503)
(3.53826e-99 0.00443118 0.00591216)
(1.78113e-98 0.00733891 0.00543892)
(7.78441e-98 0.00962565 0.00534063)
(3.41013e-97 0.0117086 0.00519192)
(1.44917e-96 0.0137754 0.0051396)
(5.66686e-96 0.0157651 0.00509558)
(1.78874e-95 0.0177458 0.00509835)
(2.0396e-95 0.019709 0.00512395)
(-3.29704e-94 0.0216819 0.00518191)
(-4.04538e-93 0.0236704 0.00526558)
(-3.04172e-92 0.0256889 0.00537663)
(-1.62143e-91 0.0277472 0.00551327)
(-3.74224e-91 0.029856 0.00567542)
(4.86513e-90 0.0320253 0.00586259)
(9.37472e-89 0.034265 0.00607465)
(1.04711e-87 0.0365851 0.00631155)
(9.20469e-87 0.0389953 0.00657341)
(6.66469e-86 0.0415056 0.0068605)
(3.78453e-85 0.044126 0.00717325)
(1.23908e-84 0.0468668 0.00751221)
(-5.87036e-84 0.0497385 0.00787811)
(-1.57621e-82 0.0527521 0.00827181)
(-1.81689e-81 0.0559188 0.00869431)
(-1.5238e-80 0.0592503 0.00914679)
(-9.57134e-80 0.062759 0.00963055)
(-3.5546e-79 0.0664577 0.0101471)
(1.08973e-78 0.0703602 0.010698)
(3.49511e-77 0.0744808 0.0112852)
(3.61509e-76 0.0788347 0.0119107)
(2.02658e-75 0.0834382 0.0125765)
(-3.23091e-75 0.0883087 0.0132852)
(-2.29583e-73 0.0934644 0.0140392)
(-2.56668e-72 0.0989254 0.0148416)
(4.77056e-72 0.104713 0.0156953)
(8.45715e-70 0.110849 0.0166037)
(2.13177e-68 0.117359 0.0175705)
(3.31984e-67 0.124269 0.0185995)
(2.6823e-66 0.131608 0.0196951)
(-2.72295e-65 0.139406 0.0208619)
(-1.52602e-63 0.147697 0.0221049)
(-3.16205e-62 0.156516 0.0234293)
(-3.53041e-61 0.165903 0.0248411)
(6.44544e-61 0.1759 0.0263465)
(1.26399e-58 0.186553 0.027952)
(3.02858e-57 0.197912 0.0296649)
(3.57062e-56 0.210029 0.0314925)
(-1.55247e-55 0.222965 0.033443)
(-1.80741e-53 0.236781 0.0355244)
(-4.1784e-52 0.251545 0.0377454)
(-3.01404e-51 0.26733 0.0401145)
(1.10577e-49 0.284215 0.0426403)
(3.87822e-48 0.302282 0.0453308)
(3.46303e-47 0.32162 0.0481933)
(-9.20484e-46 0.342322 0.0512334)
(-2.90343e-44 0.364481 0.0544545)
(-1.14611e-43 0.388197 0.0578563)
(7.9718e-42 0.413563 0.061433)
(1.29108e-40 0.440671 0.0651713)
(-8.28637e-40 0.469599 0.0690469)
(-3.95186e-38 0.50041 0.0730203)
(-1.27548e-37 0.533132 0.0770306)
(7.13017e-36 0.567748 0.0809885)
(6.48791e-35 0.604172 0.0847655)
(-8.66006e-34 0.642216 0.0881819)
(-1.33155e-32 0.681553 0.0909911)
(7.6661e-32 0.721655 0.092862)
(1.92437e-30 0.761726 0.0933615)
(-5.01223e-30 0.800607 0.0919391)
(-2.30256e-28 0.836658 0.0879175)
(7.03826e-29 0.867609 0.0805525)
(2.31101e-26 0.890526 0.0688299)
(5.11817e-26 0.900895 0.0526642)
(-1.73214e-24 0.895628 0.0297551)
(-9.06345e-24 0.863174 0.00437963)
(8.42107e-23 0.808586 -0.0300481)
(8.8971e-22 0.700531 -0.0573735)
(1.5813e-22 0.570293 -0.0976001)
(5.20015e-19 0.316872 -0.100685)
(-8.87152e-18 0.456778 0.0590485)
(1.29935e-98 0.00448969 0.00673792)
(6.61083e-98 0.00740015 0.00622327)
(2.91093e-97 0.00965545 0.00611989)
(1.28571e-96 0.0117302 0.00595661)
(5.51322e-96 0.0137864 0.00590141)
(2.17919e-95 0.0157691 0.00585562)
(6.99553e-95 0.0177422 0.00586246)
(8.73962e-95 0.019699 0.00589502)
(-1.2316e-93 0.0216655 0.00596435)
(-1.56203e-92 0.0236479 0.00606279)
(-1.20079e-91 0.0256605 0.00619243)
(-6.63829e-91 0.027713 0.00635122)
(-1.82717e-90 0.0298161 0.00653912)
(1.55856e-89 0.0319798 0.0067556)
(3.39245e-88 0.034214 0.00700053)
(3.91181e-87 0.0365284 0.00727386)
(3.5048e-86 0.038933 0.00757575)
(2.58302e-85 0.0414376 0.00790652)
(1.50481e-84 0.0440521 0.00826665)
(5.33605e-84 0.046787 0.00865679)
(-1.76294e-83 0.0496526 0.00907775)
(-5.72599e-82 0.0526598 0.00953051)
(-6.83019e-81 0.0558198 0.0100162)
(-5.85453e-80 0.0591445 0.0105362)
(-3.77323e-79 0.062646 0.011092)
(-1.4966e-78 0.0663372 0.0116852)
(3.04719e-78 0.0702317 0.0123177)
(1.28004e-76 0.0743439 0.0129916)
(1.39106e-75 0.078689 0.0137091)
(8.40745e-75 0.0832832 0.0144727)
(-2.38495e-75 0.0881437 0.0152852)
(-7.87507e-73 0.093289 0.0161493)
(-9.80146e-72 0.0987388 0.0170684)
(-4.03835e-72 0.104514 0.018046)
(2.61855e-69 0.110638 0.0190857)
(7.08913e-68 0.117134 0.0201917)
(1.15994e-66 0.12403 0.0213684)
(1.05014e-65 0.131353 0.0226206)
(-6.36025e-65 0.139135 0.0239535)
(-4.82029e-63 0.147408 0.0253726)
(-1.06431e-61 0.156209 0.0268839)
(-1.28367e-60 0.165575 0.0284939)
(-4.27578e-61 0.175551 0.0302096)
(3.81539e-58 0.186181 0.0320383)
(9.73323e-57 0.197515 0.0339879)
(1.22019e-55 0.209606 0.0360667)
(-2.4231e-55 0.222513 0.0382835)
(-5.18495e-53 0.236299 0.0406473)
(-1.26188e-51 0.251031 0.0431675)
(-1.07157e-50 0.266783 0.0458534)
(2.78996e-49 0.283632 0.0487142)
(1.10415e-47 0.301662 0.0517585)
(1.1687e-46 0.320962 0.0549937)
(-2.19017e-45 0.341623 0.0584255)
(-8.21119e-44 0.363743 0.0620566)
(-4.97121e-43 0.387419 0.0658852)
(1.98127e-41 0.412749 0.0699033)
(3.89059e-40 0.439824 0.0740937)
(-1.15686e-39 0.468728 0.0784262)
(-1.06341e-37 0.499524 0.0828527)
(-6.37468e-37 0.532249 0.0873003)
(1.65117e-35 0.566892 0.0916619)
(2.20665e-34 0.603378 0.0957851)
(-1.4375e-33 0.641532 0.0994574)
(-3.88519e-32 0.681042 0.102388)
(3.48336e-32 0.721404 0.104188)
(4.74559e-30 0.761846 0.104348)
(8.23869e-30 0.801233 0.102225)
(-4.71563e-28 0.837952 0.0970272)
(-1.56961e-27 0.869755 0.0878896)
(4.20758e-26 0.893691 0.073616)
(2.12528e-25 0.905255 0.0541697)
(-3.19381e-24 0.901099 0.0267736)
(-2.55527e-23 0.869889 -0.00343356)
(1.96733e-22 0.815474 -0.0439576)
(3.45745e-21 0.708441 -0.0767911)
(-5.64584e-21 0.574319 -0.121068)
(-1.55122e-19 0.338415 -0.125321)
(2.12498e-18 0.35674 -0.492621)
(4.73008e-98 0.00454594 0.00751065)
(2.43742e-97 0.00745812 0.00696946)
(1.08273e-96 0.00968488 0.0068645)
(4.82844e-96 0.0117515 0.00669022)
(2.09263e-95 0.0137972 0.00663402)
(8.38014e-95 0.0157728 0.00658816)
(2.7488e-94 0.0177382 0.00660016)
(3.85342e-94 0.0196883 0.00664057)
(-4.48069e-93 0.021648 0.00672179)
(-5.95605e-92 0.0236241 0.00683533)
(-4.69781e-91 0.0256305 0.00698368)
(-2.69503e-90 0.0276769 0.00716454)
(-8.56305e-90 0.029774 0.00737795)
(4.65875e-89 0.0319317 0.00762334)
(1.20674e-87 0.0341599 0.00790058)
(1.44548e-86 0.0364685 0.00820966)
(1.32339e-85 0.038867 0.00855075)
(9.94444e-85 0.0413655 0.00892424)
(5.95106e-84 0.0439739 0.00933066)
(2.27551e-83 0.0467024 0.00977074)
(-4.66533e-83 0.0495614 0.0102454)
(-2.04597e-81 0.0525619 0.0107558)
(-2.54221e-80 0.0557149 0.0113031)
(-2.23313e-79 0.0590323 0.0118888)
(-1.47959e-78 0.0625261 0.0125147)
(-6.26159e-78 0.0662093 0.0131825)
(6.77385e-78 0.0700955 0.0138944)
(4.60937e-76 0.0741988 0.0146526)
(5.30295e-75 0.0785346 0.0154596)
(3.45531e-74 0.0831188 0.0163183)
(3.23767e-74 0.0879689 0.0172315)
(-2.58958e-72 0.0931031 0.0182026)
(-3.63835e-71 0.098541 0.0192351)
(-9.1556e-71 0.104304 0.0203329)
(7.63079e-69 0.110414 0.0215001)
(2.26949e-67 0.116897 0.0227412)
(3.9251e-66 0.123777 0.0240611)
(3.95821e-65 0.131084 0.0254652)
(-1.02191e-64 0.138848 0.0269591)
(-1.44811e-62 0.147103 0.0285489)
(-3.45798e-61 0.155883 0.0302412)
(-4.52337e-60 0.165229 0.0320432)
(-1.07712e-59 0.175182 0.0339625)
(1.08836e-57 0.185788 0.0360071)
(3.01653e-56 0.197095 0.0381857)
(4.03394e-55 0.209159 0.0405073)
(7.5013e-56 0.222037 0.0429815)
(-1.41006e-52 0.235791 0.0456181)
(-3.63035e-51 0.25049 0.0484272)
(-3.52824e-50 0.266206 0.0514189)
(6.42037e-49 0.283018 0.0546029)
(2.94649e-47 0.30101 0.0579882)
(3.62171e-46 0.320269 0.0615827)
(-4.62115e-45 0.34089 0.0653917)
(-2.15679e-43 0.36297 0.0694174)
(-1.76716e-42 0.386606 0.0736568)
(4.45144e-41 0.411899 0.0780995)
(1.07468e-39 0.438942 0.0827246)
(3.44931e-41 0.467823 0.0874964)
(-2.60665e-37 0.498609 0.0923586)
(-2.31779e-36 0.531343 0.0972262)
(3.31863e-35 0.566023 0.101976)
(6.45617e-34 0.602585 0.106432)
(-1.22592e-33 0.640868 0.110351)
(-9.85238e-32 0.680581 0.113399)
(-3.24086e-31 0.72124 0.115131)
(9.7489e-30 0.762101 0.114967)
(6.69875e-29 0.802061 0.112169)
(-6.85598e-28 0.839532 0.105835)
(-6.92066e-27 0.872288 0.0949802)
(4.17798e-26 0.89736 0.0782281)
(5.36181e-25 0.910246 0.0555702)
(-2.78542e-24 0.90733 0.023773)
(-4.30092e-23 0.87744 -0.0112524)
(2.04514e-22 0.823232 -0.0578104)
(5.86117e-21 0.716944 -0.0963175)
(-5.66987e-21 0.577984 -0.14401)
(-1.16684e-18 0.338524 -0.146201)
(1.24539e-18 0.452275 0.118298)
(1.70464e-97 0.00460704 0.00825901)
(8.91935e-97 0.00751963 0.00770176)
(4.00284e-96 0.00971671 0.00759811)
(1.80504e-95 0.011774 0.00741592)
(7.91991e-95 0.0138083 0.00736043)
(3.22031e-94 0.0157757 0.00731608)
(1.08368e-93 0.0177325 0.00733435)
(1.723e-93 0.0196751 0.00738362)
(-1.58141e-92 0.0216272 0.00747756)
(-2.24104e-91 0.0235961 0.00760694)
(-1.82046e-90 0.0255954 0.00777464)
(-1.08432e-89 0.0276349 0.00797815)
(-3.88486e-89 0.0297252 0.0082176)
(1.23845e-88 0.0318761 0.00849239)
(4.20941e-87 0.0340976 0.00880241)
(5.27903e-86 0.0363994 0.00914767)
(4.95315e-85 0.0387911 0.00952839)
(3.80143e-84 0.0412827 0.009945)
(2.33925e-83 0.043884 0.0103981)
(9.60163e-83 0.0466053 0.0108885)
(-9.16825e-83 0.0494569 0.0114173)
(-7.17373e-81 0.0524496 0.0119856)
(-9.36126e-80 0.0555947 0.0125949)
(-8.45185e-79 0.0589037 0.0132468)
(-5.76698e-78 0.0623889 0.0139432)
(-2.59973e-77 0.066063 0.0146861)
(5.3202e-78 0.0699396 0.0154778)