/*--------------------------------*- C++ -*----------------------------------*\
| =========                 |                                                 |
| \\      /  F ield         | OpenFOAM: The Open Source CFD Toolbox           |
|  \\    /   O peration     | Version:  4.1                                   |
|   \\  /    A nd           | Web:      www.OpenFOAM.org                      |
|    \\/     M anipulation  |                                                 |
\*---------------------------------------------------------------------------*/
FoamFile
{
    version     2.0;
    format      ascii;
    class       surfaceScalarField;
    location    "17";
    object      phi;
}
// * * * * * * * * * * * * * * * * * * * * * * * * * * * * * * * * * * * * * //

dimensions      [0 3 -1 0 0 0 0];

internalField   nonuniform List<scalar> 
420
(
-949.879
2249.78
-1573.96
1924.28
-2054
1779.95
-2424.23
1670.13
-2699.86
1575.83
-2888.38
1488.42
-2993.05
1404.58
-3013.85
1321
-2949.61
1235.66
-2797.23
1147.52
-2551.16
1054.13
-2192.99
941.735
-1687.16
794.065
-1012.67
625.704
287.234
373.335
1876.44
442.749
1854.86
437.302
1785.39
406.699
1700.74
380.582
1601.94
359.903
1509.1
345.295
1419.19
337.54
1328.76
333.489
1239.71
326.962
1154.05
309.619
1071.48
267.481
983.878
191.449
870.105
111.459
705.686
398.681
33.5762
1842.87
-97.3884
1985.83
-253.611
1941.62
-371.117
1818.24
-473.179
1704.01
-567.527
1603.45
-651.742
1503.4
-725.789
1402.8
-788.065
1301.99
-837.295
1203.28
-868.211
1102.4
-856.077
971.742
-740.325
754.357
-434.272
399.644
-35.6018
28.7759
1814.09
-100.654
2115.25
-225.561
2066.52
-304.494
1897.18
-368.156
1767.67
-416.952
1652.24
-446.226
1532.68
-457.011
1413.59
-451.85
1296.83
-430.154
1181.59
-387.226
1059.47
-311.873
896.39
-192.866
635.352
-48.4046
255.19
-84.0085
169.622
1644.47
146.155
2138.72
123.731
2088.95
122.868
1898.04
126.941
1763.6
135.805
1643.38
149.102
1519.38
166.594
1396.1
186.946
1276.48
208.132
1160.4
229.129
1038.47
243.817
881.703
233.001
646.173
155.235
332.965
71.2272
223.075
1421.4
244.181
2117.62
234.747
2098.39
236.024
1896.76
240.374
1759.25
244.31
1639.45
246.554
1517.14
245.258
1397.4
241.172
1280.57
234.002
1167.57
221.395
1051.08
199.151
903.95
156.152
689.175
78.3118
410.806
149.527
203.316
1218.08
238.372
2082.56
213.623
2123.14
191.412
1918.97
177.209
1773.45
163.779
1652.88
150.046
1530.87
135.905
1411.54
121.079
1295.39
106.929
1181.72
92.8358
1065.17
75.7861
920.995
52.0345
712.916
19.0247
443.803
168.546
171.845
1046.24
221.972
2032.44
199.411
2145.7
170.399
1947.98
152.048
1791.8
137.665
1667.26
122.774
1545.76
108.575
1425.74
95.5775
1308.38
83.0939
1194.2
71.4753
1076.79
58.6284
933.835
40.3216
731.214
15.7476
468.369
184.296
146.086
900.15
210.035
1968.48
196.845
2158.88
170.031
1974.8
152.376
1809.45
139.504
1680.13
127.039
1558.22
113.831
1438.94
101.286
1320.93
89.3847
1206.1
76.9467
1089.22
63.053
947.732
44.2915
749.996
19.1717
493.513
203.469
116.754
783.397
184.831
1900.4
179.606
2164.1
154.291
2000.12
137.199
1826.54
123.979
1693.35
111.351
1570.85
98.9424
1451.35
86.0914
1333.78
73.8572
1218.34
62.095
1100.99
49.0114
960.817
32.8485
766.174
13.1902
513.189
216.652
83.16
700.24
143.125
1840.43
144.684
2162.55
122.756
2022.05
106.15
1843.15
94.4635
1705.03
82.5848
1582.73
71.1764
1462.76
60.3978
1344.56
49.4755
1229.26
39.4514
1111.02
29.7701
970.498
18.0988
777.835
5.24584
526.028
221.889
51.2475
648.999
97.9259
1793.75
102.719
2157.76
87.3914
2037.37
73.1656
1857.37
63.1557
1715.04
54.2572
1591.63
44.8747
1472.14
36.1613
1353.27
28.1798
1237.24
20.4324
1118.76
13.6981
977.231
6.75324
784.767
-0.406496
533.17
221.485
25.124
623.874
57.7125
1761.17
63.508
2151.97
53.4764
2047.4
43.9039
1866.95
36.1921
1722.75
29.5657
1598.25
23.5217
1478.18
17.0749
1359.71
11.3259
1242.98
6.61716
1123.47
2.48118
981.363
-1.06875
788.319
-3.6867
535.791
217.808
1.39657
622.466
24.037
1738.53
33.3337
2142.67
27.7041
2053.04
20.3499
1874.3
15.055
1728.05
9.52455
1603.78
4.5785
1483.13
0.0375167
1364.25
-4.82728
1247.85
-8.3407
1126.98
-9.65862
982.675
-9.73122
788.391
-7.14427
533.211
210.668
-11.7405
-3.14212
1.44473
-0.41582
-5.11634
-8.86675
-11.8178
-15.2604
-18.1217
-20.2534
-21.8108
-21.1369
-18.1338
-12.3851
)
;

boundaryField
{
    inletFace
    {
        type            calculated;
        value           nonuniform List<scalar> 
450
(
-2.81796e-14
5.82907e-13
-3.29948e-13
-2.29035e-13
1.94759e-13
-1.94689e-13
-7.42072e-14
6.93185e-14
-1.04968e-13
-3.31255e-14
4.32629e-14
-5.49553e-14
-1.79491e-15
1.32378e-14
-8.75812e-16
-2.14463e-12
-2.34772e-12
-7.75442e-14
-8.05682e-13
-2.79648e-13
-6.22736e-16
-2.48342e-13
-1.27116e-13
-2.21681e-15
-1.96461e-13
-8.10452e-14
1.23864e-14
-4.33963e-14
-5.31204e-15
2.60792e-17
-2.28801e-12
-2.20856e-12
-2.7605e-13
-3.98496e-13
-2.58308e-13
-1.11788e-13
-2.53119e-13
-1.14704e-13
-5.45972e-14
-7.96789e-14
-7.49956e-14
-8.83272e-14
-7.86268e-14
3.24985e-14
6.68726e-15
-2.49828e-12
-1.99841e-12
-3.04246e-13
-5.14352e-13
-2.08979e-13
-2.24761e-13
-4.0868e-13
-7.94525e-14
-8.24133e-14
-1.13417e-13
-8.30181e-14
-1.24386e-13
-1.41823e-13
4.59807e-14
6.23799e-14
-2.31817e-12
-2.20548e-12
-3.56137e-13
-5.75533e-13
-2.58378e-13
-2.65766e-13
-3.79989e-13
-9.0437e-14
-1.16175e-13
-1.73114e-13
-7.50993e-14
-1.18788e-13
-9.58029e-14
1.58247e-15
4.76541e-14
-2.0417e-12
-2.25567e-12
-5.29281e-13
-5.0212e-13
-2.58528e-13
-1.95565e-13
-3.35105e-13
-1.16686e-13
-1.63828e-13
-1.63474e-13
-5.89788e-14
-9.2108e-14
-8.48027e-14
-2.99212e-15
2.0248e-14
-1.8198e-12
-2.33819e-12
-7.71745e-13
-4.78743e-13
-2.45951e-13
-2.02031e-13
-3.36734e-13
-1.65966e-13
-1.23704e-13
-1.55888e-13
-8.80359e-14
-9.09455e-14
-1.12349e-13
-9.16427e-14
-1.30172e-13
-1.61923e-12
-2.36564e-12
-9.90536e-13
-4.86483e-13
-2.63094e-13
-2.41286e-13
-3.00129e-13
-1.95518e-13
-1.46753e-13
-1.52131e-13
-1.23383e-13
-1.47724e-13
-5.26941e-14
-3.80568e-14
-2.48683e-13
-1.39179e-12
-2.34685e-12
-1.16068e-12
-5.27383e-13
-2.71447e-13
-2.1922e-13
-2.82404e-13
-2.10366e-13
-1.54071e-13
-1.69292e-13
-1.30654e-13
-9.7775e-14
-3.01528e-14
-2.9259e-14
-4.70626e-14
-1.15523e-12
-2.29681e-12
-1.29197e-12
-5.62394e-13
-2.78192e-13
-2.09709e-13
-2.90602e-13
-2.18868e-13
-1.55517e-13
-1.68012e-13
-1.28933e-13
-4.05959e-14
-7.01624e-14
-4.12286e-14
9.08374e-14
-9.42504e-13
-2.20678e-12
-1.39172e-12
-5.83083e-13
-2.8533e-13
-1.82509e-13
-2.46921e-13
-2.24706e-13
-1.09475e-13
-1.23624e-13
-1.26971e-13
-5.23375e-14
-2.20341e-14
-2.7873e-14
8.73287e-14
-8.39419e-13
-2.15204e-12
-1.43489e-12
-6.17119e-13
-3.02104e-13
-1.22549e-13
-2.39235e-13
-2.33315e-13
-7.1099e-14
-1.19269e-13
-1.37313e-13
-1.75261e-14
-1.4643e-14
8.92742e-14
8.56571e-14
-7.8054e-13
-2.11382e-12
-1.46728e-12
-6.59875e-13
-3.18379e-13
-1.2871e-13
-2.33889e-13
-2.43978e-13
-1.07419e-13
-1.18404e-13
-1.34835e-13
-1.79503e-14
-1.94572e-14
9.96674e-14
8.67922e-14
-7.38681e-13
-2.05651e-12
-1.48811e-12
-6.76595e-13
-3.25655e-13
-1.44827e-13
-2.24983e-13
-2.61801e-13
-9.80126e-14
-1.20012e-13
-1.40077e-13
1.40927e-15
-1.67806e-14
7.97404e-14
9.5099e-14
-7.29645e-13
-1.97937e-12
-1.4753e-12
-6.92745e-13
-3.31958e-13
-1.56572e-13
-2.26631e-13
-2.50864e-13
-1.07446e-13
-1.24834e-13
-1.26482e-13
-8.20252e-15
-1.24977e-14
7.63753e-14
5.55984e-14
2.81796e-14
-5.82907e-13
3.29948e-13
2.29035e-13
-1.94759e-13
1.94689e-13
7.42072e-14
-6.93185e-14
1.04968e-13
3.31255e-14
-4.32629e-14
5.49553e-14
1.79491e-15
-1.32378e-14
8.75812e-16
2.14463e-12
2.34772e-12
7.75442e-14
8.05682e-13
2.79648e-13
6.22736e-16
2.48342e-13
1.27116e-13
2.21681e-15
1.96461e-13
8.10452e-14
-1.23864e-14
4.33963e-14
5.31204e-15
-2.60792e-17
2.28801e-12
2.20856e-12
2.7605e-13
3.98496e-13
2.58308e-13
1.11788e-13
2.53119e-13
1.14704e-13
5.45972e-14
7.96789e-14
7.49956e-14
8.83272e-14
7.86268e-14
-3.24985e-14
-6.68726e-15
2.49828e-12
1.99841e-12
3.04246e-13
5.14352e-13
2.08979e-13
2.24761e-13
4.0868e-13
7.94525e-14
8.24133e-14
1.13417e-13
8.30181e-14
1.24386e-13
1.41823e-13
-4.59807e-14
-6.23799e-14
2.31817e-12
2.20548e-12
3.56137e-13
5.75533e-13
2.58378e-13
2.65766e-13
3.79989e-13
9.0437e-14
1.16175e-13
1.73114e-13
7.50993e-14
1.18788e-13
9.58029e-14
-1.58247e-15
-4.76541e-14
2.0417e-12
2.25567e-12
5.29281e-13
5.0212e-13
2.58528e-13
1.95565e-13
3.35105e-13
1.16686e-13
1.63828e-13
1.63474e-13
5.89788e-14
9.2108e-14
8.48027e-14
2.99212e-15
-2.0248e-14
1.8198e-12
2.33819e-12
7.71745e-13
4.78743e-13
2.45951e-13
2.02031e-13
3.36734e-13
1.65966e-13
1.23704e-13
1.55888e-13
8.80359e-14
9.09455e-14
1.12349e-13
9.16427e-14
1.30172e-13
1.61923e-12
2.36564e-12
9.90536e-13
4.86483e-13
2.63094e-13
2.41286e-13
3.00129e-13
1.95518e-13
1.46753e-13
1.52131e-13
1.23383e-13
1.47724e-13
5.26941e-14
3.80568e-14
2.48683e-13
1.39179e-12
2.34685e-12
1.16068e-12
5.27383e-13
2.71447e-13
2.1922e-13
2.82404e-13
2.10366e-13
1.54071e-13
1.69292e-13
1.30654e-13
9.7775e-14
3.01528e-14
2.9259e-14
4.70626e-14
1.15523e-12
2.29681e-12
1.29197e-12
5.62394e-13
2.78192e-13
2.09709e-13
2.90602e-13
2.18868e-13
1.55517e-13
1.68012e-13
1.28933e-13
4.05959e-14
7.01624e-14
4.12286e-14
-9.08374e-14
9.42504e-13
2.20678e-12
1.39172e-12
5.83083e-13
2.8533e-13
1.82509e-13
2.46921e-13
2.24706e-13
1.09475e-13
1.23624e-13
1.26971e-13
5.23375e-14
2.20341e-14
2.7873e-14
-8.73287e-14
8.39419e-13
2.15204e-12
1.43489e-12
6.17119e-13
3.02104e-13
1.22549e-13
2.39235e-13
2.33315e-13
7.1099e-14
1.19269e-13
1.37313e-13
1.75261e-14
1.4643e-14
-8.92742e-14
-8.56571e-14
7.8054e-13
2.11382e-12
1.46728e-12
6.59875e-13
3.18379e-13
1.2871e-13
2.33889e-13
2.43978e-13
1.07419e-13
1.18404e-13
1.34835e-13
1.79503e-14
1.94572e-14
-9.96674e-14
-8.67922e-14
7.38681e-13
2.05651e-12
1.48811e-12
6.76595e-13
3.25655e-13
1.44827e-13
2.24983e-13
2.61801e-13
9.80126e-14
1.20012e-13
1.40077e-13
-1.40927e-15
1.67806e-14
-7.97404e-14
-9.5099e-14
7.29645e-13
1.97937e-12
1.4753e-12
6.92745e-13
3.31958e-13
1.56572e-13
2.26631e-13
2.50864e-13
1.07446e-13
1.24834e-13
1.26482e-13
8.20252e-15
1.24977e-14
-7.63753e-14
-5.55984e-14
)
;
    }
    inlet
    {
        type            calculated;
        value           nonuniform List<scalar> 
15
(
-1299.9
-1300.2
-1299.9
-1299.9
-1300.2
-1299.9
-1299.9
-1300.2
-1299.9
-1299.9
-1300.2
-1299.9
-1299.9
-1300.2
-1299.9
)
;
    }
    inletWalls
    {
        type            calculated;
        value           uniform 0;
    }
    outletInlet
    {
        type            calculated;
        value           nonuniform List<scalar> 
15
(
198.269
527.467
785.396
982.004
1128.53
1249.98
1367.11
1486.57
1606.73
1731.8
1879
2054.9
2138.08
1729.93
634.205
)
;
    }
}


// ************************************************************************* //
