/*--------------------------------*- C++ -*----------------------------------*\
| =========                 |                                                 |
| \\      /  F ield         | OpenFOAM: The Open Source CFD Toolbox           |
|  \\    /   O peration     | Version:  4.1                                   |
|   \\  /    A nd           | Web:      www.OpenFOAM.org                      |
|    \\/     M anipulation  |                                                 |
\*---------------------------------------------------------------------------*/
FoamFile
{
    version     2.0;
    format      ascii;
    class       volVectorField;
    location    "17";
    object      U;
}
// * * * * * * * * * * * * * * * * * * * * * * * * * * * * * * * * * * * * * //

dimensions      [0 1 -1 0 0 0 0];

internalField   nonuniform List<vector> 
225
(
(1.12263e-14 0.85219 15.7946)
(9.24814e-15 -4.89458 12.1215)
(-1.52572e-15 -4.19551 12.1321)
(5.0252e-15 -3.60119 11.9966)
(2.55245e-16 -3.00468 11.8778)
(-1.85079e-16 -2.55319 11.6992)
(2.01e-15 -2.20881 11.4769)
(2.64639e-16 -1.96604 11.2116)
(-2.89355e-17 -1.79856 10.916)
(1.0125e-15 -1.71239 10.5882)
(1.16529e-16 -1.83746 10.1561)
(-7.72828e-17 -2.28568 9.53761)
(5.45556e-16 -2.51303 8.96377)
(-9.16428e-17 -1.06553 8.91358)
(6.06309e-18 1.76575 7.47094)
(1.55364e-14 -5.35016 22.493)
(1.62546e-14 -14.6049 21.394)
(5.36822e-16 -13.2708 20.3412)
(5.7644e-15 -11.7697 19.5066)
(1.93617e-15 -11.1561 18.5044)
(4.31108e-18 -10.6595 17.5174)
(1.82998e-15 -10.0901 16.5714)
(8.80102e-16 -9.525 15.6236)
(1.53465e-17 -8.96544 14.6638)
(1.34371e-15 -8.36732 13.6946)
(5.61124e-16 -7.75711 12.7179)
(-8.57489e-17 -7.30336 11.7194)
(2.99725e-16 -7.01706 10.6244)
(3.67784e-17 -5.73095 9.1611)
(-1.80541e-19 -2.30501 4.58319)
(1.74761e-14 -7.71566 23.9801)
(1.48939e-14 -16.7731 24.6729)
(1.91126e-15 -13.7365 23.9372)
(3.89822e-15 -12.3062 22.6249)
(1.78822e-15 -11.6447 21.2414)
(7.73975e-16 -10.814 20.0013)
(2.89229e-15 -9.94026 18.7738)
(7.94078e-16 -9.10012 17.5247)
(3.7801e-16 -8.28338 16.2654)
(1.14347e-15 -7.47525 15.0262)
(5.19181e-16 -6.66763 13.8176)
(6.11544e-16 -5.84168 12.4301)
(1.02764e-15 -4.81393 10.2753)
(-2.24981e-16 -3.12632 6.68451)
(-4.63e-17 -0.832179 1.68996)
(1.72881e-14 -8.50259 22.0462)
(1.38347e-14 -16.621 24.332)
(2.10626e-15 -12.93 23.7971)
(3.56121e-15 -12.1536 21.9985)
(1.37553e-15 -11.4201 20.5028)
(1.58032e-15 -10.4936 19.1722)
(2.82957e-15 -9.63387 17.8167)
(4.71049e-16 -8.8236 16.459)
(5.98387e-16 -8.05364 15.123)
(7.70362e-16 -7.32378 13.8165)
(5.66592e-16 -6.55247 12.4394)
(8.51753e-16 -5.49089 10.5831)
(9.5711e-16 -3.7853 7.50875)
(-1.257e-16 -1.49372 2.76616)
(-6.23898e-16 0.153253 -1.77299)
(1.58368e-14 -8.47614 19.748)
(1.49239e-14 -16.3601 24.312)
(2.28715e-15 -13.099 23.6602)
(3.78971e-15 -12.628 21.5365)
(1.47782e-15 -11.8565 20.0248)
(1.62005e-15 -10.9574 18.6637)
(2.51371e-15 -10.1698 17.2587)
(3.77468e-16 -9.40277 15.8711)
(8.0424e-16 -8.6526 14.5236)
(1.12793e-15 -7.93053 13.2136)
(3.68451e-16 -7.1659 11.8292)
(7.3768e-16 -6.11617 9.99632)
(5.56888e-16 -4.42407 7.15563)
(-3.6912e-16 -2.30534 3.28801)
(-6.96069e-16 -0.787255 0.317824)
(1.43586e-14 -8.02194 17.5537)
(1.56575e-14 -16.0195 24.5277)
(3.7916e-15 -13.6434 24.0462)
(3.52229e-15 -12.9943 21.7651)
(1.83888e-15 -12.1264 20.2158)
(1.45807e-15 -11.2247 18.847)
(2.31989e-15 -10.439 17.4341)
(8.67091e-16 -9.64889 16.0434)
(1.32556e-15 -8.86037 14.6933)
(1.13171e-15 -8.09329 13.3818)
(4.83781e-16 -7.29737 12.0172)
(8.96488e-16 -6.28467 10.2819)
(5.87079e-16 -4.73312 7.72105)
(3.78311e-16 -2.75623 4.37261)
(8.67671e-16 -0.94947 1.29747)
(1.27325e-14 -7.33746 15.2535)
(1.62083e-14 -15.4909 24.355)
(5.42726e-15 -14.0225 24.4218)
(3.31467e-15 -13.1279 22.0676)
(1.753e-15 -12.1448 20.4401)
(1.50635e-15 -11.2358 19.0547)
(2.33144e-15 -10.4361 17.6437)
(1.21171e-15 -9.61987 16.2576)
(9.92848e-16 -8.81019 14.9067)
(1.07932e-15 -8.02726 13.5919)
(7.74341e-16 -7.22401 12.2369)
(9.13846e-16 -6.24037 10.549)
(7.7787e-16 -4.78765 8.10768)
(2.59618e-16 -2.91421 4.9473)
(2.17348e-15 -1.0109 1.79747)
(1.10245e-14 -6.55625 13.033)
(1.63784e-14 -14.847 23.8164)
(6.81502e-15 -14.2638 24.669)
(3.36776e-15 -13.2372 22.3215)
(1.82152e-15 -12.1674 20.5831)
(1.56196e-15 -11.2657 19.1667)
(2.0777e-15 -10.4651 17.7586)
(1.35366e-15 -9.64314 16.3766)
(8.78314e-16 -8.83494 15.0246)
(1.12836e-15 -8.05528 13.7073)
(8.54236e-16 -7.25497 12.3576)
(8.32395e-16 -6.28688 10.6996)
(3.64784e-16 -4.89101 8.33099)
(2.63485e-16 -3.08522 5.26767)
(1.22498e-15 -1.1222 2.04395)
(9.6352e-15 -5.77838 11.1239)
(1.6247e-14 -14.1745 23.0906)
(7.91028e-15 -14.4411 24.8462)
(3.65101e-15 -13.3963 22.6147)
(1.8792e-15 -12.2527 20.7553)
(1.35649e-15 -11.3492 19.2955)
(1.95505e-15 -10.5476 17.8904)
(1.45634e-15 -9.72536 16.5109)
(8.62832e-16 -8.91937 15.1561)
(1.17199e-15 -8.14017 13.8351)
(9.04504e-16 -7.33988 12.4863)
(3.96371e-16 -6.38005 10.8512)
(2.08745e-16 -5.02341 8.54662)
(2.02557e-16 -3.26575 5.55827)
(-6.10937e-16 -1.23756 2.24768)
(7.69878e-15 -5.08505 9.59941)
(1.59006e-14 -13.5192 22.3001)
(8.90198e-15 -14.5349 24.9522)
(3.80238e-15 -13.553 22.9352)
(1.92589e-15 -12.3447 20.9698)
(1.39795e-15 -11.425 19.4566)
(1.83816e-15 -10.6173 18.0505)
(1.51519e-15 -9.79439 16.672)
(1.00855e-15 -8.9882 15.3135)
(9.40079e-16 -8.20618 13.9873)
(8.92586e-16 -7.40471 12.6356)
(1.87428e-16 -6.45145 11.0132)
(2.53816e-16 -5.1252 8.75509)
(2.8542e-16 -3.40655 5.81956)
(-9.29054e-16 -1.31909 2.43095)
(6.37476e-15 -4.53881 8.46239)
(1.53033e-14 -12.9255 21.5504)
(9.48462e-15 -14.5349 24.9757)
(4.01353e-15 -13.6653 23.2209)
(2.02581e-15 -12.4128 21.1811)
(1.04606e-15 -11.4735 19.612)
(1.70935e-15 -10.659 18.2003)
(1.61902e-15 -9.83693 16.8208)
(4.8283e-16 -9.03203 15.4584)
(8.55809e-16 -8.24855 14.1268)
(9.6202e-16 -7.44649 12.7691)
(-1.54542e-17 -6.49777 11.1498)
(1.52535e-16 -5.19263 8.91848)
(-4.73134e-16 -3.50186 6.01054)
(-8.67447e-16 -1.36375 2.54246)
(5.8112e-15 -4.17055 7.70287)
(1.49501e-14 -12.4378 20.9279)
(9.89104e-15 -14.4733 24.9365)
(4.27224e-15 -13.7315 23.4378)
(2.14224e-15 -12.4592 21.3593)
(7.66034e-16 -11.5039 19.7404)
(1.65619e-15 -10.6832 18.3206)
(1.67916e-15 -9.86358 16.9391)
(4.57525e-16 -9.06117 15.5728)
(8.25684e-16 -8.2776 14.2363)
(9.50604e-16 -7.47487 12.8709)
(2.60817e-17 -6.52679 11.2464)
(1.59863e-16 -5.23302 9.0264)
(-7.01043e-16 -3.55793 6.12602)
(-7.84896e-16 -1.37727 2.57256)
(5.30496e-15 -3.97348 7.27983)
(1.46068e-14 -12.0683 20.4613)
(1.01801e-14 -14.3843 24.8626)
(4.53363e-15 -13.7598 23.5827)
(2.2041e-15 -12.4875 21.4969)
(8.91041e-16 -11.523 19.8406)
(1.58947e-15 -10.6966 18.412)
(1.78587e-15 -9.87997 17.0279)
(7.08605e-16 -9.08057 15.6584)
(8.19789e-16 -8.29724 14.317)
(9.75617e-16 -7.49314 12.9421)
(7.63212e-17 -6.54209 11.3061)
(1.34715e-16 -5.25089 9.08425)
(-6.07471e-16 -3.57873 6.17531)
(-7.48851e-16 -1.36514 2.53874)
(5.04933e-15 -3.90382 7.11054)
(1.42243e-14 -11.8314 20.1819)
(1.02791e-14 -14.2998 24.79)
(4.67202e-15 -13.7666 23.6684)
(2.24173e-15 -12.5018 21.5897)
(1.00259e-15 -11.5319 19.9094)
(1.57256e-15 -10.7002 18.4745)
(1.79629e-15 -9.88537 17.0883)
(6.78509e-16 -9.08783 15.7172)
(8.50025e-16 -8.30401 14.3729)
(9.48767e-16 -7.49779 12.9906)
(-9.75593e-18 -6.54312 11.3434)
(1.45195e-16 -5.25336 9.11721)
(-5.92937e-16 -3.5836 6.20154)
(-6.58339e-16 -1.35009 2.5064)
(5.03644e-15 -4.03951 7.28693)
(1.36959e-14 -11.627 19.9522)
(1.02203e-14 -14.1916 24.668)
(4.79579e-15 -13.7463 23.7082)
(2.29159e-15 -12.5064 21.6736)
(1.09108e-15 -11.5391 19.9772)
(1.56894e-15 -10.6994 18.5349)
(1.72861e-15 -9.88679 17.1436)
(7.52652e-16 -9.09033 15.7693)
(8.64213e-16 -8.30478 14.4182)
(8.70429e-16 -7.48976 13.0146)
(6.26776e-17 -6.51514 11.3279)
(8.65203e-17 -5.20581 9.06101)
(-5.38916e-16 -3.50152 6.08262)
(-3.65819e-16 -1.25246 2.30727)
)
;

boundaryField
{
    inletFace
    {
        type            zeroGradient;
    }
    inlet
    {
        type            fixedValue;
        value           uniform (0 8.7 15);
    }
    inletWalls
    {
        type            noSlip;
    }
    outletInlet
    {
        type            zeroGradient;
    }
}


// ************************************************************************* //
