/*--------------------------------*- C++ -*----------------------------------*\
| =========                 |                                                 |
| \\      /  F ield         | OpenFOAM: The Open Source CFD Toolbox           |
|  \\    /   O peration     | Version:  4.1                                   |
|   \\  /    A nd           | Web:      www.OpenFOAM.org                      |
|    \\/     M anipulation  |                                                 |
\*---------------------------------------------------------------------------*/
FoamFile
{
    version     2.0;
    format      ascii;
    class       volScalarField;
    location    "19";
    object      p;
}
// * * * * * * * * * * * * * * * * * * * * * * * * * * * * * * * * * * * * * //

dimensions      [0 2 -2 0 0 0 0];

internalField   nonuniform List<scalar> 
6785
(
602.844
524.968
478.374
425.49
379.221
334.68
293.187
253.884
216.66
181.314
147.162
113.816
84.6962
54.66
13.6816
-1.86902
-19.1068
-8.99959
-15.79
-14.9432
-17.2229
-17.7788
-18.3029
-17.9451
-16.707
-14.2794
-11.0946
-6.56303
-0.173832
3.057
26.0165
21.9297
31.0295
26.5394
30.4816
29.5084
30.551
30.4309
30.5691
30.5258
30.7504
31.1716
31.4742
31.6313
31.6922
34.8294
30.5325
32.4994
26.4689
26.7943
22.6787
21.1467
18.3144
16.2872
14.1706
12.6716
11.7498
10.5687
8.61267
7.31714
-4.99301
-9.0532
-7.87571
-12.056
-11.0795
-14.2418
-14.6365
-16.6868
-17.9016
-19.4312
-20.5288
-21.202
-21.7329
-22.3646
-21.0782
-7.41518
-8.86978
-6.33771
-8.47651
-5.96783
-7.35263
-6.03729
-6.30186
-5.77851
-5.54527
-4.97974
-4.17714
-2.56256
-1.00398
1.86619
17.0483
17.6042
20.3272
19.6961
22.6254
22.7038
24.8272
25.89
27.5457
29.0468
30.7176
32.298
34.1048
35.4205
37.4386
35.3769
36.4216
38.4787
38.1859
40.4483
40.6072
42.1601
42.9427
44.0503
45.0241
46.0626
47.0139
48.1122
48.882
49.9969
50.2824
51.3754
52.9007
52.6919
54.3811
54.4069
55.5402
56.0318
56.8272
57.5707
58.3607
59.1098
59.9821
60.5794
61.5842
62.9333
64.2146
65.335
65.6113
67.1084
67.4666
68.5605
68.801
69.0286
68.6885
68.1394
67.8493
68.0031
68.4738
68.8255
74.8516
74.2472
74.6134
73.6147
73.6728
72.4378
71.7448
70.2442
68.8373
67.1985
65.7754
64.6718
63.8548
63.8178
62.5544
60.6703
57.1369
55.5491
52.7831
51.5806
49.4506
48.273
46.6242
45.1935
43.3049
41.2492
39.2135
38.1217
37.6377
34.661
35.5024
30.5021
27.3283
23.8432
21.0962
17.7826
15.0691
12.1485
9.37891
6.82595
4.98312
4.10279
3.88041
3.21617
2.10534
3.56621
3.04068
2.82386
1.63258
0.229439
-1.47232
-2.78053
-4.11415
-5.11042
-5.71523
-5.78407
-5.63567
-5.34414
-5.381
-5.04348
43.2517
42.9022
42.66
38.6067
31.7898
25.488
20.3027
15.2713
11.0822
8.34764
5.92282
4.09592
2.97653
2.1162
1.90243
37.9351
38.3053
38.5886
38.5749
38.7004
39.1901
39.8749
39.7088
39.6195
39.5906
40.067
39.5558
39.5332
39.6939
39.0246
38.8165
38.9427
39.0085
37.8862
38.2813
38.2331
37.2085
36.9791
37.4766
37.4019
36.3141
36.1155
36.6239
36.8699
35.5183
36.1946
36.4961
35.473
35.3066
35.8548
36.2768
35.1631
35.6954
36.1495
35.387
35.2408
35.7122
35.9911
35.3638
35.2436
35.6616
35.6515
34.9425
35.4703
35.4415
34.9885
34.9162
35.3098
35.6038
35.3343
35.2645
35.4835
36.2256
36.0732
36.0367
36.9641
36.919
36.7993
36.7146
37.1712
37.2134
38.0808
37.5853
36.1989
37.2614
38.8059
32.3501
28.6996
31.7714
36.7088
11.9974
21.1495
29.6892
-16.526
-5.6498
-0.730039
-3.33473
0.553268
-4.15406
-6.4123
-0.41362
-0.691399
0.146392
0.256025
1.18677
3.59638
7.065
7.98108
1.81289
3.81808
7.48715
11.2502
11.9041
13.8565
15.0979
16.7536
21.9277
19.2263
22.5075
23.6546
26.2177
29.9072
32.3528
33.7782
35.7816
34.613
42.8861
41.4596
43.7361
44.751
45.7223
47.7414
50.8715
52.6137
48.6935
55.2289
57.024
59.4177
60.1645
59.472
58.599
57.6037
59.3163
54.027
62.3075
63.3765
58.8286
58.2832
57.0469
53.6758
51.0775
48.6308
39.9252
47.2491
51.8769
44.9004
41.6111
36.7791
30.8215
25.5013
22.5988
18.6078
12.9195
13.0484
12.8809
7.86348
7.43122
6.18898
4.46547
-1.42961
-3.29392
-0.605467
-8.30609
1.03902
-0.381921
0.251734
6.066
-0.309768
3.15365
1.67268
4.26272
7.45894
2.37271
5.55145
7.50921
4.2277
5.79893
4.9124
6.15448
7.92975
5.21356
6.39928
5.62438
6.58194
7.82897
5.40562
6.72418
7.48712
5.85603
6.48862
5.99458
6.4757
7.19902
5.82895
6.30709
5.87493
6.23805
6.72331
5.49818
6.0401
6.29159
5.44196
5.66484
5.36991
5.51332
5.74383
5.02946
5.17981
4.91722
5.00764
5.12011
4.48823
4.66291
4.66356
4.20298
4.23636
4.04241
4.03834
4.03233
3.64988
3.65391
3.48848
3.4699
3.42737
3.09922
3.12658
3.03204
2.75016
2.70593
2.49333
2.47371
2.45957
2.13092
2.03061
1.99674
1.81939
1.77056
1.55504
1.43207
1.4144
1.02025
0.829764
0.682985
0.379363
0.218206
0.00192788
0.00313039
0.00462443
0.00570102
0.00675352
0.00771704
0.00861918
0.00952279
0.0104084
0.0113315
0.0122783
0.0132718
0.014294
0.015345
0.0164282
0.0175997
0.0189707
0.0206949
0.0228814
0.0255087
0.0284896
0.0317639
0.0351902
0.0386271
0.0418853
0.0447013
0.0467951
0.047935
0.0481409
0.0479026
0.048252
0.0504473
0.0552559
0.0622347
0.0694791
0.0741608
0.0737767
0.0672577
0.0552655
0.0395273
0.0217798
0.00302529
-0.0165188
-0.0364875
-0.0558773
-0.0788375
-0.12713
-0.185529
0.0102289
-0.88318
-0.742366
-0.800636
-0.941613
-1.0652
-1.19662
-1.28918
-1.33445
-1.31196
-1.16383
-0.936273
-0.651425
-0.355755
-0.108565
0.101546
0.263344
0.380898
0.458497
0.493096
0.504362
0.474581
0.433103
0.365864
0.269295
0.251637
0.0340806
0.150351
0.0548051
0.0923321
0.197486
0.0051429
0.00803629
0.0119945
0.0148415
0.017477
0.0199164
0.0221145
0.0243271
0.0264603
0.0286963
0.0309851
0.0333991
0.0358832
0.0384371
0.0410669
0.0439287
0.0473368
0.0517233
0.0573857
0.0642343
0.0719992
0.0805066
0.0893611
0.0981961
0.106543
0.113751
0.11907
0.121579
0.120316
0.114483
0.103807
0.0889131
0.0714403
0.0537933
0.0383325
0.0264375
0.0182857
0.0129547
0.00879779
0.00386281
-0.0037296
-0.0155217
-0.03268
-0.0562633
-0.0891208
-0.137201
-0.196134
-0.209066
0.131593
-1.32852
-1.13946
-1.24546
-1.46884
-1.66228
-1.86871
-2.00803
-2.05576
-1.97445
-1.73666
-1.39641
-0.972334
-0.532002
-0.127859
0.233595
0.524775
0.74667
0.897179
0.971481
0.991627
0.938898
0.846623
0.719759
0.530736
0.466329
0.106065
0.327381
0.142054
0.250103
0.896963
0.0080704
0.0132292
0.0200987
0.0250508
0.0296748
0.0339451
0.0378206
0.0417126
0.0454754
0.0494097
0.0534353
0.0576725
0.0620295
0.0665034
0.0711035
0.0760918
0.0820014
0.0895696
0.0993048
0.111058
0.124382
0.138985
0.1542
0.169407
0.183803
0.196294
0.205657
0.210525
0.209739
0.202773
0.190228
0.173976
0.156662
0.140748
0.127294
0.115347
0.102901
0.0879654
0.0691793
0.045664
0.0165684
-0.0192303
-0.0631469
-0.116497
-0.182447
-0.271514
-0.383046
-0.441565
-0.044798
-1.49408
-1.29898
-1.40594
-1.67272
-1.90417
-2.15097
-2.31569
-2.36803
-2.2633
-1.98667
-1.59553
-1.10632
-0.598223
-0.121639
0.310785
0.663206
0.935204
1.12141
1.21591
1.24287
1.1805
1.06791
0.909974
0.683112
0.574231
0.201916
0.430268
0.261024
0.438844
1.19985
0.0107172
0.0179785
0.027528
0.0344826
0.0409209
0.0468863
0.0522778
0.0576944
0.0629224
0.0683882
0.0739787
0.0798631
0.0859113
0.0921146
0.0984796
0.105369
0.113533
0.124015
0.137532
0.153861
0.172368
0.19265
0.213775
0.234893
0.254892
0.272248
0.285234
0.291891
0.290524
0.280309
0.26194
0.237745
0.211001
0.184839
0.161019
0.139375
0.118736
0.0974778
0.0737594
0.0454771
0.0102515
-0.0344502
-0.091201
-0.162415
-0.25321
-0.376476
-0.51706
-0.595899
-0.398719
-1.80742
-1.62172
-1.68614
-2.01475
-2.3031
-2.60777
-2.8123
-2.87793
-2.74913
-2.41337
-1.93846
-1.34257
-0.72272
-0.13796
0.394818
0.830611
1.16834
1.40054
1.51998
1.55631
1.48157
1.34643
1.14967
0.879528
0.727161
0.313039
0.542396
0.389914
0.622769
1.44173
0.0131042
0.0226617
0.0349167
0.0439704
0.0522924
0.0600323
0.0670112
0.0740257
0.0807903
0.0878605
0.0950909
0.1027
0.110517
0.118524
0.126717
0.135559
0.146022
0.159481
0.176873
0.197887
0.221708
0.247819
0.275022
0.302243
0.328036
0.350403
0.367028
0.375297
0.373056
0.359524
0.336098
0.306246
0.274266
0.243751
0.216226
0.190793
0.16547
0.137925
0.105827
0.0667639
0.0180585
-0.043268
-0.120436
-0.216583
-0.338011
-0.499962
-0.681165
-0.827624
-0.948456
-2.05221
-1.98431
-1.98063
-2.37366
-2.72529
-3.0927
-3.34101
-3.42076
-3.2632
-2.86428
-2.30051
-1.59195
-0.854787
-0.153611
0.487545
1.01378
1.42306
1.70525
1.85195
1.89806
1.80974
1.64927
1.41038
1.09387
0.898016
0.439705
0.655004
0.536399
0.818314
1.57752
0.0152563
0.0271555
0.0419954
0.053155
0.0633093
0.072804
0.0813319
0.0899121
0.0981757
0.106814
0.115647
0.124945
0.134493
0.144256
0.154215
0.164924
0.177585
0.193925
0.215116
0.240737
0.269785
0.301633
0.334815
0.36804
0.399507
0.426681
0.446561
0.455802
0.451825
0.434029
0.40463
0.368143
0.329546
0.29258
0.258676
0.226892
0.195344
0.161614
0.122941
0.0761418
0.0175699
-0.0567823
-0.151159
-0.269775
-0.420397
-0.618936
-0.837804
-1.07115
-1.57066
-2.13902
-2.35208
-2.2565
-2.70424
-3.11888
-3.54725
-3.83818
-3.93156
-3.74438
-3.28513
-2.63628
-1.82043
-0.972716
-0.160963
0.582674
1.19433
1.67114
2.00034
2.17272
2.22819
2.12688
1.94286
1.66283
1.30478
1.0649
0.58268
0.814373
0.706903
1.01788
1.72548
0.0171922
0.0315619
0.048906
0.0622207
0.0741997
0.085472
0.0955543
0.105713
0.115483
0.1257
0.136149
0.147149
0.158442
0.169968
0.18168
0.194218
0.209025
0.228211
0.2532
0.283439
0.31773
0.355343
0.394532
0.433784
0.470875
0.502633
0.525252
0.534665
0.528076
0.505439
0.470145
0.42786
0.384074
0.342459
0.304178
0.268002
0.231754
0.192549
0.147043
0.0914028
0.0212773
-0.0681136
-0.181879
-0.325232
-0.507112
-0.743151
-1.00395
-1.33479
-2.13912
-2.07216
-2.75696
-2.54489
-3.0367
-3.51797
-4.0089
-4.34494
-4.45329
-4.23541
-3.71458
-2.97762
-2.0513
-1.09052
-0.166187
0.680736
1.37803
1.92217
2.29805
2.49601
2.56124
2.44728
2.24108
1.91954
1.52316
1.23921
0.742358
1.01952
0.89846
1.22348
1.85704
0.0189275
0.0358707
0.0556009
0.0711013
0.0848684
0.0979197
0.109537
0.121263
0.132525
0.144308
0.156361
0.169056
0.182086
0.195357
0.20878
0.223074
0.239935
0.261895
0.290651
0.325483
0.364996
0.408354
0.453516
0.498713
0.541192
0.577009
0.601491
0.609984
0.599833
0.571938
0.531003
0.483557
0.435103
0.388949
0.346042
0.305098
0.263915
0.219317
0.167424
0.103655
0.0227856
-0.0809118
-0.213542
-0.381441
-0.594603
-0.867351
-1.17052
-1.58453
-2.53776
-1.9591
-3.20586
-2.85249
-3.37307
-3.92619
-4.48154
-4.86637
-4.9913
-4.74067
-4.15635
-3.32743
-2.28656
-1.20944
-0.169197
0.783179
1.56753
2.1798
2.60275
2.82663
2.90212
2.77572
2.54811
2.18437
1.7516
1.42381
0.916937
1.24515
1.10559
1.43433
2.08571
0.0204768
0.0401199
0.0621191
0.0798453
0.0953678
0.110207
0.123346
0.136637
0.149382
0.162727
0.176381
0.190774
0.205545
0.220554
0.235654
0.251632
0.270454
0.295119
0.327628
0.367049
0.411789
0.460896
0.511989
0.562971
0.610402
0.649443
0.674612
0.680992
0.666564
0.633552
0.587885
0.536478
0.484429
0.4346
0.387839
0.342881
0.297442
0.247934
0.189856
0.117855
0.0258672
-0.0927297
-0.24499
-0.438316
-0.683481
-0.992951
-1.33959
-1.81633
-2.78368
-1.96278
-3.68484
-3.18216
-3.70777
-4.33985
-4.96018
-5.39693
-5.53974
-5.25379
-4.60435
-3.68016
-2.5217
-1.32631
-0.168119
0.890589
1.76226
2.44252
2.91215
3.16189
3.24792
3.10939
2.86134
2.45504
1.98794
1.61624
1.10547
1.47319
1.32529
1.65113
2.35721
0.0218514
0.0443205
0.0684586
0.0884472
0.105682
0.122313
0.136953
0.151799
0.166011
0.180907
0.196157
0.212247
0.228758
0.245493
0.262227
0.279803
0.30047
0.327761
0.364004
0.408007
0.457973
0.512802
0.569697
0.626094
0.677688
0.71872
0.743141
0.746294
0.727365
0.690023
0.640946
0.586811
0.531967
0.478871
0.42846
0.379633
0.33011
0.275904
0.211885
0.13189
0.0289605
-0.104468
-0.276417
-0.495314
-0.772457
-1.11821
-1.50816
-2.02906
-2.95867
-2.23057
-4.14341
-3.53925
-4.03986
-4.76187
-5.44795
-5.93955
-6.10166
-5.77731
-5.06061
-4.03722
-2.75745
-1.4413
-0.162753
1.00332
1.96256
2.71058
3.22639
3.50188
3.59876
3.44847
3.181
2.73186
2.23219
1.81634
1.30673
1.68162
1.55523
1.86952
2.50869
0.0230612
0.048493
0.0746353
0.0969254
0.115827
0.134252
0.150371
0.166762
0.182427
0.198864
0.215703
0.233492
0.251747
0.270199
0.288523
0.307602
0.329986
0.359815
0.399782
0.448366
0.503555
0.564032
0.626442
0.68757
0.74212
0.783562
0.805747
0.804992
0.782112
0.74189
0.691006
0.635374
0.578486
0.522582
0.468895
0.416593
0.363393
0.304849
0.23514
0.147249
0.0333122
-0.11516
-0.307099
-0.551812
-0.860816
-1.24243
-1.67506
-2.22763
-3.12309
-2.80924
-4.50512
-3.92307
-4.36704
-5.19444
-5.94857
-6.49755
-6.68041
-6.31416
-5.52754
-4.40054
-2.99483
-1.55468
-0.152909
1.1219
2.16917
2.98474
3.54624
3.8474
3.95546
3.79385
3.50794
3.0156
2.48462
2.02477
1.51824
1.887
1.79666
2.08999
2.69728
0.0241138
0.0526507
0.080656
0.105286
0.125804
0.146023
0.163595
0.181519
0.198617
0.216582
0.235003
0.254491
0.274496
0.294659
0.314525
0.334998
0.358951
0.391221
0.434907
0.488066
0.548444
0.614373
0.681729
0.746472
0.802338
0.842391
0.861128
0.856575
0.831131
0.789896
0.738799
0.682702
0.624304
0.565861
0.509109
0.453576
0.396987
0.33439
0.259235
0.16361
0.0387247
-0.124828
-0.336815
-0.607224
-0.947497
-1.36413
-1.83795
-2.41625
-3.30468
-3.58643
-4.63513
-4.32302
-4.68662
-5.63771
-6.46595
-7.07387
-7.27783
-6.86574
-6.0061
-4.77071
-3.23423
-1.6662
-0.138001
1.24694
2.38255
3.26542
3.87191
4.1986
4.31812
4.14568
3.8423
3.30642
2.74493
2.24149
1.73757
2.11664
2.0471
2.31459
2.91588
0.0250155
0.0568084
0.0865304
0.113542
0.135618
0.157632
0.176627
0.196069
0.214579
0.234059
0.254053
0.275244
0.297008
0.318877
0.340236
0.361981
0.387336
0.421941
0.469346
0.52706
0.592516
0.663473
0.734801
0.801574
0.85677
0.893715
0.908525
0.901293
0.875309
0.835027
0.785117
0.729362
0.66983
0.609057
0.549459
0.490995
0.431377
0.365074
0.284745
0.181532
0.0457115
-0.132996
-0.365056
-0.660875
-1.03153
-1.48203
-1.99528
-2.59912
-3.49675
-4.30056
-4.47094
-4.73964
-4.99981
-6.08938
-7.00263
-7.67248
-7.89688
-7.43396
-6.49763
-5.14828
-3.47604
-1.77583
-0.117505
1.37934
2.6034
3.55292
4.20352
4.55551
4.68677
4.50405
4.18417
3.60441
3.01273
2.46563
1.96154
2.35785
2.3009
2.54232
3.13779
0.0257703
0.0609786
0.092266
0.121699
0.145275
0.169081
0.189467
0.210409
0.230308
0.251284
0.272843
0.295741
0.319276
0.342851
0.36565
0.388533
0.4151
0.451925
0.503046
0.565245
0.635505
0.710704
0.784554
0.851338
0.903745
0.936429
0.947943
0.940021
0.915762
0.878207
0.830588
0.775744
0.715298
0.652311
0.590035
0.52892
0.466628
0.39697
0.311742
0.20109
0.05436
-0.139525
-0.391543
-0.712231
-1.11208
-1.59499
-2.14588
-2.77758
-3.67644
-4.72734
-4.24026
-5.19421
-5.31632
-6.54907
-7.56248
-8.29745
-8.54016
-8.02117
-7.00386
-5.53403
-3.72041
-1.88336
-0.0908827
1.52001
2.8329
3.84795
4.54124
4.91827
5.06147
4.8691
4.53368
3.90967
3.28761
2.69607
2.18841
2.59969
2.55608
2.77343
3.33416
0.026381
0.0651737
0.0978701
0.129767
0.154778
0.180372
0.202114
0.224536
0.245798
0.268252
0.291365
0.315975
0.341298
0.366585
0.390772
0.414643
0.442206
0.48112
0.535937
0.602436
0.676934
0.755131
0.82959
0.894059
0.941871
0.970258
0.980224
0.974038
0.953623
0.920233
0.875708
0.822146
0.760887
0.695747
0.630957
0.567504
0.502943
0.430314
0.340469
0.222498
0.0648434
-0.144248
-0.416038
-0.760906
-1.18862
-1.70245
-2.28952
-2.95238
-3.84448
-4.94258
-4.27228
-5.64054
-5.65207
-7.01752
-8.15453
-8.95887
-9.2121
-8.62911
-7.52652
-5.92886
-3.96745
-1.98848
-0.0575
1.66969
3.0719
4.1516
4.88551
5.28681
5.4422
5.24088
4.89089
4.22221
3.56906
2.93171
2.41764
2.84241
2.81272
3.00736
3.54146
0.0268483
0.0694057
0.103349
0.137755
0.164131
0.191508
0.214567
0.238448
0.261043
0.284954
0.309609
0.335937
0.363072
0.390081
0.415605
0.440298
0.468611
0.509458
0.56789
0.63828
0.716035
0.79553
0.868276
0.928112
0.970507
0.995905
1.00676
1.00468
0.989855
0.961698
0.920811
0.868746
0.806672
0.739392
0.672239
0.606784
0.540389
0.465191
0.370983
0.245751
0.0770911
-0.147248
-0.438562
-0.806852
-1.26115
-1.80456
-2.42682
-3.12466
-4.01559
-5.12065
-4.78161
-5.91479
-6.01052
-7.49105
-8.78246
-9.66912
-9.92338
-9.26138
-8.06732
-6.33375
-4.21742
-2.09089
-0.016702
1.82916
3.32105
4.46462
5.23704
5.66131
5.82892
5.61939
5.25581
4.54199
3.8565
3.17155
2.64882
3.08434
3.07037
3.24203
3.75999
0.0271717
0.0736866
0.108709
0.145669
0.173339
0.20249
0.226826
0.25214
0.276036
0.301379
0.327564
0.355619
0.384594
0.413347
0.440156
0.465489
0.494264
0.536835
0.598659
0.67217
0.751777
0.830449
0.898888
0.952465
0.99012
1.01484
1.02909
1.03309
1.02519
1.00302
0.966111
0.915638
0.852665
0.783214
0.713852
0.64677
0.579016
0.501649
0.403271
0.27072
0.0908646
-0.148817
-0.459409
-0.850417
-1.33024
-1.90222
-2.55904
-3.29512
-4.19878
-5.3218
-5.53035
-5.80975
-6.39281
-7.96784
-9.44257
-10.4351
-10.6848
-9.92515
-8.62865
-6.74975
-4.4706
-2.19033
0.0321831
1.99925
3.58105
4.78743
5.59635
6.04209
6.22136
6.00453
5.62841
4.86895
4.14933
3.41478
2.88159
3.32433
3.32861
3.47824
3.97266
0.0273484
0.0780284
0.113954
0.153518
0.182403
0.21332
0.23889
0.265609
0.290771
0.317518
0.345218
0.375011
0.405862
0.43639
0.464438
0.490204
0.519094
0.563074
0.627796
0.703246
0.782941
0.858224
0.920015
0.967208
1.00217
1.0288
1.04859
1.06016
1.06014
1.04445
1.01173
0.962849
0.898815
0.827122
0.755703
0.687407
0.618793
0.539616
0.437131
0.297025
0.105633
-0.149565
-0.479243
-0.892377
-1.39692
-1.99685
-2.68786
-3.46436
-4.39406
-5.5287
-6.06928
-5.50343
-6.8484
-8.46437
-10.1304
-11.2604
-11.5037
-10.6284
-9.2143
-7.17793
-4.72732
-2.28652
0.0898645
2.18084
3.85266
5.12051
5.96365
6.42931
6.61944
6.39617
6.00863
5.20297
4.4469
3.66077
3.11554
3.56155
3.58683
3.71525
4.2046
0.0273742
0.0824437
0.119089
0.161308
0.191328
0.223999
0.250756
0.27885
0.30524
0.333361
0.362558
0.394101
0.426873
0.459221
0.488465
0.514428
0.542987
0.587839
0.6546
0.730506
0.808097
0.877179
0.931237
0.973663
1.00858
1.03939
1.06629
1.08651
1.09503
1.08618
1.05772
1.01037
0.945028
0.870981
0.797661
0.728605
0.659629
0.578897
0.472155
0.324015
0.120559
-0.15043
-0.499048
-0.93381
-1.46253
-2.09011
-2.81517
-3.6333
-4.59797
-5.73511
-6.36013
-5.45833
-7.34734
-9.01305
-10.842
-12.1471
-12.386
-11.3781
-9.82939
-7.61969
-4.98793
-2.37916
0.157082
2.37486
4.13666
5.46434
6.33899
6.82324
7.02346
6.79413
6.39642
5.54391
4.74851
3.90891
3.35014
3.79536
3.84413
3.95059
4.44104
0.0272425
0.0869457
0.124118
0.169046
0.200116
0.234528
0.262423
0.291859
0.319435
0.348894
0.379569
0.412876
0.447626
0.481854
0.512254
0.53812
0.565722
0.610564
0.678242
0.75286
0.825536
0.886289
0.933543
0.973882
1.01117
1.04781
1.08293
1.11253
1.13009
1.12831
1.10414
1.05816
0.991187
0.914624
0.83957
0.770239
0.70135
0.619123
0.507664
0.350706
0.134467
-0.152634
-0.520004
-0.975883
-1.52834
-2.18355
-2.94278
-3.80346
-4.80953
-5.96007
-6.65491
-6.03164
-7.68983
-9.63095
-11.5741
-13.0952
-13.3358
-12.1801
-10.4802
-8.07728
-5.25285
-2.46799
0.234601
2.58228
4.43384
5.81936
6.72238
7.22391
7.43327
7.19809
6.79169
5.89161
5.05344
4.15861
3.58485
4.02528
4.09972
4.18598
4.65262
0.0269449
0.0915487
0.129043
0.176739
0.208768
0.244908
0.273889
0.30463
0.333347
0.364106
0.396236
0.431323
0.468117
0.504304
0.53581
0.561182
0.586885
0.630506
0.697954
0.768872
0.833676
0.885954
0.929004
0.969931
1.01136
1.05491
1.09895
1.13848
1.1655
1.17096
1.15102
1.10621
1.03716
0.957876
0.881268
0.812171
0.743694
0.659713
0.542665
0.375772
0.145911
-0.157513
-0.54324
-1.01959
-1.59537
-2.27831
-3.07214
-3.97639
-5.02854
-6.21191
-7.02221
-6.94371
-7.65182
-10.3382
-12.3298
-14.1059
-14.3553
-13.039
-11.1727
-8.55405
-5.52269
-2.55276
0.323218
2.80413
4.74502
6.18604
7.11374
7.63111
7.84868
7.60785
7.19431
6.24589
5.36091
4.40934
3.819
4.25092
4.35261
4.4187
4.90482
0.0264704
0.0962682
0.133866
0.184393
0.217287
0.255137
0.285152
0.317157
0.346968
0.378982
0.412541
0.449425
0.488342
0.526581
0.559108
0.583367
0.605816
0.647023
0.71286
0.776686
0.832065
0.878048
0.919932
0.963435
1.01009
1.0612
1.11465
1.16457
1.20143
1.21427
1.19845
1.15449
1.08282
1.00057
0.922617
0.854253
0.786278
0.699821
0.575805
0.397584
0.153365
-0.166239
-0.569573
-1.06554
-1.66416
-2.37494
-3.20405
-4.15331
-5.25524
-6.48785
-7.42421
-7.64089
-7.43075
-11.2176
-13.1334
-15.1829
-15.4463
-13.9581
-11.9121
-9.0538
-5.79843
-2.6332
0.423755
3.0415
5.07107
6.56479
7.51294
8.04456
8.26984
8.0235
7.60423
6.60655
5.67013
4.6607
4.05194
4.47197
4.60168
4.65074
5.12005
0.0258052
0.101121
0.13859
0.192015
0.225673
0.265217
0.296208
0.329437
0.360288
0.393507
0.428464
0.467161
0.50829
0.548676
0.582026
0.60416
0.621837
0.659712
0.721403
0.774863
0.822024
0.865088
0.908208
0.955478
1.00796
1.067
1.13024
1.191
1.23809
1.25841
1.24655
1.20304
1.12806
1.04256
0.963526
0.896332
0.828555
0.738253
0.605365
0.414402
0.155542
-0.179524
-0.599306
-1.11382
-1.73467
-2.47336
-3.33863
-4.33491
-5.49078
-6.78428
-7.84058
-8.12072
-7.48252
-12.2528
-14.0272
-16.331
-16.6111
-14.9388
-12.7024
-9.58028
-6.0817
-2.70909
0.537063
3.29555
5.41289
6.95602
7.91977
8.46387
8.69653
8.44496
8.02143
6.97337
5.98022
4.91243
4.28296
4.68822
4.84611
4.88153
5.35113
0.0249325
0.106127
0.143215
0.199611
0.233928
0.275146
0.307055
0.341461
0.373298
0.407665
0.443982
0.484507
0.527937
0.570525
0.604209
0.622801
0.634755
0.667829
0.721524
0.763691
0.806148
0.849269
0.895078
0.946707
1.00528
1.07251
1.14592
1.218
1.27575
1.30365
1.2955
1.25191
1.17282
1.08377
1.00397
0.93823
0.86972
0.77338
0.629398
0.424738
0.151751
-0.197417
-0.63212
-1.16392
-1.80623
-2.57281
-3.47527
-4.52123
-5.73669
-7.10224
-8.28367
-8.67109
-8.18396
-13.3283
-15.0476
-17.5553
-17.854
-15.9817
-13.5472
-10.1368
-6.37467
-2.78022
0.664024
3.56749
5.77142
7.36013
8.33391
8.88855
9.12819
8.87185
8.44573
7.34611
6.29023
5.16445
4.51126
4.89952
5.08475
5.1071
5.58665
0.023832
0.111307
0.147741
0.207186
0.242053
0.284922
0.31769
0.353224
0.385986
0.421439
0.45907
0.501425
0.547222
0.59191
0.624904
0.638682
0.644582
0.669421
0.712063
0.745237
0.787002
0.832048
0.881277
0.937481
1.00228
1.07792
1.16192
1.24588
1.31477
1.35032
1.34557
1.30122
1.21704
1.12419
1.04402
0.979691
0.908521
0.80313
0.646103
0.427799
0.142128
-0.219236
-0.66705
-1.21468
-1.87756
-2.67194
-3.61278
-4.71167
-5.99386
-7.44326
-8.76131
-9.3791
-9.55251
-14.3437
-16.1963
-18.8621
-19.1812
-17.0877
-14.4484
-10.726
-6.67928
-2.84655
0.805551
3.8586
6.14765
7.77748
8.75497
9.31802
9.56422
9.30376
8.87702
7.72446
6.59915
5.417
4.73599
5.10588
5.31662
5.33072
5.78778
0.022479
0.116685
0.152167
0.214747
0.250047
0.294544
0.328109
0.36472
0.398342
0.434808
0.473691
0.517856
0.565999
0.612275
0.643114
0.651798
0.650109
0.661859
0.69441
0.722519
0.766451
0.814249
0.867188
0.928015
0.999139
1.08346
1.17853
1.27502
1.35562
1.39888
1.39711
1.35115
1.26075
1.16388
1.08386
1.02019
0.943028
0.825288
0.654398
0.423797
0.12767
-0.243605
-0.702513
-1.26436
-1.9468
-2.76894
-3.74962
-4.90522
-6.26218
-7.80793
-9.27726
-10.2358
-11.3597
-15.1519
-17.4592
-20.2598
-20.5999
-18.2593
-15.4068
-11.3501
-6.99717
-2.90853
0.962586
4.17027
6.54261
8.20839
9.18242
9.7516
10.0039
9.74052
9.31581
8.10806
6.90581
5.67099
4.95612
5.30745
5.54066
5.55111
6.01563
0.0208443
0.122288
0.156493
0.2223
0.257911
0.30401
0.338308
0.37594
0.410353
0.447748
0.487799
0.533695
0.583901
0.630596
0.658232
0.662451
0.649859
0.643636
0.670608
0.697734
0.745365
0.79629
0.853042
0.918484
0.99607
1.08939
1.19613
1.30593
1.39888
1.44987
1.45058
1.4019
1.30393
1.20304
1.12373
1.05847
0.970644
0.838192
0.654392
0.413977
0.110123
-0.268553
-0.736383
-1.31073
-2.01172
-2.86175
-3.8841
-5.10072
-6.54081
-8.19547
-9.83152
-11.1837
-13.2344
-15.6698
-18.8289
-21.756
-22.1157
-19.5003
-16.423
-12.0103
-7.32965
-2.96689
1.1361
4.50394
6.95741
8.65318
9.61564
10.1885
10.4465
10.1819
9.7628
8.4966
7.20889
5.92844
5.17059
5.50473
5.75559
5.76326
6.24581
0.0188926
0.128148
0.160716
0.229849
0.265643
0.313315
0.348284
0.386878
0.422005
0.460225
0.50132
0.548722
0.60015
0.645802
0.670171
0.667712
0.636172
0.614244
0.643718
0.672019
0.724282
0.7783
0.838982
0.909098
0.993343
1.09607
1.21518
1.33922
1.44528
1.504
1.50653
1.45363
1.34651
1.24213
1.16363
1.09206
0.988762
0.841517
0.647482
0.400424
0.0918084
-0.291637
-0.766143
-1.35129
-2.06999
-2.94838
-4.01472
-5.29701
-6.8284
-8.60364
-10.4202
-12.1604
-14.8112
-16.009
-20.3395
-23.366
-23.7318
-20.8146
-17.4979
-12.7073
-7.67764
-3.02248
1.32711
4.86115
7.39321
9.1121
10.0539
10.6277
10.8911
10.6274
10.2182
8.88965
7.50676
6.18636
5.37848
5.69661
5.96038
5.97093
6.42372
0.0165822
0.1343
0.164834
0.2374
0.273243
0.322456
0.35803
0.397523
0.433276
0.47219
0.514128
0.562458
0.613559
0.657484
0.678711
0.665033
0.608439
0.582257
0.614022
0.645659
0.703333
0.760485
0.825231
0.900119
0.991291
1.10392
1.23626
1.37564
1.4957
1.56208
1.56554
1.50629
1.38833
1.28198
1.2023
1.11731
0.995992
0.836612
0.636064
0.385785
0.0754355
-0.310132
-0.789127
-1.38357
-2.1195
-3.0272
-4.14025
-5.49294
-7.12306
-9.02901
-11.0373
-13.1312
-15.9971
-16.4483
-22.0975
-25.1211
-25.4475
-22.2044
-18.6327
-13.4411
-8.04204
-3.07607
1.53677
5.24358
7.85122
9.58538
10.4962
11.0683
11.3366
11.0765
10.6823
9.28665
7.79759
6.43493
5.57925
5.87969
6.15397
6.16791
6.64379
0.0138632
0.140786
0.168844
0.244956
0.280709
0.331427
0.367541
0.407859
0.444135
0.483568
0.525968
0.574019
0.623168
0.666245
0.684964
0.649046
0.575738
0.55091
0.583032
0.619791
0.68264
0.743046
0.812062
0.891883
0.990312
1.11345
1.26004
1.41611
1.55123
1.6251
1.62811
1.55924
1.42955
1.32333
1.23614
1.13085
0.99313
0.826169
0.623112
0.373005
0.0638808
-0.321292
-0.802841
-1.40549
-2.15869
-3.0971
-4.25975
-5.68725
-7.42235
-9.4671
-11.6761
-14.0921
-17.0148
-17.2253
-24.0571
-27.0607
-27.263
-23.6692
-19.8277
-14.2114
-8.42376
-3.1275
1.76652
5.65309
8.33275
10.0732
10.9416
11.5089
11.7819
11.5286
11.1551
9.68684
8.07956
6.66687
5.77286
6.04914
6.33445
6.35722
6.80957
0.0106761
0.147652
0.172743
0.252521
0.288038
0.34022
0.376806
0.417866
0.454532
0.49422
0.536317
0.582362
0.62915
0.672315
0.68473
0.622411
0.544282
0.517724
0.550356
0.594012
0.662317
0.726318
0.799802
0.884762
0.990858
1.12523
1.28733
1.4617
1.61312
1.69408
1.69419
1.61114
1.47117
1.36494
1.25953
1.1317
0.983051
0.813552
0.611807
0.365077
0.0599161
-0.322669
-0.805304
-1.41562
-2.18665
-3.15745
-4.37245
-5.87847
-7.72334
-9.91281
-12.3292
-15.0439
-18.0052
-18.5617
-26.0365
-29.2349
-29.185
-25.2066
-21.0813
-15.0164
-8.82305
-3.17486
2.01805
6.0918
8.8392
10.5756
11.3888
11.9483
12.2258
11.9829
11.637
10.0892
8.35087
6.87843
5.95911
6.2044
6.50069
6.53599
6.98068
0.00694972
0.154955
0.176526
0.260097
0.295227
0.348824
0.385807
0.427503
0.464385
0.503871
0.544377
0.587327
0.634061
0.678593
0.669376
0.596408
0.511978
0.483935
0.516953
0.568944
0.642671
0.710597
0.788794
0.87917
0.993435
1.13994
1.31906
1.51371
1.68284
1.76988
1.76248
1.66049
1.51477
1.40154
1.26771
1.12226
0.969701
0.802232
0.605241
0.364762
0.0658918
-0.312445
-0.795315
-1.41334
-2.20308
-3.20794
-4.47757
-6.06487
-8.02267
-10.3606
-12.9878
-15.9809
-19.0299
-20.4659
-27.9551
-31.6974
-31.2291
-26.8163
-22.3906
-15.8526
-9.23876
-3.21586
2.29323
6.56225
9.37211
11.0927
11.8363
12.3848
12.6668
12.4388
12.1282
10.4926
8.60956
7.06735
6.1374
6.34801
6.6528
6.69612
7.14928
0.00259902
0.162757
0.180191
0.267684
0.302269
0.35722
0.394513
0.43671
0.47354
0.512027
0.549574
0.590311
0.64051
0.678548
0.648261
0.571777
0.477906
0.450202
0.482272
0.544768
0.623936
0.69625
0.77941
0.87555
0.9986
1.15833
1.3563
1.57364
1.76198
1.85255
1.82977
1.70723
1.5596
1.4244
1.26024
1.10734
0.95705
0.795428
0.60614
0.37428
0.0834311
-0.289665
-0.772533
-1.39871
-2.20814
-3.24837
-4.5742
-6.24443
-8.31667
-10.8045
-13.6427
-16.898
-20.1406
-22.8851
-29.6854
-34.473
-33.4186
-28.5033
-23.7533
-16.7153
-9.66822
-3.24924
2.5944
7.06753
9.93323
11.6244
12.2827
12.8168
13.1035
12.8954
12.6289
10.8953
8.85332
7.23208
6.3077
6.47587
6.78965
6.84293
7.25632
-0.0024787
0.171133
0.183732
0.275278
0.309152
0.365378
0.402875
0.445383
0.481713
0.518102
0.552497
0.594163
0.649066
0.666779
0.630918
0.545648
0.443301
0.417227
0.44703
0.522042
0.606404
0.683635
0.772029
0.874373
1.00695
1.18123
1.40026
1.64314
1.85199
1.94019
1.89151
1.75347
1.59868
1.42646
1.24189
1.09207
0.948537
0.795842
0.616579
0.395043
0.113225
-0.25429
-0.737366
-1.37227
-2.2021
-3.27846
-4.66118
-6.41484
-8.60141
-11.2387
-14.2847
-17.7922
-21.3516
-25.5628
-31.0431
-37.5447
-35.7768
-30.2778
-25.1707
-17.5995
-10.1072
-3.27404
2.92469
7.61151
10.5247
12.1705
12.7259
13.2424
13.5341
13.3519
13.1396
11.2954
9.07913
7.37103
6.47083
6.5853
6.90993
6.97379
7.39033
-0.00840805
0.180167
0.187144
0.282867
0.315856
0.37325
0.410808
0.453341
0.488482
0.522036
0.555274
0.602097
0.651769
0.654093
0.615195
0.518339
0.408754
0.385543
0.41194
0.501148
0.590396
0.673123
0.767034
0.876113
1.01911
1.2095
1.45224
1.72403
1.9535
2.02744
1.94478
1.79996
1.61934
1.40794
1.22006
1.0806
0.946864
0.805399
0.637733
0.427471
0.155018
-0.207034
-0.690671
-1.33466
-2.18513
-3.29765
-4.73711
-6.57359
-8.87284
-11.6573
-14.9065
-18.664
-22.632
-28.0518
-32.0106
-40.9415
-38.3232
-32.1508
-26.6485
-18.5016
-10.5505
-3.28874
3.28809
8.19904
11.149
12.7308
13.164
13.6595
13.9571
13.807
13.6601
11.6901
9.28297
7.48271
6.62784
6.68066
7.01588
7.08057
7.53159
-0.0153415
0.18996
0.190422
0.290433
0.322344
0.380757
0.418181
0.460293
0.493515
0.524841
0.560219
0.613364
0.646641
0.646111
0.598889
0.490935
0.374469
0.355719
0.377783
0.482516
0.576242
0.665066
0.764795
0.881229
1.03566
1.24402
1.51359
1.81802
2.06488
2.10559
1.9915
1.83934
1.61105
1.37705
1.20117
1.07572
0.953808
0.825029
0.669752
0.471033
0.207826
-0.149017
-0.633383
-1.28638
-2.15708
-3.30509
-4.80036
-6.71804
-9.12699
-12.0555
-15.5033
-19.5159
-23.9379
-30.0304
-32.9677
-44.8702
-41.0797
-34.1276
-28.1943
-19.4214
-10.9926
-3.29089
3.68934
8.83628
11.8097
13.305
13.5946
14.0658
14.3703
14.2598
14.1905
12.0756
9.45934
7.56528
6.78048
6.76853
7.11114
7.16935
7.59972
-0.0234672
0.200623
0.193553
0.297938
0.328556
0.387783
0.424783
0.465909
0.497089
0.528488
0.569461
0.620499
0.642979
0.639808
0.582718
0.463779
0.34086
0.328136
0.345825
0.466517
0.564307
0.659795
0.765642
0.890123
1.05715
1.2856
1.58561
1.9262
2.18002
2.16668
2.0358
1.85513
1.57448
1.34482
1.18896
1.07902
0.970033
0.854596
0.711841
0.524515
0.27033
-0.0813536
-0.566181
-1.22754