/*--------------------------------*- C++ -*----------------------------------*\
| =========                 |                                                 |
| \\      /  F ield         | OpenFOAM: The Open Source CFD Toolbox           |
|  \\    /   O peration     | Version:  4.1                                   |
|   \\  /    A nd           | Web:      www.OpenFOAM.org                      |
|    \\/     M anipulation  |                                                 |
\*---------------------------------------------------------------------------*/
FoamFile
{
    version     2.0;
    format      ascii;
    class       volVectorField;
    location    "19";
    object      U;
}
// * * * * * * * * * * * * * * * * * * * * * * * * * * * * * * * * * * * * * //

dimensions      [0 1 -1 0 0 0 0];

internalField   nonuniform List<vector> 
6785
(
(1.41644e-14 -2.27815 16.4572)
(1.07867e-14 -7.91872 12.9212)
(-3.28492e-15 -5.13228 13.7072)
(3.81707e-15 -5.09317 13.198)
(9.75712e-16 -4.31598 13.0431)
(-1.49847e-16 -3.91382 12.7428)
(2.68155e-15 -3.51707 12.4521)
(6.72447e-16 -3.24297 12.125)
(-7.66361e-16 -3.0431 11.77)
(1.56468e-15 -2.92994 11.3696)
(3.04182e-16 -2.86714 10.9568)
(-4.84695e-16 -2.86369 10.5704)
(9.90764e-16 -3.27781 9.97762)
(1.70344e-17 -3.37177 9.08213)
(-4.33416e-16 -0.0304169 7.41265)
(1.97325e-14 -10.0968 26.5677)
(1.28206e-14 -16.1716 22.8698)
(-2.89795e-15 -11.0526 23.2301)
(4.31302e-15 -11.8871 21.3463)
(8.14622e-16 -10.1569 20.4729)
(1.02602e-15 -9.55142 19.2064)
(2.20748e-15 -8.57781 18.1166)
(2.36589e-16 -7.84017 17.0217)
(8.10504e-17 -7.15205 16.0591)
(7.97222e-16 -6.6512 15.1864)
(-2.59137e-16 -6.27064 14.2404)
(-1.21077e-16 -5.82307 12.9524)
(4.87589e-16 -5.10875 10.8765)
(-2.90037e-16 -3.67453 6.91539)
(-3.81438e-16 -0.581342 0.586303)
(2.05311e-14 -12.7021 27.7344)
(1.10062e-14 -16.5099 24.8215)
(-1.53628e-15 -11.8368 24.678)
(3.30098e-15 -12.75 22.232)
(6.99979e-16 -10.6198 21.2344)
(1.23533e-15 -10.1094 19.5686)
(4.55871e-16 -8.94759 18.3118)
(5.57208e-17 -8.09446 16.8766)
(2.9161e-16 -6.91739 15.1118)
(-2.6113e-16 -5.3934 12.4526)
(-1.93376e-17 -3.70266 9.1054)
(-5.57905e-16 -2.70455 6.37769)
(-2.67786e-15 -2.66546 5.10353)
(-8.13722e-16 -2.35483 3.46634)
(-1.37191e-15 -2.1701 2.7085)
(2.13142e-14 -13.9929 28.5171)
(9.18476e-15 -16.8348 25.7418)
(-8.28609e-16 -12.7877 25.4853)
(3.26568e-15 -13.8527 22.8784)
(2.52644e-16 -11.518 21.9933)
(1.2946e-15 -11.3487 20.1731)
(2.93209e-16 -10.0664 19.0489)
(-2.19124e-16 -9.39884 17.5889)
(1.59272e-16 -8.07246 15.714)
(2.54995e-16 -5.98904 12.2024)
(1.1355e-15 -2.74654 6.862)
(3.24281e-15 0.161121 1.77681)
(6.01168e-15 1.64022 -0.839574)
(4.44531e-15 1.87332 -1.486)
(1.59984e-15 0.370756 0.242894)
(2.09613e-14 -14.4111 28.4842)
(1.07911e-14 -17.731 27.2368)
(-5.69727e-16 -13.59 26.2319)
(3.57937e-15 -14.7674 23.542)
(1.31057e-15 -12.387 22.6868)
(1.56524e-15 -12.4768 20.7139)
(1.05168e-15 -11.1911 19.58)
(1.17346e-15 -10.7374 18.0817)
(5.93086e-16 -9.74118 16.5171)
(6.8787e-16 -8.35 13.9616)
(2.52132e-15 -5.87321 9.98037)
(3.55097e-15 -2.69785 5.05688)
(7.87007e-15 0.484079 0.370823)
(1.04197e-14 2.97707 -3.12289)
(7.4123e-15 2.21223 -5.13412)
(1.94392e-14 -13.8103 26.373)
(1.3115e-14 -18.0237 27.995)
(-5.38831e-17 -13.961 25.8899)
(3.06465e-15 -14.6178 23.0067)
(2.04921e-15 -12.5721 21.9422)
(1.31893e-15 -12.465 19.9025)
(1.36745e-15 -11.3125 18.5382)
(1.68869e-15 -10.757 16.9087)
(8.98575e-16 -9.95718 15.3595)
(6.11148e-16 -9.04789 13.5033)
(1.48272e-15 -7.74503 11.1121)
(1.73443e-15 -5.82287 8.13586)
(2.3327e-15 -3.61059 4.63375)
(1.18463e-15 -0.473091 0.915185)
(6.17654e-15 1.50764 -4.67261)
(1.87296e-14 -12.7625 23.6922)
(1.51059e-14 -17.6288 27.9514)
(1.54795e-15 -13.9573 25.2429)
(2.41609e-15 -13.9173 22.1214)
(2.56836e-15 -12.133 20.8594)
(2.07287e-15 -11.7729 18.8464)
(1.56055e-15 -10.6538 17.3479)
(2.03412e-15 -9.92823 15.6494)
(2.52981e-15 -9.0831 14.0685)
(1.39639e-15 -8.23106 12.4555)
(1.26043e-15 -7.31711 10.7131)
(2.83533e-15 -6.06522 8.7405)
(2.38702e-15 -4.6135 6.22806)
(-1.31174e-15 -2.1425 3.02808)
(6.47929e-15 0.168859 -2.36844)
(1.73255e-14 -11.8751 21.724)
(1.63742e-14 -17.0075 27.5667)
(3.19888e-15 -13.9047 24.7919)
(1.87235e-15 -13.331 21.5386)
(2.46042e-15 -11.7448 20.0947)
(2.52342e-15 -11.2354 18.1919)
(1.92004e-15 -10.1999 16.6899)
(2.0774e-15 -9.43574 15.0838)
(2.90827e-15 -8.61339 13.5972)
(2.2784e-15 -7.80874 12.1544)
(1.62242e-15 -7.03241 10.7031)
(2.19621e-15 -6.098 9.21565)
(2.54023e-15 -5.08355 7.42396)
(-1.05979e-16 -3.3237 5.11036)
(-1.59069e-15 -0.818863 0.122846)
(1.77963e-14 -11.3751 20.7664)
(1.74106e-14 -16.3348 26.8608)
(3.3471e-15 -13.6766 24.2381)
(1.9315e-15 -12.8724 20.9118)
(2.70082e-15 -11.387 19.3631)
(1.32922e-15 -10.8907 17.579)
(2.3362e-15 -10.0053 16.1948)
(2.59973e-15 -9.36201 14.7274)
(1.04799e-15 -8.66178 13.3259)
(1.67649e-15 -7.98095 11.9584)
(2.31634e-15 -7.34525 10.6845)
(8.11081e-17 -6.70373 9.63195)
(1.33662e-15 -6.09173 8.69005)
(8.50379e-16 -4.97133 7.5289)
(-4.452e-15 -2.55611 3.4127)
(1.72032e-14 -11.3187 20.6523)
(1.64399e-14 -15.3696 25.7293)
(2.43535e-15 -12.9827 23.1596)
(4.0882e-16 -12.1182 19.9325)
(2.6263e-15 -10.5291 18.3839)
(2.52722e-16 -9.98447 16.425)
(1.61116e-17 -8.94786 14.8953)
(1.98154e-15 -8.37537 13.2196)
(-1.28405e-15 -7.77068 11.8041)
(-2.53722e-15 -7.42613 10.6603)
(1.97223e-16 -7.30506 10.1312)
(-2.13596e-15 -7.4694 10.3381)
(-3.54684e-15 -7.5692 10.9525)
(-1.41146e-16 -7.15221 10.9557)
(-4.82798e-15 -4.79148 7.71008)
(1.61665e-14 -12.3869 22.416)
(1.27843e-14 -14.5912 24.9687)
(-2.25545e-15 -12.3287 22.5792)
(1.11605e-15 -11.5718 20.2881)
(1.17854e-15 -9.84846 18.5009)
(-2.89032e-15 -8.49894 15.7831)
(9.47671e-16 -6.71535 13.1662)
(1.43165e-15 -5.47263 10.6782)
(-1.9959e-15 -4.4998 8.90664)
(1.64785e-15 -4.36066 8.24472)
(7.33044e-16 -5.2018 9.27781)
(-5.78593e-15 -6.84704 11.5799)
(-3.64716e-15 -8.32461 13.9935)
(-6.11883e-15 -9.04447 14.7987)
(-7.80012e-15 -6.42073 11.5648)
(1.58573e-14 -13.3008 23.619)
(1.25256e-14 -16.688 27.738)
(-4.03042e-15 -13.3731 24.1804)
(6.72122e-16 -12.4912 22.1883)
(1.8089e-16 -10.8041 20.6638)
(-2.11559e-15 -9.06054 17.7836)
(1.48627e-15 -6.7287 14.7366)
(3.14474e-15 -4.79259 11.8351)
(3.89145e-15 -2.92467 9.27411)
(6.1673e-15 -1.43016 7.01005)
(4.87152e-15 -0.646883 5.71347)
(8.17953e-16 -1.34683 6.38672)
(-1.33354e-15 -3.71261 9.27263)
(-4.53624e-15 -6.34127 12.1012)
(-5.31574e-15 -5.15492 10.126)
(1.20141e-14 -10.9839 18.8944)
(1.50583e-14 -18.6243 29.3103)
(4.11514e-15 -17.5974 28.5722)
(1.65947e-15 -15.9942 25.9164)
(5.39177e-16 -14.3559 23.9871)
(-5.04438e-16 -12.903 21.5637)
(9.60031e-16 -10.8433 18.7593)
(1.77442e-15 -8.77238 15.7109)
(3.72669e-15 -6.59657 12.724)
(5.55932e-15 -4.48745 9.69341)
(5.94672e-15 -2.40594 6.75064)
(4.49211e-15 -0.696823 4.1427)
(1.20722e-15 0.269304 2.39045)
(6.68632e-17 -0.300796 2.6639)
(-3.12293e-16 -1.56119 3.9749)
(6.69854e-15 -4.60335 7.16925)
(1.53446e-14 -14.7328 22.4573)
(1.0853e-14 -18.2195 28.4288)
(4.64211e-15 -17.2855 27.0645)
(9.15958e-16 -15.3322 24.2578)
(-1.1188e-17 -13.9293 21.9172)
(8.51643e-16 -12.6547 19.8955)
(8.786e-16 -11.3884 17.801)
(1.91792e-15 -10.0015 15.613)
(2.9427e-15 -8.47836 13.2674)
(3.45719e-15 -6.77747 10.7601)
(3.78785e-15 -4.85968 8.09744)
(2.72324e-15 -2.75866 5.07232)
(2.3547e-15 -0.145857 1.68754)
(2.14648e-16 1.44855 -1.95163)
(3.09187e-15 -1.58241 4.07459)
(1.68402e-14 -12.9566 20.8901)
(1.76033e-14 -19.0223 29.5008)
(1.21417e-14 -20.5615 30.0698)
(5.90442e-15 -19.6206 27.0092)
(2.14808e-15 -17.8852 23.2664)
(5.36904e-16 -16.1394 20.0193)
(-2.75609e-16 -14.6117 17.3713)
(-2.512e-16 -13.1165 15.0397)
(1.7358e-16 -11.6203 13.0744)
(3.86043e-16 -10.1613 11.261)
(5.0886e-16 -8.55477 9.42891)
(4.50699e-16 -6.79586 7.50915)
(1.51598e-16 -4.62206 5.22778)
(-6.10148e-16 -1.14003 0.80212)
(-1.69528e-17 12.464 50.1942)
(-6.71801e-16 0.033934 6.35055)
(-4.77908e-16 -0.481562 -2.359)
(-3.80412e-16 -0.338302 -1.58747)
(-3.05555e-16 -0.201458 -1.98737)
(-3.33359e-16 0.465016 -2.83322)
(-3.31047e-16 0.210719 -1.79404)
(-3.57838e-16 0.44321 -1.64749)
(-6.31295e-16 0.501886 -1.43977)
(5.41428e-16 1.03014 -2.07882)
(9.0447e-16 0.860094 -1.3436)
(8.90739e-16 0.981261 -1.20779)
(8.80729e-16 1.52619 -1.56941)
(5.81819e-16 1.21122 -1.01099)
(5.61429e-16 1.42206 -0.991174)
(5.50088e-16 1.39194 -0.986728)
(5.58989e-16 1.86078 -1.22256)
(5.48972e-16 1.5527 -0.824973)
(4.83046e-16 1.66941 -0.827244)
(5.11963e-16 2.15698 -0.962809)
(2.87195e-16 1.68725 -0.677905)
(1.55598e-16 1.91284 -0.698343)
(1.79141e-16 1.83959 -0.732726)
(1.27683e-16 2.31537 -0.807455)
(-2.72869e-17 1.8165 -0.593296)
(-7.01518e-17 2.03411 -0.606155)
(-2.8031e-16 1.96437 -0.634705)
(-4.32338e-16 2.35389 -0.654639)
(-5.83272e-16 1.8953 -0.495716)
(-6.41397e-16 2.00465 -0.513704)
(-8.99557e-16 2.3873 -0.469399)
(-9.51787e-16 1.81634 -0.39168)
(-9.99788e-16 2.01409 -0.403028)
(-1.16656e-15 1.94529 -0.43056)
(-1.7042e-15 2.24663 -0.360323)
(-1.42459e-15 1.76396 -0.326749)
(-1.38361e-15 1.8633 -0.354314)
(-1.95449e-15 2.15084 -0.250001)
(-1.50113e-15 1.60128 -0.267087)
(-1.55967e-15 1.76867 -0.27706)
(-1.37277e-15 1.70432 -0.293169)
(-1.97358e-15 1.96846 -0.186011)
(-1.44429e-15 1.48358 -0.193294)
(-1.42317e-15 1.63454 -0.180685)
(-1.34499e-15 1.56503 -0.16414)
(-1.6901e-15 1.82656 -0.0919664)
(-1.40291e-15 1.52886 0.00308971)
(-1.23107e-15 1.56993 0.0377834)
(-1.55738e-15 1.81583 0.219126)
(-8.04003e-16 1.44646 0.217938)
(-6.04462e-16 1.54507 0.267607)
(-3.73204e-16 1.45843 0.310136)
(-2.17161e-16 1.57357 0.558725)
(1.49845e-16 1.20217 0.371558)
(2.88332e-16 1.25364 0.401867)
(6.6186e-16 1.19159 0.475215)
(1.23577e-15 1.13185 0.440648)
(1.46508e-15 0.766069 -0.0678587)
(1.20955e-15 0.76272 0.082561)
(2.0753e-15 0.809559 -1.16217)
(1.98509e-15 0.127104 -1.82161)
(2.0156e-15 0.237485 -1.96286)
(2.33371e-15 0.441474 -2.08134)
(-4.39482e-17 0.787363 -2.35549)
(-3.47483e-15 -0.653071 0.994374)
(-2.90413e-15 -0.222098 0.67128)
(-3.20912e-15 -0.907036 2.83248)
(-1.74675e-15 -1.69642 3.79286)
(-1.33128e-15 -1.89168 3.68293)
(-1.06875e-15 -1.9 3.85216)
(-8.15597e-16 -3.20786 6.74762)
(-3.84964e-16 -3.68603 6.10595)
(-4.76537e-16 -4.22046 6.31056)
(-5.84954e-16 -4.17586 6.55932)
(-7.82241e-16 -6.27815 10.3428)
(-5.77201e-16 -6.51796 8.44048)
(-8.09152e-16 -6.64804 9.03048)
(-1.05282e-15 -9.18336 13.3371)
(-8.7167e-16 -9.00669 10.4841)
(-1.00827e-15 -9.49599 11.3276)
(-1.16927e-15 -10.2089 13.0037)
(-9.27555e-16 -10.1604 12.7754)
(-7.46066e-16 -10.2615 12.9611)
(3.04018e-16 -12.0436 15.681)
(1.1047e-16 -11.0139 13.7527)
(4.52014e-16 -11.3216 14.247)
(5.4694e-16 -11.3012 14.2754)
(6.52554e-16 -11.42 14.2834)
(7.14134e-16 -11.4933 14.3315)
(7.68873e-16 -11.5914 14.4173)
(8.40302e-16 -11.6829 14.639)
(9.30344e-16 -11.7661 14.9665)
(1.60589e-15 -12.5722 16.7427)
(1.32908e-15 -12.1643 15.6473)
(1.53001e-15 -12.3501 15.9087)
(1.64562e-15 -12.3133 16.0191)
(1.74895e-15 -12.4884 16.3747)
(1.79941e-15 -12.4725 16.3948)
(1.8728e-15 -12.5804 16.4975)
(1.94363e-15 -12.6306 16.57)
(2.04879e-15 -12.7119 16.6825)
(2.90863e-15 -13.2131 18.0822)
(2.50673e-15 -12.8289 17.1855)
(2.63608e-15 -12.9591 17.4093)
(2.7237e-15 -12.9759 17.5226)
(2.84556e-15 -13.0499 17.6776)
(2.96313e-15 -13.0854 17.8992)
(3.07109e-15 -13.1783 18.1664)
(3.17919e-15 -13.1933 18.285)
(3.29556e-15 -13.2542 18.5001)
(3.41206e-15 -13.3808 18.7214)
(4.20056e-15 -13.1942 19.5033)
(3.39163e-15 -13.058 18.9978)
(3.43824e-15 -13.1399 19.227)
(3.41471e-15 -13.1492 19.2787)
(3.43594e-15 -13.2168 19.3122)
(3.44407e-15 -13.2308 19.3079)
(3.44662e-15 -13.2926 19.4596)
(3.46432e-15 -13.2625 19.4122)
(3.49673e-15 -13.3996 19.2888)
(4.19249e-15 -12.3169 18.1235)
(3.50631e-15 -12.5156 18.1874)
(3.75558e-15 -12.5049 18.2886)
(3.99553e-15 -12.518 18.5276)
(4.20396e-15 -12.4648 18.5312)
(4.43547e-15 -12.4789 18.6705)
(4.67094e-15 -12.4642 18.8305)
(4.94146e-15 -12.3871 19.0762)
(5.37665e-15 -12.6376 19.6027)
(5.8333e-15 -10.236 16.8458)
(5.65459e-15 -11.0749 18.1646)
(5.74933e-15 -10.9441 17.9503)
(5.74114e-15 -10.9175 17.7782)
(6.01189e-15 -10.8693 17.7514)
(5.87887e-15 -10.7863 17.2617)
(5.62348e-15 -10.6468 16.5851)
(5.41102e-15 -10.4894 15.8977)
(5.24197e-15 -10.5291 15.1568)
(4.72874e-15 -7.34303 10.3011)
(5.8737e-15 -8.64182 13.5417)
(5.69579e-15 -8.25774 12.7681)
(5.77662e-15 -8.23218 12.6945)
(5.88306e-15 -7.9766 12.5324)
(6.17412e-15 -7.90458 12.4866)
(7.07223e-15 -7.6432 12.329)
(6.71731e-15 -7.52156 12.101)
(6.73932e-15 -7.30405 11.7763)
(6.46499e-15 -7.20637 11.1512)
(3.27443e-15 -3.60725 5.05445)
(5.50926e-15 -5.48146 8.55947)
(4.77066e-15 -4.9562 6.87084)
(4.33433e-15 -5.14189 6.21155)
(3.67988e-15 -4.79991 4.98627)
(2.87457e-15 -4.74556 3.60739)
(1.42542e-15 -4.54232 1.35114)
(1.27885e-16 -4.1919 -0.647988)
(3.99226e-16 -4.20906 -0.448659)
(-6.14335e-16 -4.15879 -1.95189)
(9.20126e-17 -3.91641 -0.926762)
(-7.66939e-17 -3.88982 -1.31889)
(-8.10616e-16 -3.11855 -1.77364)
(-6.29235e-16 -4.13746 -1.95806)
(-7.88446e-16 -3.45483 -1.60902)
(-6.51477e-16 -2.99785 -1.15492)
(-9.00295e-16 -3.78709 -1.6008)
(-6.71794e-16 -2.56262 -1.01709)
(-9.56118e-16 -3.24295 -1.49278)
(-7.8531e-16 -2.94548 -1.14379)
(-6.53617e-16 -2.38128 -0.861536)
(-9.26121e-16 -2.81914 -1.24523)
(-8.21012e-16 -2.60455 -0.971869)
(-6.97593e-16 -2.16664 -0.731856)
(-9.5516e-16 -2.85409 -1.01047)
(-7.35789e-16 -1.89476 -0.662209)
(-1.05521e-15 -2.45836 -0.972801)
(-8.07383e-16 -2.15388 -0.772861)
(-7.02087e-16 -1.82971 -0.589434)
(-9.32015e-16 -2.4215 -0.817528)
(-6.23663e-16 -1.58692 -0.542384)
(-9.37513e-16 -2.09015 -0.795383)
(-8.20209e-16 -1.89211 -0.649116)
(-6.95134e-16 -1.51197 -0.496735)
(-9.78645e-16 -1.83619 -0.727854)
(-7.82153e-16 -1.68559 -0.593577)
(-5.8009e-16 -1.38842 -0.451833)
(-8.13258e-16 -1.88304 -0.634759)
(-6.00184e-16 -1.20461 -0.423764)
(-8.0499e-16 -1.61819 -0.630773)
(-4.79335e-16 -1.38964 -0.514911)
(-4.24769e-16 -1.16765 -0.393258)
(-5.40199e-16 -1.59285 -0.556435)
(-4.01626e-16 -0.992872 -0.371985)
(-5.92967e-16 -1.36446 -0.555664)
(-5.54558e-16 -1.20383 -0.458508)
(-3.65329e-16 -0.937408 -0.349111)
(-5.12581e-16 -1.17723 -0.519469)
(-4.57414e-16 -1.05042 -0.423139)
(-3.20573e-16 -0.842282 -0.317485)
(-4.80581e-16 -1.20033 -0.449341)
(-3.8822e-16 -0.701807 -0.298151)
(-5.86072e-16 -1.0158 -0.448615)
(-6.00539e-16 -0.822541 -0.366838)
(-6.17893e-16 -0.668914 -0.276653)
(-6.25899e-16 -0.98091 -0.393752)
(-3.44599e-16 -0.53016 -0.264107)
(-5.49047e-16 -0.82273 -0.398441)
(-4.63557e-16 -0.671187 -0.334031)
(-2.42276e-16 -0.477858 -0.253592)
(-3.05244e-16 -0.674008 -0.378053)
(-1.70342e-16 -0.54431 -0.308957)
(-1.11567e-16 -0.393869 -0.226574)
(-2.07769e-16 -0.680706 -0.316022)
(-3.64958e-16 -0.270092 -0.207519)
(-3.06381e-16 -0.559603 -0.30767)
(1.19032e-16 -0.351136 -0.243064)
(2.972e-16 -0.243868 -0.168776)
(3.07248e-16 -0.529315 -0.227303)
(4.39247e-16 -0.113268 -0.140183)
(3.66081e-16 -0.44195 -0.211787)
(2.44384e-16 -0.250452 -0.180024)
(2.9484e-16 -0.0582578 -0.135115)
(6.79087e-16 -0.362271 -0.232855)
(1.27625e-15 -0.143179 -0.223104)
(1.29944e-16 0.0857366 -0.153095)
(3.70801e-16 -0.801394 -0.158018)
(-2.2616e-16 0.464131 -0.026925)
(-3.89233e-16 -0.418767 -0.174845)
(-1.65785e-15 -0.569395 -0.278978)
(-1.42139e-15 0.469886 -0.20876)
(-1.16787e-15 -0.409267 -0.240085)
(-3.00094e-16 0.209611 -0.137621)
(-9.25924e-16 0.140346 -0.0806737)
(-9.96351e-16 -0.00821534 -0.129718)
(-6.35489e-16 0.259523 -0.0964783)
(1.63656e-16 0.238162 -0.165096)
(1.21682e-15 0.00723857 -0.385141)
(1.16429e-15 0.430169 -0.274417)
(1.39736e-15 0.131003 -0.468341)
(8.09124e-16 0.452884 -0.351348)
(5.47372e-16 0.420108 -0.462742)
(1.98103e-31 0.716563 0.879745)
(1.18697e-30 0.814771 0.880214)
(2.86501e-30 0.86759 0.886792)
(3.01994e-30 0.922378 0.893348)
(-8.72713e-30 0.972154 0.902795)
(-5.99436e-29 1.01868 0.913402)
(-2.08514e-28 1.06223 0.925838)
(-5.68729e-28 1.10341 0.939693)
(-1.22983e-27 1.14241 0.955071)
(-6.94039e-28 1.17975 0.971884)
(1.34769e-26 1.21561 0.990124)
(9.41749e-26 1.25035 1.00977)
(3.55796e-25 1.28415 1.0308)
(6.80939e-25 1.31721 1.05318)
(-9.77008e-25 1.34966 1.07691)
(-1.31345e-23 1.38171 1.10202)
(-5.26939e-23 1.41369 1.12857)
(-1.05837e-22 1.44619 1.15676)
(6.10488e-23 1.48001 1.1868)
(1.33804e-21 1.51592 1.21893)
(5.41163e-21 1.55447 1.25336)
(1.16779e-20 1.59601 1.29023)
(3.73561e-21 1.64063 1.32959)
(-8.12309e-20 1.68814 1.37134)
(-3.78732e-19 1.73804 1.41518)
(-1.00271e-18 1.78947 1.46069)
(-1.53615e-18 1.84108 1.50774)
(3.53768e-19 1.89081 1.55768)
(1.15004e-17 1.93558 1.61523)
(4.65364e-17 1.97113 1.69072)
(1.29942e-16 1.9923 1.80079)
(2.93734e-16 1.99411 1.9656)
(5.68672e-16 1.97357 2.20196)
(9.7082e-16 1.93168 2.5144)
(1.48996e-15 1.87459 2.88866)
(2.08712e-15 1.81261 3.29207)
(2.70337e-15 1.75715 3.68223)
(3.27469e-15 1.71691 4.02014)
(3.745e-15 1.69539 4.28048)
(4.07326e-15 1.69088 4.45413)
(4.23513e-15 1.69809 4.54408)
(4.22248e-15 1.70978 4.55892)
(4.04299e-15 1.71713 4.50728)
(3.7188e-15 1.71026 4.39504)
(3.27585e-15 1.68393 4.22978)
(2.71785e-15 1.64499 4.03234)
(2.05917e-15 1.55953 3.8046)
(1.62635e-15 1.14712 3.35517)
(2.26956e-15 -0.0499804 2.31935)
(3.13226e-15 -1.22804 1.78431)
(3.49886e-15 -1.82009 1.59932)
(3.68814e-15 -2.25544 1.41041)
(3.6881e-15 -2.68927 1.2167)
(3.49892e-15 -3.12225 1.02671)
(3.14576e-15 -3.5504 0.829826)
(2.67956e-15 -3.96817 0.633819)
(2.15509e-15 -4.37223 0.439779)
(1.59674e-15 -4.74874 0.244313)
(1.03807e-15 -4.99883 0.0475464)
(5.29874e-16 -5.13919 -0.0987183)
(1.81407e-16 -5.17964 -0.221141)
(3.0259e-17 -5.13766 -0.281452)
(-1.86641e-18 -5.10484 -0.317143)
(-1.70433e-18 -5.05041 -0.329725)
(-2.12526e-19 -4.95671 -0.335852)
(1.82228e-20 -4.81097 -0.333747)
(6.79741e-21 -4.6009 -0.335741)
(3.43139e-22 -4.33296 -0.333104)
(-9.83308e-23 -3.97519 -0.339909)
(-1.71307e-23 -3.57792 -0.333919)
(-2.60027e-23 -3.0227 -0.344189)
(6.66501e-23 -2.53213 -0.320514)
(-2.21328e-22 -1.67748 -0.334997)
(1.03432e-21 -1.40774 -0.292361)
(-8.91843e-21 0.867397 -0.257446)
(6.3983e-20 0.388705 -0.197791)
(-2.97054e-19 1.06205 -0.547117)
(9.06513e-19 1.90293 0.0382839)
(-8.25689e-19 -4.2007 -0.35792)
(1.11967e-30 0.716693 0.927038)
(3.7961e-30 0.813791 0.925345)
(4.66536e-30 0.865584 0.931746)
(-8.63271e-30 0.919897 0.93784)
(-6.95813e-29 0.969006 0.947281)
(-2.33843e-28 1.01505 0.957976)
(-5.53582e-28 1.05806 0.970684)
(-9.62944e-28 1.09876 0.984954)
(-3.02618e-28 1.13728 1.00088)
(1.0124e-26 1.17415 1.01837)
(7.15408e-26 1.20955 1.03741)
(2.9733e-25 1.24385 1.05798)
(7.17419e-25 1.27721 1.08002)
(-4.73411e-26 1.30983 1.10352)
(-9.30388e-24 1.34184 1.12845)
(-4.60916e-23 1.37343 1.15487)
(-1.18165e-22 1.4049 1.18293)
(-5.9854e-23 1.43684 1.21288)
(9.44972e-22 1.47001 1.24501)
(4.88426e-21 1.5052 1.27955)
(1.2921e-20 1.54298 1.31667)
(1.30041e-20 1.58373 1.35647)
(-5.42414e-20 1.62757 1.39887)
(-3.40605e-19 1.67438 1.44361)
(-1.03791e-18 1.72369 1.49026)
(-1.90427e-18 1.77459 1.53861)
(-7.91797e-19 1.82538 1.58984)
(9.34973e-18 1.87309 1.64895)
(4.46185e-17 1.91303 1.72748)
(1.33151e-16 1.93895 1.84486)
(3.12825e-16 1.94423 2.02522)
(6.20394e-16 1.92429 2.28858)
(1.07398e-15 1.87926 2.63947)
(1.65766e-15 1.81568 3.05921)
(2.31872e-15 1.74581 3.50719)
(2.98095e-15 1.68404 3.93237)
(3.56658e-15 1.642 4.29008)
(4.01421e-15 1.62482 4.55453)
(4.28607e-15 1.63082 4.72087)
(4.36658e-15 1.65385 4.7982)
(4.25831e-15 1.68612 4.80055)
(3.97885e-15 1.71983 4.74085)
(3.55902e-15 1.74683 4.62818)
(3.04079e-15 1.75759 4.46683)
(2.46737e-15 1.74456 4.25991)
(1.85139e-15 1.71465 4.02413)
(1.16883e-15 1.66538 3.78336)
(6.66738e-16 1.36973 3.40331)
(1.47673e-15 0.212314 2.39467)
(3.20988e-15 -1.21938 1.61038)
(3.5406e-15 -1.81548 1.56906)
(3.6914e-15 -2.24116 1.39422)
(3.68312e-15 -2.67475 1.19762)
(3.48938e-15 -3.10612 1.01228)
(3.13569e-15 -3.53297 0.818986)
(2.6714e-15 -3.94976 0.627333)
(2.14947e-15 -4.35166 0.437832)
(1.59374e-15 -4.72446 0.246853)
(1.03735e-15 -4.97652 0.0538175)
(5.30602e-16 -5.12166 -0.0900288)
(1.82388e-16 -5.16788 -0.211089)
(3.06433e-17 -5.13187 -0.271505)
(-1.89317e-18 -5.10048 -0.30789)
(-1.75745e-18 -5.04565 -0.321666)
(-2.22584e-19 -4.9504 -0.329288)
(1.91796e-20 -4.80241 -0.328756)
(7.31114e-21 -4.59019 -0.332418)
(3.73627e-22 -4.32009 -0.331439)
(-1.08524e-22 -3.96145 -0.339954)
(-1.90004e-23 -3.56321 -0.335906)
(-2.5936e-23 -3.00959 -0.347757)
(6.63603e-23 -2.51831 -0.327066)
(-2.21258e-22 -1.666 -0.340668)
(1.05602e-21 -1.39898 -0.308795)
(-9.32099e-21 0.845022 -0.255474)
(6.93798e-20 0.448221 -0.172122)
(-2.70521e-19 1.01916 -0.541441)
(7.95622e-19 1.87105 0.0741285)
(-4.27148e-18 -4.11982 -0.349134)
(2.98983e-30 0.716964 0.95265)
(6.24517e-30 0.813542 0.950109)
(-2.30959e-30 0.864715 0.956393)
(-5.42268e-29 0.918793 0.9623)
(-2.05898e-28 0.967542 0.971769)
(-4.88372e-28 1.01333 0.982562)
(-7.47691e-28 1.05607 0.995463)
(-8.31507e-29 1.09653 1.01001)
(6.37347e-27 1.1348 1.02628)
(4.24257e-26 1.17143 1.0442)
(1.87903e-25 1.2066 1.06374)
(5.46667e-25 1.24067 1.08486)
(5.32655e-25 1.2738 1.10751)
(-4.32068e-24 1.30621 1.13167)
(-2.9076e-23 1.338 1.15731)
(-9.42994e-23 1.36934 1.18451)
(-1.307e-22 1.40053 1.21346)
(3.90393e-22 1.43213 1.24446)
(3.13445e-21 1.46493 1.27784)
(1.04082e-20 1.49972 1.3138)
(1.73312e-20 1.53708 1.3525)
(-1.58466e-20 1.57743 1.39396)
(-2.15028e-19 1.62093 1.43803)
(-7.99944e-19 1.66745 1.48435)
(-1.78562e-18 1.71651 1.5326)
(-1.81697e-18 1.76693 1.58343)
(4.54164e-18 1.81632 1.64067)
(3.10743e-17 1.8605 1.71437)
(1.03836e-16 1.89335 1.82293)
(2.60449e-16 1.90782 1.99097)
(5.40446e-16 1.8983 2.24084)
(9.67335e-16 1.86342 2.58044)
(1.53102e-15 1.80794 2.99448)
(2.18251e-15 1.74242 3.44521)
(2.84599e-15 1.68036 3.88312)
(3.44136e-15 1.63401 4.26257)
(3.90412e-15 1.61048 4.55461)
(4.19413e-15 1.61062 4.75061)
(4.29467e-15 1.6304 4.85708)
(4.20794e-15 1.66344 4.88699)
(3.95123e-15 1.70294 4.85334)
(3.55425e-15 1.74225 4.76635)
(3.05635e-15 1.77417 4.63288)
(2.50294e-15 1.7899 4.45603)
(1.9367e-15 1.7813 4.23712)
(1.36858e-15 1.75191 3.98802)
(7.46894e-16 1.70487 3.73836)
(1.87617e-16 1.45619 3.41099)
(7.81607e-16 0.390185 2.51494)
(3.08492e-15 -1.08178 1.44847)
(3.61537e-15 -1.7742 1.46456)
(3.70099e-15 -2.1855 1.37312)
(3.67458e-15 -2.61655 1.1728)
(3.47691e-15 -3.04936 0.990799)
(3.12275e-15 -3.47609 0.803228)
(2.66102e-15 -3.89403 0.617243)
(2.14233e-15 -4.2972 0.434078)
(1.5899e-15 -4.6713 0.249398)
(1.03637e-15 -4.93034 0.0617398)
(5.31416e-16 -5.08537 -0.078508)
(1.83545e-16 -5.14285 -0.197275)
(3.11028e-17 -5.11825 -0.257291)
(-1.92275e-18 -5.09411 -0.294222)
(-1.8208e-18 -5.04433 -0.30934)
(-2.34884e-19 -4.95229 -0.318935)
(2.03101e-20 -4.8061 -0.320604)
(7.95057e-21 -4.59501 -0.326659)
(4.13756e-22 -4.32521 -0.328098)
(-1.21572e-22 -3.96748 -0.339119)
(-2.14801e-23 -3.56925 -0.33775)
(-2.58556e-23 -3.01776 -0.351951)
(6.60206e-23 -2.52628 -0.334896)
(-2.21384e-22 -1.67631 -0.347252)
(1.08367e-21 -1.41487 -0.325994)
(-9.53817e-21 0.825141 -0.26812)
(7.20815e-20 0.402885 -0.148056)
(-2.4831e-19 0.996099 -0.521615)
(6.61199e-19 1.85717 0.0483771)
(-9.37839e-18 -4.06629 -0.337735)
(5.9793e-30 0.717356 0.983213)
(4.03496e-30 0.813085 0.979902)
(-3.58989e-29 0.863363 0.986093)
(-1.73032e-28 0.91706 0.991855)
(-4.52935e-28 0.965259 1.00139)
(-7.08885e-28 1.01066 1.01234)
(-7.19263e-29 1.05297 1.0255)
(4.70324e-27 1.09305 1.0404)
(2.71941e-26 1.13093 1.05711)
(1.17853e-25 1.1672 1.07556)
(3.82577e-25 1.202 1.0957)
(6.52152e-25 1.23572 1.11751)
(-1.55107e-24 1.26851 1.14091)
(-1.69366e-23 1.30058 1.16587)
(-6.85053e-23 1.33202 1.19238)
(-1.43861e-22 1.36298 1.22052)
(6.29483e-23 1.39374 1.25054)
(1.81071e-21 1.42484 1.28279)
(7.70719e-21 1.45708 1.31764)
(1.75084e-20 1.49127 1.35531)
(7.55628e-21 1.52801 1.39588)
(-1.19097e-19 1.56776 1.43933)
(-5.79882e-19 1.61071 1.48536)
(-1.56035e-18 1.65675 1.53363)
(-2.3461e-18 1.70523 1.58437)
(1.05266e-18 1.75438 1.64037)
(2.01984e-17 1.80064 1.7102)
(7.90841e-17 1.83814 1.81128)
(2.15305e-16 1.85936 1.96905)
(4.72045e-16 1.85739 2.20911)
(8.79707e-16 1.82914 2.54376)
(1.43533e-15 1.7777 2.96105)
(2.09347e-15 1.71237 3.42445)
(2.77641e-15 1.64632 3.88365)
(3.39778e-15 1.5929 4.29036)
(3.88572e-15 1.56181 4.61143)
(4.19493e-15 1.55676 4.83416)
(4.30688e-15 1.5757 4.96291)
(4.22454e-15 1.61287 5.01084)
(3.9672e-15 1.66131 4.99248)
(3.56677e-15 1.71424 4.9198)
(3.06419e-15 1.76532 4.80141)
(2.50499e-15 1.80791 4.64296)
(1.93391e-15 1.83365 4.44703)
(1.38693e-15 1.8335 4.21412)
(8.66828e-16 1.80842 3.95288)
(3.0002e-16 1.77061 3.69365)
(-3.07859e-16 1.58327 3.40044)
(1.68083e-17 0.619417 2.62477)
(2.67911e-15 -0.972231 1.35131)
(3.64599e-15 -1.76784 1.29436)
(3.73064e-15 -2.16203 1.32547)
(3.66404e-15 -2.57782 1.14754)
(3.4625e-15 -3.01185 0.963097)
(3.10871e-15 -3.43856 0.782547)
(2.64988e-15 -3.85689 0.603643)
(2.13468e-15 -4.26042 0.428112)
(1.58577e-15 -4.63435 0.251456)
(1.03524e-15 -4.89776 0.0709506)
(5.32146e-16 -5.05959 -0.0643428)
(1.84667e-16 -5.12491 -0.179797)
(3.1556e-17 -5.10834 -0.238767)
(-1.94912e-18 -5.08883 -0.276101)
(-1.88308e-18 -5.04197 -0.292683)
(-2.47349e-19 -4.95154 -0.304677)
(2.14094e-20 -4.80596 -0.309167)
(8.61476e-21 -4.59512 -0.318318)
(4.58378e-22 -4.32507 -0.322904)
(-1.3563e-22 -3.96768 -0.337218)
(-2.42805e-23 -3.56927 -0.339182)
(-2.57764e-23 -3.01925 -0.356671)
(6.56919e-23 -2.52797 -0.343669)
(-2.21682e-22 -1.67887 -0.355944)
(1.11212e-21 -1.42231 -0.341967)
(-9.73721e-21 0.797698 -0.281087)
(7.32921e-20 0.468936 -0.128762)
(-2.27035e-19 0.973979 -0.512041)
(5.44978e-19 1.83492 0.0280995)
(-1.20711e-17 -4.03823 -0.322051)
(7.83202e-30 0.717824 1.01273)
(-1.83379e-29 0.812825 1.00894)
(-1.33547e-28 0.862264 1.01506)
(-4.05279e-28 0.915618 1.02076)
(-7.16357e-28 0.963309 1.0304)
(-2.44955e-28 1.00836 1.04155)
(3.66926e-27 1.05028 1.055)
(1.94203e-26 1.09001 1.07029)
(7.64133e-26 1.12755 1.08746)
(2.52863e-25 1.16348 1.10647)
(5.54925e-25 1.19795 1.12724)
(-2.38543e-25 1.23135 1.14975)
(-8.9967e-24 1.26383 1.17392)
(-4.55403e-23 1.2956 1.19971)
(-1.25304e-22 1.32674 1.22709)
(-9.84772e-23 1.35736 1.25618)
(8.92302e-22 1.3877 1.28727)
(5.20863e-21 1.41831 1.32079)
(1.51031e-20 1.45001 1.35712)
(1.90372e-20 1.48363 1.39649)
(-5.10516e-20 1.51981 1.43892)
(-3.86477e-19 1.55903 1.48427)
(-1.2618e-18 1.60153 1.53219)
(-2.44891e-18 1.64708 1.58263)
(-1.25138e-18 1.69456 1.63747)
(1.16108e-17 1.74114 1.70372)
(5.75615e-17 1.7815 1.79738)
(1.73272e-16 1.80807 1.94427)
(4.04817e-16 1.81307 2.17318)
(7.89471e-16 1.79205 2.50131)
(1.33208e-15 1.74679 2.92034)
(1.99163e-15 1.68563 3.39425)
(2.68919e-15 1.62094 3.87098)
(3.33263e-15 1.56567 4.29983)
(3.84316e-15 1.53012 4.64505)
(4.17038e-15 1.51967 4.89125)
(4.29397e-15 1.53425 5.04088)
(4.21772e-15 1.56965 5.10673)
(3.96287e-15 1.61972 5.10423)
(3.56332e-15 1.6781 5.0466)
(3.06175e-15 1.73893 4.94347)
(2.50488e-15 1.79667 4.80142)
(1.93736e-15 1.84527 4.62484)
(1.39523e-15 1.87693 4.41602)
(8.99208e-16 1.88224 4.17552)
(4.36197e-16 1.85897 3.90976)
(-8.70145e-17 1.82057 3.64678)
(-7.54416e-16 1.67294 3.38212)
(-7.5521e-16 0.837252 2.73636)
(2.00736e-15 -0.834356 1.31948)
(3.53149e-15 -1.7654 1.10203)
(3.76961e-15 -2.15909 1.22762)
(3.65962e-15 -2.54722 1.11611)
(3.44584e-15 -2.97863 0.931548)
(3.09392e-15 -3.40669 0.755786)
(2.63841e-15 -3.82542 0.586077)
(2.12687e-15 -4.22908 0.419523)
(1.58153e-15 -4.6022 0.252608)
(1.03399e-15 -4.86913 0.0811044)
(5.32752e-16 -5.03685 -0.0476702)
(1.85687e-16 -5.10902 -0.158657)
(3.19745e-17 -5.09954 -0.215757)
(-1.97086e-18 -5.08367 -0.253176)
(-1.9403e-18 -5.03876 -0.271314)
(-2.59173e-19 -4.94912 -0.2861)
(2.24079e-20 -4.80349 -0.29407)
(9.2655e-21 -4.59236 -0.307088)
(5.05527e-22 -4.32165 -0.315627)
(-1.50034e-22 -3.96429 -0.334109)
(-2.73173e-23 -3.56555 -0.340151)
(-2.5705e-23 -3.01687 -0.361963)
(6.5392e-23 -2.526 -0.353448)
(-2.22097e-22 -1.67748 -0.367382)
(1.13971e-21 -1.42506 -0.357274)
(-9.92989e-21 0.76861 -0.297714)
(7.15431e-20 0.479743 -0.125083)
(-2.16595e-19 0.955712 -0.500033)
(4.82581e-19 1.81591 -0.000327178)
(-1.00035e-17 -4.02227 -0.307412)
(-6.54178e-31 0.718342 1.04263)
(-9.51558e-29 0.812536 1.03857)
(-3.42652e-28 0.86107 1.04465)
(-7.00917e-28 0.914033 1.05037)
(-4.73666e-28 0.961161 1.06015)
(2.72327e-27 1.00582 1.07156)
(1.50313e-26 1.0473 1.08533)
(5.35107e-26 1.08665 1.10105)
(1.65958e-25 1.12379 1.11873)
(4.02584e-25 1.15935 1.13834)
(2.34182e-25 1.19346 1.15979)
(-4.34707e-24 1.2265 1.18306)
(-2.80201e-23 1.25865 1.20804)
(-9.53634e-23 1.29008 1.23471)
(-1.53456e-22 1.32087 1.26301)
(3.22014e-22 1.35111 1.2931)
(3.19508e-21 1.38099 1.3253)
(1.16602e-20 1.41104 1.36012)
(2.23196e-20 1.44213 1.398)
(-7.68297e-21 1.47511 1.43911)
(-2.31069e-19 1.51067 1.48341)
(-9.46878e-19 1.54933 1.53064)
(-2.26151e-18 1.59128 1.58057)
(-2.57142e-18 1.63595 1.63429)
(5.17127e-18 1.68128 1.69725)
(3.94189e-17 1.72268 1.78366)
(1.35004e-16 1.75282 1.91906)
(3.40031e-16 1.76328 2.13529)
(6.98716e-16 1.74827 2.45533)
(1.22488e-15 1.70833 2.87571)
(1.88338e-15 1.65103 3.36095)
(2.59485e-15 1.58827 3.8559)
(3.26147e-15 1.53231 4.3062)
(3.79699e-15 1.49306 4.67375)
(4.14517e-15 1.47673 4.94162)
(4.28306e-15 1.48524 5.11098)
(4.21473e-15 1.51652 5.19402)
(3.96324e-15 1.56581 5.20649)
(3.56459e-15 1.62732 5.16262)
(3.06325e-15 1.69533 5.07306)
(2.5075e-15 1.76451 4.94511)
(1.94333e-15 1.82965 4.7838)
(1.40727e-15 1.88499 4.59282)
(9.19683e-16 1.923 4.37475)
(4.79936e-16 1.93393 4.13115)
(5.42424e-17 1.91297 3.86803)
(-4.67616e-16 1.87373 3.6102)
(-1.23215e-15 1.7591 3.3723)
(-1.59058e-15 1.05533 2.85313)
(1.0714e-15 -0.665293 1.36196)
(3.21014e-15 -1.74628 0.929019)
(3.76597e-15 -2.16707 1.08103)
(3.66928e-15 -2.52218 1.06148)
(3.42854e-15 -2.94232 0.897973)
(3.07838e-15 -3.37235 0.723058)
(2.62671e-15 -3.79231 0.563731)
(2.11908e-15 -4.19633 0.407917)
(1.57729e-15 -4.56895 0.252236)
(1.03268e-15 -4.83956 0.0914898)
(5.33238e-16 -5.01323 -0.0291093)
(1.8658e-16 -5.09234 -0.134355)
(3.23438e-17 -5.09008 -0.188643)
(-1.98795e-18 -5.07798 -0.225616)
(-1.99016e-18 -5.03519 -0.24529)
(-2.69811e-19 -4.9465 -0.263157)
(2.32691e-20 -4.80098 -0.275181)
(9.87592e-21 -4.58976 -0.292802)
(5.53526e-22 -4.31854 -0.306066)
(-1.64301e-22 -3.96134 -0.329553)