/*--------------------------------*- C++ -*----------------------------------*\
| =========                 |                                                 |
| \\      /  F ield         | OpenFOAM: The Open Source CFD Toolbox           |
|  \\    /   O peration     | Version:  4.1                                   |
|   \\  /    A nd           | Web:      www.OpenFOAM.org                      |
|    \\/     M anipulation  |                                                 |
\*---------------------------------------------------------------------------*/
FoamFile
{
    version     2.0;
    format      ascii;
    class       volScalarField;
    location    "19";
    object      p;
}
// * * * * * * * * * * * * * * * * * * * * * * * * * * * * * * * * * * * * * //

dimensions      [0 2 -2 0 0 0 0];

internalField   nonuniform List<scalar> 
6785
(
602.053
524.175
477.574
424.686
378.411
333.866
292.369
253.063
215.837
180.489
146.337
112.99
83.8687
53.834
12.8639
-2.74012
-19.9727
-9.86972
-16.6597
-15.8155
-18.0963
-18.6542
-19.1801
-18.8244
-17.5889
-15.1648
-11.9845
-7.46026
-1.07601
2.15603
25.1314
21.056
30.158
25.6737
29.6194
28.6509
29.6968
29.5803
29.7216
29.6815
29.9082
30.3268
30.6287
30.796
30.8613
34.0939
29.8059
31.7807
25.7576
26.0927
21.986
20.4641
17.6425
15.6268
13.5219
12.0328
11.1173
9.9462
8.0003
6.69346
-5.68899
-9.75611
-8.58233
-12.7608
-11.7867
-14.9479
-15.343
-17.3927
-18.6072
-20.1369
-21.2365
-21.9142
-22.4517
-23.0855
-21.8047
-8.24586
-9.70817
-7.18379
-9.32285
-6.82261
-8.20979
-6.89934
-7.1675
-6.64737
-6.41684
-5.85296
-5.04888
-3.43207
-1.87433
0.990186
16.1723
16.7309
19.4519
18.8267
21.7522
21.8349
23.9579
25.0226
26.6794
28.1815
29.8529
31.4338
33.2405
34.5558
36.5738
34.5113
35.5599
37.6147
37.3273
39.5854
39.7472
41.2988
42.0816
43.1889
44.1621
45.1997
46.1495
47.2454
48.0134
49.1239
49.3493
50.4467
51.9693
51.7656
53.4516
53.4804
54.6131
55.1056
55.9007
56.6423
57.4295
58.1753
59.0443
59.6402
60.6417
62.017
63.2946
64.4076
64.6792
66.1675
66.5186
67.6056
67.8414
68.0688
67.7354
67.2011
66.9263
67.0899
67.5618
67.9166
73.8404
73.2336
73.5932
72.6071
72.6735
71.4516
70.779
69.3059
67.9342
66.3354
64.9512
63.8795
63.0785
63.0445
61.7958
60.0501
56.5445
54.9315
52.1797
50.9699
48.8505
47.6846
46.0482
44.6292
42.7489
40.7013
38.6702
37.572
37.097
34.156
35.1204
30.167
26.9984
23.5748
20.8728
17.6093
14.9415
12.0661
9.33464
6.81129
4.9876
4.10691
3.88272
3.2201
2.07441
2.93644
2.43902
2.32663
1.23398
-0.115514
-1.7671
-3.04826
-4.37044
-5.37404
-6.00332
-6.11373
-6.02131
-5.7916
-5.87987
-5.59608
42.157
41.8344
41.6473
37.6513
30.8672
24.5599
19.3654
14.3242
10.1237
7.3766
4.94782
3.12528
2.02405
1.18716
1.00356
38.1108
38.486
38.7576
38.7462
38.8662
39.3324
40.0249
39.8529
39.7603
39.729
40.1941
39.67
39.6494
39.8001
39.1177
38.9065
39.034
39.095
37.9548
38.3557
38.305
37.2653
37.0323
37.5365
37.4609
36.3582
36.1564
36.6719
36.9213
35.5521
36.2368
36.5417
35.5057
35.3367
35.8912
36.3178
35.1898
35.7287
36.1872
35.4144
35.2663
35.7436
36.0257
35.3897
35.2681
35.6911
35.6846
34.9674
35.502
35.4707
35.0118
34.9391
35.3372
35.629
35.3547
35.2844
35.506
36.2488
36.0937
36.0574
36.9917
36.9462
36.8246
36.7426
37.1954
37.2351
38.0926
37.6107
36.2264
37.2789
38.8191
32.3794
28.7263
31.7791
36.7129
12.0126
21.1284
29.6599
-16.543
-5.7041
-0.822088
-3.44218
0.414567
-4.17673
-6.60491
-0.614579
-0.909757
-0.0857221
0.00524809
0.923591
3.33077
6.77922
7.76637
1.50486
3.504
7.16582
10.9247
11.5714
13.5195
14.7588
16.3942
21.6505
18.8723
22.1535
23.298
25.86
29.5458
31.9886
33.4137
35.4192
34.2364
42.5679
41.0844
43.3617
44.3758
45.3483
47.3615
50.4868
52.2293
48.298
54.8894
56.6233
59.0128
59.7569
59.065
58.189
57.1939
58.9024
53.6008
61.9014
62.9283
58.3828
57.8312
56.5898
53.2218
50.6277
48.191
39.4827
46.7736
51.3828
44.4245
41.1518
36.347
30.3643
25.0441
22.1862
18.2331
12.5952
12.8174
12.5558
7.58245
7.17519
5.94604
4.25662
-1.54589
-3.37543
-0.738678
-8.27162
0.996875
-0.421764
0.175418
6.00878
-0.328528
3.12059
1.66183
4.21835
7.38062
2.38685
5.51031
7.4355
4.22972
5.76803
4.90637
6.11532
7.84348
5.21018
6.36083
5.61297
6.53618
7.73521
5.40664
6.67093
7.39609
5.83714
6.43886
5.96603
6.42119
7.10078
5.79938
6.24902
5.83564
6.17603
6.62396
5.46738
5.97337
6.19836
5.39728
5.60137
5.31831
5.44869
5.64893
4.97835
5.11119
4.85942
4.93662
5.02317
4.43423
4.58543
4.56857
4.13991
4.161
3.97781
3.96538
3.94386
3.59087
3.58379
3.42123
3.39648
3.33631
3.02538
3.05014
2.95091
2.65593
2.61262
2.42959
2.41387
2.43126
2.19731
2.06939
2.00617
1.82916
1.76472
1.49192
1.35211
1.3311
0.969508
0.791614
0.647182
0.363118
0.202688
0.00192775
0.00313451
0.00462941
0.00570879
0.00676287
0.0077283
0.0086316
0.00953617
0.0104223
0.0113461
0.0122936
0.0132885
0.0143128
0.0153664
0.0164523
0.0176253
0.0189955
0.0207142
0.0228872
0.0254918
0.0284446
0.0316873
0.0350823
0.0384942
0.0417377
0.0445573
0.0466794
0.0478792
0.0481803
0.0480701
0.0485686
0.0509083
0.0558196
0.06282
0.0699847
0.074506
0.0739327
0.0672485
0.0551423
0.0393388
0.0215572
0.00278278
-0.0167712
-0.0367176
-0.0560251
-0.0789796
-0.128281
-0.187171
0.018841
-0.871902
-0.739268
-0.804329
-0.941101
-1.06163
-1.1949
-1.28692
-1.32843
-1.29416
-1.15895
-0.930548
-0.636155
-0.352369
-0.102923
0.105212
0.265387
0.381923
0.458567
0.49211
0.502282
0.471976
0.430808
0.364203
0.269335
0.248788
0.0357093
0.138054
0.0577727
0.0954567
0.23047
0.00514134
0.0080461
0.012007
0.0148617
0.0175016
0.0199462
0.0221475
0.0243627
0.0264975
0.0287354
0.0310267
0.0334451
0.0359358
0.0384978
0.0411361
0.0440035
0.0474106
0.0517831
0.0574089
0.0641947
0.0718819
0.0803017
0.0890686
0.0978323
0.106135
0.113347
0.118735
0.12139
0.120352
0.114801
0.104416
0.0897519
0.0723961
0.0547324
0.0391448
0.0270748
0.0187536
0.0132781
0.00899791
0.00395167
-0.00374233
-0.0156237
-0.0328539
-0.0564815
-0.0893078
-0.137127
-0.196534
-0.20921
0.153933
-1.31343
-1.13365
-1.25011
-1.46874
-1.65822
-1.86404
-1.99955
-2.04372
-1.9538
-1.72428
-1.38211
-0.952788
-0.521063
-0.115411
0.242969
0.53191
0.751078
0.8986
0.970215
0.988335
0.934715
0.843265
0.717859
0.532567
0.463284
0.111548
0.287985
0.150596
0.257917
0.881453
0.00806869
0.0132467
0.0201206
0.0250857
0.0297172
0.0339964
0.0378773
0.0417738
0.0455393
0.0494765
0.0535063
0.0577508
0.0621186
0.0666062
0.0712203
0.0762179
0.0821258
0.0896701
0.0993435
0.110991
0.124184
0.138638
0.153705
0.168791
0.183114
0.195612
0.205093
0.210216
0.209825
0.20336
0.191337
0.175512
0.158425
0.142488
0.128787
0.116477
0.103657
0.0883968
0.069349
0.0456217
0.0163491
-0.0195999
-0.0636366
-0.117041
-0.182892
-0.271683
-0.383997
-0.439143
-0.00149502
-1.48095
-1.29079
-1.41042
-1.67208
-1.89841
-2.14359
-2.30331
-2.35283
-2.24013
-1.96996
-1.5765
-1.08408
-0.583866
-0.10551
0.32307
0.672879
0.94146
1.12377
1.2147
1.23921
1.17602
1.06497
0.909282
0.688171
0.57495
0.210962
0.353991
0.2684
0.451823
1.14271
0.010715
0.0180027
0.0275586
0.0345314
0.0409801
0.0469579
0.0523569
0.0577797
0.0630114
0.0684811
0.0740777
0.0799723
0.0860356
0.0922582
0.0986432
0.105546
0.113708
0.124158
0.13759
0.15377
0.172095
0.192169
0.213087
0.234036
0.25393
0.271293
0.284439
0.291445
0.290618
0.281081
0.263407
0.239761
0.213285
0.187065
0.162921
0.140838
0.119766
0.0981311
0.074091
0.0455251
0.0100446
-0.0348849
-0.0918266
-0.163146
-0.253849
-0.376858
-0.517857
-0.589105
-0.337693
-1.80501
-1.61177
-1.69154
-2.01429
-2.29576
-2.59824
-2.79667
-2.85938
-2.72128
-2.39248
-1.91473
-1.31575
-0.704971
-0.11792
0.410103
0.842683
1.17624
1.40359
1.51847
1.55175
1.47606
1.34307
1.14926
0.886882
0.731904
0.326396
0.473481
0.40795
0.639897
1.35274
0.0131018
0.0226931
0.0349565
0.0440336
0.052369
0.0601248
0.0671134
0.0741357
0.080905
0.0879802
0.0952182
0.10284
0.110677
0.118709
0.126929
0.135789
0.146251
0.159669
0.176951
0.197775
0.221361
0.247204
0.27414
0.30114
0.326795
0.349167
0.365992
0.3747
0.373141
0.360462
0.337903
0.30873
0.277082
0.246507
0.218608
0.192657
0.166806
0.138778
0.106256
0.066813
0.0177639
-0.0438725
-0.121305
-0.217605
-0.338952
-0.500773
-0.682038
-0.816897
-0.878226
-2.07028
-1.97386
-1.98717
-2.37392
-2.71679
-3.08119
-3.32197
-3.39865
-3.23117
-2.83899
-2.27177
-1.56078
-0.833033
-0.129343
0.506209
1.02863
1.43284
1.70904
1.85005
1.8924
1.80292
1.64514
1.40987
1.10318
0.906994
0.460836
0.640643
0.57078
0.837826
1.4991
0.0152538
0.0271939
0.0420443
0.0532325
0.0634032
0.0729173
0.0814569
0.0900467
0.0983158
0.10696
0.115803
0.125116
0.134688
0.144482
0.154474
0.165206
0.177868
0.19416
0.215219
0.240607
0.269367
0.300887
0.333741
0.366695
0.397987
0.425159
0.445272
0.455033
0.451864
0.435073
0.406686
0.370981
0.332764
0.295745
0.261446
0.229105
0.196975
0.162693
0.123513
0.0762451
0.0172373
-0.0575164
-0.152245
-0.271082
-0.421679
-0.620252
-0.838702
-1.05898
-1.50953
-2.18418
-2.34126
-2.26351
-2.70519
-3.10903
-3.53356
-3.81558
-3.90573
-3.70827
-3.25537
-2.60255
-1.7851
-0.946851
-0.132503
0.604761
1.212
1.68283
2.0049
2.17049
2.22149
2.11882
1.93809
1.66237
1.31634
1.07812
0.612126
0.843514
0.752787
1.03948
1.72004
0.0171897
0.0316075
0.0489642
0.0623125
0.0743111
0.0856063
0.0957025
0.105872
0.115649
0.125873
0.136332
0.14735
0.158672
0.170236
0.181987
0.194554
0.209365
0.228498
0.253332
0.283294
0.317245
0.354467
0.393266
0.432193
0.469071
0.500815
0.523694
0.533697
0.528029
0.506531
0.472378
0.430973
0.387634
0.346004
0.307338
0.270583
0.233696
0.193856
0.147747
0.091536
0.0208743
-0.0690167
-0.183228
-0.326883
-0.508825
-0.745088
-1.00514
-1.32478
-2.10528
-2.13722
-2.74414
-2.55168
-3.0385
-3.50666
-3.99296
-4.31873
-4.42363
-4.19499
-3.68032
-2.93893
-2.01168
-1.0605
-0.133562
0.706261
1.39849
1.93575
2.30335
2.49337
2.55341
2.43786
2.23557
1.91902
1.53692
1.25579
0.77915
1.06756
0.951285
1.24705
1.90343
0.0189249
0.0359235
0.0556684
0.0712077
0.0849974
0.0980752
0.109709
0.121447
0.132716
0.144507
0.156571
0.169288
0.182351
0.195666
0.209136
0.223465
0.240334
0.262237
0.290816
0.325326
0.364447
0.407352
0.45206
0.496875
0.539099
0.574884
0.599642
0.608785
0.599648
0.573006
0.533324
0.486853
0.438923
0.392818
0.349562
0.308035
0.266167
0.220856
0.168266
0.103824
0.0223136
-0.0819898
-0.215171
-0.38347
-0.596817
-0.86997
-1.1722
-1.57893
-2.53581
-2.02034
-3.18994
-2.85818
-3.37597
-3.91339
-4.46331
-4.83649
-4.95767
-4.69588
-4.11756
-3.28377
-2.24265
-1.17513
-0.132394
0.812202
1.59081
2.19528
2.60873
2.82348
2.893
2.76475
2.54172
2.18359
1.76735
1.44277
0.960734
1.28953
1.16246
1.45978
2.13499
0.0204743
0.0401799
0.0621961
0.0799663
0.0955147
0.110384
0.123541
0.136846
0.149598
0.162951
0.176618
0.191036
0.205844
0.220903
0.236058
0.25208
0.270914
0.295521
0.327831
0.366886
0.411181
0.459769
0.510343
0.560884
0.608013
0.646999
0.672452
0.679526
0.666188
0.634524
0.59021
0.539878
0.488454
0.438769
0.391718
0.346181
0.300009
0.249705
0.190826
0.118044
0.0253048
-0.0940104
-0.246935
-0.440776
-0.686276
-0.996308
-1.34192
-1.81507
-2.8005
-1.99741
-3.66902
-3.18575
-3.71203
-4.32549
-4.93955
-5.36327
-5.50201
-5.20459
-4.56097
-3.63153
-2.4735
-1.28757
-0.127115
0.92318
1.78842
2.45991
2.91878
3.15815
3.2374
3.09671
2.8539
2.45379
2.00541
1.63723
1.15528
1.49024
1.38407
1.67862
2.37429
0.0218489
0.0443878
0.0685451
0.088583
0.105847
0.122511
0.137171
0.152032
0.166253
0.181157
0.196421
0.212538
0.229091
0.245883
0.262681
0.280309
0.300995
0.328228
0.364251
0.407843
0.45731
0.511554
0.567862
0.623755
0.674995
0.715943
0.740648
0.744526
0.726743
0.690827
0.643197
0.590245
0.536151
0.48332
0.432693
0.383298
0.332991
0.277901
0.212977
0.132088
0.0282926
-0.105972
-0.278708
-0.498254
-0.775903
-1.12235
-1.51128
-2.03124
-2.981
-2.22161
-4.13586
-3.54085
-4.04569
-4.74594
-5.42474
-5.90197
-6.05966
-5.72359
-5.01258
-3.98365
-2.70494
-1.398
-0.117515
1.03955
1.99165
2.72989
3.23363
3.49745
3.58668
3.43389
3.17235
2.72989
2.25108
1.83974
1.36045
1.69595
1.61756
1.89967
2.45269
0.0230588
0.0485676
0.0747315
0.0970761
0.116011
0.134472
0.150613
0.167021
0.182694
0.199139
0.215993
0.233811
0.252113
0.27063
0.289027
0.308167
0.33058
0.360353
0.400081
0.448207
0.502842
0.562664
0.624418
0.684976
0.739118
0.780443
0.802904
0.802889
0.781194
0.742459
0.693114
0.63879
0.582803
0.527306
0.473489
0.420629
0.366589
0.307065
0.236339
0.147438
0.0325177
-0.116913
-0.309769
-0.555279
-0.864977
-1.24741
-1.67912
-2.23242
-3.14446
-2.76184
-4.51752
-3.92272
-4.37485
-5.17694
-5.92255
-6.45588
-6.63397
-6.25584
-5.47478
-4.3421
-2.93802
-1.50668
-0.103393
1.16185
2.20124
3.006
3.55404
3.84216
3.94165
3.77714
3.49786
3.01264
2.50464
2.05064
1.57367
1.92769
1.86038
2.12264
2.63541
0.0241115
0.0527328
0.0807619
0.105452
0.126005
0.146266
0.163861
0.181803
0.198909
0.216882
0.235318
0.254838
0.274895
0.29513
0.31508
0.335624
0.359617
0.391837
0.435264
0.487917
0.547686
0.612887
0.679516
0.743622
0.799026
0.838928
0.857925
0.854113
0.829872
0.790173
0.74071
0.686061
0.628737
0.570866
0.514074
0.457988
0.400493
0.336814
0.260527
0.163774
0.0377856
-0.12685
-0.339888
-0.611255
-0.95242
-1.36999
-1.84309
-2.42281
-3.323
-3.52529
-4.68564
-4.32329
-4.6964
-5.61869
-6.43679
-7.02786
-7.22678
-6.80274
-5.94853
-4.70741
-3.17306
-1.61342
-0.0841429
1.2907
2.41768
3.28864
3.88021
4.19242
4.30238
4.1266
3.83055
3.30215
2.76575
2.26882
1.79165
2.1676
2.10675
2.34858
2.87428
0.0250131
0.056898
0.0866462
0.113723
0.135839
0.157897
0.176918
0.196378
0.214896
0.234383
0.254392
0.275617
0.297439
0.319388
0.340841
0.362669
0.388078
0.422643
0.469769
0.526927
0.591719
0.661872
0.732403
0.798472
0.853158
0.889918
0.904964
0.898457
0.873675
0.834968
0.786789
0.732641
0.67438
0.614357
0.554811
0.495791
0.43519
0.367694
0.286113
0.181654
0.0446131
-0.135301
-0.368549
-0.665491
-1.03724
-1.48879
-2.00155
-2.6069
-3.51456
-4.26487
-4.55297
-4.73837
-5.0107
-6.06897
-6.97001
-7.62189
-7.84098
-7.36617
-6.43516
-5.08008
-3.41037
-1.71822
-0.0592083
1.42704
2.64169
3.57814
4.21228
4.54826
4.6689
4.48234
4.1705
3.59848
3.034
2.49304
2.01299
2.40863
2.35534
2.57598
3.0946
0.0257679
0.0610757
0.0923918
0.121896
0.145514
0.169368
0.189782
0.210744
0.23065
0.251633
0.273207
0.29614
0.319738
0.343402
0.366306
0.389285
0.415923
0.45272
0.503545
0.565136
0.634673
0.708992
0.781975
0.847999
0.899854
0.932323
0.944038
0.936807
0.913727
0.877776
0.831995
0.778934
0.719978
0.657931
0.595797
0.534111
0.470745
0.399773
0.313171
0.201159
0.0530977
-0.142111
-0.395451
-0.717422
-1.11854
-1.60262
-2.15328
-2.78642
-3.69599
-4.73034
-4.31177
-5.19006
-5.32648
-6.52726
-7.52581
-8.24192
-8.47927
-7.9485
-6.9364
-5.4609
-3.65007
-1.82082
-0.0280287
1.57179
2.87445
3.87523
4.55038
4.9098
5.04124
4.84446
4.51779
3.90169
3.30897
2.72238
2.23725
2.65038
2.60616
2.80539
3.29275
0.0263785
0.0652785
0.0980059
0.12998
0.155037
0.180683
0.202455
0.224897
0.246165
0.268624
0.291752
0.316399
0.34179
0.367175
0.391479
0.415461
0.443114
0.482018
0.53652
0.602358
0.676073
0.753313
0.826846
0.89051
0.93774
0.96588
0.976001
0.970448
0.951171
0.919408
0.876837
0.825254
0.765722
0.701723
0.637159
0.573103
0.507361
0.433292
0.341952
0.222515
0.063429
-0.147093
-0.420326
-0.766623
-1.19577
-1.71087
-2.29795
-2.96213
-3.86448
-4.96103
-4.29234
-5.64636
-5.65954
-6.99428
-8.11311
-8.89772
-9.1458
-8.55153
-7.45402
-5.85075
-3.89233
-1.92089
0.0100395
1.72569
3.1168
4.18097
4.89497
5.27697
5.41936
5.21301
4.87247
4.21182
3.59013
2.95608
2.46405
2.89121
2.85902
3.03703
3.50207
0.0268456
0.0695183
0.103495
0.137983
0.16441
0.191842
0.214934
0.238835
0.261434
0.285349
0.310018
0.336385
0.363593
0.390709
0.416363
0.441183
0.469609
0.510469
0.568567
0.638239
0.715153
0.793618
0.865395
0.924398
0.96619
0.991306
1.00225
1.00072
0.986977
0.960466
0.921661
0.871788
0.8117
0.745771
0.678919
0.612811
0.545111
0.468339
0.372523
0.245733
0.0755613
-0.150297
-0.443156
-0.812999
-1.26886
-1.81364
-2.43612
-3.13513
-4.03457
-5.1399
-4.7455
-5.95755
-6.016
-7.46667
-8.73587
-9.6017
-9.85098
-9.17859
-7.9897
-6.25058
-4.1374
-2.01814
0.0556623
1.88954
3.36942
4.49611
5.24675
5.64989
5.8032
5.58794
5.23452
4.52883
3.87695
3.19346
2.69308
3.13
3.11345
3.26965
3.71769
0.0271687
0.0738071
0.108865
0.145914
0.173637
0.202848
0.227219
0.252553
0.276452
0.301797
0.327994
0.35609
0.385143
0.414012
0.440965
0.466441
0.495358
0.53797
0.59944
0.672174
0.750883
0.828467
0.895913
0.948647
0.985685
1.01007
1.02433
1.02878
1.02188
1.00137
0.966691
0.918644
0.857938
0.790056
0.721057
0.653251
0.584051
0.504974
0.404888
0.270712
0.0892902
-0.151974
-0.464192
-0.856851
-1.33834
-1.91177
-2.56904
-3.30622
-4.21609
-5.33933
-5.49146
-5.90615
-6.39427
-7.94145
-9.3904
-10.3609
-10.6056
-9.83659
-8.54571
-6.66142
-4.38557
-2.11229
0.109528
2.06418
3.63302
4.82111
5.60624
6.0289
6.19248
5.96914
5.60389
4.85267
4.16883
3.43387
2.92385
3.36596
3.36891
3.50414
3.92656
0.027345
0.0781568
0.11412
0.153779
0.182723
0.213702
0.239309
0.266049
0.291212
0.317958
0.345667
0.375503
0.406437
0.437091
0.465297
0.491225
0.52029
0.564343
0.628687
0.703302
0.782052
0.856207
0.917007
0.963363
0.997689
1.02393
1.04361
1.05551
1.0564
1.04241
1.01206
0.965861
0.904396
0.8345
0.763494
0.694377
0.624159
0.543142
0.438872
0.297109
0.104127
-0.15269
-0.484052
-0.898919
-1.40522
-2.00668
-2.69838
-3.476
-4.41014
-5.54802
-6.07615
-5.60194
-6.83474
-8.43207
-10.0721
-11.1791
-11.4173
-10.5335
-9.12577
-7.08434
-4.63716
-2.20305
0.172362
2.25052
3.90839
5.15644
5.97365
6.41412
6.58705
6.35645
5.98052
5.18323
4.46515
3.67683
3.15586
3.59855
3.62462
3.73974
4.15771
0.0273701
0.0825802
0.119266
0.161585
0.191668
0.224407
0.251202
0.279317
0.305706
0.333822
0.363026
0.394612
0.427474
0.459958
0.489373
0.515516
0.544289
0.589253
0.65561
0.730626
0.80724
0.875179
0.928273
0.969872
1.00412
1.03445
1.06113
1.08153
1.09088
1.08374
1.05783
1.01344
0.950996
0.878982
0.806108
0.736108
0.665356
0.582671
0.474104
0.324315
0.119281
-0.153342
-0.503694
-0.940269
-1.47083
-2.10003
-2.82602
-3.64534
-4.61316
-5.75426
-6.38453
-5.49318
-7.33395
-8.97131
-10.7772
-12.0583
-12.2918
-11.2765
-9.73497
-7.52066
-4.89254
-2.29013
0.244923
2.44949
4.1963
5.50259
6.34904
6.80579
6.98717
6.74968
6.36431
5.52042
4.76522
3.92201
3.38855
3.82744
3.87955
3.97386
4.39101
0.0272377
0.0870904
0.124305
0.16934
0.200477
0.234961
0.262897
0.292353
0.319925
0.349376
0.380055
0.413404
0.448249
0.482625
0.513209
0.539275
0.567134
0.612131
0.679376
0.753058
0.824748
0.884376
0.930709
0.970223
1.0068
1.04287
1.07761
1.10724
1.12553
1.12549
1.10406
1.06135
0.997634
0.92335
0.848752
0.778327
0.707486
0.62322
0.509947
0.351396
0.13362
-0.155127
-0.524294
-0.98208
-1.53647
-2.1934
-2.95378
-3.81571
-4.82391
-5.97621
-6.66816
-5.97651
-7.71286
-9.57789
-11.5022
-12.999
-13.2333
-12.0715
-10.3794
-7.97252
-5.15212
-2.37324
0.327995
2.66209
4.49759
5.86004
6.73241
7.20396
7.39271
7.14848
6.75516
5.86409
5.06833
4.16914
3.62124
4.05243
4.13274
4.20777
4.60103
0.0269391
0.0917018
0.129241
0.17705
0.209151
0.245367
0.274392
0.305151
0.333862
0.364607
0.396738
0.431866
0.468762
0.505108
0.53681
0.562401
0.588408
0.632231
0.699218
0.769168
0.833013
0.884211
0.926383
0.966471
1.00713
1.05
1.0935
1.13291
1.16054
1.16777
1.15079
1.10958
1.04419
0.96744
0.891274
0.820902
0.750303
0.664248
0.545461
0.377074
0.145721
-0.159384
-0.547002
-1.02538
-1.60322
-2.28798
-3.08314
-3.98865
-5.04217
-6.22469
-7.02532
-6.87966
-7.7273
-10.2685
-12.2489
-14.0021
-14.2441
-12.9232
-11.0653
-8.44321
-5.41647
-2.45211
0.422396
2.88939
4.81309
6.22925
7.1237
7.60842
7.80339
7.55257
7.15293
6.21411
5.37371
4.41806
3.85325
4.27339
4.38316
4.4388
4.85171
0.0264633
0.0964297
0.134075
0.184722
0.217692
0.255624
0.285683
0.317708
0.347508
0.379502
0.413057
0.449981
0.489005
0.527416
0.56015
0.584644
0.607447
0.648909
0.714254
0.77711
0.831602
0.876559
0.917593
0.960229
1.00605
1.05636
1.10911
1.15874
1.19608
1.21073
1.19811
1.15813
1.09056
1.0111
0.933539
0.86369
0.793449
0.704955
0.579343
0.399747
0.154048
-0.167321
-0.572683
-1.07083
-1.67165
-2.38439
-3.21497
-4.1654
-5.26805
-6.49788
-7.42329
-7.62282
-7.50219
-11.1163
-13.0382
-15.0715
-15.3258
-13.8348
-11.7976
-8.93658
-5.68655
-2.52649
0.528971
3.13248
5.14369
6.61068
7.52277
8.01886
8.21932
7.96199
7.55754
6.57029
5.6805
4.66873
4.0838
4.49025
4.62965
4.66868
5.06188
0.0257966
0.101291
0.138809
0.192361
0.226101
0.265732
0.29677
0.330016
0.360853
0.394046
0.428992
0.467727
0.508969
0.549541
0.583105
0.605484
0.623572
0.661753
0.722928
0.775469
0.821844
0.863924
0.906208
0.952572
1.00414
1.06226
1.12465
1.18492
1.23236
1.25454
1.24615
1.20702
1.13665
1.05419
0.975451
0.906538
0.836406
0.744205
0.609917
0.417666
0.157266
-0.179711
-0.601697
-1.11858
-1.7418
-2.4826
-3.34944
-4.34669
-5.50249
-6.79156
-7.83505
-8.10949
-7.48913
-12.1338
-13.9123
-16.2121
-16.4807
-14.8079
-12.5808
-9.45637
-5.96394
-2.59616
0.648593
3.39257
5.49032
7.00477
7.92941
8.4349
8.64031
8.37665
7.96893
6.93246
5.98781
4.92149
4.31207
4.70302
4.87138
4.89688
5.28775
0.024922
0.106306
0.143445
0.199975
0.23438
0.275689
0.307648
0.342071
0.373887
0.408221
0.444521
0.485081
0.528629
0.571417
0.605315
0.624159
0.636582
0.670001
0.723193
0.764554
0.806329
0.848486
0.893461
0.944141
1.00173
1.06791
1.1403
1.2117
1.26964
1.29945
1.29509
1.25634
1.18239
1.09663
1.01697
0.949264
0.878413
0.780426
0.635236
0.429282
0.154607
-0.196674
-0.633796
-1.16818
-1.81308
-2.58194
-3.48602
-4.53263
-5.74701
-7.10636
-8.27189
-8.63701
-8.08533
-13.2042
-14.9089
-17.4293
-17.7131
-15.8432
-13.4182
-10.0059
-6.25081
-2.66087
0.782168
3.67089
5.85395
7.41193
8.34332
8.85603
9.06576
8.79614
8.38696
7.30041
6.29461
5.17719
4.53712
4.91191
5.10715
5.11966
5.51446
0.0238192
0.111494
0.147981
0.207568
0.242529
0.285495
0.318315
0.353865
0.386601
0.422012
0.459616
0.502003
0.547923
0.592826
0.626025
0.640064
0.646477
0.671703
0.713926
0.74644
0.787601
0.831691
0.88008
0.935294
0.999044
1.07352
1.1563
1.23937
1.30829
1.34581
1.3452
1.30621
1.22778
1.13841
1.05813
0.991618
0.918288
0.811577
0.653434
0.4337
0.146117
-0.217602
-0.66809
-1.21856
-1.88426
-2.6811
-3.62356
-4.72266
-6.00257
-7.44389
-8.74307
-9.32037
-9.37052
-14.2287
-16.0367
-18.7294
-19.029
-16.9415
-14.3119
-10.588
-6.54914
-2.72059
0.930633
3.96879
6.2356
7.83257
8.76411
9.28166
9.49502
9.21999
8.81142
7.67384
6.59977
5.43758
4.7579
5.11741
5.33586
5.34001
5.70652
0.0224635
0.116881
0.152418
0.215148
0.250548
0.295148
0.328767
0.365392
0.398982
0.435397
0.474244
0.518434
0.566703
0.613207
0.64424
0.65319
0.652006
0.664208
0.696515
0.724148
0.767515
0.814351
0.866446
0.926245
0.996257
1.07928
1.17296
1.26832
1.34875
1.39404
1.39684
1.35681
1.27282
1.17954
1.09905
1.03311
0.954181
0.835398
0.663302
0.431022
0.13271
-0.241199
-0.703074
-1.26806
-1.95357
-2.77831
-3.76051
-4.9158
-6.26918
-7.80493
-9.25259
-10.1585
-11.1316
-15.063
-17.2782
-20.1207
-20.4354
-18.105
-15.2629
-11.2047
-6.86062
-2.77573
1.09495
4.28767
6.63636
8.26706
9.19128
9.71109
9.92739
9.64791
9.2427
8.05241
6.902
5.70435
4.97331
5.31994
5.5563
5.55673
5.92558
0.0208254
0.122493
0.156754
0.222719
0.258436
0.304644
0.339001
0.376645
0.411018
0.448351
0.488355
0.534268
0.5846
0.631536
0.659363
0.663835
0.651742
0.646218
0.673049
0.699822
0.746923
0.796886
0.852788
0.91717
0.993585
1.08549
1.19063
1.29904
1.39161
1.44471
1.45046
1.40837
1.3175
1.22015
1.13995
1.07261
0.983515
0.850083
0.664804
0.422397
0.116056
-0.265565
-0.736691
-1.3145
-2.01879
-2.87148
-3.89518
-5.11084
-6.54611
-8.18901
-9.80124
-11.0975
-13.0154
-15.604
-18.6303
-21.6117
-21.9386
-19.3374
-16.2716
-11.8575
-7.18658
-2.82702
1.27613
4.62903
7.05735
8.71575
9.6242
10.1435
10.362
10.0796
9.68153
8.4357
7.19978
5.97027
5.18305
5.51743
5.76715
5.7651
6.14511
0.0188698
0.128362
0.160988
0.230287
0.266195
0.313982
0.349013
0.387617
0.422696
0.460841
0.501876
0.549284
0.600831
0.646746
0.671309
0.669044
0.637993
0.617189
0.646497
0.674677
0.726355
0.779423
0.839249
0.90828
0.991299
1.09248
1.20979
1.33215
1.43757
1.49849
1.50662
1.46107
1.36172
1.26056
1.18083
1.10775
1.00357
0.85511
0.659216
0.409836
0.0984123
-0.288318
-0.766467
-1.35537
-2.07755
-2.95858
-4.02596
-5.30664
-6.83208
-8.59422
-10.3857
-12.0731
-14.6358
-15.9449
-20.1305
-23.2158
-23.542
-20.6428
-17.3389
-12.5471
-7.52801
-2.87532
1.47519
4.99448
7.49979
9.17898
10.0621
10.578
10.798
10.5146
10.1282
8.82322
7.4916
6.22514
5.38674
5.70652
5.96723
5.96878
6.31718
0.0165547
0.134524
0.165116
0.237856
0.273821
0.323157
0.358797
0.398297
0.433993
0.472818
0.51468
0.563
0.614209
0.658441
0.679815
0.666166
0.610274
0.585624
0.617027
0.648944
0.705941
0.762168
0.826048
0.899836
0.989732
1.10069
1.231
1.36838
1.48751
1.55621
1.56592
1.51486
1.40525
1.30146
1.22062
1.13492
1.01271
0.851658
0.648859
0.39593
0.0824387
-0.306765
-0.789734
-1.38817
-2.12766
-3.03787
-4.1516
-5.50206
-7.12537
-9.01736
-11.0001
-13.0461
-15.8641
-16.3625
-21.8679
-24.9612
-25.2453
-22.0236
-18.4658
-13.2735
-7.88583
-2.92144
1.69334
5.38575
7.96496
9.65702
10.5042
11.0135
11.2342
10.9522
10.5829
9.21433
7.77612
6.46398
5.58373
5.88374
6.15495
6.16201
6.53401
0.01383
0.14102
0.169136
0.245431
0.281314
0.332163
0.368348
0.40867
0.444879
0.484205
0.52651
0.574528
0.623786
0.667255
0.686052
0.649898
0.577732
0.554821
0.586385
0.623767
0.685799
0.745323
0.813461
0.892174
0.98928
1.11061
1.25494
1.40864
1.54248
1.61881
1.62886
1.56917
1.44802
1.34356
1.25598
1.15056
1.01147
0.842327
0.636668
0.383594
0.0709945
-0.318142
-0.803934
-1.41072
-2.16744
-3.10816
-4.27113
-5.69593
-7.42367
-9.45416
-11.6377
-14.0108
-16.9024
-17.097
-23.835
-26.8889
-27.048
-23.4795
-19.6527
-14.0363
-8.26102
-2.96536
1.93204
5.80476
8.45421
10.1501
10.9493
11.4488
11.6695
11.3917
11.0458
9.60827
8.05208
6.68445
5.77404
6.04692
6.32825
6.34775
6.70263
0.0106361
0.147896
0.173043
0.253016
0.288671
0.340993
0.377654
0.418714
0.455302
0.494865
0.536842
0.582828
0.629731
0.673348
0.685715
0.623159
0.546495
0.522307
0.554151
0.598746
0.666049
0.729219
0.80181
0.885663
0.990395
1.12283
1.2824
1.45399
1.60372
1.68731
1.69548
1.62262
1.49076
1.38593
1.28138
1.15329
1.00255
0.830463
0.625809
0.375817
0.0668803
-0.319931
-0.806982
-1.42147
-2.19589
-3.16877
-4.38381
-5.88684
-7.72416
-9.89957
-12.2913
-14.9682
-17.9036
-18.3739
-25.843
-29.0462
-28.9557
-25.0081
-20.8983
-14.8338
-8.65396
-3.00527
2.19304
6.25372
8.969
10.6585
11.3963
11.8824
12.1026
11.8324
11.5172
10.0041
8.31808
6.88504
5.95725
6.19776
6.4863
6.52314
6.88203
0.00690172
0.155209
0.176836
0.260611
0.295889
0.349635
0.386697
0.428391
0.465181
0.50452
0.544878
0.587751
0.6346
0.679548
0.670201
0.597129
0.514437
0.489276
0.52113
0.574486
0.646992
0.71415
0.791433
0.880715
0.993578
1.13801
1.31431
1.5057
1.67265
1.7626
1.76461
1.6735
1.53492
1.42375
1.29172
1.14518
0.989905
0.819553
0.619394
0.375402
0.0725287
-0.310196
-0.797541
-1.41968
-2.21266
-3.2194
-4.48893
-6.07317
-8.02356
-10.3481
-12.9523
-15.9128
-18.9294
-20.2119
-27.8052
-31.492
-30.9835
-26.6086
-22.1995
-15.6626
-9.06359
-3.03872
2.47826
6.73524
9.51096
11.1822
11.8438
12.313
12.532
12.2733
11.9975
10.4008
8.57234
7.06472
6.13233
6.33497
6.62828
6.68027
7.06189
0.00254143
0.163021
0.180508
0.268217
0.30296
0.358071
0.395448
0.437639
0.474361
0.512674
0.55005
0.590723
0.641075
0.679299
0.649019
0.572445
0.480682
0.456441
0.486972
0.551166
0.62886
0.700478
0.782698
0.877769
0.999383
1.15689
1.35172
1.56523
1.75083
1.8448
1.83317
1.72136
1.58012
1.44851
1.286
1.13093
0.977564
0.812859
0.620206
0.384663
0.0896877
-0.287843
-0.775155
-1.40534
-2.21788
-3.2599
-4.58562
-6.25295
-8.31824
-10.7938
-13.6112
-16.8385
-20.0345
-22.586
-29.6082
-34.2577
-33.1537
-28.2861
-23.5537
-16.5181
-9.48735
-3.06439
2.79007
7.25248
10.0819
11.7213
12.2901
12.7387
12.9563
12.7135
12.4871
10.7969
8.81249
7.22289
6.2996
6.4541
6.75256
6.82368
7.18354
-0.00254774
0.171407
0.184057
0.275828
0.309873
0.366269
0.403855
0.446353
0.482557
0.518746
0.55296
0.594584
0.649641
0.667409
0.631628
0.54626
0.446456
0.424515
0.452636
0.529312
0.611952
0.688555
0.775979
0.877291
1.0084
1.18029
1.39583
1.63421
1.83967
1.93219
1.89652
1.76798
1.62011
1.4527
1.26859
1.11581
0.969058
0.81316
0.630422
0.405139
0.119187
-0.252718
-0.740161
-1.37898
-2.21187
-3.29005
-4.67283
-6.42394
-8.60428
-11.2307
-14.2588
-17.7421
-21.2437
-25.2863
-31.0611
-37.3321
-35.4894
-30.0506
-24.962
-17.3949
-9.92115
-3.08144
3.13163
7.80939
10.684
12.2759
12.7335
13.1578
13.3737
13.152
12.9863
11.1907
9.03536
7.35819
6.46024
6.55756
6.85923
6.9504
7.32875
-0.00849082
0.180453
0.187476
0.283436
0.316607
0.374181
0.411836
0.454351
0.489347
0.522682
0.555749
0.602562
0.652274
0.654718
0.615831
0.518912
0.412317
0.39386
0.41865
0.50931
0.596586
0.678742
0.771654
0.879747
1.02124
1.20907
1.4479
1.7144
1.93986
2.01972
1.95135
1.8144
1.64262
1.43579
1.24689
1.10414
0.967192
0.822494
0.651352
0.437392
0.160888
-0.205468
-0.693412
-1.34131
-2.19487
-3.30937
-4.74919
-6.58363
-8.87763
-11.653
-14.8873
-18.6232
-22.5318
-27.8718
-32.1045
-40.7274
-38.009
-31.9139
-26.4303
-18.2895
-10.3597
-3.0885
3.50691
8.4109
11.3199
12.8456
13.1718
13.5681
13.7825
13.5876
13.4955
11.5796
9.23684
7.4682
6.61544
6.65205
6.95185
7.05307
7.47456
-0.0154408
0.190256
0.19076
0.291019
0.323124
0.38173
0.419255
0.461343
0.494404
0.525505
0.560731
0.613876
0.647107
0.646729
0.599461
0.491489
0.378477
0.36498
0.38583
0.491534
0.583093
0.671384
0.770083
0.885588
1.03849
1.24407
1.50923
1.80744
2.04991
2.09886
1.99902
1.85418
1.6367
1.40544
1.22763
1.09889
0.973872
0.841929
0.68328
0.480999
0.213862
-0.147215
-0.635896
-1.29288
-2.16683
-3.31708
-4.81311
-6.7294
-9.13428
-12.0556
-15.4915
-19.4841
-23.8529
-29.968
-33.0675
-44.6054
-40.7305
-33.882
-27.966
-19.2012
-10.7976
-3.08337
3.9207
9.06324
11.9932
13.4305
13.6029
13.9674
14.1808
14.0188
14.0145
11.9601
9.41148
7.54977
6.7667
6.74314
7.03517
7.13858
7.54486
-0.0235864
0.20093
0.193895
0.29854
0.329365
0.388797
0.425904
0.466997
0.498009
0.529191
0.570031
0.621029
0.643473
0.6404
0.583245
0.46435
0.345348
0.338063
0.355504
0.476329
0.571842
0.6668
0.771592
0.895204
1.06067
1.2861
1.58112
1.91442
2.16405
2.1614
2.0437
1.87148
1.60203
1.37282
1.21487
1.10179
0.989907
0.871461
0.725513
0.534793
0.276779
-0.0791365
-0.568382
-1.23391