/*--------------------------------*- C++ -*----------------------------------*\
| =========                 |                                                 |
| \\      /  F ield         | OpenFOAM: The Open Source CFD Toolbox           |
|  \\    /   O peration     | Version:  4.1                                   |
|   \\  /    A nd           | Web:      www.OpenFOAM.org                      |
|    \\/     M anipulation  |                                                 |
\*---------------------------------------------------------------------------*/
FoamFile
{
    version     2.0;
    format      ascii;
    class       volSymmTensorField;
    location    "19";
    object      turbulenceProperties:R;
}
// * * * * * * * * * * * * * * * * * * * * * * * * * * * * * * * * * * * * * //

dimensions      [0 2 -2 0 0 0 0];

internalField   nonuniform List<symmTensor> 
6785
(
(0.753313 1.46644e-19 7.61749e-20 0.753189 0.000166326 0.753499)
(0.753354 -1.10593e-19 -5.54999e-20 0.75332 6.06094e-06 0.753326)
(0.753325 -3.67612e-20 -2.7327e-20 0.753359 3.81588e-05 0.753316)
(0.753334 1.92548e-20 1.44695e-20 0.753344 2.60109e-05 0.753322)
(0.753331 -3.0375e-20 -9.33155e-21 0.753346 2.65758e-05 0.753323)
(0.753333 1.39159e-20 -2.12221e-21 0.753342 2.36126e-05 0.753325)
(0.753332 2.7057e-21 7.04951e-21 0.753341 2.19172e-05 0.753327)
(0.753333 -2.3181e-20 -8.78499e-21 0.753338 2.00359e-05 0.753329)
(0.753333 8.61061e-21 6.91579e-23 0.753337 1.8319e-05 0.753331)
(0.753333 3.52499e-21 9.48381e-21 0.753335 1.7002e-05 0.753332)
(0.753332 -1.45735e-20 -3.6922e-21 0.753333 1.63554e-05 0.753334)
(0.753334 4.82496e-21 -1.48749e-21 0.753329 1.32276e-05 0.753337)
(0.753334 8.86548e-22 4.75162e-21 0.753328 9.54762e-06 0.753338)
(0.753319 -9.09626e-21 -3.2138e-22 0.753358 1.51055e-05 0.753323)
(0.753347 3.33392e-21 -2.09739e-21 0.753388 -7.40959e-05 0.753265)
(0.75333 2.00067e-19 1.28831e-19 0.753011 0.000216481 0.75366)
(0.753351 -1.40215e-19 -8.08906e-20 0.75334 -1.68363e-05 0.753309)
(0.753325 -5.25638e-20 -3.13598e-20 0.753377 1.10906e-05 0.753297)
(0.753341 1.76675e-20 2.19379e-20 0.753352 -7.56602e-06 0.753307)
(0.753333 -2.30841e-20 -1.31612e-20 0.753362 1.77509e-07 0.753305)
(0.753336 9.24255e-21 4.33884e-21 0.753355 -3.88337e-06 0.753309)
(0.753335 -8.47172e-21 7.6413e-21 0.753355 -2.98139e-06 0.75331)
(0.753335 -1.30959e-20 -7.06768e-21 0.753352 -3.66771e-06 0.753313)
(0.753335 3.58489e-21 1.36291e-21 0.753349 -3.91708e-06 0.753316)
(0.753335 -4.18792e-21 8.7168e-21 0.753345 -6.00436e-06 0.75332)
(0.753334 -5.83204e-21 -3.10172e-21 0.753344 -9.99392e-06 0.753321)
(0.753334 4.61277e-21 2.82514e-21 0.753348 -1.64804e-05 0.753317)
(0.753336 -2.87763e-21 6.63036e-21 0.753362 -2.96572e-05 0.753301)
(0.753336 -5.29201e-21 -2.47001e-21 0.753391 -4.75045e-05 0.753273)
(0.753331 3.83466e-21 2.9603e-21 0.753383 -2.88758e-05 0.753286)
(0.75333 2.12773e-19 6.9178e-20 0.752974 0.00021988 0.753696)
(0.753338 -1.35173e-19 -6.65388e-20 0.753349 -1.4971e-05 0.753313)
(0.753325 -4.769e-20 -2.9038e-20 0.753371 -1.16892e-06 0.753304)
(0.753337 3.10863e-20 -2.35208e-20 0.753352 -1.51216e-05 0.753311)
(0.75333 -1.26179e-20 -1.51716e-20 0.753362 -5.84932e-06 0.753309)
(0.753334 -9.65726e-22 -8.00589e-22 0.753354 -1.04882e-05 0.753312)
(0.753332 5.64412e-21 -2.73089e-20 0.753356 -8.12469e-06 0.753312)
(0.753333 -1.44902e-21 -4.98964e-22 0.753358 -1.10934e-05 0.75331)
(0.753333 -2.25327e-21 -1.30067e-21 0.753365 -1.66555e-05 0.753302)
(0.753333 4.29445e-21 -1.72011e-20 0.753372 -2.56813e-05 0.753295)
(0.753333 -2.11025e-21 -2.19678e-21 0.753365 -3.01783e-05 0.753302)
(0.753333 -1.6816e-20 -1.22717e-20 0.753345 -2.53423e-05 0.753322)
(0.753333 2.76439e-21 -1.09792e-20 0.753337 -2.1837e-05 0.753331)
(0.753333 9.92801e-21 2.1896e-21 0.753339 -1.74279e-05 0.753328)
(0.753329 1.27134e-20 5.77876e-21 0.753384 -2.22708e-05 0.753286)
(0.753332 1.73288e-19 1.21892e-19 0.752957 0.000222799 0.753712)
(0.753337 -1.14994e-19 -1.00694e-19 0.753351 -1.31528e-05 0.753312)
(0.753329 -4.53141e-20 -1.3964e-20 0.753365 -5.54724e-06 0.753306)
(0.753337 7.29186e-21 3.9284e-21 0.753353 -1.51808e-05 0.75331)
(0.75333 1.0437e-21 -3.20135e-20 0.753361 -6.25334e-06 0.753309)
(0.753335 -7.41951e-21 1.67473e-20 0.753353 -1.09359e-05 0.753312)
(0.753332 -8.79251e-21 -5.55903e-21 0.753356 -7.09065e-06 0.753312)
(0.753334 6.7497e-21 -1.83497e-20 0.753358 -1.11806e-05 0.753308)
(0.753333 -1.814e-21 9.3955e-21 0.753374 -1.85258e-05 0.753293)
(0.753333 7.48806e-21 -1.79508e-21 0.753398 -3.27391e-05 0.753269)
(0.753333 2.07639e-20 1.88989e-21 0.753408 -4.00171e-05 0.753259)
(0.753333 3.19072e-20 1.66359e-20 0.753386 -3.13654e-05 0.753281)
(0.753332 1.07422e-20 -3.95431e-21 0.753352 -1.62611e-05 0.753316)
(0.753332 -2.93217e-20 -2.51229e-20 0.753317 -2.07141e-06 0.75335)
(0.753335 -3.86367e-20 -2.96441e-20 0.753309 -4.01707e-06 0.753356)
(0.753332 1.95806e-19 9.3083e-20 0.752941 0.000225527 0.753727)
(0.753336 -1.09311e-19 -1.00775e-19 0.753346 -9.70752e-06 0.753317)
(0.75333 -3.94593e-20 -3.42478e-20 0.753366 -1.11357e-05 0.753304)
(0.753337 2.03201e-20 -1.38434e-21 0.753351 -1.67096e-05 0.753312)
(0.753331 2.92948e-22 -3.34783e-20 0.753359 -8.30299e-06 0.753311)
(0.753336 2.68405e-21 -9.27363e-21 0.75335 -1.37932e-05 0.753314)
(0.753332 1.35236e-21 -1.07845e-20 0.753353 -8.89373e-06 0.753314)
(0.753334 9.23028e-21 -2.81786e-20 0.753352 -1.24409e-05 0.753314)
(0.753333 5.34184e-21 -1.05935e-20 0.753362 -1.5162e-05 0.753305)
(0.753334 1.6415e-20 2.64214e-21 0.753381 -2.37445e-05 0.753286)
(0.753334 1.90889e-20 4.14171e-21 0.753402 -3.03734e-05 0.753264)
(0.753333 3.80153e-20 2.05118e-20 0.753411 -3.13895e-05 0.753256)
(0.753332 5.13206e-20 3.39932e-20 0.753401 -2.56365e-05 0.753266)
(0.75334 -1.20121e-20 1.77289e-21 0.753361 -2.53872e-05 0.753298)
(0.753332 -1.15894e-19 -6.57008e-20 0.753269 3.08988e-05 0.753398)
(0.753332 1.87269e-19 1.22217e-19 0.752946 0.000217162 0.753722)
(0.753335 -1.24143e-19 -5.39062e-20 0.753333 -3.29334e-06 0.753331)
(0.753331 -7.729e-20 -1.20141e-20 0.753372 -1.80829e-05 0.753297)
(0.753336 1.36132e-20 8.70339e-21 0.753353 -1.97912e-05 0.753311)
(0.753331 -1.89731e-20 9.40099e-22 0.753357 -1.15068e-05 0.753312)
(0.753335 -1.69145e-20 1.34337e-20 0.753351 -1.68111e-05 0.753314)
(0.753332 -2.92174e-21 1.78132e-22 0.753353 -1.26129e-05 0.753315)
(0.753334 -7.86333e-21 5.42538e-21 0.75335 -1.51892e-05 0.753316)
(0.753333 -1.46895e-20 1.14579e-20 0.753354 -1.52061e-05 0.753313)
(0.753334 3.52174e-21 -2.5283e-21 0.75336 -1.81385e-05 0.753306)
(0.753333 1.8561e-21 8.64753e-21 0.753372 -2.01655e-05 0.753294)
(0.753334 1.48129e-21 1.17881e-20 0.753384 -2.2206e-05 0.753282)
(0.753332 -1.75536e-21 1.87553e-21 0.753397 -2.1082e-05 0.753272)
(0.753338 2.24824e-20 2.21292e-20 0.7534 -3.45561e-05 0.753263)
(0.75333 -4.31926e-20 -3.13932e-20 0.753317 2.08227e-05 0.753352)
(0.753333 1.99641e-19 1.37691e-19 0.752964 0.000205376 0.753703)
(0.753334 -1.13436e-19 -5.51249e-20 0.753319 4.77535e-06 0.753347)
(0.753331 -9.3794e-20 -3.06111e-20 0.753376 -2.24432e-05 0.753292)
(0.753335 7.1553e-21 5.05615e-21 0.753358 -2.12762e-05 0.753307)
(0.753331 -5.47022e-21 1.53723e-20 0.753357 -1.304e-05 0.753311)
(0.753335 -1.89209e-20 1.17119e-20 0.753353 -1.71125e-05 0.753313)
(0.753332 -1.65413e-21 -1.56363e-21 0.753355 -1.3833e-05 0.753313)
(0.753334 -4.5294e-21 1.0028e-20 0.753353 -1.54587e-05 0.753314)
(0.753333 -1.35905e-20 1.20672e-20 0.753354 -1.4516e-05 0.753313)
(0.753333 -6.71527e-21 -5.10294e-21 0.753355 -1.51767e-05 0.753312)
(0.753333 5.75139e-21 1.38848e-20 0.753359 -1.55458e-05 0.753308)
(0.753333 5.07752e-22 1.16771e-20 0.753366 -1.75585e-05 0.7533)
(0.753332 -2.54567e-20 -1.68156e-20 0.75338 -1.97938e-05 0.753288)
(0.753336 2.83179e-20 1.42089e-20 0.753394 -3.32e-05 0.753269)
(0.753329 -3.23712e-20 -1.39234e-20 0.753353 4.74234e-06 0.753317)
(0.753333 2.1723e-19 1.13053e-19 0.752983 0.000196737 0.753684)
(0.753334 -8.903e-20 -5.31921e-20 0.753308 1.09128e-05 0.753358)
(0.753332 -7.98542e-20 -6.05301e-20 0.753377 -2.39228e-05 0.753291)
(0.753335 -2.73156e-21 -1.1531e-21 0.753361 -2.18183e-05 0.753304)
(0.753332 5.10984e-21 2.88913e-21 0.753357 -1.35901e-05 0.753311)
(0.753334 8.7127e-22 -9.85061e-21 0.753353 -1.59662e-05 0.753312)
(0.753333 6.9406e-23 -3.07322e-21 0.753355 -1.30912e-05 0.753313)
(0.753334 2.84726e-21 1.12781e-21 0.753353 -1.36817e-05 0.753313)
(0.753333 3.74331e-21 -7.40666e-21 0.753353 -1.24332e-05 0.753314)
(0.753333 -6.70583e-21 -4.21232e-21 0.753353 -1.22437e-05 0.753314)
(0.753333 5.04296e-22 -4.24927e-22 0.753354 -1.18407e-05 0.753313)
(0.753334 6.90415e-21 8.5407e-22 0.753357 -1.25979e-05 0.753309)
(0.753333 -1.21486e-20 -7.42581e-21 0.753367 -1.4077e-05 0.7533)
(0.753336 -2.30859e-20 -1.52005e-20 0.753387 -2.71896e-05 0.753277)
(0.753332 9.44215e-21 1.38037e-20 0.753382 -1.51202e-05 0.753286)
(0.753334 2.16703e-19 1.25541e-19 0.752997 0.000191402 0.753669)
(0.753334 -9.07155e-20 -5.22805e-20 0.753305 1.21647e-05 0.753362)
(0.753332 -8.13705e-20 -7.83342e-20 0.753374 -2.4692e-05 0.753293)
(0.753335 -2.24381e-21 5.87322e-23 0.753363 -2.25702e-05 0.753303)
(0.753332 -6.4318e-22 -3.8581e-22 0.753356 -1.42766e-05 0.753311)
(0.753334 1.09798e-20 -2.39956e-20 0.753351 -1.53915e-05 0.753315)
(0.753333 4.92329e-21 4.56572e-21 0.753351 -1.29469e-05 0.753316)
(0.753334 -1.03697e-20 -5.84792e-21 0.75335 -1.35419e-05 0.753316)
(0.753333 1.60479e-21 -1.74836e-20 0.75335 -1.26294e-05 0.753317)
(0.753333 7.41967e-21 8.01324e-21 0.753349 -1.1724e-05 0.753317)
(0.753333 -9.68511e-21 -4.40376e-21 0.753349 -9.45352e-06 0.753318)
(0.753334 1.32793e-21 -7.58214e-21 0.753349 -6.68849e-06 0.753318)
(0.753333 5.82315e-21 8.15664e-21 0.753354 -4.81739e-06 0.753313)
(0.753334 -3.1843e-20 -1.84797e-20 0.753378 -1.67304e-05 0.753288)
(0.753332 2.05929e-20 8.30147e-21 0.753424 -3.68658e-05 0.753244)
(0.753334 2.1804e-19 9.54601e-20 0.75301 0.000188726 0.753657)
(0.753333 -9.28331e-20 -4.95983e-20 0.753312 8.44187e-06 0.753355)
(0.753333 -9.32412e-20 -5.99071e-20 0.753372 -2.48395e-05 0.753295)
(0.753334 1.58036e-20 -1.37173e-20 0.753364 -2.14662e-05 0.753302)
(0.753332 2.18071e-21 2.54769e-21 0.753358 -1.50447e-05 0.753309)
(0.753334 -1.24677e-20 -1.41667e-20 0.753353 -1.74982e-05 0.753312)
(0.753333 2.06041e-20 -1.02412e-20 0.753352 -1.6383e-05 0.753315)
(0.753334 -6.80248e-21 -2.90271e-21 0.753348 -1.76807e-05 0.753318)
(0.753333 -2.37875e-20 -1.80378e-20 0.753345 -1.54763e-05 0.753322)
(0.753333 1.11386e-20 -4.15496e-21 0.753339 -1.13951e-05 0.753327)
(0.753334 1.91179e-21 2.33007e-21 0.753333 -3.86743e-06 0.753333)
(0.753334 -1.86889e-20 -1.26323e-20 0.753331 4.06435e-06 0.753336)
(0.753333 2.18909e-20 -6.0223e-22 0.753337 6.5202e-06 0.753329)
(0.753334 -4.26396e-21 3.0383e-21 0.753367 -6.85929e-06 0.753299)
(0.753333 3.10522e-20 1.44135e-20 0.753478 -6.82058e-05 0.753189)
(0.753333 1.78028e-19 9.31682e-20 0.753006 0.000194469 0.753661)
(0.753334 -1.2338e-19 -4.68813e-20 0.753334 2.586e-06 0.753332)
(0.753333 -4.07305e-20 -8.48261e-20 0.753369 -1.75775e-05 0.753298)
(0.753334 2.38297e-20 1.36567e-20 0.753364 -1.57674e-05 0.753302)
(0.753333 -2.63265e-20 -2.48348e-21 0.75337 -1.63157e-05 0.753298)
(0.753334 1.66115e-20 -3.31908e-20 0.753372 -2.20865e-05 0.753294)
(0.753333 2.57094e-20 1.38809e-20 0.75337 -2.20934e-05 0.753297)
(0.753334 -1.72365e-20 -5.38269e-21 0.75336 -2.08868e-05 0.753306)
(0.753333 8.74846e-21 -2.01464e-20 0.753347 -1.46744e-05 0.75332)
(0.753333 1.53527e-20 2.0484e-21 0.753325 -4.97179e-06 0.753342)
(0.753333 -4.72543e-20 -2.57694e-20 0.753303 6.18386e-06 0.753363)
(0.753333 -1.1598e-20 -3.83168e-20 0.753295 1.27542e-05 0.753372)
(0.753334 -2.43281e-22 -2.06074e-21 0.753308 8.73543e-06 0.753359)
(0.753332 -7.7569e-21 -4.3739e-20 0.753355 -8.7753e-06 0.753313)
(0.753334 8.50163e-20 4.45315e-20 0.753521 -0.000105235 0.753145)
(0.753333 1.74707e-19 1.03982e-19 0.752969 0.000204862 0.753698)
(0.753335 -1.34178e-19 -6.71416e-20 0.753332 7.06748e-06 0.753333)
(0.753333 -6.06147e-20 -7.2654e-20 0.753384 -1.50784e-05 0.753284)
(0.753334 2.81362e-20 1.55782e-20 0.753366 -9.00053e-06 0.7533)
(0.753333 -2.52439e-20 -8.98738e-22 0.753374 -1.10352e-05 0.753293)
(0.753334 1.49045e-20 -1.44629e-20 0.753383 -1.816e-05 0.753283)
(0.753333 3.22894e-20 1.85268e-20 0.753385 -1.78822e-05 0.753282)
(0.753333 1.09086e-20 2.10152e-20 0.753379 -1.71904e-05 0.753287)
(0.753333 2.07424e-20 -1.78237e-21 0.753374 -1.57579e-05 0.753293)
(0.753333 6.85735e-21 8.57854e-22 0.753361 -1.33885e-05 0.753306)
(0.753333 -3.1447e-20 -2.23595e-20 0.753334 -5.54302e-06 0.753333)
(0.753334 -3.52505e-20 -3.82216e-20 0.753296 6.07967e-06 0.75337)
(0.753334 -3.46553e-20 -1.85875e-20 0.753274 1.03312e-05 0.753392)
(0.753331 -2.26503e-20 -2.32058e-20 0.753314 -6.96892e-06 0.753355)
(0.753335 6.17155e-20 2.45495e-20 0.753475 -9.84993e-05 0.75319)
(0.753332 1.79705e-19 8.14391e-20 0.752975 0.000180145 0.753694)
(0.753335 -4.11197e-20 -4.80698e-20 0.753252 3.50378e-05 0.753414)
(0.753333 -9.33465e-20 -4.51471e-20 0.753364 -6.98248e-06 0.753304)
(0.753333 -6.83076e-21 -4.19582e-20 0.753373 -1.26424e-05 0.753293)
(0.753333 -1.44328e-20 -8.97945e-21 0.753371 -1.20336e-05 0.753296)
(0.753334 1.57256e-21 -9.15835e-22 0.753376 -1.55454e-05 0.75329)
(0.753333 1.78356e-20 -8.14907e-24 0.753383 -1.63612e-05 0.753284)
(0.753333 4.24997e-21 3.62471e-20 0.753385 -1.65379e-05 0.753282)
(0.753333 2.74981e-20 6.71157e-21 0.753385 -1.58896e-05 0.753281)
(0.753334 1.46266e-20 1.09545e-20 0.753384 -1.59424e-05 0.753282)
(0.753334 -5.85745e-21 4.18144e-22 0.753379 -1.5443e-05 0.753287)
(0.753334 -2.7492e-20 -2.07855e-20 0.753365 -1.40881e-05 0.753301)
(0.753333 -2.78141e-20 -1.92992e-20 0.753337 -8.17472e-06 0.75333)
(0.753332 -1.04496e-20 -9.12789e-21 0.75331 -1.92093e-06 0.753359)
(0.753335 2.35244e-21 -5.40122e-21 0.753359 -3.9791e-05 0.753306)
(0.753335 1.41421e-19 9.05701e-20 0.753104 0.00010271 0.753561)
(0.753334 3.49125e-20 5.38453e-21 0.753167 7.80076e-05 0.753499)
(0.753333 -5.17491e-20 -8.37579e-20 0.7533 2.13091e-05 0.753367)
(0.753334 -5.54118e-20 -5.37424e-20 0.753368 -1.12497e-05 0.753298)
(0.753333 -2.1797e-20 -3.84755e-20 0.753374 -1.53606e-05 0.753292)
(0.753334 -1.18268e-21 -3.10825e-21 0.753366 -1.32123e-05 0.7533)
(0.753333 -3.24134e-21 1.12278e-20 0.753364 -1.19416e-05 0.753302)
(0.753333 1.46314e-20 -3.33696e-21 0.753366 -1.2127e-05 0.753301)
(0.753333 1.26333e-20 1.01124e-20 0.753369 -1.2219e-05 0.753298)
(0.753333 5.61877e-21 1.79251e-20 0.753373 -1.25937e-05 0.753294)
(0.753333 1.01799e-20 -5.82419e-22 0.753377 -1.2678e-05 0.75329)
(0.753333 -3.83718e-21 9.0173e-22 0.753382 -1.43964e-05 0.753285)
(0.753332 -9.85856e-21 -2.47003e-21 0.753389 -1.70302e-05 0.753279)
(0.753334 -1.49793e-20 -1.0812e-20 0.753384 -2.41705e-05 0.753282)
(0.753336 -1.61248e-20 -9.106e-21 0.753321 -3.92799e-06 0.753343)
(0.753329 1.32521e-19 8.23515e-20 0.753154 0.000100598 0.753517)
(0.753334 9.61135e-20 4.56203e-20 0.753123 8.42731e-05 0.753542)
(0.753332 -4.01049e-20 3.30313e-21 0.753239 1.98567e-05 0.753429)
(0.753333 -7.41202e-20 -4.274e-20 0.753325 -2.52661e-05 0.753342)
(0.753333 -5.38472e-20 -5.58023e-20 0.753366 -3.66062e-05 0.753301)
(0.753333 -4.1377e-20 -6.94691e-21 0.753376 -3.28635e-05 0.753291)
(0.753333 -1.49329e-20 -1.17312e-20 0.753373 -2.49517e-05 0.753294)
(0.753333 3.4672e-21 -1.3441e-20 0.75337 -1.86037e-05 0.753297)
(0.753334 -5.63847e-21 8.21361e-21 0.75337 -1.31402e-05 0.753297)
(0.753333 3.73645e-21 1.61168e-21 0.753369 -8.78657e-06 0.753298)
(0.753333 5.99264e-21 -2.61591e-21 0.753371 -6.31202e-06 0.753296)
(0.753333 -4.17557e-21 5.56936e-21 0.753374 -4.53748e-06 0.753292)
(0.753333 -2.66943e-21 -4.02666e-22 0.753381 -4.06917e-06 0.753286)
(0.753334 -5.23666e-21 -4.90575e-21 0.753402 -1.13763e-05 0.753264)
(0.753333 7.79436e-22 3.52274e-21 0.753402 -6.19647e-06 0.753265)
(0.753737 1.03551e-20 6.46319e-22 0.752752 0.000421495 0.753511)
(0.753246 7.33363e-21 8.87969e-22 0.753467 0.000452488 0.753287)
(0.753333 -3.99705e-21 2.65474e-21 0.753336 7.2146e-05 0.753331)
(0.753334 -4.17211e-21 2.20866e-21 0.75332 -8.17961e-06 0.753345)
(0.753336 8.85518e-23 2.0736e-21 0.753315 1.89677e-05 0.753349)
(0.753333 2.01967e-22 3.6815e-22 0.753326 -3.76506e-06 0.753342)
(0.753332 -9.28844e-22 2.13505e-21 0.753325 -1.54107e-05 0.753343)
(0.753335 6.98498e-21 2.36991e-21 0.753321 -1.02893e-05 0.753344)
(0.753335 -4.10037e-21 2.05655e-21 0.753321 -6.49055e-07 0.753344)
(0.753333 -1.28456e-20 -1.06266e-21 0.753327 -2.78987e-06 0.75334)
(0.753331 -6.92533e-21 -1.21492e-21 0.753329 -1.37426e-05 0.75334)
(0.753337 -2.0119e-22 -1.55098e-21 0.753319 -2.82668e-06 0.753344)
(0.753333 2.82189e-21 4.66627e-22 0.753329 -3.481e-06 0.753338)
(0.753332 2.7968e-21 -8.99563e-22 0.753328 -9.90886e-06 0.753339)
(0.753335 -2.62076e-23 -6.7474e-22 0.753325 -4.43535e-06 0.75334)
(0.753334 1.11714e-22 -6.65871e-22 0.753326 -1.9422e-06 0.75334)
(0.753333 -2.81256e-22 5.21648e-22 0.75333 -2.98955e-06 0.753337)
(0.753331 9.07923e-22 -7.42744e-22 0.753332 -8.6975e-06 0.753337)
(0.753337 2.82749e-21 -5.72279e-22 0.753321 -3.48758e-06 0.753342)
(0.753333 2.57835e-21 3.12037e-22 0.753332 -2.70076e-06 0.753335)
(0.753332 5.97309e-21 -1.29608e-22 0.753331 -7.51081e-06 0.753337)
(0.753335 3.73379e-21 4.926e-22 0.753327 -3.7807e-06 0.753339)
(0.753334 1.91382e-21 5.32966e-22 0.753328 -3.8951e-06 0.753338)
(0.753333 2.08044e-21 3.33294e-22 0.753333 -2.37641e-06 0.753334)
(0.753332 1.27815e-21 1.25029e-21 0.753332 -7.37301e-06 0.753336)
(0.753335 6.3433e-21 1.58759e-21 0.753327 -4.55822e-06 0.753338)
(0.753334 7.95029e-21 2.77169e-21 0.753329 -4.9569e-06 0.753337)
(0.753333 3.50381e-21 2.46429e-22 0.753334 -2.07114e-06 0.753332)
(0.753331 1.23832e-21 3.33197e-21 0.753335 -6.83353e-06 0.753334)
(0.753337 7.19916e-21 3.63483e-21 0.753323 -5.93866e-06 0.75334)
(0.753333 3.74833e-21 1.32095e-22 0.753336 -1.80931e-06 0.753331)
(0.753332 9.25666e-22 4.65145e-21 0.753334 -6.01594e-06 0.753334)
(0.753335 6.12551e-21 4.7688e-21 0.753328 -4.49727e-06 0.753337)
(0.753334 1.19841e-20 6.00145e-21 0.753331 -5.74575e-06 0.753336)
(0.753333 3.12338e-21 5.53733e-22 0.753336 -1.36732e-06 0.75333)
(0.753331 -6.61222e-21 6.51525e-21 0.753336 -4.93934e-06 0.753333)
(0.753336 7.93362e-21 6.472e-21 0.753325 -5.78951e-06 0.753338)
(0.753333 1.86884e-21 1.13692e-21 0.753338 -1.12954e-06 0.753329)
(0.753332 -5.2558e-21 7.23339e-21 0.753335 -4.48756e-06 0.753333)
(0.753335 -3.09158e-21 6.6806e-21 0.753329 -4.1413e-06 0.753336)
(0.753334 5.41935e-21 6.80259e-21 0.753331 -5.7233e-06 0.753335)
(0.753333 1.31642e-21 2.98989e-21 0.753337 -1.04782e-06 0.75333)
(0.753332 -9.3742e-21 7.38049e-21 0.753335 -4.76081e-06 0.753333)
(0.753334 -3.3016e-21 6.55359e-21 0.75333 -5.23126e-06 0.753335)
(0.753334 4.60741e-21 6.90003e-21 0.753332 -5.82465e-06 0.753334)
(0.753333 9.47557e-22 9.53025e-22 0.753334 -1.04133e-06 0.753333)
(0.753332 -1.3237e-20 6.9775e-21 0.753336 -6.35971e-06 0.753332)
(0.753336 -8.17379e-23 6.27184e-21 0.753329 -7.38452e-06 0.753335)
(0.753333 -4.37076e-21 5.09795e-22 0.753335 -7.40004e-07 0.753332)
(0.753333 -1.80023e-20 5.77201e-21 0.753336 -5.58432e-06 0.753332)
(0.753334 -1.56319e-20 3.78924e-21 0.753333 -6.53814e-06 0.753333)
(0.753333 -9.3153e-21 2.5478e-21 0.753335 -7.86386e-06 0.753331)
(0.753333 -6.33598e-21 6.72747e-22 0.753338 1.15654e-06 0.753329)
(0.753332 -1.28527e-20 1.28918e-21 0.753338 -2.44336e-06 0.75333)
(0.753334 -1.76255e-20 -3.40002e-22 0.753335 -6.04084e-06 0.753332)
(0.753333 -1.7915e-20 -2.12601e-21 0.753337 -4.77339e-06 0.75333)
(0.753334 -8.97067e-21 1.19247e-21 0.753341 7.46365e-06 0.753325)
(0.753331 1.28126e-21 -3.84798e-21 0.753339 -7.76187e-07 0.753331)
(0.753333 -5.98966e-21 -4.13074e-21 0.753332 6.93794e-06 0.753334)
(0.753334 -9.35233e-21 1.91617e-21 0.753346 2.03097e-05 0.75332)
(0.753328 -4.98333e-22 -6.48283e-21 0.753336 9.63881e-06 0.753336)
(0.753335 -1.22947e-20 -6.89973e-21 0.753319 5.66195e-06 0.753346)
(0.753335 1.89388e-20 -5.57426e-21 0.753318 4.50907e-06 0.753347)
(0.753333 6.09468e-20 1.6978e-23 0.753352 -2.09346e-05 0.753315)
(0.753331 2.73704e-20 9.20895e-21 0.753339 -2.60281e-05 0.75333)
(0.753338 -8.46007e-21 1.03748e-20 0.75333 -1.34873e-05 0.753332)
(0.753333 -9.08672e-21 6.32177e-22 0.753359 -2.00481e-05 0.753309)
(0.753331 -2.74219e-20 7.16138e-21 0.753358 -3.62807e-06 0.753311)
(0.753337 -1.85208e-20 6.12245e-21 0.753347 3.60002e-06 0.753316)
(0.753333 -8.36907e-21 4.81727e-21 0.753361 -2.84921e-05 0.753306)
(0.753333 -7.07475e-21 -1.19614e-21 0.753364 -1.10754e-05 0.753303)
(0.753333 -6.68315e-21 3.26843e-21 0.75337 1.1304e-05 0.753297)
(0.753337 1.64894e-21 2.85655e-21 0.753362 1.07716e-07 0.753301)
(0.753334 3.0923e-21 3.17568e-21 0.753376 -3.23401e-05 0.753289)
(0.753331 -1.35278e-21 -5.07744e-21 0.753372 -6.91406e-06 0.753297)
(0.753346 1.02206e-21 2.71409e-21 0.753358 2.32556e-05 0.753296)
(0.753332 7.59052e-21 3.22568e-21 0.753392 -3.99381e-05 0.753276)
(0.753331 -3.41979e-22 -2.56683e-21 0.753372 -3.98713e-06 0.753298)
(0.753347 8.93282e-23 3.09532e-21 0.753368 3.38007e-05 0.753284)
(0.75333 9.21937e-21 3.34867e-21 0.753407 -5.52874e-05 0.753264)
(0.753328 -1.17006e-20 1.54988e-22 0.753374 -3.44902e-05 0.753297)
(0.753341 -2.99688e-20 -1.19007e-21 0.753348 1.42766e-05 0.753312)
(0.753326 -2.53899e-20 -1.7682e-21 0.753384 -3.25753e-05 0.753289)
(0.753333 -2.14631e-20 1.0393e-20 0.753351 -5.76593e-06 0.753316)
(0.753339 -2.09939e-20 5.655e-22 0.753353 3.73352e-06 0.753308)
(0.753328 -3.04153e-20 1.33671e-21 0.753365 -2.58846e-05 0.753307)
(0.753336 -1.47677e-20 2.02406e-22 0.753349 5.54941e-06 0.753315)
(0.753332 -1.2732e-20 -2.47478e-22 0.753357 4.37982e-06 0.75331)
(0.753333 -9.77342e-21 -6.09661e-22 0.753356 -2.66105e-07 0.753311)
(0.753333 -1.04023e-20 -9.43632e-22 0.753358 -1.11652e-05 0.753309)
(0.753334 -1.19295e-20 -1.21796e-21 0.753357 -2.74814e-05 0.753309)
(0.753331 -1.39916e-20 -1.48875e-21 0.753362 -3.64066e-05 0.753307)
(0.753333 -7.97601e-21 3.84524e-21 0.753342 -8.05111e-06 0.753324)
(0.753335 -9.83637e-21 -2.27066e-22 0.753349 2.78001e-06 0.753316)
(0.753333 -2.10821e-20 2.13228e-22 0.753352 -1.83255e-05 0.753315)
(0.753334 -1.5695e-20 -6.45152e-22 0.753351 -2.40482e-05 0.753315)
(0.753332 -1.0781e-20 -1.03637e-21 0.753352 -2.0187e-05 0.753316)
(0.753335 -7.96248e-21 -1.37943e-21 0.753347 -3.30175e-06 0.753318)
(0.753332 -9.1571e-21 -1.6504e-21 0.753353 -6.4509e-06 0.753315)
(0.753334 -1.06076e-20 -2.02751e-21 0.753351 -6.83201e-06 0.753315)
(0.753333 -1.60732e-20 -2.77733e-21 0.753356 -1.91499e-05 0.753311)
(0.753333 1.0537e-20 -2.63557e-20 0.753336 -8.12743e-06 0.753331)
(0.753336 -4.35045e-21 -1.99865e-21 0.753343 -2.22383e-07 0.753321)
(0.753331 -1.52948e-20 -1.38503e-21 0.75335 -1.91022e-05 0.753319)
(0.753334 -1.49109e-20 -1.89937e-21 0.753346 -1.40989e-05 0.75332)
(0.753333 -1.65038e-20 -2.32065e-21 0.753348 -2.1018e-05 0.753319)
(0.753333 -1.54979e-20 -2.90716e-21 0.753349 -2.86477e-05 0.753318)
(0.753333 -1.49569e-20 -3.54168e-21 0.753347 -2.29859e-05 0.75332)
(0.753335 -1.59479e-20 -4.05767e-21 0.753345 -1.94429e-05 0.75332)
(0.753331 -1.73146e-20 -4.64497e-21 0.753355 -2.54507e-05 0.753314)
(0.753335 -1.80262e-20 -5.2454e-21 0.753347 -2.15932e-05 0.753318)
(0.753333 -1.49359e-20 1.31108e-20 0.753326 -8.18169e-06 0.753341)
(0.753334 6.65512e-21 -4.70838e-21 0.753341 -8.72594e-06 0.753325)
(0.753332 -9.21544e-22 -4.06885e-21 0.753344 -1.84262e-05 0.753324)
(0.753333 1.35097e-21 -4.19341e-21 0.753343 -5.54324e-06 0.753323)
(0.753333 -6.25161e-22 -4.13099e-21 0.753344 -1.84984e-06 0.753323)
(0.753334 5.79192e-22 -4.12553e-21 0.753343 -9.35919e-06 0.753323)
(0.753334 4.68929e-22 -4.1413e-21 0.753338 -7.8019e-06 0.753327)
(0.75333 -1.25037e-21 -4.25434e-21 0.753344 9.93557e-06 0.753326)
(0.753337 -8.87956e-21 -4.99078e-21 0.753327 2.05671e-05 0.753336)
(0.753333 -7.40952e-21 6.5048e-21 0.753313 4.77826e-06 0.753354)
(0.753332 -7.00487e-21 -3.88811e-21 0.753336 -1.004e-05 0.753331)
(0.753333 -2.98609e-20 -2.53841e-21 0.753333 -2.51148e-05 0.753335)
(0.753333 -2.75283e-20 -2.85052e-21 0.753328 -1.99793e-05 0.753338)
(0.753334 -2.67267e-20 -3.72822e-21 0.753329 -1.35157e-05 0.753337)
(0.753332 -2.79691e-20 -4.56688e-21 0.753332 -2.36889e-05 0.753335)
(0.753337 -2.9191e-20 -5.49032e-21 0.753325 -3.07766e-05 0.753338)
(0.753327 -4.08152e-20 -7.15147e-21 0.75335 -5.35414e-05 0.753323)
(0.753339 -2.93917e-20 -5.31064e-21 0.753311 -7.20368e-06 0.75335)
(0.753333 8.92126e-21 -2.04328e-20 0.753298 6.04157e-06 0.753369)
(0.753327 -4.44067e-21 -3.26028e-21 0.753332 -1.09495e-05 0.753341)
(0.753337 -5.67363e-21 -3.2602e-21 0.753316 1.78902e-05 0.753347)
(0.753333 -1.89656e-20 -3.16792e-21 0.753323 5.05438e-06 0.753345)
(0.753333 -1.18208e-20 -4.92707e-22 0.753316 2.40444e-05 0.753352)
(0.753335 2.14666e-20 9.62358e-22 0.753306 6.50042e-05 0.75336)
(0.753336 2.6274e-20 1.72474e-21 0.753297 7.71075e-05 0.753367)
(0.753326 2.1659e-20 2.28778e-21 0.753311 8.12316e-05 0.753363)
(0.753343 1.7157e-20 2.60531e-21 0.753268 9.47679e-05 0.753388)
(0.753333 -3.10428e-21 -9.44333e-22 0.75329 7.21899e-06 0.753377)
(0.753326 -4.02267e-21 9.0015e-21 0.753308 -4.89094e-06 0.753366)
(0.75334 5.22358e-21 8.08155e-21 0.753287 4.16953e-05 0.753374)
(0.753332 -1.29347e-20 8.99136e-21 0.753295 8.52135e-07 0.753373)
(0.753334 -2.70704e-20 8.72982e-21 0.753291 -9.64741e-07 0.753375)
(0.753334 -8.13093e-20 7.32232e-21 0.75329 -1.06228e-06 0.753376)
(0.753336 -3.7976e-20 1.37991e-20 0.753286 1.20676e-05 0.753378)
(0.753333 2.23705e-20 1.49888e-20 0.753289 2.16733e-05 0.753378)
(0.75333 1.70712e-20 1.55739e-20 0.753289 4.70629e-05 0.753381)
(0.753346 6.00878e-20 2.01623e-20 0.753243 9.83395e-05 0.753412)
(0.753332 8.89485e-21 1.54405e-20 0.753293 2.00177e-05 0.753375)
(0.75333 1.74329e-20 1.49103e-20 0.753309 5.47611e-05 0.753361)
(0.753342 7.50662e-20 1.22575e-20 0.753298 0.000144735 0.75336)
(0.75333 6.89972e-20 1.49053e-20 0.75331 0.000113192 0.75336)
(0.753338 9.19421e-20 1.70624e-20 0.753287 0.000159568 0.753375)
(0.753327 1.42519e-19 2.13097e-20 0.753294 0.000223464 0.753379)
(0.753339 1.73492e-19 2.12334e-20 0.753267 0.000264591 0.753394)
(0.75334 6.1776e-20 7.37719e-21 0.753297 0.000115993 0.753363)
(0.753329 -5.48306e-21 4.15495e-21 0.753329 8.90077e-06 0.753342)
(0.753334 7.13661e-21 3.72093e-21 0.753327 3.88008e-06 0.75334)
(0.753333 -2.02047e-22 4.83784e-21 0.753323 1.45863e-05 0.753344)
(0.753341 2.82397e-20 3.43017e-21 0.753308 3.73931e-05 0.753351)
(0.753335 1.5942e-20 1.78125e-21 0.753321 2.06243e-05 0.753344)
(0.753331 -2.16079e-21 -7.13642e-22 0.753337 3.10674e-06 0.753333)
(0.753336 -4.47885e-22 1.47593e-22 0.753325 -8.43773e-07 0.753339)
(0.753329 5.10532e-22 2.0289e-21 0.753334 8.87888e-06 0.753337)
(0.753334 1.33654e-21 8.72401e-22 0.753329 2.93678e-06 0.753336)
(0.753334 2.406e-22 2.09444e-21 0.753326 7.0862e-06 0.75334)
(0.753331 2.09214e-21 9.18644e-22 0.753336 4.89751e-06 0.753333)
(0.753336 -2.25298e-23 7.75222e-22 0.753327 3.49176e-07 0.753337)
(0.753332 1.32691e-21 2.00588e-21 0.75333 7.86837e-06 0.753338)
(0.753332 1.20489e-21 2.5563e-22 0.753335 4.56697e-06 0.753333)
(0.753335 -1.17728e-21 1.94711e-22 0.753328 1.02573e-06 0.753336)
(0.753331 8.40892e-22 2.11934e-21 0.753334 6.79273e-06 0.753335)
(0.753334 4.16607e-23 2.60662e-22 0.753331 3.42004e-06 0.753335)
(0.753334 4.68874e-22 2.24439e-21 0.753328 5.63393e-06 0.753338)
(0.753332 6.67709e-22 6.39445e-22 0.753335 4.5944e-06 0.753333)
(0.753335 -1.64897e-21 1.60461e-22 0.753329 1.54349e-06 0.753336)
(0.753331 8.4365e-22 1.98973e-21 0.753335 5.8009e-06 0.753334)
(0.753334 1.05285e-21 5.83627e-22 0.753331 3.44473e-06 0.753335)
(0.753334 2.69552e-22 1.99068e-21 0.753329 4.75149e-06 0.753337)
(0.753332 1.14729e-21 3.1847e-22 0.753336 4.45931e-06 0.753333)
(0.753335 -1.34361e-21 1.67576e-22 0.753329 1.90218e-06 0.753336)
(0.753333 1.04011e-21 2.00289e-21 0.753332 5.08121e-06 0.753336)
(0.753332 9.49371e-22 2.8047e-22 0.753335 4.20351e-06 0.753333)
(0.753335 -1.0146e-21 2.40891e-22 0.75333 2.02438e-06 0.753335)
(0.753331 2.70951e-22 1.8376e-21 0.753334 4.42436e-06 0.753334)
(0.753334 -4.17589e-23 2.51195e-22 0.753332 3.43472e-06 0.753335)
(0.753334 -3.21802e-22 1.82189e-21 0.75333 3.72154e-06 0.753337)
(0.753332 -1.95444e-22 2.25964e-22 0.753335 4.1777e-06 0.753333)
(0.753335 -1.50925e-21 9.182e-23 0.75333 2.12021e-06 0.753335)
(0.753332 9.74756e-22 1.30648e-21 0.753334 3.75022e-06 0.753334)
(0.753334 4.98802e-22 1.71929e-22 0.753332 3.3899e-06 0.753334)
(0.753334 1.64149e-21 1.69633e-21 0.75333 3.07321e-06 0.753336)
(0.753332 1.01176e-21 3.14235e-22 0.753335 4.10264e-06 0.753333)
(0.753335 -1.21897e-21 3.38232e-22 0.75333 2.27313e-06 0.753335)
(0.753333 2.68306e-22 1.47817e-21 0.753332 3.23505e-06 0.753335)
(0.753333 8.90055e-22 2.23838e-22 0.753334 3.92299e-06 0.753333)
(0.753334 -1.46006e-21 3.96878e-22 0.753331 2.31761e-06 0.753335)
(0.753332 -3.56622e-23 1.20187e-21 0.753334 2.69044e-06 0.753334)
(0.753334 5.68128e-22 1.83784e-22 0.753332 3.3594e-06 0.753334)
(0.753334 7.82957e-22 1.44485e-21 0.753331 2.24307e-06 0.753336)
(0.753333 1.77696e-21 2.4259e-22 0.753334 3.92804e-06 0.753333)
(0.753334 3.63272e-22 -2.04292e-23 0.753331 2.38883e-06 0.753335)
(0.753332 1.95439e-21 2.37211e-21 0.753334 2.17456e-06 0.753334)
(0.753334 -1.01377e-21 5.25562e-22 0.753332 3.34658e-06 0.753334)
(0.753334 -1.19513e-21 1.96925e-21 0.753331 1.73801e-06 0.753335)
(0.753332 6.39576e-22 3.37779e-22 0.753334 3.90762e-06 0.753333)
(0.753334 -2.66598e-21 2.46579e-22 0.753331 2.49715e-06 0.753335)
(0.753333 -1.86144e-21 1.05558e-21 0.753333 1.74412e-06 0.753334)
(0.753333 -5.974e-23 1.40547e-22 0.753334 3.73737e-06 0.753333)
(0.753334 -8.71387e-22 1.02894e-22 0.753331 2.46862e-06 0.753335)
(0.753332 8.54964e-22 6.73263e-22 0.753334 1.16839e-06 0.753334)
(0.753334 1.79091e-21 -7.06922e-23 0.753332 3.2918e-06 0.753334)
(0.753333 7.01104e-22 1.38404e-21 0.753332 9.09773e-07 0.753335)
(0.753333 -2.88249e-21 9.57475e-23 0.753334 3.72615e-06 0.753333)
(0.753334 -4.80961e-21 2.28581e-22 0.753331 2.54846e-06 0.753335)
(0.753332 -5.38107e-21 -1.43447e-21 0.753335 6.66233e-07 0.753333)