/*--------------------------------*- C++ -*----------------------------------*\
| =========                 |                                                 |
| \\      /  F ield         | OpenFOAM: The Open Source CFD Toolbox           |
|  \\    /   O peration     | Version:  4.1                                   |
|   \\  /    A nd           | Web:      www.OpenFOAM.org                      |
|    \\/     M anipulation  |                                                 |
\*---------------------------------------------------------------------------*/
FoamFile
{
    version     2.0;
    format      ascii;
    class       volVectorField;
    location    "19";
    object      U;
}
// * * * * * * * * * * * * * * * * * * * * * * * * * * * * * * * * * * * * * //

dimensions      [0 1 -1 0 0 0 0];

internalField   nonuniform List<vector> 
6785
(
(1.31735e-14 -2.27898 16.4555)
(1.12842e-14 -7.91901 12.9219)
(-2.96997e-15 -5.13291 13.7078)
(4.55529e-15 -5.09342 13.1988)
(8.78974e-16 -4.31619 13.044)
(-9.94005e-17 -3.91387 12.7438)
(2.82658e-15 -3.51699 12.4531)
(6.86678e-16 -3.2427 12.1259)
(-6.44968e-16 -3.04258 11.7707)
(1.76172e-15 -2.92913 11.3701)
(2.75857e-16 -2.86615 10.9571)
(-4.64656e-16 -2.86275 10.5711)
(8.9884e-16 -3.27697 9.97893)
(2.22323e-17 -3.37099 9.08329)
(-4.26699e-16 -0.0312546 7.41034)
(2.01971e-14 -10.0949 26.5631)
(1.33917e-14 -16.1737 22.8721)
(-2.86357e-15 -11.0545 23.2318)
(4.74713e-15 -11.8893 21.3479)
(7.24662e-16 -10.1593 20.4744)
(9.50565e-16 -9.55404 19.2077)
(2.24483e-15 -8.58069 18.1176)
(2.39403e-16 -7.84338 17.0225)
(9.09827e-17 -7.15569 16.0598)
(8.29042e-16 -6.65523 15.1873)
(-2.56708e-16 -6.27453 14.2417)
(-1.30135e-16 -5.82549 12.9534)
(5.01977e-16 -5.10697 10.8741)
(-2.62334e-16 -3.66514 6.90377)
(-3.68383e-16 -0.571359 0.569689)
(2.04971e-14 -12.6954 27.7213)
(1.10885e-14 -16.5112 24.8202)
(-1.73499e-15 -11.8374 24.6768)
(3.24507e-15 -12.7514 22.2297)
(6.49199e-16 -10.621 21.2317)
(1.1697e-15 -10.1108 19.5651)
(4.90369e-16 -8.94894 18.3073)
(5.1698e-17 -8.09613 16.8716)
(2.52028e-16 -6.92054 15.1086)
(-3.18891e-16 -5.40079 12.4557)
(-6.47869e-17 -3.71722 9.12017)
(-6.65942e-16 -2.72504 6.40402)
(-2.83047e-15 -2.68688 5.13378)
(-7.22731e-16 -2.37 3.48163)
(-1.36804e-15 -2.15154 2.67389)
(2.06412e-14 -13.9809 28.494)
(9.22086e-15 -16.8346 25.7379)
(-1.00041e-15 -12.7857 25.4811)
(3.13178e-15 -13.8515 22.8736)
(1.98859e-16 -11.5159 21.9884)
(1.25723e-15 -11.3462 20.1675)
(3.42833e-16 -10.0633 19.0427)
(-1.88846e-16 -9.39508 17.5824)
(8.87746e-17 -8.06867 15.7079)
(1.94915e-16 -5.98667 12.1992)
(9.79229e-16 -2.74857 6.86558)
(3.09844e-15 0.152662 1.78982)
(6.26966e-15 1.6191 -0.812761)
(4.7799e-15 1.84176 -1.44752)
(1.61755e-15 0.356488 0.271061)
(2.00628e-14 -14.3925 28.4463)
(1.0779e-14 -17.7351 27.2423)
(-6.43798e-16 -13.5907 26.2309)
(3.60743e-15 -14.7668 23.5411)
(1.3343e-15 -12.3859 22.6862)
(1.60917e-15 -12.4754 20.7133)
(1.09364e-15 -11.1886 19.5798)
(1.14949e-15 -10.7347 18.0817)
(5.65275e-16 -9.73733 16.5174)
(6.63915e-16 -8.34493 13.9608)
(2.58293e-15 -5.86499 9.97568)
(3.12126e-15 -2.68668 5.04529)
(8.66499e-15 0.493188 0.361432)
(1.169e-14 2.97344 -3.12199)
(7.20101e-15 2.20674 -5.10429)
(1.89999e-14 -13.7827 26.3171)
(1.31657e-14 -18.03 28.0058)
(-5.37199e-17 -13.9691 25.8964)
(3.18273e-15 -14.6203 23.0116)
(2.18514e-15 -12.576 21.9461)
(1.42641e-15 -12.4681 19.9073)
(1.44977e-15 -11.3155 18.5434)
(1.62798e-15 -10.7602 16.9145)
(8.38612e-16 -9.96011 15.366)
(5.76386e-16 -9.05056 13.5098)
(1.41787e-15 -7.74601 11.1171)
(1.56379e-15 -5.82152 8.13742)
(2.34366e-15 -3.60617 4.63237)
(1.27503e-15 -0.465571 0.910108)
(5.99857e-15 1.51015 -4.67336)
(1.89464e-14 -12.7246 23.6173)
(1.525e-14 -17.6323 27.959)
(1.65325e-15 -13.9699 25.2555)
(2.55156e-15 -13.9216 22.1298)
(2.83006e-15 -12.1388 20.8648)
(2.33395e-15 -11.7773 18.853)
(1.76443e-15 -10.6589 17.3546)
(2.0619e-15 -9.93317 15.6565)
(2.38369e-15 -9.08811 14.0759)
(1.19091e-15 -8.23611 12.4628)
(1.27925e-15 -7.32168 10.7199)
(2.819e-15 -6.06904 8.74588)
(2.38598e-15 -4.61568 6.2318)
(-1.36779e-15 -2.14265 3.02882)
(6.70275e-15 0.170281 -2.36643)
(1.7849e-14 -11.8294 21.6373)
(1.6516e-14 -17.0074 27.5698)
(3.20651e-15 -13.9173 24.8077)
(2.01842e-15 -13.3361 21.5497)
(2.75719e-15 -11.75 20.1021)
(2.85882e-15 -11.2393 18.1997)
(2.21838e-15 -10.2039 16.6974)
(2.18813e-15 -9.4393 15.0909)
(2.68666e-15 -8.61646 13.6038)
(2.12168e-15 -7.8114 12.1605)
(1.58374e-15 -7.03462 10.709)
(2.20462e-15 -6.0997 9.22086)
(2.37822e-15 -5.0841 7.42756)
(-1.34445e-16 -3.32252 5.1093)
(-1.41864e-15 -0.81593 0.122211)
(1.82002e-14 -11.326 20.6762)
(1.74424e-14 -16.3338 26.8646)
(3.28046e-15 -13.6886 24.2557)
(2.01315e-15 -12.8782 20.926)
(2.91148e-15 -11.3921 19.3731)
(1.90742e-15 -10.8937 17.5882)
(2.67079e-15 -10.0074 16.203)
(2.71714e-15 -9.36302 14.7357)
(9.65318e-16 -8.66202 13.3348)
(1.61674e-15 -7.98054 11.968)
(2.18564e-15 -7.34384 10.6937)
(2.38925e-17 -6.70044 9.63794)
(1.38079e-15 -6.08577 8.68949)
(9.81584e-16 -4.96251 7.52009)
(-3.85636e-15 -2.54371 3.39529)
(1.74909e-14 -11.2753 20.573)
(1.63209e-14 -15.3678 25.7323)
(2.22211e-15 -12.9957 23.1806)
(3.02912e-16 -12.1294 19.952)
(2.77478e-15 -10.5401 18.3995)
(6.61444e-16 -9.9957 16.443)
(4.205e-17 -8.96048 14.9165)
(2.00363e-15 -8.38796 13.2432)
(-1.07691e-15 -7.78172 11.828)
(-2.5909e-15 -7.4339 10.6819)
(7.28533e-17 -7.30634 10.1441)
(-2.27661e-15 -7.46122 10.3359)
(-3.68308e-15 -7.55341 10.9346)
(-4.06162e-17 -7.13208 10.9282)
(-4.38461e-15 -4.76752 7.66852)
(1.62916e-14 -12.3447 22.3329)
(1.2308e-14 -14.6048 24.978)
(-2.63608e-15 -12.3285 22.5729)
(8.34899e-16 -11.5801 20.2847)
(1.28332e-15 -9.86329 18.5076)
(-2.81279e-15 -8.52448 15.7998)
(6.05218e-16 -6.74604 13.1923)
(1.41575e-15 -5.51069 10.7113)
(-1.88855e-15 -4.54266 8.94727)
(1.49064e-15 -4.40355 8.28439)
(6.36656e-16 -5.23381 9.30268)
(-5.94006e-15 -6.86029 11.5783)
(-3.65793e-15 -8.31514 13.9665)
(-5.97994e-15 -9.02118 14.7557)
(-7.66227e-15 -6.39279 11.5114)
(1.62695e-14 -13.2035 23.429)
(1.24657e-14 -16.7213 27.7624)
(-4.43444e-15 -13.4115 24.199)
(4.50091e-16 -12.4916 22.1477)
(1.93015e-16 -10.8121 20.6378)
(-2.33753e-15 -9.08056 17.774)
(1.27997e-15 -6.75142 14.7322)
(2.97311e-15 -4.82078 11.8356)
(3.75626e-15 -2.96257 9.28873)
(6.04346e-15 -1.48264 7.04554)
(4.884e-15 -0.71469 5.774)
(8.71405e-16 -1.42118 6.46196)
(-1.25462e-15 -3.7718 9.33596)
(-4.48738e-15 -6.3685 12.126)
(-5.32108e-15 -5.14948 10.1075)
(1.24992e-14 -10.8094 18.5844)
(1.56906e-14 -18.5481 29.156)
(4.37154e-15 -17.6361 28.5745)
(1.70171e-15 -16.0299 25.9329)
(5.19438e-16 -14.3796 23.9887)
(-6.72075e-16 -12.9227 21.5686)
(7.78003e-16 -10.8627 18.7682)
(1.57912e-15 -8.78831 15.7204)
(3.52336e-15 -6.61117 12.7372)
(5.41967e-15 -4.50744 9.71831)
(5.92895e-15 -2.43606 6.79361)
(4.62676e-15 -0.744665 4.21689)
(1.27946e-15 0.186993 2.51533)
(5.22655e-17 -0.395497 2.80468)
(-3.53921e-16 -1.59933 4.04067)
(7.09954e-15 -4.3969 6.84824)
(1.61603e-14 -14.5546 22.1952)
(1.14772e-14 -18.1748 28.383)
(4.92064e-15 -17.2936 27.113)
(9.99282e-16 -15.3435 24.3116)
(-2.85317e-17 -13.9341 21.9656)
(8.04819e-16 -12.6561 19.9413)
(8.0256e-16 -11.3866 17.8439)
(1.84691e-15 -9.99599 15.6528)
(2.88038e-15 -8.46991 13.303)
(3.45314e-15 -6.7656 10.7898)
(3.87249e-15 -4.84411 8.11801)
(2.82199e-15 -2.74039 5.08048)
(2.42154e-15 -0.147938 1.69551)
(2.30481e-16 1.4072 -1.83986)
(3.94888e-15 -1.60261 4.15627)
(1.78477e-14 -12.8441 20.758)
(1.8393e-14 -18.9435 29.4383)
(1.26161e-14 -20.5274 30.0788)
(6.20232e-15 -19.6052 27.0422)
(2.39548e-15 -17.8766 23.3017)
(7.61501e-16 -16.1335 20.0522)
(-6.05386e-17 -14.6076 17.4025)
(-3.24842e-17 -13.1143 15.069)
(3.76454e-16 -11.6196 13.1019)
(5.8205e-16 -10.1608 11.2847)
(6.79968e-16 -8.5523 9.4473)
(5.77474e-16 -6.79123 7.51959)
(2.40915e-16 -4.60942 5.22371)
(-6.24847e-16 -1.11923 0.772001)
(-2.6095e-17 12.2217 48.9347)
(-1.01108e-15 -0.00794503 6.25134)
(-8.66296e-16 -0.466284 -2.34712)
(-7.68838e-16 -0.329198 -1.58919)
(-7.02007e-16 -0.187714 -1.98695)
(-8.71866e-16 0.47674 -2.8384)
(-7.25146e-16 0.225464 -1.79812)
(-7.49309e-16 0.457365 -1.65102)
(-1.0002e-15 0.515598 -1.44311)
(-4.12136e-18 1.04336 -2.07915)
(5.1928e-16 0.874441 -1.34248)
(5.75308e-16 0.996204 -1.20738)
(4.59105e-16 1.54216 -1.56865)
(2.52009e-16 1.22521 -1.01136)
(2.2761e-16 1.43723 -0.992679)
(2.53041e-16 1.40651 -0.989466)
(1.80984e-16 1.87734 -1.22643)
(2.85264e-16 1.56695 -0.828813)
(2.2529e-16 1.68436 -0.831492)
(1.01209e-16 2.17418 -0.96756)
(-7.01072e-17 1.70109 -0.681849)
(-2.34394e-16 1.92805 -0.702276)
(-2.17136e-16 1.8543 -0.736441)
(-4.40868e-16 2.33256 -0.810774)
(-4.55489e-16 1.83009 -0.595677)
(-4.99767e-16 2.04895 -0.608248)
(-7.05275e-16 1.97864 -0.636568)
(-1.05663e-15 2.37019 -0.655833)
(-1.1067e-15 1.90838 -0.496851)
(-1.17263e-15 2.01824 -0.514969)
(-1.69816e-15 2.40301 -0.470164)
(-1.60207e-15 1.82838 -0.392981)
(-1.6783e-15 2.02721 -0.404687)
(-1.84328e-15 1.95798 -0.4326)
(-2.67623e-15 2.26117 -0.362362)
(-2.20112e-15 1.77558 -0.32893)
(-2.13743e-15 1.8755 -0.356699)
(-3.04593e-15 2.16508 -0.252062)
(-2.35154e-15 1.61226 -0.268814)
(-2.43204e-15 1.78071 -0.278792)
(-2.2298e-15 1.71593 -0.294865)
(-3.23382e-15 1.98187 -0.18652)
(-2.38062e-15 1.49379 -0.193527)
(-2.36469e-15 1.64564 -0.180686)
(-2.25061e-15 1.57569 -0.164085)
(-2.96444e-15 1.83814 -0.0891247)
(-2.35917e-15 1.53732 0.0053569)
(-2.10744e-15 1.57863 0.0397101)
(-2.70774e-15 1.82644 0.223197)
(-1.60669e-15 1.45466 0.221457)
(-1.33466e-15 1.55386 0.270754)
(-9.9114e-16 1.46657 0.312182)
(-9.34864e-16 1.58375 0.563652)
(-2.65238e-16 1.21033 0.376179)
(-3.63358e-17 1.26232 0.406275)
(4.28816e-16 1.19962 0.477699)
(1.05506e-15 1.14159 0.450817)
(1.45657e-15 0.773794 -0.0555256)
(1.2399e-15 0.77096 0.0920433)
(2.31014e-15 0.814164 -1.13319)
(2.31138e-15 0.134575 -1.79004)
(2.33049e-15 0.244612 -1.93236)
(2.79552e-15 0.442809 -2.04343)
(-1.29271e-16 0.797899 -2.36763)
(-4.13926e-15 -0.647491 0.983583)
(-3.557e-15 -0.214361 0.659179)
(-4.15877e-15 -0.894096 2.82186)
(-2.51595e-15 -1.68856 3.79537)
(-2.07833e-15 -1.88259 3.68437)
(-1.78664e-15 -1.89231 3.85488)
(-1.69517e-15 -3.19678 6.75513)
(-9.76098e-16 -3.6788 6.11662)
(-1.01061e-15 -4.21307 6.32016)
(-1.04103e-15 -4.16994 6.56838)
(-1.26169e-15 -6.26962 10.3544)
(-8.86044e-16 -6.51238 8.4501)
(-1.0818e-15 -6.6432 9.03906)
(-1.33095e-15 -9.17686 13.3466)
(-1.04262e-15 -9.0018 10.4898)
(-1.1655e-15 -9.49149 11.3297)
(-1.33257e-15 -10.2042 12.9999)
(-1.05812e-15 -10.1561 12.7687)
(-8.70364e-16 -10.2578 12.9525)
(1.82409e-16 -12.0398 15.6745)
(-3.0271e-18 -11.0108 13.744)
(3.56589e-16 -11.3192 14.2412)
(4.66015e-16 -11.2985 14.2702)
(5.84361e-16 -11.4175 14.2782)
(6.62282e-16 -11.4909 14.3265)
(7.3501e-16 -11.589 14.4122)
(8.22729e-16 -11.6804 14.6345)
(9.19005e-16 -11.7643 14.9633)
(1.53589e-15 -12.5677 16.7389)
(1.27979e-15 -12.1617 15.6473)
(1.48117e-15 -12.3476 15.9099)
(1.60498e-15 -12.3105 16.022)
(1.7231e-15 -12.4856 16.3801)
(1.77114e-15 -12.4696 16.4015)
(1.84592e-15 -12.5774 16.5057)
(1.91238e-15 -12.6275 16.5795)
(2.00942e-15 -12.7095 16.6935)
(2.78781e-15 -13.2086 18.0941)
(2.43176e-15 -12.825 17.1996)
(2.56778e-15 -12.9555 17.4231)
(2.66753e-15 -12.9721 17.5353)
(2.79763e-15 -13.0462 17.6894)
(2.92208e-15 -13.0816 17.9104)
(3.03667e-15 -13.1744 18.1772)
(3.15263e-15 -13.1892 18.2952)
(3.2825e-15 -13.2499 18.5099)
(3.41969e-15 -13.3768 18.7311)
(4.14707e-15 -13.188 19.5091)
(3.38139e-15 -13.0523 19.0062)
(3.42705e-15 -13.1343 19.2343)
(3.39558e-15 -13.1434 19.2856)
(3.4062e-15 -13.2108 19.319)
(3.40522e-15 -13.2247 19.315)
(3.39727e-15 -13.2863 19.4672)
(3.39799e-15 -13.2559 19.4202)
(3.41655e-15 -13.3933 19.2972)
(4.02772e-15 -12.3084 18.1279)
(3.39218e-15 -12.5075 18.1948)
(3.62339e-15 -12.497 18.2951)
(3.85275e-15 -12.5097 18.5336)
(4.04773e-15 -12.4564 18.5364)
(4.26473e-15 -12.4702 18.6748)
(4.47912e-15 -12.4552 18.8334)
(4.71496e-15 -12.3778 19.0773)
(5.10821e-15 -12.6281 19.6021)
(5.4165e-15 -10.2241 16.8345)
(5.33604e-15 -11.0642 18.1567)
(5.42009e-15 -10.9334 17.9373)
(5.42352e-15 -10.9066 17.7622)
(5.71252e-15 -10.8579 17.7325)
(5.60572e-15 -10.7744 17.2409)
(5.38146e-15 -10.6345 16.5636)
(5.20071e-15 -10.4764 15.8769)
(5.04761e-15 -10.5163 15.1381)
(4.47204e-15 -7.32874 10.2823)
(5.65428e-15 -8.62885 13.5299)
(5.48747e-15 -8.24471 12.7602)
(5.57384e-15 -8.2187 12.6889)
(5.68698e-15 -7.96252 12.5274)
(5.99131e-15 -7.89194 12.4786)
(6.94011e-15 -7.62826 12.3063)
(6.57628e-15 -7.50891 12.0748)
(6.59519e-15 -7.29031 11.743)
(6.31307e-15 -7.19289 11.1125)
(2.98557e-15 -3.60258 5.01296)
(5.36884e-15 -5.47126 8.5086)
(4.63812e-15 -4.94875 6.81289)
(4.21094e-15 -5.13438 6.15234)
(3.57464e-15 -4.7945 4.92319)
(2.79367e-15 -4.74008 3.5473)
(1.37626e-15 -4.53751 1.31918)
(1.17707e-16 -4.18963 -0.642542)
(4.23544e-16 -4.20683 -0.43812)
(-7.20189e-16 -4.14163 -1.95305)
(1.36052e-16 -3.90484 -0.905698)
(-2.66223e-17 -3.87737 -1.28513)
(-9.37204e-16 -3.10432 -1.76565)
(-7.07236e-16 -4.1314 -1.93891)
(-8.20698e-16 -3.43661 -1.59586)
(-6.58573e-16 -2.98644 -1.1465)
(-8.87882e-16 -3.76571 -1.58732)
(-6.61621e-16 -2.55094 -1.00965)
(-9.19544e-16 -3.22297 -1.4802)
(-7.53005e-16 -2.92331 -1.13644)
(-6.46763e-16 -2.36444 -0.856765)
(-9.27626e-16 -2.79427 -1.23734)
(-8.2968e-16 -2.57844 -0.96803)
(-7.00327e-16 -2.14462 -0.729819)
(-9.40338e-16 -2.81924 -1.00675)
(-7.07501e-16 -1.87255 -0.661106)
(-1.00204e-15 -2.42486 -0.971529)
(-7.62353e-16 -2.12101 -0.773489)
(-6.5796e-16 -1.80141 -0.59017)
(-8.73377e-16 -2.37898 -0.81817)
(-6.12136e-16 -1.55907 -0.543485)
(-9.0885e-16 -2.04984 -0.797923)
(-7.76505e-16 -1.85222 -0.651499)
(-6.4428e-16 -1.47971 -0.498674)
(-9.13379e-16 -1.79411 -0.73094)
(-7.72395e-16 -1.64444 -0.595302)
(-5.89734e-16 -1.35344 -0.452302)
(-8.08052e-16 -1.83327 -0.634576)
(-5.82543e-16 -1.17108 -0.423455)
(-7.65703e-16 -1.57226 -0.6309)
(-4.76291e-16 -1.34747 -0.514377)
(-4.33208e-16 -1.13093 -0.39211)
(-6.04565e-16 -1.54217 -0.553268)
(-5.19102e-16 -0.958509 -0.370245)
(-8.20579e-16 -1.31796 -0.552943)
(-6.50717e-16 -1.16067 -0.458094)
(-4.54498e-16 -0.901046 -0.349893)
(-6.86026e-16 -1.13211 -0.520499)
(-5.81565e-16 -1.00789 -0.426889)
(-3.51621e-16 -0.80507 -0.321112)
(-5.76872e-16 -1.14982 -0.453428)
(-4.49453e-16 -0.665759 -0.303458)
(-6.79906e-16 -0.968562 -0.457354)
(-7.80743e-16 -0.778924 -0.377042)
(-8.24538e-16 -0.629586 -0.284927)
(-1.03794e-15 -0.929102 -0.404633)
(-5.93183e-16 -0.491116 -0.273013)
(-8.80661e-16 -0.774318 -0.412546)
(-6.43941e-16 -0.623278 -0.346941)
(-3.05417e-16 -0.435806 -0.263353)
(-3.98983e-16 -0.626691 -0.392009)
(-2.60353e-16 -0.495502 -0.318531)
(-2.14154e-16 -0.350934 -0.230812)
(-3.72866e-16 -0.62916 -0.320303)
(-5.22553e-16 -0.227119 -0.209691)
(-4.65131e-16 -0.51486 -0.315605)
(1.58688e-16 -0.303031 -0.254706)
(5.47966e-16 -0.198522 -0.17951)
(8.66815e-16 -0.490015 -0.247131)
(9.98796e-16 -0.056982 -0.154436)
(1.36749e-15 -0.415357 -0.234541)
(1.34858e-15 -0.207248 -0.187364)
(1.18696e-15 0.0191686 -0.123231)
(2.24586e-15 -0.358946 -0.221183)
(3.37832e-15 -0.158642 -0.226036)
(9.10466e-16 0.245363 -0.176883)
(1.36609e-15 -1.32758 -0.145714)
(6.37936e-16 0.684256 0.214004)
(3.15549e-16 -0.223988 -0.110283)
(-1.28057e-15 -0.542301 -0.257978)
(-1.15844e-15 0.378953 -0.212484)
(-1.43169e-15 -0.263412 -0.271474)
(-9.01386e-16 0.242982 -0.176536)
(-1.23606e-15 0.156901 -0.167307)
(-6.60636e-16 0.0701499 -0.215474)
(-2.63508e-16 0.298068 -0.134283)
(-9.74069e-17 0.279753 -0.161253)
(5.36069e-17 0.11829 -0.327433)
(4.36815e-17 0.443504 -0.231084)
(1.48314e-16 0.219346 -0.422215)
(1.33449e-16 0.47636 -0.32318)
(1.455e-16 0.465145 -0.448026)
(1.7667e-31 0.716602 0.879918)
(1.09966e-30 0.814785 0.880405)
(2.71061e-30 0.867584 0.886993)
(3.05319e-30 0.922361 0.893566)
(-7.36895e-30 0.972125 0.903027)
(-5.44879e-29 1.01865 0.913651)
(-1.95539e-28 1.06219 0.926104)
(-5.51217e-28 1.10336 0.939977)
(-1.23674e-27 1.14235 0.955371)
(-8.41267e-28 1.17968 0.972201)
(1.26984e-26 1.21553 0.990458)
(9.07857e-26 1.25026 1.01012)
(3.44447e-25 1.28405 1.03116)
(6.60186e-25 1.3171 1.05356)
(-9.38785e-25 1.34954 1.0773)
(-1.26595e-23 1.38157 1.10241)
(-5.07186e-23 1.41353 1.12898)
(-1.01502e-22 1.44601 1.15716)
(6.04534e-23 1.47977 1.18719)
(1.29073e-21 1.51559 1.2193)
(5.20117e-21 1.554 1.25369)
(1.11735e-20 1.59536 1.29051)
(3.37158e-21 1.63976 1.32981)
(-7.85557e-20 1.68702 1.37149)
(-3.64209e-19 1.73668 1.41527)
(-9.60735e-19 1.78789 1.46074)
(-1.46239e-18 1.83934 1.50782)
(3.7747e-19 1.88901 1.55786)
(1.11157e-17 1.93385 1.61568)
(4.47513e-17 1.9696 1.6917)
(1.2463e-16 1.99109 1.80266)
(2.81153e-16 1.99331 1.96876)
(5.43325e-16 1.97326 2.20666)
(9.25997e-16 1.93194 2.52049)
(1.41903e-15 1.87547 2.89555)
(1.98522e-15 1.8141 3.29888)
(2.56871e-15 1.75914 3.68812)
(3.10894e-15 1.71917 4.02463)
(3.5528e-15 1.69765 4.28347)
(3.86107e-15 1.69286 4.45575)
(4.0101e-15 1.69958 4.54453)
(3.99149e-15 1.71059 4.55834)
(3.81201e-15 1.71709 4.50576)
(3.49248e-15 1.70925 4.39259)
(3.05737e-15 1.68197 4.22655)
(2.50958e-15 1.64213 4.02869)
(1.86562e-15 1.55347 3.79943)
(1.45641e-15 1.12949 3.34131)
(2.11904e-15 -0.0814463 2.28963)
(2.94246e-15 -1.24284 1.77784)
(3.29695e-15 -1.82829 1.59606)
(3.48159e-15 -2.26484 1.40562)
(3.48166e-15 -2.69711 1.21231)
(3.29971e-15 -3.12876 1.02518)
(2.95974e-15 -3.5595 0.830747)
(2.50902e-15 -3.9766 0.633117)
(2.00508e-15 -4.37459 0.438706)
(1.47306e-15 -4.73585 0.243497)
(9.46353e-16 -5.00379 0.0564194)
(4.77607e-16 -5.14256 -0.100806)
(1.55772e-16 -5.1648 -0.213916)
(2.45644e-17 -5.14206 -0.276801)
(-1.79684e-18 -5.10732 -0.313073)
(-1.45759e-18 -5.05283 -0.325764)
(-1.82469e-19 -4.96087 -0.33324)
(1.51773e-20 -4.81271 -0.331962)
(5.96071e-21 -4.59675 -0.334716)
(3.58958e-22 -4.32578 -0.332056)
(-7.48717e-23 -3.96852 -0.339245)
(-2.55106e-23 -3.57309 -0.33333)
(-3.38618e-23 -3.01819 -0.343955)
(4.38287e-23 -2.53182 -0.320238)
(-2.11741e-22 -1.68067 -0.335125)
(1.15819e-21 -1.41633 -0.291901)
(-1.60424e-20 0.82011 -0.258707)
(1.33607e-19 0.388332 -0.198892)
(-7.87408e-19 1.00278 -0.541661)
(2.26447e-18 1.87529 -0.00107668)
(2.79479e-19 -4.04856 -0.346097)
(1.02184e-30 0.716729 0.927212)
(3.54621e-30 0.8138 0.925541)
(4.55121e-30 0.865574 0.931953)
(-7.26182e-30 0.919876 0.938066)
(-6.3125e-29 0.968972 0.947524)
(-2.1729e-28 1.015 0.958238)
(-5.30191e-28 1.05801 0.970965)
(-9.73141e-28 1.09871 0.985253)
(-4.86468e-28 1.13722 1.00119)
(9.34086e-27 1.17408 1.01871)
(6.87e-26 1.20947 1.03776)
(2.88082e-25 1.24375 1.05835)
(6.97063e-25 1.2771 1.0804)
(-3.80221e-26 1.30971 1.10392)
(-8.96823e-24 1.34171 1.12886)
(-4.44018e-23 1.37329 1.15529)
(-1.13542e-22 1.40474 1.18336)
(-5.61936e-23 1.43665 1.2133)
(9.13071e-22 1.46978 1.24541)
(4.69899e-21 1.50488 1.27991)
(1.23855e-20 1.54253 1.31698)
(1.23074e-20 1.58309 1.35671)
(-5.2645e-20 1.62672 1.39903)
(-3.27877e-19 1.67328 1.4437)
(-9.95536e-19 1.72234 1.49029)
(-1.81778e-18 1.77301 1.53862)
(-7.23632e-19 1.82362 1.58992)
(9.05694e-18 1.87123 1.64925)
(4.2938e-17 1.91116 1.72828)
(1.27779e-16 1.93716 1.84659)
(2.99591e-16 1.94264 2.02837)
(5.93073e-16 1.92301 2.29353)
(1.02494e-15 1.87848 2.64618)
(1.57947e-15 1.81561 3.06702)
(2.20628e-15 1.74662 3.51499)
(2.83311e-15 1.68575 3.93908)
(3.38645e-15 1.64441 4.29506)
(3.8082e-15 1.62758 4.55772)
(4.06222e-15 1.63355 4.72251)
(4.13307e-15 1.65623 4.79859)
(4.0224e-15 1.68795 4.79992)
(3.74633e-15 1.72095 4.73933)
(3.33404e-15 1.74709 4.62581)
(2.82593e-15 1.75685 4.46358)
(2.26394e-15 1.74279 4.25584)
(1.66028e-15 1.71206 4.01957)
(9.93645e-16 1.66082 3.77809)
(5.18147e-16 1.35531 3.39137)
(1.35325e-15 0.179465 2.36515)
(3.02166e-15 -1.23615 1.60565)
(3.33667e-15 -1.82352 1.56671)
(3.48473e-15 -2.25048 1.38917)
(3.47692e-15 -2.68295 1.19354)
(3.29057e-15 -3.11321 1.011)
(2.95002e-15 -3.54207 0.820004)
(2.50117e-15 -3.95778 0.626747)
(1.99972e-15 -4.35383 0.436888)
(1.47019e-15 -4.71264 0.246118)
(9.45651e-16 -4.98119 0.0626502)
(4.78252e-16 -5.12466 -0.0920511)
(1.56652e-16 -5.1537 -0.203899)
(2.48677e-17 -5.13575 -0.266886)
(-1.82873e-18 -5.10274 -0.303837)
(-1.502e-18 -5.04778 -0.317752)
(-1.90648e-19 -4.95421 -0.326719)
(1.59869e-20 -4.8039 -0.327036)
(6.39496e-21 -4.58593 -0.331463)
(3.86724e-22 -4.31288 -0.330467)
(-8.32283e-23 -3.95474 -0.339362)
(-2.70516e-23 -3.55839 -0.335378)
(-3.38468e-23 -3.00513 -0.347576)
(4.36293e-23 -2.51807 -0.326835)
(-2.12936e-22 -1.66934 -0.340981)
(1.21384e-21 -1.40793 -0.308324)
(-1.71111e-20 0.798211 -0.258872)
(1.55582e-19 0.490403 -0.168586)
(-7.23818e-19 0.968935 -0.534146)
(2.00999e-18 1.84227 0.0410634)
(-2.4841e-19 -3.97448 -0.337882)
(2.75571e-30 0.716999 0.952827)
(5.90791e-30 0.813548 0.950309)
(-1.62283e-30 0.864702 0.956605)
(-4.9111e-29 0.918769 0.962532)
(-1.90296e-28 0.967505 0.972019)
(-4.61113e-28 1.01329 0.982832)
(-7.40597e-28 1.05602 0.995752)
(-2.22206e-28 1.09647 1.01032)
(5.74664e-27 1.13473 1.02661)
(4.03693e-26 1.17136 1.04455)
(1.81675e-25 1.20651 1.0641)
(5.31482e-25 1.24057 1.08524)
(5.23609e-25 1.27369 1.10791)
(-4.15698e-24 1.30609 1.13208)
(-2.80237e-23 1.33786 1.15773)
(-9.07434e-23 1.36919 1.18494)
(-1.25027e-22 1.40037 1.2139)
(3.78668e-22 1.43194 1.24489)
(3.01927e-21 1.4647 1.27824)
(9.99242e-21 1.4994 1.31417)
(1.65385e-20 1.53664 1.3528)
(-1.56352e-20 1.57681 1.39419)
(-2.07322e-19 1.62009 1.43817)
(-7.68191e-19 1.66636 1.48441)
(-1.70827e-18 1.71516 1.53259)
(-1.71802e-18 1.76534 1.58343)
(4.42749e-18 1.81452 1.64079)
(2.99392e-17 1.85855 1.71486)
(9.97183e-17 1.89132 1.82419)
(2.49593e-16 1.90579 1.99352)
(5.16985e-16 1.8964 2.24516)
(9.23774e-16 1.86184 2.5867)
(1.45973e-15 1.80699 3.00225)
(2.07786e-15 1.74238 3.45345)
(2.70609e-15 1.68141 3.89063)
(3.26869e-15 1.63605 4.26849)
(3.70466e-15 1.61321 4.55866)
(3.97572e-15 1.61362 4.75297)
(4.06544e-15 1.63329 4.85807)
(3.97516e-15 1.66595 4.88687)
(3.72075e-15 1.70488 4.85228)
(3.33027e-15 1.74347 4.76444)
(2.84155e-15 1.77454 4.63012)
(2.29885e-15 1.78928 4.45241)
(1.74414e-15 1.77963 4.23259)
(1.18851e-15 1.74937 3.98281)
(5.82995e-16 1.70068 3.73267)
(5.0926e-17 1.4434 3.40047)
(6.73977e-16 0.357612 2.48709)
(2.91081e-15 -1.10258 1.44078)
(3.40906e-15 -1.7825 1.46448)
(3.49362e-15 -2.19455 1.36803)
(3.46879e-15 -2.62519 1.16889)
(3.27864e-15 -3.05702 0.989868)
(2.93754e-15 -3.48531 0.804397)
(2.49119e-15 -3.9019 0.616792)
(1.9929e-15 -4.29945 0.433273)
(1.46651e-15 -4.66058 0.248804)
(9.44688e-16 -4.93495 0.070574)
(4.7897e-16 -5.08827 -0.0804647)
(1.57687e-16 -5.12944 -0.190123)
(2.52307e-17 -5.12187 -0.252677)
(-1.86485e-18 -5.09634 -0.290182)
(-1.55499e-18 -5.04635 -0.305484)
(-2.0064e-19 -4.9559 -0.31642)
(1.69456e-20 -4.80743 -0.318974)
(6.93494e-21 -4.59067 -0.325815)
(4.23038e-22 -4.31795 -0.327254)
(-9.3926e-23 -3.96071 -0.338656)
(-2.91026e-23 -3.56436 -0.337346)
(-3.38293e-23 -3.01321 -0.351903)
(4.34007e-23 -2.52594 -0.334791)
(-2.14716e-22 -1.67954 -0.347805)
(1.2823e-21 -1.42343 -0.325729)
(-1.76272e-20 0.779252 -0.274287)
(1.65943e-19 0.454294 -0.145586)
(-6.958e-19 0.949228 -0.510443)
(1.86407e-18 1.82839 0.0228266)
(-3.96828e-19 -3.93084 -0.327563)
(5.5535e-30 0.717388 0.983392)
(4.03652e-30 0.813088 0.980106)
(-3.24717e-29 0.863346 0.986311)
(-1.59674e-28 0.917032 0.992095)
(-4.24063e-28 0.965217 1.00165)
(-6.84308e-28 1.01061 1.01262)
(-1.57584e-28 1.05292 1.0258)
(4.21207e-27 1.09298 1.04072)
(2.56058e-26 1.13086 1.05745)
(1.13411e-25 1.16712 1.07592)
(3.71533e-25 1.20191 1.09608)
(6.38005e-25 1.23561 1.1179)
(-1.48109e-24 1.2684 1.14132)
(-1.63176e-23 1.30045 1.1663)
(-6.59743e-23 1.33189 1.19282)
(-1.38136e-22 1.36284 1.22097)
(6.25791e-23 1.39359 1.25099)
(1.74662e-21 1.42466 1.28324)
(7.40882e-21 1.45686 1.31806)
(1.67625e-20 1.49097 1.35567)
(6.96665e-21 1.52759 1.39617)
(-1.15122e-19 1.56716 1.43952)
(-5.57525e-19 1.60989 1.48547)
(-1.49511e-18 1.65568 1.53364)
(-2.23428e-18 1.70389 1.58433)
(1.06465e-18 1.75277 1.64037)
(1.94934e-17 1.79878 1.71045)
(7.60074e-17 1.83605 1.81212)
(2.06462e-16 1.85708 1.97102)
(4.51836e-16 1.855 2.21279)
(8.40633e-16 1.82682 2.5495)
(1.36936e-15 1.77577 2.96868)
(1.99425e-15 1.71124 3.4331)
(2.64123e-15 1.64634 3.89206)
(3.22851e-15 1.59421 4.29738)
(3.68817e-15 1.56422 4.6165)
(3.97718e-15 1.55986 4.83731)
(4.07747e-15 1.57903 4.96447)
(3.99119e-15 1.61605 5.01117)
(3.73606e-15 1.66407 4.9918)
(3.34219e-15 1.7164 4.91823)
(2.84889e-15 1.76675 4.79901)
(2.30043e-15 1.80848 4.63973)
(1.74087e-15 1.83324 4.44289)
(1.20612e-15 1.83202 4.20899)
(6.99642e-16 1.80604 3.94686)
(1.50502e-16 1.76703 3.68708)
(-4.28413e-16 1.5723 3.3902)
(-7.0051e-17 0.586779 2.59781)
(2.52773e-15 -0.99633 1.3393)
(3.43965e-15 -1.77661 1.2966)
(3.52181e-15 -2.17058 1.32128)
(3.45867e-15 -2.58683 1.14366)
(3.26486e-15 -3.01998 0.962542)
(2.92398e-15 -3.44782 0.783932)
(2.48047e-15 -3.86457 0.603355)
(1.9856e-15 -4.26268 0.427496)
(1.46255e-15 -4.62451 0.251055)
(9.43572e-16 -4.90226 0.0797997)
(4.79609e-16 -5.06235 -0.0662149)
(1.58688e-16 -5.11211 -0.172677)
(2.55888e-17 -5.1117 -0.234156)
(-1.89814e-18 -5.09099 -0.272066)
(-1.6071e-18 -5.04386 -0.288896)
(-2.10751e-19 -4.95494 -0.302229)
(1.78803e-20 -4.80714 -0.30765)
(7.49522e-21 -4.59071 -0.31762)
(4.63147e-22 -4.31777 -0.322234)
(-1.05453e-22 -3.96086 -0.336933)
(-3.14273e-23 -3.56432 -0.338956)
(-3.38141e-23 -3.01465 -0.356815)
(4.31875e-23 -2.52756 -0.343734)
(-2.16809e-22 -1.68199 -0.356803)
(1.3508e-21 -1.43041 -0.342098)
(-1.82315e-20 0.754502 -0.288541)
(1.64065e-19 0.47378 -0.134713)
(-6.77795e-19 0.930773 -0.500037)
(1.79971e-18 1.80657 0.00392998)
(-2.77223e-19 -3.90996 -0.313662)
(7.33988e-30 0.717852 1.01291)
(-1.65762e-29 0.812824 1.00915)
(-1.23449e-28 0.862244 1.01528)
(-3.7841e-28 0.915586 1.02101)
(-6.80522e-28 0.963264 1.03067)
(-2.81182e-28 1.00831 1.04184)
(3.30516e-27 1.05022 1.05531)
(1.81666e-26 1.08994 1.07062)
(7.31104e-26 1.12747 1.08781)
(2.45025e-25 1.1634 1.10684)
(5.418e-25 1.19786 1.12763)
(-2.15585e-25 1.23125 1.15016)
(-8.65774e-24 1.26372 1.17435)
(-4.38673e-23 1.29548 1.20015)
(-1.20496e-22 1.3266 1.22755)
(-9.35919e-23 1.35721 1.25665)
(8.62387e-22 1.38755 1.28774)
(5.01248e-21 1.41814 1.32125)
(1.44868e-20 1.4498 1.35755)
(1.81002e-20 1.48334 1.39685)
(-4.96325e-20 1.5194 1.4392)
(-3.7207e-19 1.55845 1.48445)
(-1.21055e-18 1.60073 1.53226)
(-2.33957e-18 1.64602 1.58261)
(-1.16012e-18 1.69322 1.63742)
(1.12378e-17 1.73949 1.70379)
(5.53702e-17 1.77953 1.79787)
(1.66255e-16 1.80577 1.94569)
(3.87706e-16 1.81047 2.17615)
(7.54844e-16 1.78926 2.50636)
(1.27161e-15 1.74409 2.92754)
(1.89831e-15 1.68346 3.40297)
(2.55952e-15 1.61981 3.88002)
(3.16786e-15 1.56594 4.30789)
(3.64882e-15 1.53181 4.65126)
(3.95468e-15 1.52248 4.8954)
(4.06578e-15 1.53769 5.04321)
(3.9851e-15 1.57324 5.10764)
(3.73221e-15 1.62309 5.10403)
(3.33912e-15 1.68101 5.04547)
(2.84674e-15 1.74123 4.94148)
(2.30045e-15 1.79824 4.7986)
(1.74412e-15 1.84601 4.62115)
(1.21378e-15 1.8767 4.41135)
(7.30738e-16 1.88096 4.1697)
(2.83009e-16 1.85675 3.90274)
(-2.20309e-16 1.81735 3.63891)
(-8.56837e-16 1.66348 3.3713)
(-8.18071e-16 0.805826 2.70972)
(1.88943e-15 -0.861344 1.30187)
(3.33134e-15 -1.77502 1.10539)
(3.56016e-15 -2.16699 1.22502)
(3.45424e-15 -2.55653 1.1125)
(3.2489e-15 -2.98729 0.931307)
(2.90971e-15 -3.41598 0.757459)
(2.46943e-15 -3.83289 0.586012)
(1.97813e-15 -4.23134 0.419158)
(1.45848e-15 -4.59327 0.25246)
(9.42344e-16 -4.87349 0.0900009)
(4.80132e-16 -5.03942 -0.0494275)
(1.59594e-16 -5.09684 -0.151545)
(2.59191e-17 -5.1026 -0.211133)
(-1.92663e-18 -5.08572 -0.249131)
(-1.65493e-18 -5.04049 -0.267597)
(-2.20325e-19 -4.95229 -0.283722)
(1.87314e-20 -4.80449 -0.292678)
(8.04339e-21 -4.58786 -0.30656)
(5.05251e-22 -4.31431 -0.315165)
(-1.17258e-22 -3.95744 -0.334035)
(-3.39545e-23 -3.56058 -0.340139)
(-3.38051e-23 -3.01225 -0.362328)
(4.30031e-23 -2.52557 -0.353719)
(-2.19073e-22 -1.68059 -0.36859)
(1.416e-21 -1.43279 -0.357838)
(-1.89179e-20 0.728631 -0.304088)
(1.6284e-19 0.491008 -0.128429)
(-6.82373e-19 0.917465 -0.488169)
(1.83831e-18 1.78822 -0.0215647)
(1.13634e-18 -3.8932 -0.300709)
(-4.89421e-31 0.718368 1.04281)
(-8.8382e-29 0.812531 1.03879)
(-3.20436e-28 0.861045 1.04488)
(-6.61942e-28 0.913996 1.05063)
(-4.72975e-28 0.961111 1.06043)
(2.47268e-27 1.00576 1.07186)
(1.40413e-26 1.04724 1.08566)
(5.09349e-26 1.08657 1.1014)
(1.60361e-25 1.12372 1.1191)
(3.92735e-25 1.15926 1.13873)
(2.3788e-25 1.19336 1.16019)
(-4.17486e-24 1.22639 1.18348)
(-2.69917e-23 1.25853 1.20849)
(-9.17715e-23 1.28996 1.23517)
(-1.47031e-22 1.32074 1.26349)
(3.12711e-22 1.35096 1.29359)
(3.07813e-21 1.38083 1.32579)
(1.11988e-20 1.41087 1.3606)
(2.13328e-20 1.44192 1.39844)
(-7.82456e-21 1.47484 1.43948)
(-2.22853e-19 1.51028 1.48368)
(-9.09439e-19 1.54877 1.5308)
(-2.16461e-18 1.5905 1.58061)
(-2.43879e-18 1.6349 1.63424)
(5.04126e-18 1.67992 1.69722)
(3.79603e-17 1.72096 1.7839)
(1.29615e-16 1.75069 1.92)
(3.25829e-16 1.76069 2.13757)
(6.68421e-16 1.74527 2.45958)
(1.16992e-15 1.7051 2.88223)
(1.7961e-15 1.64799 3.3694)
(2.47094e-15 1.58598 3.86526)
(3.1015e-15 1.53131 4.31514)
(3.60612e-15 1.49365 4.68115)
(3.93165e-15 1.47883 4.94696)
(4.05607e-15 1.48843 5.11431)
(3.98271e-15 1.52026 5.1957)
(3.7329e-15 1.56964 5.20689)
(3.34061e-15 1.6309 5.162)
(2.84842e-15 1.69843 5.07153)
(2.30317e-15 1.76699 4.94273)
(1.75001e-15 1.8314 4.78054)
(1.22532e-15 1.88593 4.58861)
(7.50081e-16 1.92301 4.36942)
(3.24804e-16 1.93291 4.12443)
(-8.29591e-17 1.91102 3.85972)
(-5.8189e-16 1.87092 3.6005)
(-1.31411e-15 1.75118 3.35992)
(-1.628e-15 1.02642 2.82623)
(1.00126e-15 -0.693313 1.33573)
(3.02715e-15 -1.75745 0.930055)
(3.55933e-15 -2.1744 1.07974)
(3.4635e-15 -2.53165 1.05883)
(3.23219e-15 -2.9515 0.898014)
(2.89472e-15 -3.38167 0.725047)
(2.45816e-15 -3.79957 0.563961)
(1.97068e-15 -4.19861 0.407867)
(1.45441e-15 -4.56093 0.252408)
(9.41056e-16 -4.84376 0.100483)
(4.80537e-16 -5.01561 -0.0307132)
(1.60381e-16 -5.08078 -0.127214)
(2.62094e-17 -5.09285 -0.183971)
(-1.94985e-18 -5.07993 -0.221537)
(-1.6965e-18 -5.03675 -0.241628)
(-2.28912e-19 -4.94943 -0.260839)
(1.94662e-20 -4.80179 -0.27391)
(8.55659e-21 -4.58515 -0.29245)
(5.47851e-22 -4.31115 -0.305818)
(-1.28935e-22 -3.95444 -0.329694)