/*--------------------------------*- C++ -*----------------------------------*\
| =========                 |                                                 |
| \\      /  F ield         | OpenFOAM: The Open Source CFD Toolbox           |
|  \\    /   O peration     | Version:  4.1                                   |
|   \\  /    A nd           | Web:      www.OpenFOAM.org                      |
|    \\/     M anipulation  |                                                 |
\*---------------------------------------------------------------------------*/
FoamFile
{
    version     2.0;
    format      ascii;
    class       volVectorField;
    location    "3";
    object      U;
}
// * * * * * * * * * * * * * * * * * * * * * * * * * * * * * * * * * * * * * //

dimensions      [0 1 -1 0 0 0 0];

internalField   nonuniform List<vector> 
6785
(
(1.20991e-14 -1.4387 16.3034)
(1.03876e-14 -7.2717 12.7184)
(-3.1559e-15 -4.97121 13.2883)
(3.82133e-15 -4.6333 12.9522)
(9.50104e-16 -3.95948 12.7832)
(-1.23194e-16 -3.49311 12.5341)
(2.44111e-15 -3.09064 12.264)
(4.99307e-16 -2.78735 11.959)
(-8.21106e-16 -2.58573 11.6255)
(1.28281e-15 -2.48678 11.2928)
(5.94552e-17 -2.45772 11.0379)
(-1.13823e-16 -2.63595 10.8012)
(4.81433e-16 -3.25269 10.2408)
(-1.24939e-16 -2.98903 9.38445)
(1.67897e-18 0.418798 7.5018)
(1.85752e-14 -8.89721 26.5886)
(1.28157e-14 -16.5403 22.6625)
(-3.36801e-15 -11.3796 23.0876)
(3.57549e-15 -11.9235 21.4707)
(7.8027e-16 -10.5615 20.5524)
(5.2823e-16 -9.82637 19.4388)
(1.73868e-15 -8.95765 18.3788)
(-4.04098e-17 -8.17489 17.3168)
(-5.83511e-16 -7.44021 16.285)
(3.01127e-16 -6.75201 15.268)
(-2.62729e-16 -5.97002 14.1105)
(-5.95204e-16 -4.92027 12.295)
(-3.45197e-16 -3.51696 8.98019)
(2.26904e-16 -1.51636 4.15191)
(1.34492e-16 0.100374 0.276212)
(2.1591e-14 -11.6438 28.4245)
(1.11912e-14 -17.5023 24.9328)
(-2.31514e-15 -11.992 25.2255)
(4.92276e-15 -13.1643 22.8258)
(5.43661e-16 -11.2391 21.7848)
(1.40934e-15 -10.6702 20.1867)
(2.38207e-15 -9.66492 18.8293)
(-2.86171e-16 -8.90194 17.4281)
(5.33732e-16 -8.15651 16.1303)
(1.94018e-15 -7.49315 14.861)
(-5.13754e-16 -6.64529 13.2462)
(8.72944e-16 -4.81897 9.85392)
(3.56401e-15 -0.498085 2.40334)
(3.21282e-16 4.0901 -5.85194)
(-9.60971e-17 1.61706 -4.38575)
(2.09396e-14 -12.2919 27.3526)
(1.22732e-14 -17.6073 25.0328)
(-2.10018e-15 -12.315 24.7787)
(4.84312e-15 -13.9418 21.8985)
(1.41729e-15 -11.8273 20.9017)
(1.24006e-15 -11.5165 19.0454)
(2.69436e-15 -10.578 17.5644)
(1.16131e-15 -9.88283 16.0069)
(2.91366e-16 -9.19341 14.5383)
(1.73717e-15 -8.56593 13.1467)
(1.02124e-15 -7.90623 11.6912)
(-7.75859e-17 -6.83051 9.61608)
(8.49378e-16 -4.66829 5.8891)
(2.16663e-15 -2.08418 2.60563)
(-1.30381e-15 0.505797 -3.1683)
(1.99639e-14 -12.0955 25.8401)
(1.34694e-14 -17.2656 25.0158)
(-1.63177e-15 -12.381 24.1645)
(4.06225e-15 -13.7453 21.1452)
(1.51577e-15 -11.6656 20.1358)
(7.70645e-16 -11.3331 18.1902)
(2.53492e-15 -10.3613 16.6316)
(1.00239e-15 -9.60628 15.0532)
(-6.39315e-16 -8.91753 13.6206)
(8.01056e-17 -8.26173 12.307)
(-2.26785e-16 -7.60975 10.9777)
(-1.26113e-15 -6.78271 9.51344)
(-8.8741e-16 -5.62756 7.53118)
(-7.30747e-17 -3.92917 5.48929)
(-1.78957e-15 -1.44936 0.266281)
(1.989e-14 -11.8784 24.8834)
(1.34063e-14 -16.5581 24.348)
(-1.30566e-15 -11.9033 23.4887)
(3.92513e-15 -13.2564 20.3362)
(1.07367e-15 -10.8355 19.4725)
(1.29553e-15 -10.69 17.3007)
(2.37709e-15 -9.41681 15.8383)
(4.06966e-16 -8.74001 14.2106)
(3.15717e-16 -8.03803 12.8148)
(2.52618e-16 -7.53204 11.5402)
(2.72886e-16 -7.13513 10.4615)
(1.04255e-16 -6.77093 9.65135)
(-7.31573e-16 -6.30529 8.94121)
(7.26262e-17 -5.40506 8.01237)
(7.75014e-16 -3.24217 4.39867)
(2.06253e-14 -12.3417 25.0249)
(1.12681e-14 -15.7471 24.0114)
(-8.929e-17 -11.7783 23.2632)
(3.35332e-15 -12.6896 20.3919)
(8.27031e-16 -10.2832 19.4853)
(2.16107e-15 -10.0123 17.3705)
(1.70392e-15 -8.35663 15.7135)
(3.16161e-15 -7.06662 13.1086)
(4.60491e-15 -5.49958 10.4529)
(2.33014e-15 -4.79204 8.67398)
(1.01608e-15 -5.05112 8.55923)
(8.02913e-16 -6.01162 9.60471)
(-1.35088e-15 -6.81087 10.7892)
(-1.56949e-15 -7.18476 11.1516)
(1.87308e-15 -5.10495 8.77786)
(2.03174e-14 -13.2868 26.3423)
(9.28358e-15 -16.074 25.2278)
(-1.82334e-16 -12.3472 24.3046)
(2.74579e-15 -12.9545 21.9325)
(3.14585e-16 -10.7303 21.0422)
(1.22715e-15 -10.3423 19.1837)
(1.66012e-15 -8.50089 17.4056)
(4.96892e-15 -6.64894 14.1461)
(6.91533e-15 -4.08682 10.4302)
(5.10008e-15 -2.14004 7.28103)
(3.74007e-15 -1.04632 5.51296)
(3.50243e-15 -1.39919 5.58799)
(2.16274e-15 -3.33174 7.78864)
(4.97764e-16 -5.57936 10.3785)
(6.57917e-16 -4.5893 9.27204)
(1.89714e-14 -13.3654 26.0434)
(1.07278e-14 -17.7932 28.0277)
(4.18348e-16 -13.5669 25.9625)
(2.46618e-15 -14.1354 23.566)
(3.06299e-17 -11.996 22.723)
(1.56246e-15 -11.8512 20.933)
(9.65211e-16 -10.2125 19.451)
(3.83552e-15 -8.75427 16.6051)
(7.51418e-15 -6.27098 13.143)
(6.21256e-15 -3.90442 9.50545)
(6.63098e-15 -1.57521 6.03748)
(8.08795e-15 0.55009 2.57123)
(5.44807e-15 1.82147 0.409425)
(6.04761e-15 0.936516 1.05484)
(4.18974e-15 -0.728138 2.76634)
(1.74387e-14 -12.1363 23.0087)
(1.36531e-14 -18.5769 29.4416)
(2.92317e-15 -15.0753 27.1242)
(2.95746e-15 -14.8374 24.138)
(6.15596e-16 -13.1072 22.8789)
(1.8205e-15 -12.8303 21.1388)
(1.87568e-15 -11.7305 19.7473)
(1.87404e-15 -10.7992 17.7349)
(4.62896e-15 -9.28557 15.3434)
(5.85728e-15 -7.53994 12.5853)
(5.23948e-15 -5.49273 9.56355)
(7.41674e-15 -2.98324 5.93566)
(1.03288e-14 0.448387 1.4219)
(4.32754e-15 3.47106 -2.86623)
(2.61701e-15 1.42421 -3.94654)
(1.63124e-14 -10.5081 19.3098)
(1.52809e-14 -17.9936 28.9467)
(5.78636e-15 -15.5734 27.1465)
(2.86476e-15 -14.6332 23.6702)
(1.12972e-15 -13.1032 21.8948)
(2.72319e-15 -12.558 20.1266)
(1.98992e-15 -11.6928 18.6458)
(8.67791e-16 -10.9138 16.9722)
(3.35763e-15 -9.95391 15.1632)
(3.76945e-15 -8.8313 13.1823)
(2.63237e-15 -7.53439 11.003)
(4.6909e-15 -5.93012 8.53715)
(5.04183e-15 -3.97105 5.50714)
(8.14224e-15 -1.34318 2.23271)
(4.24044e-15 0.457348 -3.06119)
(1.49261e-14 -9.35749 16.824)
(1.59214e-14 -17.1053 28.0218)
(6.0674e-15 -15.1909 26.4752)
(2.33138e-15 -13.9432 22.7852)
(1.40023e-15 -12.4076 20.8665)
(2.29271e-15 -11.7636 19.1077)
(1.43157e-15 -10.8808 17.6363)
(6.41914e-16 -10.1038 16.0701)
(2.20989e-15 -9.25546 14.4845)
(2.22023e-15 -8.3433 12.8457)
(1.32323e-15 -7.35629 11.096)
(1.98261e-15 -6.17452 9.18079)
(2.29045e-15 -4.79844 6.83886)
(3.65558e-15 -2.7627 3.8804)
(1.31849e-15 -0.609697 -1.47634)
(1.3563e-14 -8.82498 15.7855)
(1.61486e-14 -16.6593 27.5495)
(5.90295e-15 -14.9987 26.1833)
(2.6448e-15 -13.7081 22.5086)
(2.57729e-15 -12.1549 20.5491)
(2.10796e-15 -11.4855 18.7828)
(8.78152e-16 -10.542 17.3331)
(1.08163e-15 -9.75267 15.8097)
(1.57291e-15 -8.89903 14.3262)
(1.34222e-15 -8.04773 12.8446)
(9.295e-16 -7.1735 11.3273)
(5.72199e-16 -6.18602 9.7215)
(1.04763e-15 -5.07037 7.82674)
(2.1514e-15 -3.4941 5.40979)
(-1.22361e-16 -1.50803 1.38973)
(1.15268e-14 -8.06559 13.9766)
(1.55527e-14 -16.1482 26.5111)
(4.00353e-15 -14.6055 25.2401)
(-8.91372e-16 -12.8009 21.2212)
(9.77178e-17 -11.1997 19.6001)
(-5.82975e-16 -10.7409 18.1224)
(-1.04237e-15 -9.79633 16.917)
(8.4355e-16 -9.11715 15.4578)
(1.2231e-15 -8.27965 14.08)
(1.02197e-15 -7.4923 12.6777)
(9.84238e-16 -6.68692 11.253)
(7.26164e-16 -5.767 9.76163)
(2.00897e-15 -4.76549 7.95811)
(2.48313e-15 -3.19156 5.60346)
(-1.37683e-15 -1.02595 1.54327)
(8.0035e-15 -6.62297 12.0473)
(1.72157e-14 -16.6257 26.0932)
(1.16989e-14 -18.5928 28.3707)
(8.79128e-15 -17.5968 25.2497)
(1.06712e-14 -15.2698 21.6511)
(9.78465e-15 -13.603 19.0161)
(6.83536e-15 -12.4362 17.1572)
(4.58467e-15 -11.5769 15.6416)
(4.50701e-15 -10.7199 14.2358)
(5.01053e-15 -9.83849 12.892)
(4.67976e-15 -8.89624 11.5823)
(4.45178e-15 -7.85435 10.257)
(5.25646e-15 -6.67818 8.82408)
(5.80621e-15 -5.14279 6.97365)
(9.14985e-15 -2.08897 3.00519)
(2.22459e-17 4.38944 20.4528)
(5.52889e-16 -0.243592 2.56832)
(2.19609e-17 -0.165219 -0.913107)
(-1.36372e-16 -0.163136 -0.700454)
(-2.37653e-16 -0.0710218 -0.869947)
(-3.79344e-16 0.185657 -1.24161)
(-2.32905e-16 0.102291 -0.824226)
(-1.58441e-16 0.188391 -0.754163)
(5.35093e-17 0.215071 -0.604476)
(1.26603e-16 0.448936 -0.860907)
(2.77099e-16 0.384312 -0.495206)
(3.73007e-16 0.410173 -0.349027)
(5.35303e-16 0.673285 -0.438545)
(3.89805e-16 0.533753 -0.204376)
(4.23657e-16 0.606269 -0.163962)
(4.75088e-16 0.57342 -0.135553)
(7.47971e-16 0.802356 -0.215083)
(5.61594e-16 0.667537 -0.111476)
(4.79197e-16 0.691853 -0.108911)
(5.7092e-16 0.958636 -0.142315)
(1.51217e-16 0.730594 -0.0645662)
(-1.18129e-16 0.815198 -0.0573044)
(-5.29426e-16 0.766475 -0.0531049)
(-1.20312e-15 1.01756 -0.00642263)
(-1.50562e-15 0.776661 0.0380704)
(-1.85451e-15 0.860413 0.0312634)
(-2.05439e-15 0.810691 -0.00569219)
(-2.85324e-15 1.02583 0.00877267)
(-2.29513e-15 0.807246 0.00244102)
(-2.12393e-15 0.840415 -0.0290979)
(-2.56422e-15 1.07934 0.0182174)
(-1.72131e-15 0.792025 0.0223667)
(-1.41251e-15 0.874211 0.0181408)
(-9.69254e-16 0.830596 -0.00141742)
(-6.42944e-16 1.01534 0.0745675)
(-3.85006e-17 0.780296 0.0737925)
(2.98495e-16 0.814541 0.0514527)
(9.49724e-16 1.00753 0.14246)
(8.93246e-16 0.725517 0.0951706)
(9.68076e-16 0.797474 0.0836706)
(8.82249e-16 0.75509 0.0491026)
(1.13091e-15 0.91055 0.121574)
(6.09303e-16 0.664325 0.0683637)
(4.69453e-16 0.734081 0.0563293)
(3.62881e-16 0.699826 0.00733027)
(5.07958e-16 0.820501 0.0121021)
(4.4829e-16 0.609317 -0.0669175)
(5.12492e-16 0.658151 -0.123499)
(9.5908e-16 0.776804 -0.173791)
(8.45013e-16 0.549934 -0.19612)
(9.32274e-16 0.620293 -0.209159)
(9.36496e-16 0.611582 -0.226684)
(1.36815e-15 0.709638 -0.281345)
(9.57188e-16 0.519592 -0.245375)
(9.01825e-16 0.590206 -0.233495)
(7.39771e-16 0.57999 -0.233437)
(1.30806e-15 0.698698 -0.362422)
(8.72636e-16 0.569617 -0.297658)
(8.22927e-16 0.621547 -0.279423)
(1.48944e-15 0.721038 -0.478278)
(1.29349e-15 0.598574 -0.375081)
(1.40536e-15 0.655933 -0.350614)
(1.45158e-15 0.67014 -0.324853)
(2.10865e-15 0.610734 -0.620239)
(2.08859e-15 0.371261 -0.756393)
(1.60418e-15 0.415095 -0.582546)
(4.09011e-15 0.621498 -2.16442)
(4.21174e-15 -0.254166 -2.24212)
(3.53439e-15 -0.0614668 -1.93779)
(4.40755e-15 0.177969 -2.17974)
(-4.85142e-15 0.0299605 2.26252)
(-8.30571e-15 -1.08552 4.7793)
(-8.12051e-15 -1.25824 4.49927)
(-8.92163e-15 -1.43571 4.79335)
(-1.4496e-14 -2.58321 8.12966)
(-1.30711e-14 -3.25836 7.62887)
(-1.38182e-14 -3.43186 7.92868)
(-1.94939e-14 -5.26386 11.9095)
(-1.48595e-14 -5.52108 9.70174)
(-1.49467e-14 -5.95207 10.2729)
(-1.52959e-14 -6.56757 11.9749)
(-1.44192e-14 -6.47075 11.6611)
(-1.38803e-14 -6.59472 11.8594)
(-1.6647e-14 -7.82368 14.1384)
(-1.2576e-14 -7.2242 12.8002)
(-1.21524e-14 -7.44043 13.3109)
(-1.17045e-14 -7.43385 13.3503)
(-1.15829e-14 -7.50166 13.334)
(-1.18363e-14 -7.5707 13.322)
(-1.23595e-14 -7.62795 13.3104)
(-1.30224e-14 -7.66415 13.3991)
(-1.36839e-14 -7.7575 13.5668)
(-1.79785e-14 -8.12859 14.7745)
(-1.46118e-14 -8.19561 13.9302)
(-1.37932e-14 -8.28779 13.9752)
(-1.23806e-14 -8.27731 13.9906)
(-1.10305e-14 -8.38995 14.1796)
(-9.65797e-15 -8.37588 14.1065)
(-8.29741e-15 -8.43518 14.1035)
(-7.0999e-15 -8.43719 14.0823)
(-6.22489e-15 -8.51062 14.1015)
(-7.94868e-15 -8.79396 15.189)
(-5.8265e-15 -8.8809 14.4976)
(-5.34467e-15 -8.93444 14.5235)
(-5.42043e-15 -8.96151 14.511)
(-5.73478e-15 -8.98744 14.5267)
(-6.34819e-15 -9.0068 14.6027)
(-7.06549e-15 -9.0585 14.6977)
(-7.7251e-15 -9.04434 14.657)
(-8.05634e-15 -9.04279 14.67)
(-8.15907e-15 -9.1233 14.6982)
(-1.11512e-14 -9.10084 15.3813)
(-7.5198e-15 -9.37613 14.989)
(-5.68871e-15 -9.38382 15.0691)
(-3.79714e-15 -9.39176 15.1118)
(-2.04232e-15 -9.408 15.18)
(-5.70889e-16 -9.4099 15.2783)
(3.74383e-16 -9.4322 15.5129)
(7.05908e-16 -9.39576 15.6421)
(4.21042e-16 -9.49784 15.7479)
(-4.54877e-15 -9.12661 16.0183)
(-3.78097e-15 -9.52949 15.8912)
(-5.07807e-15 -9.49266 16.295)
(-6.06679e-15 -9.50265 16.6415)
(-7.31794e-15 -9.46601 16.8836)
(-8.56559e-15 -9.48939 17.2273)
(-9.9574e-15 -9.48743 17.6275)
(-1.14466e-14 -9.46135 18.1349)
(-1.27093e-14 -9.67523 18.8474)
(-2.16528e-14 -8.50951 18.753)
(-1.79444e-14 -9.18303 19.0785)
(-2.01947e-14 -9.10035 19.823)
(-2.159e-14 -9.06491 20.4113)
(-2.34359e-14 -9.08933 21.2408)
(-2.55432e-14 -9.07084 21.7309)
(-2.75866e-14 -9.0418 22.0717)
(-2.90136e-14 -9.07597 22.3161)
(-2.94342e-14 -9.18845 22.357)
(-3.1252e-14 -6.9997 20.3433)
(-2.07313e-14 -7.96352 20.5107)
(-1.3563e-14 -7.79169 19.8062)
(-5.6489e-15 -7.85102 19.0638)
(1.46729e-15 -7.78481 18.2134)
(7.07211e-15 -7.69882 17.3605)
(1.04728e-14 -7.65289 16.8521)
(1.08523e-14 -7.41646 15.7488)
(9.7801e-15 -7.2948 14.9207)
(7.86014e-15 -7.16119 14.0364)
(3.50957e-15 -3.69207 8.40219)
(5.06231e-15 -5.41976 11.5611)
(4.50721e-15 -4.91794 10.3794)
(4.9466e-15 -4.99433 9.70266)
(5.17296e-15 -4.67209 8.57088)
(5.12385e-15 -4.6121 7.24436)
(4.42574e-15 -4.40874 5.11176)
(3.64423e-15 -3.98522 3.18501)
(3.84349e-15 -4.02835 3.1291)
(1.74588e-15 -3.16263 0.23084)
(2.51508e-15 -3.4219 2.07852)
(1.80988e-15 -3.36071 1.15924)
(-1.01623e-17 -2.26561 -1.50504)
(1.52504e-15 -4.16279 -0.146236)
(9.30041e-16 -3.31303 -0.374487)
(8.19637e-16 -3.07981 -0.128342)
(1.01743e-15 -4.10976 -0.270029)
(6.08007e-16 -2.83109 -0.115326)
(9.18465e-16 -3.89272 -0.221604)
(7.62994e-16 -3.6663 -0.166285)
(4.48679e-16 -2.98385 -0.0935345)
(6.99011e-16 -3.81654 -0.192278)
(6.00188e-16 -3.5742 -0.161177)
(5.09825e-16 -3.10365 -0.0906569)
(7.22707e-16 -4.21901 -0.168126)
(5.19951e-16 -2.88402 -0.0962394)
(6.94091e-16 -3.90535 -0.167665)
(5.29359e-16 -3.50219 -0.180968)
(4.26911e-16 -3.07265 -0.125037)
(5.07086e-16 -4.13821 -0.214088)
(2.51418e-16 -2.80179 -0.140595)
(4.51152e-16 -3.83232 -0.224871)
(4.40309e-16 -3.51397 -0.242631)
(4.05598e-16 -2.84365 -0.17578)
(6.01539e-16 -3.59229 -0.290934)
(5.23387e-16 -3.28776 -0.282058)
(3.15706e-16 -2.82385 -0.198725)
(4.50076e-16 -3.79365 -0.291907)
(3.26681e-16 -2.55957 -0.189511)
(3.55552e-16 -3.44014 -0.282129)
(1.51419e-16 -3.01113 -0.265661)
(1.06248e-16 -2.61859 -0.186113)
(7.50918e-17 -3.49537 -0.270205)
(1.53718e-17 -2.33981 -0.181927)
(-1.95893e-17 -3.1813 -0.290696)
(-3.27112e-17 -2.84665 -0.308494)
(-1.01072e-16 -2.2862 -0.236241)
(3.27727e-18 -2.86905 -0.36404)
(3.60337e-17 -2.56936 -0.33272)
(1.45905e-17 -2.18288 -0.245207)
(1.12263e-16 -2.91699 -0.358366)
(1.09105e-16 -1.92874 -0.254143)
(1.84202e-16 -2.59016 -0.391548)
(1.72492e-16 -2.21586 -0.367925)
(1.56271e-16 -1.89674 -0.280448)
(4.69149e-17 -2.52449 -0.399247)
(-1.26577e-16 -1.64091 -0.291506)
(-2.54194e-16 -2.2375 -0.440807)
(-3.15412e-16 -1.96069 -0.40181)
(-3.20281e-16 -1.53487 -0.294616)
(-2.48565e-16 -1.94562 -0.405607)
(1.31749e-16 -1.72776 -0.360994)
(3.01497e-16 -1.43764 -0.287183)
(5.15689e-16 -1.96108 -0.368246)
(4.52055e-16 -1.24956 -0.241841)
(6.31782e-16 -1.73719 -0.274139)
(3.71295e-16 -1.52613 -0.230562)
(2.20994e-16 -1.28397 -0.178791)
(2.63942e-16 -1.77956 -0.193476)
(9.69741e-17 -1.13458 -0.155423)
(1.4403e-16 -1.6137 -0.171572)
(-2.84543e-18 -1.46045 -0.241693)
(-1.28053e-16 -1.09351 -0.210851)
(-3.52376e-16 -1.4366 -0.268731)
(-3.89142e-16 -1.25606 -0.329914)
(-2.69636e-16 -0.990712 -0.268581)
(-3.61291e-16 -1.40587 -0.328454)
(-2.56704e-16 -0.766468 -0.321799)
(-3.36487e-16 -1.16972 -0.444247)
(-3.04498e-16 -0.853187 -0.44761)
(-1.95199e-16 -0.638435 -0.357965)
(-2.21424e-16 -1.05604 -0.395112)
(-1.26769e-16 -0.327002 -0.318614)
(-1.37148e-16 -0.845762 -0.474194)
(4.72049e-17 -0.616155 -0.583547)
(-1.07837e-16 -0.0186056 -0.361428)
(-3.64442e-17 -0.597757 -0.54939)
(-1.72617e-16 -0.5036 -0.795883)
(-1.56475e-16 0.199274 -0.497079)
(-2.20665e-16 -0.235446 -0.647355)
(-2.43585e-16 0.212027 -0.390251)
(-3.69748e-16 0.229139 -0.531206)
(2.68018e-66 0.0375368 0.0378252)
(7.82728e-66 0.0517496 0.0366991)
(1.94392e-65 0.0616274 0.0368394)
(4.52009e-65 0.0709615 0.0367141)
(9.24978e-65 0.0801976 0.0369693)
(1.35718e-64 0.0890596 0.0372526)
(-5.93396e-65 0.0978693 0.0377368)
(-1.71259e-63 0.106565 0.0383256)
(-1.01689e-62 0.115267 0.039069)
(-4.69104e-62 0.123986 0.039939)
(-1.94058e-61 0.13278 0.0409506)
(-7.57913e-61 0.141676 0.0420954)
(-2.88156e-60 0.150713 0.043378)
(-1.09165e-59 0.15992 0.0447962)
(-4.16292e-59 0.169328 0.0463519)
(-1.56837e-58 0.178965 0.0480452)
(-5.4942e-58 0.188859 0.0498777)
(-1.58595e-57 0.199036 0.0518508)
(-2.73845e-57 0.209523 0.0539668)
(2.5049e-57 0.220347 0.056228)
(1.50173e-56 0.231531 0.0586373)
(-2.87502e-55 0.243102 0.0611983)
(-3.85382e-54 0.255085 0.0639147)
(-2.44527e-53 0.267505 0.0667909)
(-7.73913e-53 0.280388 0.0698319)
(1.47224e-52 0.293759 0.0730428)
(3.44531e-51 0.307645 0.0764295)
(2.10784e-50 0.322071 0.0799982)
(5.10896e-50 0.337065 0.0837557)
(-2.57509e-49 0.352654 0.0877092)
(-3.37439e-48 0.368865 0.0918663)
(-1.6733e-47 0.385727 0.0962353)
(-2.25563e-47 0.403269 0.100825)
(3.09223e-46 0.421522 0.105643)
(2.75299e-45 0.440515 0.110701)
(1.04524e-44 0.460281 0.116008)
(-2.27666e-45 0.48085 0.121573)
(-2.84828e-43 0.502257 0.127408)
(-1.79908e-42 0.524533 0.133522)
(-4.50857e-42 0.547712 0.139925)
(1.47718e-41 0.571826 0.146628)
(1.95414e-40 0.596906 0.153637)
(8.41587e-40 0.622981 0.160962)
(7.14815e-40 0.650075 0.168604)
(-1.32505e-38 0.678206 0.176566)
(-8.72815e-38 0.707381 0.184842)
(-2.25067e-37 0.737597 0.193419)
(3.24719e-37 0.768829 0.202275)
(5.22214e-36 0.801028 0.211374)
(2.13962e-35 0.834116 0.220661)
(3.8568e-35 0.867971 0.230059)
(-5.86084e-35 0.902424 0.239463)
(-8.41557e-34 0.93725 0.24873)
(-5.11748e-33 0.972156 0.257675)
(-2.18919e-32 1.00678 0.266061)
(-3.58478e-32 1.0407 0.273589)
(2.82518e-31 1.0734 0.279888)
(2.42925e-30 1.10429 0.2845)
(7.57771e-30 1.13271 0.286861)
(-4.69587e-30 1.15785 0.28627)
(-1.43642e-28 1.17874 0.281852)
(-5.81035e-28 1.19407 0.27251)
(-5.84865e-28 1.20205 0.25685)
(4.83605e-27 1.20005 0.23318)
(2.70376e-26 1.18441 0.199373)
(5.95304e-26 1.1494 0.153324)
(-2.21602e-26 1.08817 0.0924379)
(-6.16663e-25 0.988229 0.0163306)
(-2.3096e-24 0.837036 -0.0751439)
(-4.11589e-24 0.606442 -0.171995)
(-1.05366e-23 0.237298 -0.280565)
(1.63989e-23 -0.363614 -0.313881)
(-3.66058e-23 -0.739633 -0.341776)
(2.19514e-22 -1.21345 -0.266089)
(-1.01392e-21 -1.53261 -0.334426)
(1.19519e-20 -2.10432 -0.133801)
(-2.00896e-19 -2.16651 -0.456409)
(6.29476e-18 -3.23007 0.0170775)
(-3.94673e-17 -3.47269 -1.28083)
(8.74719e-66 0.0377764 0.0433591)
(2.56561e-65 0.0519434 0.0418066)
(6.41145e-65 0.0616507 0.041907)
(1.50768e-64 0.0709568 0.0416962)
(3.1604e-64 0.0801245 0.0419565)
(5.00908e-64 0.088946 0.0422515)
(3.37741e-65 0.0977051 0.0427844)
(-4.72463e-63 0.106358 0.0434376)
(-2.99823e-62 0.115014 0.0442684)
(-1.41449e-61 0.123689 0.0452426)
(-5.91517e-61 0.132438 0.0463768)
(-2.3233e-60 0.141291 0.0476606)
(-8.85446e-60 0.150284 0.0490989)
(-3.35593e-59 0.159446 0.0506887)
(-1.28053e-58 0.16881 0.0524319)
(-4.84345e-58 0.178403 0.0543284)
(-1.71561e-57 0.188252 0.0563797)
(-5.07746e-57 0.198384 0.0585873)
(-9.43946e-57 0.208825 0.0609534)
(5.08862e-57 0.219601 0.0634804)
(5.52941e-56 0.230738 0.0661715)
(-7.34819e-55 0.24226 0.0690303)
(-1.09814e-53 0.254193 0.0720609)
(-7.32116e-53 0.266561 0.075268)
(-2.50706e-52 0.279391 0.0786567)
(2.8777e-52 0.292707 0.0822327)
(9.70363e-51 0.306536 0.0860021)
(6.3046e-50 0.320903 0.0899716)
(1.70758e-49 0.335836 0.0941485)
(-6.35674e-49 0.351361 0.0985403)
(-9.61423e-48 0.367506 0.103155)
(-5.03676e-47 0.3843 0.108002)
(-8.32897e-47 0.401771 0.11309)
(8.18591e-46 0.419949 0.118429)
(7.89981e-45 0.438865 0.124028)
(3.17534e-44 0.45855 0.129899)
(5.7599e-45 0.479035 0.13605)
(-7.75875e-43 0.500355 0.142494)
(-5.18327e-42 0.522541 0.149241)
(-1.41265e-41 0.545627 0.156301)
(3.47444e-41 0.569645 0.163684)
(5.38929e-40 0.594627 0.171396)
(2.45994e-39 0.620602 0.179444)
(2.85823e-39 0.647596 0.187829)
(-3.42027e-38 0.675627 0.19655)
(-2.46507e-37 0.704706 0.205596)
(-7.03598e-37 0.734831 0.214948)
(5.81249e-37 0.765982 0.224574)
(1.45151e-35 0.798116 0.234426)
(6.52317e-35 0.831158 0.244433)
(1.26707e-34 0.864999 0.254499)
(-2.12818e-34 0.899478 0.264493)
(-2.86509e-33 0.934381 0.274243)
(-1.44371e-32 0.969434 0.283529)
(-4.72784e-32 1.00429 0.292079)
(-3.58618e-32 1.03855 0.299551)
(7.42821e-31 1.07172 0.305533)
(5.09936e-30 1.10324 0.30952)
(1.40624e-29 1.13249 0.310897)
(-1.47108e-29 1.15872 0.308903)
(-2.84403e-28 1.18101 0.30258)
(-1.05883e-27 1.19814 0.290715)
(-8.1287e-28 1.20842 0.27174)
(9.44635e-27 1.20932 0.243746)
(4.74993e-26 1.19727 0.204289)
(9.28731e-26 1.16662 0.151017)
(-7.90276e-26 1.11024 0.0809432)
(-1.10492e-24 1.01532 -0.00611843)
(-3.76204e-24 0.867883 -0.110048)
(-6.02992e-24 0.639199 -0.221076)
(-1.52042e-23 0.267487 -0.345442)
(1.46437e-23 -0.388388 -0.379515)
(-3.63593e-23 -0.782222 -0.380394)
(2.20148e-22 -1.25099 -0.287816)
(-1.04384e-21 -1.58285 -0.349374)
(1.26002e-20 -2.12786 -0.139528)
(-2.16208e-19 -2.21185 -0.454973)
(6.45689e-18 -3.16352 0.0170213)
(-3.64111e-17 -3.44258 -1.23512)
(2.52396e-65 0.0379203 0.0463596)
(7.4352e-65 0.0520537 0.0446384)
(1.8699e-64 0.0616618 0.044716)
(4.44966e-64 0.0709484 0.0444611)
(9.5615e-64 0.080077 0.044725)
(1.62957e-63 0.0888747 0.0450283)
(8.30273e-64 0.0976052 0.0455895)
(-1.08138e-62 0.106233 0.04628)
(-7.5951e-62 0.114863 0.0471607)
(-3.69371e-61 0.123513 0.0481941)
(-1.56626e-60 0.132237 0.0493976)
(-6.195e-60 0.141065 0.0507597)
(-2.36832e-59 0.150033 0.0522854)
(-8.98588e-59 0.159171 0.0539714)
(-3.43454e-58 0.168509 0.0558194)
(-1.30638e-57 0.178077 0.0578292)
(-4.68685e-57 0.1879 0.0600024)
(-1.42221e-56 0.198007 0.0623404)
(-2.81175e-56 0.208422 0.0648453)
(7.91315e-57 0.219172 0.0675197)
(1.83535e-55 0.230281 0.0703669)
(-1.52962e-54 0.241775 0.0733905)
(-2.7123e-53 0.25368 0.0765948)
(-1.92076e-52 0.266019 0.0799846)
(-7.13136e-52 0.278818 0.0835651)
(3.11811e-52 0.292104 0.0873424)
(2.3668e-50 0.3059 0.0913226)
(1.64804e-49 0.320235 0.0955128)
(4.95958e-49 0.335133 0.0999204)
(-1.28866e-48 0.350622 0.104553)
(-2.37601e-47 0.366731 0.10942)
(-1.31977e-46 0.383486 0.114529)
(-2.58159e-46 0.400917 0.119891)
(1.85127e-45 0.419054 0.125515)
(1.96391e-44 0.437926 0.131411)
(8.34445e-44 0.457567 0.13759)
(4.55723e-44 0.478006 0.144063)
(-1.81991e-42 0.499278 0.15084)
(-1.28811e-41 0.521414 0.157933)
(-3.77537e-41 0.544449 0.165352)
(6.78237e-41 0.568415 0.173105)
(1.27681e-39 0.593344 0.1812)
(6.14439e-39 0.619266 0.189642)
(8.791e-39 0.646207 0.198432)
(-7.52548e-38 0.674186 0.207564)
(-5.92031e-37 0.703217 0.217027)
(-1.83151e-36 0.733299 0.226797)
(6.53295e-37 0.764414 0.236836)
(3.38517e-35 0.796523 0.24709)
(1.64243e-34 0.829556 0.257478)
(3.42177e-34 0.863408 0.267893)
(-5.37626e-34 0.897924 0.278189)
(-7.53526e-33 0.9329 0.288178)
(-3.44689e-32 0.968067 0.297625)
(-9.01753e-32 1.00309 0.306235)
(1.43893e-32 1.03758 0.313649)
(1.64207e-30 1.07105 0.319433)
(9.14607e-30 1.10297 0.323064)
(2.17315e-29 1.13272 0.323905)
(-3.32318e-29 1.1596 0.321167)
(-4.65218e-28 1.18271 0.313851)
(-1.59473e-27 1.20088 0.300683)
(-9.08788e-28 1.21251 0.279998)
(1.47463e-26 1.21511 0.249759)
(6.81474e-26 1.20518 0.207332)
(1.19265e-25 1.17709 0.150204)
(-1.61438e-25 1.1235 0.0751312)
(-1.62371e-24 1.03136 -0.0180788)
(-5.13562e-24 0.885831 -0.129213)
(-7.55867e-24 0.657393 -0.249556)
(-1.94324e-23 0.281531 -0.378626)
(1.47748e-23 -0.370879 -0.454738)
(-3.51373e-23 -0.780396 -0.443461)
(2.21646e-22 -1.24341 -0.324219)
(-1.09096e-21 -1.58588 -0.371081)
(1.35525e-20 -2.10581 -0.149615)
(-2.36359e-19 -2.21635 -0.448995)
(6.63717e-18 -3.06733 0.0181993)
(-3.20808e-17 -3.36711 -1.18962)
(7.28388e-65 0.0381489 0.0497761)
(2.15442e-64 0.052226 0.0479084)
(5.45019e-64 0.0616946 0.0479705)
(1.31102e-63 0.0709484 0.047678)
(2.87921e-63 0.0800196 0.0479514)
(5.20226e-63 0.088781 0.0482703)
(4.38383e-63 0.0974695 0.0488684)
(-2.35597e-62 0.106061 0.0496063)
(-1.90537e-61 0.114653 0.0505484)
(-9.60875e-61 0.123267 0.0516542)
(-4.13986e-60 0.131955 0.0529416)
(-1.65052e-59 0.140747 0.0543982)
(-6.33198e-59 0.149679 0.0560289)
(-2.40483e-58 0.158781 0.0578302)
(-9.20179e-58 0.168084 0.0598036)
(-3.51718e-57 0.177615 0.0619489)
(-1.2776e-56 0.187403 0.0642676)
(-3.97638e-56 0.197473 0.066761)
(-8.36776e-56 0.207851 0.0694315)
(-4.14486e-58 0.218563 0.0722816)
(5.59398e-55 0.229634 0.0753147)
(-2.94617e-54 0.241088 0.0785347)
(-6.58825e-53 0.252952 0.0819458)
(-4.98089e-52 0.26525 0.0855532)
(-1.99711e-51 0.278007 0.0893624)
(-3.72345e-52 0.291248 0.0933794)
(5.6625e-50 0.305 0.0976108)
(4.25811e-49 0.319287 0.102064)
(1.41204e-48 0.334136 0.106746)
(-2.35782e-48 0.349575 0.111667)
(-5.78916e-47 0.365631 0.116833)
(-3.4231e-46 0.382331 0.122256)
(-7.72284e-46 0.399706 0.127944)
(4.05555e-45 0.417784 0.133907)
(4.82997e-44 0.436596 0.140158)
(2.17303e-43 0.456172 0.146706)
(1.94318e-43 0.476546 0.153562)
(-4.20115e-42 0.497749 0.160738)
(-3.17414e-41 0.519815 0.168245)
(-9.97725e-41 0.542777 0.176093)
(1.20898e-40 0.566669 0.18429)
(2.99315e-39 0.591522 0.192844)
(1.5213e-38 0.617368 0.201759)
(2.56617e-38 0.644232 0.211035)
(-1.62212e-37 0.672138 0.220663)
(-1.40591e-36 0.701099 0.230629)
(-4.67633e-36 0.731117 0.240906)
(-2.08603e-37 0.762179 0.25145)
(7.72501e-35 0.79425 0.262197)
(4.02904e-34 0.827266 0.273057)
(9.01361e-34 0.861128 0.283911)
(-1.17105e-33 0.895692 0.294596)
(-1.85334e-32 0.930762 0.304908)
(-8.15622e-32 0.966082 0.314587)
(-1.83777e-31 1.00133 0.323319)
(1.55892e-31 1.03613 0.330719)
(3.58074e-30 1.07001 0.336332)
(1.69437e-29 1.10248 0.339608)
(3.47151e-29 1.13293 0.339885)
(-6.79217e-29 1.1607 0.336342)
(-7.61501e-28 1.18496 0.327935)
(-2.41281e-27 1.2046 0.313324)
(-9.9966e-28 1.2181 0.290736)
(2.23227e-26 1.2231 0.257986)
(9.5524e-26 1.21614 0.212222)
(1.46759e-25 1.19164 0.150719)
(-2.99434e-25 1.14205 0.0699025)
(-2.35509e-24 1.05398 -0.0305003)
(-6.91351e-24 0.911595 -0.150345)
(-9.23182e-24 0.684227 -0.281886)
(-2.47259e-23 0.308001 -0.420373)
(1.86847e-23 -0.356995 -0.519834)
(-3.18625e-23 -0.787739 -0.522736)
(2.25016e-22 -1.24693 -0.376444)
(-1.1689e-21 -1.59594 -0.400065)
(1.48788e-20 -2.09442 -0.16482)
(-2.60351e-19 -2.22468 -0.444507)
(6.79092e-18 -2.99556 0.0221528)
(-2.82168e-17 -3.30959 -1.14306)
(2.09873e-64 0.0383693 0.0529907)
(6.23133e-64 0.0523878 0.0510319)
(1.58509e-63 0.0617279 0.0510842)
(3.85098e-63 0.0709464 0.0507653)
(8.6238e-63 0.0799624 0.0510513)
(1.63564e-62 0.0886876 0.0513896)
(1.80739e-62 0.0973355 0.0520259)
(-4.69342e-62 0.105892 0.0528126)
(-4.70512e-61 0.114447 0.0538164)
(-2.48086e-60 0.123026 0.0549944)
(-1.0889e-59 0.131679 0.056365)
(-4.3814e-59 0.140436 0.0579148)
(-1.68772e-58 0.149334 0.059649)
(-6.41609e-58 0.158402 0.0615633)
(-2.45645e-57 0.16767 0.0636596)
(-9.42804e-57 0.177167 0.0659373)
(-3.46576e-56 0.186919 0.0683981)
(-1.10652e-55 0.196954 0.0710431)
(-2.47763e-55 0.207296 0.0738749)
(-7.56585e-56 0.217972 0.0768961)
(1.59659e-54 0.229006 0.0801101)
(-4.91481e-54 0.240423 0.0835209)
(-1.56492e-52 0.252248 0.0871331)
(-1.27221e-51 0.264506 0.0909519)
(-5.49752e-51 0.277222 0.0949829)
(-4.11664e-51 0.290421 0.0992326)
(1.31937e-49 0.304129 0.103708)
(1.08347e-48 0.318371 0.108416)
(3.93897e-48 0.333174 0.113365)
(-3.45268e-48 0.348565 0.118564)
(-1.38334e-46 0.36457 0.124021)
(-8.75748e-46 0.381219 0.129747)
(-2.24101e-45 0.398539 0.135752)
(8.47211e-45 0.416561 0.142045)
(1.16982e-43 0.435315 0.148639)
(5.58846e-43 0.454831 0.155544)
(6.88292e-43 0.475142 0.162772)
(-9.47824e-42 0.496281 0.170334)
(-7.72307e-41 0.51828 0.178242)
(-2.59984e-40 0.541174 0.186505)
(1.78265e-40 0.564995 0.195134)
(6.90627e-39 0.589777 0.204133)
(3.71897e-38 0.615552 0.213507)
(7.20025e-38 0.642346 0.223253)
(-3.39035e-37 0.670184 0.233363)
(-3.28707e-36 0.699082 0.243818)
(-1.17057e-35 0.729044 0.254588)
(-4.71584e-36 0.760062 0.265622)
(1.71828e-34 0.792105 0.27685)
(9.64265e-34 0.825115 0.288174)
(2.31737e-33 0.858999 0.299458)
(-2.21131e-33 0.893624 0.310528)
(-4.33659e-32 0.928801 0.32116)
(-1.90256e-31 0.964287 0.331078)
(-3.97507e-31 0.999774 0.339942)
(4.69178e-31 1.03489 0.347349)
(7.6566e-30 1.0692 0.35282)
(3.23671e-29 1.1022 0.355786)
(5.89385e-29 1.13335 0.355562)
(-1.26694e-28 1.16199 0.351302)
(-1.24045e-27 1.18735 0.341923)
(-3.6781e-27 1.20842 0.326026)
(-1.2587e-27 1.22374 0.301741)
(3.20151e-26 1.23107 0.26674)
(1.27627e-25 1.22702 0.217952)
(1.64465e-25 1.20606 0.152416)
(-5.19271e-25 1.16041 0.0662042)
(-3.30321e-24 1.07636 -0.0411347)
(-8.91251e-24 0.937149 -0.169693)
(-1.04041e-23 0.710792 -0.312806)
(-3.01732e-23 0.334162 -0.461702)
(2.67567e-23 -0.345922 -0.583863)
(-2.4307e-23 -0.80374 -0.613182)
(2.24153e-22 -1.2655 -0.44771)
(-1.25621e-21 -1.62038 -0.439506)
(1.63761e-20 -2.09675 -0.186531)
(-2.85245e-19 -2.24356 -0.443787)
(6.86279e-18 -2.93425 0.0220284)
(-2.40571e-17 -3.27706 -1.09973)
(6.03707e-64 0.0386116 0.0561513)
(1.79892e-63 0.0525615 0.0541366)
(4.59961e-63 0.0617684 0.0541854)
(1.12775e-62 0.0709455 0.0538502)
(2.56994e-62 0.0799012 0.0541528)
(5.07739e-62 0.0885856 0.0545153)
(6.68262e-62 0.0971888 0.0551932)
(-7.78761e-62 0.105705 0.0560319)
(-1.13934e-60 0.114221 0.0571004)
(-6.35162e-60 0.122761 0.0583536)
(-2.84927e-59 0.131376 0.0598101)
(-1.1587e-58 0.140095 0.061456)
(-4.48471e-58 0.148955 0.0632961)
(-1.70679e-57 0.157985 0.0653262)
(-6.535e-57 0.167216 0.0675481)
(-2.51632e-56 0.176675 0.0699609)
(-9.35393e-56 0.18639 0.0725664)
(-3.06238e-55 0.196386 0.0753658)
(-7.28391e-55 0.206689 0.0783616)
(-4.4323e-55 0.217325 0.0815566)
(4.29034e-54 0.228319 0.0849544)
(-5.79866e-54 0.239695 0.088559)
(-3.62467e-52 0.251478 0.0923753)
(-3.19744e-51 0.263693 0.0964085)
(-1.48731e-50 0.276364 0.100665)
(-1.87779e-50 0.289517 0.10515)
(2.97868e-49 0.303177 0.109873)
(2.71201e-48 0.317371 0.11484)
(1.07711e-47 0.332123 0.120059)
(-2.00919e-48 0.347461 0.12554)
(-3.23433e-46 0.363412 0.131293)
(-2.20803e-45 0.380004 0.137326)
(-6.32964e-45 0.397266 0.143651)
(1.65452e-44 0.415227 0.150279)
(2.78664e-43 0.433917 0.15722)
(1.4183e-42 0.453368 0.164487)
(2.21266e-42 0.473612 0.172092)
(-2.08197e-41 0.49468 0.180046)
(-1.85401e-40 0.516607 0.18836)
(-6.67843e-40 0.539426 0.197046)
(1.39547e-40 0.563172 0.206111)
(1.56645e-38 0.587877 0.215562)
(8.97331e-38 0.613575 0.225401)
(1.95683e-37 0.640293 0.235626)