/*--------------------------------*- C++ -*----------------------------------*\
| =========                 |                                                 |
| \\      /  F ield         | OpenFOAM: The Open Source CFD Toolbox           |
|  \\    /   O peration     | Version:  4.1                                   |
|   \\  /    A nd           | Web:      www.OpenFOAM.org                      |
|    \\/     M anipulation  |                                                 |
\*---------------------------------------------------------------------------*/
FoamFile
{
    version     2.0;
    format      ascii;
    class       volSymmTensorField;
    location    "29";
    object      turbulenceProperties:R;
}
// * * * * * * * * * * * * * * * * * * * * * * * * * * * * * * * * * * * * * //

dimensions      [0 2 -2 0 0 0 0];

internalField   nonuniform List<symmTensor> 
6785
(
(0.753313 1.52223e-19 7.8656e-20 0.753188 0.000166964 0.753499)
(0.753354 -1.19331e-19 -6.07884e-20 0.75332 6.66991e-06 0.753326)
(0.753325 -4.1212e-20 -2.93473e-20 0.75336 3.85128e-05 0.753315)
(0.753334 2.38041e-20 1.69811e-20 0.753344 2.65663e-05 0.753322)
(0.753331 -2.57297e-20 -6.7105e-21 0.753346 2.70827e-05 0.753322)
(0.753332 1.22415e-20 -3.01947e-21 0.753343 2.40946e-05 0.753325)
(0.753332 4.74643e-21 3.56437e-21 0.753341 2.22212e-05 0.753326)
(0.753333 -2.00201e-20 -3.60792e-21 0.75334 2.01711e-05 0.753328)
(0.753333 6.82749e-21 -4.90049e-21 0.753337 1.84275e-05 0.75333)
(0.753333 2.24785e-21 4.21728e-21 0.753335 1.72939e-05 0.753332)
(0.753332 -1.4442e-20 -3.70617e-21 0.753332 1.69243e-05 0.753336)
(0.753334 4.54436e-21 -1.90063e-21 0.753327 1.3818e-05 0.753339)
(0.753334 6.9133e-22 8.81318e-21 0.753326 9.03195e-06 0.75334)
(0.753319 -7.8393e-21 6.99511e-22 0.753357 1.15617e-05 0.753324)
(0.753346 3.51336e-21 -1.80633e-21 0.753388 -7.68635e-05 0.753266)
(0.75333 1.97893e-19 1.30287e-19 0.753006 0.000218772 0.753664)
(0.753351 -1.41445e-19 -8.32328e-20 0.753339 -1.696e-05 0.75331)
(0.753325 -5.82588e-20 -3.43104e-20 0.753377 1.10297e-05 0.753298)
(0.753341 1.57861e-20 2.20432e-20 0.753351 -7.69648e-06 0.753308)
(0.753333 -1.99583e-20 -1.14976e-20 0.753361 5.12537e-08 0.753306)
(0.753336 9.79112e-21 4.63117e-21 0.753354 -4.06888e-06 0.75331)
(0.753335 -7.41016e-21 7.56862e-21 0.753354 -3.25158e-06 0.753312)
(0.753335 -1.15786e-20 -6.4305e-21 0.753351 -4.0693e-06 0.753314)
(0.753335 5.73657e-21 2.75017e-21 0.75335 -4.34646e-06 0.753316)
(0.753335 -7.30021e-21 7.93465e-21 0.753349 -5.52184e-06 0.753316)
(0.753334 -6.96149e-21 -3.67855e-21 0.753352 -7.83028e-06 0.753314)
(0.753334 3.99602e-21 2.14281e-21 0.753361 -1.5184e-05 0.753305)
(0.753335 -6.87685e-21 3.81055e-21 0.753381 -3.29593e-05 0.753284)
(0.753336 -7.92884e-21 -3.22332e-21 0.753398 -5.16037e-05 0.753266)
(0.753331 7.537e-21 5.11664e-21 0.753343 -1.60675e-05 0.753326)
(0.75333 2.28467e-19 7.77417e-20 0.752975 0.000216345 0.753696)
(0.753339 -1.44105e-19 -7.22712e-20 0.753347 -1.7364e-05 0.753314)
(0.753325 -5.54242e-20 -3.34218e-20 0.75337 -3.12079e-06 0.753305)
(0.753338 3.72871e-20 -2.019e-20 0.75335 -1.86571e-05 0.753312)
(0.753329 -1.2899e-20 -1.74556e-20 0.753361 -8.41781e-06 0.75331)
(0.753334 1.53753e-21 5.69328e-22 0.753352 -1.43883e-05 0.753313)
(0.753332 8.30289e-21 -2.5322e-20 0.753354 -1.12666e-05 0.753314)
(0.753333 -5.70872e-21 -2.35538e-21 0.75335 -1.23357e-05 0.753317)
(0.753333 -3.44579e-21 -1.81654e-21 0.753347 -1.18231e-05 0.75332)
(0.753333 5.61149e-21 -2.02222e-20 0.753344 -1.29052e-05 0.753323)
(0.753333 -8.70826e-22 4.79088e-21 0.753346 -1.45047e-05 0.753321)
(0.753333 -1.26022e-20 -7.38703e-21 0.753356 -1.93427e-05 0.75331)
(0.753332 -6.82292e-22 -1.4562e-20 0.753381 -2.77237e-05 0.753287)
(0.753338 5.07602e-21 9.77404e-21 0.753402 -4.5424e-05 0.75326)
(0.753329 1.8916e-20 1.16459e-20 0.753355 7.59447e-06 0.753316)
(0.753332 1.83545e-19 1.28105e-19 0.752974 0.000210565 0.753693)
(0.753336 -1.20789e-19 -1.00106e-19 0.753351 -1.45866e-05 0.753313)
(0.753329 -5.34446e-20 -1.07268e-20 0.753366 -8.37252e-06 0.753305)
(0.753337 8.10474e-21 6.04991e-21 0.753353 -1.84735e-05 0.753309)
(0.75333 2.81351e-21 -2.11561e-20 0.753363 -8.68841e-06 0.753307)
(0.753335 -8.21493e-21 8.17581e-21 0.753355 -1.45549e-05 0.75331)
(0.753332 -1.29817e-20 -6.06367e-21 0.75336 -1.11109e-05 0.753308)
(0.753334 1.03957e-20 -1.42963e-20 0.753361 -1.61192e-05 0.753305)
(0.753333 -4.95735e-21 2.40526e-21 0.753364 -2.00191e-05 0.753302)
(0.753333 -1.06275e-20 -7.28979e-21 0.753355 -2.15676e-05 0.753312)
(0.753333 1.59323e-20 -6.97126e-21 0.753339 -1.68687e-05 0.753328)
(0.753333 -1.4932e-20 -8.06334e-21 0.753333 -1.37653e-05 0.753334)
(0.753333 -4.56228e-20 -3.10084e-20 0.753344 -1.41753e-05 0.753323)
(0.753334 1.43402e-20 -1.13258e-21 0.753356 -1.14456e-05 0.75331)
(0.753332 5.30419e-20 2.9633e-20 0.753422 -3.21312e-05 0.753246)
(0.753332 1.79019e-19 8.3434e-20 0.752962 0.00021908 0.753706)
(0.753336 -1.13298e-19 -9.83658e-20 0.753353 -1.17332e-05 0.753311)
(0.75333 -2.9606e-20 -2.78663e-20 0.753365 -7.185e-06 0.753305)
(0.753336 1.19199e-20 -5.70948e-21 0.753356 -1.43215e-05 0.753308)
(0.753331 7.16327e-21 -2.78711e-20 0.753362 -6.35964e-06 0.753307)
(0.753335 6.43648e-21 -9.01854e-21 0.753356 -1.05343e-05 0.75331)
(0.753332 -9.55143e-21 -1.61132e-20 0.753363 -8.49117e-06 0.753305)
(0.753334 1.424e-20 -1.32238e-20 0.753373 -1.76014e-05 0.753293)
(0.753333 1.57454e-20 4.34592e-21 0.753392 -2.74634e-05 0.753275)
(0.753333 3.07799e-20 1.10423e-20 0.753394 -3.28238e-05 0.753273)
(0.753333 3.6276e-20 1.21978e-20 0.753372 -2.56163e-05 0.753295)
(0.753334 -9.92817e-21 -1.07093e-20 0.753336 -1.34064e-05 0.753331)
(0.753333 -4.77287e-20 -3.48068e-20 0.753304 -6.24352e-07 0.753363)
(0.75333 -1.75318e-20 -2.32939e-20 0.753303 6.4247e-06 0.753367)
(0.753335 7.96202e-21 1.11017e-21 0.753408 -5.85692e-05 0.753257)
(0.753332 1.69147e-19 1.16281e-19 0.752941 0.000226488 0.753728)
(0.753336 -1.34798e-19 -5.95884e-20 0.753348 -7.4633e-06 0.753316)
(0.753331 -5.3241e-20 3.32072e-21 0.753367 -1.0626e-05 0.753302)
(0.753336 7.11765e-21 4.21718e-21 0.753354 -1.38719e-05 0.753311)
(0.753331 -1.68397e-20 2.35394e-21 0.753358 -6.9713e-06 0.75331)
(0.753335 -1.26111e-20 2.52387e-20 0.753351 -1.10761e-05 0.753314)
(0.753332 -9.76137e-21 1.48423e-21 0.753357 -7.84412e-06 0.753311)
(0.753334 -5.83409e-21 6.24298e-21 0.753364 -1.55594e-05 0.753302)
(0.753333 3.68753e-21 2.37199e-20 0.753386 -2.27318e-05 0.753282)
(0.753334 2.94738e-20 1.32578e-20 0.753401 -3.01157e-05 0.753265)
(0.753334 2.35361e-20 1.91913e-20 0.753404 -3.01249e-05 0.753262)
(0.753334 -1.01217e-20 -2.29515e-21 0.753397 -2.87588e-05 0.753269)
(0.753333 -3.99079e-20 -2.43848e-20 0.753373 -2.11487e-05 0.753294)
(0.753334 -2.66754e-20 -2.09081e-20 0.753324 -9.74923e-06 0.753342)
(0.753334 2.15478e-20 1.54643e-20 0.753277 9.17587e-06 0.753389)
(0.753332 1.71205e-19 1.22303e-19 0.75294 0.000219294 0.753728)
(0.753335 -1.28764e-19 -5.33171e-20 0.753328 9.41115e-07 0.753337)
(0.753331 -7.46505e-20 -1.12983e-20 0.753374 -1.84266e-05 0.753295)
(0.753336 8.39816e-21 5.40262e-21 0.753354 -1.85291e-05 0.75331)
(0.753331 -1.20932e-20 1.04043e-20 0.753356 -1.09742e-05 0.753313)
(0.753335 -1.71671e-20 1.56127e-20 0.75335 -1.52051e-05 0.753315)
(0.753332 -1.96199e-21 -2.4081e-21 0.753352 -1.17601e-05 0.753315)
(0.753334 -8.74629e-21 4.01687e-21 0.753353 -1.5595e-05 0.753313)
(0.753333 -5.74509e-21 1.64478e-20 0.753362 -1.70067e-05 0.753304)
(0.753334 8.88154e-21 5.05005e-21 0.753374 -2.00598e-05 0.753293)
(0.753333 4.21894e-21 1.45291e-20 0.753385 -2.04889e-05 0.753282)
(0.753334 5.89754e-21 1.53004e-20 0.753393 -2.20071e-05 0.753274)
(0.75333 1.57733e-20 6.0809e-21 0.75341 -2.19786e-05 0.75326)
(0.753341 -5.26625e-20 -3.41016e-20 0.753392 -3.74955e-05 0.753268)
(0.753332 9.6783e-21 6.284e-21 0.753283 3.07605e-05 0.753385)
(0.753333 2.01377e-19 1.04555e-19 0.752963 0.00020371 0.753704)
(0.753334 -9.12679e-20 -5.67871e-20 0.753307 1.1848e-05 0.753359)
(0.753332 -7.15707e-20 -6.55889e-20 0.753378 -2.3571e-05 0.753291)
(0.753335 -8.19021e-22 -2.9526e-22 0.75336 -2.22713e-05 0.753305)
(0.753332 6.11795e-22 -8.58786e-22 0.753357 -1.39929e-05 0.753312)
(0.753334 1.53458e-21 -1.02769e-20 0.753352 -1.69207e-05 0.753314)
(0.753333 1.90335e-21 -2.18966e-21 0.753353 -1.43932e-05 0.753314)
(0.753334 9.35082e-22 -8.45922e-22 0.753352 -1.62029e-05 0.753314)
(0.753333 4.31629e-21 -8.89699e-21 0.753355 -1.58661e-05 0.753312)
(0.753333 1.22077e-21 -2.35488e-21 0.753358 -1.67102e-05 0.753308)
(0.753333 -1.25192e-21 -1.06564e-21 0.753365 -1.68409e-05 0.753302)
(0.753333 8.88092e-21 1.47326e-21 0.753372 -1.85819e-05 0.753295)
(0.753332 8.42561e-21 6.29058e-21 0.753386 -1.98841e-05 0.753282)
(0.753337 -5.17511e-20 -2.8684e-20 0.753398 -3.20331e-05 0.753266)
(0.75333 2.26893e-20 1.6482e-20 0.753343 1.08335e-05 0.753327)
(0.753333 2.00865e-19 1.17153e-19 0.752987 0.000192437 0.75368)
(0.753333 -8.06989e-20 -4.90159e-20 0.753293 2.01939e-05 0.753374)
(0.753332 -8.21752e-20 -7.90811e-20 0.753377 -2.48638e-05 0.75329)
(0.753335 -4.11003e-21 -1.52809e-21 0.753365 -2.31856e-05 0.7533)
(0.753332 -2.94123e-21 -1.86298e-21 0.753358 -1.46872e-05 0.75331)
(0.753334 9.40652e-21 -2.64529e-20 0.753353 -1.60587e-05 0.753312)
(0.753333 5.06816e-21 3.54814e-21 0.753355 -1.38559e-05 0.753313)
(0.753334 -6.08015e-21 -3.73071e-21 0.753353 -1.46101e-05 0.753313)
(0.753333 5.28358e-21 -1.37467e-20 0.753354 -1.35972e-05 0.753313)
(0.753333 6.12552e-21 4.94725e-21 0.753354 -1.34997e-05 0.753313)
(0.753333 -1.17808e-20 -6.36947e-21 0.753356 -1.32989e-05 0.75331)
(0.753334 2.7062e-21 -1.32005e-20 0.753361 -1.46678e-05 0.753306)
(0.753333 1.72218e-20 1.28645e-20 0.753371 -1.70508e-05 0.753296)
(0.753336 -6.76617e-20 -3.85008e-20 0.753389 -2.98157e-05 0.753275)
(0.753331 4.45387e-20 2.58194e-20 0.753372 -8.62453e-06 0.753298)
(0.753334 2.15708e-19 1.02472e-19 0.753004 0.000186229 0.753662)
(0.753333 -6.85615e-20 -4.10376e-20 0.753287 2.38444e-05 0.75338)
(0.753333 -9.63232e-20 -7.64541e-20 0.753375 -2.47955e-05 0.753292)
(0.753334 -1.74764e-21 -3.12155e-20 0.753367 -2.36132e-05 0.753299)
(0.753333 5.68041e-21 2.78653e-21 0.753358 -1.49941e-05 0.753309)
(0.753334 -4.47862e-21 -1.06133e-20 0.753353 -1.47943e-05 0.753313)
(0.753333 1.33167e-20 -1.32496e-20 0.753353 -1.25525e-05 0.753314)
(0.753334 2.33037e-21 1.43433e-21 0.753352 -1.27523e-05 0.753314)
(0.753333 -8.16951e-21 -1.22683e-20 0.753352 -1.17926e-05 0.753315)
(0.753333 5.35106e-21 -9.12408e-21 0.753352 -1.15129e-05 0.753315)
(0.753333 -2.35711e-22 1.9978e-21 0.753353 -1.08635e-05 0.753314)
(0.753334 -8.04906e-21 -8.44493e-21 0.753354 -1.07327e-05 0.753312)
(0.753333 1.97693e-20 4.49737e-21 0.753361 -1.07776e-05 0.753306)
(0.753335 -2.62634e-20 -8.64561e-21 0.753383 -2.39378e-05 0.753282)
(0.753332 2.53161e-20 1.31811e-20 0.753397 -2.51669e-05 0.75327)
(0.753334 2.03763e-19 9.89992e-20 0.753015 0.000183868 0.753651)
(0.753333 -8.15321e-20 -2.53252e-20 0.753288 2.17051e-05 0.753378)
(0.753333 -8.25542e-20 -1.11134e-19 0.753371 -2.55584e-05 0.753296)
(0.753334 4.35307e-21 1.10973e-20 0.753367 -2.41743e-05 0.753299)
(0.753333 -1.31893e-20 1.96442e-21 0.753357 -1.56725e-05 0.75331)
(0.753334 -3.79756e-21 -4.4026e-20 0.753351 -1.48539e-05 0.753316)
(0.753333 2.49111e-20 1.57884e-20 0.75335 -1.31347e-05 0.753317)
(0.753333 -1.26011e-20 1.09162e-21 0.753349 -1.36193e-05 0.753317)
(0.753333 -2.02307e-20 -4.79626e-20 0.753349 -1.29122e-05 0.753317)
(0.753333 1.39052e-20 1.16455e-20 0.753348 -1.16057e-05 0.753319)
(0.753333 1.53078e-21 8.4996e-21 0.753346 -8.31118e-06 0.753321)
(0.753333 -1.28305e-20 -3.00116e-20 0.753344 -3.97021e-06 0.753322)
(0.753333 -9.80141e-21 -3.56756e-21 0.753348 -8.93235e-07 0.753319)
(0.753334 -1.44602e-20 -2.37845e-20 0.753373 -1.31794e-05 0.753293)
(0.753333 9.27207e-20 5.7634e-20 0.753442 -4.78404e-05 0.753225)
(0.753334 1.9839e-19 1.15462e-19 0.753021 0.000181729 0.753645)
(0.753333 -1.17696e-19 -5.30957e-20 0.75331 1.39563e-05 0.753357)
(0.753333 -9.11905e-20 -8.07235e-20 0.75337 -2.31987e-05 0.753297)
(0.753334 3.68007e-20 2.18847e-20 0.753364 -2.08314e-05 0.753302)
(0.753333 -4.44764e-20 -1.1338e-20 0.753359 -1.63915e-05 0.753308)
(0.753334 -1.95226e-20 -3.11224e-20 0.753354 -1.70627e-05 0.753312)
(0.753333 6.27649e-20 3.33375e-20 0.753352 -1.59293e-05 0.753315)
(0.753334 -3.17774e-20 -5.51126e-22 0.753348 -1.65544e-05 0.753318)
(0.753333 -5.79022e-20 -3.90522e-20 0.753345 -1.43711e-05 0.753322)
(0.753333 2.53285e-20 1.01821e-20 0.753338 -9.46509e-06 0.753328)
(0.753334 -1.34892e-20 -8.17398e-21 0.75333 -1.06319e-06 0.753337)
(0.753333 -2.10267e-20 -2.68116e-20 0.753324 7.57476e-06 0.753342)
(0.753334 -1.38683e-20 -1.41302e-21 0.75333 9.58964e-06 0.753337)
(0.753334 -3.24868e-20 -2.33609e-20 0.753363 -5.99933e-06 0.753303)
(0.753333 1.22218e-19 7.40284e-20 0.753492 -7.91038e-05 0.753175)
(0.753333 1.91798e-19 8.43205e-20 0.752998 0.000185691 0.75367)
(0.753333 -9.01257e-20 -7.20027e-20 0.75331 1.474e-05 0.753356)
(0.753333 -1.14544e-19 -4.9783e-20 0.753387 -2.32646e-05 0.753279)
(0.753334 3.82079e-20 -2.53332e-23 0.753373 -1.74413e-05 0.753293)
(0.753333 -1.62232e-20 -5.33115e-21 0.753367 -1.50807e-05 0.7533)
(0.753333 3.80054e-21 1.00439e-22 0.753368 -1.98335e-05 0.753299)
(0.753333 6.83952e-20 2.53082e-20 0.753365 -1.96785e-05 0.753302)
(0.753333 -3.03932e-20 4.14071e-21 0.753358 -1.82423e-05 0.753309)
(0.753333 -3.20278e-20 -3.17277e-20 0.753346 -1.2383e-05 0.753321)
(0.753333 5.7517e-21 -4.65458e-21 0.753329 -3.38201e-06 0.753338)
(0.753333 -5.26074e-20 -2.59561e-20 0.75331 7.08884e-06 0.753357)
(0.753333 -2.44626e-20 -2.5628e-20 0.7533 1.4297e-05 0.753367)
(0.753334 -7.11268e-21 -6.43646e-21 0.753307 1.05754e-05 0.753359)
(0.753332 -4.74148e-20 -1.87909e-20 0.753354 -9.83083e-06 0.753314)
(0.753333 1.27729e-19 5.93246e-20 0.753523 -0.000109575 0.753144)
(0.753334 1.4863e-19 8.52227e-20 0.753033 0.000149723 0.753633)
(0.753334 -2.03505e-20 -2.0644e-20 0.75324 4.16407e-05 0.753426)
(0.753334 -8.85967e-20 -9.84565e-20 0.753358 -5.81032e-06 0.753309)
(0.753334 -2.41804e-20 -4.43965e-20 0.753392 -1.53346e-05 0.753274)
(0.753333 1.12025e-21 -1.62554e-20 0.753394 -1.32889e-05 0.753273)
(0.753334 3.04697e-20 1.20477e-20 0.753388 -1.17037e-05 0.753278)
(0.753334 4.92125e-20 3.91489e-20 0.753381 -8.77324e-06 0.753286)
(0.753334 1.40366e-20 1.27141e-21 0.753373 -7.245e-06 0.753293)
(0.753333 -3.25082e-21 -4.56575e-21 0.753366 -5.26075e-06 0.753301)
(0.753334 -2.01414e-20 -8.15986e-21 0.753352 -1.91628e-06 0.753315)
(0.753334 -3.57964e-20 -2.73148e-20 0.75333 4.39266e-06 0.753337)
(0.753334 -2.75426e-20 -2.32385e-20 0.753305 1.0191e-05 0.753361)
(0.753334 -3.3853e-20 -1.91484e-20 0.753294 7.84141e-06 0.753371)
(0.753332 -2.31147e-20 -2.41882e-20 0.753332 -1.41907e-05 0.753335)
(0.753335 7.8969e-20 3.70039e-20 0.753468 -9.58866e-05 0.753197)
(0.753331 6.9974e-20 4.69889e-20 0.753114 0.000104562 0.753555)
(0.753333 8.51505e-20 4.66948e-20 0.753163 5.27634e-05 0.753504)
(0.753333 -1.26569e-20 4.07745e-21 0.753242 1.88243e-05 0.753425)
(0.753333 -4.31952e-20 -3.18713e-20 0.753308 -6.74476e-06 0.753359)
(0.753333 -3.46569e-20 -4.71995e-20 0.753352 -1.97399e-05 0.753315)
(0.753333 -3.39347e-20 -5.02456e-21 0.753379 -2.41512e-05 0.753288)
(0.753333 -8.16858e-21 -6.13221e-21 0.75339 -2.00358e-05 0.753277)
(0.753333 9.0345e-21 -6.43049e-21 0.753389 -1.49598e-05 0.753278)
(0.753333 -3.04502e-21 1.26926e-20 0.753388 -1.0025e-05 0.753278)
(0.753333 -4.66488e-22 1.19587e-21 0.753386 -5.61769e-06 0.753281)
(0.753333 2.25387e-21 -6.07296e-21 0.753381 -3.00293e-06 0.753286)
(0.753333 -9.30082e-21 -1.37247e-21 0.753373 -1.26102e-06 0.753294)
(0.753334 -2.12441e-20 -1.5917e-20 0.75336 -1.11097e-06 0.753306)
(0.753331 -1.26535e-20 -1.65022e-20 0.753369 -6.16305e-06 0.753299)
(0.753335 1.34226e-20 5.03431e-21 0.753402 -2.91869e-05 0.753264)
(0.753912 7.64885e-21 4.73349e-22 0.752518 0.000650877 0.75357)
(0.753208 6.53596e-21 9.04567e-22 0.753524 0.00069155 0.753269)
(0.753331 -4.06648e-22 2.15602e-21 0.753338 0.000103334 0.753331)
(0.753335 -6.86222e-22 2.10506e-21 0.753312 -1.8973e-05 0.753353)
(0.753336 2.65142e-21 2.285e-21 0.753308 2.41776e-05 0.753356)
(0.753333 7.14334e-23 8.04345e-22 0.753324 -5.59811e-06 0.753343)
(0.753331 -2.8723e-21 2.28306e-21 0.753321 -1.75479e-05 0.753348)
(0.753337 1.41216e-21 2.14799e-21 0.753312 -9.92964e-06 0.753351)
(0.753335 -2.94674e-21 1.8771e-21 0.753315 1.74116e-06 0.75335)
(0.753333 -5.74143e-21 6.21788e-22 0.753325 -2.71042e-06 0.753342)
(0.753331 -4.90581e-21 3.87833e-22 0.753324 -1.96138e-05 0.753345)
(0.753337 7.34591e-22 2.05909e-22 0.753313 -2.62637e-06 0.75335)
(0.753333 1.39764e-21 1.36698e-21 0.753327 -4.26757e-06 0.75334)
(0.753332 -1.83567e-21 6.02909e-22 0.753324 -1.62032e-05 0.753344)
(0.753335 -2.28478e-21 3.86289e-22 0.75332 -9.28574e-06 0.753345)
(0.753334 8.24879e-22 3.98797e-22 0.753322 -3.97714e-06 0.753344)
(0.753333 1.2191e-21 1.49811e-21 0.753329 -4.00555e-06 0.753338)
(0.753331 -2.03412e-22 2.08812e-22 0.753329 -1.49788e-05 0.75334)
(0.753338 3.01692e-21 7.7569e-22 0.753316 -5.82501e-06 0.753346)
(0.753333 1.43576e-21 1.5214e-21 0.753332 -3.61601e-06 0.753335)
(0.753332 -9.97345e-22 1.19225e-21 0.753329 -1.20615e-05 0.753339)
(0.753335 -1.33547e-21 1.07602e-21 0.753324 -6.81133e-06 0.753341)
(0.753334 1.96964e-21 6.17291e-22 0.753325 -5.81323e-06 0.753341)
(0.753333 1.00958e-21 1.5318e-21 0.753333 -3.09437e-06 0.753334)
(0.753332 -1.34236e-21 1.36116e-21 0.753331 -1.11925e-05 0.753338)
(0.753335 2.02255e-21 1.34272e-21 0.753325 -7.29488e-06 0.75334)
(0.753334 4.11413e-21 2.3348e-21 0.753327 -7.20603e-06 0.753339)
(0.753333 1.20844e-21 1.49673e-21 0.753335 -2.85464e-06 0.753332)
(0.75333 -4.04872e-21 2.19207e-21 0.753335 -1.05557e-05 0.753334)
(0.753338 1.48619e-21 1.88427e-21 0.75332 -9.19709e-06 0.753342)
(0.753333 -6.89109e-23 1.42921e-21 0.753337 -2.89556e-06 0.75333)
(0.753332 -4.64502e-21 1.96777e-21 0.753334 -9.53302e-06 0.753334)
(0.753335 -1.44159e-21 1.61849e-21 0.753327 -7.81909e-06 0.753338)
(0.753334 1.02607e-21 1.73793e-21 0.753331 -9.6038e-06 0.753336)
(0.753333 -1.34269e-22 1.35697e-21 0.753338 -2.62168e-06 0.753329)
(0.75333 -4.02285e-21 1.68413e-21 0.753338 -7.2692e-06 0.753332)
(0.753338 8.98856e-22 1.47189e-21 0.753324 -9.86141e-06 0.753339)
(0.753333 -2.0826e-22 1.2738e-21 0.753339 -2.3008e-06 0.753328)
(0.753332 -2.25836e-21 1.52076e-21 0.753337 -6.11068e-06 0.753332)
(0.753335 -1.72757e-21 1.27791e-21 0.75333 -5.9787e-06 0.753335)
(0.753334 7.81299e-22 1.20044e-21 0.753333 -9.07734e-06 0.753333)
(0.753333 -2.75277e-22 1.13147e-21 0.753339 -1.68472e-06 0.753328)
(0.753332 -2.50992e-21 1.17692e-21 0.753337 -4.70509e-06 0.753331)
(0.753335 -1.33478e-21 9.39892e-22 0.753331 -5.25122e-06 0.753334)
(0.753334 -3.11083e-22 8.84309e-22 0.753333 -7.94501e-06 0.753333)
(0.753333 -4.89333e-22 3.14243e-22 0.753336 -1.25723e-06 0.753331)
(0.753332 -3.19361e-21 6.47726e-22 0.753338 -3.73702e-06 0.75333)
(0.753336 -2.50703e-21 4.53043e-22 0.753329 -7.9549e-06 0.753334)
(0.753333 -2.13752e-21 3.15296e-22 0.753337 -3.19588e-07 0.75333)
(0.753333 -3.7576e-21 2.74777e-22 0.753337 -2.92445e-06 0.75333)
(0.753334 -1.61895e-21 -3.34603e-22 0.753334 -3.52983e-06 0.753332)
(0.753333 4.56742e-23 -3.85036e-22 0.753336 -6.76182e-06 0.75333)
(0.753333 2.76377e-22 2.52295e-22 0.75334 2.3474e-06 0.753327)
(0.753332 2.07853e-21 -3.40415e-22 0.753338 2.99784e-07 0.753329)
(0.753334 -2.52659e-21 -3.09946e-22 0.753333 -2.95133e-06 0.753332)
(0.753333 -4.88582e-21 -7.49514e-22 0.753337 -2.85432e-06 0.753331)
(0.753334 -5.86323e-22 1.26248e-22 0.753343 8.52856e-06 0.753323)
(0.753331 5.55187e-22 -7.81765e-22 0.753338 8.63115e-07 0.753331)
(0.753334 -1.73052e-21 -7.32281e-22 0.75333 7.91035e-06 0.753336)
(0.753334 -1.01408e-21 6.33917e-23 0.753348 1.95446e-05 0.753318)
(0.753327 6.19508e-22 -1.11288e-21 0.753337 6.35763e-06 0.753336)
(0.753336 -1.86221e-22 -1.06903e-21 0.753317 4.95618e-06 0.753347)
(0.753335 6.35839e-22 -1.01894e-21 0.753318 -6.86555e-07 0.753347)
(0.753333 1.35981e-20 -1.46393e-21 0.753355 -2.54642e-05 0.753313)
(0.753331 7.17224e-21 2.30321e-21 0.753342 -2.32627e-05 0.753327)
(0.753338 -6.73496e-21 2.37377e-21 0.753333 -1.31803e-05 0.753329)
(0.753333 -2.1438e-21 -2.53814e-22 0.75336 -1.9585e-05 0.753307)
(0.753331 -2.3513e-21 2.92947e-24 0.753359 -2.32612e-06 0.753309)
(0.753337 3.55202e-21 1.68451e-21 0.75335 1.88278e-06 0.753313)
(0.753333 7.10827e-21 2.3384e-21 0.753364 -3.11246e-05 0.753303)
(0.753333 1.882e-21 -6.78795e-22 0.753366 -1.1051e-05 0.753302)
(0.753333 3.63304e-21 2.63286e-21 0.753372 1.45362e-05 0.753294)
(0.753337 8.06495e-21 3.20923e-21 0.753365 1.3499e-06 0.753298)
(0.753334 6.88931e-21 3.99046e-21 0.75338 -3.2743e-05 0.753286)
(0.753331 2.26848e-21 -7.9345e-21 0.753373 -6.43245e-06 0.753296)
(0.753347 -2.94169e-21 3.43101e-21 0.753358 2.71052e-05 0.753294)
(0.753331 2.24982e-21 3.42041e-21 0.753397 -3.89352e-05 0.753272)
(0.753331 -4.46621e-21 -2.33158e-21 0.753373 -1.09621e-06 0.753296)
(0.753347 -1.03054e-20 2.56346e-21 0.75337 4.47067e-05 0.753282)
(0.75333 -9.31956e-21 1.44929e-21 0.753407 -4.95621e-05 0.753264)
(0.753328 -2.09221e-20 -1.90569e-21 0.75337 -3.45879e-05 0.753302)
(0.753341 -2.53615e-20 -2.71315e-21 0.753342 9.65603e-06 0.753317)
(0.753325 -1.92647e-20 -3.03566e-21 0.753382 -3.84887e-05 0.753293)
(0.753333 -1.96938e-20 1.13688e-20 0.753351 -6.3511e-06 0.753315)
(0.753339 -8.9276e-21 -1.77117e-21 0.753347 3.01696e-06 0.753313)
(0.753328 -1.29989e-20 -1.76066e-21 0.753362 -2.5984e-05 0.75331)
(0.753336 -7.0052e-21 -2.40924e-21 0.753348 2.65943e-06 0.753316)
(0.753333 -8.2751e-21 -2.60285e-21 0.753356 -2.02278e-06 0.753312)
(0.753334 -8.56708e-21 -2.87264e-21 0.753354 -7.37774e-06 0.753312)
(0.753332 -1.54489e-20 -3.42491e-21 0.75336 -1.84872e-05 0.753308)
(0.753336 -2.63471e-20 -3.54655e-21 0.753354 -2.8949e-05 0.75331)
(0.753332 -2.14626e-20 -1.89547e-21 0.753364 -3.47153e-05 0.753304)
(0.753333 -1.18269e-20 5.12059e-21 0.753345 -5.56309e-06 0.753322)
(0.753338 -5.18503e-21 -4.74217e-22 0.753349 1.63562e-05 0.753314)
(0.753333 -7.94526e-21 -4.05166e-22 0.753355 -6.21241e-06 0.753312)
(0.753333 -1.06749e-20 -6.40328e-22 0.753354 -1.55987e-05 0.753313)
(0.753332 -1.3035e-20 3.71937e-22 0.753355 -9.55076e-06 0.753313)
(0.753335 -8.67523e-21 -2.54685e-23 0.753349 5.97236e-06 0.753316)
(0.753331 -9.3387e-21 -3.06961e-22 0.753358 -2.16831e-06 0.753311)
(0.753336 -8.43939e-21 -5.4647e-22 0.75335 -4.26292e-06 0.753314)
(0.753334 -7.55765e-21 -7.42251e-22 0.753357 -1.84845e-05 0.753309)
(0.753333 1.27371e-20 -1.69503e-20 0.753337 -8.00154e-06 0.75333)
(0.753338 -6.82547e-21 -2.05821e-22 0.753341 8.79901e-06 0.753321)
(0.753331 -1.20781e-20 -3.46697e-23 0.753352 -9.83912e-06 0.753316)
(0.753334 -9.0857e-21 -5.40311e-22 0.753348 -8.91945e-06 0.753318)
(0.753334 -8.3879e-21 -8.28317e-22 0.753349 -2.45417e-05 0.753317)
(0.753332 -9.90939e-21 -9.18296e-22 0.753352 -4.02372e-05 0.753316)
(0.753333 -1.36456e-20 -9.29047e-22 0.753349 -3.28382e-05 0.753318)
(0.753334 -1.48123e-20 -1.39673e-21 0.753348 -2.1059e-05 0.753318)
(0.753332 -1.37919e-20 -1.78111e-21 0.753354 -1.77115e-05 0.753314)
(0.753337 -8.06449e-21 -1.6535e-21 0.753343 -8.35464e-06 0.75332)
(0.753333 -1.11166e-20 2.24286e-20 0.753324 -4.24429e-06 0.753344)
(0.753336 3.64973e-21 -1.39816e-21 0.753338 6.25618e-06 0.753326)
(0.753333 -2.90656e-21 -9.36896e-22 0.753343 3.42192e-06 0.753324)
(0.753333 -3.40594e-21 -1.04617e-21 0.753343 4.75787e-06 0.753324)
(0.753334 -8.12555e-21 -1.15015e-21 0.753341 -3.08718e-06 0.753325)
(0.753334 -1.12139e-20 -1.46346e-21 0.753342 -2.54751e-05 0.753324)
(0.753334 -1.59806e-20 -2.39841e-21 0.753339 -2.95034e-05 0.753327)
(0.75333 -2.20977e-20 -3.46661e-21 0.753342 -4.03797e-06 0.753328)
(0.753339 -1.8764e-20 -3.81002e-21 0.75332 2.0125e-05 0.753341)
(0.753333 -5.97215e-21 8.0263e-21 0.753307 2.82628e-07 0.75336)
(0.753334 -2.01066e-20 -1.36496e-21 0.753328 -3.62614e-05 0.753338)
(0.753333 -3.88655e-20 -7.21069e-22 0.753326 -5.92114e-05 0.75334)
(0.753333 -2.55336e-20 -2.04661e-21 0.753326 -4.37884e-05 0.753341)
(0.753335 -2.31794e-20 -2.87708e-21 0.753326 -2.79843e-05 0.75334)
(0.753332 -2.37537e-20 -3.59252e-21 0.753332 -2.85301e-05 0.753336)
(0.753338 -2.43893e-20 -4.36513e-21 0.753322 -2.00811e-05 0.753341)
(0.753326 -3.24719e-20 -5.6427e-21 0.753346 -2.57424e-05 0.753328)
(0.753342 -1.72001e-20 -3.99319e-21 0.753296 2.77554e-05 0.753361)
(0.753333 1.24514e-20 -1.15885e-20 0.753288 1.304e-05 0.753379)
(0.753328 1.31147e-21 -2.86107e-21 0.753329 5.22568e-06 0.753344)
(0.753339 2.96189e-22 -2.82434e-21 0.753312 5.58211e-05 0.753349)
(0.753332 -2.30191e-20 -2.16821e-21 0.753321 3.20239e-05 0.753348)
(0.753333 -1.81984e-20 -1.00255e-22 0.75331 4.35244e-05 0.753357)
(0.753334 5.02088e-21 7.63266e-22 0.753302 6.36137e-05 0.753364)
(0.753336 -2.65841e-21 6.08563e-22 0.753293 5.86268e-05 0.75337)
(0.753326 -1.37784e-20 -6.13009e-23 0.75331 5.49394e-05 0.753364)
(0.753347 -7.63725e-21 6.36414e-23 0.75326 7.99591e-05 0.753393)
(0.753333 -9.58043e-21 3.49478e-21 0.753283 -4.956e-06 0.753384)
(0.753327 -2.13929e-20 5.66115e-21 0.753304 -4.16228e-05 0.753369)
(0.753341 -1.92985e-20 4.77039e-21 0.753284 8.66343e-06 0.753375)
(0.753332 -2.33546e-20 4.38965e-21 0.7533 -4.70164e-07 0.753368)
(0.753333 -1.97785e-20 3.59186e-21 0.753299 3.28979e-05 0.753369)
(0.753334 -3.24069e-20 2.81171e-21 0.753292 7.74813e-05 0.753374)
(0.753336 1.00133e-20 7.3551e-21 0.753288 8.51644e-05 0.753376)
(0.753331 5.81752e-20 9.71307e-21 0.75329 8.75312e-05 0.753379)
(0.753332 7.01824e-20 1.25405e-20 0.753275 0.000134549 0.753393)
(0.753346 8.59951e-20 1.60605e-20 0.753234 0.000153825 0.75342)
(0.753332 1.37635e-20 1.16902e-20 0.75329 2.43713e-05 0.753378)
(0.753333 4.71787e-20 5.89944e-21 0.753302 7.47439e-05 0.753365)
(0.753343 9.37263e-20 3.53235e-21 0.753292 0.000166298 0.753364)
(0.753329 6.02825e-20 7.48816e-21 0.753306 9.49352e-05 0.753365)
(0.753338 8.01255e-20 9.32336e-21 0.753281 0.000114579 0.753381)
(0.753328 1.20282e-19 1.29573e-20 0.753293 0.000137178 0.753379)
(0.753337 1.44535e-19 1.34281e-20 0.753274 0.000156124 0.753389)
(0.753341 4.44102e-20 2.58295e-21 0.753292 4.74927e-05 0.753368)
(0.753335 -1.82838e-20 -9.05408e-22 0.753306 -1.50826e-06 0.753359)
(0.753333 7.13412e-21 3.30375e-21 0.75332 -3.62176e-06 0.753347)
(0.753334 1.24809e-20 9.0344e-23 0.753308 -6.06122e-06 0.753358)
(0.753346 8.94726e-21 5.13971e-22 0.753289 4.01697e-05 0.753365)
(0.753335 -1.83093e-21 4.1915e-22 0.753318 2.85997e-05 0.753347)
(0.753331 -9.21922e-22 -1.32928e-21 0.753331 -5.97297e-07 0.753337)
(0.753335 4.60667e-22 3.26992e-23 0.753324 -5.5586e-06 0.753341)
(0.753332 2.707e-22 6.37026e-22 0.753329 3.51916e-06 0.75334)
(0.753334 5.71117e-22 7.17452e-22 0.753328 -6.16336e-07 0.753338)
(0.753334 -3.97049e-22 5.88808e-22 0.753326 1.17001e-06 0.75334)
(0.753333 -8.99157e-23 6.93613e-22 0.75333 1.05875e-06 0.753337)
(0.753334 -8.78234e-22 3.66946e-22 0.753329 -3.56242e-06 0.753337)
(0.753333 -5.97414e-22 1.31487e-23 0.75333 1.27976e-06 0.753337)
(0.753333 1.17926e-22 1.15019e-23 0.753331 4.24354e-07 0.753336)
(0.753334 -3.87468e-23 -3.84468e-24 0.753331 -1.70148e-06 0.753336)
(0.753333 -3.94367e-22 -8.93094e-24 0.753331 2.04706e-06 0.753336)
(0.753333 2.43103e-23 -5.82535e-23 0.753331 -2.32373e-07 0.753336)
(0.753334 5.38974e-21 4.06575e-22 0.75333 -1.38727e-06 0.753336)
(0.753333 2.85042e-21 7.24455e-22 0.753331 1.57543e-06 0.753335)
(0.753333 -2.33243e-21 1.39149e-22 0.753332 -9.14277e-07 0.753335)
(0.753333 1.23633e-22 8.07826e-22 0.75333 -1.09578e-06 0.753336)
(0.753333 8.77287e-22 1.24211e-22 0.753331 1.82556e-08 0.753335)
(0.753333 -5.30245e-22 1.10189e-21 0.753331 -1.54091e-06 0.753336)
(0.753334 -1.03516e-22 3.12863e-23 0.753331 9.21958e-07 0.753335)
(0.753333 -8.63039e-22 6.39899e-23 0.753332 -1.07875e-06 0.753335)
(0.753333 -1.1128e-21 7.02451e-22 0.753331 -2.74722e-06 0.753336)
(0.753334 5.05944e-22 -7.09296e-24 0.753331 6.70926e-07 0.753336)
(0.753333 -2.02068e-22 4.0493e-22 0.753333 -1.35957e-06 0.753334)
(0.753334 -9.66644e-23 8.40314e-22 0.75333 -3.07551e-06 0.753336)
(0.753334 -1.56862e-22 7.03354e-23 0.753331 -6.74458e-07 0.753335)
(0.753332 2.1801e-22 7.98805e-22 0.753333 -3.67426e-06 0.753335)
(0.753334 9.70605e-22 2.62444e-22 0.75333 2.52257e-07 0.753336)
(0.753333 -6.12322e-22 1.05162e-22 0.753333 -1.63265e-06 0.753334)
(0.753334 -5.23207e-22 8.97505e-22 0.75333 -4.30205e-06 0.753336)
(0.753334 -7.75432e-23 6.42547e-23 0.753331 -1.09038e-06 0.753335)
(0.753332 -3.99822e-22 7.95887e-22 0.753334 -4.7411e-06 0.753334)
(0.753334 8.42994e-22 5.12495e-23 0.75333 -2.75457e-07 0.753336)
(0.753332 -5.39742e-22 9.61261e-23 0.753334 -1.70081e-06 0.753334)
(0.753333 -1.81209e-22 1.08429e-21 0.753332 -5.29755e-06 0.753335)
(0.753335 1.28642e-21 5.7864e-23 0.753329 -4.39387e-07 0.753336)
(0.753332 -6.24434e-22 3.13976e-22 0.753335 -1.76989e-06 0.753333)
(0.753334 6.27018e-22 1.52189e-21 0.75333 -5.35933e-06 0.753335)
(0.753334 5.46229e-22 1.7148e-22 0.753331 -1.42628e-06 0.753335)
(0.753332 2.11663e-22 1.77106e-21 0.753335 -5.86875e-06 0.753333)
(0.753335 1.38503e-21 1.66011e-22 0.753329 -8.25457e-07 0.753336)
(0.753332 2.09614e-22 1.40174e-22 0.753335 -2.01092e-06 0.753333)
(0.753334 -6.53269e-23 1.86604e-21 0.75333 -6.34283e-06 0.753335)
(0.753334 -8.93782e-22 2.87964e-22 0.753332 -1.90678e-06 0.753335)
(0.753332 -4.92167e-22 1.95177e-21 0.753336 -6.69326e-06 0.753332)
(0.753335 1.58785e-21 1.69606e-22 0.753329 -1.56223e-06 0.753336)
(0.753332 -6.90287e-22 2.60099e-22 0.753335 -2.24682e-06 0.753333)
(0.753333 -1.02967e-21 2.16197e-21 0.753334 -7.0367e-06 0.753333)
(0.753335 1.54811e-21 1.53529e-22 0.753328 -2.06647e-06 0.753336)
(0.753331 -1.03328e-21 3.1049e-22 0.753336 -2.38007e-06 0.753332)
(0.753335 -1.60472e-22 2.26226e-21 0.753331 -7.2311e-06 0.753334)
(0.753334 1.78273e-21 3.52428e-22 0.753332 -2.58099e-06 0.753335)
(0.753331 1.45274e-22 2.40909e-21 0.753338 -7.32667e-06 0.75333)
(0.753335 2.16575e-21 1.97103e-22 0.753329 -2.73158e-06 0.753336)