/*--------------------------------*- C++ -*----------------------------------*\
| =========                 |                                                 |
| \\      /  F ield         | OpenFOAM: The Open Source CFD Toolbox           |
|  \\    /   O peration     | Version:  4.1                                   |
|   \\  /    A nd           | Web:      www.OpenFOAM.org                      |
|    \\/     M anipulation  |                                                 |
\*---------------------------------------------------------------------------*/
FoamFile
{
    version     2.0;
    format      ascii;
    class       volScalarField;
    location    "17";
    object      p;
}
// * * * * * * * * * * * * * * * * * * * * * * * * * * * * * * * * * * * * * //

dimensions      [0 2 -2 0 0 0 0];

internalField   nonuniform List<scalar> 
6785
(
7822.79
7758.2
7706.75
7656.92
7610.68
7567.27
7526.53
7488.2
7452.07
7417.61
7384.61
7354.37
7326.1
7292.05
7260.02
7281.48
7263.32
7265.7
7260.87
7257.01
7253.1
7249.62
7246.81
7244.88
7243.91
7243.84
7245.27
7248.98
7251.7
7251.08
7219.58
7213.16
7222.61
7221.71
7224.69
7226.77
7228.98
7231.02
7232.9
7234.59
7236
7237.03
7237.67
7238.51
7239.99
7266.46
7263.88
7268.78
7265.06
7265.52
7263.96
7262.75
7261.31
7259.87
7258.44
7257.08
7255.92
7255.34
7255.93
7257.9
7274.49
7272.63
7276.06
7272.89
7274.6
7274.06
7274.29
7274.54
7274.94
7275.51
7276.26
7277.21
7278.42
7279.53
7280.86
7279.58
7278.87
7281.99
7280.19
7282.51
7282.71
7283.71
7284.64
7285.58
7286.55
7287.54
7288.5
7289.51
7290.23
7290.9
7290.07
7290.25
7292.76
7291.35
7293.26
7293.12
7293.86
7294.32
7294.79
7295.23
7295.68
7296.12
7296.62
7297
7297.45
7298.94
7299.37
7301.11
7299.91
7301.48
7301.12
7301.79
7301.98
7302.24
7302.36
7302.49
7302.64
7302.86
7303.12
7303.35
7302.77
7302.83
7304.07
7302.9
7304.1
7303.52
7303.98
7303.82
7303.74
7303.42
7303.12
7302.91
7302.81
7302.87
7302.74
7301.79
7300.99
7301.66
7300.26
7300.87
7299.95
7300.04
7299.53
7299.22
7298.59
7298.07
7297.79
7297.69
7297.45
7296.59
7283.69
7282.4
7282.31
7280.53
7280.31
7278.85
7278.86
7278.48
7278.09
7277.32
7276.71
7276.13
7275.41
7274.55
7273.72
7263.19
7261.11
7259.64
7257.3
7256.19
7254
7252.9
7251.39
7249.81
7247.87
7245.94
7243.98
7241.95
7240.42
7240.05
7224.83
7222.22
7221.39
7220.04
7219.76
7218.89
7219.11
7219.12
7219.23
7218.99
7218.42
7217.57
7217.14
7217.3
7218.86
7199.78
7205.67
7221.63
7236.43
7252.71
7267.8
7281.88
7292.98
7300.12
7302.74
7301.52
7296.99
7291.02
7285.91
7284.94
7140.46
7161.12
7157.34
7152.52
7147.84
7143.99
7141.27
7138.11
7128.07
7103.54
7076.52
7061.84
7066.64
7086.31
7091.44
8193.93
8194.53
8194.01
8192.69
8193.76
8192.98
8193.42
8191.58
8193.42
8195.25
8196.14
8191.6
8200.6
8200.32
8195.26
8200.71
8214.09
8212.86
8200.92
8227.18
8223.01
8210.02
8219.6
8258.17
8243.06
8221.12
8234.26
8288.48
8270.92
8221.82
8293.99
8279.04
8227.23
8238.7
8344.52
8310.01
8203.88
8319.42
8301.14
8198.21
8199.99
8388.67
8312.79
8159.58
8163.64
8396.87
8330.71
8078.27
8277.56
8269.83
8051.6
8024.27
8376.58
8256.62
7958.44
7936.85
8350.67
8257.8
7817.11
8123.43
8136.61
7792.43
7730.65
8249.35
8155.87
7614.37
7982.39
8004.79
7611.42
7522
8150.49
7982.86
7510.6
7438.73
8095.67
7982.65
7390.74
7755.25
7902.78
7343.12
7699.47
8131.24
8102.85
8027.66
7939.15
7884.95
7860.71
7844.6
7819.16
7785.22
7773.9
7758.38
8125.93
7776.72
7656.21
7615.71
7614.11
7614.7
7588.57
7561.23
7470.47
7570.49
7463.48
7363.7
7326.64
7301.03
7250.65
7190.99
7129.16
7088.98
7023.42
7052.47
7106.4
6995.15
6948.36
6924.79
6892.78
6846.4
6804.09
6749.66
6793.72
6787.98
6661.7
6606.66
6571.37
6533.84
6489.75
6466.03
6399.84
6278.17
6345.32
6193.14
6140.95
6112.56
6043.25
5965.69
5916.14
5843.21
5686.95
5735.25
5505.08
5403.26
5353.99
5275.45
5165.87
5036.41
4943.97
4813.75
4394.07
4520.9
4153.36
3940.14
3809.7
3635.32
3422.66
3158.16
2803.46
1825.47
2169.9
1539.17
540.71
1936.55
2553.72
1768.17
1658.74
1586.98
1599.84
1649.11
1424.26
1275.59
1376.07
1278.48
1151.46
1213.12
1132.83
1337.2
1301.37
1166.01
1256.47
1178.21
1413.08
1349.16
1134.59
1430.59
1317.89
1148.62
1197.34
1104.57
1369.93
1162.74
976.218
997.691
907.275
1133.08
935.409
683.188
886.704
721.335
535.762
503.225
399.456
476.269
336.376
201.128
163.481
74.8626
91.7539
15.4196
-86.4455
-31.0778
-91.4778
-144.373
-108.058
-160.58
0.915493
-61.7494
-95.1958
-3.42504
-58.8267
259.117
141.71
-88.3051
515.311
228.951
13.6417
231.72
48.3248
923.224
273.684
-137.431
166.185
-148.973
1195.18
259.183
-1075.02
1271.53
-148.063
-1311.71
-925.486
-1201.19
-0.225233
-6.25877
-2.89306
-3.16329
-2.28578
-1.90303
-1.39453
-1.12166
-0.992678
-1.14981
-1.62421
-2.52939
-3.95919
-6.05727
-8.91802
-12.6659
-17.3907
-23.1323
-29.8357
-37.2503
-44.7547
-50.7498
-55.8255
-174.31
-305.397
-331.89
-288.822
-240.848
-132.905
-61.0204
-20.8689
32.2981
12.8478
4.25419
27.8937
58.1038
84.8994
98.0433
107.239
124.898
143.13
153.951
160.885
181.794
191.419
145.128
80.9922
33.3095
23.5445
12.2047
17.0044
4.87196
-5.33157
171.697
98.2932
68.5198
69.3988
27.5773
-6.3639
-22.2609
-27.1889
-27.4326
-25.0967
-19.3911
-9.83435
2.90617
13.5189
15.3805
13.4851
12.2442
15.0856
23.8087
14.4661
-2.62999
-26.196
-28.4009
-23.9327
-17.4419
27.7638
5.35568
-5.17486
0.879863
0.692585
2.60236
3.17096
3.92376
3.98336
3.70134
2.78489
1.23115
-1.22244
-4.81588
-9.99462
-17.1448
-26.8025
-39.4441
-55.4303
-74.8806
-97.4627
-121.991
-145.164
-169.462
-365.151
-587.891
-630.518
-555.142
-473.03
-319.34
-195.265
-106.477
-22.4356
-11.5128
15.9565
69.556
126.57
177.965
213.623
245.696
278.489
305.113
323.009
333.526
370.953
398.068
323.817
191.35
89.478
64.9557
47.8508
58.2141
20.0578
-19.7546
275.444
180.613
199.298
217.506
108.123
2.46433
-48.466
-57.7764
-50.576
-39.3273
-24.6592
-6.70325
10.5837
24.8944
24.6488
25.8283
30.1643
32.0621
58.5078
88.5074
111.028
44.1937
5.01331
-32.5666
-37.9481
-7.18061
5.30778
-9.02834
-0.126524
-0.493055
2.56171
3.52701
4.80426
4.98123
4.57291
3.06152
0.388611
-3.92226
-10.3111
-19.5453
-32.284
-49.4019
-71.6596
-99.6276
-133.503
-172.773
-215.569
-257.658
-305.805
-508.557
-719.884
-735.45
-638.678
-547.236
-393.244
-261.609
-156.008
-68.9956
-27.8574
28.7627
93.6155
157.431
215.203
260.267
304.637
344.477
372.082
390.798
401.46
433.203
455.098
385.968
253.983
144.357
108.336
86.6702
87.5562
30.0609
-33.3332
194.729
141.545
202.847
229.252
136.81
43.4667
-7.76299
-24.7823
-26.1568
-21.8189
-12.0147
1.1371
14.6339
30.5119
34.3985
39.1478
48.038
52.4785
91.7408
122.689
145.461
33.735
-20.5084
-65.7079
-53.5621
38.5192
6.3853
-9.30408
1.25942
0.980274
4.94358
6.1724
7.75798
7.84871
7.11781
4.86845
1.00452
-5.13952
-14.1987
-27.2688
-45.3135
-69.5981
-101.232
-141.079
-189.507
-245.973
-308.198
-371.832
-446.902
-651.2
-850.888
-849.928
-736.127
-634.161
-464.564
-316.864
-196.353
-100.73
-39.1174
36.9243
111.758
183.703
248.319
300.664
354.541
402.811
434.106
454.188
465.961
490.675
501.795
436.247
312.33
201.864
152.801
123.332
116.437
40.6088
-64.2789
104.588
100.003
196.338
228.947
158.122
81.3513
29.4798
1.17944
-11.6896
-14.7976
-8.01038
5.15118
20.8244
37.2924
42.7627
50.8723
63.7709
67.8408
119.169
162.072
201.89
46.5565
-28.8809
-92.0911
-73.0018
41.3328
6.21803
-9.54811
2.03383
1.93203
6.63525
8.1122
9.95332
9.9593
8.91485
5.95469
0.921695
-7.04911
-18.8089
-35.8005
-59.3075
-90.9944
-132.332
-184.491
-248.042
-322.466
-405.219
-492.283
-595.474
-796.56
-1007.6
-1011.83
-880.09
-757.692
-563.253
-388.46
-246.512
-134.834
-53.3826
42.0937
131.127
216.38
292.132
354.565
420.081
478.663
515.483
537.826
550.918
572.889
578.088
509.376
380.206
261.259
197.976
163.146
143.839
50.1334
-101.838
40.0532
85.5459
216.229
257.425
191.113
112.641
52.9752
14.9533
-4.97175
-11.5241
-5.31755
8.4533
25.0253
43.2191
51.3568
62.3162
78.2515
81.6289
142.008
190.397
245.438
46.2316
-47.8679
-124.305
-91.1364
32.7083
5.98462
-8.70801
3.34487
3.57086
8.85841
10.552
12.5616
12.4329
11.0263
7.33124
1.11917
-8.67057
-23.112
-44.009
-72.9842
-112.121
-163.279
-227.97
-307.013
-400.008
-504.32
-616.544
-748.528
-943.11
-1176.35
-1189.38
-1030.15
-879.133
-664
-462.445
-297.689
-170.307
-66.6667
49.773
153.37
252.031
338.856
411.683
489.248
557.416
598.906
622.997
636.755
657.006
658.965
586.97
449.964
321.219
244.46
208.262
171.913
59.8536
-148.018
-22.4047
78.4268
238.577
290.238
227.256
144.445
76.1366
28.9135
2.46041
-7.63785
-2.50599
11.5984
29.3253
48.9609
59.3663
72.8189
90.815
92.2274
159.063
212.832
288.539
46.448
-66.9884
-157.652
-124.416
31.3505
5.42904
-7.43482
4.65471
5.32534
11.041
12.9339
15.0477
14.7695
12.992
8.57863
1.21181
-10.3672
-27.4668
-52.266
-86.7441
-133.416
-194.55
-272.02
-366.933
-479.073
-605.865
-744.585
-905.162
-1096.16
-1353.07
-1369.96
-1174.23
-991.287
-760.288
-532.507
-345.071
-203.499
-77.2095
59.5593
176.563
287.487
384.161
466.428
555.312
632.091
677.509
702.855
716.977
735.134
733.781
659.971
518.194
382.468
293.177
258.046
202.23
71.8194
-198.759
-88.8765
71.9482
257.585
320.899
263.777
176.777
98.8391
41.5008
8.2196
-5.33542
-0.800946
14.1941
33.5627
54.6579
67.2957
82.6683
101.734
100.579
170.726
226.979
326.227
42.2788
-90.4515
-194.368
-145.871
-2.53629
4.71881
-5.68399
6.10781
7.33934
13.3518
15.4376
17.6039
17.17
15.019
9.9067
1.41052
-11.9263
-31.654
-60.337
-100.331
-154.59
-225.811
-316.251
-427.336
-559.106
-709.17
-875.373
-1063.99
-1254.66
-1538.91
-1556.89
-1320.26
-1104.37
-859.072
-602.741
-391.096
-235.31
-86.6115
69.3868
199.48
322.674
429.023
520.347
620.302
705.389
754.701
781.195
795.647
811.741
806.988
731.618
586.479
445.769
344.792
312.181
236.218
88.1289
-247.586
-155.63
68.1934
278.575
354.639
302.9
208.404
118.503
50.6442
11.3675
-4.66621
0.070643
16.3868
37.5691
60.0283
74.8545
91.717
110.905
106.64
177.218
233.528
359.914
35.7629
-117.049
-233.521
-180.941
-30.5895
3.86798
-3.62901
7.5958
9.48611
15.6741
17.9533
20.1333
19.5526
17.0405
11.2626
1.67457
-13.3788
-35.696
-68.2323
-113.744
-175.629
-257.023
-360.579
-488.077
-639.867
-813.852
-1008.14
-1223.69
-1412.75
-1733.25
-1753.72
-1473.4
-1222.64
-962.265
-674.833
-436.864
-266.557
-95.1475
79.4707
222.723
358.503
474.674
574.965
686.1
779.235
832.393
859.95
874.612
888.886
881.1
804.067
655.785
510.894
399.412
370.18
274.47
110.702
-287.619
-221.138
67.5991
302.772
392.032
345.187
239.861
135.87
57.2357
12.6377
-5.15925
0.294061
18.2976
41.5443
65.4102
82.2621
100.107
118.596
110.995
179.308
232.384
388.759
26.5048
-147.388
-275.624
-225.377
-59.8263
2.89977
-1.3296
9.11415
11.7513
18.014
20.4976
22.6691
21.9634
19.1135
12.7104
2.07286
-14.6521
-39.5147
-75.8619
-126.879
-196.402
-288.02
-404.785
-548.857
-720.957
-919.363
-1141.97
-1382.85
-1573.44
-1936.48
-1961.21
-1633.73
-1344.86
-1067.74
-747.175
-481.535
-296.706
-102.005
90.7246
246.986
395.34
521.195
630.229
752.517
853.229
909.974
938.43
953.115
965.667
955.147
876.596
725.782
577.355
456.744
431.114
317.009
141.408
-311.885
-285.578
68.6556
329.126
431.156
390.038
271.818
151.887
61.9911
12.3064
-6.73647
-0.126851
19.9117
45.3736
70.6469
89.4494
107.909
125.042
114.078
177.903
224.167
412.839
15.207
-181.286
-320.238
-266.532
-114.091
1.84196
1.14029
10.6307
14.0881
20.3417
23.0493
25.2045
24.4068
21.251
14.2688
2.62861
-15.7182
-43.0752
-83.1794
-139.669
-216.82
-318.673
-448.682
-609.401
-801.994
-1025.18
-1276.12
-1541.26
-1742.53
-2151.23
-2180.12
-1800.42
-1469.82
-1174.4
-818.677
-524.964
-325.304
-106.836
103.316
272.305
433.073
568.332
685.902
819.061
926.869
986.914
1016.12
1030.67
1041.48
1028.32
948.492
796.187
644.915
516.456
494.045
363.731
182.256
-314.264
-340.359
70.9669
357.18
471.094
436.971
304.632
167.06
65.3323
10.5968
-9.27626
-1.12953
21.2661
49.1583
75.9399
96.5628
115.31
130.61
116.484
174.07
209.745
432.009
2.45524
-218.649
-366.584
-315.693
-167.11
0.707689
3.728
12.1292
16.4702
22.6514
25.6128
27.7595
26.9122
23.4888
15.9758
3.382
-16.5331
-46.3269
-90.1219
-152.033
-236.772
-348.829
-492.049
-669.395
-882.552
-1130.78
-1410.15
-1699.77
-1920.29
-2381.82
-2412.89
-1973.22
-1597.6
-1282.53
-889.353
-567.899
-352.289
-109.667
117.119
298.601
471.646
616.047
742.056
885.714
1000.19
1063.27
1093.12
1107.4
1116.46
1100.61
1019.74
867.086
713.557
578.338
558.091
414.568
234.808
-291.582
-361.113
77.2956
386.32
511.461
485.447
338.619
182.082
67.8305
7.89629
-12.6131
-2.64393
22.3889
52.8749
81.2512
103.649
122.496
135.666
118.787
168.908
190.505
446.333
-10.72
-258.846
-413.555
-368.239
-219.441
-0.479909
6.38614
13.595
18.873
24.9391
28.1938
30.353
29.5051
25.8551
17.8598
4.36257
-17.0632
-49.2279
-96.6324
-163.89
-256.151
-378.336
-534.663
-728.516
-962.2
-1235.64
-1543.98
-1859.87
-2108.85
-2630.64
-2660.98
-2151.91
-1728.65
-1392.61
-959.269
-610.787
-377.604
-110.416
132.205
325.996
511.168
664.444
798.834
952.628
1073.3
1139.16
1169.56
1183.42
1190.7
1172.08
1090.4
938.548
783.39
642.303
622.484
469.476
299.771
-242.903
-328.057
91.3743
416.094
551.859
534.741
373.976
197.713
70.0685
4.62203
-16.5557
-4.57537
23.3365
56.6095
86.7233
110.839
129.676
140.573
121.565
163.529
168.307
455.954
-22.9024
-300.796
-459.282
-420.058
-290.492
-1.70379
9.07098
15.018
21.2796
27.2103
30.807
33.0109
32.215
28.3801
19.9491
5.59926
-17.2743
-51.7341
-102.652
-175.161
-274.846
-407.032
-576.285
-786.426
-1040.5
-1339.32
-1677.59
-2023.45
-2313.79
-2896.15
-2923.5
-2335.71
-1863.29
-1504.97
-1028.24
-653.328
-401.106
-108.907
148.732
354.675
551.754
713.602
856.314
1019.86
1146.25
1214.54
1245.41
1258.69
1264.15
1242.59
1160.43
1010.54
854.478
708.338
686.602
528.326
376.657
-169.836
-245.55
115.657
447.104
592.097
584.17
410.732
214.548
72.609
1.18957
-20.8002
-6.73728
24.2311
60.4407
92.4338
118.218
137.013
145.638
125.342
159.039
145.491
461.19
-32.1285
-342.683
-501.111
-472.646
-339.926
-2.94183
11.7419
16.393
23.6794
29.4763
33.4721
35.7611
35.0697
31.0896
22.2665
7.11601
-17.1357
-53.8033
-108.121
-185.764
-292.741
-434.751
-616.671
-842.787
-1117.03
-1441.42
-1810.92
-2192
-2539.17
-3181.69
-3201.47
-2523.4
-2001.66
-1619.8
-1096.02
-695.057
-422.592
-105.009
166.797
384.758
593.461
763.553
914.533
1087.37
1219.08
1289.36
1320.61
1333.18
1336.72
1312.04
1229.79
1083.05
926.848
776.451
750.018
590.921
463.945
-76.5835
-128.357
153.842
481.276
632.064
633.274
448.919
233.077
76.0815
-1.94554
-24.925
-8.79852
25.3137
64.5441
98.5594
125.886
144.613
151.099
130.571
156.536
124.769
462.568
-35.8754
-381.895
-535.81
-514.747
-393.238
-4.17262
14.3603
17.7186
26.0683
31.7552
36.2124
38.6318
38.0944
34.0052
24.8308
8.93362
-16.6178
-55.3934
-112.979
-195.618
-309.724
-461.325
-655.571
-897.262
-1191.41
-1541.61
-1944.05
-2366.7
-2786.05
-3486.01
-3494.97
-2713.94
-2143.97
-1737.22
-1162.46
-735.948
-441.737
-98.6288
186.473
416.343
636.328
814.331
973.532
1155.18
1291.8
1363.55
1395.14
1406.84
1408.38
1380.35
1298.38
1156.1
1000.58
846.593
812.574
657.061
559.657
31.3969
11.2972
212.98
522.246
672.728
682.307
488.849
253.91
81.2393
-4.21216
-28.4347
-10.3215
26.9081
69.1341
105.214
133.903
152.518
157.114
137.61
157.092
109.055
460.913
-31.1284
-414.95
-559.124
-546.956
-430.885
-5.3726
16.8902
18.999
28.4489
34.0696
39.0531
41.65
41.3105
37.1441
27.6565
11.0699
-15.6928
-56.4628
-117.169
-204.642
-325.681
-486.584
-692.738
-949.531
-1263.29
-1639.68
-2077.12
-2548.54
-3054.77
-3802.54
-3802.49
-2906.5
-2290.5
-1857.19
-1227.4
-776.312
-458.272
-89.6575
207.873
449.551
680.408
865.989
1033.37
1223.31
1364.41
1437.09
1468.96
1479.65
1479.09
1447.39
1366.05
1229.6
1075.74
918.648
874.568
726.655
661.85
149.393
164.576
300.133
574.285
717.178
732.731
531.37
278.035
89.0018
-4.81553
-30.7077
-10.8099
29.3646
74.4599
112.468
142.316
160.727
163.771
146.71
161.727
101.236
457.475
-14.6003
-437.412
-566.697
-562.442
-445.885
-6.51688
19.2992
20.2435
30.8293
36.4458
42.0193
44.8396
44.735
40.5187
30.7549
13.5415
-14.3337
-56.9698
-120.635
-212.761
-340.504
-510.362
-727.937
-999.31
-1332.42
-1735.45
-2210.31
-2738.33
-3344.54
-4134.43
-4124.51
-3099.79
-2441.54
-1979.46
-1290.75
-816.381
-472.213
-78.0163
231.148
484.542
725.767
918.585
1094.09
1291.76
1436.89
1509.91
1542.05
1551.59
1548.85
1513.09
1432.88
1303.5
1152.36
992.475
936.737
799.716
768.506
274.86
326.091
414.449
640.015
768.686
786.452
577.811
306.89
100.576
-2.64292
-30.9015
-9.68227
33.0715
80.742
120.356
151.14
169.215
171.097
158.005
171.359
103.911
454.072
16.9002
-444.12
-554.253
-553.462
-433.472
-7.57836
21.5608
21.4669
33.2235
38.9115
45.1342
48.22
48.3807
44.1379
34.1348
16.3647
-12.5115
-56.8707
-123.323
-219.904
-354.088
-532.501
-760.957
-1046.37
-1398.6
-1828.87
-2343.83
-2936.42
-3654.61
-4477.05
-4457.2
-3292.31
-2597.32
-2103.49
-1352.6
-856.143
-483.752
-63.759
256.44
521.505
772.504
972.18
1155.74
1360.55
1509.17
1582
1614.33
1622.61
1617.55
1577.48
1499.02
1377.73
1230.36
1067.9
999.869
876.254
877.459
406.666
491.599
544.931
721.15
829.212
844.982
629.301
342.019
117.5
3.75099
-27.9319
-6.21783
38.5012
88.1623
128.975
160.395
177.96
179.087
171.523
186.75
119.154
453.194
65.9737
-429.531
-518.404
-517.595
-379.277
-8.5299
23.6551
22.6893
35.6497
41.4945
48.4186
51.8064
52.2566
48.0077
37.8018
19.553
-10.1945
-56.1246
-125.189
-226.006
-366.336
-552.853
-791.625
-1090.57
-1461.76
-1919.91
-2477.81
-3142.58
-3982.75
-4826.44
-4799.3
-3483.45
-2757.8
-2228.39
-1413.11
-895.42
-492.991
-47.0639
283.85
560.631
820.776
1026.85
1218.36
1429.68
1581.19
1653.43
1685.76
1692.66
1685.16
1640.68
1564.43
1452.3
1309.68
1144.81
1064.9
956.255
986.337
544.283
656.362
681.588
820.861
901.23
910.021
686.309
384.447
141.411
15.9996
-20.5443
0.426587
46.1496
96.9033
138.442
170.106
186.961
187.723
187.193
208.452
148.366
458.009
134.127
-388.409
-457.496
-451.798
-298.847
-9.34529
25.5721
23.9349
38.1297
44.2207
51.8897
55.6099
56.369
52.1339
41.7633
23.1176
-7.35759
-54.6965
-126.199
-231.014
-377.157
-571.29
-819.814
-1131.84
-1521.89
-2008.65
-2612.28
-3356.09
-4326.03
-5192.6
-5152.7
-3671.84
-2922.83
-2352.97
-1472.43
-933.968
-499.891
-28.1634
313.422
602.066
870.82
1082.74
1281.97
1499.14
1652.87
1724.16
1756.28
1761.7
1751.69
1702.41
1629.06
1527.24
1390.27
1223.14
1133.05
1039.69
1092.56
686.293
816.821
821.348
938.898
988.208
984.885
749.872
434.96
173.925
35.6652
-7.43672
11.0974
56.4247
107.197
148.862
180.313
196.246
197
204.876
236.751
192.196
472.209
221.55
-317.233
-371.602
-355.02
-172.443
-10.0004
27.3123
25.231
40.687
47.1128
55.5614
59.6386
60.7222
56.5234
46.0351
27.0757
-3.98554
-52.5576
-126.327
-234.883
-386.466
-587.707
-845.448
-1170.18
-1579.03
-2095.12
-2747.05
-3575.67
-4681.73
-5569.75
-5509.82
-3856.73
-3092.72
-2475.8
-1530.73
-971.524
-504.334
-7.26371
345.172
645.816
922.858
1140.13
1346.62
1568.93
1724.16
1794.13
1825.81
1829.68
1817.06
1762.28
1692.77
1602.58
1472.04
1302.9
1205.42
1126.43
1194.18
829.302
970.928
962.664
1066.65
1091.21
1073.93
822.97
495.157
216.759
64.1714
12.5536
26.5662
69.6866
119.257
160.31
191.05
205.864
206.946
224.396
271.646
250.558
499.274
328.719
-216.758
-261.744
-230.683
-45.1026
-10.4754
28.8858
26.6067
43.3455
50.1908
59.4444
63.8983
65.3193
61.1834
50.6351
31.4457
-0.0687616
-49.7003
-125.558
-237.577
-394.195
-602.033
-868.516
-1205.64
-1633.25
-2179.3
-2881.64
-3799.23
-5044.3
-5936.79
-5855.99
-4040.22
-3267.74
-2595.19
-1588.19
-1007.76
-506.058
15.4738
379.147
691.799
976.906
1199.36
1412.37
1639.04
1795.02
1863.26
1894.28
1896.57
1881.16
1820.73
1755.8
1678.39
1554.85
1384.22
1282.81
1216.28
1290.4
968.368
1117.32
1103.35
1195.29
1206.12
1178.4
908.684
566.911
271.132
102.627
40.109
47.2939
86.1939
133.17
172.797
202.304
215.856
217.626
245.57
312.848
322.587
541.432
457.536
-92.1813
-130.512
-80.2369
105.521
-10.7566
30.3125
28.0918
46.1275
53.4717
63.5476
68.394
70.1625
66.1183
55.5718
36.2333
4.38781
-46.1448
-123.885
-239.065
-400.297
-614.245
-889.066
-1238.32
-1684.63
-2261.06
-3015.28
-4023.76
-5405.39
-6299.49
-6193.07
-4227
-3446.95
-2709.42
-1644.93
-1042.13
-504.699
39.9524
415.406
739.945
1032.86
1260.69
1479.32
1709.43
1865.39
1931.47
1961.61
1962.3
1944.17
1878.79
1818.9
1754.71
1638.5
1467.31
1365.53
1309.03
1381.23
1097.67
1255.8
1242.24
1322.47
1326.31
1294.6
1006.62
650.419
336.626
150.829
75.0516
73.1202
105.894
148.859
186.251
213.99
226.259
229.134
268.246
359.795
406.481
599.592
607.548
51.0051
16.7746
86.0708
270.726
-10.8372
31.6216
29.7169
49.0521
56.9706
67.8794
73.1352
75.2511
71.3278
60.8443
41.4385
9.36353
-41.9176
-121.307
-239.331
-404.764
-624.383
-907.204
-1268.35
-1733.21
-2340.17
-3146.86
-4245.54
-5759.61
-6675.18
-6530.86
-4420.56
-3627.77
-2817.23
-1700.96
-1073.87
-500.074
66.3138
454.013
790.173
1090.59
1324.13
1547.71
1780.1
1935.21
1998.7
2027.74
2026.82
2006.25
1936.98
1882.29
1831.56
1722.72
1552.34
1453.17
1404.31
1467.44
1214.29
1386.69
1378.83
1448.88
1447.68
1416.25
1112.86
743.387
411.179
207.004
116.263
103.35
128.466
166.13
200.543
225.985
237.096
241.586
292.351
411.734
499.621
673.999
773.262
209.572
174.2
260.597
414.724
-10.7179
32.8489
31.5111
52.1353
60.6994
72.4484
78.1376
80.5839
76.815
66.4512
47.0571
14.8357
-37.0407
-117.827
-238.366
-407.613
-632.55
-923.093
-1295.85
-1778.97
-2416.26
-3274.99
-4460.46
-6101.27
-7055.42
-6859.99
-4619.82
-3806.3
-2918.02
-1756.35
-1102.28
-492.199
94.9747
495.055
842.456
1150.05
1389.53
1617.84
1851.05
2004.41
2064.91
2092.58
2090.02
2067.28
1995.01
1945.76
1908.86
1807.23
1639.15
1544.63
1501.05
1550.15
1320.47
1509.9
1511.58
1574.01
1570.28
1537.49
1222.87
842.313
492.208
268.909
162.111
136.974
153.357
184.719
215.518
238.194
248.422
255.138
317.937
467.843
598.979
764.576
946.694
380.645
336.68
442.66
555.693
-10.4064
34.0333
33.4976
55.3905
64.6686
77.2696
83.4106
86.1716
82.5967
72.3975
53.0682
20.7754
-31.5391
-113.455
-236.177
-408.888
-638.879
-936.92
-1320.93
-1821.81
-2488.82
-3398.08
-4664.11
-6420.11
-7419.97
-7158.74
-4821.56
-3977.93
-3011.67
-1811.18
-1126.96
-481.096
126.345
538.642
896.782
1211.28
1456.83
1689.91
1922.38
2072.93
2130.03
2156.05
2151.79
2127.13
2052.53
2009.25
1986.48
1891.83
1726.94
1638.26
1597.59
1630.37
1419.24
1624.99
1638.94
1696.75
1696.21
1654.51
1333.45
944.096
577.481
334.817
211.225
173.062
179.931
204.342
231.035
250.603
260.36
270.034
345.22
527.367
701.583
870.893
1119.63
560.627
499.698
621.496
693.156
-9.91745
35.214
35.6914
58.831
68.8891
82.3724
88.9608
92.0423
88.6876
78.6809
59.4379
27.1354
-25.4434
-108.204
-232.799
-408.681
-643.529
-948.848
-1343.62
-1861.58
-2557.25
-3514.38
-4852.36
-6702.83
-7751.66
-7404.46
-5025.93
-4138.33
-3098.39
-1865.15
-1147.7
-466.876
160.534
584.965
953.149
1274.25
1526
1763.92
1994.34
2140.72
2193.98
2218.04
2211.96
2185.38
2109.37
2072.86
2064.25
1976.38
1814.29
1732.35
1692.47
1708.1
1511.24
1731.33
1761.58
1816.43
1824.79
1765.52
1442.98
1046.63
665.366
403.695
262.846
211.093
207.84
224.815
247.032
263.302
273.1
286.632
374.59
589.726
804.885
992.071
1284.26
745.54
659.893
791.201
812.252
-9.27144
36.4271
38.1
62.4692
73.3704
87.7736
94.8056
98.2253
95.0908
85.2761
66.1173
33.8593
-18.7766
-102.098
-228.303
-407.136
-646.68
-958.993
-1363.92
-1898.01
-2620.8
-3622.22
-5022.29
-6943.62
-8040.92
-7594.79
-5235.69
-4282.89
-3178.45
-1917.41
-1164.17
-449.781
197.389
634.261
1011.62
1338.92
1596.91
1839.71
2067.24
2207.79
2256.67
2278.44
2270.4
2241.73
2165.48
2136.6
2142.01
2060.71
1899.52
1825.58
1784.83
1782.53
1597.84
1829.87
1880
1932.43
1952.33
1870.14
1550.7
1148.79
754.842
474.893
316.602
250.838
237.019
246.112
263.564
276.478
286.914
305.389
406.581
654.571
906.961
1126.79
1433.66
931.344
814.893
951.783
937.323
-8.49357
37.7038
40.7241
66.3156
78.1238
93.4314
100.941
104.725
101.811
92.141
73.0339
40.9016
-11.5492
-95.1734
-222.785
-404.421
-648.511
-967.419
-1381.7
-1930.75
-2678.7
-3720.06
-5172.77
-7149.41
-8285.67
-7745.93
-5447.25
-4407.24
-3252.38
-1966.67
-1175.97
-429.947
236.797
686.667
1072.31
1405.27
1669.39
1916.93
2141.26
2274.26
2318.02
2337.18
2326.99
2296.44
2220.89
2200.42
2219.54
2144.39
1981.1
1917.15
1874.35
1853.99
1682.62
1923.45
1992.88
2044.54
2075.09
1968.88
1656.24
1250.2
845.336
548.003
372.372
292.226
267.487
268.295
280.776
290.386
302.117
326.804
441.845
721.785
1006.63
1273.13
1562.4
1114.07
963.249
1100.17
1038.7
-7.61181
39.0676
43.5582
70.3768
83.1726
99.3067
107.343
111.527
108.834
99.2135
80.1115
48.2416
-3.7705
-87.4804
-216.355
-400.708
-649.161
-974.122
-1396.78
-1959.36
-2730.09
-3806.63
-5303.96
-7329.53
-8482.89
-7865.29
-5646.04
-4509.9
-3320.39
-2011.41
-1182.91
-407.294
278.863
742.18
1135.42
1473.35
1743.3
1995.26
2216.26
2340.45
2377.99
2394.17
2381.56
2349.29
2275.6
2264.26
2296.62
2226.65
2057.72
2006.84
1960.99
1922.85
1767.37
2014.03
2099.25
2152.48
2189.23
2063.02
1759.44
1350.78
936.564
622.887
430.135
335.273
299.261
291.466
298.861
305.332
319.065
351.392
481.104
791.453
1103.54
1427.63
1667
1289.57
1104.74
1244.81
1126.68
-6.65444
40.5352
46.592
74.6519
88.533
105.441
114.021
118.631
116.104
106.406
87.2973
55.8822
4.5446
-79.0799
-209.138
-396.159
-648.701
-978.997
-1408.89
-1983.33
-2774.15
-3880.89
-5416.12
-7484.78
-8627.17
-7946.29
-5817.62
-4593.18
-3381.43
-2050.26
-1185.04
-381.645
323.797
800.783
1201.11
1543.22
1818.5
2074.38
2291.87
2406.77
2436.59
2449.34
2433.98
2399.88
2329.62
2328.04
2372.99
2306.32
2128.51
2094.52
2045.03
1989.29
1851.64
2101.66
2199.06
2255.82
2292.83
2154.15
1860.39
1450.49
1028.39
699.562
489.894
380.074
332.382
315.755
318.017
321.682
338.17
379.679
525.118
863.792
1198.01
1582.43
1747.54
1453.49
1238.53
1381.59
1207.67
-5.64768
42.1167
49.814
79.133
94.1802
111.881
121.009
126.041
123.551
113.636
94.5755
63.8344
13.3731
-70.0447
-201.26
-390.906
-647.124
-981.847
-1417.7
-2002.15
-2810.08
-3941.98
-5508.96
-7608.19
-8712.82
-7981.52
-5955.54
-4659.47
-3433.06
-2082.33
-1182.52
-352.797
371.79
862.51
1269.5
1615.05
1894.93
2154.03
2367.7
2473.42
2493.98
2502.64
2484.12
2448.29
2382.11
2391.65
2448.44
2382
2193.41
2179.88
2126.82
2054.45
1935.87
2186.26
2292.96
2354.02
2387.6
2243.61
1959.18
1549.33
1120.74
778.051
551.706
426.786
366.961
341.368
338.538
339.839
359.856
412.204
574.62
939.014
1290.16
1725.84
1809.19
1600.59
1363.97
1513.83
1280.67
-4.61413
43.818
53.2168
83.8237
100.077
118.622
128.333
133.724
131.085
120.851
101.961
72.1037
22.6756
-60.4587
-192.838
-385.026
-644.339
-982.414
-1422.87
-2015.31
-2837.16
-3989.25
-5581.82
-7693.12
-8737.51
-7970.55
-6058.2
-4708.19
-3472.43
-2107.44
-1175.41
-320.547
423.009
927.422
1340.73
1689.03
1972.49
2233.96
2443.44
2540.44
2550.49
2554.07
2531.89
2494.34
2432.84
2454.86
2522.69
2452.06
2253.56
2262.41
2206.8
2118.14
2020.3
2268.49
2382.21
2446.13
2476.93
2332
2055.85
1647.28
1213.6
858.352
615.674
475.477
403.122
368.507
360.806
360.316
384.652
449.541
630.224
1017.22
1379.64
1849.08
1860.44
1724.97
1481.01
1653
1333.75
-3.57205
45.6414
56.7963
88.7418
106.209
125.642
135.987
141.601
138.616
128.037
109.476
80.6808
32.3898
-50.4148
-183.977
-378.541
-640.191
-980.41
-1424.02
-2022.32
-2854.83
-4022.29
-5634.06
-7735.92
-8703.05
-7917.28
-6125
-4737.93
-3498.17
-2125.95
-1163.58
-284.747
477.518
995.593
1414.9
1765.36
2051.18
2313.85
2518.77
2607.82
2606.76
2603.65
2577.26
2537.7
2482.79
2517.44
2595.16
2514.22
2311.27
2341.16
2285.64
2181.07
2104.45
2350.4
2468.71
2530.37
2562.46
2418.84
2150.3
1744.32
1307
940.445
681.907
526.226
441.112
397.499
385.294
383.705
413.111
492.197
692.377
1098.51
1466.39
1950.2
1910.31
1822.22
1589.09
1795.53
1376.88
-2.5355
47.5858
60.5467
93.8893
112.576
132.946
143.927
149.57
146.082
135.214
117.137
89.5337
42.4346
-40.0112
-174.766
-371.417
-634.479
-975.553
-1420.78
-2022.79
-2862.66
-4040.93
-5665.26
-7735.89
-8614.72
-7826.27
-6156.26
-4749.46
-3511.07
-2138.23
-1146.71
-245.35
535.119
1067.06
1492.15
1844.2
2131.11
2393.41
2593.3
2675.32
2663.51
2651.64
2620.27
2578.38
2531.65
2579.03
2664.86
2565.19
2369.41
2415.8
2363.83
2244.47
2191.11
2435.12
2553.72
2604.64
2642.51
2502.86
2242.38
1840.44
1400.94
1024.32
750.523
579.297
481.326
428.861
412.522
410.583
445.844
540.675
761.329
1183.03
1551.17
2032.06
1967.6
1891.68
1688.07
1941.55
1424.3
-1.5148
49.6509
64.4682
99.2555
119.192
140.545
152.081
157.538
153.468
142.415
124.945
98.6064
52.7187
-29.3435
-165.271
-363.568
-626.978
-967.576
-1412.87
-2016.4
-2860.4
-4045.26
-5675.39
-7694.82
-8480.13
-7703.24
-6154.05
-4745.3
-3512.76
-2144.16
-1124.39
-202.349
595.427
1141.86
1572.55
1925.59
2212.44
2472.41
2666.53
2742.66
2721.73
2698.8
2661.02
2616.56
2579.07
2639.16
2730.5
2600.87
2429.54
2487.76
2441.87
2306.42
2285.44
2522.01
2634.52
2670.09
2715.68
2583.12
2332.01
1935.6
1495.44
1109.97
821.667
635.07
524.255
463.134
442.977
441.495
483.535
595.456
837.027
1270.91
1635.52
2100.22
2039.8
1938.55
1778.97
2092.96
1447.01
-0.517397
51.8378
68.5716
104.844
126.081
148.43
160.362
165.439
160.8
149.667
132.881
107.825
63.1476
-18.4947
-155.52
-354.852
-617.442
-956.232
-1400.05
-2002.95
-2847.99
-4035.59
-5664.9
-7616.33
-8307.99
-7554.79
-6121.75
-4727.6
-3504.05
-2143.01
-1096.41
-155.668
658.273
1219.94
1656.09
2009.53
2295.3
2550.82
2737.92
2809.14
2782.01
2746.51
2699.69
2652.38
2626.37
2697.51
2790.16
2617.51
2492.07
2558.89
2520.01
2369.04
2387.88
2604.8
2707.89
2734.28
2783.04
2659.91
2419.18
2029.76
1590.46
1197.42
895.518
693.929
570.46
500.875
477.16
476.991
526.773
656.757
919.068
1362.13
1721.35
2161.7
2129.66
1975.85
1863.97
2248.08
1498.17
0.451605
54.1431
72.8441
110.645
133.255
156.548
168.683
173.258
168.128
156.985
140.911
117.104
73.6325
-7.52819
-145.494
-345.072
-605.623
-941.322
-1382.17
-1982.37
-2825.55
-4012.45
-5634.63
-7505.23
-8107.09
-7387.07
-6063.19
-4697.3
-3484.74
-2134.07
-1062.84
-105.131
723.946
1301.06
1742.74
2095.95
2379.66
2628.81
2807.19
2873.24
2842.95
2796.83
2737.03
2685.93
2674.48
2753.94
2841.17
2614.73
2557.68
2629.58
2597.57
2440.63
2491.5
2679.16
2775.65
2803.21
2845.53
2733.71
2503.8
2122.88
1685.92
1286.7
972.267
756.239
620.456
542.622
515.567
517.633
576.079
724.557
1006.81
1456.55
1810.29
2223.62
2230.91
2024.69
1948.81
2410.32
1509.38
1.38968
56.5629
77.2577
116.646
140.691
164.827
176.975
181.033
175.502
164.376
148.991
126.359
84.1019