/*--------------------------------*- C++ -*----------------------------------*\
| =========                 |                                                 |
| \\      /  F ield         | OpenFOAM: The Open Source CFD Toolbox           |
|  \\    /   O peration     | Version:  4.1                                   |
|   \\  /    A nd           | Web:      www.OpenFOAM.org                      |
|    \\/     M anipulation  |                                                 |
\*---------------------------------------------------------------------------*/
FoamFile
{
    version     2.0;
    format      ascii;
    class       volVectorField;
    location    "17";
    object      U;
}
// * * * * * * * * * * * * * * * * * * * * * * * * * * * * * * * * * * * * * //

dimensions      [0 1 -1 0 0 0 0];

internalField   nonuniform List<vector> 
6785
(
(1.42123e-13 -0.60475 16.1071)
(1.68215e-13 -6.49076 12.4983)
(-4.33702e-14 -4.72518 12.8355)
(6.69248e-14 -4.18686 12.6177)
(2.47148e-14 -3.57113 12.4601)
(-1.78043e-14 -3.09474 12.2516)
(6.44025e-14 -2.70461 12.0129)
(1.98908e-14 -2.41473 11.7328)
(-1.43054e-14 -2.21922 11.4094)
(2.96743e-14 -2.08825 11.0566)
(1.64125e-14 -2.03042 10.6827)
(-2.29431e-14 -2.2247 10.2102)
(6.38234e-14 -2.59951 9.59988)
(-2.95384e-14 -1.80422 9.03565)
(-1.36452e-13 0.913448 6.92055)
(3.63119e-13 -7.37365 26.1807)
(2.27487e-13 -16.576 21.8429)
(-3.20157e-14 -11.6821 22.3139)
(2.58671e-13 -11.8781 20.9434)
(1.69579e-14 -10.9357 19.9689)
(5.91004e-14 -10.2076 18.9446)
(2.46321e-13 -9.46994 17.9321)
(1.77469e-14 -8.75636 16.9142)
(1.11759e-13 -8.06648 15.8751)
(2.0012e-13 -7.39311 14.8654)
(3.07537e-14 -6.76822 14.0411)
(1.36102e-13 -6.31793 13.1945)
(2.38357e-13 -5.63186 10.9827)
(-1.05565e-13 -2.89148 5.85787)
(-1.45525e-13 1.71784 -0.641673)
(1.39927e-13 -10.2304 28.2644)
(2.15553e-13 -17.7743 24.4524)
(-5.64561e-14 -12.0179 25.0303)
(-8.51527e-15 -12.8223 22.9044)
(3.16046e-14 -11.3399 21.7717)
(-1.85747e-14 -10.5278 20.3717)
(-3.96774e-14 -9.62816 19.0368)
(6.30729e-14 -8.79611 17.7118)
(-1.97551e-14 -8.02205 16.4335)
(-7.89947e-14 -7.31508 15.225)
(6.04479e-14 -6.52205 13.8187)
(-1.56305e-13 -4.99458 10.9928)
(-5.14788e-13 -1.52617 4.80174)
(-9.56549e-14 3.02205 -3.42237)
(-5.35625e-13 2.01014 -4.37845)
(2.43124e-13 -11.1634 27.3145)
(5.39088e-14 -17.721 24.1905)
(6.80248e-14 -11.8325 24.6598)
(-3.52196e-14 -13.5473 21.8721)
(-1.57351e-13 -11.5637 20.8911)
(1.33849e-13 -11.0893 19.1896)
(-1.17756e-13 -10.1782 17.7648)
(-1.65507e-13 -9.44136 16.3)
(1.6942e-13 -8.7341 14.9091)
(-1.21022e-13 -8.10402 13.6012)
(-2.54312e-13 -7.44037 12.2016)
(1.24088e-13 -6.23763 9.87773)
(-1.35443e-13 -3.64364 5.30659)
(-1.22377e-12 -0.647358 0.914689)
(-1.23792e-12 1.00557 -4.34363)
(1.47687e-13 -11.273 25.7771)
(-1.45959e-13 -17.5464 24.6008)
(-6.62759e-14 -12.0753 24.2936)
(-1.44772e-13 -13.7077 21.3441)
(-3.82425e-13 -11.7072 20.3789)
(-4.80324e-14 -11.2706 18.6041)
(-2.27087e-13 -10.3833 17.1212)
(-5.04737e-13 -9.60458 15.6114)
(-1.53953e-13 -8.83944 14.1379)
(-2.39678e-13 -8.10535 12.7258)
(-6.08371e-13 -7.38796 11.3414)
(-3.64645e-13 -6.44675 9.64526)
(-3.06047e-13 -4.82067 6.77797)
(-1.27806e-12 -2.37305 3.45779)
(-1.94377e-12 -0.358688 -1.55836)
(2.57802e-13 -11.1006 24.246)
(-5.34806e-14 -17.1602 24.881)
(8.44948e-14 -12.2636 24.0006)
(-1.40428e-13 -13.4192 21.0573)
(-2.81648e-13 -11.5632 20.0569)
(5.13776e-16 -11.0628 18.3281)
(-2.70362e-13 -10.1887 16.841)
(-4.01785e-13 -9.3635 15.3469)
(-6.95676e-14 -8.56616 13.8785)
(-2.23805e-13 -7.78469 12.486)
(-4.01376e-13 -7.03853 11.1551)
(-1.71023e-13 -6.1945 9.76132)
(-3.49173e-13 -5.07817 7.74435)
(-5.40977e-13 -3.1611 5.05928)
(1.01686e-12 -0.855065 -0.41753)
(5.08855e-13 -10.925 23.1206)
(9.38655e-14 -16.6416 24.5687)
(3.20784e-13 -12.221 23.5899)
(-1.26608e-13 -13.1426 20.6346)
(-2.89053e-13 -11.3511 19.6509)
(2.63329e-13 -10.8919 17.9384)
(-6.92676e-14 -10.0395 16.4958)
(-2.62192e-13 -9.28573 15.1048)
(2.23448e-13 -8.59948 13.7937)
(-4.23437e-14 -7.91429 12.5455)
(-2.10817e-13 -7.23989 11.3027)
(3.46768e-14 -6.48664 10.0714)
(-1.52413e-14 -5.65836 8.59283)
(-6.0638e-13 -4.25039 6.6543)
(8.69392e-13 -2.12542 2.03332)
(3.44431e-13 -11.0509 22.6757)
(9.41209e-14 -16.0341 23.873)
(2.92511e-13 -11.916 23.1319)
(-1.55679e-13 -12.9715 20.1044)
(-1.53515e-13 -10.9208 19.2654)
(2.97629e-13 -10.6959 17.4059)
(-8.70245e-14 -9.71542 16.0909)
(-1.80069e-13 -9.12474 14.7391)
(2.26535e-13 -8.53757 13.4978)
(1.16806e-13 -8.00626 12.3172)
(-3.1024e-14 -7.52778 11.2801)
(1.85889e-13 -7.0437 10.4646)
(2.76405e-13 -6.53814 9.69663)
(-3.13136e-13 -5.63087 8.55504)
(5.54995e-15 -3.72284 4.95479)
(3.44481e-13 -11.6254 22.871)
(8.8667e-14 -15.3191 23.3596)
(4.56239e-14 -11.7617 22.7414)
(-1.11494e-13 -12.6173 19.8826)
(-7.92668e-14 -10.454 18.997)
(-4.032e-14 -10.2059 16.9753)
(-6.42467e-14 -8.87656 15.4137)
(-1.16974e-13 -8.06578 13.4152)
(-2.81751e-13 -7.33822 11.8335)
(-3.08871e-14 -7.12194 10.9088)
(-1.89747e-13 -7.09497 10.601)
(-2.95765e-13 -7.26248 10.789)
(4.24648e-13 -7.34203 11.0421)
(3.4121e-14 -7.05256 10.6666)
(-2.92309e-13 -5.18842 7.96963)
(1.98502e-13 -12.4315 23.8365)
(7.65689e-14 -15.273 24.0525)
(-1.02177e-13 -11.9599 23.0893)
(-2.92395e-13 -12.3871 20.693)
(-6.28889e-14 -10.3221 19.6482)
(-2.515e-13 -9.69552 17.543)
(-3.59581e-13 -7.82186 15.3321)
(-4.79715e-13 -6.18148 12.3209)
(-1.19191e-12 -4.72642 10.0698)
(-1.81852e-12 -4.22858 9.05064)
(-1.9679e-12 -4.4608 9.20636)
(-1.5942e-12 -5.52069 10.4506)
(-5.63765e-13 -6.99242 12.2683)
(6.4791e-14 -7.83895 13.1879)
(-5.43243e-13 -5.66418 10.155)
(6.33573e-14 -12.5327 23.9699)
(1.22514e-13 -16.2962 26.2061)
(-4.65462e-13 -12.6623 24.3836)
(-2.86992e-13 -12.9193 22.1599)
(-3.01428e-14 -10.8919 21.0885)
(-6.61751e-13 -10.2684 19.1864)
(-4.37249e-13 -8.48979 17.2118)
(-6.12999e-13 -6.54961 14.0704)
(-1.96949e-12 -4.1248 10.8126)
(-2.60919e-12 -2.63293 8.57584)
(-4.05287e-12 -1.55211 6.94521)
(-4.87229e-12 -1.19477 6.21867)
(-3.52216e-12 -1.87952 6.91517)
(-2.15809e-12 -2.7236 7.71027)
(-6.80836e-13 -1.87639 5.64773)
(-3.11002e-14 -12.0504 23.1181)
(2.49557e-13 -17.4825 28.4266)
(-6.55589e-13 -13.8221 26.0727)
(-2.89739e-13 -13.8657 23.7542)
(6.50223e-14 -11.9456 22.8022)
(-8.74405e-13 -11.5434 21.0748)
(-4.01943e-13 -10.1086 19.4579)
(-2.82687e-13 -8.74747 17.0288)
(-1.73e-12 -6.52454 13.9686)
(-2.232e-12 -4.62115 11.1056)
(-4.17167e-12 -2.96668 8.578)
(-5.99645e-12 -1.52016 6.31353)
(-5.48933e-12 0.396869 3.31714)
(-5.02874e-12 3.51635 -2.72342)
(-2.72988e-12 4.21576 -5.82795)
(-2.64509e-13 -11.2102 20.6839)
(1.71781e-13 -18.3647 29.306)
(-3.424e-13 -16.2236 27.7861)
(-5.42851e-13 -15.3752 24.5933)
(6.60368e-14 -13.6271 22.7124)
(-6.97763e-13 -12.8575 20.5646)
(-7.27977e-13 -11.4498 18.4712)
(2.77983e-13 -10.2387 16.2244)
(-9.45137e-13 -8.68699 13.6781)
(-1.54051e-12 -7.08812 10.8946)
(-1.68745e-12 -5.57215 8.05471)
(-3.2294e-12 -3.91022 5.20361)
(-3.9207e-12 -2.18737 1.91899)
(-3.35951e-12 0.649024 -2.70893)
(-3.19995e-12 1.16575 -4.67013)
(-3.4161e-13 -4.55903 11.7621)
(-5.03938e-14 -14.1022 27.4839)
(-4.73435e-13 -11.4972 26.5126)
(-3.97818e-13 -10.2116 24.643)
(-2.7461e-13 -9.04856 23.9844)
(-4.57171e-13 -8.54383 23.0734)
(-2.87389e-13 -8.09446 21.993)
(-3.87641e-13 -7.91055 20.3498)
(-8.00049e-13 -7.68685 18.1941)
(-6.83569e-13 -7.41198 15.6166)
(-7.22416e-13 -6.87387 11.7379)
(-1.21878e-12 -7.11234 9.49335)
(-1.30219e-12 -8.43015 10.3991)
(-1.38424e-12 -9.35026 12.3065)
(-2.15284e-12 -9.86657 14.9257)
(-3.85332e-13 -34.6655 64.9468)
(-3.76524e-13 -22.7405 54.6259)
(-4.78827e-13 -15.8826 44.1821)
(-4.54083e-13 -10.963 36.9804)
(-4.68107e-13 -6.2989 28.6997)
(-4.54196e-13 -1.54445 19.7412)
(-5.08695e-13 3.93042 9.34614)
(-5.64082e-13 9.64269 -2.09119)
(-4.79703e-13 14.7709 -12.5863)
(-4.94228e-13 18.0312 -20.8981)
(-5.22928e-13 19.2235 -25.2908)
(-5.52511e-13 17.5038 -22.8336)
(-7.87477e-13 11.2281 -15.9189)
(-8.32062e-13 5.48068 -7.08189)
(-5.63277e-13 5.3137 -0.11066)
(-1.11999e-15 0.162578 -0.159598)
(-3.56373e-15 0.64453 -3.38643)
(-2.97694e-15 1.0854 -2.87569)
(-2.91522e-15 1.56673 -3.31544)
(-2.77768e-15 1.60235 -3.2791)
(-3.6841e-15 2.67217 -4.38007)
(-3.11144e-15 2.51863 -2.7768)
(-1.63013e-15 3.01948 -2.96508)
(-7.08585e-15 3.01275 -3.01205)
(4.53359e-14 4.1049 -3.85021)
(5.2867e-14 3.75741 -2.54205)
(5.12547e-14 4.16175 -2.53896)
(5.51983e-14 5.49957 -3.47292)
(3.88413e-14 4.60325 -2.29248)
(3.73523e-14 5.3522 -2.54718)
(3.60323e-14 5.12897 -2.68882)
(3.64814e-14 6.76483 -3.95058)
(3.5284e-14 6.00781 -2.7456)
(3.27664e-14 6.51236 -2.71461)
(3.48782e-14 8.8241 -4.57383)
(2.46927e-14 7.23831 -3.06208)
(2.15527e-14 8.41507 -3.28184)
(2.70138e-14 7.90723 -3.24856)
(3.03583e-14 11.1324 -5.80882)
(2.18027e-14 9.27224 -3.84503)
(2.2667e-14 10.6911 -3.96465)
(1.64613e-14 10.1023 -3.82537)
(2.02289e-14 13.7818 -7.00123)
(1.0322e-14 11.9998 -4.73948)
(9.8291e-15 12.8185 -4.31255)
(1.3179e-14 17.8351 -8.1063)
(5.57456e-15 14.2928 -5.37833)
(6.35309e-15 16.2992 -5.44034)
(2.62076e-15 15.5552 -5.17903)
(2.47244e-15 20.9647 -9.45764)
(1.69154e-15 17.8369 -6.55314)
(1.58902e-15 18.9398 -6.04622)
(1.50499e-15 26.1535 -10.7224)
(1.18256e-15 20.5716 -7.31423)
(3.93354e-16 23.2762 -7.41945)
(2.92264e-15 22.261 -7.11186)
(3.69995e-15 30.2475 -12.145)
(2.76463e-15 24.1896 -8.39948)
(2.75158e-15 27.3804 -8.45018)
(2.6493e-15 26.2867 -8.13174)
(4.37803e-15 34.4114 -13.2546)
(1.26686e-15 28.5314 -9.32839)
(1.51578e-15 30.0707 -8.63664)
(2.05662e-15 40.6848 -13.6141)
(4.35605e-15 31.4468 -9.34443)
(5.30148e-15 35.0864 -9.26647)
(6.23593e-15 33.7256 -8.76916)
(9.9393e-15 44.5823 -13.5381)
(9.30576e-15 35.0699 -9.22497)
(1.03245e-14 39.2261 -8.96018)
(1.3226e-14 37.6885 -8.37937)
(1.98205e-14 48.2062 -12.6129)
(1.73657e-14 39.2688 -8.45451)
(1.79235e-14 40.9119 -7.4883)
(2.55577e-14 54.438 -10.8696)
(2.07524e-14 41.5509 -6.89024)
(2.16941e-14 45.6663 -6.34651)
(2.09326e-14 43.8698 -5.55516)
(3.31438e-14 55.7168 -7.88002)
(2.69219e-14 44.856 -4.47559)
(2.4896e-14 46.233 -3.50834)
(3.20592e-14 61.2368 -4.48959)
(2.1501e-14 46.231 -1.77116)
(1.96255e-14 50.4107 -0.998239)
(1.69709e-14 47.9469 -0.2192)
(1.97098e-14 61.9017 0.231797)
(1.28414e-14 47.3558 1.81001)
(1.06459e-14 51.8402 2.67912)
(8.61705e-15 49.111 3.2578)
(5.49608e-15 61.7301 5.08789)
(3.14614e-15 48.5893 5.65372)
(1.23102e-16 49.6502 6.00234)
(-4.04033e-16 63.2509 9.37476)
(-6.70957e-15 49.5776 8.94297)
(1.57384e-14 46.7259 8.41471)
(-5.79299e-14 51.5656 10.8856)
(-5.40467e-14 48.0298 11.4248)
(-5.2792e-14 46.5603 11.8517)
(3.58355e-14 57.5727 13.8045)
(-3.9609e-14 49.1166 15.0563)
(-6.24914e-14 49.0897 14.6184)
(-7.95671e-14 48.9449 14.2344)
(-8.75911e-14 48.5879 14.2449)
(-9.79699e-14 48.4768 14.3394)
(-1.15257e-13 48.0758 14.454)
(-1.27806e-13 48.1948 14.5254)
(-1.57226e-13 47.1166 13.1608)
(-6.47613e-14 54.4801 18.5979)
(-2.1039e-13 46.7881 14.5141)
(-2.32298e-13 47.3779 13.8977)
(-2.56495e-13 46.9093 13.4503)
(-2.49905e-13 46.7069 12.0202)
(-2.68521e-13 46.1876 11.458)
(-2.93087e-13 45.6601 10.842)
(-3.16694e-13 45.8249 10.4283)
(-3.29469e-13 44.6784 8.63141)
(-2.80995e-13 52.1599 14.6075)
(-3.48832e-13 43.9652 8.10183)
(-3.43471e-13 44.0745 6.50864)
(-3.30726e-13 43.692 4.66807)
(-3.14615e-13 43.251 2.38209)
(-2.9856e-13 43.0438 -0.146161)
(-2.8566e-13 42.9965 -2.45075)
(-2.78474e-13 42.8786 -5.37862)
(-2.7225e-13 43.2825 -8.30119)
(-2.87312e-13 42.5341 -10.4858)
(-2.06227e-13 50.4042 -8.00974)
(-2.81349e-13 40.7285 -10.1437)
(-2.98614e-13 41.3743 -10.3324)
(-3.16291e-13 41.5333 -9.74381)
(-3.34633e-13 41.2941 -8.35273)
(-3.53259e-13 41.4492 -6.63971)
(-3.76884e-13 41.1142 -3.62483)
(-3.95664e-13 41.3606 -0.576184)
(-4.2319e-13 40.517 1.88815)
(-3.58869e-13 49.1696 4.63786)
(-4.53912e-13 39.63 5.24601)
(-4.64919e-13 40.6281 6.17052)
(-4.69745e-13 40.6141 7.78739)
(-4.79131e-13 40.5672 8.40989)
(-4.88196e-13 40.7086 8.87805)
(-4.96228e-13 40.5276 9.35314)
(-5.02299e-13 41.1086 9.40694)
(-5.06948e-13 39.9889 10.9673)
(-4.70497e-13 51.6586 10.067)
(-5.22566e-13 40.2997 11.3704)
(-5.25116e-13 41.4664 11.1574)
(-5.25558e-13 41.7984 10.9544)
(-5.26254e-13 41.531 11.8365)
(-5.27181e-13 41.8646 12.7989)
(-5.29807e-13 42.0472 13.5606)
(-5.3342e-13 42.5619 14.2187)
(-5.40405e-13 41.9085 15.2493)
(-5.00044e-13 55.0646 12.6443)
(-5.48475e-13 42.4441 17.5275)
(-5.50826e-13 44.2791 18.2818)
(-5.49702e-13 44.7632 19.3033)
(-5.44344e-13 44.63 20.5541)
(-5.36412e-13 45.0197 21.7613)
(-5.34798e-13 45.1383 24.275)
(-5.28175e-13 45.3918 26.1334)
(-5.17699e-13 45.953 27.8414)
(-5.05949e-13 45.1876 30.4835)
(-4.55259e-13 61.2229 27.1048)
(-4.77983e-13 47.1035 35.256)
(-4.62145e-13 49.2739 37.8265)
(-4.48182e-13 50.0182 40.0016)
(-4.37342e-13 49.8942 42.3416)
(-4.29599e-13 50.265 45.0224)
(-4.25243e-13 50.5118 48.1425)
(-4.17274e-13 50.8977 52.7445)
(-4.05201e-13 50.3693 57.2192)
(-3.69512e-13 71.9845 53.6495)
(-3.93376e-13 54.3239 61.2422)
(-3.92612e-13 56.9181 64.4093)
(-2.92353e-13 58.0833 49.309)
(-3.33888e-13 50.4799 54.3799)
(-3.51509e-13 47.9683 54.864)
(-2.26964e-13 35.0977 35.9778)
(-2.81831e-13 44.0887 41.8457)
(-1.9306e-13 29.6699 29.2188)
(-2.22408e-13 30.0168 31.3748)
(-2.09746e-13 27.0671 24.7472)
(-1.24698e-13 19.5192 13.9049)
(-1.2091e-13 21.6439 9.97595)
(-1.03383e-13 20.247 -2.28852)
(-5.47423e-14 12.6482 -6.0108)
(-7.68437e-14 21.4943 -16.2444)
(-5.40256e-14 14.346 -14.7638)
(-7.8614e-14 18.1479 -21.1377)
(-1.14201e-13 20.5768 -25.9553)
(-7.46007e-14 13.4608 -17.9476)
(-1.11532e-13 25.1097 -23.9944)
(-7.71531e-14 17.659 -17.3041)
(-9.59918e-14 22.5319 -20.7777)
(-1.06199e-13 24.9775 -22.2451)
(-6.30982e-14 18.8867 -14.4866)
(-7.34205e-14 25.9409 -16.7782)
(-8.07124e-14 29.1971 -17.105)
(-4.67269e-14 20.6421 -10.7163)
(-5.88715e-14 33.4084 -12.9442)
(-3.52476e-14 24.7866 -8.20826)
(-4.13651e-14 29.4631 -9.07604)
(-3.96997e-14 33.7932 -7.63127)
(-2.16546e-14 24.5299 -4.20525)
(-2.57021e-14 37.4746 -4.01972)
(-1.53305e-14 27.4591 -1.81249)
(-1.65762e-14 32.2079 -1.39809)
(-1.4948e-14 34.5605 0.624048)
(-8.00323e-15 25.8957 1.14395)
(-8.36682e-15 32.8472 2.04946)
(-9.53057e-15 33.5574 4.41389)
(-5.66814e-15 23.6669 3.24474)
(-7.60303e-15 33.5076 5.95125)
(-5.53596e-15 23.7465 4.99586)
(-7.32907e-15 27.0787 6.65864)
(-5.68885e-15 26.1403 9.49492)
(-1.82841e-15 18.5096 6.81051)
(6.02751e-16 24.8025 10.6474)
(1.94556e-15 16.9772 7.75591)
(3.82853e-15 18.819 9.72363)
(4.63015e-15 16.9696 10.9869)
(3.13308e-15 12.398 6.50296)
(2.89863e-15 14.2972 7.54346)
(2.92179e-15 14.5375 6.31202)
(2.00514e-15 9.36739 2.85137)
(2.75922e-15 15.3637 1.13992)
(2.87344e-15 10.5382 -0.711696)
(4.7556e-15 12.3484 -2.27459)
(6.27213e-15 17.0443 -5.907)
(4.2375e-15 11.8807 -4.56377)
(6.38179e-15 21.4441 -8.9115)
(4.65397e-15 15.9866 -7.02219)
(5.9113e-15 20.2518 -10.1123)
(8.08458e-15 26.3028 -13.9403)
(5.89735e-15 21.8388 -9.49632)
(7.354e-15 28.3919 -12.9169)
(1.06299e-14 36.7094 -16.8355)
(7.39775e-15 27.464 -10.9667)
(1.09113e-14 44.9515 -17.1877)
(7.92389e-15 35.0871 -12.3564)
(1.01407e-14 41.6255 -16.4728)
(1.14925e-14 53.3208 -20.9613)
(7.21121e-15 40.6304 -13.6409)
(1.03165e-14 63.9834 -21.0773)
(7.24516e-15 49.644 -15.1132)
(8.48249e-15 59.3907 -20.1933)
(1.15188e-14 70.7412 -25.331)
(7.25866e-15 57.9396 -16.858)
(7.68727e-15 73.1825 -22.2719)
(6.96533e-15 87.5291 -28.1035)
(3.96752e-15 65.2051 -18.3206)
(3.48658e-15 101.816 -28.4498)
(2.05914e-15 77.3423 -19.8518)
(1.01448e-16 97.0755 -29.8032)
(-1.6635e-15 16.2542 44.3182)
(-1.66922e-15 18.7431 39.9546)
(-1.61515e-15 20.7764 38.2142)
(-1.5333e-15 22.6879 35.972)
(-1.41423e-15 24.6981 34.3026)
(-1.26301e-15 26.5843 32.8333)
(-1.08757e-15 28.4751 31.6717)
(-8.99017e-16 30.2902 30.7246)
(-7.10299e-16 32.0753 29.941)
(-5.34301e-16 33.8121 29.2247)
(-3.81359e-16 35.501 28.481)
(-2.56883e-16 37.1124 27.6133)
(-1.6099e-16 38.6015 26.5343)
(-9.10519e-17 39.8936 25.1682)
(-4.43815e-17 40.8826 23.4499)
(-1.69281e-17 41.4165 21.3371)
(-3.06424e-18 41.3132 18.8134)
(1.34884e-18 40.346 15.8778)
(-7.46957e-19 38.23 12.5384)
(-8.42087e-18 34.5587 8.80308)
(-2.20252e-17 28.6439 4.70101)
(-4.12622e-17 19.1064 0.298342)
(-5.89774e-17 0.317529 -5.07153)
(-3.27128e-17 -17.8588 -9.31132)
(-2.04303e-17 -29.654 -11.513)
(-3.63597e-17 -40.0673 -13.1463)
(-9.68563e-17 -46.7941 -14.7729)
(-2.02577e-16 -50.4979 -14.9011)
(-3.82814e-16 -47.0742 -15.0937)
(-3.24585e-16 -45.4912 -8.17085)
(-3.44926e-15 -49.4283 -6.64767)
(-4.10515e-15 -52.2372 -1.89134)
(-3.77081e-15 -62.1903 1.36753)
(-3.85986e-15 -69.6264 0.958602)
(-4.27924e-15 -71.6926 0.71062)
(-4.95256e-15 -72.5088 -0.263269)
(-5.49817e-15 -73.3236 -0.432981)
(-5.58693e-15 -76.8798 -1.3777)
(-5.10784e-15 -80.2856 -2.19257)
(-4.18958e-15 -72.4042 -3.91693)
(-2.8754e-15 -57.6775 -4.5673)
(-1.68909e-15 -44.5124 -5.81637)
(-6.94937e-16 -29.0634 -6.5765)
(-1.24498e-16 -26.8224 -8.02409)
(3.99496e-17 -45.7835 -10.7506)
(1.90482e-17 -61.7459 -13.8577)
(-4.97345e-17 -58.6719 -15.5819)
(-9.32503e-17 -41.9214 -15.4254)
(-9.99245e-17 -22.6221 -14.8046)
(-9.88419e-17 -10.7872 -13.714)
(-1.02537e-16 6.83054 -16.8225)
(-9.27001e-17 28.6505 -26.6686)
(-7.88434e-17 30.0656 -23.7808)
(-1.58627e-17 -2.98192 -17.8761)
(1.91831e-19 -43.0873 -19.3997)
(-5.34892e-19 -68.8516 -22.9175)
(-2.46399e-19 -98.1484 -27.2952)
(-1.16293e-20 -112.627 -29.8338)
(6.37047e-20 -107.649 -30.1846)
(7.9209e-20 -90.8362 -29.0965)
(7.82417e-20 -71.2271 -27.6151)
(7.75324e-20 -53.5943 -26.4804)
(8.11337e-20 -38.9058 -25.945)
(8.80815e-20 -26.6508 -26.0166)
(1.33611e-19 -16.3856 -26.7259)
(-5.65895e-20 -7.82474 -27.7497)
(-3.91336e-19 -0.56643 -27.3183)
(6.55775e-18 6.97822 -23.512)
(-3.48976e-17 14.7648 -20.037)
(2.6063e-17 22.0484 -18.619)
(4.3531e-16 26.6489 -17.514)
(-1.39134e-15 41.009 -13.6065)
(-3.25824e-15 73.0947 -14.8003)
(-2.85807e-15 97.3636 -24.1944)
(-1.83159e-15 104.247 -34.7323)
(-9.47795e-16 103.026 -42.6926)
(1.78496e-16 98.1518 -47.4164)
(1.13764e-15 94.0461 -47.6984)
(6.21608e-15 87.3992 -44.0524)
(-1.74198e-15 16.9295 40.1224)
(-1.70198e-15 19.6294 36.5132)
(-1.60733e-15 21.3634 35.2586)
(-1.48177e-15 23.2587 33.4906)
(-1.31846e-15 25.1511 32.3538)
(-1.12773e-15 26.9603 31.37)
(-9.21705e-16 28.7725 30.6793)
(-7.15037e-16 30.5322 30.1436)
(-5.22237e-16 32.2854 29.7043)
(-3.5553e-16 34.0204 29.2481)
(-2.22746e-16 35.7375 28.6775)
(-1.25504e-16 37.4054 27.899)
(-5.95652e-17 38.9759 26.8377)
(-1.8404e-17 40.371 25.4334)
(3.34132e-18 41.4794 23.6338)
(1.11709e-17 42.142 21.4099)
(1.09431e-17 42.1702 18.7594)
(5.89276e-18 41.3343 15.6918)
(-2.77347e-18 39.3495 12.2199)
(-1.59962e-17 35.8091 8.34721)
(-3.56626e-17 30.0214 4.09064)
(-6.20979e-17 20.6306 -0.526304)
(-8.55961e-17 3.14642 -6.38078)
(-3.96696e-17 -19.6053 -11.3903)
(-2.07251e-17 -31.6666 -12.3619)
(-3.5026e-17 -41.436 -13.0283)
(-9.40031e-17 -47.8469 -14.469)
(-1.97961e-16 -51.4586 -14.6014)
(-3.78122e-16 -48.5038 -14.7545)
(-3.13476e-16 -46.7864 -8.0377)
(-3.40102e-15 -50.2594 -6.4246)
(-4.10729e-15 -53.0551 -1.8029)
(-3.77093e-15 -62.4849 1.40972)
(-3.86035e-15 -69.5234 1.03603)
(-4.27983e-15 -71.4479 0.8107)
(-4.95258e-15 -72.1857 -0.165497)
(-5.49785e-15 -72.9271 -0.355041)
(-5.58727e-15 -76.381 -1.31807)
(-5.11032e-15 -79.682 -2.13687)
(-4.19606e-15 -71.7519 -3.85597)
(-2.88812e-15 -56.94 -4.5129)
(-1.70501e-15 -43.5699 -5.75774)
(-7.1579e-16 -27.734 -6.44936)
(-1.3672e-16 -24.9001 -7.79696)
(3.90637e-17 -44.0348 -10.7232)
(2.09459e-17 -60.5826 -14.0107)
(-4.79133e-17 -58.2368 -15.8078)
(-9.20691e-17 -42.0078 -15.6254)
(-1.00161e-16 -22.8644 -14.9832)
(-9.90598e-17 -10.533 -13.6541)
(-1.03507e-16 9.00466 -18.4604)
(-9.06267e-17 29.6743 -28.9127)
(-7.58902e-17 28.5829 -26.3805)
(-2.363e-17 -0.696714 -17.9596)
(-1.28113e-19 -41.6249 -19.3366)
(-3.94827e-19 -67.5293 -22.7313)
(-2.5646e-19 -97.0047 -27.2331)
(-1.70782e-20 -112.186 -29.9246)
(6.30323e-20 -107.814 -30.3023)
(7.93218e-20 -91.3116 -29.186)
(7.84202e-20 -71.7365 -27.6601)
(7.75241e-20 -53.9868 -26.4825)
(8.08514e-20 -39.1412 -25.901)
(8.73225e-20 -26.7117 -25.9226)
(1.33985e-19 -16.2952 -26.5837)
(-7.72412e-20 -7.84518 -26.8016)
(-1.22752e-19 -0.997454 -25.093)
(7.5485e-18 6.15865 -22.1849)
(-3.8393e-17 14.205 -19.7924)
(1.97365e-17 21.7126 -18.3618)
(4.6398e-16 25.8892 -16.6644)
(-1.32659e-15 40.66 -12.6788)
(-2.34341e-15 74.7916 -14.3087)
(-1.17439e-15 100.457 -24.4201)
(2.48796e-16 107.078 -35.3947)
(1.40385e-15 104.944 -43.2375)
(2.75419e-15 98.8761 -47.4734)
(4.05067e-15 93.2044 -47.2062)
(8.67337e-15 84.7556 -40.1766)
(-1.7493e-15 17.1335 38.2932)
(-1.66881e-15 19.9189 35.2437)
(-1.54904e-15 21.5299 34.2579)
(-1.39776e-15 23.41 32.7716)
(-1.21306e-15 25.2431 31.9043)
(-1.00819e-15 27.0225 31.153)
(-7.97321e-16 28.8068 30.6634)
(-5.95905e-16 30.5572 30.2777)
(-4.17174e-16 32.3164 29.9365)
(-2.70396e-16 34.0745 29.5255)
(-1.59806e-16 35.829 28.9547)
(-8.38287e-17 37.5457 28.1407)
(-3.59827e-17 39.1729 27.0209)
(-8.54035e-18 40.6309 25.5464)
(4.19679e-18 41.8063 23.6734)
(7.18441e-18 42.5358 21.3785)
(4.96538e-18 42.6283 18.6643)
(-6.96277e-19 41.8533 15.5429)
(-1.00742e-17 39.9272 12.0256)
(-2.52748e-17 36.4432 8.10858)
(-4.89158e-17 30.7053 3.79148)
(-8.12843e-17 21.3583 -0.949827)
(-1.1109e-16 4.38356 -6.85785)
(-5.73308e-17 -18.8227 -13.2356)
(-2.32047e-17 -31.1535 -14.104)
(-3.26757e-17 -40.7975 -13.3533)
(-9.05978e-17 -47.3197 -14.0911)
(-1.9251e-16 -51.1591 -14.1745)
(-3.72263e-16 -49.0503 -14.3586)
(-3.00656e-16 -47.6414 -7.85425)
(-3.34467e-15 -50.9431 -6.11142)
(-4.10939e-15 -53.9555 -1.63364)
(-3.77086e-15 -62.8203 1.54025)
(-3.86104e-15 -69.4562 1.18889)
(-4.28077e-15 -71.3279 0.965756)
(-4.95277e-15 -72.0917 -0.0213677)
(-5.49756e-15 -72.8508 -0.231633)
(-5.58766e-15 -76.2419 -1.21276)
(-5.11323e-15 -79.4595 -2.04162)
(-4.20381e-15 -71.5634 -3.76586)
(-2.90338e-15 -56.8415 -4.4394)
(-1.72401e-15 -43.5116 -5.68294)
(-7.40021e-16 -27.7848 -6.31904)
(-1.51289e-16 -24.7673 -7.58035)
(3.77237e-17 -43.5305 -10.6904)
(2.32836e-17 -60.1157 -14.1801)
(-4.57308e-17 -58.1013 -16.0834)
(-9.05718e-17 -42.1086 -15.9025)
(-1.00353e-16 -23.0712 -15.2743)
(-9.93728e-17 -10.0498 -13.6599)
(-1.04104e-16 10.408 -19.7012)
(-8.89815e-17 30.3665 -29.8563)
(-7.28201e-17 27.6005 -27.8903)
(-2.93126e-17 -3.13094 -18.3304)
(-6.48641e-19 -41.291 -19.2722)
(-2.24885e-19 -66.7742 -22.4639)
(-2.63079e-19 -96.2776 -27.1459)
(-2.45576e-20 -111.865 -30.0271)
(6.20624e-20 -107.865 -30.449)
(7.94692e-20 -91.5396 -29.3083)
(7.86479e-20 -71.9519 -27.736)
(7.75333e-20 -54.0901 -26.5103)
(8.04416e-20 -39.1098 -25.8638)
(8.68327e-20 -26.5554 -25.8751)
(1.33843e-19 -16.1926 -26.3219)
(-9.46743e-20 -8.08754 -25.935)
(-3.49099e-19 -1.49839 -24.4995)
(9.07662e-18 5.71678 -22.0936)
(-3.92499e-17 13.856 -19.8195)
(1.88416e-17 21.3776 -18.0163)
(4.5616e-16 25.3818 -15.6863)
(-1.28041e-15 40.4904 -11.8665)
(-1.67288e-15 75.7711 -13.6381)
(-1.37411e-16 102.206 -24.0537)
(1.39928e-15 108.569 -35.2899)
(2.63604e-15 105.853 -43.0727)
(4.08297e-15 99.1181 -47.0946)
(5.46697e-15 92.4633 -46.5435)
(9.82856e-15 83.2556 -38.42)
(-1.74939e-15 17.4763 36.3214)
(-1.62696e-15 20.3366 33.7788)
(-1.48137e-15 21.8014 33.0579)
(-1.30347e-15 23.6616 31.872)
(-1.09745e-15 25.4202 31.293)
(-8.79376e-16 27.159 30.7996)
(-6.65434e-16 28.9062 30.5342)
(-4.71365e-16 30.6421 30.3184)
(-3.08508e-16 32.4053 30.0916)
(-1.82639e-16 34.1886 29.74)
(-9.42077e-17 35.9864 29.1829)
(-3.86883e-17 37.7614 28.3476)
(-7.86317e-18 39.4587 27.1836)
(6.73323e-18 40.9965 25.653)
(1.0859e-17 42.2591 23.7198)
(8.80204e-18 43.0784 21.3659)
(3.78864e-18 43.2593 18.5984)
(-3.78002e-18 42.5707 15.4327)
(-1.55378e-17 40.7312 11.8793)
(-3.46852e-17 37.3359 7.92634)
(-6.45109e-17 31.69 3.55248)
(-1.05089e-16 22.461 -1.31273)
(-1.43061e-16 6.14865 -7.279)
(-8.33428e-17 -18.0459 -14.3054)
(-3.08445e-17 -30.7506 -15.9779)
(-2.91354e-17 -40.37 -14.2574)
(-8.60617e-17 -46.9171 -13.8672)
(-1.87526e-16 -50.8871 -13.6353)
(-3.66692e-16 -49.4461 -13.8673)
(-2.88232e-16 -48.3101 -7.62236)
(-3.28975e-15 -51.4919 -5.74406)
(-4.11079e-15 -54.6897 -1.39339)
(-3.77061e-15 -63.0914 1.74261)
(-3.86191e-15 -69.3971 1.39698)
(-4.28204e-15 -71.2327 1.15862)
(-4.95323e-15 -72.0233 0.152783)
(-5.4974e-15 -72.8054 -0.0786638)
(-5.58801e-15 -76.1519 -1.07539)
(-5.11606e-15 -79.3041 -1.91629)
(-4.21156e-15 -71.4427 -3.65345)
(-2.91874e-15 -56.811 -4.35325)
(-1.74312e-15 -43.539 -5.6011)
(-7.639e-16 -27.9338 -6.21198)
(-1.66166e-16 -24.7531 -7.43261)
(3.60233e-17 -43.1613 -10.6669)
(2.56901e-17 -59.7462 -14.3247)
(-4.2799e-17 -58.0029 -16.3457)
(-8.89031e-17 -42.2012 -16.2173)
(-1.00421e-16 -23.2943 -15.6554)
(-9.99208e-17 -9.61976 -13.8448)
(-1.04625e-16 12.2148 -21.043)
(-8.67349e-17 31.1882 -30.9432)
(-6.92665e-17 26.2994 -29.1047)
(-3.26176e-17 -5.36369 -18.8107)
(-1.28745e-18 -41.1355 -19.0479)
(-7.29651e-20 -66.1287 -22.148)
(-2.6438e-19 -95.6145 -27.0268)
(-3.28191e-20 -111.565 -30.1001)
(6.08862e-20 -107.918 -30.5909)
(7.96302e-20 -91.7705 -29.4512)
(7.88938e-20 -72.1927 -27.8499)
(7.75649e-20 -54.2534 -26.5807)
(8.00557e-20 -39.1641 -25.8642)
(8.63164e-20 -26.5286 -25.8587)
(1.34443e-19 -16.2271 -25.9756)
(-1.04282e-19 -8.24607 -25.3518)
(-6.57091e-19 -1.82462 -24.1111)
(1.04021e-17 5.23254 -21.9836)
(-4.12411e-17 13.4139 -19.8332)
(2.4963e-17 20.9127 -17.6287)
(4.44623e-16 24.6947 -14.685)
(-1.20277e-15 40.2887 -11.1122)
(-9.30884e-16 77.0864 -12.8099)
(9.21654e-16 104.567 -23.528)
(2.53432e-15 110.614 -35.1304)
(3.84807e-15 107.131 -42.9037)
(5.40362e-15 99.4862 -46.7154)
(6.92108e-15 91.5912 -45.9054)
(1.09671e-14 80.9333 -38.3867)
(-1.72815e-15 17.6917 34.7687)
(-1.56166e-15 20.597 32.7008)
(-1.39212e-15 21.9513 32.2104)
(-1.19075e-15 23.7898 31.3071)
(-9.68857e-16 25.4861 30.9803)
(-7.44796e-16 27.1974 30.7073)
(-5.35834e-16 28.924 30.6177)
(-3.5672e-16 30.6631 30.5187)
(-2.1566e-16 32.447 30.3516)
(-1.14105e-16 34.2692 30.0096)
(-4.84901e-17 36.1195 29.4266)
(-1.17471e-17 37.9577 28.5436)
(5.20638e-18 39.7253 27.3221)
(1.06188e-17 41.3393 25.7336)
(9.62548e-18 42.6825 23.7477)
(5.39768e-18 43.5827 21.3501)
(-4.48739e-19 43.8418 18.55)
(-8.94695e-18 43.2285 15.3651)
(-2.30168e-17 41.4648 11.8048)
(-4.68117e-17 38.1497 7.84799)
(-8.40867e-17 32.5927 3.44897)
(-1.34413e-16 23.4893 -1.51011)
(-1.82188e-16 7.73134 -7.5119)
(-1.18106e-16 -17.4563 -15.1723)
(-4.6247e-17 -30.7762 -17.6275)
(-2.58179e-17 -40.6478 -15.6242)
(-7.84289e-17 -47.1273 -14.0178)
(-1.81939e-16 -51.0031 -13.0862)
(-3.62553e-16 -50.0435 -13.2098)
(-2.76854e-16 -49.1009 -7.29113)
(-3.23885e-15 -52.1105 -5.31152)
(-4.11127e-15 -55.4121 -1.07462)
(-3.77026e-15 -63.3711 2.01085)
(-3.86299e-15 -69.3493 1.6601)
(-4.28374e-15 -71.1203 1.39745)
(-4.95407e-15 -71.9045 0.366109)
(-5.49741e-15 -72.6836 0.10922)
(-5.58829e-15 -75.9735 -0.903001)
(-5.11863e-15 -79.0514 -1.75787)
(-4.21892e-15 -71.1985 -3.51487)
(-2.93357e-15 -56.6111 -4.25089)
(-1.76165e-15 -43.3409 -5.51158)
(-7.86768e-16 -27.7355 -6.11881)
(-1.8098e-16 -24.2765 -7.33067)
(3.39912e-17 -42.4506 -10.6588)
(2.80349e-17 -59.1698 -14.4645)
(-3.96465e-17 -57.8081 -16.6111)
(-8.70821e-17 -42.2652 -16.5759)
(-1.00312e-16 -23.5245 -16.1045)
(-1.009e-16 -9.10633 -14.3282)
(-1.04893e-16 14.0158 -22.3894)
(-8.40782e-17 31.9332 -31.7216)
(-6.52086e-17 25.1387 -29.7752)
(-3.39892e-17 -6.5695 -19.1043)
(-1.9299e-18 -40.7696 -18.627)
(3.95718e-20 -65.2985 -21.7758)
(-2.63035e-19 -94.7945 -26.889)
(-4.13519e-20 -111.197 -30.1656)
(5.95533e-20 -107.985 -30.7438)
(7.98001e-20 -92.0575 -29.6197)
(7.9152e-20 -72.4995 -27.9979)
(7.75949e-20 -54.4753 -26.6815)
(7.98833e-20 -39.2584 -25.9081)
(8.52759e-20 -26.5482 -25.8263)
(1.363e-19 -16.3054 -25.6495)
(-1.03278e-19 -8.44218 -24.9337)
(-1.01055e-18 -2.12361 -23.8216)
(1.17967e-17 4.84331 -21.9141)
(-4.40361e-17 12.971 -19.8503)
(3.69801e-17 20.3613 -17.1542)
(4.17108e-16 24.036 -13.6495)
(-1.09467e-15 40.1274 -10.4729)
(-2.13203e-16 78.2956 -11.8014)
(1.80797e-15 106.807 -22.7206)
(3.40193e-15 112.504 -34.734)
(4.744e-15 108.246 -42.5384)
(6.38223e-15 99.7433 -46.1979)
(7.99304e-15 90.6447 -45.203)
(1.17142e-14 78.7366 -35.787)
(-1.69003e-15 17.8938 33.4777)
(-1.47917e-15 20.8236 31.8265)
(-1.28814e-15 22.0804 31.5402)
(-1.06704e-15 23.8943 30.9024)
(-8.34946e-16 25.5332 30.8003)
(-6.11611e-16 27.2226 30.7195)
(-4.14223e-16 28.937 30.7705)
(-2.55197e-16 30.6883 30.7522)
(-1.38704e-16 32.5011 30.6108)
(-6.16572e-17 34.3678 30.252)
(-1.68894e-17 36.2742 29.6276)
(4.39662e-18 38.1768 28.6935)
(1.12089e-17 40.0151 27.4214)
(1.07866e-17 41.7052 25.7887)
(7.17264e-18 43.1289 23.7686)
(2.24753e-18 44.11 21.3489)
(-3.95512e-18 44.4472 18.5396)
(-1.37712e-17 43.9092 15.3609)
(-3.12314e-17 42.2227 11.822)
(-6.12733e-17 38.9927 7.89174)
(-1.07893e-16 33.5374 3.49684)
(-1.69881e-16 24.586 -1.53009)
(-2.29326e-16 9.33062 -7.57976)
(-1.64383e-16 -16.7231 -15.9666)
(-7.05673e-17 -30.8398 -19.0288)
(-2.59588e-17 -41.1389 -17.1675)
(-6.69265e-17 -47.5776 -14.5966)
(-1.72453e-16 -51.2394 -12.7044)
(-3.58985e-16 -50.6565 -12.4435)
(-2.67071e-16 -49.9047 -6.83154)
(-3.19329e-15 -52.7518 -4.81001)
(-4.11087e-15 -56.1459 -0.673472)
(-3.7698e-15 -63.6494 2.35099)
(-3.86433e-15 -69.2878 1.98243)
(-4.28595e-15 -70.9877 1.68677)
(-4.9554e-15 -71.762 0.623647)
(-5.49762e-15 -72.5371 0.335866)
(-5.58848e-15 -75.7679 -0.692178)
(-5.12083e-15 -78.7662 -1.56404)
(-4.22575e-15 -70.9173 -3.34952)
(-2.94767e-15 -56.3716 -4.13204)
(-1.77946e-15 -43.1001 -5.41507)
(-8.08594e-16 -27.4846 -6.0338)
(-1.95697e-16 -23.7202 -7.25451)
(3.16318e-17 -41.6471 -10.6623)
(3.03507e-17 -58.5171 -14.6086)
(-3.63954e-17 -57.5702 -16.8887)
(-8.51156e-17 -42.3109 -16.9793)
(-9.99855e-17 -23.7379 -16.5818)
(-1.02263e-16 -8.46385 -15.1123)
(-1.04812e-16 15.821 -23.6513)
(-8.10191e-17 32.6096 -32.2382)
(-6.07499e-17 23.8631 -30.0134)
(-3.3899e-17 -7.82658 -19.164)
(-2.47509e-18 -40.3929 -18.0307)
(1.12513e-19 -64.4081 -21.3466)
(-2.62134e-19 -93.9135 -26.7394)
(-5.01062e-20 -110.792 -30.2362)
(5.80855e-20 -108.036 -30.9166)
(7.99772e-20 -92.3385 -29.816)
(7.94253e-20 -72.8013 -28.1783)
(7.75873e-20 -54.6899 -26.8069)
(7.99629e-20 -39.3497 -25.996)
(8.36263e-20 -26.589 -25.781)
(1.39064e-19 -16.4072 -25.3877)
(-9.13472e-20 -8.62957 -24.6329)
(-1.39902e-18 -2.41885 -23.6168)
(1.32315e-17 4.44019 -21.8845)