/*--------------------------------*- C++ -*----------------------------------*\
| =========                 |                                                 |
| \\      /  F ield         | OpenFOAM: The Open Source CFD Toolbox           |
|  \\    /   O peration     | Version:  4.1                                   |
|   \\  /    A nd           | Web:      www.OpenFOAM.org                      |
|    \\/     M anipulation  |                                                 |
\*---------------------------------------------------------------------------*/
FoamFile
{
    version     2.0;
    format      ascii;
    class       surfaceScalarField;
    location    "11";
    object      phi;
}
// * * * * * * * * * * * * * * * * * * * * * * * * * * * * * * * * * * * * * //

dimensions      [0 3 -1 0 0 0 0];

internalField   nonuniform List<scalar> 
13220
(
-906.845
2206.74
-1504.66
1898.02
-1985.12
1780.36
-2354.94
1669.71
-2630.27
1575.53
-2818.7
1488.33
-2923.51
1404.7
-2944.48
1321.17
-2880.3
1235.72
-2727.85
1147.45
-2482.47
1054.82
-2127.46
944.892
-1626.9
799.337
-956.037
629.331
343.863
423.568
1783.17
466.653
1854.92
450.461
1796.54
411.014
1709.15
378.567
1607.97
352.444
1514.44
333.18
1423.95
321.474
1332.87
314.041
1243.14
304.724
1156.76
285.384
1074.15
242.272
987.991
165.781
875.812
88.4926
706.603
432.355
181.176
1601.98
21.0218
2015.07
-139.974
1957.52
-258.567
1827.73
-362.816
1712.2
-459.849
1611.47
-546.929
1511.02
-624.454
1410.38
-690.603
1309.28
-742.934
1209.07
-777.146
1108.35
-774.533
985.356
-684.686
785.935
-432.745
454.625
-0.390527
215.994
1385.98
136.086
2094.96
2.05428
2091.55
-93.347
1923.12
-169.461
1788.31
-229.492
1671.48
-269.371
1550.89
-289.308
1430.3
-291.295
1311.25
-275.816
1193.58
-241.646
1074.17
-184.026
927.721
-101.107
702.995
-9.7684
363.26
-10.1593
282.701
1103.27
349.348
2028.31
326.417
2114.47
305.907
1943.62
296.473
1797.73
292.931
1675.02
292.984
1550.83
296.946
1426.34
303.604
1304.58
311.025
1186.15
318.595
1066.6
320.542
925.752
297.189
726.325
215.941
444.481
205.782
249.222
854.043
359.894
1917.63
370.881
2103.48
351.531
1962.97
336.382
1812.88
325.385
1686.01
313.975
1562.23
299.871
1440.43
283.972
1320.48
266.276
1203.85
245.372
1087.5
219.39
951.752
178.014
767.72
109.235
513.278
315.017
131.808
722.23
215.517
1833.92
240.34
2078.65
217.897
1985.41
194.444
1836.33
174.681
1705.77
156.046
1580.87
137.887
1458.59
119.922
1338.45
103.526
1220.24
88.7677
1102.26
75.9093
964.587
61.7186
781.889
44.7409
530.235
359.758
37.118
685.111
87.991
1783.04
128.148
2038.49
117.933
1995.62
102.526
1851.74
90.6377
1717.66
78.8086
1592.7
67.9058
1469.5
58.268
1348.09
49.0001
1229.52
41.0136
1110.25
37.097
968.535
33.4864
785.531
28.8499
534.902
388.608
14.3665
670.745
54.5737
1742.84
99.297
1993.77
99.3736
1995.55
89.797
1861.31
81.817
1725.64
74.4893
1600.03
66.544
1477.44
59.0805
1355.55
51.9517
1236.64
44.4774
1117.72
41.4182
971.565
39.1163
787.807
29.6928
544.301
418.301
32.7192
638.035
78.856
1696.71
118.493
1954.14
119.82
1994.22
109.744
1871.4
98.7565
1736.63
88.8358
1609.96
79.5862
1486.7
69.8294
1365.31
60.6225
1245.86
51.9538
1126.4
47.3974
976.16
43.6179
791.625
30.4979
557.457
448.799
49.7451
588.306
101.076
1645.39
135.332
1919.9
136.356
1993.21
125.046
1882.72
112.859
1748.83
100.476
1622.35
88.8372
1498.35
77.5815
1376.59
66.1182
1257.33
55.8026
1136.73
51.0136
980.953
46.0158
796.632
29.7041
573.779
478.503
37.9091
550.419
77.242
1606.07
99.7005
1897.46
94.8806
1998.04
78.0158
1899.61
61.4044
1765.46
48.4294
1635.35
36.8577
1509.94
27.3712
1386.09
20.0691
1264.66
13.8387
1142.97
15.2906
979.537
19.3815
792.578
16.7109
576.484
495.214
7.7348
542.702
46.99
1566.82
74.2868
1870.17
86.7996
1985.54
88.5887
1897.83
81.9228
1772.13
70.4012
1646.88
58.2296
1522.12
44.525
1399.8
32.6106
1276.58
26.9346
1148.65
28.6572
977.841
29.9131
791.348
8.20815
598.212
503.422
-127.988
670.698
-221.803
1660.64
-288.997
1937.37
-354.995
2051.54
-401.372
1944.21
-428.821
1799.58
-435.615
1653.68
-432.691
1519.19
-418.432
1385.54
-397.666
1255.81
-345.238
1096.23
-267.31
899.891
-171.415
695.425
-88.8614
515.631
414.56
-192.183
30.8727
148.338
226.762
161.791
50.1788
-95.8791
-224.631
-328.087
-370.488
-391.288
-361.943
-302.717
-204.1
-0.00254419
458.536
-458.542
458.531
458.527
458.524
619.671
-161.152
619.668
619.664
619.66
665.035
-45.3786
665.031
665.027
653.865
11.1592
653.861
653.857
653.853
587.667
66.182
587.662
587.658
474.836
112.818
474.832
474.827
474.824
351.91
122.908
351.907
351.902
351.898
288.279
63.6145
288.274
288.27
270.018
18.2473
270.013
270.009
270.004
300.04
-30.0401
300.034
300.03
343.095
-43.0703
343.091
343.086
343.083
384.41
-41.333
384.406
384.401
384.398
411.72
-27.3286
411.717
411.711
409.59
2.11774
409.584
409.58
409.574
378.739
30.8326
378.732
378.729
378.722
319.038
59.6811
319.029
319.027
229.493
89.5258
229.49
229.483
229.48
142.55
86.9202
142.546
142.536
63.4207
79.1116
63.4089
63.4053
63.3931
-244.297
307.688
-244.31
-244.313
-244.326
-946.288
701.966
-946.299
-946.289
-2009.28
1062.99
-2009.27
-2009.28
-1980.89
-1939.6
-1902.29
-3411.37
1543.56
-3354.06
-3288.56
-3212.57
-3135.18
-3058.04
-2978.28
-2882.42
-2771.48
-4738.34
2076.18
-4606.27
-4479.24
-4352.54
-4196.51
-4038.34
-3877.36
-3708.7
-3537.73
-5992.31
2641.47
-5781.2
-5569.89
-5358.03
-5145.74
-4924.83
-4688.65
-4449.02
-4201.27
-3950.34
-6793.37
3091.03
-6517.79
-6240.04
-5960.3
-5680.35
-5400.41
-5105.07
-4794.14
-4478.73
-7472.52
3300.82
-7162.54
-6845.04
-6512.86
-6176.14
-5837.13
-5497.69
-5153.32
-4788.44
-7645.16
3213.8
-7288.74
-6932.49
-6577.36
-6207
-5828.23
-5448.37
-5068.43
-4691.87
-6923.52
2605.44
-6552.46
-6180.58
-5811.54
-5445.43
-5083.05
-4727.23
-4374.7
-4031.64
-3697.37
-4340.27
973.684
-4046.6
-3762.56
-3488.89
-3222.05
-2961.35
-2735.87
-2577.97
-2417.62
-1673.9
-563.286
-1530.23
-1392
-1392.01
-999.988
-392.02
-647.201
-352.793
-647.206
-387.952
-259.26
-387.959
-193.387
-194.579
-55.0053
-138.394
-55.0109
39.4689
-94.4945
108.222
-68.7547
108.213
149.969
-41.7544
149.96
204.454
-54.492
215.905
-11.4583
215.908
107.643
108.257
107.65
-99.2262
206.871
-341.291
242.072
-341.294
-639.614
298.326
-943.513
303.895
-943.508
-1264.58
321.07
-1264.57
-1615.05
350.481
-1936.92
321.868
-1936.92
-2261.64
324.728
-2261.64
-2592.66
331.029
-2874.13
281.464
-2874.12
-3175.92
301.802
-3419.12
243.205
-3419.12
-3643.97
224.857
-3643.97
-3865.48
221.514
-4019.25
153.768
-4019.25
-4149.96
130.714
-4149.96
-4261.37
111.41
-4304.68
43.3124
-4304.68
-4337.46
32.7815
-4302.99
-34.4699
-4302.99
-4227.82
-75.1728
-4227.82
-4121.14
-106.676
-3953.56
-167.581
-3953.56
-3738.33
-215.221
-3738.34
-3481.21
-257.12
-3175.34
-305.877
-3175.34
-2819.02
-356.316
-2421.12
-397.904
-2421.12
-1966.46
-454.659
-1966.46
-1454.98
-511.475
-922.492
-532.487
-922.489
-333.948
-588.54
-333.942
325.485
-659.426
1163.05
-837.559
1163.05
2027.93
-864.881
3063.26
-1035.34
3063.27
4190.54
-1127.27
4190.54
-1186.67
-1686.27
-61.8983
-1687.52
-55.2647
-1688.51
-50.2966
-1689.61
-43.581
-1690.72
-35.2977
-1691.87
-25.3793
-1693.05
-13.6315
-1694.28
0.0846958
-1695.56
15.9522
-1697.05
34.2313
-1698.88
55.3427
-1701.07
79.6573
-1703.65
107.561
-1706.69
139.648
-1710.25
176.456
-1714.39
218.694
-1719.19
267.161
-1724.75
322.789
-1731.14
386.665
-1738.5
460.034
-1746.92
544.347
-1756.54
641.413
-1767.49
753.142
-1779.91
881.842
-1793.97
1030.16
-1809.81
1201.14
-1827.58
1398.32
-1847.42
1625.73
-1869.41
1887.98
-1893.58
2190.29
-1919.88
2538.47
-1948.09
2938.88
-1977.8
3398.33
-2008.31
3923.79
-2038.58
4521.98
-2067.08
5198.62
-2091.84
5957.45
-2110.34
6798.91
-2119.68
7718.39
-2116.78
8704.31
-2098.79
9736.32
-2063.64
10783.7
-2010.69
11804.7
-1941.3
12746.7
-1859.09
13546.5
-1769.79
14128.1
-1680.56
14393
-1599.18
14186.6
-1525.46
13124.4
-1460.22
9482.15
-1681.38
-284.741
-2062.96
2054.91
-2284.99
7818.6
-2385.99
10509.9
-2417.69
11152.2
-2465.43
10708.4
-2509.01
9925.55
-2436.25
8971.65
-2179.28
7363.7
-1837.96
4898.6
-1638.79
1896.25
-1634.32
-661.486
-1631.77
-2892.65
-1627.74
-5068.21
-1649.84
-7172.76
-1697.5
-9235.43
-1735.44
-11211.4
-1689.74
-12783.7
-1489.42
-13268.6
-1131.4
-11960
-716.447
-8889.86
-383.592
-5293.12
-158.659
-2644.31
147.916
-526.757
582.877
2200.06
1006.29
5614.65
1218.11
7137.36
1305.63
6603.98
3053.17
-1708.36
-61.627
-1708.75
-54.8785
-1709.14
-49.9074
-1709.64
-43.0811
-1710.23
-34.7062
-1710.95
-24.6572
-1711.81
-12.7693
-1712.84
1.10817
-1714.05
17.1696
-1715.53
35.7085
-1717.33
57.1386
-1719.48
81.8076
-1722.01
110.098
-1725.01
142.642
-1728.5
179.953
-1732.57
222.759
-1737.27
271.867
-1742.7
328.221
-1748.95
392.914
-1756.13
467.214
-1764.35
552.562
-1773.72
650.782
-1784.37
763.799
-1796.46
893.925
-1810.11
1043.81
-1825.49
1216.52
-1842.73
1415.55
-1861.94
1644.94
-1883.2
1909.25
-1906.54
2213.63
-1931.87
2563.8
-1958.97
2965.98
-1987.41
3426.77
-2016.49
3952.87
-2045.17
4550.66
-2071.98
5225.43
-2094.98
5980.45
-2111.78
6815.71
-2119.62
7726.23
-2115.64
8700.33
-2097.2
9717.88
-2062.5
10749
-2011.1
11753.3
-1944.45
12680.1
-1866.12
13468.2
-1781.65
14043.6
-1699.42
14310.8
-1624.73
14111.9
-1468.46
12968.2
-882.125
8895.82
-1424.37
257.505
-2289.83
2920.38
-2443.81
7972.58
-2457.67
10523.8
-2438.14
11132.7
-2460.13
10730.3
-2493.13
9958.55
-2401.06
8879.57
-2117.14
7079.78
-1773.08
4554.55
-1638.17
1761.34
-1662.66
-636.996
-1642.07
-2913.24
-1623.4
-5086.87
-1628.39
-7167.77
-1669.87
-9193.95
-1723.38
-11157.8
-1712.29
-12794.8
-1547.03
-13433.9
-1205.18
-12301.9
-781.471
-9313.57
-428.363
-5646.23
-185.179
-2887.49
102.598
-814.526
544.491
1758.18
963.335
5195.81
1183.17
6917.54
1268.22
6518.93
3194.11
-1734.38
-61.5802
-1734.39
-54.8658
-1734.46
-49.8399
-1734.63
-42.9138
-1734.9
-34.4303
-1735.32
-24.2337
-1735.92
-12.1785
-1736.7
1.8902
-1737.71
18.1839
-1739.01
37.0081
-1740.64
58.7694
-1742.64
83.8043
-1745.05
112.507
-1747.92
145.515
-1751.31
183.339
-1755.27
226.715
-1759.87
276.467
-1765.18
333.54
-1771.31
399.035
-1778.33
474.243
-1786.37
560.597
-1795.52
659.934
-1805.92
774.194
-1817.68
905.69
-1830.95
1057.08
-1845.86
1231.43
-1862.53
1432.23
-1881.07
1663.48
-1901.53
1929.71
-1923.9
2236.01
-1948.09
2587.98
-1973.84
2991.73
-2000.69
3453.62
-2027.95
3980.13
-2054.54
4577.25
-2079.01
5249.9
-2099.48
6000.92
-2113.65
6829.88
-2118.92
7731.5
-2112.61
8694.02
-2092.37
9697.64
-2056.66
10713.3
-2005.36
11702
-1940.17
12614.9
-1864.87
13392.9
-1785.62
13964.4
-1712.2
14237.4
-1642.25
14042
-1443.25
12769.2
-832.21
8284.78
-1394.74
820.038
-2254.41
3780.05
-2463.16
8181.33
-2473.22
10533.8
-2451.37
11110.9
-2467.45
10746.4
-2473.6
9964.7
-2334.09
8740.06
-2025.17
6770.86
-1730.88
4260.26
-1659.42
1689.88
-1689.6
-606.82
-1663.46
-2939.39
-1636.76
-5113.58
-1628.72
-7175.81
-1658.2
-9164.46
-1710.53
-11105.5
-1713.76
-12791.6
-1570.64
-13577
-1244.4
-12628.1
-821.768
-9736.2
-458.933
-6009.07
-203.741
-3142.68
62.0045
-1080.28
483.946
1336.24
906.909
4772.85
1137.63
6686.81
1207.44
6449.13
3366.22
-1762.82
-61.6837
-1762.57
-55.1156
-1762.38
-50.0335
-1762.27
-43.0209
-1762.27
-34.4286
-1762.42
-24.0848
-1762.75
-11.854
-1763.28
2.42055
-1764.05
18.9603
-1765.12
38.0801
-1766.52
60.1687
-1768.28
85.5607
-1770.46
114.691
-1773.1
148.156
-1776.27
186.502
-1780
230.452
-1784.39
280.85
-1789.49
338.64
-1795.38
404.933
-1802.17
481.033
-1809.96
568.381
-1818.84
668.817
-1828.93
784.286
-1840.35
917.109
-1853.21
1069.95
-1867.64
1245.86
-1883.75
1448.33
-1901.6
1681.33
-1921.23
1949.35
-1942.62
2257.4
-1965.63
2610.99
-1989.98
3016.07
-2015.19
3478.83
-2040.52
4005.46
-2064.9
4601.64
-2086.9
5271.9
-2104.69
6018.71
-2116.04
6841.24
-2118.51
7733.97
-2109.63
8685.14
-2087.29
9675.3
-2050.24
10676.2
-1998.65
11650.4
-1934.44
12550.7
-1861.64
13320.1
-1787.12
13889.9
-1721.24
14171.5
-1650.56
13971.3
-1412.35
12531
-853.294
7725.72
-1452.92
1419.67
-2243.6
4570.73
-2469.46
8407.18
-2478.83
10543.2
-2460.61
11092.6
-2470.12
10755.9
-2440.32
9934.91
-2251.05
8550.79
-1937.35
6457.17
-1709.75
4032.66
-1684.4
1664.54
-1709.58
-581.64
-1681.63
-2967.34
-1647.26
-5147.94
-1626.85
-7196.22
-1644.66
-9146.66
-1696.06
-11054.1
-1715.08
-12772.6
-1596.92
-13695.1
-1288.4
-12936.7
-867.53
-10157.1
-492.777
-6383.82
-226.512
-3408.95
24.278
-1331.07
415.646
944.893
840.38
4348.12
1081.37
6445.82
1133.97
6396.53
3635.31
-1792.82
-61.9656
-1792.37
-55.5677
-1791.96
-50.4397
-1791.63
-43.3556
-1791.4
-34.6607
-1791.31
-24.1775
-1791.38
-11.7753
-1791.67
2.70706
-1792.21
19.4964
-1793.04
38.9113
-1794.19
61.3159
-1795.68
87.0597
-1797.61
116.616
-1799.99
150.535
-1802.89
189.399
-1806.36
233.923
-1810.47
284.959
-1815.28
343.457
-1820.89
410.538
-1827.37
487.512
-1834.83
575.839
-1843.36
677.351
-1853.07
793.998
-1864.07
928.109
-1876.47
1082.34
-1890.36
1259.75
-1905.83
1463.8
-1922.95
1698.45
-1941.73
1968.12
-1962.09
2277.77
-1983.89
2632.79
-2006.79
3038.98
-2030.31
3502.34
-2053.67
4028.82
-2075.8
4623.77
-2095.28
5291.38
-2110.32
6033.74
-2118.79
6849.71
-2118.39
7733.57
-2106.85
8673.59
-2082.31
9650.76
-2043.8
10637.7
-1991.74
11598.3
-1928.3
12487.2
-1857.78
13249.5
-1787.8
13819.9
-1728.2
14111.9
-1652.16
13895.3
-1382.22
12261
-911.418
7254.93
-1532.51
2040.76
-2236.91
5275.13
-2463.7
8633.97
-2477.96
10557.5
-2465.23
11079.9
-2463.88
10754.6
-2390.92
9861.94
-2159.96
8319.83
-1866.03
6163.25
-1708.17
3874.79
-1710.74
1667.12
-1729.25
-563.132
-1701.11
-2995.48
-1660.99
-5188.07
-1629.09
-7228.12
-1633.5
-9142.24
-1679.65
-11008
-1710.52
-12741.7
-1616.71
-13789
-1328.44
-13224.9
-912.188
-10573.3
-527.475
-6768.53
-253.321
-3683.11
-14.5395
-1569.86
344.117
586.24
767.118
3925.12
1016.86
6196.08
1057.99
6355.41
3855.74
-1824.01
-62.4099
-1823.4
-56.1829
-1822.81
-51.0244
-1822.29
-43.8812
-1821.86
-35.0929
-1821.55
-24.482
-1821.41
-11.9191
-1821.46
2.762
-1821.76
19.7919
-1822.33
39.4881
-1823.22
62.2028
-1824.46
88.3035
-1826.12
118.274
-1828.23
152.644
-1830.85
192.015
-1834.03
237.11
-1837.85
288.773
-1842.36
347.969
-1847.65
415.826
-1853.79
493.653
-1860.88
582.936
-1869.02
685.492
-1878.31
803.282
-1888.83
938.633
-1900.69
1094.21
-1913.98
1273.04
-1928.76
1478.59
-1945.08
1714.77
-1962.92
1985.96
-1982.19
2297.04
-2002.69
2653.29
-2024.09
3060.38
-2045.84
3524.1
-2067.17
4050.15
-2086.99
4643.59
-2103.89
5308.28
-2116.12
6045.98
-2121.67
6855.26
-2118.35
7730.25
-2104.1
8659.34
-2077.29
9623.96
-2037.24
10597.7
-1984.6
11545.7
-1921.78
12424.4
-1853.41
13181.2
-1787.83
13754.3
-1733.26
14057.4
-1648.97
13811
-1357.74
11969.8
-983.903
6881.09
-1607.56
2664.42
-2228.32
5895.89
-2450.19
8855.85
-2472.43
10579.7
-2464.56
11072
-2445.39
10735.4
-2326.41
9742.97
-2068.99
8062.41
-1815.17
5909.43
-1718.39
3778.02
-1732.8
1681.54
-1745.48
-550.451
-1718.18
-3022.78
-1674.56
-5231.7
-1633.23
-7269.44
-1624.39
-9151.08
-1662.81
-10969.6
-1702.46
-12702
-1632.21
-13859.2
-1366.2
-13490.9
-956.458
-10983.1
-563.684
-7161.31
-283.244
-3963.55
-51.2933
-1801.81
269.981
264.995
690.136
3504.98
946.126
5940.09
976.189
6325.35
4172.51
-1856.15
-63.0165
-1855.4
-56.9391
-1854.66
-51.7646
-1853.97
-44.5721
-1853.36
-35.7006
-1852.87
-24.9735
-1852.53
-12.2603
-1852.37
2.60892
-1852.45
19.8673
-1852.79
39.8296
-1853.44
62.8487
-1854.44
89.3026
-1855.83
119.669
-1857.67
154.48
-1860
194.346
-1862.89
239.998
-1866.39
292.276
-1870.58
352.154
-1875.52
420.772
-1881.3
499.429
-1888
589.641
-1895.72
693.207
-1904.53
812.098
-1914.54
948.638
-1925.82
1105.48
-1938.44
1285.66
-1952.47
1492.61
-1967.92
1730.21
-1984.75
2002.79
-2002.84
2315.13
-2021.98
2672.43
-2041.79
3080.18
-2061.7
3544.02
-2080.92
4069.37
-2098.35
4661.02
-2112.6
5322.53
-2121.98
6055.36
-2124.55
6857.83
-2118.27
7723.98
-2101.27
8642.34
-2072.17
9594.86
-2030.5
10556
-1977.19
11492.4
-1914.86
12362.1
-1848.54
13114.8
-1787.22
13693
-1736.46
14006.6
-1642.36
13716.9
-1340.01
11667.4
-1058.06
6599.14
-1669.93
3276.3
-2217.59
6443.54
-2432.23
9070.49
-2463.35
10610.8
-2456.91
11065.6
-2412.44
10690.9
-2250.22
9580.75
-1984.71
7796.9
-1782.41
5707.12
-1732.61
3728.22
-1748.97
1697.89
-1757.57
-541.863
-1732.02
-3048.33
-1687.11
-5276.61
-1638.59
-7317.96
-1617.11
-9172.56
-1645.75
-10940.9
-1690.91
-12656.9
-1642.93
-13907.2
-1401.02
-13732.8
-999.941
-11384.1
-601.121
-7560.13
-315.315
-4249.36
-65.2028
-2051.93
198.378
1.41687
614.802
3088.55
870.253
5684.64
897.471
6298.13
4481.44
-1889.14
-63.7862
-1888.25
-57.8257
-1887.37
-52.644
-1886.53
-45.4112
-1885.77
-36.4659
-1885.11
-25.632
-1884.59
-12.7771
-1884.25
2.27151
-1884.13
19.7482
-1884.27
39.965
-1884.7
63.2776
-1885.47
90.0711
-1886.61
120.817
-1888.19
156.053
-1890.24
196.397
-1892.83
242.586
-1896.01
295.46
-1899.86
355.999
-1904.44
425.354
-1909.82
504.816
-1916.11
595.926
-1923.37
700.465
-1931.68
820.411
-1941.13
958.086
-1951.78
1116.14
-1963.7
1297.58
-1976.91
1505.83
-1991.43
1744.73
-2007.18
2018.54
-2024.02
2331.98
-2041.71
2690.12
-2059.84
3098.32
-2077.83
3562.01
-2094.86
4086.39
-2109.83
4675.99
-2121.37
5334.07
-2127.84
6061.82
-2127.38
6857.37
-2118.12
7714.71
-2098.34
8622.56
-2066.89
9563.41
-2023.56
10512.7
-1969.48
11438.3
-1907.52
12300.1
-1843.18
13050.5
-1785.94
13635.7
-1737.78
13958.4
-1633.26
13612.4
-1328.35
11362.5
-1128.07
6398.86
-1718.62
3866.85
-2205.38
6930.3
-2411.66
9276.76
-2450.84
10650
-2440.26
11055
-2364.62
10615.3
-2167.16
9383.3
-1911.15
7540.89
-1762.81
5558.78
-1745.39
3710.81
-1758.67
1711.18
-1764.22
-536.305
-1741.46
-3071.09
-1697.45
-5320.62
-1644.23
-7371.19
-1611.38
-9205.41
-1628.98
-10923.3
-1676.54
-12609.3
-1649.14
-13934.6
-1432.76
-13949.2
-1042.58
-11774.3
-639.255
-7963.46
-349.866
-4538.75
-83.9116
-2317.88
138.948
-221.416
542.301
2685.21
791.069
5435.88
822.194
6267.01
4771.15
-1922.92
-64.6961
-1921.91
-58.8359
-1920.9
-53.6509
-1919.92
-46.3868
-1919.01
-37.3759
-1918.2
-26.4427
-1917.53
-13.4541
-1917.02
1.76511
-1916.72
19.4496
-1916.67
39.9099
-1916.89
63.5032
-1917.44
90.6186
-1918.35
121.728
-1919.67
157.371
-1921.45
198.175
-1923.74
244.878
-1926.6
298.324
-1930.1
359.498
-1934.31
429.562
-1939.29
509.796
-1945.13
601.767
-1951.9
707.235
-1959.68
828.185
-1968.52
966.933
-1978.5
1126.12
-1989.66
1308.74
-2002.01
1518.18
-2015.53
1758.24
-2030.13
2033.14
-2045.65
2347.5
-2061.81
2706.28
-2078.2
3114.7
-2094.19
3578
-2108.94
4101.15
-2121.38
4688.43
-2130.15
5342.84
-2133.65
6065.32
-2130.13
6853.86
-2117.84
7702.42
-2095.25
8599.98
-2061.42
9529.58
-2016.38
10467.6
-1961.44
11383.4
-1899.75
12238.4
-1837.34
12988.1
-1783.95
13582.4
-1737.2
13911.7
-1622.25
13497.4
-1321.57
11061.9
-1191.9
6269.19
-1755.08
4430.02
-2191.67
7366.9
-2389.09
9474.18
-2434.01
10694.9
-2413.04
11034.1
-2303.43
10505.7
-2082.21
9162.08
-1849.64
7308.31
-1751.19
5460.34
-1753.58
3713.19
-1761.81
1719.41
-1764.62
-533.498
-1745.68
-3090.03
-1704.59
-5361.71
-1649.18
-7426.6
-1606.71
-9247.88
-1612.67
-10917.4
-1659.82
-12562.2
-1651.05
-13943.4
-1461.18
-14139.1
-1084.34
-12151.1
-678.03
-8369.78
-385.673
-4831.11
-133.405
-2570.15
91.969
-446.803
469.787
2307.39
710.172
5195.49
746.222
6230.95
5005.89
-1957.42
-65.7116
-1956.29
-59.9635
-1955.16
-54.7784
-1954.06
-47.4907
-1953.02
-38.4204
-1952.06
-27.3944
-1951.24
-14.2793
-1950.58
1.10183
-1950.11
18.9834
-1949.87
39.675
-1949.91
63.5354
-1950.24
90.9564
-1950.93
122.411
-1952
158.444
-1953.51
199.687
-1955.51
246.88
-1958.06
300.871
-1961.21
362.652
-1965.04
433.391
-1969.6
514.359
-1974.98
607.146
-1981.24
713.494
-1988.44
835.39
-1996.65
975.143
-2005.92
1135.38
-2016.26
1319.08
-2027.69
1529.61
-2040.15
1770.7
-2053.53
2046.53
-2067.66
2361.63
-2082.23
2720.85
-2096.78
3129.26
-2110.69
3591.91
-2123.1
4113.56
-2132.93
4698.26
-2138.86
5348.77
-2139.35
6065.81
-2132.73
6847.24
-2117.38
7687.07
-2091.96
8574.56
-2055.72
9493.35
-2008.9
10420.8
-1953.03
11327.5
-1891.53
12176.9
-1831
12927.6
-1781.16
13532.5
-1734.65
13865.2
-1609.69
13372.5
-1318.45
10770.6
-1249.08
6199.82
-1781.27
4962.21
-2176.16
7761.79
-2364.44
9662.46
-2411.57
10742
-2374.61
10997.1
-2231.75
10362.8
-1999.26
8929.59
-1799.54
7108.59
-1743.13
5403.93
-1755.44
3725.5
-1758.22
1722.2
-1758.24
-533.476
-1744.04
-3104.24
-1707.71
-5398.03
-1652.54
-7481.77
-1602.56
-9297.87
-1596.92
-10923
-1641.22
-12517.9
-1648.91
-13935.7
-1486.11
-14301.9
-1125.09
-12512.2
-717.424
-8777.44
-421.624
-5126.91
-180.183
-2811.59
40.8683
-667.843
396.835
1951.44
628.13
4964.2
667.466
6191.62
5218.7
-1992.56
-66.8052
-1991.32
-61.2042
-1990.08
-56.0232
-1988.85
-48.7185
-1987.68
-39.5938
-1986.59
-28.4806
-1985.63
-15.2454
-1984.81
0.289704
-1984.19
18.3583
-1983.78
39.2691
-1983.63
63.3828
-1983.77
91.0933
-1984.23
122.875
-1985.07
159.277
-1986.32
200.936
-1988.03
248.594
-1990.26
303.103
-1993.07
365.46
-1996.51
436.834
-2000.65
518.495
-2005.56
612.051
-2011.28
719.22
-2017.89
841.997
-2025.43
982.681
-2033.93
1143.88
-2043.42
1328.57
-2053.86
1540.05
-2065.2
1782.05
-2077.31
2058.64
-2089.98
2374.29
-2102.88
2733.74
-2115.52
3141.9
-2127.27
3603.65
-2137.27
4123.56
-2144.43
4705.43
-2147.46
5351.8
-2144.88
6063.23
-2135.12
6837.48
-2116.69
7668.64
-2088.42
8546.28
-2049.75
9454.68
-2001.1
10372.2
-1944.22
11270.6
-1882.84
12115.5
-1824.15
12868.9
-1777.48
13485.8
-1730.07
13817.8
-1595.83
13238.2
-1317.96
10492.8
-1299.61
6181.47
-1798.97
5461.58
-2158.53
8121.35
-2337.25
9841.18
-2382.3
10787.1
-2325.29
10940.1
-2153.07
10190.6
-1920.75
8697.27
-1759.08
6946.93
-1735.02
5379.86
-1749.92
3740.41
-1747.59
1719.86
-1744.81
-536.261
-1736.08
-3112.96
-1706.1
-5428.02
-1653.51
-7534.37
-1598.34
-9353.03
-1581.67
-10939.7
-1621.14
-12478.4
-1643
-13913.8
-1507.41
-14437.5
-1164.56
-12855
-757.136
-9184.87
-457.942
-5426.1
-224.711
-3044.83
-10.3113
-882.257
323.944
1617.18
545.218
4742.92
591.439
6145.4
5412.24
-2028.27
-67.9662
-2026.92
-62.5542
-2025.56
-57.3832
-2024.22
-50.0666
-2022.92
-40.8921
-2021.7
-29.6969
-2020.6
-16.3476
-2019.64
-0.665936
-2018.86
17.5806
-2018.29
38.699
-2017.96
63.0525
-2017.91
91.0364
-2018.16
123.127
-2018.76
159.878
-2019.75
201.928
-2021.18
250.025
-2023.1
305.021
-2025.56
367.921
-2028.61
439.888
-2032.32
522.2
-2036.74
616.469
-2041.91
724.399
-2047.9
847.986
-2054.74
989.519
-2062.45
1151.6
-2071.03
1337.15
-2080.45
1549.47
-2090.62
1792.21
-2101.39
2069.41
-2112.53
2385.43
-2123.68
2744.9
-2134.35
3152.58
-2143.87
3613.18
-2151.38
4131.07
-2155.82
4709.86
-2155.9
5351.89
-2150.22
6057.54
-2137.29
6824.55
-2115.75
7647.1
-2084.6
8515.13
-2043.47
9413.55
-1992.95
10321.7
-1935
11212.7
-1873.68
12054.2
-1816.78
12812
-1772.79
13441.9
-1723.41
13768.4
-1580.84
13095.6
-1319.18
10231.1
-1343.58
6205.88
-1809.54
5927.53
-2138.51
8450.32
-2306.89
10009.6
-2345.43
10825.6
-2266.12
10860.8
-2070.72
9995.21
-1848.05
8474.6
-1725.84
6824.71
-1724.11
5378.14
-1736.4
3752.71
-1729.64
1713.1
-1724.24
-541.654
-1721.53
-3115.67
-1699.21
-5450.34
-1651.35
-7582.22
-1593.44
-9410.94
-1566.8
-10966.3
-1599.91
-12445.3
-1633.58
-13880.1
-1524.99
-14546.1
-1202.53
-13177.5
-796.99
-9590.4
-494.705
-5728.39
-268.05
-3271.48
-60.4559
-1089.85
252.156
1304.58
462.052
4533.03
515.017
6092.44
5570.94
-2064.47
-69.1995
-2063.01
-64.012
-2061.53
-58.8564
-2060.07
-51.5327
-2058.65
-42.3128
-2057.3
-31.0405
-2056.07
-17.5832
-2054.97
-1.76242
-2054.05
16.6531
-2053.31
37.968
-2052.81
62.5479
-2052.56
90.7891
-2052.61
123.17
-2052.98
160.248
-2053.71
202.666
-2054.86
251.173
-2056.47
306.625
-2058.57
370.029
-2061.23
442.543
-2064.49
525.463
-2068.41
620.385
-2073.02
729.011
-2078.37
853.334
-2084.48
995.63
-2091.36
1158.48
-2099
1344.79
-2107.35
1557.81
-2116.29
1801.16
-2125.67
2078.79
-2135.22
2394.98
-2144.57
2754.24
-2153.2
3161.2
-2160.43
3620.41
-2165.4
4136.03
-2167.04
4711.51
-2164.13
5348.98
-2155.31
6048.72
-2139.19
6808.43
-2114.54
7622.45
-2080.49
8481.09
-2036.87
9369.92
-1984.44
10269.2
-1925.34
11153.6
-1864.06
11992.9
-1808.83
12756.7
-1766.96
13400
-1714.64
13716.1
-1564.87
12945.9
-1321.35
9987.57
-1380.99
6265.52
-1813.89
6360.43
-2115.81
8752.23
-2272.81
10166.6
-2300.75
10853.6
-2198.61
10758.6
-1987.38
9783.98
-1781.82
8269.04
-1696.94
6739.84
-1708.37
5389.56
-1714.69
3759.02
-1704.27
1702.68
-1696.6
-549.322
-1700.21
-3112.06
-1686.6
-5463.95
-1645.46
-7623.36
-1587.28
-9469.13
-1552.12
-11001.5
-1577.81
-12419.6
-1620.91
-13837
-1538.79
-14628.2
-1238.77
-13477.5
-836.869
-9992.3
-531.99
-6033.27
-311.253
-3492.23
-112.334
-1288.78
180.992
1011.25
379.152
4334.87
437.293
6034.29
5702.36
-2101.05
-70.5183
-2099.49
-65.5761
-2097.9
-60.44
-2096.32
-53.1133
-2094.78
-43.8523
-2093.32
-32.5078
-2091.95
-18.9487
-2090.72
-2.99647
-2089.64
15.579
-2088.75
37.0795
-2088.08
61.8724
-2087.64
90.3548
-2087.48
123.007
-2087.62
160.39
-2088.11
203.15
-2088.97
252.036
-2090.25
307.91
-2092.01
371.78
-2094.26
444.795
-2097.07
528.275
-2100.47
623.787
-2104.5
733.04
-2109.18
858.019
-2114.54
1000.99
-2120.56
1164.5
-2127.23
1351.45
-2134.46
1565.04
-2142.13
1808.83
-2150.06
2086.72
-2157.97
2402.89
-2165.45
2761.73
-2171.98
3167.74
-2176.87
3625.29
-2179.24
4138.41
-2178.06
4710.32
-2172.12
5343.04
-2160.13
6036.73
-2140.8
6789.1
-2113.02
7594.67
-2076.08
8444.15
-2029.94
9323.79
-1975.55
10214.8
-1915.26
11093.3
-1853.97
11931.6
-1800.28
12703.1
-1759.89
13359.6
-1703.8
13660
-1548.06
12790.1
-1323.89
9763.41
-1411.78
6353.4
-1812.68
6761.33
-2090.24
9029.8
-2234.66
10311
-2248.49
10867.4
-2124.49
10634.6
-1905.07
9564.57
-1722.03
8086
-1669.51
6687.31
-1686.34
5406.39
-1685
3757.69
-1671.5
1689.18
-1662.01
-558.812
-1672.08
-3102
-1667.97
-5468.06
-1635.3
-7656.02
-1579.28
-9525.16
-1537.38
-11043.4
-1555.07
-12401.9
-1605.25
-13786.9
-1548.8
-14684.7
-1273.08
-13753.2
-876.683
-10388.7
-569.768
-6340.18
-354.468
-3707.53
-164.858
-1478.39
109.914
736.484
297.173
4147.61
363.936
5967.53
5809.18
-2137.92
-71.9375
-2136.25
-67.2449
-2134.56
-62.1302
-2132.87
-54.8046
-2131.22
-45.5069
-2129.63
-34.0957
-2128.14
-20.4414
-2126.77
-4.36569
-2125.55
14.3601
-2124.51
36.0352
-2123.66
61.0275
-2123.04
89.7347
-2122.67
122.639
-2122.59
160.304
-2122.82
203.379
-2123.39
252.614
-2124.36
308.874
-2125.74
373.165
-2127.58
446.636
-2129.93
530.62
-2132.8
626.658
-2136.23
736.466
-2140.23
862.02
-2144.81
1005.57
-2149.94
1169.64
-2155.6
1357.1
-2161.67
1571.12
-2168.04
1815.2
-2174.48
2093.16
-2180.69
2409.1
-2186.26
2767.3
-2190.64
3172.11
-2193.13
3627.78
-2192.86
4138.14
-2188.81
4706.27
-2179.81
5334.04
-2164.63
6021.56
-2142.09
6766.55
-2111.18
7563.76
-2071.33
8404.31
-2022.67
9275.12
-1966.27
10158.4
-1904.75
11031.8
-1843.39
11870.3
-1791.06
12650.7
-1751.49
13320
-1690.95
13599.4
-1530.51
12629.7
-1326.23
9559.13
-1435.93
6463.1
-1806.35
7131.75
-2061.72
9285.17
-2192.33
10441.6
-2189.2
10864.3
-2045.44
10490.9
-1825.28
9344.41
-1668.04
7928.76
-1640.93
6660.2
-1657.08
5422.53
-1647.78
3748.39
-1631.45
1672.85
-1620.59
-569.672
-1637.19
-3085.4
-1643.18
-5462.08
-1620.43
-7678.76
-1568.91
-9576.69
-1522.29
-11090
-1531.8
-12392.4
-1586.83
-13731.8
-1555.02
-14716.5
-1305.25
-14003
-916.279
-10777.7
-607.887
-6648.58
-397.759
-3917.66
-216.108
-1660.05
37.0449
483.32
216.517
3968.14
287.105
5896.95
5881.06
-2174.96
-73.4695
-2173.19
-69.0166
-2171.4
-63.9221
-2169.6
-56.6015
-2167.84
-47.2716
-2166.13
-35.7995
-2164.52
-22.057
-2163.02
-5.86629
-2161.66
12.9996
-2160.46
34.8377
-2159.45
60.0153
-2158.64
88.9306
-2158.07
122.068
-2157.76
159.992
-2157.73
203.354
-2158.02
252.905
-2158.66
309.513
-2159.68
374.183
-2161.1
448.061
-2162.97
532.488
-2165.3
628.987
-2168.11
739.275
-2171.41
865.317
-2175.18
1009.34
-2179.4
1173.87
-2184.01
1361.71
-2188.9
1576.01
-2193.92
1820.21
-2198.82
2098.06
-2203.3
2413.57
-2206.9
2770.91
-2209.09
3174.3
-2209.13
3627.83
-2206.19
4135.19
-2199.24
4699.32
-2187.16
5321.97
-2168.79
6003.19
-2143.03
6740.79
-2108.99
7529.72
-2066.24
8361.55
-2015.03
9223.91
-1956.6
10100
-1893.79
10969
-1832.33
11808.8
-1781.12
12599.5
-1741.66
13280.5
-1676.17
13533.9
-1512.31
12465.8
-1327.8
9374.63
-1453.52
6588.83
-1795.34
7473.57
-2030.3
9520.13
-2145.83
10557.1
-2123.56
10842
-1963.06
10330.4
-1749.01
9130.36
-1618.66
7798.42
-1609.16
6650.71
-1620.28
5433.65
-1603.49
3731.61
-1584.3
1653.65
-1572.55
-581.419
-1595.76
-3062.2
-1612.21
-5445.63
-1600.53
-7690.44
-1555.66
-9621.56
-1506.52
-11139.1
-1508.1
-12390.8
-1565.89
-13674
-1557.47
-14724.9
-1335.12
-14225.3
-955.506
-11157.3
-646.114
-6957.97
-441.119
-4122.65
-261.908
-1839.26
-40.9897
262.412
137.928
3789.22
218.37
5816.51
5931.85
-2212.06
-75.1207
-2210.18
-70.8875
-2208.3
-65.8098
-2206.4
-58.4982
-2204.53
-49.1407
-2202.72
-37.614
-2200.98
-23.791
-2199.36
-7.49439
-2197.86
11.5005
-2196.51
33.4893
-2195.33
58.8373
-2194.34
87.9432
-2193.57
121.293
-2193.03
159.451
-2192.75
203.072
-2192.75
252.906
-2193.06
309.823
-2193.7
374.826
-2194.7
449.063
-2196.09
533.87
-2197.86
630.761
-2200.04
741.451
-2202.61
867.891
-2205.56
1012.29
-2208.85
1177.15
-2212.38
1365.25
-2216.05
1579.68
-2219.68
1823.84
-2223.01
2101.39
-2225.7
2416.26
-2227.3
2772.51
-2227.25
3174.24
-2224.82
3625.4
-2219.17
4129.54
-2209.3
4689.45
-2194.13
5306.8
-2172.57
5981.63
-2143.6
6711.81
-2106.44
7492.56
-2060.78
8315.9
-2007.01
9170.13
-1946.51
10039.5
-1882.39
10904.8
-1820.76
11747.2
-1770.39
12549.2
-1730.35
13240.5
-1659.58
13463.2
-1493.5
12299.7
-1328.05
9209.18
-1464.74
6725.51
-1780.05
7788.88
-1996.1
9736.18
-2095.23
10656.2
-2052.35
10799.1
-1878.76
10156.8
-1676.77
8928.36
-1572.38
7694.02
-1572.75
6651.07
-1576.07
5436.97
-1552.68
3708.22
-1530.28
1631.25
-1518.2
-593.504
-1548.1
-3032.3
-1575.16
-5418.56
-1575.4
-7690.2
-1539.06
-9657.9
-1489.69
-11188.5
-1483.96
-12396.5
-1542.69
-13615.3
-1556.21
-14711.4
-1362.55
-14419
-994.252
-11525.6
-684.207
-7268.02
-484.558
-4322.31
-293.73
-2030.1
-122.98
91.6393
61.5905
3604.65
150.188
5727.91
5975.36
-2249.09
-76.8883
-2247.12
-72.8511
-2245.15
-67.7845
-2243.16
-60.4862
-2241.2
-51.1058
-2239.28
-39.5314
-2237.43
-25.6362
-2235.68
-9.24356
-2234.05
9.86858
-2232.56
31.9947
-2231.22
57.4969
-2230.05
86.7744
-2229.07
120.314
-2228.3
158.682
-2227.76
202.531
-2227.47
252.614
-2227.44
309.801
-2227.71
375.091
-2228.28
449.635
-2229.17
534.758
-2230.38
631.972
-2231.91
742.982
-2233.74
869.727
-2235.85