/*--------------------------------*- C++ -*----------------------------------*\
| =========                 |                                                 |
| \\      /  F ield         | OpenFOAM: The Open Source CFD Toolbox           |
|  \\    /   O peration     | Version:  4.1                                   |
|   \\  /    A nd           | Web:      www.OpenFOAM.org                      |
|    \\/     M anipulation  |                                                 |
\*---------------------------------------------------------------------------*/
FoamFile
{
    version     2.0;
    format      ascii;
    class       volSymmTensorField;
    location    "11";
    object      R;
}
// * * * * * * * * * * * * * * * * * * * * * * * * * * * * * * * * * * * * * //

dimensions      [0 2 -2 0 0 0 0];

internalField   nonuniform List<symmTensor> 
6785
(
(0.908979 3.93749e-16 6.49044e-16 0.457905 0.233409 2.08322)
(0.000209684 8.47887e-21 1.60851e-20 0.000198078 4.92988e-06 0.000238526)
(0.000128384 -2.27171e-23 1.88844e-24 0.000128351 3.65853e-09 0.000128406)
(0.000128277 6.41542e-24 6.31626e-24 0.000128262 9.47797e-09 0.000128276)
(0.000128289 -1.30812e-23 -6.1428e-24 0.000128274 9.23379e-09 0.000128288)
(0.000128258 5.109e-24 1.52853e-24 0.000128242 8.44514e-09 0.000128257)
(0.000128271 2.11959e-24 1.35432e-24 0.000128255 7.76607e-09 0.000128271)
(0.000128285 -8.3848e-24 -4.79834e-24 0.000128267 7.16892e-09 0.000128285)
(0.000128254 3.69456e-24 1.99864e-25 0.000128236 6.6616e-09 0.000128255)
(0.000128264 7.72012e-25 8.16343e-25 0.000128244 5.90281e-09 0.000128265)
(0.000128264 -5.47415e-24 -2.92694e-24 0.000128242 4.53397e-09 0.000128265)
(0.000128226 7.35436e-25 1.92063e-24 0.000128203 3.90483e-09 0.000128227)
(0.0001284 3.65747e-25 1.97991e-24 0.000128377 2.47561e-09 0.000128407)
(0.000303551 3.56399e-21 1.61762e-21 0.000265275 -2.70435e-05 0.000326937)
(0.420987 1.99137e-17 7.62972e-18 0.198345 -0.14122 0.589396)
(2.26923 3.25384e-16 1.90966e-15 0.749326 -0.450203 4.76475)
(0.21943 1.72337e-18 7.61383e-17 0.0802025 -0.0520871 0.379579)
(0.0143146 -1.17501e-18 1.53873e-18 0.00872866 -0.00179812 0.0201444)
(0.000146592 -6.9293e-21 1.19159e-20 0.000113929 -1.09338e-05 0.000180141)
(6.6037e-07 -3.1509e-24 5.56019e-24 6.43457e-07 -4.13731e-09 6.75799e-07)
(4.60736e-07 -3.84461e-25 3.921e-25 4.58347e-07 1.56221e-09 4.60017e-07)
(4.33152e-07 4.65561e-26 -1.19106e-24 4.28121e-07 4.36156e-09 4.31579e-07)
(3.99212e-07 -2.01494e-24 -2.67428e-25 3.90923e-07 7.84673e-09 3.96422e-07)
(3.67814e-07 4.63174e-24 4.06673e-24 3.61047e-07 5.3763e-09 3.64802e-07)
(3.59265e-07 3.8237e-23 -2.29609e-24 3.65568e-07 -5.19457e-09 3.58428e-07)
(3.44701e-07 8.32522e-24 1.63071e-24 3.65559e-07 -1.18372e-08 3.45043e-07)
(2.91092e-07 -5.20109e-24 9.87078e-24 3.22403e-07 -1.43981e-08 2.90124e-07)
(2.11913e-06 2.81204e-22 -6.44756e-23 2.45374e-06 -6.02558e-07 2.11829e-06)
(0.00941917 -8.65414e-19 -2.31224e-19 0.0111803 -0.0053513 0.00934605)
(0.644107 1.55261e-17 -4.10327e-17 0.743304 -0.556144 0.627178)
(3.70001 3.64233e-16 2.07925e-15 1.28932 -1.20558 7.08615)
(0.4528 -3.48813e-17 5.95841e-17 0.180707 -0.157017 0.762277)
(0.0226303 -8.57024e-18 5.67124e-19 0.0181189 -0.00373176 0.0302286)
(0.000244189 -4.29507e-20 -2.11457e-20 0.000225189 -3.89659e-05 0.000285983)
(1.50648e-05 3.67577e-21 -3.08212e-21 2.48388e-05 -2.13223e-05 1.73279e-05)
(0.000281631 1.15072e-19 -1.0777e-19 0.000531789 -0.000343417 0.000338632)
(0.00155548 1.70759e-19 -4.99967e-19 0.00310887 -0.00191057 0.00195187)
(0.00505248 -1.62309e-18 7.10555e-19 0.0100525 -0.00610336 0.00643943)
(0.0128117 -1.37833e-18 7.0498e-19 0.0245363 -0.0148375 0.0161466)
(0.0280197 9.81411e-18 -1.55838e-18 0.0510577 -0.0304809 0.0348653)
(0.0562388 2.50329e-17 9.09453e-18 0.0966952 -0.0575106 0.0697357)
(0.108167 1.01468e-16 -6.80937e-18 0.17521 -0.10521 0.133419)
(0.199509 1.21509e-16 -2.33724e-17 0.307187 -0.184111 0.240733)
(0.340308 -2.29384e-16 1.89931e-17 0.480303 -0.295036 0.387989)
(0.573913 -1.8771e-16 -1.17831e-16 0.598172 -0.456297 0.575017)
(4.23226 5.39003e-17 2.41794e-15 1.53857 -1.55381 7.59738)
(0.870633 -2.31854e-17 -1.76788e-16 0.395216 -0.298495 1.53381)
(0.0945375 -7.18472e-17 -1.51059e-17 0.0871933 -0.0193935 0.129713)
(0.00216042 -1.08172e-18 -6.93791e-20 0.0022885 -0.0004812 0.00254632)
(0.000130933 -3.08357e-20 -1.95478e-20 0.000194197 -8.78043e-05 0.000152196)
(0.000607052 1.86173e-19 7.35097e-20 0.0011491 -0.000753407 0.000759041)
(0.0030999 -3.15633e-19 -9.7978e-20 0.00608486 -0.00400874 0.00406364)
(0.00975468 -4.87419e-18 2.38899e-18 0.0189746 -0.0122789 0.0130884)
(0.0229159 -1.71513e-17 6.31547e-18 0.0428798 -0.0268533 0.0304522)
(0.0457832 -2.76306e-17 1.57023e-18 0.0816772 -0.0484724 0.0592791)
(0.0865556 -7.23352e-18 1.89218e-17 0.148216 -0.0830094 0.108997)
(0.163664 2.34414e-17 1.87673e-17 0.272159 -0.147233 0.201453)
(0.311318 -1.27538e-17 -1.51296e-16 0.501277 -0.275217 0.379028)
(0.556491 8.73068e-16 -6.38768e-16 0.824693 -0.516418 0.683426)
(0.353353 -7.158e-16 5.46284e-16 0.416811 -0.248943 0.347221)
(3.95021 -7.64481e-17 1.91809e-15 1.42822 -1.51836 6.81623)
(1.50189 1.31513e-16 -6.81576e-16 0.690819 -0.494622 2.88795)
(0.304599 -1.24151e-16 -2.00676e-16 0.222369 -0.0769485 0.487791)
(0.0473824 -2.72852e-17 -9.9263e-18 0.0396331 -0.0160914 0.0664606)
(0.00777412 -1.92948e-18 -1.63229e-18 0.00771943 -0.00367715 0.00983165)
(0.00183611 -2.46982e-19 1.31706e-19 0.00256165 -0.00150485 0.00220172)
(0.00291746 -1.10007e-18 -1.59081e-20 0.00555037 -0.00392961 0.00376335)
(0.00945102 -4.39582e-18 1.16999e-18 0.0184162 -0.0126614 0.0127493)
(0.0230023 -2.06163e-17 8.67653e-19 0.0434553 -0.0287409 0.0308993)
(0.0457673 -4.7846e-17 2.87561e-18 0.0830007 -0.051364 0.0596205)
(0.0836405 -1.31074e-17 1.18717e-17 0.146597 -0.0837248 0.104226)
(0.153689 -2.97355e-17 4.20429e-17 0.266056 -0.142186 0.183094)
(0.273423 -3.42638e-16 3.80516e-17 0.461703 -0.243648 0.316528)
(0.438617 -3.66417e-16 2.65542e-16 0.702871 -0.384064 0.492663)
(0.415653 1.01471e-15 -3.3964e-16 0.51375 -0.328518 0.413202)
(3.38367 -3.41574e-17 1.51913e-15 1.13496 -1.34095 5.79846)
(2.47443 -1.37732e-16 -8.18498e-16 1.09808 -0.845665 5.16524)
(0.628181 -3.56997e-16 -5.0243e-16 0.387139 -0.1652 1.10352)
(0.131246 -9.77356e-17 -8.7355e-17 0.100656 -0.0424846 0.188812)
(0.028584 -2.94277e-17 -8.72969e-18 0.02778 -0.0120301 0.0355456)
(0.00703951 -9.08703e-18 5.09993e-19 0.00878705 -0.00415936 0.00806523)
(0.00390104 -3.72463e-18 3.18299e-19 0.00677746 -0.00438538 0.0047303)
(0.00901756 -1.85684e-18 -8.39424e-19 0.0176282 -0.0124219 0.0119217)
(0.0223245 -7.69309e-18 -4.36767e-18 0.0431306 -0.0288653 0.0295258)
(0.0446983 -5.21666e-17 1.23619e-17 0.0835633 -0.0520796 0.0571087)
(0.0804115 -2.09712e-17 2.36632e-17 0.146108 -0.0842133 0.0977684)
(0.141489 -1.88365e-16 -1.23207e-17 0.253475 -0.135755 0.163227)
(0.251775 -2.71451e-16 1.93043e-16 0.436836 -0.230963 0.283276)
(0.454164 8.46411e-17 5.39435e-16 0.754749 -0.384961 0.494259)
(0.589186 1.21907e-15 -1.4239e-15 0.597426 -0.502645 0.699879)
(2.98346 7.33021e-17 1.51341e-15 1.01853 -1.17618 5.10984)
(3.70145 -2.69278e-16 -1.12165e-15 1.61068 -1.30102 8.01987)
(0.978139 -4.93742e-16 -6.69895e-16 0.558698 -0.270013 1.80383)
(0.219309 -2.2466e-16 -2.06839e-16 0.168737 -0.070194 0.319882)
(0.0536588 -6.63152e-17 -1.63553e-17 0.0568267 -0.0232779 0.0650301)
(0.014506 -1.81766e-17 3.45912e-18 0.0198603 -0.00875606 0.0161982)
(0.00594832 -7.29563e-18 1.80752e-18 0.0103162 -0.00594855 0.00698724)
(0.00933692 3.63918e-18 -3.14231e-18 0.0183623 -0.0129835 0.0120937)
(0.0227221 -1.69184e-19 -1.04361e-17 0.0447832 -0.0304302 0.0295306)
(0.0442415 -7.80628e-17 4.30623e-17 0.08417 -0.053951 0.0553771)
(0.0742896 2.72304e-17 2.62952e-19 0.13593 -0.0801998 0.0884372)
(0.124767 -2.82999e-17 -2.31481e-17 0.223586 -0.122328 0.141091)
(0.254617 -4.34478e-16 3.12081e-16 0.43316 -0.237021 0.285415)
(0.59883 3.45675e-16 -3.40862e-16 0.992151 -0.4994 0.631023)
(0.782478 6.52459e-16 -5.6463e-16 0.884462 -0.661259 0.801489)
(2.75312 1.87922e-16 1.64836e-15 1.30914 -0.892397 4.43024)
(4.48318 -2.90482e-17 -4.90943e-16 2.06135 -1.4846 9.66931)
(1.15077 -3.97288e-16 -8.7204e-16 0.664114 -0.306846 2.11945)
(0.265486 -3.14919e-16 -2.3805e-16 0.219662 -0.0828428 0.375988)
(0.0712986 -8.5571e-17 -2.37064e-17 0.085411 -0.0338808 0.0824502)
(0.021706 -1.82134e-17 4.21866e-18 0.0332631 -0.0146368 0.0240264)
(0.00845308 -1.27449e-17 5.05317e-18 0.0153357 -0.00834597 0.0100291)
(0.00986322 7.27293e-18 -2.24073e-18 0.0195038 -0.0136454 0.0126167)
(0.0217333 1.12859e-17 -1.206e-17 0.0427111 -0.0296738 0.0277476)
(0.040632 -8.71411e-17 4.79417e-17 0.0771206 -0.0495851 0.0499611)
(0.0628429 2.73566e-17 6.47365e-18 0.113896 -0.0683783 0.0735848)
(0.104448 4.53679e-18 -5.00461e-19 0.184372 -0.101766 0.116653)
(0.273875 -5.16561e-16 2.28018e-16 0.451197 -0.255194 0.308098)
(0.709573 4.46545e-16 -4.2635e-16 1.15947 -0.572468 0.718379)
(0.853511 4.41721e-16 -1.80739e-16 1.06618 -0.708658 0.704523)
(2.63598 2.08232e-16 1.73493e-15 1.30284 -0.786342 4.26033)
(4.55582 8.09569e-17 6.00331e-17 2.15026 -1.45645 9.74799)
(1.16945 -2.95917e-16 -9.55939e-16 0.685006 -0.300616 2.13586)
(0.281129 -3.33886e-16 -2.4673e-16 0.251335 -0.0855051 0.384621)
(0.0835704 -9.15263e-17 -2.63226e-17 0.110633 -0.0441111 0.0931692)
(0.0287959 -2.40975e-17 9.04947e-19 0.0475557 -0.0216475 0.032266)
(0.0115248 -2.21266e-17 7.55314e-18 0.0216491 -0.0115655 0.0140409)
(0.0104928 8.92374e-18 3.73315e-18 0.0208071 -0.0139959 0.0133354)
(0.019457 1.65481e-17 -1.64448e-17 0.0378949 -0.0260406 0.0244349)
(0.0337035 -7.80901e-17 3.16382e-17 0.0632242 -0.0408835 0.0407274)
(0.0487636 -2.10189e-17 2.04247e-17 0.0870916 -0.0524254 0.056227)
(0.0878611 -8.6599e-19 5.26732e-19 0.153036 -0.0833496 0.0973646)
(0.294937 -3.91626e-16 2.16844e-16 0.472391 -0.273599 0.335316)
(0.791917 -3.16108e-16 2.94857e-16 1.26138 -0.624579 0.817605)
(0.973334 6.7066e-16 -5.45647e-16 1.01584 -0.782817 1.04661)
(2.50586 3.53266e-17 1.43271e-15 1.0926 -0.82053 4.22913)
(3.98901 5.41625e-16 -4.30758e-16 1.9506 -1.21778 8.44971)
(1.07513 -2.31496e-16 -8.6427e-16 0.641937 -0.2612 1.94353)
(0.280032 -3.27561e-16 -2.41862e-16 0.26474 -0.0805131 0.373473)
(0.0942091 -1.56901e-16 -2.19036e-17 0.132507 -0.0537115 0.10328)
(0.0374191 -4.28216e-17 -1.87612e-19 0.0644894 -0.0306526 0.0427823)
(0.0158771 -1.72949e-17 1.09452e-17 0.0303941 -0.0163164 0.0198514)
(0.0114093 -1.22499e-18 2.79362e-18 0.0226229 -0.0144737 0.0144622)
(0.0166113 1.66574e-17 -3.50065e-18 0.0320216 -0.021406 0.0205393)
(0.0259589 -3.89507e-17 2.47855e-17 0.0480496 -0.0305294 0.0308288)
(0.0360867 -4.84329e-17 5.93122e-18 0.0634936 -0.0377452 0.0409813)
(0.0785813 -2.26672e-17 -7.84701e-18 0.135958 -0.0729945 0.0867501)
(0.318551 -2.20581e-16 2.11891e-16 0.501626 -0.295348 0.365244)
(0.849534 -6.30857e-16 5.09871e-16 1.33028 -0.661211 0.889289)
(1.03498 8.42247e-16 -5.92435e-16 0.980648 -0.823435 1.21175)
(2.36239 -1.12435e-16 1.20626e-15 0.822418 -0.883934 4.21201)
(3.33124 -3.51375e-16 1.07487e-15 1.67381 -0.965016 7.04197)
(0.931168 -1.25843e-16 -1.06313e-15 0.569363 -0.210338 1.67187)
(0.266861 -2.18355e-16 -2.73921e-16 0.259154 -0.0705122 0.351581)
(0.1021 -2.05223e-16 -1.59242e-17 0.147142 -0.0603772 0.111567)
(0.0467796 -4.76066e-17 -1.54994e-18 0.0818441 -0.0398633 0.0543243)
(0.0217325 -1.57491e-17 1.56965e-17 0.0419284 -0.0226041 0.0275347)
(0.0130177 -9.08546e-18 3.98476e-18 0.0258648 -0.0156734 0.0165071)
(0.0141534 8.76068e-19 -3.85951e-18 0.0271197 -0.017155 0.0172731)
(0.0194476 -2.33915e-17 1.2684e-17 0.0356024 -0.0219925 0.0227178)
(0.0279735 -2.48913e-17 7.85917e-18 0.0489871 -0.0281305 0.0314079)
(0.0789427 -8.79379e-17 4.55779e-17 0.137881 -0.0712954 0.0870826)
(0.346903 -6.28141e-16 2.67678e-16 0.541078 -0.322623 0.399822)
(0.894838 -2.1059e-15 1.89488e-16 1.38248 -0.690791 0.941787)
(1.08264 2.74121e-15 -1.31789e-15 0.984324 -0.870142 1.3009)
(2.22393 -6.82402e-17 8.37414e-16 0.635264 -0.896446 4.10744)
(2.75724 -5.79636e-16 2.73218e-15 1.41963 -0.745593 5.85051)
(0.793265 -1.75174e-16 -7.06526e-16 0.490006 -0.16902 1.43541)
(0.243695 -1.63778e-16 -2.37097e-16 0.237494 -0.0582151 0.320458)
(0.106114 -2.35557e-16 3.5938e-18 0.154264 -0.0641547 0.115955)
(0.0562596 -1.10581e-16 1.58276e-17 0.0994661 -0.0495234 0.0658229)
(0.0286495 -3.33794e-18 1.12514e-17 0.0554691 -0.0300632 0.0364614)
(0.0152304 -1.97525e-17 1.24071e-17 0.0302438 -0.0175302 0.0193265)
(0.0121542 -9.29214e-18 3.66375e-18 0.023069 -0.0139704 0.0146629)
(0.0152041 8.86266e-19 5.36525e-18 0.02772 -0.0161102 0.0175259)
(0.0232521 -2.33023e-17 2.92645e-17 0.0405469 -0.0224413 0.0259215)
(0.0849086 -1.67325e-16 1.12225e-16 0.14861 -0.0763161 0.0938214)
(0.378948 -1.01428e-15 3.32556e-16 0.583136 -0.35272 0.439197)
(0.931613 -1.25978e-15 5.05826e-16 1.41366 -0.711132 0.987066)
(1.08914 2.95983e-15 -2.2583e-15 0.956778 -0.869613 1.3422)
(2.0952 3.40887e-18 4.956e-17 0.60111 -0.85342 3.85248)
(2.30286 -2.56708e-16 3.43565e-15 1.22265 -0.575093 4.90862)
(0.637082 -9.44145e-17 -3.08432e-16 0.404481 -0.125633 1.15756)
(0.216351 -1.00663e-16 -1.8036e-16 0.205497 -0.0470957 0.290265)
(0.107848 -2.90451e-16 2.18174e-17 0.154251 -0.0655877 0.119159)
(0.0648173 -1.81749e-16 4.4821e-17 0.113514 -0.0571451 0.0754513)
(0.0369239 3.78703e-17 -1.08151e-17 0.0711871 -0.0392899 0.0462604)
(0.0189305 -3.12701e-17 2.74968e-17 0.03758 -0.0214391 0.0238138)
(0.0115975 -2.40048e-17 1.26825e-17 0.0220581 -0.0126574 0.0138935)
(0.0125325 1.58994e-17 -6.09042e-18 0.0228969 -0.0127653 0.014289)
(0.0219428 -6.92376e-17 4.00226e-17 0.0387146 -0.0203596 0.0244506)
(0.0976716 -2.72728e-16 1.47559e-16 0.17413 -0.0888723 0.108189)
(0.414243 -4.62472e-16 3.61537e-16 0.636128 -0.390037 0.483326)
(0.938793 -2.48609e-15 8.05885e-16 1.40883 -0.723393 0.994281)
(1.07144 3.34144e-15 -2.46116e-15 0.933215 -0.856286 1.32809)
(1.86763 -1.65455e-16 -8.7597e-18 0.590003 -0.701273 3.33881)
(1.92945 1.68546e-16 2.66591e-15 1.04492 -0.392526 4.163)
(0.475861 -5.3115e-17 -4.78066e-16 0.302113 -0.080512 0.872081)
(0.158802 -5.78384e-17 -1.0362e-16 0.153392 -0.0322249 0.205643)
(0.0937374 -2.79818e-16 4.17004e-17 0.137748 -0.0583235 0.101315)
(0.062841 -1.5901e-16 4.46038e-17 0.111213 -0.0561774 0.0730002)
(0.0379479 6.25032e-17 -2.11912e-17 0.0729185 -0.0390902 0.0473971)
(0.0197179 -4.96332e-17 3.16171e-17 0.0388841 -0.0209061 0.024741)
(0.0128931 -2.5516e-17 1.38444e-17 0.0244103 -0.013075 0.0155609)
(0.0198641 2.75983e-18 7.76503e-18 0.0366317 -0.0197943 0.0235082)
(0.0548365 -2.27985e-16 1.3155e-16 0.0978797 -0.0548382 0.0649805)
(0.189632 -4.28257e-16 2.9407e-16 0.325736 -0.180232 0.221226)
(0.515428 -7.18219e-16 5.944e-16 0.759554 -0.470919 0.608361)
(1.02398 -2.41618e-15 6.30307e-16 1.48728 -0.771499 1.10366)
(1.16692 3.87166e-15 -3.10438e-15 1.03358 -0.953829 1.41705)
(2.40152 -1.2788e-16 -4.14734e-16 0.9756 -0.9208 4.18466)
(1.70712 1.00966e-16 3.13791e-15 0.989558 -0.486657 3.63966)
(0.466313 -9.56486e-17 -1.14233e-16 0.3077 -0.129492 0.887513)
(0.249 -8.81397e-17 -9.7151e-17 0.209868 -0.0821978 0.3832)
(0.15205 -2.67952e-16 3.58263e-17 0.187918 -0.0949148 0.196464)
(0.100129 -2.10732e-16 6.99345e-17 0.173028 -0.0986236 0.117913)
(0.0651404 2.89736e-17 -2.38357e-17 0.130219 -0.0781784 0.0766762)
(0.034773 -6.26583e-17 3.74125e-17 0.0731566 -0.0425876 0.041005)
(0.0181575 -4.22249e-17 2.32932e-17 0.0370068 -0.0179471 0.0209642)
(0.0241374 -2.77093e-18 1.01124e-17 0.0472125 -0.0227995 0.027663)
(0.0613915 -2.00352e-16 1.13082e-16 0.113559 -0.0565744 0.0693593)
(0.172466 -3.2924e-16 2.22793e-16 0.301995 -0.154985 0.189532)
(0.409734 -8.05577e-16 5.75148e-16 0.619666 -0.372282 0.461551)
(0.662002 -8.74559e-16 2.59756e-16 0.933408 -0.520464 0.687691)
(0.698077 3.06766e-15 -2.32455e-15 0.569883 -0.498288 0.805418)
(0.165421 1.2719e-18 6.63642e-17 0.212741 0.00327132 0.190552)
(0.129934 -7.23989e-19 8.03145e-17 0.15745 0.00998558 0.15234)
(0.124886 -3.85629e-18 6.0579e-17 0.141587 0.00979912 0.162033)
(0.117135 -4.5228e-18 5.86864e-17 0.126441 0.00654386 0.161584)
(0.107671 -5.95672e-18 5.73451e-17 0.11186 0.00162683 0.152113)
(0.0818871 -1.59905e-17 7.78742e-17 0.0829428 -0.00795665 0.111369)
(0.0898324 -2.15287e-17 5.77995e-17 0.0848812 -0.0110068 0.123172)
(0.0936338 -2.77679e-17 5.57598e-17 0.08543 -0.0136402 0.128814)
(0.0948737 -3.27321e-17 5.26866e-17 0.084817 -0.0131047 0.130393)
(0.0866846 -5.67409e-17 7.629e-17 0.0764132 -0.0156306 0.118227)
(0.0970195 -3.92743e-17 4.37303e-17 0.0831994 -0.016604 0.128179)
(0.102998 -2.89662e-17 3.45033e-17 0.0875327 -0.0181478 0.132992)
(0.105422 -1.53605e-17 4.67381e-17 0.0903546 -0.0232651 0.128544)
(0.118858 1.27708e-18 2.63465e-17 0.100179 -0.0238323 0.142978)
(0.127468 1.05616e-18 2.48953e-17 0.106811 -0.0266572 0.151595)
(0.133034 -5.10738e-19 2.44532e-17 0.111579 -0.0265081 0.155212)
(0.130831 -5.33099e-18 4.42979e-17 0.109466 -0.028824 0.144914)
(0.143795 -8.00372e-19 2.62315e-17 0.118003 -0.026028 0.163263)
(0.152318 1.77036e-18 2.50751e-17 0.12635 -0.024094 0.167998)
(0.156764 2.08617e-18 4.21586e-17 0.133597 -0.0279168 0.160896)
(0.175377 -4.98536e-20 2.80259e-17 0.151336 -0.0275844 0.172843)
(0.187228 -3.60374e-18 2.81361e-17 0.163233 -0.0299297 0.178598)
(0.195855 2.60547e-18 2.56665e-17 0.172249 -0.0313021 0.181897)
(0.19868 2.63698e-17 4.56492e-17 0.174647 -0.0384508 0.178737)
(0.216379 2.3466e-17 2.65504e-17 0.194155 -0.0377282 0.183124)
(0.226813 2.64934e-17 2.38222e-17 0.206915 -0.0413079 0.183217)
(0.233465 2.9264e-17 2.74716e-17 0.215146 -0.0418565 0.181688)
(0.232868 5.01134e-17 6.29785e-17 0.216212 -0.0519867 0.170526)
(0.245897 3.52988e-17 3.86903e-17 0.230661 -0.0447509 0.173952)
(0.251938 3.05004e-17 3.42762e-17 0.238245 -0.0440529 0.174093)
(0.25083 3.93817e-17 4.50299e-17 0.238979 -0.0541761 0.166266)
(0.263783 2.4798e-17 3.65231e-17 0.253335 -0.0467559 0.169923)
(0.269574 2.02206e-17 3.88002e-17 0.26034 -0.0478547 0.170407)
(0.272523 1.40623e-17 4.04752e-17 0.264117 -0.0453557 0.169143)
(0.266783 9.38167e-18 5.68277e-17 0.258881 -0.0539752 0.159176)
(0.27617 6.93551e-19 4.3457e-17 0.269068 -0.0408207 0.163761)
(0.278645 -1.94478e-18 4.19003e-17 0.27226 -0.039264 0.164256)
(0.271833 -1.60202e-18 5.5e-17 0.265621 -0.0473684 0.157406)
(0.28198 -8.04631e-18 4.23132e-17 0.277371 -0.0381627 0.162535)
(0.284346 -1.18868e-17 4.14283e-17 0.280396 -0.0381671 0.163383)
(0.284757 -7.59722e-18 3.78677e-17 0.281459 -0.0373423 0.162317)
(0.275293 1.71251e-17 4.97913e-17 0.271768 -0.0469665 0.154075)
(0.286017 9.2614e-18 3.78396e-17 0.285071 -0.0392109 0.159966)
(0.288003 9.13578e-18 3.67615e-17 0.288036 -0.0402015 0.160917)
(0.287942 6.17566e-18 3.46642e-17 0.28872 -0.0398477 0.160211)
(0.276777 2.34896e-17 4.03345e-17 0.276454 -0.0516197 0.154152)
(0.287586 4.8506e-18 3.56488e-17 0.289875 -0.043884 0.1615)
(0.28948 -3.17837e-18 3.55366e-17 0.294107 -0.0426137 0.159795)
(0.28098 -1.80717e-18 4.77245e-17 0.28782 -0.0495573 0.152574)
(0.293302 -1.10265e-17 3.22333e-17 0.305198 -0.0377146 0.155358)
(0.295283 -2.32433e-18 3.00932e-17 0.31007 -0.0355272 0.154259)
(0.292429 -4.31927e-18 3.0034e-17 0.307056 -0.0298324 0.155731)
(0.273402 5.63555e-18 4.08588e-17 0.28625 -0.0285686 0.153959)
(0.29022 -1.27744e-17 2.74421e-17 0.304998 -0.0246279 0.159852)
(0.293761 -1.94096e-17 2.31279e-17 0.310002 -0.0251306 0.161806)
(0.292769 -1.73181e-17 2.08838e-17 0.310444 -0.0237031 0.162)
(0.279199 1.0495e-17 2.69757e-17 0.301817 -0.0304079 0.160959)
(0.291073 1.16837e-17 1.31542e-17 0.312884 -0.0229235 0.159029)
(0.293559 2.14163e-17 9.19068e-18 0.316563 -0.0222507 0.157829)
(0.287631 7.79594e-17 -9.12993e-18 0.317638 -0.0349233 0.154467)
(0.293745 6.17597e-17 -8.89796e-18 0.318507 -0.0239016 0.153723)
(0.293951 9.59808e-17 -1.64485e-17 0.317994 -0.0241473 0.153278)
(0.290474 1.58867e-16 -2.53145e-17 0.314271 -0.0236824 0.149958)
(0.2752 4.28607e-16 -5.88621e-17 0.302363 -0.0393445 0.141893)
(0.267658 3.66078e-16 -1.62786e-17 0.291626 -0.0267705 0.134154)
(0.259528 3.4025e-16 -1.04852e-17 0.284158 -0.0280948 0.12929)
(0.234391 3.79419e-16 -5.93737e-17 0.262541 -0.0469598 0.118671)
(0.213905 2.40857e-16 -9.66235e-18 0.24096 -0.032678 0.105127)
(0.200039 2.23084e-16 -1.74708e-17 0.228748 -0.0346737 0.0984005)
(0.182638 2.29183e-16 -3.06584e-17 0.212847 -0.0359759 0.09114)
(0.147257 3.28381e-16 -9.3755e-17 0.180886 -0.0610573 0.0808499)
(0.124898 2.91182e-16 -8.20066e-17 0.158889 -0.0497553 0.0739485)
(0.113991 3.33524e-16 -1.22284e-16 0.148293 -0.0578899 0.0744892)
(0.106079 3.73041e-16 -1.77851e-16 0.141227 -0.0686236 0.0795334)
(0.101229 4.83309e-16 -2.88507e-16 0.138479 -0.109671 0.0938319)
(0.102005 4.24588e-16 -2.78712e-16 0.139652 -0.101689 0.104675)
(0.107503 4.60062e-16 -3.37182e-16 0.146073 -0.118401 0.117436)
(0.121636 5.11134e-16 -4.31339e-16 0.161936 -0.157327 0.139513)
(0.130662 4.20042e-16 -3.78658e-16 0.170201 -0.144041 0.155434)
(0.141106 4.20895e-16 -4.1282e-16 0.181386 -0.161339 0.171439)
(0.157347 3.45309e-16 -3.77198e-16 0.199117 -0.171075 0.19364)
(0.161807 2.13084e-16 -2.67822e-16 0.207763 -0.17126 0.198007)
(0.159346 9.20189e-17 -1.67643e-16 0.20993 -0.169596 0.195877)
(0.14761 -8.60223e-17 -2.80895e-17 0.202504 -0.159356 0.182286)
(0.163653 -1.79002e-16 1.01403e-17 0.228238 -0.171434 0.200736)
(0.15444 -3.13065e-16 1.13091e-16 0.224394 -0.164827 0.190659)
(0.146283 -3.85428e-16 1.7757e-16 0.215591 -0.156873 0.179583)
(0.13992 -4.04132e-16 2.05397e-16 0.208709 -0.150794 0.172396)
(0.132491 -4.09396e-16 2.23069e-16 0.199775 -0.143824 0.164615)
(0.1237 -4.11143e-16 2.37714e-16 0.188905 -0.13548 0.155497)
(0.112527 -4.00432e-16 2.44072e-16 0.174251 -0.124468 0.14319)
(0.0989303 -3.67041e-16 2.32792e-16 0.154669 -0.110235 0.126915)
(0.0848362 -3.21232e-16 2.06679e-16 0.133239 -0.0938079 0.109033)
(0.08623 -3.30878e-16 2.05736e-16 0.137269 -0.0905084 0.111685)
(0.0782026 -3.05153e-16 1.9708e-16 0.124787 -0.0822668 0.103308)
(0.0701929 -2.74859e-16 1.86519e-16 0.112661 -0.0735685 0.0936039)
(0.0609387 -2.41484e-16 1.72725e-16 0.0990955 -0.0636038 0.0815724)
(0.0574946 -2.19718e-16 1.61115e-16 0.0929979 -0.0592011 0.076639)
(0.0551557 -1.96209e-16 1.48831e-16 0.0888803 -0.0563575 0.0741161)
(0.0517547 -1.69343e-16 1.32873e-16 0.0826726 -0.0526708 0.0703187)
(0.0469103 -1.37909e-16 1.12663e-16 0.073441 -0.0480343 0.0650757)
(0.0398109 -1.00745e-16 8.31998e-17 0.0604073 -0.0414754 0.0572162)
(0.0392999 -8.10356e-17 6.54032e-17 0.0594666 -0.0392451 0.0571428)
(0.0390924 -7.06109e-17 5.94151e-17 0.058354 -0.0390445 0.0574457)
(0.0387218 -5.87109e-17 5.10922e-17 0.0570892 -0.0385929 0.0571531)
(0.038337 -4.72603e-17 4.26351e-17 0.0558621 -0.0381822 0.0568858)
(0.0376726 -3.54125e-17 3.35376e-17 0.0541502 -0.037474 0.056118)
(0.0372929 -2.62693e-17 2.60569e-17 0.052972 -0.0368969 0.0554933)
(0.0384163 -2.5147e-17 2.42082e-17 0.0545148 -0.0375474 0.0568293)
(0.0399892 -2.53085e-17 2.35285e-17 0.0567757 -0.038535 0.0589744)
(0.0413679 -2.52491e-17 2.29814e-17 0.0581488 -0.0392707 0.0609505)
(0.043154 -2.6034e-17 2.29634e-17 0.0599718 -0.0400251 0.063411)
(0.0453262 -3.17677e-17 2.39243e-17 0.0625198 -0.0414789 0.0676996)
(0.0472991 -2.94676e-17 2.22433e-17 0.065018 -0.0428387 0.0706614)
(0.049432 -2.57083e-17 1.86003e-17 0.0678457 -0.0439605 0.0734723)
(0.0518626 -2.20142e-17 1.41267e-17 0.0709868 -0.0451311 0.0767115)
(0.0546756 -1.82516e-17 8.3816e-18 0.0747596 -0.0462237 0.0803425)
(0.0579083 -1.288e-17 1.05965e-19 0.0793991 -0.0469904 0.0841987)
(0.0611957 -9.18176e-18 -7.70009e-18 0.0837267 -0.0468802 0.088105)
(0.0646179 -1.19106e-17 -1.12539e-17 0.0871501 -0.0464297 0.0926989)
(0.0690306 -1.81807e-17 -1.30719e-17 0.0911698 -0.0460796 0.098841)
(0.0752368 -3.17808e-17 -1.60445e-17 0.0978383 -0.0492883 0.110233)
(0.0789206 -3.71115e-17 -1.6072e-17 0.101417 -0.0497176 0.115465)
(0.082422 -4.77234e-17 -1.21035e-17 0.104212 -0.0486753 0.119869)
(0.0856503 -6.15406e-17 -5.43449e-18 0.105513 -0.0467855 0.124541)
(0.0896501 -7.49137e-17 1.23095e-18 0.107453 -0.0449263 0.130663)
(0.0944933 -8.8339e-17 8.43459e-18 0.110245 -0.0427852 0.138083)
(0.100501 -1.01599e-16 1.555e-17 0.114351 -0.0403811 0.147307)
(0.106725 -1.15837e-16 2.2199e-17 0.116481 -0.0367077 0.157347)
(0.112415 -1.10729e-16 1.67841e-17 0.115847 -0.0316175 0.168439)
(0.127129 -1.21341e-16 2.80946e-17 0.126039 -0.0374299 0.196702)
(0.13372 -1.16194e-16 2.58482e-17 0.127545 -0.035551 0.209765)
(0.142299 -1.09954e-16 2.24653e-17 0.130548 -0.033407 0.2263)
(0.152036 -1.01948e-16 1.80358e-17 0.132616 -0.0303881 0.245758)
(0.162221 -9.02157e-17 1.42532e-17 0.135249 -0.0269339 0.267181)
(0.174222 -7.84726e-17 1.2456e-17 0.140198 -0.0240658 0.292903)
(0.189166 -6.62285e-17 1.12868e-17 0.147363 -0.0212845 0.32497)
(0.207776 -5.24937e-17 1.06279e-17 0.156772 -0.0184352 0.36512)
(0.232843 -3.55361e-17 1.0706e-17 0.170736 -0.0169771 0.419064)
(0.283881 -4.34741e-17 2.91687e-17 0.197758 -0.0234694 0.52087)
(0.305184 -4.01483e-17 4.21586e-17 0.208966 -0.0228094 0.567921)
(0.332609 -3.53797e-17 6.04905e-17 0.224398 -0.0249174 0.628027)
(0.363574 -2.77132e-17 8.31128e-17 0.238641 -0.0271533 0.697657)
(0.400342 -1.64956e-17 1.11329e-16 0.255998 -0.0308653 0.780218)
(0.443548 3.45795e-18 1.46824e-16 0.276294 -0.0368847 0.877197)
(0.478246 2.80829e-17 2.01116e-16 0.2933 -0.0404004 0.95401)
(0.518514 4.88668e-17 2.6612e-16 0.316037 -0.0438498 1.04113)
(0.569245 7.5575e-17 3.41434e-16 0.354374 -0.0496738 1.14483)
(0.632989 1.13101e-16 4.40549e-16 0.40548 -0.0647021 1.27024)
(0.801524 2.30798e-16 7.36777e-16 0.454488 -0.097814 1.60482)
(0.826468 2.66558e-16 7.02626e-16 0.473285 -0.085588 1.65327)
(0.836998 2.78133e-16 5.83675e-16 0.490264 -0.0827689 1.66798)
(0.83001 2.71149e-16 4.24346e-16 0.477294 -0.0703104 1.64904)
(0.805647 2.4548e-16 2.13967e-16 0.441422 -0.0640421 1.58849)
(0.753186 1.52803e-16 -6.4932e-17 0.37138 -0.0760606 1.45647)
(0.679553 1.11071e-17 -2.76593e-16 0.317944 -0.0997846 1.27598)
(0.616954 -6.32913e-17 -2.88093e-16 0.30809 -0.104989 1.14942)
(0.486369 -5.15633e-17 -2.48068e-16 0.279698 -0.0620545 0.922222)
(0.413634 -3.95885e-17 -1.03324e-16 0.15284 -0.0681053 0.699501)
(0.277802 -3.55138e-17 -5.98207e-17 0.100918 -0.0335284 0.45561)
(0.0679138 -2.78232e-20 -5.79192e-18 0.0416843 0.0134356 0.0832615)
(0.0476988 6.82424e-18 -7.26541e-19 0.036556 0.0106576 0.0462401)
(0.0417143 5.74336e-18 4.73881e-18 0.036614 0.0144962 0.0284462)
(0.0456639 2.9181e-19 1.21258e-17 0.0422114 0.0148362 0.0268159)
(0.0450796 -1.14077e-17 1.40429e-17 0.0416601 0.0168588 0.026257)
(0.047272 -1.23634e-17 1.13453e-17 0.0431426 0.0154132 0.0269303)
(0.0466293 -1.4582e-17 8.36739e-18 0.042372 0.01675 0.0281858)
(0.0480528 -2.18781e-17 6.23839e-18 0.0424461 0.015804 0.0303925)
(0.0503034 -1.85672e-17 8.22959e-18 0.0465977 0.0153035 0.0258547)
(0.0495634 -2.26045e-17 7.04783e-18 0.04699 0.0169632 0.0243279)
(0.049902 -2.52136e-17 4.11501e-18 0.0469981 0.0162564 0.0242406)
(0.0499703 -1.24507e-17 6.70617e-18 0.0466024 0.0155456 0.0238933)
(0.0476211 -1.06453e-17 7.04346e-18 0.0437509 0.0175924 0.0230162)
(0.0479973 -6.50471e-18 5.87749e-18 0.0442091 0.0149531 0.0233759)
(0.0462589 -6.61639e-18 4.77828e-18 0.0432104 0.0158325 0.022902)
(0.0455369 -7.24547e-18 3.89257e-18 0.0419753 0.015019 0.0231554)
(0.0446366 3.45624e-18 4.57124e-18 0.040559 0.0136948 0.0229371)
(0.041618 3.57649e-18 4.84673e-18 0.03716 0.0151064 0.022111)
(0.0415811 -1.21579e-18 5.64752e-18 0.037376 0.0124819 0.0218443)
(0.0391604 -5.3898e-19 3.94353e-18 0.0355996 0.0128669 0.0206427)
(0.03835 -6.22189e-19 3.20494e-18 0.0341495 0.0122296 0.0206422)
(0.0387879 2.16589e-19 3.35322e-18 0.0351415 0.0117348 0.0206283)
(0.0365615 4.69729e-19 3.01549e-18 0.0339403 0.0125126 0.0195867)
(0.035923 -2.30543e-19 3.28178e-18 0.0330717 0.0120468 0.0195529)
(0.0355909 -6.85855e-19 4.35197e-18 0.032227 0.0109839 0.0195437)
(0.032338 -3.18562e-19 3.98033e-18 0.0287142 0.0120509 0.0183122)
(0.0328918 2.61168e-19 3.74693e-18 0.0295913 0.0102851 0.0185263)
(0.0304277 -2.29875e-19 3.15926e-18 0.0280467 0.0106368 0.0174757)
(0.0298871 -7.59975e-19 2.66484e-18 0.0272886 0.0102733 0.0175132)
(0.0297066 8.41334e-20 2.93676e-18 0.026509 0.00909704 0.0179053)
(0.0262427 -1.14041e-19 2.84428e-18 0.022812 0.00975856 0.0166906)
(0.0267544 -3.31001e-19 2.38493e-18 0.0234095 0.00777165 0.0169373)
(0.0240273 -2.45506e-19 1.93198e-18 0.0217734 0.00751347 0.0155842)
(0.0237174 -8.14531e-19 1.82762e-18 0.0207433 0.00703462 0.0160697)
(0.0248818 -1.24626e-18 1.71992e-18 0.020859 0.00693822 0.0182043)
(0.0217895 -8.90945e-19 1.17144e-18 0.0177543 0.00718622 0.0186371)
(0.0229062 -9.33839e-19 1.04315e-18 0.0207043 0.00709331 0.0158673)
(0.0247492 -1.8152e-18 1.00203e-18 0.0221198 0.0057055 0.0159979)
(0.0211941 -2.324e-18 6.55519e-19 0.0186708 0.00603003 0.0140286)
(0.0231123 -2.45417e-18 1.94013e-19 0.0196789 0.00523929 0.0151904)
(0.0203133 -3.22111e-18 -2.38072e-19 0.0181392 0.00582109 0.0139663)
(0.0216625 -3.37843e-18 -8.99749e-19 0.0205037 0.0055904 0.0151354)
(0.0246918 -3.20272e-18 -1.52533e-18 0.0231359 0.00488364 0.0164624)
(0.0229403 -3.10927e-18 -2.00427e-18 0.0214443 0.00542683 0.015314)
(0.0238779 -3.23288e-18 -2.37393e-18 0.0207191 0.00488281 0.0164492)
(0.0208754 -4.15427e-18 -2.86039e-18 0.0179119 0.00583967 0.0156631)
(0.0205284 -4.11808e-18 -3.49475e-18 0.0182059 0.00645411 0.0150381)
(0.0220234 -4.04209e-18 -4.08732e-18 0.0181807 0.00429239 0.0163794)
(0.0199328 -3.78845e-18 -4.58351e-18 0.0159125 0.00458456 0.0160486)
(0.0198571 -3.46686e-18 -5.29516e-18 0.0155206 0.00396533 0.0164798)
(0.0229731 -3.361e-18 -6.0445e-18 0.0181764 0.00304723 0.0194187)
(0.0236087 -3.1572e-18 -6.54367e-18 0.0195969 0.00345887 0.0188902)
(0.0256245 -2.57602e-18 -7.33765e-18 0.0200521 0.00255394 0.0204173)
(0.0245736 -1.86277e-18 -7.97581e-18 0.0186296 0.00290422 0.0201162)
(0.0243449 -1.05738e-18 -9.02323e-18 0.0173576 0.00238559 0.0214733)
(0.0266822 -5.45069e-19 -1.00909e-17 0.0185037 0.00167182 0.0237525)
(0.0275024 -8.07518e-20 -1.00712e-17 0.0204972 0.00224119 0.0232908)
(0.0294594 1.17577e-18 -1.10692e-17 0.0210065 0.000926016 0.0249397)