/*--------------------------------*- C++ -*----------------------------------*\
| =========                 |                                                 |
| \\      /  F ield         | OpenFOAM: The Open Source CFD Toolbox           |
|  \\    /   O peration     | Version:  4.1                                   |
|   \\  /    A nd           | Web:      www.OpenFOAM.org                      |
|    \\/     M anipulation  |                                                 |
\*---------------------------------------------------------------------------*/
FoamFile
{
    version     2.0;
    format      ascii;
    class       volScalarField;
    location    "2";
    object      epsilon;
}
// * * * * * * * * * * * * * * * * * * * * * * * * * * * * * * * * * * * * * //

dimensions      [0 2 -3 0 0 0 0];

internalField   nonuniform List<scalar> 
6785
(
0.116844
0.647897
0.635043
0.635045
0.6352
0.634992
0.635001
0.635096
0.634897
0.63485
0.634968
0.634854
0.635773
0.991904
0.174139
0.152873
0.0284115
0.00127997
0.00116807
0.00111171
0.00105677
0.00100776
0.000958774
0.000908408
0.00085711
0.000806344
0.000764324
0.00127841
0.0120209
0.00371916
0.19115
0.0118145
6.03694e-05
2.40812e-05
2.41184e-05
2.1843e-05
2.11644e-05
3.12864e-05
0.000140193
0.000429368
0.00125432
0.00410019
0.0143953
0.0273563
0.000798066
0.242538
0.00979468
3.28181e-05
2.3562e-06
3.4304e-06
2.42156e-06
2.51875e-06
4.34533e-06
2.55302e-05
0.000133829
0.000641832
0.00198778
0.00594984
0.0111901
0.000408117
0.288659
0.0224894
0.000430633
1.45012e-05
3.28184e-06
1.91638e-06
1.20677e-06
1.2459e-06
5.92716e-06
4.32545e-05
5.6204e-05
0.000937805
0.00152611
0.00607386
0.000241416
0.329389
0.0285832
0.00124798
5.64505e-05
7.21133e-06
1.95689e-06
1.133e-06
1.29961e-06
2.39495e-06
2.5635e-05
2.16421e-05
0.000418891
0.000503124
0.00439068
0.000361383
0.367222
0.0257291
0.00179961
0.000133809
1.66016e-05
2.84101e-06
4.01199e-06
4.23082e-06
8.63906e-06
1.92802e-05
1.59504e-06
0.00025826
0.000234162
0.00265425
0.0007565
0.40267
0.0183601
0.00176219
9.92392e-05
2.84871e-05
8.97089e-06
1.99097e-05
5.17109e-05
7.83404e-05
8.52699e-05
3.25332e-05
0.000152487
9.43362e-05
0.00160131
0.00191009
0.442306
0.0172074
0.00224913
9.71455e-05
5.30135e-05
5.23621e-05
0.000519133
0.00110413
0.00105276
0.00019825
0.000256422
0.000460253
0.000113095
0.00149377
0.00401271
0.461726
0.0248599
0.00265522
8.78337e-05
0.000154963
0.000594954
0.00250452
0.00418313
0.00384848
0.00172255
0.00131699
0.00356426
0.00421046
0.00358825
0.00501049
0.447095
0.0460779
0.0100858
0.000468498
0.00041433
0.000642536
0.00244214
0.00451276
0.00629759
0.0063114
0.00659404
0.00605849
0.0058247
0.0042894
0.00388558
0.400722
0.119752
0.00767909
0.00184351
0.000284192
0.000729567
0.00158254
0.00311433
0.00553553
0.00703179
0.00872394
0.015661
0.0167069
0.00196906
0.00186894
0.344174
0.273662
0.0582403
0.0139575
0.00390605
0.000816001
0.00140025
0.00218928
0.0029071
0.00417309
0.00611597
0.0126802
0.0208369
0.0137167
0.00367606
0.285985
0.587383
0.0577768
0.00256475
0.0026983
0.00288406
0.00169092
0.00200487
0.00247923
0.00289806
0.00430886
0.00787965
0.021823
0.0271396
0.00600588
0.237874
1.82308
0.583527
0.137879
0.0245345
0.00607915
0.000626299
0.000451958
0.000801332
0.00158656
0.00252157
0.0034181
0.0100377
0.0295911
0.00867237
0.0184532
0.00772063
0.0129739
0.0121232
0.0112343
0.00517438
0.00897928
0.00862056
0.00821188
0.00402349
0.00712091
0.00694901
0.00358875
0.00649474
0.00645946
0.00637794
0.00336627
0.00614555
0.00613962
0.00331343
0.00615103
0.00621929
0.00623436
0.0033731
0.00627599
0.00633396
0.00633131
0.00339708
0.00627005
0.00628287
0.00338631
0.00630116
0.00635029
0.00634007
0.00339574
0.00626217
0.0062736
0.00340302
0.00631633
0.00637701
0.00638527
0.00349179
0.00643854
0.00649824
0.00650894
0.00360505
0.00660347
0.00668349
0.0038672
0.00704339
0.00719207
0.00733043
0.00442254
0.00779896
0.00787856
0.00795283
0.00481991
0.00815894
0.00804218
0.0045847
0.00766912
0.0074627
0.00719609
0.00376345
0.0058104
0.00525483
0.00231761
0.0030068
0.00242346
0.00188881
0.000642141
0.000885401
0.000834718
0.000830076
0.000481344
0.000866598
0.000895778
0.000521036
0.000940488
0.00096948
0.00354341
0.00356135
0.00339577
0.00330928
0.00325783
0.0030577
0.00257942
0.0022903
0.00182781
0.00144678
0.00109337
0.00100467
0.000879437
0.00103206
0.000848106
0.000796545
0.000725534
0.000714798
0.000702542
0.000693587
0.000687964
0.00061744
0.00159713
0.00162938
0.00170988
0.00177967
0.00184101
0.00188964
0.00193675
0.00198123
0.00202003
0.00238987
0.00439686
0.00465694
0.00513745
0.00559956
0.00611152
0.00662564
0.00721771
0.00781458
0.01227
0.0158145
0.0169557
0.0194792
0.0212211
0.0239327
0.0266351
0.030243
0.0340925
0.0554243
0.0566176
0.0592382
0.0696519
0.0763922
0.0851519
0.0953485
0.106708
0.120232
0.129368
0.134395
0.141798
0.164571
0.187033
0.221068
0.259942
0.267119
0.303148
0.327783
0.357852
0.402053
0.308716
0.297383
0.218205
0.149571
0.0398918
0.0309859
0.031049
0.00566962
0.00803963
0.00218206
0.000148546
7.92123e-05
7.45875e-05
0.000120415
7.20456e-05
0.000115633
6.939e-05
6.76863e-05
0.000109397
6.61481e-05
6.48037e-05
0.000105112
6.40636e-05
0.000102012
6.25022e-05
6.18005e-05
0.000101081
6.25048e-05
0.000100479
6.24658e-05
6.23535e-05
0.000102756
6.44126e-05
6.4565e-05
0.000104672
6.58725e-05
0.000106573
6.73561e-05
6.75355e-05
0.000109323
6.94219e-05
0.000112284
7.16007e-05
7.17413e-05
0.000115803
7.42181e-05
7.42343e-05
0.000119458
7.70305e-05
0.000124252
8.05827e-05
8.07664e-05
0.000129298
8.46368e-05
0.000135695
8.96709e-05
8.91627e-05
0.000137234
9.26324e-05
9.17569e-05
0.00013168
8.47447e-05
0.000125865
7.99296e-05
7.87481e-05
0.00011978
7.32925e-05
0.000112458
6.88152e-05
6.71723e-05
0.000104073
6.30223e-05
6.13735e-05
9.57527e-05
5.78529e-05
9.06511e-05
5.48938e-05
5.36715e-05
8.4542e-05
5.13077e-05
8.11146e-05
4.92941e-05
4.84483e-05
7.68968e-05
4.62329e-05
4.55741e-05
7.26463e-05
4.4391e-05
7.10383e-05
4.3445e-05
1.18746e-05
9.27258e-06
8.04429e-06
7.35393e-06
6.97189e-06
6.64671e-06
6.4855e-06
6.29909e-06
6.14366e-06
5.89967e-06
5.79961e-06
6.05129e-06
6.55213e-06
6.98146e-06
7.95187e-06
8.22387e-06
8.35127e-06
9.80616e-06
9.91654e-06
1.14222e-05
1.27424e-05
1.57114e-05
1.68936e-05
1.84019e-05
2.01403e-05
2.13194e-05
2.23622e-05
2.43063e-05
2.61264e-05
2.95215e-05
3.49099e-05
3.8005e-05
4.01142e-05
4.16969e-05
3.96129e-05
5.21598e-05
7.89573e-05
0.000105075
0.000101918
5.16766e-05
1.50249e-05
1.30541e-05
1.24626e-05
1.15245e-05
1.10482e-05
1.3269e-05
2.14391e-05
4.25367e-05
0.000133849
0.000157889
0.000449294
0.000930011
0.000561855
0.000496192
0.000447712
0.00049821
0.000425104
0.000387608
0.000371883
0.000351484
0.000331757
0.000300612
0.000271439
0.000252696
0.000234557
0.000205847
0.000160609
0.000121407
9.99682e-05
8.84851e-05
6.96644e-05
6.45936e-05
6.61124e-05
8.10836e-05
0.000146129
0.000265275
0.000244509
0.000146774
0.000134155
1.10664e-05
8.78501e-06
7.6982e-06
7.0702e-06
6.75002e-06
6.47257e-06
6.34001e-06
6.16389e-06
6.02332e-06
5.78744e-06
5.69802e-06
5.99893e-06
6.41641e-06
6.81456e-06
7.98629e-06
8.09879e-06
8.17568e-06
9.93081e-06
9.90272e-06
1.13487e-05
1.25404e-05
1.56239e-05
1.69807e-05
1.85209e-05
2.03606e-05
2.17784e-05
2.29857e-05
2.51934e-05
2.71801e-05
3.08767e-05
3.70566e-05
4.10142e-05
4.41688e-05
4.73478e-05
4.49386e-05
5.3496e-05
7.9054e-05
0.000104217
0.000101694
5.24919e-05
1.52971e-05
1.31178e-05
1.24997e-05
1.15331e-05
1.1053e-05
1.32971e-05
2.15953e-05
4.30859e-05
0.000134588
0.000161457
0.000513557
0.00152342
0.000582943
0.000504478
0.000443025
0.000507909
0.00040977
0.000381314
0.000362862
0.000342271
0.000328372
0.000288598
0.000262747
0.00024723
0.000228114
0.000198848
0.000155637
0.000119008
9.89285e-05
8.5358e-05
6.61105e-05
6.15461e-05
6.32566e-05
7.95389e-05
0.000135883
0.000267491
0.000237584
0.000145541
0.000134598
1.02442e-05
8.34781e-06
7.44802e-06
6.92569e-06
6.64388e-06
6.38034e-06
6.2543e-06
6.08383e-06
5.95197e-06
5.73287e-06
5.6e-06
5.83437e-06
6.66887e-06
6.93218e-06
8.01985e-06
8.40283e-06
8.43708e-06
1.00711e-05
9.82434e-06
1.14334e-05
1.32253e-05
1.59736e-05
1.70193e-05
1.86368e-05
2.13318e-05
2.36494e-05
2.5472e-05
2.85079e-05
3.18839e-05
3.69146e-05
4.46886e-05
4.82507e-05
5.0474e-05
5.00527e-05
4.90037e-05
5.85337e-05
7.54223e-05
0.000105749
0.000100132
5.4677e-05
1.57789e-05
1.32784e-05
1.26159e-05
1.15803e-05
1.10711e-05
1.33447e-05
2.18589e-05
4.46536e-05
0.000140614
0.000185367
0.000684475
0.00180993
0.000703552
0.000647128
0.000549125
0.000501595
0.000479061
0.000438147
0.000402125
0.000371098
0.00032259
0.000300263
0.000280849
0.000257411
0.000235867
0.000207163
0.000166069
0.000133057
0.000113913
9.07871e-05
6.99025e-05
6.67541e-05
6.70956e-05
7.66984e-05
0.000130638
0.000257198
0.000213047
0.000141103
0.000133572
9.76135e-06
8.0496e-06
7.20426e-06
6.77284e-06
6.53408e-06
6.29558e-06
6.19125e-06
6.01424e-06
5.89257e-06
5.69561e-06
5.61941e-06
6.18702e-06
6.60145e-06
6.74778e-06
8.1023e-06
8.76396e-06
8.69395e-06
1.01734e-05
1.06667e-05
1.17507e-05
1.33618e-05
1.64636e-05
1.83501e-05
2.03388e-05
2.22562e-05
2.46401e-05
2.7323e-05
3.04276e-05
3.42777e-05
3.98035e-05
4.82516e-05
5.24937e-05
5.57532e-05
5.64373e-05
5.41704e-05
6.07968e-05
7.4768e-05
0.00010435
9.83574e-05
5.79111e-05
1.65205e-05
1.35405e-05
1.27358e-05
1.16569e-05
1.11195e-05
1.34019e-05
2.21106e-05
4.57739e-05
0.000148225
0.000239701
0.000804842
0.0018493
0.000787717
0.000724969
0.000605051
0.00056702
0.000512646
0.000464735
0.000427464
0.000386736
0.000344075
0.000318218
0.000302906
0.000269748
0.000236829
0.000216531
0.000170152
0.000144164
0.000122153
9.44153e-05
7.25764e-05
7.22122e-05
7.03236e-05
8.05998e-05
0.000121715
0.000250227
0.000217973
0.000165307
0.000155935
9.20047e-06
7.73053e-06
7.01162e-06
6.62656e-06
6.42812e-06
6.20041e-06
6.10549e-06
5.92233e-06
5.82956e-06
5.63825e-06
5.60607e-06
6.4107e-06
6.97075e-06
6.87411e-06
7.93318e-06
9.31187e-06
8.54801e-06
1.02623e-05
1.12202e-05
1.17413e-05
1.34118e-05
1.75853e-05
1.96028e-05
2.2114e-05
2.37719e-05
2.69122e-05
3.05549e-05
3.45356e-05
3.97026e-05
4.7001e-05
5.62895e-05
6.08774e-05
6.34374e-05
6.20323e-05
6.02511e-05
6.71434e-05
8.14747e-05
0.000103984
9.78093e-05
6.19946e-05
1.77638e-05
1.38982e-05
1.29446e-05
1.17413e-05
1.11388e-05
1.34206e-05
2.25139e-05
4.78499e-05
0.000164607
0.000294307
0.000828411
0.00148548
0.000951642
0.000871036
0.000720917
0.000643817
0.000582545
0.000518441
0.000456856
0.0004022
0.000356526
0.000321239
0.000322898
0.000289596
0.000244356
0.000225696
0.000181111
0.000149181
0.000121831
9.50747e-05
7.39184e-05
7.25386e-05
6.84653e-05
7.76605e-05
0.000116581
0.000245137
0.000220277
0.000172678
0.000156545
8.7744e-06
7.49718e-06
6.86841e-06
6.50886e-06
6.31639e-06
6.11829e-06
6.01706e-06
5.83154e-06
5.75397e-06
5.60655e-06
5.64926e-06
6.3745e-06
6.97639e-06
7.07748e-06
8.5647e-06
9.41781e-06
9.68314e-06
1.11465e-05
1.1301e-05
1.16824e-05
1.33959e-05
1.8562e-05
2.07209e-05
2.33008e-05
2.54918e-05
2.9721e-05
3.33068e-05
3.78439e-05
4.35497e-05
5.20389e-05
6.22898e-05
6.71011e-05
7.0148e-05
6.99743e-05
6.6698e-05
7.06801e-05
0.000100531
0.000105457
9.6305e-05
6.56463e-05
1.91101e-05
1.41781e-05
1.30814e-05
1.17987e-05
1.11552e-05
1.34742e-05
2.27642e-05
4.9751e-05
0.000178544
0.000412532
0.000944796
0.00154771
0.00105857
0.000987972
0.000813622
0.000716941
0.000639152
0.000556252
0.000486557
0.000428059
0.000377746
0.000340591
0.000327988
0.000285642
0.000251966
0.000240519
0.000188646
0.000162518
0.000132589
0.000106624
8.6262e-05
7.72978e-05
7.53026e-05
8.32352e-05
0.000111662
0.00023385
0.000226045
0.000174292
0.000150643
8.36614e-06
7.23691e-06
6.71715e-06
6.3828e-06
6.18237e-06
6.02668e-06
5.93722e-06
5.76605e-06
5.67443e-06
5.57356e-06
5.75858e-06
6.357e-06
6.95204e-06
7.4462e-06
8.63278e-06
9.48229e-06
1.06612e-05
1.23898e-05
1.14483e-05
1.24074e-05
1.4693e-05
1.85921e-05
2.17431e-05
2.55587e-05
2.79481e-05
3.30913e-05
3.75689e-05
4.32415e-05
5.0049e-05
5.9601e-05
7.04879e-05
7.60362e-05
7.86918e-05
7.78116e-05
7.50493e-05
7.6853e-05
0.000126868
0.000110603
9.59107e-05
7.51093e-05
2.19536e-05
1.4808e-05
1.33679e-05
1.1893e-05
1.11799e-05
1.35098e-05
2.32584e-05
5.3294e-05
0.000210494
0.000534467
0.00105424
0.00168478
0.0012339
0.00115594
0.000955406
0.000829605
0.000723056
0.00061513
0.000525182
0.000453331
0.000396477
0.000352752
0.000326006
0.000273611
0.000266832
0.000258718
0.000198389
0.000179836
0.000153933
0.000123996
0.000102088
8.62608e-05
7.1122e-05
8.26268e-05
0.000106459
0.000223142
0.000229915
0.000178373
0.000168227
7.99968e-06
7.03205e-06
6.59115e-06
6.27893e-06
6.06723e-06
5.9375e-06
5.8208e-06
5.67741e-06
5.60805e-06
5.54935e-06
5.85009e-06
6.11471e-06
7.41814e-06
7.30054e-06
8.47369e-06
9.28886e-06
1.07685e-05
1.30459e-05
1.29415e-05
1.33708e-05
1.60849e-05
1.85347e-05
2.1847e-05
2.76743e-05
3.06964e-05
3.71805e-05
4.16881e-05
4.82254e-05
5.57067e-05
6.67529e-05
7.81228e-05
8.4069e-05
8.69713e-05
8.75147e-05
8.37344e-05
7.71926e-05
0.000153198
0.000119414
9.74345e-05
8.26962e-05
2.57962e-05
1.53656e-05
1.35958e-05
1.1993e-05
1.12089e-05
1.35511e-05
2.35939e-05
5.67968e-05
0.00023778
0.000693629
0.00119956
0.00189201
0.00139012
0.00131124
0.00108652
0.000935227
0.000800429
0.000672607
0.00057138
0.000486261
0.000421558
0.000368672
0.000313197
0.000283314
0.000285112
0.00025764
0.000209247
0.000192696
0.000173749
0.000153537
0.000106747
8.54207e-05
7.78487e-05
8.41712e-05
0.000102847
0.00021079
0.000231322
0.000180402
0.000171424
7.67787e-06
6.8239e-06
6.43978e-06
6.17522e-06
5.95315e-06
5.84376e-06
5.75968e-06
5.61314e-06
5.53814e-06
5.5245e-06
5.70623e-06
6.23641e-06
7.50572e-06
7.84762e-06
9.26525e-06
1.03363e-05
1.05735e-05
1.47297e-05
1.42157e-05
1.50002e-05
1.78146e-05
2.03514e-05
2.40035e-05
2.96808e-05
3.47143e-05
4.23594e-05
4.7263e-05
5.51358e-05
6.35125e-05
7.48074e-05
8.66979e-05
9.36227e-05
9.6703e-05
9.73885e-05
9.43531e-05
9.05696e-05
0.000178462
0.000134924
0.000102387
9.74365e-05
3.55148e-05
1.64376e-05
1.39242e-05
1.20935e-05
1.12402e-05
1.35673e-05
2.42402e-05
6.26125e-05
0.000288896
0.000805792
0.00133197
0.00211744
0.00161065
0.00150938
0.00126302
0.00107946
0.000905205
0.000750339
0.000626315
0.000525936
0.000448792
0.000383574
0.000335835
0.000304135
0.000291547
0.00024353
0.000222469
0.000210503
0.000199861
0.000177643
0.000107174
8.36617e-05
8.72668e-05
8.16211e-05
9.94236e-05
0.000191395
0.00023387
0.000185452
0.000172843
7.40487e-06
6.66465e-06
6.31927e-06
6.05094e-06
5.8405e-06
5.74345e-06
5.65947e-06
5.54802e-06
5.49586e-06
5.56283e-06
5.9863e-06
6.35621e-06
7.47081e-06
7.90399e-06
9.36878e-06
1.11328e-05
1.21579e-05
1.51751e-05
1.50665e-05
1.63237e-05
2.00473e-05
2.23965e-05
2.715e-05
3.23455e-05
3.91606e-05
4.81071e-05
5.32469e-05
6.2054e-05
7.1236e-05
8.35063e-05
9.5402e-05
0.000103098
0.000106854
0.000109082
0.000105858
9.86114e-05
0.00020173
0.000153001
0.000113914
0.000111702
4.53427e-05
1.79287e-05
1.43538e-05
1.22371e-05
1.12864e-05
1.36368e-05
2.47165e-05
6.95982e-05
0.000325539
0.000897715
0.00149571
0.00242192
0.00184796
0.00171258
0.00144148
0.0012192
0.00100875
0.000827521
0.000687334
0.000571857
0.000483108
0.000405811
0.000352875
0.000321831
0.000288002
0.000263302
0.000235291
0.00022024
0.00021319
0.000178562
0.000106613
8.3639e-05
8.72304e-05
8.65877e-05
9.9906e-05
0.00017364
0.000232335
0.000200595
0.000170183
7.13123e-06
6.48093e-06
6.18673e-06
5.93892e-06
5.74445e-06
5.65329e-06
5.58571e-06
5.49198e-06
5.46457e-06
5.63602e-06
5.96227e-06
6.68036e-06
7.46654e-06
7.8403e-06
9.34719e-06
1.23181e-05
1.35205e-05
1.59259e-05
1.69451e-05
1.82431e-05
2.26546e-05
2.60248e-05
3.06325e-05
3.83333e-05
4.52223e-05
5.50517e-05
6.05273e-05
7.06779e-05
8.04959e-05
9.2401e-05
0.000104559
0.000113538
0.000118198
0.00012116
0.000119002
0.000111575
0.000212692
0.000180803
0.000133306
0.000129811
6.35797e-05
1.97431e-05
1.46964e-05
1.2385e-05
1.13358e-05
1.36642e-05
2.55175e-05
7.97556e-05
0.000376339
0.000979188
0.00169847
0.00274955
0.00213665
0.00195557
0.00165835
0.00138881
0.00114084
0.000926199
0.000762416
0.000628947
0.000521804
0.000430349
0.000374043
0.000350086
0.000278296
0.000282199
0.000241748
0.000230714
0.000217387
0.000166994
0.000103129
8.28403e-05
8.54794e-05
7.85473e-05
0.000103061
0.000154014
0.000222147
0.000213654
0.000200817
6.91807e-06
6.33256e-06
6.0544e-06
5.82249e-06
5.65637e-06
5.57416e-06
5.51776e-06
5.43083e-06
5.42623e-06
5.46186e-06
5.88046e-06
6.62483e-06
7.32569e-06
8.36556e-06
9.12448e-06
1.34845e-05
1.53032e-05
1.88637e-05
1.92311e-05
2.12496e-05
2.6113e-05
3.06454e-05
3.65122e-05
4.3844e-05
5.13387e-05
6.26988e-05
6.85803e-05
7.97116e-05
9.01121e-05
0.000102237
0.000114249
0.000124386
0.000130318
0.000134893
0.000133883
0.000123528
0.000232547
0.000212679
0.00016754
0.000155988
8.17568e-05
2.34305e-05
1.54158e-05
1.25879e-05
1.13833e-05
1.36798e-05
2.64229e-05
8.72422e-05
0.000421172
0.00107842
0.0020066
0.00311328
0.00246444
0.00221958
0.00188928
0.0015717
0.00128165
0.00103801
0.00085074
0.000691639
0.0005649
0.000458537
0.000398779
0.000387757
0.000306908
0.000283978
0.000253974
0.000235515
0.000228122
0.0001959
9.47213e-05
8.05162e-05
7.95627e-05
8.52734e-05
0.000105026
0.000134174
0.000211604
0.000213885
0.000226271
6.69775e-06
6.18249e-06
5.93304e-06
5.71021e-06
5.56597e-06
5.49918e-06
5.44199e-06
5.3987e-06
5.45097e-06
5.66954e-06
6.3612e-06
6.98648e-06
7.60557e-06
8.97589e-06
1.03328e-05
1.37435e-05
1.64707e-05
2.13076e-05
2.26285e-05
2.62099e-05
3.15101e-05
3.67174e-05
4.44956e-05
5.17697e-05
5.88317e-05
7.0864e-05
7.79121e-05
8.99139e-05
0.000100605
0.000112157
0.000124354
0.00013596
0.000143477
0.000149557
0.00015113
0.000143126
0.000256726
0.000263253
0.000212111
0.00019302
0.00010771
2.68918e-05
1.60518e-05
1.27495e-05
1.14197e-05
1.36478e-05
2.7196e-05
0.000107215
0.000470368
0.0012464
0.00245254
0.00345113
0.00283635
0.00251992
0.00215312
0.0017882
0.00145541
0.00117838
0.000950039
0.000763268
0.000616801
0.000489276
0.000448644
0.000430357
0.000315159
0.00030783
0.000275477
0.00025193
0.000238457
0.000199667
0.000111567
9.0394e-05
9.1893e-05
9.20602e-05
0.000106679
0.000124215
0.000194913
0.000207525
0.000262952
6.49756e-06
6.04709e-06
5.8274e-06
5.62435e-06
5.48633e-06
5.41769e-06
5.38057e-06
5.36658e-06
5.53002e-06
5.86913e-06
6.59203e-06
6.79806e-06
7.99353e-06
8.74982e-06
1.10386e-05
1.40702e-05
1.73372e-05
2.34878e-05
2.64454e-05
3.12031e-05
3.85732e-05
4.38682e-05
5.32836e-05
6.0609e-05
6.72436e-05
7.94987e-05
8.77718e-05
0.000100489
0.000111384
0.000122884
0.000135215
0.000148049
0.000157317
0.000165592
0.000170013
0.000165649
0.000215058
0.000334471
0.000262828
0.000230125
0.000143581
3.46672e-05
1.70346e-05
1.32008e-05
1.15067e-05
1.36746e-05
2.91788e-05
0.000122008
0.00055433
0.00141479
0.00281613
0.00379576
0.00323833
0.00284498
0.00243676
0.00202888
0.00165778
0.0013385
0.00107324
0.000857546
0.000680886
0.000537228
0.000505262
0.000450519
0.000327537
0.000313131
0.000301461
0.000253607
0.000261145
0.000197442
0.000119778
9.67248e-05
9.71949e-05
9.78616e-05
0.00010805
0.000119214
0.000174129
0.0002025
0.00030774
6.31706e-06
5.92632e-06
5.73626e-06
5.53797e-06
5.41891e-06
5.36299e-06
5.32831e-06
5.3471e-06
5.67183e-06
6.1423e-06
6.48322e-06
7.0216e-06
8.028e-06
9.4042e-06
1.09022e-05
1.43788e-05
1.66883e-05
2.63362e-05
3.12071e-05
3.81896e-05
4.76292e-05
5.38503e-05
6.33188e-05
7.12519e-05
7.67933e-05
8.91944e-05
9.84371e-05
0.000111589
0.000122458
0.000133683
0.000146518
0.000160603
0.00017148
0.000182468
0.000190218
0.000192247
0.000206174
0.000394972
0.000370862
0.000293939
0.0001815
4.26093e-05
1.85504e-05
1.34698e-05
1.15661e-05
1.37224e-05
3.08103e-05
0.000153642
0.000633837
0.00171248
0.00329829
0.00418716
0.00366321
0.00319371
0.0027449
0.00230458
0.00189112
0.00153764
0.00122843
0.000969613
0.000760597
0.000602882
0.000518714
0.00044717
0.000339034
0.000326307
0.00029727
0.000274866
0.000290232
0.000177902
0.000136338
0.000108841
0.000108407
0.000108136
0.000108639
0.00011876
0.000157427
0.000191022
0.000327386
6.14632e-06
5.80437e-06
5.64228e-06
5.46854e-06
5.35125e-06
5.29625e-06
5.29498e-06
5.37898e-06
5.66285e-06
6.14763e-06
6.7355e-06
6.81128e-06
8.14919e-06
9.42758e-06
1.19666e-05
1.45991e-05
1.87609e-05
3.01958e-05
3.70807e-05
4.58784e-05
5.75427e-05
6.43385e-05
7.58305e-05
8.38923e-05
8.76388e-05
9.92123e-05
0.000109284
0.000122769
0.000133622
0.000144949
0.000158451
0.000173248
0.000184877
0.000199459
0.000210323
0.000219592
0.000226799
0.000439281
0.000447685
0.000364348
0.000228082
5.83495e-05
2.02969e-05
1.39243e-05
1.17544e-05
1.37898e-05
3.39632e-05
0.000193078
0.000742189
0.00197845
0.0038906
0.00451414
0.00409939
0.00355371
0.00307035
0.00260593
0.00215494
0.00176326
0.00140564
0.0011025
0.000857078
0.000676009
0.000526447
0.00044565
0.00036411
0.00033088
0.000287829
0.000294176
0.000290568
0.000198166
0.00015786
0.000125634
0.00011912
0.000116541
0.000122568
0.000123804
0.000145464
0.000181449
0.000337863
6.00079e-06
5.68784e-06
5.53901e-06
5.39884e-06
5.30039e-06
5.25838e-06
5.28406e-06
5.45426e-06
5.5583e-06
6.1596e-06
6.70983e-06
7.17173e-06
7.80645e-06
1.02403e-05
1.33576e-05
1.4704e-05
1.82523e-05
3.26025e-05
4.35206e-05
5.54142e-05
6.85418e-05
7.55208e-05
8.8346e-05
9.66074e-05
9.9552e-05
0.000110353
0.000120685
0.000133954
0.000144735
0.00015613
0.000170575
0.000185575
0.000195671
0.000215658
0.000228877
0.000246318
0.000260016
0.00041072
0.000563091
0.000507677
0.000296811
7.8834e-05
2.41781e-05
1.43684e-05
1.18957e-05
1.40284e-05
4.11665e-05
0.000260777
0.000873589
0.00221754
0.0044839
0.00489663
0.00452782
0.00391534
0.00341084
0.00293517
0.0024563
0.00202705
0.0016141
0.00126618
0.000980566
0.000768018
0.000594844
0.000506134
0.000396431
0.000326876
0.000332873
0.000291456
0.000289925
0.000224733
0.000185384
0.000141984
0.000133923
0.000121215
0.000137232
0.000126816
0.000139178
0.000176144
0.000333833
5.8627e-06
5.57224e-06
5.43174e-06
5.31613e-06
5.24299e-06
5.22669e-06
5.32356e-06
5.37139e-06
5.78446e-06
6.00201e-06
6.56245e-06
7.53309e-06
8.18649e-06
9.75704e-06
1.39025e-05
1.68823e-05
2.22361e-05
3.38348e-05
5.30049e-05
6.60669e-05
8.10469e-05
8.87838e-05
0.000102478
0.00011087
0.000112721
0.000121854
0.00013204
0.000144861
0.000155558
0.000167227
0.000182775
0.000196831
0.00019977
0.000228533
0.000242447
0.000273772
0.000305074
0.000402358
0.000605359
0.000610835
0.000410039
0.000110437
2.90487e-05
1.50601e-05
1.21099e-05
1.41568e-05
4.70357e-05
0.000327485
0.00099167
0.00243933
0.00516654
0.00528004
0.00494094
0.00426801
0.00375339
0.00327372
0.00278579
0.00232054
0.00186271
0.00146867
0.0011364
0.000880956
0.000685147
0.000521122
0.000415833
0.00036627
0.000388456
0.000332879
0.000333948
0.000259555
0.000207811
0.000144542
0.000134971
0.000117872
0.00013335
0.000129766
0.000133563
0.000170156
0.000372017
5.73601e-06
5.47575e-06
5.34215e-06
5.25343e-06
5.20299e-06
5.21835e-06
5.43043e-06
5.60897e-06
5.6743e-06
6.33025e-06
6.82928e-06
7.54145e-06
8.61682e-06
1.06965e-05
1.66426e-05
1.8734e-05
2.60318e-05
3.79338e-05
6.31418e-05
7.7669e-05
9.25209e-05
0.000101111
0.000115676
0.000123169
0.000125617
0.000132968
0.000142826
0.000154821
0.000165692
0.00017754
0.000194664
0.000206442
0.000197279
0.000230969
0.000243072
0.000301597
0.000349213
0.000370643
0.000589678
0.000690893
0.000513454
0.00015001
3.65788e-05
1.58437e-05
1.21318e-05
1.49092e-05
6.90144e-05
0.00045833
0.00116357
0.00278424
0.00674016
0.00572657
0.00531901
0.00460044
0.00408482
0.00363052
0.00315404
0.00265419
0.00216191
0.00171908
0.00133487
0.00103014
0.000780729
0.000601477
0.000478599
0.000395459
0.000428581
0.00040479
0.000327227
0.000289476
0.000213239
0.000166836
0.000142671
0.000121329
0.000123151
0.000127653
0.000134081
0.00017261
0.000372845
5.61128e-06
5.38965e-06
5.26756e-06
5.19202e-06
5.17474e-06
5.24339e-06
5.36289e-06
5.81573e-06
5.95355e-06
6.32521e-06
6.78851e-06
7.58164e-06
8.57828e-06
9.84081e-06
1.86292e-05
2.40006e-05
3.1942e-05
4.73417e-05
7.07296e-05
9.03836e-05
0.000104456
0.000114722
0.000128505
0.000134955
0.00013727
0.000140871
0.000150824
0.000162089
0.000174284
0.000186198
0.000205867
0.000215218
0.000210902
0.00024985
0.000289687
0.000328352
0.000383409
0.00042158
0.00054207
0.000747193
0.000618103
0.000199315
4.901e-05
1.74327e-05
1.19051e-05
1.56751e-05
8.6144e-05
0.000556276
0.00130583
0.00307209
0.00758923
0.00623268
0.0056792
0.00490706
0.00440146
0.00398786
0.00353338
0.00302742
0.00250624
0.00201471
0.00157677
0.0012039
0.000919816
0.00068879
0.000541905
0.000418826
0.000428047
0.000450162
0.000352977
0.00028894
0.000206926
0.000166777
0.00014261
0.000142014
0.000142256
0.000138767
0.000134232
0.000185701
0.00036858
5.49828e-06
5.29856e-06
5.19524e-06
5.15337e-06
5.16781e-06
5.34732e-06
5.55537e-06
5.83813e-06
5.99194e-06
6.27235e-06
6.7832e-06
7.52854e-06
8.85648e-06
1.081e-05
1.8725e-05
2.91804e-05
3.86878e-05
5.54929e-05
7.71246e-05
0.000102831
0.000114839
0.000126169
0.000138672
0.000141967
0.000144829
0.000139791
0.000150991
0.000161528
0.000178782
0.000190684
0.000215103
0.0002263
0.000240735
0.000281005
0.000313792
0.000355445
0.000419714
0.00047942
0.000551183
0.00079425
0.000718773
0.000263264
6.10201e-05
1.89237e-05
1.16005e-05
1.75544e-05
0.00012225
0.000735976
0.00149649
0.0034446
0.00878296
0.00682815
0.00600649
0.00518481
0.00469961
0.00434349
0.00393827
0.00345205
0.00290662
0.00237235
0.00186558
0.00143904
0.0010851
0.000800683
0.000616551
0.000472494
0.000366722
0.000447829
0.00038029
0.000330657
0.000223024
0.000175185
0.000132732
0.000135564
0.000133224
0.000128367
0.00014071
0.000176444
0.000356015
5.40047e-06
5.23228e-06
5.13619e-06
5.10557e-06
5.14019e-06
5.41966e-06
5.52472e-06
5.90772e-06
5.93249e-06
6.44625e-06
6.72952e-06
7.25443e-06
9.40033e-06
1.19497e-05
1.98211e-05
3.43466e-05
4.6381e-05
6.77772e-05
8.81055e-05
0.000113156
0.000125467
0.000136647
0.000144276
0.000140295
0.000142142
0.000124675
0.000139444
0.000148934
0.000172628
0.000185478
0.00021981
0.000235978
0.000254441
0.000294759
0.000334412
0.000383199
0.000446392
0.000528326
0.000591072
0.000818278
0.000779604
0.000332457
7.7557e-05
2.08068e-05
1.21767e-05
1.96786e-05
0.000161357
0.000894115
0.00164401
0.00398977
0.0129443
0.00777768
0.00634925
0.00544437
0.00498696
0.00470071
0.00436587
0.00390575
0.00335836
0.00278942
0.00223111
0.00172693
0.00130244
0.000951418
0.000711504
0.000526861
0.000475001
0.000473538
0.0004514
0.000342426
0.00024155
0.000176072
0.000130382
0.000118483
0.000113878
0.000132345
0.000144941
0.000168174
0.000381544
5.30956e-06
5.1782e-06
5.09442e-06
5.0911e-06
5.15526e-06
5.43078e-06
5.5052e-06
5.98129e-06
6.25837e-06
6.50265e-06
6.61389e-06
7.66423e-06
1.05626e-05
1.36752e-05
1.98083e-05
3.56825e-05
5.75469e-05
7.83549e-05
9.92255e-05
0.000121213
0.000134368
0.000142774
0.000140074
0.000126873
0.000127965
0.000126361
0.000161423
0.00017239
0.000156746
0.000179093
0.000216193
0.000237861
0.000267517
0.000313436
0.000354395
0.000406326
0.000471823
0.000570942
0.000631932
0.000855925
0.000887621
0.000449795
9.72332e-05
2.31822e-05
1.14555e-05
2.27744e-05
0.000211978
0.00108147
0.00179331
0.00435047
0.0143064
0.00888922
0.00672333
0.0057008
0.00527449
0.00507963
0.004833
0.00441868
0.00388369
0.00328976
0.0026729
0.00208884
0.00157309
0.00113879
0.00083531
0.000615366
0.00048295
0.000387927
0.000420567
0.000310845
0.000256873
0.000158701
0.000116049
0.000128776
0.000135162
0.000131812
0.000152073
0.000175716
0.000377753
5.22219e-06
5.11521e-06
5.06368e-06
5.07078e-06
5.19381e-06
5.43702e-06
5.60776e-06
5.9738e-06
6.34915e-06
6.71307e-06
6.67427e-06
7.27832e-06
1.22779e-05
1.51169e-05
2.06459e-05
3.55122e-05
6.59099e-05
8.67735e-05
0.000104562
0.000127867
0.000141465
0.000142645
0.000126059
0.000149017
0.000148488
0.000129085
0.000139698
0.000152296
0.000182029
0.00019004
0.000201699
0.000251899
0.000279229
0.000325042
0.000373119
0.000433061
0.000504778
0.000625537
0.000691559
0.000900304
0.000966803
0.000575877
0.000118686
2.67381e-05
1.23656e-05
2.56073e-05
0.000260637
0.00121575
0.00186865
0.0042553
0.0152752
0.0101355
0.00716594
0.0059726
0.00559721
0.00550671
0.00535806
0.00499873
0.00448103
0.00385792
0.00318687
0.00252324
0.00190844
0.00137061
0.000991145
0.000718786
0.000544596
0.00045376
0.000404426
0.000362255
0.000288987
0.000170879
0.000133272
0.000139048
0.000156311
0.000174146
0.000168174
0.000188054
0.000332142
5.15458e-06
5.06676e-06
5.04429e-06
5.07651e-06
5.19111e-06
5.4384e-06
5.47931e-06
6.01805e-06
6.35235e-06
6.96039e-06
6.93121e-06
7.7492e-06
1.23869e-05
1.49173e-05
2.15134e-05
3.27747e-05
6.7202e-05
8.91049e-05
0.000108799
0.000133063
0.000143497
0.000131442
0.000145312
0.000121981
0.000131157
0.000134514
0.000144265
0.000156026
0.000159597
0.000190433
0.000229735
0.000254286
0.00028974
0.000340419
0.000393599
0.000462094
0.000545167
0.000672196
0.000740822
0.00101713
0.00106496
0.000853837
0.000168926
3.28171e-05
1.30252e-05
2.88391e-05
0.000325096
0.00133187
0.00197968
0.00472063
0.0159327
0.0116813
0.00770488
0.00628254
0.00599123
0.0060182
0.00602558
0.00566812
0.00505054
0.00427242
0.00351222
0.00286832
0.00223665
0.00159724
0.00117502
0.000840455
0.000642559
0.000502601
0.000460896
0.000354137
0.000257752
0.000172836
0.000152753
0.00016192
0.000173729
0.000176411
0.000169924
0.000209566
0.000322964
5.10811e-06
5.0679e-06
5.05057e-06
5.08933e-06
5.0883e-06
5.39487e-06
5.63205e-06
5.98547e-06
6.21502e-06
7.13402e-06
7.28923e-06
8.1952e-06
1.28165e-05
1.705e-05
2.30409e-05
3.96347e-05
6.90513e-05
9.31267e-05
0.000113147
0.000136867
0.000137459
0.000121675
0.000120836
0.000127068
0.000134712
0.00013591
0.000147548
0.000163707
0.000166219
0.000199843
0.000213702
0.000273994
0.000300501
0.000355848
0.000419598
0.00050045
0.000596506
0.000736397
0.000826586
0.00119782
0.00123211
0.000971062
0.000219574
4.36574e-05
1.39334e-05
3.43182e-05
0.000388205
0.00142726
0.00208682
0.00441281
0.0174129
0.0140304
0.0083607
0.00664498
0.00659018
0.00674591
0.00749179
0.00662602
0.00534584
0.00461294
0.0036388
0.00283022
0.00230295
0.00166916
0.00133194
0.000954785
0.000737794
0.000570262
0.000492614