/*--------------------------------*- C++ -*----------------------------------*\
| =========                 |                                                 |
| \\      /  F ield         | OpenFOAM: The Open Source CFD Toolbox           |
|  \\    /   O peration     | Version:  4.1                                   |
|   \\  /    A nd           | Web:      www.OpenFOAM.org                      |
|    \\/     M anipulation  |                                                 |
\*---------------------------------------------------------------------------*/
FoamFile
{
    version     2.0;
    format      ascii;
    class       volScalarField;
    location    "2";
    object      k;
}
// * * * * * * * * * * * * * * * * * * * * * * * * * * * * * * * * * * * * * //

dimensions      [0 2 -2 0 0 0 0];

internalField   nonuniform List<scalar> 
6785
(
0.668667
0.000551668
0.000525828
0.000525672
0.000525765
0.000525641
0.000525702
0.000525747
0.000525624
0.000525685
0.000525698
0.000525521
0.00052709
0.00148475
0.709714
0.799007
0.00155205
3.25128e-06
2.81109e-06
2.66243e-06
2.5372e-06
2.44207e-06
2.34044e-06
2.23748e-06
2.13334e-06
2.01355e-06
1.96256e-06
6.13709e-06
0.000858912
0.101781
0.926482
0.00800754
2.67475e-06
4.00423e-07
4.45584e-07
4.04672e-07
4.16444e-07
7.31675e-07
9.0297e-06
0.000166438
0.00121219
0.00575862
0.0227714
0.0528737
0.0282903
1.08807
0.0357165
8.10732e-05
2.46179e-07
5.45377e-07
3.32067e-07
3.90006e-07
5.06954e-07
2.51366e-06
4.54859e-05
0.00053653
0.0025959
0.00955458
0.0172844
0.0165963
1.22354
0.0888783
0.00540645
0.000432435
5.68239e-05
8.30268e-06
1.88738e-06
1.14824e-06
2.35585e-06
2.01089e-05
0.000354454
0.00143971
0.00566078
0.01277
0.0117641
1.33374
0.119148
0.0115936
0.00126284
0.000214284
3.86599e-05
1.23139e-05
1.11852e-05
1.93729e-05
4.0361e-05
0.000282665
0.000767979
0.0041632
0.0108164
0.0126416
1.427
0.11831
0.0154434
0.0018548
0.000389622
9.31822e-05
0.000131692
0.000235755
0.000398894
0.000375399
0.000462785
0.000629175
0.00283661
0.0101872
0.0191922
1.50926
0.10757
0.0172329
0.00170752
0.000596694
0.000521617
0.00204812
0.003894
0.0049695
0.00244241
0.00147763
0.0013633
0.00235087
0.0118471
0.033969
1.60006
0.100791
0.0228769
0.00174401
0.00172184
0.00378471
0.00987667
0.0168685
0.0182798
0.00897984
0.00819177
0.0133933
0.0136867
0.0198919
0.0605833
1.66541
0.154008
0.0419459
0.00289033
0.00368054
0.0073503
0.0157455
0.0287053
0.0378068
0.0342681
0.0334358
0.0407016
0.0507905
0.051691
0.0818723
1.65373
0.332004
0.0830159
0.00916682
0.00592094
0.00846199
0.0150231
0.0273858
0.0426038
0.0561932
0.070117
0.0838373
0.0805383
0.0758607
0.0815247
1.55571
0.710371
0.181912
0.0455381
0.0163708
0.0110082
0.0138405
0.0212408
0.0315674
0.0462727
0.0597573
0.0888258
0.110606
0.073405
0.0593915
1.4115
1.43031
0.342808
0.113594
0.0471108
0.0245896
0.0185276
0.0197129
0.025913
0.0365262
0.0451402
0.0690528
0.114353
0.141182
0.0567945
1.25517
2.51748
0.639937
0.248225
0.106521
0.043786
0.026478
0.0215276
0.0233645
0.0311967
0.0380978
0.0631778
0.10597
0.178949
0.0889364
1.12797
3.79765
1.28092
0.57773
0.35423
0.232406
0.163024
0.119973
0.0909307
0.0740666
0.0652927
0.0709401
0.0909706
0.141116
0.123411
0.673212
0.555319
0.532846
0.509199
0.484083
0.426125
0.416567
0.404938
0.391904
0.359762
0.355696
0.349402
0.331747
0.33228
0.330243
0.326988
0.31519
0.31783
0.317038
0.309799
0.316032
0.317854
0.318081
0.311596
0.319059
0.320845
0.320715
0.312611
0.318832
0.319247
0.312005
0.320056
0.321718
0.321467
0.312904
0.319159
0.31954
0.313505
0.321197
0.323246
0.323607
0.319375
0.325947
0.328075
0.328686
0.327613
0.333026
0.336006
0.344983
0.349487
0.354803
0.360034
0.38104
0.376931
0.379307
0.381694
0.403481
0.388808
0.385099
0.390071
0.373018
0.366112
0.357162
0.341089
0.308504
0.288103
0.245733
0.199137
0.173659
0.149185
0.113572
0.0995359
0.0972333
0.097848
0.100604
0.101349
0.103593
0.106125
0.106921
0.109022
0.110875
0.110671
0.113679
0.113173
0.114038
0.11565
0.116051
0.117686
0.119389
0.121238
0.123309
0.125716
0.130162
0.131289
0.134965
0.139479
0.144332
0.150124
0.157095
0.164839
0.173357
0.191605
0.192519
0.200035
0.208273
0.217216
0.226592
0.236129
0.246324
0.25759
0.269247
0.292962
0.29564
0.305772
0.316426
0.327586
0.339043
0.350301
0.361529
0.373053
0.393292
0.401395
0.412967
0.422988
0.433685
0.445698
0.458692
0.473718
0.489043
0.511605
0.532488
0.549926
0.570118
0.592434
0.615056
0.641557
0.671581
0.705082
0.752719
0.777913
0.803601
0.838573
0.875138
0.916893
0.962567
0.970812
0.975226
0.977679
0.989133
1.09317
1.01055
0.887712
0.732696
0.552347
0.341963
0.193274
0.160773
0.128139
0.0988818
0.063156
0.026091
0.024413
0.023839
0.0239738
0.0239269
0.0238196
0.0238379
0.023784
0.0240438
0.0242228
0.0242832
0.0246322
0.0249643
0.0250891
0.0255331
0.0258021
0.0263323
0.026959
0.0272777
0.0280358
0.0285044
0.0291952
0.0301685
0.0307106
0.0311254
0.0323063
0.0327713
0.0341474
0.0347794
0.0352136
0.0368738
0.0373826
0.0393061
0.0400203
0.0404283
0.0427552
0.0434507
0.0436281
0.0464439
0.0468476
0.05016
0.0509179
0.0504613
0.0545568
0.0542505
0.0593424
0.059673
0.0532031
0.0594643
0.0574112
0.0521
0.0519175
0.0479165
0.0479743
0.0466731
0.0436414
0.0427627
0.040228
0.0394872
0.0382581
0.0362496
0.0353519
0.0342426
0.032636
0.0318105
0.0304332
0.0297486
0.0289205
0.0277981
0.0271513
0.0261884
0.0256381
0.0250044
0.0242258
0.0237091
0.0231534
0.0225159
0.0220792
0.0215392
0.0211772
0.0126705
0.0115184
0.0103924
0.0097046
0.00920994
0.00879296
0.00842528
0.00807555
0.00773931
0.00741499
0.00710758
0.0068178
0.00654058
0.00626304
0.00595591
0.00560559
0.0052007
0.00478662
0.00446045
0.00421485
0.00399392
0.00374662
0.00346686
0.00317278
0.00288492
0.00260902
0.00238642
0.00220107
0.00205299
0.00191228
0.00178438
0.00169285
0.00164216
0.00158369
0.00154293
0.0022611
0.00455957
0.0047269
0.00354957
0.00555715
0.00525211
0.00470517
0.00441092
0.00484621
0.0056331
0.00633587
0.00700666
0.00738592
0.0075546
0.00559936
0.0153044
0.0455887
0.0964558
0.105112
0.104482
0.103263
0.100959
0.0974139
0.0929016
0.0876901
0.0819961
0.076002
0.0697891
0.0636176
0.0576239
0.0518443
0.0472744
0.0439955
0.041307
0.0389463
0.0370892
0.0354171
0.0342111
0.0338972
0.0363621
0.0352094
0.0237933
0.020922
0.0249453
0.0123517
0.0112486
0.0102092
0.00956287
0.00909065
0.008685
0.00832093
0.00796971
0.00762807
0.00729647
0.00698019
0.00667923
0.00638966
0.00610086
0.00578326
0.00542546
0.00502008
0.00461085
0.00429149
0.0040537
0.00384357
0.00361067
0.00334633
0.00306998
0.00279932
0.00253706
0.0023268
0.00215323
0.00201807
0.00189027
0.0017754
0.00169569
0.00165379
0.00159249
0.00154342
0.00216116
0.00457718
0.00473911
0.00350041
0.00555681
0.00534939
0.00475042
0.00443522
0.00485037
0.00562572
0.00632779
0.00705478
0.00752238
0.00765267
0.0069402
0.0248209
0.0816959
0.101386
0.110237
0.109812
0.108729
0.106486
0.102989
0.0985341
0.0933516
0.0876589
0.0815824
0.0752052
0.0688815
0.0627002
0.0566673
0.0518151
0.0481681
0.0450915
0.0423968
0.040239
0.0382821
0.0367737
0.0359586
0.0376773
0.0367273
0.0275734
0.0229981
0.0261438
0.0117782
0.0108417
0.0099354
0.00935469
0.00891847
0.00853242
0.00817726
0.00782806
0.00748352
0.00714611
0.00682193
0.00651133
0.00621143
0.00591371
0.0055885
0.00522627
0.00482424
0.00442364
0.00411349
0.0038859
0.00368777
0.00347016
0.00322175
0.00296301
0.00270945
0.0024605
0.00226205
0.00209988
0.00197687
0.00186092
0.0017586
0.00168949
0.00165599
0.00159324
0.0015413
0.00206274
0.00441872
0.00478497
0.00350787
0.0056114
0.00549242
0.00482901
0.00448114
0.00487243
0.00563596
0.00633967
0.00713289
0.00771159
0.00799045
0.00964182
0.0379006
0.110273
0.104801
0.113912
0.114167
0.113439
0.111438
0.108199
0.103945
0.0988995
0.0933141
0.0871768
0.0806813
0.0742776
0.0679495
0.0616665
0.0565676
0.0525943
0.0491733
0.0461691
0.0437025
0.0414188
0.0395753
0.0382916
0.0391965
0.0379867
0.0311578
0.0250716
0.0274939
0.0112949
0.0104978
0.009705
0.00917907
0.008772
0.00840104
0.00805173
0.00770246
0.00735355
0.00700933
0.00667682
0.00635657
0.00604717
0.00574051
0.0054083
0.00504207
0.00464263
0.0042495
0.00394698
0.00372843
0.00354177
0.00333887
0.00310558
0.00286373
0.00262701
0.00239098
0.00220391
0.00205273
0.00194214
0.00183904
0.00175065
0.00169361
0.00166765
0.00160585
0.00155094
0.001943
0.00434843
0.00479957
0.00351842
0.00566196
0.00564881
0.0049165
0.00452989
0.00489298
0.0056442
0.00635068
0.00721102
0.0079064
0.0085059
0.0135035
0.0511512
0.126442
0.109066
0.118306
0.119086
0.118615
0.116957
0.113979
0.1099
0.104973
0.0993844
0.0932304
0.0866552
0.0801591
0.0736817
0.0671418
0.0618204
0.0575078
0.0537106
0.0503139
0.0475146
0.0448977
0.04268
0.0408648
0.0410011
0.0394955
0.0329418
0.0268537
0.0288385
0.0108634
0.0101824
0.00948591
0.00900828
0.00862712
0.00826963
0.00792532
0.00757555
0.0072221
0.00687111
0.00653038
0.0062014
0.0058828
0.00556774
0.00522978
0.00486088
0.00446453
0.00407881
0.00378439
0.00357445
0.00339885
0.00321047
0.00299235
0.00276697
0.00254615
0.00232242
0.00214661
0.00200576
0.00190718
0.00181668
0.00174229
0.0016973
0.0016799
0.00162176
0.00156353
0.00188843
0.00453607
0.00482852
0.00353299
0.00570504
0.00582061
0.00501332
0.00457965
0.00490894
0.0056465
0.00635534
0.0072829
0.00809972
0.00925436
0.0182575
0.0620358
0.126541
0.112657
0.122133
0.123599
0.123573
0.122335
0.11972
0.115918
0.111169
0.105661
0.0995582
0.0929703
0.0863839
0.0797278
0.0729933
0.0674473
0.0628333
0.0586368
0.054804
0.0516559
0.0487038
0.0460732
0.0437341
0.0430594
0.0413082
0.0349141
0.0290654
0.0304272
0.0104834
0.009896
0.00928029
0.00884493
0.00848667
0.00814091
0.00780066
0.00744988
0.00709181
0.00673402
0.0063853
0.00604869
0.00572143
0.00539808
0.00505481
0.00468493
0.0042912
0.00391297
0.00362684
0.00342471
0.00325983
0.00308639
0.00288317
0.0026741
0.00246855
0.00225694
0.00209242
0.0019617
0.00187539
0.00179839
0.00173862
0.00170642
0.00169757
0.00164304
0.00158395
0.00186523
0.00496087
0.00493938
0.00358533
0.00576692
0.00602733
0.00513311
0.00463837
0.00492666
0.00564949
0.00636049
0.00735745
0.00831386
0.0103462
0.0237062
0.0711887
0.126408
0.116169
0.125807
0.128014
0.128511
0.127783
0.125598
0.122097
0.117547
0.112157
0.106123
0.0996394
0.0930125
0.0861301
0.0792404
0.0735188
0.0685646
0.0639137
0.059622
0.0561201
0.0528116
0.0497151
0.0468362
0.0453873
0.0432976
0.0373891
0.0316408
0.0322041
0.0101451
0.00963378
0.00908579
0.00868724
0.00834929
0.00801383
0.00767695
0.00732481
0.0069622
0.00659777
0.00624135
0.00589771
0.00556245
0.00523146
0.00488398
0.00451353
0.00412327
0.00375213
0.00347355
0.0032788
0.00312431
0.00296617
0.00277744
0.00258421
0.00239384
0.00219438
0.00204057
0.00191959
0.00184522
0.00178209
0.00173738
0.0017181
0.00171875
0.00166926
0.00161156
0.00184781
0.00547451
0.00516235
0.00370092
0.00585655
0.00627766
0.00528274
0.00470913
0.00494787
0.00565507
0.00636824
0.00743687
0.00856462
0.011842
0.0296267
0.0789961
0.126073
0.119352
0.12912
0.132152
0.133296
0.133175
0.131497
0.128374
0.124095
0.118884
0.112982
0.106607
0.0999129
0.0928615
0.085918
0.0800131
0.0747425
0.0696039
0.064843
0.0609868
0.0572468
0.0536591
0.0502336
0.0479867
0.0455107
0.0399521
0.0344094
0.0340358
0.0098411
0.00939182
0.00890075
0.00853417
0.0082142
0.00788795
0.00755396
0.00720034
0.0068333
0.0064625
0.00609885
0.00574864
0.00540582
0.00506839
0.00471714
0.00434651
0.00396082
0.00359653
0.00332436
0.00313703
0.00299282
0.00284903
0.00267494
0.0024978
0.00232238
0.00213508
0.00199196
0.00188065
0.00181826
0.00176931
0.00173997
0.00173424
0.00174464
0.00169972
0.00164681
0.00183196
0.00590709
0.00550511
0.00390371
0.00597504
0.00657102
0.00546524
0.00479212
0.00497151
0.00566199
0.00637714
0.00751898
0.00886355
0.0137523
0.0357221
0.0855157
0.125412
0.122282
0.132098
0.136035
0.137949
0.138528
0.137435
0.134751
0.130798
0.125821
0.120096
0.113827
0.10703
0.0999632
0.0930674
0.0869343
0.0813989
0.0757855
0.0705182
0.066291
0.0620251
0.0578055
0.0538639
0.050836
0.0479454
0.0425712
0.037327
0.0362634
0.00956509
0.00916664
0.00872374
0.00838487
0.00808078
0.00776288
0.00743137
0.00707632
0.00670511
0.00632826
0.00595801
0.00560115
0.00525241
0.00490856
0.00455391
0.00418343
0.00380304
0.0034456
0.00318004
0.00299947
0.00286537
0.00273473
0.00257486
0.00241458
0.00225413
0.00207929
0.00194635
0.00184447
0.00179376
0.00175949
0.00174555
0.00175349
0.00177418
0.00173492
0.00168841
0.00180426
0.00614139
0.00596639
0.00422863
0.00612306
0.00690058
0.00568452
0.00488864
0.0049973
0.00566954
0.00638632
0.0076025
0.00922319
0.0160391
0.0417661
0.0908826
0.124215
0.124867
0.134656
0.13958
0.142389
0.143772
0.143357
0.141205
0.137652
0.132976
0.127476
0.12126
0.114443
0.107484
0.100581
0.0942613
0.0885064
0.0824587
0.0767381
0.071967
0.06706
0.0622
0.0577343
0.0539373
0.0506024
0.0453889
0.040463
0.0387065
0.00931117
0.00895476
0.008553
0.00823848
0.00794847
0.00763827
0.00730911
0.00695268
0.00657756
0.00619505
0.00581842
0.00545567
0.00510207
0.00475278
0.00439538
0.00402543
0.00364961
0.00329993
0.00304053
0.00286646
0.0027421
0.00262419
0.00247814
0.00233425
0.00218966
0.00202755
0.00190446
0.00181203
0.00177279
0.00175283
0.00175424
0.00177633
0.00180767
0.0017737
0.00173634
0.00179201
0.00615094
0.00653445
0.00471989
0.00632131
0.00725971
0.00594472
0.00500124
0.0050258
0.00567788
0.00639559
0.007687
0.00965569
0.0186396
0.0475273
0.0950073
0.122417
0.127086
0.136791
0.142773
0.146601
0.148889
0.149251
0.14772
0.144649
0.140341
0.135109
0.129025
0.122223
0.115383
0.108352
0.101995
0.0960952
0.0896745
0.0834848
0.0779672
0.072329
0.0668528
0.0617874
0.0572613
0.0534633
0.0483343
0.0437591
0.0412375
0.00907472
0.00875356
0.0083872
0.00809416
0.00781676
0.00751376
0.00718691
0.00682932
0.00645061
0.00606296
0.00568077
0.00531242
0.00495457
0.0046007
0.00424123
0.00387254
0.00350177
0.00315891
0.00290542
0.00273774
0.00262326
0.0025176
0.00238538
0.00225699
0.00212911
0.00198012
0.00186642
0.00178318
0.00175505
0.0017493
0.00176548
0.00180189
0.00184438
0.0018163
0.00178964
0.00180159
0.00594817
0.00715182
0.0054119
0.00660855
0.00764414
0.00624859
0.00513308
0.0050577
0.00568718
0.00640477
0.00777151
0.010169
0.0214551
0.0527886
0.0978269
0.120131
0.128847
0.138501
0.145551
0.150506
0.153807
0.155054
0.154256
0.151769
0.147919
0.143011
0.137091
0.130331
0.123604
0.116534
0.110146
0.104105
0.0973454
0.0905966
0.084255
0.0778188
0.0716862
0.0660557
0.0608159
0.0565409
0.0513823
0.0471364
0.0440838
0.00885188
0.0085607
0.00822518
0.00795123
0.00768521
0.00738903
0.00706453
0.00670609
0.00632421
0.00593214
0.00554483
0.00517182
0.00481003
0.00445202
0.00409118
0.00372503
0.00335961
0.00302291
0.00277543
0.00261365
0.00250906
0.00241589
0.00229681
0.00218471
0.00207338
0.00193772
0.00183291
0.00175877
0.00174119
0.00174854
0.00177882
0.0018299
0.00188406
0.00186174
0.00184744
0.00184243
0.00552969
0.00772298
0.00629804
0.00703388
0.00806725
0.00659918
0.0052879
0.00509386
0.00569752
0.00641363
0.00785492
0.0107691
0.0243872
0.0574354
0.0995988
0.117537
0.130094
0.139759
0.147882
0.154059
0.158489
0.160734
0.16079
0.159004
0.155697
0.151173
0.145457
0.13881
0.132132
0.125138
0.11865
0.112514
0.105394
0.0979698
0.0907872
0.0835011
0.0766716
0.0704
0.0645914
0.0597906
0.0544986
0.0506353
0.0471747
0.00864003
0.00837448
0.00806603
0.00780914
0.00755354
0.00726385
0.00694184
0.00658287
0.00619827
0.00580207
0.00541028
0.00503358
0.00466822
0.00430743
0.00394502
0.00358303
0.00322351
0.00289333
0.00265098
0.00249493
0.00240004
0.00231979
0.00221382
0.00211723
0.00202252
0.00190085
0.00180439
0.00173898
0.00173117
0.0017506
0.00179375
0.00185955
0.00192602
0.00191002
0.00190826
0.00191106
0.00490717
0.00811942
0.00731771
0.0076396
0.00855851
0.00700527
0.00547102
0.00513574
0.00570898
0.00642215
0.00793684
0.0114581
0.0273233
0.0612247
0.0996681
0.114863
0.130776
0.140522
0.149707
0.15719
0.162862
0.16623
0.167282
0.166314
0.163645
0.159578
0.154106
0.147705
0.141148
0.134087
0.127502
0.121269
0.113825
0.105809
0.0975345
0.0893416
0.0817435
0.0749009
0.0685641
0.0631515
0.0577226
0.0541917
0.0502807
0.00843685
0.00819352
0.00790894
0.00766736
0.00742143
0.00713806
0.00681869
0.00645964
0.00607289
0.00567331
0.0052782
0.00489834
0.00452963
0.00416741
0.00380408
0.00344598
0.00309305
0.00277009
0.00253291
0.00238293
0.00229738
0.00223025
0.00213786
0.00205604
0.00197739
0.00187002
0.00178171
0.00172446
0.00172527
0.00175497
0.00180954
0.00189006
0.00196947
0.00195986
0.00197162
0.00200348
0.00371354
0.0081291
0.00833438
0.00844148
0.00916398
0.00748664
0.00569081
0.00518554
0.00572167
0.00643045
0.00801855
0.0122417
0.0301618
0.0641515
0.0987965
0.112255
0.130858
0.140754
0.150985
0.159844
0.166872
0.171498
0.173672
0.173647
0.171737
0.168192
0.163119
0.157066
0.150539
0.14345
0.136741
0.130416
0.122606
0.113976
0.104559
0.0953649
0.0869748
0.0795184
0.072672
0.0666407
0.0610509
0.057664
0.0537448
0.00824032
0.00801661
0.00775326
0.00752559
0.00728866
0.00701145
0.00669501
0.00633639
0.00594824
0.00554615
0.00514863
0.00476543
0.00439453
0.00403105
0.00366824
0.003314
0.00296801
0.002653
0.00242157
0.00227781
0.00220219
0.00214794
0.00206962
0.00200192
0.0019387
0.0018457
0.00176537
0.00171549
0.00172346
0.00176158
0.00182567
0.00192032
0.00201313
0.00201023
0.00203667
0.00209646
0.00299662
0.00781631
0.00917311
0.00939709
0.00993361
0.00807921
0.0059621
0.00524697
0.00573591
0.00643898
0.00810433
0.0131223
0.0328269
0.0662003
0.0970574
0.110014
0.130321
0.14042
0.151667
0.161951
0.170447
0.176458
0.179901
0.180976
0.179944
0.177021
0.172526
0.166799
0.160274
0.15313
0.146376
0.139835
0.131756
0.122403
0.111734
0.101455
0.0922166
0.0841527
0.0768208
0.0702087
0.0644225
0.06124
0.0572693
0.00804907
0.00784289
0.0075986
0.00738353
0.00715508
0.00688397
0.00657074
0.00621308
0.00582457
0.00542086
0.00502095
0.00463523
0.0042628
0.00389918
0.00353674
0.00318706
0.00284738
0.0025425
0.00231755
0.00218068
0.00211573
0.00207461
0.00201001
0.00195621
0.00190732
0.00182882
0.00175608
0.00171246
0.00172573
0.00176994
0.00184132
0.00194905
0.00205533
0.00205958
0.00210099
0.00217824
0.00272473
0.00717407
0.00969287
0.0104276
0.0108873
0.00881928
0.00630819
0.00532635
0.00575235
0.00644858
0.00820133
0.0141
0.035208
0.066991
0.0925797
0.108316
0.129167
0.139497
0.151712
0.163452
0.173511
0.181047
0.185915
0.188235
0.188216
0.186049
0.182137
0.17674
0.170308
0.1632
0.156273
0.149573
0.141292
0.130958
0.119034
0.107568
0.0974279
0.0887705
0.0808948
0.0738083
0.0678441
0.0646923
0.0612102
0.00786213
0.00767175
0.00744469
0.00724106
0.00702056
0.00675551
0.00644587
0.0060898
0.00570171
0.00529711
0.00489565
0.00450733
0.00413453
0.00377165
0.00341068
0.00306536
0.0027328
0.0024393
0.00222147
0.00209185
0.0020385
0.0020107
0.00196074
0.00192053
0.00188428
0.00181992
0.0017542
0.00171559
0.00173201
0.0017799
0.00185586
0.0019746
0.00209361
0.00210584
0.00216057
0.00224572
0.00270246
0.00640821
0.00977629
0.0113636
0.0119722
0.00971662
0.00675492
0.00543416
0.00577239
0.00646066
0.00831928
0.0151627
0.0372096
0.0665539
0.0872045
0.107173
0.127411
0.137969
0.151089
0.164286
0.175977
0.18516
0.191603
0.195319
0.196466
0.195199
0.191893
0.186909
0.180727
0.173639
0.166388
0.159597
0.151021
0.139714
0.126412
0.113621
0.10249
0.0932548
0.0849273
0.0774518
0.0712984
0.0681651
0.0651616
0.00767887
0.00750276
0.00729124
0.00709805
0.00688506
0.00662606
0.00632038
0.00596671
0.00557937
0.00517489
0.0047726
0.00438244
0.00400919
0.00364925
0.0032908
0.00294888
0.00262266
0.00234242
0.00213356
0.00201223
0.0019711
0.00195655
0.00192205
0.00189537
0.00187046
0.00182006
0.00176032
0.00172504
0.0017422
0.00179108
0.00186844
0.00199501
0.00212411
0.00214515
0.00221092
0.00229811
0.00274299
0.00483947
0.00911215
0.0119492
0.013046
0.0107318
0.00731743
0.00558441
0.00579873
0.00647747
0.00847034
0.0162916
0.0387729
0.0650439
0.0810626
0.10667
0.125074
0.13584
0.149787
0.16441
0.177771
0.188703
0.196843
0.202114
0.204603
0.204416
0.201871
0.197496
0.191555
0.184402
0.176921
0.169783
0.160876
0.148595
0.133783
0.119477
0.107298
0.0974577
0.0888533
0.0810301
0.0747493
0.0717567
0.068405
0.00749895
0.00733556
0.00713791
0.00695427
0.00674845
0.00649554
0.00619434
0.00584344
0.0054582
0.00505391
0.00465158
0.00426097
0.00388749
0.00353081
0.0031765
0.00283915
0.00251948
0.00225079
0.00205554
0.0019424
0.00191449
0.00191339
0.00189513
0.00188213
0.00186685
0.00182988
0.00177464
0.00174086
0.00175617
0.00180336
0.00187844
0.0020081
0.00214027
0.00217257
0.002246
0.00233592
0.00278547
0.00367222
0.00793409
0.0119873
0.0139508
0.0117968
0.00798988
0.00579133
0.00583582
0.00650204
0.00866481
0.0174469
0.0398391
0.0623792
0.0725917
0.106694
0.122169
0.133129
0.147807
0.163791
0.178821
0.191561
0.201507
0.208496
0.212516
0.213603
0.212018
0.208194
0.202565
0.195549
0.187856
0.180192
0.170973
0.157527
0.140979
0.124877
0.111575
0.101107
0.0923107
0.0843842
0.0781061
0.0752079
0.0719846
0.00732222
0.00716987
0.00698442
0.00680953
0.00661064
0.00636391
0.00606802
0.00572057
0.00533778
0.00493495
0.00453331
0.00414271
0.0037698
0.00341765
0.00306979
0.00273596
0.00242337
0.00216542
0.0019879
0.00188277
0.001868
0.00188058
0.00187951
0.00187981
0.00187327
0.00184941
0.00179684
0.00176261
0.00177365
0.00181653
0.00188552
0.00201217
0.00213564
0.00218
0.00225672
0.00236091
0.00279383
0.00343017
0.00675634
0.0114845
0.0145735
0.0128511
0.00875119
0.00606547
0.00588997
0.00653861
0.00891562
0.0186095
0.0406138
0.0610956
0.0795823
0.106811
0.118989
0.129874
0.145171
0.162438
0.179108
0.193659
0.205494
0.214356
0.220108
0.22269
0.222178
0.219094
0.213857
0.206902
0.198919
0.190697
0.180862
0.166258
0.147699
0.129716
0.11526
0.104163
0.0951574
0.0873967
0.0815138
0.0786958
0.0749204
0.00714833
0.00700541
0.00683057
0.00666368
0.00647154
0.0062311
0.00594098
0.00559832
0.00521865
0.00481791
0.0044176
0.00402789
0.00365579
0.00330807
0.00297045
0.00264192
0.00233579
0.00208916
0.00192896
0.00183402
0.00183179
0.00185874
0.00187491
0.0018879
0.00188836
0.00187623
0.00182449
0.00178836
0.00179394
0.00183019
0.00189008
0.00200784
0.00211911
0.00217678
0.00226779
0.00237589
0.00276554
0.0032717
0.00570659
0.0105559
0.0148631
0.0138578
0.00957886
0.00641218
0.00596906
0.00659227
0.00923077
0.0197511
0.0413253
0.0622312
0.100163
0.10669
0.115567
0.126093
0.141915
0.160393
0.178633
0.194948
0.208709
0.219556
0.227231
0.231467
0.232255
0.22999
0.225137
0.218084
0.209662
0.200861
0.190338
0.174415
0.153628
0.133636
0.118082
0.106657
0.0978033
0.0904858
0.0850001
0.0826729
0.0788855
0.00697672
0.00684168
0.00667614
0.00651661
0.00633108
0.00609727
0.00581365
0.00547631
0.00510065
0.00470253
0.00430455
0.00391663
0.00354587
0.00320321
0.00287658
0.00255704
0.00225706
0.00202123
0.00187732
0.00179611
0.00180455
0.0018462
0.00187908
0.00190224
0.00190789
0.00190226
0.00185006
0.00181123
0.00181431
0.00184238
0.00189271
0.00199857
0.00210424
0.00217465
0.00227422
0.00238535
0.00271957
0.00316918
0.00445472
0.00922188
0.0147692
0.0147914
0.0104574
0.00683163
0.00608174
0.00666937
0.00961746
0.0208557
0.0419999
0.0638405
0.114372
0.106076
0.111836
0.121792
0.138083
0.157734
0.177472
0.195488
0.211145
0.22403
0.233718
0.239793
0.241991
0.240552
0.23596
0.228648
0.219261
0.209898
0.198863
0.181802
0.158552
0.13649
0.119879
0.108303
0.0998654
0.0931521
0.0884465
0.0862776
0.0790405
0.00680695
0.0066784
0.00652095
0.00636813
0.00618903
0.00596232
0.0056856
0.00535451
0.00498345
0.00458916
0.0041942
0.00380869
0.00344035
0.0031033
0.00278834
0.00248128
0.00218756
0.0019643
0.00183528
0.0017678
0.00178601
0.00184169
0.00188776
0.00191421
0.00192172
0.00191214
0.00186004
0.00181752
0.001826
0.00184616
0.00189283
0.00198577
0.00208763
0.00216761
0.00227621
0.00239399
0.00266836
0.00309067
0.00390336
0.00791339
0.0143091
0.0156247
0.0113904
0.00732295
0.00623665
0.00677709
0.0100759
0.0218836
0.0424876
0.0642436
0.116978
0.104861
0.107738
0.11698
0.133718
0.154561
0.175753
0.195353
0.212788
0.227641
0.239361
0.247307
0.25091
0.25012
0.245443
0.237526
0.227357
0.217434
0.206167
0.187852
0.162033
0.137949
0.120505
0.108909
0.101035
0.0954231
0.0912572
0.0876458
0.0775649
0.0066388
0.00651556
0.00636502
0.00621822
0.00604531
0.00582594
0.00555658
0.00523293
0.00486767
0.00447774
0.00408652
0.0037049
0.00333995
0.00300869
0.00270402
0.00241162
0.00212905
0.00191736
0.00180294
0.00174716
0.00177451
0.00184135
0.00189189
0.00191017
0.00191658
0.00191092
0.00187314
0.00182693
0.00181752
0.00183747
0.00188704
0.00196719
0.00207145
0.00216309
0.00227841
0.0024046
0.00262724
0.00302244
0.0036197
0.00681475
0.0135775
0.016328
0.0124062
0.00789475
0.00644139
0.00692312
0.0105996
0.0227909
0.042687
0.0629404
0.111144
0.102457
0.103223
0.111671
0.128838
0.150957
0.173628
0.194663
0.213549
0.229869
0.243238
0.252739
0.257389
0.256825
0.25166
0.243029
0.232076
0.221643
0.210759
0.191628
0.163566
0.13768
0.119669
0.108538
0.101684
0.0966025
0.0917637
0.0863996
0.0757952
0.00647225
0.00635316
0.00620833
0.0060668
0.00589994
0.00568798
0.00542678
0.00511129
0.00475317
0.00436841
0.00398154
0.00360426
0.00324525
0.00291908
0.00262358
0.00234589
0.00207949
0.00187842
0.00177611
0.00173258
0.00176815
0.00183959
0.00188029
0.0019099
0.00190983
0.00189246
0.00185602
0.00181143
0.00181446
0.00182582
0.00186897
0.00195133
0.00205871
0.00216174
0.00228576
0.00241964
0.00261329
0.00297826
0.0033825
0.00602456
0.0127256
0.0168572
0.0135363
0.00857544
0.00670583
0.00711423
0.01117
0.0235293
0.0427967
0.063688
0.103099
0.099033
0.0983286
0.105908
0.123429
0.146926
0.171081
0.192835
0.211316
0.226787
0.239431
0.249419
0.255786
0.25615
0.251045
0.242475
0.231627
0.221696
0.211887
0.192882
0.162971
0.135641
0.117435
0.107131
0.101695
0.0967166
0.0908098
0.0840506
0.072946
0.00630742
0.00619122
0.00605091
0.00591391
0.00575287
0.00554836
0.00529553
0.00498947
0.00463959
0.00426118
0.0038794
0.00350712
0.00315442
0.00283249
0.00254653
0.00228077
0.00203347
0.00184268
0.00175244
0.00172221
0.00176248
0.00182651
0.00186736
0.00187694
0.00187648
0.00186155
0.00182592
0.00178175
0.00178668
0.00180968
0.00186443
0.00193562
0.00205199
0.00216903
0.00230331
0.00244516
0.00262895
0.00295336
0.00318895
0.00519203
0.011798
0.017189
0.014775
0.00940824
0.00704562
0.00735541
0.0117642
0.0240595
0.0427173
0.0676828
0.0978884
0.0953468
0.0932073
0.0997828
0.117442
0.142266
0.167027
0.187758
0.204785
0.217959
0.227985
0.235428
0.241018
0.243604
0.240287
0.233646
0.224652
0.21635
0.20891
0.190869
0.15972
0.131681
0.113837
0.104963
0.100542
0.0948775
0.0881192
0.0809738
0.0704047
0.00614452
0.00602997
0.00589294
0.00575973
0.00560378
0.00540693
0.00516312
0.00486716
0.00452641
0.00415576
0.00377999
0.00341326
0.00306775
0.00275058
0.0024735
0.00222233
0.0019913
0.00180983
0.00173068
0.00171443
0.00175036
0.00179488
0.00182496
0.00183043
0.00182656
0.00180849
0.00177767
0.0017379
0.00175314
0.0017932
0.00185238
0.00193281
0.00205222
0.0021859
0.00233487
0.00248667
0.00267169
0.00295321
0.00307483
0.00398056
0.0106426
0.0172213
0.0160268
0.010425
0.0074823
0.00765085
0.0123621
0.0243638
0.0422345
0.0692087
0.0958252
0.0918301
0.0880579
0.093468
0.110883
0.136159
0.160388
0.180333
0.195697
0.207276
0.214944
0.219463
0.221852
0.223152
0.221958
0.218106
0.212183
0.206242
0.201973
0.18571
0.154304
0.126324
0.109187
0.10205
0.0984419
0.0925816
0.085194
0.0776255
0.0683603
0.005984
0.00587006
0.00573483
0.00560437
0.00545328
0.00526433
0.0050299
0.00474428
0.00441437
0.00405322
0.00368388
0.00332269
0.00298453
0.00267329
0.00240116
0.00216273
0.00195176
0.00178108
0.00170985
0.00170326
0.0017229
0.00176356
0.00176818
0.00176264
0.00175736
0.00174137
0.00171525
0.00168939
0.00170568
0.00176497
0.00184262
0.00193695
0.00206259
0.00221168
0.00237981
0.00254441
0.00273642
0.0029743
0.00303932
0.00354554
0.00946201
0.0168747
0.0171362
0.0116184
0.00803825
0.00800359
0.0129428
0.0244617
0.0421001
0.0690821
0.0963794
0.0884706
0.0831045
0.0872922
0.104229
0.127811
0.151346
0.170328
0.185103
0.196007
0.20318
0.206276
0.206807
0.20558
0.204171
0.201829
0.198623
0.194552
0.192237
0.17789
0.147199
0.119976
0.103887
0.0983321
0.0950316
0.0896676
0.0821746
0.0740993
0.0656519
0.00582638
0.00571212
0.00557709
0.00544842
0.0053014
0.00512043
0.00489586
0.00462142
0.004303
0.00395323
0.00359112
0.00323597
0.00290412
0.00260003
0.00233262
0.00210801
0.00191481
0.00175596
0.0016888
0.00167975
0.00169404
0.00170503
0.00169212
0.00168096
0.00167202
0.00165821
0.00163838
0.00163052
0.00166026
0.00172376
0.00182386
0.00194013
0.00207657
0.00224195
0.0024316
0.00260922
0.00280868
0.00300258
0.00305257
0.00333098
0.00832885
0.0161838
0.0179804
0.0129443
0.00873447
0.00842055
0.0134888
0.0243518
0.0425286
0.0970499
0.0982898
0.0846693
0.0786822
0.0819782
0.0975844
0.11922
0.141502
0.160274
0.175016
0.185146
0.1916
0.194329
0.194195
0.192187
0.189659
0.187968
0.186401
0.18275
0.179824
0.168004
0.13938
0.113486
0.0985466
0.093986
0.0910628
0.0858476
0.0788645
0.070658
0.0632588
0.00567228
0.00555638
0.0054203
0.00529214
0.00514847
0.0049751
0.00476105
0.00449862
0.00419239
0.00385494
0.00350132
0.00315427
0.00282935
0.00253082
0.00226944
0.00205255
0.0018776
0.00173125
0.0016665
0.00164373
0.00164059
0.00163786
0.00160979
0.00158413
0.00157142
0.0015618
0.00155277
0.00155381
0.00159796
0.0016798
0.00178987
0.00192278
0.00208298
0.00226319
0.00247408
0.00266236
0.0028584
0.00301357
0.00306375
0.00319657
0.00734605
0.0153072
0.0185353
0.0143494
0.00959048
0.00891127
0.0139803
0.0240183
0.0437486
0.109919
0.0943719
0.0799139
0.0755946
0.078519
0.0916773
0.113021
0.134769
0.153169
0.166849
0.176869
0.182601
0.184673
0.184144
0.18241
0.180811
0.180161
0.179393
0.175648
0.17135
0.160023
0.132511
0.107457
0.0933434
0.0889018
0.0866496
0.0817924
0.0752252
0.0674767
0.0609077
0.00552307
0.00540434
0.00526542
0.00513607
0.00499476
0.00482803
0.00462519
0.00437657
0.00408363
0.0037588
0.00341608
0.00307851
0.00276103
0.00246906
0.00221207
0.00200174
0.00183785
0.00170699
0.00164339
0.00161368
0.00157623
0.00155044
0.00151599
0.00148578
0.00146334
0.00146007
0.00145674
0.00146638
0.00152388