/*--------------------------------*- C++ -*----------------------------------*\
| =========                 |                                                 |
| \\      /  F ield         | OpenFOAM: The Open Source CFD Toolbox           |
|  \\    /   O peration     | Version:  4.1                                   |
|   \\  /    A nd           | Web:      www.OpenFOAM.org                      |
|    \\/     M anipulation  |                                                 |
\*---------------------------------------------------------------------------*/
FoamFile
{
    version     2.0;
    format      ascii;
    class       volScalarField;
    location    "2";
    object      nut;
}
// * * * * * * * * * * * * * * * * * * * * * * * * * * * * * * * * * * * * * //

dimensions      [0 2 -1 0 0 0 0];

internalField   nonuniform List<scalar> 
6785
(
0.344395
4.22759e-08
3.91856e-08
3.91623e-08
3.91666e-08
3.91609e-08
3.91695e-08
3.91703e-08
3.91643e-08
3.91762e-08
3.91709e-08
3.91515e-08
3.93288e-08
2.00024e-07
0.260323
0.375849
7.6306e-06
7.43278e-10
6.08867e-10
5.73862e-10
5.48243e-10
5.326e-10
5.14187e-10
4.95997e-10
4.77887e-10
4.5253e-10
4.53533e-10
2.65154e-09
5.52335e-06
0.250686
0.40415
0.000488455
1.06657e-08
5.99242e-10
7.40887e-10
6.74741e-10
7.3748e-10
1.54001e-09
5.23434e-08
5.80651e-06
0.000105434
0.000727906
0.00324191
0.00919742
0.0902563
0.439312
0.0117217
1.80254e-05
2.31489e-09
7.80354e-09
4.09825e-09
5.435e-09
5.323e-09
2.22742e-08
1.39138e-06
4.03653e-05
0.000305106
0.00138089
0.00240279
0.060741
0.466757
0.0316122
0.00610886
0.00116059
8.85497e-05
3.23741e-06
2.65667e-07
9.52413e-08
8.42736e-08
8.41374e-07
0.000201185
0.00019892
0.00188977
0.00241636
0.0515937
0.486041
0.0446997
0.00969335
0.00254255
0.000573068
6.87381e-05
1.20449e-05
8.66396e-06
1.41038e-05
5.71917e-06
0.000332267
0.000126719
0.00310043
0.00239814
0.0398
0.499073
0.0489623
0.0119275
0.00231394
0.000822963
0.000275065
0.000389049
0.00118233
0.00165764
0.000657834
0.0120845
0.000137952
0.00309262
0.00351894
0.043821
0.509124
0.0567218
0.0151672
0.00264417
0.00112486
0.00272968
0.0189621
0.0263908
0.0283714
0.0062963
0.0060401
0.00109696
0.00527258
0.00788844
0.0543693
0.520943
0.0531336
0.0209422
0.00281784
0.00503317
0.0246201
0.0169116
0.023194
0.0285666
0.0366072
0.0235528
0.0350769
0.149072
0.0238403
0.082321
0.540628
0.085868
0.0596376
0.00856007
0.00786752
0.00817278
0.008909
0.0177283
0.0334268
0.061355
0.0763982
0.0418308
0.0551415
0.0670175
0.120403
0.550522
0.215296
0.0614969
0.0161426
0.00761511
0.0100298
0.00831752
0.0149572
0.0259397
0.0450282
0.0671023
0.104413
0.100225
0.120748
0.153945
0.543573
0.379255
0.387841
0.101239
0.084873
0.014949
0.0108941
0.0130383
0.0162017
0.0274048
0.0368394
0.045342
0.0659024
0.246283
0.169862
0.520984
0.6728
0.181602
0.0832045
0.0511383
0.066689
0.0220636
0.0159749
0.0207883
0.0287736
0.029985
0.0338439
0.056481
0.130783
0.078972
0.495797
0.971073
0.637916
2.16218
0.378462
0.0598288
0.0373155
0.020804
0.0198171
0.0302239
0.0303165
0.0455894
0.0463121
0.106193
0.118529
0.481386
0.711979
0.253061
0.217868
0.460294
0.79964
3.81914
2.86623
0.928648
0.311193
0.15216
0.132508
0.0742008
0.0605667
0.158055
2.21042
3.59481
1.96959
1.92486
1.87732
3.15834
1.73929
1.71192
1.68329
2.89515
1.59906
1.58114
2.76003
1.52999
1.51954
1.50878
2.65607
1.47935
1.47341
2.60691
1.46136
1.46203
1.46058
2.59058
1.45983
1.46271
1.46214
2.58909
1.45913
1.45995
2.58725
1.4631
1.4669
1.46697
2.59496
1.46397
1.4648
2.59936
1.47001
1.47466
1.47604
2.62903
1.48508
1.49071
1.49381
2.67951
1.51157
1.52032
2.76976
1.56071
1.5753
1.59147
2.95469
1.63957
1.64353
1.64874
3.03984
1.66755
1.65964
2.98689
1.63289
1.6165
1.59543
2.78223
1.47421
1.42161
2.34493
1.18698
1.11995
1.06049
1.80783
1.00708
1.01937
1.03808
1.89243
1.06676
1.07822
1.9454
1.09399
1.1034
0.31224
0.309527
0.342504
0.348332
0.359264
0.393678
0.469914
0.544252
0.701842
0.914361
1.25159
1.4158
1.73383
1.50311
1.93303
2.1981
2.58411
2.83766
3.16152
3.52584
3.93149
5.35133
2.08857
2.21022
2.2832
2.3861
2.51
2.65561
2.81957
3.01415
3.22987
3.23216
1.78906
1.80691
1.75404
1.7248
1.69279
1.66685
1.62978
1.6028
1.13456
0.916921
0.905224
0.826663
0.797672
0.747021
0.710935
0.667817
0.63136
0.425022
0.450724
0.459461
0.419989
0.413497
0.399832
0.388507
0.380401
0.372135
0.394166
0.405249
0.409876
0.384566
0.368535
0.342258
0.320795
0.317547
0.282357
0.262451
0.246064
0.267509
0.297715
0.238491
0.221424
0.183578
0.263826
0.108499
0.0749235
0.260647
0.109456
0.164515
0.412441
0.67716
0.685728
0.429571
0.715164
0.441598
0.737024
0.752162
0.475598
0.798315
0.818943
0.519513
0.87553
0.555344
0.938757
0.969531
0.617376
1.0465
0.666473
1.13247
1.17275
0.746547
1.27169
1.31469
0.832995
1.42598
0.906952
1.55805
1.61196
1.02082
1.76271
1.12011
1.94199
2.00925
1.27026
2.21672
2.28892
1.43404
2.52022
1.58969
2.81006
2.88903
1.77243
3.16505
1.95203
3.53444
3.59431
1.85634
3.43551
3.23293
1.85523
2.86258
1.64176
2.5915
2.48964
1.43105
2.2455
1.29512
2.03925
1.96109
1.13635
1.78474
1.71947
1.00112
1.5742
0.919529
1.45095
1.40252
0.822624
1.29313
0.76096
1.20011
1.16144
0.686897
1.09426
1.05865
0.628068
0.988354
0.587774
0.929053
1.21679
1.28774
1.20832
1.1526
1.09498
1.0469
0.985072
0.93177
0.877445
0.838757
0.783949
0.691326
0.587615
0.50567
0.401485
0.343882
0.291483
0.210282
0.180567
0.139977
0.112665
0.0804095
0.0640313
0.0492336
0.0371915
0.0287357
0.0229203
0.0179387
0.0145189
0.0111482
0.00820859
0.00678637
0.00605031
0.00541351
0.00540879
0.0088216
0.0236972
0.0191381
0.011126
0.0537841
0.165234
0.152633
0.140504
0.18341
0.258492
0.272281
0.20609
0.115422
0.0383751
0.0178718
0.0469186
0.201127
1.4903
2.00401
2.19446
1.9263
2.15795
2.20339
2.08874
1.96897
1.82393
1.72936
1.6149
1.44145
1.27409
1.17516
1.25234
1.43488
1.53613
1.54278
1.77716
1.74775
1.59329
1.27538
0.814336
0.420594
0.20838
0.268412
0.417457
1.24077
1.29628
1.21853
1.16409
1.10186
1.04883
0.982871
0.927411
0.869432
0.827908
0.769579
0.6693
0.572673
0.491572
0.376914
0.327112
0.277421
0.192673
0.16738
0.130317
0.106024
0.0750981
0.0593506
0.0457985
0.0346384
0.0265998
0.0211984
0.0165629
0.0134854
0.010415
0.00765541
0.00630956
0.00557298
0.00482053
0.00477082
0.0078577
0.0238515
0.0193953
0.0108439
0.0529422
0.168361
0.154827
0.141636
0.183589
0.257702
0.271012
0.20742
0.1182
0.0391619
0.0268491
0.107967
0.394298
1.58698
2.16797
2.44971
2.09484
2.4905
2.50345
2.40809
2.29148
2.10605
2.07559
1.93731
1.72722
1.55106
1.4534
1.55254
1.75462
1.84974
1.89524
2.20427
2.14305
1.92403
1.46309
0.940241
0.45385
0.28801
0.327072
0.457025
1.21877
1.26726
1.19281
1.13721
1.07746
1.02694
0.962232
0.906511
0.846824
0.801696
0.747944
0.654014
0.520684
0.454038
0.350482
0.29255
0.248261
0.174874
0.15501
0.118864
0.0925478
0.0678486
0.0548889
0.0423972
0.0309726
0.0230392
0.0180794
0.0139209
0.0110313
0.00844308
0.00622843
0.00532412
0.00488979
0.00456431
0.00436304
0.00654223
0.0232989
0.019486
0.0110601
0.0518298
0.172065
0.158057
0.143252
0.184507
0.258217
0.27106
0.209481
0.11986
0.0408656
0.0451365
0.188876
0.604667
1.405
1.80464
2.13625
2.30894
2.33301
2.40476
2.41817
2.37215
2.42932
2.27794
2.08601
1.92899
1.76177
1.65208
1.73417
1.87103
1.91041
2.1131
2.45902
2.31291
2.10085
1.72053
1.05844
0.504938
0.41011
0.400932
0.509331
1.17625
1.23216
1.17664
1.11962
1.05988
1.00896
0.942415
0.887812
0.825908
0.776345
0.713988
0.587768
0.498547
0.439524
0.324905
0.261072
0.223128
0.159754
0.131445
0.106471
0.0844928
0.060942
0.047303
0.0362894
0.0279071
0.020881
0.0159993
0.0124635
0.00990353
0.00764726
0.0057165
0.0049177
0.00448935
0.00411231
0.00399639
0.00558864
0.022761
0.019868
0.0113274
0.0498213
0.173834
0.160665
0.145008
0.184845
0.257846
0.270842
0.211658
0.122909
0.0439299
0.0684642
0.292579
0.778071
1.35911
1.73754
2.10945
2.23318
2.40146
2.51588
2.54296
2.56438
2.5836
2.45829
2.23113
2.14383
2.06313
1.87374
2.02148
2.06461
2.12549
2.41311
2.79963
2.51235
2.33126
1.86469
1.24306
0.561054
0.448057
0.392609
0.480002
1.15443
1.20706
1.155
1.10214
1.04206
0.992646
0.92588
0.872123
0.805257
0.753619
0.684639
0.539904
0.446818
0.405868
0.310285
0.228368
0.20986
0.145903
0.114877
0.0979369
0.077521
0.0527507
0.0411102
0.0311591
0.0245441
0.0180375
0.0135727
0.0104842
0.00824534
0.00631961
0.00485349
0.00425897
0.00400371
0.00381591
0.00365165
0.00478014
0.0227289
0.0201792
0.0114854
0.0472504
0.171649
0.162756
0.14582
0.184715
0.25761
0.270862
0.212032
0.123396
0.0468259
0.101935
0.418101
0.970152
1.20029
1.54126
1.90716
2.13464
2.31215
2.48816
2.64706
2.76548
2.81828
2.77695
2.40916
2.31908
2.34121
2.12464
2.26062
2.38183
2.53995
2.84316
3.24885
2.94306
2.79041
2.21657
1.43136
0.626478
0.498054
0.440309
0.532264
1.12728
1.17561
1.12852
1.08175
1.02624
0.974896
0.910168
0.856561
0.786662
0.72794
0.649552
0.516559
0.422299
0.370546
0.268498
0.209749
0.171152
0.123628
0.104757
0.0903563
0.0713936
0.046187
0.0361057
0.0276201
0.0215142
0.0154248
0.0118306
0.00915194
0.00726844
0.00559345
0.00436749
0.00390555
0.00369729
0.00347218
0.00338543
0.00443005
0.0220323
0.0208216
0.012013
0.0455953
0.171092
0.167258
0.148019
0.185146
0.257502
0.270222
0.214015
0.125039
0.0539584
0.122605
0.482755
0.929183
1.14737
1.44182
1.81275
2.07319
2.29923
2.55231
2.75751
2.90508
2.99707
2.97595
2.72425
2.72585
2.64979
2.34956
2.57865
2.60341
2.77282
3.00057
3.28594
3.24738
2.95399
2.37191
1.66038
0.721491
0.556591
0.516965
0.619604
1.10721
1.15421
1.10607
1.06413
1.01481
0.959057
0.893381
0.837447
0.7688
0.702917
0.608813
0.492444
0.400555
0.330791
0.248679
0.193358
0.143523
0.102267
0.0948524
0.0779818
0.0597914
0.0425896
0.0319309
0.0235159
0.0184536
0.0130965
0.00997512
0.00766934
0.0061227
0.00479563
0.00385405
0.00349399
0.00337863
0.00322291
0.00311449
0.00399849
0.0212609
0.0216855
0.0128527
0.0410991
0.16156
0.169615
0.1493
0.185262
0.257443
0.270168
0.214014
0.123874
0.0599592
0.147804
0.532741
0.849064
1.03902
1.29804
1.64513
1.92756
2.20757
2.52991
2.82413
3.05728
3.2083
3.25681
3.13751
3.28361
2.90855
2.56794
2.90433
2.79576
2.83255
3.05184
3.27899
3.41926
3.64356
2.74859
1.9467
0.83539
0.624822
0.597401
0.619755
1.08958
1.12891
1.08177
1.04395
1.00088
0.94312
0.882285
0.82186
0.749362
0.677332
0.572238
0.486404
0.354545
0.316685
0.236335
0.183046
0.131117
0.0892349
0.0768553
0.0662403
0.0501168
0.0394142
0.0294767
0.02029
0.0158132
0.0110346
0.0085663
0.0066006
0.00534128
0.00422067
0.00348779
0.00321977
0.00314977
0.00297109
0.00291492
0.0039129
0.0204992
0.0228412
0.0140762
0.0388542
0.150644
0.174948
0.152018
0.185477
0.257406
0.270098
0.215656
0.12449
0.0715839
0.165573
0.548671
0.748162
0.968098
1.19771
1.53287
1.83131
2.15773
2.52741
2.86008
3.16647
3.3798
3.52094
3.72321
3.639
3.15433
3.02569
3.25062
3.09461
2.97503
2.91496
3.70506
4.05335
3.86305
3.10224
2.26149
0.981491
0.705109
0.695099
0.690412
1.07246
1.10823
1.0636
1.02467
0.987193
0.928102
0.862943
0.80288
0.730619
0.652407
0.559881
0.452754
0.330801
0.27632
0.201444
0.152385
0.123108
0.0725399
0.0640238
0.0539802
0.0414791
0.0330732
0.0248585
0.0176786
0.0131732
0.00918594
0.00721382
0.00555332
0.00455945
0.00372454
0.003163
0.00295577
0.00292954
0.00278158
0.00271922
0.00323488
0.0190209
0.0237452
0.0157181
0.0346304
0.120671
0.176926
0.154471
0.18585
0.257374
0.270552
0.214595
0.122277
0.0801421
0.194835
0.558096
0.655817
0.871239
1.08117
1.38828
1.6904
2.05515
2.46502
2.86516
3.24247
3.54606
3.81285
3.94053
3.87577
3.56631
3.7387
3.59451
3.34915
3.06188
2.98343
4.34932
4.83774
3.99001
3.67543
2.63349
1.20408
0.792806
0.794563
0.780115
1.05374
1.08286
1.04187
1.00952
0.973553
0.914238
0.849565
0.784169
0.708495
0.620921
0.508972
0.421444
0.313594
0.257212
0.185589
0.130997
0.0986002
0.0645835
0.0552239
0.0453017
0.0337563
0.0276728
0.0203576
0.0151608
0.0110191
0.00769088
0.00613047
0.00476216
0.00397062
0.00331132
0.0029031
0.00275449
0.00275224
0.00259566
0.00256324
0.00293088
0.0168793
0.0251169
0.0176006
0.0321956
0.10461
0.177401
0.156831
0.18577
0.257075
0.269955
0.215164
0.120562
0.0960534
0.22646
0.543135
0.556888
0.786588
0.983353
1.27269
1.5865
1.9778
2.4227
2.85727
3.29295
3.66918
4.04841
4.2459
4.17752
4.16037
4.01291
3.9792
3.77354
3.39479
3.51292
5.13163
5.62936
4.61121
3.96814
2.95374
1.48151
0.904983
0.859131
0.899309
1.03931
1.06408
1.02333
0.992839
0.957298
0.898786
0.832238
0.764307
0.685311
0.587002
0.48713
0.380214
0.295893
0.242973
0.173199
0.10957
0.0816251
0.0563916
0.0448349
0.0369768
0.027338
0.0219194
0.0167177
0.0119599
0.00902168
0.00640997
0.00517974
0.00404899
0.00344389
0.00298054
0.00268293
0.00257369
0.00259018
0.00245051
0.00242227
0.00261809
0.0149712
0.0254607
0.0197739
0.0302791
0.0827145
0.177988
0.161357
0.185889
0.256793
0.270187
0.213018
0.116692
0.110085
0.256128
0.50711
0.472378
0.699287
0.882831
1.14974
1.46793
1.86625
2.33616
2.80888
3.29607
3.77383
4.27723
4.52208
4.36679
4.94086
4.33105
4.51662
4.22778
3.92318
4.42348
6.19515
6.57915
5.41068
4.99956
3.22984
1.86814
1.06962
0.935929
0.870963
1.01936
1.04155
1.00569
0.977243
0.939758
0.881532
0.81404
0.745272
0.663371
0.579862
0.470553
0.363375
0.284243
0.213237
0.165094
0.0926116
0.0663801
0.0435979
0.0360495
0.0289326
0.0216975
0.0171408
0.0130033
0.00979758
0.00753626
0.0053897
0.00440884
0.00349252
0.00302796
0.00269144
0.00249262
0.00242285
0.00245148
0.00231257
0.00229434
0.00247319
0.0118341
0.0252399
0.0213076
0.0285457
0.0716423
0.167279
0.163245
0.185516
0.256653
0.270626
0.210158
0.11964
0.127089
0.275306
0.444928
0.39937
0.618069
0.792014
1.04178
1.35909
1.7639
2.24004
2.73504
3.28989
3.86216
4.48558
4.77504
4.47226
5.11978
4.96295
4.98872
4.83768
4.38234
4.40953
7.83148
7.7937
6.64971
5.23088
3.57515
2.39796
1.26325
1.07887
0.88518
1.0031
1.02093
0.986926
0.961162
0.922577
0.863533
0.796955
0.72241
0.634322
0.534392
0.414136
0.32639
0.257878
0.186038
0.135557
0.0840707
0.0567794
0.0353594
0.0279511
0.0213744
0.0164523
0.0131907
0.00991308
0.00779294
0.00625772
0.00458896
0.00376095
0.00302694
0.00268103
0.00245918
0.00232865
0.00228902
0.00232693
0.00219539
0.00216855
0.00229654
0.0084418
0.0225382
0.0227211
0.0272133
0.0612042
0.164237
0.167825
0.18619
0.256864
0.271982
0.208465
0.110207
0.142848
0.270669
0.364535
0.344068
0.54267
0.705248
0.936825
1.24359
1.64021
2.11045
2.65094
3.26155
3.90755
4.6842
4.76409
4.5625
5.68932
5.25658
5.31121
5.25365
4.88996
5.04637
7.67402
7.94713
6.54436
5.4846
3.96606
2.88958
1.53849
1.27361
0.865303
0.985945
0.999164
0.96606
0.940724
0.903517
0.846425
0.777708
0.699779
0.600214
0.493562
0.38036
0.317655
0.231009
0.178639
0.117986
0.0759571
0.0496635
0.0294028
0.021834
0.0163783
0.0123147
0.0102047
0.00771979
0.00627722
0.0052333
0.00395889
0.00325509
0.00266337
0.0024051
0.00225573
0.00217949
0.00217164
0.00221903
0.00208764
0.00205782
0.00218084
0.00577117
0.0177815
0.0237858
0.0278686
0.0526399
0.145512
0.171103
0.183329
0.256057
0.272152
0.19832
0.110544
0.147703
0.261796
0.311941
0.298784
0.47591
0.626735
0.841973
1.13339
1.51175
1.97762
2.52931
3.16462
3.89847
4.7391
4.73952
4.92827
6.22699
5.91448
5.58221
6.03588
5.18064
5.92148
8.21467
8.46216
7.00464
5.81521
4.399
3.3527
1.92644
1.47784
0.844757
0.967421
0.975976
0.943154
0.920391
0.882321
0.824994
0.757104
0.675783
0.561431
0.450707
0.367989
0.291079
0.216501
0.155509
0.111083
0.0687425
0.0475074
0.0240526
0.0169115
0.0122274
0.0091639
0.00771079
0.00608821
0.00506221
0.00440492
0.00343736
0.00284943
0.00237355
0.00218302
0.00208914
0.00204736
0.00206651
0.00212701
0.00199317
0.0019626
0.00205759
0.00391988
0.0139213
0.0204204
0.0270378
0.0489306
0.137872
0.172459
0.18395
0.256012
0.271923
0.191859
0.100868
0.153012
0.230323
0.257046
0.260145
0.417264
0.555658
0.754215
1.02428
1.38261
1.82252
2.37115
3.04008
3.83143
4.678
5.16445
5.59963
6.8191
6.46748
6.48682
6.40259
5.38317
7.57963
8.2413
8.51141
7.05995
5.89397
4.88891
3.73556
2.37267
1.76697
0.901627
0.948678
0.953762
0.920991
0.897221
0.861026
0.80529
0.73385
0.645887
0.539181
0.430201
0.336856
0.283895
0.200687
0.145141
0.094076
0.0626176
0.0388938
0.0192671
0.0130363
0.00932868
0.0070012
0.00602066
0.00479509
0.00410537
0.00373589
0.00303403
0.00253965
0.00214979
0.00200591
0.00194512
0.00192578
0.00197343
0.00205647
0.00191401
0.00188887
0.00194463
0.00294611
0.0105446
0.0188875
0.0268595
0.0467725
0.11997
0.17645
0.18337
0.253357
0.271401
0.178239
0.0926723
0.150318
0.20415
0.19827
0.233914
0.36629
0.492819
0.674671
0.922701
1.25737
1.67305
2.21308
2.89243
3.71995
4.60835
5.67133
6.30835
7.16935
7.24454
7.63618
6.84449
6.18343
7.7889
8.07817
8.28899
7.17176
6.08559
4.80513
3.9602
2.8478
2.07583
0.998043
0.927074
0.931289
0.900542
0.87407
0.836908
0.781101
0.707682
0.611946
0.526393
0.409985
0.321478
0.254952
0.197079
0.125023
0.0783784
0.0575136
0.0368248
0.0164256
0.0102054
0.00710697
0.00545643
0.00481806
0.00391649
0.00343616
0.00320983
0.00270125
0.00229481
0.00197749
0.00186539
0.00182619
0.00181726
0.00189094
0.00201607
0.00185066
0.0018356
0.00184272
0.0025279
0.00899848
0.0152761
0.0228922
0.0434619
0.107785
0.169848
0.18497
0.252095
0.267787
0.151311
0.0793462
0.142641
0.17977
0.152639
0.211112
0.322678
0.437557
0.60235
0.827583
1.13468
1.52221
2.04699
2.71167
3.54275
4.46507
5.5713
6.21208
7.41513
8.30142
7.48527
7.86534
7.07995
7.81729
7.75788
8.18314
7.0592
6.45699
4.73023
4.25729
3.28725
2.37411
1.14471
0.905188
0.909191
0.880859
0.852953
0.813727
0.756008
0.675347
0.59652
0.48434
0.401557
0.312383
0.229457
0.176709
0.122838
0.0701054
0.046358
0.0278399
0.0145951
0.00772925
0.00551589
0.00431444
0.00388053
0.00324447
0.0029162
0.00279339
0.00244668
0.00211213
0.0018488
0.00175608
0.0017265
0.00171904
0.00181987
0.00203266
0.00181221
0.00181457
0.00173618
0.00221965
0.00523872
0.0123444
0.0210375
0.037357
0.0938595
0.165895
0.186368
0.249901
0.26674
0.137283
0.0729418
0.136437
0.156094
0.114468
0.193949
0.28495
0.389108
0.537979
0.743119
1.02098
1.38106
1.87214
2.50329
3.31538
4.26892
5.35311
6.7363
7.94161
8.35546
7.25205
7.79372
6.97501
7.65636
7.75136
8.88822
7.67688
7.25209
5.32838
4.55381
3.76506
2.72345
1.13203
0.882336
0.884434
0.858358
0.828519
0.787768
0.72768
0.635914
0.547893
0.47253
0.363142
0.285147
0.216673
0.157846
0.104894
0.0545656
0.0387246
0.0219462
0.0120194
0.00602253
0.00437193
0.00356541
0.00325874
0.00279432
0.00258844
0.00249697
0.00226642
0.00198453
0.00176173
0.00167523
0.00164859
0.00163136
0.00175799
0.00208978
0.00183923
0.00186779
0.00162828
0.00199963
0.00327449
0.00960775
0.0187186
0.0341145
0.0834926
0.15707
0.190521
0.25265
0.255204
0.0979085
0.0597725
0.122764
0.125781
0.0703632
0.178908
0.252541
0.346727
0.481348
0.665046
0.912458
1.2443
1.69038
2.27583
3.04501
3.9862
5.1819
6.48574
7.71611
8.70264
7.41073
7.21907
8.03985
7.71503
8.38851
8.41233
7.85312
7.58301
6.22743
5.02034
4.09493
2.9492
1.25081
0.859936
0.858429
0.833478
0.803786
0.760049
0.695149
0.617927
0.506427
0.430713
0.346524
0.272457
0.203727
0.149101
0.106823
0.0455264
0.02807
0.0165471
0.00891424
0.00502843
0.00352976
0.00300653
0.00277447
0.00247408
0.00235659
0.00230074
0.00218517
0.00192659
0.00172505
0.00162451
0.00159497
0.00155424
0.00169315
0.00194634
0.0017119
0.00158223
0.00152778
0.00183223
0.00251186
0.00757897
0.0158867
0.0309251
0.0745727
0.140635
0.189935
0.262262
0.245472
0.0830464
0.0560303
0.113684
0.109353
0.0751066
0.164739
0.224374
0.309363
0.430929
0.595492
0.817118
1.11492
1.51642
2.05258
2.7653
3.70728
4.82998
6.27217
7.5957
9.19894
8.31964
7.27043
8.34045
8.60993
9.48818
9.08014
8.38406
6.8761
5.72872
4.95389
4.455
3.00146
1.3706
0.836419
0.833588
0.808261
0.775495
0.729376
0.653485
0.571801
0.483152
0.409064
0.333065
0.258928
0.193949
0.135814
0.0911098
0.0424097
0.0215274
0.0126921
0.00707865
0.00434208
0.00294391
0.00262967
0.00246449
0.00228145
0.0022595
0.00221594
0.0022664
0.00198414
0.001782
0.00162007
0.00158096
0.0014947
0.0016033
0.00167885
0.0015176
0.00147504
0.0014293
0.00164002
0.00200943
0.00531741
0.0126263
0.027661
0.0656508
0.135331
0.195546
0.276425
0.222806
0.0627289
0.0477047
0.102707
0.101186
0.102805
0.150032
0.20012
0.27599
0.385687
0.533056
0.72922
0.990844
1.34877
1.82875
2.49094
3.3508
4.47407
5.94564
7.39887
9.05927
10.7881
8.10813
8.57393
8.28004
9.52425
9.17468
9.45441
7.5522
6.46202
5.74051
4.62121
3.48627
1.57315
0.811173
0.805152
0.781002
0.748586
0.701809
0.617365
0.550591
0.456876
0.394691
0.308744
0.247808
0.190311
0.120377
0.0772783
0.0375724
0.017133
0.00988527
0.0054249
0.00360012
0.00256585
0.00233588
0.00224491
0.00220262
0.0023213
0.00230478
0.00261219
0.0022091
0.00198242
0.00171615
0.00164705
0.00146678
0.00152338
0.0015662
0.00144396
0.00139196
0.00133636
0.00149117
0.00171094
0.00302164
0.00935365
0.0251814
0.0592281
0.126903
0.201876
0.273381
0.203431
0.0515914
0.0437821
0.0965685
0.0919364
0.0909499
0.130205
0.17729
0.245207
0.344101
0.476356
0.649278
0.880597
1.19475
1.61935
2.20346
2.99668
4.04653
5.47381
7.04277
8.93059
9.10896
8.37349
7.88477
8.68704
9.36658
9.52254
9.91992
8.90983
7.88197
5.90095
4.85749
3.98364
1.47366
0.785396
0.775191
0.751226
0.716894
0.668709
0.589129
0.528471
0.431407
0.357142
0.291487
0.239378
0.170343
0.10085
0.0633809
0.0353253
0.0155288
0.00748415
0.0044319
0.00305508
0.00232036
0.00213655
0.00213809
0.00228971
0.00259928
0.00259736
0.00260416
0.00192895
0.00172461
0.00191446
0.00171277
0.00149149
0.00149202
0.00146621
0.00134914
0.00131577
0.00126944
0.00135816
0.00150576
0.00216994
0.00658463
0.0207606
0.0488485
0.120089
0.208191
0.305584
0.181502
0.0431038
0.0398533
0.0905965
0.085382
0.0860838
0.111328
0.15538
0.216037
0.305101
0.423264
0.575216
0.777302
1.04928
1.41769
1.92916
2.63519
3.60183
4.94421
6.49075
8.25151
9.63291
10.9685
9.09594
10.2172
9.19875
10.7919
11.2619
8.28971
6.7972
6.21721
4.9286
3.93454
1.4334
0.759573
0.746934
0.720071
0.686277
0.633276
0.561841
0.495529
0.412555
0.335869
0.268807
0.225188
0.169732
0.0817707
0.0538933
0.0318734
0.0147395
0.0061896
0.00381295
0.00279788
0.00214859
0.00200332
0.00213924
0.00255542
0.00220368
0.0022264
0.00254598
0.00226043
0.0019724
0.00163328
0.00159896
0.00158892
0.00138264
0.00138303
0.00129554
0.00125215
0.00120165
0.00123067
0.00131433
0.00170513
0.00464251
0.0171611
0.0416656
0.116714
0.209792
0.301984
0.168455
0.0387955
0.0384521
0.0877619
0.0837859
0.0727825
0.0932135
0.133821
0.187913
0.266908
0.372438
0.506379
0.682259
0.915925
1.23268
1.67086
2.27839
3.12424
4.33116
5.75088
7.39538
8.90078
9.74372
9.88493
9.1232
8.33196
9.98383
9.67097
7.62511
5.95329
4.82287
4.50635
3.57259
1.55669
0.731409
0.716956
0.687689
0.652524
0.6035
0.535411
0.483727
0.390704
0.320092
0.246749
0.205843
0.150875
0.0765202
0.0514097
0.0287952
0.0151119
0.00579129
0.00356393
0.00260948
0.00203035
0.00196081
0.00231713
0.00218974
0.00269134
0.00250289
0.00239623
0.00214904
0.00189273
0.00185657
0.00157549
0.00136842
0.00134766
0.00131651
0.00123548
0.00119467
0.00114029
0.00112743
0.0011876
0.00138996
0.00321156
0.0136856
0.0299527
0.0976223
0.201677
0.310715
0.157949
0.0345409
0.0374109
0.0832659
0.0773319
0.0600423
0.0755633
0.112937
0.16068
0.228854
0.322829
0.437167
0.590437
0.795741
1.08343
1.46899
1.95197
2.63269
3.69711
4.82724
6.29593
7.51462
8.80108
8.76695
9.45483
9.27389
9.58053
8.12542
6.37927
5.35756
4.77221
4.36771
3.03391
1.48283
0.700947
0.680717
0.652444
0.618488
0.585382
0.51356
0.448121
0.374329
0.311717
0.22907
0.185819
0.135078
0.0698731
0.0423502
0.0253302
0.0118122
0.00538948
0.00328148
0.0024428
0.00195036
0.00203386
0.00246766
0.00259718
0.00249521
0.00235246
0.00229477
0.00203363
0.0017453
0.00172843
0.00147488
0.00146394
0.00123067
0.0012611
0.0011899
0.00113793
0.00107522
0.00104278
0.00106602
0.00110726
0.00202548
0.0101674
0.0273841
0.0894774
0.182474
0.320644
0.141883
0.0320855
0.0365018
0.0786983
0.0934295
0.0495261
0.0583155
0.0935191
0.134853
0.188362
0.270027
0.335145
0.478835
0.706027
0.926858
1.28557
1.76253
2.27016
3.19972
3.90138
5.14583
6.15639
7.38721
7.97361
8.36705
7.87477
7.93594
7.18786
5.89305
4.79513
3.96579
3.35939
2.78733
1.53473
0.667507
0.639198
0.616071
0.591438
0.54448
0.471115
0.409708
0.354624
0.277077
0.192454
0.158087
0.116909
0.065454
0.0354206
0.0250218
0.0121802
0.00506085
0.00296212
0.00227575
0.00198374
0.00223193
0.00204396
0.00239243
0.00231182
0.00220652
0.00209228
0.00190438
0.00151701
0.00161021
0.00152206
0.00139672
0.00119594
0.00118309
0.0011385
0.00108167
0.0010078
0.000965575
0.000961083
0.000902762
0.0013539
0.00730396
0.0275074
0.0841893
0.174125
0.355741
0.140625
0.0309587
0.0362125
0.075212
0.100534
0.0408989
0.0465831
0.0776732
0.110259
0.138331
0.176526
0.257888
0.406694
0.568126
0.814871
1.08373
1.46703
2.00164
2.53989
3.54813
4.42012
5.39286
6.82342
8.12982
7.91646
7.56428
7.06208
5.85881
5.34209
5.12051
3.82197
3.03519
2.52676
1.85105
0.635959
0.603895
0.582037
0.552997
0.516283
0.44567
0.380345
0.31402
0.254297
0.168275
0.135025
0.0955441
0.0627309
0.0320133
0.0207337
0.00973249
0.00473982
0.00270007
0.00212508
0.00215973
0.00191192
0.00230857
0.00219705
0.0020528
0.002028
0.00191698
0.00174361
0.00145943
0.00136747
0.00144324
0.00135935
0.00118277
0.00112917
0.0010773
0.0010253
0.000948398
0.000903991
0.000874511
0.000783757
0.00102351
0.00527811
0.0231895
0.0777908
0.158305
0.304012
0.116258
0.0290404
0.0359144
0.0720521
0.148748
0.037283
0.0455194
0.0654093
0.0816194
0.12359
0.122077
0.206913
0.308182
0.477247
0.74254
1.12293
1.37845
1.93092
2.53549
3.28301
4.21738
5.27783
6.52619
7.50811
7.98233
7.281
5.4872
4.49239
4.04022
4.35437
4.00306
3.0474
2.09618
1.56403
0.606353
0.5829
0.549829
0.526685
0.480964
0.422676
0.349607
0.280019
0.222911
0.155621
0.11753
0.0741783
0.0476355
0.0289388
0.0161019
0.00945385
0.00452614
0.00255739
0.00200628
0.00212188
0.00216052
0.00206508
0.00181985
0.00183486
0.00181116
0.00171967
0.00154074
0.00144145
0.00139798
0.00124724
0.00130995
0.0012257
0.00109034
0.00102833
0.000984781
0.000904591
0.000869262
0.000817712
0.000732457
0.000815759
0.00378709
0.0176962
0.0667515
0.138012
0.307596
0.114016
0.0286325
0.0356033
0.0668678
0.0316138
0.0355279
0.0503344
0.0516278
0.0648241
0.0978112
0.0959179
0.153303
0.256738
0.448408
0.607474
0.902344
1.26623
1.74916
2.32945
3.03554
3.81743
4.69555
5.8705
7.16532
7.12315
6.61763
4.46834
3.51165
3.13128
3.68423
3.09501
3.05987
1.93515
1.61858
0.571288
0.543628
0.518294
0.497282
0.453265
0.410248
0.327936
0.237542
0.182388
0.138444
0.0903389
0.0565721
0.0368519
0.0217485
0.0129893
0.00746417
0.00442379
0.00235863
0.00189775
0.00170282
0.00194958
0.00191597
0.00170563
0.00152212
0.00156989
0.00149446
0.00146108
0.0013067
0.00128065
0.00122238
0.00123228
0.00117961
0.00113223
0.00101741
0.000998485
0.000898201
0.000886528
0.000818552
0.00074079
0.000711433
0.00268308
0.0137033
0.0524388
0.144952
0.376057
0.117238
0.0286008
0.0358902
0.0686205
0.0340956
0.031071
0.0361965
0.0388524
0.0530689
0.0796026
0.103508
0.155434
0.273666
0.367045
0.633486
0.853394
1.16313
1.56682
2.07313
2.67053
3.38543
4.23927
5.1413
6.76536
6.66231
5.71733
3.41202
2.53702
2.36322
3.09809
2.7067
2.68817
1.94967
1.67894
0.539302
0.518378
0.496477
0.467584
0.433492
0.379756
0.31234
0.217567
0.149522
0.107239
0.06851
0.0426608
0.0276145
0.0172947
0.0104235
0.00608052
0.00371747
0.00226066
0.00192206
0.00194647
0.00160502
0.00157597
0.00147968
0.00150662
0.00128471
0.00140031
0.00132748
0.00115758
0.00116864
0.00119064
0.00111616
0.00105944
0.00108044
0.000996509
0.00103517
0.00095027
0.000780219
0.000694053
0.000667531
0.00062543
0.00189162
0.0096228
0.0382827
0.112739
0.336507
0.119507
0.0287522
0.0350902
0.0794304
0.0357728
0.0292967
0.028576
0.0310588
0.0436022
0.0577653
0.101083
0.176252
0.248984
0.346267
0.538423
0.791202
1.11024
1.64213
2.03346
2.54733
3.34325
4.04551
5.46808
7.2278
6.17616
4.91327
2.42783
1.82157
1.79799
2.54061
2.37374
2.60165
1.75278
1.42136
0.518574
0.497061
0.464245
0.433238
0.407296
0.370469
0.287883
0.202955
0.130992
0.0852649
0.0525121
0.0332651
0.0218017
0.0139048
0.00854274
0.00511415
0.00330665
0.00212194
0.00191439
0.00189565
0.00172718
0.00148224
0.00143894
0.00127716
0.00123669
0.00128134
0.00121162
0.000992955
0.00103753
0.00113019
0.00109471
0.00104185
0.00100052
0.00102562
0.000965629
0.000892809
0.000795237
0.000678471
0.000560141
0.00051379
0.00138804
0.00666052
0.0206872
0.0772647
0.268066
0.121026
0.0286535
0.037651
0.0979887
0.0377396
0.0255163
0.0212736
0.0267113
0.0370675
0.0518836
0.0963671
0.158482
0.236946
0.367382
0.492189
0.753023
1.1571
1.50791
2.03535
2.49238
3.07032
3.67923
5.5041
6.82086
5.94091
3.91621
1.67885
1.29324
1.35854
2.11781
2.02907
1.98856
1.54475
1.33348
0.485954
0.46763
0.435517
0.409219
0.376546
0.345044
0.291742
0.201882
0.109208
0.0669511
0.0391191
0.0257037
0.017476
0.0116181
0.0070961
0.00430385
0.00288634
0.0020528
0.00190955
0.00166972
0.00143473
0.00141638
0.00136279
0.00127493
0.00118078
0.00122749
0.00120713
0.000997968
0.00100284
0.00109626
0.00102937
0.000976313
0.000877396
0.000961306
0.000897613
0.000888634
0.000821959
0.000661331
0.000549859
0.000415014
0.000862093
0.00502637
0.0139295
0.0375007
0.185889
0.121527
0.0289821
0.0368171
0.147741
0.0329635
0.0195611
0.0162709
0.0231664
0.0326828
0.0512688
0.0979701
0.167314
0.259335
0.40023
0.504247
0.780208
1.17861
1.43479
2.20827
2.69551
3.5977
4.36485
6.12036
7.31671
6.17628
2.74413
1.20442
0.933764
1.05158
1.72964
1.78404
1.85527
1.37844
1.45867
0.46832
0.447943
0.418151
0.382137
0.350807
0.314468
0.25656
0.171335
0.0995937
0.0564684
0.0332547
0.0208443
0.0148384
0.00994108
0.00602076
0.00376227
0.00257107
0.001962
0.00168332
0.00146381
0.0014257
0.00111473
0.00128579
0.00124337
0.00131229
0.00113766
0.00125472
0.00120105
0.000933995
0.00103107
0.0010002
0.00102877
0.000882329
0.00089465
0.000816269
0.000827777
0.000782544
0.000617657
0.00050005
0.000377662
0.000547238
0.00390526
0.0108611
0.0203287
0.081719
0.107431
0.0292702
0.0372212
0.106861
0.022904
0.0127451
0.0119757
0.0185221
0.0273232
0.048503
0.105355
0.172904
0.255868
0.333765
0.542076
0.819698
1.01142
1.39626
1.94827
2.58332
3.31878
4.97626
6.9432
7.26033
6.24939
1.79226
0.877615
0.695256
0.797131
1.42462
1.51813
1.7323
1.35485
1.31713