/*--------------------------------*- C++ -*----------------------------------*\
| =========                 |                                                 |
| \\      /  F ield         | OpenFOAM: The Open Source CFD Toolbox           |
|  \\    /   O peration     | Version:  4.1                                   |
|   \\  /    A nd           | Web:      www.OpenFOAM.org                      |
|    \\/     M anipulation  |                                                 |
\*---------------------------------------------------------------------------*/
FoamFile
{
    version     2.0;
    format      ascii;
    class       volScalarField;
    location    "2";
    object      p;
}
// * * * * * * * * * * * * * * * * * * * * * * * * * * * * * * * * * * * * * //

dimensions      [0 2 -2 0 0 0 0];

internalField   nonuniform List<scalar> 
6785
(
599.175
534.53
483.035
433.169
386.898
343.464
302.707
264.377
228.245
193.818
160.899
130.756
102.513
68.582
36.7796
56.5248
38.3253
40.654
35.7782
31.8481
27.86
24.2925
21.3879
19.3567
18.2833
18.1229
19.3407
22.6872
25.6269
25.7203
-5.26485
-11.556
-2.06369
-2.88211
0.143451
2.28707
4.56604
6.69548
8.6818
10.5067
12.0637
13.1709
13.812
14.8816
16.7086
44.7193
42.4092
47.506
44.0236
44.7456
43.4815
42.5597
41.4577
40.3665
39.3249
38.3902
37.6174
37.1868
37.7628
39.8568
55.5708
54.0551
57.6698
54.6926
56.5983
56.2812
56.6923
57.1418
57.711
58.438
59.3325
60.4134
61.7251
62.9191
64.3141
62.2857
61.9196
65.083
63.3824
65.7968
66.0283
67.0723
67.9723
68.8625
69.7382
70.6127
71.4835
72.4236
73.1031
73.7715
73.1607
73.4404
75.7891
74.3689
76.2759
76.0004
76.7149
77.0226
77.3671
77.6067
77.8276
78.0542
78.3508
78.5841
78.7996
79.641
79.6369
81.1787
79.7128
81.0721
80.4052
80.855
80.7275
80.7145
80.493
80.2485
80.0257
79.8859
79.8542
79.6514
78.6079
77.9025
78.7589
77.1681
77.9748
76.9908
77.1067
76.5636
76.1671
75.4866
74.8156
74.2045
73.6649
73.1205
72.2776
68.439
67.2715
67.3682
65.6879
65.8361
64.5034
64.1752
63.2637
62.6162
61.8215
61.1413
60.4897
59.7025
58.7241
57.6944
53.9104
52.7988
52.515
50.9839
50.7321
49.332
48.7276
47.6918
46.9289
46.1742
45.5775
45.0427
44.4006
43.8066
43.5983
43.3154
42.9036
42.7708
41.691
41.5904
40.5819
40.1701
39.4625
38.9629
38.5467
38.2676
38.0908
37.9849
38.0929
38.6649
45.0282
45.208
45.2372
44.5714
44.5998
43.9401
43.6809
43.2699
42.9804
42.7814
42.6977
42.7251
42.9065
43.2078
43.7761
50.0706
51.0388
50.6218
49.6966
49.4176
48.982
48.9672
48.7866
48.628
48.4553
48.3172
48.2391
48.2998
48.4213
48.8308
73.5945
72.6673
69.6711
66.704
65.6745
65.052
64.0801
62.5829
60.8206
59.0598
57.4126
55.9973
54.8708
54.0976
53.424
37.8581
38.0311
37.9582
37.986
37.9799
38.0976
37.9988
37.98
37.9678
38.0406
37.9673
37.8677
38.0146
37.876
37.7778
37.7483
37.8172
37.7507
37.5911
37.7222
37.6085
37.4717
37.4164
37.4835
37.4121
37.2735
37.2147
37.2571
37.2325
37.0589
37.164
37.0907
36.9588
36.9092
36.9388
36.9355
36.7845
36.8863
36.831
36.7254
36.6869
36.7425
36.7166
36.6315
36.6128
36.6471
36.6701
36.5523
36.6983
36.6493
36.5713
36.5875
36.6913
36.6215
36.5266
36.5418
36.5706
36.6411
36.5574
36.6761
37.0873
37.037
37.1553
37.1392
37.9141
37.9504
37.9401
38.7659
38.6925
38.9526
39.3307
38.6135
37.6935
38.2995
39.0918
32.8253
35.1035
36.214
18.1853
22.5048
25.9576
26.4837
27.9809
17.1435
27.8195
31.1714
32.0856
32.7724
33.1671
34.1498
36.6089
38.3013
31.8401
36.1961
37.5175
40.6866
43.5413
44.9373
47.1101
50.1167
51.7987
46.4455
52.5861
54.6644
56.6004
58.9399
61.9463
64.1796
66.1806
69.3079
69.6179
64.8653
70.4322
72.3251
74.1837
75.7178
77.5802
79.8644
81.8344
80.6389
76.4133
81.3168
83.3783
84.7391
85.1514
85.2954
85.6528
86.6337
85.219
87.482
85.765
84.619
85.2211
85.2632
83.7846
82.0158
78.924
75.5504
86.3566
80.3188
75.6997
72.0618
67.9684
64.8071
61.786
58.5236
54.5095
50.8147
52.2391
51.7897
47.7822
46.4286
44.8926
41.6712
36.5336
35.4373
36.9921
30.6908
39.7728
38.0005
36.3644
40.1396
36.4025
37.3968
36.8386
38.5999
40.2821
36.7373
39.0739
40.6935
37.8044
38.2338
37.5659
38.9222
40.6565
37.8387
38.234
37.6185
38.8
40.029
37.1426
38.8154
40.0078
37.8016
38.0356
37.542
38.3328
39.5415
37.6807
37.8702
37.4869
38.0096
38.7477
37.1854
37.894
38.4303
37.4403
37.4856
37.2362
37.3696
37.7134
37.0943
37.0812
36.8786
36.835
36.8655
36.514
36.4548
36.3251
36.1211
35.9683
35.6896
35.4306
35.0508
34.6606
33.9656
33.1306
32.3468
31.3276
30.7545
29.4939
27.9497
27.5196
25.8049
24.1338
22.9409
21.2935
21.2865
18.8302
16.7329
15.4111
13.6058
14.0942
11.1875
7.9732
9.07855
5.79624
3.00448
1.31782
-0.503099
0.0200712
0.0417907
0.0662334
0.0868843
0.11022
0.133358
0.15842
0.183989
0.210739
0.237528
0.263916
0.289964
0.315065
0.337701
0.357425
0.375272
0.386848
0.392179
0.392803
0.391094
0.383046
0.368012
0.345176
0.312373
0.272356
0.225168
0.16929
0.105343
0.0307369
-0.0666617
-0.147823
-0.245005
-0.332359
-0.315312
-0.204421
0.136314
3.63962
-7.30725
-11.5716
-16.1199
-27.4711
-49.76
-64.7766
-77.9489
-70.1832
-67.4012
-81.7139
-81.7819
-96.0278
-96.6388
-55.182
-11.8217
-9.90878
-7.74814
-4.53675
-3.7473
-2.44893
-1.35307
-0.571229
0.041062
0.51662
0.869694
1.11505
1.29078
1.41275
1.40324
1.34904
1.39868
1.46931
1.45294
1.33587
1.27915
1.29531
1.42011
1.45153
0.751451
1.03505
0.795171
1.36257
0.0634886
0.126445
0.199458
0.261704
0.33105
0.399869
0.473668
0.549105
0.627535
0.707079
0.787177
0.86536
0.937396
1.00181
1.06027
1.11041
1.13943
1.15471
1.1539
1.13943
1.11592
1.08051
1.02314
0.946483
0.850254
0.735677
0.597626
0.42841
0.23497
-0.0122419
-0.228251
-0.477885
-0.787701
-0.793644
-0.597418
0.241314
7.13507
-9.91907
-24.3554
-37.3801
-55.8131
-99.214
-130.933
-160.151
-151.293
-162.153
-173.586
-178.362
-206.536
-201.868
-119.35
-36.6953
-27.7064
-19.6968
-10.7208
-9.30544
-6.44797
-3.82804
-1.85987
-0.224379
1.11029
2.14056
2.89043
3.44059
3.84467
3.98933
4.0875
4.29815
4.29218
4.01031
3.6359
3.47631
3.41527
3.6236
3.85797
2.71
2.66925
2.48523
3.88849
0.106567
0.211164
0.33547
0.440753
0.557481
0.673192
0.79705
0.923621
1.0553
1.18877
1.3225
1.45281
1.57392
1.68295
1.77992
1.86385
1.91406
1.93959
1.93897
1.91794
1.87857
1.81405
1.71453
1.57858
1.40891
1.20692
0.964691
0.674117
0.337287
-0.0931789
-0.474971
-0.93917
-1.44707
-1.52143
-1.16063
0.483358
7.70459
-9.52453
-28.8792
-46.832
-65.2475
-113.041
-148.359
-183.378
-173.449
-195.992
-202.324
-215.319
-256.526
-258.838
-166.475
-68.4295
-51.4402
-36.3075
-20.228
-16.8565
-11.5989
-6.81379
-3.25156
-0.378575
1.92109
3.67337
4.93526
5.86006
6.52166
6.75115
6.88843
7.20532
7.20129
6.76224
6.1377
5.86064
5.76357
6.10622
6.31537
4.93839
4.58189
4.40932
6.44778
0.143546
0.288421
0.464092
0.612821
0.776883
0.939377
1.11285
1.29019
1.47448
1.66129
1.84855
2.03066
2.1996
2.35218
2.48762
2.60386
2.67528
2.71146
2.71198
2.68392
2.62987
2.53895
2.40046
2.21112
1.97426
1.69141
1.35158
0.944415
0.468928
-0.135301
-0.683202
-1.36937
-2.09736
-2.27908
-1.88332
0.304185
6.71426
-11.184
-33.9849
-56.3306
-76.4756
-129.291
-167.917
-207.804
-194.415
-225.515
-229.919
-250.364
-307.265
-321.874
-222.705
-105.984
-77.3146
-53.382
-29.8065
-24.3476
-16.8226
-9.92329
-4.77549
-0.674567
2.58538
5.06093
6.8442
8.15344
9.0863
9.47182
9.72864
10.1466
10.0683
9.40557
8.52207
8.11139
7.9303
8.33404
8.55838
7.00501
6.41709
6.32891
8.79397
0.176837
0.361688
0.588824
0.781372
0.992855
1.20242
1.42557
1.65382
1.89071
2.13086
2.37147
2.60525
2.82217
3.01914
3.1934
3.34165
3.43602
3.48356
3.48656
3.45311
3.38438
3.26612
3.08804
2.84413
2.53914
2.17431
1.73517
1.21072
0.593109
-0.187737
-0.913673
-1.84641
-2.80305
-3.14321
-2.7779
-0.357732
4.94651
-14.7572
-41.9452
-69.7132
-94.5105
-157.402
-203.162
-250.037
-232.254
-271.726
-274.408
-300.902
-376.071
-403.718
-293.32
-150.997
-106.866
-72.2721
-40.5841
-32.5272
-22.5289
-13.3287
-6.44783
-1.03844
3.2224
6.44072
8.75616
10.4566
11.6617
12.2229
12.6031
13.0942
12.9252
12.045
10.9021
10.3302
10.0437
10.4718
10.6717
9.06822
8.16273
8.23
11.1322
0.206474
0.430956
0.708932
0.945509
1.20428
1.46106
1.73372
2.01282
2.30203
2.5953
2.88905
3.17431
3.43903
3.68073
3.89409
4.07385
4.19198
4.25138
4.25791
4.21983
4.13685
3.99228
3.77516
3.47767
3.1059
2.66052
2.12371
1.48323
0.723218
-0.23265
-1.14621
-2.34465
-3.54429
-4.10451
-3.86447
-1.53268
2.8001
-18.4706
-50.5854
-84.4545
-114.165
-187.974
-241.714
-295.815
-272.675
-321.337
-321.264
-354.87
-453.905
-499.831
-377.6
-203.99
-139.903
-92.5725
-52.263
-41.2295
-28.6346
-17.0075
-8.28219
-1.50302
3.789
7.76579
10.6253
12.7249
14.2097
14.9793
15.5034
16.0475
15.762
14.6503
13.2407
12.4789
12.0576
12.4717
12.6445
11.1188
10.1316
10.2729
13.3772
0.233266
0.497198
0.825159
1.10593
1.41189
1.71596
2.03803
2.36792
2.70926
3.05548
3.40212
3.73867
4.05151
4.33842
4.59115
4.80252
4.94542
5.01748
5.02832
4.98672
4.89016
4.71973
4.46368
4.11317
3.6748
3.14907
2.51558
1.75989
0.8567
-0.273983
-1.38721
-2.87078
-4.33033
-5.18376
-5.16751
-3.25209
0.228061
-22.1012
-59.0809
-99.352
-133.767
-217.553
-278.553
-339.116
-309.229
-367.29
-363.98
-406.15
-536.247
-609.806
-476.181
-266.122
-176.896
-114.499
-65.0727
-50.6396
-35.2481
-21.0139
-10.2968
-2.0643
4.30024
9.05577
12.4727
14.9788
16.7493
17.7481
18.4234
19
18.5844
17.2381
15.5523
14.5678
13.9875
14.3558
14.5018
13.1492
12.2405
12.4042
15.6071
0.257577
0.560826
0.937696
1.26267
1.61577
1.96705
2.3384
2.71889
3.11215
3.51113
3.91047
4.29815
4.65925
4.9917
5.28415
5.52756
5.69571
5.78157
5.79687
5.75277
5.64373
5.44809
5.15369
4.75097
4.24646
3.64087
2.91208
2.04233
0.995993
-0.308811
-1.63416
-3.42042
-5.16175
-6.38413
-6.73557
-5.47753
-2.98546
-26.273
-68.0633
-115.078
-154.973
-248.547
-316.319
-382.561
-344.393
-411.37
-404.762
-456.047
-624.718
-736.976
-590.506
-338.58
-218.145
-138.075
-79.0909
-60.8498
-42.4273
-25.3807
-12.5099
-2.7318
4.75035
10.3066
14.2949
17.2156
19.2788
20.5242
21.3585
21.9529
21.3964
19.808
17.8315
16.5902
15.8272
16.1241
16.2523
15.1152
14.2322
14.4977
17.8002
0.279887
0.622387
1.04696
1.41605
1.81616
2.21454
2.63498
3.06587
3.51085
3.96235
4.41427
4.85299
5.26246
5.64083
5.97338
6.24968
6.44307
6.54417
6.56409
6.51835
6.39776
6.17788
5.84586
5.39104
4.82108
4.13637
3.31356
2.33116
1.14225
-0.336225
-1.88675
-3.99189
-6.04153
-7.71205
-8.59277
-8.17598
-6.95954
-31.3763
-78.1371
-132.431
-179.169
-283.095
-357.454
-428.384
-380.239
-455.231
-445.331
-505.937
-721.493
-884.726
-721.955
-422.831
-264.098
-163.418
-94.4876
-72.0244
-50.2698
-30.1561
-14.9421
-3.51116
5.14067
11.5225
16.0966
19.4404
21.8041
23.3068
24.307
24.9096
24.2058
22.3664
20.0789
18.5425
17.5757
17.7826
17.8985
17.0033
16.1951
16.6118
19.9289
0.300548
0.682196
1.15324
1.56626
2.01317
2.45851
2.92781
3.40887
3.90536
4.40912
4.91347
5.40316
5.86126
6.286
6.65912
6.96935
7.18785
7.30512
7.33082
7.28405
7.15236
6.90966
6.54039
6.03328
5.3986
4.63587
3.72044
2.62714
1.29708
-0.354641
-2.14328
-4.58161
-6.9708
-9.17173
-10.7509
-11.3529
-11.7434
-37.5377
-89.547
-151.809
-206.79
-321.876
-402.724
-476.978
-416.982
-498.749
-485.6
-555.769
-827.752
-1056.34
-872.593
-520.603
-315.256
-190.637
-111.453
-84.352
-58.8851
-35.3914
-17.6153
-4.40982
5.47001
12.705
17.8799
21.6556
24.3286
26.0947
27.2695
27.8765
27.022
24.9197
22.293
20.4198
19.2285
19.3319
19.4417
18.7933
18.1866
18.7715
22.0337
0.319822
0.740511
1.2568
1.71355
2.20699
2.69907
3.21698
3.74791
4.29566
4.85143
5.40797
5.94843
6.4558
6.92749
7.34179
7.68688
7.93088
8.06456
8.09822
8.05102
7.90836
7.64403
7.23772
6.67814
5.97906
5.13928
4.13297
2.93096
1.46197
-0.362659
-2.40188
-5.18637
-7.95015
-10.7651
-13.2174
-14.9884
-17.357
-44.8398
-102.41
-173.42
-237.975
-365.122
-452.412
-528.311
-454.508
-541.38
-525.192
-604.882
-944.229
-1255.26
-1044.39
-633.998
-372.22
-219.885
-130.245
-98.076
-68.4098
-41.1472
-20.5538
-5.43519
5.73789
13.8563
19.648
23.864
26.8561
28.8888
30.2486
30.8612
29.8549
27.476
24.4736
22.218
20.7802
20.7705
20.882
20.4782
20.1149
20.8953
24.0929
0.337903
0.797557
1.35786
1.85814
2.39767
2.93629
3.50247
4.083
4.68169
5.2892
5.89751
6.48856
7.04623
7.56521
8.02159
8.40218
8.67271
8.82314
8.86657
8.81992
8.66689
8.38146
7.93833
7.32614
6.56264
5.64658
4.55147
3.24333
1.63835
-0.35887
-2.66031
-5.80296
-8.97855
-12.4923
-15.9869
-19.0257
-23.7611
-53.3471
-116.855
-197.488
-273.005
-413.204
-506.882
-582.355
-492.755
-582.453
-563.773
-652.212
-1071.55
-1485.2
-1240.06
-765.362
-435.681
-251.377
-151.2
-113.501
-79.0082
-47.4925
-23.7835
-6.59498
5.94377
14.9783
21.4038
26.0688
29.39
31.6918
33.2474
33.8725
32.7142
30.0424
26.6206
23.9315
22.2228
22.0946
22.2173
22.0484
21.9244
22.9413
26.0444
0.354988
0.853471
1.45664
2.00021
2.58529
3.17015
3.78426
4.41409
5.06337
5.72228
6.38189
7.02371
7.63273
8.19918
8.69871
9.11526
9.41369
9.5819
9.63567
9.59084
9.42879
9.12209
8.64256
7.97775
7.14958
6.15797
4.97629
3.56502
1.82761
-0.341985
-2.91624
-6.42842
-10.0546
-14.3549
-19.0514
-23.339
-30.8398
-63.159
-133.047
-224.331
-312.417
-466.82
-566.723
-639.117
-531.661
-621.108
-600.921
-696.335
-1210.38
-1751.69
-1465.1
-917.469
-506.435
-285.447
-174.773
-131.011
-90.8792
-54.5066
-27.333
-7.89739
6.08701
16.0728
23.15
28.2743
31.9346
34.5084
36.2701
36.9192
35.6092
32.625
28.732
25.5531
23.5472
23.2993
23.447
23.4957
23.6209
24.8821
27.8635
0.371274
0.908347
1.55335
2.13987
2.76992
3.4007
4.06234
4.74114
5.44067
6.15057
6.86116
7.55424
8.21528
8.82979
9.37339
9.82644
10.154
10.3415
10.4059
10.3642
10.1943
9.86591
9.35054
8.63328
7.74005
6.67364
5.40766
3.89672
2.03102
-0.310889
-3.16749
-7.06019
-11.179
-16.3579
-22.3908
-27.9647
-38.4569
-74.2865
-151.137
-254.403
-357.067
-527.084
-632.877
-698.805
-571.339
-656.487
-636.235
-735.657
-1361.39
-2059.9
-1724.95
-1093.91
-585.408
-322.612
-201.581
-151.092
-104.261
-62.2797
-31.2333
-9.35103
6.16696
17.1417
24.8893
30.4854
34.4959
37.3446
39.3212
40.0106
38.5503
35.2308
30.8063
27.0747
24.744
24.3791
24.5692
24.8186
25.1974
26.6662
29.5179
0.386899
0.962277
1.64811
2.27718
2.95161
3.62792
4.33671
5.06412
5.8135
6.57404
7.33548
8.08035
8.79362
9.45731
10.0458
10.5361
10.8936
11.1022
11.178
11.1409
10.9636
10.6133
10.0624
9.29273
8.33386
7.19339
5.84546
4.23892
2.24959
-0.264829
-3.41224
-7.6964
-12.3543
-18.5069
-25.9841
-33.1385
-46.7442
-86.6442
-171.208
-288.25
-408.168
-595.615
-706.706
-761.872
-612.141
-687.807
-669.419
-768.427
-1525.21
-2416
-2027.67
-1298.53
-673.72
-363.669
-232.465
-174.353
-119.438
-70.9137
-35.5181
-10.9653
6.18272
18.1861
26.6249
32.7069
37.0803
40.2077
42.406
43.1551
41.5485
37.8684
32.842
28.487
25.8024
25.3275
25.5803
26.0212
26.6385
28.264
30.9644
0.401936
1.01532
1.74099
2.41218
3.13038
3.85181
4.60735
5.38298
6.18176
6.99264
7.80492
8.60197
9.36765
10.0816
10.7159
11.2446
11.6328
11.8639
11.9527
11.9215
11.737
11.365
10.7785
9.95576
8.93059
7.71672
6.28939
4.59183
2.48385
-0.203647
-3.64949
-8.33678
-13.5856
-20.8037
-29.8241
-38.9288
-55.9618
-100.36
-193.516
-326.41
-467.222
-674.476
-789.919
-828.892
-654.489
-714.219
-700.144
-792.543
-1702.15
-2828.63
-2385.5
-1535.84
-772.672
-409.825
-268.569
-201.56
-136.744
-80.5218
-40.2228
-12.7499
6.13327
19.2071
28.3581
34.9412
39.6933
43.1057
45.5294
46.3601
44.6156
40.5471
34.8382
29.7793
26.7113
26.1379
26.4777
27.1073
27.9433
29.6368
32.1772
0.416447
1.06753
1.83206
2.54492
3.30627
4.07237
4.87423
5.69759
6.54534
7.40629
8.26944
9.11896
9.93762
10.7028
11.3835
11.9518
12.3721
12.6272
12.7304
12.7059
12.5148
12.1215
11.4987
10.622
9.52986
8.24297
6.73898
4.95532
2.73376
-0.128009
-3.87943
-8.98327
-14.8812
-23.2508
-33.9061
-45.3304
-66.0091
-115.362
-218.441
-369.38
-535.809
-766.059
-884.503
-900.454
-698.719
-734.667
-727.861
-805.349
-1891.62
-3302.35
-2807.35
-1809.58
-883.694
-462.846
-311.439
-233.665
-156.57
-91.228
-45.3851
-14.7149
6.0168
20.2053
30.0895
37.1905
42.3393
46.0443
48.6944
49.6315
47.7625
43.2775
36.7939
30.9411
27.4615
26.8059
27.2601
28.0814
29.1108
30.7967
33.144
0.430487
1.11895
1.92151
2.67549
3.4793
4.28959
5.13729
6.00785
6.90414
7.81487
8.72888
9.63131
10.5038
11.321
12.0491
12.658
13.1115
13.3921
13.5115
13.4938
13.2971
12.883
12.2231
11.2913
10.1312
8.77138
7.19358
5.32898
2.99865
-0.0395759
-4.10383
-9.64053
-16.2518
-25.8578
-38.2256
-52.3259
-76.8684
-131.719
-246.272
-417.488
-615.247
-872.709
-992.639
-977.158
-745.076
-747.881
-751.674
-803.587
-2091.77
-3838.92
-3299.27
-2120.74
-1008.6
-525.244
-363.135
-271.844
-179.36
-103.163
-51.0432
-16.8694
5.83153
21.1805
31.8198
39.4575
45.0216
49.0261
51.9018
52.9723
50.9987
46.07
38.71
31.9632
28.0462
27.3301
27.9307
28.9449
30.1282
31.7558
33.8552
0.44411
1.16965
2.00946
2.80399
3.64955
4.50348
5.39646
6.31366
7.2581
8.21822
9.18313
10.1392
11.0662
11.9364
12.7129
13.3631
13.8507
14.1583
14.2956
14.285
14.084
13.6496
12.9517
11.9635
10.734
9.30108
7.65224
5.71192
3.277
0.058809
-4.32638
-10.3165
-17.7096
-28.6347
-42.7878
-59.9091
-88.8009
-149.857
-276.938
-470.967
-706.562
-996.516
-1116.49
-1059.64
-793.815
-752.477
-770.302
-783.419
-2298.34
-4437.83
-3861.52
-2466.68
-1150.39
-600.428
-426.331
-317.519
-205.603
-116.459
-57.2345
-19.2229
5.57682
22.1323
33.5503
41.7442
47.7408
52.0516
55.1476
56.3784
54.329
48.9325
40.5889
32.8387
28.4593
27.7077
28.4956
29.6974
30.9796
32.5055
34.3646
0.457395
1.21968
2.09598
2.93048
3.81705
4.71404
5.65162
6.6149
7.60707
8.61619
9.63226
10.6424
11.6248
12.549
13.375
14.067
14.5898
14.9256
15.0824
15.0797
14.8757
14.4212
13.6843
12.6381
11.3375
9.83106
8.11372
6.10271
3.5663
0.162928
-4.55304
-11.0228
-19.2692
-31.5869
-47.6055
-68.0818
-101.851
-170.308
-310.225
-530.16
-810.79
-1139.62
-1258.18
-1148.58
-845.268
-747.081
-782.039
-740.44
-2502.91
-5084.25
-4477.84
-2838.74
-1312.35
-692.685
-504.419
-372.372
-235.818
-131.236
-63.991
-21.7846
5.25239
23.061
35.2824
44.0544
50.4999
55.1227
58.4228
59.8371
57.7494
51.8681
42.4327
33.5646
28.6978
27.9366
28.9614
30.3384
31.6593
33.0774
34.7569
0.47043
1.26911
2.18112
3.05495
3.98184
4.92123
5.90268
6.91146
7.95087
9.00872
10.0763
11.1407
12.1796
13.1587
14.0357
14.77
15.3289
15.6943
15.8721
15.8787
15.6727
15.1979
14.4205
13.3144
11.9405
10.36
8.57644
6.49921
3.86284
0.267023
-4.79232
-11.7747
-20.9475
-34.7233
-52.718
-76.8371
-116.046
-193.27
-346.64
-596.021
-929.049
-1304.85
-1420.13
-1244.7
-899.842
-730.429
-784.724
-669.902
-2691.53
-5742.98
-5118.14
-3222.47
-1496.5
-807.354
-601.608
-438.331
-270.515
-147.591
-71.3345
-24.5614
4.85589
23.9676
37.0179
46.3931
53.3079
58.2474
61.721
63.329
61.2435
54.8716
44.2401
34.1391
28.7605
28.0223
29.3269
30.8686
32.1838
33.5409
35.1176
0.483259
1.31797
2.26493
3.17746
4.14392
5.12495
6.14952
7.20322
8.28936
9.39578
10.5154
11.6342
12.7302
13.7655
14.6948
15.4727
16.0684
16.4645
16.6649
16.6826
16.4749
15.9792
15.1598
13.9914
12.5416
10.8861
9.03847
6.8986
4.16171
0.36373
-5.05531
-12.5907
-22.7622
-38.0561
-58.1797
-86.1932
-131.504
-218.881
-387.206
-670.4
-1062.97
-1496.03
-1605.13
-1348.81
-957.96
-701.392
-775.698
-567.121
-2843.37
-6359.99
-5755.91
-3600.36
-1703.97
-950.919
-723.025
-517.544
-310.14
-165.567
-79.2716
-27.5537
4.3852
24.8521
38.7596
48.7639
56.1728
61.4379
65.0452
66.8347
64.7853
57.929
46.008
34.5604
28.6458
27.9769
29.5863
31.2975
32.6051
33.9546
35.4467
0.4959
1.36624
2.34746
3.29801
4.30328
5.32517
6.39206
7.49009
8.62244
9.77735
10.9491
12.123
13.2765
14.3694
15.3524
16.1754
16.8088
17.2361
17.4606
17.4912
17.282
16.7648
15.9013
14.6677
13.1391
11.4073
9.4974
7.29727
4.45676
0.444156
-5.35532
-13.4909
-24.7314
-41.6024
-64.0373
-96.1988
-148.317
-246.994
-432.419
-753.296
-1214.95
-1718.02
-1816.31
-1461.84
-1020.05
-659.094
-751.558
-428.345
-2936.32
-6877.81
-6396
-3954.22
-1934.75
-1131.15
-874.85
-612.342
-355.017
-185.132
-87.787
-30.7588
3.83999
25.713
40.5116
51.1719
59.094
64.6931
68.3944
70.3328
68.3427
61.0187
47.7317
34.8215
28.3488
27.8068
29.7384
31.6502
32.9761
34.3441
35.7634
0.508387
1.41395
2.42873
3.41663
4.45991
5.52186
6.63024
7.77197
8.95006
10.1534
11.3772
12.6069
13.8184
14.9707
16.0087
16.8782
17.5501
18.0083
18.2583
18.3035
18.0931
17.5536
16.6435
15.3415
13.7309
11.9214
9.95048
7.69082
4.74079
0.498199
-5.70713
-14.4959
-26.8728
-45.385
-70.3385
-106.943
-166.508
-277.156
-482.144
-843.63
-1388.5
-1977.21
-2057.61
-1584.73
-1086.52
-602.811
-708.096
-251.78
-2938.68
-7226.68
-7068.31
-4279.5
-2190.26
-1357.53
-1064.53
-725.22
-405.29
-206.151
-96.8293
-34.1694
3.21773
26.5494
42.2799
53.6266
62.0687
67.9814
71.7235
73.7684
71.8661
64.1139
49.404
34.9096
27.8567
27.4982
29.7973
31.9576
33.321
34.713
36.0633
0.520761
1.46114
2.50875
3.5333
4.6138
5.71498
6.8641
8.04881
9.27227
10.5239
11.7995
13.0855
14.3565
15.5698
16.6645
17.5817
18.2924
18.7809
19.0572
19.1181
18.9069
18.3442
17.3846
16.0106
14.3146
12.4258
10.3946
8.07416
5.00579
0.515011
-6.12595
-15.6245
-29.2011
-49.4278
-77.1295
-118.542
-186.069
-309.307
-537.205
-942.653
-1587.23
-2281.33
-2334.67
-1718.67
-1157.81
-531.948
-639.994
-37.2008
-2837.44
-7363.02
-7761.06
-4604.07
-2479.64
-1642.08
-1301.11
-858.859
-460.9
-228.379
-106.336
-37.8028
2.48759
27.3482
44.066
56.1357
65.0913
71.2516
74.9146
76.9963
75.2496
67.167
51.01
34.806
27.1523
27.0107
29.7886
32.2342
33.6385
35.0625
36.3347
0.533038
1.50784
2.58754
3.64802
4.76494
5.90455
7.09369
8.32067
9.58901
10.8885
12.2161
13.559
14.8909
16.167
17.32
18.2859
19.0353
19.5531
19.8562
19.9335
19.7215
19.1345
18.1221
16.672
14.8872
12.9179
10.8263
8.44162
5.24316
0.483457
-6.6265
-16.8923
-31.7274
-53.7513
-84.4439
-131.072
-207.004
-344.127
-600.631
-1055.92
-1819.8
-2638.82
-2653.97
-1865.58
-1234.52
-446.819
-541.206
211.721
-2617.87
-7257.18
-8338.68
-4961.45
-2822.71
-2000.61
-1595.65
-1016.2
-521.578
-251.847
-116.664
-41.9863
1.45569
28.017
45.8266
58.6821
68.1312
74.4397
77.8345
79.7883
78.3002
70.0847
52.5216
34.486
26.2241
26.3023
29.7288
32.4734
33.9194
35.3856
36.5857
0.545201
1.55402
2.66509
3.76077
4.91334
6.0906
7.31902
8.5875
9.90014
11.2471
12.6268
14.027
15.4213
16.7621
17.9753
18.9911
19.778
20.3243
20.6535
20.7477
20.5344
19.9209
18.8521
17.3218
15.4454
13.3946
11.2419
8.78699
5.44386
0.392215
-7.22294
-18.3129
-34.4603
-58.3718
-92.2993
-144.537
-229.318
-382.617
-674.646
-1188.2
-2098.96
-3062.42
-3022.73
-2028.03
-1317.6
-348.862
-405.507
486.026
-2277.89
-6870.06
-8596.04
-5348.8
-3243.92
-2453.23
-1961.72
-1200.38
-588.046
-278.214
-129.366
-47.6894
-0.339858
28.407
47.5403
61.2369
71.1266
77.447
80.4071
81.997
80.8028
72.7299
53.8939
33.9227
25.0626
25.3528
29.617
32.6598
34.1573
35.6784
36.825
0.557189
1.59964
2.74138
3.87158
5.059
6.27317
7.54002
8.84924
10.2055
11.5996
13.0311
14.4894
15.9473
17.355
18.6301
19.697
20.5198
21.0932
21.4471
21.5578
21.3417
20.6988
19.5697
17.9553
15.9852
13.8528
11.6372
9.10343
5.59825
0.22916
-7.93035
-19.9009
-37.4125
-63.3085
-100.703
-158.891
-253.007
-425.456
-759.246
-1342.77
-2425.83
-3565.4
-3449.09
-2209.75
-1407.92
-239.616
-226.858
788.629
-1870.97
-6269.72
-8532.2
-5744.08
-3764.6
-3023.25
-2415.53
-1414.97
-665.261
-311.828
-146.882
-56.0201
-3.34811
28.4058
49.2486
63.8097
73.9943
80.1632
82.6254
83.7078
82.685
74.978
55.0752
33.0894
23.6505
24.1658
29.4418
32.7797
34.35
35.9538
37.0362
0.568932
1.64463
2.81639
3.98046
5.20194
6.45226
7.75656
9.10577
10.5047
11.9454
13.429
14.9459
16.4687
17.9452
19.2846
20.403
21.2601
21.8581
22.2343
22.3598
22.1379
21.4616
20.2682
18.5663
16.5017
14.2885
12.0073
9.38313
5.69537
-0.0202216
-8.76807
-21.6794
-40.6136
-68.6031
-109.685
-174.113
-278.172
-473.013
-853.733
-1519.93
-2798.96
-4158.72
-3939.79
-2414.21
-1507.15
-121.079
-0.686822
1132.13
-1434.57
-5600.93
-8343.64
-6151.48
-4408.91
-3735.92
-2975.19
-1670.72
-764.467
-358.317
-171.065
-67.4312
-7.64213
28.0057
50.9355
66.3716
76.6591
82.5302
84.5024
85.0859
84.1123
76.8026
56.0348
31.9604
21.9534
22.7511
29.1897
32.8209
34.4971
36.2024
37.2222
0.580392
1.68899
2.89012
4.08743
5.34221
6.62782
7.96863
9.35687
10.7973
12.2839
13.8195
15.3957
16.9853
18.5329
19.9385
21.1086
21.9975
22.6168
23.0115
23.148
22.9159
22.2009
20.9386
19.1471
16.9892
14.6967
12.3459
9.61674
5.72193
-0.374894
-9.76406
-23.6893
-44.1266
-74.3472
-119.353
-190.327
-305.151
-525.481
-957.336
-1721.13
-3222.56
-4854.98
-4500.73
-2643.1
-1617.41
4.36254
274.733
1524.34
-965.118
-4898.29
-8101.7
-6609.94
-5207.56
-4615.21
-3658.61
-1996.92
-899.698
-421.925
-202.584
-81.8528
-13.1328
27.1892
52.464
68.7729
79.0604
84.5609
86.0775
86.2307
85.2809
78.2868
56.778
30.5123
19.9153
21.093
28.8499
32.7742
34.601
36.4295
37.3977
0.591566
1.73272
2.9626
4.19252
5.47981
6.7998
8.17614
9.60224
11.0829
12.6145
14.202
15.8383
17.4969
19.1179
20.5919
21.8132
22.7305
23.3659
23.7735
23.9145
23.6654
22.9052
21.5696
19.688
17.44
15.0712
12.6452
9.79293
5.66157
-0.859346
-10.957
-25.9935
-48.0566
-80.7017
-129.928
-207.872
-334.583
-582.98
-1070.27
-1952.71
-3704.55
-5675.19
-5137.62
-2897.34
-1741.62
138.4
599.415
1967.06
-388.52
-4143.65
-7808.83
-7169.92
-6185.29
-5674.37
-4484.05
-2439.11
-1083.69
-504.387
-241.334
-99.2066
-19.8543
25.8391
53.6447
70.803
81.0633
86.2095
87.3438
87.168
86.2886
79.5476
57.3363
28.7219
17.4681
19.1432
28.4099
32.6318
34.6664
36.638
37.5312
0.602451
1.77586
3.03389
4.29578
5.6148
6.96821
8.37904
9.84175
11.3615
12.937
14.5761
16.2733
18.0029
19.7
21.2443
22.5158
23.4567
24.101
24.5131
24.6494
24.3737
23.5601
22.1472
20.177
17.845
15.4035
12.8954
9.89863
5.49594
-1.50099
-12.3914
-28.6688
-52.5361
-87.8758
-141.729
-227.306
-367.493
-645.975
-1193.82
-2221.5
-4251.03
-6646.72
-5863.2
-3181.24
-1883.97
281.012
972.217
2451.25
327.659
-3361.54
-7484.95
-7863.77
-7345.06
-6904.48
-5485.66
-3032.89
-1324.94
-606.45
-287.469
-119.787
-28.0755
23.6871
54.2008
72.2239
82.4968
87.3813
88.2646
87.9207
87.2053
80.6743
57.7416
26.5641
14.5426
16.8416
27.8552
32.3877
34.7004
36.8247
37.6687
0.613039
1.81843
3.10405
4.39726
5.7472
7.13316
8.57741
10.0755
11.6331
13.2514
14.9416
16.7003
18.5029
20.2787
21.8949
23.2149
24.173
24.8165
25.2214
25.3396
25.0243
24.1477
22.6545
20.6001
18.1928
15.6836
13.0857
9.92103
5.20934
-2.321
-14.1006
-31.7756
-57.6732
-96.0453
-155.054
-249.253
-405.115
-715.818
-1329.35
-2525.26
-4864.74
-7776.52
-6694.71
-3503.52
-2058.48
413.752
1386.4
2948.5
1152.85
-2611.42
-7164.64
-8688.66
-8643.25
-8276.51
-6713.81
-3780.03
-1620.23
-728.041
-341.806
-144.253
-38.1983
20.4038
53.8412
72.8189
83.2298
88.0174
88.8275
88.4973
88.0629
81.7019
58.0178
24.0139
11.0754
14.1388
27.1715
32.0368
34.7114
37.0109
37.7948
0.623351
1.86047
3.1731
4.49696
5.87704
7.29468
8.77133
10.3035
11.8976
13.5577
15.2983
17.1188
18.9959
20.8528
22.5424
23.9082
24.8749
25.5045
25.8865
25.9686
25.5973
24.6472
23.0721
20.941
18.4703
15.9003
13.2062
9.85245
4.7982
-3.31678
-16.076
-35.3035
-63.4627
-105.214
-169.973
-274.085
-448.231
-793.899
-1477.63
-2852.1
-5553.7
-9047.27
-7641.42
-3875.47
-2287.2
515.11
1827.74
3383.76
1991.82
-1982.98
-6880.07
-9587.03
-9967.28
-9724.56
-8166.68
-4647.62
-1957.4
-868.748
-405.506
-173.313
-50.5919
15.6769
52.3011
72.4
83.1557
88.0832
89.0321
88.8874
88.8491
82.6407
58.1938
21.0658
7.02813
11.0129
26.3465
31.5747
34.7075
37.1832
37.8722
0.633421
1.90202
3.24106
4.59491
6.00434
7.45275
8.96078
10.5256
12.1548
13.8559
15.6461
17.5284
19.481
21.4213
23.1852
24.5925
25.5563
26.1553
26.4936
26.5164
26.0698
25.0354
23.379
21.1826
18.6639
16.0437
13.2523
9.69806
4.28475
-4.43828
-18.2263
-39.1055
-69.6827
-115.064
-186.111
-301.553
-496.616
-879.991
-1638.59
-3186.56
-6327.1
-10436.5
-8695.63
-4307.77
-2578.19
587.027
2282.91
3739.16
2811.72
-1377.2
-6652.34
-10452.8
-11146.6
-11127.4
-9740.42
-5583.34
-2324.15
-1028.47
-479.404
-207.382
-65.5148
9.2246
49.3466
70.8123
82.1963
87.5582
88.8834
89.0855
89.5753
83.5233
58.3115
17.7593
2.42362
7.49863
25.3732
30.9977
34.6968
37.3342
37.9841
0.64327
1.94311
3.30794
4.69111
6.12912
7.60736
9.14562
10.7416
12.4047
14.1456
15.9844
17.9283
19.9575
21.9825
23.8208
25.2632
26.209
26.7558
27.0239
26.9599
26.4165
25.288
23.5543
21.3078
18.762
16.1089
13.2302
9.4842
3.72979
-5.56853
-20.3474
-42.8505
-75.8281
-124.871
-202.521
-330.514
-548.599
-972.247
-1812.85
-3511.99
-7190.96
-11908.8
-9824.62
-4811.87
-2926.34
646.967
2724.98
4171.37
3563.2
-869.444
-6523.46
-11158.5
-12017.6
-12337.4
-11242.4
-6519.16
-2710.67
-1207.14
-563.53
-246.466
-83.1283
0.786876
44.7709
67.943
80.3175
86.4445
88.394
89.1046
90.2778
84.3831
58.414
14.1832
-2.63729
3.70919
24.2573
30.3056
34.6886
37.4967
38.1093
0.652907
1.98375
3.37377
4.78555
6.25133
7.75845
9.32568
10.9514
12.6469
14.4261
16.3125
18.3175
20.424
22.5348
24.4461
25.914
26.8222
27.2899
27.4555
27.2735
26.6122
25.3826
23.5796
21.3038
18.7581
16.0994
13.1608
9.26092
3.23157
-6.53226
-22.1436
-46.0599
-81.1663
-133.59
-217.795
-359.026
-601.15
-1066.52
-1996.48
-3820.01
-8159.56
-13414.7
-10985.8
-5402.92
-3335.37
690.619
3117.41
4663.46
3927.53
-643.102
-6469.72
-11607.6
-12520.6
-13257
-12449.7
-7377.6
-3106.43
-1403.27
-656.943
-290.292
-103.571
-9.89339
38.3933
63.7146
77.5198
84.7656
87.5853
88.9599
90.9681
85.2136
58.5322
10.4563
-7.99127
-0.183781
23.017
29.5063
34.6929
37.6486
38.199
0.662339
2.02396
3.43856
4.87824
6.37094
7.90589
9.50076
11.1548
12.8809
14.6969
16.6294
18.695
20.879
23.0755
25.0563
26.5363
27.3821
27.7377
27.764
27.4325
26.6355
25.3029
23.444
21.1655
18.6552
16.0303
13.0779
9.09147
2.898
-7.15616
-23.3425
-48.2994
-85.0127
-140.214
-230.503
-384.898
-650.648
-1157.05
-2178.7
-4117.64
-9264.45
-14906.1
-12151.6
-6093.76
-3844.2
690.284
3364.13
4930.38
3680.86
-706.46
-6431.07
-11785.8
-12710.8
-13869.6
-13234.8
-8106.08
-3500.84
-1613.04
-757.82
-338.523
-127.031
-23.0657
30.0804
58.0918
73.8238
82.5568
86.4829
88.6623
91.6291
85.9725
58.6843
6.69662
-13.4506
-3.99555
21.6754
28.6187
34.7207
37.797
38.3567
0.671568
2.06379
3.50234
4.96921
6.48794
8.04958
9.6707
11.3514
13.1064
14.9573
16.9344
19.0593
21.3201
23.6011
25.6445
27.1181
27.8708
28.0762
27.9248
27.4169
26.4745
25.0452
23.1508
20.9028
18.4704
15.9281
13.0209
9.03198
2.80207
-7.35441
-23.8485
-49.4446
-87.1449
-144.32
-239.873
-406.579
-693.999
-1237.92
-2349.05
-4425.94
-10556.4
-16367.2
-13331.8
-6874.35
-4477.91
588.963
3433.05
5188.31
3544.45
-931.987
-6400.36
-11752.2
-12702
-14217.7
-13613.2
-8692.65