/*--------------------------------*- C++ -*----------------------------------*\
| =========                 |                                                 |
| \\      /  F ield         | OpenFOAM: The Open Source CFD Toolbox           |
|  \\    /   O peration     | Version:  4.1                                   |
|   \\  /    A nd           | Web:      www.OpenFOAM.org                      |
|    \\/     M anipulation  |                                                 |
\*---------------------------------------------------------------------------*/
FoamFile
{
    version     2.0;
    format      ascii;
    class       surfaceScalarField;
    location    "2";
    object      phi;
}
// * * * * * * * * * * * * * * * * * * * * * * * * * * * * * * * * * * * * * //

dimensions      [0 3 -1 0 0 0 0];

internalField   nonuniform List<scalar> 
13220
(
-916.495
2216.45
-1426.48
1810.23
-1904.86
1778.32
-2272.83
1667.91
-2558.12
1585.53
-2764.36
1506.18
-2894.17
1429.74
-2948.56
1354.62
-2927.27
1278.64
-2828.84
1201.49
-2658
1129.39
-2408.83
1050.75
-2002.85
893.957
-1247.2
544.599
52.702
-8.31515
2224.88
-50.0225
1852.07
-187.795
1916.22
-299.882
1780.12
-416.374
1702.15
-518.887
1608.81
-607.053
1518.02
-678.224
1425.89
-734.165
1334.68
-780.395
1247.8
-816.672
1165.72
-811.396
1045.59
-655.974
738.682
-275.21
164.205
-222.49
-126.356
2351.38
-325.712
2051.58
-513.392
2104.04
-624.721
1891.61
-727.619
1805.2
-793.581
1674.93
-834.905
1559.49
-851.797
1442.96
-845.716
1328.75
-817.972
1220.28
-762.347
1110.31
-650.66
934.189
-447.706
536.558
-202.578
-79.7231
-425.056
54.5261
2297.07
-14.6296
2120.98
-35.636
2125.3
-20.0058
1876.26
-4.20334
1789.7
31.8678
1639.18
82.0641
1509.63
147.969
1377.36
229.375
1247.68
327.362
1122.59
435.949
1001.9
518.894
851.644
479.263
576.796
171.285
229.164
-253.748
138.702
2158.57
136.931
2122.97
186.288
2076.16
241.639
1821.16
297.428
1734.16
352.885
1583.95
408.047
1454.71
460.365
1325.22
508.148
1200.06
549.058
1081.91
581.581
969.387
582.939
850.918
485.165
675.275
274.84
440.989
21.0667
101.593
2057.12
133.119
2091.61
176.354
2033.11
223.75
1773.93
264.496
1693.55
309.048
1539.54
349.764
1414.1
383.981
1291.1
407.423
1176.71
420.357
1068.89
423.183
966.637
404.34
869.151
327.535
751.446
178.732
588.441
199.816
37.2807
2019.87
91.2553
2037.64
127.706
1996.66
168.066
1733.56
201.347
1660.26
247.505
1493.34
292.537
1369.05
353.081
1230.47
422.16
1107.58
485.724
1005.37
518.296
933.908
502.48
885.535
414.891
839.499
253.203
750.816
453
-14.8999
2034.63
-4.3068
2026.9
10.888
1981.32
7.60033
1736.66
7.79759
1659.84
16.79
1484.13
42.7553
1342.8
126.875
1146.11
263.245
970.928
404.908
863.255
499.613
839.144
513.649
870.474
427.767
924.533
255.398
922.132
708.399
-14.0695
2048.52
-127.558
2140.21
-178.287
2031.86
-254.64
1812.84
-326.023
1731.07
-396.306
1554.27
-444.048
1390.41
-434.026
1135.96
-360.794
897.563
-243.616
745.994
-98.9766
694.331
45.1721
726.466
130.355
839.374
104.997
947.493
813.387
74.1305
1974.19
-112.045
2326.2
-234.556
2154.19
-352.937
1931.03
-468.049
1846
-588.384
1674.44
-714.103
1515.98
-836.738
1258.45
-936.141
996.827
-973.419
783.086
-904.676
625.525
-705.216
526.561
-406.146
539.856
-128.899
669.67
684.481
199.98
1774.06
95.3018
2430.73
-26.5473
2275.86
-122.12
2026.42
-196.397
1920.09
-282.523
1760.39
-388.662
1621.92
-538.75
1408.38
-714.4
1172.32
-873.312
941.815
-969.316
721.414
-946.012
502.943
-729.851
323.314
-328.761
268.045
355.717
281.176
1492.79
308.218
2403.62
248.967
2335.03
206.243
2069.06
203.112
1923.13
192.527
1770.88
173.24
1641.12
105.511
1476.01
-9.54105
1287.25
-152.338
1084.5
-298.067
867.011
-420.46
625.211
-458.013
360.695
-312.702
122.459
43.0017
300.493
1192.24
419.407
2284.68
441.362
2313.03
469.548
2040.85
523.132
1869.49
563.779
1730.21
594.893
1609.95
598.5
1472.38
565.591
1320.12
494.872
1155.17
386.272
975.577
234.912
776.416
52.3571
542.952
-104.97
278.817
-61.954
337.373
854.851
492.456
2129.61
471.019
2334.45
395.933
2115.95
384.067
1881.33
421.301
1692.99
480.558
1550.68
531.076
1421.88
557.335
1293.84
552.05
1160.48
510.002
1017.62
424.831
861.708
289.933
678.039
120.486
448.814
58.5456
343.513
1154.08
1706.47
1921.49
1888.09
1820.55
1781.54
1775.91
1770.02
1718.84
1597.52
1396.37
1086.27
644.385
-0.00236342
126.993
-126.999
126.99
126.987
126.984
235.266
-108.286
235.262
235.259
235.256
318.531
-83.2787
318.528
318.525
370.596
-52.0751
370.593
370.589
370.586
405.183
-34.601
405.179
405.175
417.288
-12.1171
417.284
417.281
417.277
419.907
-2.63343
419.903
419.9
419.896
413.873
6.01975
413.869
413.866
401.761
12.1016
401.757
401.754
401.75
391.334
10.4125
391.329
391.326
384.027
7.29462
384.023
384.02
384.016
381.775
2.23702
381.772
381.768
381.765
390.833
-9.07194
390.83
390.827
432.514
-41.6908
432.511
432.508
432.505
527.14
-94.6387
527.137
527.134
527.131
583.992
-56.8654
583.988
583.984
470.444
113.537
470.439
470.437
470.432
193.076
277.354
193.068
193.068
-207.139
400.196
-207.138
-207.147
-207.144
-1454.66
1247.5
-1454.65
-1454.66
-1454.65
-3208.64
1753.97
-3208.62
-3208.65
-5251.19
2042.55
-5251.24
-5251.25
-5119.86
-4990.19
-4850.98
-6879.09
2159.8
-6750.1
-6594.99
-6426.3
-6257.57
-6089.51
-5924.38
-5754.23
-5567.78
-7636.03
2252.85
-7447.86
-7261.65
-7077.61
-6877.73
-6678.07
-6480.2
-6282.73
-6081.58
-8207.8
2337.25
-7993.52
-7779.92
-7566.82
-7354.33
-7137.77
-6912.92
-6688.85
-6462.75
-6232.35
-8417.41
2416.36
-8176.34
-7934.31
-7691.08
-7446.71
-7200.87
-6944.51
-6679.75
-6410.44
-8663.64
2522.18
-8394.31
-8116.8
-7827.24
-7533.44
-7234.69
-6931.41
-6621.92
-6290.53
-8570.58
2604.03
-8242.41
-7910.59
-7576.41
-7222.45
-6859.17
-6495.29
-6130.99
-5771.1
-7454.73
2035.33
-7089.49
-6729.07
-6373.52
-6024.12
-5681.61
-5329.07
-4983.73
-4645.35
-4318.78
-4584.38
587.263
-4301.25
-4038.89
-3785.89
-3542.56
-3307.93
-3123.39
-3029.51
-2935.1
-2717.55
-115.453
-2629.91
-2543.16
-2543.18
-2484.88
-58.3316
-2405.54
-79.3412
-2405.55
-2346.98
-58.5692
-2346.99
-2306.33
-40.656
-2262.36
-43.9713
-2262.36
-2230.46
-31.9012
-2190.61
-39.852
-2190.61
-2153.21
-37.3944
-2153.22
-2123.28
-29.9271
-2080.72
-42.5762
-2080.71
-2036.88
-43.8426
-2036.87
-1995.52
-41.3574
-1938.06
-57.4561
-1938.06
-1882.03
-56.0254
-1810.41
-71.6267
-1810.41
-1732.33
-78.0816
-1732.33
-1651.93
-80.4016
-1558.24
-93.6833
-1558.25
-1457.74
-100.503
-1457.74
-1353.75
-103.983
-1240.61
-113.148
-1240.61
-1122.73
-117.885
-998.354
-124.365
-998.358
-865.315
-133.036
-865.32
-724.067
-141.246
-577.291
-146.782
-577.286
-416.6
-160.692
-416.594
-238.652
-177.947
-53.7555
-184.889
-53.76
152.273
-206.025
348.184
-195.919
348.191
541.638
-193.455
541.646
727.343
-185.703
906.16
-178.808
906.156
1080.17
-174.008
1080.17
1243.57
-163.39
1391.61
-148.052
1391.62
1537.87
-146.253
1678.75
-140.874
1678.75
1826.12
-147.371
1826.12
1975.21
-149.082
2111.08
-135.88
2111.09
2249.19
-138.105
2249.19
2386.24
-137.054
2497.9
-111.648
2497.9
2616.22
-118.315
2702.52
-86.3105
2702.52
2793.5
-90.9756
2793.5
-82.6239
-139.337
-738.362
-140.493
-1076.65
-143.353
-1306.32
-146.313
-1522.25
-149.908
-1733.75
-153.876
-1937.04
-158.395
-2139.41
-163.331
-2340.97
-168.767
-2545.03
-174.38
-2750.95
-179.675
-2956.78
-184.783
-3161.64
-190.376
-3363.37
-196.614
-3556.17
-202.87
-3742.49
-209.512
-3937.04
-216.562
-4139.18
-222.949
-4325.54
-229.501
-4485.39
-237.738
-4621.34
-245.926
-4738.88
-252.028
-4850.4
-255.207
-4963.26
-253.321
-5067.34
-245.886
-5158.15
-232.242
-5230.45
-211.898
-5279.68
-185.681
-5299.34
-151.334
-5249.61
-104.589
-5101.01
-46.62
-4879.15
30.8091
-4567.45
107.964
-4116.68
198.541
-3506.39
232.18
-2857.07
134.611
-2211.57
234.103
2837.85
454.052
6996.91
403.01
8441.55
245.313
10212.3
227.693
16079.6
207.345
22168.4
160.289
27661.7
80.098
32384.8
-44.684
34639.1
-302.731
35764.2
-414.433
36182.3
-574.067
29668.7
-838.169
20895
-1088.04
15115.9
-1216.02
8780.77
-615.498
1589.9
-48.7802
-7257.51
500.351
-9321.14
887.007
-10111.7
1146.66
-9496.79
1291.21
-8500.37
1349.25
-7483.7
1347.5
-6574
1305.56
-5829.05
1237.18
-5263.83
1152.22
-4864.93
1060.13
-4610.82
964.917
-4471.26
869.922
-4376.95
801.396
-4404.02
778.598
-4767.7
768.262
-5215.22
730.51
-5280.37
665.355
-4970.97
597.608
-4552.73
520.011
-4247.33
408.147
-4047
238.304
-3823.03
76.0863
-3646.79
67.8212
-2942.12
145.208
-2136.3
190.424
-1924.47
-2644.03
-162.349
-741.076
-161.977
-1077.03
-164.336
-1303.97
-167.069
-1519.51
-170.706
-1730.11
-174.863
-1932.89
-179.668
-2134.6
-184.941
-2335.7
-190.715
-2539.25
-196.723
-2744.94
-202.522
-2950.98
-208.085
-3156.08
-213.903
-3357.55
-220.246
-3549.83
-226.646
-3736.09
-233.195
-3930.49
-239.808
-4132.57
-245.621
-4319.72
-251.495
-4479.52
-258.884
-4613.95
-266.451
-4731.31
-272.29
-4844.56
-275.227
-4960.32
-273.072
-5069.49
-265.226
-5166
-250.986
-5244.69
-229.699
-5300.97
-201.84
-5327.2
-165.063
-5286.38
-114.794
-5151.28
-51.6783
-4942.27
31.9652
-4651.09
122.261
-4206.97
226.239
-3610.37
278.644
-2909.48
154.49
-2087.41
266.589
2725.75
477.842
6785.65
430.181
8489.21
269.289
10373.2
253.435
16095.4
224.05
22197.8
171.957
27713.7
77.847
32478.9
-41.1554
34758.1
-297.469
36020.5
-408.011
36292.9
-554.731
29815.4
-846.039
21186.3
-1245.98
15515.9
-1645.9
9180.69
-781.547
725.553
-89.4834
-7949.58
546.563
-9957.18
978.514
-10543.7
1258.55
-9776.82
1408.22
-8650.03
1463.72
-7539.2
1457.12
-6567.4
1410.54
-5782.46
1338.55
-5191.84
1250.97
-4777.34
1156.8
-4516.65
1059.62
-4374.08
962.49
-4279.82
888.379
-4329.9
849.95
-4729.26
815.599
-5180.86
759.993
-5224.76
695.842
-4906.81
641.369
-4498.25
572.682
-4178.64
462.268
-3936.58
294.818
-3655.57
119.965
-3471.93
91.0835
-2913.23
149.466
-2194.68
199.419
-1974.41
-2535.57
-176.502
-745.205
-174.962
-1078.57
-176.75
-1302.18
-179.214
-1517.05
-182.75
-1726.57
-186.941
-1928.7
-191.868
-2129.67
-197.317
-2330.25
-203.276
-2533.29
-209.5
-2738.72
-215.564
-2944.92
-221.381
-3150.26
-227.339
-3351.6
-233.674
-3543.49
-239.997
-3729.77
-246.292
-3924.19
-252.48
-4126.38
-257.922
-4314.28
-263.437
-4474
-270.248
-4607.14
-277.178
-4724.38
-282.545
-4839.2
-285.137
-4957.73
-282.822
-5071.81
-274.945
-5173.88
-260.789
-5258.85
-239.583
-5322.18
-211.569
-5355.22
-174.316
-5323.64
-123.177
-5202.42
-57.9784
-5007.47
27.9808
-4737.05
126.828
-4305.82
233.534
-3717.08
300.408
-2976.35
193.451
-1980.46
301.24
2617.96
520.629
6566.27
477.238
8532.6
314.164
10536.3
298.342
16111.2
259.787
22236.3
192.562
27781
84.2414
32587.2
-34.7837
34877.2
-296.061
36281.8
-405.336
36402.1
-557.826
29967.9
-920.845
21549.4
-1440.78
16035.8
-1776.99
9516.9
-893.36
-158.079
-112.172
-8730.76
582.122
-10651.5
1043.12
-11004.7
1331.5
-10065.2
1480.5
-8799.03
1531.69
-7590.4
1520.19
-6555.89
1469.55
-5731.83
1394.75
-5117.04
1305.5
-4688.09
1210.18
-4421.33
1112.07
-4275.97
1014.64
-4182.39
936.643
-4251.92
884.376
-4677
831.354
-5127.85
765.734
-5159.15
704.966
-4846.05
658.984
-4452.27
596.274
-4115.93
489.319
-3829.63
329.218
-3495.48
157.452
-3300.17
108.999
-2864.79
155.508
-2241.2
198.773
-2017.69
-2423.12
-191.836
-750.385
-189.455
-1080.95
-190.787
-1300.85
-193.062
-1514.78
-196.569
-1723.06
-200.85
-1924.42
-205.961
-2124.56
-211.659
-2324.55
-217.879
-2527.08
-224.393
-2732.2
-230.809
-2938.5
-236.992
-3144.08
-243.192
-3345.4
-249.571
-3537.11
-255.828
-3723.51
-261.869
-3918.15
-267.612
-4120.64
-272.65
-4309.24
-277.801
-4468.85
-284.063
-4600.88
-290.35
-4718.1
-295.188
-4834.36
-297.365
-4955.55
-294.854
-5074.32
-286.951
-5181.78
-272.911
-5272.89
-251.839
-5343.25
-223.74
-5383.32
-186.079
-5361.3
-134.058
-5254.44
-66.5775
-5074.95
22.5046
-4826.13
130.63
-4413.95
243.581
-3830.03
325.224
-3058
245.507
-1900.74
354.12
2509.35
575.317
6345.07
537.255
8570.66
375.338
10698.2
359.669
16126.9
308.579
22287.4
220.398
27869.2
94.7786
32712.9
-26.8783
34998.8
-294.31
36549.2
-406.632
36514.5
-580.024
30141.3
-1048.79
22018.1
-1670.64
16657.7
-1949.36
9795.62
-1006.25
-1101.19
-127.826
-9609.19
634.88
-11414.2
1128.97
-11498.7
1426.16
-10362.4
1573.19
-8946.05
1618.31
-7635.53
1600.2
-6537.78
1544.08
-5675.7
1465.33
-5038.29
1373.54
-4596.3
1276.35
-4324.14
1176.7
-4176.31
1078.16
-4083.85
994.619
-4168.37
926.17
-4608.55
853.703
-5055.38
779.383
-5084.82
722.695
-4789.36
683.812
-4413.39
625.37
-4057.48
521.918
-3726.18
370.171
-3343.72
199.637
-3129.63
131.565
-2796.71
163.732
-2273.36
200.765
-2054.71
-2340.66
-206.366
-756.347
-203.361
-1083.95
-204.283
-1299.92
-206.39
-1512.67
-209.881
-1719.57
-214.254
-1920.04
-219.551
-2119.27
-225.508
-2318.59
-232.005
-2520.58
-238.823
-2725.38
-245.611
-2931.71
-252.197
-3137.49
-258.71
-3338.88
-265.182
-3530.64
-271.36
-3717.34
-277.12
-3912.39
-282.398
-4115.36
-287.037
-4304.6
-291.871
-4464.02
-297.632
-4595.12
-303.245
-4712.48
-307.439
-4830.16
-309.093
-4953.9
-306.36
-5077.05
-298.523
-5189.62
-284.803
-5286.61
-264.206
-5363.84
-236.507
-5411.02
-199.067
-5398.74
-146.895
-5306.61
-77.8071
-5144.03
13.9731
-4917.91
130.394
-4530.37
251.69
-3951.32
346.982
-3153.29
307.711
-1861.47
431.325
2385.73
644.223
6132.17
613.315
8601.57
458.528
10853
442.285
16143.1
372.059
22357.6
255.356
27985.9
108.14
32860.1
-17.3449
35124.3
-292.292
36824.1
-411.328
36633.5
-623.353
30353.3
-1225.31
22620.1
-1928.55
17360.9
-2141.66
10008.7
-1110.01
-2132.84
-132.375
-10586.8
700.401
-12247
1226.79
-12025.1
1530.11
-10665.7
1672.19
-9088.13
1708.9
-7672.25
1682.54
-6511.42
1619.82
-5612.99
1536.43
-4954.9
1441.67
-4501.54
1342.35
-4224.83
1241.14
-4075.11
1141.66
-3984.37
1051.84
-4078.56
966.253
-4522.96
875.835
-4964.96
795.864
-5004.86
743.667
-4737.16
709.155
-4378.88
652.94
-4001.27
553.404
-3626.65
411.856
-3202.18
244.627
-2962.41
161.363
-2713.45
174.899
-2286.9
200.284
-2080.11
-2252.03
-220.558
-762.841
-217.143
-1087.37
-217.731
-1299.33
-219.699
-1510.7
-223.19
-1716.08
-227.668
-1915.56
-233.16
-2113.78
-239.389
-2312.36
-246.189
-2513.78
-253.34
-2718.23
-260.536
-2924.52
-267.583
-3130.44
-274.495
-3331.97
-281.151
-3523.98
-287.291
-3711.2
-292.788
-3906.89
-297.619
-4110.53
-301.865
-4300.36
-306.41
-4459.47
-311.731
-4589.8
-316.691
-4707.52
-320.175
-4826.68
-321.211
-4952.86
-318.211
-5080.05
-310.485
-5197.34
-297.222
-5299.87
-277.35
-5383.72
-250.452
-5437.91
-213.772
-5435.42
-162.052
-5358.34
-91.9023
-5214.18
2.47396
-5012.29
126.28
-4654.17
258.835
-4083.88
369.144
-3263.6
379.969
-1872.29
528.561
2237.14
727.092
5933.64
710.737
8617.93
571.287
10992.5
548.775
16165.7
450.128
22456.3
296.468
28139.5
123.559
33033
-6.59583
35254.5
-290.241
37107.8
-419.035
36762.3
-687.547
30621.8
-1438.75
23371.3
-2207.54
18129.7
-2342.47
10143.7
-1203.61
-3271.7
-123.142
-11667.3
782.409
-13152.5
1340.95
-12583.7
1647.91
-10972.7
1781.96
-9222.18
1807.71
-7698
1771.23
-6474.93
1700.6
-5542.35
1611.64
-4865.94
1513.28
-4403.19
1411.4
-4122.94
1308.45
-3972.15
1207.81
-3883.73
1111.2
-3981.95
1009.01
-4420.76
903.376
-4859.33
820.102
-4921.58
771.468
-4688.53
738.403
-4345.81
682.695
-3945.56
587.17
-3531.12
456.076
-3071.08
293.344
-2799.67
192.215
-2612.31
187.565
-2282.25
204.989
-2097.52
-2184.09
-234.379
-769.672
-230.721
-1091.03
-231.061
-1298.99
-232.928
-1508.83
-236.429
-1712.58
-241.021
-1910.97
-246.705
-2108.09
-253.204
-2305.86
-260.32
-2506.66
-267.83
-2710.72
-275.466
-2916.88
-283.033
-3122.88
-290.43
-3324.57
-297.369
-3517.04
-303.544
-3705.02
-308.842
-3901.6
-313.276
-4106.09
-317.154
-4296.48
-321.428
-4455.2
-326.356
-4584.87
-330.707
-4703.17
-333.45
-4823.94
-333.798
-4952.51
-330.482
-5083.37
-322.909
-5204.91
-310.241
-5312.54
-291.364
-5402.59
-265.706
-5463.57
-230.39
-5470.73
-179.802
-5408.92
-109.224
-5284.76
-12.4873
-5109.02
117.931
-4784.59
263.461
-4229.41
393.076
-3393.21
458.809
-1938.03
637.367
2058.58
822.901
5748.11
833.755
8607.07
719.59
11106.6
680.2
16205
541.079
22595.4
342.427
28338.2
140.407
33235
4.7075
35390.2
-287.946
37400.4
-429.3
36903.7
-768.687
30961.2
-1676.68
24279.3
-2504.13
18957.2
-2551.67
10191.2
-1284.59
-4538.78
-96.5523
-12855.3
883.252
-14132.3
1472.9
-13173.3
1780.32
-11280.1
1902.73
-9344.59
1914.61
-7709.89
1865.93
-6426.25
1785.94
-5462.37
1690.45
-4770.45
1587.85
-4300.59
1482.98
-4018.07
1378.14
-3867.32
1276.22
-3781.81
1172.94
-3878.68
1055.84
-4303.67
937.731
-4741.22
852.115
-4835.97
805.521
-4641.94
772.02
-4312.32
716.224
-3889.77
624.574
-3439.47
503.207
-2949.72
346.692
-2643.16
226.798
-2492.43
200.174
-2255.63
200.48
-2097.84
-2121.72
-247.869
-776.674
-244.116
-1094.78
-244.301
-1298.81
-246.122
-1507.01
-249.652
-1709.05
-254.363
-1906.26
-260.231
-2102.22
-266.99
-2299.1
-274.433
-2499.22
-282.329
-2702.83
-290.436
-2908.77
-298.57
-3114.74
-306.535
-3316.61
-313.865
-3509.71
-320.18
-3698.71
-325.386
-3896.39
-329.525
-4101.95
-333.089
-4292.91
-337.115
-4451.17
-341.693
-4580.29
-345.505
-4699.36
-347.533
-4821.91
-347.17
-4952.88
-343.511
-5087.03
-336.132
-5212.29
-324.192
-5324.48
-306.575
-5420.21
-282.607
-5487.54
-249.281
-5504.06
-200.531
-5457.67
-130.186
-5355.1
-31.3922
-5207.82
105.022
-4921
264.306
-4388.69
418.131
-3547.04
539.16
-2059.05
752.24
1845.5
934.268
5566.08
984.537
8556.8
904.954
11186.2
837.368
16272.6
643.824
22789
392.809
28589.2
158.75
33469.1
16.2742
35532.6
-285.283
37702
-441.989
37060.4
-862.249
31381.5
-1929.99
25347
-2814.92
19842.1
-2768.89
10145.2
-1350.74
-5956.93
-48.2309
-14157.8
1006.34
-15186.9
1625.25
-13792.2
1929.32
-11584.2
2035.97
-9451.23
2030.67
-7704.59
1967.44
-6363.02
1876.5
-5371.42
1773.37
-4667.33
1665.78
-4192.98
1557.45
-3909.75
1450.5
-3760.37
1347.17
-3678.48
1237.96
-3769.47
1108.4
-4174.1
979.895
-4612.71
891.5
-4747.57
845.293
-4595.73
810.76
-4277.78
755.194
-3834.2
666.896
-3351.17
553.115
-2835.93
403.484
-2493.52
270.363
-2359.3
218.288
-2203.55
204.156
-2083.7
-2053.43
-261.086
-783.711
-257.353
-1098.51
-257.461
-1298.7
-259.292
-1505.18
-262.879
-1705.46
-267.715
-1901.42
-273.758
-2096.18
-280.767
-2292.09
-288.543
-2491.44
-296.853
-2694.52
-305.46
-2900.17
-314.193
-3106.01
-322.79
-3308.01
-330.627
-3501.88
-337.214
-3692.12
-342.465
-3891.14
-346.455
-4097.96
-349.794
-4289.57
-353.607
-4447.36
-357.882
-4576.02
-361.243
-4696
-362.644
-4820.51
-361.614
-4953.91
-357.635
-5091
-350.512
-5219.42
-339.449
-5335.54
-323.373
-5436.29
-301.566
-5509.35
-270.887
-5534.74
-224.702
-5503.86
-155.293
-5424.51
-54.8568
-5308.25
86.8639
-5062.72
260.501
-4562.33
442.783
-3729.32
616.444
-2232.72
871.883
1590.06
1067.54
5370.42
1163.3
8461.04
1122.25
11227.3
1018.72
16376.2
757.841
23049.8
447.907
28899.1
179.275
33737.7
28.4149
35683.5
-282.064
38012.5
-456.848
37235.1
-963.986
31888.6
-2192.4
26575.4
-3138.15
20787.8
-2992.88
9999.9
-1399.31
-7550.5
27.0367
-15584.2
1155.72
-16315.6
1800.91
-14437.4
2096.94
-11880.2
2183.1
-9537.39
2156.89
-7678.38
2076.46
-6282.59
1972.73
-5267.69
1860.74
-4555.34
1747.29
-4079.54
1634.97
-3797.43
1525.62
-3651.03
1420.85
-3573.7
1306.96
-3655.58
1167.56
-4034.71
1029.81
-4474.97
937.282
-4655.04
890.077
-4548.53
854.781
-4242.49
799.982
-3779.4
714.089
-3265.28
605.15
-2727
461.892
-2350.27
319.301
-2216.72
243.416
-2127.68
211.086
-2051.38
-1991.44
-274.103
-790.673
-270.477
-1102.14
-270.565
-1298.61
-272.451
-1503.29
-276.124
-1701.79
-281.099
-1896.45
-287.316
-2089.96
-294.571
-2284.84
-302.685
-2483.33
-311.43
-2685.77
-320.57
-2891.03
-329.925
-3096.65
-339.2
-3298.74
-347.649
-3493.43
-354.655
-3685.11
-360.106
-3885.69
-364.124
-4093.95
-367.368
-4286.33
-371.026
-4443.7
-375.051
-4571.99
-378.07
-4692.98
-378.984
-4819.6
-377.411
-4955.48
-373.211
-5095.21
-366.456
-5226.17
-356.456
-5345.54
-342.24
-5450.5
-323.106
-5528.48
-295.756
-5562.09
-252.879
-5546.73
-185.127
-5492.27
-83.5851
-5409.8
62.6968
-5209.01
251.162
-4750.79
464.088
-3942.24
685.572
-2454.2
995.395
1280.24
1228.63
5137.18
1369.64
8320.03
1361.8
11235.1
1218.68
16519.3
882.017
23386.5
507.813
29273.3
202.609
34042.9
41.8765
35844.2
-277.444
38331.8
-472.626
37430.3
-1069.41
32485.4
-2458.68
27964.7
-3472.8
21802
-3223.11
9750.21
-1427.5
-9346.11
135.004
-17146.7
1336.47
-17517
2003.4
-15104.4
2285.64
-12162.4
2345.88
-9597.63
2294.54
-7627.05
2193.9
-6181.95
2075.31
-5149.1
1953.02
-4433.04
1832.74
-3959.26
1715.81
-3680.49
1603.69
-3538.91
1497.49
-3467.5
1380.46
-3538.55
1233.75
-3887.99
1087.24
-4328.46
988.903
-4556.7
939.521
-4499.14
903.691
-4206.65
849.689
-3725.4
764.993
-3180.58
658.342
-2620.34
520.91
-2212.83
370.889
-2066.69
272.598
-2029.38
214.091
-1992.86
-1924.71
-286.97
-797.478
-283.519
-1105.59
-283.633
-1298.5
-285.614
-1501.31
-289.408
-1698
-294.545
-1891.31
-300.946
-2083.56
-308.446
-2277.34
-316.902
-2474.87
-326.099
-2676.57
-335.802
-2881.32
-345.809
-3086.65
-355.798
-3288.75
-364.942
-3484.28
-372.505
-3677.55
-378.323
-3879.87
-382.552
-4089.72
-385.865
-4283.02
-389.459
-4440.11
-393.303
-4568.15
-396.09
-4690.19
-396.698
-4818.99
-394.79
-4957.39
-390.56
-5099.44
-384.368
-5232.36
-375.687
-5354.22
-363.725
-5462.46
-347.841
-5544.36
-324.542
-5585.39
-285.72
-5585.56
-220.355
-5557.63
-118.352
-5511.8
31.7849
-5359.14
234.836
-4953.84
477.851
-4185.26
740.233
-2716.58
1118.69
901.782
1417.49
4838.38
1603.1
8134.42
1615.53
11222.7
1430.13
16704.7
1014.58
23802.1
572.091
29715.8
228.889
34386.1
57.5038
36015.6
-269.802
38659.1
-487.073
37647.6
-1174.55
33172.9
-2725.25
29515.4
-3819.03
22895.7
-3457.99
9389.17
-1431.91
-11372.2
282.239
-18860.8
1554.48
-18789.3
2236.89
-15786.8
2498.28
-12423.8
2526.34
-9625.69
2445.13
-7545.84
2320.91
-6057.74
2185.09
-5013.28
2050.85
-4298.8
1922.58
-3830.99
1800.29
-3558.2
1684.94
-3423.56
1577.34
-3359.9
1458.75
-3419.97
1307.05
-3736.29
1152.05
-4173.46
1046.26
-4450.92
993.511
-4446.39
956.796
-4169.94
902.887
-3671.49
818.08
-3095.78
711.608
-2513.88
579.105
-2080.34
426.171
-1913.76
307.306
-1910.52
226.585
-1912.15
-1839.01
-299.718
-804.056
-296.492
-1108.81
-296.669
-1298.32
-298.781
-1499.2
-302.739
-1694.04
-308.075
-1885.98
-314.686
-2076.95
-322.44
-2269.59
-331.239
-2466.07
-340.902
-2666.91
-351.195
-2871.03
-361.887
-3075.95
-372.624
-3278.01
-382.533
-3474.37
-390.766
-3669.32
-397.106
-3873.53
-401.723
-4085.1
-405.283
-4279.46
-408.944
-4436.45
-412.701
-4564.39
-415.37
-4687.53
-415.876
-4818.48
-413.911
-4959.35
-409.943
-5103.4
-404.61
-5237.7
-397.615
-5361.22
-388.413
-5471.67
-376.456
-5556.32
-357.99
-5603.85
-323.976
-5619.57
-261.734
-5619.87
-159.995
-5613.54
-6.65215
-5512.49
209.633
-5170.13
481.016
-4456.64
774.174
-3009.74
1233.89
442.065
1625
4447.28
1861.1
7898.32
1881.29
11202.5
1649.13
16936.8
1154.6
24296.6
640.599
30229.8
258.083
34768.6
75.8928
36197.8
-257.36
38992.3
-498.283
37888.5
-1278.14
33952.8
-2992.7
31229.9
-4179.47
24082.5
-3695.96
8905.66
-1408.57
-13659.6
475.913
-20745.3
1816.5
-20129.9
2506.24
-16476.5
2738.21
-12655.8
2726.91
-9614.39
2610.5
-7429.43
2458.91
-5906.15
2303.17
-4857.53
2155.03
-4150.67
2017.39
-3693.35
1888.84
-3429.65
1769.65
-3304.37
1660.59
-3250.85
1541.88
-3301.25
1387.35
-3581.76
1224.15
-4010.27
1109.44
-4336.2
1052.05
-4389
1013.6
-4131.49
958.553
-3616.44
872.266
-3009.49
764.283
-2405.89
635.141
-1951.19
483.515
-1762.13
349.262
-1776.26
244.302
-1807.18
-1740.95
-312.364
-810.359
-309.4
-1111.78
-309.674
-1298.05
-311.945
-1496.93
-316.109
-1689.87
-321.692
-1880.39
-328.555
-2070.09
-336.587
-2261.55
-345.737
-2456.92
-355.871
-2656.78
-366.776
-2860.12
-378.195
-3064.54
-389.721
-3266.49
-400.447
-3463.65
-409.434
-3660.33
-416.425
-3866.54
-421.593
-4079.93
-425.578
-4275.47
-429.456
-4432.57
-433.248
-4560.6
-435.933
-4684.84
-436.557
-4817.86
-434.873
-4961.03
-431.559
-5106.72
-427.498
-5241.76
-422.687
-5366.03
-416.903
-5477.45
-409.688
-5563.54
-396.912
-5616.63
-368.474
-5648.01
-310.101
-5678.24
-209.39
-5714.25
-53.4803
-5668.4
173.973
-5397.58
471.385
-4754.05
780.313
-3318.67
1328.62
-106.241
1835.22
3940.68
2137.37
7596.16
2161.3
11178.6
1877.57
17220.6
1303.78
24870.4
714.768
30818.8
290.88
35192.5
97.1916
36391.5
-239.179
39328.7
-506.561
38155.9
-1382.63
34828.8
-3261.69
33109
-4548.03
25368.8
-3928.85
8286.49
-1351.76
-16236.7
723.758
-22820.9
2130.07
-21536.2
2817.03
-17163.5
3009.31
-12848.1
2950.43
-9555.51
2792.87
-7271.87
2609.66
-5722.94
2430.92
-4678.79
2266.64
-3986.38
2117.96
-3544.67
1982
-3293.7
1858.19
-3180.56
1747.42
-3140.08
1629.65
-3183.49
1474.25
-3426.36
1303.35
-3839.37
1178.38
-4211.23
1115.06
-4325.69
1073.88
-4090.31
1016.33
-3558.9
927.15
-2920.32
816.198
-2294.94
688.489
-1823.49
539.813
-1613.46
395.665
-1632.13
266.209
-1677.74
-1622.8
-324.926
-816.358
-322.249
-1114.45
-322.656
-1297.64
-325.105
-1494.48
-329.504
-1685.48
-335.381
-1874.52
-342.553
-2062.92
-350.907
-2253.2
-360.427
-2447.4
-371.034
-2646.17
-382.568
-2848.59
-394.765
-3052.34
-407.131
-3254.12
-418.709
-3452.07
-428.502
-3650.54
-436.239
-3858.8
-442.107
-4074.06
-446.687
-4270.89
-450.929
-4428.33
-454.897
-4556.63
-457.77
-4681.97
-458.758
-4816.87
-457.741
-4962.05
-455.564
-5108.89
-453.306
-5244.02
-451.328
-5368.01
-449.796
-5478.98
-448.298
-5565.04
-442.16
-5622.77
-420.084
-5670.08
-366.349
-5731.98
-267.525
-5813.07
-109.856
-5826.06
126.854
-5634.29
446.31
-5073.51
797.169
-3669.53
1408.55
-717.626
2034.76
3314.48
2423.16
7207.76
2459.89
11141.8
2124.62
17555.8
1468.46
25526.5
798.178
31489.1
329.292
35661.4
121.2
36599.6
-215.943
39665.9
-515.498
38455.5
-1493.82
35807.1
-3536.74
35151.9
-4926.97
26759.1
-4149.87
7509.39
-1253.16
-19133.4
1034.18
-25108.2
2503.33
-23005.3
3175.47
-17835.6
3316.02
-12988.6
3200.18
-9439.67
2994.86
-7066.54
2775.31
-5503.4
2570.09
-4473.56
2387
-3803.3
2225.25
-3382.92
2080.44
-3148.89
1951.05
-3051.16
1838.03
-3027.06
1721.75
-3067.21
1567.11
-3271.72
1389.22
-3661.48
1252.82
-4074.83
1182.25
-4255.12
1137.35
-4045.4
1076.05
-3497.59
982.6
-2826.87
867.3
-2179.64
739.026
-1695.21
593.481
-1467.91
443.065
-1481.7
298.069
-1532.73
-1488.11
-337.421
-822.04
-335.044
-1116.83
-335.614
-1297.07
-338.26
-1491.84
-342.912
-1680.82
-349.121
-1868.31
-356.661
-2055.37
-365.399
-2244.46
-375.327
-2437.47
-386.421
-2635.08
-398.6
-2836.41
-411.613
-3039.33
-424.872
-3240.86
-437.339
-3439.6
-447.967
-3639.91
-456.502
-3850.27
-463.199
-4067.37
-468.549
-4265.54
-473.305
-4423.57
-477.605
-4552.33
-480.87
-4678.7
-482.507
-4815.23
-482.587
-4961.97
-482.109
-5109.37
-482.306
-5243.82
-483.968
-5366.34
-487.709
-5475.24
-493.07
-5559.67
-494.603
-5621.23
-479.698
-5684.99
-431.401
-5780.28
-335.487
-5908.99
-177.185
-5984.37
66.9913
-5878.47
404.897
-5411.42
830.464
-4095.09
1490.98
-1378.14
2219.62
2585.84
2708.85
6718.52
2782.86
11067.8
2407.74
17930.9
1662.53
26271.8
897.103
32254.5
376.452
36182
147.698
36828.3
-190.153
40003.7
-531.697
38797
-1619.58
36895
-3821.25
37353.6
-5297.54
28235.4
-4346.23
6558.08
-1101.22
-22378.4
1416.5
-27625.9
2944.82
-24533.6
3588.26
-18479.1
3663.2
-13063.6
3479.92
-9256.39
3219.54
-6806.16
2958.43
-5242.3
2722.75
-4237.88
2517.77
-3598.33
2340.53
-3205.69
2185.15
-2993.51
2048.98
-2914.99
1932.72
-2910.8
1817.75
-2952.25
1665.1
-3119.07
1481.23
-3477.61
1332.5
-3926.1
1253.14
-4175.77
1203.32
-3995.58
1137.04
-3431.32
1038.04
-2727.87
917.203
-2058.8
786.693
-1564.7
643.933
-1325.16
491.278
-1329.06
328.092
-1369.56
-1334.04
-349.839
-827.398
-347.768
-1118.9
-348.53
-1296.31
-351.396
-1488.97
-356.316
-1675.9
-362.886
-1861.74
-370.853
-2047.41
-380.05
-2235.26
-390.446
-2427.08
-402.062
-2623.46
-414.903
-2823.57
-428.741
-3025.49
-442.931
-3226.67
-456.321
-3426.21
-467.809
-3628.42
-477.179
-3840.9
-484.809
-4059.74
-491.109
-4259.24
-496.567
-4418.12
-501.389
-4547.51
-505.277
-4674.81
-507.888
-4812.62
-509.548
-4960.31
-511.406
-5107.51
-514.832
-5240.39
-521.101
-5360.08
-531.312
-5465.03
-544.811
-5546.17
-555.114
-5610.93
-548.198
-5691.91
-506.177
-5822.3
-414.315
-6000.85
-256.702
-6141.98
-7.30344
-6127.87
347.727
-5766.45
837.828
-4585.19
1551.27
-2091.58
2383.99
1753.12
2989.27
6113.24
3135.12
10922
2744.18
18321.9
1905.04
27110.9
1022.1
33137.5
436.631
36767.5
176.706
37088.3
-165.753
40346.2
-563.124
39194.4
-1766.51
38098.4
-4111.69
39698.8
-5610.59
29734.3
-4496.01
5443.5
-876.908
-25997.5
1881.45
-30384.3
3463.34
-26115.5
4062.25
-19078
4055.97
-13057.3
3793.72
-8994.13
3470.41
-6482.85
3162.02
-4933.9
2891.42
-3967.28
2660.96
-3367.87
2465.43
-3010.15
2297.48
-2825.56
2152.95
-2770.46
2031.95
-2789.8
1917.43
-2837.73
1767.47
-2969.1
1578.76
-3288.9
1416.97
-3764.31
1326.79
-4085.59
1270.24
-3939.03
1197.65
-3358.73
1092.12
-2622.34
965.032
-1931.71
831.382
-1431.05
691.086
-1184.86
537.96
-1175.93
362.252
-1193.84
-1150.59
-362.165
-832.435
-360.391
-1120.68
-361.37
-1295.33
-364.486
-1485.85
-369.698
-1670.69
-376.654
-1854.78
-385.099
-2038.96
-394.83
-2225.53
-405.777
-2416.13
-417.975
-2611.26
-431.502
-2810.04
-446.165
-3010.82
-461.284
-3211.55
-475.611
-3411.89
-487.983
-3616.05
-498.231
-3830.65
-506.891
-4051.07
-514.328
-4251.8
-520.732
-4411.71
-526.323
-4541.92
-531.116
-4670.02
-535.089
-4808.65
-538.879
-4956.52
-543.797
-5102.6
-551.356
-5232.83
-563.358
-5348.07
-581.379
-5447.01
-604.383
-5523.17
-624.558
-5590.76
-626.437
-5690.03
-591.576
-5857.16
-505.012
-6087.41
-349.51
-6297.48
-97.4044
-6379.97
272.615
-6136.47
812.916
-5125.49
1565.62
-2844.28
2513.93
804.814
3260.17
5367
3513.77
10668.4
3132.87
18702.8
2206.62
28037.1
1187.15
34156.9
516.531
37438.1
208.656
37396.1
-147.36
40702.2
-616.81
39663.8
-1937.51
39419.1
-4401.27
42162.5
-5889.81
31222.8
-4514.71
4068.4
-552.685
-29959.5
2442.04
-33379
4067.68
-27741.2
4604.08
-19614.4
4499.39
-12952.6
4145.85
-8640.59
3751.32
-6088.32
3389.52
-4572.11
3079.1
-3656.86
2819.06
-3107.84
2601.92
-2793.02
2418.91
-2642.55
2264.09
-2615.64
2136.57
-2662.28
2020.96
-2722.14
1873.61
-2821.75
1681.07
-3096.36
1505.33
-3588.58
1401.55
-3981.81
1335.79
-3873.28
1255.45
-3278.39
1142.93
-2509.82
1009.69
-1798.47
872.918
-1294.29
735.035
-1046.98
580.595
-1021.5
394.603
-1007.86
-941.696
-374.379
-837.157
-372.891
-1122.16
-374.104
-1294.12
-377.501
-1482.46
-383.033
-1665.16
-390.402
-1847.41
-399.369
-2030
-409.701
-2215.2
-421.286
-2404.55
-434.153
-2598.39
-448.412
-2795.78
-463.899
-2995.34
-479.928
-3195.52