/*--------------------------------*- C++ -*----------------------------------*\
| =========                 |                                                 |
| \\      /  F ield         | OpenFOAM: The Open Source CFD Toolbox           |
|  \\    /   O peration     | Version:  4.1                                   |
|   \\  /    A nd           | Web:      www.OpenFOAM.org                      |
|    \\/     M anipulation  |                                                 |
\*---------------------------------------------------------------------------*/
FoamFile
{
    version     2.0;
    format      ascii;
    class       volVectorField;
    location    "2";
    object      U;
}
// * * * * * * * * * * * * * * * * * * * * * * * * * * * * * * * * * * * * * //

dimensions      [0 1 -1 0 0 0 0];

internalField   nonuniform List<vector> 
6785
(
(1.52409e-14 -0.60715 16.118)
(1.02581e-14 -6.48661 12.5085)
(-2.77829e-15 -4.71837 12.8485)
(4.14818e-15 -4.17628 12.6313)
(8.40026e-16 -3.55634 12.4757)
(-9.47758e-17 -3.07631 12.2695)
(2.31629e-15 -2.68266 12.0346)
(6.02011e-16 -2.38936 11.7598)
(-3.11352e-16 -2.18976 11.4439)
(2.09667e-15 -2.05546 11.0979)
(1.60644e-16 -1.99542 10.7204)
(-4.69876e-16 -2.17364 10.2221)
(1.02253e-15 -2.5162 9.56689)
(1.38581e-16 -1.74518 8.95954)
(-8.14712e-16 0.901833 6.84392)
(1.74607e-14 -7.38017 26.215)
(1.49172e-14 -16.587 21.87)
(-3.40481e-15 -11.6979 22.3437)
(5.4017e-15 -11.8909 20.9727)
(8.37041e-16 -10.9568 19.9961)
(3.90681e-16 -10.2336 18.9725)
(3.01671e-15 -9.50583 17.9622)
(2.44207e-16 -8.80525 16.9525)
(-1.80808e-16 -8.13161 15.925)
(2.07123e-15 -7.4689 14.9038)
(-1.36642e-16 -6.83268 14.0155)
(-3.97913e-16 -6.31199 13.1092)
(8.84111e-16 -5.37239 10.7651)
(2.27596e-16 -2.06064 4.82082)
(2.47908e-17 2.38975 -2.53466)
(1.78788e-14 -10.2009 28.2641)
(1.28278e-14 -17.8075 24.4195)
(-2.14362e-15 -12.0236 25.0066)
(4.94613e-15 -12.8527 22.8678)
(6.63348e-16 -11.3794 21.7292)
(1.26763e-15 -10.5816 20.3214)
(1.85709e-15 -9.69335 18.9811)
(5.69353e-18 -8.87421 17.6451)
(3.07704e-16 -8.10631 16.3423)
(3.79938e-16 -7.41698 15.1093)
(-2.60442e-16 -6.73602 13.8372)
(1.00906e-17 -5.55585 11.633)
(-7.83252e-16 -2.47066 6.3427)
(-4.39255e-17 2.64109 -2.57031)
(-8.56597e-16 1.74892 -4.94828)
(1.96869e-14 -11.0704 27.1421)
(1.09617e-14 -17.7261 24.1136)
(-1.40218e-15 -11.7692 24.544)
(5.96034e-15 -13.5195 21.7276)
(-8.04933e-16 -11.5312 20.7447)
(2.86898e-15 -11.0529 19.0326)
(2.82915e-15 -10.1497 17.5919)
(-1.39438e-15 -9.40158 16.1117)
(1.88295e-15 -8.67361 14.6782)
(1.5401e-15 -8.01307 13.3124)
(-9.90866e-16 -7.38916 11.9696)
(8.3532e-16 -6.4535 10.0853)
(1.33299e-15 -4.27499 6.28896)
(-1.65121e-15 -1.26316 1.69871)
(-2.51029e-15 0.594484 -3.87923)
(1.86109e-14 -11.1392 25.5336)
(1.11342e-14 -17.4516 24.4181)
(-1.94167e-15 -12.0108 24.1004)
(4.86339e-15 -13.5886 21.1525)
(-7.7678e-16 -11.6594 20.1576)
(8.57344e-16 -11.1777 18.4123)
(2.18178e-15 -10.3198 16.9165)
(-7.08635e-16 -9.53116 15.4056)
(8.63228e-17 -8.75474 13.9159)
(3.64726e-16 -8.00309 12.4907)
(-2.18661e-15 -7.2899 11.1472)
(-1.81022e-15 -6.4628 9.66406)
(-1.30485e-15 -5.09715 7.24871)
(-4.99003e-15 -2.79263 4.05324)
(-9.67732e-15 -0.674767 -1.00872)
(1.98477e-14 -10.9904 24.1646)
(1.37397e-14 -16.993 24.4777)
(3.8721e-16 -12.0986 23.7435)
(4.61077e-15 -13.2976 20.7984)
(1.19305e-15 -11.4683 19.8028)
(1.86662e-15 -10.9582 18.0916)
(2.80607e-15 -10.1166 16.6012)
(1.04717e-15 -9.32165 15.1432)
(1.09633e-15 -8.58891 13.7506)
(1.07601e-16 -7.8792 12.4504)
(-1.33561e-16 -7.18796 11.1992)
(7.06761e-16 -6.42035 9.92867)
(-1.22853e-15 -5.48539 8.24561)
(-9.03613e-16 -3.79829 5.94904)
(6.57338e-15 -1.55577 1.07337)
(2.20381e-14 -11.0077 23.4096)
(1.5211e-14 -16.3993 23.909)
(2.2369e-15 -11.8459 23.3084)
(4.59481e-15 -13.0889 20.2727)
(3.38419e-15 -11.0521 19.4123)
(4.53955e-15 -10.7379 17.5814)
(3.22055e-15 -9.7991 16.1793)
(3.31353e-15 -9.12713 14.802)
(5.1667e-15 -8.52507 13.5656)
(2.6401e-16 -7.96429 12.3876)
(1.36033e-15 -7.42439 11.274)
(4.17294e-15 -6.84644 10.2961)
(4.18094e-16 -6.24735 9.26602)
(-2.76912e-15 -5.13462 7.8415)
(8.17578e-15 -3.11983 4.00236)
(1.99545e-14 -11.4601 23.3755)
(1.35924e-14 -15.6916 23.3157)
(1.16404e-15 -11.6421 22.9465)
(4.60797e-15 -12.8248 19.9469)
(2.16066e-15 -10.5533 19.1353)
(3.46331e-15 -10.3698 17.1328)
(1.6507e-15 -9.13722 15.7029)
(2.70766e-15 -8.38857 13.935)
(3.22971e-15 -7.65616 12.4033)
(1.51675e-15 -7.28371 11.281)
(2.27813e-15 -7.1481 10.7252)
(1.99219e-15 -7.09095 10.5592)
(-1.37477e-15 -7.04657 10.5358)
(-3.68893e-15 -6.60505 10.0004)
(7.22233e-16 -4.7678 7.25035)
(1.98324e-14 -12.1165 23.8644)
(1.1349e-14 -15.5183 23.7672)
(-1.28369e-15 -11.7858 23.0749)
(4.06519e-15 -12.6052 20.4414)
(1.13116e-15 -10.3725 19.5002)
(4.54761e-16 -9.98825 17.4613)
(2.58394e-15 -8.3596 15.6351)
(3.68798e-15 -6.97004 12.9036)
(2.26992e-15 -5.49687 10.4392)
(4.43141e-15 -4.90675 9.10294)
(1.75823e-15 -5.10269 9.10105)
(-2.06175e-15 -5.91132 10.0101)
(-8.01889e-16 -6.9565 11.3292)
(-3.5536e-15 -7.46015 11.8594)
(-7.16154e-15 -5.57966 9.72962)
(1.73609e-14 -12.2145 23.6123)
(1.17536e-14 -16.472 25.8068)
(-1.97661e-15 -12.3613 23.9969)
(1.70596e-15 -12.9918 21.5742)
(5.07362e-16 -10.7682 20.6196)
(-3.37291e-16 -10.3412 18.5811)
(6.63319e-16 -8.49104 16.6208)
(4.69416e-15 -6.75066 13.4681)
(5.02646e-15 -4.64914 10.4263)
(4.40505e-15 -3.29828 8.25017)
(3.42343e-15 -2.60422 7.05781)
(-8.61614e-16 -2.75663 6.926)
(-2.95683e-15 -3.9382 8.25239)
(-2.20722e-15 -5.41768 10.1545)
(-5.31669e-15 -4.49085 9.11403)
(1.49732e-14 -11.447 21.8171)
(1.4597e-14 -17.4215 27.7566)
(-1.75718e-15 -13.7211 25.561)
(1.99427e-15 -13.795 22.8227)
(1.12677e-15 -11.6962 21.7942)
(-1.88163e-15 -11.3685 19.8375)
(1.30071e-15 -9.67131 18.1225)
(4.64084e-15 -8.13869 15.2923)
(2.83499e-15 -5.96273 12.2489)
(6.89079e-15 -4.12259 9.46372)
(5.81141e-15 -2.50688 7.00371)
(-1.77358e-15 -1.14511 4.81127)
(-1.56424e-15 -0.477372 3.67429)
(-9.5031e-15 -1.22569 4.49373)
(-7.0844e-15 -2.06327 5.56205)
(1.4225e-14 -10.0601 18.7174)
(1.74894e-14 -17.3851 28.0528)
(2.87776e-15 -15.0616 26.6658)
(2.59845e-15 -14.3546 23.5878)
(1.96612e-15 -12.6135 22.1438)
(-7.40606e-16 -12.1473 20.3857)
(1.51763e-15 -10.9349 18.8721)
(3.6823e-15 -9.79064 16.7445)
(2.54273e-15 -8.16039 14.2859)
(5.62926e-15 -6.41969 11.658)
(5.13593e-15 -4.52232 8.87453)
(2.91279e-16 -2.43 5.78218)
(2.4562e-15 -0.138465 2.52877)
(-5.4911e-15 1.30941 -0.0236095)
(-5.75455e-15 0.193878 0.367)
(1.16646e-14 -8.62628 15.5229)
(1.84698e-14 -16.7463 27.2685)
(8.18497e-15 -15.8426 27.1013)
(3.32836e-15 -14.7639 24.0294)
(3.14071e-15 -13.2406 22.0878)
(2.81185e-15 -12.5627 20.3389)
(3.17669e-15 -11.6443 18.8538)
(6.36795e-15 -10.7381 17.1626)
(4.1174e-15 -9.62566 15.2736)
(4.76134e-15 -8.35826 13.2179)
(5.10794e-15 -6.92922 10.9712)
(2.23681e-15 -5.27007 8.46104)
(2.85784e-15 -3.31519 5.5645)
(3.60633e-15 -1.04911 2.41683)
(-1.4627e-14 0.250842 -1.14227)
(8.76716e-15 -6.92996 11.5892)
(1.74833e-14 -15.5332 25.2839)
(8.09648e-15 -15.5889 26.1191)
(1.76106e-15 -14.0229 22.9071)
(-3.82622e-16 -12.4734 20.8815)
(-2.57101e-15 -11.8478 19.4073)
(-5.44965e-15 -11.1154 18.1419)
(-7.19773e-15 -10.377 16.6782)
(-8.11729e-15 -9.50998 15.0684)
(-7.42045e-15 -8.51822 13.3432)
(-8.7085e-15 -7.41118 11.4618)
(-8.61953e-15 -6.09752 9.38417)
(-6.9562e-15 -4.55822 6.90975)
(-1.06005e-14 -2.49235 3.98027)
(-2.13566e-14 -0.626864 -0.333052)
(6.41007e-15 -5.27112 9.69184)
(1.72048e-14 -15.2897 24.3831)
(1.27953e-14 -18.349 28.0732)
(7.09177e-15 -17.9625 26.0834)
(7.16098e-15 -15.9911 22.6415)
(1.46696e-14 -14.2103 19.7592)
(2.61817e-14 -12.9333 17.7294)
(2.94212e-14 -12.034 16.2382)
(3.01157e-14 -11.2689 14.8845)
(2.91626e-14 -10.4763 13.5521)
(2.6227e-14 -9.5679 12.2022)
(2.68792e-14 -8.5056 10.7423)
(3.11108e-14 -7.18311 9.09948)
(3.41123e-14 -5.43515 6.94673)
(6.19493e-14 -2.34022 3.19396)
(-1.08882e-17 -0.0111797 -0.0107361)
(-1.21288e-16 0.105784 -0.119557)
(-1.80995e-17 0.169373 0.0330575)
(-7.76841e-18 0.177449 0.0144912)
(-1.76949e-17 0.153258 -0.0121625)
(-1.08705e-16 0.305511 -0.0699866)
(-7.46967e-18 0.305159 0.087139)
(-1.27795e-17 0.328779 0.0562392)
(-4.53477e-17 0.293517 0.0173049)
(1.55135e-15 0.436442 0.0163495)
(4.82942e-16 0.421559 0.133544)
(3.95051e-16 0.413859 0.0891972)
(3.89376e-16 0.556774 0.147395)
(2.25883e-16 0.478095 0.183122)
(1.51551e-16 0.518338 0.120987)
(1.57944e-16 0.4695 0.0635333)
(-4.924e-16 0.616979 0.138964)
(4.12582e-16 0.529824 0.162808)
(6.20683e-16 0.533124 0.107374)
(9.6706e-16 0.669059 0.189825)
(5.21674e-16 0.535166 0.157747)
(-2.41827e-16 0.584746 0.0980032)
(1.83401e-16 0.532141 0.0511632)
(6.97974e-16 0.692059 0.121523)
(5.90401e-16 0.533475 0.105369)
(1.2939e-15 0.584439 0.0699131)
(-9.01031e-17 0.538006 0.0437565)
(-1.29053e-15 0.664811 0.0870351)
(-2.17407e-15 0.534405 0.0582346)
(-1.82232e-15 0.546649 0.0396807)
(-1.46412e-15 0.658925 0.0509354)
(-1.34325e-15 0.50544 0.00695757)
(-6.60249e-16 0.561159 -0.00389654)
(-1.00115e-15 0.517474 0.0038546)
(-1.58087e-15 0.627002 -0.0223488)
(-9.26957e-16 0.503313 -0.054129)
(-5.67138e-16 0.520179 -0.0340275)
(-3.95325e-16 0.613117 -0.0912789)
(-1.66818e-16 0.474763 -0.122683)
(-1.55613e-16 0.537424 -0.0979664)
(4.99044e-16 0.493914 -0.0430568)
(1.1215e-15 0.617821 -0.130088)
(7.67237e-16 0.4725 -0.190057)
(4.13264e-16 0.535005 -0.150012)
(1.21268e-16 0.496577 -0.0540482)
(1.16771e-16 0.587281 -0.180459)
(-5.11186e-16 0.50122 -0.27548)
(-4.1203e-16 0.526461 -0.183323)
(2.56062e-16 0.622272 -0.39431)
(1.00593e-15 0.511867 -0.526333)
(7.89029e-16 0.605037 -0.515105)
(6.01102e-16 0.571776 -0.30952)
(1.67545e-15 0.744804 -0.575391)
(9.88636e-16 0.647746 -0.619017)
(7.54057e-16 0.740524 -0.687877)
(8.70383e-16 0.727212 -0.533239)
(1.8019e-15 0.852922 -0.772315)
(1.4666e-15 0.745105 -0.633311)
(8.75829e-16 0.815619 -0.568916)
(1.98779e-16 0.752986 -0.740781)
(5.69046e-16 0.559462 -0.767688)
(1.48769e-16 0.635936 -0.80962)
(-5.72674e-17 0.676569 -0.673845)
(4.43636e-15 0.568847 -1.29629)
(3.90068e-15 0.159454 -1.14817)
(2.0668e-15 0.314179 -0.859732)
(1.93351e-14 0.219427 -2.75965)
(3.3507e-15 -0.440691 -0.378712)
(-1.03813e-15 -0.200249 0.473672)
(-5.81607e-15 -0.334768 1.02932)
(-4.06565e-14 -0.644104 4.75669)
(-5.63779e-14 -1.76776 5.89791)
(-5.76824e-14 -2.02282 5.67624)
(-6.28282e-14 -2.20309 5.89561)
(-1.01135e-13 -3.74853 9.33682)
(-8.50464e-14 -4.12527 8.05606)
(-8.69524e-14 -4.29644 8.35483)
(-1.21488e-13 -6.51189 12.203)
(-8.96184e-14 -6.42369 9.62893)
(-8.89052e-14 -6.80451 10.2342)
(-8.99676e-14 -7.51903 11.968)
(-8.55955e-14 -7.36914 11.6211)
(-8.32316e-14 -7.4755 11.7948)
(-1.11249e-13 -8.80732 13.8024)
(-8.40001e-14 -8.06492 12.4506)
(-8.461e-14 -8.27373 12.8834)
(-8.35169e-14 -8.26826 12.8963)
(-8.32848e-14 -8.32408 12.8664)
(-8.3776e-14 -8.39258 12.855)
(-8.45436e-14 -8.44467 12.854)
(-8.53189e-14 -8.47377 12.9614)
(-8.63651e-14 -8.54501 13.1344)
(-1.14229e-13 -8.99639 14.1539)
(-9.08558e-14 -8.97246 13.4355)
(-8.87553e-14 -9.03772 13.4777)
(-8.39378e-14 -9.0292 13.4917)
(-8.0081e-14 -9.13334 13.698)
(-7.57509e-14 -9.11179 13.626)
(-7.0751e-14 -9.17493 13.6335)
(-6.57568e-14 -9.16064 13.6228)
(-6.17726e-14 -9.22616 13.6378)
(-8.57268e-14 -9.59992 14.5863)
(-6.8355e-14 -9.59053 14.0444)
(-6.97077e-14 -9.62241 14.0856)
(-7.09631e-14 -9.64954 14.0897)
(-7.32288e-14 -9.66489 14.1227)
(-7.63921e-14 -9.6786 14.2242)
(-8.01082e-14 -9.72073 14.3573)
(-8.38629e-14 -9.71326 14.3747)
(-8.65852e-14 -9.69807 14.4674)
(-8.89124e-14 -9.78222 14.5885)
(-1.1467e-13 -9.84931 15.2822)
(-9.17758e-14 -10.0298 14.9682)
(-9.16185e-14 -10.0295 15.1107)
(-8.93755e-14 -10.0353 15.2437)
(-8.96489e-14 -10.0441 15.4238)
(-9.14595e-14 -10.0495 15.6634)
(-9.53121e-14 -10.0756 16.0671)
(-1.0046e-13 -10.0539 16.4053)
(-1.06356e-13 -10.1738 16.7264)
(-1.35161e-13 -9.8102 17.1668)
(-1.11893e-13 -10.1139 17.0102)
(-1.13996e-13 -10.0847 17.5429)
(-1.10627e-13 -10.0968 18.0324)
(-1.06511e-13 -10.0672 18.4304)
(-1.00393e-13 -10.0999 18.9262)
(-9.26305e-14 -10.1114 19.465)
(-8.38655e-14 -10.1195 20.0778)
(-7.68365e-14 -10.3354 20.8526)
(-6.9904e-14 -8.94742 20.4129)
(-5.15039e-14 -9.62717 20.4773)
(-4.23626e-14 -9.5616 20.9453)
(-3.65769e-14 -9.5345 21.2652)
(-3.24199e-14 -9.5745 21.7945)
(-2.85479e-14 -9.53982 21.9548)
(-2.49884e-14 -9.50206 21.9526)
(-2.14229e-14 -9.54062 21.8651)
(-1.78712e-14 -9.57634 21.6204)
(-1.22159e-14 -7.12844 18.7788)
(-6.11631e-15 -8.16109 19.4599)
(-9.32265e-16 -7.94986 18.747)
(2.83381e-15 -7.98042 18.1603)
(6.01502e-15 -7.89139 17.4839)
(8.25121e-15 -7.80702 16.8136)
(1.01026e-14 -7.70601 16.3374)
(9.97867e-15 -7.50998 15.4053)
(9.35034e-15 -7.40127 14.5809)
(8.27361e-15 -7.21334 13.6151)
(4.85141e-15 -3.64747 7.57937)
(5.39105e-15 -5.47685 10.6669)
(4.08094e-15 -4.96691 9.14093)
(3.65287e-15 -5.03836 8.35028)
(3.56793e-15 -4.72465 7.11843)
(3.36519e-15 -4.68272 5.77076)
(2.46601e-15 -4.47405 3.66604)
(1.18378e-15 -4.02998 1.81344)
(7.8726e-16 -4.09961 1.89991)
(-1.63447e-15 -3.39877 -0.500837)
(4.97484e-16 -3.56601 1.17894)
(2.84861e-17 -3.49515 0.51624)
(-1.11511e-15 -2.41587 -1.40236)
(-6.91895e-16 -4.18993 -0.497655)
(-1.21742e-15 -3.293 -0.627235)
(-9.72292e-16 -2.9871 -0.344159)
(-1.95951e-15 -3.90658 -0.505479)
(-1.2546e-15 -2.63709 -0.268312)
(-1.75705e-15 -3.67239 -0.415093)
(-1.81902e-15 -3.30734 -0.300274)
(-9.66145e-16 -2.64057 -0.20109)
(-1.43424e-15 -3.42781 -0.31339)
(-1.22359e-15 -3.10677 -0.250899)
(-1.05083e-15 -2.69222 -0.160426)
(-1.50259e-15 -3.61811 -0.227373)
(-1.23897e-15 -2.42557 -0.129199)
(-2.11828e-15 -3.3336 -0.20039)
(-1.19141e-15 -2.9274 -0.183435)
(-1.12739e-15 -2.5592 -0.122073)
(-1.81894e-15 -3.41949 -0.175505)
(-6.82884e-16 -2.28793 -0.103391)
(-9.79508e-16 -3.19689 -0.163732)
(-6.81457e-16 -2.84474 -0.167587)
(-5.51017e-16 -2.26915 -0.121306)
(-8.11644e-16 -2.91698 -0.205361)
(-1.12843e-15 -2.58473 -0.206953)
(-3.7358e-16 -2.22839 -0.148644)
(-6.80666e-16 -2.95439 -0.227155)
(-7.02498e-16 -1.95758 -0.150855)
(-8.52602e-16 -2.64323 -0.25252)
(-7.34964e-16 -2.2125 -0.245121)
(-6.64847e-16 -1.92221 -0.184818)
(-8.80076e-16 -2.503 -0.286942)
(-6.73439e-16 -1.64078 -0.195852)
(-1.03333e-15 -2.22122 -0.331233)
(-5.46848e-16 -1.84607 -0.309884)
(-4.42949e-16 -1.46988 -0.244861)
(-9.05647e-16 -1.79323 -0.409586)
(-5.79566e-16 -1.46457 -0.373069)
(-4.62836e-16 -1.23798 -0.293493)
(-7.96674e-16 -1.5537 -0.438091)
(-6.6256e-16 -0.978289 -0.310215)
(-8.66636e-16 -1.23637 -0.502444)
(-1.34209e-15 -0.863852 -0.435774)
(-1.51734e-15 -0.724494 -0.345261)
(-2.6964e-15 -0.822197 -0.501907)
(-5.6437e-16 -0.464512 -0.356989)
(-1.03566e-15 -0.514364 -0.584509)
(-2.50016e-15 -0.172859 -0.517785)
(2.60799e-16 -0.105322 -0.414637)
(3.8984e-16 0.0706843 -0.679401)
(4.96937e-16 0.333991 -0.603481)
(7.23788e-16 0.340884 -0.440011)
(4.18893e-15 0.631324 -0.604247)
(-1.21609e-16 0.542958 -0.400571)
(-4.27097e-15 0.853147 -0.555425)
(-3.96444e-15 1.0859 -0.748441)
(-1.83499e-15 0.899612 -0.527643)
(-2.79022e-15 1.56409 -0.722009)
(-2.02803e-15 1.19465 -0.516988)
(-1.91767e-15 1.60365 -0.598593)
(-1.5262e-15 1.89779 -0.707802)
(-7.69051e-16 1.5326 -0.480051)
(-1.66039e-15 2.01933 -0.563738)
(9.85277e-17 2.39554 -0.694524)
(7.49409e-17 1.81518 -0.467017)
(4.42806e-16 2.81957 -0.634192)
(2.58606e-16 2.15642 -0.413488)
(3.88546e-16 2.6032 -0.487236)
(2.86056e-16 3.10969 -0.51099)
(4.86151e-16 2.33431 -0.294275)
(9.63467e-16 3.54741 -0.365785)
(8.17306e-16 2.68868 -0.180593)
(6.85183e-16 3.19761 -0.210063)
(8.69293e-16 3.69184 -0.149068)
(4.13062e-16 2.87575 -0.0184546)
(1.42415e-16 3.59174 -0.0106883)
(-2.53857e-16 4.15757 0.0752812)
(-2.58324e-16 3.00876 0.105549)
(-1.83545e-16 4.51161 0.139811)
(-1.83505e-17 3.32077 0.165604)
(7.94493e-16 4.06765 0.202671)
(-5.48688e-52 0.983092 0.933835)
(-1.73153e-51 1.43658 0.924764)
(-5.32925e-51 1.74456 0.948171)
(-1.75045e-50 2.03263 0.963324)
(-6.21198e-50 2.31551 0.987455)
(-2.34883e-49 2.58722 1.01138)
(-9.22556e-49 2.85797 1.04033)
(-3.64135e-48 3.12762 1.07169)
(-1.40718e-47 3.40076 1.10615)
(-5.21855e-47 3.67613 1.14421)
(-1.83907e-46 3.95086 1.18101)
(-6.10415e-46 4.22454 1.21482)
(-1.8917e-45 4.49509 1.24919)
(-5.54073e-45 4.75403 1.28943)
(-1.61783e-44 5.00359 1.33238)
(-4.88545e-44 5.26467 1.37284)
(-1.38101e-43 5.53587 1.421)
(-2.28445e-43 5.78463 1.46682)
(5.88205e-43 5.99911 1.50617)
(4.7841e-42 6.18359 1.55414)
(-6.7634e-43 6.34162 1.61603)
(-1.45739e-40 6.48948 1.66337)
(-7.90451e-40 6.63828 1.69742)
(-1.13488e-39 6.77303 1.70583)
(8.60999e-39 6.88967 1.67228)
(5.86187e-38 6.98121 1.60676)
(1.38596e-37 7.04177 1.49041)
(-1.70848e-37 7.0643 1.33556)
(-2.36091e-36 6.99203 1.14079)
(-7.71414e-36 6.78368 0.87789)
(-8.34915e-36 6.48067 0.517358)
(2.94975e-35 6.04538 0.104418)
(1.69185e-34 5.45013 -0.514231)
(4.59987e-34 4.63434 -0.922758)
(5.31158e-34 3.82273 -1.73071)
(3.59785e-34 3.24037 -1.30361)
(-2.22297e-35 -3.98312 -0.613775)
(-1.04623e-34 -9.48043 -2.42047)
(-1.91868e-34 -11.0964 -3.65296)
(-3.01747e-35 -13.3292 -1.73243)
(7.6895e-37 -21.3044 -1.54362)
(5.62371e-35 -29.3956 -1.48374)
(2.40082e-33 -36.6993 -1.2919)
(3.54162e-32 -42.9552 -0.838025)
(7.81113e-34 -45.957 -0.245974)
(9.9942e-33 -47.3288 0.835721)
(1.47946e-31 -47.99 3.21913)
(1.63719e-31 -39.2019 2.2971)
(-1.69859e-31 -27.1649 5.38923)
(-9.56882e-32 -19.1121 5.85621)
(3.17634e-30 -10.8644 8.58402)
(3.18735e-30 -3.1664 6.57205)
(-5.45261e-31 9.01801 2.48938)
(-3.9877e-31 11.7506 -1.85562)
(-3.52598e-31 13.0303 -4.81934)
(-3.47792e-31 12.3674 -6.99795)
(-3.70692e-31 11.1609 -8.29726)
(-2.30053e-31 9.90557 -8.91979)
(1.45458e-31 8.76154 -9.07023)
(-2.12675e-30 7.81071 -8.89747)
(1.76238e-30 7.08281 -8.51097)
(1.66475e-29 6.56613 -7.98543)
(1.46008e-28 6.2319 -7.37794)
(-2.64349e-27 6.04713 -6.75725)
(3.20078e-26 5.91799 -6.10928)
(-2.83327e-25 5.91943 -5.49011)
(1.85017e-24 6.35346 -5.19432)
(-7.29473e-24 6.93785 -5.18752)
(2.54535e-25 7.05328 -5.05708)
(2.19321e-22 6.66625 -4.68346)
(-1.22321e-21 6.10518 -4.18715)
(1.80818e-21 5.70531 -3.78109)
(1.06964e-20 5.47099 -3.15333)
(-4.22819e-20 5.23957 -2.28879)
(-4.36122e-19 4.96776 -0.89993)
(-1.35365e-19 3.84086 -0.104994)
(-1.02984e-18 3.2572 -0.67756)
(5.71091e-18 2.49714 -1.36806)
(-3.18111e-17 3.47745 -1.26351)
(-1.08369e-51 0.983727 1.09793)
(-3.44674e-51 1.43332 1.06908)
(-1.05962e-50 1.73734 1.08979)
(-3.47133e-50 2.02519 1.10167)
(-1.22955e-49 2.30673 1.1258)
(-4.64484e-49 2.57769 1.15045)
(-1.82574e-48 2.84738 1.18118)
(-7.22015e-48 3.11622 1.21466)
(-2.79873e-47 3.38841 1.25151)
(-1.04148e-46 3.66344 1.29174)
(-3.68581e-46 3.93887 1.33167)
(-1.23078e-45 4.21311 1.36912)
(-3.83996e-45 4.48293 1.4061)
(-1.12571e-44 4.74069 1.44678)
(-3.23534e-44 4.99035 1.49065)
(-9.45703e-44 5.25089 1.5322)
(-2.65913e-43 5.52143 1.5781)
(-5.29717e-43 5.77172 1.62019)
(3.12513e-43 5.98601 1.65571)
(6.39567e-42 6.16705 1.69853)
(4.10967e-42 6.32506 1.75422)
(-1.81232e-40 6.4771 1.79954)
(-1.11562e-39 6.63186 1.83225)
(-2.11107e-39 6.77709 1.83879)
(9.52336e-39 6.90528 1.80359)
(7.7494e-38 7.00975 1.73435)
(2.05416e-37 7.08428 1.61383)
(-1.37077e-37 7.11916 1.45083)
(-2.97791e-36 7.064 1.24212)
(-1.03215e-35 6.88183 0.96112)
(-1.22961e-35 6.60228 0.571676)
(3.49464e-35 6.20888 0.117122)
(2.11526e-34 5.61604 -0.539616)
(5.90066e-34 4.82969 -1.08545)
(6.9008e-34 3.92442 -1.93984)
(5.22383e-34 2.90346 -1.66127)
(-8.03583e-36 -3.55985 -0.746368)
(-1.0337e-34 -9.2562 -2.58347)
(-1.90767e-34 -11.3928 -3.81801)
(-3.43699e-35 -13.8335 -1.9368)
(7.18807e-37 -21.59 -1.72491)
(5.23764e-35 -29.7771 -1.64754)
(2.35961e-33 -37.1364 -1.40119)
(3.53571e-32 -43.4638 -0.868742)
(8.01305e-34 -46.4656 -0.248877)
(1.05162e-32 -48.0373 0.813558)
(1.48784e-31 -48.5169 3.18547)
(1.59736e-31 -39.8787 2.25388)
(-1.91812e-31 -28.3648 5.307)
(3.73028e-32 -20.7336 6.34685)
(3.60283e-30 -12.3032 9.92163)
(3.82068e-30 -1.89546 9.31957)
(-5.69076e-31 10.3217 3.13001)
(-4.62219e-31 12.9485 -1.99139)
(-4.46346e-31 13.8543 -5.30317)
(-4.81152e-31 12.9169 -7.71518)
(-5.59345e-31 11.469 -9.08129)
(-3.41669e-31 10.0292 -9.69759)
(3.02578e-31 8.75863 -9.81864)
(-4.79011e-30 7.72366 -9.61246)
(4.61762e-30 6.94052 -9.19758)
(1.174e-29 6.38905 -8.65155)
(2.97601e-28 6.04001 -8.02913)
(-4.96305e-27 5.84842 -7.39521)
(5.75126e-26 5.71968 -6.73487)
(-5.0292e-25 5.77557 -6.09945)
(3.31901e-24 6.3 -5.7451)
(-1.4101e-23 6.90642 -5.59006)
(9.82636e-24 6.96747 -5.28662)
(3.41096e-22 6.53123 -4.84674)
(-1.95915e-21 5.97014 -4.42979)
(2.56192e-21 5.54781 -4.12303)
(1.57047e-20 5.24047 -3.51488)
(-4.5148e-20 4.88577 -2.6462)
(-5.67745e-19 4.64146 -1.30979)
(-2.5934e-19 3.80427 -0.277344)
(-1.23844e-18 2.6225 -0.716773)
(4.27609e-18 2.40584 -1.46682)
(-5.81041e-18 3.25722 -1.3449)
(-2.19905e-51 0.990386 1.2001)
(-6.8646e-51 1.43672 1.15719)
(-2.0794e-50 1.73688 1.17417)
(-6.74261e-50 2.02393 1.18305)
(-2.36914e-49 2.30419 1.20627)
(-8.89643e-49 2.5744 1.23068)
(-3.48175e-48 2.84325 1.26207)
(-1.3733e-47 3.1115 1.29662)
(-5.31842e-47 3.38314 1.33477)
(-1.97964e-46 3.65787 1.37625)
(-7.01396e-46 3.93341 1.41784)
(-2.34815e-45 4.20791 1.45724)
(-7.34711e-45 4.47758 1.4958)
(-2.15293e-44 4.73487 1.53679)
(-6.105e-44 4.98436 1.58026)
(-1.72737e-43 5.24485 1.62122)
(-4.75672e-43 5.51547 1.66435)
(-1.05247e-42 5.76659 1.70352)
(-6.09036e-43 5.98075 1.73703)
(6.42173e-42 6.1604 1.77702)
(8.44143e-42 6.31805 1.82787)
(-1.96231e-40 6.47145 1.86967)
(-1.34734e-39 6.62914 1.89966)
(-3.05821e-39 6.77957 1.90445)
(8.81436e-39 6.91371 1.86888)
(8.78026e-38 7.02492 1.79973)
(2.54977e-37 7.10699 1.68034)
(-7.13761e-38 7.14936 1.5174)
(-3.2563e-36 7.10424 1.30649)
(-1.18483e-35 6.93713 1.02187)
(-1.49866e-35 6.67229 0.623852)
(3.6696e-35 6.30083 0.149722)
(2.30524e-34 5.72347 -0.517148)
(6.58377e-34 4.94523 -1.16552)
(7.59815e-34 3.99163 -1.95427)
(6.1439e-34 2.82372 -1.95059)
(1.37419e-35 -3.3871 -0.958731)
(-1.01553e-34 -8.86618 -2.85426)
(-1.89959e-34 -11.396 -4.10975)
(-4.04348e-35 -14.0076 -2.25552)
(5.04679e-37 -21.5406 -2.03074)
(4.66942e-35 -29.7309 -1.94005)
(2.3009e-33 -37.1252 -1.59716)
(3.52253e-32 -43.5138 -0.940413)
(8.48932e-34 -46.5616 -0.283958)
(1.11885e-32 -48.3517 0.787834)
(1.49856e-31 -48.5914 3.17239)
(1.51943e-31 -40.0042 2.23835)
(-2.25183e-31 -28.6767 5.38098)
(3.63694e-31 -21.1313 7.33333)
(4.64103e-30 -12.5211 11.5168)
(5.06463e-30 -0.622844 10.0474)
(-5.07609e-31 11.1589 3.51339)
(-4.7389e-31 13.7009 -2.11365)
(-4.99709e-31 14.3439 -5.66374)
(-5.83418e-31 13.2233 -8.19976)
(-7.31704e-31 11.6257 -9.57802)
(-4.21383e-31 10.081 -10.1677)
(5.63129e-31 8.74491 -10.2552)
(-8.08084e-30 7.67005 -10.0185)
(9.48139e-30 6.86264 -9.5802)
(-6.20349e-30 6.29668 -9.01941)
(5.4157e-28 5.94167 -8.38902)
(-8.09668e-27 5.74743 -7.74741)
(8.96832e-26 5.61886 -7.08325)
(-7.71035e-25 5.6944 -6.44692)
(5.11789e-24 6.24435 -6.04074)
(-2.27564e-23 6.84711 -5.75467)
(2.5346e-23 6.89369 -5.3335)
(4.60572e-22 6.46742 -4.87687)
(-2.68909e-21 5.92732 -4.52039)
(3.02458e-21 5.48653 -4.26805)
(1.96346e-20 5.13 -3.6854)
(-3.8831e-20 4.7177 -2.83769)
(-6.43325e-19 4.44567 -1.58532)
(-3.91635e-19 3.78829 -0.485989)
(-1.63231e-18 2.71806 -0.78533)
(5.30536e-18 2.47802 -1.43214)
(-2.11031e-17 3.14575 -1.36777)
(-4.43721e-51 0.996058 1.3081)
(-1.36009e-50 1.43873 1.25488)
(-4.06216e-50 1.73412 1.26909)
(-1.3042e-49 2.02017 1.27552)
(-4.54607e-49 2.29891 1.29838)
(-1.6966e-48 2.56815 1.32294)
(-6.61089e-48 2.83595 1.35536)
(-2.60097e-47 3.10343 1.39142)
(-1.00661e-46 3.37434 1.4314)
(-3.74865e-46 3.64868 1.47459)
(-1.3298e-45 3.92446 1.5184)
(-4.46197e-45 4.19933 1.56036)
(-1.39961e-44 4.46875 1.60133)
(-4.10213e-44 4.72547 1.64318)
(-1.15334e-43 4.97505 1.6864)
(-3.18351e-43 5.23557 1.72676)
(-8.56505e-43 5.50635 1.7671)
(-2.00509e-42 5.75854 1.80315)
(-2.56959e-42 5.97259 1.83439)
(4.32325e-42 6.15049 1.87181)
(1.04445e-41 6.30813 1.91792)
(-2.07756e-40 6.46384 1.95599)
(-1.57303e-39 6.62545 1.98271)
(-4.13877e-39 6.78279 1.98536)
(7.23804e-39 6.92481 1.94939)
(9.58793e-38 7.0449 1.88039)
(3.04844e-37 7.13701 1.76247)
(1.57002e-38 7.18908 1.6)
(-3.46171e-36 7.15723 1.38744)
(-1.32592e-35 7.01004 1.09945)
(-1.76492e-35 6.76557 0.692412)
(3.79387e-35 6.42444 0.196688)
(2.46535e-34 5.86825 -0.488847)
(7.18958e-34 5.09786 -1.24239)
(8.10309e-34 4.09251 -2.01003)
(6.76658e-34 2.66629 -2.25213)
(4.64694e-35 -3.32856 -1.31767)
(-9.9137e-35 -8.54264 -3.21335)
(-1.89438e-34 -11.3746 -4.48369)
(-4.8088e-35 -14.1357 -2.67031)
(1.19912e-37 -21.4717 -2.44742)
(4.0342e-35 -29.6619 -2.33938)
(2.21831e-33 -37.0837 -1.85876)
(3.50748e-32 -43.5201 -1.04168)
(8.3139e-34 -46.581 -0.34343)
(1.19251e-32 -48.5663 0.756783)
(1.50854e-31 -48.5987 3.17127)
(1.37882e-31 -40.0643 2.25206)
(-2.48059e-31 -29.0004 5.67166)
(1.02785e-30 -21.6196 8.8183)
(6.22702e-30 -12.6111 13.1371)
(6.14886e-30 0.833779 10.9476)
(-3.98305e-31 12.3226 3.90053)
(-4.73408e-31 14.7253 -2.32615)
(-5.5642e-31 15.0168 -6.16355)
(-7.07645e-31 13.6389 -8.83002)
(-9.56979e-31 11.84 -10.2167)
(-4.86516e-31 10.1534 -10.7685)
(9.35525e-31 8.72634 -10.81)
(-1.31024e-29 7.59517 -10.5321)
(1.86055e-29 6.7531 -10.062)
(-4.20629e-29 6.16648 -9.47987)
(9.49002e-28 5.80291 -8.83633)
(-1.29937e-26 5.60462 -8.18269)
(1.38761e-25 5.47771 -7.5103)
(-1.17661e-24 5.58088 -6.86747)
(7.85431e-24 6.16413 -6.39352)
(-3.63137e-23 6.76476 -5.96043)
(5.345e-23 6.79743 -5.42674)
(6.15509e-22 6.38146 -4.96589)
(-3.69935e-21 5.86221 -4.66724)
(3.6012e-21 5.39657 -4.4531)
(2.39564e-20 4.9772 -3.88888)
(-2.9745e-20 4.48854 -3.0694)
(-7.20466e-19 4.20516 -1.90687)
(-5.50086e-19 3.65982 -0.722878)
(-2.31363e-18 2.86057 -0.87337)
(9.52839e-18 2.56694 -1.41711)
(-6.15758e-17 3.0076 -1.51151)
(-8.87643e-51 1.00386 1.40919)
(-2.67766e-50 1.44266 1.34851)
(-7.89498e-50 1.73298 1.36028)
(-2.50986e-49 2.01758 1.3645)
(-8.67805e-49 2.29456 1.38707)
(-3.21823e-48 2.5627 1.41185)
(-1.24832e-47 2.82934 1.44528)
(-4.89909e-47 3.096 1.48288)
(-1.89509e-46 3.36623 1.52482)
(-7.06212e-46 3.64016 1.5698)
(-2.50844e-45 3.91602 1.61592)
(-8.4324e-45 4.1912 1.6606)
(-2.65066e-44 4.46065 1.70431)
(-7.7745e-44 4.71725 1.74759)
(-2.17432e-43 4.96707 1.79069)
(-5.89571e-43 5.22798 1.83016)
(-1.55177e-42 5.49933 1.86762)
(-3.7318e-42 5.75241 1.90042)
(-6.42705e-42 5.96624 1.92954)
(-2.15561e-42 6.14283 1.96486)
(5.0633e-42 6.3005 2.00645)
(-2.18752e-40 6.45799 2.04014)
(-1.75554e-39 6.62297 2.06272)
(-5.21967e-39 6.7862 2.06264)
(4.58725e-39 6.93508 2.02651)
(9.8453e-38 7.06302 1.95866)
(3.43579e-37 7.16425 1.84397)
(1.17946e-37 7.22567 1.68469)
(-3.49142e-36 7.20657 1.4743)
(-1.41113e-35 7.07853 1.18746)
(-1.95898e-35 6.8551 0.776502)
(3.77485e-35 6.54332 0.263678)
(2.51885e-34 6.01713 -0.440016)
(7.46081e-34 5.2492 -1.28646)
(8.13867e-34 4.20973 -2.07403)
(6.59543e-34 2.56773 -2.51119)
(9.12595e-35 -3.23283 -1.88125)
(-9.2772e-35 -8.29326 -3.68329)
(-1.85404e-34 -11.4403 -4.9325)
(-5.64274e-35 -14.3618 -3.22985)
(-1.0014e-36 -21.518 -3.01743)
(2.97277e-35 -29.7684 -2.86573)
(2.11278e-33 -37.2419 -2.18936)
(3.50846e-32 -43.7193 -1.16719)
(1.28328e-33 -46.7576 -0.419548)
(1.2641e-32 -48.9352 0.719653)
(1.51291e-31 -48.7651 3.17622)
(1.17826e-31 -40.3349 2.29674)
(-2.24751e-31 -29.7221 6.224)
(2.05916e-30 -22.486 10.7117)
(8.14204e-30 -12.8274 14.7519)
(7.03222e-30 2.22039 11.8828)
(-2.27401e-31 13.5507 4.22609)
(-4.48039e-31 15.783 -2.61785)
(-6.05207e-31 15.6878 -6.75428)
(-8.43873e-31 14.0322 -9.53147)
(-1.23206e-30 12.0297 -10.9066)
(-4.94009e-31 10.2065 -11.4027)
(1.39774e-30 8.69662 -11.3848)
(-2.03144e-29 7.51725 -11.0567)
(3.40897e-29 6.6473 -10.5491)
(-1.07891e-28 6.04494 -9.94191)
(1.60784e-27 5.67506 -9.28321)
(-2.04295e-26 5.47392 -8.61614)
(2.1126e-25 5.34901 -7.93657)
(-1.7682e-24 5.4682 -7.2882)
(1.18532e-23 6.06216 -6.73611)
(-5.65926e-23 6.65498 -6.15333)
(1.00211e-22 6.69409 -5.52995)
(8.03353e-22 6.31126 -5.08301)
(-5.0058e-21 5.81736 -4.82947)
(4.05119e-21 5.32376 -4.62942)
(2.77907e-20 4.84548 -4.08049)
(-1.60347e-20 4.29626 -3.29892)
(-7.7925e-19 3.98134 -2.23726)
(-7.13491e-19 3.57129 -0.998759)
(-3.20332e-18 2.85245 -1.00439)
(1.69702e-17 2.57136 -1.41311)
(-1.17249e-16 2.89232 -1.46697)
(-1.76158e-50 1.01217 1.50661)
(-5.24167e-50 1.44693 1.44106)
(-1.52778e-49 1.73199 1.45095)
(-4.80876e-49 2.01485 1.45333)
(-1.64877e-48 2.28989 1.47566)
(-6.07529e-48 2.55679 1.50082)
(-2.34523e-47 2.82212 1.53529)
(-9.18041e-47 3.08785 1.57449)
(-3.54945e-46 3.35735 1.61851)
(-1.3238e-45 3.63084 1.6655)
(-4.70812e-45 3.90671 1.71411)
(-1.58491e-44 4.18213 1.76183)
(-4.99039e-44 4.45164 1.80871)
(-1.46558e-43 4.70839 1.85414)
(-4.08665e-43 4.95873 1.89762)
(-1.09476e-42 5.22029 1.93623)
(-2.82956e-42 5.49237 1.97102)
(-6.86474e-42 5.74623 2.00059)
(-1.36588e-41 5.9597 2.02766)
(-1.66407e-41 6.13514 2.06117)
(-1.6738e-41 6.2932 2.09878)
(-2.46251e-40 6.45265 2.12785)
(-1.89478e-39 6.621 2.14564)
(-6.17206e-39 6.78992 2.14222)
(1.12148e-39 6.94547 2.10593)
(9.42923e-38 7.0811 2.03982)
(3.62385e-37 7.19143 1.92958)
(2.15483e-37 7.26238 1.77563)
(-3.33187e-36 7.25646 1.57066)
(-1.42032e-35 7.14844 1.28882)
(-2.03251e-35 6.94852 0.878123)
(3.62473e-35 6.66858 0.3517)
(2.4487e-34 6.17874 -0.372775)
(7.29213e-34 5.41693 -1.29809)
(7.66897e-34 4.34356 -2.15886)
(5.11149e-34 2.5474 -2.74911)
(1.38255e-34 -3.06526 -2.61489)
(-8.11796e-35 -8.04481 -4.2584)
(-1.77993e-34 -11.5064 -5.45747)
(-6.44166e-35 -14.5968 -3.99824)
(-1.25405e-37 -21.5812 -3.77741)
(1.61696e-35 -29.9292 -3.52263)
(2.03079e-33 -37.4748 -2.5844)
(3.47249e-32 -43.9846 -1.30969)
(7.93558e-34 -46.9751 -0.5071)
(1.3798e-32 -49.3574 0.678353)
(1.52996e-31 -48.9769 3.1836)
(9.44501e-32 -40.7142 2.37085)
(-1.35526e-31 -30.6956 7.02989)
(3.24692e-30 -23.4934 12.8684)
(9.97021e-30 -12.9626 16.4231)
(7.70194e-30 3.73724 12.7755)
(-2.00826e-33 14.9305 4.47512)
(-3.98278e-31 16.9532 -3.00986)
(-6.45633e-31 16.4177 -7.46337)
(-9.90947e-31 14.4436 -10.3348)
(-1.56196e-30 12.2181 -11.678)
(-3.84628e-31 10.2505 -12.0994)
(1.83826e-30 8.65532 -12.0071)
(-3.01214e-29 7.42792 -11.6184)
(5.83498e-29 6.53125 -11.066)
(-2.18007e-28 5.91451 -10.4289)
(2.63488e-27 5.53902 -9.75153)
(-3.14697e-26 5.33575 -9.06875)
(3.16266e-25 5.2139 -8.38154)
(-2.61399e-24 5.34348 -7.72563)
(1.75614e-23 5.93683 -7.09069)