/*--------------------------------*- C++ -*----------------------------------*\
| =========                 |                                                 |
| \\      /  F ield         | OpenFOAM: The Open Source CFD Toolbox           |
|  \\    /   O peration     | Version:  4.1                                   |
|   \\  /    A nd           | Web:      www.OpenFOAM.org                      |
|    \\/     M anipulation  |                                                 |
\*---------------------------------------------------------------------------*/
FoamFile
{
    version     2.0;
    format      ascii;
    class       volScalarField;
    location    "7";
    object      p;
}
// * * * * * * * * * * * * * * * * * * * * * * * * * * * * * * * * * * * * * //

dimensions      [0 2 -2 0 0 0 0];

internalField   nonuniform List<scalar> 
6785
(
579.07
507.993
458.48
407.635
361.222
317.332
276.118
237.193
200.429
165.461
131.409
99.2112
71.2642
39.2433
1.69434
10.484
-7.64382
-1.09599
-6.46879
-7.95629
-10.4558
-12.1104
-13.1972
-13.3864
-12.5623
-10.8948
-7.98041
-2.72086
2.11653
3.184
-12.6351
-18.9723
-9.7041
-13.1731
-10.3139
-10.3003
-9.514
-9.27855
-9.13754
-9.25786
-9.55043
-9.66209
-9.67304
-9.88156
-9.48871
6.87614
3.1512
6.29557
0.90003
1.10547
-2.16135
-4.06055
-6.51952
-8.75589
-10.9536
-12.8725
-14.0198
-13.6105
-12.8731
-11.3144
2.00191
-0.252697
3.15584
0.0611639
2.76114
1.95261
2.93914
3.51226
4.33783
5.28438
6.40153
7.56917
9.23354
10.5298
12.6554
19.0999
18.7268
22.3949
21.0098
24.2026
24.4945
26.2256
27.5341
28.9121
30.3215
31.7532
33.1014
34.5791
35.7098
37.1491
38.4511
38.8255
41.5523
40.4498
42.8995
42.7981
44.0547
44.6271
45.2649
45.7541
46.226
46.7755
47.5062
48.1151
48.9447
49.2318
49.3529
51.0384
49.9639
51.7052
51.2309
52.1052
52.1456
52.3879
52.3635
52.2796
52.1344
51.9992
52.1495
52.1362
53.7567
52.2396
53.4087
51.679
52.6511
51.4621
51.6241
50.7337
50.0095
48.6511
47.1472
45.7581
44.9326
44.4752
42.9399
36.4839
33.076
33.0113
30.3135
29.9412
27.7687
26.9078
25.2848
24.316
23.1407
22.3173
21.8051
21.3509
20.2353
18.1738
8.50954
4.95844
4.53544
2.01921
1.18162
-1.07866
-2.34737
-4.17821
-5.51266
-6.9024
-8.05917
-8.95576
-10.0234
-10.8822
-10.3987
-4.67039
-6.07749
-5.79881
-7.25606
-7.2604
-8.40721
-8.82653
-9.64318
-10.1188
-10.4668
-10.5048
-10.2183
-9.53141
-8.73586
-7.09609
8.82355
9.14095
9.92593
9.39962
9.98201
9.77062
9.97806
10.084
10.3395
10.7237
11.3063
12.0092
13.042
13.9451
15.5191
23.6234
25.6069
25.911
25.314
25.6473
25.7991
26.4111
26.9881
27.6587
28.3224
28.981
29.542
30.1772
30.64
31.3026
62.9222
61.6261
57.4003
50.9193
46.007
41.9365
38.1449
35.2014
33.1491
31.8209
30.7526
29.9103
29.1038
28.3199
26.87
40.5574
40.8406
40.9598
40.9621
41.0233
41.2419
41.4852
41.437
41.3932
41.3696
41.5862
41.4227
41.3296
41.4446
41.2262
41.1092
41.1398
41.175
40.8161
40.82
40.8873
40.5908
40.4746
40.6133
40.6182
40.3122
40.2207
40.3639
40.4315
40.1063
40.1581
40.3047
40.0915
40.0229
40.1294
40.2484
40.0416
40.0505
40.2284
40.1067
40.0627
40.1019
40.2216
40.1323
40.101
40.1199
40.1813
40.1055
40.0809
40.0423
39.9846
39.9544
39.9652
39.9742
39.9509
39.9256
39.9572
40.0389
40.0382
40.0203
40.0852
40.0806
40.1327
40.0775
40.2753
40.5489
40.9935
39.8734
39.0893
40.1599
40.8461
35.3064
33.5315
35.9514
34.8908
21.8891
28.8729
28.0939
-0.0672332
10.0019
14.8247
13.8507
16.3652
5.98027
12.0435
15.7646
16.3612
17.1135
17.7502
18.3473
19.5361
21.8512
18.6038
18.5889
20.7039
22.4092
24.2984
25.4943
26.5231
27.5286
29.5401
31.9536
29.2074
31.2526
31.7661
33.3677
35.6968
37.179
37.6609
37.8882
38.0498
45.4005
40.3049
41.1349
40.8345
40.4666
41.559
43.3439
42.8188
40.3014
44.6276
43.9202
45.4227
45.4115
44.2713
43.2333
42.3946
42.8696
40.3907
45.1483
47.0533
44.4959
44.7078
44.3681
42.4598
40.8732
38.2041
33.2197
41.4225
43.8801
38.6951
35.6361
31.6877
28.621
25.656
22.9348
19.7021
15.6758
14.0187
20.3996
15.716
14.416
12.7463
9.6235
3.32453
1.5205
3.73426
-6.18039
7.57508
4.92798
3.11758
8.80848
4.54027
6.59809
6.04684
7.91396
10.0993
6.75949
8.89082
10.4032
8.07683
8.7644
8.17855
9.0763
10.5483
8.32262
8.82894
8.19356
9.02994
10.2394
7.61218
8.94986
10.0828
7.94451
8.34626
7.65178
8.39859
9.86379
7.45043
7.88729
7.08981
8.008
9.38796
6.25106
7.81818
9.14673
6.55994
7.04187
6.17525
7.07961
8.75598
5.9321
6.47881
5.53581
6.61402
8.06008
4.65734
6.38759
7.65424
5.01893
5.57184
4.68583
5.59085
7.0127
4.4588
4.99994
4.15688
5.05855
6.11511
3.43902
4.7457
5.5302
3.59358
3.98183
3.32227
3.87748
4.59477
2.91601
3.20919
2.61968
3.03865
3.35474
1.81393
2.3434
2.3883
1.28033
1.28074
0.726461
0.856262
1.02724
0.000498075
0.000869324
0.00142366
0.00184082
0.00231933
0.00276491
0.00323366
0.0036989
0.00417743
0.00466232
0.00515932
0.00566732
0.00618887
0.00672445
0.00727544
0.00784234
0.00842551
0.00902446
0.00963797
0.0102636
0.0108979
0.0115356
0.0121707
0.012796
0.0134037
0.013987
0.0145406
0.0150621
0.0155527
0.0160181
0.0164669
0.0169101
0.0173582
0.0178198
0.0183008
0.0188061
0.019343
0.0199247
0.020568
0.0212843
0.0220616
0.0228506
0.023564
0.0240959
0.0243435
0.0242146
0.0236364
0.0225648
0.0209772
0.0188485
0.0161178
0.0126386
0.00813118
0.002163
-0.00581648
-0.0163488
-0.0298705
-0.0470096
-0.0672058
-0.0866005
-0.12341
-0.403708
-0.483094
-0.558658
-0.686377
-0.801488
-0.852734
-0.842496
-0.749738
-0.615758
-0.427138
-0.259311
-0.0595094
0.0375993
0.225656
0.178989
0.308385
0.319968
-0.208609
0.00143061
0.00250721
0.00409676
0.00532086
0.00669345
0.0079785
0.00931722
0.0106448
0.0120034
0.013377
0.0147801
0.016211
0.0176762
0.0191776
0.0207187
0.0223009
0.023925
0.0255894
0.0272899
0.0290194
0.030767
0.0325178
0.0342535
0.0359528
0.0375937
0.0391562
0.0406252
0.0419945
0.043269
0.0444658
0.0456123
0.0467414
0.0478855
0.0490708
0.0503157
0.0516357
0.0530538
0.0546099
0.0563569
0.0583318
0.0605066
0.062745
0.0648044
0.0663947
0.0672428
0.067117
0.0658516
0.0633772
0.0596999
0.0548349
0.0487067
0.0409993
0.030998
0.0174957
-0.00116604
-0.0268182
-0.061334
-0.107575
-0.165308
-0.227249
-0.355163
-0.77851
-0.944854
-1.08639
-1.32645
-1.54962
-1.64671
-1.62015
-1.45474
-1.2013
-0.862072
-0.537086
-0.188411
0.0562082
0.348057
0.435663
0.639647
0.764697
0.657644
0.00223173
0.00405417
0.00674419
0.00881208
0.0111309
0.0133006
0.015561
0.0178024
0.0200965
0.0224161
0.0247862
0.0272035
0.0296794
0.0322169
0.0348224
0.0374981
0.0402455
0.043062
0.0459411
0.0488709
0.0518333
0.0548036
0.057751
0.0606402
0.0634342
0.066099
0.0686095
0.0709547
0.0731425
0.0752012
0.0771763
0.0791227
0.0810943
0.0831343
0.0852731
0.0875354
0.0899591
0.0926105
0.095578
0.0989245
0.102603
0.106381
0.109849
0.112513
0.113903
0.11362
0.111367
0.107008
0.10053
0.0919287
0.0810442
0.0673053
0.0494649
0.0254448
-0.00757924
-0.0526897
-0.113018
-0.19303
-0.291111
-0.399801
-0.635585
-0.990927
-1.1781
-1.32667
-1.61015
-1.87382
-1.98228
-1.94063
-1.74052
-1.43419
-1.033
-0.643892
-0.239716
0.0696267
0.396142
0.552774
0.802982
0.927582
1.17193
0.00298908
0.00555727
0.00931389
0.0122225
0.0154685
0.0185105
0.0216736
0.0248107
0.0280187
0.0312619
0.0345742
0.0379516
0.04141
0.0449537
0.0485915
0.052327
0.056162
0.0600931
0.0641112
0.0681997
0.0723334
0.0764778
0.0805898
0.08462
0.0885164
0.0922316
0.0957298
0.0989959
0.102041
0.104905
0.107651
0.110357
0.113099
0.115938
0.118914
0.122063
0.125436
0.129127
0.133261
0.137932
0.143076
0.148371
0.153239
0.156987
0.158961
0.158598
0.15549
0.149449
0.140463
0.128539
0.113467
0.0944548
0.0697538
0.036421
-0.00956495
-0.0726356
-0.157409
-0.270108
-0.407809
-0.567709
-0.916746
-1.20282
-1.44727
-1.61816
-1.95363
-2.26734
-2.3917
-2.33389
-2.08962
-1.71853
-1.23696
-0.76973
-0.289762
0.0855932
0.470094
0.665862
0.981034
1.08752
1.43969
0.00367656
0.0070088
0.0118286
0.0155895
0.0197689
0.0236921
0.0277649
0.0318051
0.035934
0.0401077
0.0443689
0.0487133
0.0531612
0.0577182
0.0623959
0.0671988
0.0721296
0.077184
0.0823506
0.0876081
0.0929241
0.0982547
0.103544
0.108729
0.113742
0.118522
0.123023
0.127224
0.13114
0.134822
0.138352
0.141831
0.145357
0.149007
0.152835
0.156882
0.161214
0.165953
0.171264
0.177272
0.183902
0.19074
0.197036
0.201893
0.204466
0.204026
0.200042
0.192272
0.180704
0.165354
0.145962
0.121515
0.0897483
0.0468263
-0.0125102
-0.0940886
-0.204078
-0.350193
-0.52779
-0.742847
-1.20279
-1.41848
-1.75211
-1.96527
-2.36711
-2.74473
-2.89116
-2.81509
-2.51893
-2.07004
-1.49152
-0.928526
-0.356204
0.101712
0.555164
0.802774
1.1861
1.29153
1.83778
0.00431661
0.00842363
0.0142862
0.0189039
0.0240112
0.0288152
0.0337936
0.0387338
0.0437786
0.0488776
0.0540817
0.0593864
0.0648163
0.0703788
0.0760878
0.0819492
0.0879665
0.0941345
0.10044
0.106856
0.113344
0.11985
0.126307
0.132636
0.138755
0.144588
0.150078
0.1552
0.159971
0.164455
0.168753
0.172988
0.177281
0.181728
0.186392
0.191321
0.196595
0.202361
0.208831
0.216167
0.224285
0.23268
0.240427
0.246422
0.249627
0.249144
0.244321
0.23487
0.220786
0.202108
0.178547
0.148888
0.110359
0.0582201
-0.0140589
-0.113762
-0.248709
-0.42789
-0.644989
-0.918302
-1.47622
-1.60652
-2.04961
-2.30849
-2.77888
-3.21882
-3.38373
-3.28547
-2.93633
-2.40923
-1.73573
-1.07872
-0.418459
0.122686
0.63803
0.943181
1.38714
1.49676
2.16334
0.00490946
0.00980541
0.0166938
0.0221744
0.0282072
0.0338946
0.0397782
0.0456187
0.0515787
0.0576022
0.0637475
0.0700109
0.0764206
0.0829862
0.0897239
0.0966413
0.103742
0.111021
0.118463
0.126036
0.133695
0.141376
0.148998
0.156471
0.163695
0.170579
0.177057
0.183097
0.18872
0.193999
0.199058
0.204043
0.209099
0.214338
0.219833
0.225638
0.231844
0.238628
0.246247
0.25491
0.26453
0.274509
0.283742
0.290911
0.294781
0.294282
0.288639
0.277517
0.260924
0.238939
0.211258
0.176484
0.131345
0.070181
-0.0148365
-0.132499
-0.292327
-0.504261
-0.76062
-1.09367
-1.72088
-1.75808
-2.33775
-2.65306
-3.19631
-3.69661
-3.87566
-3.75074
-3.34628
-2.73945
-1.97109
-1.22097
-0.475119
0.148389
0.721522
1.08309
1.58233
1.69171
2.47922
0.00546331
0.0111606
0.0190544
0.0254024
0.0323558
0.0389272
0.0457134
0.0524527
0.0593249
0.0662699
0.0733527
0.0805706
0.0879556
0.0955193
0.103281
0.111248
0.119428
0.127812
0.136384
0.145109
0.153934
0.162785
0.17157
0.180182
0.188507
0.196438
0.203897
0.210847
0.217311
0.223376
0.229183
0.234907
0.240714
0.246735
0.253052
0.259722
0.266845
0.27463
0.283384
0.29337
0.304506
0.3161
0.326857
0.335242
0.339818
0.339337
0.332901
0.320128
0.301052
0.275806
0.244101
0.204379
0.152884
0.083033
-0.0143264
-0.149536
-0.333842
-0.577815
-0.873211
-1.2655
-1.92102
-1.89092
-2.63369
-3.01306
-3.63797
-4.20035
-4.3898
-4.23294
-3.76891
-3.07777
-2.21066
-1.36431
-0.531014
0.177518
0.807413
1.22682
1.77698
1.8831
2.78022
0.00598207
0.0124933
0.0213723
0.0285917
0.0364607
0.043917
0.0516032
0.0592401
0.0670219
0.0748858
0.0829028
0.0910716
0.0994279
0.107985
0.116766
0.12578
0.135033
0.144518
0.154217
0.16409
0.174077
0.184096
0.194041
0.20379
0.213213
0.222189
0.230624
0.238478
0.245774
0.252614
0.259159
0.265609
0.272158
0.278953
0.286083
0.293608
0.301635
0.310402
0.320277
0.331584
0.344253
0.357498
0.369828
0.379478
0.384805
0.384378
0.37717
0.36276
0.341213
0.312738
0.277087
0.232574
0.174982
0.0968021
-0.0124572
-0.164721
-0.372941
-0.648036
-0.982459
-1.43161
-2.08112
-2.03162
-2.95085
-3.38872
-4.10581
-4.73379
-4.92824
-4.73232
-4.20379
-3.4232
-2.45336
-1.50767
-0.585576
0.211007
0.895419
1.37619
1.97104
2.08573
3.03176
0.00647046
0.0138076
0.0236511
0.0317451
0.0405238
0.0488649
0.0574481
0.0659807
0.0746688
0.0834483
0.0923956
0.101511
0.110834
0.120381
0.130175
0.140229
0.150551
0.161133
0.171953
0.18297
0.194116
0.2053
0.216402
0.227287
0.237805
0.247821
0.257228
0.265978
0.274097
0.281699
0.288969
0.296134
0.303413
0.310972
0.318906
0.327274
0.336188
0.345917
0.356895
0.369519
0.383741
0.398681
0.412638
0.423608
0.429738
0.429404
0.421447
0.40541
0.3814
0.349723
0.310208
0.26108
0.197685
0.111602
-0.00900957
-0.17768
-0.409001
-0.714098
-1.08773
-1.59041
-2.21917
-2.1993
-3.29325
-3.77956
-4.60001
-5.29921
-5.4918
-5.24743
-4.64862
-3.77307
-2.69663
-1.64894
-0.637357
0.249935
0.985502
1.53139
2.16344
2.28533
3.29581
0.00693207
0.0151065
0.0258943
0.0348654
0.0445476
0.053773
0.0632498
0.0726758
0.0822668
0.0919584
0.101832
0.11189
0.122174
0.132705
0.143508
0.154598
0.165982
0.177655
0.189593
0.20175
0.214052
0.226398
0.238656
0.250674
0.262287
0.27334
0.283714
0.293352
0.302284
0.310636
0.318616
0.326481
0.334478
0.342792
0.351521
0.360719
0.370503
0.381171
0.393231
0.407169
0.422968
0.439652
0.455297
0.467651
0.47464
0.474439
0.465754
0.448093
0.421616
0.386753
0.343445
0.289873
0.220989
0.127472
-0.00386792
-0.188171
-0.44157
-0.775455
-1.18858
-1.74047
-2.3435
-2.42083
-3.63545
-4.18829
-5.12375
-5.90298
-6.0863
-5.78181
-5.1056
-4.12856
-2.94099
-1.78825
-0.686198
0.294584
1.07786
1.69307
2.35444
2.47846
3.57293
0.00737024
0.0163929
0.028105
0.0379551
0.0485341
0.0586428
0.0690094
0.0793261
0.0898161
0.100416
0.111211
0.122207
0.133448
0.144957
0.156763
0.168883
0.181325
0.194084
0.207135
0.220428
0.233882
0.247388
0.260801
0.273951
0.286656
0.298744
0.310079
0.320598
0.330331
0.339419
0.348095
0.356646
0.365348
0.374405
0.383919
0.393936
0.404569
0.416152
0.42927
0.444516
0.461918
0.480402
0.497804
0.51161
0.51952
0.519496
0.510102
0.490812
0.461852
0.423799
0.376753
0.318905
0.244855
0.14441
0.003041
-0.195994
-0.470258
-0.831697
-1.28439
-1.88037
-2.46562
-2.71667
-3.96462
-4.62049
-5.68047
-6.55181
-6.71842
-6.33975
-5.57728
-4.49106
-3.18708
-1.9258
-0.731991
0.345612
1.17278
1.86197
2.54432
2.68787
3.81409
0.00778779
0.0176691
0.0302862
0.0410167
0.0524855
0.0634761
0.0747281
0.0859326
0.0973175
0.108822
0.120534
0.132461
0.144654
0.157136
0.16994
0.183083
0.196578
0.210418
0.224577
0.239001
0.253606
0.268269
0.282835
0.297116
0.310913
0.324033
0.336325
0.347716
0.35824
0.368049
0.377403
0.386623
0.396017
0.405807
0.416097
0.426919
0.43838
0.450847
0.464998
0.481544
0.50058
0.520926
0.540161
0.555497
0.564394
0.564591
0.554502
0.533566
0.502085
0.460814
0.410058
0.348077
0.269178
0.16233
0.0116781
-0.201091
-0.494877
-0.882668
-1.37447
-2.00994
-2.60173
-3.10208
-4.27169
-5.08321
-6.27367
-7.25191
-7.39447
-6.92526
-6.06571
-4.86119
-3.4349
-2.06142
-0.773831
0.402577
1.2732
2.03758
2.73289
2.8891
4.05914
0.00818719
0.018937
0.0324406
0.0440522
0.0564035
0.0682742
0.0804071
0.092496
0.104771
0.117175
0.129799
0.142654
0.155792
0.169241
0.183036
0.197197
0.211738
0.226654
0.241916
0.257469
0.27322
0.28904
0.304758
0.32017
0.335057
0.349207
0.362451
0.374707
0.386008
0.396522
0.406537
0.416409
0.426479
0.436991
0.448047
0.45966
0.471928
0.485247
0.500397
0.518236
0.538937
0.561216
0.582367
0.599316
0.609273
0.609734
0.598956
0.576342
0.542275
0.497721
0.44324
0.377229
0.293768
0.181032
0.0218648
-0.203578
-0.515476
-0.928464
-1.45831
-2.13083
-2.76418
-3.55765
-4.5349
-5.57813
-6.9075
-8.00999
-8.12118
-7.54288
-6.57346
-5.23976
-3.68453
-2.19544
-0.810294
0.464082
1.38241
2.21963
2.92039
3.09715
4.3145
0.00857057
0.0201984
0.0345707
0.0470637
0.0602902
0.0730385
0.0860474
0.099017
0.112178
0.125476
0.139007
0.152783
0.16686
0.18127
0.19605
0.211223
0.226805
0.24279
0.259151
0.275828
0.292723
0.309698
0.326568
0.343111
0.359089
0.374267
0.388459
0.40157
0.413635
0.424837
0.435493
0.445998
0.456729
0.467951
0.479764
0.492155
0.505204
0.519337
0.535452
0.554572
0.576973
0.601261
0.624422
0.643073
0.654166
0.654932
0.64346
0.619111
0.582357
0.534401
0.476117
0.406112
0.318316
0.200167
0.0332405
-0.203789
-0.532393
-0.969471
-1.53594
-2.24598
-2.95225
-4.00486
-4.72731
-6.10096
-7.58644
-8.83358
-8.90581
-8.19774
-7.10381
-5.62791
-3.93627
-2.32836
-0.840644
0.530379
1.50084
2.40736
3.11022
3.30602
4.53325
0.00893978
0.0214548
0.0366787
0.0500532
0.0641471
0.0777704
0.0916502
0.105496
0.119537
0.133726
0.148156
0.162848
0.177859
0.193223
0.208981
0.225159
0.241775
0.258824
0.276278
0.294076
0.312113
0.330241
0.348263
0.365939
0.383007
0.399211
0.414346
0.428304
0.441119
0.452991
0.464267
0.475384
0.486759
0.498681
0.511241
0.524397
0.5382
0.553107
0.570143
0.59053
0.61467
0.641051
0.666321
0.686773
0.699078
0.700184
0.687997
0.661821
0.622223
0.570676
0.508424
0.434366
0.342368
0.219209
0.0452421
-0.202292
-0.546248
-1.00636
-1.60803
-2.3584
-3.15328
-4.34961
-4.86665
-6.65287
-8.31245
-9.73089
-9.75594
-8.89521
-7.66053
-6.02702
-4.1904
-2.46007
-0.864577
0.60227
1.62862
2.59968
3.30712
3.50864
4.79722
0.00929639
0.0227074
0.0387669
0.0530221
0.0679759
0.082471
0.0972161
0.111934
0.12685
0.141923
0.157248
0.172849
0.188786
0.205097
0.221827
0.239003
0.256646
0.274754
0.293297
0.312211
0.331388
0.350668
0.369842
0.388651
0.406811
0.424041
0.440115
0.45491
0.46846
0.480981
0.492855
0.504562
0.516564
0.529174
0.542473
0.55638
0.570909
0.586543
0.60445
0.626085
0.652006
0.680574
0.70806
0.730414
0.744008
0.74548
0.732527
0.704384
0.661714
0.606289
0.539789
0.461489
0.3653
0.237441
0.0571078
-0.199872
-0.557903
-1.04007
-1.67588
-2.47058
-3.35709
-4.58839
-5.02649
-7.24366
-9.08815
-10.7107
-10.6794
-9.64075
-8.24774
-6.43879
-4.44709
-2.59021
-0.881705
0.680316
1.76633
2.79727
3.51197
3.73219
5.05359
0.00964175
0.0239574
0.0408369
0.0559722
0.071778
0.0871415
0.102746
0.118332
0.134117
0.150068
0.166281
0.182784
0.199641
0.216893
0.234586
0.252754
0.271418
0.290577
0.310203
0.33023
0.350544
0.370976
0.391303
0.411247
0.430499
0.448755
0.465764
0.481387
0.495657
0.508806
0.521253
0.533526
0.546137
0.559422
0.573453
0.588099
0.603323
0.619631
0.638353
0.661213
0.688959
0.719813
0.74963
0.773991
0.788947
0.790787
0.776976
0.746659
0.700591
0.640885
0.569711
0.486826
0.386316
0.253979
0.0679193
-0.197465
-0.568377
-1.07173
-1.74122
-2.5849
-3.56318
-4.80099
-5.30123
-7.85741
-9.92687
-11.7821
-11.6838
-10.4398
-8.86984
-6.86529
-4.70658
-2.71848
-0.891552
0.765051
1.91454
3.00094
3.72429
3.95683
5.26483
0.00997699
0.0252057
0.0428907
0.0589049
0.0755549
0.0917829
0.108241
0.124689
0.141337
0.15816
0.175254
0.192653
0.210422
0.228607
0.247257
0.266408
0.286086
0.30629
0.326995
0.34813
0.369578
0.391163
0.412643
0.433724
0.454072
0.473354
0.491293
0.507734
0.522707
0.536462
0.549455
0.56227
0.575468
0.589419
0.604176
0.619547
0.635434
0.652359
0.671828
0.695883
0.725501
0.758752
0.791018
0.817493
0.833869
0.836044
0.821223
0.78843
0.738521
0.673981
0.597546
0.509562
0.404471
0.267823
0.0766825
-0.196066
-0.578732
-1.10254
-1.8059
-2.70342
-3.77443
-5.04083
-5.77859
-8.50811
-10.8553
-12.955
-12.7766
-11.2975
-9.53134
-7.30869
-4.96929
-2.84467
-0.893656
0.857115
2.07369
3.21107
3.94498
4.17789
5.52882
0.0103031
0.0264534
0.0449297
0.0618214
0.0793077
0.0963961
0.113702
0.131006
0.14851
0.166199
0.184168
0.202455
0.221129
0.240238
0.259837
0.279964
0.300648
0.321892
0.343668
0.365908
0.388489
0.411225
0.433861
0.456082
0.477528
0.497836
0.516703
0.533953
0.549611
0.563946
0.577457
0.590785
0.604551
0.619155
0.634633
0.65072
0.667236
0.684711
0.704851
0.730063
0.761603
0.797367
0.832206
0.860892
0.878719
0.881147
0.865074
0.829384
0.775045
0.704959
0.622504
0.528759
0.418743
0.277957
0.0824374
-0.196602
-0.58994
-1.13361
-1.87164
-2.8277
-3.9946
-5.34024
-6.48096
-9.19523
-11.8968
-14.2419
-13.9654
-12.2186
-10.2368
-7.77111
-5.23589
-2.96853
-0.887582
0.957195
2.2442
3.42826
4.17524
4.42938
5.79136
0.0106208
0.0277013
0.0469553
0.064723
0.0830377
0.100982
0.119128
0.137283
0.155638
0.174185
0.193021
0.212189
0.231759
0.251785
0.272324
0.29342
0.315102
0.337378
0.360221
0.383562
0.407273
0.43116
0.454954
0.478318
0.500865
0.522202
0.541993
0.560041
0.576366
0.591256
0.605254
0.619065
0.633376
0.648623
0.66482
0.681614
0.698722
0.716673
0.737393
0.763716
0.797232
0.83563
0.873161
0.904139
0.923406
0.925918
0.908234
0.86908
0.809565
0.733064
0.643688
0.543423
0.428132
0.283467
0.0843811
-0.199815
-0.60276
-1.16584
-1.93978
-2.95895
-4.22763
-5.71082
-7.35136
-9.87023
-13.0532
-15.6568
-15.2585
-13.2073
-10.9907
-8.25457
-5.50718
-3.08986
-0.8729
1.06598
2.42648
3.65308
4.41452
4.67319
5.99767
0.0109308
0.0289499
0.0489688
0.0676106
0.0867459
0.105541
0.124522
0.143521
0.162718
0.182118
0.201813
0.221854
0.242312
0.263246
0.284717
0.306772
0.329445
0.352746
0.37665
0.401086
0.425925
0.450964
0.475919
0.50043
0.524083
0.54645
0.567163
0.585999
0.602972
0.618388
0.632839
0.647101
0.661934
0.677814
0.694729
0.712223
0.729887
0.748231
0.769426
0.796803
0.832346
0.873504
0.913836
0.947153
0.967772
0.970084
0.950278
0.906929
0.841338
0.757431
0.660161
0.552615
0.431787
0.283663
0.0819806
-0.20615
-0.617628
-1.19979
-2.01113
-3.09792
-4.47684
-6.14632
-8.26709
-10.5003
-14.3316
-17.2139
-16.6653
-14.2675
-11.7972
-8.76093
-5.78405
-3.20845
-0.849187
1.18417
2.62089
3.8859
4.66406
4.92962
6.26833
0.0112336
0.0302002
0.0509713
0.0704854
0.0904332
0.110074
0.129882
0.149719
0.169752
0.189996
0.210543
0.231447
0.252785
0.274619
0.297013
0.320019
0.343674
0.367992
0.39295
0.418479
0.444444
0.470634
0.496752
0.522416
0.54718
0.57058
0.592212
0.611826
0.629427
0.645339
0.660207
0.674885
0.690213
0.706717
0.724353
0.742544
0.760725
0.779369
0.800915
0.829276
0.866897
0.910938
0.954153
0.989795
1.01157
1.01324
0.99062
0.94218
0.869501
0.777158
0.671057
0.555577
0.429128
0.278181
0.0750587
-0.215677
-0.63459
-1.23556
-2.0859
-3.24483
-4.7442
-6.63417
-9.13677
-11.1514
-15.771
-18.9275
-18.1952
-15.4024
-12.6599
-9.29179
-6.06727
-3.32414
-0.816031
1.31245
2.82781
4.12733
4.92416
5.18799
6.46713
0.0115296
0.0314526
0.0529639
0.073348
0.0941003
0.114582
0.135209
0.155878
0.176739
0.197819
0.219209
0.240969
0.263178
0.285902
0.309209
0.333157
0.357785
0.383113
0.409119
0.435734
0.462823
0.490166
0.517451
0.544273
0.570154
0.594591
0.617141
0.637523
0.655729
0.672106
0.687352
0.702407
0.718203
0.735322
0.753686
0.772574
0.791232
0.81007
0.831826
0.861081
0.900827
0.947856
0.99399
1.03185
1.05442
1.05481
1.0285
0.973939
0.893137
0.791421
0.675719
0.551853
0.419929
0.267046
0.0638396
-0.228062
-0.653265
-1.27278
-2.16368
-3.39916
-5.03041
-7.16599
-9.96821
-11.9391
-17.4225
-20.8211
-19.8572
-16.6142
-13.5817
-9.84845
-6.35737
-3.43682
-0.773036
1.45151
3.04759
4.37794
5.19532
5.44632
6.71914
0.0118191
0.0327078
0.0549474
0.0761993
0.0977481
0.119064
0.140504
0.161997
0.183679
0.205587
0.227811
0.250418
0.273488
0.297092
0.321304
0.346183
0.371776
0.398105
0.425152
0.45285
0.48106
0.509556
0.538012
0.565998
0.593002
0.618482
0.641949
0.663088
0.681878
0.698684
0.714265
0.729656
0.745892
0.763617
0.78272
0.802311
0.821404
0.84032
0.862116
0.892152
0.934056
0.98415
1.03316
1.07297
1.09577
1.09402
1.06296
1.00122
0.91139
0.799611
0.673812
0.541357
0.404359
0.250689
0.0489471
-0.242574
-0.672869
-1.31064
-2.24343
-3.55967
-5.33473
-7.73685
-10.8064
-12.9792
-19.2839
-22.9287
-21.6615
-17.9041
-14.5644
-10.4316
-6.6546
-3.54637
-0.719812
1.60198
3.28053
4.63839
5.47854
5.73727
6.98251
0.0121023
0.0339664
0.0569226
0.07904
0.101377
0.123522
0.145767
0.168077
0.19057
0.213298
0.236348
0.259792
0.283713
0.308189
0.333294
0.359095
0.385643
0.412964
0.441045
0.46982
0.499149
0.5288
0.55843
0.587588
0.615724
0.642252
0.666636
0.688522
0.707872
0.72507
0.740941
0.756621
0.773264
0.79159
0.811447
0.831752
0.851241
0.8701
0.891737
0.922412
0.966481
1.01966
1.07136
1.11266
1.13488
1.1299
1.09294
1.02307
0.92362
0.801466
0.665391
0.524397
0.382972
0.22991
0.0313586
-0.258142
-0.692266
-1.34787
-2.32359
-3.72434
-5.65485
-8.34084
-11.6758
-14.3328
-21.353
-25.2924
-23.6205
-19.2724
-15.6091
-11.0412
-6.95895
-3.65266
-0.655964
1.76448
3.52695
4.90936
5.77277
6.02063
7.17058
0.0123792
0.0352288
0.0588902
0.0818706
0.104988
0.127956
0.150998
0.174116
0.197413
0.220952
0.244818
0.26909
0.293853
0.319188
0.345177
0.37189
0.399383
0.427687
0.456794
0.486641
0.517086
0.547892
0.578702
0.609038
0.638316
0.665899
0.691202
0.713824
0.733709
0.751261
0.76737
0.78329
0.800307
0.819227
0.83986
0.860898
0.880741
0.899391
0.920631
0.951759
0.997954
1.05412
1.10816
1.15023
1.17077
1.16129
1.11734
1.03872
0.929556
0.797143
0.650905
0.50163
0.356639
0.20581
0.012322
-0.273444
-0.710058
-1.38292
-2.40214
-3.89046
-5.98681
-8.96921
-12.5908
-16.0318
-23.624
-27.9626
-25.7501
-20.719
-16.7156
-11.6764
-7.27008
-3.75534
-0.581054
1.93956
3.78709
5.19131
6.07879
6.29985
7.4265
0.01265
0.0364956
0.0608508
0.0846917
0.108581
0.132365
0.156196
0.180115
0.204207
0.228548
0.25322
0.27831
0.303903
0.330088
0.356949
0.384563
0.412991
0.442269
0.472394
0.503306
0.534865
0.566827
0.598823
0.630347
0.660775
0.689423
0.715645
0.738995
0.759389
0.777251
0.793545
0.80965
0.827002
0.846513
0.867949
0.889747
0.909902
0.92817
0.948728
0.980061
1.02827
1.08719
1.14294
1.18474
1.20222
1.18692
1.1352
1.04782
0.929383
0.787205
0.631133
0.473979
0.326457
0.179685
-0.00675049
-0.287009
-0.724682
-1.41398
-2.47673
-4.05473
-6.32504
-9.60992
-13.5586
-18.0865
-26.0666
-30.989
-28.0695
-22.2439
-17.883
-12.3351
-7.58728
-3.85386
-0.494559
2.12776
4.0612
5.48487
6.39809
6.61686
7.70629
0.0129145
0.0377673
0.0628049
0.0875036
0.112156
0.13675
0.161361
0.186073
0.210951
0.236085
0.261553
0.28745
0.313863
0.340887
0.368609
0.397112
0.426463
0.456705
0.487839
0.519811
0.552481
0.585601
0.618787
0.651508
0.683099
0.712821
0.739967
0.764034
0.784911
0.803038
0.819458
0.835687
0.853332
0.873429
0.895704
0.9183
0.938726
0.956409
0.975934
1.00714
1.05712
1.11833
1.17485
1.21501
1.22788
1.20564
1.14597
1.05049
0.923741
0.772545
0.607075
0.442515
0.293628
0.152912
-0.0243927
-0.297321
-0.734517
-1.43914
-2.54478
-4.21346
-6.66262
-10.2483
-14.5794
-20.4589
-28.6021
-34.4031
-30.5989
-23.8476
-19.1091
-13.0141
-7.90937
-3.9473
-0.395797
2.32961
4.34949
5.79074
6.72886
6.92533
7.89086
0.0131727
0.0390443
0.0647528
0.0903067
0.115715
0.141111
0.166494
0.19199
0.217644
0.24356
0.269815
0.296508
0.32373
0.351581
0.380152
0.409533
0.439796
0.470991
0.503126
0.536151
0.569928
0.604206
0.638588
0.672517
0.705285
0.736092
0.764165
0.788941
0.810273
0.828617
0.845097
0.861384
0.879276
0.899956
0.923114
0.946555
0.967208
0.984068
1.00212
1.03274
1.08407
1.14681
1.20282
1.23964
1.24637
1.21663
1.14967
1.04741
0.913622
0.754258
0.579833
0.408339
0.259345
0.126842
-0.0391824
-0.302906
-0.737972
-1.45651
-2.60373
-4.36276
-6.99166
-10.8691
-15.6472
-23.041
-31.1163
-38.2104
-33.3566
-25.5307
-20.3912
-13.7091
-8.23465
-4.03435
-0.283869
2.54565
4.65207
6.10913
7.07238
7.24717
8.17882
0.0134244
0.0403271
0.066695
0.0931013
0.119256
0.145447
0.171594
0.197865
0.224285
0.250974
0.278005
0.305483
0.333502
0.362167
0.391575
0.421821
0.452985
0.485121
0.518247
0.552318
0.587199
0.622637
0.658221
0.693369
0.727327
0.759233
0.78824
0.813716
0.835475
0.853983
0.870454
0.886725
0.904812
0.926072
0.950164
0.974509
0.995342
1.01109
1.02713
1.05651
1.10854
1.17171
1.22551
1.25712
1.25657
1.21971
1.14697
1.03967
0.900224
0.733509
0.550487
0.372465
0.224688
0.102711
-0.0498147
-0.30241
-0.733588
-1.46433
-2.65121
-4.49888
-7.30411
-11.46
-16.758
-25.6638
-33.5495
-42.4203
-36.3579
-27.2934
-21.7262
-14.415
-8.56076
-4.11327
-0.157594
2.77651
4.96909
6.44049
7.4286
7.56942
8.3986
0.0136693
0.0416162
0.0686316
0.0958875
0.122779
0.149759
0.17666
0.203697
0.230874
0.258325
0.28612
0.314372
0.343176
0.372643
0.402876
0.433974
0.466025
0.499091
0.533198
0.568306
0.604287
0.640885
0.677679
0.714058
0.749222
0.782242
0.812192
0.83836
0.860515
0.879132
0.895517
0.91169
0.929913
0.95175
0.976835
1.00215
1.02311
1.03739
1.0507
1.07798
1.12974
1.19185
1.24138
1.26604
1.25799
1.21546
1.13905
1.02861
0.88481
0.711419
0.519993
0.335731
0.190553
0.0815916
-0.0551507
-0.294659
-0.720162
-1.46126
-2.6854
-4.61872
-7.5927
-12.0139
-17.9055
-28.1485
-36.003
-47.0977
-39.6165
-29.1345
-23.1108
-15.1256
-8.88454
-4.18182
-0.015464
3.02296
5.30065
6.78507
7.7977
7.89501
8.67612
0.0139071
0.042912
0.070563
0.0986654
0.126286
0.154046
0.181692
0.209485
0.237409
0.265611
0.294159
0.323172
0.35275
0.383006
0.414049
0.445986
0.478911
0.512896
0.547971
0.584109
0.621186
0.658945
0.696955
0.734578
0.770966
0.805117
0.836018
0.862873
0.885393
0.904061
0.920276
0.936259
0.954551
0.976959
1.0031
1.02947
1.05047
1.06283
1.07249
1.09653
1.14675
1.20583
1.24883
1.26553
1.25103
1.20515
1.12741
1.0156
0.868583
0.688979
0.489119
0.298745
0.157611
0.0643622
-0.0542555
-0.278753
-0.696919
-1.44661
-2.70547
-4.72038
-7.85211
-12.5286
-19.0787
-30.3964
-38.6608
-52.3479
-43.1453
-31.0503
-24.5413
-15.8345
-9.20198
-4.23723
0.144357
3.28602
5.64687
7.14298
8.18053
8.25452
8.96716
0.0141374
0.0442148
0.0724891
0.101435
0.129775
0.158308
0.186689
0.215228
0.243888
0.27283
0.30212
0.331883
0.36222
0.393252
0.425092
0.457854
0.49164
0.526528
0.562562
0.59972
0.637887
0.676807
0.716041
0.754922
0.792553
0.827855
0.859719
0.887256
0.91011
0.928764
0.944717
0.960409
0.978692
1.00166
1.02894
1.05643
1.07734
1.08718
1.09203
1.11142
1.15844
1.21205
1.24657
1.25561
1.23695
1.19047
1.11363
1.002
0.852615
0.666998
0.45841
0.261864
0.12631
0.0517032
-0.04645
-0.254202
-0.663784
-1.42077
-2.71215
-4.80389
-8.08016
-13.0079
-20.267
-32.4093
-41.6784
-58.159
-46.9471
-33.0332
-26.0132
-16.5349
-9.50826
-4.27624
0.324002
3.56699
6.00789
7.51431
8.57503
8.60546
9.19652
0.0143599
0.0455251
0.0744101
0.104197
0.133247
0.162544
0.19165
0.220926
0.250311
0.279982
0.310001
0.3405
0.371584
0.403378
0.436001
0.469574
0.504204
0.539983
0.576962
0.615131
0.654382
0.694463
0.734928
0.775082
0.813977
0.850451
0.883294
0.911507
0.934663
0.953237
0.968829
0.984113
1.0023
1.02581
1.05428
1.08297
1.10359
1.11011
1.10875
1.12181
1.16344
1.20893
1.2341
1.23743
1.21764
1.17322
1.0992
0.988985
0.837814
0.646101
0.42819
0.225202
0.0968778
0.0440752
-0.0314101
-0.221152
-0.62175
-1.38575
-2.70831
-4.87193
-8.27903
-13.4608
-21.4565
-34.1869
-45.1496
-64.426
-51.011
-35.0708
-27.5202
-17.2205
-9.79788
-4.29516
0.525879
3.86759
6.38397
7.8987
8.98151
8.95425
9.49613
0.0145741
0.0468434
0.0763259
0.10695
0.136701
0.166753
0.196575
0.226577
0.256675
0.287063
0.317799
0.349022
0.380838
0.41338
0.446771
0.481139
0.5166
0.553255
0.591165
0.630333
0.670662
0.711904
0.753606
0.79505
0.835231
0.872903
0.90674
0.935629
0.959053
0.977475
0.992595
1.00734
1.02532
1.04933
1.07906
1.10896
1.12895
1.13115
1.12203
1.12676
1.16019
1.19535
1.21214
1.21298