/*--------------------------------*- C++ -*----------------------------------*\
| =========                 |                                                 |
| \\      /  F ield         | OpenFOAM: The Open Source CFD Toolbox           |
|  \\    /   O peration     | Version:  4.1                                   |
|   \\  /    A nd           | Web:      www.OpenFOAM.org                      |
|    \\/     M anipulation  |                                                 |
\*---------------------------------------------------------------------------*/
FoamFile
{
    version     2.0;
    format      ascii;
    class       surfaceScalarField;
    location    "7";
    object      phi;
}
// * * * * * * * * * * * * * * * * * * * * * * * * * * * * * * * * * * * * * //

dimensions      [0 3 -1 0 0 0 0];

internalField   nonuniform List<scalar> 
13220
(
-831.991
2131.89
-1287.86
1756.07
-1733.67
1745.71
-2063.25
1629.47
-2319.79
1556.74
-2497.94
1478.05
-2601.48
1403.44
-2631.19
1329.9
-2589.79
1258.5
-2479.23
1189.35
-2302.04
1123.01
-2042.54
1040.4
-1639.65
897.006
-1008.84
669.383
291.061
-108.092
2239.98
-272.002
1919.97
-498.735
1972.44
-684.605
1815.34
-870.252
1742.39
-1029.14
1636.94
-1169.06
1543.36
-1287.95
1448.79
-1388.45
1359
-1454.91
1255.81
-1419.37
1087.47
-1168.37
789.391
-692.01
420.644
-213.896
191.265
77.1645
-180.788
2420.76
-427.843
2167.03
-632.247
2176.85
-772.581
1955.67
-906.383
1876.19
-1000.53
1731.08
-1076.13
1618.96
-1131.41
1504.06
-1169.86
1397.45
-1181.11
1267.06
-1126.92
1033.28
-944.786
607.241
-651.175
127.012
-360.209
-99.7323
-283.045
48.4712
2372.29
-29.3447
2244.84
-45.8528
2193.36
-33.354
1943.17
-18.0606
1860.89
18.0265
1694.99
66.5265
1570.46
132.279
1438.31
213.451
1316.28
294.94
1185.57
323.779
1004.44
215.408
715.617
-9.26835
351.696
-82.3245
-26.6686
-365.369
160.404
2211.89
150.555
2254.69
206.56
2137.35
271.487
1878.25
344.183
1788.2
417.924
1621.25
497.423
1490.96
581.899
1353.83
673.411
1224.77
758.986
1100
800.877
962.548
724.713
791.777
511.335
565.073
191.463
293.203
-173.906
131.641
2080.25
160.58
2225.75
216.017
2081.92
278.241
1816.02
342.474
1723.97
407.122
1556.6
471.595
1426.49
531.542
1293.89
585.934
1170.38
632.23
1053.71
655.264
939.514
620.705
826.347
496.354
689.435
277.196
512.384
103.29
56.1606
2024.09
119.63
2162.29
174.948
2026.6
232.543
1758.43
286.514
1670
350.835
1492.29
416.571
1360.76
499.18
1211.28
586.88
1082.68
665.798
974.79
706.044
899.269
676.726
855.667
546.947
819.218
319.518
739.819
422.808
-33.9494
2058.04
10.5318
2117.81
40.4193
1996.72
42.4159
1756.44
43.8953
1668.52
50.2042
1485.98
84.1965
1326.77
187.277
1108.2
347.44
922.515
519.749
802.483
641.812
777.207
657.078
840.402
532.514
943.782
301.482
970.852
724.29
-96.8599
2154.9
-197.669
2218.62
-272.017
2071.06
-386.58
1871
-504.384
1786.33
-631.155
1612.75
-730.491
1426.1
-768.006
1145.72
-734.391
888.901
-632.527
700.619
-458.269
602.95
-229.625
611.761
-29.4472
743.607
46.1625
895.246
770.452
35.1887
2119.71
-175.249
2429.06
-335.466
2231.28
-487.133
2022.67
-636.998
1936.19
-801.683
1777.43
-985.312
1609.73
-1186.31
1346.72
-1379.94
1082.53
-1514.23
834.908
-1519.81
608.529
-1318.66
410.614
-883.833
308.779
-348.393
359.804
422.059
276.742
1842.97
173.379
2532.42
39.8238
2364.83
-40.1668
2102.66
-81.6184
1977.64
-128.924
1824.74
-202.292
1683.1
-333.846
1478.27
-507.699
1256.38
-695.917
1023.12
-866.608
779.219
-965.526
509.532
-877.242
220.495
-540.27
22.831
-118.211
392.08
1450.89
465.85
2458.65
426.57
2404.11
422.68
2106.55
477.795
1922.53
542.786
1759.75
604.783
1621.1
620.336
1462.72
585.723
1290.99
501.345
1107.5
368.812
911.751
180.239
698.105
-41.5811
442.314
-141.66
122.908
-259.871
352.645
1098.25
509.268
2302.02
571.749
2341.63
650.908
2027.39
763.917
1809.52
872.298
1651.37
966.616
1526.78
1027.46
1401.87
1046.03
1272.42
1017.45
1136.08
938.365
990.841
801.051
835.419
594.176
649.189
286.129
430.955
26.2579
306.998
791.248
463.206
2145.82
463.976
2340.86
403.658
2087.71
380.52
1832.65
395.955
1635.93
439.457
1483.28
496.522
1344.81
558.489
1210.46
612.672
1081.9
645.164
958.349
630.377
850.206
524.314
755.252
315.868
639.402
342.126
286.979
1149.79
1869.84
2260.48
2357.89
2347.22
2230.29
2028.93
1762.69
1490.41
1212.03
933.817
667.028
374.01
4.2197e-06
-155.022
155.022
-155.022
-155.022
-155.022
182.135
-337.156
182.135
182.135
182.135
447.737
-265.602
447.737
447.737
638.367
-190.631
638.367
638.367
638.367
751.562
-113.195
751.562
751.562
800.637
-49.0741
800.637
800.637
800.637
800.983
-0.346396
800.983
800.983
800.983
768.889
32.0938
768.889
768.889
710.458
58.4311
710.458
710.458
710.458
632.919
77.539
632.919
632.919
532.705
100.215
532.705
532.705
532.705
420.691
112.014
420.691
420.691
420.691
339.982
80.7086
339.982
339.982
363.672
-23.6896
363.672
363.672
363.672
277.081
86.5914
277.081
277.081
277.081
111.711
165.37
111.711
111.711
-35.4579
147.169
-35.458
-35.458
-35.458
-507.898
472.44
-507.898
-507.898
-1449.7
941.803
-1449.7
-1449.7
-1449.7
-2789.84
1340.14
-2789.84
-2789.84
-2789.84
-4437.91
1648.07
-4437.91
-4437.91
-6386.01
1948.1
-6386.01
-6386.01
-6255.91
-6127.27
-5994.47
-8057.41
2201.11
-7918.67
-7757.8
-7584.2
-7409.4
-7233.06
-7055.8
-6877.65
-6693.21
-9004.53
2498.51
-8809.15
-8611.73
-8412.14
-8206.14
-7996.15
-7783.66
-7569.97
-7353.72
-9874.95
2738.53
-9643.54
-9410.26
-9175.92
-8940.65
-8699.12
-8446.19
-8190.47
-7931.88
-7671.92
-10183.8
2758.6
-9909.79
-9633.9
-9356.71
-9079.13
-8801.14
-8509.79
-8211.01
-7913.21
-10094
2459.94
-9807.45
-9516.18
-9214.54
-8914.31
-8614.5
-8315.71
-8016.36
-7697.42
-9326.05
1933.49
-9018.45
-8711.73
-8405.24
-8081.56
-7750.81
-7421.74
-7093.47
-6769.85
-7766.3
1317.3
-7436.41
-7114.42
-6798.39
-6489.4
-6187.27
-5872.78
-5564.93
-5261.62
-4965.92
-4846.95
184.843
-4580.67
-4330.57
-4085.65
-3846.8
-3613.49
-3427.43
-3332.35
-3238.27
-2850.2
-288.661
-2764.42
-2681.11
-2681.11
-2482.26
-198.851
-2285
-197.26
-2285
-2127.03
-157.974
-2127.03
-2001.52
-125.505
-1901.44
-100.077
-1901.44
-1819.91
-81.5341
-1755.8
-64.1108
-1755.8
-1704.86
-50.9374
-1704.86
-1673.25
-31.6107
-1650.77
-22.4789
-1650.77
-1639.38
-11.3881
-1639.38
-1643.89
4.50531
-1647.45
3.55614
-1647.45
-1664.13
16.6827
-1676.23
12.0979
-1676.23
-1693.53
17.303
-1693.53
-1719.03
25.4997
-1734.98
15.9476
-1734.98
-1754.41
19.4336
-1754.41
-1780.81
26.3975
-1794.01
13.2041
-1794.01
-1815.31
21.2953
-1823.73
8.42429
-1823.73
-1831.91
8.17818
-1831.91
-1841.56
9.65571
-1836.91
-4.65499
-1836.91
-1829.36
-7.54739
-1829.36
-1821.72
-7.63778
-1800.22
-21.5059
-1800.22
-1779.25
-20.9709
-1747.8
-31.4462
-1747.8
-1712.47
-35.3357
-1712.47
-1676.23
-36.232
-1631.61
-44.6227
-1631.61
-1582.63
-48.9833
-1582.63
-1532.07
-50.5539
-1473.77
-58.3011
-1473.77
-1411.48
-62.2908
-1344.32
-67.1579
-1344.32
-1271.19
-73.1306
-1271.19
-1193.92
-77.2757
-1113.71
-80.208
-1113.71
-1026.28
-87.4251
-1026.28
-933.031
-93.2528
-838.468
-94.5634
-838.468
-733.496
-104.972
-630.807
-102.689
-630.807
-521.333
-109.474
-521.333
-116.233
-40.074
-184.378
-40.0178
-226.668
-40.2358
-252.761
-40.5282
-278.777
-40.9634
-303.849
-41.4931
-327.719
-42.1342
-351.046
-42.8736
-373.715
-43.7153
-395.993
-44.655
-417.917
-45.6933
-439.616
-46.8288
-461.158
-48.0614
-482.627
-49.3906
-504.087
-50.8165
-525.603
-52.3389
-547.232
-53.9581
-569.024
-55.6742
-591.023
-57.4871
-613.268
-59.3968
-635.786
-61.4029
-658.6
-63.5046
-681.717
-65.7005
-705.137
-67.989
-728.847
-70.3675
-752.825
-72.8332
-777.038
-75.3829
-801.448
-78.0131
-826.017
-80.7201
-850.711
-83.5005
-875.504
-86.3509
-900.384
-89.2679
-925.356
-92.248
-950.437
-95.2875
-975.659
-98.3824
-1001.06
-101.528
-1026.68
-104.72
-1052.59
-107.953
-1078.84
-111.222
-1105.53
-114.518
-1132.77
-117.828
-1160.67
-121.131
-1189.28
-124.393
-1218.58
-127.567
-1248.4
-130.591
-1278.5
-133.384
-1308.49
-135.849
-1337.94
-137.861
-1366.35
-139.272
-1393.14
-139.894
-1417.7
-139.491
-1439.22
-137.766
-1456.59
-134.352
-1468.12
-128.807
-1471.23
-120.626
-1462.04
-109.268
-1434.85
-94.2088
-1381.48
-74.9733
-1289.83
-51.254
-1141.47
-22.3139
-898.496
21.6262
-416.449
47.0281
533.013
51.5589
968.977
53.8622
1335.23
56.5227
1686.97
58.3213
2025.38
59.6896
2329.92
61.1582
2589.27
60.9048
2763.89
59.9249
2886.41
56.546
2910.3
53.2214
2928.05
46.4139
2825.86
44.9073
2899.53
36.1528
2643.58
43.8119
3035.86
46.3726
2588.77
60.3376
3354.88
4327.4
-43.2466
-184.729
-43.0896
-226.826
-43.2673
-252.583
-43.5347
-278.51
-43.9652
-303.418
-44.5015
-327.183
-45.1609
-350.387
-45.9275
-372.948
-46.805
-395.116
-47.7882
-416.933
-48.8774
-438.527
-50.0706
-459.965
-51.3675
-481.33
-52.7674
-502.687
-54.27
-524.101
-55.875
-545.627
-57.5823
-567.316
-59.3917
-589.214
-61.3028
-611.357
-63.3148
-633.774
-65.4269
-656.487
-67.6375
-679.506
-69.9445
-702.83
-72.3453
-726.446
-74.8368
-750.333
-77.4155
-774.459
-80.0778
-798.786
-82.8201
-823.275
-85.6389
-847.892
-88.5315
-872.611
-91.495
-897.421
-94.5269
-922.324
-97.6244
-947.34
-100.784
-972.499
-104.003
-997.841
-107.277
-1023.41
-110.602
-1049.26
-113.974
-1075.46
-117.388
-1102.11
-120.837
-1129.32
-124.303
-1157.2
-127.76
-1185.82
-131.167
-1215.17
-134.469
-1245.1
-137.594
-1275.37
-140.456
-1305.63
-142.949
-1335.45
-144.945
-1364.35
-146.288
-1391.8
-146.785
-1417.21
-146.186
-1439.82
-144.175
-1458.6
-140.359
-1471.94
-134.264
-1477.33
-125.352
-1470.95
-113.056
-1447.15
-96.8197
-1397.71
-76.1031
-1310.55
-50.4523
-1167.12
-19.1749
-929.774
31.0395
-466.663
53.615
510.438
54.9006
967.692
56.3141
1333.82
58.2425
1685.04
59.0721
2024.56
59.5729
2329.41
60.348
2588.49
59.6464
2764.59
58.3635
2887.69
54.9521
2913.71
51.6439
2931.35
45.0713
2832.43
43.6665
2900.94
35.3403
2651.9
42.827
3028.37
45.6902
2585.91
59.9247
3340.65
4277.85
-44.9579
-185.144
-44.7656
-227.018
-44.9185
-252.43
-45.1752
-278.253
-45.6032
-302.99
-46.1444
-326.642
-46.8143
-349.717
-47.5968
-372.166
-48.4946
-394.218
-49.5024
-415.926
-50.6201
-437.41
-51.8457
-458.739
-53.1785
-479.997
-54.6178
-501.248
-56.1631
-522.556
-57.8139
-543.976
-59.57
-565.56
-61.4309
-587.353
-63.396
-609.392
-65.4643
-631.706
-67.6343
-654.317
-69.9043
-677.236
-72.2716
-700.462
-74.7333
-723.985
-77.2858
-747.781
-79.9255
-771.819
-82.6485
-796.063
-85.4514
-820.472
-88.3311
-845.012
-91.285
-869.657
-94.311
-894.395
-97.407
-919.228
-100.571
-944.176
-103.799
-969.271
-107.088
-994.551
-110.435
-1020.06
-113.835
-1045.86
-117.287
-1072.01
-120.786
-1098.61
-124.322
-1125.78
-127.879
-1153.64
-131.424
-1182.28
-134.914
-1211.68
-138.288
-1241.73
-141.471
-1272.19
-144.374
-1302.73
-146.889
-1332.94
-148.887
-1362.35
-150.214
-1390.47
-150.672
-1416.75
-150.011
-1440.48
-147.912
-1460.7
-143.973
-1475.88
-137.714
-1483.59
-128.593
-1480.07
-116.037
-1459.7
-99.4747
-1414.27
-78.317
-1331.71
-52.0041
-1193.43
-19.6458
-962.132
34.0102
-520.319
63.2021
481.246
62.1012
968.792
60.3524
1335.57
60.9084
1684.49
60.476
2024.99
59.6591
2330.23
59.4143
2588.74
58.0026
2766
56.2703
2889.42
52.6995
2917.28
49.4389
2934.61
43.0332
2838.84
41.9004
2902.07
33.8546
2659.95
41.3418
3020.89
44.3762
2582.88
58.9028
3326.12
4234.07
-46.9733
-185.616
-46.7476
-227.244
-46.8784
-252.299
-47.1261
-278.006
-47.5542
-302.562
-48.1037
-326.092
-48.7883
-349.032
-49.5914
-371.363
-50.5152
-393.294
-51.5539
-414.887
-52.7072
-436.256
-53.9728
-457.474
-55.3499
-478.62
-56.8374
-499.76
-58.435
-520.958
-60.1419
-542.269
-61.9576
-563.745
-63.8815
-585.429
-65.9127
-607.36
-68.0498
-629.569
-70.291
-652.076
-72.6341
-674.893
-75.0758
-698.021
-77.6128
-721.448
-80.2411
-745.152
-82.9565
-769.104
-85.7551
-793.264
-88.6335
-817.594
-91.5887
-842.057
-94.6187
-866.627
-97.7219
-891.292
-100.897
-916.053
-104.141
-940.932
-107.452
-965.96
-110.827
-991.177
-114.262
-1016.63
-117.755
-1042.37
-121.303
-1068.46
-124.904
-1095.01
-128.547
-1122.14
-132.213
-1149.98
-135.869
-1178.62
-139.463
-1208.09
-142.931
-1238.26
-146.193
-1268.93
-149.156
-1299.76
-151.711
-1330.38
-153.727
-1360.33
-155.051
-1389.15
-155.487
-1416.31
-154.787
-1441.18
-152.63
-1462.86
-148.617
-1479.89
-142.268
-1489.94
-133.039
-1489.3
-120.352
-1472.39
-103.61
-1431.02
-82.1594
-1353.16
-55.3186
-1220.27
-21.5795
-995.871
33.4185
-575.317
71.133
443.531
71.6753
968.25
66.1522
1341.09
64.4767
1686.16
62.4782
2026.99
60.0106
2332.7
58.4188
2590.33
56.079
2768.34
53.7331
2891.77
49.929
2921.09
46.6713
2937.87
40.4875
2845.02
39.6012
2902.95
31.9732
2667.58
39.4466
3013.41
42.6003
2579.72
56.428
3312.3
4185.52
-48.8992
-186.128
-48.6528
-227.49
-48.7657
-252.186
-49.0081
-277.763
-49.4386
-302.132
-49.9979
-325.533
-50.6984
-348.332
-51.5231
-370.538
-52.4734
-392.344
-53.5434
-413.817
-54.7324
-435.067
-56.0379
-456.168
-57.459
-477.199
-58.9946
-498.225
-60.6439
-519.309
-62.4063
-540.507
-64.2809
-561.87
-66.267
-583.443
-68.3633
-605.264
-70.5683
-627.364
-72.8797
-649.765
-75.2948
-672.478
-77.8099
-695.505
-80.4211
-718.836
-83.124
-742.45
-85.9141
-766.314
-88.7873
-790.391
-91.7401
-814.641
-94.77
-839.027
-97.8752
-863.522
-101.055
-888.112
-104.308
-912.801
-107.632
-937.607
-111.026
-962.566
-114.486
-987.716
-118.009
-1013.1
-121.594
-1038.78
-125.239
-1064.82
-128.941
-1091.31
-132.691
-1118.39
-136.469
-1146.2
-140.235
-1174.86
-143.937
-1204.39
-147.503
-1234.69
-150.85
-1265.58
-153.881
-1296.73
-156.487
-1327.78
-158.538
-1358.28
-159.885
-1387.8
-160.339
-1415.86
-159.661
-1441.86
-157.543
-1464.97
-153.598
-1483.83
-147.361
-1496.18
-138.297
-1498.36
-125.822
-1484.87
-109.301
-1447.54
-87.9909
-1374.47
-61.0615
-1247.2
-26.1306
-1030.8
31.4627
-632.91
79.5154
395.479
82.9512
964.814
74.3774
1349.67
69.3851
1691.15
65.2152
2031.16
60.7236
2337.19
57.4061
2593.64
53.8552
2771.89
50.7066
2894.92
46.5592
2925.23
43.2713
2941.16
37.3229
2850.97
36.7485
2903.53
29.5788
2674.75
37.1617
3005.83
40.3428
2576.54
53.9774
3298.66
4144.94
-50.827
-186.668
-50.5679
-227.749
-50.6673
-252.087
-50.9079
-277.523
-51.3431
-301.697
-51.9145
-324.962
-52.6329
-347.613
-53.481
-369.69
-54.4597
-391.365
-55.5628
-412.714
-56.7894
-433.841
-58.1367
-454.821
-59.6037
-475.732
-61.1891
-496.639
-62.8922
-517.606
-64.7119
-538.687
-66.6475
-559.934
-68.6979
-581.393
-70.8616
-603.1
-73.1368
-625.089
-75.5208
-647.381
-78.0103
-669.989
-80.6015
-692.914
-83.2896
-716.148
-86.0699
-739.669
-88.9375
-763.446
-91.8882
-787.44
-94.9184
-811.611
-98.0258
-835.92
-101.209
-860.339
-104.468
-884.853
-107.802
-909.467
-111.21
-934.199
-114.69
-959.086
-118.239
-984.168
-121.854
-1009.49
-125.533
-1035.1
-129.278
-1061.08
-133.086
-1087.5
-136.949
-1114.53
-140.843
-1142.31
-144.728
-1170.97
-148.544
-1200.57
-152.218
-1231.02
-155.66
-1262.14
-158.772
-1293.62
-161.444
-1325.1
-163.552
-1356.17
-164.954
-1386.4
-165.474
-1415.34
-164.896
-1442.44
-162.937
-1466.93
-159.24
-1487.53
-153.366
-1502.05
-144.794
-1506.93
-132.923
-1496.74
-117.046
-1463.41
-96.2929
-1395.22
-69.6244
-1273.87
-33.6953
-1066.73
27.2467
-693.852
87.5458
335.179
95.0871
957.273
85.2849
1359.47
76.1081
1700.33
68.8246
2038.44
61.8844
2344.13
56.4667
2599.06
51.3935
2776.97
47.2375
2899.07
42.6188
2929.85
39.2539
2944.52
33.5357
2856.69
33.3416
2903.72
26.6443
2681.44
34.4697
2998
37.6052
2573.4
50.406
3285.86
4102.09
-52.739
-187.227
-52.4745
-228.014
-52.5647
-251.997
-52.8068
-277.28
-53.2492
-301.254
-53.8349
-324.376
-54.573
-346.875
-55.4463
-368.817
-56.4549
-390.356
-57.5927
-411.576
-58.8583
-432.575
-60.2488
-453.43
-61.7632
-474.217
-63.3999
-495.002
-65.158
-515.847
-67.0366
-536.808
-69.0347
-557.936
-71.1509
-579.276
-73.3836
-600.868
-75.7306
-622.742
-78.1889
-644.922
-80.7548
-667.423
-83.4238
-690.245
-86.1908
-713.381
-89.0506
-736.81
-91.9978
-760.499
-95.028
-784.41
-98.1377
-808.501
-101.325
-832.733
-104.589
-857.075
-107.929
-881.513
-111.347
-906.049
-114.841
-930.706
-118.409
-955.518
-122.049
-980.528
-125.758
-1005.78
-129.536
-1031.33
-133.384
-1057.23
-137.301
-1083.59
-141.28
-1110.55
-145.297
-1138.29
-149.307
-1166.96
-153.246
-1196.63
-157.035
-1227.23
-160.583
-1258.59
-163.789
-1290.41
-166.545
-1322.35
-168.736
-1353.98
-170.233
-1384.9
-170.888
-1414.68
-170.519
-1442.81
-168.89
-1468.56
-165.69
-1490.73
-160.519
-1507.22
-152.863
-1514.59
-142.076
-1507.52
-127.327
-1478.16
-107.558
-1414.99
-81.4443
-1299.98
-44.7138
-1103.46
19.1248
-757.691
95.0329
259.271
107.319
944.987
98.5197
1368.27
85.069
1713.78
73.5427
2049.97
63.5685
2354.1
55.686
2606.95
48.769
2783.89
43.3824
2904.46
38.1556
2935.08
34.6486
2948.03
29.1511
2862.19
29.3863
2903.49
23.1883
2687.64
31.3683
2989.82
34.4611
2570.31
46.2975
3274.02
4060.96
-54.6416
-187.794
-54.3781
-228.277
-54.4631
-251.912
-54.7101
-277.033
-55.1621
-300.802
-55.7643
-323.774
-56.5241
-346.115
-57.4243
-367.916
-58.4647
-389.316
-59.6387
-410.402
-60.9449
-431.269
-62.3803
-451.995
-63.9436
-472.654
-65.6332
-493.313
-67.4481
-514.033
-69.3873
-534.869
-71.4494
-555.874
-73.6332
-577.093
-75.9368
-598.564
-78.3575
-620.321
-80.8921
-642.388
-83.5365
-664.778
-86.2856
-687.496
-89.1338
-710.533
-92.0753
-733.868
-95.1045
-757.47
-98.2166
-781.298
-101.408
-805.31
-104.677
-829.463
-108.024
-853.728
-111.449
-878.088
-114.953
-902.545
-118.535
-927.123
-122.195
-951.858
-125.929
-976.793
-129.736
-1001.97
-133.615
-1027.45
-137.569
-1053.27
-141.6
-1079.56
-145.7
-1106.45
-149.845
-1134.14
-153.987
-1162.82
-158.057
-1192.56
-161.972
-1223.32
-165.638
-1254.92
-168.954
-1287.1
-171.817
-1319.48
-174.125
-1351.67
-175.776
-1383.25
-176.663
-1413.79
-176.659
-1442.81
-175.597
-1469.62
-173.234
-1493.09
-169.206
-1511.25
-162.986
-1520.81
-153.826
-1516.68
-140.698
-1491.29
-122.273
-1433.41
-96.8567
-1325.4
-59.572
-1140.75
0.994832
-818.258
100.964
159.302
118.835
927.116
113.373
1373.73
96.5247
1730.63
79.7619
2066.73
65.8892
2367.98
55.1318
2617.7
46.0411
2792.98
39.1763
2911.32
33.1899
2941.07
29.4628
2951.76
24.1672
2867.48
24.8784
2902.78
19.2065
2693.31
27.8727
2981.16
30.916
2567.27
43.0917
3261.85
4023.85
-56.536
-188.364
-56.2787
-228.535
-56.3628
-251.827
-56.6177
-276.778
-57.082
-300.338
-57.7028
-323.153
-58.4861
-345.332
-59.4152
-366.987
-60.489
-388.242
-61.7011
-409.19
-63.0495
-429.92
-64.5314
-450.513
-66.1453
-471.04
-67.8894
-491.569
-69.7627
-512.159
-71.7641
-532.868
-73.8922
-553.746
-76.1454
-574.839
-78.5216
-596.188
-81.0181
-617.825
-83.6311
-639.775
-86.3561
-662.053
-89.1875
-684.665
-92.1192
-707.601
-95.1449
-730.842
-98.2586
-754.356
-101.455
-778.101
-104.731
-802.034
-108.085
-826.11
-111.517
-850.296
-115.029
-874.576
-118.621
-898.953
-122.296
-923.449
-126.05
-948.104
-129.882
-972.962
-133.789
-998.067
-137.772
-1023.46
-141.836
-1049.21
-145.985
-1075.41
-150.212
-1102.22
-154.491
-1129.86
-158.772
-1158.54
-162.983
-1188.35
-167.035
-1219.26
-170.833
-1251.12
-174.278
-1283.65
-177.277
-1316.48
-179.752
-1349.2
-181.64
-1381.37
-182.897
-1412.54
-183.481
-1442.23
-183.318
-1469.79
-182.242
-1494.17
-179.913
-1513.58
-175.732
-1524.99
-168.77
-1523.64
-157.7
-1502.36
-140.844
-1450.27
-116.081
-1350.16
-78.3913
-1178.44
-23.1204
-873.529
99.2973
36.884
128.944
897.469
129.058
1373.62
110.436
1749.25
87.9393
2089.23
69.0519
2386.86
54.8694
2631.89
43.2658
2804.58
34.6551
2919.94
27.7385
2947.98
23.7027
2955.79
18.5784
2872.61
19.8128
2901.54
14.6871
2698.44
23.9785
2971.87
26.9942
2564.25
38.0241
3250.82
3984.6
-58.4244
-188.929
-58.1778
-228.781
-58.2649
-251.74
-58.5309
-276.512
-59.0099
-299.859
-59.6516
-322.511
-60.4605
-344.523
-61.4203
-366.028
-62.5294
-387.133
-63.7812
-407.938
-65.1736
-428.528
-66.7037
-448.983
-68.3698
-469.374
-70.1702
-489.768
-72.1037
-510.226
-74.169
-530.803
-76.3648
-551.55
-78.6893
-572.515
-81.1403
-593.737
-83.7146
-615.25
-86.4082
-637.081
-89.2161
-659.245
-92.1322
-681.749
-95.15
-704.584
-98.2625
-727.73
-101.463
-751.155
-104.747
-774.818
-108.11
-798.67
-111.551
-822.668
-115.071
-846.776
-118.672
-870.975
-122.357
-895.268
-126.126
-919.68
-129.978
-944.252
-133.91
-969.029
-137.921
-994.055
-142.013
-1019.37
-146.191
-1045.03
-150.461
-1071.14
-154.82
-1097.86
-159.241
-1125.44
-163.67
-1154.11
-168.031
-1183.99
-172.234
-1215.06
-176.181
-1247.18
-179.78
-1280.05
-182.958
-1313.31
-185.67
-1346.49
-187.917
-1379.12
-189.747
-1410.71
-191.234
-1440.74
-192.421
-1468.6
-193.211
-1493.38
-193.241
-1513.55
-191.754
-1526.48
-187.517
-1527.88
-178.803
-1511.08
-163.517
-1465.56
-139.117
-1374.56
-100.751
-1216.8
-43.9057
-930.374
82.2092
-89.2308
137.155
842.523
144.934
1365.84
126.456
1767.73
98.4436
2117.24
73.3842
2411.92
54.9909
2650.28
40.4983
2819.07
29.8626
2930.57
21.8265
2956.02
17.3811
2960.24
12.3878
2877.6
14.1888
2899.74
9.62713
2703
19.6828
2961.81
22.7481
2561.19
32.7264
3240.84
3944.19
-60.3084
-189.483
-60.0766
-229.013
-60.1705
-251.646
-60.4507
-276.232
-60.9469
-299.363
-61.6117
-321.846
-62.4484
-343.686
-63.4408
-365.035
-64.5869
-385.987
-65.8803
-406.645
-67.3185
-427.09
-68.8985
-447.403
-70.6186
-467.654
-72.477
-487.91
-74.4725
-508.23
-76.6036
-528.671
-78.8691
-549.285
-81.2669
-570.117
-83.7947
-591.209
-86.449
-612.596
-89.2255
-634.305
-92.1188
-656.352
-95.1222
-678.745
-98.2286
-701.477
-101.431
-724.528
-104.721
-747.865
-108.094
-771.444
-111.547
-795.218
-115.079
-819.137
-118.69
-843.165
-122.383
-867.281
-126.163
-891.489
-130.029
-915.814
-133.983
-940.299
-138.019
-964.992
-142.138
-989.937
-146.341
-1015.17
-150.636
-1040.74
-155.033
-1066.74
-159.53
-1093.37
-164.101
-1120.87
-168.688
-1149.52
-173.211
-1179.47
-177.579
-1210.69
-181.698
-1243.06
-185.486
-1276.27
-188.902
-1309.89
-191.957
-1343.43
-194.744
-1376.33
-197.441
-1408.01
-200.271
-1437.91
-203.4
-1465.47
-206.769
-1490.01
-209.894
-1510.42
-211.728
-1524.64
-210.605
-1529.01
-204.306
-1517.37
-190.301
-1479.56
-165.688
-1399.17
-126.076
-1256.41
-66.2985
-990.151
67.3637
-222.893
143.977
765.91
160.612
1349.2
144.038
1784.3
111.422
2149.85
79.307
2444.04
55.6588
2673.93
37.7938
2836.94
24.8448
2943.52
15.4834
2965.38
10.5142
2965.21
5.605
2882.51
8.01261
2897.33
4.02729
2706.99
15.0178
2950.82
18.1697
2558.04
28.9883
3230.02
3906.02
-62.1901
-190.023
-61.9767
-229.226
-62.081
-251.542
-62.3782
-275.935
-62.8943
-298.847
-63.5845
-321.156
-64.4509
-342.82
-65.4779
-364.008
-66.6631
-384.802
-67.9998
-405.308
-69.4857
-425.604
-71.1174
-445.771
-72.8933
-465.878
-74.8116
-485.992
-76.8709
-506.171
-79.0698
-526.472
-81.4069
-546.948
-83.8802
-567.644
-86.4869
-588.602
-89.2236
-609.859
-92.0854
-631.443
-95.0666
-653.371
-98.16
-675.652
-101.358
-698.279
-104.652
-721.234
-108.035
-744.482
-111.501
-767.978
-115.047
-791.672
-118.671
-815.513
-122.376
-839.46
-126.165
-863.492
-130.043
-887.611
-134.011
-911.846
-138.069
-936.241
-142.213
-960.847
-146.443
-985.707
-150.762
-1010.85
-155.179
-1036.32
-159.707
-1062.21
-164.349
-1088.72
-169.077
-1116.14
-173.833
-1144.77
-178.533
-1174.76
-183.086
-1206.14
-187.405
-1238.74
-191.434
-1272.24
-195.177
-1306.15
-198.734
-1339.88
-202.331
-1372.74
-206.314
-1404.03
-211.08
-1433.14
-216.9
-1459.65
-223.663
-1483.25
-230.622
-1503.46
-236.273
-1518.99
-238.393
-1526.89
-234.244
-1521.52
-220.902
-1492.9
-195.252
-1424.82
-153.639
-1298.03
-90.1927
-1053.6
52.6103
-365.696
150.012
668.508
175.85
1323.37
162.595
1797.56
126.747
2185.7
87.2366
2483.55
57.1455
2704.02
35.2251
2858.86
19.6455
2959.1
8.74146
2976.28
3.12018
2970.83
-1.76276
2887.39
1.28438
2894.29
-2.10547
2710.38
9.99003
2938.73
13.2246
2554.8
22.6123
3220.63
3866.34
-64.0712
-190.544
-63.8793
-229.418
-63.9976
-251.424
-64.3147
-275.618
-64.8531
-298.308
-65.571
-320.438
-66.4694
-341.921
-67.533
-362.944
-68.7591
-383.576
-70.1412
-403.926
-71.6765
-424.069
-73.3619
-444.086
-75.1955
-464.045
-77.1756
-484.012
-79.3007
-504.046
-81.5694
-524.204
-83.9803
-544.537
-86.5311
-565.093
-89.2191
-585.914
-92.0406
-607.038
-94.9904
-628.493
-98.0621
-650.299
-101.248
-672.466
-104.541
-694.987
-107.93
-717.844
-111.409
-741.003
-114.971
-764.416
-118.612
-788.031
-122.332
-811.793
-126.134
-835.658
-130.022
-859.604
-134.001
-883.632
-138.074
-907.773
-142.241
-932.075
-146.498
-956.591
-150.843
-981.361
-155.281
-1006.41
-159.824
-1031.78
-164.489
-1057.55
-169.282
-1083.93
-174.177
-1111.25
-179.114
-1139.83
-184.008
-1169.87
-188.772
-1201.38
-193.335
-1234.18
-197.681
-1267.89
-201.889
-1301.94
-206.188
-1335.58
-210.985
-1367.94
-216.835
-1398.18
-224.309
-1425.67
-233.709
-1450.25
-244.72
-1472.24
-256.136
-1492.05
-265.83
-1509.3
-270.955
-1521.76
-268.308
-1524.17
-254.704
-1506.51
-227.008
-1452.52
-182.484
-1342.55
-114.593
-1121.49
37.6246
-517.914
155.599
550.534
190.239
1288.72
181.611
1806.19
144.063
2223.25
97.4564
2530.16
59.8309
2741.64
32.9167
2885.77
14.3076
2977.71
1.63648
2988.96
-4.78823
2977.26
-9.68541
2892.29
-6.01168
2890.61
-8.77401
2713.14
4.63536
2925.32
8.00242
2551.43
17.7896
3210.85
3825.83
-65.9535
-191.041
-65.786
-229.586
-65.9216
-251.288
-66.2613
-275.278
-66.8248
-297.745
-67.5727
-319.69
-68.5051
-340.989
-69.6076
-361.842
-70.8766
-382.307
-72.306
-402.497
-73.8927
-422.482
-75.6337
-442.345
-77.527
-462.151
-79.5708
-481.968
-81.7638
-501.853
-84.1045
-521.863
-86.5912
-542.05
-89.2219
-562.462
-91.9937
-583.143
-94.9024
-604.129
-97.9428
-625.453
-101.108
-647.134
-104.39
-669.184
-107.78
-691.597
-111.268
-714.356
-114.846
-737.425
-118.507
-760.756
-122.247
-784.291
-126.066
-807.973
-129.968
-831.756
-133.958
-855.613
-138.043
-879.548
-142.224
-903.591
-146.503
-927.796
-150.877
-952.218
-155.341
-976.896
-159.903
-1001.85
-164.577
-1027.1
-169.385
-1052.74
-174.337
-1078.98
-179.41
-1106.18
-184.543
-1134.7
-189.653
-1164.76
-194.664
-1196.37
-199.535
-1229.31
-204.314
-1263.11
-209.199
-1297.06
-214.598
-1330.18
-221.152
-1361.39
-229.647
-1389.68
-240.774
-1414.54
-254.722
-1436.3
-270.749
-1456.21
-286.972
-1475.82
-300.523
-1495.75
-307.973
-1514.31
-305.809
-1526.34
-290.78
-1521.54
-259.939
-1483.36
-211.485
-1391
-138.522
-1194.45
22.333
-678.769
160.752
412.115
203.178
1246.3
200.694
1808.67
162.882
2261.06
110.02
2583.02
64.139
2787.52
31.0813
2918.83
8.88648
2999.9
-5.79022
3003.63
-13.1883
2984.65
-18.1384
2897.24
-13.8871
2886.36
-15.9519
2715.2
-0.996924
2910.36
2.44618
2547.99
11.4877
3201.8
3786.77
-67.8387
-191.513
-67.6984
-229.726
-67.8545
-251.132
-68.2196
-274.913
-68.8106
-297.154
-69.5909
-318.91
-70.5597
-340.02
-71.703
-360.699
-73.0171
-380.993
-74.4958
-401.018
-76.136
-420.842
-77.9346
-440.546
-79.8896
-460.196
-81.9993
-479.858
-84.2622
-499.59
-86.677
-519.448
-89.242
-539.485
-91.955
-559.749
-94.813
-580.285
-97.8117
-601.131
-100.946
-622.319
-104.207
-643.872
-107.588
-665.803
-111.079
-688.107
-114.669
-710.766
-118.349
-733.745
-122.112
-756.992
-125.955
-780.448
-129.877
-804.051
-133.882
-827.751
-137.978
-851.518
-142.171
-875.355
-146.466
-899.296
-150.862
-923.399
-155.356
-947.724
-159.945
-972.307
-164.635
-997.161
-169.444
-1022.29
-174.401
-1047.78
-179.522
-1073.86
-184.786
-1100.91
-190.134
-1129.35
-195.491
-1159.4
-200.801
-1191.06
-206.079
-1224.03
-211.473
-1257.72
-217.355
-1291.17
-224.377
-1323.16
-233.453
-1352.31
-245.579
-1377.56
-261.434
-1398.69
-280.855
-1416.88
-302.404
-1434.66
-323.337
-1454.89
-340.048
-1479.04
-348.691
-1505.67
-345.692
-1529.34
-327.955
-1539.27
-292.879
-1518.44
-239.43
-1444.45
-161.152
-1272.73
3.1809
-843.102
163.198
252.098
214.041
1195.46
219.646
1803.06
182.68
2298.03
124.727
2640.97
70.4293
2841.82
30.0344
2959.22
3.47548
3026.46
-13.498
3020.61
-22.0508
2993.21
-27.1037
2902.29
-22.3383
2881.6
-23.5811
2716.45
-6.94857
2893.73
-3.43506
2544.48
5.06482
3193.3
3742.85
-69.7287
-191.956
-69.6179
-229.837
-69.7978
-250.952
-70.1909
-274.52
-70.812
-296.533
-71.6271
-318.095
-72.6345
-339.013
-73.8209
-359.512
-75.1822
-379.631
-76.7123
-399.488
-78.4081
-419.146
-80.2664
-438.688
-82.2853
-458.178
-84.4629
-477.681
-86.798
-497.255
-89.2892
-516.957
-91.9348
-536.839
-94.7327
-556.951
-97.6796
-577.338
-100.771
-598.039
-104.001
-619.088
-107.363
-640.511
-110.846
-662.319
-114.441
-684.512
-118.136
-707.071
-121.922
-729.959
-125.792
-753.123
-129.74
-776.5
-133.768
-800.023
-137.881
-823.638
-142.086
-847.312
-146.392
-871.049
-150.804
-894.884
-155.322
-918.881
-159.942
-943.104
-164.66
-967.589
-169.483
-992.338
-174.434
-1017.34
-179.547
-1042.67
-184.846
-1068.56
-190.317
-1095.44
-195.905
-1123.76
-201.552
-1153.76
-207.244
-1185.36
-213.081
-1218.19
-219.372
-1251.43
-226.73
-1283.82
-236.112
-1313.77
-248.717
-1339.71
-265.64
-1360.63
-287.311
-1377.02
-312.894
-1391.3
-339.998
-1407.56
-364.959
-1429.93
-383.593
-1460.41
-391.93
-1497.33
-386.611
-1534.65
-364.895
-1560.99
-324.6
-1558.73
-265.194
-1503.86
-182.115
-1355.81
-29.7776
-995.439
157.894
64.4265
223.257
1130.09
238.509
1787.81
202.965
2333.57
141.163
2702.77
78.893
2904.09
30.1669
3007.95
-1.76583
3058.4
-21.4445
3040.28
-31.3445
3003.11
-36.5645
2907.51
-31.3508
2876.38
-31.6265
2716.72
-13.2383
2875.34
-9.62184
2540.86
0.987582
3182.7
3699.21
-71.6251
-192.368
-71.5463
-229.916
-71.7529
-250.746
-72.1768
-274.096
-72.8306
-295.879
-73.6829
-317.243
-74.7313
-337.964
-75.9629
-358.281
-77.3736
-378.221
-78.9574
-397.904
-80.7109
-417.392
-82.6311
-436.768
-84.716
-456.093
-86.9639
-475.433
-89.3735
-494.845
-91.9435
-514.387
-94.6723
-534.111
-97.5575
-554.066
-100.596
-574.299
-103.784
-594.852
-107.113
-615.759
-110.578
-637.046
-114.167
-658.73
-117.87
-680.81
-121.674
-703.266
-125.57
-726.063
-129.549
-749.144
-133.607
-772.442
-137.745
-795.885
-141.969
-819.414
-146.287
-842.994
-150.71
-866.626
-155.244
-890.35
-159.889
-914.236
-164.64
-938.353
-169.493
-962.737
-174.454
-987.376
-179.552
-1012.24
-184.829
-1037.39
-190.319
-1063.07
-196.017
-1089.74
-201.882
-1117.9
-207.885
-1147.75
-214.086
-1179.16
-220.724
-1211.55
-228.34
-1243.81
-237.869
-1274.29
-250.615
-1301.03
-267.985
-1322.33
-290.951
-1337.67
-319.335
-1348.63
-351.291
-1359.34
-383.327
-1375.52
-410.993
-1402.26
-429.855
-1441.54
-436.173
-1491.01
-427.047
-1543.78
-400.211
-1587.83
-353.908
-1605.03
-287.886
-1569.88
-200.294
-1443.4
-69.6532
-1126.08
134.069
-139.296
233.022
1031.14
257.329
1763.51
223.272