/*--------------------------------*- C++ -*----------------------------------*\
| =========                 |                                                 |
| \\      /  F ield         | OpenFOAM: The Open Source CFD Toolbox           |
|  \\    /   O peration     | Version:  4.1                                   |
|   \\  /    A nd           | Web:      www.OpenFOAM.org                      |
|    \\/     M anipulation  |                                                 |
\*---------------------------------------------------------------------------*/
FoamFile
{
    version     2.0;
    format      ascii;
    class       surfaceScalarField;
    location    "23";
    object      phi;
}
// * * * * * * * * * * * * * * * * * * * * * * * * * * * * * * * * * * * * * //

dimensions      [0 3 -1 0 0 0 0];

internalField   nonuniform List<scalar> 
13220
(
-906.843
2206.74
-1504.66
1898.02
-1985.11
1780.36
-2354.93
1669.71
-2630.26
1575.53
-2818.69
1488.33
-2923.49
1404.7
-2944.47
1321.17
-2880.28
1235.72
-2727.83
1147.45
-2482.45
1054.82
-2127.45
944.893
-1626.89
799.339
-956.022
629.337
343.878
423.558
1783.19
466.653
1854.92
450.465
1796.55
411.024
1709.16
378.583
1607.97
352.466
1514.45
333.206
1423.96
321.503
1332.88
314.073
1243.15
304.759
1156.77
285.417
1074.16
242.308
988.005
165.816
875.833
88.5204
706.635
432.398
181.117
1602.07
20.9767
2015.06
-140.012
1957.54
-258.605
1827.75
-362.855
1712.23
-459.888
1611.49
-546.968
1511.04
-624.491
1410.4
-690.638
1309.3
-742.963
1209.09
-777.172
1108.37
-774.547
985.383
-684.682
785.971
-432.726
454.683
-0.327789
215.847
1386.23
135.892
2095.02
1.87172
2091.56
-93.5183
1923.14
-169.629
1788.34
-229.655
1671.51
-269.529
1550.92
-289.46
1430.33
-291.44
1311.28
-275.954
1193.61
-241.779
1074.2
-184.143
927.748
-101.188
703.019
-9.79476
363.293
-10.1225
282.441
1103.79
348.917
2028.54
325.99
2114.49
305.511
1943.62
296.079
1797.77
292.538
1675.06
292.597
1550.86
296.568
1426.36
303.239
1304.61
310.676
1186.17
318.262
1066.61
320.258
925.755
296.984
726.296
215.855
444.425
205.733
248.766
855.02
359.049
1918.26
369.999
2103.54
350.726
1962.9
335.621
1812.88
324.654
1686.02
313.279
1562.24
299.218
1440.43
283.365
1320.46
265.717
1203.82
244.878
1087.45
218.964
951.668
177.7
767.561
109.076
513.048
314.809
131.052
723.97
214.07
1835.25
238.784
2078.82
216.441
1985.24
193.07
1836.25
173.358
1705.74
154.773
1580.82
136.673
1458.53
118.777
1338.36
102.467
1220.13
87.8037
1102.12
75.1152
964.36
61.1697
781.51
44.5076
529.714
359.317
35.8806
688.091
85.6184
1785.51
125.568
2038.88
115.431
1995.38
100.141
1851.54
88.3223
1717.56
76.5629
1592.58
65.7567
1469.34
56.2416
1347.88
47.1192
1229.26
39.3337
1109.9
35.6874
968.004
32.4948
784.701
28.4025
533.805
387.719
12.1259
675.967
50.2561
1747.38
94.5373
1994.6
94.598
1995.32
85.1962
1860.94
77.3187
1725.44
70.1136
1599.79
62.3518
1477.1
55.1295
1355.1
48.3015
1236.09
41.2056
1117
38.7485
970.47
37.2801
786.179
28.8804
542.213
416.6
28.4631
647.505
70.6807
1705.17
109.353
1955.92
110.459
1994.22
100.83
1870.57
90.2448
1736.02
80.7035
1609.33
71.8841
1485.92
62.6245
1364.36
53.9827
1244.73
46.0607
1124.92
42.6239
973.901
40.4247
788.372
29.0792
553.553
445.679
41.8768
605.626
85.0927
1661.95
117.358
1923.66
117.788
1993.79
107.037
1881.32
95.3023
1747.76
83.4778
1621.15
72.6002
1496.79
62.2862
1374.67
51.9605
1255.05
43.1194
1133.76
40.6745
976.35
38.7903
790.258
26.4197
565.925
472.099
21.4155
584.205
46.6286
1636.73
66.582
1903.7
61.2223
1999.14
47.2706
1895.27
33.2558
1761.77
22.0569
1632.35
11.9497
1506.9
4.01669
1382.6
-1.48812
1260.55
-4.93146
1137.2
1.06809
970.336
10.8573
780.455
12.1291
564.641
484.228
-14.609
598.808
8.82529
1613.29
25.2824
1887.24
28.8045
1995.62
23.4333
1900.64
10.7771
1774.42
-3.2156
1646.34
-15.7479
1519.43
-27.9291
1394.78
-37.0184
1269.64
-35.5203
1135.7
-21.1899
956.001
-3.88743
763.148
-9.76374
570.513
474.464
-222.984
821.787
-367.075
1757.39
-459.952
1980.11
-524.683
2060.35
-557.444
1933.39
-570.319
1787.3
-568.087
1644.1
-555.298
1506.64
-529.451
1368.93
-487.003
1227.19
-403.707
1052.41
-296.548
848.846
-183.091
649.697
-94.6769
482.105
379.787
-209.232
-92.2602
-105.95
-157.036
-277.427
-409.605
-527.552
-613.658
-661.997
-638.932
-587.208
-492
-376.118
-233.754
0.000930166
390.341
-390.339
390.343
390.344
390.346
756.97
-366.623
756.971
756.973
756.973
1085.66
-328.69
1085.67
1085.67
1381.85
-296.181
1381.85
1381.85
1381.85
1648.49
-266.636
1648.49
1648.49
1886.89
-238.401
1886.89
1886.89
1886.89
2087.48
-200.587
2087.48
2087.48
2087.48
2243.16
-155.671
2243.16
2243.16
2372.25
-129.088
2372.25
2372.25
2372.25
2442.77
-70.5198
2442.77
2442.77
2478.14
-35.3643
2478.14
2478.14
2478.14
2446.26
31.8769
2446.26
2446.26
2446.26
2356.31
89.9525
2356.31
2356.31
2221.09
135.219
2221.1
2221.1
2221.1
2014.96
206.141
2014.96
2014.96
2014.96
1744.75
270.21
1744.75
1744.75
1420.15
324.605
1420.15
1420.15
1420.15
1033.94
386.218
1033.94
1033.94
599.591
434.35
599.595
599.595
599.598
128.151
471.448
128.156
128.156
128.161
-467.726
595.885
-467.721
-467.725
-1169.38
701.654
-1169.38
-1169.38
-1149.89
-1120.67
-1096.62
-2131.91
1057.75
-2088.94
-2038.32
-1978.66
-1917.27
-1854.4
-1786.97
-1704.99
-1611.36
-3117.29
1597.29
-3008.13
-2901.49
-2793.43
-2659.91
-2524.15
-2384.24
-2237.19
-2088.8
-4180.66
2257.32
-3992.07
-3803.46
-3613.83
-3422.49
-3221.07
-3002.71
-2780.4
-2550.87
-2319.07
-4962.34
2874.57
-4700.79
-4437.67
-4172.69
-3906.07
-3637.2
-3353.27
-3056.55
-2756.14
-5771.53
3311.36
-5466.91
-5154.24
-4828.85
-4500.27
-4169.66
-3837.53
-3498.6
-3137.06
-6356.64
3574.65
-5997.85
-5637.36
-5275.94
-4898.19
-4512.9
-4128.76
-3743.55
-3354.63
-6423.48
3458.84
-6029.29
-5631.27
-5234.76
-4840.82
-4449.33
-4059.52
-3675.66
-3300.78
-2927.32
-4604.66
2040.52
-4280.18
-3959.32
-3646.77
-3338.7
-3037.21
-2775.72
-2587.43
-2388.04
-1948.91
-226.232
-1779.1
-1612.07
-1612.07
-1328.34
-283.724
-1097.16
-231.182
-1097.16
-960.715
-136.444
-960.713
-861.332
-99.3802
-811.346
-49.9841
-811.346
-799.573
-11.7706
-824.449
24.8758
-824.448
-872.91
48.4611
-872.909
-959.185
86.2756
-1058.32
99.1382
-1058.32
-1172.04
113.718
-1172.04
-1304.36
132.324
-1430.07
125.701
-1430.07
-1580.94
150.875
-1716.45
135.509
-1716.45
-1850.4
133.946
-1850.4
-2001.43
151.029
-2127.2
125.774
-2127.2
-2248.79
121.58
-2248.79
-2372
123.214
-2466.15
94.1505
-2466.15
-2578.11
111.959
-2657.69
79.5807
-2657.7
-2725.62
67.9261
-2725.62
-2804.7
79.072
-2849.8
45.0996
-2849.8
-2884.25
34.4577
-2884.25
-2912.8
28.5414
-2909.17
-3.62252
-2909.17
-2912.27
3.09445
-2882.6
-29.6711
-2882.6
-2831.29
-51.3077
-2831.29
-2776.08
-55.2119
-2689.66
-86.4196
-2689.66
-2578.94
-110.718
-2578.94
-2444.88
-134.067
-2281.17
-163.71
-2281.17
-2089.78
-191.387
-1870.74
-219.038
-1870.74
-1610.72
-260.025
-1610.72
-1309.34
-301.385
-984.879
-324.456
-984.88
-608.602
-376.278
-608.603
-169.27
-439.334
310.785
-480.056
310.785
786.448
-475.664
1389.1
-602.655
1389.1
2042.12
-653.013
2042.12
-677.632
-1947.83
357.475
-1956.68
280.964
-1965.07
340.081
-1973.54
373.789
-1982.2
409.864
-1991.29
444.275
-2000.91
476.447
-2011.14
506.14
-2022.06
534.023
-2033.7
561.352
-2046.05
589.821
-2059.06
621.601
-2072.63
659.384
-2086.63
706.268
-2100.89
765.638
-2115.24
840.906
-2129.54
935.006
-2143.67
1049.8
-2157.57
1185.93
-2171.26
1342.81
-2184.78
1518.49
-2198.24
1710.28
-2211.89
1914.92
-2226.2
2128.38
-2241.96
2345.68
-2260.5
2562.01
-2283.92
2773.86
-2315.42
2981.21
-2358.63
3190.68
-2413.62
3417.07
-2466.65
3681.86
-2476.39
3981.86
-2373.72
4259.63
-2095.67
4419.18
-1642.17
4395.45
-1101.8
4232.32
-612.818
4045.6
-302.395
3981.11
-199.499
4745.71
123.847
7962.36
542.628
7059.89
569.769
2532.36
86.0677
-3925.71
-634.557
-5256.61
-1048.78
-1925.63
-1136.34
1836.7
-1269.95
4529.76
-1485.44
6296.57
-1685.94
7712.8
-1852.1
8908.64
-2055.23
9755.54
-2305.38
10729.2
-2519.55
11449.1
-2647.42
11234.2
-2726.79
9983.41
-2817.36
8094.38
-2917.8
5903.73
-3006.31
3621.36
-3106
1842.85
-3182.5
570.023
-3203.8
-1046.25
-3222.02
-2819.35
-3192.75
-4473.87
-2994.51
-5771.65
-2435.53
-6203.94
-1347.28
-4900.73
-242.695
-1296.18
184.655
1679.47
227.224
2089.94
255.324
2295.2
242.451
2267.76
173.082
1771.24
-81.6023
-1177.73
-228.09
-3312.04
-65.3561
-2535.86
251.81
1201.14
474.139
3622.4
654.63
4695.22
3267.53
-1950.3
367.914
-1968.19
298.863
-1980.58
352.47
-1991.12
384.33
-2001.49
420.226
-2012.08
454.872
-2023.16
487.521
-2034.83
517.81
-2047.09
546.288
-2059.86
574.122
-2072.98
602.937
-2086.25
634.87
-2099.44
672.578
-2112.4
719.23
-2125.02
778.256
-2137.3
853.185
-2149.42
947.127
-2161.68
1062.05
-2174.43
1198.68
-2188.09
1356.46
-2202.8
1533.2
-2218.69
1726.18
-2235.8
1932.02
-2254.09
2146.67
-2273.92
2365.51
-2296.33
2584.43
-2323.02
2800.54
-2356.38
3014.57
-2398.24
3232.53
-2444.61
3463.45
-2474.22
3711.47
-2439.92
3947.56
-2280.15
4099.86
-1957.91
4096.94
-1502.06
3939.6
-1003.83
3734.1
-568.937
3610.7
-290.753
3702.92
-192.624
4647.58
114.6
7655.14
522.369
6652.12
550.447
2504.29
98.6365
-3473.9
-550.376
-4607.6
-978.051
-1497.96
-1164.74
2023.39
-1313.47
4678.48
-1512.27
6495.38
-1710.31
7910.84
-1879.97
9078.29
-2101.36
9976.93
-2359.27
10987.1
-2562.07
11651.9
-2672.85
11345
-2737.22
10047.8
-2805.7
8162.86
-2882.28
5980.31
-2994.55
3733.63
-3114.16
1962.45
-3137.32
593.182
-3155.45
-1028.12
-3208.33
-2766.48
-3242.08
-4440.12
-3164.35
-5849.38
-2795.11
-6573.18
-1859.63
-5836.22
-403.503
-2752.3
300.579
975.385
228.473
2162.05
225.989
2297.68
241.641
2252.1
186.615
1826.27
-82.9439
-908.178
-242.833
-3152.16
-120.799
-2657.89
231.112
849.222
461.754
3391.76
638.527
4518.44
3253.04
-1967.54
387.182
-1987.25
318.574
-2001.22
366.443
-2013.22
396.329
-2024.99
431.991
-2036.85
466.732
-2049.05
499.726
-2061.68
530.434
-2074.67
559.282
-2087.89
587.341
-2101.11
616.16
-2114.07
647.83
-2126.51
685.01
-2138.23
730.956
-2149.19
789.21
-2159.48
863.484
-2169.5
957.141
-2179.76
1072.31
-2190.88
1209.8
-2203.52
1369.1
-2218.06
1547.74
-2234.73
1742.85
-2253.62
1950.92
-2274.72
2167.77
-2298.39
2389.18
-2325.8
2611.84
-2358.45
2833.18
-2397.38
3053.51
-2440.48
3275.63
-2475.69
3498.66
-2471.96
3707.74
-2379.76
3855.36
-2153.11
3873.21
-1787.11
3730.94
-1336.76
3489.25
-888.046
3285.38
-514.324
3236.98
-279.15
3467.75
-198.936
4567.36
92.0104
7364.19
490.819
6253.31
512.341
2482.76
110.835
-3072.39
-511.053
-3985.71
-934.481
-1074.53
-1172.79
2261.7
-1348.67
4854.37
-1546.64
6693.34
-1737.39
8101.59
-1913
9253.89
-2147
10210.9
-2405.7
11245.8
-2596.3
11842.5
-2695.53
11444.2
-2756.01
10108.3
-2818.21
8225.06
-2882.32
6044.41
-2978.64
3829.96
-3071.43
2055.23
-3087.23
608.986
-3115.81
-999.533
-3179.17
-2703.11
-3237.13
-4382.15
-3213.44
-5873.07
-2957.16
-6829.47
-2212.99
-6580.39
-765.089
-4200.2
189.071
21.2239
215.998
2135.12
220.704
2292.98
231.957
2240.85
179.053
1879.17
-74.3132
-654.809
-247.953
-2978.52
-153.356
-2752.49
200.72
495.146
434.658
3157.82
604.305
4348.8
3254.69
-1987.5
410.614
-2008
339.066
-2022.62
381.069
-2035.67
409.375
-2048.4
444.726
-2061.14
479.464
-2074.09
512.683
-2087.3
543.639
-2100.65
572.636
-2113.96
600.652
-2126.96
629.154
-2139.32
660.197
-2150.82
696.511
-2161.3
741.431
-2170.76
798.677
-2179.47
872.194
-2187.96
965.63
-2196.94
1081.29
-2207.21
1220.07
-2219.55
1381.44
-2234.51
1562.69
-2252.4
1760.74
-2273.39
1971.9
-2297.56
2191.94
-2325.39
2417.02
-2358.08
2644.52
-2396.52
2871.63
-2439.41
3096.39
-2478.92
3315.14
-2493.75
3513.49
-2445.05
3659.04
-2287.29
3697.6
-1997.09
3583.01
-1601.49
3335.34
-1171.59
3059.36
-778.141
2891.93
-464.075
2922.91
-272.085
3275.76
-209.793
4505.07
65.3941
7089
454.163
5864.54
487.141
2449.78
118.327
-2703.58
-479.235
-3388.15
-901.035
-652.729
-1180.99
2541.65
-1381.56
5054.93
-1578.81
6890.6
-1764.29
8287.07
-1947.85
9437.46
-2192.47
10455.6
-2447.21
11500.5
-2623.65
12018.9
-2713
11533.6
-2771.13
10166.4
-2826.38
8280.31
-2875.36
6093.39
-2946.16
3900.75
-3007.14
2116.21
-3020.51
622.35
-3059.84
-960.206
-3133.97
-2628.99
-3215.2
-4300.93
-3242.81
-5845.45
-3090.5
-6981.78
-2535.56
-7135.32
-1349.17
-5386.6
-120.503
-1207.44
266.779
1747.84
254.91
2304.84
223.891
2271.87
172.859
1930.2
-68.045
-413.908
-255.93
-2790.63
-189.354
-2819.07
166.655
139.132
401.165
2923.31
562.934
4187.02
3341.96
-2008.05
431.708
-2028.24
359.26
-2043.12
395.943
-2056.81
423.065
-2070.1
458.017
-2083.31
492.683
-2096.65
526.021
-2110.09
557.08
-2123.5
586.044
-2136.66
613.806
-2149.26
641.756
-2161
671.938
-2171.67
707.182
-2181.16
750.92
-2189.56
807.078
-2197.25
879.886
-2204.91
973.287
-2213.4
1089.78
-2223.64
1230.32
-2236.51
1394.31
-2252.65
1578.84
-2272.39
1780.48
-2295.94
1995.45
-2323.48
2219.48
-2355.61
2449.14
-2393.37
2682.28
-2436.47
2914.73
-2479.88
3139.8
-2508.44
3343.71
-2491.53
3496.58
-2386.54
3554.06
-2160.08
3471.14
-1817.17
3240.09
-1411.66
2929.83
-1016.99
2664.69
-681.037
2555.97
-422.296
2664.17
-271.127
3124.59
-224.998
4458.94
37.7624
6826.24
414.533
5487.77
477.87
2386.45
124.647
-2350.36
-451.666
-2811.84
-884.63
-219.765
-1192.56
2849.58
-1412.25
5274.63
-1607.77
7086.11
-1790.42
8469.72
-1983.45
9630.49
-2235.81
10707.9
-2482.91
11747.6
-2644.54
12180.5
-2725.69
11614.7
-2781.3
10222
-2826.52
8325.53
-2854.89
6121.76
-2894.97
3940.83
-2931.76
2153
-2950.59
641.176
-2997.77
-913.019
-3078.24
-2548.51
-3174.59
-4204.58
-3239.12
-5780.92
-3166.41
-7054.49
-2760.92
-7540.81
-1761.11
-6386.4
-278.566
-2689.99
356.914
1112.36
291.93
2369.83
215.346
2348.45
175.561
1969.99
-57.9672
-180.375
-263.055
-2585.54
-234.429
-2847.69
131.534
-226.831
363.694
2691.15
519.157
4031.56
3381.06
-2027.83
447.621
-2046.94
378.367
-2061.76
410.762
-2075.67
436.976
-2089.13
471.473
-2102.48
506.036
-2115.88
539.418
-2129.27
570.47
-2142.49
599.269
-2155.32
626.635
-2167.47
653.901
-2178.65
683.122
-2188.69
717.215
-2197.51
759.746
-2205.28
814.85
-2212.47
887.075
-2219.86
980.677
-2228.43
1098.34
-2239.18
1241.07
-2253.08
1408.2
-2270.82
1596.58
-2292.77
1802.43
-2319.26
2021.94
-2350.65
2250.87
-2387.62
2486.12
-2430.75
2725.41
-2477.38
2961.35
-2516.58
3179.01
-2523.99
3351.11
-2461.26
3433.85
-2289.61
3382.4
-1997.28
3178.81
-1619.46
2862.28
-1226.03
2536.39
-878.543
2317.2
-599.201
2276.63
-390.473
2455.44
-277.119
3011.23
-244.599
4426.42
10.0217
6571.62
374.819
5122.97
467.839
2293.43
122.34
-2004.86
-420.972
-2268.53
-871.26
230.522
-1208.77
3187.09
-1440.21
5506.07
-1633.64
7279.54
-1815.81
8651.89
-2018.96
9833.63
-2275.78
10964.7
-2512.61
11984.4
-2659.91
12327.8
-2734.59
11689.4
-2786.43
10273.8
-2816.9
8356
-2819.24
6124.1
-2830.06
3951.65
-2853.48
2176.42
-2879.1
666.788
-2930.81
-861.312
-3015.08
-2464.24
-3121.52
-4098.14
-3213.51
-5688.93
-3203.57
-7064.43
-2919.17
-7825.22
-2097.22
-7208.36
-534.009
-4253.2
329.072
249.273
275.025
2423.87
208.468
2415
202.775
1975.68
-34.923
57.3194
-268.799
-2351.67
-276.086
-2840.41
89.772
-592.694
324.13
2456.79
473.718
3881.97
3415.44
-2045.89
458.756
-2063.46
395.937
-2077.89
425.191
-2091.58
450.667
-2104.81
484.699
-2117.93
519.157
-2131.05
552.54
-2144.1
583.521
-2156.91
612.082
-2169.27
638.991
-2180.91
665.54
-2191.58
693.798
-2201.14
726.766
-2209.55
768.164
-2217.05
822.343
-2224.15
894.175
-2231.71
988.243
-2240.79
1107.43
-2252.47
1252.75
-2267.8
1423.53
-2287.58
1616.36
-2312.39
1827.25
-2342.86
2052.4
-2379.62
2287.64
-2423.17
2529.67
-2472.32
2774.56
-2519.65
3008.69
-2545.69
3205.04
-2516.75
3322.17
-2392.56
3309.67
-2148.58
3138.42
-1802.12
2832.35
-1413.47
2473.62
-1052.83
2175.75
-759.15
2023.53
-532.573
2050.05
-368.555
2291.43
-289.778
2932.45
-267.643
4404.29
-17.8594
6321.84
334.933
4770.18
447.188
2181.17
109.919
-1667.59
-405.695
-1752.91
-876.058
700.887
-1229.49
3540.52
-1465.02
5741.6
-1656.97
7471.5
-1840.8
8835.71
-2053.78
10046.6
-2311.89
11222.8
-2536.6
12209.2
-2670.67
12461.9
-2740.07
11758.8
-2785.59
10319.3
-2795.87
8366.28
-2769.62
6097.85
-2758.17
3940.2
-2777.08
2195.33
-2807.82
697.534
-2861.68
-807.447
-2947.39
-2378.53
-3059.49
-3986.04
-3171.07
-5577.35
-3211.31
-7024.19
-3033.86
-8002.67
-2401.16
-7841.06
-1122.93
-5531.42
-1.03892
-872.617
272.929
2149.9
222.348
2465.59
186.031
2012
-47.6771
291.032
-271.138
-2128.21
-266.672
-2844.87
50.8588
-910.223
284.967
2222.68
426.309
3740.63
3465.47
-2061.65
466.925
-2077.46
411.75
-2091.13
438.857
-2104.17
463.708
-2116.79
497.319
-2129.33
531.703
-2141.89
565.099
-2154.38
596.01
-2166.65
624.348
-2178.5
650.843
-2189.72
676.758
-2200.09
704.174
-2209.5
736.174
-2217.98
776.642
-2225.77
830.132
-2233.42
901.83
-2241.84
996.665
-2252.15
1117.73
-2265.52
1266.12
-2283.2
1441.2
-2306.28
1639.45
-2335.76
1856.73
-2372.65
2089.29
-2417.46
2332.44
-2469.03
2581.24
-2521.71
2827.24
-2560.28
3047.25
-2556.3
3201.07
-2472.07
3237.94
-2275.35
3112.95
-1964.39
2827.46
-1585.37
2453.33
-1211.82
2100.07
-899.178
1863.11
-660.072
1784.42
-480.413
1870.39
-355.842
2166.86
-308.068
2884.68
-293.178
4389.4
-46.0627
6074.72
293.86
4430.26
412.078
2062.95
84.7655
-1340.28
-426.557
-1241.59
-909.791
1184.12
-1253.19
3883.92
-1486.95
5975.36
-1678.34
7662.88
-1865.64
9023.01
-2087.49
10268.5
-2343.93
11479.3
-2555.37
12420.6
-2677.48
12584
-2741.92
11823.3
-2777.44
10354.9
-2762.82
8351.65
-2709.43
6044.46
-2684.88
3915.65
-2704.03
2214.47
-2737.47
730.97
-2792.06
-752.859
-2877.29
-2293.3
-2991.46
-3871.87
-3115.81
-5453
-3193.97
-6946.03
-3102.51
-8094.12
-2627
-8316.57
-1537.27
-6621.16
-210.032
-2199.85
328.138
1611.73
268.85
2524.87
153.03
2127.82
-68.6233
512.683
-270.387
-1926.44
-264.181
-2851.08
17.4208
-1191.83
247.033
1993.07
380.371
3607.29
3521.38
-2075.21
473.922
-2089.28
425.823
-2101.94
451.516
-2114.1
475.874
-2125.97
509.184
-2137.87
543.604
-2149.89
577.12
-2161.96
608.082
-2173.96
636.348
-2185.75
662.635
-2197.17
688.178
-2208.06
715.059
-2218.32
746.431
-2228
786.33
-2237.35
839.475
-2246.88
911.356
-2257.51
1007.3
-2270.44
1130.67
-2287.09
1282.76
-2308.99
1463.11
-2337.69
1668.14
-2374.45
1893.48
-2419.87
2134.71
-2472.52
2385.1
-2527.15
2635.87
-2571.84
2871.92
-2584.02
3059.44
-2530.03
3147.08
-2376.01
3083.91
-2107.1
2844.03
-1747.17
2467.53
-1363
2069.16
-1026.62
1763.69
-769.541
1606.03
-581.043
1595.92
-441.407
1730.76
-351.536
2076.98
-331.371
2864.51
-320.699
4378.72
-74.5774
5828.6
251.079
4104.6
364.83
1949.2
49.9029
-1025.35
-456.329
-735.357
-943.98
1671.77
-1276.99
4216.93
-1506.88
6205.25
-1698.31
7854.31
-1890.4
9215.1
-2119.63
10497.7
-2371.79
11731.4
-2569.33
12618.1
-2680.68
12695.4
-2739.56
11882.1
-2760.88
10376.2
-2718.51
8309.29
-2642.86
5968.81
-2613.59
3886.39
-2634.4
2235.28
-2668.71
765.285
-2723.26
-698.312
-2806.49
-2210.06
-2919.83
-3758.53
-3051.33
-5321.49
-3157.19
-6840.18
-3134.2
-8117.11
-2790.38
-8660.39
-1868.23
-7543.31
-359.359
-3708.72
389.31
863.063
305.729
2608.45
153.412
2280.13
-62.235
728.334
-265.051
-1723.63
-272.182
-2843.95
-15.8966
-1448.11
211.02
1766.15
336.496
3481.82
3556.49
-2087.65
480.949
-2100.36
438.528
-2112.14
463.304
-2123.67
487.398
-2135.13
520.647
-2146.87
555.344
-2158.99
589.243
-2171.46
620.55
-2184.21
649.096
-2197.18
675.605
-2210.27
701.271
-2223.36
728.144
-2236.34
759.411
-2249.23
799.22
-2262.17
852.417
-2275.6
924.784
-2290.43
1022.13
-2307.96
1148.2
-2329.8
1304.6
-2357.73
1491.04
-2393.25
1703.67
-2436.9
1937.13
-2487.32
2185.13
-2539.4
2437.18
-2582.64
2679.1
-2600.03
2889.31
-2566.65
3026.07
-2450.25
3030.68
-2225.67
2859.33
-1897.78
2516.14
-1513.4
2083.15
-1149.91
1705.67
-865.291
1479.07
-664.277
1405.01
-520.167
1451.81
-414.417
1625.01
-355.36
2017.93
-359.355
2868.51
-349.601
4368.97
-103.092
5582.09
206.59
3794.92
313.434
1842.36
14.9892
-726.905
-481.568
-238.8
-976.56
2166.76
-1299.27
4539.64
-1525.58
6431.56
-1717.39
8046.12
-1915
9412.71
-2149.76
10732.5
-2395.31
11977
-2578.77
12801.6
-2680.36
12797
-2732.34
11934.1
-2735.36
10379.2
-2664.81
8238.74
-2573.7
5877.69
-2545.81
3858.5
-2567.92
2257.39
-2602.16
799.524
-2656.23
-644.251
-2736.31
-2129.98
-2846.56
-3648.28
-2980.64
-5187.41
-3105.75
-6715.07
-3137.03
-8085.84
-2904.77
-8892.65
-2154.83
-8293.25
-696.21
-5167.34
267.139
-100.287
293.487
2582.1
161.265
2412.35
-46.0959
935.693
-253.599
-1516.13
-281.038
-2816.51
-48.1728
-1680.98
177.085
1540.89
292.145
3366.75
3588.61
-2101.03
488.695
-2113.23
450.722
-2124.85
474.924
-2136.58
499.134
-2148.66
532.724
-2161.43
568.115
-2175.05
602.859
-2189.52
635.02
-2204.85
664.428
-2221.07
691.827
-2238.13
718.335
-2255.89
745.903
-2274.16
777.679
-2292.8
817.861
-2311.74
871.356
-2331.18
944.223
-2351.86
1042.81
-2374.93
1171.27
-2401.76
1331.44
-2433.67
1522.94
-2471.13
1741.13
-2512.92
1978.92
-2555.4
2227.61
-2591.21
2472.99
-2607.2
2695.09
-2582.91
2865.02
-2493.51
2936.67
-2314.04
2851.2
-2031.22
2576.51
-1665.74
2150.66
-1280.47
1697.89
-956.151
1381.35
-729.579
1252.5
-580.411
1255.85
-474.417
1345.82
-398.148
1548.74
-367.006
1986.78
-391.507
2893.01
-379.165
4356.63
-131.097
5334.02
160.89
3502.93
261.906
1741.34
-15.7156
-449.283
-484.422
229.907
-1006.7
2689.04
-1319.97
4852.91
-1543.45
6655.05
-1735.91
8238.57
-1939.29
9616.1
-2177.47
10970.6
-2414.43
12214
-2583.97
12971.1
-2676.51
12889.5
-2719.62
11977.2
-2700.96
10360.6
-2604.04
8141.81
-2504.72
5778.37
-2481.83
3835.61
-2504.5
2280.06
-2538.35
833.382
-2591.63
-590.975
-2667.74
-2053.87
-2773.18
-3542.84
-2906.21
-5054.38
-3043.67
-6577.6
-3117.6
-8011.91
-2982.67
-9027.58
-2404.35
-8871.57
-1199.03
-6372.66
-37.0148
-1262.31
284.668
2260.42
183.732
2513.29
-20.5578
1139.99
-234.91
-1301.77
-288.403
-2763.02
-78.548
-1890.83
145.109
1317.23
253.764
3258.1
3623.34
-2118.17
497.708
-2131.34
463.894
-2144.19
487.771
-2157.75
512.693
-2172.24
547.22
-2188.06
583.93
-2205.39
620.193
-2224.3
653.927
-2244.85
684.976
-2267.11
714.088
-2291
742.232
-2316.23
771.131
-2342.31
803.753
-2368.67
844.225
-2394.7
897.384
-2419.92
969.442
-2444.35
1067.24
-2468.4
1195.32
-2492.62
1355.66
-2517.7
1548.02
-2544.06
1767.49
-2570.83
2005.69
-2593.25
2250.04
-2600.83
2480.56
-2579.42
2673.68
-2509.86
2795.46
-2367.98
2794.79
-2134.67
2617.9
-1809.8
2251.64
-1427.46
1768.32
-1059.96
1330.39
-786.258
1107.64
-618.018
1084.26
-514.363
1152.19
-440.918
1272.37
-391.317
1499.14
-386.136
1981.6
-427.184
2934.06
-408.573
4338.02
-157.978
5083.43
114.368
3230.59
206.556
1649.15
-27.8228
-214.906
-559.09
761.173
-1039.71
3169.66
-1339.72
5152.92
-1560.57
6875.89
-1754.08
8432.09
-1963.02
9825.03
-2202.41
11210
-2429.18
12440.7
-2585.18
13127.1
-2669.04
12973.4
-2700.96
12009.1
-2658.3
10317.9
-2538.55
8022.07
-2437.65
5677.46
-2421.47
3819.44
-2444.17
2302.75
-2477.63
866.838
-2529.86
-538.745
-2601.46
-1982.27
-2700.85
-3443.45
-2829.89
-4925.35
-2973.78
-6433.71
-3079.35
-7906.33
-3023.24
-9083.7
-2589.55
-9305.27
-1547.28
-7414.92
-232.411
-2577.18
325.181
1702.83
240.149
2598.32
19.7479
1360.39
-208.279
-1073.75
-291.66
-2679.64
-106.254
-2076.24
114.795
1096.18
215.939
3156.95
3647.89
-2142.67
508.78
-2159.12
480.339
-2175.36
504.012
-2193.13
530.466
-2212.6
566.69
-2234.15
605.478
-2257.97
644.017
-2284.08
680.04
-2312.49
713.383
-2343.11
744.711
-2375.57
774.689
-2409.02
804.584
-2442.21
836.938
-2473.6
875.62
-2501.48
925.256
-2524.23
992.197
-2541.09
1084.1
-2552.46
1206.68
-2560.29
1363.49
-2567.66
1555.39
-2576
1775.83
-2582.96
2012.66
-2581.54
2248.61
-2558.61
2457.64
-2498.63
2613.7
-2386.42
2683.24
-2202.67
2611.04
-1930.71
2345.94
-1578.25
1899.18
-1192.85
1382.93
-856.198
993.734
-641.392
892.836
-529.511
972.379
-465.033
1087.71
-419.144
1226.48
-393.982
1473.97
-412.66
2000.28
-465.723
2987.12
-436.94
4309.23
-183.068
4829.56
68.0723
2979.44
138.187
1579.04
-81.0844
4.36654
-659.263
1339.35
-1075.11
3585.5
-1359.16
5436.98
-1577.03
7093.77
-1772.05
8627.11
-1985.88
10038.9
-2224.31
11448.5
-2439.65
12656.1
-2582.69
13270.2
-2657.85
13048.5
-2676.1
12027.4
-2608.28
10250.1
-2470.44
7884.23
-2373.42
5580.45
-2364.41
3810.43
-2386.96
2325.31
-2420.1
899.975
-2471.06
-487.78
-2537.89
-1915.44
-2630.42
-3350.91
-2753.22
-4802.54
-2898.69
-6288.25
-3026.69
-7778.33
-3033.6
-9076.79
-2723.72
-9615.15
-1834.71
-8303.92
-378.336
-4033.55
405.426
919.068
313.174
2690.57
74.903
1598.66
-172.567
-826.276
-288.84
-2563.36
-130.383
-2234.69
85.8367
879.958
177.24
3065.55
3661.42
-2177.89
522.897
-2200.22
502.673
-2222.1
525.89
-2246.34
554.701
-2272.89
593.239
-2302.01
634.602
-2333.73
675.737
-2367.78
714.089
-2403.77
749.372
-2441.05
781.994
-2478.44
812.074
-2514
840.146
-2545.21
868.144
-2569.33
899.742
-2583.86
939.785
-2587.49
995.832
-2581.65
1078.25
-2570.86
1195.89
-2560.84
1353.48
-2554.87
1549.42
-2550.8
1771.76
-2541.71
2003.57
-2518.02
2224.92
-2467.27
2406.89
-2375.14
2521.57
-2228.51
2536.61
-2013.02
2395.56
-1715.69
2048.61
-1347.94
1531.43
-970.129
1005.11
-677.288
700.892
-528.729
744.276
-468.235
911.885
-434.916
1054.39
-410.955
1202.52
-407.16
1470.18
-446.145
2039.27
-505.962
3046.94
-463.407
4266.68
-205.911
4572.06
24.9017
2748.63
77.4517
1526.49
-213.444
295.262
-732.277
1858.18
-1109.7
3962.92
-1378.57
5705.85
-1593.03
7308.23
-1789.89
8823.96
-2007.6
10256.6
-2242.95
11683.8
-2446
12859.1
-2576.72
13400.9
-2642.78
13114.6
-2644.99
12029.6
-2552.07
10157.1
-2401.42
7733.58
-2312.44
5491.46
-2310.3
3808.29
-2332.8
2347.8
-2365.68
932.859
-2415.16
-438.307
-2477.19
-1853.4
-2562.43
-3265.67
-2677.39
-4687.59
-2820.53
-6145.11
-2963.19
-7635.67
-3019.78
-9020.2
-2814.3
-9820.63
-2083.11
-9035.12
-636.115
-5480.55
359.973
-77.021
352.753
2697.79
138.932
1812.48
-127.928
-559.417
-278.757
-2412.54
-150.447
-2363
58.3602
671.147
145.762
2978.15
3673.12
-2222.38
540.091
-2251.43
531.726
-2278.97
553.427
-2309.09
584.822
-2341.35
625.501
-2375.68
668.934
-2411.67
711.719
-2448.38
750.806
-2484.64
785.628
-2518.79
816.141
-2548.48
841.773
-2570.72
862.376
-2582.32
879.749
-2581.09
898.51
-2567.11
925.804
-2544.36
973.081
-2520.4
1054.3
-2501.77
1177.27
-2489.46
1341.16
-2480.62
1540.58
-2470.66
1761.81
-2450.96
1983.87
-2409.55
2183.51
-2335.75
2333.1
-2220.41
2406.23
-2051.66
2367.85
-1814.54
2158.44
-1500.46
1734.52
-1128.91
1159.89
-775.837
652.037
-547.104
472.159
-465.75
662.922
-441.174
887.309
-424.956
1038.17
-416.041
1193.6
-430.678
1484.82
-485.706
2094.29
-546.516
3107.75
-487.208
4207.37
-225.927
4310.78
-15.3192
2538.02
17.6252
1493.54
-321.244
634.132
-793.569
2330.51
-1142.58
4311.94
-1397.95
5961.22
-1608.76
7519.03
-1807.55
9022.76
-2027.88
10476.9
-2258.17
11914.1
-2448.43
13049.4
-2567.43
13519.9
-2623.66
13170.8
-2607.72
12013.7
-2490.88
10040.3
-2332.86
7575.57
-2254.74
5413.34
-2258.77
3812.32
-2281.42
2370.45
-2314.12
965.561
-2361.9
-390.519
-2419.31
-1795.99
-2497.18
-3187.8
-2603.26
-4581.51
-2741.05
-6007.32
-2892.03
-7484.68
-2987.52
-8924.71
-2873.56
-9934.58
-2302.83
-9605.85
-1092.34
-6691.04
72.8866
-1242.24
366.123
2404.56
206.352
1972.25
-79.1823
-273.879
-260.164
-2231.55
-165.902
-2457.27
32.3811
472.864
111.051
2899.48
3673.45
-2263.61
557.415
-2295.19
563.299
-2323.13
581.375
-2352.6
614.291
-2382.68
655.576
-2412.83
699.083
-2442.03
740.92
-2468.55
777.324
-2490.33
807.408
-2504.94
830.756
-2509.69
846.52
-2502.26
854.945
-2482.13
859.618
-2452.22
868.602
-2419.37
892.96
-2391.58
945.282
-2373.42
1036.15
-2365.17
1169.01
-2362.97
1338.96
-2359.56
1537.18
-2348.23
1750.47
-2321.55
1957.19
-2268.06
2130.01
-2178.57
2243.61
-2049.15
2276.81
-1869.15
2187.85
-1620.62
1909.92
-1299.31
1413.21
-940.579
801.151
-640.257
351.715
-492.159
324.061
-458.589
629.351
-443.867
872.586
-430.447
1024.75
-431.622
1194.78
-462.946
1516.14
-530.031
2161.38
-586.193
3163.91
-507.743
4128.92
-242.811
4045.85
-52.2764
2347.49
-40.4002
1481.66
-403.696
997.427
-848.29
2775.1
-1173.86
4637.5
-1417.19
6204.55
-1624.37
7726.21
-1824.95
9223.34
-2046.44
10698.4
-2269.9
12137.6
-2447.12
13226.6
-2554.9
13627.7
-2600.29
13216.2
-2564.57
11977.9
-2425.94
9901.67
-2265.77
7415.4
-2200.1
5347.67
-2209.35
3821.58
-2232.39
2393.49
-2264.94
998.107
-2310.86
-344.602
-2364.01
-1742.84
-2434.75
-3117.07
-2531.42
-4484.83
-2661.55
-5877.19
-2815.48
-7330.75
-2939.8
-8800.4
-2901.43
-9972.95
-2469.12
-10038.2
-1422.1
-7738.06
-139.226
-2525.12
395.206
1870.12
300.885
2066.58
-33.0081
60.0134
-231.629
-2032.93
-176
-2512.9
8.38053
288.478
84.5354
2823.32
3671.56
-2275.41
567.276
-2297.91
585.803
-2313.97
597.44
-2329.01
629.329
-2341.95
668.511
-2352.06
709.197
-2358.16
747.021
-2358.29
777.45
-2350.61
799.725
-2333.68
813.832
-2307.17
820.012
-2273.26
821.033
-2237.47
823.83
-2206.98
838.11
-2187.31
873.288
-2180.63
938.608
-2185.02
1040.53
-2195.7
1179.7
-2207.2
1350.46
-2212.24
1542.21
-2202.88
1741.12
-2171.95
1926.25
-2110.63
2068.69
-2013.15
2146.13
-1878.2
2141.85
-1694.37
2004.03
-1443.59
1659.13
-1130.37
1100
-810.318
481.097
-588.278
129.675
-507.695
243.477
-486.268
607.924
-463.094
849.412
-447.213
1008.87
-457.009
1204.57
-502.765
1561.9
-577.447
2236.06
-623.684
3210.15
-524.581
4029.82
-256.875
3778.14
-83.1292
2173.74
-94.5452
1493.08
-476.928
1379.81
-900.347
3198.52
-1203.81
4940.97
-1436.22
6436.96
-1639.96
7929.95
-1841.94
9425.32
-2063.03
10919.5
-2278.13
12352.7
-2442.27
13390.7
-2539.16
13724.6
-2572.52
13249.5
-2515.94
11921.4
-2358.43
9744.16
-2200.81
7257.78
-2148.15
5295.01
-2161.56
3834.99
-2185.14
2417.07
-2217.51
1030.48
-2261.44
-300.661
-2310.85
-1693.43
-2374.95
-3052.97
-2462.19
-4397.6
-2583.04
-5756.34
-2735.53
-7178.26
-2880.03
-8655.89
-2902.8
-9950.18
-2590.55
-10350.4
-1688.28
-8640.32
-299.923
-3913.48
469.964
1100.24
400.853
2135.69
56.1862
404.684
-191.849
-1784.9
-179.445
-2525.3
-13.7586
122.791
57.6989
2751.87
3674.05
-2221.24
557.183
-2215.45
580.012
-2200.75
582.742
-2181.91
610.482
-2158.83
645.438
-2132.01
682.37
-2101.85
716.862
-2068.25
743.855
-2032.2
763.676
-1995.89
777.516
-1962.93
787.06
-1938.19
796.288
-1924.91
810.549
-1924.14
837.339
-1936.75
885.903
-1962.09
963.941
-1994.25
1072.69
-2025.08
1210.53
-2049.18
1374.55
-2060.96
1553.99
-2053.11
1733.27
-2019.13
1892.28
-1953.25
2002.8
-1853.9
2046.79
-1719.88
2007.83
-1537.9
1822.05
-1294.27
1415.49
-1008.27
813.996
-751.462
224.293
-607.284
-14.5034
-556.594
192.786
-524.19
575.519
-491.73
816.952
-474.896
992.039
-492.347
1222.02
-548.814