/*--------------------------------*- C++ -*----------------------------------*\
| =========                 |                                                 |
| \\      /  F ield         | OpenFOAM: The Open Source CFD Toolbox           |
|  \\    /   O peration     | Version:  4.1                                   |
|   \\  /    A nd           | Web:      www.OpenFOAM.org                      |
|    \\/     M anipulation  |                                                 |
\*---------------------------------------------------------------------------*/
FoamFile
{
    version     2.0;
    format      ascii;
    class       volScalarField;
    location    "20";
    object      p;
}
// * * * * * * * * * * * * * * * * * * * * * * * * * * * * * * * * * * * * * //

dimensions      [0 2 -2 0 0 0 0];

internalField   nonuniform List<scalar> 
6785
(
5567.89
5501.47
5450.52
5400.5
5354.17
5310.59
5269.6
5230.97
5194.5
5159.62
5125.74
5094.21
5065.5
5031.34
4996.84
5021.78
5003.72
5007.5
5002.72
4999.68
4996.4
4993.64
4991.54
4990.34
4990.12
4990.73
4992.86
4997.35
5000.84
5000.83
4975.01
4968.63
4978.26
4976.72
4979.88
4981.63
4983.67
4985.5
4987.22
4988.74
4990.11
4991.44
4992.41
4993.04
4994.08
5011.5
5008.46
5012.67
5008.15
5008.27
5005.9
5004.13
5002.05
5000
4997.95
4996.02
4994.66
4994.63
4995.43
4997.08
5010.64
5008.47
5011.7
5008.32
5010.16
5009.33
5009.58
5009.76
5010.11
5010.63
5011.32
5012.18
5013.49
5014.65
5016.25
5018.57
5017.98
5021.32
5019.68
5022.34
5022.68
5024
5025.2
5026.4
5027.64
5028.9
5030.08
5031.31
5032.23
5033.26
5033.02
5033.48
5036.28
5035.06
5037.28
5037.34
5038.34
5039.02
5039.7
5040.34
5040.97
5041.58
5042.24
5042.77
5043.51
5044.11
5044.94
5046.9
5045.87
5047.67
5047.45
5048.29
5048.59
5048.98
5049.21
5049.42
5049.68
5049.99
5050.32
5050.75
5050.95
5051.32
5052.66
5051.53
5052.84
5052.25
5052.77
5052.6
5052.59
5052.31
5052.01
5051.75
5051.58
5051.58
5051.41
5050.62
5049.99
5050.69
5049.23
5049.84
5048.78
5048.81
5048.11
5047.6
5046.71
5045.83
5045.07
5044.51
5043.95
5042.94
5039.18
5037.74
5037.57
5035.81
5035.66
5034.17
5033.66
5032.56
5031.83
5030.92
5030.2
5029.59
5028.86
5027.8
5026.56
5022.03
5020.71
5020.13
5018.48
5017.98
5016.41
5015.59
5014.32
5013.39
5012.45
5011.72
5011.13
5010.46
5009.88
5009.88
5015.96
5015.26
5014.61
5013.09
5012.56
5011.16
5010.34
5009.33
5008.64
5008.17
5007.99
5008.04
5008.31
5008.71
5009.55
5016.02
5018.43
5019.07
5018.78
5019.14
5018.99
5019.17
5019.21
5019.33
5019.47
5019.61
5019.74
5020.02
5020.3
5020.9
5068.12
5065.85
5061.06
5054.59
5048.15
5042.23
5037.03
5032.76
5029.06
5025.86
5023.21
5021.79
5021.38
5021.17
5021.68
5094.77
5094.72
5094.79
5094.77
5094.8
5094.71
5094.8
5094.77
5094.79
5094.78
5094.74
5094.75
5094.72
5094.73
5094.69
5094.69
5094.78
5094.63
5094.66
5094.65
5094.63
5094.58
5094.59
5094.6
5094.56
5094.5
5094.49
5094.57
5094.41
5094.42
5094.32
5094.33
5094.25
5094.21
5094.16
5094.07
5094.07
5093.88
5093.96
5093.9
5093.88
5093.81
5093.85
5093.8
5093.75
5093.73
5093.72
5093.63
5093.56
5093.54
5093.45
5093.35
5093.25
5093.33
5093.24
5093.13
5093.09
5093.19
5093.07
5092.95
5093.16
5092.95
5092.91
5092.74
5092.76
5092.67
5092.72
5091.64
5090.75
5090.96
5090.61
5085.19
5083.07
5083.97
5081.27
5068.17
5072.51
5067.96
5040.27
5046.85
5049.67
5048.29
5047.9
5038.05
5035.41
5039
5039.26
5039.65
5039.56
5040.44
5043.12
5043.68
5034.42
5029.89
5031.13
5033.58
5035.82
5036.33
5037.53
5039.08
5038.9
5027.56
5027.04
5028.76
5029.64
5031.51
5034.31
5036.01
5037.06
5038.75
5037.85
5024.31
5027.43
5028.82
5029.68
5030.3
5032.27
5034.92
5036.45
5034.33
5014.38
5023.85
5026.39
5028.01
5028.46
5028.73
5029.18
5031.94
5031.13
5010.28
5022.83
5022.26
5024.45
5026.32
5026.54
5026.92
5027.63
5024.9
5004.1
5023.68
5022.21
5022.32
5021.55
5021.98
5021.99
5021.82
5022.61
5020.17
4992.62
5015.2
5013.21
5015.05
5017.08
5015.25
5006.7
5005.39
5010.12
4983.49
5007.24
4998.6
4997.53
5018.96
4952.8
4970.07
4940.99
4987.51
5008.82
4949.67
5010.39
5038.15
5016.99
5051.67
5056.65
5093.82
5114.81
5124.84
5145.53
5146.87
5158.06
5147.7
5153.87
5147.42
5114.05
5135.25
5104.55
5060.55
5068.04
5033.23
5091.23
5039.72
4984.03
5007.28
4978.63
5065.33
5023.76
4946.11
5060.27
5026.96
4971.42
5006.85
4992.77
5076.79
5043.6
5004.66
5034.08
5028.21
5082.82
5062.92
5032.33
5083.75
5045.56
5032.73
5005.56
4979.7
5018.25
4965.53
4917.32
4941.43
4922.86
5025.14
5064.95
5027.28
5202.84
5284.37
5283.57
5379.95
5359.19
5701.31
5935.85
5537.54
6544.47
6823.36
4071.98
6126.49
8214.53
751.357
-328.215
-6030.2
-5033.34
7235.28
0.0499643
0.144198
0.189446
0.251778
0.305483
0.363334
0.418186
0.471417
0.520848
0.566844
0.613459
0.669373
0.753938
0.87629
1.02466
1.18974
1.3581
1.51486
1.67224
1.83305
1.9534
2.0858
2.34137
2.73719
3.16024
3.5303
3.82253
3.98361
4.16947
4.46931
4.83411
5.23535
5.7096
6.25227
6.8531
7.51543
8.26269
9.13687
10.1737
11.3607
12.634
13.9294
15.2273
16.5486
17.8848
19.1818
20.3706
21.3951
22.2864
23.1501
24.0246
24.7365
24.8357
23.6074
20.0669
13.0281
3.10382
-1.61691
1.43627
3.51574
6.15949
7.26886
7.93402
8.09334
7.71096
7.14568
7.38973
9.11998
11.9941
16.7517
24.7673
38.6675
63.2556
109.212
195.541
365.069
670.931
906.913
1183.12
0.138875
0.409088
0.548728
0.741116
0.910088
1.09152
1.265
1.43653
1.59974
1.75192
1.90009
2.06719
2.30471
2.64648
3.07037
3.55315
4.05602
4.53268
5.00444
5.45233
5.74843
6.03712
6.58556
7.38472
8.20806
8.97551
9.81228
10.5739
11.4098
12.4373
13.5938
14.7798
16.0866
17.5247
19.0971
20.8103
22.6931
24.7995
27.1794
29.8473
32.7272
35.708
38.7121
41.7474
44.8068
47.8736
50.98
54.1637
57.4672
60.8421
64.031
66.4709
67.175
64.5724
56.495
40.9398
20.1879
9.69473
12.0623
12.6307
17.0808
18.3486
19.2615
20.1002
20.2418
19.8346
19.6262
20.8144
22.5523
24.714
27.2478
30.1156
32.319
33.0406
25.6599
14.994
-17.1653
-256.35
3556.25
0.227648
0.66928
0.910236
1.23238
1.51706
1.82233
2.11391
2.40168
2.6754
2.93164
3.1853
3.48102
3.90098
4.49374
5.21746
6.02997
6.8691
7.66915
8.47235
9.24368
9.80531
10.4071
11.4601
12.9274
14.4184
15.7989
17.2213
18.4232
19.818
21.5404
23.4579
25.4458
27.6776
30.1538
32.876
35.8654
39.1871
42.9552
47.2331
52.0129
57.1337
62.4089
67.7426
73.1826
78.7205
84.2979
89.8863
95.4604
101.082
106.734
112.083
116.209
117.373
112.762
98.4527
70.5055
32.0374
10.0716
15.4386
21.4594
30.0397
32.0787
33.524
34.3397
33.8269
33.4835
34.6348
38.1775
42.872
48.7423
56.0862
65.4139
76.0619
88.7091
97.3555
124.79
208.891
203.512
6268.62
0.30746
0.909601
1.25171
1.70248
2.10372
2.53432
2.94596
3.35319
3.74204
4.10662
4.46625
4.88363
5.47271
6.29944
7.3063
8.43625
9.6058
10.726
11.8515
12.9293
13.73
14.6004
16.0719
18.0617
20.0705
21.9662
23.9506
25.6738
27.6903
30.1301
32.8182
35.6087
38.7262
42.1751
45.9672
50.1352
54.7632
59.9943
65.8941
72.4562
79.4758
86.7143
94.0528
101.555
109.212
116.959
124.778
132.661
140.688
148.78
156.429
162.362
164.218
158.18
138.952
101.325
49.3894
18.238
24.1599
31.9313
42.9533
45.7155
47.4873
48.4626
47.7252
47.5624
50.0038
56.032
64.5884
76.1007
91.9896
114.827
147.361
197.93
275.812
446.983
874.289
1432.97
6985.91
0.382222
1.13718
1.58192
2.16025
2.67788
3.23423
3.7664
4.29429
4.79996
5.2744
5.74034
6.27845
7.03603
8.09576
9.38368
10.8281
12.3251
13.7635
15.2093
16.591
17.6426
18.815
20.7215
23.2362
25.7793
28.2213
30.7621
32.9847
35.6161
38.7802
42.229
45.8207
49.8247
54.2506
59.1226
64.4843
70.4389
77.1562
84.7017
93.0674
101.998
111.207
120.562
130.15
139.971
149.957
160.085
170.354
180.838
191.411
201.408
209.23
211.908
204.654
180.851
134.021
68.8636
27.5832
33.252
43.155
57.0095
60.8365
62.9325
63.8567
62.7044
62.8252
66.7094
75.0058
86.8618
103.014
125.702
158.963
207.947
286.598
417.406
697.097
1366.47
2248.37
6132.56
0.451112
1.35176
1.89949
2.6042
3.23791
3.92048
4.57366
5.22377
5.84829
6.43407
7.00559
7.66051
8.58096
9.86704
11.4292
13.1824
15.0029
16.7562
18.517
20.1954
21.5057
22.9881
25.2994
28.2838
31.3171
34.2796
37.3558
40.0998
43.3633
47.2662
51.4744
55.8667
60.7421
66.1232
72.0511
78.5782
85.82
93.9589
103.058
113.112
123.829
134.882
146.129
157.683
169.554
181.685
194.07
206.733
219.737
232.882
245.328
255.164
258.875
250.804
223.166
168.403
91.6218
40.5509
44.7969
55.7474
71.7767
76.7607
79.1447
80.0238
78.6047
79.2092
84.8852
95.8835
111.506
132.701
162.394
205.826
270.193
374.642
554.405
926.62
1764.98
2921.68
5782.98
0.515043
1.55521
2.20627
3.03612
3.78535
4.59441
5.36868
6.14204
6.88631
7.58346
8.25878
9.0271
10.1064
11.6144
13.4463
15.5044
17.6445
19.7096
21.7815
23.7567
25.3456
27.1474
29.8444
33.2696
36.7779
40.2573
43.853
47.1212
51.0206
55.67
60.6339
65.8243
71.5597
77.8842
84.8576
92.5387
101.05
110.579
121.185
132.867
145.297
158.119
171.187
184.639
198.51
212.762
227.414
242.516
258.113
273.914
288.908
300.888
305.84
297.314
266.462
204.713
117.293
56.2157
57.9684
69.5643
87.5801
93.9383
96.6157
97.3647
95.7161
96.9165
104.568
118.535
138.38
165.313
203.045
258.277
341.019
477.22
717.919
1199.22
2205.56
3576.82
5023.44
0.574295
1.74833
2.50269
3.45624
4.32036
5.25619
6.15141
7.04863
7.91241
8.7194
9.49558
10.3737
11.608
13.3328
15.4295
17.7881
20.2441
22.6177
24.9999
27.2796
29.163
31.2815
34.3393
38.1727
42.1324
46.1133
50.2109
54.0128
58.5577
63.9556
69.6724
75.6585
82.2405
89.4938
97.4982
106.316
116.071
126.943
138.993
152.221
166.272
180.768
195.564
210.83
226.627
242.952
259.863
277.44
295.699
314.25
331.904
346.173
352.6
344.026
310.648
242.963
146.063
75.0109
73.1854
84.8328
104.372
112.217
115.205
115.798
114.092
116.096
125.935
143.104
167.433
200.439
246.714
314.726
418.162
591.187
902.267
1499.81
2642.02
4140.45
4655.19
0.629354
1.93199
2.78942
3.86491
4.84327
5.90617
6.92196
7.94275
8.92401
9.83704
10.7103
11.6957
13.0824
15.0198
17.3768
20.0321
22.8001
25.4819
28.1804
30.774
32.9597
35.3904
38.7878
43.0036
47.3975
51.8673
56.4515
60.7928
65.9915
72.1315
78.5966
85.3752
92.791
100.962
109.985
119.924
130.898
143.074
156.512
171.213
186.802
202.884
219.326
236.328
253.992
272.358
291.534
311.63
332.626
354.02
374.447
391.159
399.301
391.091
355.867
283.253
177.95
96.9279
90.4106
101.629
122.281
131.736
135.068
135.445
133.834
136.866
149.09
169.745
198.862
238.28
293.561
375.281
501.608
715.796
1102.53
1810.86
3044.49
4615.52
4470.09
0.68053
2.10682
3.06663
4.26203
5.35405
6.54432
7.67989
8.8226
9.91677
10.9295
11.896
12.9882
14.5272
16.6737
19.2865
22.2348
25.3132
28.3091
31.3315
34.242
36.7312
39.4685
43.1857
47.7601
52.5722
57.515
62.5701
67.459
73.3198
80.1893
87.3954
94.9623
103.201
112.28
122.31
133.354
145.52
158.957
173.725
189.824
206.866
224.446
242.448
261.111
280.581
300.957
322.403
345.062
368.866
393.197
416.511
435.824
445.933
438.513
402.14
325.62
213.041
122.194
109.863
120.12
141.365
152.471
156.184
156.306
154.969
159.32
174.108
198.526
232.751
279.017
344.041
440.997
593.401
854.104
1320.51
2130.81
3418.72
5003.5
4646.33
0.728121
2.27324
3.33416
4.6472
5.85251
7.17035
8.42413
9.68484
10.884
11.9879
13.0453
14.2489
15.9439
18.2966
21.1615
24.401
27.792
31.11
34.458
37.6819
40.474
43.5118
47.5312
52.4439
57.662
63.0598
68.5717
74.0166
80.5464
88.1273
96.0633
104.413
113.468
123.446
134.473
146.606
159.938
174.593
190.634
208.057
226.47
245.462
264.945
285.196
306.42
328.781
352.509
377.772
404.455
431.81
458.124
480.194
492.524
486.326
449.507
370.107
251.4
150.998
131.737
140.469
161.753
174.481
178.61
178.441
177.522
183.5
201.049
229.506
269.161
322.787
398.548
512.823
695.317
1008.34
1556.61
2456.51
3748.56
5177.62
5158.67
0.772284
2.43126
3.59174
5.01967
6.33827
7.78346
9.15247
10.5239
11.8168
13.0039
14.1566
15.486
17.3444
19.9002
23.0131
26.5422
30.2471
33.8898
37.5595
41.0917
44.1848
47.5157
51.821
57.0547
62.6689
68.5002
74.4571
80.4654
87.67
95.9444
104.595
113.719
123.586
134.459
146.471
159.677
174.146
189.977
207.234
225.908
245.611
265.932
286.818
308.592
331.522
355.848
381.868
409.776
439.4
469.862
499.28
524.261
539.068
534.528
497.971
416.725
293.089
183.579
156.328
162.88
183.588
197.798
202.362
201.896
201.537
209.437
229.965
262.753
308.216
369.868
457.681
591.881
808.951
1179.52
1808.42
2779.44
4029.89
5132.38
5451.07
0.813113
2.58048
3.83895
5.37852
6.81072
8.38228
9.8611
11.3318
12.7069
13.9753
15.2386
16.7147
18.7436
21.4987
24.8537
28.6681
32.683
36.6491
40.6354
44.4705
47.8605
51.476
56.0514
61.5933
67.5938
73.8363
80.2284
86.8064
94.6903
103.643
112.992
122.879
133.553
145.318
158.304
172.565
188.142
205.105
223.521
243.376
264.289
285.861
308.077
331.313
355.907
382.183
410.509
441.098
473.717
507.357
539.974
568.014
585.55
583.103
547.518
465.468
338.154
220.174
183.983
187.597
207.082
222.513
227.493
226.749
227.088
237.179
260.926
298.377
350.132
420.721
522.324
679.612
936.014
1368.14
2072.48
3090.01
4271.21
5023.89
5439.19
0.850756
2.72013
4.07524
5.72293
7.2688
8.96446
10.5442
12.1009
13.5508
14.9055
16.2993
17.9409
20.1463
23.0978
26.6888
30.782
35.1008
39.3877
43.6861
47.8184
51.4982
55.3882
60.219
66.0603
72.4355
79.0688
85.8885
93.0436
101.609
111.226
121.261
131.898
143.371
156.024
169.973
185.269
201.924
219.976
239.494
260.46
282.508
305.255
328.733
353.377
379.6
407.814
438.457
471.757
507.414
544.288
580.185
611.423
631.936
632.015
598.111
516.306
386.613
261.014
215.117
214.917
232.504
248.757
254.088
253.108
254.282
266.815
294.059
336.579
395.269
476.008
593.606
777.64
1078.08
1573.95
2344.89
3380.4
4468.42
4950.35
5375.63
0.885289
2.84906
4.29973
6.05231
7.71108
9.52644
11.1956
12.8275
14.3478
15.7967
17.339
19.1609
21.549
24.6964
28.5192
32.8847
37.5017
42.1069
46.7128
51.1353
55.095
59.2475
64.3207
70.4555
77.193
84.1998
91.4428
99.1838
108.43
118.697
129.408
140.783
153.045
166.578
181.478
197.789
215.49
234.586
255.15
277.159
300.269
324.12
348.8
374.803
402.626
432.768
465.738
501.77
540.494
580.642
619.885
654.449
678.177
681.209
649.69
569.181
438.46
306.306
250.193
245.204
260.204
276.749
282.295
281.141
283.28
298.498
329.575
377.686
444.163
536.616
672.865
887.632
1236.28
1795.64
2620.97
3646.4
4623.67
4922.37
5281.48
0.916867
2.96607
4.51123
6.36598
8.13611
10.0639
11.8109
13.509
15.0957
16.6505
18.3575
20.3705
22.9479
26.293
30.3454
34.9771
39.8878
44.8086
49.7169
54.421
58.6482
63.0496
68.3539
74.7785
81.866
89.2321
96.8974
105.233
115.152
126.054
137.439
149.539
162.581
176.982
192.819
210.124
228.837
248.933
270.486
293.474
317.577
342.466
368.292
395.614
425.011
457.074
492.374
531.148
572.952
616.395
659.034
697.037
724.211
730.613
702.174
624.012
493.651
356.216
289.704
278.902
290.608
306.796
312.341
311.095
314.329
332.473
367.812
422.188
497.558
603.655
761.61
1011.16
1411.13
2030.87
2895.35
3884.36
4741.11
4946.47
5202.79
0.946056
3.07024
4.70861
6.66308
8.54247
10.5734
12.3875
14.1411
15.7952
17.4734
19.3586
21.5689
24.3409
27.8873
32.1688
37.0611
42.2621
47.4948
52.6995
57.6748
62.155
66.7906
72.3163
79.0283
86.4552
94.1694
102.258
111.193
121.776
133.299
145.358
158.17
171.981
187.238
203.999
222.273
241.963
263.015
285.501
309.405
334.436
360.304
387.227
415.831
446.781
480.757
518.386
559.899
604.776
651.515
697.582
739.121
769.959
780.138
755.461
680.688
552.106
410.86
334.146
316.534
324.23
339.314
344.545
343.283
347.775
369.109
409.261
470.761
556.405
678.431
861.421
1149.53
1602.39
2276.39
3162.6
4092.91
4824.62
5006.85
5138.35
0.973805
3.16244
4.89164
6.94313
8.92877
11.0523
12.9213
14.7203
16.4534
18.2764
20.3477
22.7566
25.7266
29.4789
33.9906
39.1387
44.6271
50.1667
55.661
60.8955
65.6126
70.4666
76.2059
83.2044
90.9618
99.0153
107.53
117.066
128.299
140.434
153.164
166.676
181.247
197.347
215.016
234.236
254.867
276.83
300.194
324.955
350.853
377.646
405.622
435.478
467.963
503.84
543.787
588.021
635.947
685.962
735.469
780.626
815.332
829.677
809.426
739.069
613.705
470.287
383.981
358.696
361.661
374.835
379.339
378.092
384.061
408.917
454.587
524.282
621.855
762.386
973.83
1303.63
1808.96
2528.28
3418.07
4271.2
4871.87
5121.58
5113.04
1.00093
3.24518
5.06075
7.20585
9.29178
11.4951
13.4059
15.2485
17.0836
19.0706
21.3294
23.9338
27.1037
31.067
35.8113
41.2118
46.9842
52.8253
58.6008
64.081
69.0175
74.0746
80.0216
87.3065
95.3873
103.773
112.717
122.85
134.719
147.462
160.859
175.061
190.38
207.312
225.874
246.012
267.547
290.376
314.565
340.125
366.834
394.504
423.496
454.578
488.579
526.343
568.586
615.508
666.437
719.686
772.626
821.468
860.229
879.113
863.927
798.993
678.286
534.474
439.602
406.029
403.571
414.013
417.297
416.027
423.736
452.561
504.635
583.816
695.223
857.017
1100.17
1473.7
2028.89
2782.29
3657.28
4417.13
4883.82
5273.83
5085.01
1.02712
3.31992
5.21582
7.44907
9.62507
11.8938
13.8366
15.735
17.7007
19.8635
22.3057
25.1006
28.471
32.6506
37.6307
43.2813
49.3335
55.4706
61.5176
67.2288
72.3664
77.6116
83.7628
91.335
99.7332
108.446
117.822
128.542
141.034
154.386
168.448
183.326
199.384
217.135
236.571
257.601
280.002
303.651
328.612
354.919
382.389
410.892
440.868
473.152
508.651
548.279
592.785
642.344
696.213
752.635
808.981
861.556
904.541
928.313
918.804
860.266
745.642
603.315
501.3
459.175
450.682
457.61
459.131
457.748
467.488
500.866
560.428
650.602
777.928
963.757
1241.4
1659.31
2259.44
3034.06
3877.13
4536.25
4865.21
5291.41
5036.12
1.05105
3.38645
5.35566
7.66819
9.92015
12.2402
14.2137
16.1932
18.316
20.6582
23.2771
26.2575
29.8281
34.2292
39.4485
45.3475
51.6743
58.1023
64.4094
70.3358
75.6555
81.0752
87.4295
95.2905
104.001
113.036
122.845
134.14
147.243
161.206
175.93
191.475
208.263
226.818
247.11
269.002
292.229
316.653
342.337
369.341
397.523
426.824
457.755
491.22
528.195
569.658
616.382
668.511
725.236
784.75
844.456
900.796
948.154
977.138
973.883
922.675
815.526
676.618
569.235
518.726
503.746
506.465
505.669
504.053
516.151
554.81
623.143
725.997
871.406
1083.84
1397.98
1859.24
2497.33
3279.48
4074.87
4630.69
4840.13
5198.36
4991.07
1.07118
3.44449
5.47872
7.85793
10.1694
12.5302
14.5453
16.638
18.9352
21.4541
24.2437
27.4049
31.1752
35.8025
41.2643
47.41
54.006
60.7194
67.2739
73.3986
78.8811
84.4631
91.0222
99.1747
108.193
117.545
127.788
139.642
153.344
167.919
183.304
199.507
217.017
236.364
257.489
280.214
304.228
329.382
355.74
383.394
412.248
442.312
474.175
508.798
547.225
590.485
639.368
693.982
753.462
815.971
878.974
939.092
990.952
1025.44
1028.98
985.982
887.649
754.108
643.418
585.172
563.496
561.46
557.817
555.848
570.689
615.498
694.075
811.411
976.996
1218.18
1569.75
2071.56
2738.9
3514.7
4248.71
4701.65
4830.47
5106.02
4955.78
1.08626
3.49494
5.58411
8.01498
10.3699
12.7664
14.8463
17.0815
19.5586
22.2495
25.2053
28.5436
32.513
37.371
43.0777
49.4681
56.3282
63.3205
70.1082
76.4138
82.0395
87.7735
94.5416
102.989
112.309
121.976
132.651
145.049
159.338
174.524
190.568
207.422
225.647
245.772
267.709
291.236
315.997
341.836
368.822
397.082
426.571
457.371
490.142
525.901
565.75
610.76
661.729
718.731
780.847
846.237
912.461
976.351
1032.82
1073.07
1083.89
1049.93
961.681
835.422
723.699
658.845
630.597
623.465
616.521
614.1
632.151
684.118
774.564
908.208
1095.82
1367.21
1755.86
2293.7
2980.27
3736.36
4398.83
4753.7
4833.61
5036.39
4928.91
1.09497
3.53904
5.67134
8.13929
10.5243
12.9592
15.1336
17.5319
20.1849
23.0432
26.1624
29.6742
33.8425
38.9354
44.8886
51.521
58.6402
65.9033
72.9096
79.3778
85.1273
91.0049
97.9888
106.735
116.35
126.331
137.434
150.363
165.225
181.018
197.718
215.217
234.152
255.041
277.768
302.066
327.535
354.014
381.584
410.411
440.501
472.013
505.671
542.542
583.775
630.479
683.45
742.726
807.348
875.491
944.845
1012.48
1073.64
1119.88
1138.42
1114.25
1037.26
920.123
809.769
739.885
705.578
693.275
682.706
679.795
701.624
761.873
865.916
1017.6
1228.65
1530.83
1954.79
2522.61
3217.59
3941.75
4526.49
4792.04
4841.08
4981.23
4910.18
1.0951
3.57703
5.73886
8.23183
10.6388
13.1252
15.4225
17.9918
20.8127
23.8346
27.1152
30.7972
35.1648
40.4966
46.6968
53.5679
60.941
68.4655
75.6755
82.2865
88.1411
94.1562
101.365
110.415
120.319
130.611
142.136
155.584
171.01
187.402
204.752
222.889
242.53
264.171
287.667
312.703
338.84
365.916
394.028
423.384
454.047
486.249
520.773
558.728
601.304
649.635
704.512
765.936
832.921
903.681
976.061
1047.41
1113.3
1165.72
1192.37
1178.67
1113.98
1007.7
901.166
828.215
788.777
771.537
757.213
753.868
780.153
849.898
969.285
1140.51
1375.81
1708.36
2164.44
2754.9
3447.24
4128.97
4633.31
4820.42
4849.89
4941.66
4899.37
1.08333
3.60717
5.78312
8.29145
10.7211
13.2814
15.7224
18.4596
21.4416
24.6243
28.0639
31.9132
36.4813
42.0559
48.5027
55.6079
63.2298
71.0041
78.4027
85.1354
91.0777
97.2266
104.672
114.029
124.215
134.816
146.759
160.717
176.695
193.678
211.668
230.437
250.778
273.161
297.404
323.147
349.911
377.54
406.155
436.008
467.217
500.089
535.457
574.465
618.335
668.218
724.895
788.333
857.53
930.76
1006.05
1081.05
1151.71
1210.45
1245.54
1242.88
1191.44
1097.6
997.299
923.527
880.284
858.678
840.715
837.131
868.665
949.162
1085.57
1277.51
1537.15
1898.49
2382.19
2987.06
3666.01
4296.98
4721.34
4841.73
4859.99
4916.05
4892.43
1.05578
3.6259
5.79935
8.3166
10.7806
13.4398
16.0357
18.9332
22.0724
25.4134
29.0086
33.0227
37.7933
43.6145
50.3065
57.6406
65.5055
73.5165
81.0876
87.9199
93.9343
100.216
107.913
117.579
128.04
138.949
151.302
165.764
182.286
199.854
218.465
237.862
258.898
282.01
306.98
333.395
360.746
388.886
417.967
448.285
480.019
513.542
549.733
589.757
634.865
686.218
744.579
809.888
881.138
956.686
1034.77
1113.35
1188.76
1253.94
1297.73
1306.59
1269.19
1189.21
1097.46
1025.29
979.911
954.837
933.647
930.196
967.864
1060.36
1215.32
1428.72
1711.98
2099.4
2605.08
3215.61
3871.25
4445.53
4793.13
4858.25
4869.51
4900.23
4890.06
1.00976
3.62851
5.78402
8.31093
10.829
13.6056
16.3594
19.4108
22.7064
26.2027
29.9493
34.1265
39.1025
45.1738
52.1085
59.6656
67.7672
76.0001
83.7262
90.6355
96.7085
103.127
111.088
121.066
131.794
143.01
155.768
170.726
187.787
205.931
225.146
245.162
266.888
290.718
316.394
343.447
371.343
399.955
429.467
460.223
492.46
526.617
563.605
604.605
650.889
703.621
763.545
830.576
903.717
981.429
1062.17
1144.24
1224.39
1296.05
1348.76
1369.52
1346.78
1281.89
1200.86
1132.79
1087.18
1059.83
1036.15
1033.41
1078.16
1183.83
1358.6
1593.72
1899.15
2308.85
2829.96
3437.26
4060.95
4575.11
4851.25
4871.36
4878.48
4893.18
4892.01
0.946697
3.61021
5.73828
8.28559
10.8783
13.7792
16.6885
19.892
23.3443
26.9929
30.8862
35.2252
40.4102
46.7352
53.9091
61.6824
70.0138
78.4521
86.3138
93.2775
99.399
105.96
114.201
124.49
135.478
146.999
160.156
175.606
193.202
211.913
231.713
252.339
274.75
299.284
325.643
353.3
381.703
410.746
440.655
471.824
504.547
539.318
577.076
619.009
666.402
720.415
781.776
850.376
925.245
1004.96
1088.23
1173.69
1258.51
1336.68
1398.43
1431.37
1423.78
1375
1306.65
1245.13
1201.36
1173.13
1148.04
1146.8
1199.6
1319.48
1515
1771.58
2096.98
2524.29
3053.62
3649.08
4233.75
4686.71
4898.13
4882.31
4884.27
4889.6
4894.74
0.874282
3.56711
5.66963
8.25526
10.9348
13.9583
17.0196
20.3776
23.9866
27.7842
31.8197
36.3198
41.7182
48.3004
55.7085
63.6908
72.2439
80.8692
88.8452
95.8414
102.005
108.718
117.254
127.851
139.091
150.915
164.469
180.407
198.532
217.799
238.169
259.394
282.484
307.709
334.727
362.956
391.825
421.261
451.536
483.095
516.285
551.653
590.149
632.965
681.395
736.59
799.256
869.272
945.704
1027.27
1112.93
1201.65
1291.07
1375.73
1446.59
1491.85
1499.75
1467.91
1413.94
1361.3
1321.47
1293.91
1268.83
1270.12
1331.89
1466.76
1683.51
1960.77
2303.23
2742.85
3272.95
3848.6
4388.95
4781.79
4936.45
4892.53
4879.78
4886.74
4895.08
0.804754
3.49751
5.58985
8.2313
10.9997
14.1409
17.3519
20.8682
24.6336
28.5767
32.7499
37.4112
43.0283
49.8707
57.5069
65.6905
74.4556
83.2475
91.315
98.3228
104.525
111.402
120.247
131.147
142.633
154.76
168.71
185.132
203.782
223.591
244.517
266.329
290.092
315.991
343.647
372.414
401.709
431.5
462.111
494.038
527.679
563.622
602.825
646.471
695.86
752.132
815.971
887.249
965.085
1048.35
1136.25
1228.12
1322.02
1413.1
1493.06
1550.72
1574.28
1559.99
1521.84
1480.19
1446.36
1421.04
1397.65
1402.81
1474.35
1624.74
1862.61
2159.22
2515.23
2961.47
3485
4033.88
4526.44
4862.02
4968.3
4903.8
4871.7
4886.65
4897.82
0.749465
3.40391
5.51086
8.2179
11.0712
14.3266
17.6865
21.364
25.2852
29.3702
33.6773
38.5008
44.3425
51.4477
59.3046
67.6809
76.6461
85.5827
93.7175
100.717
106.961
114.016
123.181
134.379
146.102
158.532
172.879
189.783
208.952
229.288
250.757
273.148
297.572
324.129
352.401
381.672
411.355
441.465
472.384
504.659
538.733
575.231
615.101
659.522
709.791
767.033
831.912
904.301
983.384
1068.2
1158.2
1253.08
1351.32
1448.72
1537.72
1607.73
1647.01
1650.66
1629.47
1600.67
1574.73
1553.15
1533.31
1544.01
1625.96
1792.06
2050.31
2364.42
2730.03
3177.06
3687.16
4203.54
4646.6
4929.24
4995.24
4917.58
4869.08
4889.1
4903.76
0.713524
3.29381
5.44119
8.21376
11.1481
14.5167
18.0254
21.8647
25.9414
30.1647
34.6018
39.5898
45.6632
53.0328
61.1017
69.6613
78.8119
87.87
96.047
103.022
109.312
116.561
126.056
137.542
149.498
162.233
176.98
194.363
214.048
234.893
256.889
279.849
304.923
332.123
360.989
390.732
420.763
451.156
482.357
514.961
549.451
586.478
626.977
672.113
723.18
781.284
847.072
920.424
1000.6
1086.82
1178.79
1276.52
1378.97
1482.54
1580.45
1662.67
1717.58
1739.39
1736.01
1721.58
1705.24
1688.78
1674.39
1692.53
1785.37
1967.03
2244.36
2573.61
2944.67
3386.69
3877.22
4356.73
4750.26
4985.4
5018.69
4932.62
4871.78
4892.24
4911.71
0.694024
3.17799
5.3848
8.21598
11.23
14.713
18.37
22.3703
26.6024
30.96
35.5235
40.6796
46.9928
54.6273
62.8986
71.6305
80.9483
90.1044
98.2982
105.233
111.58
119.039
128.871
140.634
152.817
165.862
181.016
198.878
219.07
240.405
262.915
286.434
312.143
339.971
369.409
399.593
429.933
460.577
492.033
524.948
559.835
597.366
638.449
684.239
736.02
794.879
861.446
935.619
1016.75
1104.23
1198.03
1298.47
1404.95
1514.52
1621.14
1715.35
1785.69
1825.69
1840.67
1841.81
1836.53
1826.48
1819.37
1846.91
1951.01
2147.69
2442.28
2783.96
3156.32
3587.74
4053.46
4493.12
4838.53
5032.39
5039.98
4947.3
4876.76
4894.93
4921.05
0.682133
3.06621
5.34227
8.22271
11.3179
14.9175
18.7215
22.8815
27.2683
31.7562
36.4428
41.772
48.3339
56.232
64.6957
73.587
83.0504
92.2807
100.466
107.35
113.765
121.452
131.625
143.653
156.058
169.422
184.988
203.332
224.023
245.826
268.832
292.902
319.23
347.669
377.661
408.252
438.865
469.728
501.417
534.624
569.888
607.892
649.514
695.894
748.306
807.812
875.035
949.894
1031.84
1120.45
1215.94
1318.94
1429.27
1544.63
1659.73
1765.63
1851.1
1909.14
1942.75
1960.29
1967.27
1964.89
1966.8
2005.53
2121.13
2331.96
2641.51
2992.68
3362.33
3778.03
4214.69
4612.84
4912.73
5071.94
5060.27
4961.21
4882.81
4896.17
4931.02
0.66884
2.96286
5.31202
8.23386
11.4133
15.1312
19.0807
23.3992
27.939
32.5532
37.3605
42.8698
49.6897
57.8475
66.4935
75.5288
85.1129
94.3938
102.548
109.373
115.871
123.802
134.315
146.594
159.219
172.912
188.901
207.73
228.908
251.156
274.638
299.252
326.179
355.216
385.741
416.71
447.56
478.611
510.511
543.991
579.611
618.057
660.169
707.075
760.032
820.083
887.841
963.257
1045.9
1135.52
1232.57
1337.96
1451.94
1572.87
1696.15
1813.39
1913.58
1989.36
2041.62
2076.02
2096.2
2102.7
2115.25
2166.71
2293.88
2517.68
2839.5
3197.09
3560.31
3955.82
4360.18
4716.45
4974.29
5105.51
5080.76
4974.91
4890.46
4897.26
4940.19
0.644105
2.86666
5.29007
8.25037
11.5175
15.3545
19.4489
23.9243
28.6148
33.3511
38.2773
43.9761
51.0631
59.4741
68.2922
77.4541
87.1308
96.4396
104.541
111.304
117.9
126.089
136.94
149.455
162.299
176.334
192.758
212.078
233.727
256.394
280.332
305.481
332.984
362.606
393.646
424.965
456.018
487.23
519.319
553.051
589.004
627.857
670.409
717.776
771.196
831.692
899.871
975.725
1058.94
1149.45
1247.94
1355.57
1473.01
1599.24
1730.39
1858.53
1972.97
2066.05
2136.72
2188.13
2222.1
2238.72
2263.42
2328.78
2467.37
2702.69
3033.79
3394.68
3748.22
4119.85
4489.7
4804.77
5024.67
5134.1
5102.36
4991.56
4899.81
4896.3
4943.03
0.60739
2.77386
5.27222
8.27291
11.6314
15.5875
19.827
24.4574
29.2956
34.1502
39.1945
45.0943
52.4564
61.1118
70.092
79.3613
89.1
98.4148
106.444
113.146
119.855
128.315
139.495
152.232
165.296
179.691
196.564
216.382
238.483
261.54
285.916
311.588
339.642
369.835
401.374
433.016
464.239
495.586
527.844
561.807
598.069
637.292
680.233
727.996
781.798
842.641
911.136
987.317
1070.99
1162.3
1262.1
1371.81
1492.5
1623.77
1762.42
1901.01
2029.14
2138.97
2227.64
2295.87
2343.92
2371.89
2410.07
2490.11
2639.75
2884.95
3222.13
3583.23
3924.37
4269.35
4603.43
4878.92
5065.32
5158.49
5124.69
5009.69
4907.37
4890.07
4941.3
0.566165
2.6821
5.25745
8.3018
11.7556
15.8306
20.2158
24.9992
29.9818
34.951
40.1135
46.2278
53.8712
62.7605
71.8933
81.2488
91.0178
100.317
108.257
114.903
121.74
130.481
141.979
154.921
168.21
182.986
200.324
220.647
243.177
266.596
291.393
317.569
346.145
376.898
408.92
440.86
472.223
503.682
536.087
570.261
606.805
646.358
689.636
737.731
791.837
852.937
921.648
998.056
1082.09
1174.09
1275.1
1386.74
1510.47
1646.5
1792.27
1940.81
2082.04
2207.96
2314.01
2398.65
2460.75
2501.3
2554.11
2649.13
2809.25
3062.55
3402.59
3760.82
4087.48
4403.92
4701.91
4940.18
5097.63
5179.44
5147.69
5026.73
4912.4
4877.43
4928.41
0.527256
2.59414
5.24493
8.3368
11.8906
16.0845
20.6158
25.5501
30.6737
35.7542
41.0362
47.3798
55.308
64.4197
73.6964
83.116
92.883
102.147
109.984
116.58
123.557
132.587
144.388
157.519
171.04
186.224
204.044
224.879
247.812
271.563
296.767
323.425
352.491
383.788
416.279
448.495
479.971
511.52
544.051
578.413
615.212
655.053
698.619
746.982
801.316
862.589
931.427
1007.97
1092.28
1184.87
1286.98
1400.4
1526.97
1667.46
1819.96
1977.92
2131.63
2272.91
2395.61
2495.97
2571.82
2626.18
2694.59
2804.39
2974.28
3233.82
3573.56
3925.9
4236.61
4523.61
4785.96
4989.92
5122.81
5197.06
5173.18
5042.26
4913.28
4857.76
4906.59
0.500097
2.51706
5.23569
8.37768
12.0372
16.3495
21.0276
26.1104
31.3717
36.5609
41.9652
48.5525
56.7659
66.0883
75.5023
84.9628
94.696
103.903
111.625
118.183
125.311
134.633
146.718
160.023
173.789
189.411
207.732
229.083
252.388
276.443
302.042
329.152
358.672
390.497
423.446
455.918
487.483
519.101
551.738
586.265
623.288
663.378
707.179
755.751
810.242
871.608
940.493
1017.09
1101.59
1194.69
1297.79
1412.86
1542.05
1686.73
1845.55
2012.4
2177.93
2333.77
2472.26