/*--------------------------------*- C++ -*----------------------------------*\
| =========                 |                                                 |
| \\      /  F ield         | OpenFOAM: The Open Source CFD Toolbox           |
|  \\    /   O peration     | Version:  4.1                                   |
|   \\  /    A nd           | Web:      www.OpenFOAM.org                      |
|    \\/     M anipulation  |                                                 |
\*---------------------------------------------------------------------------*/
FoamFile
{
    version     2.0;
    format      ascii;
    class       surfaceScalarField;
    location    "20";
    object      phi;
}
// * * * * * * * * * * * * * * * * * * * * * * * * * * * * * * * * * * * * * //

dimensions      [0 3 -1 0 0 0 0];

internalField   nonuniform List<scalar> 
13220
(
-881.914
2181.81
-1362.9
1781.18
-1819.75
1756.76
-2163.76
1643.9
-2427
1563.44
-2610.39
1483.29
-2716.1
1405.61
-2744.24
1328.35
-2695.31
1250.97
-2572.74
1177.33
-2387.2
1114.66
-2129.99
1042.68
-1731.35
901.256
-1071.51
640.358
228.389
-32.1694
2213.99
-106.058
1855.08
-265.545
1916.25
-395.363
1773.73
-529.3
1697.39
-646.179
1600.17
-747.62
1507.05
-832.048
1412.78
-903.063
1321.99
-955.434
1229.71
-940.794
1100.02
-760.129
862.033
-373.585
514.731
12.7641
254.057
241.152
-174.314
2388.33
-412.288
2093.08
-631.016
2135
-780.301
1923.03
-923.277
1840.38
-1030.45
1707.37
-1118.68
1595.3
-1189.44
1483.55
-1247.25
1379.82
-1283.85
1266.31
-1256.89
1073.08
-1091.52
696.605
-774.233
197.398
-438.418
-81.8279
-197.263
22.4974
2365.88
-66.0636
2181.7
-105.162
2174.16
-109.764
1927.7
-114.287
1844.97
-97.0142
1690.16
-67.1794
1565.53
-20.8039
1437.23
41.7001
1317.37
113.649
1194.42
158.459
1028.29
105.279
749.974
-51.2628
354.362
-118.435
-14.1863
-315.693
149.411
2216.55
132.295
2198.9
180.411
2126.13
237.789
1870.42
298.589
1784.27
362.363
1626.48
430.193
1497.78
501.679
1365.83
580.128
1238.99
658.905
1115.72
705.417
981.83
644.259
811.224
431.656
567.149
134.877
282.908
-180.813
136.028
2080.63
145.635
2189.4
189.502
2082.38
235.048
1824.99
283.331
1736.1
328.077
1581.84
372.9
1453.07
414.698
1324.12
454.668
1199.11
489.733
1080.72
508.69
962.926
482.746
837.236
374.976
675.008
195.256
462.869
14.456
78.2473
2002.48
128.88
2138.85
172.292
2039.06
219.407
1777.96
263.03
1692.57
309.762
1535.19
352.265
1410.65
390.812
1285.64
420.028
1169.96
441.528
1059.33
452.528
951.968
439.304
850.707
369.517
745.078
222.509
610.451
236.957
16.5274
1986
82.9729
2072.46
127.736
1994.34
168.335
1737.4
204.044
1656.88
252.845
1486.41
301.457
1362.04
370.592
1216.52
450.713
1089.85
524.872
985.112
565.583
911.281
548.48
867.566
450.378
842.955
273.838
786.666
510.8
-38.5593
2024.57
-25.1276
2059.04
-9.39987
1978.62
-18.3363
1746.36
-22.5978
1661.17
-18.3453
1482.18
12.1856
1331.54
105.44
1123.3
249.47
945.851
398.406
836.286
498.508
811.181
511.392
854.984
416.537
938.049
237.197
966.29
747.992
-37.3151
2061.84
-155.67
2177.36
-217.046
2039.97
-306.361
1835.65
-390.202
1744.98
-475.244
1567.21
-534.87
1391.14
-540.481
1128.89
-490.964
896.306
-397.132
742.366
-261.487
675.531
-101.602
694.763
24.7273
811.406
51.6048
939.052
799.598
75.8406
1985.92
-114.377
2367.5
-245.187
2170.68
-366.772
1957.14
-486.552
1864.66
-614.55
1695.11
-755.237
1531.73
-902.825
1276.38
-1036.06
1029.45
-1115.03
821.281
-1089.16
649.552
-907.751
513.455
-569.023
472.725
-193.722
563.802
605.868
238.387
1747.42
145.925
2459.87
14.815
2301.68
-79.0629
2050.9
-143.743
1929.19
-217.867
1769.1
-311.365
1625.06
-454.455
1419.34
-625.625
1200.47
-788.399
983.88
-908.986
770.045
-937.019
541.114
-783.829
319.122
-392.227
171.586
213.637
380.005
1367.33
480.418
2359.39
452.342
2329.67
452.895
2050.28
500.267
1881.74
534.378
1734.93
550.157
1609.23
510.928
1458.52
417.733
1293.62
282.015
1119.55
117.755
934.25
-68.0182
726.833
-222.538
473.464
-220.418
169.144
-6.78263
405.492
961.772
565.06
2199.8
558.425
2336.26
510.196
2098.48
516.127
1875.76
552.347
1698.69
606.011
1555.52
648.466
1416.05
670.787
1271.26
674.655
1115.66
638.799
970.089
540.391
825.185
361.044
652.772
102.761
427.341
95.982
117.314
858.669
1464.95
1866.78
2040.26
2100.83
2071.17
1961.28
1796.96
1600.25
1363.13
1096.71
791.837
410.465
-0.00265291
-66.6914
66.6853
-66.6947
-66.6978
-66.7012
-126.46
59.7553
-126.463
-126.466
-126.469
-189.196
62.7237
-189.2
-189.202
-235.988
46.7816
-235.99
-235.994
-235.997
-275.938
39.9371
-275.941
-275.945
-279.352
3.4042
-279.356
-279.358
-279.362
-249.133
-30.2318
-249.138
-249.14
-249.145
-190.609
-58.5377
-190.614
-190.616
-101.31
-89.3118
-101.312
-101.317
-101.32
-2.19809
-99.1274
-2.2014
-2.2071
75.5147
-77.7247
75.5091
75.5067
75.5009
106.666
-31.1674
106.66
106.658
106.652
139.218
-32.5673
139.211
139.211
185.063
-45.859
185.062
185.055
185.055
200.281
-15.2338
200.281
200.274
200.274
158.782
41.4833
158.783
158.773
60.7695
98.0049
60.7591
60.7614
60.7487
-176.128
236.883
-176.139
-176.131
-1043.44
867.299
-1043.43
-1043.45
-1043.44
-2422.08
1378.63
-2422.07
-2422.08
-2422.06
-4186.82
1764.74
-4186.8
-4186.84
-6301.67
2114.85
-6301.72
-6301.72
-6213.3
-6117.95
-6017.83
-8337.62
2413.94
-8238
-8105.22
-7951.84
-7798.15
-7645.08
-7495.97
-7338.93
-7161.32
-9622.35
2637.64
-9438.25
-9255.53
-9073.06
-8872.09
-8669.3
-8465.62
-8259.97
-8050.11
-10750
2915.69
-10524.3
-10297.2
-10069.5
-9841.03
-9606.73
-9362.09
-9116.68
-8869.19
-8618.91
-11416.7
3042.76
-11150.5
-10882.2
-10612.8
-10342.9
-10072.4
-9790.22
-9500.75
-9208.42
-11882.1
2958.4
-11600.4
-11312.9
-11015.2
-10717.4
-10419.5
-10123.1
-9826.6
-9508.44
-11852.3
2656.71
-11549.4
-11247.5
-10947.3
-10631.8
-10310.2
-9991.17
-9672.73
-9353.78
-11233.1
2206.15
-10912
-10593.8
-10278.1
-9965.54
-9655.81
-9328.53
-9005.02
-8682.45
-8359.42
-9592.3
1565.52
-9307.19
-9030.12
-8758.1
-8486.93
-8211.41
-7972.9
-7823.01
-7664.92
-8637.52
1138.24
-8489.77
-8334.47
-8334.48
-9305.82
971.325
-9788.19
482.378
-9788.19
-9996.75
208.562
-9996.75
-9886.05
-110.704
-9334.72
-551.33
-9334.72
-8503.17
-831.551
-7311.49
-1191.67
-7311.49
-5846.64
-1464.84
-5846.65
-4113.79
-1732.86
-2125.44
-1988.35
-2125.44
165.673
-2291.11
165.677
2391.69
-2226.02
4659.61
-2267.92
4659.61
6566.8
-1907.19
8240.97
-1674.17
8240.97
9568.34
-1327.38
9568.35
10598.2
-1029.9
11342.7
-744.414
11342.7
11872.1
-529.433
11872.1
12218.7
-346.582
12280.7
-61.9814
12280.7
12278.9
1.74246
11988.1
290.84
11988.1
11596.5
391.626
11596.4
11111.6
484.868
10385.1
726.434
10385.1
9656.92
728.227
9656.92
8978.44
678.475
8273.58
704.866
8273.57
7959.36
314.217
8573
-613.65
8573
10192.4
-1619.43
10192.4
11251.7
-1059.24
11772.3
-520.628
11772.3
11593.3
178.96
11593.3
10528.3
1065.08
8890.85
1637.4
8890.86
6272.67
2618.19
3199.8
3072.87
3199.8
-1083.46
4283.26
-1083.46
-8665.38
7581.92
-20292.6
11627.2
-20292.6
-35222.8
14930.2
-35222.8
-54171.1
18948.3
-75348.7
21177.5
-75348.7
-100959
25610.1
-127491
26532.6
-127491
-157549
30057.7
-157549
34684.4
306.381
-688.192
293.86
-920.861
282.893
-1223.49
275.21
-1595.48
270.404
-1984.98
267.805
-2373.5
267.439
-2747.03
269.898
-3103.33
275.475
-3438.27
283.15
-3746.36
290.186
-4021.03
292.647
-4256.9
287.429
-4480.63
274.815
-4742.41
257.877
-5074.59
239.984
-5490.64
223.384
-5978.87
207.951
-6491.24
190.796
-6986.34
167.19
-7461.97
131.726
-7841.68
79.0906
-8094.73
2.62665
-8349.12
-104.337
-8715.1
-238.159
-9166.68
-388.161
-9599.07
-535.876
-9977.6
-662.64
-10399.8
-769.621
-10901.4
-865.241
-11469.5
-954.629
-12061.7
-1043.95
-12640.2
-1139.12
-13214.4
-1243.49
-13786.3
-1358.75
-14349.1
-1487.33
-14903.9
-1633.51
-15463.7
-1803.82
-16044.2
-2005.07
-16667.2
-2240.14
-17346.5
-2506.85
-18089.3
-2800.72
-18910.9
-3118.52
-19836.7
-3458.28
-20887
-3815.82
-22060.4
-4181.67
-23337.5
-4540.74
-24694.1
-4876.18
-26112.9
-5177.25
-27591.5
-5444.78
-29139.4
-5687.85
-30760.6
-5914.15
-32432.9
-6121.45
-34080.7
-6294.82
-35503.1
-6402.18
-36159.8
-6373.25
-34755.7
-6096.32
-29237.3
-5587.85
-19285.5
-5182.5
-10352.2
-5102.57
-7734.82
-5181.53
-7374.97
-5316.39
-5921.37
-5523.55
-4235.73
-5753.26
-2755.11
-5950
-1261.14
-6124.91
230.488
-6358.2
1762.66
-6715.38
3527.21
-7223.25
5693.15
-7926.72
8450.02
-8886.14
12088
-10183.5
17046.9
-11934.3
24005.2
-14304.3
34011.3
-17531.8
48743.3
-21945.9
70649.4
-27830
102963
-34238.3
146411
187796
280.72
-680.683
268.664
-908.804
258.99
-1213.81
252.615
-1589.11
248.585
-1980.95
246.476
-2371.39
246.656
-2747.21
250.024
-3106.7
256.844
-3445.09
265.629
-3755.15
272.832
-4028.23
273.812
-4257.88
265.513
-4472.33
249.234
-4726.13
229.208
-5054.57
209.286
-5470.72
191.34
-5960.92
174.194
-6474.1
153.845
-6965.99
124.633
-7432.76
80.9695
-7798.02
18.6233
-8032.38
-67.2623
-8263.23
-179.636
-8602.73
-312.582
-9033.73
-457.754
-9453.9
-600.952
-9834.4
-726.374
-10274.4
-833.636
-10794.2
-929.965
-11373.2
-1021.43
-11970.3
-1114.32
-12547.3
-1213.91
-13114.8
-1323.14
-13677.1
-1443.72
-14228.6
-1578.5
-14769.2
-1731.99
-15310.3
-1910.41
-15865.8
-2120.14
-16457.5
-2363.87
-17102.8
-2639.79
-17813.4
-2944.2
-18606.5
-3274.65
-19506.3
-3629.14
-20532.5
-4002.31
-21687.2
-4382.65
-22957.2
-4753.24
-24323.5
-5096.54
-25769.6
-5402.26
-27285.8
-5672.25
-28869.4
-5916.75
-30516.1
-6144.43
-32205.2
-6353.56
-33871.6
-6529.13
-35327.6
-6639.6
-36049.4
-6619.53
-34775.8
-6364.77
-29492
-5878.68
-19771.6
-5467.85
-10763
-5358.79
-7843.88
-5388.16
-7345.59
-5440.45
-5869.08
-5554.21
-4121.97
-5734.4
-2574.92
-5947.57
-1047.96
-6182.06
464.973
-6475.47
2056.08
-6877.12
3928.86
-7425.98
6242.02
-8170.94
9194.98
-9174.91
13092
-10522
18394.1
-12329.5
25812.7
-14767.1
36449
-18098.8
52075
-22729.5
75280.1
-28873.8
109107
-34663.5
152201
183190
262.626
-673.21
251.915
-898.093
243.626
-1205.52
238.382
-1583.86
234.885
-1977.45
233.081
-2369.59
233.607
-2747.74
237.525
-3110.62
244.983
-3452.55
254.081
-3764.24
260.767
-4034.92
260.225
-4257.33
249.701
-4461.81
231.199
-4707.63
209.59
-5032.96
188.758
-5449.89
169.97
-5942.13
151.138
-6455.26
127.546
-6942.4
93.1768
-7398.39
42.8959
-7747.74
-26.0446
-7963.44
-116.629
-8172.65
-229.498
-8489.86
-359.308
-8903.92
-500.779
-9312.42
-640.966
-9694.22
-764.845
-10150.5
-871.561
-10687.5
-968.054
-11276.7
-1060.71
-11877.6
-1155.54
-12452.5
-1257.48
-13012.9
-1369.31
-13565.3
-1492.89
-14105
-1631.37
-14630.7
-1789.5
-15152.1
-1973.24
-15682.1
-2188.46
-16242.3
-2437.62
-16853.6
-2719.16
-17531.9
-3029.96
-18295.6
-3367.98
-19168.3
-3730.91
-20169.5
-4112.46
-21305.6
-4499.93
-22569.7
-4875.65
-23947.8
-5222.32
-25423
-5530.47
-26977.6
-5802.65
-28597.2
-6049.5
-30269.2
-6279.94
-31974.8
-6492.4
-33659.1
-6671.8
-35148.2
-6786.64
-35934.5
-6772.88
-34789.6
-6529.35
-29735.6
-6055.53
-20245.4
-5648.67
-11169.9
-5540.53
-7952.02
-5573.12
-7313
-5629.04
-5813.16
-5734.46
-4016.56
-5894.01
-2415.37
-6092.48
-849.5
-6336.54
709.036
-6660.6
2380.13
-7100.12
4368.37
-7690.32
6832.22
-8480.98
9985.63
-9535.61
14146.6
-10938.9
19797.4
-12809.6
27683.3
-15334.2
38973.6
-18843.7
55584.6
-23835.6
80271.9
-30174.9
115446
-34415.2
156441
175307
244.093
-665.535
234.292
-888.292
227.083
-1198.31
222.681
-1579.46
219.474
-1974.24
217.814
-2367.93
218.6
-2748.53
222.99
-3115.01
230.9
-3460.46
239.917
-3773.26
245.573
-4040.57
243.119
-4254.88
230.204
-4448.89
209.485
-4686.91
186.356
-5009.83
164.545
-5428.08
144.595
-5922.18
123.473
-6434.14
95.7304
-6914.65
55.2264
-7357.89
-2.14783
-7690.36
-77.5042
-7888.09
-172.345
-8077.81
-285.434
-8376.77
-412.238
-8777.12
-549.993
-9174.67
-686.652
-9557.56
-808.539
-10028.6
-914.767
-10581.2
-1011.7
-11179.7
-1105.81
-11783.5
-1202.84
-12355.5
-1307.39
-12908.3
-1422.15
-13450.5
-1549.09
-13978
-1691.68
-14488.1
-1854.88
-14988.9
-2044.4
-15492.5
-2265.65
-16021
-2520.9
-16598.4
-2808.85
-17243.9
-3126.93
-17977.6
-3473.39
-18821.8
-3845.62
-19797.3
-4236.32
-20914.9
-4631.67
-22174.3
-5013.35
-23566.1
-5364.37
-25071.9
-5676.06
-26665.9
-5951.68
-28321.6
-6202.42
-30018.5
-6437.7
-31739.5
-6656.3
-33440.5
-6843.21
-34961.3
-6966.9
-35810.8
-6963.62
-34792.8
-6731.34
-29967.8
-6261.94
-20714.8
-5848.07
-11583.7
-5735.29
-8064.8
-5766.7
-7281.59
-5819.45
-5760.42
-5919.44
-3916.57
-6076.24
-2258.56
-6278.39
-647.349
-6537.19
967.831
-6886.73
2729.67
-7358.75
4840.4
-7987.87
7461.34
-8823.54
10821.3
-9928.65
15251.7
-11387.8
21256.5
-13327.5
29623.1
-15975.9
41621.9
-19752.6
59361.3
-25130.2
85649.6
-31365.5
121682
-34036.6
159112
166881
226.069
-657.722
217.197
-879.42
211.022
-1192.14
207.293
-1575.73
204.209
-1971.16
202.592
-2366.31
203.555
-2749.49
208.201
-3119.66
216.03
-3468.29
224.033
-3781.26
227.675
-4044.21
222.84
-4250.04
207.747
-4433.8
185.432
-4664.6
161.44
-4985.84
138.992
-5405.63
117.745
-5900.94
93.8025
-6410.2
61.197
-6882.05
14.1168
-7310.81
-50.0867
-7626.16
-130.975
-7807.2
-228.779
-7980
-340.765
-8264.79
-463.944
-8653.94
-597.89
-9040.72
-730.899
-9424.55
-850.558
-9908.93
-956.189
-10475.6
-1053.62
-11082.3
-1149.19
-11687.9
-1248.28
-12256.4
-1355.2
-12801.4
-1472.6
-13333.1
-1602.68
-13848
-1749.19
-14341.6
-1917.27
-14820.8
-2112.34
-15297.5
-2339.38
-15794
-2600.45
-16337.3
-2894.49
-16949.9
-3219.42
-17652.6
-3573.67
-18467.6
-3954.15
-19416.8
-4352.62
-20516.5
-4754.35
-21772.6
-5140.84
-23179.6
-5495.73
-24717
-5811.32
-26350.3
-6091.52
-28041.4
-6347.91
-29762.1
-6590.21
-31497.2
-6817.5
-33213.3
-7014.82
-34763.9
-7150.49
-35675.2
-7160.22
-34783.1
-6939.36
-30188.7
-6471.3
-21182.9
-6046.35
-12008.7
-5929.18
-8181.97
-5965.58
-7245.19
-6022.71
-5703.28
-6122.86
-3816.42
-6280.63
-2100.79
-6489.48
-438.497
-6764.09
1242.44
-7137.46
3103.04
-7639.66
5342.6
-8305.77
8127.45
-9184.23
11699.8
-10336.8
16404.3
-11850.6
22770.4
-13874.7
31647.1
-16702.2
44449.4
-20820.1
63479.2
-26512.1
91341.6
-32286.4
127456
-32954.1
159780
155104
208.503
-649.714
200.404
-871.321
195.069
-1186.8
191.77
-1572.43
188.635
-1968.02
186.966
-2364.64
187.983
-2750.51
192.515
-3124.19
199.352
-3475.12
204.877
-3786.79
205.16
-4044.5
197.514
-4242.4
180.775
-4417.06
157.835
-4641.66
133.842
-4961.84
111.139
-5382.93
88.4224
-5878.22
61.1486
-6382.93
23.1987
-6844.1
-30.4339
-7257.18
-100.871
-7555.72
-186.518
-7721.55
-286.308
-7880.21
-396.381
-8154.71
-515.835
-8534.49
-645.998
-8910.56
-775.137
-9295.41
-892.318
-9791.74
-997.37
-10370.6
-1095.46
-10984.2
-1192.57
-11590.8
-1293.63
-12155.3
-1402.75
-12692.3
-1522.66
-13213.2
-1655.81
-13714.8
-1806.18
-14191.2
-1979.05
-14648
-2179.59
-15096.9
-2412.32
-15561.2
-2679.1
-16070.5
-2979.1
-16649.9
-3310.61
-17321.1
-3672.08
-18106.1
-4059.9
-19029
-4464.96
-20111.4
-4871.94
-21365.6
-5262.51
-22789.1
-5621.22
-24358.3
-5941.39
-26030.2
-6227.54
-27755.2
-6491.49
-29498.1
-6743.2
-31245.5
-6981.96
-32974.5
-7192.85
-34553.1
-7343.97
-35524
-7369.87
-34757.2
-7161.48
-30397.1
-6691.51
-21652.9
-6248.74
-12451.5
-6123.36
-8307.35
-6166.92
-7201.63
-6232.87
-5637.33
-6338.23
-3711.06
-6501.32
-1937.7
-6719.12
-220.703
-7009.85
1533.17
-7406.22
3499.41
-7936.97
5873.35
-8637.61
8828.09
-9555.12
12617.3
-10751.4
17600.6
-12324.2
24343.2
-14462.4
33785.2
-17532.3
47519.3
-22019.8
67966.6
-27853.4
97175.3
-32794.4
132397
-31454.2
158440
142598
191.34
-641.426
183.817
-863.798
179.123
-1182.11
176.041
-1569.35
172.729
-1964.71
170.937
-2362.85
171.818
-2751.39
175.581
-3127.95
179.904
-3479.44
180.763
-3787.65
176
-4039.73
165.355
-4231.75
148.061
-4399.77
125.991
-4619.59
103.189
-4939.04
80.7427
-5360.48
56.4396
-5853.92
25.4823
-6351.97
-17.8702
-6800.75
-77.5408
-7197.51
-153.499
-7479.76
-243.276
-7631.78
-344.216
-7779.27
-451.787
-8047.14
-567.501
-8418.77
-693.802
-8784.26
-818.87
-9170.34
-933.45
-9677.17
-1037.95
-10266
-1136.83
-10885.3
-1235.52
-11492.1
-1338.47
-12052.4
-1449.61
-12581.1
-1571.86
-13090.9
-1707.98
-13578.7
-1862.15
-14037
-2039.74
-14470.4
-2245.63
-14891
-2483.91
-15323
-2756.22
-15798.2
-3061.89
-16344.2
-3399.5
-16983.5
-3767.37
-17738.2
-4161.31
-18635.1
-4571.48
-19701.2
-4982.3
-20954.8
-5376.04
-22395.3
-5738.44
-23995.9
-6063.95
-25704.7
-6357.57
-27461.6
-6631.21
-29224.5
-6894.85
-30981.8
-7147.86
-32721.5
-7375.32
-34325.6
-7545.06
-35354.3
-7590.2
-34712.1
-7396.3
-30591
-6923.64
-22125.5
-6458.02
-12917.1
-6319.27
-8446.11
-6370.05
-7150.85
-6447.98
-5559.4
-6562.34
-3596.7
-6734
-1766.04
-6962.47
7.76142
-7269.73
1840.43
-7688.66
3918.34
-8246.49
6431.18
-8978.74
9560.34
-9931.64
13570.2
-11171.6
18840.5
-12818.6
25990.3
-15115.3
36081.9
-18483.8
50887.8
-23312.6
72795.5
-29067.1
102930
-32891.5
136221
-29477.4
155025
128051
174.54
-632.72
167.315
-856.573
163.017
-1177.81
159.96
-1566.3
156.389
-1961.14
154.395
-2360.85
154.795
-2751.79
156.659
-3129.82
156.092
-3478.88
149.354
-3780.91
137.838
-4028.22
124.603
-4218.52
108.541
-4383.7
89.3373
-4600.38
69.1527
-4918.86
47.5532
-5338.88
21.6451
-5828.01
-13.0465
-6317.28
-61.392
-6752.4
-126.303
-7132.59
-207.12
-7398.94
-300.517
-7538.38
-401.971
-7677.82
-506.751
-7942.36
-618.859
-8306.66
-741.248
-8661.87
-862.123
-9049.47
-974.044
-9565.24
-1078.02
-10162.1
-1177.79
-10785.6
-1278.09
-11391.8
-1382.83
-11947.6
-1495.82
-12468.2
-1620.26
-12966.5
-1759.28
-13439.7
-1917.22
-13879.1
-2099.46
-14288.1
-2310.59
-14679.9
-2554.26
-15079.3
-2831.88
-15520.6
-3142.86
-16033.2
-3485.93
-16640.4
-3859.21
-17364.9
-4257.85
-18236.4
-4671.48
-19287.6
-5084.69
-20541.6
-5480.72
-21999.3
-5846.8
-23629.8
-6178.52
-25372.9
-6481.3
-27158.8
-6766.9
-28938.9
-7045.1
-30703.6
-7315.18
-32451.4
-7562.19
-34078.6
-7753.67
-35162.8
-7821.25
-34644.5
-7644.65
-30767.6
-7169.96
-22600.2
-6676.92
-13410.1
-6517.96
-8605.07
-6574.07
-7094.73
-6666.12
-5467.36
-6792.73
-3470.08
-6975.34
-1583.44
-7215.55
247.975
-7539.57
2164.45
-7980.32
4359.08
-8563.36
7014.23
-9324.44
10321.4
-10311.4
14557.1
-11602.3
20131.4
-13351.5
27739.4
-15858.1
38588.5
-19557.9
54587.7
-24641.6
77879.2
-30068.1
108356
-32545.8
138699
-27155.5
149635
112523
157.974
-623.462
150.731
-849.33
146.563
-1173.64
143.39
-1563.12
139.518
-1957.27
137.195
-2358.53
136.489
-2751.08
134.59
-3127.92
125.733
-3470.02
108.043
-3763.22
88.7111
-4008.89
74.273
-4204.08
61.877
-4371.31
47.8095
-4586.32
31.7232
-4902.77
11.5886
-5318.74
-15.7621
-5800.66
-53.8734
-6279.17
-106.458
-6699.82
-175.739
-7063.31
-260.894
-7313.79
-357.549
-7441.72
-459.112
-7576.25
-561.079
-7840.4
-669.785
-8197.96
-788.193
-8543.46
-904.823
-8932.84
-1014.12
-9455.95
-1117.57
-10058.6
-1218.28
-10684.9
-1320.2
-11289.9
-1426.64
-11841.2
-1541.31
-12353.5
-1667.81
-12840
-1809.68
-13297.8
-1971.37
-13717.4
-2158.2
-14101.3
-2374.46
-14463.6
-2623.33
-14830.4
-2905.98
-15238
-3221.82
-15717.4
-3569.6
-16292.7
-3947.08
-16987.4
-4348.8
-17834.7
-4764.13
-18872.3
-5178.21
-20127.5
-5575.69
-21601.8
-5945.49
-23260
-6284.41
-25034
-6598.17
-26845.1
-6898.12
-28639
-7193.57
-30408.2
-7483.52
-32161.5
-7752.92
-33809.2
-7969.1
-34946.7
-8062.33
-34551.3
-7906.57
-30923.3
-7432.39
-23074.4
-6909.05
-13933.5
-6722.11
-8792
-6779.21
-7037.64
-6885.36
-5361.21
-7025.65
-3329.79
-7220.31
-1388.78
-7473.59
501.26
-7815.1
2505.96
-8276.64
4820.62
-8883.06
7620.65
-9671.61
11110
-10696.1
15581.6
-12054.7
21490.1
-13944.1
29628.8
-16707.8
41352.2
-20735
58614.8
-25937.3
83081.5
-30797.1
113216
-31802
139704
-24549.8
142383
95555
141.42
-613.549
133.863
-841.773
129.574
-1169.36
126.202
-1559.75
122.013
-1953.08
119.107
-2355.62
116.188
-2748.16
107.641
-3119.37
86.2064
-3448.59
54.76
-3731.77
28.2326
-3982.36
15.1347
-4190.98
9.01744
-4365.19
2.12044
-4579.42
-8.64388
-4892.01
-26.7474
-5300.64
-55.1943
-5772.21
-96.1593
-6238.2
-152.091
-6643.88
-224.94
-6990.46
-314.091
-7224.64
-413.804
-7342.01
-515.28
-7474.78
-614.62
-7741.06
-720.16
-8092.42
-834.528
-8429.09
-946.953
-8820.41
-1053.72
-9349.19
-1156.63
-9955.71
-1258.27
-10583.2
-1361.78
-11186.4
-1469.82
-11733.2
-1586.04
-12237.3
-1714.49
-12711.5
-1859.17
-13153.1
-2024.61
-13552
-2215.97
-13910
-2437.23
-14242.4
-2691.12
-14576.5
-2978.46
-14950.6
-3298.61
-15397.2
-3650.2
-15941.1
-4030.52
-16607.1
-4433.58
-17431.6
-4848.78
-18457.1
-5262.22
-19714.1
-5660.38
-21203.7
-6034.06
-22886.4
-6381.28
-24686.8
-6707.92
-26518.4
-7024.67
-28322.2
-7340.05
-30092.8
-7652.57
-31848.9
-7947.06
-33514.7
-8190.76
-34703
-8312.88
-34429.2
-8182.08
-31054.1
-7712.6
-23543.9
-7157.98
-14488.1
-6934.93
-9015.05
-6986.48
-6986.09
-7104.56
-5243.13
-7258.11
-3176.24
-7465.05
-1181.85
-7732.72
768.931
-8092.29
2865.54
-8573.7
5302.04
-9202.82
8249.76
-10020.8
11927.9
-11093
16653.7
-12545.5
22942.7
-14617.4
31700.7
-17669.1
44403.8
-21978
62923.8
-27131.8
88235.2
-31218.7
117303
-30695.9
139181
-21814.8
133502
78023.5
124.511
-602.942
116.465
-833.727
111.896
-1164.79
108.289
-1556.14
103.743
-1948.53
99.7478
-2351.63
92.7447
-2741.16
73.5008
-3100.13
35.2106
-3410.3
-10.402
-3686.16
-40.823
-3951.94
-49.3738
-4182.43
-47.3626
-4367.2
-46.0001
-4580.78
-50.8565
-4887.15
-66.6089
-5284.89
-95.8112
-5743.01
-138.968
-6195.04
-197.325
-6585.53
-273.127
-6914.66
-366.159
-7131.61
-468.872
-7239.3
-570.234
-7373.42
-667.27
-7644.02
-769.875
-7989.81
-880.16
-8318.81
-988.493
-8712.08
-1092.89
-9244.79
-1195.24
-9853.36
-1297.72
-10480.8
-1402.74
-11081.3
-1512.28
-11623.6
-1629.94
-12119.6
-1760.25
-12581.2
-1907.74
-13005.6
-2076.94
-13382.8
-2272.78
-13714.1
-2498.92
-14016.2
-2757.59
-14317.9
-3049.26
-14658.9
-3373.08
-15073.4
-3727.44
-15586.7
-4109.11
-16225.5
-4511.7
-17029.1
-4924.93
-18043.9
-5336.33
-19302.7
-5734.51
-20805.5
-6112.33
-22508.5
-6469.04
-24330.1
-6810.5
-26177
-7146.49
-27986.2
-7484.38
-29754.9
-7822.02
-31511.3
-8144.12
-33192.6
-8417.97
-34429.1
-8572.17
-34275
-8470.9
-31155.4
-8011.9
-24002.9
-7427.47
-15072.5
-7160.64
-9281.88
-7198.12
-6948.61
-7323.69
-5117.56
-7488.57
-3011.36
-7707.64
-962.785
-7990.57
1051.86
-8368.33
3243.3
-8869.53
5803.24
-9523.07
8903.3
-10377.3
12782.1
-11514.9
17791.3
-13093.9
24521.8
-15386.7
33993.5
-18732
47749.1
-23239.3
67431.1
-28163.9
93159.8
-31300.6
120440
-29214.2
137095
-19089.4
123377
62006.9
106.717
-591.73
98.2494
-825.26
93.4131
-1159.95
89.5758
-1552.31
84.5264
-1943.48
78.474
-2345.58
64.4448
-2727.13
29.6668
-3065.35
-27.626
-3353
-83.226
-3630.56
-111.769
-3923.39
-113.435
-4180.77
-103.314
-4377.32
-94.1543
-4589.94
-93.5383
-4887.77
-107.081
-5271.35
-136.718
-5713.37
-181.314
-6150.45
-241.284
-6525.56
-319.739
-6836.21
-416.764
-7034.58
-522.5
-7133.56
-623.822
-7272.09
-718.946
-7548.89
-818.819
-7889.94
-925.009
-8212.62
-1029.43
-8607.66
-1131.65
-9142.57
-1233.44
-9751.57
-1336.62
-10377.6
-1442.98
-10975
-1553.92
-11512.7
-1672.95
-12000.6
-1805.1
-12449.1
-1955.39
-12855.4
-2128.36
-13209.8
-2328.65
-13513.8
-2559.53
-13785.4
-2822.72
-14054.7
-3118.29
-14363.4
-3445.06
-14746.6
-3801.05
-15230.7
-4182.51
-15844
-4582.81
-16628.8
-4992.34
-17634.3
-5400.44
-18894.6
-5798.15
-20407.8
-6180.52
-22126.2
-6547.93
-23962.7
-6906.13
-25818.8
-7263.68
-27628.7
-7626.5
-29392.1
-7991.59
-31146.2
-8343.58
-32840.6
-8650.01
-34122.7
-8839.36
-34085.6
-8772.47
-31222.3
-8331.1
-24444.2
-7721
-15682.6
-7404.09
-9598.79
-7417.77
-6934.93
-7544.79
-4990.53
-7718.1
-2838.06
-7948.4
-732.483
-8246.71
1350.17
-8642.94
3639.53
-9165.47
6325.77
-9848.53
9586.36
-10751.3
13684.9
-11978.2
19018.2
-13718.2
26261.7
-16258.2
36533.6
-19873.6
51364.5
-24465.9
72023.4
-28979.4
97673.2
-31019
122479
-27394.7
133470
-16407.5
112390
48217.6
87.356
-580.147
78.8468
-816.75
74.0331
-1155.14
70.0103
-1548.28
64.0625
-1937.54
54.2352
-2335.75
29.0304
-2701.92
-25.4014
-3010.92
-99.0253
-3279.38
-156.312
-3573.27
-177.695
-3902.01
-172.304
-4186.16
-155.777
-4393.85
-140.451
-4605.27
-135.476
-4892.74
-147.184
-5259.64
-176.918
-5683.64
-222.236
-6105.13
-283.294
-6464.5
-364.479
-6755.02
-465.786
-6933.27
-574.572
-7024.78
-675.962
-7170.7
-769.574
-7455.28
-866.893
-7792.62
-969.025
-8110.49
-1069.75
-8506.93
-1170
-9042.33
-1271.25
-9650.31
-1374.97
-10273.9
-1482.45
-10867.5
-1594.65
-11400.5
-1715.03
-11880.2
-1849.01
-12315.1
-2002.12
-12702.2
-2178.89
-13033
-2383.58
-13309.1
-2619.05
-13549.9
-2886.48
-13787.3
-3185.46
-14064.4
-3514.39
-14417.7
-3870.81
-14874.3
-4250.49
-15464.3
-4646.76
-16232.5
-5051.04
-17230
-5454.81
-18490.8
-5851.76
-20010.8
-6239.18
-21738.8
-6618.57
-23583.3
-6995.31
-25442
-7376.52
-27247.5
-7766.42
-29002.2
-8161
-30751.6
-8544.86
-32456.7
-8886.08
-33781.5
-9113.51
-33858.2
-9085.97
-31249.8
-8670.44
-24859.8
-8041.64
-16311.4
-7670.73
-9969.69
-7650.6
-6955.07
-7772.13
-4869
-7950.32
-2659.87
-8190.15
-492.656
-8503.49
1663.52
-8919.24
4055.28
-9466.84
6873.37
-10188.3
10307.8
-11157
14653.6
-12500.5
20361.7
-14431.5
28192.8
-17227.1
39329.2
-21059.8
55197.2
-25603.5
76567
-29533.6
101603
-30376.2
123322
-25331.9
128426
-13802.3
100860
36052.7
65.6237
-568.59
57.8235
-808.95
53.6569
-1150.97
49.517
-1544.14
41.838
-1929.86
25.4364
-2319.35
-15.7923
-2660.7
-90.8144
-2935.89
-172.711
-3197.48
-222.144
-3523.84
-233.385
-3890.77
-222.725
-4196.82
-202.579
-4414
-183.4
-4624.45
-175.531
-4900.61
-185.9
-5249.27
-215.433
-5654.11
-260.936
-6059.63
-322.958
-6402.48
-407.305
-6670.68
-513.247
-6827.33
-625.049
-6912.97
-726.61
-7069.14
-819.08
-7362.81
-914.012
-7697.69
-1012.18
-8012.32
-1109.45
-8409.67
-1207.91
-8943.87
-1308.67
-9549.55
-1412.79
-10169.7
-1521.15
-10759.1
-1634.43
-11287.2
-1756.13
-11758.5
-1891.97
-12179.3
-2047.95
-12546.3
-2228.54
-12852.4
-2437.58
-13100.1
-2677.48
-13310
-2948.84
-13515.9
-3250.7
-13762.5
-3580.94
-14087.5
-3936.57
-14518.7
-4312.94
-15087.9
-4703.6
-15841.8
-5101.34
-16832.3
-5500.04
-18092.1
-5896.17
-19614.7
-6289.3
-21345.6
-6681.88
-23190.7
-7078.79
-25045.1
-7485.46
-26840.8
-7904.21
-28583.4
-8329.95
-30325.9
-8747.37
-32039.3
-9125.3
-33403.5
-9393.54
-33589.9
-9410.27
-31233.1
-9029.53
-25240.5
-8391.73
-16949.2
-7966.28
-10395.1
-7903.23
-7018.12
-8011.95
-4760.28
-8191.08
-2480.74
-8438.22
-245.516
-8766.29
1991.59
-9203.83
4492.82
-9782.73
7452.27
-10555
11080.1
-11610.2
15708.8
-13097.2
21848.7
-15239.8
30335.4
-18277.3
42366.6
-22248.7
59168.7
-26599.8
80918.1
-29796.7
104800
-29396
122921
-23096.2
122126
-11329.8
89094
25788
40.6195
-557.689
34.7375
-803.068
32.1451
-1148.38
27.8999
-1539.9
16.9903
-1918.95
-10.0131
-2292.34
-71.3581
-2599.35
-162.856
-2844.4
-241.122
-3119.22
-274.78
-3490.18
-275.884
-3889.67
-263.042
-4209.66
-242.407
-4434.63
-221.878
-4644.97
-212.671
-4909.82
-222.257
-5239.68
-251.421
-5624.94
-296.875
-6014.17
-360.177
-6339.18
-448.369
-6582.48
-559.247
-6716.46
-673.924
-6798.3
-775.733
-6967.33
-867.386
-7271.16
-960.105
-7604.97
-1054.49
-7917.93
-1148.55
-8315.6
-1245.38
-8847.05
-1345.68
-9449.25
-1450.07
-10065.4
-1559.06
-10650.1
-1673.26
-11173
-1796.24
-11635.5
-1934.02
-12041.5
-2092.9
-12387.4
-2277.33
-12668
-2490.66
-12886.8
-2734.81
-13065.9
-3009.75
-13241
-3313.93
-13458.4
-3644.59
-13756.8
-3998.22
-14165
-4369.88
-14716.3
-4753.61
-15458.1
-5143.84
-16442.1
-5537.06
-17698.9
-5932.59
-19219.1
-6332.15
-20946.1
-6739.07
-22783.8
-7157.52
-24626.7
-7591.06
-26407.2
-8039.99
-28134.5
-8498.14
-29867.8
-8950.45
-31587
-9366.73
-32987.3
-9678.25
-33278.4
-9743.97
-31167.4
-9407.31
-25577.2
-8772.7
-17583.8
-8296.26
-10871.6
-8183.21
-7131.18
-8271.91
-4671.58
-8447.95
-2304.7
-8700.21
6.74413
-9043.3
2334.68
-9506.39
4955.91
-10125.2
8071.03
-10963.3
11918.3
-12126.5
16872
-13779.2
23501.4
-16139.6
32695.8
-19382.7
45609.7
-23394.5
63180.5
-27409.5
84933.1
-29754.2
107145
-28120.1
121287
-20768.7
114775
-8988.97
77314.3
16978
11.4987
-548.312
9.23475
-800.804
9.33417
-1148.48
4.71905
-1535.28
-11.8146
-1902.41
-54.3232
-2249.84
-137.046
-2516.63
-235.358
-2746.08
-297.243
-3057.33
-311.16
-3476.27
-304.851
-3895.98
-293.145
-4221.36
-274.797
-4452.98
-255.19
-4664.58
-246.075
-4918.94
-255.459
-5230.3
-284.292
-5596.11
-329.834
-5968.63
-395.108
-6273.9
-487.936
-6489.66
-603.912
-6600.48
-721.202
-6681.01
-823.297
-6865.24
-914.417
-7180.04
-1005.12
-7514.27
-1095.95
-7827.1
-1187.07
-8224.49
-1282.37
-8751.74
-1382.19
-9349.43
-1486.74
-9960.8
-1596.18
-10540.7
-1711.14
-11058
-1835.39
-11511.3
-1975.16
-11901.7
-2137
-12225.5
-2325.28
-12479.7
-2542.83
-12669.2
-2791.02
-12817.7
-3069.19
-12962.8
-3375.07
-13152.5
-3705.28
-13426.6
-4055.76
-13814.6
-4421.5
-14350.5
-4797.27
-15082.3
-5179.4
-16059.9
-5567.11
-17311.2
-5962.49
-18823.8
-6369.31
-20539.3
-6791.59
-22361.5
-7232.61
-24185.7
-7693.96
-25945.9
-8173.89
-27654.5
-8665.25
-29376.4
-9153.39
-31098.9
-9609.34
-32531.3
-9966.33
-32921.4
-10085.4
-31048.3
-9802.08
-25860.5
-9184.74
-18201.2
-8665.32
-11391
-8498.25
-7298.25
-8560.4
-4609.43
-8729.46
-2135.64
-8985.35
262.641
-9344.98
2694.31
-9838.81
5449.73
-10507.7
8739.94
-11427.7
12838.3
-12718.2
18162.4
-14550.3
25333.4
-17118.1
35263.7
-20509.7
49001.3
-24450.9
67121.6
-27996.3
88478.5
-29407.7
108556
-26599.3
118479
-18418
106593
-6814.51
65710.8
9642.83
-22.0528
-541.537
-18.7015
-804.156
-14.9405
-1152.24
-20.8125
-1529.41
-46.4407
-1876.79
-109.106
-2187.17
-209.652
-2416.08
-300.868
-2654.87
-336.649
-3021.55
-332.008
-3480.91
-322.356
-3905.63
-314.201
-4229.52
-300.019
-4467.16
-283.069
-4681.53
-275.226
-4926.78
-285.013
-5220.51
-313.789
-5567.33
-359.898
-5922.52
-428.083
-6205.72
-526.308
-6391.43
-647.353
-6479.43
-766.885
-6561.48
-869.266
-6762.86
-960.092
-7089.21
-1049
-7425.36
-1136.57
-7739.53
-1224.96
-8136.09
-1318.81
-8657.89
-1418.09
-9250.15
-1522.69
-9856.2
-1632.45
-10431
-1748.07
-10942.4
-1873.6
-11385.8
-2015.44
-11759.9
-2180.3
-12060.7
-2372.41
-12287.6
-2594.08
-12447.5
-2846.1
-12565.6
-3127.1
-12681.8
-3434.07
-12845.5
-3762.97
-13097.7
-4109.27
-13468.3
-4468.09
-13991.7
-4835.24
-14715.2
-5209.1
-15686.1
-5591.63
-16928.6
-5987.56
-18427.8
-6402.52
-20124.3
-6841.01
-21923
-7305.24
-23721.4
-7794.81
-25456.3
-8306.01
-27143.3
-8830.9
-28851.5
-9355.42
-30574.3
-9852.04
-32034.7
-10256.3
-32517.1
-10432.7
-30871.9
-10211.5
-26081.7
-9626.71
-18786
-9076.61
-11941.1
-8855.36
-7519.5
-8885.66
-4579.13
-9044.22
-1977.08
-9303.67
522.082
-9682.97
3073.61
-10213.8
5980.55
-10943.8
9469.97
-11960.6
13855.1
-13392.8
19594.6
-15406.5
27347.1
-18153.7
38010.9
-21619.7
52467.3
-25375