/*--------------------------------*- C++ -*----------------------------------*\
| =========                 |                                                 |
| \\      /  F ield         | OpenFOAM: The Open Source CFD Toolbox           |
|  \\    /   O peration     | Version:  4.1                                   |
|   \\  /    A nd           | Web:      www.OpenFOAM.org                      |
|    \\/     M anipulation  |                                                 |
\*---------------------------------------------------------------------------*/
FoamFile
{
    version     2.0;
    format      ascii;
    class       volVectorField;
    location    "20";
    object      U;
}
// * * * * * * * * * * * * * * * * * * * * * * * * * * * * * * * * * * * * * //

dimensions      [0 1 -1 0 0 0 0];

internalField   nonuniform List<vector> 
6785
(
(9.49949e-14 -0.83245 16.1398)
(1.09193e-13 -6.74809 12.5063)
(-1.51781e-14 -4.8288 12.9105)
(4.09511e-14 -4.35703 12.6556)
(1.25072e-14 -3.74617 12.4835)
(-7.97487e-15 -3.28772 12.2539)
(3.23175e-14 -2.91188 11.9935)
(8.70082e-15 -2.63661 11.6894)
(-8.56543e-15 -2.46299 11.338)
(5.06417e-14 -2.36104 10.9611)
(8.66942e-15 -2.3071 10.5991)
(-4.99913e-15 -2.48018 10.1659)
(6.19199e-14 -2.90973 9.50716)
(-1.04611e-14 -2.16809 8.84786)
(-6.84038e-14 0.81796 6.9528)
(2.58015e-13 -7.78943 26.1707)
(1.42445e-13 -16.5643 21.895)
(1.30559e-15 -11.5258 22.3665)
(1.58939e-13 -11.866 20.9027)
(1.14656e-14 -10.7961 19.9341)
(5.34825e-14 -10.0605 18.8702)
(1.27836e-13 -9.28056 17.8192)
(1.36416e-14 -8.53082 16.7543)
(6.89094e-14 -7.82331 15.6951)
(1.25762e-13 -7.18806 14.7502)
(5.21752e-14 -6.65303 14.0354)
(1.19859e-13 -6.33823 13.2195)
(2.08964e-13 -6.24526 11.4508)
(-4.99816e-14 -5.6358 8.59572)
(-4.42971e-14 -3.33958 5.55979)
(1.00031e-13 -10.7426 28.196)
(1.41327e-13 -17.5282 24.5335)
(-1.33198e-14 -11.9045 24.9895)
(-1.2183e-14 -12.7437 22.8113)
(-4.30342e-15 -11.1049 21.708)
(-5.41956e-15 -10.3025 20.2662)
(-3.78023e-14 -9.33377 18.9314)
(4.17575e-14 -8.47548 17.6254)
(-3.54978e-15 -7.66955 16.3936)
(-6.13588e-14 -6.78255 15.0005)
(-1.30521e-15 -5.3295 12.5389)
(-1.85829e-13 -2.73336 7.72717)
(-4.32258e-13 0.602681 1.38003)
(-3.53116e-13 2.22437 -2.04359)
(-2.84576e-13 0.508506 -0.88647)
(1.51849e-13 -11.7965 27.748)
(5.77721e-14 -17.6361 24.5965)
(5.11442e-14 -12.005 24.9392)
(-7.70855e-15 -13.7079 22.1655)
(-5.18434e-14 -11.5863 21.23)
(8.35632e-14 -11.196 19.4895)
(-9.19168e-14 -10.2168 18.1131)
(-7.34142e-14 -9.50889 16.6967)
(1.03197e-13 -8.82703 15.4143)
(-4.83584e-14 -8.13424 14.0682)
(-1.64626e-13 -6.98485 11.9554)
(-4.69082e-14 -4.64532 7.94151)
(-1.67086e-13 -1.2206 2.28141)
(-1.50445e-12 3.4159 -2.53929)
(-7.7705e-13 1.87288 -5.08281)
(8.83332e-14 -11.9251 26.4071)
(-7.2181e-14 -17.6841 25.2341)
(-2.83134e-14 -12.4025 24.7311)
(-8.27927e-14 -13.9986 21.8017)
(-2.03736e-13 -11.9222 20.85)
(-7.52307e-14 -11.5696 19.0228)
(-1.36387e-13 -10.6487 17.5568)
(-2.9357e-13 -9.90677 16.0547)
(-1.31386e-13 -9.1922 14.6306)
(-1.17989e-13 -8.4916 13.2225)
(-2.98433e-13 -7.66085 11.5832)
(-3.02301e-13 -6.27467 9.24141)
(-2.26951e-13 -4.24699 5.83601)
(-8.14835e-13 -1.23624 2.30336)
(-7.91803e-13 0.271361 -2.41024)
(1.87776e-13 -11.6762 24.6967)
(-6.22091e-14 -17.3213 25.4781)
(2.44808e-14 -12.5694 24.3282)
(-9.20985e-14 -13.629 21.3648)
(-2.09397e-13 -11.734 20.3409)
(1.97134e-14 -11.275 18.5444)
(-9.93178e-14 -10.3647 17.0426)
(-2.21072e-13 -9.54582 15.5172)
(-8.78778e-14 -8.75832 14.0222)
(-5.35044e-14 -7.97931 12.5848)
(-2.01555e-13 -7.21031 11.1422)
(-1.18059e-13 -6.25997 9.55429)
(-1.57144e-13 -5.01084 7.3502)
(-3.6704e-13 -2.84822 4.44342)
(6.96152e-13 -0.675302 -1.13586)
(3.20039e-13 -11.397 23.3935)
(6.3904e-15 -16.7261 25.1121)
(1.7004e-13 -12.4948 23.8164)
(-6.12998e-14 -13.22 20.8351)
(-1.63515e-13 -11.4412 19.791)
(1.9718e-13 -10.9701 18.0306)
(-1.13789e-14 -10.0765 16.5469)
(-1.25157e-13 -9.28386 15.081)
(1.6017e-13 -8.55529 13.6852)
(3.40563e-15 -7.83488 12.382)
(-6.73467e-14 -7.13528 11.0894)
(1.50972e-13 -6.35148 9.77221)
(-1.02941e-14 -5.49128 8.22155)
(-3.37525e-13 -3.99806 6.22679)
(7.0448e-13 -1.84025 1.42275)
(2.35288e-13 -11.3681 22.8663)
(1.70872e-14 -16.0351 24.3093)
(1.60856e-13 -12.1441 23.2858)
(-7.59178e-14 -12.9461 20.2524)
(-1.45981e-13 -10.9763 19.3348)
(1.95905e-13 -10.6955 17.4593)
(3.70288e-15 -9.68841 16.084)
(-6.91065e-14 -9.04925 14.6792)
(1.22701e-13 -8.42634 13.4098)
(7.27633e-14 -7.84798 12.1834)
(6.17772e-14 -7.28945 11.0114)
(1.59464e-13 -6.73365 10.0035)
(1.06738e-13 -6.17945 9.13426)
(-1.65948e-13 -5.25428 8.06762)
(9.44798e-14 -3.35627 4.47089)
(2.1947e-13 -11.8181 23.0698)
(1.49623e-14 -15.2872 23.6438)
(5.14326e-14 -11.8684 22.8475)
(-8.1507e-14 -12.5921 19.96)
(-8.36913e-14 -10.4447 19.042)
(-2.04786e-14 -10.2196 17.0009)
(-2.06795e-14 -8.8974 15.5172)
(-7.25247e-14 -8.13133 13.6112)
(-1.80815e-13 -7.34691 12.0192)
(2.69029e-14 -6.9934 10.8764)
(2.61239e-15 -6.86144 10.3402)
(-1.19723e-13 -6.92443 10.3167)
(2.03867e-13 -6.97171 10.5904)
(4.44315e-15 -6.74032 10.4068)
(-2.66222e-13 -4.94558 7.78506)
(1.40091e-13 -12.5332 23.8816)
(1.07802e-14 -15.205 24.0849)
(-2.51918e-14 -11.9788 23.0246)
(-1.9434e-13 -12.4079 20.5699)
(-4.85981e-14 -10.3289 19.5186)
(-1.20087e-13 -9.82577 17.4472)
(-1.8441e-13 -8.09267 15.4624)
(-2.09464e-13 -6.61718 12.5782)
(-5.0543e-13 -5.09739 10.1089)
(-7.66047e-13 -4.45635 8.73576)
(-9.32524e-13 -4.55164 8.66379)
(-9.59738e-13 -5.42661 9.69565)
(-3.76293e-13 -6.70722 11.3746)
(1.04296e-13 -7.51173 12.2637)
(-4.34115e-13 -5.5832 9.8913)
(-3.3226e-14 -12.6484 23.8434)
(3.76673e-14 -16.427 26.2915)
(-2.49835e-13 -12.6757 24.1584)
(-2.21084e-13 -12.9974 21.9081)
(-2.43932e-14 -10.9458 20.8674)
(-3.80761e-13 -10.4118 18.825)
(-2.00704e-13 -8.509 16.7539)
(-3.35467e-13 -6.74126 13.5835)
(-9.94087e-13 -4.66457 10.6725)
(-1.1853e-12 -3.26565 8.48653)
(-1.99759e-12 -2.32895 7.01678)
(-2.86049e-12 -2.18306 6.45769)
(-2.39168e-12 -3.22057 7.52336)
(-1.62547e-12 -4.88209 9.54405)
(-5.31736e-13 -4.19265 8.63342)
(-8.78581e-14 -11.7164 21.784)
(1.07614e-13 -17.5184 28.1831)
(-4.1154e-13 -14.1051 25.7539)
(-2.36546e-13 -13.8491 23.0434)
(1.03015e-13 -11.9405 21.9409)
(-5.89758e-13 -11.5478 20.0412)
(-2.31407e-13 -9.8846 18.3002)
(-8.12463e-14 -8.41056 15.5414)
(-9.43058e-13 -6.34806 12.7023)
(-9.90625e-13 -4.58295 10.0334)
(-1.86043e-12 -2.90808 7.51166)
(-3.17925e-12 -1.27337 4.87843)
(-3.16571e-12 0.0985568 2.73245)
(-2.79038e-12 -0.0425059 2.49894)
(-7.34663e-13 -1.27971 3.88957)
(-2.43627e-13 -10.1372 18.3338)
(8.75645e-14 -17.6314 28.4059)
(-2.41607e-13 -15.8515 27.1996)
(-3.88493e-13 -14.8682 24.0928)
(3.05716e-15 -13.2953 22.3578)
(-3.64417e-13 -12.7095 20.5553)
(-4.13293e-13 -11.6151 18.9562)
(5.99769e-14 -10.5469 16.9428)
(-4.5434e-13 -9.12361 14.7187)
(-6.93844e-13 -7.58734 12.3615)
(-8.30949e-13 -5.92766 9.90432)
(-1.78405e-12 -4.02436 7.14457)
(-2.22789e-12 -1.60233 3.82842)
(-2.18092e-12 1.22542 -0.103228)
(-1.69598e-12 0.612769 -1.19095)
(-3.98366e-13 -7.5946 12.4232)
(1.47735e-15 -15.8955 25.6872)
(-2.34348e-13 -15.728 26.2681)
(-5.00021e-13 -14.2258 22.9648)
(-1.04439e-13 -12.6395 20.8504)
(-2.36128e-13 -11.9657 19.3096)
(-3.94679e-13 -11.2524 18.0739)
(-2.29775e-14 -10.5316 16.6636)
(-1.39335e-13 -9.70369 15.1277)
(-3.6386e-13 -8.7828 13.5233)
(-4.44284e-13 -7.76171 11.7535)
(-7.07292e-13 -6.48814 9.76734)
(-8.70976e-13 -4.94001 7.34905)
(-1.10836e-12 -2.80691 4.51836)
(-1.12323e-12 -1.69928 1.88329)
(-6.9747e-13 -6.49589 12.3109)
(-1.6347e-13 -15.9314 26.0825)
(-1.2957e-13 -18.1431 28.3846)
(-3.71839e-13 -17.6801 26.0705)
(-3.25678e-13 -16.244 22.9434)
(-2.20893e-13 -14.8879 20.3074)
(-3.1683e-13 -13.6278 18.1062)
(-2.63294e-13 -12.4623 16.2242)
(-4.84613e-14 -11.1131 14.3468)
(-1.81774e-13 -9.67459 12.2894)
(-4.4898e-13 -8.35949 10.6525)
(-4.50174e-13 -7.19319 9.17674)
(-4.51915e-13 -5.84372 7.54617)
(-6.77533e-13 -3.78648 5.02323)
(-7.18552e-13 -0.562667 -0.495301)
(-2.63293e-15 0.0297616 -0.0944559)
(-1.03472e-14 -0.109996 0.262741)
(-6.66916e-15 -0.0829666 -0.0705015)
(-4.13588e-15 -0.103618 -0.0802827)
(4.0781e-15 -0.0684993 0.00621183)
(6.08973e-14 -0.17942 -0.00766204)
(1.13977e-13 -0.175777 -0.18755)
(2.22296e-13 -0.168991 -0.0844846)
(4.01794e-13 -0.166222 0.0816698)
(5.25044e-13 -0.210116 0.2257)
(-1.7193e-14 -0.262046 0.100973)
(8.78507e-15 -0.243379 0.223184)
(2.90702e-14 -0.343682 0.255769)
(2.81264e-14 -0.292973 0.139835)
(3.75414e-14 -0.326718 0.303917)
(4.73438e-14 -0.32408 0.373293)
(6.64941e-14 -0.378196 0.383835)
(6.32448e-14 -0.362675 0.205137)
(1.82529e-14 -0.365579 0.272354)
(3.47527e-14 -0.423414 0.208766)
(1.52083e-14 -0.348988 0.0949685)
(5.44943e-15 -0.388107 0.178799)
(-6.2967e-15 -0.360056 0.147847)
(-1.14934e-13 -0.434065 0.0156458)
(-8.98608e-14 -0.311872 -0.0180413)
(-1.16036e-13 -0.352821 0.0682515)
(-1.36328e-13 -0.316704 0.0537817)
(-8.29769e-14 -0.337881 -0.138878)
(-1.16384e-13 -0.256273 -0.131269)
(-6.7685e-14 -0.243612 -0.11412)
(-1.35749e-13 -0.244098 -0.392746)
(-1.45027e-13 -0.136164 -0.270462)
(-7.83654e-14 -0.150408 -0.227795)
(-1.0938e-13 -0.103496 -0.270967)
(2.4355e-15 -0.0951681 -0.602871)
(-1.80193e-14 -0.0192687 -0.382999)
(-1.43888e-14 0.0169278 -0.331879)
(-7.12503e-15 -0.0219628 -0.667219)
(-1.02794e-14 0.0785732 -0.502105)
(-4.90843e-15 0.0797518 -0.417658)
(1.23656e-13 0.136115 -0.272093)
(7.56797e-14 0.0601049 -0.404155)
(1.67643e-14 0.121065 -0.513071)
(3.18857e-15 0.141162 -0.529734)
(-2.57953e-15 0.176877 -0.423326)
(9.26168e-15 0.201782 -0.318249)
(-9.52237e-14 0.16092 -0.340163)
(-5.53943e-14 0.206843 -0.386584)
(-5.89905e-14 0.224953 -0.344966)
(5.45167e-14 0.222145 -0.293798)
(2.49003e-14 0.251441 -0.349874)
(1.5485e-14 0.261044 -0.35088)
(2.20676e-14 0.314151 -0.323306)
(7.14337e-15 0.245837 -0.235073)
(-6.40707e-15 0.277955 -0.27768)
(1.14035e-13 0.279049 -0.283036)
(1.2395e-13 0.37059 -0.50438)
(5.51999e-14 0.165779 -0.365439)
(-5.40868e-14 0.248111 -0.329959)
(-4.88663e-14 0.173467 -1.11051)
(-1.76093e-14 0.0207688 -0.674499)
(3.71159e-15 0.0806361 -0.663327)
(4.02738e-14 0.13355 -0.550226)
(5.05541e-13 0.14474 -1.30142)
(-4.50553e-14 -0.299611 0.5773)
(-5.60042e-14 -0.186141 1.26118)
(-9.5175e-14 -0.687596 3.24498)
(-9.51791e-14 -1.13979 3.82913)
(-7.96062e-14 -1.39383 3.89788)
(-8.91645e-14 -1.46997 4.11447)
(-1.22082e-13 -2.49302 6.7072)
(-9.61257e-14 -2.9306 5.89694)
(-9.54731e-14 -3.36583 5.9573)
(-9.51852e-14 -3.41807 6.04246)
(-1.34545e-13 -5.34489 9.23187)
(-1.00773e-13 -5.40346 7.42993)
(-1.26732e-13 -5.54231 7.87192)
(-2.13916e-13 -8.02643 11.6321)
(-1.90362e-13 -7.84706 9.03763)
(-2.38959e-13 -8.16725 9.70366)
(-3.58858e-13 -8.89391 11.0612)
(-3.40928e-13 -8.78368 10.8902)
(-3.32572e-13 -9.01694 11.1437)
(-2.19553e-13 -10.4654 14.2772)
(-2.94592e-13 -9.98856 12.3194)
(-2.54988e-13 -10.2691 13.0026)
(-2.50757e-13 -10.2705 13.064)
(-2.45111e-13 -10.3639 13.0737)
(-2.42742e-13 -10.4519 13.0829)
(-2.46272e-13 -10.5279 13.1142)
(-2.42131e-13 -10.5782 13.2882)
(-2.31796e-13 -10.7364 13.5796)
(-2.02989e-13 -11.4691 15.5168)
(-2.42254e-13 -11.5184 14.2176)
(-2.39165e-13 -11.6478 14.4403)
(-2.34883e-13 -11.6355 14.5953)
(-2.34814e-13 -11.7728 14.9805)
(-2.28604e-13 -11.7762 15.0976)
(-2.35478e-13 -11.8564 15.2747)
(-2.42723e-13 -11.8845 15.4465)
(-2.52764e-13 -11.9988 15.6399)
(-2.16817e-13 -12.7606 17.718)
(-2.38407e-13 -12.7435 16.3204)
(-2.44396e-13 -12.8409 16.5535)
(-2.51337e-13 -12.8799 16.617)
(-2.51295e-13 -12.934 16.7581)
(-2.35472e-13 -12.9756 16.9663)
(-2.13295e-13 -13.0663 17.2139)
(-2.16615e-13 -13.0777 17.3023)
(-2.05618e-13 -13.116 17.4484)
(-1.91397e-13 -13.2258 17.6076)
(-1.52338e-13 -13.6655 19.1519)
(-1.51415e-13 -13.7944 17.9137)
(-1.31693e-13 -13.8341 18.1267)
(-1.16356e-13 -13.8627 18.2193)
(-1.06525e-13 -13.9142 18.3698)
(-1.08354e-13 -13.928 18.5217)
(-1.35322e-13 -13.995 18.806)
(-1.45892e-13 -13.9749 18.8972)
(-1.49196e-13 -14.0739 18.9308)
(-1.412e-13 -13.9931 19.2376)
(-1.71729e-13 -14.3235 18.1986)
(-1.87548e-13 -14.3034 18.3477)
(-1.96079e-13 -14.3452 18.4336)
(-1.94499e-13 -14.3085 18.3662)
(-1.95531e-13 -14.3388 18.3514)
(-1.90419e-13 -14.3327 18.3278)
(-1.81609e-13 -14.2664 18.3545)
(-1.60406e-13 -14.4008 18.6108)
(-1.32862e-13 -13.6062 17.4799)
(-1.24778e-13 -14.3108 17.2088)
(-1.21526e-13 -14.2042 17.1285)
(-1.23892e-13 -14.1797 17.0988)
(-1.3677e-13 -14.1589 17.2553)
(-1.42884e-13 -14.1038 17.1578)
(-1.47726e-13 -14.0215 16.9593)
(-1.55327e-13 -13.9256 16.741)
(-1.60838e-13 -13.9144 16.4557)
(-1.2499e-13 -12.7858 14.2357)
(-1.56674e-13 -13.645 14.7969)
(-1.58948e-13 -13.3894 14.2925)
(-1.58881e-13 -13.3669 14.007)
(-1.54733e-13 -13.2282 13.6957)
(-1.4386e-13 -13.1089 13.4803)
(-1.04944e-13 -13.0062 13.5427)
(-1.08689e-13 -12.8172 13.1459)
(-9.91689e-14 -12.6251 12.9094)
(-9.25062e-14 -12.4943 12.5436)
(-6.5649e-14 -10.8353 8.5912)
(-9.71232e-14 -12.1231 10.1499)
(-9.29318e-14 -11.7021 9.60474)
(-9.43611e-14 -11.6848 9.43575)
(-9.59239e-14 -11.3884 9.08189)
(-1.03581e-13 -11.3142 8.61486)
(-1.37062e-13 -11.165 7.41629)
(-1.76633e-13 -10.7602 6.12632)
(-1.61055e-13 -10.8082 6.34183)
(-5.22531e-14 -11.1608 4.75745)
(-1.2061e-13 -11.0614 4.51787)
(-1.05611e-13 -11.2491 4.1923)
(2.91454e-14 -8.75714 1.23497)
(-4.68269e-14 -13.9099 3.4778)
(-5.09704e-14 -13.7202 0.686556)
(-4.04399e-14 -12.0778 -0.220202)
(-3.95946e-14 -16.4164 -0.59092)
(-2.38655e-14 -11.2812 -1.57921)
(-3.52666e-14 -15.3807 -2.51083)
(-1.68513e-14 -14.2878 -4.03233)
(-1.37661e-14 -10.9911 -3.88756)
(-2.21643e-14 -13.3705 -5.94862)
(-1.83981e-14 -11.6348 -6.49319)
(-1.54341e-14 -9.18508 -5.57638)
(-2.37262e-14 -10.7912 -7.59178)
(-2.91617e-14 -6.65029 -5.81616)
(-4.21497e-14 -7.14569 -8.91643)
(-1.71925e-15 -4.96181 -8.97716)
(-5.28476e-15 -2.71804 -8.37843)
(-6.37352e-14 -0.646605 -12.1698)
(-1.55598e-14 0.0221754 -8.47276)
(-7.62574e-15 3.14341 -10.8678)
(4.00194e-15 5.21661 -12.6239)
(3.95251e-15 5.58049 -8.23302)
(9.73391e-15 8.36534 -9.70679)
(-2.02125e-15 11.185 -10.1189)
(6.69398e-15 9.24924 -6.44284)
(3.40823e-15 14.6869 -8.02065)
(1.94676e-15 11.9268 -5.49637)
(-9.22158e-15 14.3615 -6.23448)
(-2.27077e-15 16.8344 -5.90165)
(-5.25023e-15 12.9091 -3.74114)
(-7.35926e-15 19.2766 -4.36721)
(-5.63676e-15 14.7151 -2.96246)
(-4.19122e-15 17.2185 -3.25121)
(-7.40681e-15 18.5426 -2.62333)
(-1.22346e-14 14.3948 -1.60119)
(-1.63893e-14 18.1551 -1.57097)
(-1.93291e-14 18.9403 -0.522513)
(-1.61209e-14 13.5456 -0.311626)
(-2.62939e-14 19.5574 0.369793)
(-1.98796e-14 14.2851 0.355139)
(-2.73646e-14 16.1378 0.880962)
(-2.72426e-14 16.4475 2.28294)
(-1.08313e-14 11.8197 1.50765)
(-1.50214e-14 16.6287 2.79679)
(-1.27882e-14 11.8099 2.06038)
(-1.78814e-14 13.1648 2.91078)
(-2.29657e-14 12.9325 4.12583)
(-2.18363e-14 9.72284 2.8189)
(-3.29302e-14 11.3748 4.03188)
(-4.42777e-14 13.3655 2.16656)
(-2.82552e-14 9.77612 2.38583)
(-4.54628e-14 15.1426 -2.88809)
(-2.26774e-14 12.642 -2.51984)
(-3.64188e-14 15.0497 -5.3382)
(-7.25124e-14 17.3675 -8.7811)
(-4.20882e-14 13.6693 -6.10305)
(-6.88801e-14 18.9523 -10.0369)
(-4.90218e-14 14.5882 -7.6321)
(-5.88023e-14 16.5467 -10.9512)
(-7.7866e-14 14.3751 -17.6063)
(-5.31215e-14 10.1483 -12.7533)
(-1.02737e-13 12.2531 -20.476)
(-1.078e-13 9.07252 -33.3722)
(-5.56801e-14 -1.15961 -23.3246)
(-1.57445e-13 14.8448 -40.769)
(-9.89186e-14 -7.69818 -16.3784)
(-9.72414e-14 5.73719 -18.702)
(4.85876e-14 -22.2383 13.2135)
(1.00471e-13 -25.9355 22.9072)
(1.55379e-13 -44.2052 36.9627)
(1.69021e-13 -41.7614 41.0976)
(2.83811e-13 -66.2074 69.2733)
(3.37782e-13 -100.858 84.2383)
(2.99856e-13 -87.6686 77.4164)
(4.74382e-13 -129.426 123.622)
(4.836e-13 -159.04 129.577)
(4.12526e-13 -152.375 113.586)
(5.95892e-13 -231.733 164.503)
(4.73557e-13 -189.608 133.667)
(7.51272e-13 -268.425 213.442)
(1.00829e-36 0.924464 -2.08763)
(-8.83872e-37 1.23787 -1.99888)
(6.59595e-36 1.64002 -1.91801)
(-3.06679e-35 2.13216 -1.85453)
(1.43782e-34 2.64858 -1.81484)
(-7.13276e-34 3.16423 -1.79074)
(3.27819e-33 3.65994 -1.78002)
(-1.68639e-32 4.13178 -1.78592)
(7.58442e-32 4.57481 -1.81276)
(-3.90443e-31 4.98329 -1.86024)
(1.74326e-30 5.35055 -1.91507)
(-8.30689e-30 5.67094 -1.954)
(3.72754e-29 5.97862 -1.94801)
(-1.6909e-28 6.33631 -1.88459)
(7.44041e-28 6.78404 -1.77981)
(-3.14935e-27 7.33951 -1.65874)
(1.42349e-26 7.98862 -1.54121)
(-6.40629e-26 8.67041 -1.43725)
(-1.8662e-26 9.33279 -1.33549)
(-2.08973e-24 9.9749 -1.20869)
(2.2948e-23 10.496 -1.02032)
(2.18506e-22 10.8546 -0.735689)
(1.0322e-21 11.2221 -0.318918)
(-1.51292e-21 11.7451 0.283417)
(-7.12234e-20 12.3773 1.10743)
(-3.57413e-19 12.9717 2.06793)
(-5.79334e-19 13.4735 3.10735)
(-3.20472e-19 14.0121 4.03792)
(-5.48268e-20 14.6583 4.79735)
(-2.70393e-19 15.4024 5.46401)
(-7.90326e-19 16.1844 6.07232)
(6.42788e-19 16.9553 6.65598)
(7.00886e-18 17.7274 7.26319)
(9.7769e-18 18.5005 7.92495)
(-2.51084e-17 19.2634 8.65475)
(-1.19653e-16 20.0186 9.46178)
(-1.5815e-16 20.7855 10.3692)
(1.78073e-16 21.5879 11.4107)
(1.10444e-15 22.4548 12.6399)
(2.06895e-15 23.4 14.0941)
(1.55089e-15 24.4273 15.7742)
(-1.79258e-15 25.5545 17.6503)
(-7.54744e-15 26.8173 19.6925)
(-1.35403e-14 28.2438 21.8877)
(-1.73414e-14 29.83 24.2226)
(-1.7641e-14 31.5435 26.6549)
(-1.47828e-14 33.3452 29.1006)
(-1.04034e-14 35.2099 31.4426)
(-6.21681e-15 37.1415 33.5733)
(-2.50243e-15 39.1663 35.4568)
(2.51106e-15 41.2997 37.1401)
(1.17569e-14 43.5107 38.6978)
(2.75409e-14 45.6873 40.1574)
(4.98753e-14 47.5468 41.4619)
(7.54828e-14 48.3491 42.4694)
(9.73131e-14 46.3232 42.8952)
(1.0531e-13 38.6771 42.0887)
(9.36993e-14 25.1127 39.1943)
(7.59729e-14 13.3101 35.2991)
(7.26039e-14 10.2104 33.8033)
(7.65314e-14 9.91294 34.2276)
(7.90348e-14 8.03168 34.8626)
(8.2172e-14 5.86422 36.0223)
(8.65928e-14 3.92136 37.6253)
(9.05562e-14 1.89925 39.0862)
(9.36743e-14 -0.10433 40.2501)
(9.69012e-14 -2.07512 41.4157)
(1.02434e-13 -4.29397 43.3582)
(1.1062e-13 -7.01834 46.1804)
(1.22278e-13 -10.4825 50.1301)
(1.38614e-13 -15.0567 55.5604)
(1.61253e-13 -21.3038 62.9228)
(1.92585e-13 -30.0918 72.8593)
(2.36031e-13 -42.7651 86.2679)
(2.96652e-13 -61.4796 104.462)
(3.81579e-13 -89.393 129.297)
(4.9975e-13 -130.852 163.275)
(6.55276e-13 -188.132 207.804)
(8.10849e-13 -249.82 249.149)
(9.22306e-37 0.910361 -1.92212)
(-8.72654e-37 1.21368 -1.82437)
(6.0858e-36 1.6179 -1.75485)
(-2.91192e-35 2.11623 -1.7001)
(1.30129e-34 2.63791 -1.66786)
(-6.83749e-34 3.15772 -1.64717)
(2.91197e-33 3.65786 -1.63926)
(-1.65419e-32 4.13551 -1.64978)
(6.72106e-32 4.58497 -1.68407)
(-3.87983e-31 4.9976 -1.74061)
(1.63603e-30 5.36289 -1.80109)
(-8.14081e-30 5.67248 -1.83644)
(3.63019e-29 5.9629 -1.8144)
(-1.68595e-28 6.30451 -1.72623)
(7.43513e-28 6.74313 -1.59736)
(-3.04758e-27 7.29697 -1.45927)
(1.51895e-26 7.94923 -1.3317)
(-7.83109e-26 8.6334 -1.2196)
(-3.46023e-25 9.29152 -1.10324)
(-3.30491e-24 9.9194 -0.948552)
(4.91559e-23 10.4143 -0.712622)
(4.68714e-22 10.7351 -0.366118)
(1.94908e-21 11.052 0.117572)
(-4.27353e-21 11.5128 0.778348)
(-1.1112e-19 12.0923 1.61629)
(-4.38918e-19 12.6554 2.55142)
(-5.94277e-19 13.1616 3.55129)
(-2.69239e-19 13.742 4.46148)
(-3.52402e-20 14.4273 5.22345)
(-3.66718e-19 15.1943 5.89117)
(-8.61763e-19 15.9891 6.50778)
(1.22567e-18 16.76 7.11117)
(8.44235e-18 17.5198 7.74604)
(8.69917e-18 18.2737 8.43902)
(-3.60689e-17 19.0139 9.20244)
(-1.3778e-16 19.7409 10.0469)
(-1.45853e-16 20.4707 10.9995)
(2.82441e-16 21.2221 12.0934)
(1.29457e-15 22.0241 13.3784)
(2.1648e-15 22.8988 14.8896)
(1.2591e-15 23.86 16.6282)
(-2.61456e-15 24.9303 18.5686)
(-8.70171e-15 26.1424 20.6872)
(-1.46097e-14 27.5221 22.9747)
(-1.79743e-14 29.07 25.4138)
(-1.77605e-14 30.765 27.9503)
(-1.46202e-14 32.5799 30.485)
(-1.03151e-14 34.4933 32.8914)
(-6.36752e-15 36.4961 35.0622)
(-2.6596e-15 38.591 36.9676)
(2.89983e-15 40.7756 38.6621)
(1.32898e-14 43.0218 40.2277)
(3.05747e-14 45.2382 41.6978)
(5.43359e-14 47.1689 43.0166)
(8.08577e-14 48.1095 44.0398)
(1.02911e-13 46.3666 44.493)
(1.10724e-13 39.2382 43.7797)
(9.89635e-14 26.1881 41.0793)
(8.07948e-14 14.1958 37.2887)
(7.65469e-14 10.3896 35.6217)
(8.02258e-14 9.77329 35.8177)
(8.19927e-14 7.81063 36.0312)
(8.33928e-14 5.50027 36.5078)
(8.63662e-14 3.48832 37.5474)
(9.01861e-14 1.50432 38.9123)
(9.42214e-14 -0.484815 40.3904)
(9.8791e-14 -2.57336 42.0391)
(1.05247e-13 -5.00558 44.2982)
(1.14289e-13 -7.9934 47.3959)
(1.26841e-13 -11.7983 51.6166)
(1.44163e-13 -16.8172 57.3287)
(1.67956e-13 -23.6501 65.0021)
(2.00676e-13 -33.2233 75.2911)
(2.45807e-13 -46.9681 89.0982)
(3.08611e-13 -67.1691 107.8)
(3.96836e-13 -97.1644 133.513)
(5.20982e-13 -141.215 169.507)
(6.82711e-13 -199.42 216.217)
(8.08703e-13 -250.833 243.277)
(8.62271e-37 0.902617 -1.80164)
(-8.81735e-37 1.2027 -1.70558)
(5.61361e-36 1.61059 -1.64882)
(-2.85193e-35 2.11249 -1.60234)
(1.15902e-34 2.63606 -1.57574)
(-6.83898e-34 3.15759 -1.55701)
(2.48429e-33 3.66014 -1.55088)
(-1.70844e-32 4.14143 -1.56436)
(5.56876e-32 4.59476 -1.60295)
(-3.97661e-31 5.00926 -1.66361)
(1.5124e-30 5.37212 -1.72406)
(-7.98263e-30 5.67427 -1.75251)
(3.48701e-29 5.95436 -1.71726)
(-1.68381e-28 6.28789 -1.61287)
(7.38595e-28 6.72375 -1.47057)
(-2.75476e-27 7.27888 -1.32482)
(1.68071e-26 7.9336 -1.1927)
(-1.09873e-25 8.61796 -1.07371)
(-9.97566e-25 9.27132 -0.941917)
(-4.88736e-24 9.88762 -0.759489)
(9.7917e-23 10.3656 -0.48189)
(8.76898e-22 10.6674 -0.0888126)
(3.08545e-21 10.9621 0.435456)
(-9.79638e-21 11.4013 1.11796)
(-1.4983e-19 11.9664 1.94123)
(-4.87004e-19 12.5202 2.84941)
(-5.8462e-19 13.028 3.82651)
(-2.3411e-19 13.6233 4.72019)
(-4.40972e-20 14.3263 5.47746)
(-4.5018e-19 15.1042 6.14243)
(-8.51444e-19 15.9021 6.76407)
(1.76796e-18 16.6697 7.37846)
(9.2737e-18 17.4218 8.02818)
(6.87855e-18 18.1654 8.73763)
(-4.47237e-17 18.8936 9.51927)
(-1.47098e-16 19.6056 10.3854)
(-1.26122e-16 20.3156 11.3658)
(3.65851e-16 21.0415 12.4937)
(1.41266e-15 21.8123 13.8155)
(2.17334e-15 22.6531 15.3631)
(9.7963e-16 23.5819 17.1377)
(-3.21441e-15 24.6224 19.1171)
(-9.44077e-15 25.8065 21.282)
(-1.52247e-14 27.1606 23.624)
(-1.83006e-14 28.6898 26.1212)
(-1.78301e-14 30.3804 28.7114)
(-1.4628e-14 32.2099 31.2874)
(-1.04563e-14 34.1557 33.721)
(-6.64533e-15 36.2002 35.9096)
(-2.82638e-15 38.3331 37.8295)
(3.22955e-15 40.544 39.5386)
(1.44563e-14 42.8067 41.1209)
(3.27149e-14 45.0407 42.6113)
(5.72978e-14 47.004 43.9544)
(8.42434e-14 48.0079 45.005)
(1.06283e-13 46.3892 45.4916)
(1.13864e-13 39.4779 44.8355)
(1.01905e-13 26.6331 42.2205)
(8.35454e-14 14.5642 38.4896)
(7.92925e-14 10.5131 36.8266)
(8.32495e-14 9.78328 37.0357)
(8.52437e-14 7.808 37.2858)
(8.67209e-14 5.44952 37.7663)
(8.94572e-14 3.34552 38.6927)
(9.28742e-14 1.27431 39.8985)
(9.68254e-14 -0.772606 41.3371)
(1.01932e-13 -2.94765 43.1503)
(1.09173e-13 -5.53021 45.6543)
(1.19085e-13 -8.7301 49.0129)
(1.32637e-13 -12.8209 53.5241)
(1.51116e-13 -18.2192 59.555)
(1.76291e-13 -25.5563 67.5847)
(2.1065e-13 -35.8064 78.2672)
(2.57782e-13 -50.4786 92.5231)
(3.23486e-13 -72.0202 111.943)
(4.17067e-13 -104.017 139.316)
(5.49932e-13 -150.338 178.453)
(7.10563e-13 -207.226 224.898)
(7.81598e-13 -239.558 231.157)
(7.6741e-37 0.8918 -1.67966)
(-9.35826e-37 1.18808 -1.58227)
(4.89019e-36 1.59901 -1.5359)
(-2.87863e-35 2.10504 -1.49571)
(9.29882e-35 2.63079 -1.47294)
(-7.20015e-34 3.15467 -1.45473)
(1.75112e-33 3.66059 -1.44965)
(-1.90417e-32 4.14678 -1.4657)
(3.52069e-32 4.60514 -1.50794)
(-4.25969e-31 5.02176 -1.57092)
(1.33489e-30 5.38076 -1.62786)
(-7.80838e-30 5.6721 -1.64599)
(3.24597e-29 5.93756 -1.59573)
(-1.71016e-28 6.25958 -1.47473)
(7.4058e-28 6.69109 -1.31948)
(-2.09292e-27 7.24742 -1.16643)
(2.03066e-26 7.90497 -1.02854)
(-1.85008e-25 8.58878 -0.899608)
(-2.34102e-24 9.23451 -0.747336)
(-7.08412e-24 9.83462 -0.530094)
(1.93371e-22 10.2893 -0.20491)
(1.58394e-21 10.5639 0.235052)
(4.40783e-21 10.828 0.797328)
(-1.91667e-20 11.2362 1.49852)
(-1.96121e-19 11.7768 2.30637)
(-5.37714e-19 12.3128 3.18989)
(-5.73801e-19 12.8222 4.14179)
(-1.9962e-19 13.4415 5.0142)
(-5.91032e-20 14.1689 5.7658)
(-5.40973e-19 14.9611 6.42983)
(-8.20061e-19 15.7645 7.05837)
(2.38896e-18 16.5292 7.68541)
(1.01173e-17 17.271 8.35162)
(4.61633e-18 18.0003 9.07946)
(-5.43919e-17 18.7113 9.88168)
(-1.56497e-16 19.4013 10.7721)
(-1.02106e-16 20.0823 11.783)
(4.59397e-16 20.7705 12.948)
(1.53976e-15 21.4951 14.3097)
(2.17449e-15 22.2862 15.8978)
(6.63151e-16 23.1676 17.7131)
(-3.88088e-15 24.1651 19.7373)
(-1.02621e-14 25.3093 21.9545)
(-1.59211e-14 26.6268 24.3568)
(-1.8703e-14 28.1287 26.9177)
(-1.79793e-14 29.8103 29.5664)
(-1.47289e-14 31.6563 32.1889)
(-1.07012e-14 33.6437 34.6554)
(-7.02171e-15 35.7437 36.869)
(-3.06233e-15 37.9285 38.8111)
(3.55142e-15 40.176 40.5438)
(1.57116e-14 42.4623 42.1544)
(3.50652e-14 44.7222 43.6811)
(6.05889e-14 46.7331 45.07)
(8.80502e-14 47.8302 46.1755)
(1.10145e-13 46.398 46.7272)
(1.17589e-13 39.8241 46.1497)
(1.05541e-13 27.3316 43.6011)
(8.69057e-14 15.1819 39.8508)
(8.23324e-14 10.6745 38.1239)
(8.64105e-14 9.71465 38.3314)
(8.85506e-14 7.69862 38.5745)
(9.0001e-14 5.26742 39.0162)
(9.26747e-14 3.09911 39.9091)
(9.6117e-14 0.989608 41.1139)
(1.00221e-13 -1.12014 42.6018)
(1.0577e-13 -3.40241 44.5598)
(1.13649e-13 -6.1275 47.2593)
(1.24369e-13 -9.51074 50.856)
(1.38905e-13 -13.8482 55.6485)
(1.58548e-13 -19.573 61.9986)
(1.85091e-13 -27.3423 70.3825)
(2.21071e-13 -38.1741 81.4562)
(2.70363e-13 -53.68 96.2433)
(3.39835e-13 -76.5335 116.788)
(4.40375e-13 -110.513 146.612)
(5.80131e-13 -158.247 188.403)
(7.28343e-13 -211.008 230.572)
(7.54399e-13 -227.717 221.71)
(6.24844e-37 0.881831 -1.56059)
(-1.08972e-36 1.17633 -1.46264)
(3.73104e-36 1.59083 -1.4266)
(-3.13977e-35 2.1003 -1.39183)
(5.42326e-35 2.62713 -1.37159)
(-8.43138e-34 3.1529 -1.35296)
(4.31107e-34 3.66207 -1.34853)
(-2.42546e-32 4.15308 -1.36644)
(-1.80333e-33 4.61594 -1.41017)
(-4.90323e-31 5.03351 -1.4705)
(1.0979e-30 5.38739 -1.51646)
(-7.64186e-30 5.66762 -1.51862)
(2.80024e-29 5.91931 -1.45277)
(-1.80951e-28 6.23151 -1.31855)
(7.64043e-28 6.66057 -1.15523)
(-5.64094e-28 7.21906 -0.998759)
(2.7554e-26 7.87879 -0.855785)
(-3.5837e-25 8.5601 -0.714449)
(-5.05352e-24 9.19572 -0.537084)
(-9.4927e-24 9.7777 -0.280086)
(3.73499e-22 10.2097 0.0935339)
(2.70987e-21 10.4616 0.575799)
(5.54711e-21 10.7027 1.16919)
(-3.34196e-20 11.0911 1.87878)
(-2.47833e-19 11.6171 2.66373)
(-5.82211e-19 12.14 3.52174)
(-5.56169e-19 12.6508 4.44823)
(-1.6977e-19 13.2874 5.29793)
(-8.6593e-20 14.0336 6.04204)
(-6.35109e-19 14.8371 6.70547)
(-7.48262e-19 15.6432 7.34136)
(3.07145e-18 16.4033 7.98071)
(1.08153e-17 17.135 8.66197)
(1.75072e-18 17.8508 9.40627)
(-6.44193e-17 18.5458 10.2274)
(-1.63714e-16 19.215 11.1408)
(-7.20726e-17 19.8687 12.1809)
(5.57408e-16 20.5227 13.3816)
(1.65733e-15 21.2064 14.7818)
(2.14645e-15 21.954 16.4085)
(3.14352e-16 22.7932 18.2627)
(-4.55389e-15 23.7514 20.3294)
(-1.10541e-14 24.8581 22.5956)
(-1.65764e-14 26.1419 25.0527)
(-1.90972e-14 27.6204 27.6688)
(-1.81899e-14 29.2974 30.3658)
(-1.49613e-14 31.163 33.0252)
(-1.11069e-14 33.1916 35.5189)
(-7.53431e-15 35.3429 37.7568)
(-3.38057e-15 37.5742 39.7265)
(3.83848e-15 39.8531 41.4927)
(1.69509e-14 42.1583 43.1451)
(3.7383e-14 44.4383 44.7239)
(6.3802e-14 46.4885 46.1767)
(9.17291e-14 47.6656 47.3577)
(1.13873e-13 46.3951 47.9953)
(1.21256e-13 40.1147 47.509)
(1.09237e-13 27.9294 45.0183)
(9.03256e-14 15.7109 41.2153)
(8.5312e-14 10.8219 39.4016)
(8.95508e-14 9.68432 39.6349)
(9.20068e-14 7.64717 39.9256)
(9.35698e-14 5.15919 40.3755)
(9.62402e-14 2.90862 41.2625)
(9.97301e-14 0.724162 42.488)
(1.04029e-13 -1.47353 44.0427)
(1.10032e-13 -3.88819 46.1429)
(1.18495e-13 -6.78713 49.0192)
(1.2997e-13 -10.3876 52.8412)
(1.45442e-13 -15.0044 57.9021)
(1.66195e-13 -21.0884 64.5546)
(1.94038e-13 -29.3257 73.2685)
(2.31629e-13 -40.7982 84.7433)
(2.83464e-13 -57.281 100.255)
(3.57833e-13 -81.7243 122.465)
(4.66129e-13 -117.842 155.178)
(6.09435e-13 -166.195 198.24)
(7.37794e-13 -213.13 232.67)
(7.06948e-13 -215.62 205.197)
(3.87376e-37 0.871246 -1.44484)
(-1.45521e-36 1.16514 -1.34568)
(1.65858e-36 1.5832 -1.31884)
(-3.92255e-35 2.09569 -1.28779)
(-1.71411e-35 2.62303 -1.26861)
(-1.15491e-33 3.15074 -1.2487)
(-2.11427e-33 3.66346 -1.24449)
(-3.64167e-32 4.15939 -1.26308)
(-7.01171e-32 4.62617 -1.30455)
(-6.16297e-31 5.04322 -1.35384)
(8.18094e-31 5.39063 -1.37768)
(-7.54232e-30 5.65948 -1.35703)
(1.90582e-29 5.89779 -1.27669)
(-2.0931e-28 6.20079 -1.13528)
(8.53723e-28 6.62802 -0.970807)
(2.94689e-27 7.18854 -0.815524)
(4.22736e-26 7.84927 -0.667933)
(-7.4908e-25 8.52587 -0.511417)
(-1.04097e-23 9.14852 -0.304917)
(-1.05893e-23 9.71014 -0.00573849)
(6.99055e-22 10.1188 0.413339)
(4.3482e-21 10.3493 0.932987)
(5.97724e-21 10.5693 1.55237)
(-5.33152e-20 10.9409 2.26244)
(-3.03699e-19 11.4526 3.02149)
(-6.21069e-19 11.9607 3.85562)
(-5.35571e-19 12.4727 4.75553)
(-1.46385e-19 13.1268 5.58057)
(-1.25244e-19 13.8909 6.31596)
(-7.29629e-19 14.7047 6.9802)
(-6.35395e-19 15.5129 7.62431)
(3.80695e-18 16.268 8.27591)
(1.13597e-17 16.9891 8.97127)
(-1.68193e-18 17.6906 9.73083)
(-7.47412e-17 18.3681 10.5701)
(-1.68876e-16 19.0147 11.5062)
(-3.64951e-17 19.6387 12.5751)
(6.59789e-16 20.2557 13.8109)
(1.76756e-15 20.8961 15.2489)
(2.09471e-15 21.5976 16.9137)
(-6.19436e-17 22.392 18.8061)
(-5.23801e-15 23.308 20.914)
(-1.18368e-14 24.3747 23.2267)
(-1.72237e-14 25.6229 25.7337)
(-1.95191e-14 27.0774 28.3977)
(-1.84877e-14 28.7506 31.1347)
(-1.53324e-14 30.6373 33.824)
(-1.16655e-14 32.7085 36.342)
(-8.1744e-15 34.9124 38.6065)
(-3.78259e-15 37.1907 40.6108)
(4.08233e-15 39.5009 42.4218)
(1.81749e-14 41.8242 44.1303)
(3.96973e-14 44.1232 45.7785)
(6.70062e-14 46.2126 47.3151)
(9.53901e-14 47.4716 48.5938)
(1.17604e-13 46.3704 49.3409)
(1.25014e-13 40.404 48.9636)
(1.1315e-13 28.565 46.5288)
(9.39709e-14 16.3005 42.6333)
(8.8344e-14 10.9864 40.6815)
(9.2648e-14 9.62431 40.9399)
(9.54828e-14 7.55526 41.3066)
(9.72542e-14 5.01164 41.7974)
(1.00014e-13 2.68701 42.7127)
(1.03613e-13 0.436477 43.9823)
(1.08118e-13 -1.85068 45.6104)
(1.14565e-13 -4.40009 47.8504)
(1.23593e-13 -7.47519 50.8948)
(1.35795e-13 -11.3016 54.9294)
(1.5215e-13 -16.2099 60.2383)
(1.7394e-13 -22.6683 67.1636)
(2.0302e-13 -31.4015 76.1879)
(2.42372e-13 -43.591 88.1396)