/*--------------------------------*- C++ -*----------------------------------*\
| =========                 |                                                 |
| \\      /  F ield         | OpenFOAM: The Open Source CFD Toolbox           |
|  \\    /   O peration     | Version:  4.1                                   |
|   \\  /    A nd           | Web:      www.OpenFOAM.org                      |
|    \\/     M anipulation  |                                                 |
\*---------------------------------------------------------------------------*/
FoamFile
{
    version     2.0;
    format      ascii;
    class       volScalarField;
    location    "12";
    object      p;
}
// * * * * * * * * * * * * * * * * * * * * * * * * * * * * * * * * * * * * * //

dimensions      [0 2 -2 0 0 0 0];

internalField   nonuniform List<scalar> 
6785
(
-1.77146e+21
-1.77146e+21
-1.77146e+21
-1.77146e+21
-1.77146e+21
-1.77146e+21
-1.77146e+21
-1.77146e+21
-1.77146e+21
-1.77146e+21
-1.77146e+21
-1.77146e+21
-1.77146e+21
-1.77146e+21
-1.77146e+21
-1.77146e+21
-1.77146e+21
-1.77146e+21
-1.77146e+21
-1.77146e+21
-1.77146e+21
-1.77146e+21
-1.77146e+21
-1.77146e+21
-1.77146e+21
-1.77146e+21
-1.77146e+21
-1.77146e+21
-1.77146e+21
-1.77146e+21
-1.77146e+21
-1.77146e+21
-1.77146e+21
-1.77146e+21
-1.77146e+21
-1.77146e+21
-1.77146e+21
-1.77146e+21
-1.77146e+21
-1.77146e+21
-1.77146e+21
-1.77146e+21
-1.77146e+21
-1.77146e+21
-1.77146e+21
-1.77146e+21
-1.77146e+21
-1.77146e+21
-1.77146e+21
-1.77146e+21
-1.77146e+21
-1.77146e+21
-1.77146e+21
-1.77146e+21
-1.77146e+21
-1.77146e+21
-1.77146e+21
-1.77146e+21
-1.77146e+21
-1.77146e+21
-1.77147e+21
-1.77147e+21
-1.77146e+21
-1.77146e+21
-1.77146e+21
-1.77146e+21
-1.77146e+21
-1.77146e+21
-1.77146e+21
-1.77146e+21
-1.77146e+21
-1.77146e+21
-1.77146e+21
-1.77146e+21
-1.77146e+21
-1.77147e+21
-1.77147e+21
-1.77147e+21
-1.77147e+21
-1.77147e+21
-1.77147e+21
-1.77147e+21
-1.77147e+21
-1.77147e+21
-1.77147e+21
-1.77147e+21
-1.77147e+21
-1.77147e+21
-1.77147e+21
-1.77147e+21
-1.77147e+21
-1.77147e+21
-1.77147e+21
-1.77147e+21
-1.77147e+21
-1.77147e+21
-1.77147e+21
-1.77147e+21
-1.77147e+21
-1.77147e+21
-1.77147e+21
-1.77147e+21
-1.77147e+21
-1.77147e+21
-1.77147e+21
-1.77151e+21
-1.77151e+21
-1.77151e+21
-1.7715e+21
-1.7715e+21
-1.7715e+21
-1.77149e+21
-1.77148e+21
-1.77148e+21
-1.77147e+21
-1.77146e+21
-1.77145e+21
-1.77145e+21
-1.77145e+21
-1.77145e+21
-1.77171e+21
-1.7717e+21
-1.77168e+21
-1.77165e+21
-1.77162e+21
-1.77159e+21
-1.77156e+21
-1.77152e+21
-1.77147e+21
-1.77142e+21
-1.77137e+21
-1.77134e+21
-1.77132e+21
-1.7713e+21
-1.77128e+21
-1.7732e+21
-1.77308e+21
-1.77288e+21
-1.77271e+21
-1.77253e+21
-1.77234e+21
-1.77216e+21
-1.77193e+21
-1.77163e+21
-1.77124e+21
-1.77083e+21
-1.77045e+21
-1.77011e+21
-1.76985e+21
-1.76978e+21
-1.78125e+21
-1.781e+21
-1.77976e+21
-1.77829e+21
-1.77672e+21
-1.77501e+21
-1.77315e+21
-1.77101e+21
-1.76869e+21
-1.76625e+21
-1.76425e+21
-1.7629e+21
-1.76206e+21
-1.7616e+21
-1.76154e+21
-1.80958e+21
-1.80916e+21
-1.80706e+21
-1.8032e+21
-1.79758e+21
-1.7898e+21
-1.7797e+21
-1.76679e+21
-1.75166e+21
-1.73343e+21
-1.71964e+21
-1.71105e+21
-1.7063e+21
-1.7038e+21
-1.70286e+21
-1.91301e+21
-1.91471e+21
-1.91843e+21
-1.92363e+21
-1.93068e+21
-1.93845e+21
-1.94791e+21
-1.89236e+21
-1.83524e+21
-1.78849e+21
-1.65908e+21
-1.56726e+21
-1.52469e+21
-1.49303e+21
-1.47108e+21
-1.95732e+21
-1.96034e+21
-1.96831e+21
-1.98196e+21
-1.99323e+21
-2.00541e+21
-2.00594e+21
-2.00716e+21
-1.78849e+21
-1.78849e+21
-1.78849e+21
3.14497e+20
7.69139e+20
7.37895e+20
6.6387e+20
-1.83861e+21
-1.84164e+21
-1.84847e+21
-1.86129e+21
-1.87668e+21
-1.89389e+21
-1.9074e+21
-1.89402e+21
-1.87015e+21
-1.78849e+21
-1.85443e+21
-1.81222e+21
-1.78744e+21
-1.78274e+21
-1.79408e+21
-4.16404e+22
-4.1329e+22
-4.02445e+22
-3.95746e+22
-3.90063e+22
-3.83065e+22
-3.84688e+22
-3.86244e+22
-3.89594e+22
-3.9819e+22
-4.29064e+22
-4.47457e+22
-4.74582e+22
-4.62681e+22
-4.54151e+22
-4.46315e+22
-4.36771e+22
-4.13487e+22
-3.98566e+22
-3.79256e+22
-3.52839e+22
-3.3654e+22
-3.20782e+22
-3.0001e+22
-2.79986e+22
-2.68345e+22
-2.57047e+22
-2.41935e+22
-2.2881e+22
-2.21663e+22
-2.11937e+22
-2.02463e+22
-1.97261e+22
-1.91977e+22
-1.8456e+22
-1.76938e+22
-1.72296e+22
-1.65478e+22
-1.581e+22
-1.53599e+22
-1.4915e+22
-1.43138e+22
-1.36834e+22
-1.32582e+22
-1.28358e+22
-1.22599e+22
-1.16808e+22
-1.12894e+22
-1.07588e+22
-1.02588e+22
-9.91676e+21
-9.57999e+21
-9.12591e+21
-8.70073e+21
-8.40833e+21
-8.11985e+21
-7.73086e+21
-7.36507e+21
-7.11037e+21
-6.76709e+21
-6.45695e+21
-6.23814e+21
-6.02175e+21
-5.73054e+21
-5.4663e+21
-5.28035e+21
-5.02733e+21
-4.80386e+21
-4.64422e+21
-4.48491e+21
-4.26722e+21
-4.07156e+21
-3.93201e+21
-3.79132e+21
-3.59752e+21
-3.41608e+21
-3.28571e+21
-3.11338e+21
-2.95981e+21
-2.85505e+21
-2.73276e+21
-2.66048e+21
-2.62397e+21
-2.54826e+21
-2.46658e+21
-2.43524e+21
-2.4066e+21
-2.37549e+21
-2.34757e+21
-2.32045e+21
-2.28749e+21
-2.25858e+21
-2.2023e+21
-2.16112e+21
-2.15021e+21
-2.13806e+21
-2.12255e+21
-2.10701e+21
-2.09468e+21
-2.08284e+21
-2.07184e+21
-2.04075e+21
-1.99931e+21
-1.98458e+21
-1.97244e+21
-1.96071e+21
-1.94997e+21
-1.93967e+21
-1.93815e+21
-1.93684e+21
-1.93631e+21
-1.93491e+21
-1.90884e+21
-1.89961e+21
-1.89369e+21
-1.88869e+21
-1.88863e+21
-1.88858e+21
-1.88454e+21
-1.88013e+21
-1.85682e+21
-1.84557e+21
-1.84404e+21
-1.84231e+21
-1.83769e+21
-1.83104e+21
-1.8209e+21
-1.809e+21
-1.79528e+21
-1.75359e+21
-1.73473e+21
-1.72939e+21
-1.7229e+21
-1.71509e+21
-1.70569e+21
-1.69479e+21
-1.68224e+21
-1.66823e+21
-1.62522e+21
-1.60383e+21
-1.5975e+21
-1.59033e+21
-1.58209e+21
-1.57248e+21
-1.56132e+21
-1.54854e+21
-1.53412e+21
-1.51809e+21
-1.46902e+21
-1.43856e+21
-1.42789e+21
-1.41507e+21
-1.39974e+21
-1.38051e+21
-1.35637e+21
-1.32743e+21
-1.2939e+21
-1.19026e+21
-1.08591e+21
-1.04554e+21
-9.5776e+20
-9.15789e+20
-8.81326e+20
-8.39736e+20
-7.9988e+20
-7.60223e+20
-7.22189e+20
-6.9242e+20
-6.58033e+20
-6.24625e+20
-5.99278e+20
-5.70386e+20
-5.41829e+20
-5.14726e+20
-4.88143e+20
-4.6822e+20
-4.45879e+20
-4.24287e+20
-4.04115e+20
-3.84276e+20
-3.69136e+20
-3.51727e+20
-3.34342e+20
-3.21375e+20
-3.06832e+20
-2.92612e+20
-2.79372e+20
-2.66398e+20
-2.56628e+20
-2.45384e+20
-2.34161e+20
-2.23518e+20
-2.13045e+20
-2.05114e+20
-1.95978e+20
-1.87011e+20
-1.80287e+20
-1.72509e+20
-1.64697e+20
-1.57269e+20
-1.49878e+20
-1.44295e+20
-1.37835e+20
-1.31548e+20
-1.25618e+20
-1.19755e+20
-1.15227e+20
-1.09821e+20
-1.04396e+20
-1.00295e+20
-9.55269e+19
-9.08478e+19
-8.64255e+19
-8.20918e+19
-7.87754e+19
-7.48049e+19
-7.08212e+19
-6.69655e+19
-6.31578e+19
-6.02173e+19
-5.67023e+19
-5.32612e+19
-5.06347e+19
-4.748e+19
-4.431e+19
-4.12192e+19
-3.81371e+19
-3.57447e+19
-3.28586e+19
-3.00428e+19
-2.7305e+19
-2.45924e+19
-2.24282e+19
-1.97165e+19
-1.69823e+19
-1.48267e+19
-1.21749e+19
-9.58337e+18
-6.99837e+18
-2.93196e+18
1.92206e+12
7.7029e+12
1.87727e+13
3.44798e+13
5.47815e+13
8.00043e+13
1.10723e+14
1.47766e+14
1.92382e+14
2.46124e+14
3.1127e+14
3.90562e+14
4.88079e+14
6.08805e+14
7.62025e+14
9.62617e+14
1.16717e+15
1.26077e+15
1.36884e+15
1.50945e+15
1.6798e+15
1.87817e+15
2.10242e+15
2.35243e+15
2.62766e+15
2.92839e+15
3.25386e+15
3.60477e+15
3.98298e+15
4.39407e+15
4.84507e+15
5.34444e+15
5.9013e+15
6.53278e+15
7.30014e+15
8.40516e+15
9.81504e+15
1.141e+16
1.34304e+16
1.58843e+16
1.87561e+16
2.19058e+16
2.50624e+16
2.76668e+16
2.95604e+16
3.21166e+16
3.50543e+16
3.86789e+16
4.33472e+16
4.91169e+16
5.60709e+16
6.41586e+16
7.32775e+16
8.32999e+16
9.41169e+16
1.05511e+17
1.17217e+17
1.28745e+17
1.39458e+17
1.48245e+17
1.53971e+17
1.55617e+17
1.52117e+17
1.42521e+17
1.25659e+17
9.87195e+16
1.8702e+16
-4.33753e+16
-1.05414e+17
-1.89705e+17
-5.7541e+17
-7.81184e+17
-1.18525e+18
-1.70208e+18
-2.3692e+18
-3.14991e+18
-3.94591e+18
-4.61416e+18
-5.01958e+18
5.91074e+12
2.34017e+13
5.66901e+13
1.03901e+14
1.64888e+14
2.40641e+14
3.32873e+14
4.44075e+14
5.77975e+14
7.3924e+14
9.34668e+14
1.17252e+15
1.465e+15
1.82717e+15
2.28593e+15
2.88808e+15
3.50101e+15
3.79527e+15
4.12479e+15
4.54883e+15
5.06137e+15
5.65759e+15
6.33124e+15
7.08212e+15
7.9087e+15
8.81187e+15
9.7894e+15
1.08433e+16
1.19792e+16
1.32137e+16
1.4568e+16
1.60675e+16
1.7739e+16
1.96327e+16
2.19163e+16
2.51938e+16
2.94012e+16
3.41766e+16
4.02255e+16
4.75776e+16
5.61928e+16
6.56774e+16
7.52136e+16
8.31337e+16
8.8857e+16
9.64377e+16
1.05236e+17
1.16095e+17
1.30076e+17
1.47344e+17
1.68151e+17
1.92369e+17
2.19666e+17
2.4967e+17
2.82032e+17
3.16111e+17
3.51084e+17
3.85504e+17
4.17525e+17
4.44078e+17
4.61723e+17
4.67323e+17
4.57576e+17
4.29599e+17
3.7991e+17
2.98833e+17
5.77341e+16
-1.29013e+17
-3.02309e+17
-5.25016e+17
-1.18339e+18
-1.59406e+18
-2.41752e+18
-3.47125e+18
-4.82845e+18
-6.41898e+18
-8.03842e+18
-9.41013e+18
-1.02632e+19
1.01866e+13
3.97159e+13
9.53972e+13
1.74279e+14
2.76107e+14
4.02549e+14
5.56437e+14
7.4194e+14
9.6523e+14
1.23411e+15
1.55985e+15
1.95629e+15
2.44367e+15
3.04728e+15
3.81078e+15
4.81106e+15
5.82291e+15
6.34177e+15
6.90475e+15
7.61694e+15
8.47442e+15
9.47021e+15
1.05948e+16
1.18479e+16
1.32274e+16
1.47347e+16
1.63663e+16
1.81252e+16
2.00209e+16
2.20811e+16
2.43418e+16
2.68452e+16
2.96366e+16
3.27991e+16
3.65898e+16
4.1986e+16
4.89461e+16
5.68964e+16
6.69586e+16
7.91872e+16
9.35292e+16
1.09367e+17
1.25349e+17
1.38758e+17
1.48464e+17
1.60901e+17
1.7552e+17
1.93594e+17
2.16842e+17
2.45553e+17
2.80157e+17
3.20461e+17
3.6589e+17
4.15839e+17
4.69702e+17
5.26425e+17
5.84614e+17
6.41899e+17
6.9534e+17
7.4019e+17
7.70697e+17
7.81476e+17
7.66896e+17
7.21956e+17
6.40683e+17
5.02983e+17
1.01599e+17
-2.12423e+17
-4.93467e+17
-8.4627e+17
-1.61488e+18
-2.14158e+18
-3.25787e+18
-4.68366e+18
-6.51648e+18
-8.66422e+18
-1.08543e+19
-1.27175e+19
-1.39098e+19
1.47255e+13
5.66775e+13
1.34919e+14
2.45603e+14
3.88395e+14
5.6564e+14
7.81284e+14
1.04118e+15
1.35392e+15
1.73047e+15
2.1865e+15
2.74148e+15
3.42363e+15
4.26854e+15
5.33574e+15
6.73227e+15
8.12155e+15
8.8825e+15
9.69168e+15
1.06981e+16
1.19036e+16
1.33004e+16
1.48766e+16
1.66325e+16
1.85656e+16
2.06776e+16
2.29639e+16
2.54283e+16
2.80843e+16
3.09707e+16
3.41389e+16
3.76484e+16
4.15644e+16
4.60033e+16
5.13035e+16
5.8766e+16
6.84277e+16
7.95442e+16
9.35991e+16
1.10671e+17
1.30706e+17
1.52897e+17
1.75356e+17
1.9439e+17
2.08295e+17
2.25388e+17
2.45776e+17
2.71057e+17
3.0354e+17
3.43651e+17
3.92011e+17
4.48386e+17
5.11937e+17
5.81849e+17
6.57246e+17
7.36687e+17
8.18201e+17
8.98556e+17
9.73744e+17
1.03748e+18
1.08173e+18
1.09878e+18
1.08056e+18
1.0197e+18
9.07175e+17
7.10283e+17
1.52924e+17
-2.92332e+17
-6.78096e+17
-1.1547e+18
-2.04969e+18
-2.68478e+18
-4.10562e+18
-5.91466e+18
-8.23369e+18
-1.09511e+19
-1.37269e+19
-1.60936e+19
-1.76067e+19
1.95193e+13
7.43173e+13
1.75301e+14
3.1791e+14
5.01766e+14
7.29904e+14
1.00738e+15
1.34172e+15
1.74394e+15
2.22815e+15
2.81443e+15
3.5279e+15
4.40463e+15
5.49062e+15
6.86186e+15
8.65269e+15
1.0397e+16
1.1414e+16
1.24832e+16
1.37919e+16
1.53499e+16
1.71498e+16
1.91791e+16
2.14386e+16
2.39262e+16
2.66438e+16
2.95857e+16
3.27562e+16
3.61731e+16
3.98862e+16
4.39633e+16
4.8482e+16
5.35282e+16
5.92509e+16
6.6061e+16
7.55422e+16
8.7861e+16
1.02134e+17
1.20163e+17
1.42049e+17
1.67753e+17
1.96312e+17
2.25309e+17
2.50107e+17
2.68411e+17
2.89981e+17
3.1607e+17
3.48537e+17
3.90224e+17
4.41698e+17
5.03787e+17
5.76245e+17
6.5794e+17
7.47871e+17
8.44887e+17
9.47187e+17
1.05222e+18
1.15595e+18
1.2533e+18
1.33664e+18
1.39568e+18
1.42024e+18
1.39968e+18
1.3239e+18
1.17998e+18
9.22445e+17
2.14944e+17
-3.65441e+17
-8.54372e+17
-1.45609e+18
-2.49167e+18
-3.21807e+18
-4.95577e+18
-7.16023e+18
-9.97803e+18
-1.328e+19
-1.66596e+19
-1.95454e+19
-2.14324e+19
2.45642e+13
9.26547e+13
2.16579e+14
3.91225e+14
6.16229e+14
8.95326e+14
1.23467e+15
1.6435e+15
2.13517e+15
2.72703e+15
3.44347e+15
4.31532e+15
5.38645e+15
6.71343e+15
8.38951e+15
1.05731e+16
1.26462e+16
1.39326e+16
1.52766e+16
1.68969e+16
1.88125e+16
2.10182e+16
2.35022e+16
2.62666e+16
2.931e+16
3.26346e+16
3.62337e+16
4.01114e+16
4.42901e+16
4.88311e+16
5.38193e+16
5.93512e+16
6.55352e+16
7.25515e+16
8.0874e+16
9.23203e+16
1.07248e+17
1.24671e+17
1.46651e+17
1.7332e+17
2.04661e+17
2.39593e+17
2.75202e+17
3.05942e+17
3.28865e+17
3.54727e+17
3.86416e+17
4.26048e+17
4.76916e+17
5.39725e+17
6.15534e+17
7.04113e+17
8.04008e+17
9.14054e+17
1.03283e+18
1.15819e+18
1.28703e+18
1.41455e+18
1.5346e+18
1.63837e+18
1.71342e+18
1.7469e+18
1.72542e+18
1.63576e+18
1.46026e+18
1.14067e+18
2.9e+17
-4.30983e+17
-1.02538e+18
-1.75998e+18
-2.9275e+18
-3.73506e+18
-5.80543e+18
-8.41896e+18
-1.17498e+19
-1.56543e+19
-1.96594e+19
-2.30858e+19
-2.5339e+19
2.98536e+13
1.11693e+14
2.5877e+14
4.65565e+14
7.31785e+14
1.06189e+15
1.46312e+15
1.94643e+15
2.52752e+15
3.22698e+15
4.07349e+15
5.10361e+15
6.36897e+15
7.93697e+15
9.91894e+15
1.24917e+16
1.48678e+16
1.6435e+16
1.80687e+16
2.00105e+16
2.22894e+16
2.49038e+16
2.78444e+16
3.1115e+16
3.47158e+16
3.86489e+16
4.29066e+16
4.74927e+16
5.2434e+16
5.78039e+16
6.37055e+16
7.02551e+16
7.75852e+16
8.59063e+16
9.57425e+16
1.09096e+17
1.26582e+17
1.47147e+17
1.73053e+17
2.04467e+17
2.41412e+17
2.82713e+17
3.25011e+17
3.61904e+17
3.89664e+17
4.19644e+17
4.56802e+17
5.03561e+17
5.63583e+17
6.37697e+17
7.27235e+17
8.31988e+17
9.50161e+17
1.08045e+18
1.22116e+18
1.36985e+18
1.52285e+18
1.67466e+18
1.81803e+18
1.94321e+18
2.03563e+18
2.07953e+18
2.05866e+18
1.95622e+18
1.74905e+18
1.36676e+18
3.81567e+17
-4.84847e+17
-1.18593e+18
-2.06144e+18
-3.35985e+18
-4.2301e+18
-6.64987e+18
-9.68752e+18
-1.35482e+19
-1.80763e+19
-2.27332e+19
-2.67283e+19
-2.94162e+19
3.53843e+13
1.31433e+14
3.01888e+14
5.40939e+14
8.48432e+14
1.22956e+15
1.69267e+15
2.25043e+15
2.92089e+15
3.72786e+15
4.70432e+15
5.89262e+15
7.35212e+15
9.16115e+15
1.14513e+16
1.44046e+16
1.70595e+16
1.89186e+16
2.08566e+16
2.313e+16
2.57779e+16
2.88042e+16
3.22033e+16
3.59818e+16
4.01418e+16
4.46854e+16
4.96036e+16
5.48994e+16
6.06045e+16
6.68046e+16
7.36222e+16
8.11949e+16
8.96799e+16
9.93168e+16
1.10674e+17
1.25881e+17
1.45859e+17
1.69561e+17
1.99363e+17
2.35483e+17
2.77995e+17
3.25656e+17
3.74714e+17
4.1798e+17
4.50825e+17
4.84794e+17
5.27227e+17
5.81063e+17
6.50216e+17
7.35605e+17
8.38889e+17
9.59899e+17
1.09646e+18
1.24714e+18
1.41001e+18
1.58235e+18
1.75996e+18
1.93666e+18
2.10408e+18
2.25175e+18
2.36304e+18
2.41904e+18
2.40048e+18
2.28654e+18
2.0479e+18
1.60227e+18
4.91923e+17
-5.26644e+17
-1.33937e+18
-2.36743e+18
-3.76883e+18
-4.69617e+18
-7.48706e+18
-1.09647e+19
-1.53735e+19
-2.05497e+19
-2.58883e+19
-3.04887e+19
-3.3645e+19
4.11507e+13
1.51867e+14
3.45935e+14
6.17351e+14
9.66159e+14
1.39832e+15
1.92329e+15
2.55545e+15
3.31518e+15
4.22955e+15
5.33586e+15
6.68225e+15
8.33591e+15
1.03866e+16
1.29859e+16
1.63074e+16
1.922e+16
2.13815e+16
2.36376e+16
2.62523e+16
2.92748e+16
3.27161e+16
3.65757e+16
4.08638e+16
4.55852e+16
5.07413e+16
5.6322e+16
6.23288e+16
6.87989e+16
7.58306e+16
8.35671e+16
9.21684e+16
1.01817e+17
1.12779e+17
1.25667e+17
1.42677e+17
1.65072e+17
1.91902e+17
2.25564e+17
2.66348e+17
3.14392e+17
3.68403e+17
4.24289e+17
4.74151e+17
5.12336e+17
5.50202e+17
5.97679e+17
6.58517e+17
7.36773e+17
8.33402e+17
9.50453e+17
1.08782e+18
1.24289e+18
1.41415e+18
1.59945e+18
1.79581e+18
1.99854e+18
2.20081e+18
2.3932e+18
2.56455e+18
2.69625e+18
2.76616e+18
2.75175e+18
2.62778e+18
2.3583e+18
1.84948e+18
6.25162e+17
-5.51757e+17
-1.47977e+18
-2.67292e+18
-4.15563e+18
-5.1307e+18
-8.31372e+18
-1.22475e+19
-1.72251e+19
-2.30771e+19
-2.91318e+19
-3.43707e+19
-3.79784e+19
4.71495e+13
1.72987e+14
3.90911e+14
6.94796e+14
1.08495e+15
1.56813e+15
2.15491e+15
2.86138e+15
3.71028e+15
4.73194e+15
5.96797e+15
7.4724e+15
9.32042e+15
1.16134e+16
1.45241e+16
1.81919e+16
2.13487e+16
2.38221e+16
2.64089e+16
2.93738e+16
3.27764e+16
3.66357e+16
4.0958e+16
4.57579e+16
5.10428e+16
5.68139e+16
6.30592e+16
6.97788e+16
7.70151e+16
8.48801e+16
9.35389e+16
1.03175e+17
1.13994e+17
1.26291e+17
1.40722e+17
1.595e+17
1.8422e+17
2.14163e+17
2.51646e+17
2.97046e+17
3.50581e+17
4.10928e+17
4.7371e+17
5.30382e+17
5.74183e+17
6.15926e+17
6.68154e+17
7.35885e+17
8.2323e+17
9.31062e+17
1.0619e+18
1.21574e+18
1.38948e+18
1.58153e+18
1.78956e+18
2.01036e+18
2.23878e+18
2.46741e+18
2.68582e+18
2.88215e+18
3.03588e+18
3.12166e+18
3.11346e+18
2.98123e+18
2.68202e+18
2.1113e+18
7.83317e+17
-5.60009e+17
-1.61039e+18
-2.97939e+18
-4.49011e+18
-5.52921e+18
-9.12979e+18
-1.35351e+19
-1.91034e+19
-2.56625e+19
-3.2472e+19
-3.83868e+19
-4.25181e+19
5.33756e+13
1.9478e+14
4.36807e+14
7.73267e+14
1.20479e+15
1.73897e+15
2.38748e+15
3.16817e+15
4.1061e+15
5.2349e+15
6.60056e+15
8.26301e+15
1.03058e+16
1.28424e+16
1.60639e+16
2.00514e+16
2.34455e+16
2.62398e+16
2.91681e+16
3.2491e+16
3.62785e+16
4.05589e+16
4.53461e+16
5.06601e+16
5.6511e+16
6.28996e+16
6.98119e+16
7.72461e+16
8.52501e+16
9.39505e+16
1.03535e+17
1.14211e+17
1.26208e+17
1.39849e+17
1.55835e+17
1.76353e+17
2.03303e+17
2.36334e+17
2.77588e+17
3.27555e+17
3.86541e+17
4.53212e+17
5.22952e+17
5.86642e+17
6.36342e+17
6.81992e+17
7.38652e+17
8.13117e+17
9.0953e+17
1.02853e+18
1.17317e+18
1.34362e+18
1.53621e+18
1.74929e+18
1.98038e+18
2.22608e+18
2.48085e+18
2.73668e+18
2.98228e+18
3.20499e+18
3.38246e+18
3.48625e+18
3.48648e+18
3.34807e+18
3.0209e+18
2.39085e+18
9.70808e+17
-5.46468e+17
-1.72424e+18
-3.27536e+18
-4.77334e+18
-5.90601e+18
-9.93517e+18
-1.48253e+19
-2.10085e+19
-2.83102e+19
-3.59192e+19
-4.25586e+19
-4.72331e+19
5.9826e+13
2.17237e+14
4.83615e+14
8.52752e+14
1.32566e+15
1.91078e+15
2.62094e+15
3.47572e+15
4.50254e+15
5.73834e+15
7.23352e+15
9.05403e+15
1.12923e+16
1.40745e+16
1.76069e+16
2.18775e+16
2.55097e+16
2.86335e+16
3.19123e+16
3.56002e+16
3.9777e+16
4.44813e+16
4.97359e+16
5.55663e+16
6.1986e+16
6.8995e+16
7.65768e+16
8.47278e+16
9.35014e+16
1.0304e+17
1.13554e+17
1.25275e+17
1.38454e+17
1.53447e+17
1.71001e+17
1.93246e+17
2.22331e+17
2.58409e+17
3.03379e+17
3.57858e+17
4.22248e+17
4.95226e+17
5.71982e+17
6.42885e+17
6.98774e+17
7.48437e+17
8.0921e+17
8.90172e+17
9.95618e+17
1.12576e+18
1.28423e+18
1.47143e+18
1.68308e+18
1.91746e+18
2.17197e+18
2.4431e+18
2.72491e+18
3.0089e+18
3.28293e+18
3.53349e+18
3.73657e+18
3.86068e+18
3.87182e+18
3.72962e+18
3.37673e+18
2.69109e+18
1.18853e+18
-5.10974e+17
-1.82489e+18
-3.55417e+18
-4.94711e+18
-6.2782e+18
-1.0733e+19
-1.61173e+19
-2.29408e+19
-3.10244e+19
-3.94813e+19
-4.68904e+19
-5.2076e+19
6.64957e+13
2.40341e+14
5.3132e+14
9.33237e+14
1.44753e+15
2.08354e+15
2.85524e+15
3.78396e+15
4.8995e+15
6.24214e+15
7.86678e+15
9.8456e+15
1.22801e+16
1.53104e+16
1.91498e+16
2.36657e+16
2.75411e+16
3.10024e+16
3.46391e+16
3.86975e+16
4.32675e+16
4.83984e+16
5.41229e+16
6.04723e+16
6.74637e+16
7.5096e+16
8.33502e+16
9.22203e+16
1.01766e+17
1.12145e+17
1.23594e+17
1.36364e+17
1.50728e+17
1.6708e+17
1.86212e+17
2.10178e+17
2.41314e+17
2.8038e+17
3.29002e+17
3.87933e+17
4.57682e+17
5.36949e+17
6.20775e+17
6.99068e+17
7.61429e+17
8.15253e+17
8.79846e+17
9.67018e+17
1.08143e+18
1.22271e+18
1.39501e+18
1.59913e+18
1.83006e+18
2.08602e+18
2.36436e+18
2.66147e+18
2.97109e+18
3.28424e+18
3.58804e+18
3.86802e+18
4.09868e+18
4.24561e+18
4.27036e+18
4.12707e+18
3.75107e+18
3.01321e+18
1.43865e+18
-4.4801e+17
-1.90434e+18
-3.7502e+18
-5.1046e+18
-6.82343e+18
-1.15262e+19
-1.74085e+19
-2.48999e+19
-3.38088e+19
-4.31684e+19
-5.13989e+19
-5.71775e+19
7.33821e+13
2.64083e+14
5.79909e+14
1.0147e+15
1.57038e+15
2.25719e+15
3.09031e+15
4.09281e+15
5.29688e+15
6.74619e+15
8.50026e+15
1.06377e+16
1.32694e+16
1.65519e+16
2.06865e+16
2.54131e+16
2.95404e+16
3.33459e+16
3.73462e+16
4.17796e+16
4.6746e+16
5.23061e+16
5.85029e+16
6.5374e+16
7.294e+16
8.11988e+16
9.01283e+16
9.97202e+16
1.1004e+17
1.21264e+17
1.33652e+17
1.47475e+17
1.63028e+17
1.80745e+17
2.01459e+17
2.27148e+17
2.60269e+17
3.02245e+17
3.54445e+17
4.17763e+17
4.92817e+17
5.78348e+17
6.6929e+17
7.55135e+17
8.24241e+17
8.82416e+17
9.50596e+17
1.04362e+18
1.16688e+18
1.31932e+18
1.50547e+18
1.72666e+18
1.97712e+18
2.25498e+18
2.55758e+18
2.88127e+18
3.21953e+18
3.56293e+18
3.89791e+18
4.20892e+18
4.46927e+18
4.64173e+18
4.68303e+18
4.54163e+18
4.14541e+18
3.35844e+18
1.72027e+18
-3.56389e+17
-1.96691e+18
-3.90805e+18
-5.30735e+18
-7.48411e+18
-1.23134e+19
-1.86971e+19
-2.68857e+19
-3.66683e+19
-4.69912e+19
-5.61034e+19
-6.24876e+19
8.04804e+13
2.88447e+14
6.29366e+14
1.09713e+15
1.69416e+15
2.4317e+15
3.32609e+15
4.40219e+15
5.6946e+15
7.25041e+15
9.13394e+15
1.14304e+16
1.42607e+16
1.77972e+16
2.22109e+16
2.71201e+16
3.15097e+16
3.56639e+16
4.00314e+16
4.48429e+16
5.02084e+16
5.62002e+16
6.28716e+16
7.02672e+16
7.84109e+16
8.72994e+16
9.69074e+16
1.07224e+17
1.18323e+17
1.30395e+17
1.43726e+17
1.58604e+17
1.7535e+17
1.94434e+17
2.16731e+17
2.44147e+17
2.79202e+17
3.23999e+17
3.79694e+17
4.47328e+17
5.27631e+17
6.19401e+17
7.17497e+17
8.11038e+17
8.87152e+17
9.49885e+17
1.02146e+18
1.11993e+18
1.2519e+18
1.41552e+18
1.61555e+18
1.85398e+18
2.12422e+18
2.42431e+18
2.75163e+18
3.10254e+18
3.47031e+18
3.84512e+18
4.21277e+18
4.55649e+18
4.84876e+18
5.04969e+18
5.11069e+18
4.97448e+18
4.56117e+18
3.72802e+18
2.03406e+18
-2.30329e+17
-2.00573e+18
-4.03493e+18
-5.57228e+18
-8.26928e+18
-1.30888e+19
-1.99792e+19
-2.88978e+19
-3.96076e+19
-5.09635e+19
-6.10293e+19
-6.81353e+19
8.77883e+13
3.13424e+14
6.79673e+14
1.18049e+15
1.81886e+15
2.60702e+15
3.56253e+15
4.71203e+15
6.09255e+15
7.75471e+15
9.7678e+15
1.22239e+16
1.5255e+16
1.90452e+16
2.37118e+16
2.87902e+16
3.34515e+16
3.79564e+16
4.26932e+16
4.78849e+16
5.36515e+16
6.00769e+16
6.72252e+16
7.51478e+16
8.38723e+16
9.33939e+16
1.03684e+17
1.14729e+17
1.2661e+17
1.39537e+17
1.53817e+17
1.69751e+17
1.87692e+17
2.08144e+17
2.32019e+17
2.61166e+17
2.98131e+17
3.45642e+17
4.04745e+17
4.76613e+17
5.62099e+17
6.60073e+17
7.65353e+17
8.66719e+17
9.50085e+17
1.01761e+18
1.09248e+18
1.19596e+18
1.33639e+18
1.51123e+18
1.72519e+18
1.98102e+18
2.27133e+18
2.59401e+18
2.94653e+18
3.32535e+18
3.72356e+18
4.13102e+18
4.5329e+18
4.91102e+18
5.23757e+18
5.47017e+18
5.55431e+18
5.42687e+18
4.99988e+18
4.12343e+18
2.37879e+18
-6.8392e+16
-2.02398e+18
-4.16084e+18
-5.93803e+18
-9.06838e+18
-1.38428e+19
-2.12517e+19
-3.09357e+19
-4.26321e+19
-5.50963e+19
-6.61969e+19
-7.40785e+19
9.53016e+13
3.38999e+14
7.30815e+14
1.26477e+15
1.94444e+15
2.7831e+15
3.79956e+15
5.02224e+15
6.49068e+15
8.25908e+15
1.04019e+16
1.30184e+16
1.62526e+16
2.02917e+16
2.51816e+16
3.04282e+16
3.53685e+16
4.02237e+16
4.53296e+16
5.09026e+16
5.70716e+16
6.39322e+16
7.15595e+16
8.00119e+16
8.93204e+16
9.94785e+16
1.10454e+17
1.22232e+17
1.34901e+17
1.48689e+17
1.63922e+17
1.80916e+17
2.00051e+17
2.21867e+17
2.4731e+17
2.78189e+17
3.17053e+17
3.67171e+17
4.29584e+17
5.05601e+17
5.96198e+17
7.0034e+17
8.12828e+17
9.22132e+17
1.01298e+18
1.08551e+18
1.16361e+18
1.27171e+18
1.42029e+18
1.60637e+18
1.83432e+18
2.10774e+18
2.41841e+18
2.76403e+18
3.14228e+18
3.54972e+18
3.97935e+18
4.42074e+18
4.85851e+18
5.2729e+18
5.63623e+18
5.90379e+18
6.01475e+18
5.90002e+18
5.4631e+18
4.54639e+18
2.75466e+18
1.35073e+17
-2.01411e+18
-4.27925e+18
-6.35241e+18
-9.87473e+18
-1.45661e+19
-2.25085e+19
-3.29976e+19
-4.57454e+19
-5.94027e+19
-7.16191e+19
-8.02657e+19
1.03019e+14
3.65164e+14
7.82773e+14
1.34994e+15
2.07086e+15
2.95989e+15
4.0371e+15
5.33275e+15
6.88888e+15
8.76345e+15
1.10361e+16
1.38143e+16
1.72547e+16
2.15305e+16
2.66164e+16
3.20384e+16
3.72626e+16
4.24659e+16
4.79399e+16
5.38938e+16
6.04658e+16
6.77628e+16
7.5871e+16
8.48556e+16
9.47512e+16
1.05549e+17
1.17215e+17
1.2973e+17
1.43193e+17
1.57849e+17
1.74041e+17
1.92098e+17
2.12427e+17
2.356e+17
2.62594e+17
2.952e+17
3.35968e+17
3.88585e+17
4.54208e+17
5.34275e+17
6.29902e+17
7.40159e+17
8.59867e+17
9.77208e+17
1.07574e+18
1.15349e+18
1.23483e+18
1.34718e+18
1.50353e+18
1.70082e+18
1.94291e+18
2.23408e+18
2.56543e+18
2.93436e+18
3.33886e+18
3.77569e+18
4.23776e+18
4.71445e+18
5.18985e+18
5.64273e+18
6.04545e+18
6.35117e+18
6.49291e+18
6.39518e+18
5.95249e+18
4.99872e+18
3.16108e+18
3.81946e+17
-1.9767e+18
-4.39543e+18
-6.81469e+18
-1.06254e+19
-1.52494e+19
-2.37451e+19
-3.50821e+19
-4.89531e+19
-6.38948e+19
-7.73156e+19
-8.68594e+19
1.10936e+14
3.91906e+14
8.35531e+14
1.43598e+15
2.19808e+15
3.13735e+15
4.27512e+15
5.64348e+15
7.28712e+15
9.26783e+15
1.16708e+16
1.46123e+16
1.82592e+16
2.27554e+16
2.80179e+16
3.36246e+16
3.91351e+16
4.46829e+16
5.05223e+16
5.68561e+16
6.38311e+16
7.15654e+16
8.01561e+16
8.96755e+16
1.00161e+17
1.11603e+17
1.23962e+17
1.37221e+17
1.51486e+17
1.67017e+17
1.84173e+17
2.03297e+17
2.24817e+17
2.49335e+17
2.77861e+17
3.12178e+17
3.54856e+17
4.09878e+17
4.78603e+17
5.62618e+17
6.63181e+17
7.79497e+17
9.06427e+17
1.03189e+18
1.13832e+18
1.22146e+18
1.30602e+18
1.42234e+18
1.58604e+18
1.7945e+18
2.05086e+18
2.35998e+18
2.71233e+18
3.10496e+18
3.53624e+18
4.00324e+18
4.49883e+18
5.01224e+18
5.52709e+18
6.02093e+18
6.46576e+18
6.81289e+18
6.98966e+18
6.91367e+18
6.46991e+18
5.48303e+18
3.59915e+18
6.78184e+17
-1.90253e+18
-4.49801e+18
-7.28927e+18
-1.13224e+19
-1.58931e+19
-2.4955e+19
-3.7187e+19
-5.22599e+19
-6.85899e+19
-8.33282e+19
-9.38465e+19
1.19052e+14
4.1922e+14
8.89072e+14
1.52285e+15
2.32608e+15
3.31542e+15
4.51352e+15
5.95436e+15
7.68533e+15
9.77216e+15
1.23061e+16
1.54136e+16
1.92623e+16
2.39588e+16
2.93899e+16
3.51902e+16
4.0987e+16
4.68748e+16
5.3076e+16
5.97877e+16
6.71647e+16
7.53366e+16
8.44113e+16
9.44678e+16
1.05547e+17
1.17637e+17
1.30694e+17
1.44702e+17
1.59779e+17
1.76197e+17
1.94322e+17
2.14512e+17
2.37219e+17
2.63069e+17
2.93104e+17
3.2911e+17
3.73701e+17
4.31045e+17
5.02764e+17
5.90612e+17
6.96007e+17
8.18306e+17
9.52443e+17
1.08611e+18
1.20062e+18
1.2893e+18
1.37706e+18
1.49715e+18
1.66783e+18
1.88729e+18
2.1581e+18
2.48539e+18
2.85909e+18
3.27579e+18
3.73442e+18
4.2324e+18
4.76263e+18
5.31424e+18
5.87048e+18
6.4078e+18
6.89755e+18
7.28951e+18
7.50593e+18
7.45684e+18
7.01735e+18
6.00193e+18
4.07065e+18
1.02512e+18
-1.79107e+18
-4.58802e+18
-7.77113e+18
-1.19229e+19
-1.64982e+19
-2.6136e+19
-3.93111e+19
-5.56719e+19
-7.34996e+19
-8.96612e+19
-1.01142e+20
1.27364e+14
4.47095e+14
9.43381e+14
1.61054e+15
2.4548e+15
3.49405e+15
4.75228e+15
6.26537e+15
8.08348e+15
1.02765e+16
1.29425e+16
1.62173e+16
2.02596e+16
2.51375e+16
3.07359e+16
3.67372e+16
4.28186e+16
4.9041e+16
5.55996e+16
6.26861e+16
7.04639e+16
7.90735e+16
8.86334e+16
9.92295e+16
1.10906e+17
1.23647e+17
1.37408e+17
1.52174e+17
1.68073e+17
1.8539e+17
2.04491e+17
2.25746e+17
2.4963e+17
2.76795e+17
3.08313e+17
3.45982e+17
3.92476e+17
4.5207e+17
5.26674e+17
6.18234e+17
7.28343e+17
8.56538e+17
9.97857e+17
1.13981e+18
1.2626e+18
1.35694e+18
1.4478e+18
1.57152e+18
1.74884e+18
1.9791e+18
2.26454e+18
2.61024e+18
3.00565e+18
3.44681e+18
3.93336e+18
4.46314e+18
5.02917e+18
5.62053e+18
6.22014e+18
6.80355e+18
7.34107e+18
7.78153e+18
8.04259e+18
8.0261e+18
7.59697e+18
6.55904e+18
4.58014e+18
1.42852e+18
-1.63348e+18
-4.6499e+18
-8.22355e+18
-1.24329e+19
-1.70981e+19
-2.72845e+19
-4.14511e+19
-5.91918e+19
-7.86393e+19
-9.63459e+19
-1.08942e+20
1.35873e+14
4.75528e+14
9.9844e+14
1.69901e+15
2.58422e+15
3.6732e+15
4.99134e+15
6.57643e+15
8.48151e+15
1.07811e+16
1.35808e+16
1.70207e+16
2.12445e+16
2.62921e+16
3.2059e+16
3.82667e+16
4.463e+16
5.11812e+16
5.80917e+16
6.55496e+16
7.3726e+16
8.27729e+16
9.28192e+16
1.03957e+17
1.16234e+17
1.29631e+17
1.44102e+17
1.59634e+17
1.76368e+17
1.94598e+17
2.14684e+17
2.37001e+17
2.62049e+17
2.90506e+17
3.23482e+17
3.62788e+17
4.11165e+17
4.72941e+17
5.50323e+17
6.45465e+17
7.60155e+17
8.94135e+17
1.04258e+18
1.19286e+18
1.32417e+18
1.42431e+18
1.51808e+18
1.64523e+18
1.82901e+18
2.06984e+18
2.37008e+18
2.73451e+18
3.15195e+18
3.61799e+18
4.13303e+18
4.69547e+18
5.29849e+18
5.93119e+18
6.57625e+18
7.20845e+18
7.7966e+18
8.28936e+18
8.60047e+18
8.62278e+18
8.21089e+18
7.15733e+18
5.13379e+18
1.88822e+18
-1.42964e+18
-4.68132e+18
-8.62726e+18
-1.28053e+19
-1.77303e+19
-2.84002e+19
-4.3605e+19
-6.28258e+19
-8.40256e+19
-1.0341e+20
-1.17163e+20
1.44577e+14
5.0451e+14
1.05423e+15
1.78823e+15
2.71428e+15
3.85282e+15
5.23064e+15
6.88752e+15
8.87946e+15
1.12863e+16
1.42207e+16
1.78214e+16
2.2213e+16
2.7424e+16
3.33612e+16
3.97791e+16
4.64207e+16
5.32944e+16
6.05511e+16
6.83759e+16
7.69487e+16
8.64323e+16
9.6966e+16
1.08649e+17
1.21529e+17
1.35587e+17
1.50775e+17
1.67084e+17
1.84667e+17
2.03823e+17
2.24901e+17
2.48277e+17
2.74471e+17
3.04196e+17
3.38599e+17
3.79513e+17
4.29746e+17
4.93641e+17
5.73691e+17
6.72278e+17
7.914e+17
9.31035e+17
1.08654e+18
1.24519e+18
1.38525e+18
1.4914e+18
1.58777e+18
1.71806e+18
1.90824e+18
2.15938e+18
2.4746e+18
2.85811e+18
3.29792e+18
3.78926e+18
4.33338e+18
4.92934e+18
5.57055e+18
6.24624e+18
6.9389e+18
7.62268e+18
8.26431e+18
8.81338e+18
9.18045e+18
9.24833e+18
8.86146e+18
7.8006e+18
5.737e+18
2.40755e+18
-1.17265e+18
-4.66669e+18
-8.90831e+18
-1.31313e+19
-1.85691e+19
-2.94819e+19
-4.57685e+19
-6.65774e+19
-8.96801e+19
-1.10906e+20
-1.26038e+20
1.53476e+14
5.34044e+14
1.11075e+15
1.87818e+15
2.84496e+15
4.03286e+15
5.47014e+15
7.19857e+15
9.27759e+15
1.17926e+16
1.48602e+16
1.8615e+16
2.31642e+16
2.85346e+16
3.46438e+16
4.1274e+16
4.81901e+16
5.53798e+16
6.29762e+16
7.11631e+16
8.01293e+16
9.00487e+16
1.01071e+17
1.133e+17
1.26788e+17
1.41513e+17
1.57427e+17
1.74526e+17
1.92974e+17
2.13071e+17
2.35147e+17
2.59574e+17
2.86895e+17
3.17858e+17
3.53654e+17
3.9615e+17
4.48207e+17
5.14159e+17
5.9677e+17
6.98656e+17
8.22043e+17
9.67174e+17
1.12962e+18
1.29664e+18
1.4457e+18
1.55816e+18
1.65682e+18
1.78979e+18
1.98636e+18
2.24769e+18
2.57796e+18
2.981e+18
3.44349e+18
3.96058e+18
4.53437e+18
5.16475e+18
5.84538e+18
6.56574e+18
7.30823e+18
8.04649e+18
8.74497e+18
9.35453e+18
9.78337e+18
9.90414e+18
9.55092e+18
8.49184e+18
6.39445e+18
2.98438e+18
-8.60157e+17
-4.60644e+18
-9.0901e+18
-1.34865e+19
-1.95578e+19
-3.05216e+19
-4.79398e+19
-7.04537e+19
-9.56182e+19
-1.1886e+20
-1.35512e+20
1.62571e+14
5.64121e+14
1.16797e+15
1.96882e+15
2.97622e+15
4.21329e+15
5.70979e+15
7.50963e+15
9.67608e+15
1.22997e+16
1.54982e+16
1.93984e+16
2.40983e+16
2.96247e+16
3.59071e+16
4.27508e+16
4.99374e+16
5.74362e+16
6.53654e+16
7.39091e+16
8.32655e+16
9.36197e+16
1.05131e+17
1.1791e+17
1.3201e+17
1.47408e+17