/*--------------------------------*- C++ -*----------------------------------*\
| =========                 |                                                 |
| \\      /  F ield         | OpenFOAM: The Open Source CFD Toolbox           |
|  \\    /   O peration     | Version:  4.1                                   |
|   \\  /    A nd           | Web:      www.OpenFOAM.org                      |
|    \\/     M anipulation  |                                                 |
\*---------------------------------------------------------------------------*/
FoamFile
{
    version     2.0;
    format      ascii;
    class       surfaceScalarField;
    location    "16";
    object      phi;
}
// * * * * * * * * * * * * * * * * * * * * * * * * * * * * * * * * * * * * * //

dimensions      [0 3 -1 0 0 0 0];

internalField   nonuniform List<scalar> 
13220
(
-906.844
2206.74
-1504.66
1898.02
-1985.12
1780.36
-2354.93
1669.71
-2630.27
1575.53
-2818.7
1488.33
-2923.5
1404.7
-2944.47
1321.17
-2880.29
1235.72
-2727.84
1147.45
-2482.46
1054.82
-2127.46
944.893
-1626.9
799.339
-956.031
629.334
343.869
423.564
1783.18
466.653
1854.92
450.463
1796.54
411.02
1709.16
378.576
1607.97
352.457
1514.45
333.197
1423.96
321.493
1332.87
314.062
1243.15
304.746
1156.77
285.405
1074.16
242.295
988.001
165.805
875.826
88.5136
706.623
432.382
181.148
1602.03
20.9999
2015.07
-139.993
1957.54
-258.587
1827.75
-362.836
1712.22
-459.87
1611.48
-546.951
1511.04
-624.476
1410.4
-690.625
1309.29
-742.952
1209.09
-777.163
1108.37
-774.543
985.376
-684.682
785.959
-432.729
454.662
-0.346719
215.916
1386.11
135.985
2095
1.96045
2091.56
-93.434
1923.14
-169.546
1788.33
-229.574
1671.51
-269.45
1550.91
-289.383
1430.33
-291.366
1311.27
-275.883
1193.6
-241.71
1074.19
-184.08
927.745
-101.142
703.018
-9.77669
363.293
-10.1235
282.553
1103.56
349.108
2028.44
326.181
2114.49
305.69
1943.63
296.259
1797.76
292.719
1675.05
292.778
1550.85
296.746
1426.36
303.413
1304.61
310.844
1186.17
318.422
1066.62
320.398
925.765
297.088
726.325
215.903
444.475
205.779
248.948
854.611
359.393
1918
370.362
2103.52
351.06
1962.93
335.939
1812.88
324.965
1686.02
313.58
1562.24
299.505
1440.44
283.636
1320.48
265.97
1203.84
245.105
1087.48
219.162
951.714
177.847
767.646
109.152
513.175
314.932
131.34
723.272
214.629
1834.71
239.392
2078.76
217.015
1985.31
193.619
1836.28
173.893
1705.75
155.292
1580.84
137.171
1458.56
119.248
1338.4
102.905
1220.18
88.2029
1102.19
75.4493
964.466
61.4071
781.687
44.6162
529.965
359.548
36.3842
686.89
86.5872
1784.51
126.632
2038.71
116.471
1995.47
101.138
1851.62
89.2939
1717.6
77.5077
1592.63
66.6635
1469.4
57.1
1347.97
47.9192
1229.37
40.0536
1110.05
36.2917
968.235
32.9199
785.066
28.5959
534.296
388.144
13.1817
673.711
52.2532
1745.44
96.7534
1994.21
96.838
1995.39
87.3693
1861.09
79.4469
1725.52
72.1821
1599.9
64.3315
1477.26
56.9946
1355.31
50.025
1236.34
42.7505
1117.33
40.0211
970.965
38.1694
786.919
29.2769
543.19
417.421
30.7437
642.971
74.9207
1701.26
114.057
1955.08
115.258
1994.19
105.383
1870.97
94.5824
1736.32
84.8484
1609.63
75.8102
1486.3
66.2928
1364.83
57.3564
1245.28
49.0419
1125.65
45.0135
974.997
42.0005
789.936
29.7966
555.398
447.218
46.8885
596.087
94.8124
1653.34
128.196
1921.7
129.009
1993.38
117.931
1882.05
105.877
1748.38
93.633
1621.88
82.219
1497.71
71.2776
1375.77
60.2028
1256.35
50.4492
1135.4
46.5791
978.873
42.8638
793.657
28.0528
570.214
475.27
32.9492
563.141
66.792
1619.5
88.1744
1900.32
83.0958
1998.46
67.4897
1897.65
52.041
1763.82
39.8557
1634.07
28.7918
1508.77
19.6651
1384.9
12.7781
1263.24
7.15282
1141.03
10.0261
975.994
16.1331
787.546
15.5313
570.812
490.802
5.37788
557.764
40.8736
1584
64.6203
1876.57
74.7515
1988.33
73.0132
1899.39
62.9574
1773.88
49.1736
1647.85
35.5883
1522.36
21.3947
1399.09
9.41679
1275.22
4.9924
1145.45
10.1967
970.799
16.7873
780.961
1.15841
586.446
491.96
-163.443
721.206
-271.574
1692.13
-339.677
1944.68
-401.076
2049.72
-439.41
1937.72
-459.728
1794.19
-463.564
1651.68
-457.783
1516.57
-441.333
1382.63
-415.926
1249.8
-356.042
1085.56
-271.171
885.91
-173.2
682.969
-92.8247
506.049
399.135
-209.914
5.41639
86.4031
128.707
49.2593
-65.4358
-189.787
-300.42
-381.585
-403.506
-402.398
-354.44
-285.578
-187.788
-0.00120294
383.903
-383.906
383.901
383.899
383.897
705.252
-321.357
705.251
705.249
705.248
989.425
-284.179
989.423
989.422
1238.92
-249.494
1238.91
1238.91
1238.91
1449.83
-210.919
1449.83
1449.83
1623.15
-173.328
1623.15
1623.15
1623.15
1755.6
-132.456
1755.6
1755.6
1755.6
1845.57
-89.9684
1845.57
1845.57
1892.46
-46.894
1892.46
1892.46
1892.46
1896.39
-3.93711
1896.39
1896.39
1856.72
39.6726
1856.71
1856.71
1856.71
1776.35
80.3643
1776.35
1776.34
1776.34
1657.52
118.818
1657.52
1657.52
1500.98
156.542
1500.98
1500.98
1500.97
1310.19
190.788
1310.18
1310.18
1310.18
1086.72
223.462
1086.71
1086.71
832.297
254.414
832.297
832.293
832.293
554.018
278.272
554.017
554.013
262.945
291.068
262.94
262.939
262.934
-107.542
370.476
-107.548
-107.548
-107.555
-735.765
628.213
-735.771
-735.764
-1604.87
869.096
-1604.86
-1604.86
-1574.65
-1532.57
-1497.31
-2782.9
1320.75
-2726.92
-2663.6
-2590.15
-2515.1
-2439.68
-2360.7
-2265.79
-2158.88
-3924.27
1872.46
-3798.2
-3676.68
-3554.47
-3405.01
-3253.72
-3098.8
-2935.58
-2771.18
-5070.1
2481.16
-4865.26
-4660.82
-4455.53
-4249.34
-4034.34
-3804.11
-3570.21
-3327.42
-3081.72
-5841.59
3003.96
-5570.19
-5297.18
-5022.37
-4747.23
-4472.08
-4182.45
-3877.31
-3566.67
-6593.17
3329.7
-6285.26
-5969.82
-5641.05
-5308.91
-4975.61
-4642.07
-4301.14
-3935.89
-6995.5
3415.76
-6639.25
-6282.97
-5928.26
-5557.88
-5179.26
-4800.42
-4419.89
-4037.7
-6699.27
3039.95
-6321.69
-5941.87
-5565.97
-5194.31
-4825.91
-4461.44
-4099.55
-3746.06
-3397.95
-4434
1371.39
-4138.04
-3847.99
-3568.02
-3292.97
-3021.9
-2785.17
-2616.98
-2443.86
-1720.24
-535.461
-1560.13
-1402.23
-1402.24
-974.497
-427.738
-614.609
-359.89
-614.611
-425.032
-189.581
-425.034
-289.957
-135.08
-208.519
-81.4413
-208.52
-131.058
-77.4663
-93.6139
-37.4432
-93.6165
-86.3104
-7.3044
-86.3131
-122.793
36.4827
-211.473
88.678
-211.471
-350.021
138.548
-350.017
-525.769
175.751
-727.958
202.192
-727.958
-958.388
230.433
-1194.48
236.088
-1194.47
-1445.4
250.923
-1445.39
-1713.28
267.888
-1959.22
245.942
-1959.22
-2210.8
251.583
-2210.8
-2466.7
255.897
-2681.37
214.676
-2681.37
-2908.29
226.924
-3086.02
177.73
-3086.02
-3256.16
170.136
-3256.15
-3425.91
169.761
-3540.91
114.998
-3540.91
-3646.84
105.931
-3646.84
-3747.78
100.941
-3797.77
49.9885
-3797.77
-3854.75
56.9874
-3862.8
8.04349
-3862.8
-3858
-4.80179
-3858
-3850.46
-7.531
-3798.93
-51.5314
-3798.93
-3730.64
-68.2902
-3730.64
-3647.17
-83.4749
-3525.62
-121.543
-3525.62
-3383.43
-142.194
-3205.36
-178.065
-3205.36
-2990.53
-214.833
-2990.53
-2739.5
-251.034
-2458.99
-280.508
-2458.99
-2128.84
-330.154
-2128.84
-1745.72
-383.121
-1343.21
-402.502
-1343.22
-865.703
-477.512
-377.065
-488.639
-377.064
190.965
-568.03
190.965
-576.853
-514.015
-20.9718
-473.707
-67.8436
-487.606
-82.9865
-494.055
-75.6386
-498.181
-77.4024
-500.064
-77.2793
-500.995
-78.0229
-501.609
-78.2455
-502.22
-77.9024
-502.967
-76.7983
-503.863
-74.9426
-504.866
-72.425
-505.904
-69.3336
-506.975
-65.3114
-508.079
-60.3308
-509.268
-54.0961
-510.577
-46.578
-512.022
-37.8498
-513.562
-27.8029
-515.192
-16.2137
-517.158
-3.03448
-519.465
13.6346
-522.812
31.9135
-527.306
53.3408
-533.072
79.1404
-540.283
110.898
-549.215
148.296
-560.006
191.661
-572.737
243.688
-587.454
305.126
-604.216
377.692
-623.222
463.051
-644.908
562.486
-670.233
678.393
-701.022
814.026
-740.184
974.546
-791.908
1168.5
-861.947
1409.51
-957.71
1717.14
-1086.96
2114.63
-1254.39
2620.75
-1457.75
3236.51
-1685.83
3932.75
-1917.84
4649.23
-2122.27
5310.2
-2260.46
5861.72
-2310.48
6321.72
-2309.32
6781.16
-2362.25
7308.53
-2567.85
7921.12
-2907.13
8717.44
-3237.85
9769.68
-3414.87
10798.6
-3374.58
11350.1
-3115.96
11165.9
-2664.03
10225.4
-2067.32
8633.67
-1404.73
6569.04
-784.955
4240.46
-220.296
1581.7
-271.345
-1732.52
-328.533
-872.064
-350.518
-762.246
-344.73
-724.953
-313.35
-698.587
-264.231
-658.025
-203.966
-592.432
-128.851
-380.063
-36.1572
49.7329
110.701
921.6
92.036
649.729
118.812
763.061
132.545
737.561
158.147
866.718
129.861
921.512
23.1765
920.243
156.354
485.309
470.55
3950.46
5529.55
-501.677
-35.1209
-502.514
-67.0064
-513.036
-72.4638
-514.236
-74.4385
-515.876
-75.763
-516.686
-76.469
-517.573
-77.135
-518.52
-77.2988
-519.536
-76.8856
-520.543
-75.7916
-521.502
-73.983
-522.422
-71.5045
-523.285
-68.4702
-524.174
-64.4215
-525.089
-59.4155
-526.064
-53.1206
-527.165
-45.477
-528.484
-36.5295
-530.068
-26.2185
-531.988
-14.2932
-534.419
-0.602862
-537.187
16.4043
-540.832
35.5596
-545.65
58.1591
-551.804
85.2959
-559.122
118.218
-567.794
156.969
-578.289
202.158
-590.65
256.05
-605.066
319.544
-621.581
394.209
-640.493
481.965
-662.576
584.571
-689.036
704.854
-721.921
846.913
-764.401
1017.03
-821.03
1225.14
-897.937
1486.42
-1002.29
1821.5
-1140.44
2252.78
-1314.58
2794.89
-1519.69
3441.63
-1742.22
4155.27
-1959.9
4866.91
-2142.91
5493.21
-2262.67
5981.49
-2314.59
6373.64
-2340.44
6807.02
-2422.73
7390.81
-2636.2
8134.59
-2965.22
9046.47
-3276.1
10080.6
-3423.22
10945.7
-3345.21
11272.1
-3049.32
10870
-2570.03
9746.08
-1961.33
8024.97
-1297.46
5905.18
-668.827
3611.83
-119.472
1032.34
-282.53
-1569.46
-362.48
-792.111
-387.557
-737.166
-382.784
-729.724
-353.818
-727.55
-301.52
-710.321
-236.439
-657.512
-156.806
-459.694
-63.2378
-43.8337
86.974
771.392
92.2542
644.453
113.202
742.118
108.815
741.954
121.503
854.034
96.1665
946.853
31.2761
985.137
171.556
345.036
455.402
3666.61
5416.92
-524.297
-37.9217
-528.192
-63.1119
-531.063
-69.5926
-532.593
-72.9083
-534.25
-74.1066
-535.59
-75.1287
-536.944
-75.7821
-538.229
-76.0141
-539.448
-75.6667
-540.561
-74.6792
-541.592
-72.952
-542.581
-70.5163
-543.575
-67.4765
-544.617
-63.38
-545.724
-58.3087
-546.899
-51.9461
-548.21
-44.1667
-549.733
-35.0082
-551.523
-24.4291
-553.67
-12.1472
-556.334
2.06053
-559.387
19.4563
-563.267
39.4384
-568.224
63.1156
-574.379
91.451
-581.593
125.431
-590.106
165.482
-600.346
212.399
-612.376
268.08
-626.498
333.666
-642.866
410.576
-661.987
501.086
-684.877
607.462
-713.074
733.051
-748.905
882.745
-795.859
1063.98
-858.841
1288.12
-944.225
1571.8
-1058.77
1936.04
-1207.38
2401.4
-1389.92
2977.43
-1598.67
3650.38
-1817.16
4373.77
-2020.16
5069.91
-2177.57
5650.61
-2269.59
6073.51
-2310.64
6414.68
-2356.55
6852.94
-2479.95
7514.22
-2725.14
8379.78
-3050.84
9372.16
-3324.39
10354.1
-3419.41
11040.8
-3289.5
11142.2
-2948.9
10529.4
-2438.05
9235.23
-1816.13
7403.05
-1157.39
5246.43
-543.534
2997.97
-89.0877
577.899
-312.581
-1345.97
-389.598
-715.1
-417.434
-709.334
-409.016
-738.145
-384.04
-752.528
-332.454
-761.909
-263.717
-726.251
-179.591
-543.822
-81.8677
-141.56
64.0073
625.512
88.2841
620.177
117.811
712.593
113.417
746.35
114.871
852.581
91.2689
970.456
37.7877
1038.62
151.392
231.434
424.703
3393.3
5352.98
-545.104
-39.6036
-547.969
-60.2465
-550.459
-67.1022
-552.614
-70.7532
-554.43
-72.2907
-556.053
-73.5052
-557.587
-74.2486
-559.049
-74.5514
-560.439
-74.2764
-561.756
-73.3623
-562.984
-71.7236
-564.129
-69.3709
-565.307
-66.2976
-566.495
-62.1916
-567.742
-57.0615
-569.037
-50.6503
-570.453
-42.7505
-572.066
-33.3944
-573.948
-22.5462
-576.171
-9.92372
-578.901
4.79068
-582.087
22.6441
-586.092
43.4442
-591.157
68.1816
-597.333
97.6283
-604.511
132.61
-612.911
173.883
-622.993
222.482
-634.858
279.946
-648.864
347.674
-665.41
427.124
-685.222
520.899
-709.487
631.728
-740.037
763.603
-779.502
922.211
-831.722
1116.2
-901.911
1358.31
-996.441
1666.33
-1121.37
2060.97
-1279.91
2559.94
-1469.58
3167.1
-1679.93
3860.73
-1891.45
4585.29
-2076.27
5254.74
-2205.99
5780.33
-2272.56
6140.08
-2309.38
6451.51
-2381.63
6925.19
-2547.4
7679.99
-2819.89
8652.27
-3134.72
9687
-3363.77
10583.2
-3401.68
11078.7
-3217.32
10957.8
-2831.89
10144
-2291.34
8694.68
-1659.19
6770.91
-1007.63
4594.87
-399.777
2390.12
-46.7464
224.873
-318.097
-1074.62
-397.586
-635.608
-444.486
-662.432
-446.675
-735.953
-425.527
-773.675
-370.902
-816.532
-296.066
-801.085
-206.339
-633.548
-100.973
-246.925
44.2117
480.329
81.052
583.341
117.558
676.092
118.792
745.121
113.307
858.07
89.7298
994.037
43.5748
1084.78
130.785
144.231
388.357
3135.73
5263.83
-566.36
-40.5796
-568.938
-57.6683
-571.548
-64.4926
-573.787
-68.5137
-575.678
-70.4005
-577.392
-71.7916
-579.002
-72.6387
-580.551
-73.0021
-582.049
-72.7794
-583.505
-71.9068
-584.877
-70.3513
-586.171
-68.0775
-587.503
-64.9664
-588.838
-60.8578
-590.217
-55.6829
-591.651
-49.2166
-593.185
-41.2177
-594.894
-31.6861
-596.847
-20.5941
-599.083
-7.68857
-601.786
7.49264
-604.999
25.8561
-609.038
47.4829
-614.089
73.2321
-620.158
103.696
-627.231
139.683
-635.569
182.221
-645.626
232.539
-657.58
291.9
-671.8
361.895
-688.942
444.266
-709.921
541.878
-736.123
657.931
-769.623
797.104
-813.402
965.989
-871.57
1174.37
-949.575
1436.32
-1053.5
1770.26
-1188.46
2195.93
-1355.83
2727.31
-1550.76
3362.03
-1760.02
4069.99
-1961.05
4786.32
-2124.27
5417.95
-2225.76
5881.82
-2272.02
6186.34
-2313.68
6493.17
-2418.26
7029.77
-2624.31
7886.03
-2915.52
8943.49
-3210.23
9981.71
-3389.23
10762.2
-3368.25
11057.7
-3130.14
10719.7
-2702.51
9716.39
-2136.27
8128.43
-1497.88
6132.52
-853.58
3950.57
-221.763
1758.31
13.8941
-10.7812
-320.908
-739.818
-411.268
-545.255
-476.765
-596.941
-493.055
-719.666
-471.278
-795.455
-411.452
-876.361
-332.009
-880.53
-236.854
-728.705
-122.009
-361.772
26.7527
331.563
71.5534
538.54
114.921
632.725
122.615
737.428
113.477
867.208
90.5689
1016.94
53.7769
1121.57
113.735
84.2743
349.579
2899.89
5210.91
-588.479
-40.9583
-590.864
-55.2837
-593.39
-61.9667
-595.637
-66.2658
-597.578
-68.4601
-599.348
-70.0207
-601.006
-70.981
-602.593
-71.4153
-604.119
-71.2527
-605.592
-70.4337
-607
-68.9427
-608.373
-66.7042
-609.771
-63.5681
-611.184
-59.4443
-612.639
-54.2275
-614.172
-47.6834
-615.8
-39.5885
-617.593
-29.8933
-619.616
-18.5697
-621.916
-5.38781
-624.678
10.2553
-627.976
29.1549
-632.06
51.5673
-637.06
78.2337
-643.029
109.666
-650.036
146.691
-658.411
190.597
-668.596
242.725
-680.863
304.168
-695.624
376.657
-713.771
462.414
-736.382
564.491
-765.042
686.592
-802.025
834.088
-850.691
1014.66
-915.38
1239.06
-1001.59
1522.52
-1114.87
1883.54
-1259.14
2340.19
-1433.91
2902.09
-1631.93
3560.04
-1837.12
4275.19
-2024.08
4973.28
-2162.93
5556.8
-2237.38
5956.28
-2270.41
6219.37
-2326.19
6548.94
-2467.1
7170.68
-2708.55
8127.49
-3008.28
9243.22
-3274.03
10247.5
-3399.07
10887.2
-3319.11
10977.7
-3029.07
10429.7
-2562.23
9249.55
-1974
7540.2
-1333.56
5492.08
-704.527
3321.54
-83.8357
1137.62
11.1559
-105.762
-370.383
-358.277
-465.495
-450.138
-537.69
-524.743
-558.845
-698.509
-525.969
-828.328
-458.206
-944.122
-373.706
-965.029
-272.379
-830.03
-147.361
-486.789
12.6781
171.524
60.0684
491.156
110.83
581.968
125.577
722.685
114.218
878.571
92.342
1038.82
66.664
1147.25
98.1307
52.8152
311.626
2686.4
5139.41
-610.938
-40.8651
-613.152
-53.0697
-615.546
-59.5724
-617.785
-64.0274
-619.753
-66.4919
-621.567
-68.2078
-623.265
-69.2829
-624.885
-69.795
-626.439
-69.6999
-627.925
-68.9481
-629.365
-67.5029
-630.795
-65.275
-632.234
-62.1289
-633.695
-57.9839
-635.199
-52.7245
-636.779
-46.1041
-638.452
-37.9157
-640.285
-28.0612
-642.368
-16.4884
-644.764
-2.99208
-647.614
13.1042
-651
32.5403
-655.154
55.72
-660.187
83.2663
-666.18
115.657
-673.272
153.782
-681.868
199.193
-692.376
253.233
-705.195
316.987
-720.843
392.304
-740.368
481.939
-765.04
589.163
-796.616
718.168
-837.605
875.077
-891.645
1068.7
-963.29
1310.71
-1057.84
1617.08
-1180.15
2005.85
-1332.72
2492.76
-1513.21
3082.58
-1711.9
3758.73
-1909.83
4473.12
-2079.21
5142.65
-2191.95
5669.54
-2242.41
6006.74
-2270.59
6247.55
-2348.85
6627.2
-2527.49
7349.32
-2797.4
8397.4
-3095.24
9541.05
-3324.45
10476.7
-3392.85
10955.6
-3254.08
10839
-2913.37
10089
-2409.65
8745.83
-1804.31
6934.86
-1172.55
4860.32
-588.207
2737.19
-139.101
688.516
-200.558
-44.3051
-524.218
-34.622
-610.219
-364.144
-666.793
-468.174
-666.198
-699.108
-604.906
-889.623
-519.001
-1030.03
-423.025
-1061.01
-313.39
-939.666
-179.208
-620.974
2.90944
-10.5967
55.4709
438.593
106.229
531.211
128.713
700.202
115.364
891.919
94.0244
1060.16
77.8722
1163.4
83.4473
47.2403
271.747
2498.1
5081.01
-633.585
-40.4603
-635.653
-51.0016
-637.931
-57.2936
-640.14
-61.8186
-642.117
-64.5146
-643.955
-66.3697
-645.686
-67.5524
-647.342
-68.1385
-648.938
-68.1037
-650.473
-67.4124
-651.976
-66.0004
-653.471
-63.7792
-654.972
-60.6275
-656.493
-56.4623
-658.055
-51.1625
-659.682
-44.4762
-661.408
-36.1898
-663.299
-26.1694
-665.453
-14.3343
-667.93
-0.514374
-670.851
16.026
-674.356
36.0458
-678.653
60.0179
-683.796
88.4111
-689.926
121.788
-697.289
161.147
-706.319
208.224
-717.381
264.297
-731.023
330.63
-747.909
409.192
-769.185
503.216
-796.306
616.285
-831.229
753.093
-876.72
920.569
-936.558
1128.54
-1015.42
1389.56
-1118.22
1719.88
-1248.94
2136.57
-1408.58
2652.4
-1592.88
3266.88
-1789.6
3955.46
-1976.94
4660.46
-2125.57
5291.29
-2211.73
5755.7
-2243.07
6038.09
-2275.41
6279.9
-2382.84
6734.62
-2598.02
7564.51
-2888.12
8687.5
-3174.07
9827.01
-3360.12
10662.7
-3369.29
10964.8
-3171.33
10641
-2781.38
9699.03
-2246.27
8210.73
-1635.92
6324.51
-1030.44
4254.85
-511.37
2218.13
-344.175
521.328
-590.989
202.516
-819.428
193.82
-871.094
-312.474
-870.867
-468.397
-818.735
-751.237
-714.719
-993.636
-598.997
-1145.75
-482.744
-1177.26
-360.869
-1061.54
-221.149
-760.693
-40.3078
-191.437
43.2032
355.086
101.516
472.902
131.576
670.147
116.116
907.382
95.2087
1081.07
85.3214
1173.29
70.6874
61.881
236.129
2332.66
5036.63
-656.466
-39.7416
-658.438
-49.0303
-660.63
-55.1019
-662.805
-59.6428
-664.789
-62.531
-666.652
-64.5076
-668.417
-65.7869
-670.117
-66.439
-671.765
-66.4562
-673.368
-65.8102
-674.947
-64.4214
-676.519
-62.2075
-678.097
-59.0499
-679.695
-54.8654
-681.336
-49.5225
-683.046
-42.7665
-684.866
-34.3705
-686.854
-24.182
-689.098
-12.0917
-691.673
2.05955
-694.736
19.0879
-698.444
39.7536
-702.94
64.5126
-708.279
93.7493
-714.683
128.191
-722.493
168.956
-732.154
217.884
-744.016
276.159
-758.759
345.372
-777.226
427.658
-800.611
526.6
-830.55
646.224
-869.226
791.768
-919.632
970.975
-985.598
1194.5
-1071.74
1475.71
-1182.47
1830.61
-1320.76
2274.86
-1486.07
2817.71
-1672.07
3452.87
-1864
4147.39
-2037.36
4833.82
-2162.7
5416.63
-2223.27
5816.26
-2241.99
6056.81
-2287.5
6325.4
-2428.69
6875.81
-2676.94
7812.75
-2978.02
8988.58
-3242.31
10091.3
-3378.79
10799.2
-3326.24
10912.2
-3070.07
10384.8
-2636.71
9265.66
-2082.08
7656.1
-1479.87
5722.3
-903.171
3678.15
-465.284
1780.24
-553.051
609.095
-958.537
607.998
-1167.89
403.172
-1205.52
-274.857
-1146.46
-527.453
-1022.38
-875.32
-863.158
-1152.86
-704.463
-1304.45
-556.796
-1324.93
-415.59
-1202.75
-267.56
-908.725
-90.456
-368.544
22.0248
242.602
90.8446
404.081
133.598
627.393
117.672
923.308
95.845
1102.9
89.0149
1180.12
60.0443
90.8506
202.42
2190.28
4988.01
-679.675
-38.6699
-681.606
-47.0991
-683.744
-52.9638
-685.901
-57.4859
-687.904
-60.5278
-689.805
-62.6067
-691.622
-63.9699
-693.383
-64.677
-695.1
-64.7391
-696.786
-64.1239
-698.456
-62.7515
-700.124
-60.5394
-701.802
-57.3719
-703.502
-53.1645
-705.256
-47.7681
-707.095
-40.9273
-709.055
-32.4095
-711.185
-22.0515
-713.57
-9.7062
-716.318
4.80775
-719.605
22.3753
-723.583
43.7323
-728.36
69.2905
-734.026
99.4169
-740.855
135.021
-749.286
177.388
-759.768
228.368
-772.683
289.075
-788.784
361.475
-809.123
447.998
-834.957
552.435
-868.068
679.337
-910.852
834.554
-966.484
1026.61
-1038.78
1266.8
-1132.09
1569.02
-1250.25
1948.77
-1395.1
2419.71
-1564.49
2987.11
-1749.93
3638.31
-1934.03
4331.49
-2090.16
4989.95
-2190.52
5516.99
-2228.16
5853.91
-2242.1
6070.75
-2309.12
6392.42
-2486.35
7053.04
-2762.05
8088.46
-3063.94
9290.47
-3296.81
10324.2
-3378.12
10880.5
-3263.64
10797.7
-2954.57
10075.8
-2487.65
8798.74
-1921.72
7090.18
-1322.06
5122.64
-770.735
3126.82
-534.841
1544.35
-919.406
993.665
-1395.28
1083.87
-1575.23
583.122
-1591.24
-258.836
-1481.26
-637.427
-1290.65
-1065.93
-1065.82
-1377.7
-846.007
-1524.25
-651.116
-1519.82
-480.332
-1373.53
-317.874
-1071.18
-136.065
-550.353
-7.12179
113.66
63.9992
332.965
134.793
556.605
122.197
935.907
96.6505
1128.45
89.7021
1187.07
51.0627
129.496
167.246
2074.1
4940.43
-703.368
-37.2382
-705.309
-45.1583
-707.427
-50.8457
-709.591
-55.3221
-711.636
-58.4828
-713.598
-60.6446
-715.491
-62.0775
-717.339
-62.829
-719.155
-62.9243
-720.952
-62.3265
-722.74
-60.9639
-724.536
-58.7448
-726.346
-55.5618
-728.187
-51.3244
-730.096
-45.8599
-732.109
-38.9145
-734.258
-30.2614
-736.584
-19.7267
-739.172
-7.11903
-742.172
7.80714
-745.766
25.9681
-750.093
48.0577
-755.256
74.4531
-761.394
105.554
-768.817
142.443
-778.038
186.607
-789.512
239.842
-803.703
303.265
-821.416
379.187
-843.884
470.465
-872.469
581.019
-909.069
715.936
-956.264
881.748
-1017.32
1087.66
-1095.98
1345.46
-1196.21
1669.25
-1321.11
2073.67
-1471.35
2569.95
-1643.1
3158.86
-1825.52
3820.73
-1998.65
4504.63
-2134.58
5125.87
-2209.39
5591.81
-2228.55
5873.07
-2246.42
6088.62
-2341.97
6487.97
-2554.87
7265.94
-2850.28
8383.87
-3142.07
9582.26
-3334.73
10516.8
-3358.03
10903.8
-3185.31
10625
-2830.79
9721.25
-2334.56
8302.51
-1749.02
6504.64
-1143.81
4517.43
-699.068
2682.08
-822.614
1667.89
-1432.36
1603.41
-1846.61
1498.12
-1981.95
718.455
-1987.12
-253.673
-1849.62
-774.93
-1612.81
-1302.73
-1323.9
-1666.62
-1031.45
-1816.7
-773.374
-1777.89
-560.246
-1586.66
-376.016
-1255.41
-184.244
-742.127
-40.2614
-30.3257
10.7217
281.978
126.292
441.034
127.862
934.336
98.1967
1158.11
88.5032
1196.77
43.6916
174.305
139.688
1978.1
4902.05
-727.785
-35.4533
-729.783
-43.1594
-731.921
-48.7083
-734.123
-53.1199
-736.237
-56.3683
-738.29
-58.5917
-740.289
-60.0783
-742.255
-60.8631
-744.2
-60.9785
-746.14
-60.3871
-748.078
-59.0255
-750.032
-56.7904
-752.011
-53.5822
-754.036
-49.2989
-756.151
-43.7445
-758.39
-36.6751
-760.775
-27.8763
-763.351
-17.1505
-766.218
-4.25119
-769.56
11.1494
-773.543
29.9516
-778.3
52.816
-783.962
80.1153
-790.707
112.3
-798.887
150.624
-809.054
196.775
-821.679
252.468
-837.355
318.942
-856.934
398.767
-881.755
495.287
-913.353
612.618
-953.715
756.299
-1005.54
933.578
-1072.12
1154.24
-1157.04
1430.38
-1263.76
1775.97
-1394.57
2204.48
-1548.88
2724.26
-1721.06
3331.04
-1897.83
3997.5
-2056.82
4663.61
-2170.12
5239.17
-2220.28
5641.97
-2227.1
5879.9
-2257.83
6119.35
-2386.85
6616.99
-2632.14
7511.23
-2937.74
8689.47
-3208.91
9853.44
-3355.27
10663.2
-3321.4
10869.9
-3095.49
10399.1
-2697.42
9323.17
-2163.39
7768.49
-1548.11
5889.36
-981.136
3950.46
-825.318
2526.26
-1313.01
2155.59
-1944.54
2234.95
-2255.36
1808.94
-2364.91
828.013
-2366.75
-251.83
-2218.23
-923.452
-1957.3
-1563.66
-1620.91
-2003.01
-1259.96
-2177.66
-929.581
-2108.27
-660.419
-1855.82
-444.777
-1471.05
-242.228
-944.676
-55.5719
-216.981
-1.87885
228.288
102.393
336.768
129.932
906.801
99.6757
1188.37
86.1187
1210.33
37.8615
222.567
112.948
1903.02
4872.8
-753.239
-33.3509
-755.331
-41.0678
-757.523
-46.5164
-759.798
-50.845
-762.013
-54.1533
-764.188
-56.4173
-766.324
-57.9426
-768.439
-58.7488
-770.546
-58.871
-772.659
-58.2753
-774.782
-56.9022
-776.933
-54.6399
-779.124
-51.3918
-781.382
-47.0421
-783.751
-41.3763
-786.26
-34.1668
-788.926
-25.2106
-791.809
-14.2681
-795.03
-1.03153
-798.786
14.9046
-803.232
34.397
-808.507
58.0898
-814.77
86.3767
-822.246
119.775
-831.333
159.711
-842.599
208.039
-856.55
266.419
-873.895
336.286
-895.567
420.438
-922.964
522.684
-957.79
647.444
-1002.12
800.631
-1058.72
990.172
-1130.79
1226.31
-1221.7
1521.3
-1334.36
1888.63
-1470.1
2340.22
-1626.99
2881.15
-1797.46
3501.51
-1965.78
4165.82
-2107.59
4805.43
-2196.69
5328.27
-2224.76
5670.04
-2226.84
5881.97
-2278.67
6171.18
-2443.3
6781.62
-2714.98
7782.91
-3020.63
8995.12
-3262.67
10095.5
-3360.08
10760.6
-3271.3
10781.2
-2992.71
10120.5
-2543.04
8873.51
-1959.8
7185.24
-1337.27
5266.84
-944.977
3558.16
-1175.28
2756.57
-1852.61
2832.92
-2375.82
2758.15
-2609.53
2042.64
-2706.69
925.168
-2708.14
-250.387
-2562.75
-1068.84
-2298.09
-1828.32
-1936.83
-2364.27
-1522.97
-2591.52
-1120.98
-2510.26
-784.64
-2192.16
-525.647
-1730.05
-308.132
-1162.19
-93.3801
-431.735
-7.88173
142.786
75.8672
253.017
127.277
855.391
99.343
1216.31
82.3459
1227.32
33.2731
271.638
84.881
1851.41
4836.14
-780.071
-31.0169
-782.283
-38.8559
-784.559
-44.2395
-786.935
-48.4697
-789.277
-51.8109
-791.599
-54.0947
-793.9
-55.6415
-796.194
-56.4549
-798.493
-56.5716
-800.809
-55.9592
-803.153
-54.5577
-805.54
-52.2532
-807.983
-48.9484
-810.514
-44.5105
-813.176
-38.7146
-815.992
-31.3498
-818.989
-22.2131
-822.245
-11.0116
-825.889
2.61222
-830.123
19.1395
-835.109
39.3837
-840.991
63.9724
-847.95
93.3364
-856.279
128.104
-866.416
169.85
-878.923
220.546
-894.355
281.852
-913.534
355.465
-937.508
444.414
-967.691
552.867
-1005.91
685.666
-1054.35
849.069
-1115.74
1051.56
-1193.17
1303.74
-1289.68
1617.81
-1407.54
2006.49
-1547.08
2479.76
-1704.89
3038.96
-1871.31
3667.93
-2028.26
4322.77
-2150.24
4927.41
-2214.77
5392.8
-2225.05
5680.32
-2230.71
5887.63
-2310.24
6250.71
-2509.59
6980.96
-2799.88
8073.2
-3096.34
9291.58
-3303.63
10302.8
-3351.25
10808.2
-3206.69
10636.6
-2867.92
9781.75
-2354.79
8360.38
-1731.25
6561.71
-1184.77
4720.36
-1110.34
3483.73
-1654.66
3300.89
-2323.89
3502.14
-2721.82
3156.09
-2907.2
2228.03
-2993.4
1011.37
-2996.68
-247.099
-2865.12
-1200.4
-2614.42
-2079.02
-2251.88
-2726.8
-1807.46
-3035.95
-1344.56
-2973.16
-936.164
-2600.55
-621.285
-2044.93
-378.328
-1405.15
-152.648
-657.413
-39.1919
29.3309
39.3862
174.445
119.51
775.272
96.8016
1239.02
77.2232
1246.9
29.7683
319.097
62.8449
1818.34
4815.51
-808.637
-28.5852
-810.982
-36.5102
-813.363
-41.8591
-815.857
-45.9753
-818.343
-49.3256
-820.829
-51.6085
-823.312
-53.1591
-825.803
-53.964
-828.315
-54.0598
-830.861
-53.4134
-833.455
-51.9642
-836.11
-49.5994
-838.842
-46.2172
-841.687
-41.666
-844.68
-35.7222
-847.848
-28.1822
-851.23
-18.8321
-854.919
-7.32296
-859.049
6.74109
-863.828
23.9174
-869.427
44.9811
-876.003
70.5479
-883.756
101.088
-893.052
137.399
-904.352
181.148
-918.223
234.417
-935.296
298.924
-956.474
376.642
-982.906
470.844
-1016.04
586.003
-1057.78
727.398
-1110.36
901.657
-1176.47
1117.67
-1259
1386.26
-1360.58
1719.39
-1482.8
2128.7
-1624.86
2621.82
-1781.71
3195.81
-1941.57
3827.79
-2084.27
4465.48
-2184.41
5027.54
-2225.41
5433.8
-2223.72
5678.63
-2241.23
5905.14
-2352.68
6362.16
-2583.21
7211.49
-2883.96
8373.95
-3163.95
9571.57
-3332.88
10471.7
-3328.16
10803.5
-3120.68
10429.1
-2709.71
9370.79
-2132.44
7783.1
-1516.35
5945.62
-1175.42
4379.43
-1451.9
3760.21
-2136.92
3985.91
-2696.1
4061.31
-2993.93
3453.92
-3143.58
2377.67
-3216.86
1084.65
-3224.11
-239.853
-3113.57
-1310.94
-2890.75
-2301.85
-2548.24
-3069.31
-2098.14
-3486.05
-1593.14
-3478.16
-1116.28
-3077.42
-735.799
-2425.41
-455.677
-1685.27
-216.941
-896.152
-85.9169
-101.696
-26.0567
114.58
99.6824
649.532
92.8229
1245.88
71.6204
1268.1
26.8235
363.891
36.5788
1808.58
4783.8
-839.311
-26.1846
-841.796
-34.0247
-844.288
-39.368
-846.907
-43.3554
-849.54
-46.6924
-852.195
-48.954
-854.864
-50.4897
-857.562
-51.2656
-860.302
-51.32
-863.097
-50.6185
-865.961
-49.0996
-868.907
-46.6529
-871.957
-43.1674
-875.145
-38.4775
-878.5
-32.3675
-882.059
-24.6228
-885.877
-15.0134
-890.058
-3.14186
-894.742
11.4259
-900.136
29.3117
-906.414
51.26
-913.755
77.8899
-922.394
109.728
-932.756
147.761
-945.336
193.73
-960.707
249.788
-979.552
317.77
-1002.85
399.945
-1031.85
499.844
-1068.05
622.204
-1113.36
772.705
-1170.06
958.359
-1240.72
1188.33
-1327.96
1473.51
-1433.97
1825.39
-1559.54
2254.27
-1702.67
2764.95
-1856.53
3349.68
-2007.22
3978.47
-2133.02
4591.28
-2210.16
5104.69
-2230.2
5453.84
-2223.41
5671.84
-2260.05
5941.78
-2405.1
6507.22
-2661.73
7468.12
-2965.64
8677.86
-3223.63
9829.57
-3349.99
10598.1
-3285.75
10739.3
-3003.29
10146.7
-2513.19
8880.68
-1896.8
7166.71
-1378.73
5427.55
-1340.19
4340.89
-1879.39
4299.41
-2546.48
4653.01
-2976.27
4491.1
-3198.38
3676.04
-3315.29
2494.59
-3374.53
1143.88
-3386.73
-227.649
-3301.45
-1396.21
-3116.45
-2486.85
-2811.43
-3374.33
-2379.68
-3917.8
-1856.08
-4001.75
-1322.65
-3610.85
-872.226
-2875.83
-543.365
-2014.13
-289.478
-1150.04
-100.502
-290.672
-33.7608
47.8426
73.6144
542.162
87.2383
1232.26
66.2978
1289.05
24.5663
405.626
17.8874
1815.26
4750.16
-872.5
-23.8817
-875.117
-31.4071
-877.71
-36.7751
-880.45
-40.6157
-883.225
-43.9179
-886.044
-46.1347
-888.903
-47.6312
-891.813
-48.3556
-894.786
-48.3473
-897.836
-47.5697
-900.979
-45.9566
-904.231
-43.4011
-907.616
-39.7835
-911.165
-34.9286
-914.907
-28.6262
-918.888
-20.6429
-923.18
-10.7221
-927.893
1.56981
-933.182
16.7145
-939.245
35.3738
-946.268
58.2818
-954.446
86.0674
-964.07
119.351
-975.597
159.287
-989.549
207.68
-1006.51
266.744
-1027.22
338.485
-1052.75
425.477
-1084.4
531.487
-1123.7
661.509
-1172.57
821.572
-1233.26
1019.05
-1308.19
1263.27
-1399.68
1564.99
-1509.33
1935.05
-1637.12
2382.06
-1779.7
2907.53
-1928.4
3498.38
-2067.31
4117.38
-2173.98
4697.96
-2228.05
5158.75
-2231.05
5456.84
-2226.46
5667.23
-2288.02
6003.34
-2466.2
6685.41
-2743.43
7745.35
-3044.36
8978.78
-3274.9
10060.1
-3351.26
10674.4
-3215.55
10603.6
-2847.26
9778.37
-2287.2
8320.62
-1688.36
6567.87
-1373.57
5112.75
-1642.57
4609.89
-2298.27
4955.11
-2861.91
5216.66
-3177.09
4806.28
-3338.16
3837.1
-3422.79
2579.22
-3467.74
1188.83
-3484.5
-210.895
-3426.26
-1454.46
-3285.14
-2627.97
-3030.65
-3628.82
-2638.36
-4310.1
-2121.22
-4518.9
-1549.68
-4182.38
-1031.72
-3393.8
-643.392
-2402.46
-363.929
-1429.5
-137.799
-516.805
-52.2585
-37.7026
40.1168
449.784
78.752
1193.62
61.6804
1306.12
22.1247
445.179
-2.48303
1839.87
4740.14
-908.608
-21.6732
-911.335
-28.6798
-914.009
-34.1017
-916.853
-37.7713
-919.758
-41.013
-922.734
-43.1582
-925.776
-44.5898
-928.889
-45.2421
-932.089
-45.1474
-935.39
-44.2678
-938.814
-42.5327
-942.374
-39.8407
-946.097
-36.0611
-950.014
-31.0112
-954.159
-24.4802
-958.581
-16.221