/*--------------------------------*- C++ -*----------------------------------*\
| =========                 |                                                 |
| \\      /  F ield         | OpenFOAM: The Open Source CFD Toolbox           |
|  \\    /   O peration     | Version:  4.1                                   |
|   \\  /    A nd           | Web:      www.OpenFOAM.org                      |
|    \\/     M anipulation  |                                                 |
\*---------------------------------------------------------------------------*/
FoamFile
{
    version     2.0;
    format      ascii;
    class       surfaceScalarField;
    location    "26";
    object      phi;
}
// * * * * * * * * * * * * * * * * * * * * * * * * * * * * * * * * * * * * * //

dimensions      [0 3 -1 0 0 0 0];

internalField   nonuniform List<scalar> 
13220
(
-906.843
2206.74
-1504.66
1898.02
-1985.11
1780.36
-2354.93
1669.72
-2630.26
1575.53
-2818.69
1488.33
-2923.49
1404.7
-2944.46
1321.17
-2880.28
1235.72
-2727.83
1147.45
-2482.45
1054.82
-2127.44
944.894
-1626.88
799.34
-956.022
629.34
343.878
423.566
1783.18
466.661
1854.93
450.475
1796.55
411.037
1709.16
378.598
1607.98
352.483
1514.46
333.225
1423.97
321.524
1332.88
314.095
1243.16
304.781
1156.77
285.438
1074.17
242.329
988.013
165.836
875.844
88.5356
706.653
432.414
181.136
1602.05
20.9947
2015.08
-139.994
1957.55
-258.584
1827.76
-362.83
1712.23
-459.86
1611.49
-546.936
1511.05
-624.457
1410.41
-690.602
1309.31
-742.924
1209.11
-777.133
1108.39
-774.508
985.401
-684.646
785.999
-432.706
454.735
-0.291792
215.883
1386.18
135.944
2095.03
1.92405
2091.58
-93.4647
1923.16
-169.574
1788.35
-229.598
1671.53
-269.471
1550.94
-289.402
1430.35
-291.383
1311.3
-275.898
1193.63
-241.728
1074.23
-184.094
927.783
-101.146
703.073
-9.76678
363.382
-10.0582
282.484
1103.7
348.999
2028.52
326.074
2114.51
305.593
1943.65
296.165
1797.79
292.628
1675.08
292.688
1550.89
296.657
1426.39
303.323
1304.64
310.754
1186.21
318.329
1066.66
320.316
925.814
297.033
726.381
215.896
444.547
205.838
248.811
854.906
359.156
1918.19
370.12
2103.56
350.843
1962.94
335.74
1812.91
324.779
1686.05
313.407
1562.27
299.348
1440.47
283.494
1320.51
265.841
1203.87
244.994
1087.52
219.065
951.747
177.777
767.675
109.124
513.208
314.962
131.068
723.853
214.141
1835.13
238.875
2078.83
216.533
1985.29
193.165
1836.28
173.461
1705.77
154.882
1580.86
136.785
1458.57
118.889
1338.41
102.579
1220.2
87.9054
1102.2
75.2219
964.463
61.2687
781.663
44.5782
529.932
359.54
35.8521
688.015
85.6239
1785.37
125.599
2038.87
115.475
1995.43
100.197
1851.57
88.3999
1717.58
76.6598
1592.61
65.8773
1469.36
56.382
1347.91
47.2767
1229.3
39.5089
1109.97
35.8475
968.106
32.6193
784.874
28.4722
534.065
388.013
12.0885
675.944
50.2491
1747.22
94.592
1994.54
94.6964
1995.34
85.3449
1860.94
77.5132
1725.42
70.3449
1599.79
62.6074
1477.11
55.4046
1355.13
48.5945
1236.14
41.4929
1117.08
39.0496
970.614
37.5486
786.441
29.0569
542.617
417.07
28.5312
647.423
70.9194
1704.84
109.683
1955.78
110.829
1994.21
101.202
1870.57
90.6374
1736
81.1288
1609.31
72.3558
1485.9
63.1382
1364.36
54.5342
1244.74
46.6388
1124.98
43.1281
974.079
40.7813
788.744
29.2707
554.088
446.341
42.9295
604.491
87.0652
1660.7
119.657
1923.18
120.252
1993.6
109.534
1881.28
97.8289
1747.7
85.985
1621.14
75.0627
1496.8
64.7026
1374.7
54.3033
1255.13
45.3113
1133.95
42.5644
976.873
40.1741
791.169
27.0502
567.242
473.39
24.4424
580.027
51.5128
1633.62
71.724
1902.95
66.3641
1998.95
52.167
1895.45
38.0276
1761.81
26.8689
1632.26
16.8325
1506.82
8.82385
1382.68
3.1901
1260.72
-0.695647
1137.81
4.37713
971.688
12.9067
782.532
13.4667
566.585
486.857
-7.17667
587.169
19.7772
1606.64
38.6623
1884.04
45.2635
1992.32
41.5647
1899.13
30.4907
1772.86
17.198
1645.53
4.74277
1519.24
-7.78488
1395.18
-17.9053
1270.83
-19.3525
1139.24
-9.3093
961.673
3.3636
769.877
-5.54613
575.509
481.31
-197.048
784.187
-327.086
1736.65
-405.942
1962.88
-465.004
2051.36
-494.701
1928.81
-507.677
1785.82
-506.205
1644.04
-495.486
1508.51
-473.577
1373.26
-439.059
1236.29
-366.598
1066.77
-271.239
866.247
-167.853
666.425
-87.9193
495.511
393.391
-216.939
-58.309
-41.5791
-62.6203
-165.842
-289.708
-407.042
-501.584
-564.625
-558.711
-530.022
-450.422
-353.307
-225.476
0.000940673
448.058
-448.056
448.06
448.061
448.062
873.047
-424.984
873.048
873.049
873.051
1270.04
-396.987
1270.04
1270.04
1634.09
-364.046
1634.09
1634.09
1634.09
1953.65
-319.558
1953.65
1953.65
2230.49
-276.84
2230.49
2230.49
2230.49
2454.75
-224.253
2454.75
2454.75
2454.75
2626.09
-171.342
2626.09
2626.09
2745.6
-119.508
2745.6
2745.6
2745.6
2803.3
-57.6945
2803.3
2803.3
2803.7
-0.400417
2803.7
2803.7
2803.7
2736.32
67.3842
2736.32
2736.32
2736.32
2604.05
132.271
2604.05
2604.05
2409.7
194.355
2409.7
2409.7
2409.7
2147.55
262.154
2147.55
2147.55
2147.55
1824.66
322.895
1824.66
1824.66
1447.27
377.39
1447.27
1447.28
1447.28
1022.16
425.118
1022.16
1022.16
565.808
456.356
565.811
565.813
565.816
101.212
464.605
101.216
101.218
101.222
-487.162
588.383
-487.158
-487.16
-1230.35
743.197
-1230.36
-1230.35
-1208.51
-1175.01
-1148.87
-2265.9
1144.18
-2217.38
-2162.06
-2096.61
-2029.33
-1961.25
-1889.5
-1802.77
-1705.11
-3321.54
1715.19
-3204.11
-3090.78
-2976.52
-2836.49
-2694.84
-2549.73
-2396.53
-2241.86
-4444.43
2375.52
-4248.66
-4053.1
-3856.3
-3658.21
-3451.08
-3228.58
-3002.71
-2768.19
-2530.39
-5256.53
2962.79
-4990.88
-4723.23
-4453.39
-4183.06
-3912.8
-3628.54
-3329.34
-3024.47
-6082.58
3355.84
-5777.1
-5463.64
-5137.52
-4808.54
-4478.47
-4147.59
-3808.98
-3446.38
-6636.59
3543.28
-6279.38
-5920.45
-5562.79
-5190.68
-4811.13
-4430.77
-4046.98
-3659.53
-6593.36
3316.71
-6205.63
-5813.15
-5423.28
-5037.63
-4656.24
-4278.55
-3902.39
-3531.75
-3164.33
-4525.06
1710.25
-4211.18
-3901.08
-3600.8
-3306.51
-3017.83
-2764.38
-2578.9
-2389.39
-1744.61
-447.032
-1572.42
-1402.85
-1402.85
-1194.77
-208.076
-962.431
-232.339
-962.43
-882.296
-80.1336
-882.294
-860.574
-21.7188
-860.48
-0.0924065
-860.48
-886.286
25.8077
-906.662
20.3761
-906.662
-924.15
17.4886
-924.15
-944.315
20.1652
-955.469
11.1547
-955.47
-967.505
12.0351
-967.505
-985.995
18.4901
-996.439
10.4426
-996.439
-1011.33
14.8894
-1017.12
5.79173
-1017.12
-1024.4
7.27509
-1024.4
-1034.91
10.5156
-1036.53
1.6181
-1036.53
-1038.29
1.75184
-1038.29
-1044.12
5.83507
-1041.95
-2.17134
-1041.95
-1043.32
1.36964
-1037.35
-5.97505
-1037.35
-1032.04
-5.30765
-1032.04
-1028.49
-3.55356
-1017.48
-11.0099
-1017.48
-1004.84
-12.6427
-1004.84
-993.693
-11.1495
-975.292
-18.401
-975.293
-956.271
-19.0223
-930.824
-25.448
-930.824
-901.477
-29.3473
-901.477
-869.372
-32.1058
-830.276
-39.0969
-830.276
-783.905
-46.3714
-783.906
-731.369
-52.5366
-670.92
-60.4497
-670.92
-600.449
-70.4716
-521.402
-79.0473
-521.403
-429.385
-92.0178
-429.386
-326.272
-103.114
-215.776
-110.496
-215.777
-89.964
-125.813
-89.9644
44.9617
-134.927
214.302
-169.34
214.301
389.897
-175.596
600.31
-210.414
600.31
832.169
-231.859
832.168
-251.266
-1017.46
135.332
-944.098
107.012
-922.105
80.0212
-907.563
81.2142
-902.892
78.3373
-903.133
81.6529
-905.449
86.04
-908.214
92.4025
-910.485
100.136
-911.868
109.294
-912.215
119.89
-911.531
132.065
-909.914
145.937
-907.578
161.857
-904.822
179.966
-902.073
200.658
-899.888
224.379
-898.947
251.679
-899.96
283.308
-903.525
320.157
-909.93
363.017
-919.049
412.988
-930.414
470.894
-943.467
537.902
-957.803
614.992
-973.246
702.439
-989.596
799.584
-1006.2
906.579
-1021.65
1024.25
-1033.81
1150.5
-1040.49
1279.57
-1041.2
1406.39
-1039.42
1531.33
-1043.52
1663.2
-1063.83
1822.72
-1106.84
2031.17
-1171.58
2302.84
-1253.06
2638.14
-1348.1
3023.13
-1456.35
3435.93
-1577.98
3903.45
-1713.27
4453.93
-1861.65
5092.67
-2021.28
5804.67
-2187.35
6570.03
-2351.47
7374.68
-2506.3
8190.99
-2650.11
8993
-2781.71
9771.85
-2885.72
10510.9
-2919.22
11119
-2816.48
11372
-2512.71
10921.4
-1951.35
9336.34
-1092
6236.61
-239.435
2458.87
304.159
140.535
430.641
-1067.06
364.656
-984.801
13.3689
-538.947
-201.196
629.494
-180.904
631.945
-148.095
455.464
-125.018
260.907
-102.215
323.838
-66.4442
414.925
-38.6147
263.585
-23.3001
223.681
-0.238986
602.931
34.64
938.516
67.472
1092.53
99.308
1141.46
129.1
1091.79
160.592
941.797
200.214
773.131
241.909
689.529
265.262
683.488
279.276
572.147
205.037
-930.1
104.287
-907.536
84.4479
-907.356
79.8409
-905.071
78.9294
-906.444
79.7102
-907.839
83.048
-909.261
87.4619
-910.183
93.3251
-910.461
100.415
-910.076
108.908
-909.118
118.932
-907.736
130.684
-906.112
144.313
-904.522
160.267
-903.248
178.692
-902.658
200.068
-903.177
224.899
-905.253
253.755
-909.256
287.312
-915.414
326.315
-923.697
371.3
-933.884
423.175
-945.649
482.66
-958.673
550.926
-972.654
628.973
-987.292
717.079
-1002.3
814.591
-1016.96
921.244
-1029.64
1036.93
-1038.2
1159.06
-1041.33
1282.71
-1040.24
1405.3
-1040.05
1531.14
-1049.74
1672.89
-1078.08
1851.07
-1128.92
2082
-1199.58
2373.51
-1284.63
2723.19
-1380.78
3119.28
-1490.52
3545.68
-1615.71
4028.63
-1755.61
4593.84
-1907.15
5244.2
-2066.96
5964.49
-2230.22
6733.29
-2388.65
7533.11
-2535.61
8337.95
-2670.01
9127.4
-2790.21
9892.05
-2879.11
10599.8
-2893
11132.9
-2768.58
11247.6
-2439.62
10592.5
-1842.42
8739.13
-988.052
5382.24
-238.099
1708.92
299.768
-397.331
282.091
-1049.39
74.3988
-777.109
-172.623
-291.926
-202.01
658.882
-159.694
589.63
-116.343
412.113
-101.612
246.176
-84.1243
306.351
-47.5277
378.329
-24.2168
240.274
-14.8163
214.28
6.20972
581.905
37.4093
907.316
67.1423
1062.8
96.5578
1112.04
124.335
1064.02
151.93
914.202
184.826
740.234
223.527
650.828
253.393
653.622
266.224
559.316
239.402
-904.007
96.7241
-904.418
84.8586
-906.895
82.3184
-908.135
80.169
-909.469
81.045
-909.907
83.4857
-909.94
87.4947
-909.478
92.863
-908.713
99.6496
-907.784
107.979
-906.877
118.025
-906.168
129.975
-905.853
143.998
-906.146
160.56
-907.271
179.817
-909.463
202.26
-912.96
228.396
-917.938
258.733
-924.46
293.834
-932.484
334.338
-941.859
380.675
-952.412
433.728
-964.003
494.251
-976.469
563.392
-989.554
642.058
-1002.89
730.417
-1015.97
827.666
-1027.79
933.072
-1036.71
1045.85
-1041.17
1163.51
-1041.26
1282.81
-1039.98
1404.02
-1043.72
1534.87
-1060.95
1690.12
-1098.1
1888.22
-1156.51
2140.42
-1232.48
2449.47
-1320.72
2811.43
-1419.21
3217.77
-1531.65
3658.12
-1659.84
4156.82
-1802.79
4736.79
-1956.81
5398.22
-2117.47
6125.15
-2279.12
6894.93
-2433.68
7687.67
-2575.69
8479.97
-2704.24
9255.95
-2815.1
10002.9
-2886.38
10671.1
-2871.29
11117.8
-2707.35
11083.7
-2327.05
10212.2
-1665.95
8078.04
-782.19
4498.48
-28.1998
954.931
297.958
-723.489
98.9571
-850.385
-58.8205
-619.331
-216.073
-134.674
-201.107
643.916
-147.376
535.899
-104.357
369.094
-90.7387
232.559
-72.7786
288.391
-37.2355
342.786
-16.6721
219.71
-9.73952
207.348
10.117
562.048
39.9405
877.492
67.9675
1034.77
95.3963
1084.61
120.356
1039.06
143.232
891.325
170.256
713.211
206.721
614.362
239.776
620.566
248.723
550.368
277.711
-907.713
94.3142
-909.591
86.7372
-910.173
82.8995
-910.55
80.5463
-910.621
81.1158
-910.407
83.272
-910.075
87.1627
-909.718
92.5065
-909.508
99.439
-909.582
108.054
-910.081
118.524
-911.118
131.012
-912.856
145.736
-915.391
163.096
-918.865
183.291
-923.361
206.755
-928.949
233.984
-935.636
265.419
-943.352
301.551
-951.987
342.973
-961.46
390.149
-971.699
443.967
-982.654
505.205
-994.193
574.931
-1006
653.864
-1017.53
741.947
-1028.02
838.163
-1036.42
941.467
-1041.43
1050.85
-1042.45
1164.54
-1041.1
1281.45
-1041.8
1404.72
-1051.41
1544.49
-1077.17
1715.88
-1122.88
1933.92
-1187.85
2205.39
-1268.09
2529.71
-1359.22
2902.55
-1460.16
3318.71
-1575.57
3773.54
-1706.9
4288.15
-1852.55
4882.44
-2008.54
5554.21
-2169.49
6286.1
-2329.05
7054.5
-2479.69
7838.31
-2617.04
8617.33
-2739.74
9378.65
-2839.98
10103.1
-2890.71
10721.8
-2842.54
11069.7
-2633.34
10874.5
-2191.66
9770.5
-1453.68
7340.06
-581.001
3625.8
87.6523
286.28
177.134
-812.97
-109.654
-563.596
-145.549
-583.436
-229.149
-51.0741
-194.31
609.077
-136.273
477.862
-94.3071
327.129
-81.3755
219.628
-62.1373
269.153
-28.0402
308.689
-10.5711
202.242
-5.86695
202.643
13.4148
542.766
42.0446
848.862
68.7385
1008.08
94.282
1059.07
116.614
1016.72
135.197
872.741
156.605
691.802
189.272
581.694
223.657
586.181
229.778
544.246
331.893
-914.571
92.0436
-914.453
86.6197
-914.251
82.697
-914.226
80.5208
-914.379
81.2695
-914.693
83.586
-915.218
87.6871
-916.048
93.3373
-917.267
100.658
-918.959
109.745
-921.175
120.74
-923.968
133.805
-927.446
149.213
-931.625
167.275
-936.563
188.229
-942.264
212.456
-948.712
240.433
-955.875
272.582
-963.685
309.361
-972.069
351.357
-981.031
399.111
-990.549
453.486
-1000.56
515.216
-1010.83
585.199
-1020.87
663.907
-1029.99
751.067
-1037.38
845.55
-1042.17
946.261
-1043.78
1052.46
-1042.77
1163.53
-1042.01
1280.69
-1046.83
1409.55
-1063.74
1561.4
-1098.16
1750.3
-1151.52
1987.28
-1221.81
2275.67
-1305.42
2613.33
-1399.16
2996.3
-1502.66
3422.21
-1621.04
3891.91
-1755.54
4422.66
-1903.69
5030.58
-2061.18
5711.71
-2221.84
6446.76
-2378.9
7211.56
-2525.58
7984.98
-2658.35
8750.1
-2774.59
9494.89
-2862.27
10190.8
-2889.41
10749
-2804.47
10984.7
-2544.02
10614
-2032.2
9258.67
-1223.11
6530.97
-430.848
2833.53
88.8062
-233.374
20.2115
-744.376
-239.049
-304.335
-157.763
-664.723
-233.249
24.4121
-183.49
559.318
-125.264
419.637
-85.0515
286.917
-71.8917
206.468
-51.4735
248.735
-19.3651
276.581
-4.80575
187.682
-2.30891
200.147
16.8285
523.629
44.2494
821.441
69.7068
982.618
93.3496
1035.43
113.172
996.901
127.912
858.001
144.023
675.69
172.094
553.622
205.974
552.299
212.877
537.343
375.429
-923.032
90.207
-922.695
86.2828
-923.082
83.0845
-923.841
81.2802
-925.002
82.4297
-926.451
85.035
-928.223
89.4598
-930.352
95.4666
-932.869
103.174
-935.804
112.681
-939.178
124.114
-943.022
137.649
-947.375
153.567
-952.233
172.133
-957.61
193.606
-963.502
218.348
-969.876
246.808
-976.718
279.424
-983.999
316.642
-991.686
359.044
-999.805
407.23
-1008.31
461.988
-1017.03
523.939
-1025.59
593.763
-1033.38
671.694
-1039.65
757.339
-1043.75
849.653
-1045.31
947.819
-1044.62
1051.77
-1043.39
1162.3
-1045.37
1282.67
-1056.05
1420.23
-1080.96
1586.32
-1123.52
1792.86
-1183.36
2047.12
-1257.77
2350.08
-1343.99
2699.55
-1440.16
3092.47
-1546.47
3528.52
-1667.81
4013.25
-1805.29
4560.15
-1955.72
5181.01
-2114.17
5870.15
-2273.99
6606.59
-2428.24
7365.81
-2571.04
8127.79
-2699.21
8878.27
-2808.1
9603.78
-2880.98
10263.7
-2881.36
10749.3
-2755.26
10858.6
-2436.22
10295
-1850.05
8672.5
-991.682
5672.61
-206.382
2048.23
95.9821
-535.737
-104.915
-543.479
-299.041
-110.209
-183.193
-780.571
-229.764
70.9835
-169.919
499.473
-114.359
364.077
-76.2064
248.765
-62.018
192.28
-40.5161
227.233
-10.7634
246.828
0.929947
175.989
1.31247
199.764
20.2684
504.673
46.5605
795.149
70.8884
958.29
92.5641
1013.75
110.036
979.429
121.474
846.562
132.652
664.511
155.84
530.433
187.597
520.541
193.63
531.309
434.132
-937.247
88.9849
-937.83
86.866
-939.171
84.4256
-940.903
83.0125
-942.993
84.5194
-945.345
87.3872
-947.962
92.0768
-950.843
98.3478
-954
106.331
-957.443
116.124
-961.192
127.863
-965.275
141.732
-969.698
157.989
-974.461
176.897
-979.575
198.72
-985.043
223.816
-990.844
252.609
-996.98
285.561
-1003.44
323.102
-1010.19
365.793
-1017.21
414.255
-1024.39
469.162
-1031.43
530.981
-1037.86
600.189
-1043.02
676.86
-1046.32
760.638
-1047.47
850.799
-1046.73
947.085
-1045.31
1050.35
-1045.83
1162.81
-1052.43
1289.27
-1070.1
1437.9
-1103.01
1619.23
-1152.75
1842.6
-1217.8
2112.16
-1295.39
2427.67
-1383.69
2787.85
-1482.17
3190.95
-1591.52
3637.87
-1715.83
4137.56
-1856
4700.32
-2008.36
5333.37
-2167.2
6028.99
-2325.68
6765.07
-2476.95
7517.08
-2616.01
8266.84
-2739.44
9001.7
-2839.78
9704.11
-2895.41
10319.3
-2865.46
10719.4
-2692.81
10686
-2308.19
9910.37
-1649.4
8013.71
-766.861
4790.07
-47.2034
1328.57
23.666
-606.606
-219.386
-300.427
-323.467
-6.12789
-205.653
-898.386
-219.477
84.8076
-154.562
434.557
-103.783
313.299
-67.6549
212.636
-52.1286
176.754
-29.4255
204.531
-2.07094
219.474
6.70651
167.212
5.23919
201.232
23.4684
486.444
48.7816
769.836
72.0727
934.998
91.8563
993.966
107.205
964.08
115.837
837.931
122.594
657.754
140.808
512.218
169.414
491.935
175.745
524.978
484.062
-957.976
88.316
-959.315
88.2052
-961.194
86.305
-963.417
85.2351
-965.885
86.9873
-968.539
90.0418
-971.36
94.8971
-974.345
101.333
-977.502
109.488
-980.843
119.464
-984.387
131.408
-988.16
145.505
-992.166
161.995
-996.416
181.147
-1000.92
203.227
-1005.69
228.583
-1010.7
257.622
-1015.96
290.813
-1021.42
328.566
-1027.03
371.398
-1032.69
419.921
-1038.2
474.673
-1043.2
535.983
-1047.2
604.191
-1049.69
679.342
-1050.34
761.29
-1049.38
849.844
-1047.78
945.479
-1047.45
1050.02
-1051.55
1166.91
-1064.12
1301.85
-1089.24
1463.01
-1129.57
1659.56
-1185.29
1898.32
-1254.36
2181.24
-1334.42
2507.73
-1424.54
2877.97
-1525.26
3291.67
-1637.75
3750.35
-1765.02
4264.82
-1907.61
4842.91
-2061.42
5487.19
-2220.15
6187.72
-2376.85
6921.77
-2525.13
7665.36
-2660.56
8402.27
-2778.93
9120.07
-2869.23
9794.41
-2904.83
10354.9
-2840.35
10654.9
-2614.92
10460.5
-2158.45
9453.89
-1430.67
7285.93
-551.033
3910.43
5.70492
771.837
-174.665
-426.236
-357.907
-117.185
-329.934
-34.1006
-217.833
-1010.49
-203.297
70.2717
-137.799
369.06
-93.1785
268.679
-58.6308
178.089
-42.3457
160.469
-18.9192
181.104
6.17602
194.379
12.2589
161.129
9.35438
204.136
26.4157
469.382
50.973
745.278
73.1666
912.805
91.2395
975.892
104.665
950.654
110.864
831.731
113.905
654.712
127.15
498.972
152.031
467.053
158.752
518.256
532.317
-982.672
88.1894
-984.15
89.683
-986.008
88.1629
-988.176
87.4034
-990.498
89.3089
-992.95
92.4942
-995.504
97.4506
-998.163
103.992
-1000.93
112.26
-1003.83
122.362
-1006.88
134.453
-1010.09
148.716
-1013.47
165.382
-1017.05
184.72
-1020.81
206.994
-1024.76
232.532
-1028.87
261.729
-1033.1
295.044
-1037.4
332.864
-1041.63
375.633
-1045.67
423.958
-1049.25
478.255
-1052.03
538.763
-1053.64
605.792
-1053.8
679.502
-1052.61
760.104
-1050.84
848.079
-1050.05
944.68
-1052.6
1052.58
-1061.73
1176.04
-1081
1321.11
-1113.34
1495.35
-1160.1
1706.33
-1220.56
1958.78
-1292.67
2253.35
-1374.75
2589.8
-1466.61
2969.83
-1569.53
3394.59
-1685.14
3865.97
-1815.27
4394.95
-1959.98
4987.62
-2114.75
5641.96
-2272.91
6345.87
-2427.55
7076.41
-2572.92
7810.74
-2704.82
8534.17
-2817.55
9232.8
-2895.96
9872.82
-2908.24
10367.2
-2804.16
10550.8
-2518.75
10175.1
-1983.57
8918.71
-1186.8
6489.17
-336.855
3060.49
-88.3228
523.305
-373.54
-141.019
-407.019
-83.7062
-295.675
-145.445
-219.432
-1086.73
-181.782
32.6216
-118.786
306.064
-80.8688
230.762
-46.2467
143.467
-30.2106
144.434
-8.54944
159.443
13.7176
172.112
17.6254
157.222
13.4672
208.295
29.2493
453.6
53.4783
721.049
74.4436
891.839
90.807
959.529
102.376
939.085
106.443
827.664
106.516
654.638
114.919
490.569
135.893
446.079
142.038
512.11
571.239
-1008.05
88.4963
-1009.22
90.8535
-1010.7
89.6428
-1012.49
89.1901
-1014.37
91.1979
-1016.37
94.4923
-1018.45
99.5239
-1020.6
106.145
-1022.84
114.498
-1025.17
124.697
-1027.62
136.902
-1030.2
151.291
-1032.9
168.084
-1035.73
187.548
-1038.68
209.943
-1041.72
235.573
-1044.8
264.815
-1047.86
298.106
-1050.81
335.814
-1053.49
378.309
-1055.74
426.209
-1057.34
479.853
-1058.04
539.464
-1057.67
605.426
-1056.32
678.15
-1054.52
758.298
-1053.48
847.048
-1055.16
946.358
-1062.07
1059.48
-1077.13
1191.11
-1103.14
1347.12
-1141.99
1534.2
-1194.03
1758.37
-1258.09
2022.84
-1332.49
2327.75
-1416.3
2673.61
-1509.93
3063.46
-1615.04
3499.7
-1733.64
3984.57
-1866.52
4527.82
-2012.97
5134.07
-2168.21
5797.19
-2325.37
6503.03
-2477.8
7228.85
-2620.4
7953.34
-2748.78
8662.55
-2854.99
9339.01
-2919.25
9937.08
-2904.21
10352.2
-2754.49
10401.1
-2401.68
9822.32
-1784.18
8301.21
-935.392
5640.38
-210.788
2335.88
-175.535
488.054
-358.765
42.2115
-397.102
-45.3691
-284.79
-257.757
-207.252
-1164.27
-155.344
-19.2862
-97.6889
248.409
-67.8713
200.944
-29.8084
105.404
-12.1865
126.812
6.09256
141.165
22.0733
156.132
22.6852
156.61
17.5543
213.426
32.1462
439.008
56.2414
696.954
75.9665
872.114
90.6136
944.881
100.312
929.387
102.489
825.486
100.226
656.901
104.102
486.691
121.122
429.058
126.219
507.011
605.44
-1031.66
89.0201
-1032.37
91.5653
-1033.35
90.6275
-1034.66
90.4929
-1036.04
92.5822
-1037.53
95.9809
-1039.08
101.078
-1040.7
107.767
-1042.39
116.186
-1044.15
126.454
-1045.98
138.736
-1047.89
153.203
-1049.87
170.063
-1051.9
189.575
-1053.95
211.997
-1055.99
237.608
-1057.94
266.765
-1059.72
299.884
-1061.22
337.321
-1062.31
379.398
-1062.86
426.759
-1062.74
479.736
-1061.89
538.614
-1060.41
603.939
-1058.72
676.463
-1057.73
757.313
-1058.99
848.299
-1064.54
951.91
-1076.74
1071.69
-1098
1212.36
-1130.29
1379.41
-1174.62
1578.53
-1230.76
1814.51
-1297.48
2089.57
-1373.64
2403.91
-1459.05
2759.02
-1554.53
3158.94
-1661.84
3607.02
-1783.22
4105.95
-1918.65
4663.26
-2066.41
5281.84
-2221.64
5952.42
-2377.45
6658.84
-2527.64
7379.04
-2667.63
8093.33
-2792.35
8787.26
-2890.8
9437.46
-2938.1
9984.38
-2891.1
10305.2
-2689.18
10199.2
-2262.9
9396.05
-1568.62
7606.92
-705.243
4777.01
-214.942
1845.58
-219.709
492.822
-280.854
103.357
-417.495
91.2706
-261.414
-413.838
-189.493
-1236.19
-130.959
-77.8199
-84.5404
201.99
-67.765
184.169
-25.5314
63.171
-1.02557
102.306
23.1588
116.981
33.6455
145.645
27.3646
162.892
21.2824
219.508
35.3305
424.96
58.9239
673.361
77.4586
853.579
90.4505
931.89
98.3902
921.447
98.9179
824.958
94.7739
661.045
94.6439
486.821
107.742
415.959
112.83
501.922
639.223
-1052.1
89.5515
-1052.38
91.8406
-1052.89
91.1418
-1053.73
91.3322
-1054.64
93.4956
-1055.66
96.9919
-1056.72
102.142
-1057.83
108.88
-1058.98
117.337
-1060.17
127.637
-1061.38
139.946
-1062.6
154.43
-1063.83
171.283
-1065.01
190.756
-1066.12
213.109
-1067.11
238.599
-1067.91
267.566
-1068.43
300.41
-1068.61
337.493
-1068.34
379.136
-1067.6
426.015
-1066.4
478.532
-1064.89
537.102
-1063.43
602.479
-1062.75
675.786
-1064
758.567
-1068.82
853.119
-1079.17
962.254
-1097.02
1089.55
-1124.17
1239.51
-1161.88
1417.11
-1210.57
1627.23
-1269.77
1873.7
-1338.45
2158.25
-1416.05
2481.51
-1503.01
2845.98
-1600.42
3256.35
-1709.98
3716.58
-1833.83
4229.8
-1971.5
4800.92
-2120.14
5430.48
-2274.89
6107.17
-2429.09
6813.04
-2577.1
7527.06
-2714.62
8230.84
-2835.27
8907.92
-2924.29
9526.48
-2951.24
10011.3
-2867.07
10221
-2606.4
9938.5
-2101.29
8890.94
-1337.6
6843.22
-479.332
3918.74
2.2277
1364.02
-14.8234
509.874
-110.206
198.739
-206.883
187.948
-171.75
-448.971
-188.426
-1219.51
-122.006
-144.24
-88.2961
168.28
-82.1234
177.997
-40.8912
21.9394
-21.4782
82.8937
21.158
74.3448
44.4945
122.309
33.2581
174.128
24.5013
228.265
38.94
410.522
61.4369
650.864
79.0213
835.995
90.3093
920.601
96.5554
915.2
95.6575
825.855
89.9547
666.747
86.44
490.334
95.8534
406.544
99.8875
497.886
668.638
-1068.7
89.9344
-1068.61
91.7447
-1068.72
91.2526
-1069.15
91.7613
-1069.64
93.9936
-1070.23
97.574
-1070.84
102.759
-1071.48
109.52
-1072.13
117.981
-1072.76
128.268
-1073.36
140.55
-1073.92
154.99
-1074.41
171.769
-1074.78
191.131
-1075.02
213.343
-1075.07
238.653
-1074.89
267.387
-1074.42
299.941
-1073.64
336.707
-1072.56
378.061
-1071.24
424.698
-1069.87
477.16
-1068.8
536.027
-1068.6
602.283
-1070.2
677.385
-1074.82
763.192
-1084.03
862.323
-1099.51
977.736
-1122.81
1112.84
-1155.13
1271.84
-1197.24
1459.22
-1249.25
1679.24
-1310.67
1935.12
-1380.83
2228.41
-1459.69
2560.37
-1548.19
2934.48
-1647.6
3355.75
-1759.42
3828.41
-1885.43
4355.81
-2024.86
4940.35
-2173.96
5579.58
-2327.8
6261.01
-2480.26
6965.5
-2626.23
7673.03
-2761.3
8365.91
-2877.19
9023.81
-2954.66
9603.95
-2957.48
10014.2
-2830.81
10094.3
-2505.55
9613.24
-1919.03
8304.42
-1097.2
6021.4
-283.416
3104.96
128.193
952.416
194.324
443.742
124.643
268.421
83.9813
228.609
14.7071
-379.698
-138.819
-1065.99
-92.4343
-190.625
-50.0968
125.942
-29.8854
157.786
27.6366
-35.5821
2.95034
107.58
16.2688
61.0267
32.4509
106.127
33.5404
173.039
28.6462
233.159
43.072
396.096
63.7878
630.148
81.0224
818.76
90.55
911.074
94.8383
910.912
92.6554
828.038
85.625
673.777
79.3271
496.631
85.3368
400.534
87.5433
495.679
695.731
-1081.3
90.0444
-1080.89
91.3322
-1080.67
91.0285
-1080.74
91.8379
-1080.88
94.1363
-1081.1
97.7862
-1081.33
102.989
-1081.55
109.748
-1081.76
118.185
-1081.91
128.425
-1082
140.638
-1082.01
154.993
-1081.9
171.66
-1081.65
190.881
-1081.24
212.931
-1080.65
238.07
-1079.88
266.613
-1078.91
298.972
-1077.79
335.587
-1076.66
376.929
-1075.67
423.708
-1075.14
476.637
-1075.6
536.479
-1077.74
604.429
-1082.56
682.198
-1091.23
771.863
-1105.09
876.188
-1125.52
998.164
-1153.63
1140.95
-1190.21
1308.42
-1235.71
1504.72
-1290.15
1733.68
-1353.18
1998.16
-1424.53
2299.75
-1504.59
2640.44
-1594.63
3024.52
-1696.03
3457.15
-1810.07
3942.45
-1937.93
4483.67
-2078.55
5080.97
-2227.7
5728.73
-2380.28
6413.59
-2530.94
7116.17
-2675.03
7817.12
-2807.56
8498.44
-2917.65
9133.9
-2981.16
9667.47
-2955.95
9988.94
-2781.41
9919.81
-2384.8
9216.63
-1716.08
7635.71
-846.983
5152.3
-124.403
2382.38
170.856
657.158
438.636
175.961
389.131
317.926
344.532
273.208
319.285
-354.45
115.743
-862.448
80.7401
-155.622
96.8483
109.834
70.6881
183.946
109.776
-74.6692
87.3714
129.986
66.2305
82.1682
37.8985
134.459
29.1796
181.758
31.2771
231.062
46.9918
380.381
66.0569
611.083
83.2953
801.521
91.1497
903.219
93.2561
908.805
89.8753
831.418
81.6662
681.985
73.1405
505.156
76.172
397.5
77.7826
494.067
720.976
-1090.4
89.7827
-1089.72
90.6605
-1089.25
90.5499
-1089.05
91.6392
-1088.92
94.0069
-1088.85
97.7182
-1088.79
102.93
-1088.72
109.678
-1088.62
118.08
-1088.45
128.262
-1088.21
140.398
-1087.88
154.663
-1087.45
171.228
-1086.9
190.33
-1086.24
212.265
-1085.48
237.314
-1084.66
265.796
-1083.83
298.144
-1083.12
334.875
-1082.75
376.559
-1082.98
423.932
-1084.21
477.871
-1087.05
539.319
-1092.26
609.637
-1100.77
690.707
-1113.64
784.734
-1131.95
894.495
-1156.73
1022.95
-1188.8
1173.01
-1228.67
1348.3
-1276.68
1552.72
-1332.88
1789.88
-1397.14
2062.43
-1469.52
2372.13
-1550.78
2721.7
-1642.37
3116.1
-1745.7
3560.48
-1861.82
4058.57
-1991.2
4613.06
-2132.4
5222.16
-2281.15
5877.48
-2432.24
6564.68
-2581.13
7265.05
-2723.47
7959.46
-2853.19
8628.16
-2956.19
9236.9
-3003.15
9714.43
-2946.01
9931.8
-2718.39
9692.19
-2242.95
8741.19
-1487.81
6880.57
-589.331
4253.82
72.6637
1720.38
357.77
372.051
547.249
-13.5181
551.774
313.4
587.459
237.522
616.993
-383.984
374.766
-620.223
163.835
55.3093
-140.994
414.663
-378.404
421.356
-403.97
-49.1032
-252.341
-21.6438
-67.0683
-103.104
56.7502
10.6408
54.48
184.029
30.4134
255.129
50.0728
360.722
69.3421
591.814
85.657
785.206
91.8562
897.02
91.7711
908.89
87.2404
835.949
77.9601
691.265
67.7691
515.347
68.1471
397.122
67.4934
494.72
742.097
-1097.31
89.1106
-1096.47
89.8199
-1095.84
89.9256
-1095.48
91.2773
-1095.2
93.7271
-1094.99
97.5039
-1094.79
102.733
-1094.59
109.481
-1094.38
117.864
-1094.12
128.008
-1093.82
140.094
-1093.46
154.307
-1093.06
170.826
-1092.62
189.89
-1092.17
211.813
-1091.77
236.914
-1091.49
265.523
-1091.45
298.106
-1091.84
335.263
-1092.94
377.652
-1095.06
426.054
-1098.66
481.475
-1104.37
545.029
-1112.92
618.186
-1125.13
702.922
-1141.91
801.513
-1164.09
916.674
-1192.44
1051.29
-1227.57
1208.14
-1269.89
1390.62
-1319.71
1602.54
-1377.2
1847.37
-1442.45
2127.68
-1515.81
2445.48
-1598.29
2804.18
-1691.41
3209.23
-1796.55
3665.62
-1914.5
4176.52
-2045.06
4743.62
-2186.29
5363.39
-2334.16
6025.35
-2483.65
6714.17
-2630.82
7412.22
-2771.49
8100.13
-2897.95
8754.62
-2992.45
9331.39
-3020.33
9742.31
-2927.39
9838.85
-2640.23
9405.03
-2078.37
8179.33
-1232.1
6034.3
-317.295
3339.01
267.608
1135.48
563.4
76.2605
598.834
-48.9522
671.589
240.645
813.94
95.171
764.424
-334.468
219.401
-75.1996
-462.472
737.182
-1018.6
970.794
-1273.84
676.596
-1259.31
-63.6341
-988.185
-292.769
-590.127
-501.162
-163.174
-416.312
57.9723
-37.1177
52.0603
261.041
53.4601
359.322
73.6134
571.66
88.0512
770.768
92.7112
892.359
90.4958
911.105
84.6913
841.753
74.3989
701.557
63.1015
526.643
61.0861
399.135
60.0699
495.734
763.069
-1104.14
88.0823
-1103.26
88.9422
-1102.63
89.2921
-1102.25
90.8969
-1101.97
93.4512
-1101.78
97.3113
-1101.63
102.582
-1101.5
109.359
-1101.4
117.761
-1101.31
127.916
-1101.22
140.008
-1101.16
154.242
-1101.14
170.81
-1101.21
189.954
-1101.4
212.009
-1101.82
237.334
-1102.58
266.282
-1103.83
299.356
-1105.8
337.235
-1108.8
380.651
-1113.19
430.438
-1119.41
487.696
-1128.06
553.685
-1139.82
629.942
-1155.38
718.48
-1175.48
821.617
-1200.79
941.982
-1231.88
1082.38
-1269.27
1245.54
-1313.36
1434.72
-1364.5
1653.68
-1422.98
1905.85
-1489.08
2193.78
-1563.4
2519.8
-1647.12
2887.9
-1741.75
3303.86
-1848.53
3772.4
-1967.97
4295.97
-2099.29
4874.94
-2240.08
5504.18
-2386.62
6171.89
-2534.46
6862.01
-2680.03
7557.79
-2819.01
8239.11
-2941.67
8877.28
-3026.24
9415.97
-3032.54
9748.61
-2898.97
9705.28
-2541.41
9047.48
-1878.07
7515.98
-947.326
5103.56
-37.8413
2429.53
458.637
639.002
673.382
-138.486
662.427
-37.9976
834.118
68.9535
958.365
-29.077
474.312
149.586
-537.943
937.055
-1376.29
1575.53
-1874.65
1469.15
-2049.27
851.221
-2022.52
-90.3899
-1753.7
-561.589
-1297.99
-956.868
-703.913
-1010.39
-128.373
-612.657
91.013
41.6553
63.6036
386.732
74.6569
560.607
89.6345
755.791
94.0859
887.908
89.5815
915.61
82.1712
849.163
70.9191
712.809
59.057
538.505
54.8086
403.383
52.7397
497.802
783.702
-1113.43
86.8338
-1112.67
88.1786
-1112.17
88.792
-1111.92
90.648
-1111.8
93.3336
-1111.79
97.3032
-1111.86
102.649
-1112
109.498
-1112.21
117.973
-1112.5
128.202
-1112.87
140.378
-1113.35
154.722
-1113.99
171.45
-1114.84
190.807
-1115.98
213.148
-1117.52
238.87
-1119.59
268.356
-1122.39
302.152
-1126.15
340.998
-1131.19
385.691
-1137.86
437.112
-1146.6
496.437
-1157.95
565.034
-1172.5
644.486
-1190.82
736.809
-1213.56
844.35
-1241.24
969.665
-1274.35
1115.48
-1313.36
1284.56
-1358.74
1480.09
-1410.86
1705.81
-1470.14
1965.13
-1537.03
2260.67
-1612.32
2595.08
-1697.28
2972.87
-1793.35
3399.92
-1901.55
3880.6
-2022.08
4416.49
-2153.67
5006.53
-2293.61
5644.13
-2438.49
6316.77
-2584.65
7008.17
-2728.78
7701.92
-2865.98
8376.31
-2984.21
8995.51
-3057.43
9489.18
-3039.38
9730.56
-2859.24
9525.14
-2418.07
8606.31
-1628.15
6726.06