/*--------------------------------*- C++ -*----------------------------------*\
| =========                 |                                                 |
| \\      /  F ield         | OpenFOAM: The Open Source CFD Toolbox           |
|  \\    /   O peration     | Version:  4.1                                   |
|   \\  /    A nd           | Web:      www.OpenFOAM.org                      |
|    \\/     M anipulation  |                                                 |
\*---------------------------------------------------------------------------*/
FoamFile
{
    version     2.0;
    format      ascii;
    class       volSymmTensorField;
    location    "23";
    object      turbulenceProperties:R;
}
// * * * * * * * * * * * * * * * * * * * * * * * * * * * * * * * * * * * * * //

dimensions      [0 2 -2 0 0 0 0];

internalField   nonuniform List<symmTensor> 
6785
(
(0.753313 1.43348e-19 7.34592e-20 0.753188 0.000167283 0.753499)
(0.753354 -1.16678e-19 -5.77057e-20 0.75332 6.75077e-06 0.753325)
(0.753325 -3.01461e-20 -2.35857e-20 0.75336 3.86232e-05 0.753315)
(0.753334 2.16129e-20 1.51288e-20 0.753345 2.66531e-05 0.753321)
(0.753331 -2.7061e-20 -7.43221e-21 0.753347 2.7155e-05 0.753322)
(0.753332 1.3823e-20 -2.39621e-21 0.753343 2.41329e-05 0.753324)
(0.753332 1.669e-21 6.39399e-21 0.753342 2.22694e-05 0.753326)
(0.753333 -2.15093e-20 -4.29444e-21 0.75334 2.02675e-05 0.753328)
(0.753333 7.0339e-21 -4.67706e-21 0.753337 1.85775e-05 0.75333)
(0.753333 3.09466e-21 4.39894e-21 0.753334 1.7495e-05 0.753333)
(0.753332 -1.41078e-20 -3.48612e-21 0.753332 1.71634e-05 0.753336)
(0.753334 4.45213e-21 -1.73523e-21 0.753326 1.37987e-05 0.75334)
(0.753334 9.07762e-22 4.70998e-21 0.753325 8.22316e-06 0.753341)
(0.753319 -6.61381e-21 1.62383e-21 0.753357 9.99842e-06 0.753324)
(0.753346 3.47649e-21 -2.02685e-21 0.753389 -7.82771e-05 0.753265)
(0.75333 1.99508e-19 1.28282e-19 0.753005 0.000219843 0.753665)
(0.753351 -1.39731e-19 -8.29603e-20 0.753339 -1.65123e-05 0.75331)
(0.753325 -5.28987e-20 -3.125e-20 0.753377 1.13012e-05 0.753298)
(0.753341 1.27293e-20 2.82954e-20 0.753351 -7.1027e-06 0.753308)
(0.753333 -2.08955e-20 -1.19923e-20 0.753361 5.29507e-07 0.753306)
(0.753336 9.64447e-21 4.5618e-21 0.753354 -3.48041e-06 0.75331)
(0.753335 -1.30946e-20 6.2379e-21 0.753354 -2.85433e-06 0.753311)
(0.753335 -1.19571e-20 -6.6415e-21 0.753352 -3.89945e-06 0.753313)
(0.753335 4.6277e-21 1.9666e-21 0.753351 -4.31456e-06 0.753314)
(0.753335 -6.51556e-21 7.50939e-21 0.753351 -5.40096e-06 0.753315)
(0.753334 -6.73528e-21 -4.00523e-21 0.753354 -8.36795e-06 0.753312)
(0.753334 3.04255e-22 -3.07751e-22 0.753365 -1.79442e-05 0.753301)
(0.753335 -6.03551e-21 2.8817e-21 0.753387 -3.69848e-05 0.753278)
(0.753336 -3.63146e-21 -1.62177e-21 0.753396 -5.26849e-05 0.753268)
(0.753332 7.7032e-21 5.62741e-21 0.753328 -1.14099e-05 0.753341)
(0.75333 2.33428e-19 6.87518e-20 0.752971 0.000218203 0.753699)
(0.753339 -1.45327e-19 -8.27772e-20 0.753347 -1.73436e-05 0.753314)
(0.753325 -4.77615e-20 -2.85846e-20 0.75337 -3.09048e-06 0.753305)
(0.753338 4.27385e-20 -2.26355e-20 0.753349 -1.8545e-05 0.753313)
(0.753329 -2.06143e-20 -1.13884e-20 0.75336 -8.32644e-06 0.753311)
(0.753334 6.88149e-21 3.46538e-21 0.753351 -1.43308e-05 0.753315)
(0.753332 6.32091e-21 -2.74097e-20 0.753353 -1.11443e-05 0.753315)
(0.753333 -9.50068e-21 -4.65182e-21 0.753349 -1.18841e-05 0.753318)
(0.753333 3.57978e-21 1.91741e-21 0.753347 -1.06826e-05 0.75332)
(0.753333 1.19899e-20 -2.38981e-20 0.753347 -1.14636e-05 0.75332)
(0.753333 -4.85856e-21 3.11194e-21 0.753352 -1.36014e-05 0.753315)
(0.753333 -5.32876e-21 -2.84019e-21 0.753364 -2.08254e-05 0.753303)
(0.753332 2.8481e-21 -1.46529e-20 0.753393 -3.12208e-05 0.753276)
(0.753339 -7.77266e-21 6.47419e-22 0.753409 -5.11773e-05 0.753252)
(0.753329 1.52818e-20 1.06519e-20 0.753329 2.02125e-05 0.753342)
(0.753332 2.01561e-19 1.3744e-19 0.752974 0.000208389 0.753694)
(0.753336 -1.31182e-19 -1.07393e-19 0.753349 -1.53153e-05 0.753315)
(0.753329 -5.34907e-20 -1.86045e-20 0.753366 -1.00436e-05 0.753305)
(0.753338 9.45596e-21 7.13542e-21 0.753351 -2.06485e-05 0.753311)
(0.75333 -2.81249e-21 -2.43164e-20 0.753362 -1.01719e-05 0.753308)
(0.753336 1.76474e-21 1.18495e-20 0.753353 -1.73706e-05 0.753311)
(0.753332 -1.51959e-20 -6.64555e-21 0.753357 -1.22356e-05 0.753311)
(0.753334 5.28371e-21 -1.71693e-20 0.753351 -1.47104e-05 0.753315)
(0.753333 -2.65183e-21 5.05507e-21 0.753349 -1.42212e-05 0.753318)
(0.753333 -1.71712e-20 -9.83609e-21 0.753344 -1.61314e-05 0.753322)
(0.753333 9.30138e-21 -1.33833e-20 0.753344 -1.61426e-05 0.753323)
(0.753334 2.5858e-21 6.14113e-21 0.753349 -1.63511e-05 0.753317)
(0.753333 -2.90676e-20 -1.60761e-20 0.753364 -1.60837e-05 0.753303)
(0.753335 -6.2702e-21 -5.92835e-21 0.753379 -1.74236e-05 0.753286)
(0.753331 4.76066e-20 2.96702e-20 0.753406 -1.58132e-05 0.753262)
(0.753333 1.97978e-19 9.37889e-20 0.752974 0.000211377 0.753693)
(0.753336 -1.26235e-19 -1.04131e-19 0.753352 -1.26129e-05 0.753312)
(0.75333 -2.99815e-20 -3.09027e-20 0.753365 -9.21037e-06 0.753304)
(0.753337 7.63355e-21 -4.48875e-21 0.753356 -1.66902e-05 0.753307)
(0.753331 3.61039e-21 -2.95947e-20 0.753363 -8.00693e-06 0.753306)
(0.753335 2.96919e-21 -8.15382e-21 0.753357 -1.3471e-05 0.753308)
(0.753332 -9.83706e-21 -1.46902e-20 0.753365 -1.15323e-05 0.753303)
(0.753334 1.49048e-20 -1.25321e-20 0.753372 -2.04688e-05 0.753294)
(0.753333 1.38925e-20 2.82172e-21 0.753377 -2.59685e-05 0.75329)
(0.753334 1.36776e-20 -4.29511e-23 0.753363 -2.49764e-05 0.753303)
(0.753333 1.35327e-20 -5.39936e-21 0.753336 -1.44662e-05 0.75333)
(0.753333 -2.0555e-20 -1.70343e-20 0.753314 -4.52595e-06 0.753353)
(0.753334 -5.05861e-20 -3.42541e-20 0.75331 -1.73679e-06 0.753356)
(0.753331 1.0866e-21 -1.22923e-20 0.753335 -1.11642e-06 0.753334)
(0.753333 5.60249e-20 2.56599e-20 0.753458 -6.71328e-05 0.753209)
(0.753332 1.70336e-19 1.22192e-19 0.752954 0.000222464 0.753714)
(0.753336 -1.4658e-19 -6.38082e-20 0.753353 -9.87242e-06 0.753311)
(0.75333 -4.59825e-20 1.39569e-20 0.753365 -7.52538e-06 0.753304)
(0.753336 6.82978e-21 2.10357e-21 0.753356 -1.26958e-05 0.753308)
(0.753331 -1.19368e-20 3.5869e-21 0.753361 -5.75035e-06 0.753308)
(0.753335 -1.231e-20 2.36545e-20 0.753355 -9.60126e-06 0.75331)
(0.753332 -1.0712e-20 -6.44265e-21 0.753365 -9.27866e-06 0.753303)
(0.753334 4.75915e-21 1.33907e-20 0.753379 -2.02264e-05 0.753287)
(0.753333 1.92009e-20 2.3096e-20 0.753398 -2.81242e-05 0.753269)
(0.753333 2.39024e-20 1.33718e-20 0.753399 -3.0772e-05 0.753268)
(0.753333 -4.53779e-21 -2.96398e-22 0.753383 -2.56756e-05 0.753284)
(0.753333 -3.42615e-20 -1.67858e-20 0.753352 -1.72053e-05 0.753315)
(0.753333 -3.56265e-20 -2.40568e-20 0.753312 -4.28478e-06 0.753355)
(0.75333 -7.29462e-21 -5.38307e-21 0.753292 4.84122e-06 0.753377)
(0.753335 3.83302e-20 3.14336e-20 0.753371 -4.72454e-05 0.753294)
(0.753332 1.66954e-19 1.2127e-19 0.752935 0.00022541 0.753733)
(0.753336 -1.42584e-19 -6.04922e-20 0.753339 -2.5673e-06 0.753325)
(0.753331 -6.27125e-20 -3.20442e-21 0.753371 -1.39988e-05 0.753298)
(0.753336 6.30874e-21 4.07983e-21 0.753354 -1.45412e-05 0.753311)
(0.753331 -1.71021e-20 8.20928e-21 0.753356 -7.91447e-06 0.753312)
(0.753335 -1.32711e-20 1.60834e-20 0.75335 -1.17822e-05 0.753315)
(0.753332 -5.21261e-21 -4.31184e-21 0.753356 -9.47018e-06 0.753312)
(0.753334 -1.36514e-20 1.25793e-20 0.753364 -1.65447e-05 0.753302)
(0.753333 6.53711e-21 2.53497e-20 0.753382 -2.09751e-05 0.753285)
(0.753334 2.17693e-20 1.30156e-20 0.753395 -2.55135e-05 0.753271)
(0.753334 -9.24046e-21 2.75234e-21 0.753401 -2.6729e-05 0.753265)
(0.753334 1.4615e-21 4.09494e-21 0.753404 -2.89618e-05 0.753262)
(0.753333 -9.06056e-21 -1.04119e-20 0.753392 -2.55835e-05 0.753275)
(0.753338 -6.47259e-20 -3.92659e-20 0.753341 -1.70858e-05 0.753321)
(0.753333 5.93815e-20 3.29026e-20 0.753263 2.43055e-05 0.753404)
(0.753333 1.93652e-19 9.32479e-20 0.752948 0.000211691 0.75372)
(0.753335 -1.01278e-19 -6.31883e-20 0.753312 9.09812e-06 0.753353)
(0.753332 -6.13213e-20 -6.02836e-20 0.753376 -2.1413e-05 0.753292)
(0.753335 -1.4566e-21 7.76005e-21 0.753358 -2.06467e-05 0.753307)
(0.753332 -4.25649e-21 -4.00664e-21 0.753355 -1.2828e-05 0.753313)
(0.753335 7.41162e-21 -9.94077e-21 0.75335 -1.59987e-05 0.753315)
(0.753333 -8.03209e-21 -3.6816e-21 0.753352 -1.35812e-05 0.753315)
(0.753334 -2.53101e-21 -3.3979e-21 0.753353 -1.65886e-05 0.753313)
(0.753333 7.91905e-21 -7.74216e-21 0.75336 -1.71368e-05 0.753307)
(0.753334 4.21616e-21 2.56933e-21 0.753368 -1.85705e-05 0.753298)
(0.753333 1.26706e-21 1.01385e-21 0.753377 -1.84769e-05 0.75329)
(0.753334 6.63182e-21 -1.69974e-21 0.753385 -1.97311e-05 0.753282)
(0.753332 9.51764e-21 7.09921e-21 0.753396 -1.79461e-05 0.753272)
(0.753339 -3.53891e-20 -2.39649e-20 0.753398 -3.32788e-05 0.753264)
(0.75333 9.55299e-21 3.72919e-21 0.753314 2.10198e-05 0.753356)
(0.753333 1.90173e-19 1.1213e-19 0.752977 0.000195146 0.753689)
(0.753334 -7.85836e-20 -4.83198e-20 0.753291 2.08071e-05 0.753376)
(0.753332 -6.7672e-20 -7.63964e-20 0.753377 -2.45662e-05 0.753291)
(0.753335 -8.38982e-21 -4.60848e-21 0.753365 -2.38397e-05 0.753301)
(0.753332 -1.84625e-21 -1.92513e-21 0.753357 -1.52619e-05 0.75331)
(0.753334 1.07656e-20 -1.82132e-20 0.753353 -1.67331e-05 0.753313)
(0.753333 9.31739e-22 1.3572e-22 0.753354 -1.47757e-05 0.753314)
(0.753333 -3.88253e-21 -3.35233e-21 0.753353 -1.601e-05 0.753313)
(0.753333 7.22197e-21 -1.80813e-20 0.753355 -1.54766e-05 0.753312)
(0.753333 5.00786e-21 2.90522e-21 0.753357 -1.57418e-05 0.75331)
(0.753333 -4.70891e-21 -3.15359e-21 0.753362 -1.56155e-05 0.753305)
(0.753333 2.68252e-21 -9.83671e-21 0.753367 -1.69761e-05 0.753299)
(0.753332 1.5465e-20 1.08667e-20 0.753379 -1.85885e-05 0.753288)
(0.753336 -4.11989e-20 -2.3846e-20 0.753395 -3.31763e-05 0.753269)
(0.753329 1.7448e-20 1.21695e-20 0.753355 4.35697e-06 0.753316)
(0.753334 2.03132e-19 9.57343e-20 0.753001 0.000185708 0.753665)
(0.753333 -6.27205e-20 -3.81174e-20 0.75328 2.76901e-05 0.753386)
(0.753333 -8.54584e-20 -6.34081e-20 0.753376 -2.46617e-05 0.753292)
(0.753334 1.60329e-22 -2.52065e-20 0.753368 -2.42286e-05 0.753297)
(0.753332 2.61744e-21 1.06706e-21 0.753359 -1.55244e-05 0.753309)
(0.753334 3.90984e-21 -9.66977e-21 0.753354 -1.54926e-05 0.753312)
(0.753333 1.20635e-20 -1.53832e-20 0.753354 -1.3487e-05 0.753313)
(0.753334 1.06177e-21 3.65386e-22 0.753353 -1.38611e-05 0.753313)
(0.753333 -6.8828e-22 -9.8566e-21 0.753354 -1.28464e-05 0.753313)
(0.753333 9.14248e-21 -9.57367e-21 0.753354 -1.25901e-05 0.753313)
(0.753333 -2.53046e-21 -4.93188e-22 0.753355 -1.22874e-05 0.753311)
(0.753334 -9.44709e-21 -9.87652e-21 0.753358 -1.33062e-05 0.753308)
(0.753333 1.88293e-20 3.36021e-21 0.753367 -1.51928e-05 0.7533)
(0.753335 -2.00592e-20 -6.35719e-21 0.753388 -2.89881e-05 0.753276)
(0.753332 9.07257e-21 7.26492e-21 0.753378 -1.42711e-05 0.75329)
(0.753334 1.92491e-19 1.01529e-19 0.753014 0.000182222 0.753652)
(0.753333 -6.35765e-20 -2.48961e-20 0.753277 2.87656e-05 0.753389)
(0.753333 -7.22217e-20 -1.08161e-19 0.753373 -2.4708e-05 0.753294)
(0.753334 -1.20752e-20 -6.07583e-21 0.753369 -2.46339e-05 0.753297)
(0.753333 -1.22744e-20 4.77896e-21 0.753358 -1.58406e-05 0.753309)
(0.753334 8.79605e-21 -3.85692e-20 0.753352 -1.44912e-05 0.753314)
(0.753333 7.61062e-21 9.51761e-21 0.753352 -1.24196e-05 0.753315)
(0.753333 -6.53353e-21 5.68453e-21 0.753351 -1.25008e-05 0.753315)
(0.753333 -4.70375e-21 -3.91893e-20 0.753351 -1.17204e-05 0.753315)
(0.753333 7.0343e-21 8.22789e-21 0.753351 -1.14102e-05 0.753316)
(0.753333 -6.91809e-21 4.9673e-21 0.753351 -1.04775e-05 0.753316)
(0.753334 -8.02272e-21 -2.87793e-20 0.753352 -9.53653e-06 0.753315)
(0.753333 -8.44618e-21 -1.89041e-21 0.753357 -8.47647e-06 0.75331)
(0.753335 -2.47069e-20 -2.39601e-20 0.75338 -2.08118e-05 0.753286)
(0.753332 7.40357e-20 4.79055e-20 0.753411 -3.234e-05 0.753257)
(0.753334 1.92766e-19 1.12243e-19 0.753025 0.000178718 0.753641)
(0.753333 -8.30126e-20 -2.5756e-20 0.753287 2.4311e-05 0.75338)
(0.753333 -9.36423e-20 -8.41452e-20 0.753368 -2.43587e-05 0.753299)
(0.753334 1.23486e-20 8.35195e-21 0.753367 -2.40562e-05 0.753299)
(0.753333 -2.87808e-20 -4.32858e-21 0.753358 -1.64181e-05 0.753309)
(0.753334 -2.63815e-20 -3.32138e-20 0.753352 -1.46522e-05 0.753315)
(0.753333 3.91415e-20 2.40873e-20 0.75335 -1.29371e-05 0.753316)
(0.753334 -2.8176e-21 7.05233e-21 0.753349 -1.3398e-05 0.753317)
(0.753333 -4.21776e-20 -3.35857e-20 0.753349 -1.28083e-05 0.753318)
(0.753333 -1.25961e-21 1.106e-21 0.753347 -1.1194e-05 0.753319)
(0.753333 3.7117e-22 6.99435e-22 0.753344 -7.01524e-06 0.753323)
(0.753333 -1.17602e-20 -1.52104e-20 0.75334 -1.4553e-06 0.753326)
(0.753333 -1.84933e-20 -1.76165e-21 0.753343 2.16117e-06 0.753324)
(0.753334 -3.43298e-20 -2.26269e-20 0.753369 -1.09445e-05 0.753296)
(0.753333 1.06315e-19 6.52401e-20 0.753453 -5.44981e-05 0.753214)
(0.753333 1.83837e-19 8.90701e-20 0.753016 0.000179628 0.753651)
(0.753333 -7.4944e-20 -6.27627e-20 0.753305 1.73114e-05 0.753362)
(0.753333 -1.16543e-19 -4.55281e-20 0.753378 -2.39361e-05 0.753289)
(0.753333 4.06689e-20 2.9053e-21 0.753364 -1.91815e-05 0.753302)
(0.753333 -2.09473e-20 -8.54277e-21 0.753356 -1.55283e-05 0.753312)
(0.753333 -3.33535e-20 -1.89475e-20 0.753353 -1.77892e-05 0.753314)
(0.753333 7.61204e-20 2.88467e-20 0.753352 -1.73643e-05 0.753315)
(0.753333 -1.50005e-20 1.32525e-20 0.753349 -1.77838e-05 0.753318)
(0.753333 -6.51506e-20 -5.03968e-20 0.753346 -1.52446e-05 0.753321)
(0.753333 1.47335e-20 4.3578e-21 0.753338 -9.59974e-06 0.753329)
(0.753333 -1.9566e-20 -4.49256e-21 0.753329 -4.53179e-07 0.753338)
(0.753333 -3.09089e-20 -2.38443e-20 0.753322 9.02155e-06 0.753345)
(0.753333 -1.39341e-21 1.39603e-22 0.753326 1.11056e-05 0.753341)
(0.753333 -4.79582e-20 -1.93725e-20 0.75336 -4.86501e-06 0.753307)
(0.753333 1.27031e-19 6.67614e-20 0.753504 -8.98884e-05 0.753163)
(0.753334 1.45602e-19 8.42069e-20 0.753025 0.000159869 0.753641)
(0.753333 -3.76019e-20 -2.98906e-20 0.753265 3.29932e-05 0.753401)
(0.753334 -1.03222e-19 -1.02956e-19 0.75338 -1.86827e-05 0.753286)
(0.753334 -3.31515e-21 -2.05357e-20 0.753398 -2.20745e-05 0.753268)
(0.753333 5.59655e-21 -7.56866e-21 0.753388 -1.4492e-05 0.753279)
(0.753334 2.70393e-20 1.10184e-20 0.753376 -1.04998e-05 0.75329)
(0.753333 5.39055e-20 3.33024e-20 0.753369 -8.21103e-06 0.753298)
(0.753334 -1.09925e-20 -7.59471e-21 0.753361 -7.59673e-06 0.753306)
(0.753333 -2.86349e-20 -2.05517e-20 0.753348 -3.2624e-06 0.753319)
(0.753334 -2.11784e-20 -1.20733e-20 0.753328 3.8822e-06 0.753338)
(0.753334 -3.38897e-20 -2.54593e-20 0.753307 1.19385e-05 0.753359)
(0.753333 -2.31622e-20 -1.83582e-20 0.753295 1.54873e-05 0.753372)
(0.753334 -2.80142e-20 -8.29395e-21 0.753303 8.08179e-06 0.753363)
(0.753332 -2.40568e-20 -2.46867e-20 0.753355 -1.8723e-05 0.753312)
(0.753334 1.19237e-19 6.31487e-20 0.753504 -0.000109383 0.753162)
(0.753332 7.33777e-20 4.94101e-20 0.753086 0.000118767 0.753582)
(0.753333 5.71263e-20 2.32307e-20 0.75318 4.48071e-05 0.753487)
(0.753333 -3.60547e-20 -3.10194e-21 0.75327 7.4309e-06 0.753396)
(0.753333 -3.87981e-20 -3.14786e-20 0.753326 -9.33246e-06 0.75334)
(0.753333 -1.97442e-20 -3.84972e-20 0.753359 -1.57687e-05 0.753309)
(0.753333 -1.78901e-20 3.69274e-21 0.753379 -1.94795e-05 0.753288)
(0.753333 4.93505e-21 1.23518e-21 0.75339 -1.69785e-05 0.753276)
(0.753333 7.74527e-21 -5.16347e-21 0.753392 -1.39179e-05 0.753275)
(0.753333 -2.03559e-21 7.71891e-21 0.753391 -1.07239e-05 0.753276)
(0.753333 -1.20033e-20 -9.10048e-21 0.753386 -6.93564e-06 0.753281)
(0.753333 -1.49425e-20 -1.81401e-20 0.753371 -1.69593e-06 0.753296)
(0.753333 -1.96846e-20 -1.22185e-20 0.753347 6.24152e-06 0.75332)
(0.753334 -3.89419e-20 -2.87665e-20 0.753327 9.2678e-06 0.753339)
(0.753332 -1.88656e-20 -2.50434e-20 0.753359 -8.86932e-06 0.753309)
(0.753335 7.57762e-20 4.02542e-20 0.753434 -5.08776e-05 0.753232)
(0.75377 4.82972e-21 2.9451e-22 0.752719 0.000493487 0.753511)
(0.753238 5.91755e-21 1.14444e-21 0.753477 0.000525671 0.753285)
(0.753332 3.64493e-21 1.68153e-21 0.753334 7.85556e-05 0.753334)
(0.753335 3.3743e-21 2.07913e-21 0.753316 -1.64436e-05 0.753349)
(0.753335 6.17916e-21 2.66759e-21 0.753313 1.81027e-05 0.753351)
(0.753333 1.15686e-22 1.32979e-21 0.753326 -4.29787e-06 0.753341)
(0.753331 -6.61461e-21 2.64909e-21 0.753323 -1.31716e-05 0.753346)
(0.753336 -1.74268e-21 2.12494e-21 0.753316 -6.07736e-06 0.753348)
(0.753335 -7.48521e-21 1.36932e-21 0.753318 2.19393e-06 0.753348)
(0.753333 -1.11472e-20 -8.09033e-22 0.753327 -2.39057e-06 0.75334)
(0.753331 -7.28348e-21 -1.32719e-21 0.753325 -1.48844e-05 0.753343)
(0.753336 1.94946e-21 -1.54232e-21 0.753316 -9.51455e-07 0.753348)
(0.753333 3.97222e-21 1.48584e-21 0.753329 -3.16495e-06 0.753338)
(0.753332 9.4985e-22 -5.69039e-22 0.753325 -1.24167e-05 0.753343)
(0.753335 -2.01539e-21 -5.5288e-22 0.753321 -6.1813e-06 0.753344)
(0.753334 2.22902e-22 -5.84916e-22 0.753323 -2.15947e-06 0.753343)
(0.753333 1.07901e-22 1.4833e-21 0.75333 -3.15138e-06 0.753337)
(0.753331 -2.91985e-21 -1.03355e-21 0.753329 -1.28928e-05 0.75334)
(0.753337 1.40284e-22 -7.18416e-22 0.753318 -4.46299e-06 0.753345)
(0.753333 9.47671e-22 1.32107e-21 0.753332 -3.03161e-06 0.753335)
(0.753332 8.16975e-22 -5.06928e-22 0.753329 -1.08021e-05 0.753339)
(0.753335 -2.44342e-21 -4.7303e-22 0.753324 -6.24649e-06 0.753341)
(0.753334 -1.97842e-21 -1.26075e-21 0.753326 -5.04023e-06 0.75334)
(0.753333 2.11813e-22 1.32803e-21 0.753333 -2.79499e-06 0.753334)
(0.753332 -1.20805e-21 -6.54386e-22 0.75333 -1.05148e-05 0.753338)
(0.753335 1.14242e-21 -6.97192e-22 0.753325 -7.26145e-06 0.75334)
(0.753334 1.27968e-21 1.3778e-23 0.753328 -6.82907e-06 0.753339)
(0.753333 7.61939e-22 1.24716e-21 0.753335 -2.77875e-06 0.753332)
(0.753331 -1.26832e-22 -1.15056e-22 0.753335 -1.03963e-05 0.753335)
(0.753338 -4.744e-22 -3.41776e-22 0.753321 -8.94834e-06 0.753341)
(0.753333 4.74903e-22 1.08479e-21 0.753337 -2.98626e-06 0.75333)
(0.753332 -8.98771e-22 -9.98739e-23 0.753334 -9.30953e-06 0.753334)
(0.753335 1.54163e-21 -1.74702e-22 0.753328 -8.15825e-06 0.753337)
(0.753334 1.99533e-21 2.31372e-22 0.753331 -9.67067e-06 0.753335)
(0.753333 1.07133e-23 8.97754e-22 0.753337 -2.80312e-06 0.75333)
(0.753331 -4.76247e-22 4.07228e-23 0.753338 -6.44555e-06 0.753331)
(0.753337 4.76324e-22 3.31065e-23 0.753326 -9.31055e-06 0.753337)
(0.753333 1.57305e-22 5.42166e-22 0.753339 -2.23002e-06 0.753329)
(0.753332 1.38056e-21 1.90987e-23 0.753337 -4.624e-06 0.753331)
(0.753335 -4.21876e-22 1.47848e-22 0.753331 -4.56121e-06 0.753334)
(0.753334 -5.29636e-22 8.78264e-23 0.753333 -7.82791e-06 0.753333)
(0.753333 1.04724e-21 -7.88759e-23 0.753338 -1.41324e-06 0.753329)
(0.753332 2.51197e-21 2.63054e-22 0.753337 -2.8194e-06 0.753331)
(0.753335 3.53025e-21 5.76346e-22 0.753332 -3.42035e-06 0.753333)
(0.753334 3.85515e-21 9.96268e-22 0.753334 -6.38743e-06 0.753332)
(0.753333 3.11992e-21 6.55376e-22 0.753335 -9.984e-07 0.753332)
(0.753332 2.18594e-21 1.54073e-21 0.753337 -2.15646e-06 0.75333)
(0.753336 6.55942e-21 2.17415e-21 0.75333 -6.10967e-06 0.753334)
(0.753333 7.97891e-22 2.21443e-21 0.753336 -2.80798e-07 0.753331)
(0.753333 -2.35161e-21 2.58823e-21 0.753336 -1.83121e-06 0.753331)
(0.753334 3.23628e-21 2.28796e-21 0.753333 -1.82404e-06 0.753332)
(0.753333 6.66391e-21 2.91117e-21 0.753336 -5.45828e-06 0.753331)
(0.753333 1.76791e-21 1.60012e-21 0.753339 1.82831e-06 0.753328)
(0.753332 3.15481e-22 3.21219e-21 0.753337 8.39342e-07 0.75333)
(0.753334 -3.45371e-22 3.21847e-21 0.753333 -1.41665e-06 0.753333)
(0.753333 1.77237e-21 3.46201e-21 0.753336 -2.3532e-06 0.753332)
(0.753334 6.84221e-22 1.0878e-21 0.753342 7.1713e-06 0.753324)
(0.753331 3.2642e-21 3.49094e-21 0.753336 1.57724e-06 0.753332)
(0.753334 1.36815e-20 4.66168e-21 0.75333 7.32751e-06 0.753336)
(0.753334 1.87705e-21 4.0017e-22 0.753347 1.70025e-05 0.753319)
(0.753328 -5.16707e-21 5.01818e-21 0.753336 6.42851e-06 0.753337)
(0.753336 5.84134e-21 4.78395e-21 0.753317 3.00803e-06 0.753346)
(0.753335 -1.45234e-20 3.67902e-21 0.753318 3.43685e-06 0.753347)
(0.753333 -7.75684e-21 -2.7647e-21 0.753353 -1.87184e-05 0.753314)
(0.753332 6.04813e-21 2.07041e-21 0.753338 -2.20603e-05 0.753331)
(0.753338 -3.20738e-21 2.25845e-21 0.75333 -1.41258e-05 0.753332)
(0.753333 4.26348e-22 4.73779e-23 0.75336 -2.15685e-05 0.753308)
(0.753331 -1.14024e-21 5.10408e-22 0.753357 -4.15675e-06 0.753312)
(0.753337 3.87049e-21 2.30995e-21 0.753348 1.11452e-06 0.753315)
(0.753332 8.94959e-21 3.11075e-21 0.753363 -3.2187e-05 0.753305)
(0.753333 2.16135e-21 -3.37531e-22 0.753365 -1.21345e-05 0.753302)
(0.753333 2.74529e-21 3.4576e-21 0.753371 1.26837e-05 0.753296)
(0.753337 7.99534e-21 3.96791e-21 0.753363 -1.03199e-07 0.753299)
(0.753334 6.70652e-21 4.73072e-21 0.75338 -3.41743e-05 0.753287)
(0.753331 -3.31976e-22 -4.40504e-21 0.753373 -6.69586e-06 0.753296)
(0.753347 -8.46049e-21 3.48504e-21 0.753358 2.7765e-05 0.753295)
(0.753331 -3.05379e-21 2.87675e-21 0.753396 -3.58424e-05 0.753273)
(0.753331 -7.30476e-21 -2.29091e-21 0.753374 1.17666e-06 0.753296)
(0.753347 -1.29805e-20 1.4e-21 0.753368 4.74666e-05 0.753285)
(0.75333 4.07187e-21 4.18216e-22 0.753403 -5.23463e-05 0.753267)
(0.753328 5.08671e-22 -7.09283e-21 0.753365 -4.89537e-05 0.753307)
(0.75334 -1.21695e-20 -7.6972e-21 0.753341 -7.19695e-06 0.753319)
(0.753324 -2.00928e-20 -8.91097e-21 0.753381 -4.49577e-05 0.753295)
(0.753334 -2.05404e-20 9.8313e-21 0.753351 -5.05467e-06 0.753316)
(0.753337 2.6753e-21 -8.41167e-21 0.753346 -1.71125e-06 0.753317)
(0.753327 -7.24605e-21 -8.3868e-21 0.753356 -3.18183e-05 0.753317)
(0.753336 -5.19281e-21 -9.04606e-21 0.75334 -4.3621e-06 0.753324)
(0.753333 -5.80953e-21 -9.17556e-21 0.753348 -1.11595e-05 0.75332)
(0.753334 -3.52664e-21 -9.32942e-21 0.753346 -1.86948e-05 0.75332)
(0.753331 -1.37389e-20 -9.88578e-21 0.753354 -2.40998e-05 0.753315)
(0.753336 -3.21295e-20 -9.65925e-21 0.753347 -2.31296e-05 0.753317)
(0.753331 -3.03703e-20 -6.97183e-21 0.75336 -2.89504e-05 0.753309)
(0.753333 -8.07724e-21 4.07412e-21 0.753345 -4.61724e-06 0.753322)
(0.753338 2.36714e-21 -5.50784e-21 0.753344 1.26197e-05 0.753319)
(0.753332 -4.97292e-21 -4.96641e-21 0.753352 -1.50595e-05 0.753316)
(0.753334 -2.14247e-20 -4.70411e-21 0.753349 -1.22586e-05 0.753317)
(0.753333 -2.2391e-20 -2.57072e-21 0.753353 -1.38645e-06 0.753314)
(0.753335 -7.41315e-21 -3.22836e-21 0.753351 4.59795e-06 0.753314)
(0.753331 -7.60317e-21 -3.43645e-21 0.753359 -1.812e-06 0.75331)
(0.753336 -3.39815e-21 -3.44591e-21 0.75335 -4.65114e-06 0.753314)
(0.753334 -8.21899e-21 -3.97028e-21 0.753358 -2.20009e-05 0.753308)
(0.753333 1.80953e-21 -1.73634e-20 0.753339 -9.03667e-06 0.753329)
(0.753339 -6.87649e-21 -2.517e-21 0.753342 9.61357e-06 0.753319)
(0.753332 -1.05074e-20 -2.4236e-21 0.753354 -1.40373e-05 0.753314)
(0.753334 -4.27029e-21 -3.01382e-21 0.75335 -1.45628e-05 0.753315)
(0.753334 -7.51118e-21 -3.12316e-21 0.753352 -2.96634e-05 0.753314)
(0.753333 -1.75838e-20 -2.60776e-21 0.753355 -4.01895e-05 0.753312)
(0.753333 -1.59782e-20 -1.39165e-21 0.753352 -2.35547e-05 0.753315)
(0.753334 -7.06719e-21 -1.49075e-21 0.753351 -4.32249e-06 0.753315)
(0.753333 -3.51994e-21 -1.45298e-21 0.753353 5.71169e-07 0.753314)
(0.753338 -9.64665e-22 -1.33919e-21 0.753344 -1.11151e-06 0.753318)
(0.753333 -1.20606e-20 1.48049e-20 0.753326 -5.83251e-06 0.753341)
(0.753337 9.21804e-22 -1.11892e-21 0.753338 1.108e-05 0.753325)
(0.753333 -4.36328e-21 -8.09214e-22 0.753345 6.68765e-06 0.753321)
(0.753333 -5.58904e-21 -9.47949e-22 0.753346 4.76536e-06 0.753321)
(0.753334 -1.00846e-20 -1.11378e-21 0.753344 -3.12126e-06 0.753322)
(0.753334 -1.15367e-20 -1.44834e-21 0.753346 -2.42704e-05 0.753321)
(0.753333 -1.6648e-20 -2.29397e-21 0.753343 -2.45447e-05 0.753324)
(0.753332 -2.35674e-20 -3.35791e-21 0.753341 1.82335e-06 0.753327)
(0.753339 -1.9374e-20 -3.67417e-21 0.753324 1.74809e-05 0.753337)
(0.753333 -1.10421e-20 7.83636e-21 0.753311 -3.73595e-06 0.753356)
(0.753336 -1.72143e-20 -1.46838e-21 0.753328 -3.46133e-05 0.753336)
(0.753333 -2.93642e-20 -1.32847e-21 0.75333 -5.6021e-05 0.753336)
(0.753333 -2.00942e-20 -2.80317e-21 0.75333 -3.45584e-05 0.753337)
(0.753335 -2.17779e-20 -3.40458e-21 0.753329 -1.45383e-05 0.753336)
(0.753332 -2.0737e-20 -4.05649e-21 0.753336 -1.04796e-05 0.753332)
(0.753337 -1.86584e-20 -4.61595e-21 0.753324 1.71578e-06 0.753339)
(0.753328 -1.13635e-20 -4.72211e-21 0.753344 -3.61744e-06 0.753329)
(0.753341 -4.8102e-21 -5.18369e-21 0.753301 3.48154e-05 0.753357)
(0.753333 8.25356e-21 -1.32304e-20 0.753294 1.1168e-05 0.753373)
(0.753329 4.16874e-21 -5.10171e-21 0.753329 6.84259e-06 0.753342)
(0.753338 -3.22806e-21 -4.60994e-21 0.753315 4.70321e-05 0.753346)
(0.753332 -2.21313e-20 -4.16298e-21 0.753323 1.54442e-05 0.753345)
(0.753333 -1.99044e-20 -3.0194e-21 0.753314 1.71259e-05 0.753352)
(0.753334 -7.10403e-21 -2.7507e-21 0.753309 2.74887e-05 0.753357)
(0.753336 -1.56555e-20 -3.28355e-21 0.753303 2.14691e-05 0.753361)
(0.753327 -2.45497e-20 -4.23946e-21 0.753319 2.23025e-05 0.753354)
(0.753346 -2.05787e-20 -4.63508e-21 0.753274 5.5674e-05 0.753381)
(0.753333 -8.83733e-21 -2.38109e-21 0.753287 -7.05122e-06 0.75338)
(0.753329 -1.71158e-20 -1.03281e-22 0.753309 -4.11409e-05 0.753363)
(0.75334 -1.98265e-20 -4.52859e-22 0.753294 7.92166e-06 0.753366)
(0.753332 -1.21108e-20 -1.30424e-21 0.753309 1.79152e-05 0.753359)
(0.753333 5.8066e-22 -1.87427e-21 0.753306 5.59646e-05 0.753361)
(0.753334 -7.24022e-21 -2.02842e-21 0.7533 9.13714e-05 0.753366)
(0.753335 3.45736e-20 4.0205e-21 0.753293 9.89886e-05 0.753372)
(0.753333 8.59008e-20 7.31682e-21 0.753287 0.000113565 0.75338)
(0.753332 9.56148e-20 1.07853e-20 0.753276 0.000154915 0.753392)
(0.753344 9.01518e-20 1.30313e-20 0.75324 0.000161193 0.753416)
(0.753332 1.43312e-20 9.32379e-21 0.753291 2.57323e-05 0.753377)
(0.753331 4.4914e-20 5.31588e-21 0.753303 6.43997e-05 0.753365)
(0.753342 8.89538e-20 4.454e-21 0.753291 0.000152006 0.753367)
(0.75333 6.90441e-20 7.92364e-21 0.753301 8.95669e-05 0.753369)
(0.753338 8.44556e-20 9.98344e-21 0.75328 0.000103626 0.753382)
(0.753328 1.0436e-19 1.32082e-20 0.753291 0.000120653 0.753381)
(0.753338 1.12446e-19 1.30889e-20 0.753272 0.000137828 0.75339)
(0.753339 3.2723e-20 3.86458e-21 0.753295 3.86611e-05 0.753367)
(0.753333 -1.03015e-20 1.61674e-21 0.753309 8.38922e-08 0.753358)
(0.753333 8.72568e-21 1.879e-21 0.753318 -1.13638e-06 0.753348)
(0.753329 -6.09782e-21 3.14573e-21 0.753315 -1.38504e-05 0.753356)
(0.753345 -7.04718e-21 3.0361e-21 0.75329 4.3135e-05 0.753365)
(0.753336 -1.7483e-22 1.44619e-21 0.75332 3.88046e-05 0.753344)
(0.75333 8.06903e-22 -5.76618e-22 0.753336 9.56289e-08 0.753334)
(0.753336 -2.65856e-22 2.96624e-23 0.753323 -2.05869e-06 0.753341)
(0.753331 6.68675e-22 2.07472e-21 0.753332 7.36469e-06 0.753337)
(0.753334 1.15046e-21 1.21894e-22 0.753328 1.14102e-06 0.753339)
(0.753334 2.98489e-22 2.09705e-21 0.753326 5.97502e-06 0.75334)
(0.753332 1.10641e-21 8.573e-22 0.753331 2.87008e-06 0.753337)
(0.753334 -1.56452e-21 3.9816e-22 0.753326 -2.07139e-06 0.753339)
(0.753333 2.7842e-23 1.53243e-21 0.753328 5.88628e-06 0.753338)
(0.753333 9.01789e-22 1.25141e-22 0.753329 2.35006e-06 0.753338)
(0.753334 -2.96061e-22 7.93986e-23 0.753328 -2.4239e-06 0.753339)
(0.753333 1.63512e-21 1.78849e-21 0.753328 3.19104e-06 0.753338)
(0.753333 1.88705e-21 1.23793e-22 0.753329 4.6725e-08 0.753338)
(0.753334 3.22392e-21 2.80463e-21 0.753327 1.64846e-06 0.753339)
(0.753333 -1.82618e-21 9.44828e-22 0.753329 1.03868e-06 0.753338)
(0.753333 -1.97937e-21 -1.81474e-22 0.75333 -4.5684e-06 0.753337)
(0.753334 1.02879e-20 2.20577e-21 0.753329 -9.06019e-07 0.753337)
(0.753333 3.11285e-21 9.48201e-22 0.753331 3.15064e-07 0.753336)
(0.753333 -9.23109e-21 3.05637e-21 0.75333 -2.62728e-06 0.753336)
(0.753334 -5.4642e-21 -4.43594e-22 0.75333 -7.94033e-07 0.753336)
(0.753333 -9.72034e-22 -1.05044e-22 0.753332 -1.98599e-06 0.753335)
(0.753333 -1.31282e-21 6.50868e-22 0.753331 -2.889e-06 0.753336)
(0.753334 4.74206e-21 -2.52534e-22 0.753331 -8.38767e-07 0.753335)
(0.753333 6.90516e-21 1.45687e-22 0.753334 -1.44001e-06 0.753333)
(0.753334 7.06529e-21 4.69196e-21 0.753331 -1.88348e-06 0.753336)
(0.753334 -3.21412e-21 7.64933e-22 0.753332 -9.91e-07 0.753334)
(0.753332 -5.90184e-21 3.79746e-21 0.753333 -2.35562e-06 0.753334)
(0.753334 7.10491e-21 4.96205e-22 0.753332 -3.4814e-07 0.753334)
(0.753333 1.10293e-21 5.41114e-22 0.753335 -1.42953e-06 0.753332)
(0.753333 -3.80688e-21 6.11679e-21 0.753331 -1.96629e-06 0.753336)
(0.753334 -6.10079e-21 3.65431e-22 0.753333 -9.15392e-07 0.753333)
(0.753332 -1.23435e-20 2.68332e-21 0.753333 -2.43243e-06 0.753335)
(0.753334 -2.35e-21 -4.32027e-22 0.753332 2.21472e-07 0.753333)
(0.753333 9.10127e-22 -1.2163e-22 0.753336 -1.41297e-06 0.753332)
(0.753333 6.5032e-21 2.41438e-21 0.753331 -2.59937e-06 0.753336)
(0.753334 8.98754e-21 4.12989e-22 0.753332 4.76279e-07 0.753333)
(0.753332 -2.67704e-22 1.25274e-21 0.753336 -1.71241e-06 0.753332)
(0.753333 -4.34344e-21 5.56678e-21 0.75333 -2.39762e-06 0.753337)
(0.753334 -2.63094e-21 6.8887e-22 0.753333 -7.43181e-07 0.753333)
(0.753332 -1.38462e-21 4.21967e-21 0.753333 -3.00336e-06 0.753336)
(0.753334 4.26377e-21 7.02848e-22 0.753332 7.79409e-07 0.753334)
(0.753333 -2.90505e-21 5.68312e-22 0.753335 -1.67576e-06 0.753332)
(0.753333 -4.54219e-21 4.26998e-21 0.75333 -3.04202e-06 0.753337)
(0.753334 -3.29714e-21 8.77029e-22 0.753332 -7.21751e-07 0.753334)
(0.753332 -8.33414e-21 2.07707e-21 0.753332 -3.73863e-06 0.753336)
(0.753334 -3.96814e-21 -1.43623e-22 0.753332 9.94282e-07 0.753334)
(0.753333 -3.8433e-21 3.49713e-22 0.753335 -1.42412e-06 0.753333)
(0.753333 -2.71553e-21 -6.40168e-22 0.753331 -4.44993e-06 0.753337)
(0.753334 8.82807e-22 -1.70288e-22 0.753331 1.06724e-06 0.753334)
(0.753332 4.02054e-21 -2.24195e-22 0.753335 -1.46525e-06 0.753332)
(0.753333 7.08559e-21 1.01731e-21 0.75333 -4.25027e-06 0.753337)
(0.753334 3.55365e-21 1.48918e-23 0.753332 -3.65057e-07 0.753334)
(0.753332 2.63222e-21 2.79777e-21 0.753333 -4.73424e-06 0.753335)
(0.753334 3.87284e-21 8.28489e-22 0.753331 1.13475e-06 0.753334)