/*--------------------------------*- C++ -*----------------------------------*\
| =========                 |                                                 |
| \\      /  F ield         | OpenFOAM: The Open Source CFD Toolbox           |
|  \\    /   O peration     | Version:  4.1                                   |
|   \\  /    A nd           | Web:      www.OpenFOAM.org                      |
|    \\/     M anipulation  |                                                 |
\*---------------------------------------------------------------------------*/
FoamFile
{
    version     2.0;
    format      ascii;
    class       volVectorField;
    location    "23";
    object      U;
}
// * * * * * * * * * * * * * * * * * * * * * * * * * * * * * * * * * * * * * //

dimensions      [0 1 -1 0 0 0 0];

internalField   nonuniform List<vector> 
6785
(
(1.41413e-14 -2.33313 16.511)
(9.77408e-15 -7.90661 13.0194)
(-3.0029e-15 -5.12218 13.8095)
(4.13322e-15 -5.04449 13.3253)
(8.92785e-16 -4.24569 13.1898)
(2.35692e-17 -3.80505 12.9034)
(2.82512e-15 -3.36114 12.6067)
(6.39145e-16 -3.02766 12.2535)
(-5.41987e-16 -2.77885 11.8752)
(1.6254e-15 -2.65635 11.4925)
(1.37522e-16 -2.63753 11.1705)
(-5.24382e-16 -2.72684 10.9462)
(6.99191e-16 -3.2653 10.5015)
(-2.04545e-16 -3.43608 9.54503)
(-2.18042e-16 -0.126967 7.4983)
(2.02543e-14 -10.26 26.9672)
(1.32426e-14 -16.415 23.2838)
(-2.72688e-15 -11.2673 23.6566)
(4.54293e-15 -12.1458 21.7979)
(7.31254e-16 -10.4417 20.9415)
(1.10632e-15 -9.88149 19.698)
(2.31752e-15 -8.95591 18.6086)
(3.16915e-16 -8.24962 17.4715)
(3.50966e-16 -7.52953 16.3629)
(1.07806e-15 -6.87005 15.2394)
(-3.85063e-17 -6.19017 14.03)
(-2.96711e-17 -5.2703 12.348)
(1.1536e-17 -3.67019 9.16792)
(-6.8127e-16 -0.959049 3.59494)
(-5.85719e-16 1.30065 -2.07828)
(2.17503e-14 -12.5351 27.9181)
(1.25503e-14 -16.9616 24.6656)
(-2.1517e-15 -11.8661 24.6672)
(4.69512e-15 -13.2727 21.9403)
(7.84653e-16 -11.0013 20.9466)
(1.30452e-15 -10.7406 19.0598)
(1.91643e-15 -9.62186 17.6734)
(2.9776e-16 -9.0272 16.184)
(3.5379e-16 -8.35596 14.9214)
(8.86515e-16 -7.81395 13.6737)
(2.79442e-16 -7.17986 12.2801)
(8.74083e-17 -6.22055 10.4043)
(-5.96963e-16 -4.6365 7.2197)
(-8.0835e-16 -1.19056 2.08836)
(-1.7048e-15 1.12186 -4.91964)
(2.28147e-14 -12.9893 26.9159)
(1.16971e-14 -16.502 24.2678)
(-1.48957e-15 -11.9196 23.9109)
(4.26306e-15 -13.4594 20.8111)
(6.56225e-17 -10.8078 19.9004)
(1.75433e-15 -10.7964 17.6519)
(1.03805e-15 -9.35976 16.2544)
(-7.44897e-16 -8.75514 14.5672)
(5.42943e-16 -7.93029 13.1892)
(-4.98873e-16 -7.45511 11.8266)
(-2.28115e-15 -7.0471 10.5221)
(-3.33168e-16 -6.54131 9.15524)
(-1.17367e-15 -5.77556 7.42143)
(-5.11382e-15 -3.98884 5.00848)
(-2.88687e-15 -2.18253 1.89531)
(2.23218e-14 -13.5625 26.9575)
(8.87749e-15 -15.947 24.6662)
(-1.16821e-15 -12.2235 24.103)
(2.58261e-15 -13.0563 21.3289)
(-5.94595e-16 -10.5926 20.3846)
(1.12996e-15 -10.3713 18.3804)
(-7.88441e-16 -8.79464 17.0692)
(-1.17009e-15 -7.63902 14.8565)
(2.98615e-16 -5.66551 11.9206)
(7.73761e-16 -3.99468 8.73174)
(2.20712e-15 -3.24244 6.9691)
(2.48783e-15 -3.73185 7.03986)
(-1.51476e-15 -4.83774 8.12283)
(-6.17318e-15 -5.67987 8.75749)
(-2.35927e-15 -4.53794 8.18419)
(2.18675e-14 -14.5176 28.205)
(7.51305e-15 -16.5493 26.2205)
(-8.76747e-16 -13.0848 25.472)
(1.99695e-15 -13.6943 23.0733)
(-4.35703e-16 -11.4209 22.1959)
(7.15689e-16 -11.2633 20.4465)
(-1.09595e-15 -9.72871 19.3304)
(-1.04607e-15 -8.55155 17.0074)
(3.68864e-16 -5.98675 13.4319)
(2.79401e-15 -3.17095 8.83666)
(4.3001e-15 -0.591134 4.89303)
(2.04778e-15 0.966891 2.12956)
(-1.59059e-15 0.97271 1.49102)
(-3.81173e-15 -0.771328 3.2901)
(-2.66255e-15 -2.13824 5.29893)
(1.93505e-14 -14.4979 27.4802)
(9.46995e-15 -18.1076 28.6149)
(-1.37204e-15 -14.2181 26.6418)
(1.88355e-15 -14.7979 24.1471)
(-3.34461e-16 -12.7156 23.2355)
(-2.47079e-16 -12.7429 21.4318)
(-4.70853e-16 -11.453 20.3567)
(-1.10438e-15 -10.7847 18.4604)
(-1.3519e-15 -9.013 15.8704)
(1.33492e-15 -6.75727 12.1224)
(1.88735e-15 -3.95336 7.98423)
(1.56114e-16 -1.18074 3.60841)
(2.21288e-15 1.7813 -0.933624)
(-1.50459e-15 3.655 -3.95075)
(-8.09173e-15 2.09755 -3.8513)
(1.7589e-14 -13.1452 24.0844)
(1.28982e-14 -18.5074 29.4184)
(9.32072e-16 -15.0274 26.71)
(1.44877e-15 -14.8196 23.6607)
(6.9254e-16 -13.157 22.3265)
(7.48719e-16 -12.8874 20.4562)
(5.47358e-16 -11.898 19.0649)
(1.09763e-16 -11.281 17.3497)
(1.3109e-16 -10.2972 15.4791)
(7.30151e-16 -9.05957 13.1963)
(8.24543e-16 -7.47237 10.569)
(9.3854e-16 -5.49296 7.64186)
(1.57426e-15 -3.30739 4.27307)
(2.67443e-15 -0.193366 0.789055)
(-4.24607e-15 1.5494 -4.7749)
(1.59263e-14 -11.4944 20.534)
(1.53526e-14 -17.7895 28.8464)
(3.00186e-15 -15.0201 26.1949)
(1.49413e-15 -14.0791 22.6984)
(1.62202e-15 -12.5457 21.0246)
(1.19049e-15 -11.9937 19.1426)
(1.34611e-15 -11.0249 17.6044)
(1.34373e-15 -10.2637 15.9199)
(7.07562e-16 -9.40457 14.2653)
(1.16717e-15 -8.47346 12.5515)
(1.53121e-15 -7.44659 10.7038)
(3.92732e-16 -6.12975 8.68833)
(9.49145e-16 -4.66578 6.23557)
(2.93633e-15 -2.249 3.17279)
(-5.82659e-15 0.133103 -2.38491)
(1.47965e-14 -10.3977 18.4506)
(1.65638e-14 -16.9625 28.1067)
(4.48035e-15 -14.7428 25.7044)
(1.14385e-15 -13.429 22.0721)
(1.77805e-15 -11.9288 20.2241)
(1.57432e-15 -11.2651 18.3887)
(1.0569e-15 -10.3024 16.8719)
(1.51187e-15 -9.50675 15.2754)
(1.23151e-15 -8.66811 13.763)
(7.16566e-16 -7.83425 12.2966)
(1.37081e-15 -7.01238 10.8106)
(3.00328e-16 -6.02271 9.26143)
(-8.65073e-16 -4.96264 7.39843)
(2.71496e-15 -3.19527 4.99508)
(-4.16455e-15 -0.613524 -0.170753)
(1.32643e-14 -9.94614 17.7145)
(1.77135e-14 -16.3422 27.4988)
(4.17236e-15 -14.529 25.2985)
(3.7866e-16 -13.0711 21.6655)
(2.18617e-15 -11.6174 19.6816)
(-2.75783e-16 -10.9477 17.9394)
(-4.5959e-16 -10.0924 16.5228)
(1.65797e-15 -9.37555 15.0714)
(-8.51993e-16 -8.62929 13.6821)
(-1.84397e-15 -7.89428 12.3259)
(3.04859e-16 -7.19412 10.9861)
(-2.29962e-15 -6.42918 9.72567)
(-3.06086e-15 -5.6914 8.43445)
(-3.68878e-15 -4.46147 6.96737)
(-8.48862e-15 -1.98673 2.493)
(1.35742e-14 -10.0257 17.7627)
(1.81312e-14 -15.3922 26.2232)
(1.28581e-15 -13.8108 24.0763)
(1.47688e-18 -12.5246 20.755)
(3.31693e-15 -11.1097 18.7338)
(-3.36764e-15 -10.4497 17.0019)
(-2.38629e-15 -9.66132 15.6316)
(3.07016e-15 -9.03796 14.2131)
(-1.4852e-15 -8.37335 12.8294)
(-4.54883e-15 -7.75613 11.4999)
(-1.6922e-15 -7.24477 10.4246)
(-4.48762e-15 -6.90434 9.8575)
(-4.64961e-15 -6.70756 9.72268)
(-6.8472e-15 -6.09777 9.4343)
(-1.06369e-14 -3.80155 5.75456)
(1.22234e-14 -10.7212 18.7184)
(1.66459e-14 -15.3633 25.9859)
(-1.46762e-15 -13.025 22.8052)
(-1.15843e-15 -11.7229 19.7984)
(3.17457e-15 -10.4906 18.2184)
(-4.60402e-15 -9.83394 16.3475)
(-2.31142e-15 -8.90029 14.7184)
(7.23309e-15 -8.2538 13.0389)
(-2.73282e-15 -7.59644 11.5811)
(-4.16469e-15 -7.21262 10.5099)
(-3.0964e-16 -7.16527 10.2815)
(-6.70093e-15 -7.59888 11.0336)
(-6.07558e-15 -8.09494 12.4381)
(-6.9301e-15 -8.21842 13.1117)
(-1.32814e-14 -5.86518 10.0521)
(8.26609e-15 -9.36737 15.641)
(1.56816e-14 -16.0996 26.0126)
(7.17522e-16 -14.9379 24.4159)
(-4.02357e-15 -12.272 20.0337)
(-1.19212e-15 -9.61032 16.6871)
(-3.78527e-15 -7.79582 13.9661)
(3.25536e-15 -6.11813 11.9542)
(5.42184e-15 -4.87425 10.1138)
(1.10638e-15 -3.91138 8.84793)
(7.12331e-16 -3.69087 8.54068)
(-2.03575e-15 -4.36019 9.64625)
(-5.20248e-15 -5.86246 11.9106)
(-5.84521e-15 -7.5269 14.3802)
(-9.12785e-15 -8.3822 15.1139)
(-1.04839e-14 -5.63862 10.567)
(1.6643e-15 -5.79867 10.1735)
(1.04046e-14 -14.3721 21.751)
(9.69601e-15 -18.362 26.4175)
(5.83913e-15 -19.5597 27.1162)
(3.31487e-15 -18.9288 25.8915)
(1.22754e-15 -17.4317 23.2862)
(1.73687e-15 -15.1544 20.0984)
(2.03921e-15 -12.726 16.9387)
(2.32864e-15 -10.3096 13.8991)
(2.38659e-15 -7.97781 11.0976)
(3.54379e-16 -6.00176 8.90856)
(-4.12113e-16 -4.8573 7.7439)
(-2.54201e-15 -4.88226 8.24983)
(-6.81701e-15 -5.46801 8.91037)
(-5.98606e-15 -2.68393 4.96508)
(-9.70192e-18 13.0528 56.3879)
(-4.69108e-16 -0.000405609 6.67998)
(-6.87665e-16 -0.594046 -3.23575)
(-7.40717e-16 -0.383122 -2.17325)
(-8.20538e-16 -0.223125 -2.54208)
(-1.21549e-15 0.445336 -3.37293)
(-8.33792e-16 0.178528 -2.2884)
(-7.31337e-16 0.442951 -2.24262)
(-7.65169e-16 0.564195 -2.09993)
(2.85535e-17 1.06678 -2.86587)
(5.59736e-16 0.912571 -2.01463)
(6.26646e-16 1.09843 -1.88649)
(2.79585e-16 1.62127 -2.43651)
(1.71555e-16 1.34254 -1.68139)
(1.78874e-16 1.59444 -1.65655)
(2.50917e-16 1.60867 -1.60848)
(5.56885e-17 2.09084 -1.9914)
(2.38555e-16 1.78875 -1.38787)
(2.7783e-16 1.9546 -1.33474)
(1.69614e-16 2.47322 -1.58609)
(1.69257e-16 1.98401 -1.11829)
(1.37234e-16 2.25616 -1.11471)
(2.65474e-16 2.19696 -1.11063)
(2.35428e-16 2.72818 -1.26448)
(2.41207e-16 2.17657 -0.906621)
(2.86385e-16 2.43951 -0.89365)
(1.96221e-16 2.37159 -0.883644)
(2.00756e-16 2.81433 -0.927487)
(1.08927e-16 2.28994 -0.65401)
(1.14041e-16 2.42628 -0.622894)
(1.46813e-16 2.86416 -0.523299)
(5.96322e-17 2.19968 -0.365566)
(9.32193e-17 2.43073 -0.324218)
(-1.07414e-18 2.33541 -0.304056)
(-5.46373e-17 2.67248 -0.0786189)
(-2.30154e-18 2.11097 -0.0409069)
(-5.21379e-18 2.2069 -0.0502749)
(-4.34873e-17 2.51875 0.255114)
(-2.32359e-17 1.88115 0.149221)
(-8.59831e-17 2.04958 0.148344)
(-6.62329e-18 1.94645 0.110461)
(-5.64042e-17 2.20988 0.411465)
(-1.26604e-16 1.6582 0.239415)
(-1.96459e-16 1.79749 0.223676)
(-2.65618e-16 1.70437 0.181286)
(-4.65263e-16 1.9299 0.423139)
(-6.23062e-16 1.57923 0.328995)
(-6.62762e-16 1.62322 0.270152)
(-1.1908e-15 1.82166 0.548338)
(-7.54175e-16 1.45832 0.3869)
(-8.23379e-16 1.54448 0.353989)
(-8.81613e-16 1.47527 0.292199)
(-1.37482e-15 1.53235 0.565541)
(-1.08416e-15 1.16718 0.27267)
(-1.21691e-15 1.22219 0.222174)
(-1.07056e-15 1.20318 0.194683)
(-1.5469e-15 1.1077 0.174699)
(-1.14895e-15 0.700729 -0.30299)
(-1.44223e-15 0.768896 -0.253279)
(-2.05807e-15 0.782041 -1.27829)
(-1.65728e-15 0.02933 -1.75655)
(-1.61973e-15 0.178778 -1.83619)
(-1.8873e-15 0.400576 -1.8979)
(1.40512e-16 0.672152 -2.22262)
(-9.74719e-16 -0.783642 0.879453)
(-7.512e-16 -0.294742 0.516946)
(-9.86041e-16 -1.10629 2.8612)
(-8.00046e-16 -1.84126 3.83591)
(-7.94248e-16 -2.04634 3.764)
(-9.52458e-16 -2.04812 4.01086)
(-1.42158e-15 -3.47722 7.12859)
(-1.20008e-15 -3.91213 6.40247)
(-1.39988e-15 -4.48218 6.61459)
(-1.51492e-15 -4.43309 6.89151)
(-1.87496e-15 -6.72876 10.871)
(-1.09459e-15 -6.86892 8.76769)
(-1.08449e-15 -7.02319 9.30317)
(-8.18409e-16 -9.7581 13.4644)
(-2.47596e-16 -9.50031 10.185)
(2.7246e-17 -10.0235 10.7188)
(-2.75495e-16 -10.6588 12.5596)
(-1.12935e-16 -10.5898 12.4326)
(-8.78369e-17 -10.6713 12.82)
(1.38265e-15 -12.5234 15.3659)
(6.98984e-16 -11.4147 13.539)
(7.90127e-16 -11.6965 14.0816)
(8.10724e-16 -11.635 14.1469)
(8.70208e-16 -11.7318 14.264)
(9.00283e-16 -11.7511 14.4331)
(9.24567e-16 -11.8277 14.6705)
(1.11224e-15 -11.9264 14.9289)
(1.42009e-15 -11.9135 15.1543)
(2.24854e-15 -13.1144 17.0695)
(1.78969e-15 -12.4351 15.6178)
(1.84207e-15 -12.6148 15.8442)
(1.8664e-15 -12.5915 15.9823)
(2.17223e-15 -12.7299 16.1737)
(2.21146e-15 -12.7445 16.146)
(2.28658e-15 -12.8602 16.2512)
(2.32874e-15 -12.9578 16.3283)
(2.33897e-15 -12.9727 16.4779)
(2.94054e-15 -13.8409 18.3105)
(2.85222e-15 -13.2418 17.1337)
(2.97535e-15 -13.3805 17.3486)
(3.01421e-15 -13.418 17.4747)
(3.04117e-15 -13.5064 17.706)
(3.13008e-15 -13.5544 18.0684)
(3.31235e-15 -13.6777 18.4549)
(3.37641e-15 -13.6977 18.5395)
(3.42128e-15 -13.8143 18.6348)
(3.43069e-15 -13.8495 18.6482)
(3.45894e-15 -13.8898 19.2486)
(3.14124e-15 -13.5748 18.7351)
(3.18855e-15 -13.6385 18.7255)
(3.20853e-15 -13.6676 18.689)
(3.27474e-15 -13.7408 18.7122)
(3.36397e-15 -13.741 18.7997)
(3.45257e-15 -13.8328 19.1527)
(3.62077e-15 -13.8186 19.2156)
(3.81606e-15 -13.9064 19.1505)
(4.35021e-15 -12.8264 18.1397)
(4.10893e-15 -12.9539 18.7408)
(4.42127e-15 -12.8719 19.1657)
(4.56189e-15 -12.93 19.5953)
(4.731e-15 -12.8496 19.6564)
(4.89758e-15 -12.8888 19.7783)
(5.05084e-15 -12.8813 19.7758)
(5.18537e-15 -12.7868 19.7052)
(5.22603e-15 -13.0012 19.7976)
(5.39894e-15 -10.2967 15.9581)
(5.17651e-15 -11.2796 17.8002)
(5.1553e-15 -11.0869 17.2198)
(5.22624e-15 -11.1018 16.9698)
(5.4965e-15 -11.0205 16.8656)
(5.53317e-15 -10.9553 16.5702)
(5.60606e-15 -10.8244 16.2913)
(5.77446e-15 -10.695 16.0812)
(5.98449e-15 -10.7591 15.7934)
(6.53852e-15 -7.55927 11.8164)
(7.09196e-15 -8.75296 15.3497)
(7.2486e-15 -8.36781 15.1056)
(7.39757e-15 -8.40499 15.0462)
(7.43536e-15 -8.19251 14.6264)
(7.38864e-15 -8.19113 13.9783)
(7.5469e-15 -7.93456 13.0036)
(6.85545e-15 -7.8685 12.2532)
(6.222e-15 -7.58244 11.0384)
(5.38077e-15 -7.4413 9.63635)
(2.54669e-15 -4.02601 2.59584)
(3.96173e-15 -5.62583 6.43354)
(2.99461e-15 -5.09859 4.51474)
(2.58955e-15 -5.23551 3.94141)
(1.93042e-15 -4.87789 2.9646)
(1.28773e-15 -4.79404 2.17195)
(3.20687e-16 -4.59705 0.918989)
(-4.46674e-16 -4.28795 -0.104349)
(-1.84033e-16 -4.25603 0.276265)
(-7.20903e-16 -3.48071 -1.9308)
(-6.10387e-16 -3.60334 0.0246947)
(-5.37763e-16 -3.47392 -0.175147)
(-4.17455e-16 -2.50855 -1.80728)
(-7.02018e-16 -3.8833 -1.60074)
(-8.10826e-16 -2.68856 -1.35123)
(-6.83533e-16 -2.45806 -0.939357)
(-8.98821e-16 -2.78263 -1.37808)
(-6.54537e-16 -1.94243 -0.875278)
(-9.38101e-16 -2.21843 -1.39795)
(-6.62329e-16 -1.67339 -1.09697)
(-4.85948e-16 -1.39779 -0.825987)
(-6.65993e-16 -1.37324 -1.34085)
(-6.3295e-16 -0.973658 -1.06625)
(-6.06722e-16 -0.764935 -0.77866)
(-8.48125e-16 -0.655849 -1.18905)
(-9.31674e-16 -0.395958 -0.763736)
(-1.27238e-15 -0.245352 -1.26124)
(-3.78862e-16 0.00577906 -0.878633)
(-7.07398e-16 0.114682 -0.420205)
(-1.73274e-15 0.330533 -0.804986)
(-1.24344e-15 0.320506 -0.567103)
(-5.17932e-16 0.511564 -0.59657)
(-2.30353e-16 0.658089 -0.544454)
(-2.78405e-16 0.580918 -0.376864)
(-5.75913e-17 0.788593 -0.39722)
(-1.44238e-15 0.880243 -0.392814)
(-1.65082e-15 0.686425 -0.329561)
(-2.37217e-15 1.06064 -0.428977)
(-1.09734e-15 0.788243 -0.365171)
(-1.59549e-15 0.982138 -0.437654)
(-2.63948e-15 1.00876 -0.527739)
(-2.04731e-15 0.771307 -0.41934)
(-2.13851e-15 1.16874 -0.591441)
(-9.96749e-16 0.838868 -0.483062)
(-5.14152e-16 1.05593 -0.611325)
(-6.18171e-16 0.984777 -0.76166)
(-7.53752e-16 0.785357 -0.587652)
(-1.47399e-15 1.07621 -0.740519)
(-2.57848e-15 0.958442 -0.891649)
(-1.76174e-15 0.750835 -0.648668)
(-2.0069e-15 1.13947 -0.885504)
(-1.30869e-15 0.849446 -0.683361)
(-1.82469e-15 1.05565 -0.833391)
(-2.11599e-15 1.02013 -0.989551)
(-1.34072e-15 0.83977 -0.693464)
(-1.51824e-15 1.22758 -0.932161)
(-7.72943e-16 0.972291 -0.682576)
(-4.2147e-16 1.19211 -0.827788)
(2.14944e-17 1.19341 -0.973007)
(2.37918e-16 1.04658 -0.662798)
(3.78847e-16 1.31917 -0.800582)
(-1.22001e-17 1.32624 -0.908968)
(-4.11591e-16 1.09894 -0.592135)
(-9.44661e-16 1.55753 -0.791667)
(-9.09976e-16 1.23881 -0.543359)
(-1.29106e-15 1.44671 -0.65726)
(-1.82418e-15 1.50967 -0.737201)
(-1.2465e-15 1.23745 -0.475434)
(-1.63915e-15 1.72624 -0.635402)
(-1.07755e-15 1.35595 -0.431518)
(-1.08735e-15 1.58512 -0.523082)
(-7.41052e-16 1.60843 -0.566404)
(-1.90123e-16 1.37469 -0.359455)
(-4.17254e-18 1.65689 -0.422693)
(3.17185e-16 1.69983 -0.423731)
(1.54655e-16 1.36433 -0.266014)
(-1.58451e-16 1.88376 -0.33896)
(-4.82205e-16 1.47446 -0.219902)
(-9.48048e-16 1.66986 -0.259523)
(-1.53059e-15 1.78553 -0.251216)
(-1.12609e-15 1.436 -0.158303)
(-1.4638e-15 1.96056 -0.204302)
(-9.65278e-16 1.53617 -0.126863)
(-1.08416e-15 1.753 -0.151971)
(-8.24029e-16 1.83335 -0.149243)
(-3.86054e-16 1.56935 -0.0925872)
(-2.81937e-16 1.83375 -0.127718)
(-1.39422e-17 1.962 -0.168798)
(1.42324e-16 1.58902 -0.120966)
(4.68103e-16 2.17067 -0.242222)
(5.21153e-16 1.71889 -0.171126)
(1.08747e-15 2.02252 -0.297568)
(7.69764e-23 1.05792 1.47672)
(7.99134e-22 1.19614 1.49185)
(2.81842e-21 1.24347 1.50824)
(6.6024e-21 1.31805 1.53089)
(6.70112e-21 1.37245 1.55553)
(-2.53294e-20 1.43387 1.58527)
(-1.7324e-19 1.48914 1.61744)
(-5.89412e-19 1.54685 1.65365)
(-1.33173e-18 1.60346 1.69284)
(-1.62158e-18 1.66143 1.7365)
(2.13244e-18 1.71902 1.78768)
(2.00142e-17 1.77448 1.85585)
(7.30556e-17 1.82276 1.95968)
(1.94732e-16 1.85711 2.12775)
(4.2378e-16 1.87071 2.39021)
(7.86286e-16 1.8608 2.76227)
(1.27526e-15 1.83138 3.22874)
(1.84266e-15 1.79246 3.7434)
(2.41142e-15 1.75556 4.24562)
(2.89994e-15 1.72886 4.68264)
(3.24481e-15 1.71492 5.02376)
(3.41252e-15 1.71163 5.26177)
(3.39975e-15 1.71488 5.40602)
(3.2266e-15 1.72115 5.47357)
(2.92784e-15 1.72898 5.48245)
(2.54481e-15 1.73886 5.44795)
(2.119e-15 1.75211 5.38137)
(1.68694e-15 1.76927 5.29028)
(1.27583e-15 1.78901 5.17972)
(8.99673e-16 1.80788 5.05371)
(5.56065e-16 1.82048 4.91668)
(2.24774e-16 1.81923 4.77433)
(-1.33972e-16 1.79538 4.63456)
(-5.94587e-16 1.74672 4.51039)
(-1.28537e-15 1.67669 4.41874)
(-2.22362e-15 1.47835 4.32999)
(-2.73984e-15 0.747105 4.0348)
(-1.96966e-15 -0.512542 3.45216)
(-1.36796e-15 -1.23122 3.23319)
(-9.27046e-16 -1.58462 3.09694)
(-5.07037e-16 -1.88259 2.95032)
(-9.42091e-17 -2.20771 2.80302)
(3.19477e-16 -2.54685 2.6574)
(7.40876e-16 -2.89359 2.51334)
(1.17592e-15 -3.2416 2.36876)
(1.62238e-15 -3.58109 2.22341)
(2.07071e-15 -3.9059 2.07714)
(2.50446e-15 -4.2106 1.92832)
(2.89556e-15 -4.49286 1.77821)
(3.21354e-15 -4.75098 1.6253)
(3.425e-15 -4.98215 1.46913)
(3.50432e-15 -5.17874 1.30701)
(3.43327e-15 -5.33988 1.14272)
(3.2135e-15 -5.47425 0.976138)
(2.86531e-15 -5.57102 0.802655)
(2.42823e-15 -5.61717 0.625491)
(1.9459e-15 -5.619 0.448607)
(1.43848e-15 -5.55564 0.272457)
(9.35606e-16 -5.36491 0.104668)
(4.83773e-16 -5.015 -0.0400392)
(1.66713e-16 -4.5287 -0.152938)
(2.90629e-17 -4.02288 -0.226534)
(-2.13434e-18 -3.55869 -0.27635)
(-2.21909e-18 -3.15203 -0.303551)
(-3.60277e-19 -2.79105 -0.324244)
(2.81037e-20 -2.46179 -0.336395)
(1.75752e-20 -2.13665 -0.351671)
(1.57761e-21 -1.86357 -0.361983)
(-3.58552e-22 -1.55771 -0.380465)
(-1.11075e-22 -1.34304 -0.38783)
(-3.71139e-23 -0.915919 -0.412808)
(8.86239e-23 -0.761171 -0.406486)
(-1.07175e-21 -0.115791 -0.523703)
(2.31133e-21 1.03863 -0.451255)
(-6.4224e-21 2.12987 -0.404596)
(6.40988e-21 2.79986 -0.105635)
(1.90049e-19 3.38739 -0.202051)
(-7.57025e-19 3.63842 0.129881)
(-1.89231e-17 -1.73253 -0.374552)
(4.85264e-22 1.05549 1.55208)
(2.59043e-21 1.1914 1.56641)
(6.57854e-21 1.23718 1.58232)
(8.90527e-21 1.31055 1.60706)
(-1.51219e-20 1.3637 1.6327)
(-1.47049e-19 1.42394 1.66503)
(-5.57689e-19 1.47814 1.6993)
(-1.3918e-18 1.53472 1.73827)
(-2.08636e-18 1.59007 1.78074)
(6.57902e-19 1.6459 1.83087)
(1.70082e-17 1.69895 1.89752)
(6.96168e-17 1.74471 2.00158)
(1.96647e-16 1.77497 2.17634)
(4.44575e-16 1.78148 2.45979)
(8.45974e-16 1.76058 2.87303)
(1.39126e-15 1.71795 3.3978)
(2.01662e-15 1.66801 3.97317)
(2.62223e-15 1.6274 4.51962)
(3.10951e-15 1.60722 4.97237)
(3.41209e-15 1.60954 5.30069)
(3.50644e-15 1.62906 5.50589)
(3.40526e-15 1.65747 5.60793)
(3.14433e-15 1.68732 5.63218)
(2.77038e-15 1.71423 5.60167)
(2.33228e-15 1.73731 5.53419)
(1.87498e-15 1.75832 5.44204)
(1.43525e-15 1.77984 5.33283)
(1.03791e-15 1.80341 5.21085)
(6.92506e-16 1.82821 5.07893)
(3.90043e-16 1.85082 4.94043)
(1.00889e-16 1.86546 4.80084)
(-2.24362e-16 1.86395 4.66844)
(-6.51777e-16 1.83634 4.55415)
(-1.27542e-15 1.7789 4.47276)
(-2.24539e-15 1.70189 4.44185)
(-3.57283e-15 1.5351 4.43442)
(-4.24041e-15 0.886192 4.19498)
(-2.47771e-15 -0.458941 3.41888)
(-1.23764e-15 -1.2388 3.13817)
(-8.23009e-16 -1.57508 3.06585)
(-4.45164e-16 -1.87197 2.92039)
(-4.43319e-17 -2.20093 2.77085)
(3.62299e-16 -2.54202 2.63074)
(7.77761e-16 -2.88962 2.49216)
(1.208e-15 -3.23711 2.35279)
(1.65018e-15 -3.57474 2.21236)
(2.09432e-15 -3.89662 2.07007)
(2.52349e-15 -4.19779 1.92452)
(2.90973e-15 -4.47602 1.77703)
(3.22264e-15 -4.72962 1.62616)
(3.42929e-15 -4.95569 1.47146)
(3.50433e-15 -5.14727 1.31047)
(3.43002e-15 -5.30399 1.14702)
(3.20826e-15 -5.43342 0.980968)
(2.85951e-15 -5.52515 0.807862)
(2.42305e-15 -5.56731 0.630988)
(1.94187e-15 -5.56584 0.454352)
(1.43591e-15 -5.50013 0.278373)
(9.34568e-16 -5.3097 0.110495)
(4.83979e-16 -4.96277 -0.0347621)
(1.6742e-16 -4.48114 -0.148741)
(2.94273e-17 -3.97891 -0.22398)
(-2.14531e-18 -3.51649 -0.27596)
(-2.29123e-18 -3.11023 -0.306061)
(-3.82432e-19 -2.74915 -0.330275)
(2.89008e-20 -2.42019 -0.346525)
(1.93468e-20 -2.09645 -0.365724)
(1.86311e-21 -1.82595 -0.37964)
(-4.06023e-22 -1.52485 -0.40042)
(-1.33961e-22 -1.31433 -0.409493)
(-3.9541e-23 -0.895041 -0.434883)
(9.69005e-23 -0.727182 -0.425634)
(-8.36788e-22 -0.121281 -0.597897)
(1.30471e-21 1.01593 -0.496893)
(-2.11151e-21 2.07477 -0.410076)
(-1.45063e-20 2.76657 -0.120938)
(2.749e-19 3.35146 -0.192113)
(-1.06741e-18 3.66447 0.123959)
(-2.13615e-17 -1.63508 -0.379418)
(1.35929e-21 1.05417 1.59408)
(5.10098e-21 1.18955 1.6084)
(8.74657e-21 1.23396 1.6238)
(-2.68231e-21 1.30682 1.64999)
(-8.88513e-20 1.35923 1.67614)
(-3.95663e-19 1.41888 1.70997)
(-1.11672e-18 1.47255 1.74532)
(-2.04672e-18 1.52847 1.78604)
(-1.01661e-18 1.58265 1.83194)
(9.71667e-18 1.63558 1.89157)
(4.91659e-17 1.68206 1.9818)
(1.52326e-16 1.71521 2.13456)
(3.66319e-16 1.72611 2.38992)
(7.30546e-16 1.70989 2.77715)
(1.24605e-15 1.6707 3.28787)
(1.85709e-15 1.62261 3.86631)
(2.46527e-15 1.58319 4.43044)
(2.96833e-15 1.56489 4.90886)
(3.29507e-15 1.57069 5.26476)
(3.41809e-15 1.5957 5.49586)
(3.34729e-15 1.6315 5.62031)
(3.11627e-15 1.6699 5.66257)
(2.76999e-15 1.7051 5.64517)
(2.356e-15 1.73446 5.58607)
(1.91863e-15 1.75843 5.49855)
(1.49477e-15 1.77962 5.39192)
(1.11022e-15 1.80111 5.27221)
(7.76419e-16 1.82459 5.14327)
(4.87319e-16 1.84906 5.00848)
(2.16733e-16 1.87063 4.87269)
(-8.25813e-17 1.8829 4.74375)
(-4.75374e-16 1.87719 4.6326)
(-1.03568e-15 1.84321 4.55173)
(-1.85265e-15 1.77706 4.51441)
(-3.06347e-15 1.6924 4.53304)
(-4.66753e-15 1.54147 4.58145)
(-5.5353e-15 0.967452 4.40534)
(-3.30967e-15 -0.328203 3.52805)
(-1.25354e-15 -1.16628 3.04551)
(-6.73442e-16 -1.53822 2.99531)
(-3.46568e-16 -1.82656 2.88045)
(2.09996e-17 -2.15346 2.73041)
(4.17343e-16 -2.49561 2.59294)
(8.25916e-16 -2.84323 2.46134)
(1.2496e-15 -3.19085 2.32942)
(1.68595e-15 -3.52904 2.19603)
(2.1245e-15 -3.85167 2.05976)
(2.54766e-15 -4.15386 1.91923)
(2.9276e-15 -4.43329 1.77578)
(3.23405e-15 -4.68801 1.62809)
(3.43458e-15 -4.91497 1.47569)
(3.50423e-15 -5.1076 1.31647)
(3.42582e-15 -5.26569 1.1543)
(3.20161e-15 -5.39595 0.989052)
(2.85217e-15 -5.48834 0.816436)
(2.4165e-15 -5.53186 0.639863)
(1.93677e-15 -5.53216 0.463399)
(1.43262e-15 -5.46908 0.287388)
(9.3319e-16 -5.28367 0.119092)
(4.8416e-16 -4.94441 -0.0271375)
(1.68244e-16 -4.4724 -0.142681)
(2.9864e-17 -3.97898 -0.220116)
(-2.15499e-18 -3.52341 -0.274951)
(-2.37744e-18 -3.12172 -0.30891)
(-4.09848e-19 -2.7631 -0.337935)
(2.96665e-20 -2.43489 -0.35996)
(2.15845e-20 -2.11099 -0.385005)
(2.25501e-21 -1.83887 -0.404424)
(-4.64709e-22 -1.53664 -0.42912)
(-1.66265e-22 -1.32252 -0.440848)
(-4.35021e-23 -0.904418 -0.467385)
(1.0352e-22 -0.714792 -0.452288)
(-6.02162e-22 -0.109851 -0.654105)
(7.53889e-22 0.998421 -0.531099)
(1.25582e-22 2.04645 -0.42097)
(-2.36561e-20 2.74891 -0.135318)
(3.07977e-19 3.33479 -0.191448)
(-1.01738e-18 3.67034 0.116784)
(-2.15012e-17 -1.61813 -0.273947)
(3.02007e-21 1.05208 1.64425)
(7.81453e-21 1.18659 1.65894)
(3.90364e-21 1.22899 1.67393)
(-4.96978e-20 1.30105 1.70186)
(-2.71558e-19 1.35236 1.72869)
(-8.66868e-19 1.41111 1.76428)
(-1.86397e-18 1.4639 1.80106)
(-1.9558e-18 1.51854 1.84475)
(4.55196e-18 1.57018 1.89797)
(3.32999e-17 1.61727 1.9769)
(1.15993e-16 1.65187 2.10994)
(3.00107e-16 1.66498 2.3397)
(6.32522e-16 1.64915 2.70397)
(1.12716e-15 1.60611 3.20704)
(1.73828e-15 1.54938 3.80028)
(2.36717e-15 1.4992 4.39762)
(2.90208e-15 1.47246 4.91599)
(3.26048e-15 1.47583 5.30771)
(3.40766e-15 1.50589 5.56515)
(3.35139e-15 1.55351 5.70612)
(3.12652e-15 1.60847 5.75695)
(2.78057e-15 1.66224 5.74219)
(2.36381e-15 1.7093 5.68123)
(1.92297e-15 1.74751 5.5885)
(1.49692e-15 1.77787 5.47467)
(1.11324e-15 1.80357 5.34751)
(7.85179e-16 1.8282 5.21247)
(5.08639e-16 1.85374 5.07371)
(2.59603e-16 1.87909 4.93577)
(-7.54213e-18 1.89986 4.80569)
(-3.58728e-16 1.90906 4.69415)
(-8.72298e-16 1.89759 4.6145)
(-1.62371e-15 1.85512 4.57927)
(-2.68487e-15 1.77788 4.59736)
(-4.16397e-15 1.68436 4.67339)
(-6.04286e-15 1.55511 4.77966)
(-7.13685e-15 1.07426 4.66847)
(-4.61972e-15 -0.178231 3.7392)
(-1.51337e-15 -1.10958 3.00467)
(-5.65949e-16 -1.52264 2.9031)
(-2.15294e-16 -1.80363 2.82014)
(1.03392e-16 -2.12531 2.68442)
(4.77544e-16 -2.46885 2.54889)
(8.78551e-16 -2.81716 2.4226)
(1.29548e-15 -3.16447 2.29948)
(1.72504e-15 -3.50206 2.17504)
(2.1572e-15 -3.82398 2.0466)
(2.5737e-15 -4.12553 1.91277)
(2.9467e-15 -4.4044 1.77474)
(3.24612e-15 -4.65848 1.63134)
(3.44007e-15 -4.88462 1.48209)
(3.50396e-15 -5.07665 1.32527)
(3.4212e-15 -5.23451 1.16482)
(3.1944e-15 -5.36415 1.00059)
(2.84426e-15 -5.45586 0.828565)
(2.40943e-15 -5.49941 0.652282)
(1.93124e-15 -5.50016 0.475877)
(1.429e-15 -5.43823 0.299655)
(9.31587e-16 -5.25601 0.130713)
(4.84227e-16 -4.92207 -0.016777)
(1.69026e-16 -4.45688 -0.134282)
(3.0299e-17 -3.96953 -0.214432)
(-2.16029e-18 -3.51835 -0.272762)
(-2.46376e-18 -3.11926 -0.311391)
(-4.38588e-19 -2.76181 -0.346312)
(3.01864e-20 -2.43389 -0.375511)
(2.40025e-20 -2.11012 -0.408113)
(2.72309e-21 -1.83767 -0.434773)
(-5.2578e-22 -1.53612 -0.465068)
(-2.06235e-22 -1.32071 -0.480504)
(-4.92471e-23 -0.906446 -0.509441)
(1.06366e-22 -0.695688 -0.487749)
(-3.83212e-22 -0.104274 -0.698148)
(1.12586e-22 0.97173 -0.577353)
(2.7183e-21 2.00302 -0.438862)
(-3.46226e-20 2.72129 -0.154668)
(3.46523e-19 3.30875 -0.189902)
(-5.05213e-19 3.67648 0.117541)
(-2.08646e-17 -1.59618 -0.252931)
(5.37239e-21 1.05005 1.69343)
(6.62917e-21 1.18433 1.70884)
(-2.49174e-20 1.22448 1.72338)
(-1.78862e-19 1.29594 1.75318)
(-6.45838e-19 1.34618 1.78063)
(-1.58374e-18 1.40412 1.81797)
(-2.31609e-18 1.45594 1.85669)
(1.12599e-18 1.50861 1.90584)
(2.1113e-17 1.55566 1.97388)
(8.53499e-17 1.59259 2.08858)
(2.39851e-16 1.60883 2.29117)
(5.37074e-16 1.59561 2.62743)
(1.00395e-15 1.55157 3.11482)
(1.60736e-15 1.48897 3.71545)
(2.25106e-15 1.42991 4.34176)
(2.81452e-15 1.39533 4.89898)
(3.20316e-15 1.39537 5.32702)
(3.3744e-15 1.42786 5.6121)
(3.33394e-15 1.48314 5.77194)
(3.11813e-15 1.5497 5.83531)
(2.77705e-15 1.61763 5.82895)
(2.3632e-15 1.6798 5.77313)
(1.92494e-15 1.7321 5.6822)
(1.50239e-15 1.77343 5.56663)
(1.12432e-15 1.80546 5.43471)
(8.05353e-16 1.83182 5.29329)
(5.43204e-16 1.85634 5.14819)
(3.16003e-16 1.88096 5.00498)
(8.03027e-17 1.90413 4.87071)
(-2.28802e-16 1.92076 4.75567)
(-6.92528e-16 1.92322 4.67369)
(-1.394e-15 1.90244 4.6393)
(-2.39492e-15 1.84898 4.66193)
(-3.72998e-15 1.76025 4.74164)
(-5.45797e-15 1.65844 4.87165)
(-7.54367e-15 1.5476 5.02419)
(-8.84873e-15 1.16404 4.97528)
(-6.3412e-15 0.0230178 4.06212)
(-2.03336e-15 -1.01522 3.02067)
(-5.77711e-16 -1.50064 2.81498)
(-8.50773e-17 -1.78681 2.73701)
(2.10716e-16 -2.10237 2.62506)
(5.46772e-16 -2.44594 2.49962)
(9.33629e-16 -2.79599 2.3773)
(1.34395e-15 -3.14387 2.26248)
(1.76643e-15 -3.48078 2.14871)
(2.19148e-15 -3.80145 2.03006)
(2.60077e-15 -4.10165 1.90471)
(2.96645e-15 -4.3791 1.77369)
(3.25849e-15 -4.63157 1.63586)
(3.44557e-15 -4.85587 1.49078)
(3.50349e-15 -5.0463 1.33714)
(3.41625e-15 -5.20295 1.17892)
(3.18678e-15 -5.33098 1.01603)
(2.83593e-15 -5.42106 0.844726)
(2.40197e-15 -5.46378 0.668722)
(1.92535e-15 -5.46416 0.492247)
(1.42508e-15 -5.40257 0.315581)
(9.29732e-16 -5.22279 0.145677)
(4.84119e-16 -4.89351 -0.00345745)
(1.69704e-16 -4.43452 -0.123371)
(3.07088e-17 -3.95254 -0.20675)
(-2.16046e-18 -3.50499 -0.269195)
(-2.54648e-18 -3.10775 -0.313287)
(-4.67666e-19 -2.75087 -0.355188)
(3.03957e-20 -2.42299 -0.392975)
(2.65459e-20 -2.0996 -0.434884)
(3.27144e-21 -1.82762 -0.470616)
(-5.86053e-22 -1.5281 -0.508319)
(-2.54945e-22 -1.31275 -0.528756)
(-5.74422e-23 -0.904851 -0.561677)
(1.04351e-22 -0.673337 -0.533658)
(-1.66591e-22 -0.0967888 -0.746559)
(-4.81994e-22 0.944762 -0.628453)
(5.07289e-21 1.96272 -0.462983)
(-4.41583e-20 2.69458 -0.177009)
(3.76095e-19 3.28442 -0.190764)
(8.65991e-19 3.67215 0.123012)
(-1.91691e-17 -1.56595 -0.142491)
(6.7881e-21 1.0476 1.74376)
(-1.02514e-20 1.1819 1.76024)
(-1.13448e-19 1.21941 1.77429)
(-4.63995e-19 1.29024 1.80609)
(-1.27708e-18 1.33928 1.83417)
(-2.30199e-18 1.39623 1.87358)
(-9.51494e-19 1.44645 1.91598)
(1.21566e-17 1.49536 1.97642)
(6.03614e-17 1.53386 2.0734)
(1.86622e-16 1.55408 2.24925)
(4.46802e-16 1.5444 2.55344)
(8.8043e-16 1.50062 3.01799)
(1.4699e-15 1.43204 3.61894)
(2.1253e-15 1.36148 4.27156)
(2.71862e-15 1.31387 4.86988)
(3.14146e-15 1.304 5.33898)
(3.34094e-15 1.33248 5.65633)
(3.31927e-15 1.39022 5.83859)
(3.11403e-15 1.46506 5.91733)
(2.77803e-15 1.54593 5.92218)
(2.36634e-15 1.62434 5.87487)
(1.92922e-15 1.69438 5.78972)
(1.50827e-15 1.75266 5.67637)
(1.13368e-15 1.79837 5.5424)
(8.21714e-16 1.83329 5.39486)
(5.72122e-16 1.86112 5.2409)
(3.65394e-16 1.88573 5.08789)
(1.60348e-16 1.90881 4.94419)
(-1.06588e-16 1.92829 4.82056)
(-5.17745e-16 1.93843 4.7312)
(-1.16255e-15 1.93135 4.6922)
(-2.11485e-15 1.89885 4.71631)
(-3.40334e-15 1.83349 4.80523)
(-5.00687e-15 1.73458 4.94576)
(-6.92263e-15 1.62701 5.1182)
(-9.10878e-15 1.53502 5.29856)
(-1.05705e-14 1.25088 5.30275)
(-8.26016e-15 0.253722 4.45028)
(-2.82865e-15 -0.868685 3.09935)
(-7.47634e-16 -1.46047 2.74441)
(-9.86232e-18 -1.76831 2.64216)
(3.34092e-16 -2.08019 2.54608)
(6.33488e-16 -2.42142 2.44139)
(9.93394e-16 -2.77223 2.32702)
(1.39394e-15 -3.1214 2.21912)
(1.80963e-15 -3.45806 2.11635)
(2.22714e-15 -3.77754 2.00932)
(2.62868e-15 -4.07639 1.89427)
(2.98666e-15 -4.35246 1.7719)
(3.27105e-15 -4.60339 1.64106)
(3.45103e-15 -4.826 1.50129)
(3.5028e-15 -5.01501 1.35171)
(3.41095e-15 -5.17064 1.19637)
(3.17876e-15 -5.29727 1.03522)
(2.82717e-15 -5.38597 0.86484)
(2.3941e-15 -5.42812 0.689161)
(1.91907e-15 -5.4284 0.512518)
(1.42079e-15 -5.36742 0.335185)
(9.2756e-16 -5.19034 0.163998)
(4.83779e-16 -4.86604 0.0128267)
(1.7024e-16 -4.41363 -0.109912)
(3.10814e-17 -3.9374 -0.196958)
(-2.15544e-18 -3.49372 -0.264037)
(-2.62414e-18 -3.09843 -0.314248)
(-4.96689e-19 -2.74203 -0.36405)
(3.02659e-20 -2.41403 -0.411659)
(2.92009e-20 -2.0909 -0.464443)
(3.91062e-21 -1.8193 -0.51094)
(-6.42523e-22 -1.52193 -0.557773)
(-3.14024e-22 -1.30635 -0.584556)
(-6.90374e-23 -0.905745 -0.622811)