/*--------------------------------*- C++ -*----------------------------------*\
| =========                 |                                                 |
| \\      /  F ield         | OpenFOAM: The Open Source CFD Toolbox           |
|  \\    /   O peration     | Version:  4.1                                   |
|   \\  /    A nd           | Web:      www.OpenFOAM.org                      |
|    \\/     M anipulation  |                                                 |
\*---------------------------------------------------------------------------*/
FoamFile
{
    version     2.0;
    format      ascii;
    class       volSymmTensorField;
    location    "17";
    object      turbulenceProperties:R;
}
// * * * * * * * * * * * * * * * * * * * * * * * * * * * * * * * * * * * * * //

dimensions      [0 2 -2 0 0 0 0];

internalField   nonuniform List<symmTensor> 
6785
(
(0.753313 1.39197e-19 7.37524e-20 0.753188 0.000167494 0.753499)
(0.753354 -1.03767e-19 -5.10083e-20 0.75332 6.81575e-06 0.753325)
(0.753325 -3.66127e-20 -2.73789e-20 0.75336 3.86993e-05 0.753315)
(0.753334 2.0862e-20 1.4702e-20 0.753345 2.66718e-05 0.753321)
(0.753331 -2.80356e-20 -8.11763e-21 0.753347 2.71643e-05 0.753322)
(0.753333 1.66901e-20 -8.45604e-22 0.753343 2.4131e-05 0.753324)
(0.753332 1.87005e-21 5.66028e-21 0.753342 2.23191e-05 0.753326)
(0.753333 -2.50425e-20 -6.23673e-21 0.75334 2.03806e-05 0.753328)
(0.753333 6.76913e-21 -4.63445e-21 0.753337 1.8753e-05 0.75333)
(0.753333 3.74872e-21 5.0116e-21 0.753334 1.77651e-05 0.753333)
(0.753332 -1.34525e-20 -3.1144e-21 0.753331 1.74755e-05 0.753336)
(0.753334 3.99569e-21 -1.82851e-21 0.753326 1.37161e-05 0.75334)
(0.753334 -3.34514e-22 9.05736e-21 0.753325 7.31235e-06 0.753341)
(0.753319 -6.32543e-21 1.97297e-21 0.753357 8.73437e-06 0.753324)
(0.753346 3.80369e-21 -1.72007e-21 0.75339 -7.92772e-05 0.753264)
(0.75333 1.88833e-19 1.20293e-19 0.753005 0.000220871 0.753666)
(0.753351 -1.31501e-19 -7.67986e-20 0.753339 -1.61338e-05 0.753309)
(0.753325 -5.23735e-20 -3.06498e-20 0.753377 1.15287e-05 0.753297)
(0.753341 1.81383e-20 2.10221e-20 0.753351 -6.63331e-06 0.753308)
(0.753333 -1.90455e-20 -1.09603e-20 0.753361 8.92405e-07 0.753306)
(0.753336 7.76575e-21 3.36847e-21 0.753355 -3.05382e-06 0.753309)
(0.753335 -1.38474e-20 1.42199e-20 0.753355 -2.50837e-06 0.75331)
(0.753335 -1.18563e-20 -6.65354e-21 0.753353 -3.58079e-06 0.753312)
(0.753334 3.85655e-21 1.34854e-21 0.753352 -4.01999e-06 0.753314)
(0.753334 -3.53691e-21 7.48777e-21 0.753351 -5.39361e-06 0.753314)
(0.753334 -6.89749e-21 -4.23452e-21 0.753356 -9.68267e-06 0.75331)
(0.753334 -1.74236e-21 -1.64188e-21 0.753369 -2.13774e-05 0.753296)
(0.753334 -4.88514e-21 1.93022e-21 0.75339 -4.05117e-05 0.753276)
(0.753335 -2.66395e-21 -1.82201e-21 0.753391 -5.2954e-05 0.753275)
(0.753332 1.00373e-20 7.49686e-21 0.753318 -8.77592e-06 0.75335)
(0.75333 2.28316e-19 7.49332e-20 0.752968 0.000220337 0.753703)
(0.753339 -1.48688e-19 -7.71816e-20 0.753347 -1.70271e-05 0.753314)
(0.753325 -4.56688e-20 -2.71603e-20 0.75337 -2.58498e-06 0.753306)
(0.753338 4.04087e-20 -2.17871e-20 0.753348 -1.79355e-05 0.753314)
(0.753329 -2.26639e-20 -1.87752e-20 0.75336 -7.67177e-06 0.753311)
(0.753334 8.51779e-21 4.39447e-21 0.753351 -1.35697e-05 0.753315)
(0.753332 9.34672e-21 -3.73783e-20 0.753353 -1.05335e-05 0.753315)
(0.753333 -1.07638e-20 -5.89773e-21 0.75335 -1.16432e-05 0.753317)
(0.753333 6.9638e-21 3.73568e-21 0.75335 -1.06311e-05 0.753318)
(0.753333 1.23608e-20 -2.49365e-20 0.75335 -1.1543e-05 0.753317)
(0.753333 -9.30315e-21 -3.4871e-21 0.753356 -1.44649e-05 0.753312)
(0.753333 9.95252e-22 7.36564e-22 0.753372 -2.44047e-05 0.753295)
(0.753331 3.17452e-21 -9.20968e-21 0.753409 -3.86125e-05 0.75326)
(0.75334 -1.93103e-20 -7.79296e-21 0.753409 -5.30166e-05 0.753251)
(0.753329 1.37054e-20 9.81731e-21 0.7533 3.35632e-05 0.753371)
(0.753332 2.08668e-19 1.41399e-19 0.752969 0.000209986 0.753699)
(0.753336 -1.36572e-19 -1.12332e-19 0.753347 -1.50894e-05 0.753317)
(0.753328 -5.72257e-20 -2.04859e-20 0.753366 -1.07695e-05 0.753305)
(0.753338 1.47134e-20 9.55831e-21 0.753349 -2.11769e-05 0.753313)
(0.75333 -2.38842e-21 -2.41573e-20 0.75336 -1.05661e-05 0.75331)
(0.753336 1.28786e-21 1.39593e-20 0.753351 -1.78964e-05 0.753313)
(0.753332 -1.21096e-20 -5.40922e-21 0.753354 -1.28723e-05 0.753314)
(0.753334 -1.44852e-21 -2.07626e-20 0.753348 -1.42331e-05 0.753318)
(0.753333 2.24714e-21 1.25385e-20 0.753347 -1.26648e-05 0.75332)
(0.753334 -9.00758e-21 -3.52333e-21 0.753346 -1.35974e-05 0.75332)
(0.753333 1.065e-22 -1.48994e-20 0.75335 -1.40634e-05 0.753316)
(0.753334 4.21652e-21 4.3703e-21 0.753358 -1.61777e-05 0.753308)
(0.753333 -1.0947e-20 -5.0267e-21 0.753375 -1.80229e-05 0.753292)
(0.753336 -1.68492e-20 -1.0505e-20 0.753389 -2.10855e-05 0.753275)
(0.753331 3.24381e-20 2.34357e-20 0.753389 -6.35163e-06 0.75328)
(0.753333 2.12191e-19 1.01663e-19 0.752978 0.000206051 0.753689)
(0.753335 -1.32871e-19 -1.08128e-19 0.753349 -1.32367e-05 0.753316)
(0.75333 -4.13342e-20 -3.55983e-20 0.753366 -1.24884e-05 0.753304)
(0.753337 1.22458e-20 -1.77721e-21 0.753355 -1.98166e-05 0.753308)
(0.75333 -3.08698e-21 -2.2631e-20 0.753363 -1.06451e-05 0.753307)
(0.753336 8.15609e-21 -5.34512e-21 0.753356 -1.75717e-05 0.753308)
(0.753332 -1.33432e-20 -1.57105e-20 0.753361 -1.31617e-05 0.753307)
(0.753334 5.54937e-21 -1.36695e-20 0.753358 -1.83406e-05 0.753308)
(0.753333 9.38118e-21 -1.60905e-21 0.753354 -1.82128e-05 0.753313)
(0.753334 -9.22192e-21 -1.26427e-20 0.753343 -1.72598e-05 0.753324)
(0.753333 6.28877e-21 -1.45748e-20 0.753336 -1.33511e-05 0.753331)
(0.753333 1.0565e-20 6.54813e-22 0.753335 -9.55989e-06 0.753332)
(0.753334 -3.30894e-20 -2.14649e-20 0.753343 -6.7115e-06 0.753324)
(0.753334 -2.78078e-20 -2.54442e-20 0.753361 -7.41035e-06 0.753305)
(0.753332 8.13763e-20 4.36995e-20 0.753444 -4.71712e-05 0.753223)
(0.753332 1.81304e-19 1.27275e-19 0.752972 0.00021348 0.753695)
(0.753335 -1.50511e-19 -6.3375e-20 0.753353 -1.07336e-05 0.753311)
(0.753331 -5.13094e-20 1.93637e-21 0.753365 -8.36874e-06 0.753304)
(0.753336 2.76475e-21 2.88551e-21 0.753358 -1.41331e-05 0.753306)
(0.753331 -9.7056e-21 5.20412e-21 0.753363 -6.65445e-06 0.753306)
(0.753335 -1.5287e-20 1.38384e-20 0.75336 -1.18152e-05 0.753306)
(0.753332 -1.00226e-20 -4.40393e-21 0.753372 -1.32146e-05 0.753296)
(0.753334 1.26487e-20 1.67716e-20 0.753383 -2.45794e-05 0.753283)
(0.753333 1.30016e-20 1.72206e-20 0.753388 -2.90289e-05 0.753279)
(0.753333 4.97927e-21 4.97543e-22 0.75337 -2.54359e-05 0.753296)
(0.753333 -1.4316e-20 -7.77622e-21 0.75334 -1.31381e-05 0.753327)
(0.753333 -3.6645e-20 -1.50581e-20 0.753306 1.01622e-07 0.753361)
(0.753334 -3.11478e-20 -1.7217e-20 0.753287 6.92891e-06 0.753379)
(0.75333 1.56862e-21 5.5312e-21 0.753318 3.92899e-07 0.753352)
(0.753334 4.77209e-20 3.26247e-20 0.753462 -8.31582e-05 0.753203)
(0.753332 1.70022e-19 1.22119e-19 0.752945 0.000225188 0.753723)
(0.753336 -1.45618e-19 -6.49683e-20 0.75335 -6.69842e-06 0.753314)
(0.753331 -5.06135e-20 1.06819e-20 0.753368 -9.34728e-06 0.753301)
(0.753335 3.4325e-21 2.45073e-21 0.753355 -1.16096e-05 0.75331)
(0.753332 -1.55425e-20 1.801e-21 0.753359 -5.53771e-06 0.75331)
(0.753335 -1.81826e-20 1.41073e-20 0.753355 -9.64544e-06 0.75331)
(0.753332 -7.32596e-21 -4.85797e-21 0.753367 -1.1022e-05 0.7533)
(0.753334 -1.97811e-21 1.22976e-20 0.753383 -2.18479e-05 0.753283)
(0.753333 1.24612e-20 2.47096e-20 0.753399 -2.63293e-05 0.753268)
(0.753334 6.02151e-21 -2.43857e-22 0.753399 -2.69711e-05 0.753268)
(0.753333 -1.49975e-20 -5.3574e-21 0.753391 -2.47262e-05 0.753276)
(0.753333 -1.22123e-20 -8.06348e-21 0.75337 -2.11417e-05 0.753297)
(0.753332 -2.82463e-20 -2.07777e-20 0.753331 -1.02576e-05 0.753337)
(0.753331 -1.74485e-20 -1.51224e-20 0.753296 -1.04405e-06 0.753372)
(0.753335 6.19231e-20 3.48684e-20 0.753331 -2.77974e-05 0.753334)
(0.753332 1.95792e-19 9.49224e-20 0.752936 0.000221229 0.753732)
(0.753336 -1.19982e-19 -7.46289e-20 0.753325 4.14426e-06 0.753339)
(0.753331 -5.09659e-20 -5.40752e-20 0.753375 -1.72758e-05 0.753293)
(0.753335 -1.29011e-21 7.73614e-21 0.753356 -1.63379e-05 0.753309)
(0.753332 -8.40521e-21 -5.85102e-21 0.753355 -9.50844e-06 0.753313)
(0.753335 6.81484e-21 -1.01519e-20 0.75335 -1.29978e-05 0.753315)
(0.753332 -1.04421e-20 -5.4842e-21 0.753356 -1.1656e-05 0.753312)
(0.753334 -1.37769e-21 -2.30677e-21 0.753363 -1.72349e-05 0.753303)
(0.753333 1.40635e-20 -3.30542e-21 0.753376 -1.90002e-05 0.75329)
(0.753333 5.7278e-21 4.06408e-21 0.753386 -2.08797e-05 0.753281)
(0.753333 1.07164e-21 1.34016e-22 0.753395 -2.21294e-05 0.753272)
(0.753333 8.22874e-21 9.88055e-22 0.753405 -2.67419e-05 0.753262)
(0.753332 2.69661e-21 9.94291e-22 0.753408 -2.84335e-05 0.75326)
(0.753341 -1.23713e-20 -1.33249e-20 0.753358 -2.70063e-05 0.753301)
(0.753332 -5.73118e-21 -6.61436e-21 0.753261 3.36042e-05 0.753406)
(0.753333 1.94714e-19 1.15441e-19 0.752961 0.0002023 0.753706)
(0.753334 -8.82573e-20 -5.5247e-20 0.753294 1.86274e-05 0.753372)
(0.753332 -6.36404e-20 -7.51064e-20 0.753377 -2.28966e-05 0.753291)
(0.753335 -1.38088e-20 -7.99974e-21 0.753363 -2.29047e-05 0.753302)
(0.753332 -2.23722e-21 -2.41279e-21 0.753356 -1.47163e-05 0.753312)
(0.753334 1.74116e-20 -2.56828e-20 0.753351 -1.65197e-05 0.753315)
(0.753333 -3.41944e-21 -3.39171e-21 0.753353 -1.48125e-05 0.753315)
(0.753334 -2.16883e-21 -3.15366e-21 0.753354 -1.69568e-05 0.753312)
(0.753333 1.37081e-20 -1.73455e-20 0.753359 -1.69771e-05 0.753308)
(0.753333 3.00544e-21 1.64652e-21 0.753364 -1.75827e-05 0.753303)
(0.753333 3.83353e-21 1.33372e-21 0.753371 -1.73375e-05 0.753296)
(0.753334 7.12292e-21 -8.0738e-21 0.753378 -1.84017e-05 0.753288)
(0.753332 6.21664e-21 5.16039e-21 0.753389 -1.71502e-05 0.753278)
(0.753338 -9.93901e-21 -6.53355e-21 0.753398 -3.02522e-05 0.753264)
(0.75333 -1.17418e-20 -1.11724e-21 0.753333 1.40885e-05 0.753337)
(0.753334 2.10285e-19 1.00147e-19 0.752994 0.000186475 0.753673)
(0.753333 -6.81535e-20 -4.17821e-20 0.753275 2.99531e-05 0.753391)
(0.753333 -8.33872e-20 -7.13056e-20 0.753375 -2.42625e-05 0.753292)
(0.753334 -5.66242e-21 -3.74475e-20 0.753369 -2.5288e-05 0.753297)
(0.753332 1.22978e-21 -3.09837e-23 0.753359 -1.64865e-05 0.753309)
(0.753334 9.08739e-21 -7.67073e-21 0.753353 -1.64512e-05 0.753313)
(0.753333 1.09901e-20 -1.75369e-20 0.753354 -1.47308e-05 0.753313)
(0.753333 -8.36103e-22 -1.53239e-21 0.753354 -1.54711e-05 0.753313)
(0.753333 1.44426e-22 -1.00258e-20 0.753355 -1.48373e-05 0.753312)
(0.753333 9.38106e-21 -1.51803e-20 0.753356 -1.48126e-05 0.753311)
(0.753333 2.67694e-21 1.30307e-21 0.753359 -1.45883e-05 0.753307)
(0.753333 -6.46571e-21 -8.27658e-21 0.753364 -1.57631e-05 0.753303)
(0.753333 1.16447e-20 4.92589e-22 0.753374 -1.75319e-05 0.753293)
(0.753336 -7.41033e-21 -5.54431e-22 0.753392 -3.22826e-05 0.753272)
(0.753329 -4.56931e-21 3.59036e-21 0.753365 -1.62142e-06 0.753306)
(0.753334 1.98924e-19 1.05809e-19 0.753013 0.000180267 0.753653)
(0.753333 -6.49563e-20 -1.78472e-20 0.753269 3.43153e-05 0.753398)
(0.753333 -6.77618e-20 -1.07454e-19 0.753373 -2.40122e-05 0.753294)
(0.753334 -2.13733e-20 -1.15219e-20 0.753371 -2.52787e-05 0.753295)
(0.753333 -5.33635e-21 6.7004e-21 0.75336 -1.64648e-05 0.753308)
(0.753334 1.66659e-20 -3.35603e-20 0.753354 -1.51844e-05 0.753313)
(0.753333 5.92339e-21 5.14545e-21 0.753354 -1.32544e-05 0.753313)
(0.753333 -1.16109e-20 3.39568e-21 0.753353 -1.33667e-05 0.753314)
(0.753333 3.75861e-21 -3.51156e-20 0.753353 -1.2409e-05 0.753314)
(0.753333 9.36338e-21 7.94427e-21 0.753353 -1.20835e-05 0.753314)
(0.753333 -9.71185e-21 7.31176e-21 0.753354 -1.16953e-05 0.753313)
(0.753334 -6.85074e-21 -2.81944e-20 0.753357 -1.23281e-05 0.75331)
(0.753333 -9.11507e-21 -1.89675e-21 0.753364 -1.34537e-05 0.753303)
(0.753335 -2.38557e-20 -2.50547e-20 0.753385 -2.64765e-05 0.75328)
(0.753332 5.84985e-20 4.12108e-20 0.753389 -2.15265e-05 0.753279)
(0.753334 1.99049e-19 1.16323e-19 0.753026 0.000176442 0.75364)
(0.753333 -6.97297e-20 -2.75766e-20 0.75327 3.34215e-05 0.753397)
(0.753333 -1.02766e-19 -8.657e-20 0.753369 -2.38545e-05 0.753298)
(0.753334 -1.02412e-20 -4.26711e-21 0.753371 -2.55121e-05 0.753295)
(0.753333 -1.16743e-20 2.50986e-21 0.753361 -1.682e-05 0.753307)
(0.753334 -6.99056e-21 -2.54463e-20 0.753353 -1.39885e-05 0.753313)
(0.753333 1.82007e-20 1.46493e-20 0.753352 -1.1714e-05 0.753315)
(0.753334 -1.02664e-20 1.55605e-20 0.753351 -1.16158e-05 0.753316)
(0.753333 -2.38397e-20 -2.52708e-20 0.753351 -1.101e-05 0.753316)
(0.753333 -5.85843e-21 -3.06473e-22 0.75335 -1.07664e-05 0.753316)
(0.753333 -6.24582e-21 -7.75725e-22 0.75335 -9.65152e-06 0.753317)
(0.753334 -3.93337e-21 -1.16546e-20 0.753349 -8.09148e-06 0.753317)
(0.753333 -1.41844e-20 1.05073e-21 0.753353 -6.21226e-06 0.753314)
(0.753334 -3.75779e-20 -2.47342e-20 0.753377 -1.86226e-05 0.753289)
(0.753333 8.91632e-20 5.6737e-20 0.75342 -3.71702e-05 0.753248)
(0.753333 1.96089e-19 9.56463e-20 0.753026 0.00017499 0.75364)
(0.753333 -5.79108e-20 -5.39772e-20 0.753286 2.63678e-05 0.753381)
(0.753333 -1.24713e-19 -4.83388e-20 0.753369 -2.25888e-05 0.753298)
(0.753333 2.14175e-20 -1.56103e-20 0.753363 -2.17504e-05 0.753304)
(0.753333 -6.76278e-21 -2.57618e-21 0.753353 -1.64932e-05 0.753314)
(0.753334 -4.68621e-20 -2.45105e-20 0.753349 -1.6306e-05 0.753318)
(0.753333 4.59411e-20 1.5084e-20 0.753349 -1.54008e-05 0.753318)
(0.753333 1.80026e-20 4.04314e-20 0.753348 -1.5955e-05 0.753318)
(0.753333 -4.99525e-20 -3.93132e-20 0.753349 -1.5186e-05 0.753318)
(0.753333 -1.85826e-20 -1.04649e-20 0.753348 -1.25096e-05 0.753319)
(0.753333 -5.33205e-21 5.35018e-21 0.753345 -6.77131e-06 0.753322)
(0.753333 -1.41439e-20 -1.26922e-20 0.75334 5.94398e-07 0.753326)
(0.753333 -5.66758e-21 -7.95807e-22 0.753341 5.18474e-06 0.753326)
(0.753334 -4.08244e-20 -1.5758e-20 0.753365 -6.7661e-06 0.753301)
(0.753333 1.05919e-19 5.79478e-20 0.753468 -6.43073e-05 0.753199)
(0.753335 1.63926e-19 9.41468e-20 0.753032 0.00016011 0.753633)
(0.753333 -4.29166e-20 -3.32098e-20 0.753272 3.22685e-05 0.753395)
(0.753334 -1.19182e-19 -1.08513e-19 0.753383 -2.30182e-05 0.753283)
(0.753334 5.97073e-21 -1.27018e-20 0.753393 -2.38001e-05 0.753274)
(0.753333 8.26499e-21 -4.15341e-21 0.753376 -1.3391e-05 0.753291)
(0.753334 -3.20479e-21 -3.12994e-21 0.753363 -8.75888e-06 0.753303)
(0.753333 4.96342e-20 3.15554e-20 0.753357 -7.54562e-06 0.753309)
(0.753334 -1.58963e-21 -5.1882e-21 0.75335 -7.39983e-06 0.753317)
(0.753333 -4.58806e-20 -2.69854e-20 0.753338 -3.73859e-06 0.753328)
(0.753333 -2.25927e-20 -1.03436e-20 0.753324 1.22759e-06 0.753342)
(0.753333 -1.5568e-20 -1.54115e-20 0.753314 5.97452e-06 0.753353)
(0.753333 -1.4715e-20 -8.48148e-21 0.753312 8.93378e-06 0.753355)
(0.753333 -1.77631e-20 1.37412e-21 0.753322 6.27528e-06 0.753345)
(0.753333 -3.2349e-20 -2.46508e-20 0.753363 -1.38687e-05 0.753304)
(0.753334 1.2528e-19 7.14858e-20 0.753503 -9.91992e-05 0.753163)
(0.753332 9.25368e-20 6.14295e-20 0.753068 0.000130078 0.753601)
(0.753333 4.09434e-20 1.57761e-20 0.753191 3.94999e-05 0.753476)
(0.753333 -6.50988e-20 -1.93199e-20 0.753292 -3.99753e-06 0.753375)
(0.753333 -4.42473e-20 -3.56862e-20 0.753342 -1.58274e-05 0.753324)
(0.753333 -1.22187e-20 -2.48162e-20 0.753363 -1.60515e-05 0.753304)
(0.753333 -1.33217e-20 -2.25104e-21 0.753377 -1.79614e-05 0.75329)
(0.753333 1.44628e-20 4.18028e-21 0.753388 -1.65628e-05 0.753279)
(0.753333 9.90007e-21 -4.65004e-21 0.753391 -1.50455e-05 0.753276)
(0.753333 -1.12867e-20 6.95061e-22 0.753389 -1.25945e-05 0.753277)
(0.753333 -2.31888e-20 -1.85059e-20 0.753379 -6.93347e-06 0.753288)
(0.753333 -2.87485e-20 -2.78414e-20 0.753354 4.22533e-06 0.753313)
(0.753333 -2.66591e-20 -1.73119e-20 0.753323 1.72839e-05 0.753344)
(0.753334 -4.19441e-20 -3.10276e-20 0.753313 1.68679e-05 0.753353)
(0.753332 -2.22812e-20 -2.65578e-20 0.753363 -1.10722e-05 0.753305)
(0.753335 1.31154e-19 7.12823e-20 0.753466 -6.99549e-05 0.753199)
(0.753638 1.51773e-20 9.58357e-22 0.752909 0.000357995 0.753452)
(0.753267 1.19167e-20 1.92177e-21 0.753433 0.000382102 0.7533)
(0.753334 -2.19326e-21 4.07567e-21 0.753329 5.55728e-05 0.753337)
(0.753334 -7.24772e-22 3.86427e-21 0.753319 -1.70376e-05 0.753347)
(0.753335 6.25031e-21 4.31882e-21 0.753318 1.09048e-05 0.753348)
(0.753333 1.82599e-22 1.6115e-21 0.753328 -2.98311e-06 0.753339)
(0.753332 -6.59617e-21 4.31566e-21 0.753325 -7.03694e-06 0.753343)
(0.753335 2.26828e-21 3.9639e-21 0.753318 2.04153e-07 0.753346)
(0.753334 -3.92151e-21 3.60832e-21 0.75332 3.04984e-06 0.753346)
(0.753333 -9.26733e-21 1.28216e-23 0.753329 -3.08694e-06 0.753338)
(0.753332 -3.04697e-21 1.27647e-21 0.753326 -1.14772e-05 0.753342)
(0.753335 7.64378e-21 1.62348e-21 0.753319 -2.23457e-07 0.753345)
(0.753333 3.98392e-21 1.34337e-21 0.75333 -2.58917e-06 0.753337)
(0.753332 -1.58279e-22 2.57847e-21 0.753326 -9.87966e-06 0.753342)
(0.753334 2.45734e-21 2.63943e-21 0.753323 -4.62395e-06 0.753343)
(0.753333 8.23086e-21 3.40404e-21 0.753325 -1.46917e-06 0.753342)
(0.753333 2.6713e-21 1.0619e-21 0.753331 -2.42272e-06 0.753336)
(0.753332 -2.66694e-21 3.3706e-21 0.753329 -1.07175e-05 0.753339)
(0.753336 7.77926e-21 4.06433e-21 0.753321 -3.4213e-06 0.753343)
(0.753333 2.53508e-21 6.82257e-22 0.753332 -2.2446e-06 0.753335)
(0.753332 -7.93976e-22 4.77291e-21 0.753329 -8.95177e-06 0.753339)
(0.753335 2.01128e-22 4.70229e-21 0.753325 -4.9725e-06 0.75334)
(0.753334 4.46217e-21 4.55301e-21 0.753327 -3.57261e-06 0.753339)
(0.753333 2.22522e-21 6.85241e-22 0.753333 -1.92147e-06 0.753334)
(0.753332 -3.84737e-21 5.58914e-21 0.75333 -8.34047e-06 0.753337)
(0.753335 4.59293e-21 5.48972e-21 0.753326 -5.11722e-06 0.753339)
(0.753333 8.01232e-21 6.89107e-21 0.753328 -4.46458e-06 0.753338)
(0.753333 9.60475e-22 5.03198e-22 0.753334 -1.73975e-06 0.753332)
(0.753331 -2.65529e-21 6.53631e-21 0.753333 -8.14253e-06 0.753335)
(0.753337 1.12014e-20 6.83327e-21 0.753323 -5.9726e-06 0.753341)
(0.753333 3.29934e-21 7.32423e-22 0.753336 -1.90221e-06 0.753331)
(0.753332 -6.7374e-21 8.06165e-21 0.753333 -7.5792e-06 0.753335)
(0.753335 -1.61944e-21 7.20852e-21 0.753327 -6.37626e-06 0.753338)
(0.753333 9.15021e-21 7.90523e-21 0.753331 -7.28821e-06 0.753336)
(0.753333 -4.51259e-23 1.4563e-21 0.753336 -2.36314e-06 0.75333)
(0.753331 -1.83709e-20 7.80277e-21 0.753336 -7.20404e-06 0.753333)
(0.753336 -1.81096e-21 6.55356e-21 0.753326 -8.56549e-06 0.753338)
(0.753333 -4.67957e-21 2.76793e-21 0.753337 -2.61512e-06 0.75333)
(0.753332 -1.97932e-20 6.17554e-21 0.753336 -6.16381e-06 0.753332)
(0.753335 -2.14772e-20 3.96264e-21 0.753331 -6.14759e-06 0.753334)
(0.753334 -1.54064e-20 2.03277e-21 0.753333 -8.5653e-06 0.753333)
(0.753333 -7.49668e-21 2.44017e-21 0.753337 -2.18243e-06 0.75333)
(0.753333 -1.52578e-20 6.09287e-22 0.753337 -3.8522e-06 0.753331)
(0.753334 -1.39182e-20 -1.0328e-21 0.753333 -4.43121e-06 0.753333)
(0.753334 -1.34327e-20 -2.52939e-21 0.753335 -7.45438e-06 0.753331)
(0.753333 -4.04382e-21 -9.74691e-22 0.753336 -1.81276e-06 0.753331)
(0.753333 -1.02896e-21 -3.3372e-21 0.753338 -1.39785e-06 0.753329)
(0.753336 -9.98558e-21 -3.68575e-21 0.753332 -6.53999e-06 0.753333)
(0.753333 -4.95242e-21 -1.81581e-21 0.753335 -1.10445e-06 0.753333)
(0.753334 -1.15669e-21 -4.64842e-21 0.753337 -8.91677e-07 0.753329)
(0.753334 -2.79217e-21 -5.09566e-21 0.753336 -4.77724e-07 0.75333)
(0.753334 -7.75403e-21 -5.78838e-21 0.753337 -4.85466e-06 0.75333)
(0.753333 -9.44939e-22 -9.42415e-22 0.753337 9.51829e-07 0.75333)
(0.753333 9.8921e-21 -5.97777e-21 0.753338 2.37899e-06 0.753329)
(0.753334 1.65804e-21 -5.23986e-21 0.753335 8.79827e-07 0.753331)
(0.753333 -6.26414e-21 -5.64491e-21 0.753337 -1.32477e-06 0.75333)
(0.753333 7.43138e-22 4.88751e-22 0.753341 5.72826e-06 0.753326)
(0.753332 2.29751e-20 -5.18902e-21 0.753337 2.61176e-06 0.753331)
(0.753334 1.19965e-20 -3.34083e-21 0.75333 9.26506e-06 0.753335)
(0.753334 -5.36623e-22 1.6352e-21 0.753345 1.62822e-05 0.753321)
(0.753327 3.67027e-21 -3.68259e-21 0.753338 5.61242e-06 0.753335)
(0.753338 7.20322e-21 -3.16807e-21 0.753315 -4.78319e-07 0.753347)
(0.753335 -2.24968e-20 -4.92512e-21 0.75332 9.56641e-06 0.753345)
(0.753333 1.65264e-20 -2.01291e-21 0.753352 -5.07782e-06 0.753316)
(0.753333 4.65201e-20 -1.97168e-22 0.75333 -2.0099e-05 0.753337)
(0.753335 1.55742e-20 3.34187e-21 0.75333 -1.87216e-05 0.753335)
(0.753333 1.97864e-20 3.59397e-21 0.753358 -2.26114e-05 0.753308)
(0.753331 1.14981e-20 7.09023e-21 0.753352 -7.5503e-06 0.753317)
(0.753337 1.89825e-20 9.37058e-21 0.753343 -2.70473e-06 0.75332)
(0.753332 3.5477e-20 1.26809e-20 0.75336 -3.44094e-05 0.753308)
(0.753333 9.35154e-21 3.3077e-21 0.753365 -1.44637e-05 0.753302)
(0.753333 -4.31128e-21 1.44991e-20 0.753369 9.04682e-06 0.753299)
(0.753337 6.27128e-21 1.44382e-20 0.753361 -2.23194e-06 0.753302)
(0.753333 1.20586e-20 1.56801e-20 0.753379 -3.52616e-05 0.753288)
(0.753331 -9.50664e-21 -2.49411e-21 0.753374 -7.27275e-06 0.753295)
(0.753347 -3.16233e-20 1.26098e-20 0.753356 2.8376e-05 0.753297)
(0.753331 -1.19598e-20 1.0303e-20 0.753394 -3.23603e-05 0.753275)
(0.753331 -1.88825e-20 -1.97086e-21 0.753374 1.48952e-06 0.753295)
(0.753347 -2.97041e-20 6.397e-21 0.753366 4.25065e-05 0.753287)
(0.75333 1.87143e-20 4.4009e-21 0.753401 -6.86923e-05 0.753269)
(0.753328 -1.02182e-20 -1.14384e-20 0.753362 -7.08865e-05 0.75331)
(0.753339 -5.56565e-20 -1.40699e-20 0.753339 -1.89477e-05 0.753322)
(0.753323 -5.14009e-20 -1.57066e-20 0.753378 -4.39127e-05 0.753299)
(0.753334 -2.80778e-20 6.70325e-21 0.753349 -3.12965e-06 0.753317)
(0.753335 1.16129e-20 -1.42103e-20 0.753344 -1.28584e-05 0.753321)
(0.753327 -6.99361e-21 -1.34226e-20 0.753349 -4.50988e-05 0.753324)
(0.753336 -5.41836e-21 -1.40723e-20 0.753334 -1.41309e-05 0.753331)
(0.753332 -3.60189e-21 -1.41963e-20 0.753342 -1.85859e-05 0.753326)
(0.753334 3.40374e-22 -1.42885e-20 0.75334 -2.31576e-05 0.753326)
(0.753332 -1.85384e-20 -1.50787e-20 0.753346 -2.08515e-05 0.753322)
(0.753335 -4.67877e-20 -1.53287e-20 0.753341 -1.5163e-05 0.753324)
(0.753331 -4.80406e-20 -1.28639e-20 0.753354 -2.06009e-05 0.753315)
(0.753333 -9.14164e-21 2.31789e-21 0.753343 -2.21107e-06 0.753323)
(0.753337 7.83736e-21 -1.07208e-20 0.753339 4.13494e-06 0.753325)
(0.753331 -1.17281e-20 -9.29648e-21 0.753348 -2.01081e-05 0.753322)
(0.753335 -3.30348e-20 -9.08514e-21 0.753343 6.18816e-06 0.753322)
(0.753334 -2.43287e-20 -7.41616e-21 0.75335 1.21474e-05 0.753316)
(0.753333 1.50724e-21 -8.10401e-21 0.753352 -4.3749e-06 0.753315)
(0.753332 3.26027e-21 -7.94453e-21 0.753356 -1.05618e-05 0.753312)
(0.753335 9.12671e-21 -7.55888e-21 0.753351 -1.992e-05 0.753314)
(0.753334 -1.21411e-20 -9.01853e-21 0.753358 -3.27229e-05 0.753308)
(0.753333 5.31638e-21 -2.62892e-20 0.753339 -7.35929e-06 0.753328)
(0.753339 1.4715e-21 -6.82677e-21 0.753343 5.21898e-06 0.753317)
(0.753331 -2.61318e-21 -6.43572e-21 0.753355 -2.53598e-05 0.753313)
(0.753334 1.85012e-21 -6.73499e-21 0.753351 -2.38464e-05 0.753314)
(0.753334 -1.13523e-20 -6.52387e-21 0.753354 -3.37826e-05 0.753312)
(0.753333 -2.96874e-20 -5.71015e-21 0.753357 -3.43488e-05 0.75331)
(0.753334 -1.50897e-20 -3.58165e-21 0.753354 -1.3074e-05 0.753312)
(0.753333 6.14955e-21 -3.1465e-21 0.753356 4.79114e-06 0.753311)
(0.753334 8.34673e-21 -2.78455e-21 0.753355 5.09544e-06 0.753312)
(0.753338 2.7244e-21 -3.10935e-21 0.753347 -5.15629e-06 0.753314)
(0.753332 -6.05184e-21 1.43109e-20 0.753327 -6.71852e-06 0.753341)
(0.753339 5.53435e-22 -2.33656e-21 0.753339 1.03995e-05 0.753322)
(0.753333 -7.15343e-21 -1.93305e-21 0.753349 -1.07509e-06 0.753318)
(0.753333 -8.76443e-21 -2.13884e-21 0.75335 -2.48627e-06 0.753317)
(0.753334 -1.13636e-20 -2.39912e-21 0.753347 -8.3868e-06 0.753318)
(0.753334 -1.48287e-20 -2.84492e-21 0.75335 -2.67085e-05 0.753316)
(0.753332 -2.17529e-20 -3.2555e-21 0.753349 -2.46357e-05 0.753318)
(0.753333 -2.49522e-20 -3.93406e-21 0.753345 -2.02799e-07 0.753322)
(0.75334 -1.95961e-20 -4.21356e-21 0.753327 1.04166e-05 0.753332)
(0.753332 -1.13292e-20 7.66595e-21 0.75331 -5.20938e-06 0.753357)
(0.753338 -1.16887e-20 -2.3652e-21 0.75333 -3.24373e-05 0.753333)
(0.753333 -1.79321e-20 -2.79547e-21 0.753336 -5.32267e-05 0.753331)
(0.753333 -1.25671e-20 -4.72496e-21 0.753335 -2.47902e-05 0.753331)
(0.753335 -1.82873e-20 -5.03773e-21 0.753334 6.43836e-07 0.753331)
(0.753332 -1.5822e-20 -5.5609e-21 0.75334 1.03296e-05 0.753328)
(0.753337 -9.84178e-21 -5.79761e-21 0.753328 2.48964e-05 0.753335)
(0.753329 7.19776e-21 -5.02444e-21 0.753344 1.62556e-05 0.753327)
(0.753342 1.81274e-21 -6.6222e-21 0.753304 3.97853e-05 0.753354)
(0.753333 6.13031e-21 -1.45747e-20 0.753294 9.64427e-06 0.753373)
(0.753331 1.62911e-21 -6.98121e-21 0.75333 5.57228e-06 0.753339)
(0.753338 -1.25127e-20 -6.13625e-21 0.75332 3.74924e-05 0.753342)
(0.753332 -2.63125e-20 -6.13765e-21 0.753327 3.25726e-06 0.753341)
(0.753333 -2.83523e-20 -5.3566e-21 0.753319 2.5111e-06 0.753347)
(0.753334 -2.3686e-20 -5.52507e-21 0.753315 1.2097e-05 0.753351)
(0.753336 -3.29496e-20 -6.58144e-21 0.753311 9.72389e-06 0.753353)
(0.753328 -4.08068e-20 -8.01778e-21 0.753325 1.26137e-05 0.753347)
(0.753346 -3.50365e-20 -8.7701e-21 0.753282 4.44798e-05 0.753372)
(0.753333 -7.08728e-21 -3.46781e-21 0.753288 -6.91746e-06 0.753379)
(0.75333 -8.34056e-21 -5.01204e-21 0.753313 -2.43658e-05 0.753356)
(0.753339 -9.15767e-21 -5.08904e-21 0.753305 3.63579e-05 0.753356)
(0.753332 1.11369e-20 -6.11006e-21 0.753318 5.5723e-05 0.753351)
(0.753334 2.72559e-20 -6.02186e-21 0.75331 9.18329e-05 0.753356)
(0.753333 4.95868e-21 -5.55256e-21 0.753305 0.000110834 0.753362)
(0.753334 4.5443e-20 3.25918e-21 0.753293 0.000123845 0.753373)
(0.753334 1.08494e-19 7.38434e-21 0.753281 0.000151596 0.753385)
(0.753332 1.08948e-19 1.08539e-20 0.753272 0.000177616 0.753396)
(0.753343 8.92649e-20 1.21784e-20 0.75324 0.000166218 0.753417)
(0.753333 1.23016e-20 8.56219e-21 0.753294 2.21127e-05 0.753374)
(0.753331 3.92131e-20 7.03004e-21 0.7533 4.98592e-05 0.75337)
(0.753342 8.65082e-20 7.16238e-21 0.753286 0.000130857 0.753373)
(0.75333 7.01923e-20 1.03534e-20 0.753296 6.59543e-05 0.753374)
(0.753337 7.02208e-20 1.24312e-20 0.753278 7.48642e-05 0.753385)
(0.753328 8.26126e-20 1.50699e-20 0.75329 9.75422e-05 0.753383)
(0.753338 9.70255e-20 1.45157e-20 0.75327 0.000127309 0.753392)
(0.753339 2.90891e-20 5.38438e-21 0.753292 3.87697e-05 0.753369)
(0.753332 -8.91005e-21 3.44696e-21 0.753308 3.33745e-06 0.75336)
(0.753333 6.46432e-21 2.11613e-21 0.75332 6.64759e-07 0.753347)
(0.753328 -1.24884e-20 5.08382e-21 0.753316 -4.09463e-06 0.753356)
(0.753345 -8.253e-22 4.26468e-21 0.753289 6.46335e-05 0.753366)
(0.753336 8.95831e-21 1.62929e-21 0.753319 4.73223e-05 0.753344)
(0.75333 5.17308e-22 -3.79314e-22 0.753339 -3.62801e-07 0.753332)
(0.753337 -7.78634e-22 2.30268e-22 0.753324 -6.76365e-07 0.753339)
(0.753329 6.78372e-22 2.36447e-21 0.753335 7.86642e-06 0.753336)
(0.753334 1.23515e-21 3.12621e-22 0.753329 2.7459e-06 0.753336)
(0.753334 2.03274e-22 2.40551e-21 0.753327 6.39685e-06 0.753339)
(0.753331 1.80061e-21 1.01515e-21 0.753336 4.57167e-06 0.753333)
(0.753336 -1.80757e-21 4.89142e-22 0.753327 4.82513e-07 0.753337)
(0.753332 1.82402e-21 2.10462e-21 0.753331 7.08863e-06 0.753337)
(0.753332 1.62706e-21 3.46414e-22 0.753335 4.43691e-06 0.753333)
(0.753335 -1.08978e-21 2.63762e-22 0.753329 1.30614e-06 0.753336)
(0.753331 1.25486e-21 2.42545e-21 0.753335 6.11634e-06 0.753335)
(0.753334 -7.41577e-24 3.66371e-22 0.753331 3.5947e-06 0.753335)
(0.753334 -3.23718e-22 2.50566e-21 0.753329 5.21038e-06 0.753337)
(0.753332 1.10706e-21 6.70732e-22 0.753335 4.6642e-06 0.753333)
(0.753335 -1.53261e-21 2.02197e-22 0.753329 1.99795e-06 0.753336)
(0.753331 9.87047e-22 2.19233e-21 0.753335 5.30937e-06 0.753334)
(0.753334 -1.6821e-23 6.44126e-22 0.753331 3.79043e-06 0.753335)
(0.753334 9.8131e-23 2.05448e-21 0.753329 4.46064e-06 0.753337)
(0.753332 1.52945e-21 3.87467e-22 0.753336 4.71429e-06 0.753332)
(0.753335 -1.22209e-21 2.06162e-22 0.75333 2.49258e-06 0.753335)
(0.753333 1.35807e-21 2.2459e-21 0.753332 4.75141e-06 0.753335)
(0.753332 9.84702e-22 3.41057e-22 0.753335 4.57054e-06 0.753333)
(0.753335 -1.81184e-21 4.94771e-22 0.75333 2.67196e-06 0.753335)
(0.753332 -3.80791e-22 1.82983e-21 0.753335 4.18131e-06 0.753334)
(0.753334 4.10876e-22 2.50934e-22 0.753332 3.97341e-06 0.753334)
(0.753334 8.69113e-22 1.99944e-21 0.75333 3.64395e-06 0.753336)
(0.753332 2.1755e-22 6.45335e-22 0.753335 4.63898e-06 0.753333)
(0.753335 -1.742e-21 1.28073e-22 0.75333 2.8536e-06 0.753335)
(0.753332 9.21768e-22 1.58961e-21 0.753335 3.66631e-06 0.753334)
(0.753334 4.42217e-23 2.17038e-22 0.753332 3.99491e-06 0.753334)
(0.753334 8.32996e-22 1.75114e-21 0.753331 3.12889e-06 0.753336)
(0.753332 8.93943e-22 3.07863e-22 0.753335 4.63791e-06 0.753333)
(0.753335 -1.26963e-21 3.50985e-22 0.75333 3.04534e-06 0.753335)
(0.753333 2.59773e-22 1.45618e-21 0.753332 3.3066e-06 0.753335)
(0.753333 8.27858e-22 2.37432e-22 0.753334 4.50888e-06 0.753333)
(0.753334 -1.93404e-21 4.29713e-22 0.753331 3.08567e-06 0.753335)
(0.753332 -1.0967e-21 9.70128e-22 0.753334 2.85057e-06 0.753334)
(0.753334 2.47589e-22 1.29391e-22 0.753332 4.02965e-06 0.753334)
(0.753334 5.84151e-22 9.99243e-22 0.753331 2.51352e-06 0.753335)
(0.753332 1.06665e-21 1.77281e-22 0.753335 4.5618e-06 0.753333)
(0.753334 5.0467e-22 -1.28603e-22 0.753331 3.14253e-06 0.753335)
(0.753332 1.7374e-21 1.72355e-21 0.753334 2.43372e-06 0.753334)
(0.753334 -1.2879e-21 2.35836e-22 0.753332 4.02143e-06 0.753334)
(0.753334 -1.68305e-21 1.16973e-21 0.753331 2.08224e-06 0.753335)
(0.753332 2.66875e-22 1.69718e-22 0.753335 4.58846e-06 0.753333)
(0.753334 -1.21226e-21 1.14144e-22 0.753331 3.22328e-06 0.753335)
(0.753333 2.88991e-22 7.29223e-22 0.753333 2.12946e-06 0.753335)
(0.753333 1.31056e-21 1.50943e-22 0.753334 4.48094e-06 0.753333)
(0.753334 1.60592e-22 8.08474e-23 0.753331 3.18262e-06 0.753335)
(0.753332 3.21716e-21 1.32768e-21 0.753334 1.57574e-06 0.753334)
(0.753334 2.33638e-21 9.1895e-23 0.753332 3.98918e-06 0.753334)
(0.753334 2.5349e-21 2.67863e-21 0.753331 1.35679e-06 0.753335)
(0.753333 -4.52031e-22 5.64272e-22 0.753334 4.53898e-06 0.753333)
(0.753334 -4.3567e-21 4.82695e-22 0.753331 3.18301e-06 0.753335)