/*--------------------------------*- C++ -*----------------------------------*\
| =========                 |                                                 |
| \\      /  F ield         | OpenFOAM: The Open Source CFD Toolbox           |
|  \\    /   O peration     | Version:  4.1                                   |
|   \\  /    A nd           | Web:      www.OpenFOAM.org                      |
|    \\/     M anipulation  |                                                 |
\*---------------------------------------------------------------------------*/
FoamFile
{
    version     2.0;
    format      ascii;
    class       volVectorField;
    location    "17";
    object      U;
}
// * * * * * * * * * * * * * * * * * * * * * * * * * * * * * * * * * * * * * //

dimensions      [0 1 -1 0 0 0 0];

internalField   nonuniform List<vector> 
6785
(
(1.2162e-14 -2.3425 16.5265)
(1.10709e-14 -7.91348 13.0379)
(-2.85883e-15 -5.12402 13.8313)
(4.36643e-15 -5.04235 13.3474)
(9.13365e-16 -4.23592 13.2116)
(9.64897e-17 -3.78858 12.924)
(3.31724e-15 -3.34047 12.6326)
(5.74592e-16 -3.00981 12.2967)
(-6.30971e-16 -2.76942 11.9466)
(1.5173e-15 -2.65613 11.5979)
(1.56109e-16 -2.64467 11.319)
(-5.24715e-16 -2.74888 11.1425)
(6.42708e-16 -3.31509 10.7048)
(-2.38651e-16 -3.4912 9.68053)
(-2.27094e-16 -0.150939 7.55129)
(1.88271e-14 -10.3282 27.0402)
(1.29139e-14 -16.4084 23.3961)
(-2.80051e-15 -11.294 23.7545)
(4.30061e-15 -12.12 21.9176)
(8.65125e-16 -10.4111 21.0659)
(1.16825e-15 -9.81556 19.8329)
(2.14239e-15 -8.85951 18.7421)
(2.55022e-16 -8.11043 17.5967)
(1.92423e-16 -7.36095 16.4866)
(8.89337e-16 -6.69268 15.3819)
(-4.82017e-17 -5.9776 14.1351)
(-2.45071e-16 -4.912 12.1893)
(-3.34767e-16 -3.08286 8.54022)
(-8.78e-16 -0.346076 2.81613)
(-7.72899e-16 1.49167 -2.28805)
(2.2072e-14 -12.6924 28.1845)
(1.207e-14 -17.0713 24.9096)
(-2.38289e-15 -12.0135 24.9345)
(4.559e-15 -13.4058 22.2507)
(8.52385e-16 -11.1553 21.2758)
(1.5134e-15 -10.9013 19.4334)
(2.25328e-15 -9.78774 18.069)
(3.22185e-16 -9.16695 16.5536)
(4.82877e-16 -8.41642 15.1889)
(1.4675e-15 -7.77049 13.8118)
(4.69509e-16 -7.03617 12.284)
(2.78424e-16 -5.86981 10.1053)
(6.33195e-16 -3.86184 6.17896)
(1.18416e-16 0.547662 -0.298696)
(-2.37222e-15 1.79532 -6.20686)
(2.33558e-14 -13.0181 27.0568)
(1.23248e-14 -16.8449 24.6847)
(-1.83489e-15 -12.1791 24.2112)
(4.27642e-15 -13.7579 21.1302)
(5.84971e-16 -11.242 20.2069)
(1.83741e-15 -11.2354 18.0125)
(2.16103e-15 -9.97378 16.5769)
(-1.54213e-16 -9.43734 14.9706)
(5.5866e-16 -8.79311 13.688)
(8.97497e-16 -8.29735 12.4173)
(-9.22788e-16 -7.73798 11.0188)
(-4.49137e-16 -6.88494 9.39592)
(1.11762e-16 -5.72959 7.15742)
(-2.24956e-15 -3.39444 4.13148)
(-3.171e-15 -1.34036 0.373843)
(2.28312e-14 -13.1021 26.3388)
(1.07057e-14 -16.142 24.3418)
(-1.75027e-15 -12.0074 23.6718)
(3.22581e-15 -13.25 20.5865)
(-4.18025e-16 -10.5533 19.6836)
(1.35381e-15 -10.5434 17.3556)
(2.4125e-16 -8.90714 15.9665)
(-1.52284e-15 -8.13256 13.9813)
(-2.10356e-16 -6.96585 12.1449)
(-6.6204e-16 -6.40884 10.5486)
(-2.40915e-15 -6.20504 9.62294)
(-6.50966e-16 -6.1759 9.03571)
(-1.01262e-15 -6.03652 8.59799)
(-6.43413e-15 -5.44124 7.76685)
(-6.60931e-15 -3.77296 5.76055)
(2.28399e-14 -13.8825 27.0491)
(8.34458e-15 -15.7469 24.9821)
(-5.50763e-16 -12.4064 24.3064)
(1.95238e-15 -12.8986 21.7637)
(-9.61706e-17 -10.5937 20.832)
(1.0381e-15 -10.2792 18.9789)
(-1.24604e-15 -8.55987 17.5496)
(-6.10255e-16 -6.99962 14.7363)
(1.17533e-15 -4.49247 11.0524)
(1.86916e-15 -2.47815 7.44397)
(1.82373e-15 -1.4487 5.48469)
(-3.14832e-16 -1.92483 5.65453)
(-3.69153e-15 -3.73285 7.78156)
(-5.43771e-15 -5.78184 10.0874)
(-3.0926e-15 -4.75042 9.27901)
(2.14488e-14 -14.698 28.0878)
(7.87609e-15 -17.0951 27.3047)
(-1.13683e-15 -13.5125 25.9316)
(1.59759e-15 -14.037 23.6785)
(-5.72297e-16 -11.9101 22.8247)
(-2.76532e-16 -11.8019 21.1369)
(-1.51645e-15 -10.2422 19.9105)
(-1.48141e-15 -8.92923 17.2242)
(-4.77548e-16 -6.23164 13.458)
(1.59123e-15 -3.52433 9.11396)
(3.42249e-16 -0.887511 5.26817)
(-8.75425e-16 1.20808 1.82102)
(-2.00739e-15 2.14757 -0.0380529)
(-5.521e-15 1.05535 0.801608)
(-4.70652e-15 -0.715801 2.6844)
(1.97313e-14 -14.022 26.0172)
(1.11082e-14 -18.5888 29.5465)
(-1.80898e-18 -14.8787 27.0221)
(1.36194e-15 -14.9856 24.3641)
(-2.1391e-16 -13.2 23.2746)
(-2.04391e-17 -13.0768 21.5296)
(-4.57255e-16 -11.9408 20.2855)
(-1.05577e-15 -11.1615 18.2984)
(-6.8384e-16 -9.53685 15.7757)
(5.75222e-16 -7.59363 12.5991)
(2.58266e-16 -5.22483 9.13406)
(7.51471e-16 -2.49893 5.13336)
(1.61167e-15 0.723752 0.366438)
(1.36554e-15 3.74926 -3.95666)
(-4.23e-16 2.09396 -5.16737)
(1.74705e-14 -12.1707 21.8343)
(1.45554e-14 -18.4172 29.5775)
(2.95493e-15 -15.4994 26.9718)
(1.36e-15 -14.7295 23.6286)
(6.83801e-16 -13.1978 22.0095)
(9.92012e-16 -12.7523 20.1647)
(8.18765e-16 -11.8357 18.6748)
(4.29605e-16 -11.1274 16.9323)
(4.62042e-16 -10.1708 15.0684)
(6.37633e-16 -9.02634 12.9706)
(9.56356e-16 -7.66828 10.6408)
(1.26814e-15 -5.95452 8.07149)
(1.10459e-15 -4.02239 5.03619)
(2.29064e-15 -1.25387 1.81445)
(-5.29979e-16 0.972674 -3.6649)
(1.60724e-14 -10.4978 18.4911)
(1.64642e-14 -17.4364 28.6484)
(4.86274e-15 -15.2758 26.4052)
(1.38492e-15 -13.9461 22.7119)
(1.20279e-15 -12.4363 20.7788)
(1.5872e-15 -11.7724 18.9138)
(1.33321e-15 -10.8404 17.3561)
(1.3482e-15 -10.0476 15.6987)
(1.19569e-15 -9.19128 14.0722)
(6.89856e-16 -8.28028 12.4317)
(1.37423e-15 -7.31792 10.7042)
(1.13011e-15 -6.12025 8.86094)
(-3.71268e-16 -4.80926 6.6365)
(2.36311e-15 -2.70018 3.85055)
(-1.59025e-15 -0.242706 -1.61893)
(1.44565e-14 -9.66583 17.0554)
(1.75795e-14 -16.6785 27.9619)
(5.13764e-15 -14.9508 25.9498)
(9.78144e-16 -13.3916 22.2042)
(1.6222e-15 -11.891 20.1438)
(7.82638e-16 -11.1715 18.3324)
(9.52856e-16 -10.2619 16.837)
(1.75685e-15 -9.48252 15.2955)
(-2.74612e-16 -8.67214 13.8272)
(-3.53259e-16 -7.8647 12.4094)
(1.26535e-15 -7.07523 10.9804)
(-1.26839e-15 -6.14769 9.51851)
(-1.90761e-15 -5.17725 7.81443)
(-2.42652e-15 -3.61004 5.70617)
(-7.19538e-15 -1.05783 0.807581)
(1.41393e-14 -9.40862 16.5793)
(1.85995e-14 -15.9289 27.0618)
(4.03551e-15 -14.5723 25.2302)
(3.33573e-16 -13.0215 21.6169)
(2.35128e-15 -11.5183 19.3887)
(-9.04252e-16 -10.7556 17.6135)
(-8.44938e-16 -9.92299 16.2174)
(2.08933e-15 -9.22094 14.8248)
(-4.86993e-16 -8.49975 13.4838)
(-2.51368e-15 -7.79118 12.1652)
(-1.45045e-15 -7.12536 10.8738)
(-3.54085e-15 -6.43822 9.72264)
(-3.12061e-15 -5.83124 8.65044)
(-5.19174e-15 -4.78735 7.50092)
(-9.64209e-15 -2.36108 3.18758)
(1.28494e-14 -9.85575 17.2243)
(1.80349e-14 -15.3762 26.1657)
(1.95989e-15 -13.7285 23.8338)
(-1.11304e-15 -12.4709 20.8187)
(3.43585e-15 -11.3318 19.056)
(-2.22562e-15 -10.7757 17.4069)
(-4.27174e-15 -10.0699 15.9878)
(4.64801e-15 -9.48623 14.5166)
(7.35128e-16 -8.84448 13.0559)
(-4.24983e-15 -8.20956 11.6552)
(-2.32109e-15 -7.6378 10.5672)
(-4.44481e-15 -7.25971 10.0873)
(-5.32951e-15 -7.06794 10.2155)
(-5.37694e-15 -6.6427 10.2821)
(-1.17031e-14 -4.46973 7.14204)
(9.4711e-15 -9.20303 15.3599)
(1.74904e-14 -15.6644 25.7711)
(1.04844e-15 -14.2072 23.5908)
(-4.83969e-15 -11.6003 19.0536)
(6.65952e-16 -9.35881 16.0827)
(-4.16252e-15 -8.11694 14.0384)
(1.39118e-16 -6.93858 12.5613)
(4.68297e-15 -6.1395 11.1581)
(-8.04471e-16 -5.62184 10.3186)
(-2.86299e-15 -5.74338 10.2796)
(-3.83828e-15 -6.39601 11.1362)
(-6.10556e-15 -7.36189 12.4926)
(-6.25842e-15 -8.14883 13.8804)
(-8.34495e-15 -8.31667 14.1857)
(-1.22609e-14 -5.62266 10.0907)
(3.11372e-15 -6.59191 11.491)
(1.21064e-14 -15.1347 23.1704)
(8.48389e-15 -18.2107 26.2632)
(2.76413e-15 -18.5572 25.5298)
(1.20659e-15 -17.4817 23.8173)
(-6.09709e-16 -16.0227 21.391)
(3.79945e-16 -13.8868 18.4437)
(1.76902e-15 -11.5217 15.366)
(1.32617e-15 -9.1118 12.3086)
(5.949e-16 -6.91498 9.57246)
(-2.4878e-15 -5.36929 7.9776)
(-4.4745e-15 -5.24613 8.37554)
(-6.53125e-15 -6.22876 10.5715)
(-1.13732e-14 -7.01686 11.6334)
(-1.05371e-14 -3.73131 6.83148)
(-4.2181e-17 9.10974 40.5051)
(-1.48586e-15 -0.232126 4.53406)
(-1.40746e-15 -0.417008 -2.82266)
(-1.35355e-15 -0.258869 -1.92079)
(-1.37892e-15 -0.106552 -2.12098)
(-1.91217e-15 0.331059 -2.68759)
(-1.39984e-15 0.161108 -1.93573)
(-1.35219e-15 0.36062 -1.98997)
(-1.48916e-15 0.492325 -1.98677)
(-7.85281e-16 0.813678 -2.46128)
(-3.79631e-16 0.713707 -1.74186)
(-4.27578e-16 0.882058 -1.67011)
(-1.03884e-15 1.23201 -2.08389)
(-8.84009e-16 1.04576 -1.46078)
(-9.41873e-16 1.24368 -1.44663)
(-9.80774e-16 1.27307 -1.4122)
(-1.66973e-15 1.62097 -1.72776)
(-1.28682e-15 1.40136 -1.21424)
(-1.32137e-15 1.54441 -1.1647)
(-1.97788e-15 1.92685 -1.39004)
(-1.61181e-15 1.56903 -0.984235)
(-1.73209e-15 1.78501 -0.978985)
(-1.61973e-15 1.7498 -0.977152)
(-2.31559e-15 2.15837 -1.13773)
(-1.87467e-15 1.74276 -0.829441)
(-1.9057e-15 1.95491 -0.830353)
(-2.05553e-15 1.91376 -0.839152)
(-2.54728e-15 2.26622 -0.934106)
(-2.16557e-15 1.85306 -0.699539)
(-2.21903e-15 1.98107 -0.690344)
(-3.15538e-15 2.32877 -0.696331)
(-2.59703e-15 1.79677 -0.532533)
(-2.56287e-15 1.99842 -0.513463)
(-2.53326e-15 1.94128 -0.495207)
(-3.47516e-15 2.21739 -0.383867)
(-2.52809e-15 1.7578 -0.264053)
(-2.19675e-15 1.85632 -0.235765)
(-2.82487e-15 2.11926 0.00387663)
(-1.66062e-15 1.59469 0.0248612)
(-1.36318e-15 1.74379 0.0675383)
(-8.14894e-16 1.6601 0.081339)
(-6.73854e-16 1.87409 0.406955)
(4.39874e-17 1.4108 0.310063)
(3.47636e-16 1.52111 0.333441)
(5.92056e-16 1.4353 0.321473)
(1.27937e-15 1.58561 0.669415)
(1.05535e-15 1.27102 0.549413)
(1.16966e-15 1.28995 0.506344)
(1.84337e-15 1.44942 0.878673)
(1.73705e-15 1.1751 0.694638)
(1.84556e-15 1.22084 0.667348)
(1.847e-15 1.14071 0.581631)
(2.58109e-15 1.18002 0.946745)
(1.95526e-15 0.909265 0.612159)
(1.82481e-15 0.927328 0.549035)
(1.88997e-15 0.893744 0.476561)
(2.37419e-15 0.798422 0.551642)
(1.80483e-15 0.48492 0.0750982)
(1.13582e-15 0.511476 0.109649)
(1.58787e-15 0.632416 -1.00026)
(1.1973e-15 -0.150632 -1.40772)
(1.21446e-15 -0.0302595 -1.46634)
(9.13652e-16 0.312233 -1.39307)
(3.78019e-15 0.20337 -2.5795)
(-9.67803e-16 -0.795122 -0.218713)
(-8.34101e-16 -0.330818 -0.339279)
(-2.6385e-15 -1.19831 1.87005)
(-3.101e-15 -1.78798 3.04484)
(-3.32441e-15 -1.95234 3.02493)
(-3.84849e-15 -1.91514 3.3606)
(-5.95713e-15 -3.33046 6.43694)
(-4.91988e-15 -3.76089 5.97536)
(-5.17951e-15 -4.28737 6.20527)
(-5.16683e-15 -4.2331 6.52716)
(-6.34448e-15 -6.51507 10.4462)
(-4.07767e-15 -6.67655 8.44276)
(-3.77082e-15 -6.80373 8.89096)
(-3.37442e-15 -9.52239 12.8718)
(-1.60748e-15 -9.3143 9.72528)
(-1.16927e-15 -9.77734 10.3788)
(-1.98677e-15 -10.4298 12.5668)
(-1.36907e-15 -10.3213 12.5572)
(-1.12845e-15 -10.4262 12.9837)
(1.72278e-15 -12.0812 15.111)
(3.16689e-16 -11.1016 13.5215)
(4.09922e-16 -11.3599 14.1641)
(4.24533e-16 -11.2692 14.3051)
(4.93477e-16 -11.3419 14.4634)
(4.80079e-16 -11.3394 14.6703)
(4.88237e-16 -11.3939 14.9018)
(7.66094e-16 -11.4542 15.077)
(1.20983e-15 -11.4418 15.2248)
(2.74353e-15 -12.4568 16.6856)
(1.6723e-15 -11.8815 15.4897)
(1.75893e-15 -12.0082 15.764)
(1.85319e-15 -12.012 15.8982)
(2.26804e-15 -12.0749 15.7742)
(2.22806e-15 -12.1381 15.8358)
(2.24481e-15 -12.2151 15.9707)
(2.1778e-15 -12.3235 16.1336)
(2.10413e-15 -12.339 16.4142)
(3.45152e-15 -13.2311 18.3277)
(2.98237e-15 -12.6181 16.9915)
(3.05052e-15 -12.7681 17.3046)
(3.02268e-15 -12.803 17.5067)
(3.02201e-15 -12.8996 17.8053)
(3.19783e-15 -12.9605 18.164)
(3.47987e-15 -13.0846 18.4674)
(3.43053e-15 -13.1204 18.4828)
(3.38508e-15 -13.2595 18.5176)
(3.30178e-15 -13.2841 18.5316)
(3.51477e-15 -13.5063 19.5124)
(3.15896e-15 -13.045 18.788)
(3.21933e-15 -13.1328 18.843)
(3.26929e-15 -13.1696 18.8728)
(3.3545e-15 -13.2607 18.954)
(3.44445e-15 -13.2717 19.0778)
(3.58309e-15 -13.3821 19.4462)
(3.77998e-15 -13.4002 19.5112)
(3.96795e-15 -13.4789 19.4908)
(4.55758e-15 -12.5555 18.8974)
(4.28589e-15 -12.5183 19.2974)
(4.51887e-15 -12.4661 19.7428)
(4.56253e-15 -12.5425 20.1214)
(4.71255e-15 -12.483 20.0981)
(4.84441e-15 -12.5389 20.0867)
(4.95658e-15 -12.544 19.9139)
(4.99623e-15 -12.473 19.6747)
(4.84569e-15 -12.6586 19.6462)
(5.47922e-15 -10.1926 16.1491)
(4.98156e-15 -10.966 17.8845)
(5.0528e-15 -10.8061 17.3661)
(5.17442e-15 -10.8283 17.2195)
(5.45844e-15 -10.7668 17.22)
(5.61168e-15 -10.7216 17.0667)
(5.82375e-15 -10.6189 16.9061)
(6.11955e-15 -10.5289 16.7839)
(6.45277e-15 -10.5929 16.5829)
(7.5219e-15 -7.70777 13.1981)
(7.40747e-15 -8.66594 16.2367)
(7.55814e-15 -8.34709 15.8463)
(7.54858e-15 -8.40358 15.5072)
(7.38632e-15 -8.23962 14.8001)
(7.12822e-15 -8.21484 13.9043)
(7.30975e-15 -8.01944 12.8973)
(6.42742e-15 -7.89734 11.7992)
(5.63638e-15 -7.61075 10.3469)
(4.74705e-15 -7.43929 8.83312)
(2.23197e-15 -4.22156 1.99129)
(3.50521e-15 -5.73609 6.02995)
(2.65352e-15 -5.20279 4.29173)
(2.17081e-15 -5.30207 3.85346)
(1.57159e-15 -4.93694 3.09403)
(1.08844e-15 -4.84061 2.51427)
(2.97294e-16 -4.64324 1.39143)
(-4.08089e-16 -4.31745 0.385875)
(-1.51391e-16 -4.27913 0.731536)
(-7.68342e-16 -3.55566 -1.62534)
(-3.80228e-16 -3.68199 0.419066)
(-2.62817e-16 -3.56248 0.0376425)
(-6.12306e-16 -2.52266 -2.13769)
(-8.97739e-16 -4.05964 -1.63708)
(-9.38819e-16 -3.01014 -1.3859)
(-7.73963e-16 -2.74057 -0.949942)
(-1.02809e-15 -3.38841 -1.35471)
(-7.59551e-16 -2.31698 -0.823957)
(-1.05484e-15 -2.91729 -1.25401)
(-7.7141e-16 -2.61165 -0.929472)
(-6.72476e-16 -2.12823 -0.677263)
(-1.01145e-15 -2.51723 -1.02208)
(-9.32976e-16 -2.30498 -0.779828)
(-8.04103e-16 -1.92697 -0.568947)
(-1.09811e-15 -2.5433 -0.816986)
(-8.02826e-16 -1.69105 -0.521725)
(-1.05551e-15 -2.20111 -0.800488)
(-8.21107e-16 -1.92621 -0.630129)
(-7.32793e-16 -1.64202 -0.469398)
(-9.51002e-16 -2.18736 -0.673268)
(-6.16333e-16 -1.4341 -0.438857)
(-9.63916e-16 -1.89873 -0.665233)
(-8.51513e-16 -1.73235 -0.541455)
(-7.25273e-16 -1.38447 -0.40791)
(-1.03023e-15 -1.69241 -0.614549)
(-8.49502e-16 -1.5687 -0.499441)
(-5.5933e-16 -1.29312 -0.37289)
(-7.9939e-16 -1.77254 -0.53041)
(-6.30084e-16 -1.13726 -0.351113)
(-9.13765e-16 -1.5345 -0.53048)
(-5.85106e-16 -1.33838 -0.435426)
(-5.31344e-16 -1.12416 -0.327258)
(-7.06407e-16 -1.55009 -0.465213)
(-5.38959e-16 -0.972546 -0.309584)
(-8.16026e-16 -1.33824 -0.466589)
(-6.51665e-16 -1.20503 -0.392168)
(-4.426e-16 -0.939167 -0.296924)
(-6.85851e-16 -1.18194 -0.448766)
(-5.51445e-16 -1.07514 -0.373684)
(-2.62314e-16 -0.864282 -0.279215)
(-4.07124e-16 -1.23526 -0.39779)
(-3.04949e-16 -0.737282 -0.267811)
(-4.83996e-16 -1.05216 -0.40929)
(-4.90178e-16 -0.878213 -0.346281)
(-6.29234e-16 -0.714684 -0.261641)
(-7.18819e-16 -1.04257 -0.374064)
(-3.50672e-16 -0.583276 -0.25523)
(-4.9733e-16 -0.876138 -0.391679)
(-3.62911e-16 -0.742864 -0.341206)
(-1.98081e-16 -0.534375 -0.261672)
(-4.00941e-16 -0.731103 -0.398916)
(-4.31401e-16 -0.615935 -0.34154)
(-4.36236e-16 -0.447409 -0.25529)
(-8.54778e-16 -0.745061 -0.358441)
(-8.95348e-16 -0.321047 -0.245612)
(-1.18837e-15 -0.6013 -0.377456)
(-6.93332e-16 -0.410536 -0.328441)
(-3.13958e-16 -0.274434 -0.244643)
(-3.15467e-16 -0.574691 -0.341839)
(3.74098e-16 -0.125191 -0.235045)
(4.37822e-16 -0.454086 -0.368478)
(4.82954e-16 -0.276763 -0.33921)
(4.62967e-16 -0.0195998 -0.25173)
(9.3841e-16 -0.376251 -0.391428)
(2.04356e-15 -0.157227 -0.35965)
(5.41636e-16 0.261712 -0.25814)
(1.33575e-15 -1.17799 -0.295854)
(2.78232e-17 0.579978 -0.0463254)
(-2.36772e-16 -0.104486 -0.221432)
(-1.24219e-15 -0.479536 -0.386951)
(-1.20939e-15 0.425611 -0.297144)
(-1.09838e-15 -0.190656 -0.354831)
(-2.97324e-16 0.283109 -0.239891)
(-5.92279e-16 0.272755 -0.248099)
(-4.75559e-16 0.1184 -0.35811)
(-3.24122e-16 0.392721 -0.278132)
(1.30967e-16 0.388829 -0.378759)
(8.48596e-16 0.232642 -0.611093)
(8.70565e-16 0.575368 -0.440486)
(1.21374e-15 0.406305 -0.682715)
(8.44486e-16 0.640582 -0.507732)
(7.10131e-16 0.685731 -0.680536)
(-2.8665e-36 0.562157 0.66124)
(-2.34244e-35 0.653294 0.659846)
(-3.96333e-35 0.705764 0.664815)
(6.87072e-35 0.758821 0.669246)
(6.12151e-34 0.808609 0.676425)
(1.59202e-33 0.855132 0.684365)
(4.48194e-35 0.899435 0.693924)
(-1.55279e-32 0.941346 0.704529)
(-6.33406e-32 0.981254 0.716364)
(-1.15983e-31 1.01924 0.729239)
(8.9897e-32 1.05546 0.743166)
(1.46596e-30 1.09005 0.758066)
(6.10682e-30 1.12314 0.773918)
(1.62844e-29 1.15489 0.79069)
(1.8877e-29 1.18545 0.808369)
(-1.05318e-28 1.21499 0.826947)
(-8.77069e-28 1.24369 0.846423)
(-3.4361e-27 1.27172 0.866801)
(-6.30698e-27 1.29923 0.888083)
(1.37536e-26 1.32634 0.91027)
(1.51528e-25 1.35319 0.933369)
(5.68072e-25 1.3799 0.9574)
(8.80084e-25 1.40672 0.982421)
(-2.49019e-24 1.434 1.00855)
(-2.12658e-23 1.46237 1.03598)
(-6.92034e-23 1.49261 1.06496)
(-8.80477e-23 1.5255 1.09571)
(3.00302e-22 1.56152 1.12837)
(2.14518e-21 1.60076 1.163)
(6.51084e-21 1.643 1.19949)
(9.1599e-21 1.68761 1.23761)
(-1.52495e-20 1.73367 1.27696)
(-1.374e-19 1.78003 1.31702)
(-4.64872e-19 1.82542 1.35718)
(-9.68602e-19 1.86854 1.397)
(-8.87515e-19 1.90819 1.43681)
(2.58767e-18 1.94317 1.47889)
(1.63982e-17 1.97207 1.52897)
(5.38087e-17 1.99299 1.59751)
(1.35106e-16 2.00355 1.69905)
(2.84877e-16 2.00154 1.84842)
(5.25291e-16 1.9863 2.05366)
(8.67641e-16 1.95978 2.3092)
(1.30636e-15 1.92634 2.59389)
(1.8184e-15 1.89105 2.87633)
(2.36735e-15 1.85732 3.1241)
(2.90944e-15 1.82456 3.3113)
(3.39891e-15 1.78678 3.42062)
(3.79323e-15 1.7364 3.44339)
(4.06227e-15 1.67746 3.38859)
(4.193e-15 1.61287 3.28329)
(4.14976e-15 1.39007 3.0507)
(3.83934e-15 0.548065 2.28738)
(3.40592e-15 -0.721049 1.17496)
(3.05894e-15 -1.55076 0.905507)
(2.5854e-15 -2.0583 0.690629)
(2.05453e-15 -2.53781 0.474633)
(1.4978e-15 -3.02251 0.257293)
(9.51138e-16 -3.45897 0.0475074)
(4.71042e-16 -3.8199 -0.127298)
(1.48122e-16 -4.10968 -0.247596)
(2.22211e-17 -4.36851 -0.308916)
(-1.49816e-18 -4.6048 -0.341815)
(-1.13528e-18 -4.80369 -0.350275)
(-1.30447e-19 -4.93194 -0.353796)
(9.479e-21 -4.97303 -0.348365)
(3.46427e-21 -4.91593 -0.34709)
(2.2783e-22 -4.77101 -0.340551)
(-3.35872e-23 -4.5228 -0.344326)
(-1.8792e-23 -4.20693 -0.334755)
(-3.38915e-23 -3.74865 -0.342235)
(4.52915e-23 -3.32532 -0.312142)
(-2.09004e-22 -2.65326 -0.328518)
(1.01173e-21 -2.46921 -0.259397)
(-6.53965e-21 -1.46602 -0.323569)
(7.95321e-20 -2.14635 -0.208171)
(-1.01005e-18 -1.25082 -0.349188)
(6.17827e-18 -1.16849 -0.32949)
(9.56582e-18 -4.75262 -0.358048)
(-5.66817e-36 0.562585 0.70088)
(-1.77876e-35 0.652859 0.697426)
(4.79145e-35 0.704356 0.702242)
(4.19752e-34 0.757041 0.706156)
(1.18916e-33 0.806254 0.713272)
(1.7201e-34 0.852386 0.721142)
(-1.27331e-32 0.896256 0.730786)
(-5.73146e-32 0.937798 0.741524)
(-1.18138e-31 0.977338 0.753567)
(4.75695e-32 1.01498 0.766702)
(1.31945e-30 1.05088 0.780941)
(5.53112e-30 1.08516 0.796207)
(1.41039e-29 1.11795 0.812481)
(1.71545e-29 1.1494 0.829737)
(-6.6928e-29 1.17967 0.847968)
(-6.28412e-28 1.20892 0.867172)
(-2.78663e-27 1.23733 0.887351)
(-6.86469e-27 1.26507 0.908507)
(2.0718e-27 1.29228 0.930641)
(1.05129e-25 1.3191 0.953752)
(5.04021e-25 1.34565 0.977846)
(1.14514e-24 1.37205 1.00296)
(-6.10952e-25 1.39852 1.02918)
(-1.60706e-23 1.42541 1.05669)
(-6.67274e-23 1.45331 1.08576)
(-1.29204e-22 1.48301 1.11669)
(1.08429e-22 1.5153 1.14969)
(1.74081e-21 1.55069 1.18483)
(6.5337e-21 1.58932 1.22206)
(1.24816e-20 1.63101 1.26117)
(-2.65445e-21 1.67517 1.30177)
(-1.1317e-19 1.72094 1.34333)
(-4.57895e-19 1.7672 1.38516)
(-1.09359e-18 1.81264 1.42667)
(-1.38324e-18 1.85579 1.468)
(1.48826e-18 1.89492 1.51131)
(1.50375e-17 1.92787 1.56283)
(5.43569e-17 1.95179 1.63459)
(1.43351e-16 1.96336 1.74428)
(3.11626e-16 1.95968 1.91094)
(5.85778e-16 1.94003 2.14619)
(9.77791e-16 1.90751 2.44463)
(1.4768e-15 1.86906 2.7803)
(2.04924e-15 1.83305 3.1135)
(2.64648e-15 1.80584 3.4042)
(3.2148e-15 1.78932 3.62336)
(3.70334e-15 1.78008 3.75621)
(4.06908e-15 1.76934 3.79809)
(4.27989e-15 1.74554 3.7491)
(4.31613e-15 1.70696 3.62063)
(4.17042e-15 1.66853 3.44988)
(3.85236e-15 1.54619 3.21655)
(3.45051e-15 0.869103 2.51294)
(3.26707e-15 -0.613882 1.00482)
(3.024e-15 -1.54158 0.825265)
(2.56985e-15 -2.03997 0.672512)
(2.04364e-15 -2.52018 0.455341)
(1.49296e-15 -3.00366 0.246824)
(9.5034e-16 -3.44324 0.0431289)
(4.72318e-16 -3.81253 -0.127352)
(1.49458e-16 -4.11321 -0.243598)
(2.25897e-17 -4.37825 -0.302013)
(-1.54881e-18 -4.61655 -0.333278)
(-1.18173e-18 -4.81405 -0.340467)
(-1.37221e-19 -4.93908 -0.343799)
(1.02501e-20 -4.97638 -0.338871)
(3.75998e-21 -4.91518 -0.338435)
(2.41421e-22 -4.7661 -0.333419)
(-3.78494e-23 -4.5151 -0.338594)
(-1.94343e-23 -4.19602 -0.33076)
(-3.38952e-23 -3.73765 -0.339609)
(4.51035e-23 -3.31067 -0.311137)
(-2.09151e-22 -2.63955 -0.327972)
(1.01877e-21 -2.44721 -0.260786)
(-6.75263e-21 -1.4395 -0.321954)
(8.18465e-20 -2.11449 -0.208858)
(-1.02814e-18 -1.19873 -0.347245)
(6.00281e-18 -1.11874 -0.309645)
(5.61339e-18 -4.68639 -0.357782)
(4.61893e-36 0.562978 0.722201)
(8.04992e-35 0.65283 0.717934)
(3.67372e-34 0.70376 0.72264)
(9.00964e-34 0.756261 0.726308)
(1.15075e-34 0.805174 0.733399)
(-9.53781e-33 0.851115 0.741251)
(-4.5138e-32 0.894771 0.750958)
(-1.05098e-31 0.936135 0.761788)
(-1.96741e-32 0.975497 0.773963)
(9.13677e-31 1.01298 0.787261)
(4.23188e-30 1.04871 0.801694)
(1.09944e-29 1.08284 0.817186)
(1.3914e-29 1.11548 0.83372)
(-3.62428e-29 1.14679 0.851274)
(-3.63478e-28 1.17691 0.869842)
(-1.71045e-27 1.20601 0.889426)
(-5.10097e-27 1.23427 0.910028)
(-4.61774e-27 1.26186 0.931651)
(4.75723e-26 1.28892 0.954292)
(3.15086e-25 1.31559 0.977948)
(9.73395e-25 1.34198 1.00263)
(8.22272e-25 1.36822 1.02837)
(-7.73809e-24 1.3945 1.0553)
(-4.54502e-23 1.42115 1.08363)
(-1.22526e-22 1.44876 1.11368)
(-7.17211e-23 1.47813 1.14577)
(9.18477e-22 1.51009 1.1801)
(4.7087e-21 1.54515 1.21669)
(1.18956e-20 1.58349 1.25541)
(9.52599e-21 1.62495 1.29598)
(-5.93963e-20 1.66898 1.33794)
(-3.28048e-19 1.71472 1.38062)
(-9.33528e-19 1.76105 1.42334)
(-1.56148e-18 1.80653 1.4658)
(-1.63227e-19 1.84931 1.5094)
(9.48275e-18 1.88695 1.55913)
(4.09377e-17 1.91619 1.6259)
(1.17159e-16 1.93317 1.72718)
(2.68445e-16 1.93437 1.88369)
(5.2417e-16 1.91836 2.1111)
(9.00215e-16 1.88774 2.4092)
(1.38874e-15 1.84959 2.75588)
(1.95691e-15 1.81331 3.11173)
(2.55505e-15 1.78689 3.43388)
(3.12798e-15 1.77394 3.68952)
(3.62389e-15 1.77311 3.86138)
(3.99929e-15 1.77878 3.94507)
(4.22207e-15 1.78156 3.94231)
(4.27359e-15 1.76982 3.85516)
(4.1476e-15 1.73915 3.69099)
(3.84344e-15 1.70209 3.48255)
(3.37707e-15 1.60717 3.24939)
(2.91172e-15 1.05907 2.67898)
(2.97577e-15 -0.399364 1.03001)
(2.96109e-15 -1.48539 0.6432)
(2.54845e-15 -1.98638 0.641967)
(2.03088e-15 -2.45672 0.427693)
(1.48689e-15 -2.94278 0.228875)
(9.49557e-16 -3.38749 0.0349942)
(4.74056e-16 -3.76742 -0.129707)
(1.5118e-16 -4.08186 -0.240065)
(2.30572e-17 -4.35805 -0.293376)
(-1.61014e-18 -4.60422 -0.321567)
(-1.23894e-18 -4.80709 -0.326381)
(-1.45624e-19 -4.93575 -0.328838)
(1.11854e-20 -4.97563 -0.324457)
(4.12836e-21 -4.91642 -0.325004)
(2.58878e-22 -4.7685 -0.322143)
(-4.334e-23 -4.51934 -0.329402)
(-2.02738e-23 -4.20125 -0.324137)
(-3.38976e-23 -3.74645 -0.335142)
(4.48854e-23 -3.31994 -0.309013)
(-2.09363e-22 -2.65503 -0.326914)
(1.02761e-21 -2.45896 -0.261779)
(-7.00179e-21 -1.46225 -0.321032)
(8.4555e-20 -2.1255 -0.208535)
(-1.0468e-18 -1.20726 -0.345891)
(5.86427e-18 -1.14414 -0.2847)
(6.16995e-19 -4.65029 -0.352342)
(6.83642e-35 0.563578 0.747501)
(4.17096e-34 0.652742 0.742479)
(1.05698e-33 0.702851 0.747096)
(7.79401e-34 0.755049 0.750552)
(-6.89088e-33 0.8035 0.757647)
(-3.84925e-32 0.849138 0.765522)
(-1.03474e-31 0.892458 0.775334)
(-8.67548e-32 0.933541 0.786307)
(5.85711e-31 0.972624 0.798669)
(3.33636e-30 1.00985 0.812189)
(9.47218e-30 1.04534 0.826879)
(1.35638e-29 1.07923 0.842663)
(-1.99236e-29 1.11163 0.859526)
(-2.32956e-28 1.14271 0.877451)
(-1.09102e-27 1.1726 0.896436)
(-3.52764e-27 1.20147 0.916487)
(-5.79854e-27 1.2295 0.937608)
(1.74974e-26 1.25686 0.959801)
(1.80124e-25 1.28369 0.98306)
(7.1582e-25 1.31013 1.00738)
(1.28673e-24 1.33629 1.03277)
(-2.59927e-24 1.36227 1.05928)
(-2.76909e-23 1.38826 1.08705)
(-9.93478e-23 1.41455 1.11635)
(-1.52029e-22 1.44173 1.14755)
(3.52583e-22 1.47062 1.18102)
(3.07288e-21 1.50207 1.21693)
(1.00553e-20 1.53664 1.25524)
(1.54966e-20 1.57453 1.29578)
(-2.07923e-20 1.61563 1.33816)
(-2.16404e-19 1.65942 1.38177)
(-7.53419e-19 1.70508 1.42588)
(-1.568e-18 1.7514 1.4699)
(-1.28037e-18 1.79667 1.51446)
(5.11719e-18 1.83836 1.56343)
(2.96842e-17 1.87285 1.62643)
(9.44672e-17 1.89551 1.72049)
(2.30725e-16 1.90163 1.86793)
(4.71409e-16 1.88836 2.0886)
(8.37658e-16 1.85711 2.38824)
(1.32588e-15 1.81477 2.74943)
(1.90397e-15 1.77219 3.1333)
(2.5192e-15 1.74016 3.49281)
(3.11176e-15 1.72531 3.78911)
(3.62589e-15 1.7285 4.00037)
(4.01566e-15 1.74576 4.12055)
(4.24741e-15 1.76993 4.15302)
(4.30178e-15 1.79116 4.10367)
(4.17563e-15 1.79722 3.97599)
(3.87976e-15 1.78057 3.77479)
(3.42556e-15 1.75235 3.52708)
(2.82581e-15 1.69408 3.2746)
(2.25678e-15 1.2766 2.81129)
(2.43464e-15 -0.195123 1.24952)
(2.88662e-15 -1.44304 0.422083)
(2.51181e-15 -1.97236 0.571245)
(2.02097e-15 -2.41549 0.397059)
(1.48062e-15 -2.90296 0.202336)
(9.49207e-16 -3.35102 0.0222168)
(4.76184e-16 -3.73876 -0.134887)
(1.53104e-16 -4.06419 -0.237776)
(2.35632e-17 -4.34827 -0.283816)
(-1.67327e-18 -4.5995 -0.307319)
(-1.29813e-18 -4.80517 -0.308688)
(-1.5432e-19 -4.93507 -0.309376)
(1.21285e-20 -4.97558 -0.30543)
(4.50929e-21 -4.91656 -0.307013)
(2.77538e-22 -4.7684 -0.306735)
(-4.92281e-23 -4.51981 -0.316703)
(-2.1193e-23 -4.20168 -0.314671)
(-3.38983e-23 -3.74919 -0.328611)
(4.46774e-23 -3.32239 -0.30545)
(-2.09623e-22 -2.66161 -0.325231)
(1.03703e-21 -2.46207 -0.262156)
(-7.24824e-21 -1.47115 -0.320975)
(8.72223e-20 -2.12663 -0.207513)
(-1.06244e-18 -1.20453 -0.345399)
(5.77988e-18 -1.15191 -0.256858)
(-2.63165e-18 -4.62857 -0.340385)
(2.8893e-34 0.564215 0.77177)
(1.22517e-33 0.652774 0.766267)
(1.89882e-33 0.702131 0.770808)
(-2.92209e-33 0.754054 0.774126)
(-2.98766e-32 0.802088 0.781251)
(-1.00084e-31 0.847457 0.789186)
(-1.50437e-31 0.890479 0.799127)
(2.70707e-31 0.931315 0.810268)
(2.49009e-30 0.970153 0.822839)
(8.25429e-30 1.00715 0.836601)
(1.43692e-29 1.04242 0.851566)
(-6.23414e-30 1.0761 0.86766)
(-1.55492e-28 1.1083 0.884869)
(-7.38742e-28 1.13917 0.903181)
(-2.43418e-27 1.16885 0.922598)
(-5.04177e-27 1.19752 0.94313)
(3.9397e-27 1.22534 0.964783)
(9.54581e-26 1.25248 0.987558)
(4.74462e-25 1.27911 1.01145)
(1.22072e-24 1.30534 1.03645)
(7.03643e-26 1.33129 1.06255)
(-1.47039e-23 1.35704 1.08983)
(-7.0908e-23 1.38274 1.11845)
(-1.64476e-22 1.40869 1.14871)
(1.30929e-23 1.43545 1.18106)
(1.75098e-21 1.46386 1.2159)
(7.60024e-21 1.49482 1.2534)
(1.66886e-20 1.52894 1.29345)
(3.9538e-21 1.56644 1.33581)
(-1.25323e-19 1.60726 1.37997)
(-5.64883e-19 1.65092 1.42519)
(-1.42721e-18 1.69656 1.47073)
(-1.90477e-18 1.74279 1.51663)
(1.82951e-18 1.78727 1.56558)
(2.01616e-17 1.82637 1.62574)
(7.37567e-17 1.85499 1.71315)
(1.94175e-16 1.86734 1.85089)
(4.17477e-16 1.85895 2.06228)
(7.70222e-16 1.82958 2.35876)
(1.25394e-15 1.78519 2.72854)
(1.83822e-15 1.73727 3.13481)
(2.46766e-15 1.69881 3.52754)
(3.07749e-15 1.67933 3.86183)
(3.60758e-15 1.68196 4.11054)
(4.00967e-15 1.70396 4.26524)
(4.24949e-15 1.73904 4.32954)
(4.30745e-15 1.77922 4.31174)
(4.17993e-15 1.81499 4.21955)
(3.88076e-15 1.83473 4.05682)
(3.43842e-15 1.829 3.82578)
(2.87924e-15 1.80391 3.54575)
(2.20997e-15 1.7585 3.26825)
(1.56102e-15 1.44368 2.88593)
(1.69153e-15 0.0921701 1.5858)
(2.7764e-15 -1.36985 0.239927)
(2.46098e-15 -1.9805 0.434055)
(2.01201e-15 -2.38667 0.360653)
(1.47585e-15 -2.87002 0.166804)
(9.49553e-16 -3.32218 0.00262791)
(4.78857e-16 -3.71688 -0.143872)
(1.55252e-16 -4.05318 -0.237478)
(2.41007e-17 -4.34431 -0.273815)
(-1.73753e-18 -4.59946 -0.290545)
(-1.35704e-18 -4.80661 -0.287208)
(-1.62833e-19 -4.93627 -0.285061)
(1.30292e-20 -4.97612 -0.281267)
(4.87794e-21 -4.91607 -0.283953)
(2.96104e-22 -4.76665 -0.286631)
(-5.51248e-23 -4.51784 -0.299989)
(-2.21379e-23 -4.19898 -0.301924)
(-3.38982e-23 -3.74834 -0.319641)
(4.44925e-23 -3.32072 -0.30017)
(-2.09928e-22 -2.66354 -0.322693)
(1.04674e-21 -2.46004 -0.261831)
(-7.4842e-21 -1.47314 -0.32145)
(8.97619e-20 -2.12168 -0.206011)
(-1.07531e-18 -1.19498 -0.345695)
(5.7058e-18 -1.15101 -0.237075)
(-2.13287e-18 -4.61517 -0.327547)
(8.54245e-34 0.564928 0.796202)
(2.58916e-33 0.65281 0.790399)
(1.19263e-33 0.701361 0.794889)
(-1.7829e-32 0.75297 0.798137)
(-8.38707e-32 0.800544 0.805322)
(-1.84173e-31 0.845612 0.813359)
(-5.23001e-33 0.888304 0.823461)
(1.61781e-30 0.928867 0.834805)
(6.77739e-30 0.967433 0.847615)
(1.46002e-29 1.00419 0.861651)
(5.39398e-30 1.03921 0.876922)
(-9.90492e-29 1.07266 0.893356)
(-5.16467e-28 1.10463 0.910942)
(-1.7196e-27 1.13527 0.929671)
(-3.96137e-27 1.16472 0.949551)
(-1.43448e-27 1.19315 0.970596)
(4.70289e-26 1.22074 0.992814)
(2.92425e-25 1.24765 1.01621)
(9.59308e-25 1.27404 1.04076)
(1.15057e-24 1.30005 1.06647)
(-6.40899e-24 1.32575 1.09334)
(-4.53652e-23 1.35124 1.12142)
(-1.41306e-22 1.37664 1.15091)
(-1.52358e-22 1.40219 1.18217)
(8.07743e-22 1.42846 1.2157)
(5.16197e-21 1.45633 1.25196)
(1.49229e-20 1.48675 1.29111)
(1.72146e-20 1.52035 1.33298)
(-5.72839e-20 1.55744 1.37722)
(-3.89032e-19 1.59797 1.42318)
(-1.19765e-18 1.6415 1.47005)
(-2.13726e-18 1.68703 1.51742)
(-4.82128e-19 1.73268 1.56696)
(1.23779e-17 1.7751 1.62524)
(5.53142e-17 1.80909 1.70694)
(1.59546e-16 1.82806 1.83518)
(3.63756e-16 1.82593 2.03598)
(7.0011e-16 1.80031 2.32612)
(1.17629e-15 1.75542 2.69991)
(1.76496e-15 1.70232 3.1241)
(2.4088e-15 1.65558 3.54719)
(3.03766e-15 1.62768 3.91858)
(3.58602e-15 1.62478 4.20488)
(4.00244e-15 1.64615 4.39405)
(4.25178e-15 1.68639 4.48923)
(4.31486e-15 1.73812 4.49996)
(4.18849e-15 1.79336 4.43634)
(3.88611e-15 1.84315 4.30614)
(3.43779e-15 1.87651 4.11307)
(2.88669e-15 1.8827 3.85779)
(2.27172e-15 1.86314 3.55263)
(1.595e-15 1.8261 3.24729)
(9.14304e-16 1.58921 2.90451)
(9.23464e-16 0.395424 1.84441)
(2.53521e-15 -1.24078 0.141678)
(2.42296e-15 -1.99259 0.234394)
(1.99351e-15 -2.36693 0.304944)
(1.47516e-15 -2.83455 0.125214)
(9.50968e-16 -3.29214 -0.0257555)
(4.82339e-16 -3.69367 -0.157883)
(1.57721e-16 -4.04124 -0.240102)
(2.4682e-17 -4.33971 -0.264339)
(-1.80477e-18 -4.59884 -0.271903)
(-1.41534e-18 -4.80757 -0.262391)
(-1.70925e-19 -4.937 -0.256252)