/*--------------------------------*- C++ -*----------------------------------*\
| =========                 |                                                 |
| \\      /  F ield         | OpenFOAM: The Open Source CFD Toolbox           |
|  \\    /   O peration     | Version:  4.1                                   |
|   \\  /    A nd           | Web:      www.OpenFOAM.org                      |
|    \\/     M anipulation  |                                                 |
\*---------------------------------------------------------------------------*/
FoamFile
{
    version     2.0;
    format      ascii;
    class       volScalarField;
    location    "10";
    object      p;
}
// * * * * * * * * * * * * * * * * * * * * * * * * * * * * * * * * * * * * * //

dimensions      [0 2 -2 0 0 0 0];

internalField   nonuniform List<scalar> 
6785
(
643.807
589.611
537.744
489.036
443.87
401.56
361.922
324.661
289.342
255.7
224.353
195.927
167.071
132.128
101.633
170.664
148.791
144.104
140.579
135.214
129.697
124.742
120.542
117.252
114.983
113.946
114.569
116.857
119.006
118.957
72.5399
66.8975
72.8369
76.5579
79.3274
82.6465
86.2474
89.8955
93.5254
96.9893
100.074
102.866
105.73
108.053
108.638
117.037
116.948
121.342
121.459
121.302
121.354
121.13
120.644
119.974
119.146
118.13
116.95
115.918
115.566
115.8
130.354
131.263
133.003
131.264
129.966
128.895
127.62
126.351
125.206
124.226
123.428
122.781
122.282
122.189
122.312
119.873
120.645
121.753
121.28
121.382
121.606
121.72
121.922
122.22
122.569
122.951
123.333
123.593
123.844
123.769
115.801
116.59
118.048
118.927
119.756
120.377
120.857
121.337
121.779
122.148
122.442
122.663
122.679
122.706
122.266
117.938
118.476
119.927
121.113
121.682
121.951
122.128
122.282
122.38
122.424
122.43
122.412
122.19
122.124
121.58
120.258
120.37
121.435
122.429
122.552
122.509
122.466
122.423
122.356
122.281
122.204
122.14
121.823
121.758
121.201
120.772
120.626
121.316
122.144
122.045
121.926
121.845
121.764
121.678
121.602
121.526
121.479
121.117
121.058
120.494
119.809
119.629
120.122
120.928
120.824
120.78
120.756
120.715
120.669
120.632
120.577
120.56
120.179
120.139
119.565
118.154
118.055
118.474
119.302
119.277
119.356
119.424
119.468
119.505
119.544
119.548
119.588
119.225
119.241
118.701
116.277
116.228
116.675
117.607
117.688
117.899
118.072
118.228
118.384
118.551
118.671
118.839
118.542
118.658
118.237
113.538
113.776
114.385
115.368
115.632
116.197
116.772
117.385
118.02
118.628
119.171
119.611
119.599
119.967
119.482
117.054
114.164
112.064
111.208
110.429
110.764
111.635
112.939
114.344
115.829
117.125
118.249
119.074
120.319
120.945
154.332
154.432
154.322
154.138
154.14
154.099
154.004
153.801
153.821
153.874
153.703
153.305
153.569
153.582
153.118
153.064
153.48
153.305
152.497
152.862
153.16
152.595
152.426
153.087
152.874
151.916
151.869
152.846
152.75
151.478
151.728
152.225
151.536
151.284
152.025
151.955
150.655
150.945
151.467
150.802
150.559
151.311
151.118
150.058
149.932
150.814
150.734
149.539
149.653
150.002
149.401
149.192
149.652
149.531
148.786
148.712
149.087
149.135
148.467
148.493
148.703
148.412
148.315
148.257
148.51
148.324
148.31
148.515
148.415
148.375
148
147.818
147.56
147.379
146.362
145.094
144.661
142.723
140.913
141.64
142.505
142.273
141.391
145.802
141.611
142.752
143.195
143.541
143.884
144.273
144.097
143.172
147.34
141.632
142.49
143.842
144.766
144.957
145.399
145.216
144.035
146.346
140.779
141.121
141.31
141.767
142.39
142.72
142.993
142.737
141.094
140.117
135.205
135.036
134.607
134.055
134.31
135.182
134.984
132.596
125.109
123.757
123.691
122.875
121.436
120.633
120.94
121.59
119.955
109.421
106.576
103.748
102.101
100.33
98.5208
97.6394
97.1913
96.24
86.7122
88.5509
83.8458
79.5112
75.0982
71.329
68.0381
65.5204
64.4456
64.6092
50.7019
62.6636
59.4708
57.74
55.7034
52.3595
48.2797
47.704
49.6539
28.9326
48.9021
47.115
45.2237
46.4641
45.5872
45.5413
45.4486
45.5448
45.6633
44.8893
45.2839
45.6022
44.7836
44.4966
44.205
44.7594
45.1657
43.7732
43.4589
42.9902
43.7095
43.908
42.0072
43.8546
44.438
41.1672
41.0879
40.7976
43.1994
44.2013
39.2208
39.0612
38.4744
41.3046
42.5481
38.0295
42.9138
44.3005
37.5328
38.2537
38.3047
42.8103
44.7417
37.162
37.7196
37.3575
41.4106
43.3336
38.2145
44.1061
45.9242
40.0006
41.5051
42.055
46.3256
48.6409
44.5961
46.4351
47.055
50.415
52.2228
51.1376
55.1045
56.3922
55.9838
58.0888
58.3214
59.6659
59.3807
58.91
59.0246
57.1589
56.3407
54.261
53.1173
49.5827
43.1599
39.8755
30.4554
19.2704
9.35172
1.34051
0.002042
0.00181976
0.00284334
0.00428305
0.00557697
0.00690621
0.00835467
0.00992421
0.0117704
0.0139607
0.0162761
0.0188987
0.0222273
0.0257739
0.0297751
0.0341748
0.0389539
0.0440441
0.049701
0.0562784
0.064199
0.0731802
0.0830769
0.0940359
0.106092
0.119326
0.133789
0.149189
0.164807
0.180177
0.194305
0.205056
0.209671
0.203617
0.179856
0.128129
0.0331745
-0.127224
-0.384307
-0.779855
-1.36554
-2.19768
-3.32391
-4.76013
-6.46194
-8.30522
-10.0965
-11.6153
-12.6474
-12.9287
-11.926
-8.53006
-0.754613
14.3167
40.8598
63.3638
41.7066
14.3143
2.35618
-0.0470584
-0.795051
-0.851969
-0.708917
-0.752088
-0.388664
-0.0576202
0.347378
0.492587
0.622239
1.26749
1.79533
1.33998
0.864396
2.46916
2.96154
1.01455
0.233285
1.65541
6.64683
0.00743791
0.00392264
0.00854407
0.0128053
0.0169968
0.0211658
0.0255502
0.0302624
0.0357808
0.0422606
0.0491138
0.0569411
0.0663604
0.0762057
0.0871928
0.099403
0.112628
0.12685
0.142892
0.161532
0.183414
0.207543
0.233873
0.263223
0.295604
0.331394
0.370893
0.413524
0.458236
0.505145
0.552028
0.595998
0.634332
0.660212
0.664906
0.636128
0.555856
0.398908
0.130448
-0.295422
-0.937101
-1.86228
-3.13787
-4.80899
-6.86653
-9.21401
-11.6558
-13.9128
-15.6323
-16.293
-14.9263
-9.73887
2.22852
25.0545
63.1983
95.5565
64.7877
24.185
4.40047
-1.51548
-3.11441
-2.96895
-2.35981
-2.04976
-1.33391
-0.597567
0.130316
0.375089
0.912396
2.49936
3.53149
2.19795
0.630566
3.2264
4.7584
3.14606
3.38665
7.64865
16.7382
0.012851
0.00621509
0.0146021
0.0219961
0.0298542
0.0377553
0.0457276
0.0541674
0.0638064
0.0749627
0.0872726
0.101352
0.116942
0.133752
0.152505
0.173855
0.197182
0.222702
0.251561
0.284994
0.323856
0.367077
0.414726
0.468253
0.528471
0.596275
0.672527
0.756973
0.848911
0.949251
1.05716
1.17065
1.28902
1.40654
1.51564
1.60641
1.66201
1.6595
1.56512
1.33479
0.90932
0.218858
-0.809704
-2.23188
-4.05287
-6.1922
-8.46567
-10.5892
-12.1723
-12.6021
-10.779
-4.71254
8.73211
33.7506
74.2749
106.403
75.8276
32.2427
6.55146
-3.05993
-5.96932
-6.02669
-5.01507
-4.02165
-2.55072
-1.20661
-0.133688
0.21458
1.09488
3.22321
4.36539
2.82304
0.300113
3.10633
6.00525
5.19553
6.25994
12.3837
25.0363
0.0168823
0.00943452
0.0207298
0.0310199
0.0423129
0.0540449
0.0661166
0.0791433
0.0939096
0.110636
0.12923
0.149431
0.170485
0.194162
0.220473
0.250759
0.284861
0.323242
0.366968
0.4175
0.475573
0.540445
0.612255
0.692668
0.783554
0.887053
1.0055
1.14009
1.29119
1.45981
1.64683
1.85202
2.07611
2.31581
2.56546
2.81768
3.05755
3.26081
3.39243
3.40304
3.22627
2.78033
1.98248
0.770324
-0.861474
-2.82383
-4.91957
-6.84812
-8.201
-8.3426
-6.17349
0.303444
14.1552
39.5093
79.7045
109.159
81.2128
37.0106
7.41163
-5.18597
-9.30883
-9.53802
-8.06827
-6.26286
-3.90155
-1.85111
-0.457709
0.0319406
1.38569
4.31353
6.05427
3.66365
0.943359
3.43918
7.72397
7.88935
9.77578
17.2898
31.5894
0.0190875
0.0128201
0.0267076
0.0397304
0.0539369
0.0688992
0.0848053
0.102644
0.123389
0.146956
0.172683
0.199494
0.227412
0.25857
0.292442
0.330584
0.374329
0.424622
0.482922
0.551294
0.630132
0.719022
0.817961
0.928173
1.05166
1.19134
1.35089
1.53354
1.74149
1.97655
2.24101
2.5365
2.86447
3.22344
3.60858
4.01301
4.42341
4.8122
5.13936
5.34894
5.36679
5.10043
4.45869
3.37903
1.86294
0.0117461
-1.96788
-3.77758
-5.01802
-5.07333
-2.88299
3.49846
17.0444
41.8583
80.7337
107.101
82.3924
38.3358
7.10954
-7.7913
-13.0382
-13.4583
-11.5352
-8.78429
-5.36369
-2.469
-0.829507
-0.142726
1.71985
5.44386
8.32778
4.45332
2.01248
3.77738
8.87167
9.95519
12.7534
21.6298
36.4813
0.0211689
0.0180796
0.0344774
0.0501898
0.066937
0.0845319
0.103499
0.125318
0.151351
0.181438
0.214102
0.248344
0.285222
0.325656
0.368937
0.416266
0.469902
0.531257
0.602567
0.686991
0.785275
0.89788
1.02507
1.16775
1.32759
1.50761
1.71194
1.94498
2.21032
2.51125
2.85139
3.23395
3.6613
4.13371
4.64636
5.19126
5.75557
6.31034
6.80903
7.19007
7.37421
7.26677
6.77245
5.83034
4.44586
2.72017
0.851541
-0.888228
-2.12878
-2.28558
-0.326733
5.63364
18.4903
42.3421
79.341
102.45
81.1004
37.4116
5.56572
-11.0019
-17.2
-17.7958
-15.3989
-11.5794
-6.95886
-3.14178
-1.28044
-0.327816
2.02011
6.45081
10.6486
5.27627
2.82302
3.92153
9.07202
10.8944
14.6254
24.821
40.0665
0.0229239
0.0251647
0.0443358
0.063154
0.0827338
0.10303
0.124805
0.149899
0.179965
0.215086
0.253743
0.29539
0.341424
0.392048
0.446606
0.505837
0.571827
0.646167
0.731494
0.831655
0.948199
1.08294
1.23698
1.41165
1.60889
1.83204
2.0856
2.37437
2.70264
3.07506
3.49644
3.97128
4.50334
5.09452
5.74057
6.43238
7.15632
7.88448
8.5664
9.13483
9.50679
9.58821
9.28429
8.53086
7.32695
5.75659
3.99291
2.27408
0.940354
0.557338
2.14713
7.54
19.5374
42.1807
76.7849
96.3608
78.3208
34.5564
2.90655
-14.8326
-21.8157
-22.5666
-19.6495
-14.669
-8.73258
-3.97729
-1.83117
-0.508678
2.25577
7.35247
12.6561
6.14242
3.1183
3.82518
8.49117
10.8111
15.4437
26.8046
42.5513
0.023624
0.0330369
0.0553432
0.0779389
0.101082
0.124783
0.149905
0.178452
0.212133
0.251295
0.294993
0.343161
0.397137
0.45727
0.523254
0.595621
0.675938
0.765736
0.867697
0.985599
1.12149
1.27846
1.45864
1.66414
1.89782
2.16396
2.46784
2.81476
3.2097
3.65861
4.16749
4.74211
5.3877
6.10744
6.89843
7.75115
8.65049
9.56979
10.4586
11.2447
11.8402
12.148
12.0732
11.5438
10.5434
9.12974
7.4428
5.69321
4.20136
3.52698
4.67956
9.42292
20.4252
41.5889
73.2144
89.0609
74.3504
29.9657
-0.766574
-19.2526
-26.8726
-27.7698
-24.287
-18.0924
-10.7857
-5.11514
-2.5414
-0.707261
2.49837
8.20219
14.0824
6.86212
3.05217
3.39972
7.48974
9.98133
15.4436
27.8012
44.0532
0.0227965
0.0407157
0.0664461
0.0934023
0.120804
0.148791
0.17819
0.210987
0.248824
0.292162
0.340605
0.394589
0.455456
0.524033
0.600609
0.685873
0.781087
0.887701
1.00844
1.14665
1.30422
1.48519
1.69254
1.92914
2.19896
2.50742
2.86079
3.26521
3.72674
4.25269
4.85065
5.52787
6.29083
7.14391
8.08558
9.10633
10.1892
11.3071
12.4111
13.4262
14.2584
14.8033
14.9603
14.6485
13.8339
12.5495
10.9052
9.09093
7.41661
6.43715
7.1211
11.1372
20.9829
40.3498
68.4347
80.6689
69.0272
24.1112
-5.30227
-24.1742
-32.3069
-33.3447
-29.2786
-21.8927
-13.2592
-6.6873
-3.4735
-0.968838
2.78502
9.00334
14.8253
7.3772
2.78968
2.69378
6.33844
8.70947
14.8707
28.0431
44.6655
0.020495
0.0476886
0.0770451
0.108737
0.140824
0.173787
0.208281
0.246168
0.289
0.337291
0.390968
0.450815
0.518307
0.594713
0.681013
0.77838
0.888112
1.01173
1.15224
1.31257
1.4942
1.70166
1.93851
2.20827
2.51579
2.86744
3.27037
3.73166
4.25849
4.85957
5.54435
6.32178
7.1996
8.18326
9.27233
10.4573
11.7187
13.0268
14.3327
15.5601
16.6097
17.3685
17.7264
17.5937
16.9223
15.7279
14.1001
12.2115
10.3618
9.09181
9.29199
12.5071
21.0439
38.3247
62.444
71.4081
62.02
18.0161
-10.542
-29.5192
-38.0416
-39.1883
-34.5852
-26.1323
-16.2984
-8.78722
-4.67686
-1.32959
3.06458
9.72258
15.0804
7.71066
2.56327
1.93864
5.07464
7.27914
13.946
27.7244
44.4788
0.0171985
0.0539133
0.0870325
0.123702
0.160718
0.199099
0.239236
0.282861
0.331462
0.385633
0.445469
0.511903
0.586532
0.67095
0.7667
0.875566
0.999152
1.13928
1.2994
1.48219
1.68925
1.92531
2.19428
2.50016
2.84837
3.24599
3.70079
4.2206
4.81329
5.48874
6.25806
7.13197
8.11945
9.22687
10.4546
11.7928
13.2192
14.6993
16.1815
17.5882
18.8158
19.7452
20.2571
20.254
19.6793
18.5391
16.9112
14.9527
12.9449
11.4013
11.1074
13.4663
20.591
35.5756
55.4611
61.4043
53.1396
12.0219
-16.2804
-35.167
-43.9435
-45.1695
-40.1583
-30.8512
-19.9931
-11.4372
-6.16874
-1.80084
3.2978
10.2948
14.9759
7.84329
2.44175
1.31877
3.70053
5.92512
12.857
27.0342
43.5882
0.0135299
0.0595236
0.0964667
0.138269
0.180365
0.224405
0.27048
0.320238
0.375162
0.436004
0.502966
0.57701
0.659816
0.753173
0.858974
0.97947
1.1167
1.27292
1.45199
1.65641
1.88889
2.15439
2.45721
2.80166
3.19359
3.64071
4.15132
4.73351
5.39555
6.14777
7.00242
7.9716
9.06538
10.2907
11.6485
13.1283
14.7051
16.3387
17.9716
19.5238
20.8891
21.9446
22.5656
22.6495
22.1357
21.0254
19.3886
17.3682
15.22
13.4086
12.6126
14.083
19.7426
32.2933
47.7836
50.7097
42.7145
5.54474
-22.2863
-40.9531
-49.8737
-51.1821
-45.95
-36.031
-24.3311
-14.5914
-7.92894
-2.36928
3.48148
10.6513
14.6121
7.74863
2.37708
0.900497
2.39665
4.78474
11.7521
26.1497
42.2322
0.0101618
0.064799
0.105554
0.152558
0.199829
0.249636
0.301794
0.357876
0.419456
0.487516
0.562398
0.645046
0.737203
0.840774
0.957833
1.09089
1.24236
1.41495
1.61264
1.83784
2.09503
2.38963
2.72654
3.11051
3.54792
4.04718
4.61719
5.26623
6.00266
6.8367
7.78087
8.84809
10.0489
11.3906
12.8739
14.4879
16.2049
17.9791
19.746
21.4206
22.8949
24.0452
24.7453
24.8904
24.4192
23.3299
21.6844
19.6119
17.3419
15.2585
13.9544
14.5181
18.6843
28.6991
39.7069
39.5231
31.2934
-1.7348
-28.3368
-46.742
-55.727
-57.1561
-51.912
-41.6177
-29.2029
-18.1637
-9.91013
-3.02059
3.5984
10.7995
14.1158
7.57986
2.37501
0.660583
1.37274
3.87426
10.752
25.1883
40.7114
0.00768757
0.0700959
0.114588
0.166765
0.219255
0.274861
0.33318
0.395714
0.464169
0.539809
0.623168
0.715204
0.817719
0.932694
1.06231
1.20923
1.37618
1.56618
1.78301
2.02923
2.31082
2.6339
3.00421
3.42731
3.91032
4.46247
5.09357
5.81239
6.62746
7.54861
8.588
9.75859
11.0709
12.5315
14.1409
15.8871
17.7402
19.6498
21.5445
23.3327
24.9044
26.1365
26.9051
27.1055
26.6767
25.615
23.9706
21.8578
19.4817
17.1238
15.3044
14.9436
17.587
24.9751
31.4941
28.1478
19.402
-9.54284
-34.1433
-52.4256
-61.4254
-63.0716
-58.018
-47.5374
-34.4419
-22.0446
-12.07
-3.75591
3.6161
10.8099
13.6477
7.48108
2.46368
0.526441
0.713377
3.20269
9.94324
24.2405
39.1194
0.00652504
0.0757876
0.123933
0.181179
0.238893
0.300286
0.364809
0.433937
0.50948
0.592981
0.685185
0.787137
0.900714
1.02797
1.17114
1.33315
1.51699
1.72585
1.9632
2.23196
2.5387
2.89029
3.29359
3.75515
4.28297
4.88725
5.57893
6.36789
7.26331
8.27473
9.41373
10.6927
12.1216
13.7059
15.4448
17.3251
19.3151
21.3602
23.3841
25.2888
26.9605
28.2775
29.12
29.3856
29.0129
27.9952
26.3689
24.2278
21.7521
19.1225
16.7738
15.4639
16.5449
21.2281
23.354
16.8647
7.44229
-17.6399
-39.4877
-57.9104
-66.9268
-68.9131
-64.2108
-53.6956
-39.9103
-26.1199
-14.3855
-4.60669
3.48299
10.682
13.2125
7.4814
2.63138
0.463708
0.417291
2.79201
9.38544
23.396
37.5525
0.00682417
0.0821822
0.133968
0.196175
0.259116
0.326292
0.39704
0.47291
0.555777
0.647401
0.748691
0.860847
0.985868
1.12589
1.28327
1.46127
1.66327
1.89255
2.15222
2.44563
2.77917
3.16046
3.59738
4.09753
4.66972
5.32502
6.07565
6.9331
7.90777
9.00947
10.2493
11.6389
13.1874
14.8988
16.7704
18.7873
20.9159
23.0987
25.2555
27.2839
29.0657
30.4795
31.4098
31.7577
31.4603
30.5053
28.9141
26.7542
24.176
21.2713
18.3715
16.0824
15.5591
17.4927
15.4328
5.89409
-4.33633
-25.8442
-44.5477
-63.1257
-72.2048
-74.5958
-70.3351
-59.9014
-45.4943
-30.3229
-16.8744
-5.65558
3.12192
10.4144
12.8064
7.61361
2.89361
0.501893
0.398455
2.65547
9.12328
22.6977
36.1743
0.00844809
0.089452
0.14501
0.212152
0.280381
0.353392
0.430415
0.513156
0.603584
0.703558
0.814102
0.936576
1.07317
1.22617
1.39813
1.59275
1.81389
2.06491
2.34863
2.66864
3.03107
3.44407
3.91634
4.45641
5.07368
5.77983
6.58815
7.51185
8.56303
9.75244
11.0912
12.5902
14.2575
16.0957
18.1
20.2536
22.5202
24.8408
27.1318
29.2887
31.1904
32.7134
33.7453
34.191
33.9851
33.1062
31.5603
29.3876
26.6948
23.4988
20.0227
16.7271
14.5687
13.7614
7.82987
-4.5942
-15.7523
-34.2005
-49.7269
-67.9939
-77.2427
-80.033
-76.2136
-65.9154
-51.0355
-34.6392
-19.6152
-7.02863
2.46084
10.0069
12.4195
7.88086
3.29906
0.65144
0.561124
2.81828
9.18552
22.2188
35.0183
0.01103
0.0976103
0.157237
0.229443
0.303122
0.382108
0.465516
0.555256
0.653439
0.761955
0.881877
1.01472
1.16291
1.32894
1.51567
1.72725
1.96811
2.24175
2.5509
2.8991
3.29241
3.73934
4.24927
4.83148
5.49579
6.25401
7.12014
8.10878
9.23376
10.5073
11.941
13.5454
15.3275
17.2883
19.4212
21.707
24.1072
26.5609
28.9826
31.2666
33.291
34.9304
36.0722
36.6242
36.5181
35.72
34.2203
32.0366
29.2073
25.6998
21.6266
17.3085
13.5047
10.0252
0.619368
-14.4612
-26.6771
-42.6149
-55.2936
-72.4216
-81.995
-85.11
-81.6759
-71.5932
-56.426
-39.0798
-22.7234
-8.86736
1.46579
9.4709
12.0455
8.22664
3.8068
0.940952
0.914677
3.25892
9.56977
21.9879
33.9837
0.0141043
0.106553
0.170655
0.248222
0.327618
0.412803
0.502779
0.599676
0.705775
0.822994
0.95244
1.09577
1.25562
1.43469
1.63623
1.86487
2.1256
2.4223
2.75781
3.13544
3.56119
4.04395
4.59376
5.22061
5.93456
6.74727
7.67288
8.72679
9.92421
11.2789
12.8033
14.508
16.3989
18.4756
20.7294
23.1394
25.6645
28.2419
30.7855
33.1887
35.3308
37.0858
38.3391
38.998
38.9917
38.2714
36.8118
34.6126
31.626
27.7928
23.1119
17.7718
12.3353
6.30129
-6.12962
-23.5763
-36.9758
-51.0594
-61.1847
-76.4463
-86.3426
-89.7014
-86.6262
-76.8622
-61.6264
-43.7093
-26.3075
-11.2601
0.144246
8.80441
11.6834
8.59347
4.29841
1.38209
1.46701
3.99491
10.2403
21.9632
33.2684
0.0172558
0.116107
0.185119
0.268448
0.353903
0.445565
0.542351
0.646624
0.760844
0.886971
1.02618
1.18028
1.35199
1.54418
1.76044
2.00603
2.28653
2.60639
2.96872
3.37658
3.83587
4.35581
4.94722
5.62082
6.38694
7.257
8.24477
9.36579
10.636
12.0704
13.6824
15.4827
17.4765
19.6615
22.0275
24.5514
27.1904
29.8797
32.5326
35.0431
37.2922
39.1554
40.5158
41.2779
41.3667
40.7181
39.2894
37.0632
33.9151
29.7514
24.4651
18.1186
11.0824
2.64142
-12.3496
-31.7924
-46.3296
-59.2785
-67.1086
-80.2302
-90.1058
-93.7483
-91.0821
-81.7038
-66.6087
-48.5304
-30.3257
-14.1134
-1.40332
8.02629
11.3453
8.97854
4.82115
1.96735
2.16292
4.99176
11.1728
22.1619
32.8892
0.0202026
0.126048
0.200371
0.289877
0.381762
0.480214
0.584099
0.696046
0.818689
0.954036
1.10336
1.26864
1.45258
1.65806
1.88904
2.15142
2.45148
2.79435
3.18354
3.62202
4.11546
4.6734
5.30746
6.02919
6.84936
7.77925
8.83202
10.0229
11.3677
12.8819
14.5798
16.4725
18.5644
20.8515
23.3214
25.9494
28.6911
31.4803
34.2298
36.8346
39.1783
41.1391
42.5999
43.4603
43.6391
43.058
41.6549
39.3923
36.0917
31.6028
25.7241
18.3964
9.80748
-0.880153
-17.9821
-38.9693
-54.4591
-67.0203
-72.9738
-83.9471
-93.2835
-97.3612
-95.161
-86.1684
-71.3721
-53.4046
-34.5292
-17.1233
-2.98676
7.21122
11.0462
9.39557
5.4363
2.70865
3.02009
6.20207
12.3314
22.5842
32.6237
0.0228048
0.136137
0.216111
0.312174
0.410842
0.516425
0.627741
0.747711
0.879138
1.0241
1.18399
1.36095
1.55762
1.77678
2.02268
2.3018
2.62119
2.9868
3.40264
3.87173
4.39958
4.99587
5.673
6.44345
7.31865
8.3099
9.42986
10.6931
12.1149
13.7102
15.4938
17.477
19.664
22.0486
24.6162
27.3404
30.1757
33.0547
35.8903
38.5787
41.0062
43.0551
44.6097
45.5651
45.8316
45.3184
43.945
41.6463
38.204
33.4027
26.9521
18.6713
8.5842
-4.18628
-22.9953
-45.0531
-61.2693
-73.9721
-78.7224
-87.6275
-96.2183
-100.801
-99.0056
-90.319
-75.8532
-57.97
-38.4463
-19.9127
-4.54208
6.40122
10.7957
9.85839
6.18926
3.6006
4.06421
7.57783
13.6549
23.1998
32.7266
0.0250563
0.146197
0.232095
0.335051
0.440814
0.553858
0.672955
0.801293
0.941838
1.09678
1.26772
1.45694
1.66699
1.90047
2.16178
2.45782
2.79642
3.18448
3.62662
4.12607
4.68827
5.32291
6.04306
6.86218
7.79248
8.84548
10.0337
11.3711
12.8718
14.5499
16.4195
18.4925
20.7724
23.2517
25.913
28.7283
31.6508
34.6128
37.5276
40.2928
42.7973
44.9281
46.5723
47.6223
47.9778
47.5376
46.2062
43.8773
40.3042
35.2071
28.2077
19.0034
7.47489
-7.21554
-27.3894
-50.0907
-66.7947
-79.9042
-84.3216
-91.2715
-99.2973
-104.287
-102.687
-94.1315
-79.8516
-61.795
-41.6955
-22.4316
-6.29769
5.54652
10.594
10.3743
7.09538
4.65915
5.31211
9.07185
15.0975
24.0202
32.9918
0.0270689
0.156171
0.248212
0.358338
0.471454
0.592248
0.719444
0.856439
1.00634
1.17156
1.35397
1.55607
1.78024
2.02887
2.30632
2.61976
2.9777
3.38801
3.85611
4.38556
4.98182
5.65456
6.41739
7.28469
8.26947
9.38364
10.6399
12.0518
13.6324
15.3942
17.3505
19.5127
21.8841
24.4559
27.2085
30.1117
33.1179
36.1593
39.1499
41.9894
44.5689
46.7793
48.5121
49.6587
50.1074
49.7475
48.4728
46.1209
42.4295
37.0528
29.5273
19.4311
6.51808
-9.9272
-31.1851
-54.1734
-71.2053
-84.7704
-89.4283
-94.9733
-102.619
-107.811
-106.187
-97.52
-83.1503
-64.7388
-44.4557
-24.973
-8.14216
4.62845
10.434
10.9499
8.13613
5.89629
6.79328
10.6699
16.6518
25.022
33.5647
0.0290208
0.166108
0.264477
0.38199
0.502659
0.631428
0.76698
0.912847
1.07224
1.24786
1.44206
1.65755
1.8966
2.16131
2.45585
2.78742
3.16511
3.5977
4.09152
4.65062
5.28053
5.99098
6.79597
7.71073
8.74896
9.92306
11.2462
12.7317
14.3917
16.2371
18.2799
20.5305
22.9919
25.6544
28.4962
31.4855
34.5738
37.6933
40.7592
43.6738
46.33
48.6215
50.4448
51.6912
52.239
51.9673
50.7587
48.3932
44.5953
38.9536
30.9216
19.9669
5.73138
-12.3049
-34.4173
-57.4087
-74.673
-88.5797
-93.9269
-98.9062
-106.018
-111.198
-109.387
-100.438
-85.6927
-67.0466
-47.083
-27.4468
-9.96137
3.66432
10.3174
11.6022
9.30664
7.31359
8.51015
12.3927
18.3236
26.2252
34.4422
0.0310802
0.1761
0.280976
0.406052
0.534434
0.671356
0.815462
0.970336
1.13924
1.32526
1.53134
1.76057
2.01515
2.29685
2.60948
2.96011
3.35818
3.81338
4.33289
4.92137
5.58452
6.33221
7.17882
8.14022
9.23068
10.4631
11.8511
13.4082
15.1458
17.0735
19.2016
21.539
24.0885
26.8394
29.7685
32.8424
36.0119
39.2093
42.3516
45.3438
48.0812
50.4589
52.3764
53.7262
54.3795
54.2031
53.063
50.696
46.8009
40.9073
32.3875
20.6072
5.11779
-14.3529
-37.1308
-59.9141
-77.3478
-91.5159
-98.0247
-102.891
-109.226
-114.286
-112.281
-102.924
-87.6803
-69.1395
-49.4173
-29.6596
-11.6716
2.68349
10.262
12.355
10.6164
8.89761
10.4281
14.2496
20.1167
27.5967
35.2859
0.0333627
0.186216
0.297785
0.430587
0.566843
0.712079
0.8649
1.02886
1.20723
1.4035
1.62137
1.86444
2.13496
2.43441
2.76607
3.13672
3.55601
4.03435
4.57973
5.19746
5.89351
6.67801
7.56571
8.57294
9.71441
11.0036
12.4542
14.0802
15.8926
17.9001
20.111
22.5328
25.1677
28.0043
31.0182
34.1748
37.4252
40.7011
43.9215
46.9942
49.8182
52.289
54.3067
55.7641
56.5288
56.4549
55.383
53.0243
49.0385
42.9056
33.9194
21.3459
4.67432
-16.0814
-39.3646
-61.8252
-79.3607
-93.9031
-101.791
-106.539
-112.092
-117.116
-114.978
-105.059
-89.4629
-70.9794
-51.3339
-31.5211
-13.2164
1.72077
10.277
13.2214
12.0797
10.6548
12.5183
16.2203
22.0283
29.0634
36.2085
0.0359327
0.19647
0.314923
0.455611
0.599922
0.753654
0.915344
1.08846
1.27622
1.48255
1.71196
1.96874
2.25534
2.57298
2.9244
3.31592
3.75727
4.25939
4.83101
5.47802
6.20679
7.02777
7.95604
9.00834
10.1997
11.544
13.0551
14.7468
16.6306
18.7146
21.005
23.5082
26.2251
29.1444
32.2401
35.4773
38.8077
42.1632
45.4642
48.6203
51.5351
54.1061
56.2322
57.8031
58.6849
58.7207
57.7182
55.3739
51.3031
44.9426
35.5147
22.1852
4.40005
-17.4976
-41.1352
-63.2789
-80.7369
-95.9381
-105.069
-109.808
-114.79
-119.897
-117.506
-106.987
-91.0826
-72.5104
-52.8194
-32.9728
-14.5449
0.82396
10.3398
14.1901
13.7016
12.6034
14.7589
18.2897
24.0416
30.6092
37.2622
0.0388022
0.206813
0.332333
0.481054
0.633629
0.796071
0.966814
1.14917
1.34627
1.56248
1.80314
2.07333
2.37587
2.71182
3.08338
3.49637
3.96046
4.48696
5.08521
5.76169
6.52314
7.38035
8.34877
9.4455
10.6859
12.0838
13.6532
15.4076
17.3591
19.5157
21.8816
24.4623
27.2573
30.2559
33.4306
36.7459
40.1554
43.5915
46.9752
50.2188
53.2282
55.9054
58.1483
59.8413
60.8464
60.9979
60.0694
57.7446
53.5966
47.0197
37.1761
23.1358
4.30124
-18.6132
-42.4437
-64.2249
-81.3801
-97.4481
-107.804
-112.811
-117.623
-122.715
-119.822
-108.75
-92.4941
-73.7376
-53.8818
-33.9721
-15.6012
0.032162
10.4245
15.2263
15.4723
14.7562
17.1191
20.4392
26.1269
32.1913
38.0619
0.0419398
0.217142
0.349886
0.50675
0.667801
0.839197
1.01922
1.21096
1.41744
1.64342
1.89506
2.17829
2.49643
2.85048
3.24221
3.67693
4.16412
4.71536
5.34052
6.04666
6.84084
7.73415
8.74237
9.88302
11.1717
12.6222
14.2478
16.0621
18.0779
20.3027
22.7402
25.3937
28.2623
31.3359
34.5866
37.9776
41.4652
44.9839
48.4532
51.7894
54.8988
57.6866
60.0526
61.8771
63.0135
63.2865
62.4394
60.1403
55.9263
49.1469
38.9131
24.2087
4.3875
-19.448
-43.3176
-64.5655
-81.324
-98.3413
-110.014
-115.769
-120.662
-125.438
-121.889
-110.309
-93.6912
-74.6589
-54.5086
-34.5082
-16.3348
-0.620976
10.5178
16.2967
17.3567
17.0742
19.5331
22.6417
28.2364
33.7335
38.9397
0.0452966
0.227328
0.367415
0.532464
0.702167
0.882754
1.0723
1.27363
1.48962
1.72539
1.98786
2.28381
2.61711
2.98891
3.40056
3.85686
4.3671
4.94306
5.59513
6.33093
7.15784
8.08708
9.13479
10.3189
11.6553
13.1574
14.8378
16.71
18.7869
21.0761
23.5809
26.3026
29.2401
32.3839
35.7072
39.1705
42.7337
46.3364
49.8962
53.33
56.5468
59.45
61.9438
63.9092
65.1877
65.5889
64.832
62.5679
58.3001
51.3361
40.7392
25.4135
4.66869
-20.0213
-43.8382
-64.3774
-80.8135
-98.6273
-111.666
-118.74
-123.75
-127.919
-123.717
-111.648
-94.6644
-75.2507
-54.7058
-34.6197
-16.6789
-1.06934
10.6415
17.3816
19.2929
19.4622
21.8972
24.8726
30.308
35.1829
39.7703
0.0488353
0.237249
0.384757
0.557953
0.736404
0.926358
1.12567
1.33681
1.56252
1.80822
2.08151
2.38994
2.73806
3.12719
3.55837
4.03587
4.56876
5.16899
5.84758
6.61272
7.47204
8.43688
9.52365
10.7507
12.1342
13.6871
15.4211
17.3497
19.4853
21.8358
24.4046
27.1905
30.1926
33.4017
36.7937
40.3268
43.9611
47.6456
51.3
54.8368
58.1693
61.196
63.8229
65.9377
67.37
67.9066
67.2514
65.0349
60.7247
53.5958
42.6645
26.7608
5.15375
-20.347
-44.1118
-63.8915
-80.0728
-98.3604
-112.776
-121.478
-126.599
-130.073
-125.291
-112.769
-95.4007
-75.5061
-54.517
-34.3609
-16.5865
-1.26228
10.8255
18.4567
21.2101
21.811
24.1286
27.1108
32.3046
36.539
40.623
0.0525576
0.246842
0.401804
0.583025
0.770223
0.969615
1.17883
1.39998
1.63564
1.89147
2.17567
2.49653
2.85923
3.26539
3.71571
4.21391
4.76882
5.39263
6.09698
6.8907
7.78179
8.78162
9.90673
11.1759
12.6055
14.2083
15.9951
17.9788
20.1713
22.5807
25.2109
28.0587
31.1219
34.3923
37.8493
41.4511
45.1538
48.9148
52.6637
56.3086
59.764
62.9266
65.6945
67.9643
69.5596
70.2392
69.6984
67.5425
63.2052
55.9323
44.6958
28.2602
5.84893
-20.4327
-44.2154
-63.3387
-79.1999
-97.7208
-113.458
-123.705
-129.05
-131.922
-126.578
-113.654
-95.8935
-75.4576
-54.0342
-33.8121
-16.1117
-1.18439
11.0764
19.491
23.0492
24.0287
26.1803
29.3543
34.2356
37.8383
41.4553
0.0565201
0.256124
0.41855
0.607597
0.803442
1.01222
1.23136
1.46261
1.70839
1.97455
2.2698
2.6031
2.98028
3.40324
3.8724
4.39088
4.96722
5.61378
6.34289
7.16413
8.08602
9.11997
10.2824
11.5924
13.0668
14.7181
16.5566
18.5945
20.8421
23.3088
25.9981
28.9069
32.0293
35.3582
38.8764
42.5465
46.3186
50.1522
53.9917
57.7478
61.3294
64.6417
67.5617
69.9889
71.752
72.5847
72.172
70.0891
65.7424
58.3471
46.8373
29.9161
6.75754
-20.2852
-44.1748
-62.8337
-78.2104
-96.9185
-113.609
-125.182
-131.1
-133.431
-127.518
-114.237
-96.1063
-75.1638
-53.405
-33.0713
-15.3715
-0.848184
11.4064
20.4696
24.7845
26.0615
28.0655
31.596
36.1011
39.061
42.0872
0.0607991
0.265167
0.435057
0.631688
0.836002
1.05401
1.28296
1.52427
1.78023
2.05685
2.36324
2.70899
3.10054
3.54013
4.0279
4.5664
5.1637
5.83227
6.58508
7.43265
8.38423
9.45122
10.6497
11.999
13.5164
15.2142
17.1032
19.1939
21.4952
24.0175
26.7641
29.7335
32.9155
36.302
39.878
43.6135
47.4576
51.3648
55.2912
59.159
62.8669
66.3309
69.4168
72.01
73.9451
74.9429
74.6705
72.6719
68.3319
60.836
49.084
31.724
7.87756
-19.9125
-43.9793
-62.3515
-77.1496
-95.842
-113.065
-125.837
-132.824
-134.556
-128.07
-114.435
-95.9502
-74.6289
-52.6821
-32.1406
-14.3741
-0.248309
11.8426
21.4158
26.4335
27.8981
29.8425
33.8276
37.9024
40.2146
42.6602
0.0654256
0.274026
0.451398
0.655373
0.86795
1.09497
1.33354
1.58477
1.85085
2.13791
2.45542
2.81349
3.2192
3.67515
4.18136
4.73971
5.3577
6.04767
6.82322
7.69599
8.67612
9.77506
11.0085
12.3954
13.9536
15.6957
17.6331
19.7747
22.1285
24.704
27.5061
30.5349
33.7786
37.2254
40.8598
44.6574
48.573
52.5555
56.5652
60.5426
64.382
67.9865
71.2591
74.0237
76.1414
77.3168
77.1917
75.2882
70.9685
63.3899
51.4236
33.6721
9.20164
-19.3183
-43.6087
-61.7825
-76.0786
-94.3734
-111.81
-125.752
-134.203
-135.3
-128.272
-114.239
-95.4028
-73.8326
-51.7869
-30.997
-13.1068
0.664174
12.426
22.3712
28.0569
29.5852
31.564
36.0657
39.6359
41.3269
43.1946
0.0703431
0.282683
0.467595
0.678718
0.899375
1.13519
1.38316
1.64413
1.92018
2.21756
2.546
2.9161
3.33554
3.80743
4.33172
4.90972
5.54817
6.25909
7.05665
7.95366
8.96133
10.0912
11.3585
12.7817
14.3784
16.1625
18.1462
20.3366
22.741
25.367
28.2222
31.3078
34.614
38.1242
41.8225
45.6857
49.6747
53.7346
57.8239
61.9046
65.8829
69.6312
73.0656
76.0292
78.3432
79.705
79.7332
77.9359
73.6487
66.0021
53.8468
35.7475
10.7178
-18.5009
-43.0451
-61.0016
-74.991
-92.6389
-110.037
-125.063
-135.117
-135.741
-128.237
-113.755
-94.5932
-72.8397
-50.6633
-29.6546
-11.6382
1.87949
13.2175
23.3767
29.7482
31.2661
33.2592
38.3591
41.2964
42.388
43.514
0.0754034
0.291022
0.483571
0.701702
0.930307
1.17471
1.4319
1.70244
1.98834
2.29588
2.63497
3.01666
3.44924
3.93636
4.47812
5.07532
5.73386
6.46535
7.28433
8.20481
9.23919
10.3993
11.6997
13.1579
14.7913
16.6154
18.6429
20.8801
23.3336
26.0078
28.9129
32.0521
35.4186
38.9926
42.7568
46.6917
50.7629
54.9128
59.0877
63.2616
67.3691
71.2841
74.8692
78.03
80.5465
82.1017
82.2926
80.6121
76.3698
68.6709
56.3518
37.9443
12.4194
-17.4531
-42.2853
-59.9379
-73.8089
-90.7496
-108.013
-123.914
-135.45
-135.973
-128.073
-113.109
-93.6603
-71.705
-49.2969
-28.1156
-10.0152
3.33899
14.2676
24.4646
31.5925
33.1903
34.9929
40.6935
42.8337
43.3929
43.8911
0.0804095
0.298864
0.499147
0.724177
0.960616
1.21344
1.47969
1.75972
2.05542
2.37303
2.72255
3.11537
3.56038
4.06182
4.6201
5.23571
5.91377
6.66529
7.50507
8.44828
9.50862
10.6983
12.0312
13.5236
15.1925
17.0549
19.1241
21.4065
23.9076
26.6287
29.5806
32.77
36.1945
39.8323
43.6604
47.6645
51.8212
56.0761
60.3559
64.6261
68.8506
72.9299
76.6984
80.0318
82.7474
84.5051
84.8695
83.3153
79.1293
71.3957
58.936
40.2611
14.3046
-16.1694
-41.3344
-58.5916
-72.4458
-88.7499
-105.925
-122.423