/*--------------------------------*- C++ -*----------------------------------*\
| =========                 |                                                 |
| \\      /  F ield         | OpenFOAM: The Open Source CFD Toolbox           |
|  \\    /   O peration     | Version:  4.1                                   |
|   \\  /    A nd           | Web:      www.OpenFOAM.org                      |
|    \\/     M anipulation  |                                                 |
\*---------------------------------------------------------------------------*/
FoamFile
{
    version     2.0;
    format      ascii;
    class       volScalarField;
    location    "29";
    object      p;
}
// * * * * * * * * * * * * * * * * * * * * * * * * * * * * * * * * * * * * * //

dimensions      [0 2 -2 0 0 0 0];

internalField   nonuniform List<scalar> 
6785
(
597.486
519.323
472.7
419.694
373.352
328.749
287.225
247.923
210.722
175.407
141.291
107.978
78.9261
48.9405
8.07324
-9.57658
-26.8089
-16.6521
-23.4002
-22.5171
-24.7355
-25.242
-25.7009
-25.2758
-23.9744
-21.5226
-18.3892
-14.0465
-7.68317
-4.17124
21.4983
17.8736
27.3474
23.2336
27.5476
26.9207
28.3031
28.4933
28.9311
29.2024
29.7186
30.255
30.5235
30.7608
31.5339
42.264
38.4055
40.717
35.0483
35.7887
32.1103
30.9867
28.601
26.9931
25.2929
24.013
22.9488
21.7496
19.7051
17.562
-1.59984
-6.08398
-5.44292
-9.94603
-9.60463
-13.1672
-14.1384
-16.7692
-18.6086
-20.7965
-22.4938
-23.6696
-24.7112
-25.7977
-24.9392
-18.9914
-21.3607
-19.2347
-21.9012
-19.8876
-21.8748
-21.0069
-21.8636
-21.7609
-21.8863
-21.3508
-20.2211
-18.3836
-17.012
-14.4259
3.95292
4.27336
7.29692
6.57308
9.75076
9.77779
12.0621
13.1206
14.8224
16.2978
17.9292
19.4245
21.2486
22.556
25.0891
27.1152
28.1431
30.4122
30.1097
32.6008
32.7781
34.5197
35.3847
36.6455
37.741
38.9173
39.9724
41.2017
42.0447
43.319
42.0898
43.1896
44.9038
44.7122
46.6213
46.767
48.061
48.7301
49.6462
50.4635
51.3319
52.1599
53.204
53.972
55.2093
57.8466
59.1197
60.4156
60.4568
61.9324
61.9833
62.8726
62.9788
63.2582
63.4902
63.9527
64.7239
65.7356
66.475
67.3692
69.7183
70.3641
70.9908
70.8281
71.6483
71.5011
71.9301
71.9209
72.0538
71.9039
71.4615
70.7924
69.9567
69.7915
69.153
73.8989
71.9024
71.9437
70.5449
70.2098
68.598
67.2863
64.9347
62.142
58.5865
54.9495
51.831
50.0253
49.6066
47.021
49.6575
44.1114
41.3698
37.1491
33.7844
29.8972
26.8971
24.04
22.0041
20.4529
19.466
18.9481
18.8916
18.3384
15.5309
11.6439
9.71651
7.18448
3.58356
0.562829
-2.58503
-4.79937
-6.79497
-8.49126
-10.1746
-11.8105
-13.3127
-14.4139
-15.3536
-15.6106
57.1014
55.3763
49.9764
41.7918
31.9174
22.8357
16.0634
10.0874
4.94472
1.83385
-0.262714
-1.05479
-0.415339
0.604051
1.13567
34.1184
34.0792
37.2473
34.1935
34.3668
35.4217
34.9799
34.2729
34.104
33.9215
34.0379
32.4947
32.6229
32.4017
30.534
30.0793
30.5087
30.4358
27.5366
28.8306
28.685
26.1306
25.6803
27.2011
27.1721
24.5673
24.2202
25.7547
26.5588
23.4377
25.3119
26.1875
23.9364
23.7078
25.2137
26.2634
23.9572
25.3997
26.3857
24.9393
24.7879
25.9714
26.5296
25.4582
25.3668
26.2926
26.4931
25.4579
26.3607
26.648
26.0709
26.0568
26.6187
27.3175
27.0056
26.9631
27.2002
28.3593
28.1745
28.1184
29.1776
29.1121
29.0175
28.898
29.4445
29.5347
30.8072
29.2288
27.4077
28.7982
30.5933
21.7361
17.4801
21.3136
26.8152
-2.33968
8.93114
17.9528
-34.3559
-20.6894
-14.4107
-17.069
-12.1903
-18.7025
-19.1203
-12.8448
-12.8138
-11.6426
-11.2867
-10.1047
-7.10637
-2.78934
-2.64076
-8.22845
-6.01633
-1.54022
2.90457
3.8164
6.17223
7.95333
10.3661
14.7387
13.3245
17.1305
18.7118
21.8494
26.4198
29.5501
31.4425
34.1055
33.3826
43.1549
41.3407
43.5744
44.57
45.4792
47.7071
51.1743
52.9975
48.4955
56.8944
58.1531
60.236
60.5726
59.0229
57.3672
55.5568
56.7277
50.0522
61.2604
61.0938
54.8429
53.4109
51.0141
46.6266
43.2382
39.9261
29.6059
37.8831
45.3368
37.4678
34.0329
28.7449
22.4573
16.9257
14.0093
9.82445
4.02312
3.46141
7.73162
2.49214
2.17696
0.685262
-0.977989
-6.6055
-8.43972
-5.85111
-15.3978
-2.07647
-4.39066
-5.38884
-0.264771
-1.93248
-0.0126823
0.373365
1.16979
2.27753
1.99318
2.50835
2.86945
2.8825
3.03427
3.10688
3.18636
3.25075
3.22967
3.23741
3.2247
3.2134
3.17967
3.18206
3.13537
3.03784
3.16305
3.02415
2.9354
3.0032
2.82342
3.19231
2.85673
2.72362
2.8699
2.61414
3.25668
2.82881
2.28011
3.4113
2.67452
2.37616
2.71626
2.2333
3.58706
2.54747
2.229
2.58881
2.04506
3.59599
2.57369
1.5033
3.71431
2.28019
1.77521
2.25622
1.53436
3.61252
2.03073
1.54883
1.99969
1.28213
3.25103
1.99713
0.633617
3.14892
1.74599
0.730073
1.54163
0.466265
2.71031
1.37752
0.218593
1.09142
-0.059188
2.1735
1.00665
-1.10333
2.06171
0.377977
-1.16333
-0.271677
-1.41566
0.0141419
-0.0224497
-0.0104587
-0.0185767
-0.0193433
-0.0246327
-0.0291287
-0.0347645
-0.0388323
-0.0392914
-0.0334368
-0.020803
-0.0090021
-0.025255
-0.0848935
-0.0888995
-0.0737513
-0.242635
-0.286449
-0.393587
-0.533985
-0.664203
-0.778106
-0.868709
-0.929057
-0.961053
-0.963352
-0.936338
-0.883893
-0.808873
-0.715493
-0.607708
-0.489669
-0.365825
-0.240019
-0.115362
0.00534215
0.119888
0.226917
0.326045
0.417416
0.501044
0.576719
0.643732
0.701198
0.748425
0.785367
0.812516
0.83014
0.836835
0.828872
0.802602
0.75596
0.687146
0.588999
0.460466
0.296217
0.168673
0.0134512
0.0281475
0.0120869
0.00215321
-0.00268406
-0.0128345
-0.0724125
-0.178537
-0.257157
-0.272011
-0.238141
-0.183652
-0.124506
-0.0754714
-0.0422514
0.0212267
0.155919
0.23166
0.0301791
0.0133187
0.115625
0.0449407
-0.0500498
0.000287126
-0.0123844
0.00198965
0.00365762
0.00838464
0.00429268
-0.0108215
-0.0450836
-0.0977361
-0.15091
-0.17834
-0.187979
-0.200894
-0.124444
0.0083083
-0.303986
-0.386898
-0.600257
-0.855602
-1.08776
-1.29062
-1.44862
-1.54869
-1.59534
-1.58596
-1.52161
-1.40993
-1.25635
-1.06878
-0.855634
-0.625303
-0.385512
-0.142971
0.0963197
0.327387
0.546615
0.75214
0.942888
1.11801
1.27656
1.41748
1.53942
1.64133
1.72296
1.78518
1.82882
1.85362
1.85552
1.82614
1.75852
1.64832
1.4905
1.26938
0.98479
0.623712
0.347542
0.0555478
0.0887951
0.0402898
0.00619628
-0.0107043
-0.0364195
-0.138898
-0.308181
-0.438742
-0.472594
-0.424684
-0.334089
-0.225718
-0.127652
-0.0620352
0.016154
0.141008
0.14274
0.118306
0.160723
0.382311
0.0713125
-0.08695
-0.011757
-0.0358558
-0.0181533
-0.0211254
-0.0195768
-0.0305847
-0.054293
-0.0982104
-0.156229
-0.20458
-0.221131
-0.235061
-0.282035
-0.223775
0.0728517
-0.315156
-0.408259
-0.658915
-0.963284
-1.23907
-1.4811
-1.66904
-1.78724
-1.84182
-1.82882
-1.74966
-1.61367
-1.42727
-1.20022
-0.942719
-0.664636
-0.375319
-0.0827715
0.205796
0.484662
0.74939
0.997471
1.22713
1.43713
1.62629
1.79361
1.93799
2.05877
2.15592
2.23008
2.28136
2.30841
2.3062
2.26584
2.17938
2.03973
1.83925
1.56125
1.20973
0.764136
0.423437
0.124702
0.148681
0.0657603
0.00545433
-0.028283
-0.0736885
-0.202797
-0.398744
-0.547086
-0.58166
-0.519223
-0.404383
-0.267136
-0.144092
-0.0471624
0.0424896
0.268044
0.411293
0.264373
0.288036
0.47759
0.0957864
-0.116697
-0.0124453
-0.0431741
-0.0167925
-0.0185165
-0.0145448
-0.028846
-0.062696
-0.126041
-0.208273
-0.278212
-0.309337
-0.326838
-0.359171
-0.289285
0.0644037
-0.362847
-0.501584
-0.798761
-1.17671
-1.51723
-1.81557
-2.04608
-2.18986
-2.25524
-2.23713
-2.13744
-1.9678
-1.73616
-1.45471
-1.13606
-0.79218
-0.434662
-0.0733371
0.282928
0.627247
0.954056
1.26005
1.54274
1.80059
2.0322
2.23659
2.41278
2.56033
2.67926
2.77006
2.83231
2.86377
2.85833
2.80601
2.69743
2.52287
2.27221
1.92671
1.49508
0.964892
0.490258
0.223713
0.214491
0.0910283
0.000745864
-0.0555728
-0.129172
-0.29634
-0.525988
-0.694477
-0.72998
-0.649007
-0.503596
-0.33042
-0.175605
-0.0462934
0.0527644
0.313539
0.484914
0.40449
0.491037
0.587596
0.119309
-0.145247
-0.0173544
-0.05484
-0.0227088
-0.0252933
-0.0219243
-0.0423513
-0.0877902
-0.166655
-0.260648
-0.335195
-0.36862
-0.390655
-0.426841
-0.371832
-0.0226129
-0.332798
-0.596684
-0.935399
-1.39004
-1.79827
-2.1568
-2.43339
-2.60536
-2.68326
-2.66052
-2.5395
-2.33426
-2.05433
-1.7145
-1.33001
-0.915272
-0.484216
-0.0486417
0.380751
0.795764
1.18965
1.55835
1.89867
2.20865
2.48654
2.73129
2.9419
3.11809
3.26003
3.36818
3.44178
3.47776
3.46872
3.40306
3.26976
3.05676
2.75149
2.33216
1.81155
1.22116
0.560377
0.322251
0.270887
0.110669
-0.0114628
-0.0974258
-0.208779
-0.420172
-0.681677
-0.86105
-0.890095
-0.78676
-0.608094
-0.396687
-0.206986
-0.0424784
0.0749842
0.376199
0.574114
0.556545
0.683243
0.690438
0.139374
-0.169207
-0.0186909
-0.0603213
-0.0215227
-0.0233957
-0.019963
-0.046763
-0.104924
-0.199614
-0.306067
-0.390677
-0.435526
-0.466939
-0.502731
-0.45546
-0.145506
-0.245137
-0.714816
-1.07608
-1.60019
-2.07087
-2.4841
-2.80171
-2.99798
-3.08593
-3.05713
-2.91459
-2.67464
-2.34828
-1.95274
-1.5058
-1.02403
-0.523623
-0.0181723
0.479913
0.961242
1.41796
1.84528
2.23932
2.59775
2.91854
3.20058
3.44294
3.64554
3.8087
3.93284
4.01681
4.05669
4.04391
3.96542
3.8087
3.55953
3.20308
2.71502
2.10918
1.4826
0.659482
0.435836
0.331931
0.130723
-0.030475
-0.155604
-0.31603
-0.579484
-0.870475
-1.04949
-1.05975
-0.926078
-0.709689
-0.45846
-0.233268
-0.0323412
0.103085
0.422574
0.613435
0.678547
0.839952
0.760991
0.157433
-0.188639
-0.0195057
-0.0636171
-0.0192979
-0.0207887
-0.0189688
-0.0543746
-0.126452
-0.234614
-0.349753
-0.441727
-0.496225
-0.538105
-0.580857
-0.545788
-0.275058
-0.170979
-0.857739
-1.23311
-1.8232
-2.35834
-2.82601
-3.18333
-3.4026
-3.49948
-3.46337
-3.29811
-3.02238
-2.64864
-2.19664
-1.68662
-1.13738
-0.567312
0.0081813
0.575004
1.12259
1.64197
2.12764
2.57504
2.98152
3.34479
3.66372
3.93747
4.16617
4.35028
4.4902
4.58438
4.62811
4.61164
4.52057
4.34092
4.05646
3.65021
3.09567
2.40346
1.72341
0.806297
0.562335
0.392021
0.145594
-0.0610531
-0.234799
-0.4546
-0.779229
-1.1002
-1.27114
-1.25159
-1.07765
-0.815606
-0.519547
-0.25566
-0.0167066
0.142392
0.464575
0.669337
0.784762
1.02903
0.824927
0.171178
-0.202117
-0.0178893
-0.0620265
-0.0126266
-0.0135942
-0.0148441
-0.0606705
-0.146738
-0.266501
-0.390369
-0.492111
-0.559456
-0.614702
-0.667049
-0.64475
-0.415415
-0.192665
-0.997462
-1.4056
-2.05499
-2.65759
-3.1802
-3.57599
-3.81717
-3.92218
-3.8778
-3.68882
-3.37623
-2.95401
-2.44447
-1.87035
-1.25269
-0.612094
0.0342221
0.670467
1.28489
1.86741
2.41181
2.91287
3.3676
3.77348
4.12939
4.43455
4.68933
4.89434
5.04997
5.15433
5.20192
5.18184
5.07827
4.8758
4.5564
4.10088
3.48077
2.70447
1.91969
0.991202
0.693581
0.450845
0.155871
-0.103873
-0.337212
-0.626428
-1.02165
-1.37239
-1.5273
-1.4674
-1.24324
-0.926802
-0.580023
-0.273385
0.00501776
0.192205
0.512335
0.753585
0.868079
1.18203
0.894651
0.18085
-0.208604
-0.0141512
-0.0560658
-0.00279366
-0.00401255
-0.0108995
-0.0690737
-0.168435
-0.298429
-0.431226
-0.542895
-0.623264
-0.69325
-0.759237
-0.755708
-0.57828
-0.33003
-1.09254
-1.59644
-2.29565
-2.96802
-3.54618
-3.97821
-4.23912
-4.35062
-4.29644
-4.08244
-3.73183
-3.26019
-2.69239
-2.05365
-1.36726
-0.656009
0.0611191
0.766649
1.44768
2.09301
2.69574
3.24999
3.75249
4.20047
4.59285
4.92896
5.20939
5.43493
5.606
5.72036
5.77176
5.74814
5.63231
5.40742
5.05387
4.55019
3.86566
3.02424
2.07453
1.1956
0.826371
0.509483
0.16071
-0.161488
-0.466426
-0.833648
-1.30935
-1.68914
-1.81929
-1.70809
-1.42352
-1.04365
-0.640111
-0.28655
0.0326877
0.253133
0.575777
0.849023
0.956125
1.28816
0.974234
0.184857
-0.207038
-0.00774549
-0.0450403
0.0106513
0.0078353
-0.00752415
-0.0789108
-0.190309
-0.330294
-0.47271
-0.59501
-0.689935
-0.776737
-0.859232
-0.878951
-0.75979
-0.540567
-1.1146
-1.81029
-2.54829
-3.29101
-3.92689
-4.39337
-4.67178
-4.78783
-4.72202
-4.48139
-4.09133
-3.56902
-2.94197
-2.23786
-1.48221
-0.699978
0.088107
0.862917
1.61042
2.31832
2.97904
3.58608
4.13588
4.62548
5.05385
5.42043
5.72611
5.97186
6.15811
6.28234
6.33754
6.31051
6.18272
5.93587
5.54903
4.99844
4.24909
3.38183
2.21667
1.40525
0.958833
0.567343
0.158414
-0.236232
-0.625353
-1.07785
-1.64487
-2.05366
-2.15006
-1.97623
-1.62064
-1.16767
-0.700825
-0.29581
0.0656552
0.323558
0.647104
0.943609
1.06478
1.41438
1.05548
0.182817
-0.196478
0.00139276
-0.0291655
0.0267379
0.0201
-0.006453
-0.0908218
-0.213483
-0.363813
-0.515762
-0.648822
-0.759308
-0.864491
-0.96619
-1.01325
-0.95163
-0.776094
-1.07684
-2.05406
-2.81714
-3.62647
-4.3235
-4.8232
-5.11709
-5.23562
-5.1561
-4.88701
-4.45582
-3.88139
-3.19385
-2.42339
-1.59777
-0.744054
0.1153
0.959535
1.77352
2.54387
3.26236
3.92188
4.51861
5.04941
5.51335
5.91001
6.24056
6.50623
6.70747
6.84147
6.90049
6.87023
6.73079
6.46242
6.04313
5.44695
4.62948
3.75842
2.38816
1.61924
1.09054
0.624174
0.147874
-0.330032
-0.816883
-1.36201
-2.03129
-2.46954
-2.52284
-2.27442
-1.8366
-1.30021
-0.763
-0.301738
0.102856
0.400495
0.724337
1.04481
1.17772
1.54439
1.19277
0.173726
-0.176303
0.0132782
-0.00877303
0.044368
0.0312349
-0.00817027
-0.10457
-0.238468
-0.399056
-0.559925
-0.70432
-0.831779
-0.957044
-1.08031
-1.15743
-1.14744
-1.00944
-1.04528
-2.33334
-3.10772
-3.97433
-4.73663
-5.26877
-5.5764
-5.69527
-5.59963
-5.29991
-4.82566
-4.19743
-3.44802
-2.61012
-1.71371
-0.787969
0.142982
1.05678
1.93724
2.76989
3.54589
4.25751
4.90075
5.4723
5.97133
6.39762
6.75266
7.03793
7.25395
7.39765
7.46054
7.42722
7.2765
6.98706
6.53616
5.89582
5.00633
4.10345
2.62137
1.8381
1.22191
0.679501
0.127818
-0.444925
-1.04407
-1.6921
-2.47292
-2.94095
-2.94126
-2.60545
-2.07347
-1.44259
-0.82745
-0.304965
0.143462
0.479198
0.807111
1.14596
1.292
1.67369
1.29485
0.157102
-0.146141
0.0276514
0.0152048
0.0617512
0.039718
-0.0128454
-0.120581
-0.265907
-0.435722
-0.604882
-0.761449
-0.907106
-1.05394
-1.20103
-1.31053
-1.34708
-1.24524
-1.10182
-2.64215
-3.42507
-4.33504
-5.16705
-5.73114
-6.05115
-6.16838
-6.05406
-5.72122
-5.20165
-4.51771
-3.70482
-2.79822
-1.83009
-0.831684
0.171249
1.15478
2.10171
2.9965
3.82972
4.59308
5.28237
5.89416
6.42778
6.88322
7.26232
7.56686
7.79746
7.95077
8.0176
7.98145
7.81981
7.5098
7.02814
6.34485
5.38599
4.37392
2.90523
2.05645
1.35296
0.732479
0.0970798
-0.582747
-1.30981
-2.07626
-2.97514
-3.47272
-3.40938
-2.9724
-2.33347
-1.59624
-0.895033
-0.306156
0.187212
0.557034
0.893842
1.24591
1.40537
1.80308
1.46857
0.13224
-0.106019
0.0439172
0.0413386
0.0770175
0.0448992
-0.0203012
-0.139262
-0.295408
-0.472802
-0.65014
-0.819988
-0.985022
-1.1549
-1.32805
-1.47222
-1.55425
-1.50276
-1.29625
-2.9506
-3.7728
-4.71
-5.61565
-6.21125
-6.54244
-6.65641
-6.52089
-6.15217
-5.5847
-4.84285
-3.96465
-2.9879
-1.94698
-0.87516
0.200214
1.2537
2.26712
3.22392
4.11408
4.92877
5.66363
6.31516
6.88283
7.36691
7.76964
8.09312
8.33809
8.50095
8.57179
8.53306
8.36091
8.0308
7.51931
6.79354
5.78866
4.57481
3.20579
2.26871
1.48349
0.782226
0.0547465
-0.745151
-1.61692
-2.52115
-3.54358
-4.07025
-3.93152
-3.37855
-2.61892
-1.76258
-0.966605
-0.305918
0.233986
0.634784
0.983528
1.34526
1.51573
1.90868
1.58491
0.0984935
-0.0563018
0.0610555
0.0677409
0.0886818
0.0468337
-0.0306583
-0.160684
-0.325904
-0.509451
-0.695459
-0.879702
-1.06513
-1.25945
-1.46092
-1.64229
-1.77235
-1.79206
-1.62266
-3.21627
-4.15268
-5.10174
-6.08361
-6.71017
-7.05115
-7.1605
-7.00146
-6.59398
-5.97573
-5.17347
-4.22787
-3.17934
-2.0644
-0.918319
0.230029
1.35373
2.43369
3.45234
4.39915
5.26478
6.04472
6.73541
7.33658
7.84877
8.27466
8.61674
8.87586
9.04821
9.12316
9.0821
8.89986
8.55009
8.00996
7.23989
6.24508
4.75232
3.49538
2.47407
1.61324
0.828047
0.000175191
-0.933624
-1.96815
-3.03132
-4.18416
-4.73956
-4.51235
-3.82735
-2.93225
-1.94308
-1.04302
-0.304764
0.283552
0.713797
1.07538
1.44292
1.62365
2.0219
1.72292
0.0549071
0.00220272
0.0775376
0.092464
0.0961767
0.0458107
-0.0441175
-0.184034
-0.356034
-0.545081
-0.740624
-0.940285
-1.14704
-1.36723
-1.59931
-1.82063
-2.00342
-2.11208
-2.04107
-3.40977
-4.56845
-5.51545
-6.57253
-7.22923
-7.57814
-7.68157
-7.49698
-7.04787
-6.37574
-5.51024
-4.49491
-3.37274
-2.18241
-0.961095
0.260839
1.45507
2.60163
3.682
4.68516
5.60127
6.42576
7.15505
7.78912
8.32884
8.7774
9.1377
9.41076
9.59253
9.67171
9.6286
9.43668
9.06764
8.50037
7.67943
6.7312
4.97298
3.77668
2.67496
1.74189
0.869256
-0.067089
-1.14947
-2.36625
-3.6117
-4.90326
-5.48732
-5.15683
-4.32234
-3.27594
-2.13921
-1.12512
-0.303155
0.335645
0.794532
1.16878
1.53844
1.72811
2.11791
1.86375
0.000237133
0.0681983
0.0914621
0.114086
0.0997338
0.0418306
-0.0604226
-0.207863
-0.384764
-0.579445
-0.78548
-1.00144
-1.2304
-1.47788
-1.74294
-2.00725
-2.24817
-2.45543
-2.50086
-3.52359
-5.02798
-5.95812
-7.08415
-7.77017
-8.12446
-8.22044
-8.00846
-7.51496
-6.78572
-5.85394
-4.76622
-3.56833
-2.30106
-1.00342
0.292792
1.55791
2.77117
3.91312
4.97231
5.93846
6.80693
7.57419
8.24052
8.80718
9.27787
9.656
9.94278
10.1339
10.2174
10.1725
9.97138
9.58334
8.99078
8.10951
7.16684
5.28125
4.05616
2.87268
1.86881
0.90539
-0.147234
-1.3938
-2.81402
-4.26753
-5.70766
-6.32069
-5.87025
-4.86721
-3.65249
-2.35242
-1.21373
-0.301539
0.389919
0.877358
1.26249
1.63101
1.82858
2.19895
1.97211
-0.0671208
0.139767
0.100984
0.132103
0.0997467
0.0347862
-0.0784853
-0.230678
-0.411534
-0.612441
-0.829846
-1.06287
-1.3149
-1.59115
-1.89162
-2.20219
-2.50644
-2.81223
-2.95652
-3.5885
-5.54838
-6.4404
-7.62033
-8.33478
-8.69146
-8.778
-8.53678
-7.99622
-7.20664
-6.20531
-5.04231
-3.76638
-2.42043
-1.04524
0.326044
1.66246
2.94255
4.14594
5.26084
6.27653
7.1884
7.99297
8.69088
9.28382
9.77609
10.1716
10.4719
10.6723
10.7603
10.7139
10.504
10.0971
9.48118
8.53763
7.4884
5.64681
4.32581
3.06715
1.99337
0.93632
-0.240179
-1.66751
-3.3144
-5.00459
-6.60489
-7.24761
-6.65824
-5.46574
-4.06442
-2.58415
-1.30966
-0.300354
0.446017
0.961926
1.35483
1.71974
1.9241
2.28253
2.08307
-0.148825
0.214334
0.104993
0.146675
0.0962991
0.0250669
-0.0966872
-0.251451
-0.436163
-0.644012
-0.873528
-1.1243
-1.40027
-1.70682
-2.04521
-2.40548
-2.77766
-3.17636
-3.39174
-3.68863
-6.15416
-6.97211
-8.1823
-8.925
-9.28086
-9.35535
-9.08281
-8.49248
-7.63934
-6.56513
-5.32369
-3.96716
-2.54059
-1.08649
0.360754
1.76896
3.11601
4.38073
5.55099
6.61572
7.57035
8.41152
9.14028
9.75882
10.2721
10.6846
10.998
11.2077
11.3002
11.2527
11.0344
10.6087
9.97136
8.98929
7.70132
6.01828
4.57747
3.25777
2.11513
0.962206
-0.345558
-1.97132
-3.87041
-5.82919
-7.60305
-8.27668
-7.52679
-6.12185
-4.51425
-2.83577
-1.41366
-0.300016
0.50366
1.04746
1.44567
1.80509
2.01371
2.35092
2.19551
-0.245832
0.288752
0.103505
0.157899
0.0894385
0.0138524
-0.113517
-0.269706
-0.458628
-0.674074
-0.916312
-1.18546
-1.48628
-1.82469
-2.20353
-2.61703
-3.06138
-3.54832
-3.82822
-3.92769
-6.86365
-7.56548
-8.77165
-9.54246
-9.89465
-9.95392
-9.64756
-9.0045
-8.08456
-6.93406
-5.61089
-4.17098
-2.66165
-1.1271
0.39709
1.87763
3.29184
4.61775
5.84302
6.95624
7.95296
8.82998
9.58883
10.2322
10.7658
11.1948
11.5211
11.7399
11.8371
11.7888
11.5626
11.1185
10.4596
9.51617
7.87546
6.35619
4.81525
3.44425
2.23374
0.983523
-0.462655
-2.30557
-4.4849
-6.74765
-8.71039
-9.41688
-8.48214
-6.83959
-5.00446
-3.10859
-1.52644
-0.300891
0.562622
1.13385
1.53611
1.88777
2.09731
2.4067
2.27343
-0.356851
0.35939
0.0973458
0.165443
0.0798173
0.0027386
-0.128001
-0.285325
-0.478922
-0.702498
-0.957966
-1.24609
-1.57271
-1.94455
-2.36632
-2.83653
-3.35707
-3.93212
-4.30248
-4.38906
-7.65609
-8.2249
-9.38882
-10.1887
-10.5351
-10.5755
-10.2323
-9.5331
-8.54292
-7.31271
-5.9044
-4.37813
-2.78371
-1.16702
0.435223
1.98871
3.47031
4.85731
6.13722
7.29836
8.33646
9.24853
10.0366
10.7041
11.2573
11.7021
12.0411
12.2689
12.3709
12.3222
12.0883
11.6266
10.9383
10.0921
8.10712
6.66625
5.04471
3.6262
2.34893
1.00105
-0.590325
-2.67001
-5.15983
-7.765
-9.93476
-10.677
-9.5304
-7.62298
-5.53752
-3.40386
-1.64862
-0.30326
0.622749
1.22108
1.62685
1.96766
2.17394
2.4601
2.36523
-0.476168
0.421937
0.0874284
0.168967
0.0688871
-0.00689448
-0.13971
-0.298318
-0.496996
-0.729114
-0.998247
-1.30596
-1.6593
-2.06611
-2.5332
-3.06335
-3.66367
-4.33025
-4.83207
-5.10228
-8.50544
-8.95745
-10.0351
-10.8651
-11.2044
-11.222
-10.8386
-10.0793
-9.01504
-7.70155
-6.20464
-4.58892
-2.90689
-1.20619
0.475332
2.10247
3.65173
5.09972
6.43389
7.64236
8.72107
9.66733
10.4838
11.1744
11.7465
12.2067
12.5579
12.7946
12.9014
12.8527
12.6114
12.1332
11.4002
10.5976
8.45639
6.96485
5.26788
3.80258
2.4606
1.01587
-0.726827
-3.0632
-5.89504
-8.88307
-11.2809
-12.0636
-10.6765
-8.47569
-6.11575
-3.72271
-1.78074
-0.3073
0.683965
1.3091
1.7182
2.04407
2.24216
2.49634
2.42595
-0.591944
0.470972
0.0745301
0.16877
0.0584278
-0.0142273
-0.148526
-0.308695
-0.512741
-0.753718
-1.03691
-1.3648
-1.74581
-2.18906
-2.70362
-3.29655
-3.97957
-4.74355
-5.42181
-6.05447
-9.34654
-9.75168
-10.7103
-11.5726
-11.9052
-11.8957
-11.4683
-10.6443
-9.50161
-8.10101
-6.51194
-4.8036
-3.03128
-1.24457
0.5176
2.21918
3.83641
5.34533
6.73337
7.98852
9.10704
10.0866
10.9304
11.6433
12.2334
12.7083
13.0715
13.3168
13.4286
13.3802
13.1315
12.6391
11.8522
10.9391
8.87186
7.24
5.48319
3.97215
2.56888
1.02947
-0.869524
-3.4817
-6.68669
-10.098
-12.7492
-13.5786
-11.923
-9.40039
-6.74114
-4.06616
-1.92322
-0.313056
0.746241
1.39787
1.80966
2.11646
2.30073
2.53322
2.48501
-0.686972
0.500155
0.0598037
0.16589
0.0499173
-0.0189331
-0.154432
-0.316413
-0.526004
-0.776097
-1.07372
-1.42237
-1.83196
-2.31298
-2.87692
-3.53491
-4.30277
-5.17078
-6.06349
-7.19337
-10.1291
-10.6033
-11.4161
-12.3123
-12.6398
-12.5989
-12.1233
-11.2296
-10.0035
-8.51152
-6.82654
-5.02234
-3.15698
-1.28208
0.56222
2.33913
4.0247
5.59449
7.03602
8.3372
9.49466
10.5065
11.3767
12.1109
12.718
13.207
13.5815
13.8354
13.9522
13.9048
13.6484
13.1455
12.3319
11.1351
9.28222
7.48416
5.68957
4.13416
2.67413
1.04379
-1.01443
-3.91911
-7.52575
-11.3984
-14.335
-15.2174
-13.2678
-10.3978
-7.415
-4.435
-2.07634
-0.320432
0.809583
1.48719
1.90034
2.18482
2.34934
2.55684
2.53818
-0.743129
0.503895
0.0452584
0.161617
0.0442549
-0.0209361
-0.157398
-0.321375
-0.53661
-0.796039
-1.10844
-1.47844
-1.91742
-2.4374
-3.05229
-3.77698
-4.63082
-5.60861
-6.73983
-8.42266
-10.7732
-11.4866
-12.1518
-13.0843
-13.4107
-13.334
-12.8058
-11.8369
-10.5218
-8.93362
-7.14867
-5.24525
-3.28403
-1.31866
0.609391
2.46261
4.21697
5.84759
7.34222
8.68873
9.88422
10.9273
11.8228
12.5771
13.2004
13.7025
14.0881
14.3502
14.472
14.4261
14.162
13.6525
12.9178
11.2845
9.63772
7.7045
5.88577
4.28784
2.77689
1.06153
-1.15575
-4.3655
-8.39788
-12.7667
-16.0272
-16.9668
-14.7035
-11.4659
-8.13748
-4.82967
-2.2402
-0.329187
0.873991
1.57662
1.98945
2.25013
2.39044
2.57311
2.57489
-0.74793
0.479916
0.0334704
0.157001
0.0418662
-0.0202208
-0.157357
-0.323453
-0.544378
-0.813354
-1.14089
-1.53276
-2.00188
-2.5618
-3.2288
-4.02114
-4.96111
-6.05215
-7.42139
-9.60669
-11.2501
-12.3902
-12.9206
-13.8881
-14.2197
-14.1034
-13.518
-12.4679
-11.0578
-9.36796
-7.47857
-5.47241
-3.4124
-1.35419
0.659329
2.58994
4.41359
6.10505
7.65239
9.04352
10.2761
11.3493
12.2688
13.0422
13.6805
14.1949
14.5909
14.861
14.9879
14.9442
14.6722
14.149
13.5674
11.5057
9.95095
7.91087
6.07066
4.43251
2.878
1.08626
-1.28593
-4.80829
-9.28619
-14.1841
-17.8101
-18.8077
-16.2167
-12.599
-8.90713
-5.25009
-2.41463
-0.338944
0.939426
1.66558
2.07619
2.3123
2.42638
2.58965
2.60783
-0.699384
0.43095
0.0267199
0.152747
0.0429244
-0.0167453
-0.154207
-0.322505
-0.549149
-0.827883
-1.17089
-1.5851
-2.08498
-2.68556
-3.40542
-4.26559
-5.29074
-6.49474
-8.07715
-10.6233
-11.5777
-13.2957
-13.7221
-14.7216
-15.0682
-14.9096
-14.2619
-13.1247
-11.6128
-9.81539
-7.81657
-5.70384
-3.54202
-1.38856
0.712267
2.72147
4.61497
6.36732
7.96697
9.40198
10.6706
11.7727
12.7151
13.5062
14.1584
14.6841
15.0899
15.3677
15.4996
15.4585
15.1794
14.6203
14.1261
11.8516
10.2347
8.10521
6.24221
4.56774
2.97861
1.12225
-1.39673
-5.23512
-10.1767
-15.639
-19.6717
-20.7232
-17.7909
-13.7879
-9.72044
-5.6954
-2.59921
-0.349192
1.0058
1.7534
2.15984
2.37013
2.45871
2.60048
2.63883
-0.606245
0.364217
0.0262921
0.149394
0.0475013
-0.0104231
-0.147832
-0.318399
-0.550798
-0.839502
-1.19828
-1.63524
-2.16632
-2.80804
-3.581
-4.50841
-5.61661
-6.92948
-8.6785
-11.3845
-11.8265
-14.1997
-14.5588
-15.5802
-15.9554
-15.7544
-15.0395
-13.8088
-12.1882
-10.2768
-8.1631
-5.93962
-3.6728
-1.42156
0.768465
2.85755
4.82157
6.63487
8.28646
9.76458
11.0683
12.198
13.1618
13.9693
14.634
15.17
15.585
15.8699
16.0068
15.9688
15.6852
15.0697
14.4733
12.2691
10.4761
8.28632
6.3988
4.69338
3.08008
1.17377
-1.48113
-5.63729
-11.0631
-17.1333
-21.6141
-22.7078
-19.4117
-15.0213
-10.5718
-6.16379
-2.79309
-0.359285
1.07302
1.83953
2.24008
2.424
2.48758
2.60762
2.66272
-0.484043
0.289055
0.0323595
0.147488
0.0556285
-0.00113408
-0.138129
-0.311038
-0.549246
-0.848131
-1.22294
-1.68295
-2.2455
-2.92852
-3.7543
-4.74745
-5.93529
-7.34893
-9.211
-11.9119
-12.1345
-15.0988
-15.4279
-16.4573
-16.8788
-16.6388
-15.8524
-14.5219
-12.7855
-10.7533
-8.51871
-6.17989
-3.80462
-1.45299
0.828209
2.99856
5.03384
6.90824
8.61137
10.1318
11.4694
12.6255
13.6093
14.4316
15.1074
15.6525
16.0759
16.3676
16.5095
16.4747
16.1936
15.5462
14.6327
12.6857
10.6738
8.4531
6.53918
4.80938
3.18358
1.24419
-1.53475
-6.01133
-11.9481
-18.682
-23.6569
-24.7726
-21.0716
-16.2873
-11.4535
-6.65231
-2.995
-0.368402
1.14105
1.92369
2.31711
2.47506
2.51154
2.61824
2.69341
-0.349702
0.214268
0.0443073
0.147639
0.0673122
0.0112503
-0.125028
-0.300368
-0.544459
-0.853721
-1.24477
-1.72801
-2.32211
-3.04622
-3.92392
-4.98039
-6.24308
-7.74658
-9.67535
-12.2913
-12.6035
-15.9564
-16.3201
-17.3444
-17.833
-17.5623
-16.7018
-15.2656
-13.4059
-11.2456
-8.88397
-6.42486
-3.93738
-1.48259
0.891814
3.1449
5.25229
7.18796
8.94229
10.5042
11.8746
13.0556
14.0578
14.8934
15.5788
16.1316
16.5625
16.8605
17.0073
16.9763
16.7077
16.1662
14.7287
13.0368
10.8404
8.60419
6.66245
4.91581
3.28985
1.33561
-1.55564
-6.35773
-12.8405
-20.3088
-25.833
-26.9434
-22.7717
-17.5761
-12.3567
-7.15683
-3.20308
-0.375477
1.21007
2.00603
2.3918
2.52425
2.53373
2.61993
2.72218
-0.217391
0.146464
0.0611586
0.15046
0.08253
0.0268385
-0.108511
-0.286391
-0.536454
-0.856259
-1.26367
-1.7702
-2.39569
-3.1603
-4.08833
-5.20466
-6.53602
-8.1169
-10.0818
-12.6208
-13.3091
-16.6774
-17.2205
-18.2333
-18.811
-18.5225
-17.5872
-16.0405
-14.0504
-11.7548
-9.25945
-6.67477
-4.07103
-1.51012
0.95962
3.29699
5.47741
7.47464
9.27983
10.8825
12.2844
13.4889
14.5078
15.355
16.0483
16.6072
17.0448
17.3482
17.4999
17.4732
17.2146
16.8992
14.9157
13.3323
10.9891
8.73773
6.76796
5.01282
3.39924
1.44948
-1.54262
-6.67821
-13.7512
-22.0419
-28.1845
-29.2573
-24.5214
-18.8813
-13.272
-7.67208
-3.41482
-0.379081
1.28057
2.08721
2.46547
2.5735
2.55188
2.62778
2.75828
-0.0966908
0.0896667
0.081892
0.156502
0.101222
0.045694
-0.0886179
-0.269161
-0.52529
-0.855762
-1.27959
-1.80929
-2.46576
-3.26981
-4.24585
-5.41758
-6.81026
-8.45569
-10.4403
-12.9348
-14.1647
-17.1732
-18.1143
-19.1198
-19.8049
-19.5151
-18.5068
-16.8466
-14.7197
-12.2813
-9.64564
-6.92988
-4.20553
-1.53533
1.03199
3.45526
5.70974
7.76891
9.62466
11.2671
12.6993
13.9257
14.9596
15.8165
16.5159
17.0793
17.5225
17.8306
17.9868
17.9661
17.691
17.5529
15.2601
13.5925
11.1238
8.85149
6.85581
5.10064
3.51197
1.58762
-1.49359
-6.97356
-14.6911
-23.9128
-30.761
-31.7618
-26.3367
-20.1996
-14.1902
-8.1918
-3.62697
-0.377276
1.35349
2.16842
2.53987
2.62438
2.56739
2.62755
2.79502
0.00732301
0.0457223
0.105609
0.166193
0.123278
0.0678183
-0.0654511
-0.24878
-0.51106
-0.852271
-1.29245
-1.84506
-2.53179
-3.37374
-4.3947
-5.61652
-7.06249
-8.76082
-10.7602
-13.2387
-15.0141
-17.3941
-19.0038
-20.0078
-20.8079
-20.5345
-19.4571
-17.6822
-15.4137
-12.8256
-10.0428
-7.19039
-4.34088
-1.55798
1.10929
3.62016
5.9498
8.07138
9.9775
11.6589
13.12
14.3666
15.4137
16.2784
16.9818
17.5479
17.9955
18.3075
18.4673
18.4575
18.1304
17.9605
15.6919
13.8039
11.2442
8.94441
6.92664
5.17938
3.6285
1.753
-1.40461
-7.24238
-15.67
-25.9561
-33.6198
-34.5152
-28.2398
-21.5316
-15.1033
-8.70902
-3.83543
-0.367478
1.4303
2.25128
2.61696
2.67857
2.58054
2.61772
2.83404
0.0930271
0.0149774
0.131587
0.179811
0.148536
0.0931448
-0.0391682
-0.225394
-0.493892
-0.84585
-1.30223
-1.87728
-2.59322
-3.47097
-4.5331
-5.79915
-7.29057
-9.03253
-11.0486
-13.5207
-15.7053
-17.4325
-19.9208
-20.9104
-21.8157
-21.5752
-20.433
-18.5444
-16.1312
-13.3874
-10.4511
-7.45637
-4.47702
-1.57784
1.19192
3.79214
6.19813
8.38271
10.3391
12.0587
13.5474
14.8124
15.8706
16.741
17.4464
18.0131
18.4639
18.7788
18.9408
18.9531
18.5745
18.1123
16.1282
13.9643
11.3497
9.0163
6.98096
5.24886
3.74966
1.94993
-1.26949
-7.48033
-16.695
-28.2065
-36.8225
-37.5842
-30.2582
-22.8804
-16.0037
-9.21626
-4.03527
-0.346332
1.51297
2.33772
2.69879
2.73825
2.58916
2.60916
2.87775
0.160986
-0.00310717
0.159267
0.197471
0.176779
0.121541
-0.00997348
-0.199185
-0.473945
-0.836594
-1.3089
-1.90571
-2.64947
-3.56042
-4.65945
-5.96386
-7.49394
-9.27326
-11.311
-13.7748
-16.1921
-17.5453
-20.8797
-21.8439
-22.8271
-22.6333
-21.4296
-19.4286
-16.8695
-13.9657
-10.8702
-7.72774
-4.61384
-1.59464
1.28027
3.97172
6.45526
8.70353
10.7102
12.4673
13.9821
15.2637
16.3309
17.2046
17.9098
18.4749
18.9274
19.2443
19.407
19.4608
19.1464
18.1419
16.4939
14.0851
11.4394
9.0676
7.01874
5.30851
3.87653
2.18408
-1.07953
-7.67899
-17.7669
-30.6909
-40.4259
-41.037
-32.422
-24.2512
-16.8855
-9.70573
-4.22068
-0.30966
1.60388
2.42983
2.78748
2.80514
2.59334
2.58787
2.91975
0.212889
-0.00950462
0.188211
0.219147
0.207745
0.152818
0.0218909
-0.17037
-0.451408
-0.824625
-1.31245
-1.93014
-2.69994
-3.64106
-4.77255
-6.11006
-7.67378
-9.48713
-11.5526
-14.0126
-16.5724
-17.9661
-21.7852
-22.8191
-23.8448
-23.7075
-22.443
-20.3295
-17.6251
-14.5583
-11.2991
-8.00411
-4.75109
-1.6081
1.37477
4.15941
6.72177
9.03445
11.0915
12.8855
14.4252
15.7214
16.7952
17.6699
18.3723
18.9334
19.386
19.704
19.8653
19.9738
19.8735
18.2201
16.778
14.185
11.5122
9.09834
7.03919
5.35733
4.01035
2.46253
-0.823426
-7.82465
-18.8741
-33.4149
-44.4625
-44.9266
-34.7605
-25.6504
-17.7433
-10.1695
-4.38507
-0.252462
1.70575
2.5297
2.88518
2.88094
2.59268
2.54373
2.96169
0.250802
-0.00533331
0.21806
0.24469
0.241137
0.18674
0.0561499
-0.139199
-0.42651
-0.810108
-1.31293
-1.95034
-2.7441
-3.7121
-4.87184
-6.23832
-7.83262
-9.67894
-11.7782
-14.2478
-16.9435
-18.7505
-22.4586
-23.8415
-24.8773
-24.8002
-23.4716
-21.2427
-18.3933
-15.1623