/*--------------------------------*- C++ -*----------------------------------*\
| =========                 |                                                 |
| \\      /  F ield         | OpenFOAM: The Open Source CFD Toolbox           |
|  \\    /   O peration     | Version:  4.1                                   |
|   \\  /    A nd           | Web:      www.OpenFOAM.org                      |
|    \\/     M anipulation  |                                                 |
\*---------------------------------------------------------------------------*/
FoamFile
{
    version     2.0;
    format      ascii;
    class       surfaceScalarField;
    location    "29";
    object      phi;
}
// * * * * * * * * * * * * * * * * * * * * * * * * * * * * * * * * * * * * * //

dimensions      [0 3 -1 0 0 0 0];

internalField   nonuniform List<scalar> 
13220
(
-792.462
2092.36
-1224.16
1731.9
-1668.06
1743.8
-1985.48
1617.32
-2239.48
1554.21
-2412.25
1472.67
-2513.15
1400.8
-2542.63
1329.68
-2507.73
1265
-2409.48
1201.65
-2242.9
1133.62
-1995.87
1052.88
-1622.8
926.825
-1006.83
684.235
293.066
-164.865
2257.23
-379.433
1946.47
-611.726
1976.09
-786.797
1792.39
-951.049
1718.46
-1072.85
1594.47
-1168.26
1496.21
-1226.6
1388.01
-1236.2
1274.61
-1174.33
1139.78
-1034.89
994.182
-844.597
862.583
-629.838
712.067
-339.553
393.953
-46.4864
-169.713
2426.94
-381.226
2157.98
-543.909
2138.78
-670.205
1918.69
-788.594
1836.85
-880.001
1685.88
-964.613
1580.82
-1024.92
1448.32
-1021.92
1271.62
-880.537
998.395
-570.347
683.994
-169.395
461.635
182.929
359.752
312.032
264.863
265.546
-93.9623
2520.91
-218.358
2282.38
-319.09
2239.51
-415.272
2014.87
-518.459
1940.04
-613.527
1780.95
-719.525
1686.82
-824.185
1552.98
-924.621
1372.05
-975.538
1049.31
-917.594
626.051
-725.085
269.127
-432.179
66.8464
-161.009
-6.30613
104.537
21.4598
2499.45
-76.5817
2380.42
-112.07
2275
-140.542
2043.34
-164.822
1964.32
-177.76
1793.89
-185.226
1694.29
-189.176
1556.93
-219.379
1402.26
-321.447
1151.38
-496.709
801.312
-663.535
435.957
-705.24
108.556
-547.96
-163.583
-443.423
172.942
2326.5
128.258
2425.11
173.251
2230.01
236.273
1980.32
314.887
1885.7
399.06
1709.71
502.354
1590.99
611.225
1448.06
706.311
1307.17
723.249
1134.44
607.612
916.95
381.79
661.775
130.988
359.35
-15.6854
-16.9181
-459.108
197.251
2129.25
197.688
2424.67
251.694
2176
323.879
1908.14
411.623
1797.96
495.063
1626.27
589.078
1496.98
685.331
1351.81
776.591
1215.91
835.925
1075.11
830.643
922.231
740.929
751.491
563.093
537.191
276.279
269.901
-182.829
142.648
1986.61
172.555
2394.76
215.021
2133.53
268.538
1854.62
336.765
1729.73
395.724
1567.32
452.752
1439.95
502.043
1302.52
543.561
1174.39
569.7
1048.97
570.081
921.85
528.042
793.527
421.349
643.879
235.217
456.024
52.3884
82.7111
1903.89
147.446
2330.03
206.27
2074.71
272.938
1787.95
346.857
1655.81
412.195
1501.98
472.284
1379.86
525.512
1249.29
575.59
1124.31
619.468
1005.09
639.522
901.796
607.837
825.214
490.092
761.626
274.087
672.034
326.475
1.79852
1902.1
96.2863
2235.54
178.784
1992.21
248.009
1718.73
329.477
1574.34
434.561
1396.89
566.995
1247.42
720.611
1095.67
871.13
973.796
986.324
889.897
1018.33
869.787
931.195
912.35
709.544
983.274
392.349
989.225
718.824
-136.14
2038.23
-84.0668
2183.47
-52.977
1961.12
-88.0317
1753.78
-99.1385
1585.45
-54.6968
1352.45
53.2637
1139.46
211.98
936.953
405.189
780.585
599.159
695.926
729.993
738.952
727.13
915.213
562.499
1147.9
290.55
1261.17
1009.37
-131.871
2170.1
-345.403
2397
-525.937
2141.65
-733.419
1961.26
-942.489
1794.52
-1126.07
1536.03
-1265.04
1278.44
-1356.21
1028.12
-1376.64
801.011
-1299.08
618.363
-1097.63
537.509
-775.241
592.817
-406.589
779.25
-134.714
989.295
874.66
366.564
1803.54
241.13
2522.43
-23.2677
2406.05
-241.287
2179.28
-433.76
1986.99
-656.071
1758.34
-906.91
1529.27
-1176.47
1297.68
-1444.07
1068.61
-1661.96
836.251
-1741.15
616.706
-1580.55
432.216
-1137.49
336.19
-499.282
351.082
375.378
867.882
935.656
1233.96
2156.35
1124.72
2515.29
886.313
2417.68
684.172
2189.13
510.854
1931.66
352.172
1687.95
189.344
1460.5
13.8438
1244.11
-180.839
1030.93
-379.179
815.046
-546.677
599.713
-595.357
384.869
-410.07
165.793
-34.692
670.748
1765.99
2625.07
3269.52
3633.26
3749.02
3728
3624.64
3386.03
3055.4
2628.98
2093.82
1461.16
729.53
1.23527e-06
281.099
-281.099
281.099
281.099
281.099
805.369
-524.27
805.369
805.369
805.369
1361.68
-556.315
1361.68
1361.68
1799.47
-437.784
1799.47
1799.47
1799.47
2105.16
-305.687
2105.16
2105.16
2287.41
-182.252
2287.41
2287.41
2287.41
2363.58
-76.1762
2363.58
2363.58
2363.58
2345.23
18.3532
2345.23
2345.23
2241.41
103.818
2241.41
2241.41
2241.41
2071.12
170.288
2071.12
2071.12
1851.3
219.822
1851.3
1851.3
1851.3
1627.39
223.912
1627.39
1627.39
1627.39
1500.29
127.101
1500.29
1500.29
1312.06
188.233
1312.06
1312.06
1312.06
1004.03
308.029
1004.03
1004.03
1004.03
588.319
415.707
588.319
588.319
155.489
432.831
155.489
155.489
155.489
-525.893
681.381
-525.893
-525.892
-1780.92
1255.03
-1780.92
-1780.92
-1780.92
-3446.95
1666.03
-3446.95
-3446.95
-3446.95
-5474
2027.05
-5474
-5474
-7776.47
2302.47
-7776.47
-7776.47
-7642.47
-7511.93
-7382.36
-9715.44
2456.23
-9580.33
-9423.87
-9255.32
-9086.88
-8917.81
-8749.21
-8575.06
-8385.91
-10764.2
2560.86
-10567.8
-10371.7
-10176.6
-9963.69
-9750.4
-9537.04
-9323.77
-9109.35
-11455
2563.64
-11222.4
-10988.7
-10753.9
-10518.4
-10276.4
-10022.3
-9766.69
-9507.92
-9246.68
-11511.3
2514.96
-11234.3
-10955.8
-10677.2
-10399.3
-10121.9
-9830.25
-9530.72
-9231.62
-11037
2091.06
-10747.5
-10448.4
-10131.9
-9813.77
-9492.67
-9169.7
-8843.58
-8488.65
-9834.54
1686.78
-9495.45
-9159.24
-8826.05
-8475.95
-8122.51
-7776.69
-7436.58
-7104.28
-7461.06
692.327
-7124.71
-6794.19
-6464.24
-6135.56
-5808.43
-5488.1
-5170.95
-4857.81
-4553.88
-4241.18
-5.05873
-3994.29
-3781.22
-3576.03
-3381.58
-3197.08
-3063.26
-3018.66
-2972
-2319.32
-596.229
-2274.15
-2229.71
-2229.71
-1803.34
-426.366
-1436.73
-366.613
-1436.73
-1131.95
-304.779
-1131.95
-876.344
-255.607
-673.804
-202.54
-673.804
-489.446
-184.358
-342.966
-146.479
-342.966
-212.303
-130.663
-212.303
-82.2141
-130.089
32.6334
-114.847
32.6335
137.948
-105.315
137.948
234.89
-96.9418
334.864
-99.9743
334.864
431.911
-97.0462
521.241
-89.3299
521.241
614.047
-92.806
614.047
706.288
-92.2413
781.259
-74.9711
781.259
858.468
-77.2093
858.468
939.069
-80.6006
1001.91
-62.839
1001.91
1076.57
-74.6608
1132.25
-55.6836
1132.25
1191.99
-59.7386
1191.99
1256.64
-64.6501
1301.15
-44.508
1301.15
1347.07
-45.9218
1347.07
1398.16
-51.0898
1430.06
-31.8958
1430.06
1472.13
-42.0747
1492.68
-20.5504
1492.68
1513.52
-20.8374
1513.52
1535.28
-21.7601
1532.88
2.39905
1532.88
1530.61
2.2687
1530.61
1533.24
-2.62833
1518.5
14.7431
1518.5
1517.69
0.806597
1502.55
15.1365
1502.55
1500.66
1.89353
1500.66
1511.06
-10.3984
1523.21
-12.147
1523.21
1552.13
-28.9259
1552.13
1599.98
-47.8522
1646.89
-46.9075
1646.89
1724.22
-77.3265
1789.68
-65.465
1789.68
1895.88
-106.196
1895.88
-155.517
-958.701
-1016.33
-950.904
-1119.98
-940.342
-1208.7
-926.794
-1293.06
-909.718
-1386.69
-889.187
-1476.65
-865.901
-1564.41
-842.328
-1637.68
-823.775
-1681.67
-818.706
-1671.43
-835.933
-1582.07
-877.771
-1407.85
-932.899
-1185.79
-972.542
-968.788
-957.642
-725.561
-886.842
-326.995
-823.657
180.399
-795.642
521.533
-776.393
734.186
-758.345
934.54
-740.935
1151.82
-724.08
1377.59
-707.558
1604.37
-691.19
1827.05
-674.853
2041.2
-658.477
2243.63
-642.034
2432.19
-625.502
2604.89
-608.867
2760.5
-592.118
2898.14
-575.219
3017.16
-558.199
3117.08
-541.129
3198.05
-524.026
3260.94
-506.872
3306.4
-489.661
3335.28
-472.383
3348.75
-454.988
3348.32
-437.362
3334.8
-419.383
3307.88
-400.984
3266.34
-382.149
3209.01
-362.92
3135.04
-343.37
3044.79
-323.578
2940.16
-303.574
2824.38
-283.296
2700.34
-262.612
2568.53
-241.324
2425.93
-219.272
2266.3
-196.473
2085.57
-173.005
1886.66
-148.785
1672.02
-123.51
1431.27
-97.0835
1146.33
-69.3289
819.875
-39.1962
468.98
6.21624
39.9333
37.5405
-205.099
51.5231
-248.83
63.0837
-192.642
70.0977
-117.822
71.2098
-37.8274
73.1895
92.0839
86.0462
287.564
108.252
496.71
130.737
636.374
148.201
685.469
159.381
666.525
165.229
599.444
167.978
491.18
172.089
373.719
171.609
262.958
120.618
-217.679
-14.7827
-1168.88
-174.018
-1794.68
-140.311
-1139.98
44.9094
-311.767
-374.704
-956.489
-1023.03
-944.893
-1131.58
-931.11
-1222.48
-913.653
-1310.51
-892.646
-1407.7
-868.344
-1500.95
-842.591
-1590.16
-819.856
-1660.42
-808.543
-1692.99
-819.804
-1660.16
-860.983
-1540.89
-925.856
-1342.98
-992.904
-1118.74
-1032.3
-929.39
-1008.25
-749.611
-908.396
-426.851
-810.502
82.5046
-776.143
487.173
-763.852
721.895
-749.526
920.213
-733.782
1136.07
-718.262
1362.07
-702.936
1589.04
-687.56
1811.67
-672.002
2025.64
-656.252
2227.88
-640.316
2416.25
-624.188
2588.76
-607.874
2744.18
-591.369
2881.63
-574.654
3000.45
-557.772
3100.2
-540.801
3181.08
-523.76
3243.9
-506.64
3289.28
-489.44
3318.08
-472.155
3331.46
-454.739
3330.9
-437.077
3317.13
-419.051
3289.86
-400.597
3247.88
-381.703
3190.11
-362.41
3115.75
-342.794
3025.17
-322.935
2920.3
-302.863
2804.3
-282.512
2679.99
-261.737
2547.75
-240.315
2404.51
-218.066
2244.05
-195
2062.5
-171.175
1862.84
-146.426
1647.27
-120.279
1405.13
-92.4024
1118.46
-61.7776
789.25
-24.1727
431.375
31.9719
-16.2112
66.713
-239.84
80.8977
-263.015
93.5008
-205.245
102.434
-126.756
99.3307
-34.7237
89.2252
102.189
91.0548
285.735
108.035
479.729
128.464
615.945
145.005
668.929
155.787
655.743
161.399
593.831
163.534
489.045
167.074
370.18
171.036
258.996
127.645
-174.287
-32.2479
-1008.99
-206.074
-1620.86
-155.835
-1190.22
-10.7289
-456.874
-491.629
-950.26
-1031.18
-936.83
-1145.01
-920.812
-1238.5
-900.885
-1330.44
-877.552
-1431.03
-851.577
-1526.93
-826.002
-1615.74
-807.194
-1679.23
-805.673
-1694.51
-832.547
-1633.29
-889.851
-1483.59
-962.233
-1270.6
-1024.25
-1056.72
-1054.8
-898.837
-1031.25
-773.159
-931.262
-526.842
-808.64
-40.1174
-754.114
432.648
-743.724
711.505
-735.676
912.165
-723.438
1123.83
-709.874
1348.51
-696.161
1575.33
-682.231
1797.74
-667.878
2011.29
-653.097
2213.1
-637.94
2401.1
-622.441
2573.26
-606.626
2728.37
-590.506
2865.52
-574.084
2984.02
-557.423
3083.54
-540.61
3164.26
-523.672
3226.96
-506.609
3272.21
-489.433
3300.9
-472.144
3314.17
-454.697
3313.45
-436.982
3299.42
-418.886
3271.76
-400.35
3229.35
-381.366
3171.13
-361.978
3096.36
-342.267
3005.46
-322.313
2900.34
-302.144
2784.13
-281.686
2659.53
-260.776
2526.85
-239.167
2382.9
-216.659
2221.54
-193.248
2039.09
-168.953
1838.54
-143.504
1621.82
-116.258
1377.88
-86.6011
1088.8
-52.5857
755.235
-1.95978
380.749
52.4194
-70.5904
85.2583
-272.679
103.78
-281.536
119.416
-220.881
130.789
-138.129
131.1
-35.0353
118.186
115.104
107.268
296.653
112.425
474.573
127.056
601.314
141.218
654.767
151.002
645.959
156.161
588.673
157.47
487.735
160.562
367.088
168.722
250.835
133.359
-138.924
-29.4279
-846.201
-211.262
-1439.02
-180.322
-1221.16
-51.6435
-585.553
-608.737
-942.254
-1041.49
-925.965
-1161.29
-907.132
-1257.33
-884.248
-1353.33
-858.386
-1456.9
-831.053
-1554.26
-806.958
-1639.83
-794.845
-1691.34
-807.086
-1682.27
-852.747
-1587.63
-925.765
-1410.57
-1001.69
-1194.68
-1054.5
-1003.91
-1073.46
-879.874
-1049.39
-797.231
-956.733
-619.495
-817.678
-179.173
-736.358
351.328
-719.668
694.815
-716.617
909.114
-709.634
1116.85
-699.235
1338.11
-687.611
1563.71
-675.463
1785.6
-662.684
1998.51
-649.216
2199.63
-635.12
2387
-620.471
2558.61
-605.332
2713.23
-589.738
2849.92
-573.719
2968.01
-557.361
3067.18
-540.765
3147.67
-523.97
3210.17
-506.99
3255.23
-489.848
3283.76
-472.554
3296.88
-455.068
3295.97
-437.284
3281.64
-419.096
3253.57
-400.452
3210.7
-381.351
3152.03
-361.842
3076.85
-342.009
2985.63
-321.933
2880.27
-301.638
2763.84
-281.042
2638.93
-259.962
2505.76
-238.126
2361.06
-215.317
2198.73
-191.509
2015.28
-166.67
1813.7
-140.413
1595.56
-111.915
1349.38
-80.2341
1057.12
-42.4867
717.487
25.2464
313.016
76.031
-121.375
108.275
-304.923
130.167
-303.429
149.051
-239.765
163.566
-152.643
167.876
-39.3453
157.977
125.002
141.605
313.025
134.13
482.047
138.267
597.177
146.333
646.701
152.804
639.487
156.267
585.211
156.597
487.405
159.812
363.872
171.929
238.719
145.573
-112.568
-16.627
-684.001
-211.634
-1244.01
-197.164
-1235.63
-51.5301
-731.187
-737.594
-930.768
-1053.99
-911.483
-1180.58
-889.794
-1279.02
-864.085
-1379.03
-836.22
-1484.76
-808.831
-1581.65
-788.797
-1659.86
-787.38
-1692.76
-817.431
-1652.21
-882.56
-1522.5
-966.15
-1326.98
-1037.3
-1123.53
-1074.6
-966.615
-1078.77
-875.709
-1052.69
-823.309
-972.941
-699.242
-831.522
-320.591
-725.502
245.307
-695.527
664.841
-693.371
906.958
-691.616
1115.1
-685.744
1332.24
-677.104
1555.07
-667.154
1775.65
-656.281
1987.64
-644.482
2187.83
-631.772
2374.29
-618.237
2545.08
-603.984
2698.98
-589.082
2835.02
-573.597
2952.52
-557.644
3051.23
-541.338
3131.36
-524.735
3193.57
-507.868
3238.37
-490.777
3266.67
-473.483
3279.59
-455.951
3278.44
-438.083
3263.77
-419.782
3235.27
-401.007
3191.93
-381.761
3132.78
-362.101
3057.19
-342.116
2965.64
-321.887
2860.04
-301.435
2743.39
-280.666
2618.16
-259.379
2484.48
-237.277
2338.96
-214.122
2175.58
-189.862
1991.02
-164.401
1788.24
-137.219
1568.38
-107.28
1319.44
-73.2153
1023.05
-31.1766
675.448
45.1448
236.695
100.129
-176.359
132.49
-337.284
157.895
-328.834
180.576
-262.445
198.926
-170.993
207.892
-48.3121
204.274
128.62
191.02
326.279
178.075
494.992
172.069
603.184
170.961
647.81
170.746
639.702
169.912
586.045
167.854
489.463
169.8
361.925
181.049
227.47
160.884
-92.4029
14.1465
-537.264
-188.434
-1041.43
-205.987
-1218.07
-84.4477
-852.726
-868.949
-916.079
-1068.9
-893.459
-1203.2
-868.886
-1303.59
-840.604
-1407.31
-811.569
-1513.8
-785.988
-1607.23
-773.357
-1672.49
-787.028
-1679.09
-837.732
-1601.51
-919.885
-1440.35
-1006.31
-1240.55
-1065.19
-1064.65
-1084.25
-947.557
-1073.74
-886.213
-1044.01
-853.039
-976.749
-766.506
-844.447
-452.893
-720.928
121.788
-674.319
618.232
-668.275
900.913
-669.706
1116.53
-668.809
1331.34
-664.234
1550.49
-657.149
1768.56
-648.541
1979.03
-638.723
2178.02
-627.724
2363.29
-615.598
2532.95
-602.468
2685.85
-588.448
2821
-573.648
2937.72
-558.216
3035.8
-542.288
3115.43
-525.94
3177.22
-509.229
3221.65
-492.215
3249.66
-474.933
3262.3
-457.355
3260.86
-439.394
3245.81
-420.966
3216.84
-402.038
3173
-382.623
3113.37
-362.787
3037.35
-342.621
2945.47
-322.211
2839.63
-301.571
2722.75
-280.598
2597.19
-259.07
2462.95
-236.666
2316.56
-213.126
2152.04
-188.367
1966.26
-162.218
1762.09
-134.007
1540.17
-102.45
1287.89
-65.6333
986.237
-18.2558
628.071
64.721
153.718
122.906
-234.544
157.328
-371.707
186.405
-357.911
213.314
-289.355
236.096
-193.775
250.358
-62.5741
253.543
125.435
246.78
333.041
235.077
506.695
223.687
614.574
214.161
657.336
205.674
648.189
198.164
593.555
191.339
496.288
189.219
364.045
195.478
221.212
177.57
-74.4949
62.2385
-421.932
-137.08
-842.115
-197.653
-1157.5
-84.7479
-965.631
-1001.55
-897.759
-1086.34
-871.7
-1229.26
-844.484
-1330.81
-814.237
-1437.56
-785.431
-1542.6
-764.363
-1628.3
-763.35
-1673.51
-796.374
-1646.06
-868.244
-1529.64
-961.43
-1347.16
-1041.53
-1160.45
-1082.46
-1023.72
-1083.18
-946.83
-1059.98
-909.419
-1026.05
-886.966
-968.763
-823.796
-853.045
-568.611
-720.687
-10.5699
-656.956
554.5
-643.624
887.582
-645.208
1118.11
-648.31
1334.44
-648.464
1550.65
-645.118
1765.22
-639.299
1973.21
-631.787
2170.5
-622.802
2354.31
-612.389
2522.54
-600.652
2674.11
-587.73
2808.08
-573.789
2923.78
-559.016
3021.02
-543.57
3099.99
-527.554
3161.2
-511.054
3205.15
-494.153
3232.76
-476.902
3245.05
-459.286
3243.24
-441.228
3227.75
-422.662
3198.28
-403.564
3153.9
-383.961
3093.76
-363.923
3017.31
-343.551
2925.1
-322.933
2819.01
-302.077
2701.89
-280.869
2575.98
-259.067
2441.15
-236.326
2293.82
-212.366
2128.08
-187.064
1940.96
-160.163
1735.19
-130.824
1510.83
-97.4654
1254.53
-57.5044
946.276
-2.6832
573.25
85.0247
66.0101
145.321
-294.84
182.543
-408.928
215.428
-390.796
246.841
-320.768
274.484
-221.418
294.408
-82.4976
303.98
115.863
303.116
333.905
294.269
515.542
280.747
628.096
265.208
672.876
249.161
664.236
234.258
608.457
221.072
509.474
212.872
372.245
212.234
221.85
193.17
-55.4313
119.431
-348.193
-53.5314
-669.153
-166.66
-1044.37
-105.195
-1027.1
-1135.67
-875.868
-1106.3
-846.448
-1258.68
-817.075
-1360.18
-785.884
-1468.75
-759.38
-1569.11
-746.433
-1641.24
-761.749
-1658.19
-817.076
-1590.73
-907.042
-1439.67
-1002.18
-1252.03
-1067.35
-1095.28
-1087.73
-1003.34
-1072.52
-962.046
-1039.9
-942.033
-1002.52
-924.349
-952.272
-874.044
-854.376
-666.507
-720.868
-144.078
-642.368
476
-620.776
865.99
-619.921
1117.26
-624.927
1339.45
-629.5
1555.22
-630.608
1766.32
-628.283
1970.88
-623.507
2165.73
-616.842
2347.64
-608.438
2514.13
-598.382
2664.05
-586.81
2796.51
-573.93
2910.9
-559.973
3007.07
-545.132
3085.14
-529.543
3145.62
-513.322
3188.93
-496.581
3216.02
-479.39
3227.86
-461.749
3225.6
-443.599
3209.6
-424.887
3179.57
-405.608
3134.62
-385.797
3073.95
-365.537
2997.05
-344.935
2904.5
-324.081
2798.16
-302.98
2680.79
-281.506
2554.51
-259.397
2419.04
-236.285
2270.7
-211.866
2103.66
-185.976
1915.07
-158.261
1707.48
-127.687
1480.26
-92.3236
1219.17
-48.7761
902.729
18.0554
506.418
107.971
-23.9052
167.786
-354.656
207.947
-449.089
244.649
-427.497
280.635
-356.754
313.36
-254.143
339.083
-108.221
354.583
100.363
358.174
330.314
351.132
522.585
335.926
643.302
315.628
693.173
293.107
686.757
271.242
630.322
251.471
529.245
236.758
386.958
229.451
229.156
206.385
-32.3651
165.24
-307.048
43.696
-547.608
-98.0258
-902.65
-95.7663
-1029.36
-1243.58
-850.57
-1128.62
-818.132
-1291.11
-787.426
-1390.89
-756.854
-1499.32
-735.55
-1590.41
-735.177
-1641.62
-771.268
-1622.1
-849.098
-1512.9
-950.054
-1338.72
-1036.74
-1165.34
-1081.03
-1050.99
-1081.6
-1002.77
-1054.27
-989.371
-1015.75
-980.55
-976.291
-963.813
-930.959
-919.376
-848.093
-749.373
-718.167
-274.004
-628.604
386.437
-599.731
837.117
-595.376
1112.9
-599.997
1344.07
-607.63
1562.85
-613.283
1771.98
-615.13
1972.73
-613.664
2164.26
-609.686
2343.67
-603.584
2508.03
-595.493
2655.96
-585.543
2786.56
-573.957
2899.31
-561.001
2994.11
-546.908
3071.05
-531.857
3130.56
-515.999
3173.07
-499.478
3199.49
-482.385
3210.77
-464.742
3207.96
-446.508
3191.36
-427.651
3160.71
-408.181
3115.15
-388.149
3053.92
-367.648
2976.55
-346.793
2883.65
-325.678
2777.04
-304.304
2659.42
-282.535
2532.74
-260.086
2396.59
-236.566
2247.18
-211.65
2078.74
-185.126
1888.55
-156.533
1678.88
-124.614
1448.34
-87.0229
1181.57
-39.459
855.165
45.5898
421.369
133.604
-111.919
190.201
-411.252
233.162
-492.05
273.754
-468.09
314.316
-397.315
352.172
-291.998
383.597
-139.646
404.643
79.3165
411.605
323.352
405.142
529.047
387.751
660.693
362.937
717.987
334.5
715.194
306.234
658.589
280.283
555.197
259.398
407.843
246.077
242.477
218.611
-4.89846
186.202
-274.639
119.825
-481.232
-8.49856
-774.327
-64.0566
-973.797
-1318.04
-822.334
-1152.99
-787.519
-1325.93
-756.695
-1421.71
-728.974
-1527.05
-716.667
-1602.72
-733.787
-1624.5
-793.552
-1562.34
-890.056
-1416.4
-991.655
-1237.12
-1060.61
-1096.38
-1081.91
-1029.69
-1066.03
-1018.65
-1030.9
-1024.5
-989.628
-1021.82
-949.533
-1003.91
-907.836
-961.073
-837.243
-819.965
-713.426
-397.822
-614.302
287.313
-579.48
802.295
-572.153
1105.57
-574.956
1346.87
-583.752
1571.65
-593.182
1781.41
-599.509
1979.06
-601.963
2166.71
-601.146
2342.85
-597.669
2504.55
-591.825
2650.12
-583.774
2778.5
-573.736
2889.27
-561.994
2982.37
-548.818
3057.88
-534.434
3116.18
-519.039
3157.68
-502.811
3183.27
-485.868
3193.83
-468.254
3190.34
-449.953
3173.06
-430.957
3141.71
-411.293
3095.49
-391.029
3033.66
-370.271
2955.8
-349.144
2862.52
-327.745
2755.64
-306.072
2637.74
-283.976
2510.65
-261.154
2373.77
-237.192
2223.22
-211.741
2053.29
-184.537
1861.35
-155
1649.34
-121.622
1414.96
-81.5623
1141.51
-29.5576
803.16
69.6526
322.159
156.956
-199.222
212.311
-466.607
257.93
-537.67
302.501
-512.661
347.62
-442.434
390.546
-334.924
427.398
-176.498
453.64
53.0746
463.313
313.679
456.632
535.728
436.593
680.732
407.294
747.286
373.228
749.26
338.95
692.866
307.226
586.921
280.579
434.491
261.583
261.473
231.622
25.0629
195.169
-238.186
158.696
-444.759
68.9627
-684.594
-24.4038
-880.431
-1340.55
-791.874
-1178.87
-755.653
-1362.15
-726.415
-1450.95
-704.581
-1548.88
-705.896
-1601.4
-745.037
-1585.35
-828.242
-1479.13
-935.187
-1309.45
-1026.01
-1146.3
-1071.38
-1051.01
-1071.45
-1029.61
-1043.9
-1046.2
-1004.9
-1063.51
-963.269
-1063.45
-923.613
-1043.56
-884.57
-1000.12
-823.852
-880.683
-708.064
-513.609
-599.276
178.524
-558.843
761.862
-549.781
1096.51
-550.715
1347.81
-559.073
1580.01
-570.845
1793.18
-581.314
1989.53
-588.099
2173.5
-590.975
2345.72
-590.522
2504.1
-587.224
2646.82
-581.346
2772.63
-573.121
2881.05
-562.83
2972.08
-550.764
3045.81
-537.201
3102.62
-522.387
3142.87
-506.541
3167.42
-489.811
3177.1
-472.269
3172.8
-453.926
3154.72
-434.802
3122.59
-414.947
3075.63
-394.446
3013.16
-373.419
2934.77
-352.003
2841.1
-330.298
2733.94
-308.301
2615.75
-285.85
2488.19
-262.623
2350.54
-238.185
2198.78
-212.159
2027.27
-184.228
1833.41
-153.679
1618.8
-118.72
1380
-75.9246
1098.72
-18.5137
745.749
89.6818
213.964
178.598
-288.139
233.985
-521.994
282.103
-585.787
330.613
-561.171
380.271
-492.092
428.204
-382.857
470.184
-218.479
501.233
22.0255
513.175
301.738
505.864
543.039
482.872
703.724
449.104
781.054
409.639
788.725
369.637
732.867
332.428
624.13
300.346
466.572
275.881
285.938
244.676
56.2685
203.792
-197.302
170.612
-411.579
113.845
-627.826
21.8207
-788.407
-1303.59
-760.145
-1205.55
-723.869
-1398.43
-698.532
-1476.29
-686.522
-1560.89
-706.498
-1581.43
-770.386
-1521.47
-872.346
-1377.17
-978.225
-1203.58
-1048.62
-1075.91
-1069.1
-1030.54
-1052.46
-1046.25
-1018.15
-1080.5
-978.337
-1103.32
-937.88
-1103.91
-899.174
-1082.27
-861.763
-1037.53
-808.598
-933.849
-702.851
-619.356
-584.571
60.2444
-537.069
714.36
-527.226
1086.67
-527.352
1347.93
-534.621
1587.28
-547.204
1805.76
-560.819
2003.14
-571.888
2184.57
-578.901
2352.74
-581.933
2507.13
-581.528
2646.42
-578.107
2769.21
-571.961
2874.9
-563.37
2963.49
-552.635
3035.07
-540.07
3090.05
-525.976
3128.77
-510.617
3152.06
-494.178
3160.66
-476.762
3155.39
-458.414
3136.37
-439.183
3103.36
-419.144
3055.59
-398.404
2992.42
-377.1
2913.46
-355.381
2819.38
-333.353
2711.91
-311.007
2593.4
-288.175
2465.36
-264.512
2326.88
-239.562
2173.83
-212.925
2000.63
-184.219
1804.71
-152.587
1587.16
-115.914
1343.33
-70.0671
1052.87
-4.96167
680.644
109.504
99.4981
198.745
-377.38
255.006
-578.255
305.55
-636.332
357.883
-613.504
412.045
-546.254
464.942
-435.754
511.87
-265.408
547.253
-13.3579
561.074
287.917
552.968
551.145
526.875
729.817
488.628
819.301
443.934
833.42
398.439
778.362
355.963
666.606
318.73
503.806
289.107
315.561
256.475
88.9001
214.121
-154.948
175.553
-373.011
130.915
-583.189
53.0858
-710.577
-1249.7
-728.29
-1232.13
-693.782
-1432.93
-675.431
-1494.64
-678.015
-1558.31
-721.153
-1538.29
-809.002
-1433.62
-920.365
-1265.81
-1012.99
-1110.95
-1057.5
-1031.39
-1055.99
-1032.05
-1028.3
-1073.94
-991.357
-1117.45
-952.664
-1142.02
-914.007
-1142.56
-876.168
-1120.11
-839.233
-1074.46
-791.154
-981.927
-696.305
-714.205
-570.832
-65.2289
-513.879
657.407
-503.493
1076.28
-504.25
1348.69
-510.845
1593.87
-523.25
1818.17
-538.686
2018.58
-553.414
2199.3
-564.706
2364.03
-571.66
2514.08
-574.555
2649.31
-573.904
2768.55
-570.106
2871.11
-563.469
2956.85
-554.299
3025.9
-542.937
3078.69
-529.725
3115.56
-514.978
3137.32
-498.923
3144.6
-481.701
3138.16
-463.393
3118.06
-444.085
3084.05
-423.878
3035.39
-402.905
2971.44
-381.321
2891.88
-359.287
2797.35
-336.918
2689.54
-314.204
2570.69
-290.964
2442.12
-266.835
2302.75
-241.341
2148.34
-214.053
1973.34
-184.525
1775.18
-151.738
1554.38
-113.2
1304.79
-63.9084
1003.58
14.4224
602.313
132.164
-18.244
217.566
-462.781
275.313
-636.002
328.342
-689.36
384.265
-669.427
442.788
-604.777
500.579
-493.544
552.352
-317.181
591.635
-52.6413
607.016
272.537
598.022
560.139
568.802
759.037
526.061
862.041
476.234
883.247
425.424
829.172
377.864
714.165
335.753
545.917
301.285
350.028
266.567
123.618
224.17
-112.551
181.571
-330.412
137.414
-539.032
65.5914
-638.754
-1169.36
-697.624
-1257.42
-667.337
-1463.22
-659.956
-1502.02
-682.274
-1535.99
-750.989
-1469.57
-857.182
-1327.42
-965.42
-1157.57
-1035.11
-1041.27
-1053.42
-1013.08
-1035.45
-1050.02
-1002.05
-1107.34
-965.273
-1154.22
-928.537
-1178.75
-891.532
-1179.57
-854
-1157.64
-816.317
-1112.14
-770.784
-1027.46
-685.395
-799.594
-555.922
-194.703
-489.087
590.572
-477.981
1065.18
-480.506
1351.22
-487.523
1600.89
-499.641
1830.29
-515.769
2034.7
-533.096
2216.62
-548.348
2379.28
-559.484
2525.22
-566.095
2655.92
-568.572
2771.03
-567.406
2869.94
-562.978
2952.42
-555.617
3018.54
-545.679
3068.75
-533.537
3103.42
-519.55
3123.33
-503.989
3129.04
-487.044
3121.22
-468.836
3099.85
-449.489
3064.7
-429.139
3015.04
-407.943
2950.25
-386.08
2870.02
-363.726
2775
-341.003
2666.82
-317.9
2547.58
-294.228
2418.45
-269.605
2278.13
-243.534
2122.27
-215.559
1945.37
-185.161
1744.78
-151.145
1520.36
-110.58
1264.23
-57.4226
950.423
43.3704
501.52
159.394
-134.268
236.028
-539.415
294.927
-694.901
350.392
-744.825
409.647
-728.683
472.364
-667.494
534.959
-556.14
591.503
-373.724
634.433
-95.5716
651.149
255.82
641.126
570.162
608.774
791.389
561.544
909.271
506.63
938.161
450.635
885.168
398.149
766.651
351.428
592.637
312.412
389.044
275.165
160.866
232.794
-70.1799
188.659
-286.278
143.048
-493.421
81.0475
-576.754
-1090.95
-669.66
-1279.87
-646.898
-1485.98
-655.287
-1493.63
-701.785
-1489.49
-794.576
-1376.78
-908.658
-1213.34
-1001.1
-1065.13
-1043.08
-999.287
-1039.19
-1016.97
-1011.05
-1078.16
-975.952
-1142.44
-940.764
-1189.41
-905.881
-1213.63
-869.805
-1215.64
-831.739
-1195.71
-792.199
-1151.69
-746.959
-1072.7
-668.947
-877.606
-538.665
-324.985
-462.589
514.497
-450.425
1053.01
-455.322
1356.11
-463.976
1609.54
-476.484
1842.79
-492.808
2051.03
-511.616
2235.43
-530.058
2397.72
-545.292
2540.45
-555.938
2666.57
-561.923
2777.02
-563.705
2871.72
-561.751
2950.47
-556.444
3013.24
-548.164
3060.47
-537.299
3092.55
-524.241
3110.27
-509.308
3114.11
-492.738
3104.65
-474.703
3081.82
-455.371
3045.37
-434.91
2994.58
-413.511
2928.85
-391.375
2847.88
-368.697
2752.32
-345.609
2643.73
-322.102
2524.08
-297.975
2394.32
-272.83
2252.98
-246.152
2095.59
-217.454
1916.67
-186.137
1713.46
-150.82
1485.04
-108.064
1221.47
-50.6191
892.977
69.2351
381.666
182.892
-247.925
253.953
-610.476
313.56
-754.509
371.516
-802.78
433.941
-791.108
500.702
-734.254
568.002
-623.441
629.252
-434.974
675.726
-142.045
693.646
237.9
682.392
581.417
646.844
826.937
595.139
960.976
535.175
998.125
474.097
946.245
416.822
823.926
365.743
643.717
322.463
432.325
282.642
200.687
240.221
-27.7592
195.524
-241.58
148.809
-446.707
85.0707
-513.015
-1003.61
-646.207
-1297.41
-635.298
-1496.89
-664.538
-1464.39
-737.234
-1416.79
-847.41
-1266.61
-956.001
-1104.75
-1023.23
-997.901
-1038.26
-984.255
-1018.55
-1036.68
-985.637
-1111.07
-951.226
-1176.85
-917.848
-1222.79
-884.053
-1247.43
-847.877
-1251.82
-808.384
-1235.2
-766.157
-1193.91
-719.498
-1119.36
-646.798
-950.306
-518.485
-453.298
-433.837
429.848
-420.614
1039.79
-428.182
1363.68
-439.421
1620.78
-453.372
1856.75
-470.157
2067.81
-489.701
2254.98
-510.34
2418.36
-529.176
2559.29
-543.933
2681.33
-553.761
2786.85
-558.833
2876.79
-559.637
2951.27
-556.635
3010.23
-550.249
3054.09
-540.884
3083.19
-528.948
3098.34
-514.797
3099.96
-498.721
3088.57
-480.949
3064.05
-461.694
3026.12
-441.168
2974.05
-419.592
2907.27
-397.197
2825.49
-374.198
2729.32
-350.739
2620.27
-326.812
2500.15
-302.21
2369.72
-276.517
2227.29
-249.202
2068.27
-219.746
1887.21
-187.463
1681.18
-150.769
1448.35
-105.634
1176.34
-42.8219
830.165
88.4006
250.443
202.237
-361.761
271.042
-679.28
331.332
-814.799
391.711
-863.159
457.144
-856.541
527.798
-804.909
599.716
-695.359
665.616
-500.873
715.584
-192.014
734.632
218.853
721.915
594.133
683.022
865.83
626.836
1017.16
561.866
1063.09
495.804
1012.31
433.874
885.857
378.65
698.941
331.366
479.609
289.092
242.961
246.668
14.6654
201.737
-196.649
154.195
-399.165
95.2673
-454.087
-905.939
-629.496
-1307.29
-635.722
-1490.67
-689.919
-1410.19
-786.471
-1320.24
-902.452
-1150.63
-992.674
-1014.53
-1030.84
-959.737
-1023.93
-991.161
-994.961
-1065.65
-960.985
-1145.05
-928.111
-1209.72
-895.917
-1254.98
-862.11
-1281.24
-824.774
-1289.16
-783.115
-1276.86
-737.753
-1239.27
-688.642
-1168.47
-619.407
-1019.54
-494.744
-577.961
-401.49
336.594
-388.275
1026.57
-398.875
1374.28
-413.263
1635.17
-429.621
1873.1
-447.675
2085.87
-467.859
2275.16
-489.841
2440.34
-511.467
2580.92
-530.065
2699.92
-543.914
2800.69
-552.607
2885.49
-556.48
2955.14
-556.046
3009.8
-551.795
3049.83
-544.155
3075.55
-533.551
3087.73
-520.36
3086.77
-504.919
3073.13
-487.515
3046.64
-468.417
3007.02
-447.881
2953.51
-426.166
2885.56
-403.533
2802.85
-380.221
2706.01
-356.388
2596.44
-332.029
2475.79
-306.933
2344.63
-280.669
2201.02
-252.688
2040.29
-222.441
1856.97
-189.143
1647.88
-150.996
1410.2
-103.223
1128.56
-32.3383
759.281
106.406
111.699
219.362
-474.718
287.563
-747.48
348.43
-875.667
410.994
-925.722
479.263
-924.81
553.686
-879.331
630.188
-771.861
700.723
-571.409
754.14
-245.431
774.222
198.77
759.784
608.572
717.315
908.298
656.587
1077.89
586.656
1133.03
515.718
1083.24
449.271
952.304
390.079
758.133
339.068
530.62
294.118
287.911
251.462
57.3208
206.805
-151.991
158.469
-350.83
106.009
-401.628
-821.69
-622.233
-1306.02
-651.191
-1461.71
-731.565
-1329.82
-844.108
-1207.7
-951.808
-1042.93
-1014.83
-951.506
-1025.81
-948.761
-1003.91
-1013.06
-970.923
-1098.64
-937.738
-1178.23
-906.12
-1241.34
-874.041
-1287.06
-839.097
-1316.18
-799.744
-1328.51
-755.479
-1321.12
-706.945
-1287.81
-655.025
-1220.39
-588.114
-1086.45
-469.043
-697.032
-365.883
233.434
-353.654
1014.35
-367.439
1388.07
-385.167
1652.9
-404.518
1892.45
-424.83
2106.18
-446.198
2296.53
-469.134
2463.28
-492.683