/*--------------------------------*- C++ -*----------------------------------*\
| =========                 |                                                 |
| \\      /  F ield         | OpenFOAM: The Open Source CFD Toolbox           |
|  \\    /   O peration     | Version:  4.1                                   |
|   \\  /    A nd           | Web:      www.OpenFOAM.org                      |
|    \\/     M anipulation  |                                                 |
\*---------------------------------------------------------------------------*/
FoamFile
{
    version     2.0;
    format      ascii;
    class       volVectorField;
    location    "29";
    object      U;
}
// * * * * * * * * * * * * * * * * * * * * * * * * * * * * * * * * * * * * * //

dimensions      [0 1 -1 0 0 0 0];

internalField   nonuniform List<vector> 
6785
(
(1.46977e-14 -2.29911 16.5286)
(1.12145e-14 -7.92786 12.9557)
(-3.07327e-15 -5.12842 13.7483)
(3.76398e-15 -5.08806 13.2411)
(9.06383e-16 -4.30764 13.0916)
(2.26533e-17 -3.90396 12.7962)
(2.99224e-15 -3.50369 12.5061)
(6.5034e-16 -3.21934 12.1664)
(-5.88653e-16 -2.99971 11.7833)
(2.0374e-15 -2.86438 11.3516)
(2.6072e-16 -2.79271 10.9257)
(-4.12113e-16 -2.80427 10.5613)
(9.98803e-16 -3.2534 10.0244)
(1.76504e-17 -3.37695 9.17959)
(-5.77262e-16 -0.0637146 7.45762)
(2.1215e-14 -10.1407 26.7736)
(1.37022e-14 -16.2457 22.8843)
(-2.7727e-15 -11.0719 23.266)
(5.00492e-15 -11.9651 21.3499)
(7.91156e-16 -10.2343 20.4666)
(1.2193e-15 -9.66135 19.1784)
(2.63929e-15 -8.71341 18.0756)
(2.79649e-16 -8.02471 16.9887)
(2.8015e-16 -7.40355 16.0614)
(1.18548e-15 -6.95705 15.2089)
(-5.52538e-18 -6.56046 14.2327)
(3.63508e-16 -5.99803 12.8957)
(9.78661e-16 -5.07061 10.7197)
(-4.28347e-16 -3.35543 6.44146)
(-6.23443e-16 -0.21762 -0.128567)
(2.1364e-14 -12.6875 27.7776)
(1.18453e-14 -16.4506 24.5421)
(-1.76815e-15 -11.6984 24.4043)
(3.40621e-15 -12.6837 21.8876)
(8.69063e-16 -10.5221 20.8719)
(1.10817e-15 -10.0346 19.1517)
(3.54693e-16 -8.85539 17.8471)
(1.71395e-16 -7.9881 16.3333)
(-7.8723e-17 -6.83802 14.5513)
(-8.44037e-16 -5.59618 12.2283)
(-4.37335e-16 -4.57195 9.84251)
(-1.70721e-15 -4.22625 8.19823)
(-4.23202e-15 -4.11068 6.98944)
(-1.73634e-15 -2.90749 4.17311)
(-1.50234e-15 -2.11326 1.81291)
(2.15594e-14 -14.0117 28.45)
(8.96052e-15 -16.5254 25.4381)
(-9.35587e-16 -12.5765 25.0952)
(2.71197e-15 -13.4859 22.5191)
(1.15928e-16 -11.2135 21.6007)
(1.22147e-15 -10.9389 19.8236)
(-3.36858e-16 -9.65461 18.6791)
(-6.66895e-16 -8.82336 17.1083)
(6.80817e-17 -7.21318 14.8047)
(-5.21805e-16 -4.82439 10.8071)
(5.84295e-16 -1.94502 5.90787)
(3.01104e-15 -0.130065 2.3659)
(3.55897e-15 0.13415 1.16281)
(3.49276e-15 -0.60535 1.84689)
(2.223e-15 -1.6913 4.05514)
(2.13558e-14 -14.8568 29.4232)
(8.77695e-15 -17.3888 26.8991)
(-7.27645e-16 -13.4682 26.2522)
(2.96393e-15 -14.6059 23.6404)
(4.26978e-16 -12.1748 22.8302)
(1.58342e-15 -12.2915 20.9141)
(1.43836e-16 -10.925 19.8851)
(-2.60645e-17 -10.4466 18.343)
(4.21525e-16 -9.09828 16.4246)
(2.02043e-16 -7.07825 12.9004)
(2.25139e-15 -3.89718 7.89182)
(5.5849e-15 -0.872849 3.00769)
(9.73872e-15 1.62453 -0.733597)
(1.1528e-14 3.27298 -3.37607)
(8.25469e-15 2.2585 -3.73343)
(1.99288e-14 -14.6685 28.1685)
(1.07697e-14 -18.0144 27.9689)
(-6.23462e-16 -13.9786 26.1941)
(2.6484e-15 -14.8373 23.4463)
(1.12235e-15 -12.7103 22.4556)
(1.07499e-15 -12.7155 20.447)
(6.9914e-16 -11.5422 19.1822)
(5.41266e-16 -11.06 17.5822)
(1.43523e-16 -10.174 15.9593)
(2.04771e-16 -9.02641 13.7314)
(9.51502e-16 -7.242 10.7313)
(1.7834e-15 -4.8914 7.22372)
(3.14763e-15 -2.3932 3.36348)
(6.09141e-16 1.41074 -0.938106)
(7.43625e-15 2.18256 -6.27125)
(1.95257e-14 -13.767 25.6504)
(1.33381e-14 -17.8151 28.1161)
(9.49671e-16 -13.952 25.4181)
(2.1962e-15 -14.1571 22.4211)
(2.08681e-15 -12.328 21.2247)
(2.2543e-15 -12.0456 19.1995)
(1.34341e-15 -10.9374 17.7327)
(1.40648e-15 -10.2685 16.0399)
(2.06155e-15 -9.43932 14.4318)
(1.03518e-15 -8.55232 12.6949)
(1.0648e-15 -7.49927 10.7107)
(2.89469e-15 -6.01814 8.41394)
(3.03781e-15 -4.33165 5.53353)
(-4.72644e-16 -1.50019 2.00815)
(4.45406e-15 0.708005 -3.39908)
(1.83538e-14 -12.8611 23.5317)
(1.51245e-14 -17.284 27.8739)
(2.48433e-15 -13.8382 24.8183)
(1.73626e-15 -13.4502 21.6428)
(2.38145e-15 -11.8191 20.2893)
(2.68949e-15 -11.3542 18.3383)
(1.85085e-15 -10.2783 16.822)
(1.8539e-15 -9.51251 15.1565)
(2.43844e-15 -8.66438 13.6138)
(2.02458e-15 -7.82811 12.0988)
(1.59718e-15 -6.99822 10.5456)
(1.89374e-15 -5.94502 8.88821)
(3.0052e-15 -4.77982 6.80731)
(8.26203e-16 -2.73682 4.09807)
(-4.45763e-15 -0.415343 -0.911642)
(1.86175e-14 -12.2721 22.2677)
(1.65935e-14 -16.6887 27.3607)
(2.57776e-15 -13.7605 24.3846)
(1.74583e-15 -12.9889 21.1078)
(2.63774e-15 -11.5205 19.5876)
(1.37203e-15 -10.9917 17.7878)
(2.44899e-15 -10.0618 16.3553)
(2.66175e-15 -9.35019 14.8558)
(4.11539e-16 -8.59752 13.4406)
(1.67787e-15 -7.85654 12.0543)
(2.40031e-15 -7.14739 10.6767)
(-1.64088e-16 -6.34656 9.36662)
(1.61324e-15 -5.54298 7.97946)
(1.81507e-15 -4.1443 6.32471)
(-7.52769e-15 -1.75391 1.86017)
(1.8217e-14 -11.9607 21.693)
(1.73779e-14 -15.9149 26.4214)
(2.40527e-15 -13.2983 23.5194)
(-5.73005e-16 -12.3808 20.1807)
(2.76315e-15 -10.9456 18.644)
(5.59138e-16 -10.4846 16.902)
(-1.04604e-15 -9.65151 15.5189)
(1.87319e-15 -9.08501 13.9997)
(-6.58046e-16 -8.45832 12.5417)
(-3.16007e-15 -7.89838 11.1832)
(-4.753e-16 -7.45028 10.1761)
(-1.35847e-15 -7.1496 9.7281)
(-3.50552e-15 -6.90497 9.65674)
(5.16417e-16 -6.15811 9.26049)
(-5.6511e-15 -3.91524 5.84047)
(1.58166e-14 -12.2752 22.2236)
(1.48543e-14 -14.8073 25.1987)
(-2.76371e-15 -12.5707 22.4772)
(-2.85225e-16 -11.5289 19.5267)
(2.14862e-15 -9.90606 17.7414)
(-4.23273e-15 -8.95467 15.4029)
(-3.74794e-16 -7.66937 13.3779)
(2.40573e-15 -6.92665 11.4589)
(-6.00535e-15 -6.37017 10.1477)
(-1.78752e-15 -6.35082 9.56527)
(1.36514e-15 -6.84808 10.0658)
(-7.75927e-15 -7.80881 11.4521)
(-5.84864e-15 -8.57673 13.1404)
(-6.40598e-15 -8.72421 13.6828)
(-9.26703e-15 -6.36106 10.8936)
(1.6292e-14 -13.8927 24.9384)
(1.01919e-14 -14.6828 25.3133)
(-6.14526e-15 -12.3217 22.9074)
(6.44738e-16 -11.4841 21.0653)
(-6.8809e-18 -9.57984 18.9733)
(-2.65948e-15 -7.75703 15.9314)
(3.50314e-15 -5.68766 13.0287)
(5.68649e-15 -3.99657 10.263)
(5.14503e-15 -2.49621 7.92632)
(6.40437e-15 -1.72212 6.49593)
(2.28464e-15 -2.1727 6.94748)
(-3.44281e-15 -4.12336 9.60744)
(-3.86321e-15 -6.82917 13.2933)
(-8.16728e-15 -8.81281 15.405)
(-8.74872e-15 -6.60364 12.3506)
(1.49652e-14 -14.3338 25.1216)
(1.16887e-14 -18.3166 29.9512)
(-3.12193e-15 -15.1562 26.4506)
(-2.13648e-16 -13.9286 24.1108)
(-5.6906e-17 -12.2688 22.3288)
(-7.61366e-16 -10.5177 19.4049)
(3.21592e-15 -8.24952 16.3585)
(6.05591e-15 -6.20202 13.3466)
(7.72441e-15 -4.07107 10.4614)
(8.34407e-15 -2.10382 7.69762)
(5.80592e-15 -0.480284 5.39909)
(2.05249e-15 0.27803 4.03872)
(-6.82499e-16 -0.588343 4.68562)
(-2.56038e-15 -3.09782 7.42886)
(-3.5602e-15 -3.66588 7.8256)
(1.12328e-14 -9.7839 16.0487)
(1.57153e-14 -18.1617 28.0332)
(6.34621e-15 -18.4137 28.8688)
(1.41252e-15 -16.6006 25.997)
(-4.23381e-16 -14.5619 23.3508)
(-6.38353e-16 -13.0368 20.9932)
(1.4059e-15 -11.427 18.7554)
(3.07971e-15 -9.85079 16.3954)
(4.77786e-15 -8.12546 13.9236)
(5.99423e-15 -6.23995 11.1904)
(6.18922e-15 -4.17167 8.22807)
(4.62443e-15 -2.1624 5.22214)
(2.32258e-15 -0.373313 2.32161)
(2.01756e-15 1.20113 -0.22967)
(-2.12083e-16 0.760496 -0.586995)
(4.02335e-15 -4.02481 6.95424)
(1.52213e-14 -14.7299 22.2192)
(1.66441e-14 -20.3662 29.5019)
(1.23946e-14 -21.8705 30.0341)
(7.10329e-15 -21.066 27.3866)
(3.33164e-15 -19.3506 23.7567)
(1.4616e-15 -17.3973 20.3412)
(5.80162e-16 -15.6309 17.4672)
(4.89691e-16 -13.9579 14.9557)
(8.20813e-16 -12.2876 12.8363)
(1.05166e-15 -10.6419 10.9553)
(1.19193e-15 -8.87295 9.10329)
(1.25417e-15 -6.90118 7.16969)
(9.30905e-16 -4.57724 4.92322)
(4.13752e-16 -1.34043 1.37865)
(-1.35253e-15 47.4473 8.15917)
(-1.64755e-15 12.4951 2.34689)
(-1.23853e-15 -1.68246 0.55656)
(-1.29701e-15 1.07631 0.536714)
(-1.32952e-15 0.454884 0.921823)
(-1.76173e-15 0.863946 -1.28868)
(-1.35087e-15 0.898034 -1.44941)
(-1.37289e-15 1.17487 -1.61015)
(-1.4658e-15 1.1694 -1.60855)
(-1.32689e-15 1.87917 -2.65512)
(-7.61542e-16 1.69018 -1.88886)
(-7.05176e-16 1.87957 -1.79569)
(-1.18623e-15 2.63478 -2.37877)
(-9.36192e-16 2.16343 -1.60622)
(-9.8273e-16 2.49746 -1.59025)
(-9.68248e-16 2.44777 -1.5693)
(-1.51201e-15 3.13382 -1.91334)
(-1.16524e-15 2.64734 -1.30375)
(-1.09613e-15 2.83239 -1.28134)
(-1.64867e-15 3.55014 -1.44348)
(-1.24622e-15 2.80253 -1.01039)
(-1.29884e-15 3.15171 -1.01874)
(-1.28025e-15 3.03238 -1.04545)
(-2.00326e-15 3.7372 -1.09312)
(-1.5777e-15 2.93724 -0.795961)
(-1.60461e-15 3.26658 -0.796736)
(-1.65389e-15 3.15086 -0.82605)
(-2.44048e-15 3.71559 -0.782949)
(-1.89887e-15 2.97995 -0.590966)
(-1.82293e-15 3.14242 -0.611931)
(-2.6718e-15 3.68357 -0.447555)
(-2.06593e-15 2.79387 -0.382035)
(-2.09324e-15 3.07995 -0.373972)
(-2.09811e-15 2.96424 -0.39741)
(-3.02982e-15 3.37332 -0.153911)
(-2.31862e-15 2.63413 -0.155784)
(-2.19846e-15 2.76352 -0.181483)
(-3.14831e-15 3.14262 0.151484)
(-2.28461e-15 2.32809 0.0433142)
(-2.26118e-15 2.54268 0.0581345)
(-2.08466e-15 2.42567 0.0332216)
(-2.95971e-15 2.75035 0.389219)
(-2.03356e-15 2.0591 0.228335)
(-1.95313e-15 2.23344 0.241371)
(-1.78952e-15 2.11837 0.209824)
(-2.43008e-15 2.39906 0.537581)
(-1.67626e-15 1.94068 0.442227)
(-1.51472e-15 1.98365 0.396118)
(-2.06435e-15 2.20862 0.789147)
(-1.50059e-15 1.70138 0.568845)
(-1.44009e-15 1.79577 0.575563)
(-1.29223e-15 1.69762 0.547891)
(-1.6197e-15 1.76762 0.887707)
(-1.07942e-15 1.29876 0.51343)
(-1.06335e-15 1.34815 0.498315)
(-7.79437e-16 1.29824 0.523241)
(-9.28598e-16 1.19362 0.424248)
(-5.50644e-16 0.744199 -0.201885)
(-4.12296e-16 0.744164 -0.0576733)
(-5.68138e-16 0.965683 -1.522)
(-4.65714e-16 -0.0310077 -2.16316)
(-4.08848e-16 0.127512 -2.20787)
(-1.64055e-16 0.43285 -2.29332)
(-7.44888e-16 0.530384 -0.895893)
(-1.21708e-15 -0.923947 1.97899)
(-9.82432e-16 -0.558672 1.67023)
(-8.69106e-16 -1.46248 3.93837)
(-3.05309e-16 -2.12888 4.29588)
(-1.82426e-16 -2.40732 4.23337)
(-1.82221e-16 -2.39514 4.38281)
(-9.45014e-17 -3.88938 7.37916)
(-8.10886e-17 -4.23762 6.41471)
(-2.37989e-16 -4.8402 6.65427)
(-3.505e-16 -4.75881 6.87856)
(-4.04321e-16 -7.04326 10.6983)
(-2.65716e-16 -7.14482 8.6067)
(-4.04377e-16 -7.28068 9.23699)
(-3.63387e-16 -9.95139 13.6034)
(-2.74876e-16 -9.68097 10.6453)
(-2.67904e-16 -10.1692 11.5083)
(-1.76628e-16 -10.9127 13.2665)
(-4.33175e-18 -10.8437 13.0033)
(1.59277e-16 -10.9336 13.1768)
(1.03609e-15 -12.7347 15.7796)
(9.25589e-16 -11.6816 13.9066)
(1.1235e-15 -11.9766 14.3744)
(1.20392e-15 -11.9641 14.4169)
(1.28963e-15 -12.0843 14.4619)
(1.35325e-15 -12.1636 14.5363)
(1.43716e-15 -12.2671 14.6386)
(1.56064e-15 -12.3632 14.8637)
(1.70455e-15 -12.4453 15.1792)
(2.40708e-15 -13.3022 16.9909)
(2.18292e-15 -12.8866 15.7685)
(2.34902e-15 -13.0819 15.959)
(2.38939e-15 -13.0475 15.9975)
(2.40933e-15 -13.2354 16.2875)
(2.47753e-15 -13.2161 16.2391)
(2.55265e-15 -13.3299 16.2865)
(2.64754e-15 -13.3762 16.3202)
(2.77035e-15 -13.4542 16.4161)
(3.54356e-15 -14.005 17.8415)
(3.07706e-15 -13.6139 16.9077)
(3.20266e-15 -13.7434 17.1264)
(3.27452e-15 -13.7648 17.2244)
(3.38609e-15 -13.8378 17.3677)
(3.49033e-15 -13.8735 17.5993)
(3.57657e-15 -13.969 17.8993)
(3.65596e-15 -13.9853 18.0608)
(3.73287e-15 -14.0476 18.3127)
(3.7956e-15 -14.1769 18.5495)
(4.3462e-15 -13.9698 19.257)
(3.55041e-15 -13.8393 18.6865)
(3.5685e-15 -13.9188 18.8462)
(3.57195e-15 -13.9302 18.8336)
(3.6084e-15 -13.9947 18.8307)
(3.63912e-15 -14.0039 18.8327)
(3.68612e-15 -14.0651 19.0527)
(3.74543e-15 -14.0341 19.0996)
(3.82922e-15 -14.1826 19.0667)
(4.47137e-15 -12.9468 17.8905)
(3.90947e-15 -13.1859 18.1321)
(4.23411e-15 -13.1477 18.4324)
(4.49893e-15 -13.164 18.8256)
(4.67442e-15 -13.1009 18.9657)
(4.86425e-15 -13.1202 19.2282)
(5.0445e-15 -13.108 19.4787)
(5.25277e-15 -13.0322 19.7676)
(5.65315e-15 -13.3085 20.2892)
(5.68304e-15 -10.5045 17.0498)
(5.6872e-15 -11.5028 18.5405)
(5.67205e-15 -11.344 18.2287)
(5.63817e-15 -11.3338 17.972)
(5.92365e-15 -11.2778 17.8524)
(5.82441e-15 -11.1954 17.2621)
(5.65908e-15 -11.0453 16.4953)
(5.59743e-15 -10.8809 15.7262)
(5.60055e-15 -10.9277 14.9137)
(5.2301e-15 -7.29952 9.68524)
(6.59367e-15 -8.78646 13.4826)
(6.58344e-15 -8.34974 12.7202)
(6.75828e-15 -8.35146 12.6573)
(6.9426e-15 -8.08134 12.4399)
(7.25824e-15 -8.02105 12.2879)
(8.00451e-15 -7.74646 11.9747)
(7.68073e-15 -7.62199 11.6101)
(7.61859e-15 -7.38642 11.082)
(7.23408e-15 -7.26131 10.2234)
(3.97812e-15 -3.23657 3.45502)
(6.26847e-15 -5.30804 7.68099)
(5.35633e-15 -4.68391 5.73962)
(4.91321e-15 -4.89866 5.06243)
(4.22393e-15 -4.50694 3.84033)
(3.39751e-15 -4.44281 2.56073)
(1.97351e-15 -4.21984 0.48872)
(7.47124e-16 -3.8818 -1.27223)
(9.69747e-16 -3.84951 -0.999609)
(-5.75526e-17 -3.19333 -3.09073)
(5.29589e-16 -3.26848 -1.16589)
(3.03941e-16 -3.11591 -1.60493)
(-4.2783e-16 -2.36265 -2.35491)
(-3.68698e-17 -3.13506 -2.60838)
(-2.25853e-16 -2.10333 -1.91998)
(-1.58639e-16 -1.85043 -1.29064)
(-1.98066e-16 -1.95542 -1.77328)
(-1.23254e-16 -1.32069 -1.01366)
(-1.27e-16 -1.44204 -1.51523)
(-2.41094e-17 -1.04154 -0.993394)
(1.00407e-17 -0.843797 -0.725362)
(-2.94295e-17 -0.821708 -1.07265)
(-1.58419e-16 -0.583631 -0.710965)
(-3.22248e-16 -0.44397 -0.480462)
(-6.08476e-16 -0.446287 -0.68119)
(-6.24348e-16 -0.233937 -0.444677)
(-5.27092e-16 -0.202567 -0.799081)
(-1.30578e-16 -0.0667445 -0.662393)
(-1.40433e-18 0.0536454 -0.398706)
(-5.65974e-16 0.104102 -0.593892)
(-4.98915e-16 0.200214 -0.435898)
(-4.55736e-16 0.285552 -0.537012)
(-3.8055e-16 0.389029 -0.623987)
(-2.59633e-16 0.429026 -0.414827)
(-2.29436e-16 0.533842 -0.527022)
(-4.51093e-16 0.685003 -0.59738)
(-3.37181e-16 0.61656 -0.383626)
(-4.05244e-16 0.887055 -0.530321)
(-2.76392e-16 0.780454 -0.354681)
(-3.93029e-16 0.911214 -0.443405)
(-5.28905e-16 1.10757 -0.475445)
(-3.78943e-16 0.927393 -0.289626)
(-4.87598e-16 1.31116 -0.400061)
(-3.73566e-16 1.07748 -0.260897)
(-4.26395e-16 1.26433 -0.340469)
(-5.79516e-16 1.41172 -0.371032)
(-4.63015e-16 1.23724 -0.224114)
(-5.53079e-16 1.46165 -0.293486)
(-7.78938e-16 1.65707 -0.301357)
(-5.57976e-16 1.33112 -0.17899)
(-7.66574e-16 1.86778 -0.243719)
(-5.90862e-16 1.48583 -0.135588)
(-7.40925e-16 1.67989 -0.174511)
(-7.88504e-16 1.93744 -0.143187)
(-5.14414e-16 1.53338 -0.066951)
(-7.40335e-16 2.14316 -0.0905772)
(-5.68045e-16 1.66574 -0.0282174)
(-6.52543e-16 1.91191 -0.0520509)
(-8.07177e-16 2.08318 -0.0136564)
(-5.60518e-16 1.75033 0.0264146)
(-6.47276e-16 2.04733 0.0160871)
(-7.81241e-16 2.26144 0.0908749)
(-5.64307e-16 1.74914 0.0822313)
(-8.20184e-16 2.44919 0.127157)
(-6.891e-16 1.86815 0.135954)
(-9.5459e-16 2.09382 0.16643)
(-1.4878e-15 2.34563 0.275008)
(-1.1463e-15 1.79785 0.196205)
(-1.83261e-15 2.50328 0.256924)
(-1.49794e-15 1.87216 0.187196)
(-1.95685e-15 2.14383 0.187019)
(-2.45574e-15 2.25482 0.185232)
(-1.73187e-15 1.83661 0.0748952)
(-2.15244e-15 2.19603 0.00937721)
(-2.38918e-15 2.2748 -0.0771561)
(-1.57348e-15 1.73783 -0.141363)
(-2.08504e-15 2.46971 -0.305305)
(-1.49561e-15 1.84358 -0.294022)
(-1.77769e-15 2.14487 -0.4298)
(-2.13837e-15 2.26004 -0.560852)
(-1.41381e-15 1.76389 -0.433283)
(-1.92501e-15 2.53178 -0.655288)
(-1.35274e-15 1.91733 -0.515272)
(-1.63862e-15 2.28316 -0.68066)
(-1.64456e-15 2.3495 -0.840601)
(-9.76398e-16 1.9945 -0.615463)
(-1.04607e-15 2.45463 -0.813535)
(-9.65443e-16 2.59062 -0.998583)
(-5.53819e-16 2.06696 -0.704493)
(-6.33156e-16 2.99304 -1.05461)
(-4.04013e-16 2.33601 -0.764145)
(-5.49726e-16 2.88852 -1.06799)
(8.3533e-15 1.35062 6.41381)
(8.02941e-15 1.48364 6.36974)
(8.44713e-15 1.59867 6.30848)
(9.09887e-15 1.70755 6.2296)
(1.00893e-14 1.82819 6.12757)
(1.13135e-14 1.94403 6.00204)
(1.26284e-14 2.05787 5.85378)
(1.37386e-14 2.1555 5.69158)
(1.40752e-14 2.22067 5.53947)
(1.26803e-14 2.22392 5.4442)
(8.32909e-15 2.13229 5.47187)
(2.26549e-16 1.92978 5.67384)
(-1.08997e-14 1.64912 6.02958)
(-2.24538e-14 1.34075 6.40903)
(-3.08047e-14 0.950894 6.55911)
(-3.28127e-14 0.349644 6.20876)
(-2.99198e-14 -0.304341 5.61455)
(-2.78343e-14 -0.714987 5.36998)
(-2.63788e-14 -0.988263 5.23721)
(-2.50404e-14 -1.25259 5.11503)
(-2.37372e-14 -1.53965 4.99648)
(-2.24591e-14 -1.839 4.88266)
(-2.11947e-14 -2.14058 4.77175)
(-1.99353e-14 -2.43746 4.66236)
(-1.86757e-14 -2.72355 4.55348)
(-1.74143e-14 -2.99439 4.44454)
(-1.61511e-14 -3.24702 4.33513)
(-1.48893e-14 -3.4787 4.2253)
(-1.36302e-14 -3.68775 4.11471)
(-1.23786e-14 -3.87294 4.0035)
(-1.11375e-14 -4.03338 3.89139)
(-9.91146e-15 -4.16834 3.77819)
(-8.70963e-15 -4.27794 3.66445)
(-7.53737e-15 -4.36339 3.55059)
(-6.39315e-15 -4.42556 3.43642)
(-5.27342e-15 -4.46558 3.32187)
(-4.16997e-15 -4.48498 3.20694)
(-3.06803e-15 -4.48584 3.0915)
(-1.94391e-15 -4.4693 2.97501)
(-7.66858e-16 -4.43498 2.85649)
(4.93344e-16 -4.3812 2.73529)
(1.86036e-15 -4.30635 2.61117)
(3.34636e-15 -4.20926 2.48416)
(4.94243e-15 -4.09034 2.35477)
(6.61228e-15 -3.95214 2.22349)
(8.28996e-15 -3.79901 2.09088)
(9.8855e-15 -3.6349 1.95677)
(1.12911e-14 -3.46057 1.82051)
(1.23947e-14 -3.27211 1.68098)
(1.30994e-14 -3.06118 1.53666)
(1.33365e-14 -2.82211 1.38696)
(1.30862e-14 -2.55866 1.23268)
(1.23871e-14 -2.27426 1.07405)
(1.13193e-14 -1.95544 0.90972)
(9.99155e-15 -1.57785 0.737068)
(8.51756e-15 -1.14516 0.55731)
(6.96935e-15 -0.680399 0.368)
(5.38282e-15 -0.141955 0.152627)
(4.10016e-15 0.239618 -0.222085)
(3.01832e-15 0.312765 -0.295304)
(2.1442e-15 0.243178 -0.388714)
(1.50238e-15 0.147715 -0.452516)
(1.11864e-15 0.0466382 -0.483438)
(5.41091e-16 -0.125181 -0.468263)
(2.03413e-16 -0.391353 -0.505665)
(8.35433e-17 -0.675629 -0.640058)
(2.56958e-17 -0.85972 -0.802946)
(-1.22663e-17 -0.919258 -0.940407)
(-3.28625e-17 -0.88808 -1.0359)
(-3.87077e-17 -0.794274 -1.08936)
(-3.65552e-17 -0.64814 -1.1139)
(-3.32364e-17 -0.495145 -1.12599)
(-3.27185e-17 -0.342135 -1.16756)
(-2.96353e-17 0.350477 -1.11909)
(-1.5333e-17 1.72106 -0.491829)
(-9.3951e-17 2.58473 0.68743)
(5.47686e-17 1.47817 1.63707)
(2.74837e-16 0.220288 0.240452)
(3.42559e-16 0.358823 -0.918133)
(8.0036e-15 1.35921 6.41981)
(8.43846e-15 1.50192 6.33588)
(9.35568e-15 1.62255 6.26119)
(1.04915e-14 1.73806 6.15423)
(1.18842e-14 1.86626 6.02755)
(1.33798e-14 1.98947 5.8745)
(1.47614e-14 2.10885 5.70335)
(1.55765e-14 2.20615 5.5312)
(1.49796e-14 2.25866 5.40019)
(1.16677e-14 2.23002 5.38041)
(4.3357e-15 2.08734 5.55045)
(-7.03531e-15 1.83059 5.92948)
(-2.00583e-14 1.52309 6.41517)
(-3.09995e-14 1.25099 6.8234)
(-3.69785e-14 0.982191 6.94146)
(-3.6323e-14 0.510534 6.50133)
(-3.04187e-14 -0.190821 5.60514)
(-2.68146e-14 -0.690844 5.20919)
(-2.55685e-14 -0.980814 5.13586)
(-2.45378e-14 -1.24863 5.0501)
(-2.33694e-14 -1.54102 4.94412)
(-2.21527e-14 -1.8438 4.8396)
(-2.0932e-14 -2.14682 4.73727)
(-1.97083e-14 -2.44366 4.63518)
(-1.84765e-14 -2.72849 4.53216)
(-1.72367e-14 -2.99734 4.4278)
(-1.5991e-14 -3.2474 4.32213)
(-1.47435e-14 -3.47608 4.21531)
(-1.34968e-14 -3.68183 4.10712)
(-1.22558e-14 -3.86352 3.99778)
(-1.1024e-14 -4.0203 3.88707)
(-9.80666e-15 -4.15162 3.77493)
(-8.61295e-15 -4.25773 3.66199)
(-7.44783e-15 -4.33979 3.54866)
(-6.30975e-15 -4.39864 3.43479)
(-5.19508e-15 -4.43545 3.32039)
(-4.09541e-15 -4.45179 3.20547)
(-2.99556e-15 -4.44964 3.08994)
(-1.87148e-15 -4.43003 2.97325)
(-6.92481e-16 -4.39253 2.85446)
(5.71235e-16 -4.33552 2.73291)
(1.94274e-15 -4.25749 2.6084)
(3.43318e-15 -4.15733 2.48098)
(5.03228e-15 -4.03554 2.35116)
(6.70225e-15 -3.89468 2.21944)
(8.37587e-15 -3.73902 2.08638)
(9.96227e-15 -3.57234 1.95181)
(1.13534e-14 -3.3952 1.81502)
(1.24381e-14 -3.20349 1.67479)
(1.31207e-14 -2.98887 1.52937)
(1.33349e-14 -2.7461 1.37814)
(1.30636e-14 -2.47918 1.22184)
(1.23475e-14 -2.19122 1.06047)
(1.1268e-14 -1.86806 0.891746)
(9.93374e-15 -1.48558 0.711961)
(8.45694e-15 -1.04688 0.519715)
(6.91026e-15 -0.571979 0.308734)
(5.38798e-15 0.0327401 0.010278)
(4.40339e-15 0.30274 -0.426671)
(3.37709e-15 0.345888 -0.487374)
(2.52561e-15 0.268701 -0.584741)
(1.87032e-15 0.165198 -0.661817)
(1.44026e-15 0.0504817 -0.706438)
(8.05703e-16 -0.126819 -0.623332)
(2.85462e-16 -0.383852 -0.562614)
(9.37517e-17 -0.658994 -0.647244)
(2.686e-17 -0.847143 -0.792058)
(-1.08265e-17 -0.916623 -0.921218)
(-3.1996e-17 -0.894843 -1.01297)
(-3.89051e-17 -0.807733 -1.06473)
(-3.74285e-17 -0.663973 -1.08791)
(-3.39768e-17 -0.504319 -1.09348)
(-3.35453e-17 -0.360018 -1.13268)
(-3.52534e-17 0.241724 -1.14763)
(-2.51281e-17 1.42542 -0.555621)
(-1.96303e-16 2.23663 0.986493)
(-1.10432e-16 1.55995 1.76142)
(2.67622e-16 0.572153 0.325279)
(1.65829e-16 0.606256 -0.253678)
(8.36937e-15 1.369 6.38709)
(9.2923e-15 1.5163 6.28707)
(1.03936e-14 1.63864 6.20159)
(1.17018e-14 1.75826 6.07689)
(1.31794e-14 1.88974 5.93449)
(1.4657e-14 2.01569 5.76637)
(1.58485e-14 2.1347 5.5879)
(1.61562e-14 2.22506 5.42547)
(1.4512e-14 2.25922 5.33709)
(9.466e-15 2.19928 5.40528)
(5.43417e-17 2.02162 5.69551)
(-1.26351e-14 1.7473 6.16929)
(-2.51072e-14 1.45398 6.66024)
(-3.38838e-14 1.22155 6.99617)
(-3.77396e-14 1.01629 7.0691)
(-3.65736e-14 0.63263 6.68194)
(-3.08808e-14 -0.0411575 5.72254)
(-2.60998e-14 -0.612333 5.07364)
(-2.44873e-14 -0.951917 4.97584)
(-2.37142e-14 -1.21554 4.94206)
(-2.28221e-14 -1.50134 4.86765)
(-2.17414e-14 -1.80285 4.77812)
(-2.05844e-14 -2.10594 4.68694)
(-1.94065e-14 -2.40305 4.59517)
(-1.82134e-14 -2.68846 4.50109)
(-1.70045e-14 -2.9582 4.40388)
(-1.57835e-14 -3.20942 4.30396)
(-1.4556e-14 -3.43945 4.20179)
(-1.33262e-14 -3.64668 4.09734)
(-1.20996e-14 -3.82991 3.99091)
(-1.08803e-14 -3.98824 3.88242)
(-9.67457e-15 -4.12118 3.77197)
(-8.49156e-15 -4.22898 3.66028)
(-7.33577e-15 -4.31271 3.54781)
(-6.20568e-15 -4.37315 3.43446)
(-5.09758e-15 -4.41149 3.32032)
(-4.00277e-15 -4.42926 3.20545)
(-2.90562e-15 -4.42839 3.08981)
(-1.78167e-15 -4.40983 2.97283)
(-6.00378e-16 -4.37315 2.85362)
(6.67518e-16 -4.31684 2.73156)
(2.04431e-15 -4.23945 2.60647)
(3.53986e-15 -4.13996 2.47843)
(5.14222e-15 -4.01891 2.34796)
(6.81177e-15 -3.87886 2.21561)
(8.47985e-15 -3.724 2.08192)
(1.00545e-14 -3.55799 1.94668)
(1.14276e-14 -3.38131 1.80914)
(1.2489e-14 -3.18977 1.66787)
(1.3145e-14 -2.97514 1.52099)
(1.33319e-14 -2.73237 1.36776)
(1.30361e-14 -2.46547 1.20884)
(1.23007e-14 -2.17719 1.04383)
(1.12089e-14 -1.85304 0.869418)
(9.86938e-15 -1.46913 0.680715)
(8.39399e-15 -1.0274 0.473427)
(6.86303e-15 -0.540231 0.233834)
(5.46725e-15 0.098607 -0.193742)
(4.56891e-15 0.330231 -0.528496)
(3.61554e-15 0.355709 -0.628337)
(2.79412e-15 0.280386 -0.74762)
(2.14382e-15 0.173964 -0.844568)
(1.69274e-15 0.0432723 -0.902301)
(1.10351e-15 -0.145874 -0.85026)
(4.76564e-16 -0.384036 -0.72228)
(1.54321e-16 -0.630012 -0.703685)
(4.35584e-17 -0.806885 -0.793942)
(-3.72066e-18 -0.879494 -0.90063)
(-2.88787e-17 -0.865839 -0.983208)
(-3.86747e-17 -0.786931 -1.03083)
(-3.88248e-17 -0.649815 -1.05218)
(-3.59102e-17 -0.490258 -1.04814)
(-3.64016e-17 -0.339595 -1.09206)
(-3.69255e-17 0.213829 -1.1532)
(-2.85555e-17 1.25172 -0.628645)
(-2.54504e-16 2.06328 1.01904)
(-3.40959e-16 1.61094 1.80134)
(-3.66915e-17 0.654393 0.606984)
(-2.69498e-16 0.737276 0.115612)
(8.92454e-15 1.3808 6.34729)
(1.03215e-14 1.53681 6.22153)
(1.15936e-14 1.66347 6.12143)
(1.30603e-14 1.78888 5.97499)
(1.45998e-14 1.92541 5.81442)
(1.60128e-14 2.05494 5.63095)
(1.69075e-14 2.17254 5.44962)
(1.64856e-14 2.25136 5.30984)
(1.34232e-14 2.25802 5.28806)
(6.24329e-15 2.15519 5.47317)
(-5.31567e-15 1.93463 5.89699)
(-1.87981e-14 1.64242 6.44668)
(-2.99633e-14 1.36679 6.9089)
(-3.61293e-14 1.1781 7.15085)
(-3.76051e-14 1.0454 7.16299)
(-3.56425e-14 0.769401 6.83022)
(-3.08203e-14 0.143022 5.91235)
(-2.58004e-14 -0.528577 5.0074)
(-2.36088e-14 -0.941584 4.80351)
(-2.27275e-14 -1.2123 4.79374)
(-2.20807e-14 -1.49054 4.76219)
(-2.12304e-14 -1.78811 4.69949)
(-2.01896e-14 -2.08997 4.62374)
(-1.90686e-14 -2.38622 4.54436)
(-1.79175e-14 -2.67058 4.46162)
(-1.67451e-14 -2.93935 4.37408)
(-1.55541e-14 -3.18983 4.282)
(-1.43505e-14 -3.41927 4.18611)
(-1.31403e-14 -3.62604 4.08671)
(-1.19304e-14 -3.80889 3.98426)
(-1.07256e-14 -3.96693 3.87881)
(-9.53312e-15 -4.09969 3.77069)
(-8.36214e-15 -4.20746 3.66073)
(-7.21675e-15 -4.29122 3.54943)
(-6.09551e-15 -4.35171 3.43681)
(-4.99463e-15 -4.39012 3.32304)
(-3.90515e-15 -4.40796 3.20826)
(-2.81096e-15 -4.40711 3.09247)
(-1.68725e-15 -4.38843 2.97512)
(-5.03682e-16 -4.3515 2.85535)
(7.68391e-16 -4.29485 2.73262)
(2.15041e-15 -4.21713 2.60677)
(3.65085e-15 -4.11736 2.47793)
(5.25602e-15 -3.99614 2.34665)
(6.92448e-15 -3.85601 2.21349)
(8.58613e-15 -3.70109 2.07898)
(1.01481e-14 -3.53493 1.94288)
(1.15021e-14 -3.35788 1.80434)
(1.25394e-14 -3.16565 1.66179)
(1.31681e-14 -2.95009 1.51317)
(1.33276e-14 -2.70638 1.35767)
(1.30077e-14 -2.43851 1.19573)
(1.22541e-14 -2.14885 1.02647)
(1.11515e-14 -1.82241 0.84554)
(9.80948e-15 -1.43522 0.646738)
(8.34037e-15 -0.987203 0.422638)
(6.83969e-15 -0.473906 0.14814)
(5.68082e-15 0.154226 -0.424087)
(4.76348e-15 0.390425 -0.663979)
(3.87002e-15 0.393219 -0.793542)
(3.07679e-15 0.3086 -0.934481)
(2.43264e-15 0.194203 -1.0531)
(1.96145e-15 0.0496034 -1.13114)
(1.39488e-15 -0.161389 -1.1111)
(7.53151e-16 -0.40619 -0.991983)
(3.11645e-16 -0.633826 -0.891976)
(1.15696e-16 -0.793909 -0.894913)
(3.19402e-17 -0.863267 -0.949102)
(-1.14697e-17 -0.853525 -1.00309)
(-3.21951e-17 -0.779957 -1.03512)
(-3.82352e-17 -0.648135 -1.04953)
(-3.81668e-17 -0.486145 -1.03909)
(-3.9589e-17 -0.325542 -1.09192)
(-3.72784e-17 0.162005 -1.19417)
(-2.90674e-17 1.01351 -0.751278)
(-2.69749e-16 1.78442 0.971248)
(-6.09188e-16 1.64662 1.85378)
(-5.78265e-16 0.896419 0.774803)
(-7.69e-16 0.882492 -0.129014)
(9.77696e-15 1.39642 6.2846)
(1.15642e-14 1.56011 6.13236)
(1.29232e-14 1.6897 6.01675)
(1.44614e-14 1.82036 5.84879)
(1.59635e-14 1.96014 5.67167)
(1.71865e-14 2.09035 5.4782)
(1.75925e-14 2.20105 5.30605)
(1.61378e-14 2.25968 5.21126)
(1.12835e-14 2.22887 5.28713)
(1.81919e-15 2.07922 5.6121)
(-1.13457e-14 1.82717 6.1556)
(-2.44084e-14 1.54287 6.72651)
(-3.31908e-14 1.30901 7.10389)
(-3.64182e-14 1.16678 7.22395)
(-3.5621e-14 1.07996 7.16054)
(-3.2806e-14 0.883448 6.87684)
(-2.9103e-14 0.336193 6.08397)
(-2.54012e-14 -0.4033 5.01656)
(-2.31267e-14 -0.91268 4.65192)
(-2.18572e-14 -1.2117 4.62264)
(-2.11984e-14 -1.48693 4.62377)
(-2.05754e-14 -1.77925 4.59763)
(-1.97254e-14 -2.07879 4.54576)
(-1.87002e-14 -2.37419 4.48223)
(-1.75986e-14 -2.6576 4.41292)
(-1.64645e-14 -2.92522 4.3374)
(-1.53071e-14 -3.17451 4.25553)
(-1.41313e-14 -3.40284 4.16791)
(-1.29439e-14 -3.60856 4.07511)
(-1.17526e-14 -3.7904 3.97787)
(-1.0564e-14 -3.94745 3.87645)
(-9.38616e-15 -4.07936 3.77142)
(-8.22827e-15 -4.18641 3.66376)
(-7.09411e-15 -4.26952 3.55403)
(-5.98236e-15 -4.32939 3.4424)
(-4.88919e-15 -4.36723 3.32915)
(-3.80536e-15 -4.38454 3.21454)
(-2.7143e-15 -4.38311 3.09858)
(-1.59094e-15 -4.36373 2.98079)
(-4.05197e-16 -4.32598 2.86034)
(8.70899e-16 -4.26845 2.73679)
(2.25788e-15 -4.18985 2.61)
(3.76278e-15 -4.08928 2.48018)
(5.37018e-15 -3.96738 2.34788)
(7.03685e-15 -3.82669 2.2137)
(8.69133e-15 -3.67126 2.07816)
(1.02399e-14 -3.50446 1.94099)
(1.15744e-14 -3.32653 1.80123)
(1.25874e-14 -3.13302 1.65713)
(1.31892e-14 -2.91585 1.5065)
(1.33221e-14 -2.67049 1.3484)
(1.29793e-14 -2.40089 1.18302)
(1.2209e-14 -2.10889 1.0089)
(1.10977e-14 -1.77885 0.820492)
(9.75577e-15 -1.38649 0.610014)
(8.29763e-15 -0.928613 0.366677)
(6.84291e-15 -0.374197 0.0463175)
(5.8637e-15 0.199561 -0.587405)
(4.96413e-15 0.428316 -0.809027)
(4.12336e-15 0.419821 -0.966625)
(3.36261e-15 0.332516 -1.13218)
(2.72897e-15 0.213672 -1.27584)
(2.2426e-15 0.0564023 -1.37989)
(1.69199e-15 -0.171308 -1.39517)
(1.07071e-15 -0.428375 -1.32506)
(5.62375e-16 -0.651578 -1.21809)
(2.68887e-16 -0.798352 -1.15489)
(1.19552e-16 -0.86053 -1.13977)
(3.6483e-17 -0.850641 -1.14084)
(-9.23776e-18 -0.779284 -1.13669)
(-2.96379e-17 -0.650251 -1.13006)
(-3.65925e-17 -0.483051 -1.10861)
(-3.94975e-17 -0.309662 -1.15618)
(-3.45012e-17 0.137483 -1.24973)
(-2.76438e-17 0.808234 -0.90112)
(-2.11236e-16 1.53006 0.711314)
(-7.26249e-16 1.64715 1.80408)
(-9.96134e-16 1.05302 0.939941)
(-1.15644e-15 1.08353 0.21541)
(1.0835e-14 1.41426 6.20211)
(1.29065e-14 1.58807 6.02009)
(1.42847e-14 1.72091 5.88805)
(1.58213e-14 1.85692 5.69896)
(1.72013e-14 1.99903 5.5083)
(1.81093e-14 2.12714 5.31291)
(1.781e-14 2.22497 5.16672)
(1.49861e-14 2.25404 5.14473)
(8.02337e-15 2.17678 5.34898)
(-3.58739e-15 1.98061 5.82096)
(-1.74244e-14 1.71138 6.44439)
(-2.88297e-14 1.45343 6.97319)
(-3.46131e-14 1.26929 7.2291)
(-3.50954e-14 1.16922 7.22743)
(-3.24585e-14 1.11574 7.08992)
(-2.87689e-14 0.981231 6.83159)
(-2.5694e-14 0.521269 6.1839)
(-2.40997e-14 -0.25616 5.07859)
(-2.28335e-14 -0.860935 4.53763)
(-2.13278e-14 -1.20698 4.45182)
(-2.03599e-14 -1.48673 4.46056)
(-1.97889e-14 -1.77384 4.46865)
(-1.91485e-14 -2.06867 4.44897)
(-1.828e-14 -2.36165 4.40742)
(-1.72567e-14 -2.64363 4.3543)
(-1.61661e-14 -2.90993 4.29279)
(-1.50436e-14 -3.1579 4.22332)
(-1.38986e-14 -3.385 4.14611)
(-1.27369e-14 -3.58965 4.06169)
(-1.15667e-14 -3.77054 3.97105)
(-1.0396e-14 -3.92676 3.87478)
(-9.23418e-15 -4.058 3.77375)
(-8.09041e-15 -4.16454 3.66905)
(-6.96829e-15 -4.24722 3.5614)
(-5.86665e-15 -4.30671 3.4511)
(-4.78163e-15 -4.34424 3.3386)
(-3.70374e-15 -4.36127 3.22427)
(-2.61598e-15 -4.35951 3.10819)
(-1.49306e-15 -4.33967 2.98991)
(-3.05268e-16 -4.30134 2.86871)
(9.74668e-16 -4.24318 2.7442)
(2.3663e-15 -4.16395 2.61634)
(3.87522e-15 -4.06284 2.48535)
(5.48424e-15 -3.94051 2.35185)
(7.1484e-15 -3.79951 2.21647)
(8.79501e-15 -3.64378 2.07971)
(1.03296e-14 -3.47656 1.94126)
(1.16444e-14 -3.29791 1.80005)
(1.26331e-14 -3.10328 1.65419)
(1.32083e-14 -2.88466 1.5013)
(1.33155e-14 -2.63774 1.34033)
(1.2951e-14 -2.36642 1.17116)
(1.21656e-14 -2.07192 0.991635)
(1.10474e-14 -1.73783 0.794893)
(9.70785e-15 -1.3393 0.571178)
(8.26544e-15 -0.868987 0.305837)
(6.87022e-15 -0.264697 -0.0738979)
(6.03306e-15 0.26128 -0.730693)
(5.17375e-15 0.470799 -0.95919)
(4.37775e-15 0.456998 -1.14395)
(3.64833e-15 0.366813 -1.33621)
(3.02717e-15 0.242186 -1.50835)
(2.53129e-15 0.0729268 -1.64294)
(1.99977e-15 -0.170907 -1.69762)