/*--------------------------------*- C++ -*----------------------------------*\
| =========                 |                                                 |
| \\      /  F ield         | OpenFOAM: The Open Source CFD Toolbox           |
|  \\    /   O peration     | Version:  4.1                                   |
|   \\  /    A nd           | Web:      www.OpenFOAM.org                      |
|    \\/     M anipulation  |                                                 |
\*---------------------------------------------------------------------------*/
FoamFile
{
    version     2.0;
    format      ascii;
    class       volScalarField;
    location    "23";
    object      p;
}
// * * * * * * * * * * * * * * * * * * * * * * * * * * * * * * * * * * * * * //

dimensions      [0 2 -2 0 0 0 0];

internalField   nonuniform List<scalar> 
6785
(
531.232
477.835
426.004
377.592
332.701
290.685
251.33
214.326
179.232
145.868
114.926
86.7869
57.7579
22.839
-6.31329
64.7979
42.5369
36.7782
33.068
27.5939
21.8864
16.7335
12.3447
8.86073
6.40195
5.21062
5.71224
7.80865
9.68015
9.9403
-37.9846
-44.6277
-38.8609
-34.714
-31.6235
-28.0283
-24.1421
-20.2048
-16.3005
-12.5848
-9.23937
-6.1724
-3.09569
-0.44292
0.791333
8.14936
5.73112
10.3236
10.6476
10.7011
10.9161
10.8268
10.4494
9.8677
9.1084
8.15156
7.04212
6.13167
5.97931
6.28981
24.5813
22.2478
23.801
21.7026
20.2831
19.0391
17.6286
16.2462
14.9883
13.8968
12.9954
12.2825
11.8046
11.7717
12.0166
15.3636
13.3385
14.3102
13.0894
12.8843
12.867
12.7776
12.8094
12.9636
13.2058
13.524
13.886
14.205
14.4615
14.6362
11.9177
10.758
11.837
11.5092
11.8903
12.2798
12.5743
12.9206
13.2732
13.5944
13.8808
14.132
14.3082
14.3881
14.4031
13.6392
13.075
13.9141
13.6735
13.8588
13.961
13.9748
14.0106
14.0268
14.0144
13.9839
13.9503
13.9123
13.8636
13.8135
14.0378
13.7018
14.1799
13.877
13.8918
13.8392
13.7429
13.6761
13.603
13.5266
13.4533
13.3881
13.3318
13.2791
13.2232
12.8122
12.5923
12.878
12.6481
12.6689
12.6375
12.5854
12.5576
12.523
12.4874
12.452
12.415
12.375
12.3275
12.2609
11.7233
11.5796
11.7664
11.6106
11.633
11.6013
11.5532
11.5175
11.47
11.4182
11.3633
11.3044
11.2419
11.1749
11.0865
10.737
10.6809
10.7858
10.618
10.5774
10.4957
10.4058
10.3214
10.2258
10.1276
10.0275
9.92609
9.82826
9.73916
9.63418
11.5884
11.4631
11.307
10.9376
10.681
10.3854
10.0747
9.7736
9.47802
9.19902
8.93909
8.70229
8.49497
8.33
8.17846
9.08435
9.52892
9.88145
9.69632
9.32101
8.86851
8.43967
8.0442
7.65575
7.26824
6.88241
6.50055
6.13148
5.7911
5.45332
25.9313
25.5574
24.7344
22.1751
18.6385
15.1019
11.8402
8.91786
6.2595
3.98037
2.02402
0.386986
-0.91487
-1.88828
-2.69913
31.3292
30.1579
30.6073
29.4067
28.5056
26.5868
26.7033
24.8856
23.5758
21.9829
22.3568
19.9337
17.2155
18.6644
16.6084
14.9838
14.9657
16.5048
13.344
11.5099
14.3769
12.1842
10.3368
11.67
14.5357
11.7677
9.92044
11.9243
15.5588
12.695
11.7112
16.1353
14.7242
13.2056
14.6332
18.3809
16.3811
15.5705
19.4326
18.5555
17.4362
18.2937
21.2414
20.1955
19.2586
19.977
22.4997
21.6294
20.9773
22.995
22.7182
22.308
22.6212
24.2076
23.9734
23.7441
24.108
25.7699
25.7628
25.6045
27.2828
27.4601
27.2576
27.0475
27.9837
28.0543
27.7906
28.0021
27.7633
28.2924
28.57
25.6409
24.681
24.8889
21.8265
16.1493
18.2102
11.3816
-6.35047
-0.555535
3.30818
3.53313
4.12626
-1.13942
0.8752
4.16256
4.88403
5.02359
4.86163
5.43181
7.26168
8.88004
10.0226
4.43425
4.98495
6.76616
8.1833
8.30192
8.53949
8.68704
9.20325
12.974
9.90728
10.0895
9.90017
10.4536
11.6525
12.3177
12.2961
11.9302
11.6098
16.4591
14.7288
14.5124
13.8589
13.4022
14.1567
15.0423
14.2385
12.6599
15.6864
17.3605
17.9462
17.7714
16.7421
15.8082
14.9547
14.2213
13.4667
19.6166
19.2567
17.1756
16.33
15.499
14.2385
12.4291
9.67875
7.80048
13.6758
15.48
12.4088
10.1351
7.23425
3.75021
1.29474
-0.283211
-1.81191
-1.90641
-1.06337
1.94736
-0.197705
-0.745162
-1.43894
-3.34424
-6.0192
-6.26362
-4.488
-7.15118
0.721456
0.129202
-0.44283
1.46114
1.90696
2.60121
3.07387
3.55913
3.86091
3.99767
4.19
4.17104
4.25935
4.33551
4.18484
4.19457
3.99883
4.09585
3.89988
3.47321
3.41737
3.2178
3.48041
3.12193
2.46958
2.93359
2.65196
2.12894
2.11548
2.01929
2.75116
2.1432
1.42039
1.48586
1.51762
2.49284
1.82566
0.772479
1.89661
1.49711
0.765238
0.854352
0.900685
2.25336
1.37263
0.362561
0.52762
0.705954
2.22173
1.33475
-0.0951277
1.47869
0.964101
-0.00608543
0.100102
0.168945
1.93163
0.853259
-0.403875
-0.201335
0.0232285
1.89314
0.858385
-0.828414
1.04008
0.447403
-0.680055
-0.585936
-0.530139
1.48832
0.269677
-1.13708
-0.931607
-0.6807
1.4242
0.265526
-1.59253
0.500656
-0.205317
-1.44665
-1.46052
-1.21286
-0.0011597
0.0075665
0.0141227
0.0280002
0.0470296
0.0749357
0.103743
0.117725
0.0879124
0.112625
0.177862
0.181266
0.16068
0.0720423
0.0517932
0.0405571
0.0597418
0.0954445
0.111871
0.142766
0.126029
-0.0138449
0.00463278
0.044971
0.0102656
0.0182532
0.0934212
0.0963923
0.0577955
0.0714824
-0.0743289
-0.190618
-0.471893
-0.327487
-0.259675
-0.189338
-0.137801
-0.0982685
-0.0576529
-0.00336936
-0.0310911
0.00900394
-0.0125589
-0.0101903
0.00707082
0.0336401
0.022169
0.0239015
0.0113646
0.012365
0.00762319
0.015099
0.00748793
0.0237238
-0.0234468
-0.166281
0.095342
0.0259869
0.0805831
0.037358
0.049598
-0.0119048
0.0823091
0.0764759
0.16675
0.113536
0.0820873
0.0341033
0.0294114
0.176207
0.313334
0.174557
0.0501089
0.00583657
-0.0685426
-0.054538
0.0841943
-0.00866842
-0.00734409
-0.00662439
0.00295474
0.0109081
0.03311
0.0662224
0.115635
0.165004
0.189266
0.140255
0.164797
0.25725
0.275281
0.252292
0.171946
0.130637
0.108441
0.127897
0.200102
0.175464
0.377913
0.227968
-0.00725713
0.00933351
0.0585529
-0.00971732
0.0196171
0.0853423
0.124707
0.100848
0.119959
0.00150856
-0.15151
-0.555873
-0.402643
-0.319639
-0.230644
-0.161116
-0.120665
-0.0746096
-0.0105822
-0.0487056
0.00764292
-0.0197645
-0.00484244
-0.00185278
0.0299409
0.0194548
0.0246435
0.0131839
0.0202788
0.0197992
0.0375347
0.0149333
0.0428573
-0.0740414
0.0484486
0.26859
0.165541
0.154743
0.0905481
0.0751479
0.0431816
0.150952
0.153664
0.263359
0.110136
0.106291
0.0428225
0.0437232
0.279241
0.51055
0.361621
0.138519
0.0199855
-0.120447
-0.109929
0.0546312
-0.00274653
0.00729629
-0.00708336
0.00720046
0.0208213
0.0524139
0.0965932
0.157502
0.213878
0.244468
0.216608
0.233739
0.31414
0.326776
0.318047
0.258322
0.209186
0.176371
0.184324
0.26421
0.211185
0.406224
0.23877
0.0100864
-0.00736821
0.0220475
-0.0558752
0.00724064
0.0727551
0.136387
0.124393
0.154749
0.0864455
-0.0219412
-0.430937
-0.345732
-0.309576
-0.229532
-0.165261
-0.124859
-0.0855543
-0.0273761
-0.0610164
-0.0121607
-0.0375426
-0.0268524
-0.0230011
0.00746204
0.00245507
0.0126892
0.01267
0.0308972
0.0381853
0.0646614
0.0301411
0.0755236
-0.108447
0.107029
0.343168
0.266958
0.262801
0.152829
0.104727
0.0717517
0.165654
0.177598
0.222474
0.0720381
0.109613
0.0821696
0.0973886
0.347191
0.555445
0.381316
0.162348
0.0390037
-0.123831
-0.162205
-0.00582229
-0.00727079
0.0312696
-0.00537951
0.0164338
0.036945
0.077373
0.129587
0.196404
0.254652
0.289748
0.288548
0.31286
0.37869
0.382988
0.382355
0.332816
0.279099
0.240928
0.240424
0.31494
0.24919
0.375278
0.217549
0.0182579
-0.015458
-0.0058344
-0.0865529
-0.00603307
0.0680384
0.151041
0.153987
0.206798
0.203353
0.133783
-0.275674
-0.26147
-0.282757
-0.223484
-0.166883
-0.124443
-0.0889851
-0.0367746
-0.0639521
-0.0258882
-0.0451044
-0.040948
-0.0344483
-0.00583294
-0.00729245
0.00639461
0.0149527
0.0422733
0.0562378
0.08978
0.0467655
0.102294
-0.140198
0.0355836
0.397714
0.381506
0.35755
0.210972
0.137341
0.0994558
0.196803
0.208594
0.199438
0.0705739
0.126608
0.123856
0.16191
0.402703
0.55851
0.369975
0.205442
0.100635
-0.0766561
-0.171725
-0.0439289
-0.00203151
0.034419
-0.00391567
0.0252969
0.0515879
0.0993004
0.157408
0.228513
0.289394
0.329173
0.345777
0.381507
0.435451
0.436294
0.438694
0.396272
0.340438
0.299054
0.292358
0.354422
0.283003
0.375235
0.210646
0.0100271
-0.0161281
-0.0200005
-0.103461
-0.0188339
0.0621386
0.162307
0.188042
0.270955
0.345262
0.278746
-0.152747
-0.192382
-0.255706
-0.21759
-0.167884
-0.1262
-0.0929634
-0.0457192
-0.0660728
-0.0349285
-0.0510583
-0.0484987
-0.0410816
-0.0146407
-0.0132135
0.00325963
0.0188009
0.0539545
0.0752151
0.115761
0.0675241
0.129745
-0.164081
-0.0232541
0.476662
0.510135
0.448567
0.270001
0.175236
0.137506
0.22843
0.234613
0.203223
0.0947385
0.154627
0.158648
0.210727
0.4324
0.539713
0.354074
0.250888
0.167157
-0.0173793
-0.162456
-0.0744838
-0.00329666
0.0803414
-0.0029359
0.0329857
0.0644954
0.119202
0.183287
0.259724
0.325597
0.370352
0.395702
0.436161
0.480739
0.481579
0.487427
0.451837
0.396031
0.353222
0.341165
0.385589
0.309304
0.397771
0.219854
-0.00305061
-0.0194025
-0.0311495
-0.113358
-0.0296646
0.0583415
0.173589
0.227866
0.346782
0.487856
0.405932
-0.0605797
-0.142022
-0.232383
-0.210872
-0.167657
-0.129518
-0.0985219
-0.0557134
-0.0698117
-0.0430061
-0.056729
-0.0538721
-0.047362
-0.0226118
-0.0181661
0.00140151
0.0235431
0.0658618
0.0946282
0.141867
0.0913144
0.156758
-0.179119
-0.0411777
0.553684
0.626593
0.530847
0.327065
0.217536
0.178689
0.250949
0.245969
0.215222
0.122936
0.183327
0.184651
0.241291
0.443997
0.513746
0.343409
0.289433
0.220421
0.0338896
-0.150089
-0.099211
0.00666678
0.0781197
-0.00207176
0.0404165
0.0774757
0.139871
0.211007
0.294007
0.366004
0.414677
0.441905
0.479852
0.516972
0.518477
0.528208
0.499537
0.445215
0.402353
0.384655
0.408891
0.3272
0.418078
0.234247
-0.0113235
-0.0294923
-0.0447024
-0.122528
-0.0402749
0.0554451
0.184875
0.272121
0.433029
0.617565
0.517536
0.012979
-0.103724
-0.21329
-0.204153
-0.166932
-0.133141
-0.104711
-0.0656846
-0.0745172
-0.0506573
-0.0616
-0.0584537
-0.0534933
-0.0298708
-0.0220223
0.00076347
0.0292866
0.0783781
0.114845
0.168881
0.119016
0.185602
-0.183099
-0.0442017
0.605974
0.717662
0.607451
0.384099
0.262491
0.21999
0.272397
0.251838
0.22959
0.149662
0.208746
0.205812
0.266419
0.455906
0.498121
0.345133
0.322113
0.258881
0.071231
-0.140443
-0.120921
0.0217368
0.0937427
-0.00114003
0.048175
0.0913832
0.162191
0.241172
0.331074
0.408855
0.46003
0.485338
0.518013
0.549429
0.551447
0.563891
0.541471
0.490405
0.448141
0.42469
0.428257
0.338942
0.429336
0.247654
-0.0121581
-0.0430388
-0.0589618
-0.131244
-0.0498181
0.0545614
0.19839
0.322539
0.529902
0.738101
0.621471
0.0802322
-0.0694146
-0.196758
-0.198069
-0.166349
-0.136335
-0.110586
-0.0746201
-0.0792461
-0.0577247
-0.0656529
-0.062867
-0.0592499
-0.0365327
-0.0251609
0.000983393
0.0357641
0.0913302
0.135655
0.196658
0.150189
0.216882
-0.176137
-0.0473197
0.635359
0.789173
0.676731
0.439531
0.305019
0.256344
0.292387
0.255341
0.242286
0.173186
0.230317
0.226639
0.295601
0.476828
0.4992
0.359127
0.351955
0.288163
0.0983553
-0.131476
-0.140541
0.0289721
0.151174
-0.000154977
0.0561384
0.105723
0.185049
0.271801
0.367974
0.450594
0.503444
0.525724
0.553059
0.579947
0.581792
0.594679
0.577166
0.530639
0.489031
0.460313
0.446337
0.346142
0.433165
0.258642
-0.00681443
-0.0565954
-0.0729453
-0.140183
-0.0589663
0.0545222
0.212406
0.375482
0.630969
0.851442
0.720254
0.146077
-0.0355445
-0.181623
-0.193172
-0.16666
-0.139528
-0.116225
-0.0826109
-0.0838811
-0.0643163
-0.0691435
-0.0672349
-0.064402
-0.0424856
-0.0275392
0.00204994
0.0429716
0.104897
0.157361
0.225649
0.18512
0.251946
-0.157086
-0.0475664
0.657861
0.853616
0.741118
0.494062
0.346707
0.28923
0.307905
0.258316
0.254096
0.195655
0.250198
0.251213
0.331521
0.505666
0.512771
0.378865
0.377424
0.309944
0.116971
-0.121912
-0.155879
0.0373843
0.163875
0.000828971
0.0641449
0.120151
0.207819
0.301997
0.403762
0.490504
0.545166
0.565158
0.587837
0.610693
0.611546
0.62275
0.609109
0.567502
0.526702
0.492845
0.466211
0.352948
0.436342
0.268491
0.00479728
-0.0662716
-0.084016
-0.148024
-0.0665237
0.0560881
0.227385
0.429352
0.731049
0.956183
0.814345
0.212972
5.62454e-05
-0.166691
-0.188741
-0.167466
-0.142701
-0.121337
-0.0892936
-0.0880759
-0.0704097
-0.0725566
-0.0716964
-0.069068
-0.0479914
-0.0293542
0.00365106
0.0506569
0.118971
0.179731
0.255756
0.223473
0.291412
-0.125577
-0.0389361
0.683304
0.915828
0.800231
0.54561
0.38658
0.319735
0.318591
0.261821
0.26386
0.216449
0.26886
0.278804
0.369919
0.537177
0.532522
0.400487
0.399483
0.327652
0.130347
-0.111353
-0.1628
0.0497316
0.188757
0.00180151
0.0721171
0.134479
0.230214
0.331455
0.438279
0.528762
0.585683
0.604628
0.622851
0.641368
0.640152
0.648103
0.637546
0.600321
0.560572
0.521736
0.487142
0.359066
0.439432
0.279337
0.0221928
-0.0717766
-0.0918199
-0.155302
-0.0731985
0.0581811
0.24131
0.479534
0.816877
1.0468
0.899471
0.279548
0.0361165
-0.152221
-0.184447
-0.168361
-0.145765
-0.126191
-0.0948623
-0.0918812
-0.0761465
-0.076014
-0.0756706
-0.0729875
-0.052833
-0.0303466
0.00602135
0.0588611
0.133711
0.202937
0.287116
0.265071
0.335713
-0.0810133
-0.0181669
0.716472
0.977191
0.855235
0.595235
0.426673
0.350044
0.330616
0.270524
0.276045
0.237312
0.288198
0.308603
0.408046
0.568427
0.554184
0.421728
0.417687
0.342857
0.140955
-0.0970384
-0.162292
0.0575522
0.229277
0.00279524
0.0801827
0.148969
0.252669
0.360909
0.472642
0.566653
0.626182
0.645259
0.658971
0.672532
0.668185
0.672065
0.66409
0.631218
0.592728
0.549803
0.510725
0.366919
0.444954
0.292361
0.0472153
-0.0717198
-0.095196
-0.160794
-0.0784175
0.0616359
0.255316
0.525154
0.884209
1.12105
0.974324
0.346623
0.0729063
-0.136883
-0.179466
-0.168688
-0.148314
-0.130574
-0.0996443
-0.0952102
-0.0813849
-0.0794709
-0.0790651
-0.0760934
-0.0568805
-0.0307398
0.00911375
0.0675389
0.149101
0.226947
0.31974
0.309734
0.385204
-0.0237379
0.017105
0.757323
1.03633
0.904727
0.642896
0.466412
0.379141
0.345379
0.28345
0.288912
0.257268
0.308654
0.339018
0.443636
0.598114
0.576117
0.443163
0.433087
0.357607
0.151304
-0.07936
-0.149252
0.0717365
0.249735
0.00387884
0.0884605
0.163761
0.275368
0.390602
0.507132
0.604431
0.666417
0.685959
0.694963
0.7029
0.694384
0.694162
0.68817
0.660092
0.622941
0.577491
0.536527
0.376904
0.452434
0.306995
0.0801057
-0.0667414
-0.0954774
-0.164479
-0.0827654
0.065314
0.268559
0.563673
0.934098
1.17953
1.0373
0.41224
0.109494
-0.120395
-0.173772
-0.168532
-0.150541
-0.13449
-0.104485
-0.0983874
-0.086029
-0.0827903
-0.081902
-0.0783921
-0.0597588
-0.0304373
0.0130744
0.0768875
0.165278
0.25182
0.353546
0.356955
0.439288
0.0460809
0.0684867
0.804996
1.0923
0.94998
0.689717
0.507701
0.40875
0.364174
0.301533
0.303706
0.278031
0.331747
0.370178
0.477772
0.626565
0.598545
0.466066
0.446559
0.372162
0.163723
-0.0573785
-0.124654
0.0813672
0.310927
0.00509818
0.0970796
0.179097
0.298663
0.421011
0.542345
0.6426
0.706563
0.726384
0.73103
0.732636
0.719259
0.715578
0.711037
0.688149
0.652457
0.606792
0.566766
0.394304
0.463622
0.325399
0.122319
-0.0551226
-0.0922901
-0.164695
-0.085056
0.0696528
0.282084
0.595573
0.971543
1.22723
1.09248
0.476746
0.146382
-0.102188
-0.167035
-0.167902
-0.152399
-0.137699
-0.109144
-0.101352
-0.0899378
-0.0860389
-0.0843588
-0.0801743
-0.0615873
-0.0295878
0.0177506
0.0869769
0.182176
0.277487
0.388494
0.406649
0.497516
0.128059
0.139525
0.857589
1.14508
0.990395
0.734538
0.550175
0.439525
0.385499
0.321931
0.317645
0.298867
0.357286
0.401709
0.51071
0.653254
0.621763
0.491662
0.46142
0.387604
0.180631
-0.0336747
-0.0876519
0.103384
0.325136
0.00649772
0.106094
0.195012
0.322542
0.452029
0.578044
0.68087
0.746087
0.765439
0.766249
0.760769
0.742327
0.735584
0.732212
0.714556
0.680551
0.636337
0.60032
0.419143
0.475052
0.350377
0.173281
-0.0376404
-0.087031
-0.161854
-0.086031
0.0734642
0.294288
0.619459
0.996555
1.26231
1.14265
0.538681
0.182274
-0.0834231
-0.159914
-0.167142
-0.154119
-0.140223
-0.113421
-0.104221
-0.0933883
-0.0893029
-0.08638
-0.0814796
-0.0624731
-0.0280094
0.023229
0.0978403
0.199724
0.303841
0.424118
0.458011
0.558684
0.220946
0.230055
0.912959
1.19457
1.02593
0.776907
0.593075
0.471589
0.410535
0.344378
0.332507
0.32104
0.385729
0.434933
0.543712
0.679278
0.64644
0.519786
0.478722
0.404302
0.205495
-0.00655336
-0.0426656
0.134113
0.35513
0.00808855
0.11555
0.211626
0.347175
0.483864
0.614487
0.7195
0.785303
0.803477
0.800511
0.787571
0.764626
0.754787
0.752184
0.73935
0.708022
0.666605
0.637355
0.452538
0.487285
0.386606
0.234819
-0.0124589
-0.0785438
-0.154629
-0.0843843
0.0776062
0.305515
0.636237
1.00983
1.28208
1.19009
0.59907
0.217578
-0.0638765
-0.152457
-0.166068
-0.155627
-0.141843
-0.116912
-0.106911
-0.0965829
-0.092624
-0.0881356
-0.0824039
-0.0625456
-0.0257482
0.0294187
0.109393
0.217869
0.330847
0.460399
0.511041
0.62326
0.321963
0.336593
0.968821
1.24181
1.05657
0.8153
0.633979
0.503653
0.437897
0.366999
0.347706
0.343682
0.416978
0.470245
0.575551
0.704537
0.671976
0.549195
0.498795
0.422378
0.236718
0.0258788
0.00869913
0.161065
0.420616
0.00990226
0.125471
0.22893
0.372492
0.516338
0.651393
0.758253
0.824046
0.840145
0.832914
0.812584
0.785671
0.772735
0.770352
0.761527
0.734252
0.696313
0.6748
0.491967
0.50223
0.439353
0.305941
0.0194981
-0.0676387
-0.144069
-0.0803724
0.0814229
0.314464
0.646149
1.01159
1.28231
1.23394
0.656231
0.251402
-0.0440952
-0.145054
-0.164678
-0.157073
-0.143097
-0.119646
-0.109557
-0.0996772
-0.0956399
-0.0897641
-0.083089
-0.0618536
-0.0226833
0.0363582
0.121574
0.23654
0.358302
0.496951
0.564681
0.690625
0.42856
0.451666
1.0232
1.28693
1.08315
0.849926
0.672172
0.535631
0.466859
0.392176
0.366
0.368482
0.451403
0.507632
0.606643
0.729612
0.69871
0.57927
0.521297
0.441571
0.274196
0.0649371
0.0641389
0.196293
0.445303
0.0119517
0.13589
0.247027
0.398635
0.549641
0.68903
0.797462
0.862882
0.876289
0.864375
0.83689
0.806154
0.79044
0.788134
0.782216
0.760134
0.726482
0.713171
0.536844
0.523129
0.513478
0.386984
0.0601773
-0.0526478
-0.129356
-0.0724061
0.0859587
0.321612
0.651326
1.00499
1.26717
1.27238
0.709933
0.284553
-0.0237355
-0.136925
-0.162663
-0.157928
-0.14439
-0.121879
-0.112094
-0.10253
-0.098104
-0.091262
-0.0836945
-0.0605173
-0.0189625
0.0439497
0.134333
0.255749
0.386267
0.534039
0.619046
0.760788
0.539617
0.575136
1.07565
1.32922
1.10779
0.881914
0.708265
0.567443
0.495431
0.419218
0.386485
0.394452
0.488463
0.546258
0.635932
0.75313
0.725417
0.609589
0.545601
0.460883
0.313994
0.111067
0.122762
0.239899
0.480719
0.0142796
0.146843
0.265926
0.425561
0.583643
0.727202
0.837011
0.901803
0.912032
0.895088
0.860681
0.825834
0.807728
0.805637
0.801896
0.785295
0.756228
0.750291
0.581414
0.548833
0.602331
0.474268
0.10843
-0.0342932
-0.111736
-0.0612236
0.0904149
0.32546
0.651836
0.991368
1.23937
1.30119
0.757481
0.316108
-0.0037569
-0.128146
-0.160409
-0.158159
-0.14554
-0.123923
-0.114555
-0.105129
-0.100078
-0.0925317
-0.0841545
-0.0587276
-0.0146076
0.0522088
0.147623
0.275337
0.414492
0.571198
0.673036
0.831903
0.652613
0.703932
1.12638
1.36492
1.13368
0.910341
0.742088
0.599176
0.52491
0.448418
0.410615
0.422682
0.528036
0.586044
0.664582
0.775372
0.751291
0.639415
0.571185
0.481051
0.354807
0.16255
0.182305
0.28268
0.53427
0.0169102
0.158373
0.285736
0.453423
0.618557
0.766201
0.877243
0.941318
0.948079
0.925396
0.884717
0.845789
0.825426
0.823564
0.821371
0.810301
0.786703
0.786488
0.62457
0.580922
0.699612
0.566486
0.166167
-0.0104355
-0.0901883
-0.0462613
0.09553
0.326309
0.647933
0.972168
1.20317
1.31758
0.797882
0.345818
0.0162227
-0.118447
-0.157617
-0.157827
-0.146286
-0.125841
-0.11686
-0.107462
-0.101583
-0.0935168
-0.0842086
-0.0566
-0.00976968
0.0610696
0.161519
0.295261
0.442964
0.608672
0.727017
0.903488
0.763151
0.834268
1.17658
1.39193
1.1637
0.932198
0.772095
0.630171
0.555405
0.479314
0.43646
0.451577
0.570045
0.626219
0.692007
0.794274
0.774785
0.666336
0.596091
0.501231
0.393875
0.216937
0.241905
0.330809
0.570373
0.0198872
0.170505
0.306456
0.482165
0.654257
0.805816
0.917968
0.981232
0.984323
0.954943
0.908785
0.865864
0.843059
0.841312
0.840222
0.834222
0.816716
0.820065
0.664397
0.615974
0.79589
0.658891
0.231464
0.0188116
-0.065772
-0.0290603
0.100507
0.323586
0.638569
0.947119
1.16087
1.31833
0.828693
0.37183
0.035753
-0.108525
-0.154261
-0.157248
-0.146711
-0.127589
-0.118923
-0.109623
-0.102735
-0.0942706
-0.0838518
-0.0542274
-0.00450642
0.0704679
0.175966
0.315385
0.471252
0.645725
0.779844
0.973761
0.867786
0.960492
1.22674
1.39793
1.19299
0.948508
0.797084
0.660017
0.587593
0.513151
0.465428
0.482138
0.614332
0.666454
0.719515
0.811531
0.797423
0.692005
0.620603
0.52202
0.431777
0.273473
0.299383
0.372322
0.643782
0.0232378
0.183272
0.328175
0.511915
0.690918
0.846281
0.959374
1.02179
1.02129
0.98509
0.933594
0.886648
0.861163
0.859186
0.858895
0.857353
0.84612
0.851739
0.703347
0.656204
0.886902
0.749326
0.305426
0.0560528
-0.0371267
-0.00898988
0.105975
0.318216
0.623549
0.916157
1.11497
1.30239
0.849078
0.393968
0.0552082
-0.0981773
-0.14992
-0.156126
-0.146708
-0.128899
-0.120461
-0.111436
-0.103653
-0.0947642
-0.083052
-0.0515496
0.00109489
0.0803338
0.190957
0.335835
0.499492
0.68261
0.831952
1.04246
0.966493
1.0828
1.27813
1.38066
1.21767
0.963317
0.818006
0.688701
0.621074
0.548928
0.496443
0.512954
0.659503
0.706301
0.746162
0.827529
0.818323
0.716885
0.643166
0.54166
0.466471
0.330153
0.35443
0.419793
0.680835
0.0270003
0.196681
0.350869
0.542593
0.728362
0.887381
1.0012
1.06264
1.05907
1.01645
0.958855
0.907724
0.879487
0.877033
0.877398
0.879224
0.87298
0.879825
0.741133
0.700334
0.965836
0.833064
0.385081
0.100933
-0.00480711
0.0127231
0.110804
0.309684
0.602118
0.879061
1.06712
1.26971
0.857789
0.411473
0.0740404
-0.0874292
-0.144575
-0.154334
-0.14609
-0.129494
-0.121334
-0.112682
-0.104466
-0.0951423
-0.0819797
-0.0486724
0.00703269
0.0905528
0.206286
0.356429
0.52734
0.718555
0.882139
1.10771
1.05918
1.20099
1.33129
1.35098
1.23408
0.977754
0.835393
0.715906
0.655692
0.586904
0.530528
0.545396
0.704289
0.74577
0.773162
0.844129
0.836906
0.741995
0.664154
0.561547
0.499382
0.386472
0.404884
0.470841
0.734264
0.0312084
0.21077
0.374639
0.57434
0.766764
0.92935
1.0437
1.1041
1.09802
1.04917
0.985198
0.929722
0.898632
0.895492
0.896482
0.900594
0.897587
0.905125
0.779719
0.75079
1.03118
0.907849
0.47044
0.155592
0.0327159
0.0365233
0.115498
0.298354
0.574656
0.835884
1.01802
1.22198
0.855019
0.424412
0.0922804
-0.0757211
-0.137986
-0.151694
-0.144718
-0.129134
-0.121463
-0.113131
-0.10487
-0.0953515
-0.0805415
-0.0454895
0.0133449
0.101014
0.221872
0.377153
0.554858
0.753741
0.930982
1.16964
1.14619
1.31494
1.38669
1.31474
1.24203
0.991985
0.850057
0.741323
0.690677
0.626381
0.565898
0.577657
0.7467
0.783808
0.800287
0.859184
0.852108
0.764538
0.68212
0.580228
0.528045
0.439424
0.449316
0.514007
0.819061
0.0358927
0.225521
0.399412
0.607019
0.805923
0.971909
1.0867
1.14597
1.13732
1.08238
1.01237
0.952354
0.918009
0.913946
0.915877
0.921382
0.919194
0.927567
0.81766
0.806436
1.08016
0.969272
0.557574
0.218297
0.0740745
0.0601769
0.118622
0.283928
0.541933
0.787469
0.967963
1.16216
0.841538
0.432252
0.109149
-0.0633378
-0.130276
-0.148181
-0.142355
-0.127753
-0.120887
-0.112859
-0.104718
-0.0953205
-0.0789511
-0.0421611
0.019905
0.111565
0.237489
0.397732
0.581533
0.787432
0.977334
1.2271
1.22697
1.42018
1.44263
1.27732
1.23734
1.00481
0.862619
0.764745
0.725702
0.66729
0.603891
0.610291
0.783359
0.819431
0.829019
0.873593
0.8665
0.785097
0.6992
0.599164
0.554082
0.486768
0.487314
0.560966
0.87575
0.0410975
0.240975
0.425273
0.640738
0.846011
1.01529
1.13043
1.18845
1.17696
1.11623
1.04093
0.976132
0.93815
0.932711
0.935314
0.941794
0.938776
0.948918
0.855483
0.866982
1.11404
1.018
0.645476
0.288871
0.119504
0.0830167
0.120381
0.267236
0.505171
0.734399
0.91585
1.0943
0.818616
0.434709
0.124508
-0.0503469
-0.1212
-0.14351
-0.138739
-0.125286
-0.11952
-0.111672
-0.103749
-0.0946
-0.077043
-0.0385768
0.0266425
0.122202
0.253016
0.418082
0.607429
0.82011
1.02172
1.28065
1.30218
1.51639
1.49816
1.24699
1.22363
1.01577
0.873841
0.786188
0.760187
0.709291
0.643723
0.640442
0.811338
0.852016
0.856236
0.886407
0.878801
0.80255
0.71388
0.615631
0.57474
0.527784
0.519289
0.611914
0.942017
0.0468432
0.2571
0.452131
0.675307
0.88674
1.05917
1.17459
1.23129
1.21682
1.15024
1.07044
1.00042
0.95906
0.952094
0.95442
0.961216
0.956903
0.968761
0.890695
0.923384
1.13072
1.05668
0.73035
0.363604
0.166041
0.10232
0.119244
0.248381
0.465594
0.67819
0.860743
1.02204
0.78757
0.431667
0.137505
-0.0369887
-0.110686
-0.137276
-0.133747
-0.121737
-0.117247
-0.109547
-0.101961
-0.0931356
-0.0749228
-0.0348627
0.0334305
0.132836
0.268192
0.437873
0.63211
0.851146
1.06297
1.3295
1.37162
1.60471
1.54997
1.22681
1.20451
1.02369
0.883241
0.80509
0.793609
0.752185
0.686727
0.670233
0.831224
0.881226
0.881546
0.90028
0.888993
0.817856
0.727373
0.62885
0.591226
0.562028
0.545777
0.660644
1.02799
0.0531858
0.273974
0.480143
0.710924
0.928306
1.10379
1.21942
1.27497
1.25749
1.18531
1.1013
1.02579
0.981487
0.973021
0.974126
0.980291
0.975617
0.987589
0.921565
0.965506
1.13006
1.08885
0.810012
0.440477
0.211618
0.117349
0.115685
0.22774
0.423927
0.620298
0.802294
0.9441
0.746795
0.423176
0.147465
-0.0230586
-0.0985518
-0.129039
-0.127403
-0.117138
-0.113726
-0.106182
-0.0990256
-0.0906854
-0.0722478
-0.030796
0.0403017
0.143423
0.282852
0.456914
0.655737
0.880821
1.10169
1.37421
1.43529
1.68692
1.59637
1.21614
1.18314
1.02871
0.890711
0.820696
0.824254
0.795036
0.731301
0.698565
0.843183
0.906316
0.904441
0.914972
0.897837
0.8292
0.736388
0.63393
0.604746
0.587893
0.567958
0.712779
1.10361
0.060128
0.291516
0.509148
0.747353
0.970345
1.1487
1.26453
1.31904
1.29831
1.22114
1.13259
1.05199
1.00525
0.995554
0.994827
0.999438
0.995103
1.00478
0.945679
0.991778
1.11814
1.11502
0.877585
0.513271
0.251572
0.126886
0.109574
0.205294
0.380989
0.562709
0.739657
0.859136
0.697206
0.40931
0.153615
-0.00905071
-0.085101
-0.118799
-0.11982
-0.111646
-0.108804
-0.101531
-0.0949573
-0.0873478
-0.069076
-0.0264904
0.0471813
0.153865
0.296846
0.474875
0.677992
0.908406
1.13687
1.41399
1.49189
1.76017
1.63513
1.21426
1.15923
1.02862
0.894689
0.833085
0.850395
0.83698
0.77772
0.728803
0.851045
0.928331
0.926953
0.933129
0.909907
0.84007
0.740095
0.628367
0.615536
0.60556
0.588522
0.759831
1.20826
0.067738
0.309809
0.539301
0.7848
1.0131
1.19423
1.31018
1.36375
1.33971
1.25813
1.1647
1.07978
1.03105
1.01992
1.01716
1.02026
1.01547
1.02066
0.964108
1.00831
1.10324
1.13053
0.931408
0.577359
0.28657
0.133805
0.102949
0.181744
0.337064
0.504837
0.670923
0.76931
0.6407
0.389792
0.156217
0.00458146
-0.0705117
-0.106682
-0.111044
-0.105137
-0.102201
-0.0952212
-0.0895288
-0.0829235
-0.0650748
-0.0217369
0.0540962
0.163949
0.310005
0.491626
0.69886
0.934153
1.16913
1.44895
1.5409
1.82241
1.66666
1.22007
1.1367
1.02422
0.895437
0.843968
0.871705
0.876524
0.824101
0.759813
0.855301
0.948173
0.947417
0.952699
0.923753
0.849786
0.734819
0.614078
0.620822
0.618995
0.609198
0.811974
1.29444
0.0760057
0.328725
0.570354
0.822917
1.05615
1.23987
1.35589
1.40864
1.38128
1.29558
1.1971
1.10915
1.0588
1.046
1.04109
1.043
1.03579
1.03497
0.978031
1.01991
1.09001
1.13193
0.970122
0.630171
0.318257
0.139952
0.0966805
0.158221
0.293493
0.447326
0.597514
0.679631
0.581109
0.365447
0.155485
0.0172993
-0.0551537
-0.0930978
-0.10111
-0.0976404
-0.0940397
-0.0873223
-0.0828941
-0.0776327
-0.0603837
-0.016647
0.060976
0.173498
0.322172
0.506998
0.717787
0.957505
1.19762
1.47828
1.58157
1.87117
1.68868
1.23101
1.11586
1.01516
0.892017
0.854051
0.889574
0.912774
0.87091
0.794675
0.858818
0.966022
0.965875
0.971525
0.939918
0.860874
0.728053
0.603583
0.628394
0.635589
0.630829
0.86889
1.39343
0.0850138
0.348409
0.602541
0.861998
1.09982
1.28599
1.40208
1.45392
1.4237
1.33372
1.23047
1.14111
1.08925
1.07446
1.06698
1.06738
1.05624
1.0488
0.989807
1.02945
1.08049
1.11878
0.991748
0.673322
0.347668
0.14745
0.092136
0.135896
0.251123
0.390673
0.522484
0.591803
0.520066
0.336928
0.15158
0.02869
-0.0393297
-0.0785568
-0.0899965
-0.0889544
-0.0842188
-0.0777506
-0.0749275
-0.0713018
-0.0548389
-0.0110957
0.0676566
0.182285
0.333041
0.520646
0.734475
0.978516
1.22266
1.50238
1.6132
1.90831
1.70162
1.24361
1.09692
1.00321
0.88447
0.861717
0.905902
0.946803
0.915319
0.83202
0.86049
0.978018
0.982782
0.986597
0.95558
0.871391
0.725915
0.60091
0.638252
0.65521
0.653669
0.924225
1.51793
0.0947024
0.368673
0.635512
0.901582
1.1435
1.33194
1.44816
1.49883
1.46646
1.37131
1.26488
1.17568
1.1222
1.10532
1.09428
1.09258
1.0768
1.06281
1.00111
1.03788
1.07579
1.09862
0.996273
0.705325
0.373806
0.157207
0.088121
0.114883
0.211796
0.33647
0.44967
0.508616
0.460138
0.30588
0.144752
0.0384095
-0.0237789
-0.0636088
-0.0779559
-0.0790283
-0.0731013
-0.0670698
-0.0659554
-0.0640547
-0.0486404
-0.0051785
0.0740814
0.19028
0.342636
0.532391
0.748728
0.996737
1.24345
1.52127
1.63591
1.93385
1.70458
1.25335
1.07535
0.988514
0.873082
0.864668
0.921854
0.979027
0.957967
0.87583
0.864613
0.981661
1.00239
1.00122
0.972451
0.88257
0.732868
0.608509
0.650724
0.677766
0.678062
0.987045
1.63291
0.105177
0.389683
0.66955
0.942044
1.18759
1.37809
1.49464
1.54387
1.50972
1.40969
1.30156
1.21293
1.15752
1.13829
1.12321
1.1185
1.09793
1.07766
1.01284
1.04433
1.07279
1.07535
0.984838
0.723923
0.397006
0.169717
0.0831569
0.0943479
0.175781
0.285102
0.380719
0.430608
0.402048
0.272903
0.135394
0.0462983
-0.00926287
-0.0485477
-0.0652002
-0.0676474
-0.0606912
-0.0554712
-0.0562055
-0.0559896
-0.0418176
0.000994724
0.0801388
0.197142
0.350493
0.541831
0.760415
1.01205
1.26023
1.53575
1.65098
1.94346
1.70197
1.2606
1.05404
0.97335
0.858414
0.862618
0.936085
1.00809
1.00059
0.926913
0.874904
0.971991
1.02228
1.01501
0.988605
0.893416
0.74762
0.622552
0.663345
0.699666
0.70579
1.05898
1.76019
0.116342
0.411166
0.704187
0.982813
1.23139
1.42362
1.54074
1.58812
1.55162
1.44915
1.34036
1.25175
1.19411
1.17213
1.15347
1.14451
1.11957
1.09354
1.02518
1.04816
1.06803
1.05328
0.960276
0.72739
0.413934
0.181952
0.075805
0.0741071
0.143253
0.23769
0.318119
0.359788
0.347827
0.239862
0.1248
0.0523909
0.00357964
-0.0339708
-0.052115
-0.0550276
-0.0474356
-0.0435338
-0.0462249
-0.0475155
-0.0345969
0.00718051
0.0859001
0.20298
0.356708
0.549093
0.769514
1.02419
1.27271
1.54584
1.65991
1.93772
1.69523
1.26595
1.032
0.9573
0.841257
0.855709
0.946915
1.03518
1.04776
0.986629