/*--------------------------------*- C++ -*----------------------------------*\
| =========                 |                                                 |
| \\      /  F ield         | OpenFOAM: The Open Source CFD Toolbox           |
|  \\    /   O peration     | Version:  4.1                                   |
|   \\  /    A nd           | Web:      www.OpenFOAM.org                      |
|    \\/     M anipulation  |                                                 |
\*---------------------------------------------------------------------------*/
FoamFile
{
    version     2.0;
    format      ascii;
    class       volVectorField;
    location    "23";
    object      U;
}
// * * * * * * * * * * * * * * * * * * * * * * * * * * * * * * * * * * * * * //

dimensions      [0 1 -1 0 0 0 0];

internalField   nonuniform List<vector> 
6785
(
(9.56168e-15 0.852197 15.7946)
(9.05436e-15 -4.89457 12.1215)
(-2.93712e-15 -4.1955 12.1321)
(7.34678e-15 -3.60118 11.9966)
(8.62345e-16 -3.00468 11.8778)
(-6.77184e-17 -2.5532 11.6992)
(2.23731e-15 -2.20881 11.4768)
(4.77523e-16 -1.96604 11.2116)
(-6.74908e-16 -1.79856 10.916)
(3.37941e-15 -1.71239 10.5882)
(1.82424e-16 -1.83747 10.156)
(-4.35608e-16 -2.28569 9.53758)
(7.94022e-16 -2.51303 8.96374)
(-6.93379e-17 -1.06554 8.91353)
(-1.26462e-16 1.76574 7.47091)
(1.39401e-14 -5.35014 22.493)
(1.58588e-14 -14.6049 21.394)
(-6.37459e-16 -13.2708 20.3412)
(2.64171e-15 -11.7697 19.5066)
(1.76665e-15 -11.1561 18.5044)
(1.7367e-16 -10.6595 17.5174)
(2.29663e-15 -10.0901 16.5715)
(1.45012e-15 -9.52502 15.6236)
(-6.95307e-16 -8.96546 14.6639)
(2.12623e-16 -8.36734 13.6946)
(5.81488e-16 -7.75711 12.7179)
(-4.8348e-16 -7.30338 11.7195)
(2.02843e-16 -7.0171 10.6245)
(1.38062e-16 -5.73106 9.16141)
(-1.03878e-16 -2.30511 4.58352)
(2.19263e-14 -7.71561 23.9802)
(2.10776e-14 -16.7731 24.6731)
(1.38886e-16 -13.7366 23.9373)
(2.71787e-15 -12.3062 22.625)
(1.41257e-15 -11.6448 21.2415)
(1.21069e-15 -10.8141 20.0014)
(3.11882e-15 -9.94037 18.7739)
(1.99999e-15 -9.10026 17.5248)
(3.25894e-16 -8.28355 16.2656)
(1.24894e-15 -7.47542 15.0264)
(2.91376e-16 -6.66782 13.8178)
(-1.17079e-16 -5.84186 12.4303)
(8.82353e-16 -4.81409 10.2756)
(-1.51664e-16 -3.12643 6.68489)
(4.75517e-18 -0.832255 1.69035)
(1.86208e-14 -8.50247 22.046)
(1.60855e-14 -16.6212 24.3323)
(-2.20682e-16 -12.93 23.7972)
(2.8499e-15 -12.1537 21.9987)
(1.2231e-15 -11.4201 20.5029)
(2.76985e-15 -10.4937 19.1723)
(3.08366e-15 -9.634 17.8168)
(-4.42373e-16 -8.82372 16.4592)
(5.16519e-16 -8.05376 15.1232)
(1.33635e-15 -7.32391 13.8167)
(9.81728e-16 -6.55259 12.4396)
(-1.21341e-16 -5.491 10.5833)
(1.65067e-16 -3.78543 7.50923)
(5.14547e-16 -1.49407 2.76718)
(2.95972e-16 0.153347 -1.77279)
(1.84554e-14 -8.47581 19.747)
(1.5884e-14 -16.3602 24.3124)
(1.36152e-15 -13.0993 23.6602)
(2.83263e-15 -12.6281 21.5366)
(2.00033e-15 -11.8568 20.0249)
(3.30429e-15 -10.9577 18.6638)
(2.60626e-15 -10.1701 17.2588)
(5.12406e-16 -9.40315 15.8713)
(2.77055e-16 -8.65301 14.5238)
(7.41126e-16 -7.93098 13.2139)
(-1.2881e-15 -7.16642 11.8297)
(-1.03983e-15 -6.11679 9.99694)
(2.46163e-15 -4.42474 7.15666)
(9.8349e-16 -2.30608 3.28973)
(-4.51619e-15 -0.787531 0.319069)
(1.52912e-14 -8.0206 17.5496)
(1.70466e-14 -16.0194 24.5276)
(3.27078e-15 -13.6449 24.0463)
(2.80403e-15 -12.9949 21.7651)
(9.06181e-16 -12.1271 20.2156)
(3.04845e-16 -11.2254 18.847)
(2.55019e-15 -10.4397 17.4342)
(8.27215e-16 -9.64971 16.0436)
(-1.62953e-16 -8.8612 14.6936)
(7.53491e-16 -8.09414 13.3823)
(-6.36943e-16 -7.2982 12.0179)
(5.91407e-16 -6.2856 10.283)
(7.79036e-16 -4.73447 7.72323)
(1.34399e-16 -2.75813 4.37662)
(2.09701e-15 -0.950751 1.30114)
(1.33014e-14 -7.33261 15.24)
(1.82416e-14 -15.4896 24.3519)
(4.46193e-15 -14.0275 24.4225)
(2.94336e-15 -13.1304 22.0682)
(2.48941e-15 -12.1475 20.4399)
(1.95955e-15 -11.2387 19.0546)
(1.3857e-15 -10.4391 17.6441)
(-4.9528e-16 -9.62309 16.2583)
(1.40623e-15 -8.81357 14.9077)
(4.56512e-16 -8.03077 13.5934)
(-1.389e-15 -7.22776 12.2391)
(2.24379e-15 -6.24455 10.5527)
(1.99589e-16 -4.7925 8.11391)
(-4.55463e-16 -2.91967 4.95651)
(5.18689e-16 -1.01424 1.80552)
(1.32259e-14 -6.54087 12.9939)
(1.81947e-14 -14.8398 23.8007)
(7.7376e-15 -14.2757 24.6704)
(4.00724e-15 -13.2449 22.3244)
(1.02071e-15 -12.1746 20.5827)
(1.8056e-15 -11.2727 19.1664)
(2.0729e-15 -10.4722 17.7593)
(7.72569e-16 -9.65063 16.3781)
(1.21191e-15 -8.84251 15.0269)
(2.01794e-15 -8.06298 13.7106)
(3.43179e-16 -7.26296 12.3624)
(4.81619e-16 -6.2959 10.7076)
(1.4558e-17 -4.90222 8.34474)
(-8.09031e-16 -3.09816 5.28735)
(2.30248e-15 -1.13037 2.06173)
(1.04929e-14 -5.73951 11.033)
(1.75818e-14 -14.1524 23.0422)
(7.92552e-15 -14.4666 24.8484)
(3.56564e-15 -13.4185 22.6275)
(1.45883e-15 -12.2726 20.7597)
(2.09959e-15 -11.3678 19.2991)
(1.89387e-15 -10.5666 17.896)
(8.82345e-16 -9.74512 16.5181)
(8.44606e-16 -8.93928 15.165)
(9.34645e-16 -8.16014 13.8457)
(1.78019e-16 -7.3606 12.5002)
(1.58167e-15 -6.40308 10.8722)
(3.85864e-16 -5.05055 8.57965)
(-8.47226e-16 -3.29594 5.60285)
(-1.77301e-15 -1.25777 2.28979)
(9.10313e-15 -4.99141 9.39134)
(1.68755e-14 -13.4547 22.1634)
(8.01925e-15 -14.5761 24.942)
(4.76218e-15 -13.6004 22.9612)
(1.68248e-15 -12.3837 20.9767)
(6.23331e-16 -11.4579 19.4585)
(1.62345e-15 -10.6503 18.0561)
(8.42726e-16 -9.82863 16.6814)
(1.01835e-15 -9.02242 15.3265)
(1.60389e-16 -8.24053 14.004)
(1.35433e-16 -7.44027 12.6583)
(6.5581e-17 -6.49117 11.0486)
(-1.54501e-15 -5.17227 8.81085)
(-8.60353e-16 -3.45829 5.89333)
(-1.40618e-15 -1.35409 2.50287)
(4.48555e-15 -4.36324 8.09036)
(1.69801e-14 -12.7933 21.2632)
(1.13052e-14 -14.6085 24.9475)
(4.43397e-15 -13.7799 23.3006)
(9.61557e-16 -12.518 21.2347)
(1.85434e-15 -11.565 19.649)
(4.6713e-16 -10.7496 18.239)
(1.14793e-15 -9.92938 16.8646)
(3.17075e-16 -9.12333 15.5068)
(1.19768e-16 -8.33818 14.1797)
(5.61729e-16 -7.53697 12.8325)
(-4.27094e-17 -6.59614 11.2397)
(1.47482e-15 -5.30727 9.0539)
(-9.30843e-16 -3.63002 6.19004)
(-4.75731e-15 -1.45734 2.72318)
(5.3497e-15 -3.76933 6.84238)
(1.6175e-14 -12.1037 20.2309)
(1.02947e-14 -14.5357 24.782)
(4.044e-15 -13.8917 23.5074)
(1.65259e-15 -12.5868 21.3773)
(5.61084e-16 -11.5964 19.7301)
(9.85773e-16 -10.7758 18.3269)
(8.44682e-16 -9.96366 16.9679)
(-1.08585e-15 -9.166 15.6222)
(-4.86684e-17 -8.38815 14.3056)
(7.45964e-16 -7.59491 12.9675)
(-1.99689e-15 -6.66514 11.39)
(-4.3767e-16 -5.39751 9.23963)
(-3.13629e-15 -3.74417 6.40794)
(-3.5252e-15 -1.51385 2.8665)
(4.76576e-15 -3.4665 6.27879)
(1.56475e-14 -11.6287 19.444)
(1.04714e-14 -14.6048 24.6846)
(5.18973e-15 -14.2889 23.9617)
(2.71173e-15 -13.0404 21.8658)
(3.60834e-16 -12.01 20.0992)
(1.21906e-15 -11.157 18.6169)
(1.12419e-15 -10.3284 17.2183)
(-5.40037e-16 -9.50776 15.8401)
(-6.25934e-17 -8.69956 14.4946)
(6.12109e-16 -7.87884 13.1394)
(-1.70663e-15 -6.9372 11.5857)
(-1.5471e-15 -5.68589 9.52074)
(-2.06357e-15 -4.03702 6.75918)
(-4.72011e-15 -1.69457 3.1242)
(7.53338e-16 -2.03209 2.91375)
(1.28084e-14 -10.0615 16.564)
(1.12463e-14 -13.9568 23.3511)
(5.55502e-15 -13.9161 23.2951)
(2.31588e-15 -12.5615 21.182)
(4.61886e-16 -11.4824 19.4986)
(1.62445e-15 -10.727 18.2765)
(1.983e-15 -10.0269 17.1198)
(1.6847e-16 -9.33526 15.9471)
(3.08203e-16 -8.65348 14.7714)
(2.57585e-16 -7.95377 13.5658)
(-1.83504e-15 -7.13589 12.1579)
(-1.96396e-15 -6.0091 10.2596)
(-2.13232e-15 -4.54308 7.78677)
(-2.98058e-15 -2.24169 4.47031)
(2.44296e-15 -3.9304 8.23606)
(1.29634e-14 -11.0106 18.3609)
(1.40632e-14 -15.3296 25.014)
(8.85063e-15 -16.8461 26.0877)
(4.66383e-15 -16.2769 24.3323)
(1.67146e-15 -15.0642 21.8629)
(3.24017e-16 -13.7438 19.597)
(7.70055e-16 -12.495 17.6772)
(2.62787e-16 -11.2949 15.9099)
(-5.24337e-16 -10.1324 14.309)
(-2.70454e-16 -8.99405 12.7869)
(-1.83078e-15 -7.78247 11.1767)
(-1.94622e-15 -6.372 9.23233)
(-3.30913e-15 -4.42953 6.2882)
(-4.2097e-15 -0.956262 1.8639)
(-1.05635e-16 0.742419 -3.71763)
(1.2813e-16 0.57431 -6.2471)
(2.07186e-16 0.794882 -4.3961)
(1.87367e-16 1.26053 -4.33375)
(1.22904e-16 1.72098 -4.11239)
(4.54313e-17 2.00741 -5.76535)
(8.24374e-17 2.11845 -4.00302)
(6.26043e-17 2.45328 -3.925)
(6.00916e-18 2.80913 -3.75226)
(-1.31116e-15 3.21603 -4.8979)
(2.67403e-16 3.10374 -3.51706)
(2.62438e-16 3.4048 -3.30102)
(1.57377e-16 4.21655 -4.06555)
(1.51922e-16 3.69552 -2.97663)
(1.39187e-16 3.98963 -2.9126)
(1.26957e-16 4.15249 -2.81874)
(2.26625e-17 5.124 -3.28048)
(7.38139e-17 4.17971 -2.50359)
(7.84622e-17 4.35763 -2.39636)
(-1.32645e-17 5.74047 -2.62081)
(2.59473e-17 4.39642 -2.03585)
(1.37282e-17 4.70188 -1.99651)
(2.67912e-17 4.73135 -1.96701)
(-4.91457e-17 6.01151 -1.98428)
(4.63443e-18 4.45075 -1.62253)
(-5.62461e-18 4.80389 -1.58956)
(-2.58097e-17 4.81577 -1.58529)
(-8.94223e-17 6.04907 -1.43094)
(-3.20593e-17 4.42546 -1.2389)
(-2.59794e-17 4.48704 -1.25137)
(-1.28497e-16 6.01491 -0.93161)
(-5.45082e-17 4.20131 -0.871135)
(-5.096e-17 4.42689 -0.853128)
(-4.84804e-17 4.39491 -0.88457)
(-1.57255e-16 5.585 -0.492036)
(-8.26021e-17 3.91043 -0.53297)
(-7.33212e-17 3.91292 -0.585963)
(-1.60031e-16 5.28158 -0.118307)
(-8.59114e-17 3.53365 -0.233501)
(-1.00298e-16 3.69739 -0.228004)
(-6.59198e-17 3.64999 -0.275037)
(-1.23916e-16 4.62777 0.206052)
(-6.32687e-17 3.08087 0.0344658)
(-6.4414e-17 3.25492 0.0388503)
(-6.37696e-17 3.23345 -0.00821339)
(-1.02899e-16 3.89539 0.476007)
(-1.05065e-16 2.68004 0.300211)
(-8.22824e-17 2.66433 0.235871)
(-2.46734e-16 3.38044 0.784777)
(-1.21454e-16 2.37045 0.62156)
(-5.42249e-17 2.39659 0.628203)
(-6.59783e-18 2.38653 0.567746)
(-3.58201e-17 2.71648 1.20518)
(2.51664e-18 1.96251 0.912904)
(-1.86235e-17 1.99397 0.912376)
(-5.24256e-16 1.97119 0.855737)
(1.25565e-16 2.13772 1.43726)
(1.39496e-16 1.42121 0.940665)
(-7.05969e-16 1.34401 0.899372)
(1.82826e-16 1.60032 0.999229)
(1.85594e-16 0.728844 0.412366)
(1.7818e-16 0.67068 0.388666)
(1.14415e-16 0.72326 0.43805)
(-1.08703e-14 1.35561 -1.03613)
(-1.51444e-16 -0.386202 -0.00300718)
(-6.46638e-16 0.109724 0.283357)
(-1.67939e-15 0.0829741 1.54755)
(-1.35995e-15 -1.32075 3.43447)
(-1.23545e-15 -1.30185 3.37589)
(-1.27151e-15 -1.29516 3.54645)
(-1.56583e-15 -2.74456 6.49561)
(-1.09957e-15 -3.18627 6.15019)
(-1.15205e-15 -3.44859 6.26079)
(-1.14431e-15 -3.60581 6.4359)
(-3.90284e-16 -6.25104 10.0937)
(-7.34245e-16 -5.68321 8.17764)
(-7.88905e-16 -5.96994 8.65934)
(-7.68864e-16 -9.34357 12.7476)
(-5.29719e-16 -8.35984 9.79447)
(-6.89958e-16 -8.72748 10.4911)
(-1.23221e-15 -9.5774 12.1739)
(-1.05382e-15 -9.45155 12.0967)
(-9.87676e-16 -9.6277 12.3746)
(3.21869e-16 -11.6371 15.2476)
(-3.23248e-16 -10.3486 13.4037)
(-9.29147e-17 -10.6996 14.122)
(-5.81754e-17 -10.6932 14.2802)
(-1.82507e-17 -10.7655 14.4051)
(3.96821e-17 -10.8601 14.5551)
(1.04189e-16 -10.9388 14.7309)
(2.03461e-16 -11.0315 15.0557)
(3.5123e-16 -11.1651 15.4506)
(1.40448e-15 -11.9195 16.8639)
(7.64546e-16 -11.5033 15.8621)
(8.77966e-16 -11.6411 16.0953)
(9.24187e-16 -11.6208 16.2324)
(1.07201e-15 -11.7826 16.6181)
(1.1137e-15 -11.7539 16.6558)
(1.1782e-15 -11.833 16.8074)
(1.24584e-15 -11.8879 16.9388)
(1.34212e-15 -11.9546 17.096)
(2.56718e-15 -12.3941 18.1879)
(2.07719e-15 -12.0049 17.4693)
(2.17998e-15 -12.1104 17.6538)
(2.21826e-15 -12.1372 17.7502)
(2.28179e-15 -12.1751 17.89)
(2.30828e-15 -12.2143 18.0992)
(2.31354e-15 -12.2843 18.3314)
(2.38068e-15 -12.2848 18.4096)
(2.45047e-15 -12.3537 18.5397)
(2.53315e-15 -12.4116 18.6522)
(3.48502e-15 -12.1596 18.9189)
(3.00515e-15 -12.0785 18.6457)
(3.12144e-15 -12.1146 18.7637)
(3.18344e-15 -12.1409 18.8398)
(3.27595e-15 -12.1735 18.9345)
(3.39481e-15 -12.161 19.052)
(3.60159e-15 -12.2164 19.3075)
(3.70062e-15 -12.2463 19.3999)
(3.80068e-15 -12.2933 19.4077)
(4.11236e-15 -11.2391 18.4341)
(3.94667e-15 -11.4673 18.6958)
(4.03369e-15 -11.4329 18.83)
(4.03263e-15 -11.466 18.9823)
(4.19764e-15 -11.4109 18.9204)
(4.3231e-15 -11.4083 18.9159)
(4.4708e-15 -11.3865 18.893)
(4.65521e-15 -11.3777 18.8994)
(5.0437e-15 -11.4603 19.0869)
(5.72126e-15 -9.26049 16.3312)
(5.36668e-15 -10.0957 17.67)
(5.56432e-15 -9.93007 17.4146)
(5.73126e-15 -9.89448 17.3223)
(6.11568e-15 -9.85978 17.3526)
(6.18633e-15 -9.758 17.133)
(6.21902e-15 -9.66511 16.8005)
(6.2904e-15 -9.63389 16.4386)
(6.34766e-15 -9.50063 15.9768)
(6.44607e-15 -6.72136 11.7737)
(6.91592e-15 -7.82146 14.4549)
(6.77457e-15 -7.46273 13.6558)
(6.67756e-15 -7.40828 13.1746)
(6.57778e-15 -7.2597 12.5258)
(6.53588e-15 -7.18416 11.8166)
(6.93812e-15 -6.90904 10.9393)
(6.40349e-15 -6.86547 10.2576)
(6.09968e-15 -6.68089 9.42536)
(5.67265e-15 -6.34192 8.51379)
(2.9599e-15 -3.65091 2.58455)
(4.96185e-15 -4.68079 6.661)
(4.3199e-15 -4.14786 5.13009)
(4.02354e-15 -4.14392 4.55856)
(3.59648e-15 -3.88385 3.67818)
(3.07413e-15 -3.82954 2.68809)
(2.05334e-15 -3.66086 1.16037)
(1.05405e-15 -3.2424 -0.285697)
(1.25247e-15 -3.15461 -0.393218)
(1.26458e-15 -3.03788 -2.76427)
(9.49344e-16 -2.47332 -0.0500014)
(9.07529e-16 -2.2353 -0.861608)
(3.48411e-16 -1.88199 -2.72749)
(3.40587e-16 -2.04118 -2.38672)
(3.86954e-16 -1.63128 -2.09697)
(2.75849e-16 -1.14267 -1.62733)
(-4.54646e-17 -1.2216 -1.97333)
(1.91958e-16 -0.702064 -1.44088)
(7.93156e-16 -0.554167 -1.50861)
(1.89848e-16 -0.480122 -1.13468)
(-1.62856e-16 -0.392586 -1.25671)
(-2.13104e-16 -0.0441323 -1.21091)
(5.08277e-16 0.239009 -1.36146)
(3.7636e-16 0.2128 -1.09352)
(5.40791e-16 0.545186 -1.27144)
(6.83029e-16 0.598053 -1.01747)
(1.14509e-16 0.80146 -1.15422)
(4.71253e-17 1.18401 -1.12919)
(1.44516e-16 0.932457 -0.85029)
(2.42789e-16 1.48378 -0.955212)
(2.56334e-16 1.26583 -0.788024)
(5.21903e-16 1.53693 -0.848111)
(4.14842e-16 1.83385 -0.813089)
(3.2136e-16 1.45776 -0.670342)
(4.84758e-16 1.87614 -0.692686)
(2.99114e-16 2.21111 -0.632088)
(1.99924e-16 1.62157 -0.572209)
(3.23788e-16 2.41696 -0.557172)
(2.27858e-16 1.86598 -0.527845)
(2.3282e-16 2.23234 -0.528557)
(2.78458e-16 2.50436 -0.441705)
(2.00172e-16 1.8262 -0.446298)
(2.38334e-16 2.74105 -0.396684)
(2.01398e-16 2.07263 -0.40689)
(1.57025e-16 2.4584 -0.394006)
(1.22282e-16 2.67439 -0.29994)
(1.61426e-16 1.99228 -0.3324)
(2.11039e-16 2.57228 -0.300317)
(7.36992e-17 2.85716 -0.201384)
(9.37025e-17 2.00537 -0.268781)
(1.02025e-16 2.94392 -0.18733)
(9.0072e-17 2.21842 -0.240953)
(7.51916e-17 2.60657 -0.201226)
(-4.29374e-17 2.84707 -0.112904)
(2.27002e-17 2.01702 -0.182835)
(6.10323e-17 3.02634 -0.107101)
(3.01169e-17 2.26968 -0.159156)
(1.98799e-17 2.6385 -0.126668)
(-6.70137e-17 2.85396 -0.0682935)
(-2.27714e-17 2.06684 -0.107643)
(-2.05272e-17 2.7003 -0.0721126)
(-6.79639e-17 3.02151 -0.0300089)
(-4.1911e-17 2.05111 -0.0625092)
(-3.46903e-17 3.02138 -0.0249708)
(-3.95291e-17 2.29284 -0.0571208)
(-6.41354e-17 2.64129 -0.0392648)
(-1.09584e-16 2.92893 -0.0156589)
(-8.547e-17 2.03502 -0.0305685)
(-1.07219e-16 3.07516 -0.0129316)
(-8.96474e-17 2.32662 -0.03246)
(-1.13294e-16 2.65904 -0.0332605)
(-9.99433e-17 2.92657 -0.0328048)
(-8.8208e-17 2.09354 -0.0180541)
(-1.03966e-16 2.74811 -0.0178776)
(-1.68217e-17 3.13654 -0.0296703)
(-3.07886e-17 2.09011 -0.00328479)
(-9.20035e-18 3.11039 -0.0270686)
(-2.35699e-17 2.36848 -0.0211449)
(-9.56819e-18 2.70861 -0.0433154)
(2.55828e-16 3.06007 -0.06065)
(-3.40013e-17 2.11434 -0.0282182)
(1.34598e-17 3.21181 -0.0620443)
(-1.71774e-17 2.43906 -0.0510715)
(-2.90245e-18 2.7833 -0.0881854)
(3.51279e-16 3.10617 -0.11891)
(3.06696e-17 2.23141 -0.0685959)
(-9.14856e-17 2.91667 -0.103358)
(2.11215e-16 3.3792 -0.147728)
(6.2602e-17 2.25281 -0.0820715)
(2.37974e-16 3.40937 -0.163806)
(1.55283e-16 2.5531 -0.114515)
(1.92669e-16 3.05439 -0.218915)
(-9.11443e-16 -0.538787 0.245229)
(-9.11306e-16 -0.766962 0.328171)
(-9.10817e-16 -1.04394 0.374494)
(-9.10056e-16 -1.30639 0.403033)
(-9.08726e-16 -1.56469 0.40523)
(-9.06825e-16 -1.75268 0.373841)
(-9.04586e-16 -1.81373 0.310887)
(-9.02616e-16 -1.7329 0.216799)
(-9.01401e-16 -1.72052 0.125552)
(-9.00221e-16 -1.44391 -0.0966329)
(-8.99156e-16 -0.863829 -0.192459)
(-8.98222e-16 -0.278673 -0.263714)
(-8.98087e-16 0.949822 -0.308778)
(-8.97824e-16 1.30917 -0.0159371)
(-8.97792e-16 1.47942 0.294721)
(-8.99214e-16 1.60242 0.521877)
(-9.03095e-16 1.49342 0.569014)
(-9.07851e-16 1.05549 0.437891)
(-9.10565e-16 -0.0197024 0.323985)
(-9.07948e-16 -0.219795 -0.129397)
(-8.74962e-16 -1.7913 -0.310566)
(-8.37158e-16 -0.689823 -0.210365)
(-8.1276e-16 -0.158468 0.223247)
(-8.18062e-16 -1.16933 0.0937085)
(-8.24421e-16 0.346202 0.0819005)
(-8.35201e-16 0.92214 0.461746)
(-8.43544e-16 1.3032 0.68549)
(-8.32038e-16 1.43715 0.810699)
(-8.03797e-16 1.05397 0.660907)
(-7.82959e-16 0.0414945 0.15049)
(-7.84599e-16 -0.68605 0.242551)
(-7.83844e-16 -2.3127 0.379496)
(-7.72055e-16 -2.49002 -0.14599)
(-7.63435e-16 -1.72909 -0.312846)
(-7.58208e-16 -1.13866 -0.402045)
(-7.55577e-16 -0.758146 -0.438377)
(-7.54568e-16 -0.508304 -0.444398)
(-7.54031e-16 -0.389367 -0.466798)
(-7.53673e-16 -0.271465 -0.445601)
(-7.53432e-16 -0.572113 -0.315965)
(-7.53855e-16 -0.372024 -0.33967)
(-7.54177e-16 -0.616146 -0.162838)
(-7.55591e-16 -0.413844 -0.249154)
(-7.57524e-16 -0.255244 -0.304675)
(-7.5829e-16 -0.461076 -0.253766)
(-7.58752e-16 -0.462649 -0.301673)
(-7.59667e-16 -0.121103 -0.376301)
(-7.60792e-16 0.182611 -0.387435)
(-7.61881e-16 0.453454 -0.3598)
(-7.62906e-16 0.676134 -0.31595)
(-7.64203e-16 0.850337 -0.242582)
(-7.66124e-16 1.01717 -0.240905)
(-7.69576e-16 1.10483 -0.089507)
(-7.72934e-16 1.33888 -0.335985)
(-7.60774e-16 0.900585 -0.0643865)
(-5.36549e-16 -5.45262 -0.219811)
(-3.49402e-16 -7.34998 -0.269932)
(-1.40049e-16 -0.646115 -0.167207)
(3.82174e-16 1.07674 0.066888)
(3.50954e-16 0.872826 0.0837695)
(3.61901e-16 0.373369 0.357997)
(3.59879e-16 -0.335192 0.40933)
(3.59645e-16 -0.894202 -0.150159)
(3.60509e-16 0.400002 0.0182956)
(3.63271e-16 -0.287764 -0.195485)
(3.65935e-16 -0.221776 0.108148)
(3.70577e-16 -0.441734 0.407991)
(3.72206e-16 -0.915012 0.571653)
(3.65043e-16 -1.37779 0.727367)
(3.43589e-16 -1.71706 0.781165)
(3.23493e-16 -1.34735 0.692465)
(4.55307e-16 -0.133189 0.515217)
(7.6246e-16 -0.637424 0.643481)
(9.95739e-16 -1.27838 0.753743)
(1.06692e-15 -1.44111 0.667903)
(9.81525e-16 -1.03165 0.494908)
(9.32949e-16 0.548184 0.0047196)
(8.79517e-16 1.53481 -0.0208971)
(7.61996e-16 2.18637 -0.336002)
(-9.11443e-16 -0.549686 0.259561)
(-9.11284e-16 -0.77564 0.345526)
(-9.10787e-16 -1.04158 0.391205)
(-9.10007e-16 -1.29297 0.418803)
(-9.08661e-16 -1.53812 0.418946)
(-9.06755e-16 -1.71005 0.384504)
(-9.04531e-16 -1.75385 0.315939)
(-9.02589e-16 -1.66219 0.217752)
(-9.01392e-16 -1.63706 0.124917)
(-9.0023e-16 -1.33885 -0.0961436)
(-8.99193e-16 -0.705972 -0.203344)
(-8.98337e-16 0.0276716 -0.339477)
(-8.9816e-16 0.898322 -0.291603)
(-8.97906e-16 1.20427 0.00580573)
(-8.97856e-16 1.39148 0.258445)
(-8.98672e-16 1.55677 0.500128)
(-9.01869e-16 1.49876 0.590569)
(-9.06783e-16 1.09184 0.441901)
(-9.10661e-16 0.343586 0.262611)
(-9.08713e-16 -0.126446 -0.160964)
(-8.76091e-16 -1.74393 -0.355713)
(-8.38788e-16 -0.835676 -0.287444)
(-8.13884e-16 -0.771179 0.332899)
(-8.18298e-16 -1.05185 0.0128002)
(-8.21432e-16 0.270442 0.00331361)
(-8.32645e-16 0.819463 0.375817)
(-8.45529e-16 1.24336 0.622779)
(-8.38864e-16 1.43741 0.805995)
(-8.10077e-16 1.12969 0.737825)
(-7.84466e-16 0.143056 0.244702)
(-7.84748e-16 -0.882064 0.159548)
(-7.83752e-16 -2.31923 0.337685)
(-7.72107e-16 -2.52028 -0.163224)
(-7.63612e-16 -1.82127 -0.29305)
(-7.58395e-16 -1.28481 -0.363758)
(-7.55707e-16 -0.934875 -0.385506)
(-7.54628e-16 -0.707109 -0.37961)
(-7.54086e-16 -0.569882 -0.391909)
(-7.5373e-16 -0.460366 -0.371827)
(-7.5343e-16 -0.586054 -0.322909)
(-7.5375e-16 -0.4599 -0.354334)
(-7.541e-16 -0.610874 -0.209924)
(-7.55415e-16 -0.416899 -0.270295)
(-7.57231e-16 -0.318136 -0.204186)
(-7.58086e-16 -0.711062 -0.0493567)
(-7.58933e-16 -0.457288 -0.29772)
(-7.59995e-16 -0.135897 -0.370608)
(-7.6116e-16 0.172501 -0.383697)
(-7.62227e-16 0.440835 -0.3546)
(-7.63233e-16 0.659467 -0.313163)
(-7.64595e-16 0.837653 -0.240178)
(-7.66477e-16 0.995451 -0.247646)
(-7.69921e-16 1.11738 -0.0992162)
(-7.73646e-16 1.33768 -0.347916)
(-7.58609e-16 0.891767 -0.108704)
(-5.37828e-16 -5.45662 -0.239651)
(-3.50404e-16 -7.35261 -0.297057)
(-1.33555e-16 -0.866388 -0.0796834)
(3.81724e-16 1.04976 0.023572)
(3.50174e-16 0.846618 0.0475548)
(3.61846e-16 0.385555 0.229782)
(3.59856e-16 -0.340534 0.305392)
(3.59643e-16 -0.767995 -0.201003)
(3.60446e-16 0.553666 0.0112115)
(3.63356e-16 -0.0556993 -0.0324551)
(3.66502e-16 0.0248664 0.270622)
(3.71025e-16 -0.394217 0.456201)
(3.71996e-16 -0.937189 0.603368)
(3.63577e-16 -1.39829 0.752325)
(3.40661e-16 -1.65769 0.773938)
(3.29335e-16 -1.18901 0.610696)
(5.11488e-16 -0.0187263 0.352836)
(8.00395e-16 -0.6788 0.666832)
(1.00694e-15 -1.27827 0.767246)
(1.06286e-15 -1.4146 0.672404)
(9.77648e-16 -0.933293 0.463675)
(9.31019e-16 0.614399 -0.0225438)
(8.66232e-16 1.57799 -0.0146327)
(7.34563e-16 2.22424 -0.262651)
(-9.11441e-16 -0.56237 0.268241)
(-9.11256e-16 -0.794775 0.356582)
(-9.10747e-16 -1.05717 0.40107)
(-9.09944e-16 -1.30547 0.428182)
(-9.08579e-16 -1.5458 0.427222)
(-9.06667e-16 -1.71198 0.391232)
(-9.04462e-16 -1.75092 0.319452)
(-9.02556e-16 -1.65962 0.217858)
(-9.01378e-16 -1.62605 0.124278)
(-9.00237e-16 -1.33537 -0.0883247)
(-8.99232e-16 -0.735818 -0.195058)
(-8.98445e-16 -0.0738847 -0.330433)
(-8.98192e-16 0.866381 -0.229478)
(-8.97945e-16 1.17415 0.00617206)
(-8.9796e-16 1.35703 0.24186)
(-8.9858e-16 1.52817 0.480807)
(-9.01218e-16 1.50235 0.590641)
(-9.05726e-16 1.12437 0.437026)
(-9.09874e-16 0.337566 0.169369)
(-9.09776e-16 0.0121531 -0.16352)
(-8.77489e-16 -1.7047 -0.383227)
(-8.40965e-16 -0.901268 -0.345041)
(-8.15941e-16 -0.492048 0.161782)
(-8.18383e-16 -1.13279 -0.0897004)
(-8.19603e-16 0.243197 -0.0546165)
(-8.30014e-16 0.771358 0.308073)
(-8.45063e-16 1.20231 0.562526)
(-8.42696e-16 1.42078 0.777424)
(-8.15217e-16 1.16685 0.767405)
(-7.86399e-16 0.217303 0.349497)
(-7.84909e-16 -0.831137 0.155818)
(-7.83642e-16 -2.25659 0.310032)
(-7.72182e-16 -2.43367 -0.178367)
(-7.6384e-16 -1.75995 -0.287138)
(-7.58636e-16 -1.22152 -0.348723)
(-7.55879e-16 -0.865657 -0.360048)
(-7.5471e-16 -0.631167 -0.346097)
(-7.54153e-16 -0.504343 -0.351704)
(-7.53784e-16 -0.397694 -0.324441)
(-7.53415e-16 -0.567484 -0.320537)
(-7.53627e-16 -0.459371 -0.341889)
(-7.54042e-16 -0.594051 -0.217848)
(-7.55358e-16 -0.443021 -0.257987)
(-7.57137e-16 -0.33518 -0.205162)
(-7.5804e-16 -0.590608 -0.0713958)
(-7.59067e-16 -0.43609 -0.301757)
(-7.60273e-16 -0.125246 -0.369705)
(-7.61514e-16 0.17434 -0.385201)
(-7.62597e-16 0.435377 -0.357336)
(-7.63627e-16 0.649782 -0.319107)
(-7.65e-16 0.830553 -0.248709)
(-7.66777e-16 0.986457 -0.258772)
(-7.70194e-16 1.12438 -0.113091)
(-7.7423e-16 1.34383 -0.34897)
(-7.55984e-16 0.863008 -0.117883)
(-5.39237e-16 -5.40275 -0.235566)
(-3.51571e-16 -7.34091 -0.295858)
(-1.34912e-16 -0.880331 -0.140163)
(3.80403e-16 1.06828 0.0196776)
(3.49819e-16 0.828767 0.0399307)
(3.61756e-16 0.365051 0.177935)
(3.59832e-16 -0.278535 0.250173)
(3.5963e-16 -0.724402 -0.174747)
(3.60754e-16 0.362082 -0.0148501)
(3.63586e-16 -0.132767 0.00450744)
(3.67211e-16 -0.161335 0.308357)
(3.7153e-16 -0.484229 0.459432)
(3.71653e-16 -0.987346 0.607148)
(3.61549e-16 -1.43183 0.77112)
(3.37191e-16 -1.65665 0.782525)
(3.3779e-16 -1.14297 0.573105)
(5.65727e-16 -0.0659619 0.289106)
(8.40261e-16 -0.706886 0.659529)
(1.01877e-15 -1.28688 0.756163)
(1.05762e-15 -1.39277 0.660176)
(9.73111e-16 -0.875345 0.444444)
(9.26522e-16 0.651352 -0.0431615)
(8.54983e-16 1.59234 -0.0156562)
(7.18972e-16 2.23915 -0.227494)
(-9.11438e-16 -0.572092 0.276966)
(-9.11226e-16 -0.806772 0.366945)
(-9.10705e-16 -1.06361 0.409899)
(-9.09877e-16 -1.30747 0.436451)
(-9.08492e-16 -1.54229 0.434321)
(-9.06575e-16 -1.70228 0.39688)
(-9.04391e-16 -1.73583 0.322611)
(-9.02521e-16 -1.64378 0.218871)
(-9.01364e-16 -1.5972 0.124548)
(-9.00243e-16 -1.30755 -0.0791574)
(-8.99266e-16 -0.726612 -0.18061)
(-8.98533e-16 -0.0913901 -0.306291)
(-8.98218e-16 0.846248 -0.207502)
(-8.97988e-16 1.11963 0.00903224)
(-8.98058e-16 1.30685 0.223605)
(-8.98465e-16 1.49214 0.456471)
(-9.00527e-16 1.50233 0.588163)
(-9.04593e-16 1.15841 0.437723)
(-9.08048e-16 0.447937 0.0973539)
(-9.1107e-16 -0.0204772 -0.164206)
(-8.78943e-16 -1.67429 -0.400377)
(-8.43226e-16 -0.980701 -0.390745)
(-8.18109e-16 -0.488097 0.0459678)
(-8.18306e-16 -1.06468 -0.198218)
(-8.18322e-16 0.195121 -0.118711)
(-8.27326e-16 0.706861 0.232818)
(-8.44143e-16 1.14916 0.492601)
(-8.46515e-16 1.39756 0.737616)
(-8.21145e-16 1.20171 0.785607)
(-7.88953e-16 0.297893 0.435125)
(-7.85029e-16 -0.82487 0.164839)
(-7.83532e-16 -2.20454 0.287452)
(-7.72271e-16 -2.36457 -0.192175)
(-7.64085e-16 -1.72388 -0.287092)
(-7.58896e-16 -1.19733 -0.341913)
(-7.56073e-16 -0.843586 -0.344455)
(-7.54813e-16 -0.611105 -0.325601)
(-7.54234e-16 -0.483004 -0.325028)
(-7.53848e-16 -0.384901 -0.292626)
(-7.53429e-16 -0.561399 -0.311567)
(-7.53584e-16 -0.474817 -0.33189)
(-7.54024e-16 -0.602762 -0.222752)
(-7.55287e-16 -0.460821 -0.248118)
(-7.57025e-16 -0.366397 -0.208733)
(-7.57963e-16 -0.554051 -0.101582)
(-7.59115e-16 -0.401775 -0.308618)
(-7.6046e-16 -0.116753 -0.371145)
(-7.61797e-16 0.173139 -0.38651)
(-7.62928e-16 0.428576 -0.359624)
(-7.64005e-16 0.639584 -0.323575)
(-7.65393e-16 0.822185 -0.254823)
(-7.67079e-16 0.975429 -0.265851)
(-7.70477e-16 1.13123 -0.123948)
(-7.74693e-16 1.3473 -0.349411)
(-7.5336e-16 0.843124 -0.131761)
(-5.40555e-16 -5.37235 -0.223641)
(-3.52695e-16 -7.33568 -0.28771)
(-1.40537e-16 -0.984876 -0.188191)
(3.79549e-16 1.05577 0.00325034)
(3.49523e-16 0.813753 0.0296178)
(3.61644e-16 0.360925 0.16546)
(3.59786e-16 -0.256462 0.216922)
(3.59621e-16 -0.69234 -0.138942)
(3.60929e-16 0.260435 0.00659668)
(3.63781e-16 -0.205312 0.0210338)
(3.67787e-16 -0.218072 0.33185)
(3.71988e-16 -0.528201 0.474282)
(3.7116e-16 -1.01356 0.621018)
(3.59029e-16 -1.44555 0.792842)
(3.33618e-16 -1.63539 0.790765)
(3.48374e-16 -1.09399 0.54259)
(6.14713e-16 -0.153458 0.264313)
(8.75628e-16 -0.752046 0.65048)
(1.02889e-15 -1.2889 0.737709)
(1.05206e-15 -1.35846 0.638041)
(9.68652e-16 -0.807926 0.417323)
(9.23795e-16 0.696503 -0.0671672)
(8.42947e-16 1.61508 -0.0159462)
(7.01584e-16 2.25261 -0.217532)
(-9.11434e-16 -0.582344 0.286891)
(-9.11195e-16 -0.81825 0.377979)
(-9.10661e-16 -1.06934 0.419146)
(-9.09808e-16 -1.30846 0.444979)
(-9.08403e-16 -1.53734 0.441376)
(-9.06482e-16 -1.69032 0.40219)
(-9.04319e-16 -1.71739 0.325502)
(-9.02486e-16 -1.62404 0.220256)
(-9.01349e-16 -1.56671 0.125158)
(-9.00248e-16 -1.2738 -0.0706908)
(-8.99297e-16 -0.702683 -0.167801)
(-8.98603e-16 -0.0762883 -0.286682)
(-8.98238e-16 0.80637 -0.189352)
(-8.98029e-16 1.07592 0.01152)
(-8.98164e-16 1.26515 0.205736)
(-8.98453e-16 1.45646 0.430749)
(-8.99979e-16 1.49924 0.579954)
(-9.03535e-16 1.19711 0.448685)
(-9.07026e-16 0.533654 0.099134)
(-9.12127e-16 -0.00634901 -0.168246)
(-8.80408e-16 -1.63386 -0.412247)
(-8.45436e-16 -1.04891 -0.426633)
(-8.20336e-16 -0.490695 -0.036021)
(-8.18127e-16 -1.119 -0.266767)
(-8.17561e-16 0.14931 -0.180718)
(-8.24654e-16 0.648209 0.154085)
(-8.42364e-16 1.09446 0.414445)
(-8.49588e-16 1.36574 0.683245)
(-8.2751e-16 1.22347 0.785912)
(-7.92276e-16 0.370408 0.49893)
(-7.85073e-16 -0.814149 0.178906)
(-7.83426e-16 -2.15463 0.265397)
(-7.72372e-16 -2.31026 -0.207635)
(-7.6434e-16 -1.7039 -0.292255)
(-7.5917e-16 -1.19188 -0.340643)
(-7.56285e-16 -0.844253 -0.33376)
(-7.54939e-16 -0.615797 -0.309577)
(-7.54326e-16 -0.485466 -0.302929)
(-7.53925e-16 -0.385227 -0.267526)
(-7.53469e-16 -0.549198 -0.298937)
(-7.53581e-16 -0.485814 -0.321578)
(-7.54028e-16 -0.589308 -0.230301)
(-7.55248e-16 -0.467135 -0.246961)
(-7.56901e-16 -0.384532 -0.216154)
(-7.57877e-16 -0.519331 -0.135414)
(-7.59193e-16 -0.379253 -0.32)
(-7.6066e-16 -0.111497 -0.377856)
(-7.62088e-16 0.170987 -0.392737)
(-7.63283e-16 0.421569 -0.366498)
(-7.64412e-16 0.629739 -0.331533)
(-7.65798e-16 0.813697 -0.26408)
(-7.67392e-16 0.966277 -0.274001)
(-7.70775e-16 1.13642 -0.135574)
(-7.75137e-16 1.35271 -0.34735)
(-7.5035e-16 0.817911 -0.13655)
(-5.41723e-16 -5.35283 -0.208088)
(-3.53707e-16 -7.32842 -0.274987)
(-1.46019e-16 -1.03587 -0.212944)
(3.79367e-16 1.04169 -0.00823943)
(3.49255e-16 0.797981 0.0211759)
(3.61585e-16 0.353803 0.165126)
(3.59732e-16 -0.239795 0.205515)
(3.5962e-16 -0.643375 -0.109286)
(3.60983e-16 0.207345 0.0046618)
(3.63902e-16 -0.22061 0.0206152)
(3.68251e-16 -0.233124 0.329586)
(3.72389e-16 -0.561342 0.483888)
(3.70438e-16 -1.04531 0.641018)
(3.55942e-16 -1.46178 0.817551)
(3.30205e-16 -1.60569 0.796547)
(3.61492e-16 -1.032 0.513865)
(6.59942e-16 -0.205117 0.259973)
(9.06169e-16 -0.78609 0.644435)
(1.03687e-15 -1.28422 0.715379)
(1.04633e-15 -1.31971 0.608546)
(9.64529e-16 -0.733742 0.381604)
(9.21413e-16 0.727283 -0.091194)
(8.30372e-16 1.63052 -0.0173865)
(6.84042e-16 2.25844 -0.169696)
(-9.11427e-16 -0.593592 0.298017)
(-9.11163e-16 -0.830775 0.389911)
(-9.10615e-16 -1.07631 0.429149)
(-9.09737e-16 -1.31072 0.454144)
(-9.08313e-16 -1.53346 0.448834)
(-9.06387e-16 -1.67905 0.407711)
(-9.04247e-16 -1.69924 0.328608)
(-9.02451e-16 -1.60451 0.222103)
(-9.01333e-16 -1.53897 0.126289)
(-9.00251e-16 -1.24387 -0.062499)
(-8.99323e-16 -0.683278 -0.156244)
(-8.98658e-16 -0.0661592 -0.268368)
(-8.98256e-16 0.780346 -0.173108)
(-8.98066e-16 1.03489 0.0119514)
(-8.9826e-16 1.22402 0.188221)
(-8.98502e-16 1.41903 0.403423)
(-8.99556e-16 1.49217 0.564633)
(-9.02537e-16 1.23921 0.463317)
(-9.06119e-16 0.607296 0.147187)
(-9.13116e-16 0.0561445 -0.170845)
(-8.8188e-16 -1.58466 -0.421613)
(-8.47532e-16 -1.10627 -0.455176)
(-8.22487e-16 -0.504504 -0.104222)
(-8.1807e-16 -1.06113 -0.275326)
(-8.17358e-16 0.100079 -0.242279)
(-8.22286e-16 0.590518 0.0727659)
(-8.399e-16 1.03676 0.329769)
(-8.51757e-16 1.32648 0.615255)
(-8.34145e-16 1.23562 0.768945)
(-7.96508e-16 0.438783 0.541869)
(-7.85002e-16 -0.791065 0.195835)
(-7.83328e-16 -2.10374 0.241306)
(-7.72491e-16 -2.26155 -0.225659)
(-7.64606e-16 -1.68923 -0.302029)
(-7.59457e-16 -1.18887 -0.344128)
(-7.56513e-16 -0.846008 -0.327782)
(-7.55085e-16 -0.620025 -0.29817)
(-7.5443e-16 -0.488433 -0.286101)
(-7.54011e-16 -0.386779 -0.246701)
(-7.53529e-16 -0.535997 -0.284583)
(-7.53614e-16 -0.496223 -0.31177)
(-7.54058e-16 -0.583071 -0.238463)
(-7.55245e-16 -0.47832 -0.250149)