/*--------------------------------*- C++ -*----------------------------------*\
| =========                 |                                                 |
| \\      /  F ield         | OpenFOAM: The Open Source CFD Toolbox           |
|  \\    /   O peration     | Version:  4.1                                   |
|   \\  /    A nd           | Web:      www.OpenFOAM.org                      |
|    \\/     M anipulation  |                                                 |
\*---------------------------------------------------------------------------*/
FoamFile
{
    version     2.0;
    format      ascii;
    class       volScalarField;
    location    "2";
    object      p;
}
// * * * * * * * * * * * * * * * * * * * * * * * * * * * * * * * * * * * * * //

dimensions      [0 2 -2 0 0 0 0];

internalField   nonuniform List<scalar> 
6785
(
523.041
444.31
397.23
343.668
296.804
251.632
209.566
169.752
132.165
96.6562
62.4416
29.4038
2.2029
-25.7464
-66.7562
-93.2986
-111.792
-102.13
-109.746
-109.487
-112.334
-113.36
-114.217
-114.092
-113.031
-110.957
-108.103
-103.865
-99.3095
-97.1579
-88.2376
-93.1531
-84.674
-89.9314
-86.9528
-88.9279
-89.0009
-90.2998
-91.3862
-92.8706
-94.4396
-95.987
-96.7095
-96.3581
-94.2919
-69.1768
-72.0381
-68.6921
-73.6371
-71.5596
-74.4033
-74.3906
-75.5962
-75.9955
-76.4613
-76.5543
-76.4459
-75.4208
-73.9683
-71.063
-60.806
-62.1074
-58.4176
-60.6026
-56.7455
-57.1935
-54.774
-53.5563
-51.6473
-49.8519
-47.8712
-45.9771
-43.9548
-42.5353
-40.7384
-43.8159
-44.0313
-40.8031
-42.2852
-39.2397
-39.5422
-37.8224
-37.0721
-35.965
-35.0105
-34.0242
-33.179
-32.245
-31.6675
-30.8208
-31.2195
-31.0614
-28.6482
-29.9531
-27.8386
-28.1473
-27.1192
-26.6665
-26.0156
-25.4137
-24.7653
-24.1981
-23.4966
-23.0766
-22.2491
-21.0287
-20.8532
-19.0599
-20.0743
-18.4595
-18.6734
-17.9252
-17.5527
-17.0615
-16.5891
-16.0828
-15.6415
-15.0848
-14.7715
-14.1111
-13.049
-13.156
-11.9182
-12.7589
-11.5129
-11.8429
-11.2953
-11.1268
-10.8262
-10.5595
-10.2611
-10.0122
-9.67976
-9.51054
-9.12779
-9.01682
-9.34563
-8.53663
-9.2027
-8.26861
-8.67327
-8.23399
-8.21885
-8.02186
-7.89243
-7.71897
-7.59287
-7.40309
-7.3194
-7.12417
-7.0003
-7.37855
-6.80197
-7.33162
-6.67325
-7.01008
-6.66231
-6.70125
-6.54984
-6.49157
-6.37587
-6.31872
-6.20122
-6.16917
-6.06527
-7.3441
-7.52419
-6.94601
-7.34884
-6.80776
-6.96924
-6.67584
-6.65348
-6.48657
-6.40762
-6.26612
-6.19396
-6.04676
-6.0023
-5.85112
-3.8499
-3.94968
-3.43483
-3.87233
-3.51163
-3.65538
-3.51715
-3.54789
-3.49018
-3.50108
-3.46972
-3.4891
-3.46734
-3.49659
-3.50057
-4.57078
-5.19131
-5.61376
-6.49913
-6.61046
-7.08744
-7.28799
-7.54802
-7.68406
-7.75304
-7.70788
-7.63163
-7.38864
-7.27739
-6.87904
-1.62138
-3.41315
-2.48228
-2.36541
-1.81197
-1.40451
-0.605957
0.265771
1.35666
2.41436
3.42368
4.2694
4.76614
5.20933
4.73993
2.98188
2.98178
2.9796
2.98068
2.98029
2.98209
2.97601
2.97375
2.97226
2.97489
2.96019
2.95467
2.95521
2.9295
2.91256
2.90497
2.90273
2.85148
2.83953
2.83421
2.76631
2.72467
2.70955
2.70548
2.59671
2.53562
2.52029
2.52156
2.33355
2.31848
2.30954
2.09629
1.98403
1.96861
1.96839
1.63231
1.62042
1.60752
1.24136
1.05686
1.02978
1.03345
0.538982
0.302293
0.287359
0.309968
-0.445622
-0.444213
-0.448382
-1.26468
-1.65899
-1.70158
-1.64203
-2.75481
-3.27813
-3.30623
-3.12596
-4.89783
-4.89313
-4.81625
-6.64849
-7.51722
-7.56781
-7.31379
-10.1119
-10.0454
-10.0862
-12.9169
-14.1076
-14.1227
-14.0647
-17.9217
-19.4458
-19.1803
-17.8968
-26.1703
-24.1561
-21.5939
-36.3392
-30.4602
-26.6299
-27.3248
-27.5297
-39.1618
-26.6381
-25.4948
-25.2528
-25.4412
-25.6652
-25.9771
-26.1227
-27.4735
-36.446
-27.8837
-28.2059
-27.6927
-27.6409
-27.6042
-27.7102
-27.5323
-28.8164
-39.4121
-29.3198
-29.019
-28.1543
-27.6987
-27.1183
-26.9122
-26.7498
-26.2935
-27.3817
-38.3874
-27.9261
-27.1188
-25.9325
-25.1188
-24.375
-23.7821
-22.8308
-23.9085
-35.5192
-24.2115
-22.8436
-21.2626
-19.981
-18.9595
-18.0555
-16.3511
-17.3705
-29.6521
-17.3216
-15.3169
-13.0634
-11.0717
-9.61389
-8.24099
-6.12732
-7.21486
-18.723
-6.19286
-4.08279
-2.14586
-0.595829
1.72727
3.02201
3.24272
4.32112
1.99356
-7.92569
-2.57644
-4.0788
-4.94608
-5.4945
-7.19051
-10.732
-10.8732
-9.63793
-12.8082
-7.5753
-12.4625
-17.6923
-8.97165
-22.865
-17.6911
-23.6399
-19.0583
-15.2991
-24.8105
-19.3081
-15.9298
-21.9125
-18.6509
-20.0071
-17.4723
-14.0177
-17.5446
-15.0045
-15.4311
-13.3753
-11.1933
-13.1683
-10.9057
-9.75587
-10.5215
-9.41348
-9.4861
-8.56726
-8.06359
-8.7815
-8.56276
-8.74729
-8.87642
-8.92531
-9.4349
-9.54017
-9.40043
-9.51205
-9.85039
-9.46216
-9.3123
-9.28715
-8.23672
-9.17881
-8.73526
-8.23102
-8.29606
-6.11201
-7.23141
-8.1116
-4.68537
-6.70636
-6.84889
-5.70104
-6.36353
-2.09819
-4.91411
-5.47759
-4.44088
-5.34055
-0.581638
-2.61752
-5.08237
1.02851
-1.94079
-3.56706
-2.64858
-3.97758
2.07973
-0.847836
-2.4597
-1.84822
-3.35376
2.05727
0.0995703
-3.39244
3.02359
0.340164
-1.35973
-1.14201
-2.36497
2.6343e-06
6.58965e-06
1.18128e-05
1.69819e-05
2.31518e-05
2.97427e-05
3.71649e-05
4.5238e-05
5.41555e-05
6.38997e-05
7.45989e-05
8.63106e-05
9.91546e-05
0.000113233
0.000128681
0.000145636
0.000164259
0.000184724
0.000207227
0.000231983
0.000259229
0.000289227
0.000322268
0.000358669
0.000398783
0.000442997
0.000491737
0.000545472
0.000604718
0.000670043
0.000742069
0.000821484
0.000909038
0.00100556
0.00111195
0.0012292
0.00135839
0.00150071
0.00165746
0.00183004
0.00201997
0.00222893
0.0024587
0.00271121
0.00298852
0.00329284
0.00362647
0.00399183
0.0043914
0.00482763
0.00530293
0.00581945
0.00637893
0.0069824
0.00762977
0.00831924
0.00904641
0.00980315
0.0105759
0.0113435
0.0120742
0.0127217
0.0132216
0.013482
0.0133915
0.0127783
0.0115043
0.00924407
0.00600194
0.0011677
-0.0047371
-0.0124092
-0.020528
-0.0297151
-0.0342915
-0.0525525
-0.0493026
-0.329164
-0.626887
7.78159e-06
1.96876e-05
3.5359e-05
5.097e-05
6.94375e-05
8.91891e-05
0.000111354
0.000135465
0.000162062
0.000191119
0.000223006
0.000257905
0.000296169
0.000338106
0.000384115
0.00043461
0.000490067
0.000551007
0.000618008
0.00069171
0.000772819
0.000862114
0.000960452
0.00106878
0.00118814
0.00131969
0.00146467
0.00162449
0.00180067
0.00199488
0.00220898
0.00244498
0.00270511
0.00299181
0.00330773
0.0036558
0.00403921
0.00446144
0.0049263
0.0054379
0.00600075
0.00661969
0.00729996
0.00804719
0.00886741
0.00976701
0.0107527
0.0118315
0.0130106
0.0142971
0.0156978
0.0172191
0.018866
0.0206413
0.022545
0.0245718
0.0267093
0.0289345
0.031209
0.0334731
0.0356371
0.0375703
0.0390916
0.0399419
0.0398068
0.0382003
0.0347295
0.0284612
0.0193876
0.00572671
-0.0111494
-0.0333061
-0.0574694
-0.0854412
-0.101812
-0.148597
-0.128817
-0.469736
0.0579018
1.23839e-05
3.20009e-05
5.84292e-05
8.45987e-05
0.000115537
0.000148591
0.000185667
0.000225983
0.000270443
0.000319007
0.000372294
0.000430609
0.000494542
0.000564608
0.000641475
0.000725832
0.000818479
0.000920282
0.00103221
0.00115533
0.00129083
0.00144
0.00160428
0.00178525
0.00198465
0.0022044
0.00244661
0.0027136
0.00300792
0.00333238
0.00369007
0.00408435
0.00451896
0.00499795
0.00552578
0.00610734
0.00674796
0.00745347
0.00823022
0.00908511
0.0100256
0.01106
0.0121968
0.0134456
0.0148165
0.01632
0.0179676
0.0197709
0.0217419
0.0238926
0.0262345
0.0287781
0.0315318
0.0345006
0.0376841
0.0410739
0.044649
0.048371
0.0521754
0.055962
0.0595804
0.062811
0.0653487
0.066758
0.0665071
0.0637781
0.0579005
0.0473043
0.0319513
0.00884985
-0.0197357
-0.0572364
-0.0985022
-0.146399
-0.175615
-0.24676
-0.179236
-0.476414
-0.504772
1.69134e-05
4.42933e-05
8.14237e-05
0.0001182
0.000161593
0.000207951
0.000259902
0.000316385
0.000378651
0.000446658
0.000521265
0.000602905
0.000692403
0.000790482
0.000898077
0.00101615
0.00114583
0.00128832
0.00144498
0.0016173
0.00180694
0.00201572
0.00224563
0.00249891
0.00277797
0.00308551
0.00342447
0.0037981
0.00420998
0.00466402
0.00516454
0.00571626
0.00632438
0.00699459
0.00773312
0.00854679
0.00944306
0.0104301
0.0115167
0.0127126
0.0140283
0.015475
0.0170652
0.0188118
0.020729
0.0228317
0.0251357
0.0276573
0.0304133
0.0334203
0.0366946
0.0402508
0.0441007
0.0482513
0.0527023
0.057442
0.0624417
0.067648
0.0729719
0.0782742
0.0833463
0.0878831
0.0914606
0.0934723
0.0931757
0.0894302
0.0812886
0.0665557
0.0451381
0.012834
-0.0272896
-0.0800742
-0.138858
-0.207388
-0.251897
-0.35208
-0.254476
-0.666493
-0.953553
2.11972e-05
5.63199e-05
0.000104207
0.000151659
0.000207557
0.00026727
0.000334136
0.000406825
0.000486929
0.000574408
0.000670362
0.000775354
0.000890441
0.00101656
0.00115491
0.00130673
0.00147346
0.00165667
0.00185809
0.00207965
0.00232347
0.0025919
0.0028875
0.00321312
0.0035719
0.00396729
0.00440307
0.00488342
0.00541292
0.00599663
0.00664008
0.00734934
0.00813109
0.00899264
0.009942
0.0109879
0.01214
0.0134087
0.0148054
0.0163426
0.0180336
0.0198931
0.0219367
0.0241815
0.0266454
0.0293477
0.0323086
0.0355491
0.0390907
0.0429549
0.0471626
0.0517326
0.0566801
0.0620146
0.0677357
0.0738288
0.0802577
0.0869545
0.0938062
0.100635
0.107176
0.113038
0.11768
0.120325
0.120017
0.115294
0.104922
0.0860732
0.0585754
0.0169892
-0.0348539
-0.103288
-0.180369
-0.270466
-0.333277
-0.462508
-0.358756
-0.710559
-0.937891
2.53647e-05
6.82753e-05
0.000126885
0.000185059
0.000253466
0.000326553
0.000408329
0.000497219
0.000595141
0.000702069
0.000819337
0.000947642
0.00108827
0.00124238
0.00141142
0.00159693
0.00180064
0.00202449
0.00227058
0.00254128
0.00283917
0.00316711
0.00352826
0.00392608
0.00436441
0.00484744
0.00537983
0.00596665
0.00661352
0.00732659
0.00811263
0.00897905
0.00993399
0.0109864
0.012146
0.0134236
0.0148308
0.0163804
0.0180864
0.0199637
0.022029
0.0242999
0.0267957
0.029537
0.0325458
0.0358456
0.0394611
0.0434179
0.0477424
0.0524608
0.0575985
0.0631788
0.0692203
0.0757348
0.0827225
0.090166
0.0980221
0.106209
0.114591
0.122954
0.130976
0.138185
0.143923
0.147248
0.146994
0.141378
0.128873
0.106022
0.0725444
0.0217361
-0.0418638
-0.126178
-0.222249
-0.334815
-0.419094
-0.578454
-0.488364
-0.842951
-1.77867
2.93964e-05
8.01422e-05
0.000149452
0.00021839
0.000299317
0.0003858
0.000482488
0.00058758
0.000703311
0.000829674
0.000968234
0.00111983
0.00128597
0.00146803
0.00166772
0.00188686
0.0021275
0.00239192
0.00268262
0.00300238
0.00335426
0.00374163
0.00416822
0.00463813
0.00515588
0.00572643
0.00635527
0.00704839
0.00781243
0.00865465
0.00958303
0.0106063
0.0117342
0.0129771
0.0143467
0.0158555
0.0175173
0.0193473
0.0213618
0.0235787
0.0260175
0.028699
0.031646
0.0348828
0.0384354
0.0423315
0.0466002
0.0512718
0.0563775
0.0619483
0.0680143
0.0746031
0.081737
0.0894303
0.0976838
0.106478
0.115763
0.125444
0.135364
0.145272
0.154794
0.163378
0.170252
0.174311
0.174179
0.167756
0.153216
0.126465
0.0870878
0.0270787
-0.048366
-0.148868
-0.264694
-0.400725
-0.509557
-0.700106
-0.643472
-1.03418
-1.35274
3.33344e-05
9.19807e-05
0.000171943
0.000251681
0.000345121
0.000445011
0.000556599
0.000677881
0.000811395
0.000957163
0.00111698
0.00129181
0.00148341
0.00169335
0.00192363
0.00217632
0.00245382
0.00275871
0.00309392
0.00346262
0.00386836
0.00431503
0.00480691
0.00534873
0.00594571
0.00660357
0.00732862
0.00812779
0.00900871
0.00997975
0.0110501
0.0122299
0.0135302
0.0149632
0.0165421
0.0182815
0.0201972
0.0223068
0.0246291
0.0271846
0.0299957
0.0330866
0.0364834
0.0402142
0.0443089
0.0487994
0.0537193
0.0591036
0.0649881
0.0714088
0.0784005
0.0859951
0.0942189
0.103089
0.112606
0.12275
0.133465
0.144645
0.156109
0.167576
0.178619
0.188609
0.196664
0.20152
0.201593
0.194469
0.178015
0.147498
0.102335
0.0331818
-0.0541646
-0.171149
-0.307495
-0.468054
-0.604173
-0.824497
-0.786719
-1.10273
-1.49631
3.71883e-05
0.000103807
0.000194373
0.000284941
0.000390884
0.000504184
0.000630655
0.00076811
0.000919376
0.00108451
0.00126553
0.00146355
0.00168055
0.00191832
0.0021791
0.00246526
0.0027795
0.00312478
0.00350437
0.0039219
0.00438135
0.00488716
0.00544416
0.00605771
0.00673371
0.00747864
0.00829965
0.00920458
0.0102021
0.0113016
0.0125135
0.0138494
0.0153217
0.0169441
0.0187317
0.0207011
0.0228701
0.0252584
0.0278874
0.0307805
0.0339629
0.037462
0.0413072
0.0455304
0.0501655
0.0552486
0.0608177
0.0669124
0.0735735
0.0808416
0.0887565
0.0973544
0.106666
0.11671
0.127491
0.138985
0.151132
0.163814
0.176833
0.189875
0.202463
0.213896
0.223184
0.228909
0.229279
0.221573
0.20334
0.169204
0.118388
0.0401558
-0.0591456
-0.192926
-0.350578
-0.536832
-0.702952
-0.955334
-0.941115
-1.25527
-2.50533
4.09777e-05
0.000115645
0.000216761
0.000318181
0.000436608
0.000563316
0.000704645
0.000858246
0.00102722
0.00121168
0.00141385
0.001635
0.00187732
0.00214282
0.00243402
0.00275354
0.00310443
0.00348995
0.00391379
0.00437999
0.004893
0.00545776
0.00607968
0.00676473
0.00751951
0.00835125
0.00926791
0.0102783
0.0113919
0.0126195
0.0139726
0.015464
0.0171077
0.018919
0.0209147
0.0231132
0.0255345
0.0282007
0.0311355
0.0343649
0.0379173
0.041823
0.0461151
0.050829
0.0560026
0.0616761
0.0678921
0.0746949
0.0821298
0.0902426
0.0990778
0.108676
0.119073
0.13029
0.142332
0.155177
0.168758
0.182949
0.197533
0.212167
0.226327
0.239243
0.249823
0.256496
0.257269
0.249113
0.229255
0.191674
0.135359
0.0481367
-0.0631533
-0.214044
-0.393792
-0.606953
-0.805765
-1.09718
-1.11585
-1.50376
-2.26981
4.47143e-05
0.00012751
0.000239118
0.00035141
0.000482297
0.000622403
0.000778558
0.000948272
0.00113491
0.00133864
0.00156189
0.00180609
0.00207365
0.00236679
0.0026883
0.00304108
0.00342847
0.00385411
0.00432205
0.00483674
0.00540312
0.00602663
0.00671324
0.00746955
0.00830282
0.00922106
0.010233
0.0113484
0.0125779
0.0139331
0.0154268
0.0170732
0.0188877
0.0208871
0.0230901
0.0255169
0.0281897
0.0311326
0.034372
0.0379365
0.0418574
0.0461683
0.0509055
0.0561082
0.0618182
0.06808
0.0749404
0.0824485
0.0906546
0.0996092
0.109362
0.119958
0.131437
0.143825
0.157128
0.171323
0.186341
0.202047
0.218209
0.234454
0.250218
0.264662
0.276596
0.284305
0.285595
0.277138
0.255828
0.214993
0.153358
0.0572572
-0.0660361
-0.234352
-0.436991
-0.678289
-0.912444
-1.24603
-1.28712
-1.62498
-2.18149
4.84103e-05
0.000139414
0.000261457
0.000384635
0.00052795
0.000681439
0.000852381
0.00103817
0.00124242
0.00146535
0.00170961
0.00197676
0.00226947
0.00259015
0.00294185
0.00332775
0.00375151
0.0042171
0.00472896
0.00529197
0.00591151
0.00659353
0.00734457
0.00817186
0.00908333
0.0100877
0.0111946
0.0124147
0.0137595
0.0152418
0.0168756
0.0186763
0.0206609
0.0228477
0.0252571
0.0279113
0.0308344
0.0340529
0.0375957
0.041494
0.0457818
0.0504961
0.0556766
0.061366
0.0676102
0.0744577
0.08196
0.0901706
0.0991448
0.108938
0.119605
0.131196
0.143755
0.157311
0.171873
0.18742
0.203879
0.221107
0.238859
0.256737
0.274136
0.290157
0.303515
0.312356
0.314291
0.305694
0.283122
0.239248
0.172498
0.0676574
-0.0676284
-0.253679
-0.480003
-0.750699
-1.02294
-1.40161
-1.45657
-1.8301
-2.72494
5.20752e-05
0.000151365
0.000283786
0.00041786
0.000573568
0.000740417
0.000926101
0.00112791
0.0013497
0.00159176
0.00185695
0.00214698
0.00246471
0.00281281
0.00319457
0.00361345
0.00407342
0.0045788
0.00513439
0.00574549
0.00641796
0.00715824
0.00797344
0.0088714
0.00986071
0.0109509
0.0121523
0.0134766
0.0149362
0.016545
0.0183183
0.0202727
0.0224266
0.0248
0.0274149
0.0302954
0.0334678
0.0369607
0.0408053
0.0450358
0.049689
0.0548049
0.0604266
0.0666005
0.0733764
0.0808071
0.0889484
0.0978585
0.107598
0.118226
0.129804
0.142387
0.156022
0.170744
0.186565
0.203464
0.221367
0.240126
0.259481
0.279015
0.298086
0.315736
0.330593
0.34067
0.343384
0.334824
0.311199
0.264527
0.192894
0.0794811
-0.0677565
-0.27184
-0.522638
-0.824055
-1.1374
-1.56076
-1.63339
-2.03906
-2.74802
5.57174e-05
0.00016337
0.000306114
0.000451088
0.000619149
0.00079933
0.000999703
0.00121748
0.00145674
0.00171786
0.00200387
0.00231666
0.00265932
0.00303471
0.00344638
0.00389808
0.00439409
0.00493905
0.00553816
0.00619713
0.00692228
0.00772054
0.0085996
0.00956788
0.0106347
0.0118102
0.0131058
0.0145337
0.0161075
0.0178423
0.0197543
0.0218617
0.0241841
0.0267432
0.0295626
0.0326684
0.0360887
0.0398546
0.0439998
0.0485608
0.0535775
0.0590929
0.0651537
0.0718098
0.0791148
0.0871258
0.0959031
0.10551
0.11601
0.127471
0.139956
0.153527
0.168236
0.184122
0.201201
0.219452
0.238803
0.2591
0.280075
0.301289
0.322069
0.341404
0.357839
0.369262
0.372905
0.364572
0.340122
0.290915
0.21466
0.0928773
-0.0662363
-0.288635
-0.564685
-0.898251
-1.25569
-1.72524
-1.82532
-2.2621
-2.99039
5.93436e-05
0.000175431
0.000328444
0.00048432
0.000664689
0.000858167
0.00107317
0.00130686
0.00156351
0.00184359
0.00215032
0.00248577
0.00285321
0.00325575
0.00369718
0.00418153
0.00471338
0.00529772
0.00594013
0.00664672
0.00742426
0.00828021
0.00922278
0.010261
0.0114049
0.0126654
0.0140545
0.0155855
0.0172731
0.0191331
0.0211832
0.0234427
0.0259327
0.0286765
0.0316994
0.0350292
0.0386962
0.0427337
0.0471777
0.0520675
0.0574457
0.0633587
0.0698562
0.0769919
0.0848233
0.0934117
0.102822
0.113121
0.12438
0.136669
0.150058
0.164613
0.180393
0.19744
0.215775
0.23538
0.256183
0.278028
0.300637
0.323557
0.346086
0.367165
0.385263
0.39815
0.402877
0.394977
0.369948
0.318497
0.237913
0.107999
-0.0628734
-0.303844
-0.60591
-0.973116
-1.37778
-1.90185
-2.01897
-2.5438
-3.21985
6.29599e-05
0.000187551
0.000350781
0.000517556
0.000710184
0.000916919
0.00114649
0.00139601
0.00166997
0.00196891
0.00229626
0.00265423
0.00304633
0.00347586
0.00394688
0.00446369
0.00503118
0.00565468
0.00634013
0.00709407
0.00792372
0.00883703
0.00984276
0.0109506
0.0121711
0.013516
0.0149982
0.0166318
0.0184324
0.020417
0.0226043
0.0250151
0.0276718
0.0305992
0.0338244
0.0373769
0.0412893
0.0455968
0.0503379
0.0555546
0.0612924
0.0676005
0.0745323
0.0821449
0.0904998
0.0996624
0.109702
0.12069
0.132703
0.145817
0.160106
0.175642
0.192489
0.210695
0.230284
0.251244
0.273503
0.296904
0.321164
0.345817
0.370136
0.393022
0.412872
0.427347
0.433326
0.426077
0.400736
0.347357
0.262769
0.125006
-0.0574624
-0.317229
-0.646046
-1.04841
-1.50407
-2.08481
-2.2076
-2.81232
-3.37317
6.65709e-05
0.000199731
0.000373127
0.000550794
0.000755629
0.000975575
0.00121964
0.00148492
0.00177609
0.00209379
0.00244163
0.002822
0.00323859
0.00369495
0.00419538
0.00474445
0.00534736
0.00600978
0.00673802
0.00753902
0.00842045
0.00939076
0.0104593
0.0116362
0.0129329
0.0143618
0.0159365
0.017672
0.0195849
0.0216933
0.0240172
0.0265783
0.0294007
0.0325106
0.0359368
0.0397108
0.0438669
0.0484428
0.0534792
0.0590208
0.0651159
0.0718169
0.0791802
0.0872669
0.0961422
0.105876
0.116541
0.128215
0.140978
0.154912
0.170097
0.18661
0.20452
0.223882
0.244725
0.26704
0.290759
0.315726
0.341654
0.368067
0.39422
0.418975
0.44067
0.456865
0.464272
0.457907
0.432541
0.377577
0.289345
0.144059
-0.0497878
-0.328531
-0.684798
-1.12392
-1.63472
-2.27296
-2.41077
-3.08399
-3.7558
7.01807e-05
0.000211971
0.000395483
0.000584031
0.000801015
0.00103412
0.00129261
0.00157356
0.00188184
0.00221818
0.00258639
0.002989
0.00342993
0.00391294
0.00444259
0.00502371
0.00566181
0.00636289
0.00713363
0.00798138
0.00891426
0.00994121
0.0110721
0.0123177
0.0136901
0.0152024
0.016869
0.0187058
0.0207303
0.0229617
0.0254211
0.0281316
0.0311186
0.0344098
0.0380358
0.0420297
0.0464281
0.0512705
0.0566004
0.0624648
0.0689149
0.0760062
0.0837984
0.0923562
0.101749
0.112049
0.123337
0.135692
0.149201
0.163951
0.180027
0.197513
0.216483
0.236998
0.259093
0.282764
0.307947
0.334489
0.362102
0.390304
0.418334
0.445027
0.468664
0.486714
0.495736
0.490501
0.465414
0.409239
0.317758
0.165324
-0.0396232
-0.33747
-0.721835
-1.19934
-1.76988
-2.47331
-2.63379
-3.42289
-4.08233
7.37925e-05
0.000224269
0.00041785
0.000617263
0.000846337
0.00109254
0.00136537
0.0016619
0.00198718
0.00234205
0.00273048
0.00315518
0.00362029
0.00412976
0.00468841
0.00530136
0.00597439
0.00671386
0.00752681
0.00842098
0.00940494
0.0104881
0.0116809
0.0129948
0.0144424
0.0160374
0.0177953
0.0197327
0.021868
0.0242216
0.0268156
0.0296745
0.0328249
0.0362962
0.0401205
0.0443329
0.0489718
0.054079
0.0597003
0.0658853
0.0726879
0.0801668
0.088385
0.0974106
0.107317
0.118181
0.130086
0.143119
0.15737
0.172931
0.189894
0.208348
0.228374
0.250038
0.273383
0.298411
0.325062
0.353188
0.382504
0.412524
0.442477
0.471175
0.496854
0.516902
0.527732
0.523887
0.499405
0.44242
0.348124
0.188973
-0.0267315
-0.343748
-0.756795
-1.27431
-1.90994
-2.68489
-2.87775
-3.78376
-4.36873
7.74088e-05
0.000236625
0.000440227
0.000650485
0.000891586
0.00115083
0.0014379
0.00174992
0.00209208
0.00246534
0.00287385
0.00332048
0.00380958
0.00434531
0.00493276
0.00557728
0.006285
0.00706257
0.0079174
0.00885765
0.00989232
0.0110313
0.0122856
0.0136672
0.0151894
0.0168666
0.0187151
0.0207523
0.0229977
0.0254725
0.0282002
0.0312063
0.0345189
0.038169
0.0421902
0.0466194
0.0514971
0.0568671
0.0627777
0.0692809
0.0764336
0.0842972
0.0929383
0.102428
0.112845
0.124269
0.136788
0.150494
0.165481
0.181849
0.199693
0.219111
0.240188
0.262999
0.287592
0.313976
0.3421
0.37182
0.402855
0.434722
0.466644
0.497418
0.525241
0.547433
0.560274
0.558092
0.53456
0.477195
0.380557
0.215177
-0.0108652
-0.347047
-0.789281
-1.34842
-2.05502
-2.90865
-3.14989
-4.1921
-4.75942
8.10315e-05
0.000249034
0.000462611
0.000683691
0.000936751
0.00120897
0.00151019
0.00183759
0.00219651
0.00258802
0.00301645
0.00348484
0.00399773
0.00455952
0.00517552
0.00585138
0.0065935
0.00740886
0.00830524
0.00929121
0.0103762
0.0115706
0.0128859
0.0143346
0.0159308
0.0176896
0.019628
0.0217642
0.0241188
0.026714
0.0295742
0.0327264
0.0362001
0.0400275
0.044244
0.0488884
0.0540029
0.0596338
0.0658313
0.0726503
0.0801503
0.0883959
0.0974567
0.107408
0.11833
0.13031
0.143439
0.157813
0.173533
0.190701
0.209423
0.229799
0.251923
0.275877
0.301715
0.329456
0.359055
0.390378
0.423149
0.456893
0.490831
0.523751
0.553823
0.578311
0.593372
0.593139
0.57092
0.513637
0.415171
0.244111
0.008234
-0.347022
-0.818852
-1.42118
-2.20526
-3.14587
-3.4567
-4.64191
-5.15444
8.46621e-05
0.000261496
0.000485
0.000716874
0.000981822
0.00126693
0.00158221
0.00192488
0.00230042
0.00271005
0.00315823
0.0036482
0.00418468
0.00477231
0.00541662
0.00612355
0.00689977
0.00775261
0.0086902
0.00972149
0.0108563
0.0121057
0.0134814
0.0149968
0.0166664
0.0185061
0.0205336
0.0227681
0.0252309
0.0279454
0.0309371
0.0342342
0.0378676
0.0418709
0.0462812
0.051139
0.0564885
0.062378
0.0688602
0.0759924
0.0838369
0.0924612
0.101938
0.112347
0.123772
0.136303
0.150037
0.165074
0.181521
0.199486
0.219079
0.240408
0.263575
0.288667
0.315748
0.344845
0.375923
0.408856
0.443382
0.479031
0.515031
0.550169
0.582598
0.609536
0.627034
0.629046
0.608524
0.551813
0.452075
0.275952
0.0308326
-0.343288
-0.844998
-1.49202
-2.36041
-3.39852
-3.80477
-5.14027
-5.57424
8.83016e-05
0.000274006
0.000507391
0.000750028
0.00102679
0.00132472
0.00165395
0.00201177
0.00240379
0.00283137
0.00329913
0.00381048
0.00437035
0.00498358
0.00565596
0.00639367
0.00720369
0.00809367
0.0090721
0.0101483
0.0113326
0.0126364
0.0140721
0.0156535
0.0173959
0.0193158
0.0214316
0.0237635
0.0263336
0.0291664
0.0322885
0.0357292
0.0395208
0.0436985
0.0483009
0.0533702
0.0589526
0.0650986
0.071863
0.0793058
0.0874918
0.0964917
0.106382
0.117244
0.129167
0.142245
0.156579
0.172275
0.189443
0.208199
0.228658
0.250935
0.275138
0.301364
0.329685
0.360137
0.392697
0.42725
0.463546
0.501128
0.539237
0.576665
0.611559
0.641104
0.661263
0.665827
0.647404
0.591786
0.491373
0.310874
0.0572005
-0.335416
-0.86712
-1.56022
-2.52019
-3.66808
-4.1836
-5.69546
-6.05231
9.19505e-05
0.000286562
0.00052978
0.000783142
0.00107164
0.0013823
0.00172536
0.00209821
0.00250657
0.00295194
0.00343911
0.00397164
0.00455468
0.00519327
0.00589344
0.00666164
0.00750514
0.00843192
0.0094508
0.0105715
0.0118048
0.0131625
0.0146576
0.0163045
0.0181189
0.0201182
0.0223216
0.02475
0.0274265
0.0303764
0.0336277
0.0372108
0.0411592
0.0455096
0.0503023
0.0555813
0.0613945
0.0677946
0.0748387
0.0825892
0.0911138
0.100486
0.110785
0.122097
0.134514
0.148135
0.163064
0.179412
0.197297
0.216837
0.238156
0.261375
0.28661
0.313965
0.343523
0.375329
0.409372
0.445552
0.483634
0.523178
0.563441
0.603231
0.640697
0.67301
0.696058
0.703493
0.68759
0.633615
0.533168
0.349051
0.0876047
-0.322955
-0.884527
-1.62491
-2.68439
-3.95285
-4.59047
-6.31456
-6.55551
9.5609e-05
0.000299161
0.000552161
0.00081621
0.00111636
0.00143966
0.00179644
0.00218418
0.00260873
0.00307173
0.0035781
0.00413161
0.00473758
0.00540128
0.00612896
0.00692735
0.00780401
0.00876721
0.00982615
0.0109909
0.0122727
0.0136838
0.0152377
0.0169494
0.0188352
0.0209132
0.0232033
0.0257272
0.028509
0.0315751
0.0349542
0.0386783
0.042782
0.0473036
0.0522848
0.0577713
0.0638132
0.0704649
0.0777861
0.0858414
0.0947013
0.104442
0.115147
0.126904
0.139811
0.153969
0.169488
0.186484
0.205079
0.225399
0.247571
0.271726
0.297986
0.326465
0.357255
0.390414
0.425942
0.463756
0.503638
0.545171
0.587634
0.629856
0.670004
0.705246
0.731415
0.742049
0.729102
0.677351
0.577553
0.39065
0.122308
-0.305449
-0.896465
-1.68509
-2.85253
-4.2522
-5.04328
-7.00092
-7.08054
9.92771e-05
0.000311797
0.00057453
0.000849222
0.00116093
0.00149678
0.00186716
0.00226965
0.00271024
0.00319067
0.00371606
0.00429033
0.00491899
0.00560752
0.00636244
0.00719071
0.00810016
0.00909942
0.010198
0.0114064
0.0127362
0.0142001
0.0158122
0.017588
0.0195445
0.0217004
0.0240763
0.0266948
0.0295809
0.0327618
0.0362676
0.0401311
0.0443886
0.0490796
0.0542474
0.0599395
0.0662077
0.0731086
0.080704
0.0890612
0.0982531
0.108359
0.119465
0.131664
0.145056
0.159746
0.17585
0.193488
0.212787
0.233879
0.256899
0.281983
0.309263
0.33886
0.370878
0.405386
0.442401
0.481855
0.523551
0.567098
0.611804
0.656529
0.699466
0.737798
0.767326
0.781493
0.771958
0.723039
0.624616
0.435833
0.161568
-0.282441
-0.902142
-1.73962
-3.0238
-4.56698
-5.54647
-7.75766
-7.69614
0.000102954
0.000324469
0.000596882
0.000882167
0.00120535
0.00155364
0.00193749
0.00235459
0.00281104
0.00330873
0.00385292
0.00444772
0.00509882
0.00581193
0.00659378
0.00745159
0.00839349
0.0094284
0.0105662
0.0118177
0.013195
0.0147112
0.0163809
0.0182202
0.0202465
0.0224795
0.0249403
0.0276524
0.0306416
0.0339361
0.0375672
0.0415688
0.0459785
0.0508371
0.0561895
0.062085
0.0685771
0.0757246
0.0835914
0.0922473
0.101768
0.112235
0.123739
0.136375
0.150246
0.165464
0.182147
0.200421
0.220418
0.242276
0.266137
0.292143
0.320436
0.351145
0.384386
0.420241
0.458742
0.49984
0.543364
0.58895
0.63594
0.683236
0.729069
0.770653
0.803777
0.821821
0.816166
0.770716
0.674437
0.484753
0.205636
-0.253461
-0.900739
-1.78722
-3.19723
-4.8964
-6.10215
-8.60004
-8.26183
0.00010664
0.000337172
0.000619209
0.000915035
0.0012496
0.00161022
0.0020074
0.00243897
0.0029111
0.00342586
0.00398864
0.00460373
0.00527702
0.00601441
0.00682288
0.00770989
0.00868387
0.00975402
0.0109306
0.0122247
0.013649
0.0152169
0.0169435
0.0188455
0.020941
0.0232501
0.0257948
0.0285995
0.0316907
0.0350977
0.0388526
0.0429908
0.0475509
0.0525752
0.0581103
0.0642069
0.0709205
0.0783119
0.0864472
0.0953985
0.105244
0.116069
0.127966
0.141034
0.155381
0.171121
0.188377
0.207281
0.22797
0.250587
0.275281
0.302203
0.3315
0.363316
0.397774
0.434972
0.474958
0.517705
0.563068
0.610714
0.660029
0.709961
0.758795
0.803791
0.840752
0.863021
0.861731
0.820411
0.727086
0.53755
0.25475
-0.218028
-0.89142
-1.82653
-3.37153
-5.23971
-6.71774
-9.53723
-8.73614
0.000110334
0.000349903
0.000641507
0.000947815
0.00129366
0.00166651
0.00207688
0.00252274
0.00301038
0.00354201
0.00412316
0.0047583
0.0054535
0.00621489
0.00704965
0.00796551
0.00897118
0.0100762
0.011291
0.0126273
0.0140979
0.0157169
0.0174998
0.0194638
0.0216276
0.024012
0.0266397
0.0295358
0.0327278
0.0362459
0.0401233
0.0443964
0.0491052
0.0542934
0.060009
0.0663044
0.073237
0.0808695
0.0892702
0.0985136
0.108681
0.119859
0.132145
0.145641
0.160457
0.176714
0.194538
0.214065
0.235438
0.258807
0.284328
0.312157
0.342453
0.375367
0.411037
0.449573
0.491042
0.535441
0.582652
0.63238
0.684057
0.736689
0.788623
0.837191
0.878227
0.905075
0.908645
0.872143
0.782621
0.594353
0.309133
-0.175655
-0.873241
-1.85604
-3.54507
-5.59554
-7.40815
-10.5876
-9.42158
0.000114034
0.000362657
0.000663766
0.000980497
0.00133752
0.00172247
0.00214588
0.00260588
0.00310884
0.00365713
0.00425642
0.00491136
0.0056282
0.00641327
0.007274
0.00821835
0.0092553
0.0103947
0.0116473
0.0130253
0.0145417
0.0162111
0.0180496
0.0200748
0.0223061
0.0247648
0.0274745
0.030461
0.0337525
0.0373804
0.0413788
0.0457852
0.0506409
0.055991
0.0618849
0.0683767
0.0755257
0.0833964
0.0920594
0.101591
0.112076
0.123604
0.136274
0.150193
0.165474
0.182241
0.200627
0.220771
0.242822
0.266935
0.293274
0.322003
0.35329
0.387295
0.424169
0.464038
0.506988
0.55304
0.602107
0.653935
0.708009
0.763399
0.818533
0.870825
0.916177
0.947958
0.956897
0.925921
0.841089
0.655272
0.368984
-0.125864
-0.845016
-1.87384
-3.71561
-5.96281
-8.18508
-11.7583
-9.96983
0.000117739
0.000375431
0.000685981
0.00101307
0.00138116
0.00177808
0.00221439
0.00268836
0.00320644
0.00377117
0.00438836
0.00506284
0.00580103
0.00660948
0.00749583
0.00846829
0.00953612
0.0107094
0.0119994
0.0134184
0.0149801
0.0166993
0.0185927
0.0206783
0.0229762
0.0255083
0.0282989
0.0313746
0.0347645
0.0385007
0.0426185
0.0471566
0.0521573
0.0576672
0.0637372
0.0704231
0.0777857
0.0858916
0.0948136
0.104631
0.115429
0.127303
0.140353
0.154689
0.170429
0.187701
0.206642
0.227396
0.250117
0.274968
0.302117
0.331738
0.364006
0.399094
0.437165
0.478361
0.522788
0.570492
0.621421
0.675365
0.731867
0.790072
0.848498
0.904666
0.954567
0.991639
1.00646
0.981744
0.902525
0.720399
0.434469
-0.0682308
-0.805405
-1.87754
-3.88032
-6.33933
-9.05964
-13.0649
-10.7738
0.000121448
0.00038822
0.000708143
0.00104552
0.00142456
0.00183333
0.00228238
0.00277013
0.00330314
0.00388409
0.00451894
0.00521268
0.00597193
0.00680343
0.00771504
0.00871524
0.00981352
0.0110203
0.0123471
0.0138066
0.0154129
0.0171812
0.0191287
0.021274
0.0236376
0.0262422
0.0291126
0.0322763
0.0357632
0.0396063
0.043842
0.04851
0.0536539
0.0593215
0.0655653
0.0724426
0.0800161
0.0883543
0.0975319
0.107631
0.118739
0.130953
0.144378
0.159126
0.17532
0.193092
0.21258
0.233937
0.257321