/*--------------------------------*- C++ -*----------------------------------*\
| =========                 |                                                 |
| \\      /  F ield         | OpenFOAM: The Open Source CFD Toolbox           |
|  \\    /   O peration     | Version:  4.1                                   |
|   \\  /    A nd           | Web:      www.OpenFOAM.org                      |
|    \\/     M anipulation  |                                                 |
\*---------------------------------------------------------------------------*/
FoamFile
{
    version     2.0;
    format      ascii;
    class       surfaceScalarField;
    location    "2";
    object      phi;
}
// * * * * * * * * * * * * * * * * * * * * * * * * * * * * * * * * * * * * * //

dimensions      [0 3 -1 0 0 0 0];

internalField   nonuniform List<scalar> 
13220
(
-798.456
2098.36
-1253.96
1755.71
-1719.53
1765.46
-2064.22
1644.59
-2348.33
1584.31
-2555.54
1507.11
-2693.65
1438.01
-2761.79
1368.34
-2764.23
1302.34
-2699.16
1234.82
-2551.69
1152.73
-2276.75
1024.96
-1784.62
807.771
-1002.04
517.616
297.863
-220.388
2318.75
-487.466
2022.79
-780.391
2058.39
-1014.17
1878.37
-1238.06
1808.21
-1416.93
1685.98
-1567.89
1588.97
-1683.95
1484.4
-1773.11
1391.5
-1831.91
1293.63
-1830.02
1150.85
-1688.78
883.718
-1282.61
401.608
-594.524
-170.467
-296.661
-125.741
2444.49
-322.161
2219.21
-452.266
2188.5
-524.42
1950.52
-584.347
1868.13
-599.305
1700.94
-591.984
1581.66
-553.557
1445.98
-488.678
1326.62
-400.409
1205.36
-302.249
1052.69
-214.686
796.157
-141.507
328.437
-124.74
-187.225
-421.401
128.09
2316.4
72.5772
2274.73
99.4775
2161.6
149.732
1900.27
204.906
1812.96
275.534
1630.32
353.852
1503.34
445.379
1354.45
551.438
1220.57
669.193
1087.61
774.752
947.132
796.784
774.133
606.753
518.48
150.361
269.186
-271.039
200.74
2115.67
177.192
2298.28
213.861
2124.94
259.09
1855.05
314.723
1757.34
362.935
1582.11
408.514
1457.77
447.924
1315.05
485.005
1183.49
517.879
1054.74
539.62
925.394
520.866
792.898
410.132
629.229
228.087
451.262
-42.9521
167.911
1947.76
202.217
2263.98
248.181
2078.98
295.594
1807.64
357.365
1695.57
401.685
1537.8
439.237
1420.22
458.998
1295.29
464.33
1178.16
453.837
1065.24
426.313
952.92
377.081
842.128
289.495
716.813
167.166
573.586
124.215
91.3306
1856.44
188.763
2166.55
274.558
1993.19
349.377
1732.83
431.406
1613.55
490.809
1478.4
535.295
1375.74
556.026
1274.56
552.885
1181.31
525.218
1092.91
473.114
1005.03
397.148
918.109
296.118
817.861
164.639
705.099
288.853
34.9159
1821.52
129.648
2071.82
246.197
1876.64
347.493
1631.53
439.495
1521.54
508.574
1409.32
554.421
1329.89
574.765
1254.22
570.227
1185.84
539.765
1123.37
484.247
1060.54
404.027
998.311
299.646
922.225
165.846
838.871
454.699
47.1529
1774.37
71.2634
2047.71
170.437
1777.47
278.305
1523.67
369.822
1430.03
438.675
1340.47
481.233
1287.33
498.896
1236.55
494.238
1190.5
468.406
1149.2
421.22
1107.73
352.44
1067.11
261.881
1012.8
142.003
958.769
596.702
103.158
1671.21
72.9219
2077.94
104.128
1746.26
183.654
1444.14
266.86
1346.82
329.698
1277.63
366.611
1250.42
382.23
1220.94
378.847
1193.88
359.277
1168.77
324.657
1142.35
272.733
1119.01
203.069
1082.44
108.093
1053.72
704.795
141.988
1529.22
131.918
2088.01
104.298
1773.87
128.433
1420
187.576
1287.67
236.803
1228.39
265.69
1221.52
277.073
1209.55
275.005
1195.95
260.774
1182.99
236.143
1166.97
200.212
1154.95
149.96
1132.7
80.5897
1123.09
785.384
138.867
1390.34
196.981
2029.89
180.972
1789.88
171.137
1429.82
197.734
1261.07
223.665
1202.45
239.241
1205.94
241.421
1207.36
234.132
1203.23
218.795
1198.32
195.061
1190.7
163.468
1186.52
121.254
1174.89
67.8483
1176.48
853.232
92.6194
1297.72
208.826
1913.68
253.063
1745.64
248.785
1434.1
242.633
1267.21
233.288
1211.79
222.497
1216.73
208.238
1221.61
189.743
1221.72
170.288
1217.77
147.491
1213.5
124.104
1209.91
92.9863
1206.01
62.1972
1207.26
915.429
121.523
1176.19
237.661
1797.54
297.539
1685.75
308.71
1422.92
302.2
1273.72
287.291
1226.7
270.5
1233.51
253.415
1238.69
231.414
1243.72
204.322
1244.86
171.285
1246.53
130.272
1250.92
83.2581
1253.02
45.8042
1244.71
961.234
478.034
804.223
911.124
906.109
796.976
660.771
523.765
381.954
257.431
146.035
64.5009
26.317
17.0822
56.8783
0.00011183
17.2665
-17.2664
17.2666
17.2666
17.2667
-0.875467
18.1421
-0.875413
-0.8754
-0.875361
-27.6449
26.7696
-27.6449
-27.6449
-68.5198
40.8749
-68.5197
-68.5197
-68.5197
-110.214
41.6943
-110.214
-110.214
-160.774
50.5598
-160.774
-160.774
-160.774
-217.95
57.1762
-217.95
-217.95
-217.95
-277.318
59.3677
-277.318
-277.318
-336.489
59.1716
-336.489
-336.489
-336.489
-394.461
57.972
-394.461
-394.461
-464.538
70.0773
-464.538
-464.538
-464.538
-538.965
74.4266
-538.965
-538.965
-538.965
-617.779
78.814
-617.779
-617.779
-717.686
99.9075
-717.686
-717.686
-717.686
-827.564
109.877
-827.564
-827.564
-827.564
-949.698
122.134
-949.698
-949.698
-1087.28
137.58
-1087.28
-1087.28
-1087.28
-1252.1
164.823
-1252.1
-1252.1
-1498.13
246.027
-1498.13
-1498.13
-1498.13
-1905.9
407.768
-1905.9
-1905.9
-1905.9
-2664.89
758.995
-2664.89
-2664.89
-3774.66
1109.77
-3774.66
-3774.66
-3591.91
-3404.21
-3210.59
-4589.13
1574.12
-4397.54
-4185.12
-3963.78
-3740.92
-3514.68
-3283.89
-3047.86
-2807.76
-4456.23
1889.2
-4220.56
-3986.59
-3755.09
-3523.32
-3287.89
-3047.71
-2802.24
-2551.64
-4489.26
2188.91
-4240.35
-3990.94
-3742.55
-3494.1
-3245.76
-2996.78
-2745.51
-2490.47
-2231.51
-4420.48
2447.02
-4163.93
-3907.17
-3651.1
-3395.09
-3138.28
-2880.81
-2621.3
-2359.09
-4686.16
2585.69
-4427.76
-4171.23
-3916.06
-3660.3
-3403.11
-3145.17
-2885.94
-2625.58
-5008.41
2638.97
-4752.84
-4499.09
-4245.61
-3989.03
-3730.39
-3471.71
-3211.74
-2949.31
-5349.26
2663.46
-5080.85
-4813.96
-4547.17
-4280.57
-4012.87
-3719.3
-3424.73
-3127.12
-2827.25
-5001.48
2471.98
-4711.25
-4424.36
-4144.33
-3870.05
-3602.1
-3367.95
-3195.57
-3043.39
-3075.04
152.83
-2977.63
-2887.17
-2887.17
-2954.62
67.4515
-2902.14
-52.4813
-2902.14
-2851.26
-50.8801
-2851.26
-2788.43
-62.8315
-2669.17
-119.254
-2669.17
-2548.86
-120.308
-2371.68
-177.188
-2371.68
-2199.91
-171.771
-2199.91
-2038.76
-161.144
-1851.34
-187.423
-1851.34
-1659.94
-191.398
-1659.94
-1476.8
-183.142
-1279.35
-197.449
-1279.35
-1074.66
-204.688
-871.977
-202.684
-871.977
-677.709
-194.268
-677.709
-466.401
-211.308
-245.352
-221.049
-245.352
-28.7446
-216.607
-28.7446
182.267
-211.012
421.808
-239.541
421.808
628.828
-207.019
844.557
-215.729
844.557
1030.68
-186.123
1030.68
1191.42
-160.742
1353.08
-161.663
1353.08
1490.12
-137.033
1490.12
1606
-115.887
1724.23
-118.228
1724.23
1839
-114.769
1937.18
-98.1827
1937.18
2025.49
-88.3031
2025.49
2087.15
-61.6628
2156.27
-69.1226
2156.27
2243
-86.7291
2243
2282.53
-39.5308
2296.82
-14.2841
2296.82
2337.63
-40.8111
2346.19
-8.56184
2346.19
2446.69
-100.505
2446.69
2434.95
11.74
2379.87
55.0824
2379.87
2488.27
-108.403
2488.27
2516.85
-28.5772
2459.35
57.4992
2459.35
2515.18
-55.826
2471.59
43.59
2471.59
2608.05
-136.466
2608.05
-127.432
-0.941007
-5.33901
-0.907496
-8.45659
-0.894442
-10.8772
-0.884183
-13.0619
-0.880922
-15.2483
-0.881704
-17.3445
-0.887726
-19.4398
-0.898071
-21.5159
-0.913056
-23.6067
-0.932363
-25.7142
-0.956051
-27.8557
-0.984001
-30.0388
-1.01622
-32.2756
-1.05267
-34.5749
-1.09337
-36.9469
-1.13836
-39.4009
-1.18767
-41.9465
-1.24139
-44.5932
-1.29962
-47.3506
-1.36247
-50.2285
-1.4301
-53.2368
-1.50266
-56.3859
-1.58037
-59.6862
-1.66343
-63.1488
-1.7521
-66.785
-1.84666
-70.6067
-1.94741
-74.6263
-2.05468
-78.857
-2.16885
-83.3124
-2.29031
-88.007
-2.41951
-92.9562
-2.55692
-98.1762
-2.70306
-103.684
-2.85849
-109.499
-3.02383
-115.639
-3.19973
-122.125
-3.38691
-128.981
-3.58614
-136.228
-3.79826
-143.894
-4.02415
-152.004
-4.26477
-160.587
-4.52117
-169.676
-4.79444
-179.302
-5.08574
-189.502
-5.39631
-200.314
-5.72743
-211.778
-6.08046
-223.938
-6.45675
-236.839
-6.85766
-250.531
-7.28452
-265.065
-7.73854
-280.494
-8.22075
-296.874
-8.73186
-314.261
-9.27212
-332.71
-9.84104
-352.275
-10.4371
-373.001
-11.0573
-394.926
-11.6965
-418.072
-12.3468
-442.435
-12.9962
-467.976
-13.6274
-494.602
-14.216
-522.148
-14.7283
-550.348
-15.1184
-578.789
-15.3266
-606.887
-15.2731
-633.757
-14.8647
-658.326
-13.975
-678.73
-12.4893
-693.427
-10.2379
-698.297
-7.15299
-692.15
-3.11414
-665.778
1.71964
-620.168
7.23544
-536.66
12.0312
-419.008
26.621
-183.998
14.1405
180.947
108.502
453.288
400.016
-1.20161
-5.38357
-1.15542
-8.50278
-1.13754
-10.8951
-1.12439
-13.0751
-1.12035
-15.2523
-1.12172
-17.3431
-1.12971
-19.4318
-1.1432
-21.5024
-1.16251
-23.5874
-1.18726
-25.6894
-1.21749
-27.8255
-1.25307
-30.0033
-1.294
-32.2347
-1.34023
-34.5287
-1.39178
-36.8953
-1.44869
-39.344
-1.51101
-41.8842
-1.57885
-44.5254
-1.65231
-47.2771
-1.73155
-50.1492
-1.81673
-53.1516
-1.90807
-56.2945
-2.0058
-59.5885
-2.11019
-63.0444
-2.22154
-66.6736
-2.34018
-70.488
-2.46647
-74.5
-2.60082
-78.7226
-2.74367
-83.1695
-2.8955
-87.8552
-3.05682
-92.7949
-3.22822
-98.0048
-3.41029
-103.502
-3.60372
-109.305
-3.8092
-115.433
-4.02753
-121.907
-4.25953
-128.749
-4.50611
-135.982
-4.76823
-143.631
-5.04693
-151.725
-5.34331
-160.291
-5.65856
-169.361
-5.99392
-178.967
-6.35073
-189.145
-6.73036
-199.934
-7.13424
-211.374
-7.56384
-223.508
-8.02064
-236.382
-8.50606
-250.046
-9.02144
-264.549
-9.56795
-279.948
-10.1464
-296.296
-10.7573
-313.65
-11.4002
-332.068
-12.0739
-351.601
-12.7756
-372.299
-13.5005
-394.201
-14.2409
-417.332
-14.9854
-441.691
-15.717
-467.244
-16.412
-493.907
-17.0368
-521.523
-17.5463
-549.838
-17.8793
-578.456
-17.9574
-606.809
-17.6769
-634.038
-16.9181
-659.085
-15.5212
-680.127
-13.3432
-695.605
-10.1834
-701.456
-5.95761
-696.376
-0.578646
-671.157
5.76477
-626.512
12.7631
-543.658
18.6723
-424.917
32.2474
-197.573
13.7842
199.41
98.7624
368.31
362.312
-1.34661
-5.43431
-1.29564
-8.55375
-1.27505
-10.9157
-1.26061
-13.0895
-1.25628
-15.2567
-1.25824
-17.3411
-1.26751
-19.4226
-1.28298
-21.487
-1.3049
-23.5655
-1.33289
-25.6614
-1.36697
-27.7914
-1.40701
-29.9632
-1.45298
-32.1887
-1.50486
-34.4768
-1.56265
-36.8375
-1.62641
-39.2802
-1.69619
-41.8144
-1.77209
-44.4495
-1.85425
-47.195
-1.94282
-50.0607
-2.03801
-53.0564
-2.14002
-56.1925
-2.24914
-59.4794
-2.36563
-62.9279
-2.48984
-66.5494
-2.62212
-70.3557
-2.76288
-74.3593
-2.91255
-78.5729
-3.07161
-83.0104
-3.24058
-87.6862
-3.42004
-92.6154
-3.61059
-97.8143
-3.8129
-103.3
-4.02769
-109.09
-4.25574
-115.205
-4.49788
-121.665
-4.75502
-128.491
-5.02811
-135.709
-5.3182
-143.341
-5.6264
-151.417
-5.95388
-159.963
-6.3019
-169.013
-6.6718
-178.597
-7.06496
-188.752
-7.48285
-199.516
-7.92696
-210.93
-8.39882
-223.036
-8.89994
-235.881
-9.43177
-249.514
-9.99563
-263.986
-10.5926
-279.351
-11.2235
-295.665
-11.8884
-312.986
-12.5867
-331.369
-13.3166
-350.871
-14.0745
-371.541
-14.8546
-393.421
-15.6477
-416.539
-16.4402
-440.898
-17.2124
-466.472
-17.9366
-493.183
-18.5741
-520.886
-19.0732
-549.339
-19.3641
-578.165
-19.3576
-606.816
-18.9366
-634.459
-17.9663
-660.055
-16.2699
-681.824
-13.6853
-698.189
-10.0009
-705.141
-5.11372
-701.263
1.03387
-677.305
8.25233
-633.73
16.105
-551.511
22.6101
-431.422
30.0425
-205.005
-3.99725
233.45
-53.9508
418.263
351.951
-1.50858
-5.49001
-1.45409
-8.60823
-1.43141
-10.9384
-1.41601
-13.1049
-1.41174
-15.2609
-1.41462
-17.3382
-1.42559
-19.4116
-1.4435
-21.469
-1.46858
-23.5404
-1.50043
-25.6296
-1.53907
-27.7527
-1.58435
-29.9179
-1.63625
-32.1368
-1.69474
-34.4183
-1.75984
-36.7724
-1.83159
-39.2085
-1.91007
-41.7359
-1.99539
-44.3641
-2.08769
-47.1027
-2.18715
-49.9612
-2.29398
-52.9496
-2.40845
-56.078
-2.53082
-59.357
-2.66143
-62.7973
-2.80062
-66.4102
-2.94881
-70.2075
-3.10644
-74.2016
-3.27397
-78.4054
-3.45195
-82.8325
-3.64093
-87.4972
-3.84155
-92.4148
-4.05448
-97.6013
-4.28044
-103.074
-4.52022
-108.851
-4.77466
-114.951
-5.04467
-121.395
-5.33123
-128.205
-5.63539
-135.404
-5.95828
-143.018
-6.30108
-151.074
-6.66508
-159.599
-7.05162
-168.626
-7.46214
-178.187
-7.89811
-188.316
-8.3611
-199.053
-8.85269
-210.438
-9.37447
-222.514
-9.92804
-235.327
-10.5149
-248.927
-11.1363
-263.364
-11.7934
-278.694
-12.4868
-294.972
-13.2164
-312.256
-13.9812
-330.604
-14.7789
-350.073
-15.6052
-370.715
-16.453
-392.574
-17.3115
-415.68
-18.1649
-440.045
-18.9902
-465.646
-19.7556
-492.417
-20.4168
-520.224
-20.9145
-548.842
-21.1693
-577.91
-21.0798
-606.905
-20.5139
-635.025
-19.3187
-661.25
-17.2972
-683.845
-14.2653
-701.221
-9.99349
-709.412
-4.35824
-706.899
2.67792
-684.341
10.9295
-641.982
19.838
-560.419
27.2796
-438.864
37.7367
-215.462
13.3477
257.839
14.5625
417.048
310.687
-1.66136
-5.54884
-1.60509
-8.6645
-1.58093
-10.9626
-1.56503
-13.1208
-1.56109
-15.2649
-1.5651
-17.3342
-1.57791
-19.3988
-1.59837
-21.4486
-1.62666
-23.5121
-1.66239
-25.5938
-1.70556
-27.7096
-1.75603
-29.8675
-1.81377
-32.079
-1.87876
-34.3533
-1.95101
-36.7002
-2.03058
-39.1289
-2.11755
-41.649
-2.21204
-44.2696
-2.31422
-47.0005
-2.42428
-49.8511
-2.54245
-52.8314
-2.66902
-55.9515
-2.80428
-59.2217
-2.94859
-62.653
-3.10235
-66.2564
-3.26598
-70.0439
-3.43998
-74.0276
-3.62485
-78.2205
-3.82117
-82.6361
-4.02957
-87.2888
-4.25072
-92.1937
-4.48533
-97.3667
-4.73421
-102.825
-4.9982
-108.587
-5.27821
-114.671
-5.57522
-121.098
-5.89029
-127.89
-6.22454
-135.07
-6.57917
-142.664
-6.95547
-150.698
-7.35481
-159.2
-7.77862
-168.202
-8.22842
-177.737
-8.70579
-187.839
-9.21238
-198.547
-9.74985
-209.901
-10.3199
-221.944
-10.9241
-234.723
-11.5641
-248.287
-12.2411
-262.687
-12.9562
-277.979
-13.71
-294.218
-14.502
-311.464
-15.3311
-329.775
-16.1944
-349.21
-17.0868
-369.823
-18.0001
-391.66
-18.9221
-414.758
-19.8346
-439.132
-20.712
-464.769
-21.5183
-491.611
-22.2039
-519.539
-22.7024
-548.343
-22.9253
-577.687
-22.7595
-607.071
-22.0586
-635.726
-20.6523
-662.657
-18.3238
-686.174
-14.8669
-704.678
-10.0335
-714.246
-3.67792
-713.254
4.22331
-692.242
13.4996
-651.258
23.4683
-570.388
32.1788
-447.574
42.9787
-226.262
23.9991
276.819
-49.2495
490.297
318.937
-1.81101
-5.60964
-1.75409
-8.72142
-1.72901
-10.9876
-1.71302
-13.1368
-1.70971
-15.2682
-1.71509
-17.3288
-1.72994
-19.3839
-1.7531
-21.4254
-1.78476
-23.4804
-1.82451
-25.5541
-1.87235
-27.6617
-1.92812
-29.8117
-1.99183
-32.0153
-2.06342
-34.2817
-2.14293
-36.6207
-2.23042
-39.0414
-2.32599
-41.5534
-2.42977
-44.1659
-2.54193
-46.8883
-2.66269
-49.7304
-2.79231
-52.7018
-2.93108
-55.8127
-3.07934
-59.0735
-3.23747
-62.4948
-3.40591
-66.088
-3.58511
-69.8647
-3.7756
-73.8372
-3.97794
-78.0182
-4.19275
-82.4213
-4.42071
-87.0609
-4.66253
-91.9518
-4.919
-97.1102
-5.19097
-102.553
-5.47935
-108.298
-5.78512
-114.365
-6.10933
-120.774
-6.45311
-127.546
-6.81767
-134.706
-7.20429
-142.277
-7.61435
-150.288
-8.04929
-158.765
-8.51065
-167.741
-9.00004
-177.247
-9.51914
-187.32
-10.0697
-197.996
-10.6534
-209.317
-11.2721
-221.326
-11.9275
-234.068
-12.6211
-247.593
-13.3542
-261.954
-14.128
-277.205
-14.9427
-293.403
-15.798
-310.609
-16.6923
-328.881
-17.6221
-348.28
-18.5818
-368.863
-19.5621
-390.68
-20.5493
-413.771
-21.5232
-438.158
-22.4554
-463.837
-23.3059
-490.761
-24.0202
-518.825
-24.5247
-547.838
-24.7223
-577.489
-24.4882
-607.305
-23.6619
-636.552
-22.0557
-664.263
-19.4326
-688.797
-15.5635
-708.547
-10.1792
-719.63
-3.10975
-720.324
5.66258
-701.014
15.9889
-661.584
27.0743
-581.474
37.2179
-457.718
48.2498
-237.294
48.5868
276.481
31.701
507.183
322.061
-1.9569
-5.6714
-1.90023
-8.77809
-1.87472
-11.0132
-1.85901
-13.1525
-1.85658
-15.2706
-1.86355
-17.3219
-1.8806
-19.3669
-1.90663
-21.3994
-1.94179
-23.4453
-1.98566
-25.5102
-2.03826
-27.6091
-2.09944
-29.7505
-2.16917
-31.9456
-2.24743
-34.2035
-2.33427
-36.5338
-2.42973
-38.946
-2.53393
-41.4492
-2.64703
-44.0528
-2.7692
-46.7662
-2.90069
-49.5989
-3.04177
-52.5607
-3.19277
-55.6617
-3.35404
-58.9122
-3.526
-62.3229
-3.70912
-65.9049
-3.90389
-69.6699
-4.11088
-73.6302
-4.33069
-77.7984
-4.56398
-82.188
-4.81148
-86.8134
-5.07397
-91.6894
-5.35228
-96.8319
-5.64733
-102.258
-5.96008
-107.985
-6.29159
-114.033
-6.64298
-120.422
-7.01545
-127.174
-7.41029
-134.311
-7.82886
-141.859
-8.27264
-149.844
-8.74315
-158.295
-9.24202
-167.242
-9.77096
-176.718
-10.3317
-186.759
-10.9262
-197.402
-11.5562
-208.687
-12.2235
-220.658
-12.9299
-233.361
-13.6771
-246.846
-14.4664
-261.165
-15.2988
-276.372
-16.1747
-292.527
-17.0933
-309.69
-18.0529
-327.921
-19.0497
-347.283
-20.0771
-367.836
-21.1251
-389.632
-22.1785
-412.718
-23.2153
-437.121
-24.2042
-462.848
-25.1017
-489.863
-25.8482
-518.078
-26.3638
-547.323
-26.5424
-577.311
-26.2484
-607.599
-25.307
-637.493
-23.5134
-666.056
-20.6101
-691.7
-16.3447
-712.813
-10.4243
-725.551
-2.65217
-728.096
6.99154
-710.658
18.3856
-672.978
30.6255
-593.713
42.299
-469.392
54.5
-249.495
64.4982
266.483
130.244
441.436
343.903
-2.09966
-5.73338
-2.04389
-8.83386
-2.01837
-11.0387
-2.00328
-13.1676
-2.00198
-15.2719
-2.01073
-17.3131
-2.03017
-19.3475
-2.05921
-21.3704
-2.09799
-23.4065
-2.14612
-25.4621
-2.20358
-27.5517
-2.27025
-29.6839
-2.3461
-31.8698
-2.43111
-34.1184
-2.52533
-36.4396
-2.62883
-38.8425
-2.74173
-41.3363
-2.86419
-43.9303
-2.99643
-46.6339
-3.13869
-49.4566
-3.29127
-52.4082
-3.45453
-55.4985
-3.62885
-58.7379
-3.81468
-62.137
-4.01251
-65.7071
-4.22288
-69.4596
-4.4464
-73.4066
-4.6837
-77.5611
-4.93551
-81.9362
-5.20259
-86.5463
-5.48577
-91.4062
-5.78595
-96.5317
-6.1041
-101.94
-6.44126
-107.648
-6.79853
-113.676
-7.17713
-120.044
-7.57832
-126.772
-8.00347
-133.886
-8.45403
-141.408
-8.93156
-149.366
-9.43768
-157.789
-9.97411
-166.706
-10.5426
-176.15
-11.1452
-186.157
-11.7836
-196.763
-12.4598
-208.011
-13.1759
-219.942
-13.9335
-232.604
-14.7344
-246.045
-15.58
-260.319
-16.4712
-275.481
-17.4084
-291.59
-18.3907
-308.708
-19.416
-326.896
-20.4802
-346.219
-21.5762
-366.74
-22.6928
-388.515
-23.8138
-411.597
-24.9153
-436.02
-25.9634
-461.8
-26.9111
-488.915
-27.6942
-517.295
-28.2265
-546.791
-28.3934
-577.144
-28.0486
-607.944
-27.0036
-638.538
-25.0363
-668.024
-21.8688
-694.867
-17.224
-717.457
-10.7831
-731.991
-2.32025
-736.559
8.19575
-721.174
20.6766
-685.459
34.1203
-607.157
47.288
-482.559
58.8262
-261.033
59.7154
265.594
0.335321
500.817
399.321
-2.23957
-5.79498
-2.18521
-8.88821
-2.16005
-11.0638
-2.14588
-13.1818
-2.14594
-15.2719
-2.15666
-17.3024
-2.17865
-19.3255
-2.21085
-21.3382
-2.25338
-23.364
-2.30586
-25.4096
-2.3683
-27.4892
-2.44054
-29.6116
-2.52259
-31.7877
-2.61443
-34.0266
-2.7161
-36.3379
-2.8277
-38.7309
-2.94936
-41.2146
-3.08124
-43.7984
-3.22359
-46.4916
-3.37666
-49.3036
-3.54079
-52.244
-3.71635
-55.3229
-3.90375
-58.5505
-4.10348
-61.9373
-4.31606
-65.4945
-4.54206
-69.2336
-4.78213
-73.1666
-5.03696
-77.3062
-5.30731
-81.6659
-5.59399
-86.2596
-5.89789
-91.1023
-6.21997
-96.2097
-6.56125
-101.599
-6.92283
-107.287
-7.3059
-113.293
-7.71173
-119.638
-8.14166
-126.342
-8.59715
-133.43
-9.07974
-140.925
-9.59104
-148.855
-10.1328
-157.247
-10.7068
-166.132
-11.315
-175.542
-11.9593
-185.512
-12.6417
-196.081
-13.3643
-207.288
-14.1291
-219.177
-14.938
-231.795
-15.7927
-245.19
-16.6947
-259.417
-17.6449
-274.531
-18.6436
-290.592
-19.6899
-307.661
-20.7815
-325.805
-21.9136
-345.087
-23.0789
-365.574
-24.2653
-387.329
-25.4552
-410.407
-26.6232
-434.852
-27.7331
-460.69
-28.7345
-487.914
-29.5588
-516.471
-30.1137
-546.236
-30.2768
-576.981
-29.8911
-608.33
-28.7549
-639.675
-26.6287
-670.15
-23.2138
-698.282
-18.2081
-722.463
-11.264
-738.936
-2.12387
-745.699
9.26434
-732.562
22.8508
-699.046
37.556
-621.862
52.2771
-497.28
64.1401
-272.896
74.2857
255.448
21.3458
553.757
432.406
-2.37692
-5.85576
-2.32434
-8.94079
-2.29986
-11.0883
-2.28688
-13.1948
-2.28852
-15.2702
-2.3014
-17.2895
-2.32608
-19.3008
-2.36158
-21.3027
-2.40798
-23.3176
-2.46495
-25.3526
-2.53246
-27.4217
-2.61038
-29.5337
-2.69871
-31.6994
-2.79745
-33.9279
-2.90665
-36.2287
-3.02641
-38.6111
-3.15687
-41.0842
-3.29824
-43.6571
-3.45074
-46.3391
-3.61468
-49.1396
-3.7904
-52.0683
-3.9783
-55.135
-4.17882
-58.3499
-4.39249
-61.7236
-4.61984
-65.2671
-4.86151
-68.9919
-5.11817
-72.9099
-5.39056
-77.0338
-5.67948
-81.377
-5.9858
-85.9533
-6.31045
-90.7776
-6.65446
-95.8657
-7.0189
-101.234
-7.40494
-106.901
-7.81384
-112.884
-8.24693
-119.205
-8.70564
-125.884
-9.19151
-132.944
-9.70615
-140.411
-10.2513
-148.31
-10.8287
-156.669
-11.4404
-165.52
-12.0882
-174.894
-12.7743
-184.826
-13.5008
-195.355
-14.2698
-206.519
-15.0835
-218.364
-15.9437
-230.935
-16.8524
-244.282
-17.8109
-258.458
-18.8204
-273.521
-19.8809
-289.531
-20.9915
-306.551
-22.1497
-324.646
-23.3504
-343.886
-24.5858
-364.339
-25.843
-386.072
-27.1035
-409.146
-28.3401
-433.615
-29.5145
-459.516
-30.5733
-486.855
-31.4438
-515.6
-32.0278
-545.652
-32.1955
-576.813
-31.7796
-608.746
-30.5653
-640.889
-28.2961
-672.419
-24.6523
-701.926
-19.3057
-727.81
-11.8775
-746.364
-2.0751
-755.501
10.184
-744.821
24.8941
-713.756
40.9077
-637.876
57.2507
-513.623
72.3255
-287.971
87.9235
239.85
137.46
504.22
469.361
-2.51195
-5.91536
-2.46142
-8.99133
-2.43792
-11.1118
-2.42636
-13.2063
-2.42978
-15.2668
-2.44498
-17.2743
-2.47252
-19.2732
-2.51144
-21.2637
-2.56185
-23.2672
-2.6234
-25.2911
-2.69609
-27.349
-2.77978
-29.45
-2.87448
-31.6047
-2.9802
-33.8221
-3.097
-36.1119
-3.22499
-38.4831
-3.36433
-40.9448
-3.51522
-43.5062
-3.67794
-46.1764
-3.85279
-48.9648
-4.04015
-51.8809
-4.24043
-54.9347
-4.45412
-58.1362
-4.68176
-61.496
-4.92394
-65.025
-5.18131
-68.7345
-5.4546
-72.6366
-5.74458
-76.7439
-6.05211
-81.0694
-6.3781
-85.6273
-6.72354
-90.4322
-7.08951
-95.4997
-7.47715
-100.846
-7.88769
-106.49
-8.32245
-112.449
-8.78285
-118.744
-9.27038
-125.396
-9.78666
-132.428
-10.3334
-139.864
-10.9124
-147.731
-11.5256
-156.056
-12.1749
-164.871
-12.8625
-174.206
-13.5905
-184.098
-14.3611
-194.584
-15.1766
-205.704
-16.0392
-217.501
-16.9509
-230.023
-17.9136
-243.319
-18.9289
-257.443
-19.9978
-272.453
-21.1204
-288.408
-22.2957
-305.375
-23.521
-323.421
-24.7911
-342.616
-26.0974
-363.033
-27.4267
-384.742
-28.7593
-407.813
-30.0668
-432.308
-31.3086
-458.274
-32.4289
-485.735
-33.3507
-514.678
-33.9707
-545.032
-34.1519
-576.632
-33.7172
-609.18
-32.4389
-642.167
-30.044
-674.814
-26.191
-705.779
-20.5251
-733.476
-12.6335
-754.255
-2.18587
-765.949
10.9414
-757.949
26.7925
-729.607
44.1526
-655.236
62.2208
-531.692
78.1312
-303.881
91.2907
226.691
73.3949
522.116
534.194
-2.64488
-5.97352
-2.5966
-9.03961
-2.57431
-11.1341
-2.5644
-13.2162
-2.56977
-15.2614
-2.58747
-17.2566
-2.61801
-19.2427
-2.66049
-21.2213
-2.71502
-23.2126
-2.78127
-25.2248
-2.85923
-27.2711
-2.94879
-29.3605
-3.04995
-31.5035
-3.16273
-33.7094
-3.2872
-35.9875
-3.42349
-38.3468
-3.57176
-40.7965
-3.73225
-43.3457
-3.90524
-46.0034
-4.09106
-48.7789
-4.2901
-51.6819
-4.50282
-54.722
-4.72972
-57.9093
-4.97137
-61.2543
-5.22842
-64.7679
-5.50154
-68.4614
-5.79149
-72.3467
-6.09911
-76.4362
-6.42529
-80.7433
-6.77099
-85.2816
-7.13726
-90.0659
-7.52523
-95.1117
-7.93611
-100.436
-8.37119
-106.055
-8.83186
-111.989
-9.31961
-118.256
-9.83601
-124.88
-10.3828
-131.881
-10.9616
-139.285
-11.5745
-147.118
-12.2235
-155.407
-12.9106
-164.183
-13.6379
-173.479
-14.4079
-183.328
-15.2228
-193.769
-16.0849
-204.842
-16.9965
-216.59
-17.9598
-229.06
-18.9767
-242.302
-20.049
-256.371
-21.1775
-271.324
-22.3625
-287.223
-23.6029
-304.135
-24.8958
-322.128
-26.2359
-341.276
-27.6142
-361.654
-29.0169
-383.34
-30.4234
-406.407
-31.8039
-430.927
-33.1164
-456.961
-34.3022
-484.549
-35.281
-513.7
-35.9444
-544.368
-36.1486
-576.428
-35.7071
-609.622
-34.38
-643.494
-31.8774
-677.317
-27.8364
-709.82
-21.8746
-739.437
-13.5425
-762.587
-2.46876
-777.022
11.5223
-771.94
28.5304
-746.615
47.2827
-673.988
67.1865
-551.595
84.0019
-320.697
99.4722
211.221
79.1248
542.463
572.508
-2.77587
-6.03002
-2.72998
-9.0855
-2.70913
-11.1549
-2.70107
-13.2243
-2.70857
-15.2539
-2.72891
-17.2363
-2.76258
-19.209
-2.80876
-21.1751
-2.86754
-23.1539
-2.93859
-25.1538
-3.02193
-27.1877
-3.11745
-29.2649
-3.22516
-31.3958
-3.34508
-33.5895
-3.4773
-35.8552
-3.62195
-38.2022
-3.77923
-40.6393
-3.94938
-43.1755
-4.13269
-45.8201
-4.32953
-48.5821
-4.54031
-51.4711
-4.76551
-54.4968
-5.00567
-57.6692
-5.2614
-60.9986
-5.53335
-64.496
-5.82226
-68.1725
-6.12893
-72.04
-6.45423
-76.1109
-6.7991
-80.3984
-7.16456
-84.9161
-7.55171
-89.6787
-7.96173
-94.7017
-8.3959
-100.001
-8.85557
-105.595
-9.3422
-111.502
-9.85734
-117.741
-10.4027
-124.334
-10.9799
-131.304
-11.591
-138.674
-12.2379
-146.471
-12.9227
-154.723
-13.6476
-163.459
-14.4148
-172.712
-15.2268
-182.516
-16.086
-192.91
-16.9948
-203.933
-17.9555
-215.629
-18.9706
-228.045
-20.0419
-241.231
-21.1713
-255.242
-22.3597
-270.136
-23.6075
-285.976
-24.9134
-302.829
-26.2746
-320.767
-27.6854
-339.865
-29.1366
-360.203
-30.614
-381.862
-32.0962
-404.925
-33.5524
-429.471
-34.9388
-455.575
-36.1946
-483.293
-37.2362
-512.658
-37.9507
-543.654
-38.1879
-576.191
-37.7524
-610.057
-36.3925
-644.854
-33.8016
-679.908
-29.5953
-714.026
-23.3626
-745.67
-14.615
-771.335
-2.93676
-788.701
11.9117
-786.788
30.0902
-764.793
50.2892
-694.187
72.1441
-573.45
89.3328
-337.885
112.528
188.025
78.5521
576.439
636.776
-2.90507
-6.0847
-2.86169
-9.12888
-2.84246
-11.1742
-2.83642
-13.2303
-2.84621
-15.2442
-2.86935
-17.2131
-2.9063
-19.1721
-2.9563
-21.1251
-3.01943
-23.0907
-3.09541
-25.0778
-3.18423
-27.0989
-3.2858
-29.1634
-3.40014
-31.2815
-3.52729
-33.4623
-3.66734
-35.7152
-3.82044
-38.0491
-3.98679
-40.4729
-4.16665
-42.9957
-4.36035
-45.6264
-4.56827
-48.3742
-4.79085
-51.2485
-5.02859
-54.2591
-5.28206
-57.4157
-5.5519
-60.7288
-5.83882
-64.209
-6.14357
-67.8677
-6.467
-71.7166
-6.81003
-75.7679
-7.17364
-80.0348
-7.55891
-84.5308
-7.96699
-89.2707
-8.39912
-94.2696
-8.85662
-99.5439
-9.34094
-105.111
-9.85358
-110.989
-10.3962
-117.199
-10.9705
-123.76
-11.5783
-130.696
-12.2217
-138.031
-12.9026
-145.79
-13.6233
-154.002
-14.3861
-162.696
-15.1933
-171.904
-16.0474
-181.662
-16.951
-192.006
-17.9066
-202.977
-18.9166
-214.619
-19.9836
-226.978
-21.1095
-240.105
-22.2962
-254.055
-23.5449
-268.887
-24.8557
-284.665
-26.2276
-301.457
-27.6576
-319.337
-29.1399
-338.383
-30.6652
-358.678
-32.2187
-380.309
-33.7785
-403.365
-35.3129
-427.937
-36.7768
-454.111
-38.1072
-481.963
-39.2178
-511.547
-39.9915
-542.88
-40.2721
-575.91
-39.8562
-610.473
-38.4802
-646.23
-35.8215
-682.566
-31.4741
-718.374
-24.9976
-752.147
-15.8618
-780.471
-3.6034
-800.959
12.0935
-802.485
31.4533
-784.153
53.1691
-715.903
76.9692
-597.25
95.2838
-356.2
127.943
155.366
95.1029
609.279
692.348
-3.03263
-6.13746
-2.99182
-9.16969
-2.9744
-11.1916
-2.97054
-13.2342
-2.98277
-15.2319
-3.00884
-17.1871
-3.0492
-19.1317
-3.10314
-21.0711
-3.17075
-23.0231
-3.25176
-24.9968
-3.34616
-27.0045
-3.45389
-29.0556
-3.57496
-31.1604
-3.70941
-33.3278
-3.85737
-35.5672
-4.01898
-37.8875
-4.19448
-40.2974
-4.38413
-42.806
-4.58828
-45.4222
-4.80734
-48.1551
-5.04177
-51.0141
-5.29211
-54.0087
-5.55895
-57.1489
-5.84297
-60.4448
-6.1449
-63.9071
-6.46554
-67.5471
-6.8058
-71.3763
-7.16661
-75.4071
-7.54902
-79.6524
-7.95415
-84.1257
-8.38322
-88.8416
-8.8375
-93.8153
-9.31841
-99.063
-9.82742
-104.602
-10.3661
-110.451
-10.9363
-116.629
-11.5396
-123.157
-12.1781
-130.058
-12.8538
-137.355
-13.5689
-145.075
-14.3256
-153.245
-15.1263
-161.895
-15.9736
-171.057
-16.8699
-180.766
-17.818
-191.058
-18.8205
-201.975
-19.88
-213.559
-20.999
-225.859
-22.1797
-238.924
-23.424
-252.811
-24.7332
-267.578
-26.1075
-283.291
-27.5458
-300.019
-29.0453
-317.838
-30.6
-336.828
-32.2004
-357.077
-33.8316
-378.678
-35.471
-401.726
-37.0862
-426.322
-38.6311
-452.566
-40.041
-480.553
-41.227
-510.361
-42.0683
-542.039
-42.4035
-575.575
-42.0212
-610.855
-40.6469
-647.604
-37.9423
-685.271
-33.4794
-722.837
-26.7882
-758.838
-17.2941
-789.965
-4.48285
-813.77
12.0503
-819.018
32.6004
-804.703
55.8947
-739.197
81.6705
-623.026
104.55
-379.08
136.983
122.934
150.275
595.987
755.894
-3.15865
-6.1882
-3.12047
-9.20787
-3.105
-11.2071
-3.10347
-13.2357
-3.11829
-15.2171
-3.14743
-17.1579
-3.19133
-19.0878
-3.24934
-21.0131
-3.32154
-22.9509
-3.40768
-24.9107
-3.50778
-26.9044
-3.62175
-28.9417
-3.74964
-31.0325
-3.8915
-33.186
-4.04744
-35.4113
-4.21765
-37.7172
-4.40236
-40.1127
-4.60187
-42.6065
-4.81655
-45.2075
-5.04681
-47.9249
-5.29316
-50.7678
-5.55615
-53.7457
-5.83642
-56.8686
-6.13467
-60.1465
-6.45167
-63.5901
-6.78827
-67.2105
-7.1454
-71.0192
-7.52406
-75.0284
-7.92533
-79.2511
-8.35039
-83.7007
-8.80049
-88.3915
-9.27701
-93.3388
-9.78138
-98.5586
-10.3152
-104.068
-10.88
-109.886
-11.4777
-116.031
-12.1102
-122.524
-12.7794
-129.388
-13.4876
-136.647
-14.2368
-144.326
-15.0296
-152.452
-15.8684
-161.056
-16.7558
-170.17
-17.6945
-179.827
-18.6873
-190.065
-19.7368
-200.925
-20.8459
-212.45
-22.0171
-224.688
-23.2528
-237.688
-24.555
-251.508
-25.925
-266.208
-27.3631
-281.852
-28.8685
-298.513
-30.438
-316.268
-32.066
-335.2
-33.7428
-355.401
-35.4531
-376.967
-37.1742
-400.004
-38.8731
-424.623
-40.5027
-450.936
-41.9971
-479.059
-43.2652
-509.093
-44.183
-541.121
-44.5842
-575.174
-44.2502
-611.189
-42.8963
-648.958
-40.1686
-687.998
-35.6176
-727.388
-28.7427
-765.713
-18.9231
-799.785
-5.58989
-827.104
11.7633
-836.371
33.5092
-826.449
58.4322
-764.12
86.356
-650.95
111.504
-404.227
142.011
92.4265
145.525
592.473
832.296
-3.28325
-6.23685
-3.24774
-9.24338
-3.23435
-11.2205
-3.23527
-13.2348
-3.25282
-15.1996
-3.28516
-17.1256
-3.33272
-19.0403
-3.39492
-20.9509
-3.47184
-22.874
-3.56323
-24.8193
-3.66913
-26.7985
-3.78945
-28.8214
-3.92425
-30.8977
-4.07359
-33.0367
-4.23761
-35.2473
-4.41649
-37.5384
-4.6105
-39.9187
-4.81994
-42.3971
-5.0452
-44.9823
-5.28674
-47.6833
-5.54507
-50.5094
-5.82078
-53.47
-6.11454
-56.5748
-6.42709
-59.834
-6.75923
-63.258
-7.11185
-66.8579
-7.48591
-70.6451
-7.88248
-74.6319
-8.30267
-78.8309
-8.74772
-83.2556
-9.21894
-87.9203
-9.71775
-92.84
-10.2457
-98.0307
-10.8043
-103.51
-11.3954
-109.295
-12.0208
-115.405
-12.6824
-121.863
-13.3825
-128.688
-14.1231
-135.906
-14.9067
-143.542
-15.7356
-151.623
-16.6126
-160.179
-17.5403
-169.242
-18.5215
-178.846
-19.559
-189.028
-20.6557