/*--------------------------------*- C++ -*----------------------------------*\
| =========                 |                                                 |
| \\      /  F ield         | OpenFOAM: The Open Source CFD Toolbox           |
|  \\    /   O peration     | Version:  4.1                                   |
|   \\  /    A nd           | Web:      www.OpenFOAM.org                      |
|    \\/     M anipulation  |                                                 |
\*---------------------------------------------------------------------------*/
FoamFile
{
    version     2.0;
    format      ascii;
    class       volScalarField;
    location    "27";
    object      p;
}
// * * * * * * * * * * * * * * * * * * * * * * * * * * * * * * * * * * * * * //

dimensions      [0 2 -2 0 0 0 0];

internalField   nonuniform List<scalar> 
6785
(
592.838
514.176
467.122
413.605
366.771
321.639
279.607
239.824
202.253
166.759
132.584
99.5771
72.2615
44.1913
3.2543
-22.6827
-41.1851
-31.4926
-39.11
-38.819
-41.6616
-42.6709
-43.5315
-43.4099
-42.3645
-40.3009
-37.462
-33.1561
-28.4921
-26.3257
-17.927
-22.8934
-14.4776
-19.8335
-16.9249
-19.0242
-19.1908
-20.6261
-21.8405
-23.4652
-25.1481
-26.7411
-27.5475
-27.2305
-25.1434
-1.03042
-3.47433
0.157229
-4.81329
-2.61903
-5.37166
-5.37864
-6.49086
-6.9129
-7.31304
-7.33241
-7.01858
-5.69296
-3.83534
-0.395998
14.4446
14.2567
18.3315
16.4981
20.7627
20.7201
23.4434
25.0363
27.2156
29.3817
31.6853
33.952
36.3826
38.2967
40.632
38.3977
39.366
42.3588
41.5629
44.9107
44.8597
47.1085
47.8266
48.9232
49.2217
49.2663
49.3348
49.8219
50.4492
51.1926
52.1107
51.668
53.2276
51.5112
53.2074
51.7163
52.2937
51.1685
50.6203
49.5746
48.7628
48.0433
47.4417
47.3722
46.2929
42.7462
39.1628
39.8207
36.8319
37.1905
34.989
34.7854
33.2356
32.3996
30.7126
28.8809
26.9042
25.8308
24.9051
21.4612
0.814941
-4.40463
-5.31789
-9.28432
-10.9604
-14.811
-17.3654
-20.9623
-23.6118
-26.1614
-27.7732
-28.4471
-28.8186
-29.661
-29.8486
-28.797
-31.2969
-31.0166
-33.2359
-33.2662
-35.0933
-35.5217
-36.5224
-36.4777
-36.0025
-34.8541
-33.4372
-31.7411
-30.3673
-27.9871
-11.587
-10.3717
-8.51065
-8.16758
-6.32467
-5.61939
-4.12265
-3.03487
-1.73331
-0.528098
0.721039
1.78593
3.16997
4.2456
6.83724
9.74561
11.7665
13.3178
14.1596
15.7638
16.6294
17.9323
18.9403
20.0411
21.0374
22.0558
22.9463
23.9563
24.6882
25.698
30.6221
31.5539
31.5735
31.4314
31.7602
31.4924
31.5737
31.4871
31.5445
31.6369
31.8585
32.0884
32.5122
32.7993
33.406
34.3408
36.6418
35.672
34.7256
34.2869
34.0374
34.2529
34.4868
34.9187
35.2992
35.6437
35.8292
35.9699
35.9438
35.8971
89.0532
86.4614
79.2542
70.1282
63.7231
57.9788
51.9761
47.0723
42.6792
38.8276
35.6462
33.0996
30.5652
28.8018
25.5433
34.0024
34.5359
35.0363
34.9923
35.2096
35.9213
36.7573
36.5591
36.474
36.3683
37.1245
36.5205
36.3442
36.7733
35.8515
35.6583
35.7854
36.0495
34.464
35.1826
35.2932
33.7644
33.6319
34.6939
34.7264
33.1135
33.0762
34.2918
34.8086
32.8272
34.4321
34.9901
33.5305
33.5926
34.8612
35.628
34.1496
35.3876
36.2048
35.2557
35.3474
36.2491
36.9115
36.2259
36.322
37.0045
37.4096
36.8203
37.4538
37.8865
37.5488
37.6783
38.0478
38.7943
38.6357
38.7006
38.8683
39.863
39.7555
39.8289
40.1022
40.0603
40.1887
40.0774
40.5983
41.0762
42.1218
40.3075
38.6622
40.8128
43.0534
32.7846
28.7182
34.1661
39.6824
7.60719
22.3717
30.7362
-26.6043
-8.07437
1.5017
-1.22535
3.84796
-7.09221
-2.15111
2.27227
2.05986
2.46662
2.86862
3.16373
2.53176
5.49464
7.15881
1.86441
3.85979
4.17881
5.2011
6.08134
6.693
6.55388
9.24968
16.0874
7.52789
8.78162
7.78662
8.25131
9.86837
10.4633
9.77091
8.71136
8.44879
17.1893
10.3788
9.45985
7.83994
5.81124
5.57171
6.21592
4.25821
0.25544
2.6596
5.29108
5.63376
4.88932
2.51353
0.690726
-1.42744
-0.755642
-4.56175
-6.54724
6.91887
3.38658
4.07948
3.69777
1.80014
0.188968
-1.33005
-7.66626
-7.49621
7.69757
2.4922
0.939391
-2.03936
-4.08285
-5.90302
-6.81521
-7.56938
-10.3187
-15.3121
2.68326
-1.43022
-1.21643
-2.26729
-3.68163
-8.90652
-10.2886
-7.09279
-19.8941
-0.674003
-3.59773
-4.66815
0.973861
0.42378
2.46822
3.17284
3.94888
4.58064
4.84292
4.97881
5.01334
5.11072
5.0509
4.82928
4.88
4.58589
4.86743
4.48696
4.13746
4.29006
3.82583
4.5903
3.98599
3.12829
4.57546
3.53922
3.0096
3.42188
2.65958
4.47487
3.03314
2.4475
2.95177
2.09625
4.26474
2.83508
1.25304
4.36163
2.37006
1.59867
2.29998
1.25502
4.20012
1.99001
1.3355
1.98063
1.01649
3.83575
2.01121
0.265012
3.83169
1.66029
0.707192
1.56096
0.395869
3.41026
1.40949
0.264272
1.22858
-0.0151063
2.74658
1.3158
-0.770121
2.60902
0.997858
-0.385989
0.694504
-0.527675
2.15795
0.596965
-0.595545
0.371254
-0.763638
1.71136
0.460072
-1.46836
1.69856
0.0987596
-1.1332
-0.235044
-1.27888
-0.0173205
0.126027
0.0652005
0.0625624
0.0443623
0.0316561
0.0204753
0.0127568
0.00730729
0.00315995
-0.000743015
-0.00534993
-0.0113284
-0.0190216
-0.0281419
-0.0375452
-0.0451395
-0.0484185
-0.0455564
-0.0375835
-0.0386046
-0.0857043
-0.126359
-0.0211251
-0.322631
-0.308315
-0.398549
-0.539502
-0.674987
-0.790953
-0.882984
-0.940942
-0.964537
-0.955766
-0.914468
-0.845477
-0.753494
-0.643022
-0.519413
-0.385965
-0.245402
-0.101246
0.0434485
0.186062
0.3247
0.457692
0.58352
0.701116
0.809712
0.90938
1.00022
1.08067
1.14778
1.20008
1.23329
1.23517
1.19349
1.08741
0.896569
0.625433
0.340109
0.133271
0.0289708
0.00232502
-0.00365826
-0.0071621
-0.00827451
-0.010381
-0.012539
-0.0148007
-0.00808206
-0.00926448
0.000432519
0.0158718
0.0883922
0.0408122
0.0502038
0.0327765
-0.0487623
-0.182985
0.0554795
-0.0370638
-0.013576
-0.0123321
-3.3643e-06
0.00961577
0.0193707
0.0281566
0.0359578
0.0424382
0.0464665
0.0464164
0.0398714
0.0242065
-0.00257283
-0.0398365
-0.0826183
-0.12238
-0.151041
-0.175293
-0.234571
-0.247382
0.0578078
-0.433495
-0.402652
-0.592517
-0.847835
-1.08786
-1.29239
-1.45268
-1.54743
-1.57801
-1.5487
-1.45856
-1.31672
-1.13179
-0.911343
-0.664258
-0.397226
-0.117419
0.167993
0.453463
0.734221
1.00635
1.26615
1.51101
1.73829
1.9472
2.13822
2.31062
2.4592
2.57929
2.67072
2.72089
2.70347
2.59683
2.35643
1.93657
1.35647
0.750891
0.309131
0.0769108
0.00848607
-0.0112623
-0.0228856
-0.0281191
-0.0326339
-0.0344533
-0.0371984
-0.0231325
-0.0282788
-0.00991421
0.0581204
0.172108
0.0803697
-0.185866
0.167197
0.0596251
-0.200442
0.161373
0.0161421
0.0427167
0.0277656
0.0312599
0.0327635
0.0375862
0.0433547
0.049065
0.0532333
0.0533579
0.0465796
0.0294073
-0.00104405
-0.0455283
-0.0999968
-0.154828
-0.198644
-0.224598
-0.247996
-0.328874
-0.38388
0.0487138
-0.427446
-0.413521
-0.644459
-0.949329
-1.23514
-1.47741
-1.66757
-1.77834
-1.81292
-1.77573
-1.66498
-1.49195
-1.26653
-0.997668
-0.69639
-0.371197
-0.0307913
0.316312
0.663452
1.0047
1.33524
1.6506
1.9476
2.22328
2.4765
2.70718
2.91404
3.09214
3.23644
3.34467
3.40168
3.37701
3.24288
2.94207
2.42098
1.7076
0.964054
0.416343
0.116982
0.016712
-0.0237114
-0.0501507
-0.0611057
-0.0627511
-0.0593561
-0.0567986
-0.0349065
-0.0348766
-0.0051608
0.0956582
0.193153
0.146471
-0.165056
0.288494
0.0622636
-0.248911
0.141337
-0.0173734
0.020256
0.0108837
0.0241348
0.0341666
0.0467651
0.0592882
0.0706075
0.0791251
0.0815607
0.0739675
0.0513485
0.009573
-0.0521635
-0.127427
-0.202504
-0.263575
-0.303796
-0.337304
-0.417796
-0.483085
-0.0594419
-0.443442
-0.503516
-0.772671
-1.15135
-1.50547
-1.80311
-2.0366
-2.17094
-2.21168
-2.16397
-2.02547
-1.81029
-1.53042
-1.19692
-0.823634
-0.421348
-0.000669371
0.428045
0.856604
1.2776
1.68505
2.07353
2.43908
2.77824
3.08944
3.37212
3.62449
3.84166
4.01783
4.14865
4.21624
4.18475
4.01944
3.64855
3.00983
2.13962
1.23062
0.553246
0.170419
0.027971
-0.0405321
-0.0854909
-0.101868
-0.0974675
-0.0869691
-0.0788137
-0.0488276
-0.0399611
-0.00143343
0.129657
0.21309
0.206067
-0.229616
0.371418
0.102073
-0.236782
0.153821
-0.00443951
0.0363128
0.0249752
0.038011
0.0481662
0.0617162
0.0759356
0.0889924
0.0986841
0.100503
0.089175
0.0582361
0.00284311
-0.0765608
-0.169381
-0.25734
-0.326237
-0.372044
-0.410435
-0.490736
-0.570142
-0.214949
-0.351336
-0.596183
-0.897589
-1.35464
-1.78179
-2.13895
-2.42004
-2.58038
-2.62854
-2.57018
-2.40234
-2.1421
-1.80375
-1.40056
-0.949312
-0.463178
0.0449566
0.562637
1.08001
1.58808
2.07961
2.54805
2.98859
3.39711
3.77169
4.11141
4.41396
4.67395
4.88485
5.04085
5.12081
5.08239
4.88422
4.43847
3.6732
2.63063
1.53623
0.712739
0.233978
0.0397125
-0.064793
-0.13334
-0.155593
-0.142221
-0.121962
-0.104894
-0.0637862
-0.0392938
0.00774595
0.158663
0.227087
0.269232
-0.242322
0.478342
0.146042
-0.221641
0.126171
-0.0159094
0.0271668
0.0209509
0.0388621
0.0544384
0.0729644
0.0921011
0.109372
0.12227
0.125166
0.111454
0.0731002
0.00459177
-0.091809
-0.200718
-0.300484
-0.378891
-0.435149
-0.483915
-0.564668
-0.64413
-0.367239
-0.226987
-0.713922
-1.02359
-1.55162
-2.04813
-2.45944
-2.7838
-2.96621
-3.01955
-2.9495
-2.75246
-2.44854
-2.05406
-1.58442
-1.05913
-0.493644
0.097049
0.698564
1.2995
1.8894
2.45982
3.00319
3.51389
3.98723
4.42093
4.81373
5.16285
5.4626
5.70591
5.8856
5.97775
5.93411
5.70748
5.19405
4.31407
3.1135
1.84611
0.883321
0.306666
0.0520592
-0.0975217
-0.19431
-0.221886
-0.196011
-0.162889
-0.133793
-0.0799079
-0.0356457
0.0195945
0.185755
0.237319
0.329908
-0.259788
0.527282
0.189992
-0.184176
0.103962
-0.0126242
0.0287002
0.0269027
0.0466464
0.0654785
0.0870251
0.109778
0.130347
0.145804
0.149157
0.132269
0.0854495
0.00295212
-0.109823
-0.23199
-0.340448
-0.426679
-0.492714
-0.55241
-0.637502
-0.714805
-0.498937
-0.184484
-0.830769
-1.16461
-1.7588
-2.3279
-2.79326
-3.16044
-3.36346
-3.42087
-3.33786
-3.1104
-2.76179
-2.31035
-1.77364
-1.17398
-0.529043
0.144124
0.829232
1.51335
2.18458
2.83329
3.4509
4.03101
4.56835
5.06031
5.5053
5.90009
6.23883
6.51407
6.71724
6.8221
6.77475
6.52265
5.9456
4.95778
3.60726
2.17244
1.07094
0.389811
0.0635887
-0.142026
-0.271362
-0.303415
-0.261633
-0.212502
-0.167478
-0.0972164
-0.0293817
0.0350556
0.211982
0.247743
0.386702
-0.260323
0.616279
0.208853
-0.144901
0.0700446
-0.0154421
0.0221102
0.0275322
0.0503734
0.0743754
0.100353
0.128015
0.15291
0.171765
0.176126
0.156181
0.100532
0.00389298
-0.123752
-0.256542
-0.37281
-0.4682
-0.546364
-0.619963
-0.713803
-0.792617
-0.631093
-0.278221
-0.873634
-1.32162
-1.97376
-2.61875
-3.13891
-3.54891
-3.77141
-3.83213
-3.7351
-3.47602
-3.08151
-2.57189
-1.96698
-1.29188
-0.5665
0.190043
0.95955
1.72758
2.48075
3.20829
3.90057
4.55043
5.152
5.70235
6.19957
6.64005
7.01778
7.32507
7.55213
7.67062
7.6211
7.34613
6.70921
5.61762
4.12002
2.51893
1.27537
0.482286
0.0719972
-0.200905
-0.366422
-0.401567
-0.34027
-0.271415
-0.206245
-0.115769
-0.0230975
0.0534319
0.239275
0.259543
0.432877
-0.247828
0.668843
0.272683
-0.101101
0.0379495
-0.0132696
0.0183377
0.0316853
0.0567382
0.0856847
0.11575
0.148273
0.17754
0.199873
0.20511
0.181489
0.115955
0.00493728
-0.135647
-0.276986
-0.401176
-0.506762
-0.59805
-0.687004
-0.79336
-0.881219
-0.771406
-0.456021
-0.812443
-1.50521
-2.19904
-2.91942
-3.4951
-3.94703
-4.18687
-4.24942
-4.13685
-3.84476
-3.40319
-2.83444
-2.16066
-1.40971
-0.603678
0.236254
1.09002
1.94169
2.77645
3.58237
4.34883
5.06786
5.73305
6.34113
6.88992
7.37543
7.79162
8.1307
8.38175
8.51472
8.46478
8.16997
7.47864
6.28813
4.6464
2.88212
1.49193
0.583343
0.0742783
-0.277149
-0.482285
-0.518641
-0.434257
-0.341454
-0.251393
-0.136268
-0.0179069
0.0751462
0.268702
0.272825
0.469709
-0.214713
0.668968
0.320609
-0.0592493
0.00347355
-0.0121703
0.0122103
0.0349054
0.0625551
0.0974149
0.132285
0.17045
0.204746
0.231034
0.237165
0.209118
0.132591
0.00761923
-0.143656
-0.29274
-0.42604
-0.543219
-0.649207
-0.755526
-0.877719
-0.980953
-0.917978
-0.650756
-0.715262
-1.72637
-2.44089
-3.23114
-3.86467
-4.35794
-4.61288
-4.6756
-4.54566
-4.21889
-3.72879
-3.0997
-2.35611
-1.52867
-0.641622
0.281847
1.21984
2.15495
3.07099
3.95489
4.79503
5.58267
6.31085
6.97598
7.57563
8.10548
8.55953
8.93011
9.20523
9.35347
9.30492
8.99327
8.25269
6.96773
5.1846
3.26084
1.71695
0.689517
0.0660943
-0.373587
-0.621661
-0.656794
-0.545563
-0.42397
-0.30387
-0.159465
-0.0134758
0.100583
0.302152
0.286948
0.501575
-0.157205
0.68663
0.347288
-0.0185461
-0.0296332
-0.00906693
0.00724527
0.0401044
0.0702741
0.111437
0.151368
0.195581
0.23527
0.265664
0.272203
0.238302
0.149517
0.0116241
-0.148671
-0.306069
-0.449724
-0.579467
-0.701434
-0.826779
-0.967591
-1.09124
-1.07163
-0.848808
-0.697174
-1.97662
-2.70567
-3.55357
-4.24893
-4.7835
-5.05137
-5.11252
-4.96316
-4.59982
-4.0595
-3.36859
-2.55402
-1.64921
-0.680543
0.326824
1.3492
2.36777
3.36496
4.32659
5.24008
6.09592
6.8866
7.60822
8.25813
8.8317
9.3231
9.72495
10.0242
10.1886
10.1433
9.81761
9.03221
7.6562
5.7334
3.65361
1.94787
0.795652
0.0427295
-0.493517
-0.787698
-0.818599
-0.676715
-0.520829
-0.364955
-0.186109
-0.00876711
0.129759
0.340812
0.303731
0.5322
-0.0772661
0.676701
0.418552
0.0197674
-0.0624718
-0.00557922
0.00236793
0.0462773
0.0793266
0.127528
0.173129
0.224053
0.26963
0.304179
0.310157
0.26843
0.166553
0.0172681
-0.151568
-0.318445
-0.473152
-0.616279
-0.755661
-0.901852
-1.06399
-1.21221
-1.23611
-1.06953
-0.832267
-2.22008
-2.99826
-3.88649
-4.64859
-5.22497
-5.50358
-5.56132
-5.39021
-4.98812
-4.39564
-3.64124
-2.75435
-1.77119
-0.72023
0.371436
1.47837
2.58039
3.65859
4.69769
5.68416
6.60774
7.46039
8.23791
8.93743
9.55406
10.0823
10.5151
10.8387
11.02
10.9797
10.6427
9.81644
8.35175
6.29012
4.05729
2.18182
0.896972
3.76019e-05
-0.640533
-0.983813
-1.00681
-0.830562
-0.634054
-0.435971
-0.216815
-0.00347226
0.160005
0.380558
0.327647
0.564322
0.0138312
0.649207
0.453704
0.0563938
-0.0939049
-0.00073035
-0.000998506
0.0546218
0.0908935
0.146716
0.198497
0.256656
0.308398
0.346644
0.350227
0.298307
0.183297
0.0238294
-0.154276
-0.331356
-0.497184
-0.654474
-0.812633
-0.981373
-1.16741
-1.34386
-1.41425
-1.32439
-1.1171
-2.40666
-3.32245
-4.23156
-5.06434
-5.6837
-5.97099
-6.02349
-5.82809
-5.38481
-4.73794
-3.91815
-2.95742
-1.89476
-0.760717
0.415725
1.60744
2.79293
3.95198
5.06828
6.12735
7.11819
8.03226
8.86503
9.61347
10.2725
10.8368
11.3004
11.6483
11.8473
11.8138
11.468
10.6044
9.05207
6.85151
4.46537
2.41929
0.98745
-0.0666538
-0.818417
-1.21364
-1.22484
-1.01054
-0.766013
-0.518385
-0.252181
0.00217684
0.189764
0.415986
0.359724
0.599181
0.110808
0.651749
0.549916
0.0912931
-0.123896
0.00523681
-0.00268154
0.0652318
0.105265
0.169371
0.227943
0.29385
0.351805
0.392598
0.391053
0.326868
0.199472
0.0299961
-0.158294
-0.34523
-0.522007
-0.694344
-0.8726
-1.06554
-1.27796
-1.48595
-1.6065
-1.6073
-1.49241
-2.49901
-3.68422
-4.59295
-5.49685
-6.1608
-6.45495
-6.5005
-6.27818
-5.79101
-5.08721
-4.19989
-3.16359
-2.02011
-0.802068
0.459727
1.73651
3.00553
4.24532
5.43856
6.56986
7.62749
8.6024
9.48979
10.2864
10.987
11.5869
12.0809
12.4531
12.6704
12.6457
12.2932
11.3949
9.75452
7.41438
4.86458
2.66105
1.06153
-0.161481
-1.03115
-1.48115
-1.47767
-1.22058
-0.919239
-0.613715
-0.292822
0.00717249
0.219594
0.448104
0.397346
0.637496
0.213424
0.661472
0.590663
0.124654
-0.151629
0.0128092
-0.0018064
0.0788297
0.12323
0.196205
0.262115
0.336067
0.399744
0.440882
0.430848
0.353328
0.214314
0.0340696
-0.164289
-0.359927
-0.547678
-0.736017
-0.935563
-1.15422
-1.39537
-1.638
-1.81206
-1.90564
-1.89098
-2.50631
-4.09698
-4.9782
-5.94711
-6.6572
-6.9566
-6.99365
-6.74176
-6.20783
-5.44429
-4.487
-3.37317
-2.1474
-0.8443
0.503524
1.86572
3.21838
4.53882
5.80876
7.01191
8.13584
9.17102
10.1123
10.9564
11.6979
12.3326
12.8565
13.2529
13.4892
13.4749
13.1178
12.1868
10.4559
7.97591
5.24478
2.89881
1.1128
-0.287857
-1.28281
-1.79078
-1.77114
-1.46471
-1.09633
-0.723549
-0.33961
0.0104821
0.247863
0.478841
0.439009
0.67926
0.320885
0.733805
0.638062
0.156215
-0.176415
0.0221621
0.00215571
0.0958071
0.14527
0.227654
0.301379
0.383358
0.451453
0.489584
0.467956
0.377207
0.226534
0.0350304
-0.171788
-0.374929
-0.574039
-0.779334
-1.00124
-1.24701
-1.51912
-1.79938
-2.02968
-2.20871
-2.26761
-2.50217
-4.57902
-5.39688
-6.41635
-7.17399
-7.47696
-7.50408
-7.22008
-6.63641
-5.81002
-4.78008
-3.58652
-2.27679
-0.887441
0.547187
1.99523
3.43167
4.83268
6.17907
7.45369
8.64343
9.73828
10.7328
11.6235
12.405
13.0738
13.6271
14.0477
14.3034
14.3014
13.9411
12.9784
11.1525
8.53247
5.60437
3.12109
1.13494
-0.449755
-1.57766
-2.14714
-2.11048
-1.7467
-1.2999
-0.849628
-0.393768
0.0102906
0.272762
0.508203
0.483278
0.723291
0.429104
0.81969
0.765613
0.185578
-0.197276
0.0336465
0.00988149
0.116672
0.171927
0.264136
0.345955
0.435368
0.505412
0.536411
0.501359
0.397864
0.234821
0.0331424
-0.179709
-0.38973
-0.600864
-0.824
-1.06921
-1.34338
-1.6486
-1.9695
-2.25846
-2.51415
-2.62321
-2.59519
-5.13883
-5.85822
-6.90633
-7.71246
-8.01718
-8.03278
-7.71431
-7.07785
-6.18532
-5.07975
-3.80401
-2.40847
-0.931528
0.590788
2.12517
3.64559
5.12713
6.54973
7.89544
9.15047
10.3044
11.3514
12.2879
13.1086
13.8105
14.3928
14.8373
15.1126
15.1246
14.7623
13.7678
11.8402
9.07494
5.95312
3.31917
1.12395
-0.650963
-1.91999
-2.55487
-2.50035
-2.07024
-1.53272
-0.993935
-0.456934
0.00442687
0.292926
0.535901
0.529267
0.769361
0.535734
0.907512
0.837412
0.212126
-0.213257
0.0474948
0.021886
0.141762
0.203542
0.30583
0.395698
0.491079
0.559327
0.579377
0.530661
0.414284
0.23883
0.029841
-0.186928
-0.403914
-0.627849
-0.869611
-1.13899
-1.4428
-1.78321
-2.14781
-2.49807
-2.82683
-2.99547
-2.87959
-5.7587
-6.36952
-7.41875
-8.27444
-8.57877
-8.58061
-8.22544
-7.53323
-6.57108
-5.38668
-4.02606
-2.54262
-0.976597
0.634402
2.25569
3.86033
5.42237
6.92097
8.33737
9.65717
10.8694
11.9681
12.9496
13.8085
14.5427
15.1533
15.6213
15.9166
15.9445
15.5807
14.5528
12.5149
9.57817
6.30169
3.48827
1.07631
-0.895027
-2.31388
-3.01861
-2.94548
-2.43925
-1.79774
-1.15873
-0.531149
-0.00925361
0.307569
0.561964
0.576622
0.818114
0.640479
1.02155
0.950589
0.235193
-0.223406
0.0639241
0.0386238
0.171342
0.240337
0.352715
0.450039
0.54871
0.6106
0.617467
0.555523
0.42562
0.239704
0.026949
-0.192651
-0.417176
-0.654668
-0.915743
-1.21008
-1.54474
-1.92246
-2.33385
-2.74833
-3.15264
-3.41597
-3.39413
-6.39439
-6.93129
-7.95595
-8.86185
-9.16384
-9.14862
-8.75434
-8.00348
-6.96817
-5.70154
-4.2531
-2.67946
-1.02269
0.678107
2.38697
4.07612
5.71868
7.29304
8.77975
10.1638
11.4337
12.5833
13.6088
14.5049
15.2703
15.9085
16.3997
16.715
16.7604
16.3954
15.3307
13.1741
10.0197
6.63833
3.62254
0.9893
-1.18532
-2.76316
-3.54298
-3.45089
-2.85797
-2.09805
-1.34655
-0.618757
-0.0325945
0.316405
0.586649
0.625412
0.870468
0.744183
1.13266
1.11748
0.254123
-0.226916
0.0830525
0.0603968
0.205526
0.282333
0.404454
0.507792
0.605756
0.65716
0.650567
0.575286
0.432148
0.239643
0.0259317
-0.19645
-0.429276
-0.680991
-0.961981
-1.28205
-1.64879
-2.06593
-2.52725
-3.0091
-3.49552
-3.8949
-4.11324
-6.99437
-7.54333
-8.52036
-9.47693
-9.7752
-9.73813
-9.30184
-8.48942
-7.37739
-6.02501
-4.48558
-2.81923
-1.06986
0.721982
2.51916
4.29319
6.01629
7.66622
9.22283
10.6705
11.9975
13.197
14.2655
15.1978
15.9933
16.6582
17.1721
17.5072
17.5723
17.2056
16.0986
13.8168
10.4189
6.93912
3.71508
0.860195
-1.52479
-3.27139
-4.1326
-4.02195
-3.33072
-2.43676
-1.56015
-0.722223
-0.0669779
0.319506
0.610421
0.675903
0.927142
0.84814
1.24065
1.21239
0.268359
-0.22316
0.104927
0.0873791
0.244302
0.32935
0.460316
0.567046
0.659515
0.69818
0.678699
0.589486
0.435654
0.240899
0.0275984
-0.198146
-0.440014
-0.706506
-1.00795
-1.3545
-1.75459
-2.2133
-2.72762
-3.28019
-3.85736
-4.4288
-4.98227
-7.51174
-8.20165
-9.11586
-10.1219
-10.416
-10.3511
-9.86894
-8.99174
-7.79944
-6.3577
-4.72395
-2.96218
-1.11817
0.766107
2.65244
4.51176
6.31549
8.0408
9.6669
11.1776
12.5608
13.8094
14.9199
15.8873
16.7117
17.4023
17.9383
18.2927
18.3797
18.0104
16.8528
14.4183
10.8127
7.19791
3.76466
0.686846
-1.91623
-3.842
-4.7922
-4.66432
-3.86181
-2.81698
-1.80245
-0.843942
-0.113285
0.31722
0.633879
0.728364
0.988227
0.953097
1.36051
1.40644
0.27747
-0.211717
0.129518
0.119603
0.287507
0.38094
0.519016
0.625234
0.708005
0.733895
0.701487
0.598809
0.438782
0.24501
0.0322239
-0.197667
-0.449201
-0.730912
-1.05329
-1.4271
-1.86184
-2.36427
-2.9346
-3.5613
-4.23802
-5.00265
-5.92166
-7.91545
-8.90302
-9.74851
-10.7984
-11.0896
-10.9898
-10.457
-9.51115
-8.23485
-6.70016
-4.96865
-3.10856
-1.16768
0.810555
2.78699
4.73209
6.61658
8.41709
10.1123
11.6855
13.1241
14.4208
15.5721
16.5733
17.4253
18.1405
18.6978
19.0712
19.1825
18.8085
17.5926
14.9279
11.2146
7.41856
3.77066
0.467426
-2.36208
-4.47831
-5.52675
-5.38411
-4.45562
-3.24178
-2.07643
-0.986067
-0.171939
0.310105
0.657663
0.782957
1.05343
1.05882
1.46234
1.49847
0.281159
-0.192355
0.156739
0.156972
0.334824
0.436297
0.57859
0.679703
0.750666
0.764606
0.718679
0.605388
0.44393
0.252651
0.0398063
-0.194961
-0.456631
-0.753905
-1.09767
-1.49952
-1.97023
-2.51848
-3.14772
-3.85197
-4.63571
-5.59611
-6.8387
-8.20343
-9.659
-10.426
-11.5083
-11.799
-11.6571
-11.0678
-10.0486
-8.68411
-7.0528
-5.22006
-3.25862
-1.21849
0.8554
2.92299
4.95444
6.91985
8.79542
10.5593
12.1943
13.6876
15.0313
16.2223
17.2561
18.1341
18.8727
19.4504
19.842
19.9806
19.5984
18.3248
15.3504
11.5855
7.59376
3.73089
0.200541
-2.86406
-5.18308
-6.34117
-6.18776
-5.11673
-3.71432
-2.38505
-1.15038
-0.242986
0.298885
0.682405
0.83968
1.1223
1.16562
1.58362
1.6342
0.279232
-0.164999
0.186455
0.199252
0.385714
0.494105
0.636492
0.728665
0.788019
0.790072
0.731153
0.612036
0.452547
0.263921
0.0502732
-0.189936
-0.462059
-0.775158
-1.14075
-1.57142
-2.07942
-2.67552
-3.36638
-4.15146
-5.04762
-6.18827
-7.66089
-8.46178
-10.4864
-11.1596
-12.2521
-12.5465
-12.3558
-11.7035
-10.6052
-9.14777
-7.41594
-5.47847
-3.41259
-1.27067
0.900712
3.06063
5.17907
7.22562
9.17614
11.0083
12.7045
14.2515
15.6412
16.8705
17.9356
18.8381
19.5985
20.1958
20.6045
20.7745
20.3775
19.0472
15.7531
11.8924
7.72125
3.64419
-0.114277
-3.42282
-5.95795
-7.23965
-7.08142
-5.84959
-4.23768
-2.73104
-1.33822
-0.326159
0.284407
0.708689
0.898452
1.19394
1.27245
1.69383
1.79201
0.271576
-0.129704
0.21848
0.246049
0.439318
0.552414
0.690189
0.77184
0.820497
0.810101
0.741174
0.621108
0.465154
0.278696
0.0635964
-0.182427
-0.46519
-0.794319
-1.18215
-1.64243
-2.18901
-2.83485
-3.58979
-4.45866
-5.47025
-6.76647
-8.36374
-8.78838
-11.4097
-11.9579
-13.0306
-13.3335
-13.0882
-12.3666
-11.1827
-9.62654
-7.78984
-5.74408
-3.57063
-1.32428
0.946563
3.20011
5.40626
7.53423
9.55962
11.4596
13.2163
14.8162
16.2507
17.5171
18.612
19.5372
20.3177
20.9334
21.3581
21.5648
21.1432
19.6765
16.2058
12.1513
7.80488
3.51052
-0.476535
-4.03742
-6.8027
-8.22474
-8.07
-6.65802
-4.81469
-3.11685
-1.55048
-0.420934
0.267621
0.73707
0.959093
1.26769
1.3793
1.79525
1.89219
0.258122
-0.0866392
0.252554
0.296759
0.494291
0.608763
0.73813
0.809917
0.847843
0.825646
0.751547
0.63392
0.481744
0.296844
0.0798419
-0.172191
-0.46568
-0.81101
-1.22149
-1.71215
-2.29853
-2.99582
-3.81694
-4.77199
-5.89995
-7.32626
-8.97424
-9.26675
-12.4402
-12.8264
-13.8426
-14.1605
-13.8565
-13.059
-11.783
-10.1215
-8.17483
-6.01697
-3.73283
-1.37936
0.993032
3.34164
5.63633
7.84603
9.94623
11.9138
13.7303
15.382
16.8601
18.1621
19.2854
20.2314
21.0302
21.6631
22.1022
22.3521
21.9046
20.1131
16.6857
12.3611
7.84366
3.3301
-0.884054
-4.70482
-7.7147
-9.29657
-9.15611
-7.54443
-5.4476
-3.54455
-1.7876
-0.526563
0.249562
0.76809
1.02139
1.34261
1.486
1.91075
2.00292
0.238789
-0.0360753
0.288307
0.350465
0.548688
0.660822
0.780258
0.843297
0.869874
0.839009
0.76451
0.65088
0.502153
0.318329
0.0991786
-0.158916
-0.46316
-0.824848
-1.25838
-1.78015
-2.40741
-3.15761
-4.04656
-5.08935
-6.33249
-7.86895
-9.57152
-9.99881
-13.5194
-13.7629
-14.6859
-15.0271
-14.6624
-13.7828
-12.4079
-10.6338
-8.57139
-6.29721
-3.89918
-1.43588
1.04022
3.48542
5.86958
8.16141
10.3364
12.3711
14.2468
15.9494
17.4698
18.806
19.956
20.9207
21.7355
22.3842
22.8364
23.137
22.7112
20.4281
17.1002
12.5129
7.83592
3.10507
-1.33244
-5.41958
-8.68867
-10.4523
-10.3392
-8.50912
-6.13769
-4.01567
-2.04966
-0.6421
0.231354
0.802326
1.08515
1.41759
1.59167
2.01767
2.13555
0.213393
0.0216314
0.325182
0.405805
0.60013
0.70733
0.817308
0.871627
0.88762
0.852928
0.781238
0.671948
0.526262
0.343226
0.121858
-0.142261
-0.45726
-0.835462
-1.29243
-1.84597
-2.51506
-3.31928
-4.2771
-5.408
-6.76246
-8.39172
-10.1706
-10.973
-14.5607
-14.7459
-15.5567
-15.9311
-15.507
-14.5395
-13.0593
-11.1652
-8.98024
-6.58495
-4.06961
-1.49375
1.08825
3.63169
6.10636
8.48079
10.7306
12.8321
14.7663
16.5188
18.0802
19.4488
20.6239
21.6052
22.4335
23.0964
23.5605
23.9137
23.6138
20.7452
17.4103
12.6206
7.78343
2.83906
-1.8153
-6.17381
-9.71647
-11.6857
-11.6147
-9.54962
-6.88488
-4.53115
-2.33633
-0.766408
0.214227
0.840437
1.15019
1.49178
1.69638
2.11949
2.22637
0.18151
0.0860467
0.362316
0.460875
0.646481
0.748434
0.849538
0.894755
0.90343
0.869486
0.802074
0.696981
0.554051
0.371707
0.148174
-0.121889
-0.447645
-0.842519
-1.32328
-1.90914
-2.6208
-3.47976
-4.50671
-5.72456
-7.18348
-8.88978
-10.7658
-12.1018
-15.4726
-15.754
-16.4484
-16.869
-16.3907
-15.3298
-13.7384
-11.7168
-9.40228
-6.88043
-4.24403
-1.55283
1.1373
3.78069
6.34702
8.80461
11.1293
13.2973
15.2892
17.0906
18.6916
20.0911
21.2894
22.2848
23.124
23.7991
24.2742
24.6662
24.4527
21.1983
17.6609
12.6925
7.6881
2.53691
-2.3244
-6.95738
-10.7873
-12.9869
-12.9735
-10.66
-7.68728
-5.09113
-2.64693
-0.898161
0.199549
0.883224
1.21633
1.56407
1.80005
2.23006
2.35238
0.142316
0.156631
0.398379
0.513459
0.686747
0.784809
0.876511
0.913858
0.919959
0.889734
0.826983
0.725888
0.585604
0.404001
0.178418
-0.097504
-0.434037
-0.845735
-1.35059
-1.96921
-2.72389
-3.63778
-4.73317
-6.035
-7.58855
-9.35822
-11.3488
-13.281
-16.1945
-16.7524
-17.354
-17.8354
-17.3129
-16.1541
-14.446
-12.29
-9.83845
-7.18408
-4.42239
-1.61289
1.18757
3.93269
6.59192
9.13335
11.533
13.7671
15.8162
17.6653
19.3045
20.7331
21.9528
22.9599
23.8066
24.4915
24.9787
25.3919
25.0252
21.7393
17.8449
12.7281
7.55244
2.20535
-2.85026
-7.75923
-11.8896
-14.344
-14.402
-11.8304
-8.54074
-5.69477
-2.98042
-1.03583
0.188868
0.931681
1.28354
1.63293
1.90206
2.32722
2.44933
0.0944331
0.23263
0.43152
0.561714
0.721225
0.816486
0.898221
0.931364
0.939139
0.913965
0.855856
0.758669
0.621072
0.44034
0.212837
-0.0688855
-0.41623
-0.844888
-1.37407
-2.02571
-2.82353
-3.79192
-4.95391
-6.33471
-7.97074
-9.79375
-11.9063
-14.3875
-16.6642
-17.7172
-18.2683
-18.8233
-18.271
-17.0119
-15.1823
-12.8855
-10.2896
-7.49644
-4.60476
-1.67374
1.23935
4.08798
6.84147
9.46751
11.9424
14.2423
16.3476
18.2434
19.9194
21.3752
22.6144
23.6304
24.4814
25.1733
25.6773
26.1309
25.3026
22.2662
17.9493
12.7291
7.38186
1.85209
-3.38388
-8.56989
-13.0142
-15.7465
-15.8857
-13.0475
-9.4386
-6.34014
-3.33532
-1.17765
0.183964
0.987069
1.35174
1.69747
2.00158
2.43807
2.55498
0.0358633
0.312856
0.459687
0.604921
0.750501
0.842942
0.91611
0.949847
0.961893
0.942156
0.888633
0.795397
0.660623
0.48092
0.251597
-0.0358989
-0.3941
-0.839819
-1.39344
-2.07816
-2.91884
-3.94053
-5.16598
-6.61876
-8.32403
-10.1944
-12.4209
-15.3084
-16.8693
-18.6455
-19.1928
-19.8257
-19.261
-17.9012
-15.9466
-13.5034
-10.7562
-7.81801
-4.7913
-1.73517
1.29291
4.24687
7.09604
9.80762
12.358
14.7235
16.8843
18.8256
20.5368
22.018
23.2745
24.2968
25.1482
25.8444
26.3751
27.034
25.4526
22.7049
17.9993
12.6997
7.18234
1.48384
-3.91891
-9.38373
-14.1573
-17.1892
-17.4129
-14.2965
-10.3717
-7.02394
-3.70969
-1.32158
0.18691
1.05098
1.42102
1.75624
2.0975
2.54104
2.67136
-0.035833
0.395451
0.481437
0.643368
0.774478
0.864353
0.932743
0.971067
0.988475
0.97423
0.92532
0.836176
0.704401
0.525858
0.294772
0.00149658
-0.367603
-0.830429
-1.40849
-2.12607
-3.00884
-4.08175
-5.36618
-6.88242
-8.64434
-10.56
-12.8747
-15.9606
-16.9146
-19.5744
-20.1362
-20.8369
-20.2774
-18.8187
-16.737
-14.1431
-11.2385
-8.14915
-4.98222
-1.79708
1.34855
4.40971
7.35604
10.1542
12.7805
15.2114
17.4269
19.4125
21.1573
22.6619
23.9337
24.9593
25.8067
26.5042
27.0605
28.1462
25.6678
23.0522
18.0194
12.6427
6.95853
1.10477
-4.45244
-10.1994
-15.3209
-18.674
-18.9789
-15.5634
-11.3288
-7.74149
-4.10106
-1.46525
0.200162
1.12543
1.49147
1.80908
2.19063
2.64023
2.77321
-0.122842
0.477818
0.496639
0.677266
0.792773
0.882403
0.950632
0.995818
1.01887
1.01014
0.965961
0.881097
0.752478
0.575175
0.342334
0.0432527
-0.336768
-0.81668
-1.41902
-2.16895
-3.09244
-4.21355
-5.55127
-7.12182
-8.93016
-10.8919
-13.2656
-16.3727
-17.044
-20.5375
-21.1134
-21.8541
-21.3147
-19.7597
-17.5504
-14.8031
-11.7358
-8.4899
-5.17768
-1.85941
1.40655
4.57684
7.62186
10.5078
13.2107
15.7068
17.9763
20.0049
21.7816
23.3074
24.5923
25.6185
26.4565
27.1529
27.7019
29.2245
26.0619
23.3356
18.0189
12.5599
6.71357
0.716108
-4.98443
-11.0186
-16.5113
-20.2103
-20.5859
-16.8369
-12.2979
-8.48668
-4.50633
-1.60587
0.226654
1.21298
1.56327
1.85538
2.28258
2.74598
2.87696
-0.225503
0.556784
0.506168
0.706048
0.806013
0.899708
0.97139
1.0243
1.05302
1.04988
1.0106
0.930198
0.804837
0.62879
0.394162
0.0892388
-0.301698
-0.798588
-1.42487
-2.20625
-3.16845
-4.33383
-5.71845
-7.33477
-9.18294
-11.1944
-13.6116
-16.6817
-17.4757
-21.4751
-22.1364
-22.8788
-22.3693
-20.7199
-18.3826
-15.4807
-12.2467
-8.83986
-5.37768
-1.92211
1.46716
4.7486
7.89388
10.8689
13.6492
16.2107
18.5335
20.6036
22.4104
23.9553
25.251
26.2749
27.097
27.7922
28.2812
30.0152
26.5499
23.539
18.0037
12.4527
6.44841
0.316714
-5.51649
-11.845
-17.7388
-21.8138
-22.2431
-18.1091
-13.2666
-9.25218
-4.92173
-1.74017
0.269915
1.31681
1.63674
1.89358
2.3734
2.84539
2.98751
-0.339761
0.628589
0.510803
0.72906
0.816356
0.918608
0.995704
1.05648
1.09088
1.09345
1.05925
0.98343
0.861358
0.686528
0.450048
0.139248
-0.262565
-0.776231
-1.42589
-2.23743
-3.23566
-4.44068
-5.8658
-7.52129
-9.40655
-11.4726
-13.9332
-16.9988
-18.2847
-22.2396
-23.2096
-23.9183
-23.4409
-21.6961
-19.229
-16.1723
-12.7693
-9.19803
-5.5819
-1.98509
1.53058
4.92534
8.17248
11.2379
14.0967
16.7239
19.0993
21.2096
23.0445
24.606
25.9101
26.9294
27.7276
28.4256
28.8191
30.4029
27.0442
23.6614
17.9797
12.3207
6.16182
-0.0960017
-6.05125
-12.6843
-19.0176
-23.5074
-23.968
-19.3761
-14.2231
-10.0297
-5.34278
-1.86434
0.334151
1.44086
1.71219
1.92242
2.46324
2.9424
3.08934
-0.454727
0.688378
0.510788
0.746797
0.826676
0.940473