/*--------------------------------*- C++ -*----------------------------------*\
| =========                 |                                                 |
| \\      /  F ield         | OpenFOAM: The Open Source CFD Toolbox           |
|  \\    /   O peration     | Version:  4.1                                   |
|   \\  /    A nd           | Web:      www.OpenFOAM.org                      |
|    \\/     M anipulation  |                                                 |
\*---------------------------------------------------------------------------*/
FoamFile
{
    version     2.0;
    format      ascii;
    class       volSymmTensorField;
    location    "27";
    object      turbulenceProperties:R;
}
// * * * * * * * * * * * * * * * * * * * * * * * * * * * * * * * * * * * * * //

dimensions      [0 2 -2 0 0 0 0];

internalField   nonuniform List<symmTensor> 
6785
(
(0.753313 1.54861e-19 8.04664e-20 0.753188 0.000167244 0.753499)
(0.753354 -1.19742e-19 -6.01629e-20 0.75332 6.73112e-06 0.753325)
(0.753325 -4.02433e-20 -2.95913e-20 0.75336 3.87042e-05 0.753315)
(0.753334 1.9281e-20 1.55986e-20 0.753345 2.65724e-05 0.753321)
(0.753332 -2.56051e-20 -6.54917e-21 0.753347 2.70988e-05 0.753322)
(0.753333 1.24959e-20 -2.90812e-21 0.753343 2.4081e-05 0.753324)
(0.753332 2.57264e-21 2.85091e-21 0.753342 2.2348e-05 0.753326)
(0.753333 -2.02642e-20 -3.27456e-21 0.753339 2.05344e-05 0.753328)
(0.753333 9.71273e-21 -2.75588e-21 0.753337 1.9141e-05 0.75333)
(0.753333 2.60925e-21 9.06169e-21 0.753334 1.83681e-05 0.753334)
(0.753332 -1.52177e-20 -3.90344e-21 0.753331 1.7779e-05 0.753337)
(0.753334 5.83199e-21 -5.6841e-22 0.753325 1.27333e-05 0.753341)
(0.753334 -6.05917e-23 9.08163e-21 0.753325 5.05228e-06 0.753341)
(0.753318 -8.33645e-21 -2.57181e-22 0.753358 8.29427e-06 0.753324)
(0.753346 3.39802e-21 -2.12521e-21 0.753393 -7.90665e-05 0.753261)
(0.75333 1.86417e-19 1.15084e-19 0.753005 0.000221639 0.753665)
(0.753351 -1.32652e-19 -7.67863e-20 0.75334 -1.52448e-05 0.753309)
(0.753325 -5.28411e-20 -3.16145e-20 0.753378 1.19392e-05 0.753297)
(0.75334 1.13638e-20 1.91303e-20 0.753353 -5.84334e-06 0.753307)
(0.753333 -1.95529e-20 -1.09788e-20 0.753362 1.49576e-06 0.753305)
(0.753336 6.04732e-21 2.39952e-21 0.753356 -2.28563e-06 0.753309)
(0.753334 -9.1607e-21 6.05643e-21 0.753356 -1.57792e-06 0.75331)
(0.753335 -1.08259e-20 -5.70938e-21 0.753353 -2.41938e-06 0.753312)
(0.753334 2.74856e-21 8.01353e-22 0.753353 -3.20615e-06 0.753313)
(0.753334 -3.85113e-21 7.7366e-21 0.753355 -6.22927e-06 0.753311)
(0.753334 -6.95532e-21 -3.25152e-21 0.753363 -1.35264e-05 0.753303)
(0.753334 -7.68361e-22 -5.30216e-22 0.753375 -2.76234e-05 0.753291)
(0.753334 -2.71366e-23 3.1295e-21 0.753384 -4.51005e-05 0.753282)
(0.753333 6.65563e-22 2.76224e-22 0.753366 -4.68426e-05 0.7533)
(0.753332 5.52654e-21 3.81676e-21 0.753323 -1.33027e-05 0.753345)
(0.753329 2.22733e-19 6.39899e-20 0.752962 0.000225346 0.753709)
(0.753339 -1.43286e-19 -7.40725e-20 0.753348 -1.6172e-05 0.753313)
(0.753325 -4.12153e-20 -2.51122e-20 0.75337 -1.33023e-06 0.753305)
(0.753338 3.34454e-20 -2.60542e-20 0.75335 -1.63382e-05 0.753313)
(0.75333 -2.32921e-20 -1.14475e-20 0.75336 -6.55708e-06 0.75331)
(0.753334 7.82889e-21 4.11841e-21 0.753352 -1.20153e-05 0.753314)
(0.753332 7.55438e-21 -3.85826e-20 0.753354 -8.99068e-06 0.753314)
(0.753333 -8.09389e-21 -5.23218e-21 0.75335 -1.00789e-05 0.753317)
(0.753333 9.27722e-21 4.88403e-21 0.75335 -9.78704e-06 0.753317)
(0.753333 5.15638e-21 -2.98081e-20 0.753354 -1.30549e-05 0.753313)
(0.753333 -1.19768e-20 -6.67746e-21 0.75337 -2.17119e-05 0.753298)
(0.753333 2.30228e-20 1.26851e-20 0.753405 -4.15335e-05 0.753263)
(0.753332 2.1862e-21 -9.2777e-22 0.753441 -5.94157e-05 0.753227)
(0.75334 -2.75128e-20 -1.58244e-20 0.753379 -3.76529e-05 0.753281)
(0.75333 6.38167e-21 5.59453e-21 0.753248 5.32159e-05 0.753422)
(0.753332 2.06056e-19 1.39937e-19 0.752956 0.000216731 0.753712)
(0.753337 -1.29229e-19 -1.10762e-19 0.753345 -1.37718e-05 0.753318)
(0.753328 -6.00818e-20 -1.17571e-20 0.753367 -1.0498e-05 0.753305)
(0.753338 1.26834e-20 8.09285e-21 0.753349 -2.03221e-05 0.753313)
(0.75333 -5.69827e-21 -3.56884e-20 0.753359 -9.76111e-06 0.753311)
(0.753335 3.67549e-22 1.15074e-20 0.753351 -1.64421e-05 0.753314)
(0.753332 -3.88016e-21 -2.11323e-21 0.753354 -1.23052e-05 0.753314)
(0.753334 3.88736e-21 -2.15523e-20 0.753351 -1.39051e-05 0.753316)
(0.753333 3.97941e-21 1.99814e-20 0.753351 -1.27907e-05 0.753316)
(0.753334 1.87826e-21 2.28715e-21 0.753352 -1.38335e-05 0.753315)
(0.753333 6.33796e-22 -1.66697e-20 0.753359 -1.63755e-05 0.753308)
(0.753334 -1.29441e-21 6.10548e-21 0.753374 -2.2455e-05 0.753292)
(0.753333 6.91834e-21 4.32959e-21 0.75339 -2.07631e-05 0.753277)
(0.753338 -2.08027e-20 -1.31437e-20 0.753403 -2.71393e-05 0.75326)
(0.75333 1.10469e-20 1.19771e-20 0.753344 1.11054e-05 0.753326)
(0.753333 2.26807e-19 1.09732e-19 0.752966 0.000208624 0.753702)
(0.753336 -1.24701e-19 -1.07704e-19 0.753339 -1.01757e-05 0.753325)
(0.75333 -5.10544e-20 -4.35954e-20 0.753369 -1.59236e-05 0.753301)
(0.753337 1.72127e-20 -2.44032e-21 0.753352 -2.14504e-05 0.753311)
(0.75333 -5.48468e-21 -2.67269e-20 0.753359 -1.20226e-05 0.753311)
(0.753335 8.52162e-21 -6.22101e-21 0.753352 -1.82651e-05 0.753313)
(0.753332 -1.06109e-22 -1.04647e-20 0.753354 -1.40129e-05 0.753313)
(0.753334 -7.20282e-21 -1.66038e-20 0.753351 -1.48257e-05 0.753315)
(0.753333 4.03938e-21 -4.52938e-21 0.75335 -1.31581e-05 0.753316)
(0.753333 3.7199e-21 -3.31651e-21 0.75335 -1.30264e-05 0.753316)
(0.753333 -3.96213e-21 -1.85499e-20 0.753353 -1.31593e-05 0.753314)
(0.753333 -1.08139e-21 -5.92854e-21 0.75336 -1.4512e-05 0.753307)
(0.753333 -7.03619e-22 -4.5416e-21 0.753369 -1.33824e-05 0.753298)
(0.753336 -2.83753e-20 -1.76525e-20 0.75339 -2.68489e-05 0.753274)
(0.75333 5.54028e-20 3.32762e-20 0.753384 -9.68935e-06 0.753286)
(0.753333 2.14663e-19 1.36326e-19 0.752981 0.000201735 0.753686)
(0.753334 -1.4622e-19 -6.16662e-20 0.753339 -8.63646e-06 0.753326)
(0.753331 -7.43319e-20 -1.2641e-20 0.753369 -1.75878e-05 0.7533)
(0.753336 3.27927e-21 1.06862e-20 0.753355 -2.06079e-05 0.753309)
(0.753331 -1.34006e-20 2.53395e-21 0.753361 -1.26928e-05 0.753309)
(0.753335 -4.26128e-21 1.72844e-20 0.753354 -1.84812e-05 0.753311)
(0.753332 -1.23756e-20 -6.3368e-21 0.753356 -1.39431e-05 0.753312)
(0.753334 -8.02244e-21 4.42687e-21 0.753349 -1.67763e-05 0.753317)
(0.753333 -7.61286e-21 9.88065e-21 0.753347 -1.54767e-05 0.75332)
(0.753333 -8.1047e-21 -4.90575e-21 0.753343 -1.47621e-05 0.753323)
(0.753333 -3.83894e-21 3.56165e-21 0.753342 -1.10925e-05 0.753324)
(0.753334 -9.31224e-21 1.01783e-20 0.753344 -6.46253e-06 0.753323)
(0.753333 -8.30494e-21 -4.9109e-21 0.75335 -2.95122e-06 0.753316)
(0.753334 -1.31708e-20 -9.13921e-22 0.753374 -1.21051e-05 0.753292)
(0.753333 2.36131e-20 9.12635e-21 0.753437 -4.1555e-05 0.75323)
(0.753333 2.05461e-19 1.406e-19 0.752988 0.000203186 0.753679)
(0.753334 -1.42571e-19 -6.53656e-20 0.753346 -8.46803e-06 0.75332)
(0.753331 -6.84696e-20 -5.37758e-21 0.753367 -1.37981e-05 0.753301)
(0.753336 -1.40734e-21 2.6155e-22 0.753359 -1.62924e-05 0.753306)
(0.753331 -9.80519e-21 7.5485e-21 0.753364 -1.02275e-05 0.753305)
(0.753335 -1.33718e-20 1.47689e-20 0.753364 -1.7152e-05 0.753301)
(0.753332 -4.33419e-21 -1.18178e-21 0.753373 -1.92111e-05 0.753295)
(0.753334 1.14554e-20 1.05051e-20 0.753371 -2.56032e-05 0.753295)
(0.753333 -1.71494e-20 1.36732e-21 0.753359 -2.16077e-05 0.753308)
(0.753334 -1.72987e-20 -1.03733e-20 0.753336 -1.29338e-05 0.753331)
(0.753333 -3.13011e-21 3.13937e-21 0.753314 -1.88749e-06 0.753353)
(0.753333 -2.36226e-20 -1.38085e-21 0.753305 4.97409e-06 0.753362)
(0.753334 -2.60843e-20 -1.48711e-20 0.753314 4.10644e-06 0.753352)
(0.753332 2.14666e-20 5.40427e-21 0.753351 -5.67962e-06 0.753317)
(0.753334 2.25232e-20 1.74791e-20 0.75349 -8.33819e-05 0.753176)
(0.753332 1.97352e-19 1.03614e-19 0.752966 0.000216949 0.753701)
(0.753335 -1.32314e-19 -7.56065e-20 0.753353 -7.01695e-06 0.753311)
(0.753331 -3.14641e-20 -3.0488e-20 0.753367 -7.95779e-06 0.753302)
(0.753335 -3.96813e-21 1.20538e-21 0.753357 -9.88851e-06 0.753308)
(0.753332 -9.55834e-21 -4.61445e-21 0.753363 -5.78885e-06 0.753306)
(0.753334 -1.01855e-21 -9.70587e-21 0.753368 -1.31922e-05 0.753298)
(0.753332 7.44216e-21 5.33194e-21 0.753385 -1.91037e-05 0.753282)
(0.753334 1.10007e-20 7.35481e-21 0.753392 -2.62097e-05 0.753274)
(0.753333 -6.64487e-21 -8.13493e-21 0.753389 -2.42938e-05 0.753279)
(0.753333 -9.74463e-21 -4.28751e-21 0.753373 -2.05319e-05 0.753294)
(0.753333 -5.51794e-21 -4.90476e-21 0.753348 -1.26856e-05 0.753319)
(0.753333 -5.07354e-21 -8.83201e-21 0.753308 -9.32715e-07 0.753359)
(0.753334 -3.90127e-21 -8.64195e-21 0.753276 7.61309e-06 0.75339)
(0.75333 6.51407e-21 -2.24371e-21 0.753302 -7.85851e-07 0.753369)
(0.753335 5.09034e-21 1.67261e-21 0.753449 -8.71516e-05 0.753216)
(0.753332 1.86707e-19 1.11389e-19 0.752936 0.000224564 0.753732)
(0.753336 -1.20005e-19 -7.3684e-20 0.753336 2.29104e-06 0.753328)
(0.753331 -3.70734e-20 -5.81655e-20 0.753375 -1.31466e-05 0.753293)
(0.753335 -2.35717e-21 -1.15178e-21 0.753355 -1.07386e-05 0.75331)
(0.753332 -5.13829e-21 -2.60029e-21 0.753356 -6.14774e-06 0.753311)
(0.753334 6.44346e-21 -2.88976e-20 0.753359 -1.19586e-05 0.753307)
(0.753333 1.07206e-22 -7.82826e-22 0.753375 -1.56378e-05 0.753293)
(0.753334 1.79784e-20 1.16387e-20 0.753386 -2.2168e-05 0.75328)
(0.753333 8.56548e-21 -1.51319e-20 0.753392 -2.14552e-05 0.753274)
(0.753334 -6.27307e-22 -1.75634e-21 0.753392 -2.17517e-05 0.753274)
(0.753334 2.01778e-20 1.05224e-20 0.753393 -2.34502e-05 0.753273)
(0.753334 1.80525e-21 -3.82466e-21 0.753385 -2.47935e-05 0.753281)
(0.753333 -6.70246e-21 -8.5912e-21 0.753354 -1.68707e-05 0.753313)
(0.753333 -6.09249e-21 -5.02984e-21 0.753307 -6.16608e-06 0.753361)
(0.753335 -2.98389e-20 -1.20086e-20 0.753299 -8.18858e-06 0.753367)
(0.753332 2.08095e-19 9.1977e-20 0.752949 0.000206739 0.753718)
(0.753335 -8.82505e-20 -5.57787e-20 0.753291 2.10065e-05 0.753374)
(0.753332 -6.63174e-20 -6.41736e-20 0.753376 -1.8972e-05 0.753292)
(0.753335 -3.4583e-21 -3.67955e-20 0.753363 -1.98391e-05 0.753303)
(0.753332 -3.76171e-21 -2.36008e-21 0.753355 -1.28251e-05 0.753312)
(0.753334 8.32144e-21 -6.29847e-21 0.753352 -1.49945e-05 0.753314)
(0.753333 6.11261e-21 -3.01552e-20 0.753358 -1.49483e-05 0.753309)
(0.753334 3.70005e-21 1.99567e-21 0.753365 -1.78845e-05 0.753301)
(0.753333 1.67789e-20 1.64102e-22 0.753372 -1.75169e-05 0.753294)
(0.753333 8.12799e-21 -1.67426e-20 0.753378 -1.77147e-05 0.753289)
(0.753333 8.71449e-21 5.54509e-21 0.753384 -1.78181e-05 0.753283)
(0.753333 2.39247e-20 1.3104e-20 0.753393 -1.98014e-05 0.753274)
(0.753329 -1.56934e-20 -1.20993e-20 0.753416 -2.34239e-05 0.753255)
(0.753342 -6.97553e-20 -3.74093e-20 0.753382 -3.56323e-05 0.753277)
(0.753334 3.24335e-20 3.16153e-20 0.753272 3.11442e-05 0.753395)
(0.753333 1.98518e-19 9.87642e-20 0.752994 0.000181475 0.753673)
(0.753333 -6.49676e-20 -1.90271e-20 0.753255 3.95085e-05 0.753411)
(0.753333 -5.47171e-20 -1.11351e-19 0.753369 -2.02063e-05 0.753299)
(0.753334 -3.52333e-20 -2.0379e-20 0.753371 -2.65076e-05 0.753295)
(0.753333 -8.54571e-21 5.03255e-21 0.75336 -1.85036e-05 0.753308)
(0.753334 3.39838e-20 -3.77797e-20 0.753353 -1.74523e-05 0.753314)
(0.753333 -1.99746e-21 -1.3121e-21 0.753353 -1.61199e-05 0.753314)
(0.753333 -7.45495e-21 4.92332e-21 0.753355 -1.70495e-05 0.753311)
(0.753333 2.65487e-20 -3.10454e-20 0.753359 -1.67638e-05 0.753308)
(0.753333 4.36753e-21 4.26539e-21 0.753362 -1.67017e-05 0.753305)
(0.753333 -3.98771e-21 8.59373e-21 0.753366 -1.6127e-05 0.753301)
(0.753333 1.13838e-20 -1.32907e-20 0.753372 -1.69248e-05 0.753295)
(0.753332 -9.48233e-21 -1.39632e-21 0.753383 -1.68286e-05 0.753285)
(0.753337 -5.68614e-20 -3.75608e-20 0.753396 -2.84257e-05 0.753267)
(0.75333 5.48712e-20 3.75005e-20 0.75335 6.47318e-06 0.75332)
(0.753334 1.94464e-19 1.14787e-19 0.753029 0.000167357 0.753637)
(0.753333 -5.42311e-20 -1.12537e-20 0.753241 4.98557e-05 0.753426)
(0.753333 -7.99181e-20 -8.9847e-20 0.753365 -1.99498e-05 0.753302)
(0.753334 -3.36521e-20 -1.88974e-20 0.753376 -2.80065e-05 0.75329)
(0.753333 -1.43969e-20 9.69075e-21 0.753364 -1.93865e-05 0.753303)
(0.753334 1.22866e-20 -1.62135e-20 0.753355 -1.60869e-05 0.753311)
(0.753333 1.12759e-20 7.8871e-21 0.753354 -1.39733e-05 0.753313)
(0.753333 -1.47988e-20 1.14375e-20 0.753354 -1.40317e-05 0.753313)
(0.753333 -7.84654e-21 -1.5383e-20 0.753354 -1.3476e-05 0.753312)
(0.753333 7.23915e-21 5.27493e-21 0.753355 -1.33046e-05 0.753311)
(0.753333 -7.96358e-21 -4.00602e-21 0.753357 -1.29996e-05 0.753309)
(0.753334 -1.76247e-21 -1.05235e-20 0.753361 -1.39762e-05 0.753306)
(0.753333 -1.14578e-20 1.22141e-21 0.753369 -1.58576e-05 0.753298)
(0.753336 -5.50155e-20 -3.31786e-20 0.753389 -2.98362e-05 0.753276)
(0.75333 7.26252e-20 4.34672e-20 0.753376 -1.04628e-05 0.753293)
(0.753333 1.94268e-19 9.85874e-20 0.75304 0.000162834 0.753626)
(0.753333 -2.3252e-20 -3.55584e-20 0.75324 5.00771e-05 0.753427)
(0.753333 -1.10373e-19 -4.25097e-20 0.753359 -1.83452e-05 0.753308)
(0.753333 -1.79304e-20 -4.20791e-20 0.753371 -2.66355e-05 0.753295)
(0.753333 -3.73662e-21 -1.86266e-21 0.753361 -1.97867e-05 0.753306)
(0.753333 -1.30749e-20 -7.70538e-21 0.753354 -1.64199e-05 0.753313)
(0.753333 1.64579e-20 6.8893e-22 0.753352 -1.39814e-05 0.753315)
(0.753333 -1.23173e-20 2.95399e-20 0.753352 -1.32654e-05 0.753314)
(0.753333 -1.32835e-20 -1.96547e-20 0.753353 -1.23791e-05 0.753313)
(0.753333 -1.41593e-21 -5.64078e-22 0.753354 -1.18153e-05 0.753312)
(0.753333 -1.39578e-20 6.53637e-22 0.753356 -1.10491e-05 0.753311)
(0.753333 -1.15299e-20 -1.21336e-20 0.753357 -1.07141e-05 0.753309)
(0.753333 -1.07395e-21 1.0934e-21 0.753361 -1.03313e-05 0.753306)
(0.753334 -4.18893e-20 -2.11044e-20 0.75338 -2.07486e-05 0.753286)
(0.753333 6.55723e-20 3.28129e-20 0.753406 -2.99184e-05 0.753261)
(0.753336 1.7294e-19 1.03129e-19 0.753067 0.000141534 0.753597)
(0.753332 -9.69062e-21 -1.67883e-20 0.753233 5.48056e-05 0.753435)
(0.753334 -1.15123e-19 -1.00683e-19 0.753364 -1.5963e-05 0.753302)
(0.753334 -2.83929e-20 -3.23046e-20 0.753385 -2.36737e-05 0.753281)
(0.753334 1.62794e-20 -5.43024e-22 0.753368 -1.38659e-05 0.753299)
(0.753334 -1.2248e-20 -6.52202e-21 0.753353 -7.38467e-06 0.753313)
(0.753333 7.60812e-21 1.62022e-20 0.753347 -4.95597e-06 0.753319)
(0.753334 2.19071e-20 4.66212e-21 0.753345 -5.51558e-06 0.753321)
(0.753333 -1.55682e-20 -9.18841e-21 0.753344 -5.98908e-06 0.753323)
(0.753333 -2.35368e-20 -3.69555e-21 0.753343 -6.92014e-06 0.753324)
(0.753333 -1.01264e-20 -1.44574e-20 0.753343 -7.52203e-06 0.753324)
(0.753333 -4.42668e-21 -1.27012e-21 0.753344 -7.60093e-06 0.753322)
(0.753333 -3.99558e-21 6.47257e-21 0.75335 -6.69835e-06 0.753317)
(0.753333 -2.47358e-20 -1.67692e-20 0.75337 -1.36058e-05 0.753296)
(0.753333 5.81385e-20 3.52991e-20 0.753447 -5.56861e-05 0.753219)
(0.753331 1.1501e-19 7.40401e-20 0.753078 0.000131397 0.753591)
(0.753332 6.74168e-20 3.17225e-20 0.753178 4.87612e-05 0.75349)
(0.753333 -7.41562e-20 -1.86874e-20 0.753292 -8.84888e-06 0.753375)
(0.753333 -7.45799e-20 -4.94369e-20 0.753351 -2.628e-05 0.753315)
(0.753333 -2.13105e-20 -3.03282e-20 0.75337 -2.26626e-05 0.753297)
(0.753333 -2.42401e-20 -4.88847e-21 0.75337 -1.78875e-05 0.753297)
(0.753333 -4.1171e-21 -7.37447e-21 0.753371 -1.37182e-05 0.753296)
(0.753333 2.25914e-20 5.61467e-22 0.753372 -1.12481e-05 0.753295)
(0.753333 5.15515e-21 1.1935e-20 0.753372 -9.82381e-06 0.753295)
(0.753333 -1.89426e-20 -1.37669e-20 0.75337 -8.06608e-06 0.753297)
(0.753333 -2.15981e-20 -2.28912e-20 0.753362 -2.60276e-06 0.753305)
(0.753333 -2.09751e-20 -9.69254e-21 0.753345 7.60259e-06 0.753322)
(0.753334 -2.24924e-20 -1.63925e-20 0.753331 1.38551e-05 0.753335)
(0.753331 -3.35927e-20 -2.77023e-20 0.753359 4.56041e-06 0.75331)
(0.753335 1.0583e-19 6.07541e-20 0.753474 -6.63449e-05 0.753191)
(0.753832 9.20323e-21 5.68939e-22 0.752633 0.000570181 0.753535)
(0.753225 8.06914e-21 1.16635e-21 0.753497 0.000604139 0.753278)
(0.753332 3.57176e-24 2.62914e-21 0.753335 8.37868e-05 0.753334)
(0.753335 -2.37265e-22 2.6244e-21 0.753314 -2.50477e-05 0.753351)
(0.753336 3.91457e-21 2.91645e-21 0.753312 1.6469e-05 0.753352)
(0.753333 6.07585e-23 1.11017e-21 0.753326 -5.04004e-06 0.753341)
(0.753331 -4.27254e-21 2.90257e-21 0.753323 -1.06883e-05 0.753346)
(0.753336 1.40172e-21 2.67184e-21 0.753314 -2.74377e-07 0.75335)
(0.753335 -3.96457e-21 2.30107e-21 0.753315 6.13287e-06 0.75335)
(0.753333 -8.44829e-21 -8.28543e-22 0.753327 -2.81888e-06 0.753341)
(0.753331 -5.80373e-21 1.56294e-22 0.753324 -1.42893e-05 0.753345)
(0.753337 3.84626e-21 1.31614e-22 0.753314 1.03265e-06 0.75335)
(0.753333 3.92904e-21 1.55576e-21 0.753328 -3.51113e-06 0.753339)
(0.753332 7.6649e-22 1.08208e-21 0.753324 -1.30172e-05 0.753344)
(0.753335 5.07035e-22 1.15912e-21 0.753319 -5.73957e-06 0.753346)
(0.753334 4.26686e-21 1.53607e-21 0.753321 -1.81786e-06 0.753345)
(0.753333 9.95546e-22 1.66565e-21 0.75333 -4.11803e-06 0.753337)
(0.753331 -4.70144e-21 1.68491e-21 0.753328 -1.56197e-05 0.753341)
(0.753338 1.36668e-21 1.41902e-21 0.753316 -5.92654e-06 0.753347)
(0.753333 5.17534e-22 1.61809e-21 0.753332 -4.30738e-06 0.753335)
(0.753332 -2.48833e-21 1.65118e-21 0.753328 -1.35167e-05 0.75334)
(0.753335 -3.67094e-21 1.35531e-21 0.753323 -8.70381e-06 0.753342)
(0.753334 -3.52814e-22 6.39068e-22 0.753325 -7.32414e-06 0.753341)
(0.753333 1.58342e-22 1.70405e-21 0.753333 -3.94081e-06 0.753334)
(0.753332 -3.80846e-21 1.24695e-21 0.753331 -1.21177e-05 0.753337)
(0.753335 -1.89192e-22 9.65422e-22 0.753325 -8.37933e-06 0.75334)
(0.753334 2.35e-21 1.75481e-21 0.753328 -8.26897e-06 0.753338)
(0.753333 7.74237e-22 1.67287e-21 0.753335 -3.36402e-06 0.753332)
(0.753331 -3.53559e-21 1.57182e-21 0.753336 -9.56252e-06 0.753334)
(0.753338 4.55605e-22 1.22819e-21 0.753321 -9.28099e-06 0.753341)
(0.753333 3.16545e-22 1.61657e-21 0.753337 -3.06171e-06 0.75333)
(0.753332 -4.04453e-21 1.5176e-21 0.753335 -7.83859e-06 0.753333)
(0.753335 -1.0741e-21 1.10842e-21 0.753328 -5.78492e-06 0.753337)
(0.753334 1.33552e-21 1.2638e-21 0.753331 -8.54684e-06 0.753335)
(0.753333 -1.07322e-21 1.58932e-21 0.753338 -2.57362e-06 0.753329)
(0.753331 -5.54788e-21 9.74413e-22 0.753338 -4.74631e-06 0.753331)
(0.753337 -2.41391e-21 5.08789e-22 0.753325 -8.45274e-06 0.753338)
(0.753333 -1.56327e-21 1.31317e-21 0.75334 -2.2271e-06 0.753328)
(0.753332 -2.03484e-21 1.75785e-22 0.753337 -4.05042e-06 0.753331)
(0.753335 -3.34557e-21 -6.68796e-23 0.75333 -3.14313e-06 0.753335)
(0.753334 -2.91078e-21 -4.58312e-22 0.753333 -7.37562e-06 0.753333)
(0.753333 -3.19137e-22 5.9608e-22 0.753339 -1.70982e-06 0.753328)
(0.753332 7.21934e-22 -5.18114e-22 0.753337 -2.83804e-06 0.753331)
(0.753335 1.85015e-21 -3.99108e-22 0.753331 -2.28291e-06 0.753334)
(0.753334 1.08306e-21 -2.63396e-22 0.753333 -6.41557e-06 0.753333)
(0.753333 2.00376e-21 9.43646e-23 0.753337 -1.76197e-06 0.75333)
(0.753332 2.80856e-21 9.25822e-23 0.753337 -1.50017e-06 0.75333)
(0.753336 2.29484e-21 5.21227e-22 0.75333 -6.74909e-06 0.753334)
(0.753333 -1.1436e-21 4.69362e-22 0.753338 -1.17746e-06 0.75333)
(0.753333 -3.4939e-21 6.0079e-22 0.753338 -1.82116e-06 0.75333)
(0.753334 -2.01474e-21 -3.65806e-23 0.753333 -1.17812e-06 0.753332)
(0.753333 -1.94739e-21 -2.54336e-22 0.753336 -5.65662e-06 0.753331)
(0.753333 -1.06348e-21 2.14913e-22 0.75334 1.15036e-06 0.753327)
(0.753332 9.38989e-22 -4.94303e-22 0.753339 6.51964e-07 0.753329)
(0.753334 -4.29289e-21 -6.17103e-22 0.753333 -1.55235e-06 0.753332)
(0.753333 -6.67375e-21 -1.13398e-21 0.753336 -1.62941e-06 0.753331)
(0.753334 -1.61886e-21 4.45766e-22 0.753343 7.47809e-06 0.753323)
(0.75333 1.41734e-20 -1.34559e-21 0.75334 -9.67239e-07 0.75333)
(0.753337 1.32617e-20 2.31906e-22 0.753325 1.20409e-05 0.753339)
(0.753333 -3.7468e-21 7.70385e-22 0.75335 1.82275e-05 0.753317)
(0.753329 -6.50335e-21 -7.49408e-22 0.753334 8.83279e-06 0.753337)
(0.753343 -3.75804e-21 -1.38492e-21 0.753304 9.79404e-06 0.753353)
(0.753331 4.01161e-21 -1.13262e-21 0.75333 -1.35961e-05 0.753339)
(0.753333 1.34358e-20 1.75815e-22 0.753357 -2.34447e-05 0.75331)
(0.753334 1.20895e-20 2.1613e-21 0.753337 -1.97585e-05 0.753328)
(0.753335 6.78342e-21 3.22328e-21 0.753342 -2.43368e-05 0.753324)
(0.753333 2.96705e-21 1.95029e-22 0.753361 -1.73432e-05 0.753306)
(0.753332 -5.21047e-22 2.13415e-21 0.75336 -3.18709e-07 0.753308)
(0.753337 3.58551e-21 3.98594e-21 0.753351 -2.04715e-06 0.753312)
(0.753333 5.89092e-21 4.5518e-21 0.753366 -3.1856e-05 0.753301)
(0.753333 -2.39159e-21 -9.27848e-22 0.753367 -8.78626e-06 0.7533)
(0.753334 -9.26972e-21 3.98342e-21 0.753373 2.17207e-05 0.753294)
(0.753337 -8.77184e-21 2.97716e-21 0.753364 8.27383e-06 0.753298)
(0.753334 -1.14539e-20 1.7525e-21 0.75338 -2.30922e-05 0.753287)
(0.753331 -6.17584e-21 -6.02213e-21 0.753374 -2.83331e-07 0.753296)
(0.753349 -1.13782e-20 -2.86565e-22 0.753351 3.62326e-05 0.7533)
(0.75333 -1.11695e-20 -1.5331e-21 0.753393 -2.88708e-05 0.753276)
(0.75333 -1.68148e-21 -3.69567e-21 0.753373 -5.52966e-07 0.753297)
(0.75335 1.5382e-20 -2.34381e-21 0.75336 3.28055e-05 0.753291)
(0.753329 6.17254e-20 5.94285e-22 0.753406 -8.72758e-05 0.753265)
(0.753327 2.95177e-20 -1.08905e-20 0.753361 -6.17641e-05 0.753312)
(0.753343 -2.52634e-20 -1.29343e-20 0.753326 1.52047e-05 0.753331)
(0.753326 -3.57434e-20 -1.48767e-20 0.753367 -2.27899e-05 0.753308)
(0.753334 -1.54081e-20 6.16817e-21 0.753344 -7.09682e-06 0.753322)
(0.753337 2.76359e-21 -1.28695e-20 0.753336 -2.49499e-05 0.753327)
(0.75333 -2.60034e-20 -8.20955e-21 0.753345 -5.09231e-05 0.753325)
(0.753335 -2.15432e-21 -8.45909e-21 0.753338 -2.33445e-05 0.753327)
(0.753333 -7.81847e-21 -8.54541e-21 0.753344 -2.12853e-05 0.753323)
(0.753334 -2.32949e-20 -9.03267e-21 0.753344 -1.33324e-05 0.753322)
(0.753332 -4.38256e-20 -1.05415e-20 0.753348 -9.35802e-08 0.75332)
(0.753336 -5.60894e-20 -1.15366e-20 0.75334 7.67977e-06 0.753324)
(0.753333 -4.62889e-20 -1.04095e-20 0.753351 -9.32551e-06 0.753316)
(0.753333 -1.14267e-20 2.39389e-21 0.75334 -5.98644e-06 0.753327)
(0.753338 3.9024e-22 -7.73205e-21 0.753339 7.6981e-06 0.753322)
(0.753332 -1.83642e-20 -6.46763e-21 0.753351 -1.11659e-06 0.753317)
(0.753334 -1.52643e-20 -7.23241e-21 0.753347 9.25407e-06 0.753318)
(0.753333 -5.49403e-22 -6.26866e-21 0.753351 -1.3328e-05 0.753316)
(0.753334 9.46985e-21 -6.37618e-21 0.753351 -2.76623e-05 0.753315)
(0.753332 -4.66395e-21 -6.49133e-21 0.753356 -2.35237e-05 0.753312)
(0.753335 -1.6105e-20 -7.28062e-21 0.753352 -2.36496e-05 0.753313)
(0.753335 -3.2579e-20 -9.0239e-21 0.753355 -2.40003e-05 0.753311)
(0.753333 7.27695e-21 -1.95328e-20 0.753333 -5.47517e-06 0.753334)
(0.753339 6.02161e-21 -6.28159e-21 0.75334 2.391e-08 0.753321)
(0.753331 -8.21548e-21 -5.12314e-21 0.753353 -1.86066e-05 0.753316)
(0.753334 -7.58768e-21 -5.43363e-21 0.75335 -3.14261e-06 0.753316)
(0.753334 -1.51231e-20 -5.56442e-21 0.753352 -4.46661e-06 0.753315)
(0.753333 -1.84222e-20 -4.9395e-21 0.753352 -8.40253e-06 0.753315)
(0.753334 4.26672e-21 -2.6428e-21 0.753349 -3.27786e-06 0.753317)
(0.753334 1.67791e-20 -2.07982e-21 0.753349 -2.38908e-06 0.753317)
(0.753333 4.77818e-21 -2.37828e-21 0.753352 -1.14636e-05 0.753315)
(0.753338 -8.48604e-21 -3.48844e-21 0.753343 -1.11039e-05 0.753319)
(0.753333 -1.93505e-20 1.29427e-20 0.753324 -4.68425e-06 0.753344)
(0.753338 -3.27801e-21 -2.41897e-21 0.753336 4.00799e-06 0.753326)
(0.753333 -1.4994e-20 -1.93524e-21 0.753344 -8.27145e-06 0.753323)
(0.753333 -1.7426e-20 -2.37374e-21 0.753345 -9.4423e-06 0.753322)
(0.753334 -2.05289e-20 -2.89313e-21 0.753344 -1.78019e-05 0.753322)
(0.753334 -7.11564e-21 -3.15055e-21 0.753346 -3.73374e-05 0.75332)
(0.753333 6.39011e-22 -4.74297e-21 0.753347 -4.18962e-05 0.75332)
(0.753332 -9.82271e-21 -6.20329e-21 0.753348 -2.6574e-05 0.75332)
(0.753341 -2.15785e-20 -7.54281e-21 0.753329 -5.14153e-06 0.753331)
(0.753332 -9.08967e-21 5.02125e-21 0.753311 -4.03277e-06 0.753357)
(0.753337 8.81648e-21 -6.98173e-21 0.753333 -1.28385e-05 0.75333)
(0.753334 8.29079e-21 -7.00714e-21 0.753338 -1.34228e-05 0.753328)
(0.753333 4.28078e-21 -7.60277e-21 0.753338 1.57938e-05 0.753329)
(0.753334 2.14706e-21 -7.33145e-21 0.753335 3.27288e-05 0.75333)
(0.753332 1.17752e-20 -7.15644e-21 0.753337 3.03323e-05 0.75333)
(0.753336 6.77816e-21 -7.01978e-21 0.753328 2.46528e-05 0.753336)
(0.75333 -2.09517e-20 -8.59367e-21 0.753343 1.8836e-06 0.753328)
(0.753342 -3.46198e-20 -8.09574e-21 0.753309 2.04172e-05 0.75335)
(0.753333 4.55397e-21 -1.73063e-20 0.753299 1.33096e-06 0.753368)
(0.753332 -9.35218e-21 -5.40408e-21 0.753329 -1.2025e-05 0.75334)
(0.753338 -3.61808e-20 -4.09135e-21 0.753319 9.07815e-08 0.753343)
(0.753332 -4.39453e-20 -5.03436e-21 0.753328 -2.81027e-05 0.75334)
(0.753333 -4.68555e-20 -5.54858e-21 0.753323 -2.56049e-05 0.753344)
(0.753334 -4.01255e-20 -6.59342e-21 0.753319 -8.23566e-06 0.753346)
(0.753336 -3.80349e-20 -7.75697e-21 0.753316 -1.3158e-06 0.753348)
(0.753329 -3.16013e-20 -8.55756e-21 0.753328 1.12071e-05 0.753343)
(0.753346 -2.42814e-20 -8.98466e-21 0.753286 4.8591e-05 0.753368)
(0.753332 1.64327e-21 -5.83035e-21 0.753292 4.09933e-06 0.753376)
(0.753332 3.11825e-20 -5.17163e-21 0.75332 3.77165e-05 0.753348)
(0.753339 5.61302e-20 -5.67311e-21 0.753313 0.000126655 0.753348)
(0.753331 6.91612e-20 -4.4587e-21 0.753321 0.000130557 0.753348)
(0.753335 6.23689e-20 -2.28952e-21 0.753306 0.000151173 0.753359)
(0.753333 -9.18081e-21 -1.19964e-21 0.7533 0.000145621 0.753367)
(0.753334 3.06893e-20 1.06757e-20 0.753283 0.00015376 0.753383)
(0.753335 9.74862e-20 1.41447e-20 0.753271 0.000158628 0.753394)
(0.753332 6.34887e-20 1.49398e-20 0.753269 0.000138967 0.753399)
(0.753347 6.34526e-20 1.68832e-20 0.75323 0.000132737 0.753423)
(0.753332 1.41386e-21 8.56012e-21 0.753287 -3.13209e-06 0.75338)
(0.753332 -2.41284e-22 1.42338e-20 0.753289 4.27335e-06 0.75338)
(0.753344 3.68825e-20 1.32717e-20 0.753275 8.39874e-05 0.753381)
(0.75333 2.38927e-20 1.48004e-20 0.753295 3.8658e-05 0.753376)
(0.753338 3.47643e-20 1.55769e-20 0.753275 7.22671e-05 0.753387)
(0.753328 8.4416e-20 1.80609e-20 0.753288 0.000128874 0.753385)
(0.753337 1.27845e-19 1.7464e-20 0.753266 0.000184319 0.753397)
(0.753341 3.97393e-20 5.11087e-21 0.753283 9.05504e-05 0.753376)
(0.753337 -1.58216e-20 2.15733e-21 0.753295 3.13037e-05 0.753368)
(0.753332 7.64609e-21 5.26172e-21 0.753312 -2.83536e-06 0.753355)
(0.753334 4.08758e-22 3.68034e-21 0.753308 2.72337e-05 0.753357)
(0.753349 1.66285e-20 2.95689e-21 0.753286 0.000103931 0.753365)
(0.753335 1.11469e-20 4.91042e-22 0.753315 4.54403e-05 0.75335)
(0.753331 -2.06515e-21 -1.30423e-22 0.75333 -2.63111e-06 0.753339)
(0.753335 5.25954e-22 3.32241e-23 0.753322 -6.7355e-06 0.753343)
(0.753332 8.80315e-22 9.11569e-22 0.753326 3.42693e-06 0.753343)
(0.753334 1.14394e-21 1.40783e-21 0.753326 -1.4646e-06 0.753341)
(0.753333 3.30132e-22 1.16292e-21 0.753324 -1.58364e-08 0.753343)
(0.753333 -7.8251e-23 7.27597e-22 0.753328 5.16797e-07 0.753339)
(0.753333 -2.97133e-21 1.55633e-22 0.753329 -6.11165e-06 0.753338)
(0.753334 -2.66352e-21 -4.55511e-23 0.753327 2.13727e-06 0.753339)
(0.753333 5.97663e-22 2.29461e-23 0.753329 3.52035e-06 0.753338)
(0.753333 8.89112e-23 1.05075e-24 0.75333 -3.28949e-06 0.753337)
(0.753333 1.1362e-22 3.11387e-23 0.753327 -3.37801e-06 0.75334)
(0.753333 -1.80575e-22 1.92328e-23 0.75333 -1.17878e-06 0.753336)
(0.753333 1.76413e-21 1.27352e-22 0.75333 -3.69343e-06 0.753338)
(0.753334 1.34648e-21 5.07132e-22 0.75333 3.40235e-07 0.753336)
(0.753333 -7.19757e-22 9.92554e-23 0.753332 -2.47068e-06 0.753335)
(0.753334 -4.76977e-23 5.06185e-22 0.753329 -4.24352e-06 0.753338)
(0.753334 -4.48854e-23 4.04517e-22 0.753331 -1.33619e-06 0.753336)
(0.753332 3.16505e-22 7.31961e-22 0.753332 -4.75512e-06 0.753336)
(0.753334 5.74967e-22 7.54624e-23 0.75333 -3.73036e-07 0.753336)
(0.753333 -3.61207e-22 7.60482e-23 0.753333 -2.34511e-06 0.753334)
(0.753333 -5.56476e-22 7.72494e-22 0.753332 -5.54773e-06 0.753335)
(0.753335 9.84678e-22 2.27455e-23 0.753329 -7.05302e-07 0.753336)
(0.753332 8.19983e-23 1.25106e-22 0.753334 -2.15594e-06 0.753334)
(0.753334 1.75494e-22 1.09148e-21 0.75333 -5.14559e-06 0.753336)
(0.753334 4.31311e-22 1.16965e-22 0.753331 -1.53938e-06 0.753335)
(0.753332 9.11819e-22 1.3201e-21 0.753335 -5.49297e-06 0.753333)
(0.753335 1.55028e-21 3.44699e-22 0.753329 -9.03766e-07 0.753336)
(0.753332 -1.61466e-22 2.12633e-22 0.753335 -2.18125e-06 0.753333)
(0.753334 5.55534e-22 2.04773e-21 0.75333 -5.90301e-06 0.753335)
(0.753334 4.06549e-22 2.35762e-22 0.753332 -1.9889e-06 0.753335)
(0.753332 -5.57312e-22 2.1661e-21 0.753336 -6.30808e-06 0.753333)
(0.753335 1.60705e-21 1.85352e-22 0.753329 -1.63739e-06 0.753336)
(0.753332 -2.30999e-21 2.95336e-22 0.753335 -2.46058e-06 0.753333)
(0.753333 -1.45854e-21 2.25524e-21 0.753334 -6.71685e-06 0.753333)
(0.753335 1.57923e-21 1.2458e-22 0.753329 -2.12718e-06 0.753336)
(0.753331 -1.04811e-21 2.869e-22 0.753336 -2.56058e-06 0.753332)
(0.753335 -6.54442e-22 2.31991e-21 0.753331 -6.75312e-06 0.753334)
(0.753334 -2.61149e-23 2.46703e-22 0.753332 -2.6458e-06 0.753334)
(0.753331 -7.30843e-22 2.19477e-21 0.753338 -6.91511e-06 0.753331)
(0.753335 1.71773e-21 1.96054e-22 0.753329 -2.74691e-06 0.753336)
(0.753332 4.33794e-22 3.85978e-22 0.753336 -2.56476e-06 0.753332)
(0.753335 1.31026e-21 2.49653e-21 0.753332 -6.79204e-06 0.753333)
(0.753334 1.70382e-21 3.87932e-22 0.753332 -2.8761e-06 0.753334)
(0.753332 1.46376e-21 3.28288e-21 0.753338 -6.554e-06 0.75333)
(0.753335 4.64812e-21 5.25391e-22 0.75333 -3.06735e-06 0.753335)
(0.753332 -2.39334e-22 6.51304e-22 0.753336 -2.38689e-06 0.753332)
(0.753333 -3.39296e-22 4.72612e-21 0.753335 -5.88881e-06 0.753332)
(0.753335 4.30294e-21 5.81656e-22 0.753329 -3.02437e-06 0.753336)
(0.753331 -2.79161e-21 9.65987e-22 0.753338 -2.42864e-06 0.753331)
(0.753335 -2.44248e-21 5.11373e-21 0.753332 -5.46426e-06 0.753333)
(0.753334 4.08163e-22 7.78825e-22 0.753333 -2.71797e-06 0.753334)
(0.753331 -3.07736e-21 4.35658e-21 0.753338 -5.63167e-06 0.753331)
(0.753335 2.55191e-21 5.27287e-22 0.75333 -2.6237e-06 0.753335)