/*--------------------------------*- C++ -*----------------------------------*\
| =========                 |                                                 |
| \\      /  F ield         | OpenFOAM: The Open Source CFD Toolbox           |
|  \\    /   O peration     | Version:  4.1                                   |
|   \\  /    A nd           | Web:      www.OpenFOAM.org                      |
|    \\/     M anipulation  |                                                 |
\*---------------------------------------------------------------------------*/
FoamFile
{
    version     2.0;
    format      ascii;
    class       surfaceScalarField;
    location    "26";
    object      phi;
}
// * * * * * * * * * * * * * * * * * * * * * * * * * * * * * * * * * * * * * //

dimensions      [0 3 -1 0 0 0 0];

internalField   nonuniform List<scalar> 
13220
(
-790.557
2090.45
-1223.32
1732.96
-1660.39
1736.97
-1976.18
1615.7
-2225.79
1549.81
-2396.35
1470.45
-2494.8
1398.35
-2521.61
1327.01
-2481.28
1259.57
-2374.92
1193.53
-2201.04
1126.32
-1946.34
1045.2
-1564.53
918.079
-968.286
703.957
331.614
-160.643
2251.1
-384.863
1957.18
-643.579
1995.68
-854.876
1826.99
-1061.06
1755.99
-1233.65
1643.05
-1385.91
1550.61
-1512.58
1453.68
-1605.39
1352.38
-1623.16
1211.29
-1487.82
990.98
-1152.62
710.004
-708.472
473.934
-295.208
290.693
36.4045
-201.764
2452.86
-451.801
2207.21
-656.26
2200.14
-809.845
1980.57
-957.139
1903.28
-1067.97
1753.88
-1168.47
1651.1
-1252.16
1537.37
-1316.2
1416.42
-1322.21
1217.3
-1197.31
866.079
-878.731
391.416
-471.949
67.1303
-109.614
-71.6936
-73.2092
6.91854
2445.94
-91.5303
2305.67
-134.439
2243.05
-155.695
2001.83
-176.1
1923.69
-176.293
1754.08
-169.294
1644.11
-148.12
1516.2
-124.942
1393.24
-124.656
1217.01
-186.131
927.553
-303.035
508.347
-375.607
139.728
-335.424
-111.853
-408.633
159.415
2286.53
118.047
2347.04
158.337
2202.77
211.105
1949.07
273.877
1860.92
343.971
1683.99
425.07
1563.01
517.638
1423.64
616.918
1293.96
685.569
1148.37
654.531
958.597
456.628
706.255
183.132
413.243
8.03324
63.2683
-400.599
187.585
2098.95
180.419
2354.21
227.481
2155.71
286.119
1890.44
357.717
1789.33
425.475
1616.24
501.551
1486.94
579.908
1345.28
661.208
1212.67
728.565
1081.02
748.263
938.903
677.388
777.142
515.678
574.969
261.082
317.891
-139.516
138.015
1960.94
174.329
2317.9
222.607
2107.44
279.873
1833.18
348.14
1721.07
408.204
1556.18
466.374
1428.78
516.905
1294.76
560.339
1169.24
593.887
1047.47
604.592
928.202
567.914
813.834
459.051
683.851
260.665
516.317
121.149
61.8067
1899.14
136.266
2243.45
203.794
2039.91
271.974
1765.01
342.749
1650.3
419.336
1479.6
495.492
1352.62
576.847
1213.4
653.687
1092.4
715.719
985.442
739.485
904.437
695.572
857.735
553.325
826.088
313.338
756.287
434.487
-42.2583
1941.4
31.6342
2169.56
89.1523
1982.4
111.127
1743.03
135.521
1625.9
187.962
1427.16
293.628
1246.96
454.095
1052.94
638.735
907.763
805.703
818.479
887.658
822.482
833.425
911.985
634.171
1025.36
342.048
1048.43
776.535
-136.338
2077.74
-203.515
2236.73
-253.196
2032.08
-365.077
1854.91
-480.011
1740.84
-571.647
1518.79
-594.045
1269.36
-551.921
1010.82
-455.264
811.105
-306.386
669.596
-118.7
634.797
59.4122
733.851
150.362
934.389
113.95
1084.82
890.485
19.9002
2057.83
-209.083
2465.71
-418.148
2241.14
-617.407
2054.17
-822.952
1946.38
-1048
1743.83
-1277.13
1498.49
-1493.4
1227.08
-1668.64
986.343
-1752.31
753.261
-1667.93
550.411
-1351.35
417.285
-831.996
415.038
-303.45
556.284
587.035
429.189
1628.64
380.268
2514.63
165.612
2455.79
0.474381
2219.3
-114.446
2061.29
-246.98
1876.36
-419.935
1671.43
-630.138
1437.28
-851.369
1207.57
-1066.65
968.531
-1236.56
720.313
-1277.94
458.65
-1079.84
216.913
-613.194
89.6044
-26.1593
733.546
895.087
1040.93
2207.24
1009.29
2487.43
975.37
2253.22
1029.36
2007.3
1090.02
1815.7
1106.96
1654.48
1055.79
1488.45
947.284
1316.07
781.511
1134.3
558.657
943.164
277.643
739.663
-9.73291
504.279
-143.11
222.963
-169.27
621.559
273.524
903.466
1925.33
931.432
2459.46
861.825
2322.82
832.249
2036.87
856.219
1791.73
907.7
1603
955.491
1440.65
982.152
1289.41
970.687
1145.76
912.778
1001.07
800.237
852.198
612.24
692.271
332.21
502.981
162.941
-27.0438
777.13
1644.06
2306.21
2605.89
2706.15
2687.18
2565.21
2360.43
2125.96
1841.13
1497.51
1106.89
616.779
2.454e-05
336.686
-336.686
336.686
336.686
336.686
220.834
115.852
220.834
220.834
220.834
768.242
-547.408
768.242
768.242
1209.16
-440.919
1209.16
1209.16
1209.16
1580.73
-371.573
1580.73
1580.73
1877.1
-296.367
1877.1
1877.1
1877.1
2045.4
-168.296
2045.4
2045.4
2045.4
2094.81
-49.4109
2094.81
2094.81
2043.43
51.381
2043.43
2043.43
2043.43
1914.36
129.063
1914.36
1914.36
1730.93
183.436
1730.93
1730.93
1730.93
1546.9
184.025
1546.9
1546.9
1546.9
1436.56
110.344
1436.56
1436.56
1247.38
189.182
1247.38
1247.38
1247.38
935.786
311.59
935.786
935.786
935.787
517.748
418.038
517.748
517.748
95.0859
422.662
95.0858
95.086
95.0858
-615.228
710.314
-615.228
-615.228
-1907.06
1291.83
-1907.06
-1907.06
-1907.06
-3593.17
1686.11
-3593.17
-3593.17
-3593.17
-5595.88
2002.71
-5595.88
-5595.88
-7836.6
2240.72
-7836.6
-7836.6
-7689.51
-7543.94
-7398.34
-9662.6
2405.02
-9510.76
-9336.19
-9148.94
-8962.29
-8775.68
-8589.46
-8399.6
-8198.52
-10458.2
2455.01
-10250.7
-10042.9
-9834.92
-9612.06
-9387.85
-9162.7
-8937.14
-8710.71
-10994.8
2511.67
-10753.7
-10511.9
-10269.1
-10025.4
-9776.11
-9517.06
-9257.22
-8995.37
-8732.04
-10968.7
2489.54
-10692.9
-10414.3
-10133.8
-9852.12
-9569.64
-9275.29
-8974.43
-8674.17
-10647
2257.41
-10358.1
-10064.3
-9759.11
-9455.03
-9151.04
-8847.94
-8543.79
-8216.09
-9610.21
1710.73
-9294.58
-8980.57
-8667.78
-8337.13
-8001.11
-7670.71
-7344.93
-7026.78
-7492.45
784.272
-7171.01
-6859.15
-6551.77
-6248.86
-5949.39
-5646.65
-5346.76
-5048.53
-4756.55
-4378.48
-75.1054
-4128.7
-3905.84
-3689.69
-3482.22
-3283.08
-3129.59
-3076.35
-3026.27
-2388.23
-579.387
-2338.36
-2287.1
-2287.1
-1904.05
-383.061
-1561.75
-342.297
-1561.75
-1284.71
-277.042
-1284.71
-1057.15
-227.557
-873.243
-183.906
-873.243
-710.682
-162.561
-577.567
-133.114
-577.567
-460.511
-117.056
-460.511
-358.75
-101.76
-276.088
-82.6627
-276.088
-199.481
-76.6063
-199.481
-129.325
-70.1557
-72.8495
-56.4756
-72.8493
-14.8642
-57.9847
52.3315
-67.1956
52.3318
127.846
-75.5141
127.846
207.066
-79.2194
289.591
-82.525
289.591
374.809
-85.2183
374.809
465.572
-90.763
560.009
-94.4363
560.009
653.73
-93.7216
749.598
-95.8674
749.598
845.856
-96.2577
845.856
944.333
-98.4776
1042.8
-98.465
1042.8
1140.85
-98.0545
1140.85
1239.09
-98.2414
1329.14
-90.0481
1329.14
1420.75
-91.6087
1499.68
-78.926
1499.68
1576.84
-77.166
1576.84
1654.19
-77.3476
1715.35
-61.1602
1715.35
1776.38
-61.0332
1776.38
1840.09
-63.7015
1885.73
-45.6486
1885.73
1942.34
-56.6045
1978.51
-36.1711
1978.51
2018.99
-40.4772
2018.99
2063.43
-44.4478
2085.76
-22.3293
2085.76
2112.68
-26.9192
2112.68
2146.72
-34.0368
2162.4
-15.6814
2162.4
2197.24
-34.8371
2215.61
-18.3671
2215.61
2251.05
-35.4475
2251.05
-41.3046
-790.076
-1462.75
-787.745
-1549.78
-811.875
-1475.87
-858.966
-1381.1
-924.018
-1210.77
-985.682
-1020.15
-1011.72
-813.423
-980.171
-527.848
-921.124
-90.8088
-884.034
341.27
-865.524
609.924
-850.402
818.662
-835.928
1030.85
-821.921
1250.69
-808.271
1470.82
-794.812
1686.69
-781.413
1894.8
-767.972
2092.67
-754.406
2278.14
-740.652
2449.44
-726.672
2605.22
-712.422
2744.64
-697.858
2867.1
-682.956
2972.29
-667.714
3060.18
-652.154
3131.07
-636.256
3185.39
-619.985
3223.26
-603.378
3244.65
-586.52
3250.11
-569.472
3240.59
-552.252
3216.75
-534.893
3179.01
-517.464
3128.19
-500.034
3065.82
-482.583
2993.23
-464.989
2910.18
-447.165
2815.21
-429.158
2707.89
-411.005
2589.47
-392.573
2459.55
-373.702
2314.68
-354.37
2152.21
-334.587
1972.23
-314.216
1774.46
-293.163
1558.31
-271.477
1328.57
-248.997
1090.84
-225.183
839.363
-191.937
531.111
-123.247
-33.1982
-52.5095
-437.039
-5.6446
-598.158
30.3995
-623.731
60.4224
-609.593
85.314
-578.434
106.532
-527.173
126.676
-458.284
145.662
-380.017
160.474
-294.15
166.649
-184.855
160.83
-43.4328
140.73
104.491
104.679
173.353
81.6629
412.56
82.2998
1002.39
87.5313
1395.16
96.9195
1559.62
107.892
1576.75
117.211
1477.56
122.992
1298.49
126.154
1079.42
126.675
843.281
127.737
604.888
134.968
391.094
149.378
284.931
166.145
231.511
112.056
-760.365
-2043.65
-771.755
-1463.96
-785.603
-1535.93
-831.509
-1429.96
-899.681
-1312.93
-975.669
-1134.78
-1033.89
-961.927
-1047.79
-799.52
-998.904
-576.737
-913.931
-175.782
-863.211
290.55
-849.135
595.848
-839.994
809.521
-828.302
1019.15
-815.794
1238.18
-803.333
1458.36
-790.877
1674.23
-778.284
1882.21
-765.481
2079.86
-752.424
2265.08
-739.079
2436.09
-725.421
2591.56
-711.417
2730.63
-697.033
2852.72
-682.257
2957.51
-667.101
3045.03
-651.588
3115.56
-635.703
3169.51
-619.422
3206.97
-602.79
3228.01
-585.899
3233.22
-568.807
3223.5
-551.535
3199.48
-534.121
3161.59
-516.64
3110.7
-499.163
3048.34
-481.661
2975.72
-464.006
2892.53
-446.119
2797.32
-428.055
2689.83
-409.841
2571.26
-391.322
2441.03
-372.322
2295.68
-352.811
2132.7
-332.758
1952.18
-311.967
1753.67
-290.301
1536.64
-267.734
1306
-243.99
1067.1
-217.001
812.374
-165.329
479.439
-77.7935
-120.733
-6.88219
-507.951
34.0013
-639.041
65.3305
-655.06
93.123
-637.385
117.566
-602.877
139.65
-549.257
160.821
-479.455
180.66
-399.856
196.188
-309.678
202.861
-191.528
194.355
-34.9271
168.063
130.783
121.566
219.85
87.5615
446.564
85.0232
1004.93
88.6555
1391.53
96.7169
1551.56
106.817
1566.65
115.603
1468.78
121.119
1292.98
124.087
1076.45
124.523
842.845
124.777
604.634
130.596
385.275
143.255
272.272
165.896
208.87
125.562
-720.031
-1953.54
-769.686
-1456.64
-798.191
-1507.43
-857.72
-1370.43
-932.561
-1238.09
-1003.46
-1063.88
-1048.89
-916.493
-1053.55
-794.858
-1003.46
-626.834
-910.112
-269.125
-843.668
224.106
-826.287
578.467
-822.73
805.964
-816.324
1012.75
-806.796
1228.65
-796.137
1447.7
-785.092
1663.18
-773.7
1870.82
-761.887
2068.05
-749.625
2252.82
-736.918
2423.38
-723.768
2578.41
-710.157
2717.02
-696.07
2838.63
-681.51
2942.95
-666.502
3030.02
-651.079
3100.14
-635.231
3153.66
-618.949
3190.69
-602.291
3211.36
-585.357
3216.28
-568.205
3206.35
-550.86
3182.14
-533.367
3144.1
-515.811
3093.15
-498.26
3030.79
-480.678
2958.14
-462.932
2874.78
-444.955
2779.34
-426.81
2671.68
-408.507
2552.96
-389.866
2422.39
-370.7
2276.51
-350.963
2112.96
-330.571
1931.79
-309.265
1732.36
-286.854
1514.23
-263.198
1282.34
-237.841
1041.74
-206.794
781.326
-136.551
409.196
-45.6075
-211.677
16.9911
-570.549
52.2298
-674.28
82.1087
-684.939
110.195
-665.471
135.226
-627.908
158.169
-572.201
180.42
-501.705
201.243
-420.68
217.395
-325.83
224.105
-198.237
216.347
-27.1692
192.471
154.658
142.589
269.732
97.415
491.738
88.5143
1013.83
90.0526
1389.99
96.2896
1545.32
105.192
1557.75
113.24
1460.73
118.342
1287.87
121.03
1073.77
121.255
842.62
120.662
605.226
124.923
381.014
132.556
264.639
149.918
191.507
121.681
-691.793
-1850.23
-772.006
-1438.7
-817.526
-1461.91
-889.757
-1298.2
-967.602
-1160.25
-1029.6
-1001.89
-1060.66
-885.431
-1055.82
-799.696
-1005.84
-676.822
-909.357
-365.604
-827.828
142.577
-802.36
553
-800.463
804.067
-799.525
1011.81
-794.653
1223.78
-786.926
1439.97
-777.791
1654.05
-767.917
1860.94
-757.404
2057.54
-746.223
2241.64
-734.388
2411.55
-721.931
2565.95
-708.863
2703.95
-695.191
2824.96
-680.937
2928.7
-666.146
3015.23
-650.858
3084.85
-635.076
3137.88
-618.807
3174.42
-602.129
3194.68
-585.146
3199.3
-567.921
3189.12
-550.485
3164.7
-532.893
3126.51
-515.239
3075.49
-497.59
3013.14
-479.898
2940.45
-462.035
2856.92
-443.945
2761.25
-425.697
2653.44
-407.281
2534.54
-388.495
2403.6
-369.142
2257.16
-349.153
2092.97
-328.389
1911.02
-306.524
1710.5
-283.301
1491.01
-258.443
1257.48
-231.315
1014.61
-195.852
745.863
-108.635
321.979
-17.4329
-302.879
40.0017
-627.984
72.9957
-707.274
102.431
-714.374
130.531
-693.572
156.031
-653.407
179.826
-595.997
203.181
-525.06
225.143
-442.642
242.235
-342.922
249.652
-205.654
240.747
-18.2644
215.259
180.147
162.955
322.037
109.382
545.31
93.0522
1030.16
91.6189
1391.43
95.6362
1541.3
103.027
1550.36
110.131
1453.63
114.697
1283.31
117.03
1071.43
117.032
842.618
115.544
606.714
118.672
377.887
120.886
262.425
137.012
175.381
124.381
-679.162
-1760.68
-783.575
-1408.34
-846.282
-1399.2
-926.186
-1218.3
-999.57
-1086.86
-1046.83
-954.622
-1061.58
-870.686
-1047.69
-813.588
-1000.25
-724.263
-908.062
-457.789
-815.691
50.206
-779.748
517.057
-775.673
799.992
-778.177
1014.31
-778.436
1224.04
-774.991
1436.53
-768.703
1647.76
-760.808
1853.05
-751.907
2048.64
-742.111
2231.84
-731.426
2400.86
-719.89
2554.42
-707.546
2691.61
-694.432
2811.84
-680.598
2914.87
-666.109
3000.74
-651.016
3069.76
-635.338
3122.2
-619.106
3158.19
-602.417
3177.99
-585.384
3182.27
-568.074
3171.81
-550.529
3147.16
-532.816
3108.79
-515.039
3057.72
-497.262
2995.36
-479.431
2922.62
-461.42
2838.91
-443.19
2743.02
-424.813
2635.06
-406.257
2515.99
-387.301
2384.65
-367.736
2237.59
-347.466
2072.7
-326.292
1889.85
-303.817
1688.02
-279.701
1466.89
-253.525
1231.31
-224.413
985.499
-183.637
705.087
-79.303
217.645
10.1135
-392.296
59.9428
-677.813
92.3684
-739.699
122.093
-744.099
150.141
-721.619
176.025
-679.291
200.781
-620.752
225.388
-549.667
248.622
-465.876
266.804
-361.104
274.999
-213.849
265.935
-9.20022
238.629
207.452
183.365
377.301
122.67
606.005
98.6675
1054.16
93.3963
1396.7
94.7432
1539.96
100.283
1544.82
106.211
1447.7
110.098
1279.42
111.992
1069.54
111.778
842.833
109.363
609.13
111.881
375.368
108.882
265.424
122.925
161.339
117.917
-674.155
-1658.45
-804.362
-1365.11
-881.781
-1321.78
-962.456
-1137.62
-1024.7
-1024.62
-1054.56
-924.766
-1054.25
-870.992
-1033.07
-834.77
-988.736
-768.597
-904.341
-542.184
-805.728
-48.4075
-759.008
470.337
-750.553
791.537
-753.876
1017.64
-758.148
1228.31
-759.599
1437.98
-757.282
1645.45
-752.131
1847.9
-745.244
2041.75
-737.123
2223.72
-727.87
2391.61
-717.512
2544.06
-706.101
2680.2
-693.712
2799.46
-680.429
2901.58
-666.342
2986.65
-651.519
3054.93
-635.998
3106.68
-619.838
3142.03
-603.157
3161.31
-586.079
3165.19
-568.68
3154.41
-551.013
3129.49
-533.163
3090.94
-515.24
3039.79
-497.308
2977.43
-479.308
2904.62
-461.122
2820.72
-442.726
2724.63
-424.193
2616.52
-405.471
2497.26
-386.318
2365.5
-366.517
2217.79
-345.941
2052.13
-324.324
1868.23
-301.197
1664.9
-276.122
1441.82
-248.543
1203.73
-217.175
954.131
-169.774
657.686
-52.2652
100.137
34.923
-479.484
78.334
-721.224
110.72
-772.085
141.354
-774.734
169.711
-749.976
196.031
-705.611
221.76
-646.481
247.676
-575.584
272.307
-490.508
291.794
-380.59
301.058
-223.112
292.373
-0.515192
263.401
236.423
204.776
435.926
137.146
673.634
105.181
1086.13
95.3357
1406.54
93.5763
1541.72
96.9352
1541.46
101.466
1443.17
104.542
1276.35
105.927
1068.15
105.472
843.287
102.431
612.171
104.208
373.591
96.4972
273.135
110.979
146.857
121.051
-684.227
-1571.43
-833.935
-1310.12
-920.892
-1234.82
-994.565
-1063.95
-1040.7
-978.486
-1052.92
-912.545
-1040.13
-883.778
-1013.68
-861.224
-972.543
-809.731
-896.956
-617.771
-796.001
-149.363
-739.468
413.804
-726.029
778.098
-728.335
1019.94
-734.699
1234.68
-740.491
1443.77
-742.858
1647.81
-741.419
1846.46
-737.188
2037.52
-731.103
2217.64
-723.557
2384.07
-714.641
2535.14
-704.401
2669.96
-692.932
2787.99
-680.354
2889.01
-666.788
2973.09
-652.324
3040.47
-637.026
3091.38
-620.985
3125.99
-604.341
3144.66
-587.231
3148.08
-569.745
3136.93
-551.95
3111.7
-533.948
3072.94
-515.861
3021.71
-497.75
2959.32
-479.555
2886.43
-461.167
2802.33
-442.579
2706.04
-423.864
2597.81
-404.949
2478.35
-385.576
2346.12
-365.516
2197.73
-344.609
2031.22
-322.521
1846.14
-298.703
1641.08
-272.613
1415.73
-243.557
1174.67
-209.449
920.023
-152.513
600.749
-27.0306
-25.3452
55.8421
-562.357
95.7974
-761.179
128.61
-804.897
159.926
-806.05
188.735
-778.785
215.666
-732.542
242.469
-673.284
269.768
-602.883
295.9
-516.64
316.889
-401.579
327.511
-233.735
319.672
7.32414
289.487
266.608
227.445
497.969
152.821
748.258
112.492
1126.46
97.4183
1421.62
92.1295
1547.01
92.975
1540.62
95.8838
1440.26
98.0206
1274.21
98.8336
1067.34
98.0379
844.083
94.9155
615.293
95.3455
373.161
82.6427
285.838
99.6778
129.822
112.741
-697.29
-1485.61
-870.102
-1246.52
-959.144
-1145.78
-1018.8
-1004.29
-1046.55
-950.737
-1043.2
-915.896
-1021.34
-905.634
-991.704
-890.865
-953.617
-847.818
-886.495
-684.893
-785.881
-249.976
-720.299
348.222
-702.067
759.866
-702.676
1020.55
-709.407
1241.41
-718.132
1452.49
-725.043
1654.72
-728.071
1849.49
-727.336
2036.78
-723.833
2214.13
-718.325
2378.56
-711.118
2527.94
-702.305
2661.14
-691.98
2777.66
-680.288
2877.31
-667.383
2960.18
-653.385
3026.47
-638.392
3076.38
-622.529
3110.13
-605.962
3128.1
-588.844
3130.96
-571.278
3119.36
-553.355
3093.77
-535.194
3054.78
-516.926
3003.44
-498.615
2941.01
-480.199
2868.01
-461.582
2783.72
-442.778
2687.23
-423.854
2578.89
-404.719
2459.21
-385.1
2326.5
-364.759
2177.39
-343.496
2009.96
-320.909
1823.56
-296.362
1616.53
-269.196
1388.56
-238.568
1144.05
-200.688
882.143
-124.792
524.854
2.80886
-152.946
73.79
-633.338
112.486
-799.875
146.249
-838.66
177.919
-837.721
207.132
-807.997
234.843
-760.253
262.827
-701.268
291.572
-631.628
319.311
-544.379
342.013
-424.282
354.317
-246.038
347.763
13.8775
316.785
297.586
251.438
563.316
169.723
829.973
120.519
1175.66
99.6057
1442.53
90.3915
1556.22
88.388
1542.62
89.4371
1439.21
90.483
1273.16
90.6289
1067.19
89.3476
845.365
86.5977
618.043
85.0531
374.706
68.7686
302.122
91.4535
107.137
113.127
-718.964
-1394.81
-909.27
-1179.16
-992.055
-1063
-1033.02
-963.33
-1042.97
-940.781
-1027.47
-931.398
-999.844
-933.262
-968.634
-922.075
-933.2
-883.252
-873.702
-744.391
-775.235
-348.443
-700.864
273.851
-678.301
737.303
-677.267
1019.52
-683.426
1247.57
-693.534
1462.6
-704.028
1665.22
-711.651
1857.11
-715.169
2040.3
-714.978
2213.94
-711.975
2375.55
-706.783
2522.74
-699.656
2654.02
-690.72
2768.73
-680.124
2866.72
-668.046
2948.1
-654.643
3013.07
-640.054
3061.8
-624.442
3094.51
-608.004
3111.66
-590.91
3113.87
-573.283
3101.74
-555.237
3075.73
-536.913
3036.46
-518.454
2984.98
-499.922
2922.48
-481.262
2849.35
-462.394
2764.85
-443.347
2668.19
-424.188
2559.73
-404.806
2439.83
-384.917
2306.61
-364.27
2156.74
-342.626
1988.31
-319.51
1800.44
-294.194
1591.21
-265.892
1360.26
-233.621
1111.78
-190.951
839.472
-87.1933
421.096
31.3781
-271.518
91.3222
-693.282
128.964
-837.517
163.4
-873.096
195.257
-869.578
224.889
-837.63
253.512
-788.876
282.751
-730.507
312.982
-661.858
342.422
-573.819
367.049
-448.909
381.361
-260.35
376.547
18.6912
345.264
328.869
277.06
631.52
188.193
918.841
129.229
1234.62
101.693
1470.07
88.1984
1569.71
83.0482
1547.77
82.0008
1440.26
81.7809
1273.38
81.1134
1067.86
79.2473
847.231
77.0761
620.214
73.4146
378.367
56.4614
319.075
87.9355
75.663
116.656
-747.684
-1322.6
-947.051
-1113.8
-1016.06
-993.988
-1036.81
-942.582
-1031.74
-945.85
-1007.89
-955.251
-977.187
-963.961
-945.448
-953.814
-912.027
-916.673
-859.102
-797.317
-764.483
-443.062
-681.229
190.598
-654.311
710.384
-651.902
1017.11
-657.408
1253.07
-667.8
1472.99
-680.532
1677.95
-692.149
1868.73
-700.24
2048.39
-704.088
2217.79
-704.223
2375.69
-701.455
2519.97
-696.301
2648.86
-689.005
2761.43
-679.736
2857.45
-668.679
2937.05
-656.024
3000.41
-641.956
3047.73
-626.687
3079.25
-610.442
3095.41
-593.416
3096.84
-575.755
3084.07
-557.6
3057.57
-539.115
3017.97
-520.456
2966.32
-501.69
2903.71
-482.764
2830.42
-463.622
2745.71
-444.311
2648.88
-424.891
2540.31
-405.236
2420.18
-385.05
2286.43
-364.073
2135.77
-342.023
1966.26
-318.347
1776.76
-292.219
1565.09
-262.73
1330.77
-228.749
1077.79
-180.926
791.649
-59.7605
299.931
51.8142
-383.092
108.038
-749.505
145.348
-874.827
179.981
-907.73
211.893
-901.489
241.975
-867.712
271.606
-818.507
302.183
-761.084
333.948
-693.623
365.178
-605.049
391.937
-475.669
408.592
-277.005
405.981
21.3018
374.985
359.866
304.937
701.568
209.245
1014.53
139.021
1304.85
103.36
1505.73
85.1171
1587.96
76.5922
1556.3
73.2588
1443.59
71.625
1275.02
70.0164
1069.47
67.6092
849.638
66.1133
621.71
60.9467
383.534
46.6673
333.355
88.9657
33.3646
109.097
-767.815
-1253.98
-979.234
-1056
-1029.31
-943.915
-1031.38
-940.511
-1015.15
-962.074
-986.329
-984.075
-954.394
-995.897
-922.552
-985.655
-890.258
-948.967
-842.564
-845.011
-753.445
-532.182
-661.672
98.8255
-629.723
678.435
-626.187
1013.57
-631.468
1258.35
-641.716
1483.24
-655.51
1691.75
-670.039
1883.25
-682.399
2060.75
-690.726
2226.12
-694.683
2379.65
-694.89
2520.18
-692.072
2646.04
-686.688
2756.05
-678.987
2849.75
-669.167
2927.23
-657.438
2988.68
-644.033
3034.32
-629.214
3064.43
-613.244
3079.44
-596.342
3079.94
-578.685
3066.42
-560.442
3039.33
-541.806
2999.33
-522.945
2947.46
-503.932
2884.7
-484.724
2811.22
-465.289
2726.27
-445.69
2629.28
-425.986
2520.6
-406.03
2400.22
-385.524
2265.92
-364.194
2114.43
-341.712
1943.78
-317.444
1752.49
-290.46
1538.1
-259.739
1300.05
-223.817
1041.87
-169.835
737.667
-36.1615
166.257
70.7231
-489.977
123.921
-802.703
161.339
-912.245
195.943
-942.334
227.857
-933.404
258.419
-898.273
289.129
-849.216
321.117
-793.073
354.459
-726.965
387.554
-638.144
416.641
-504.756
435.989
-296.352
436.065
21.2255
406.038
389.893
335.71
771.896
234.566
1115.68
151.42
1387.99
104.82
1552.33
80.727
1612.05
68.5591
1568.46
62.8316
1449.32
59.7519
1278.1
57.2285
1071.99
54.537
852.329
53.8877
622.359
48.4202
389.001
43.7269
338.048
94.6165
-17.5251
110.971
-784.17
-1179.18
-1002.73
-1009.95
-1031.83
-914.81
-1018.9
-953.442
-995.407
-985.568
-964.125
-1015.36
-931.925
-1028.1
-899.913
-1017.67
-867.73
-981.15
-823.659
-889.082
-741.058
-614.783
-642.609
0.377093
-604.421
640.246
-599.769
1008.92
-605.34
1263.92
-615.599
1493.5
-629.811
1705.96
-646.117
1899.56
-661.91
2076.55
-674.649
2238.86
-682.945
2387.94
-686.759
2524
-686.758
2646.04
-683.611
2752.9
-677.733
2843.87
-669.379
2918.87
-658.779
2978.08
-646.205
3021.75
-631.966
3050.19
-616.366
3063.84
-599.659
3063.23
-582.054
3048.81
-563.757
3021.03
-544.986
2980.56
-525.928
2928.4
-506.659
2865.43
-487.157
2791.71
-467.411
2706.53
-447.505
2609.37
-427.492
2500.59
-407.212
2379.94
-386.361
2245.07
-364.654
2092.73
-341.715
1920.84
-316.823
1727.6
-288.939
1510.22
-256.945
1268.06
-218.657
1003.58
-155.674
674.684
-12.5946
23.1782
89.0477
-591.619
139.044
-852.7
176.568
-949.769
211.103
-976.869
243.141
-965.441
274.325
-929.458
306.18
-881.072
339.575
-826.468
374.473
-761.863
409.493
-673.164
441.117
-536.38
463.533
-318.768
466.817
17.9414
438.495
418.215
369.642
840.749
265.897
1219.42
169.505
1484.38
108.12
1613.71
75.6442
1644.52
59.0803
1585.03
50.8085
1457.59
46.3853
1282.52
43.2033
1075.18
40.6815
854.851
41.1192
621.921
36.6879
393.433
45.3008
329.435
101.422
-73.6464
115.85
-798.598
-1119.94
-1016.11
-977.94
-1025.2
-905.721
-1001.82
-976.816
-974.21
-1013.18
-941.992
-1047.58
-909.776
-1060.31
-877.193
-1050.25
-844.116
-1014.23
-801.958
-931.24
-725.458
-691.283
-622.772
-102.309
-578.036
595.511
-572.28
1003.17
-578.64
1270.28
-589.391
1504.25
-603.94
1720.51
-621.212
1916.83
-639.388
2094.72
-655.957
2255.42
-668.716
2400.7
-676.685
2531.96
-680.074
2649.43
-679.584
2752.41
-675.824
2840.11
-669.179
2912.23
-659.928
2968.83
-648.376
3010.2
-634.87
3036.68
-619.757
3048.73
-603.331
3046.81
-585.84
3031.32
-567.531
3002.72
-548.652
2961.68
-529.406
2909.16
-509.881
2845.9
-490.074
2771.91
-470.004
2686.46
-449.774
2589.14
-429.43
2480.25
-408.802
2359.31
-387.585
2223.85
-365.479
2070.62
-342.058
1897.42
-316.509
1702.05
-287.678
1481.39
-254.361
1234.74
-212.791
962.013
-132.311
594.204
16.3668
-125.499
106.067
-681.32
153.323
-899.956
190.865
-987.31
225.362
-1011.37
257.738
-997.818
289.755
-961.474
322.778
-914.095
357.479
-861.168
393.864
-798.248
430.887
-710.186
465.301
-570.794
491.184
-344.651
498.232
10.8936
472.383
444.063
406.467
906.665
303.992
1321.9
197.151
1591.22
118.152
1692.71
73.1192
1689.56
50.135
1608.01
38.6716
1469.05
32.9128
1288.28
29.4247
1078.66
27.5626
856.713
29.2351
620.249
27.0145
395.653
48.5098
307.94
108.437
-133.574
112.875
-803.035
-1052.71
-1019.61
-960.215
-1011.77
-913.556
-982.253
-1006.34
-952.612
-1042.82
-920.11
-1080.08
-887.633
-1092.79
-853.937
-1083.95
-819.134
-1049.03
-777.357
-973.017
-705.725
-762.915
-600.739
-207.294
-549.926
544.697
-543.497
996.737
-551.065
1277.85
-562.812
1516
-577.997
1735.69
-595.925
1934.76
-615.595
2114.39
-635.094
2274.92
-651.962
2417.57
-664.347
2544.35
-671.677
2656.76
-674.358
2755.09
-673.087
2838.84
-668.422
2907.56
-660.753
2961.17
-650.432
2999.88
-637.837
3024.09
-623.35
3034.24
-607.309
3030.77
-590.011
3014.02
-571.745
2984.45
-552.793
2942.73
-533.376
2889.74
-513.6
2826.13
-493.485
2751.79
-473.082
2666.05
-452.512
2568.57
-431.818
2459.55
-410.82
2338.31
-389.215
2202.25
-366.69
2048.1
-342.763
1873.49
-316.526
1675.82
-286.704
1451.57
-252.023
1200.06
-205.926
915.917
-95.5002
483.778
46.4931
-267.493
121.012
-755.838
166.488
-945.432
204.074
-1024.9
238.69
-1045.98
271.646
-1030.77
304.624
-994.452
338.744
-948.215
374.607
-897.031
412.439
-836.08
451.602
-749.349
489.112
-608.304
518.912
-374.451
530.296
-0.489711
507.676
466.683
445.586
968.755
347.937
1419.55
236.77
1702.39
141.469
1788.01
79.8958
1751.13
46.8302
1641.08
30.322
1485.56
22.5829
1296.02
18.8256
1082.42
17.8496
857.689
20.6466
617.452
21.6111
394.689
54.7357
274.815
116.106
-194.944
120.972
-807.902
-995.441
-1014.67
-955.446
-994.021
-934.208
-961.666
-1038.69
-931.057
-1073.43
-898.297
-1112.84
-865.063
-1126.02
-829.745
-1119.26
-792.671
-1086.1
-750.186
-1015.5
-682.305
-830.797
-576.447
-313.151
-519.587
487.837
-513.086
990.236
-522.333
1287.1
-535.526
1529.19
-551.784
1751.95
-570.513
1953.49
-591.198
2135.08
-612.723
2296.45
-632.966
2437.81
-649.616
2561
-661.244
2668.39
-667.628
2761.47
-669.301
2840.51
-666.947
2905.21
-661.117
2955.34
-652.252
2991.01
-640.764
3012.6
-627.065
3020.55
-611.535
3015.24
-594.524
2997.01
-576.37
2966.3
-557.391
2923.75
-537.832
2870.18
-517.816
2806.11
-497.394
2731.37
-476.652
2645.31
-455.732
2547.65
-434.669
2438.49
-413.282
2316.93
-391.269
2180.24
-368.306
2025.13
-343.851
1849.04
-316.895
1648.86
-286.053
1420.72
-249.991
1163.99
-198.754
864.68
-66.5475
351.571
64.9504
-398.991
133.792
-824.68
178.39
-990.03
216.164
-1062.67
251.119
-1080.94
284.805
-1064.46
318.709
-1028.36
353.777
-983.283
390.692
-933.946
429.995
-875.383
471.484
-790.838
512.424
-649.244
546.635
-408.662
562.952
-16.8064
544.266
485.369
486.373
1026.65
395.525
1510.39
287.134
1810.78
182.216
1892.93
103.993
1829.35
57.1305
1687.94
32.3736
1510.32
20.772
1307.62
15.9045
1087.29
15.4214
858.172
18.8893
613.984
23.5603
390.018
65.1987
233.177
123.948
-253.693
116.228
-800.182
-940.246
-1003.33
-961.372
-973.974
-963.562
-940.847
-1071.82
-909.545
-1104.73
-876.205
-1146.18
-841.693
-1160.54
-804.411
-1156.55
-764.861
-1125.65
-721.064
-1059.3
-656.084
-895.776
-550.311
-418.925
-486.629
424.155
-480.68
984.287
-492.137
1298.56
-507.227
1544.28
-524.992
1769.71
-544.921
1973.42
-566.584
2156.74
-589.508
2319.37
-612.267
2460.57
-632.637
2581.37
-648.581
2684.33
-659.081
2771.97
-664.197
2845.63
-664.56
2905.57
-660.871
2951.65
-653.703
2983.84
-643.535
3002.43
-630.806
3007.82
-615.935
3000.37
-599.326
2980.4
-581.368
2948.34
-562.422
2904.81
-542.757
2850.52
-522.522
2785.88
-501.802
2710.65
-480.722
2624.23
-459.441
2526.37
-437.996
2417.04
-416.201
2295.13
-393.764
2157.8
-370.345
2001.71
-345.341
1824.03
-317.636
1621.16
-285.757
1388.85
-248.134
1126.37
-190.649
807.195
-43.4939
204.416
81.1862
-523.671
144.957
-888.45
189.217
-1034.29
227.253
-1100.71
262.672
-1116.35
297.083
-1098.87
331.772
-1063.05
367.635
-1019.15
405.526
-971.836
446.341
-916.198
490.328
-834.825
535.015
-693.931
574.139
-447.787
596.034
-38.7014
581.951
499.451
528.328
1080.27
444.415
1594.31
343.684
1911.51
238.31
1998.31
149.1
1918.56
88.0543
1748.99
52.1169
1546.25
33.7998
1325.94
25.8516
1095.24
24.5975
859.427
27.8794
610.702
35.655
382.242
81.0586
187.773
132.349
-304.984
121.252
-789.085
-880.155
-987.619
-975.451
-952.998
-998.183
-920.027
-1104.79
-887.847
-1136.91
-853.507
-1180.52
-817.337
-1196.71
-777.999
-1195.88
-736.104
-1167.55
-690.854
-1104.55
-628.274
-958.356
-523.348
-523.851
-451.04
351.848
-446.012
979.258
-460.202
1312.75
-477.662
1561.74
-497.308
1789.36
-518.879
1994.99
-541.813
2179.68
-565.928
2343.49
-590.501
2485.15
-613.824
2604.69
-633.719
2704.23
-648.482
2786.74
-657.479
2854.63
-661.021
2909.11
-659.837
2950.46
-654.643
2978.65
-646.021
2993.81
-634.462
2996.26
-620.421
2986.32
-604.349
2964.33
-586.692
2930.69
-567.852
2885.97
-548.129
2830.79
-527.704
2765.45
-506.703
2689.65
-485.291
2602.82
-463.646
2504.73
-441.806
2395.2
-419.589
2272.92
-396.713
2134.92
-372.822
1977.82
-347.249
1798.46
-318.767
1592.67
-285.849
1355.93
-246.256
1086.78
-179.642
740.58
-21.6022
46.3769
95.9011
-641.174
154.963
-947.512
199.19
-1078.52
237.5
-1139.02
273.328
-1152.18
308.341
-1133.88
343.67
-1098.38
380.202
-1055.68
418.981
-1010.62
461.293
-958.51
507.882
-881.415
556.584
-742.633
601.099
-492.302
629.252
-66.8546
620.432
508.272
571.06
1129.64
493.019
1672.35
401.23
2003.3
302.291
2097.25
210.633
2010.22
139.839
1819.78
92.6724
1593.42
65.4755
1353.13
52.0165
1108.7
48.0012
863.442
49.7482
608.955
58.7115
373.279
101.739
144.746
141.232
-344.477
129.426
-777.279
-828.076
-969.231
-995.339
-931.806
-1035.61
-899.106
-1137.49
-865.703
-1170.31
-830.034
-1216.19
-792.067
-1234.67
-750.854
-1237.1
-707.027
-1211.38
-660.545
-1151.03
-600.382
-1018.52
-498.013
-626.22
-414.38
268.214
-409.338
974.217
-426.18
1329.59
-446.525
1582.09
-468.452
1811.29
-492.052
2018.59
-516.691
2204.32
-542.172
2368.97
-568.203
2511.18
-593.742
2630.23
-616.939
2727.43
-635.766
2805.56
-648.891
2867.75
-656.058
2916.28
-657.803
2952.21
-654.911
2975.76
-648.088
2986.99
-637.912
2986.08
-624.889
2973.3
-609.514
2948.96
-592.28
2913.45
-573.635
2867.32
-553.916
2811.07
-533.342
2744.88
-512.085
2668.39
-490.354
2581.09
-468.347
2482.72
-446.103
2372.96