/*--------------------------------*- C++ -*----------------------------------*\
| =========                 |                                                 |
| \\      /  F ield         | OpenFOAM: The Open Source CFD Toolbox           |
|  \\    /   O peration     | Version:  4.1                                   |
|   \\  /    A nd           | Web:      www.OpenFOAM.org                      |
|    \\/     M anipulation  |                                                 |
\*---------------------------------------------------------------------------*/
FoamFile
{
    version     2.0;
    format      ascii;
    class       volScalarField;
    location    "28";
    object      epsilon;
}
// * * * * * * * * * * * * * * * * * * * * * * * * * * * * * * * * * * * * * //

dimensions      [0 2 -3 0 0 0 0];

internalField   nonuniform List<scalar> 
6785
(
0.0565621
0.300976
0.29465
0.294656
0.294692
0.294625
0.294659
0.294684
0.294617
0.29465
0.294673
0.294601
0.295153
0.490337
0.0801845
0.0817174
0.00714225
0.000130428
0.000122042
0.000116215
0.000110315
0.00010459
9.88117e-05
9.2878e-05
8.67825e-05
8.07738e-05
8.80611e-05
0.00153432
0.0162972
0.0115048
0.112955
0.00290572
8.79661e-07
5.26428e-07
2.45492e-06
4.67578e-06
6.35136e-06
8.10503e-06
1.24508e-05
2.09959e-05
5.09077e-05
0.000200811
0.00165193
0.0101858
0.000357952
0.155668
0.00402633
0.000107928
2.79863e-07
5.9754e-07
1.77206e-06
3.30758e-06
5.65875e-06
7.44442e-06
1.69009e-05
2.55249e-05
0.00010203
0.000399858
0.00213917
0.000132065
0.202412
0.00383346
5.22128e-05
1.09437e-05
6.2289e-07
6.73769e-07
8.49359e-07
3.1644e-06
9.94495e-06
2.90836e-05
8.4562e-05
0.000194835
0.000391613
0.000857154
0.000221162
0.253713
0.0118874
0.000121433
3.59497e-05
1.2384e-06
2.34582e-06
9.40957e-06
2.36469e-05
7.67044e-05
0.000116756
3.53831e-05
0.00075513
0.000524168
0.000433305
0.000659882
0.311484
0.0228321
0.0044527
6.90801e-06
5.47232e-06
1.45189e-05
7.96623e-05
0.000168959
0.000382535
0.000334369
4.04976e-05
0.000463809
0.000513434
0.000952872
0.00142213
0.361912
0.0337555
0.00276378
0.000234646
4.70729e-05
9.67214e-05
0.00102224
0.0066031
0.0096237
0.00341335
0.000662354
0.000245934
0.000487316
0.000763955
0.00132069
0.390564
0.0351578
0.00372712
0.000232166
0.000518927
0.00181283
0.00522725
0.0108598
0.0154912
0.011968
0.00302901
0.00152123
0.000913893
0.00175865
0.000529988
0.393258
0.0428807
0.00480222
0.000443058
0.000905197
0.00246427
0.00639089
0.0108915
0.0153281
0.0151767
0.00759641
0.0035559
0.00179046
0.00261348
0.000315498
0.378593
0.0575483
0.00452393
0.000448463
0.00102937
0.00231856
0.00652407
0.0104386
0.0132829
0.0134865
0.0103113
0.00482235
0.00212609
0.00317325
0.000320172
0.358649
0.0655039
0.00559119
0.000625993
0.00139695
0.00254269
0.00559342
0.0101059
0.0144659
0.0142068
0.0102252
0.00380377
0.00144071
0.00241939
0.000279596
0.344109
0.0445124
0.00390755
0.00218439
0.00123832
0.00303152
0.00751402
0.00902445
0.0127882
0.0111906
0.00723357
0.00285922
0.00144957
0.00196778
0.00037214
0.305533
0.0317248
0.00562109
0.00331858
0.00350163
0.0051609
0.0100882
0.0132684
0.0152968
0.0124494
0.00368858
0.00365237
0.00149358
0.0030556
0.00116766
0.364347
0.039534
0.00971786
0.00176167
0.00225035
2.29087e-05
0.0272973
0.0131089
0.0160626
0.0167425
0.020147
0.0160874
0.0018748
0.00290365
0.00112416
0.0346034
0.0187894
0.0302059
0.0293504
0.0286475
0.016296
0.0267075
0.0262731
0.0258781
0.0149254
0.0246412
0.0243453
0.0140972
0.0233335
0.0230921
0.0228384
0.013276
0.0219662
0.0217823
0.0127431
0.0212248
0.0211446
0.0211006
0.0125246
0.0207724
0.0207019
0.0207212
0.0124227
0.0204335
0.0203222
0.0121385
0.0195712
0.0192695
0.0191407
0.0115181
0.0184636
0.0181912
0.0108873
0.0170982
0.0166435
0.0163814
0.0098933
0.0156689
0.0154142
0.0153865
0.00963628
0.0152668
0.015082
0.00937505
0.0143052
0.0138193
0.0135483
0.00847502
0.0126927
0.0122353
0.0119729
0.00767574
0.0112948
0.0109606
0.00710968
0.00989314
0.00942882
0.00917519
0.00617406
0.00830945
0.00801318
0.00546304
0.0072962
0.00706481
0.00702588
0.00477936
0.00754216
0.00775689
0.00804794
0.00515432
0.00868177
0.00892571
0.00536693
0.00909497
0.00924915
0.0144003
0.0209169
0.0232476
0.0374393
0.0387491
0.0401784
0.0446813
0.0423141
0.0438998
0.0426528
0.0442827
0.0425269
0.0362984
0.0364244
0.0408459
0.0387808
0.0386802
0.0455587
0.0442624
0.0463438
0.047649
0.0471301
0.0471654
0.0576021
0.0531006
0.0500133
0.0496482
0.0512227
0.0492486
0.0473783
0.0509008
0.0343169
0.0473762
0.0530998
0.0479671
0.0413951
0.0425701
0.0431795
0.0404746
0.0441637
0.0252296
0.0546163
0.0585102
0.0488048
0.0407547
0.0369294
0.0356952
0.0388185
0.0364466
0.020841
0.0066971
0.0145058
0.0269255
0.0387078
0.0416249
0.039497
0.0461387
0.0376001
0.0428596
0.036578
0.050976
0.0569496
0.0581855
0.0606609
0.0721019
0.0757775
0.0835212
0.087292
0.0952767
0.14196
0.162711
0.158161
0.152162
0.145
0.140765
0.129089
0.177411
0.166757
0.228002
0.202032
0.012386
0.00810084
0.00868319
0.0152438
0.0100185
0.0176341
0.0116497
0.0124925
0.0219149
0.0143652
0.0153864
0.0270439
0.0177392
0.0315306
0.0208566
0.0227003
0.0406724
0.0268809
0.047662
0.031785
0.0348389
0.0615168
0.0413458
0.0441503
0.0723703
0.0496234
0.0788129
0.055421
0.0576838
0.0856246
0.0555256
0.0840207
0.0553545
0.0574738
0.0868181
0.0552742
0.0554334
0.0831752
0.0503438
0.0760226
0.0456838
0.0441226
0.0662778
0.0397072
0.0602063
0.0392639
0.0500225
0.0780003
0.0851872
0.0952308
0.140446
0.0735004
0.109805
0.0590911
0.0543105
0.0810894
0.0457605
0.0688037
0.0393437
0.036471
0.054754
0.0312675
0.0284903
0.0338789
0.00246028
0.00104753
0.000595173
0.00059302
0.000951204
0.000583709
0.000954674
0.000585996
0.000579256
0.000949786
0.000583108
0.000576367
0.000944261
0.00057978
0.000927574
0.000576974
0.000943862
0.000949372
0.00095279
0.0010233
0.00114501
0.00131886
0.0014892
0.00165097
0.00178685
0.00199625
0.00218602
0.00236291
0.00249749
0.00265831
0.0028364
0.003028
0.00321848
0.00343573
0.00378667
0.00434555
0.00530669
0.00682634
0.00830369
0.00942057
0.0100535
0.010096
0.00937882
0.00837732
0.00833318
0.00838641
0.00860924
0.00964191
0.0114945
0.0140068
0.0172429
0.0211625
0.0257377
0.0289993
0.0329276
0.0367624
0.0399897
0.04212
0.0440591
0.049279
0.0586879
0.0693962
0.0786702
0.0892666
0.0984216
0.111226
0.12365
0.127815
0.128031
0.126278
0.122847
0.107751
0.0865943
0.0690029
0.0629461
0.0613739
0.0607123
0.0586989
0.0541882
0.0506121
0.0457546
0.041724
0.0368429
0.0310073
0.0259258
0.0215472
0.0173135
0.0145523
0.0135117
0.0130486
0.0120885
0.00794915
0.00207642
0.000836291
0.000643698
0.000916265
0.000917161
0.000933809
0.00099873
0.00111289
0.00131995
0.00148821
0.00164794
0.00173374
0.00199864
0.00218459
0.00236204
0.0024339
0.00260392
0.00277719
0.00296635
0.00315133
0.0033454
0.00375648
0.00425575
0.00495689
0.00671766
0.00824376
0.00918469
0.0099704
0.0100386
0.00940603
0.00830597
0.00817113
0.00813419
0.00853763
0.00918019
0.0108752
0.0132143
0.0163067
0.0201191
0.0256547
0.0288201
0.0324506
0.0367038
0.0402266
0.0422623
0.0441442
0.048341
0.058215
0.068799
0.0781901
0.0886882
0.0972298
0.109942
0.123427
0.128889
0.130803
0.131107
0.131368
0.119541
0.100062
0.0777061
0.0662034
0.061616
0.0600375
0.059634
0.0579576
0.0554637
0.0501653
0.0447214
0.0375925
0.0311401
0.0258852
0.0214545
0.0168549
0.0142038
0.0135099
0.0131715
0.0119577
0.00762666
0.00195915
0.000823591
0.000648931
0.00093963
0.00095111
0.000982358
0.00106667
0.00118638
0.00132958
0.00150218
0.00166616
0.00184224
0.00201039
0.00220245
0.00239403
0.00259596
0.00277679
0.00296453
0.00316648
0.00336346
0.00354652
0.00375921
0.00417425
0.00521563
0.00660224
0.00833874
0.00969426
0.0100034
0.00988137
0.00947028
0.00849403
0.00833625
0.00836618
0.00854949
0.00956631
0.0113528
0.0138181
0.0171046
0.0210224
0.0256115
0.0290246
0.0331851
0.0360807
0.0407409
0.0443658
0.0472044
0.0506416
0.0571649
0.0676067
0.0769796
0.0871997
0.0960429
0.108019
0.123768
0.132531
0.136483
0.135583
0.133016
0.121165
0.102968
0.0820648
0.0678851
0.062261
0.0596385
0.0587347
0.058428
0.0571105
0.0510156
0.0456345
0.0371038
0.0315117
0.025266
0.0205633
0.0160269
0.014067
0.013633
0.0133111
0.0117833
0.00701122
0.00174924
0.000807175
0.000660226
0.000966945
0.000983042
0.00104407
0.00114216
0.00127646
0.00144332
0.00163169
0.00180295
0.00198184
0.002174
0.00237708
0.00257983
0.00277079
0.00296706
0.00316913
0.00338615
0.00359608
0.00378285
0.00402661
0.00445933
0.00509354
0.00648617
0.00835254
0.00991615
0.0100664
0.0100191
0.00961665
0.0086378
0.00825719
0.00825515
0.00847664
0.00941178
0.0110886
0.013444
0.0166973
0.0205869
0.0255594
0.0288843
0.033475
0.0385401
0.0429744
0.0468101
0.0498794
0.0539667
0.0610955
0.0716695
0.0819898
0.0909337
0.0987603
0.11153
0.121179
0.136774
0.139798
0.140357
0.137112
0.12491
0.105675
0.084879
0.070462
0.0636777
0.0601119
0.0592784
0.0590547
0.0564562
0.0501769
0.0441302
0.0362211
0.0292324
0.0240392
0.0194369
0.0154862
0.0141674
0.0137617
0.0133827
0.011613
0.00628115
0.00155509
0.000783277
0.000671692
0.000992978
0.0010237
0.00110374
0.00121975
0.00136767
0.0015433
0.00174754
0.00192665
0.00211756
0.00231962
0.00253469
0.00275039
0.00296298
0.00316971
0.00338655
0.00361936
0.00384522
0.00403106
0.00425289
0.00469
0.00537443
0.00686354
0.0082703
0.00998128
0.0102028
0.010215
0.00970309
0.0088362
0.00846073
0.00849169
0.00875871
0.00978291
0.0115576
0.0140212
0.0175341
0.0218191
0.0252732
0.0304578
0.0351439
0.0400294
0.04496
0.0491524
0.0526632
0.056895
0.0640349
0.0746472
0.0858026
0.0959868
0.10406
0.111267
0.123834
0.135557
0.143051
0.144673
0.139237
0.12679
0.107723
0.0878646
0.0736498
0.0658935
0.0612063
0.0595766
0.0582482
0.0562902
0.0493733
0.0433811
0.0357466
0.0290582
0.0228677
0.0181959
0.0153008
0.0144026
0.0141724
0.013409
0.0113721
0.00552753
0.00139281
0.000773443
0.000683786
0.00102589
0.0010683
0.00116999
0.00130275
0.00146702
0.00165595
0.00187419
0.00206359
0.00227002
0.00248501
0.00271188
0.00293688
0.00315779
0.00338169
0.00361498
0.00386619
0.0041101
0.00429829
0.00450551
0.00496999
0.00557434
0.00651658
0.00815044
0.0101842
0.0107338
0.0105719
0.00971338
0.00900254
0.00863205
0.00867867
0.00902343
0.0101214
0.011975
0.0144997
0.0181836
0.0229601
0.0265179
0.0318286
0.0367547
0.0418863
0.0469768
0.0515072
0.0554237
0.0600892
0.067567
0.078246
0.0902916
0.100862
0.109743
0.119061
0.128605
0.139426
0.147748
0.148577
0.142543
0.129244
0.109503
0.0897029
0.0759088
0.0674137
0.0624662
0.0601433
0.057676
0.0538552
0.046876
0.0399305
0.0334831
0.0267913
0.0211342
0.0174116
0.0150332
0.0144886
0.0142843
0.013824
0.0109304
0.004715
0.00126714
0.000771401
0.000710107
0.00106449
0.00111366
0.00123905
0.00139078
0.0015726
0.00177433
0.00200784
0.00220968
0.0024291
0.00265891
0.00289905
0.00313764
0.00337311
0.0036099
0.00385932
0.0041304
0.0043991
0.00459309
0.00476709
0.00526009
0.0059097
0.00692001
0.00857961
0.0108987
0.0112019
0.0108673
0.00978165
0.0091428
0.00879318
0.00886643
0.00932105
0.0105018
0.0124585
0.0150489
0.0188638
0.0244509
0.0275323
0.0332337
0.0383982
0.043632
0.0489786
0.0538207
0.0581552
0.0632354
0.0710971
0.0819996
0.0948875
0.106413
0.115834
0.125021
0.136566
0.14718
0.152662
0.152181
0.144495
0.13053
0.111149
0.0922959
0.0784817
0.0685863
0.0626715
0.0594883
0.0556195
0.0505493
0.0456553
0.0371888
0.030191
0.0241969
0.0203407
0.0169536
0.0152319
0.0148294
0.0146489
0.0137486
0.0103952
0.00399801
0.00116667
0.000781126
0.000734521
0.00110954
0.00116112
0.00131275
0.0014835
0.00168445
0.00189973
0.00214707
0.00236425
0.00259983
0.00284427
0.00309805
0.00334927
0.00359839
0.00385096
0.00411584
0.00440638
0.00470739
0.00491827
0.00504345
0.00556457
0.00622498
0.0072344
0.0088448
0.0113884
0.0117413
0.0111578
0.0100469
0.00923686
0.00894087
0.00903186
0.00966616
0.0109146
0.0130012
0.0156569
0.0194194
0.0257378
0.0286423
0.0346182
0.0400639
0.0454173
0.0509438
0.05609
0.0608322
0.0664001
0.0747576
0.0859978
0.0997333
0.112272
0.122539
0.132195
0.142635
0.152923
0.158584
0.157017
0.147138
0.131823
0.112053
0.0933808
0.080738
0.0704145
0.0637087
0.0602668
0.0555696
0.0500163
0.0433349
0.0357936
0.0286012
0.0225924
0.0186333
0.0166078
0.015459
0.0152386
0.0152593
0.0133224
0.00957422
0.00332882
0.00109862
0.000802801
0.00078572
0.00116293
0.00121516
0.00138965
0.00158134
0.0018027
0.0020325
0.0022943
0.00252843
0.00278049
0.00304123
0.00330973
0.00357535
0.00383967
0.00410731
0.00438716
0.00469569
0.00503806
0.00528805
0.0053345
0.00588678
0.00655957
0.00756999
0.00904493
0.0110537
0.0120246
0.0115753
0.0102273
0.00934336
0.00908302
0.00915238
0.0101099
0.0113612
0.0136252
0.0163986
0.0199025
0.0257099
0.0297813
0.0359871
0.041742
0.0472024
0.0528794
0.0583029
0.0634333
0.0695098
0.0784486
0.0902187
0.10477
0.118528
0.129733
0.139852
0.150709
0.160307
0.163942
0.161082
0.149902
0.132909
0.112645
0.0942382
0.0807194
0.0711399
0.0648306
0.0601044
0.0539389
0.0465679
0.0376573
0.0304834
0.0244641
0.0205233
0.0182761
0.0164528
0.0157843
0.01545
0.0152304
0.0127028
0.00863216
0.00282214
0.001057
0.000847199
0.00083024
0.0012235
0.00127758
0.00147277
0.00168376
0.00192691
0.00217207
0.00244876
0.00270152
0.00297201
0.00324961
0.00353365
0.00381448
0.00409486
0.00437819
0.00467114
0.00499229
0.00537239
0.00566333
0.00564474
0.00622157
0.006914
0.00794853
0.00949967
0.0113442
0.0119776
0.0117861
0.0104556
0.00944762
0.00925343
0.00935004
0.0105275
0.0118184
0.0143206
0.0173413
0.0205849
0.0252922
0.0309631
0.0373479
0.0434207
0.0490015
0.0547761
0.0604519
0.0659435
0.0725414
0.082118
0.0945868
0.109999
0.125147
0.137571
0.148323
0.158949
0.168097
0.170835
0.165875
0.152534
0.134065
0.113327
0.0949482
0.0819123
0.0712346
0.0665993
0.0610113
0.0548083
0.0479226
0.0405746
0.033742
0.0268415
0.0228729
0.0184193
0.0165692
0.0158523
0.0154582
0.0151682
0.0120853
0.00763118
0.00241441
0.00103478
0.000886374
0.000936191
0.00129023
0.00134558
0.00156225
0.00179159
0.00205667
0.00231818
0.00261095
0.00288409
0.00317427
0.00347012
0.00377072
0.00406803
0.0043657
0.00466511
0.00496987
0.00529533
0.00567992
0.00597824
0.00597701
0.00656825
0.0072719
0.00829669
0.00992164
0.0113828
0.0119012
0.0117887
0.010592
0.00957174
0.00948189
0.00953795
0.010566
0.0122836
0.0150643
0.0184951
0.0215565
0.0265914
0.0320781
0.0387297
0.0450942
0.050814
0.0566385
0.0625319
0.0683515
0.0754633
0.085703
0.0989468
0.115377
0.132049
0.145925
0.157533
0.168311
0.176857
0.179037
0.170517
0.155409
0.135275
0.113544
0.0950471
0.0818763
0.0710445
0.0675652
0.0602933
0.0544949
0.0467885
0.0396822
0.0331874
0.028847
0.0232846
0.0183782
0.0169964
0.0163052
0.01603
0.0148277
0.0113181
0.00661958
0.00209782
0.00103853
0.000982892
0.00169521
0.00136456
0.00142346
0.0016587
0.00190554
0.00219167
0.00247037
0.00277965
0.00307584
0.00338743
0.00370265
0.00402089
0.00433589
0.00465199
0.00496821
0.00528427
0.00561056
0.00598825
0.00629876
0.00632299
0.0069293
0.00764353
0.00861843
0.0102273
0.0110813
0.0121736
0.011912
0.0106672
0.00963478
0.00970315
0.00979287
0.0103905
0.012775
0.0158303
0.0196164
0.022622
0.0274617
0.0333561
0.0401284
0.0467687
0.0526412
0.0584719
0.0645417
0.0706515
0.0782575
0.0891818
0.103271
0.120841
0.139192
0.154834
0.167594
0.178603
0.186405
0.187352
0.176718
0.158129
0.136268
0.113556
0.0943262
0.0817517
0.0728543
0.0690275
0.0640167
0.0580502
0.0508126
0.0436823
0.036814
0.0311389
0.0238181
0.018994
0.0173794
0.0165709
0.0159383
0.0142027
0.010578
0.00571195
0.00186621
0.00106714
0.00114613
0.00310123
0.00144434
0.00150662
0.00176334
0.0020259
0.00233163
0.00262838
0.00295515
0.00327641
0.00361152
0.0039476
0.00428462
0.00461858
0.00495432
0.00528821
0.00561563
0.00593992
0.0062979
0.0066101
0.00668812
0.00730251
0.00802952
0.00892497
0.0099835
0.0113424
0.0119979
0.0120204
0.0107833
0.00959613
0.00967678
0.00983749
0.0107143
0.013276
0.0166409
0.019609
0.0239666
0.0285025
0.03466
0.0415811
0.0484556
0.054486
0.0602886
0.0664834
0.0728427
0.0809058
0.0925136
0.107497
0.126326
0.146467
0.164181
0.178452
0.190063
0.197213
0.196779
0.183327
0.161568
0.137178
0.113256
0.09113
0.0811773
0.072739
0.0693169
0.0635244
0.0576383
0.0508233
0.0458038
0.039612
0.0298323
0.0232373
0.0190055
0.0176155
0.0167577
0.0158861
0.0137092
0.00987869
0.00499687
0.00172552
0.00115421
0.00149684
0.00490362
0.00153151
0.00159786
0.00187581
0.00215352
0.00247632
0.00279164
0.00313648
0.00348548
0.00384638
0.00420506
0.00456208
0.00491622
0.00527275
0.00562536
0.00596486
0.00628558
0.00660873
0.00690531
0.00707216
0.00769098
0.00844055
0.00936176
0.0102901
0.0112041
0.0121263
0.0119695
0.0108047
0.00960724
0.0096503
0.00971724
0.0110038
0.0139077
0.0179445
0.02099
0.0253648
0.0296312
0.0360391
0.0430973
0.0501752
0.0563555
0.0621051
0.0683647
0.074931
0.0834018
0.0956724
0.111563
0.131709
0.153801
0.17387
0.190052
0.202569
0.209388
0.207407
0.19016
0.165893
0.138026
0.114049
0.0949143
0.0821397
0.073533
0.0708137
0.064738
0.0613774
0.0549636
0.0489811
0.0378046
0.0297144
0.0232287
0.0198702
0.017928
0.016974
0.0157575
0.013047
0.00915078
0.00429551
0.0016524
0.00124596
0.00183714
0.00792189
0.00162532
0.00169593
0.00199676
0.00228892
0.00262592
0.00296004
0.00332337
0.00370244
0.00409179
0.00447513
0.00485349
0.00522897
0.00560737
0.00597999
0.00633355
0.0066542
0.00694184
0.00720368
0.00747249
0.00809412
0.00885055
0.00978729
0.0107504
0.0116292
0.0120923
0.0120324
0.010763
0.00961188
0.00952778
0.0100415
0.0113261
0.0146354
0.0190658
0.021784
0.0266083
0.0309677
0.0374788
0.0446982
0.0519507
0.0582648
0.0639431
0.0701995
0.0769283
0.0857484
0.0986442
0.11544
0.136934
0.161072
0.183756
0.202244
0.215919
0.222602
0.219852
0.198393
0.171423
0.140096
0.113178
0.0908808
0.0824043
0.076395
0.0730672
0.0682484
0.0634312
0.0553453
0.046952
0.0381995
0.0320515
0.0245702
0.0200492
0.0183063
0.017093
0.0155145
0.0125588
0.00859524
0.00384224
0.00165447
0.00142572
0.00288452
0.0119806
0.00172778
0.00180184
0.00212603
0.00243265
0.00278069
0.00313361
0.00351551
0.00392677
0.00434734
0.00475773
0.00515891
0.00555678
0.00595801
0.00635199
0.00672239
0.00705069
0.00732938
0.00757856
0.00788158
0.0085181
0.00927966
0.0102117
0.0111328
0.0119392
0.0123187
0.012033
0.0106917
0.0096947
0.0097618
0.0103362
0.0116778
0.0153436
0.0191853
0.022861
0.0269024
0.0324568
0.0390238
0.0463909
0.0538043
0.0602376
0.0658297
0.0720102
0.078853
0.0879583
0.101425
0.119098
0.141941
0.168178
0.193684
0.214893
0.230254
0.236698
0.23245
0.208491
0.177
0.143462
0.114658
0.095018
0.0789146
0.0764566
0.0752579
0.0709512
0.0660083
0.0604234
0.0504409
0.0416678
0.0300606
0.0237621
0.0201333
0.0185578
0.017414
0.0151766
0.0120048
0.00796672
0.00345435
0.00171327
0.00175613
0.00337012
0.0181705
0.00183959
0.00191714
0.00226528
0.00258588
0.00294059
0.00331288
0.00371316
0.00415776
0.00461253
0.00505259
0.00547826
0.00589944
0.00632431
0.00674098
0.0071309
0.00747227
0.00775446
0.00799677
0.00830302
0.00895573
0.00971694
0.0106372
0.0115165
0.0122542
0.012518
0.0121139
0.0106982
0.00979136
0.00998899
0.0103713
0.0117549
0.0152457
0.0189442
0.0245771
0.0279461
0.0339365
0.0407029
0.0481973
0.0557585
0.0623008
0.0677985
0.073829
0.0807322
0.0900531
0.104025
0.122526
0.146683
0.175018
0.203478
0.227752
0.245246
0.251889
0.246778
0.220314
0.184763
0.14778
0.116333
0.0974153
0.0835488
0.0763419
0.0766792
0.0729148
0.0700652
0.0643099
0.050847
0.0422981
0.0321978
0.024183
0.0210644
0.0191135
0.0173457
0.014865
0.0113481
0.00723477
0.00299673
0.00167981
0.00197291
0.00682703
0.0333187
0.00196226
0.00204303
0.00241658
0.00275196
0.00310564
0.00349817
0.00391729
0.00439496
0.00488665
0.0053592
0.00581124
0.00625654
0.00670565
0.00714639
0.00755906
0.00791838
0.00820877
0.00844574
0.00874252
0.00940878
0.0101727
0.0110806
0.0119088
0.0125458
0.0127619
0.0121363
0.0108013
0.00975872
0.0100276
0.0104445
0.012192
0.0147772
0.0203594
0.0261259
0.0293903
0.0355036
0.0425247
0.0501465
0.0578475
0.064487
0.0698872
0.0756983
0.0826029
0.0920646
0.106467
0.125726
0.151134
0.181505
0.212965
0.240546
0.26046
0.267252
0.261235
0.233169
0.193616
0.15312
0.118409
0.0986697
0.0855436
0.0785797
0.077771
0.0734393
0.0689788
0.0627678
0.0523732
0.0431485
0.0326961
0.0257234
0.0213903
0.0192858
0.0171795
0.0143767
0.0106858
0.00669321
0.00295871
0.00228217
0.00338615
0.00951319
0.0627692
0.00209679
0.00217964
0.00258121
0.00293444
0.00327782
0.00368987
0.00412884
0.00463849
0.00516888
0.00567675
0.00615726
0.00662741
0.00710114
0.00756734
0.00800731
0.0083931
0.00870036
0.00892831
0.00920039
0.00987242
0.0106347
0.0115183
0.0122943
0.0128118
0.0128952
0.012157
0.0107284
0.00981965
0.0100624
0.0104758
0.012259
0.015301
0.0214635
0.0261978
0.0307499
0.0371969
0.0445139
0.0522682
0.0601091
0.0668399
0.0721388
0.0776706
0.0845115
0.0940354
0.108787
0.128718
0.155282
0.187564
0.22197
0.253049
0.275748
0.282996
0.276343
0.246911
0.204457
0.158523
0.120879
0.0993231
0.0876914
0.0793929
0.0785628
0.0748917
0.0726111
0.0676138
0.0566089
0.047122
0.0317605
0.02641
0.0215771
0.019258
0.0170088
0.0138597
0.0100677
0.00547652
0.00249484
0.00146974
0.00104347
0.000523796
0.314127
0.00224455
0.00232437
0.00275581
0.00313467
0.00345924
0.00389073
0.00434864
0.00488896
0.00545844
0.00600416
0.00651539
0.0070111
0.00750953
0.00800221
0.00847487
0.00890056
0.0092467
0.00947489
0.00968126
0.0103487
0.0111117
0.0119599
0.0126779
0.0130734
0.0130206
0.0120817
0.0106435
0.0098186
0.0101141
0.0104616
0.0121113
0.0155487
0.0213495
0.0256531
0.0322462
0.0389644
0.0466917
0.0545994
0.0625848
0.0694125
0.0746056
0.079808
0.0865155
0.096019
0.111035
0.131539
0.159139
0.193145
0.230276
0.26488
0.290329
0.298225
0.291576
0.261917
0.216109
0.16548
0.123661
0.100758
0.0888481
0.0804587
0.0799952
0.077662
0.0737103
0.0689215
0.0544709
0.0487518
0.0346706
0.0275119
0.0215058
0.0193233
0.0167426
0.0134273
0.00939394
0.00498351
0.0030443
0.00389683
0.013768
0.373744
9.7655
0.00240849
0.00248038
0.00293953
0.0033563
0.00365092
0.00410305
0.00457915
0.00514737
0.00575475
0.00634005
0.00688438
0.00740634
0.00792916
0.00844846
0.00895847
0.00943937
0.00985889
0.0101164
0.0102009
0.0108316
0.0116038
0.0124024
0.0130565
0.0133349
0.0131366
0.0119777
0.0105685
0.00988221
0.0101874
0.0109477
0.0128409
0.0159734
0.0208007
0.026765
0.0336059
0.0408317
0.0490602
0.0571805
0.0653164
0.0722636
0.0773546
0.0821823
0.0886833
0.0980813
0.113271
0.134243
0.162745
0.198256
0.237774
0.275639
0.303734
0.311957
0.305564
0.277437
0.229578
0.172637
0.126566
0.101473
0.089338
0.0809228
0.0802313
0.078523
0.0741288
0.0676323
0.0574214
0.0507676
0.0367599
0.0266133
0.0221672
0.019251
0.0165226
0.0128117
0.00898364
0.00460634
0.00288074
0.00684413
0.0516526
0.496877
2.41902
0.00258861
0.00264689
0.00312756
0.00360381
0.00385699
0.00432513
0.00482257
0.00541563
0.0060577
0.00668296
0.0072626
0.0078116
0.00835814
0.00890284
0.00945226
0.0100028
0.0105606
0.010962
0.0107966
0.0113139
0.0121158
0.012845
0.0134234
0.013592
0.0132391
0.0119413
0.0104913
0.0100409
0.0101049
0.0111246
0.0137149
0.016579
0.0219729
0.0274845
0.0351038
0.0427541
0.051616
0.0600561
0.0683512
0.0754498
0.0804672
0.0848802
0.0910934
0.100302
0.115566
0.136899
0.166154
0.202919
0.244382
0.284905
0.31522
0.323108
0.316843
0.291608
0.243576
0.181756
0.130006
0.102275
0.0892418
0.0808694
0.08025
0.0805167
0.073911
0.068062
0.0565847
0.0475391
0.0333862
0.0266168
0.0232677
0.0189996
0.0158063
0.0123166
0.0084537
0.00405694
0.00370211
0.00753363
0.0515743
0.391311
0.249574
0.0027883
0.0028249
0.00331271
0.00388328
0.00408318
0.00455866
0.00507941
0.00569587
0.00636787
0.00703155
0.0076481
0.00822508
0.0087945
0.00936184
0.00994657
0.0105582
0.01123
0.0116715
0.0116365
0.0117743
0.0126504
0.0132958
0.0137922
0.0138927
0.0132392
0.0119451
0.0105963
0.0101578
0.0103751
0.0110742
0.0133885
0.0175845
0.0232288
0.0284801
0.0365528
0.0447865
0.05433
0.0632723
0.0717552
0.0790411
0.0840375
0.0880094
0.0938363
0.102774
0.118003
0.139587
0.169435
0.20719
0.2501
0.292364
0.32367
0.329697
0.322652
0.30166
0.255144
0.192342
0.135934
0.10502
0.0902751
0.0800547
0.0789334
0.0783466
0.0756772
0.0702505
0.0609995
0.0508495
0.0326382
0.0266315
0.0229165
0.0189079
0.0153386
0.0117927
0.00815858
0.004211
0.00362154
0.00965542
0.0704885
0.412722
0.145608
0.00300983
0.00301706
0.00347351
0.00410004
0.00432182
0.00480475
0.00534997
0.00598939
0.00668658
0.00738502
0.00803875
0.00864474
0.00923655
0.00982377
0.0104376
0.0110903
0.0118185
0.0122732
0.0122049
0.0122862
0.0131871
0.0137656
0.0141509
0.014079
0.0132798
0.0119434
0.0104831
0.0101305
0.0105332
0.01175
0.0144201
0.0187814
0.0254797
0.0299446
0.0381341
0.0469305
0.0571956
0.0668536
0.075613
0.083124
0.0881824
0.0917081
0.0970208
0.105607
0.120677
0.142404
0.172673
0.211145
0.254974
0.29806
0.328521
0.33023
0.319835
0.301729
0.256364
0.198394
0.140101
0.106422
0.0936247
0.0856812
0.0825495
0.081174
0.0759749
0.0709044
0.0610793
0.0534143
0.0369699
0.0263674
0.0225856
0.0178029
0.0143477
0.011455
0.007898
0.00468177
0.00451023
0.0113087
0.0692618
0.300786
0.145194
0.00325688
0.00323274
0.00362934
0.00402649
0.00457751
0.00506284
0.00563377
0.00629626
0.00701527
0.00774347
0.00843246
0.00906823
0.00968268
0.0102886
0.0109298
0.0116152
0.0123769
0.0128402
0.0127211
0.0128422
0.0137161
0.0142383
0.0145041
0.0142554
0.0132336
0.0117592
0.010397
0.0102366
0.0104721
0.0118622
0.0153876
0.0199572
0.027699
0.0320728
0.0397265
0.0492478
0.0602161
0.070801
0.0800231
0.0878111
0.093053
0.0961616
0.100782
0.108932
0.123695
0.145459
0.175979
0.214926
0.259249
0.302447
0.330641
0.326874
0.320306
0.294517
0.245072
0.191338
0.14597
0.101286
0.0953916
0.0860125
0.083079
0.0820136
0.0782503
0.0740083
0.0626571
0.0547311
0.0355368
0.0275736
0.022702
0.0175938
0.0139442
0.011181
0.00767737
0.0049904
0.00472403
0.00948649
0.0727297
0.427532
0.160924
0.00353146
0.00348152
0.00386156
0.00431416
0.00479713
0.00533866
0.00592999
0.00661588
0.00735464
0.00810787
0.00882786
0.00949295
0.0101308
0.0107555
0.0114271
0.0121532
0.0129557
0.0134536
0.0133522
0.0134325
0.0142507
0.0147168
0.0148628
0.0143888
0.0131476
0.0115679
0.0102296
0.0100753
0.0106486
0.0122921
0.0155988
0.0210476
0.0266455
0.0353535
0.0415456
0.0517249
0.0634393
0.0750922
0.0850827
0.0932556
0.0988605
0.101643
0.105304
0.112904
0.127184
0.148872
0.179458
0.218648
0.263165
0.306513
0.332005
0.327035
0.318325
0.293982
0.243838
0.192411
0.150928
0.0982454
0.0968973
0.0864752
0.0836489
0.0826578
0.0774657
0.0730181
0.0625978
0.0534664
0.0407726
0.0293128
0.0220041
0.0174701
0.0132211
0.0105957
0.00699161
0.00574339
0.00612948
0.0174475
0.0704585
0.377875
0.230168
0.00383282
0.00375068
0.00405631
0.00451678
0.00505073
0.00561994
0.00623952
0.00694749
0.00770463
0.00847919
0.00922472
0.00991649
0.010578
0.0112214
0.0119245
0.0126997
0.0135562
0.0140743
0.0139737
0.0140652
0.0148108
0.0152119
0.0152528
0.0144474
0.0130109
0.011426
0.0101408
0.0101956
0.0106198
0.0123617
0.015334
0.0206649
0.0282074
0.0380846
0.0437743
0.0543843
0.0669097
0.0797154
0.0908541
0.0996566
0.105919
0.108603
0.110859
0.11772
0.131296
0.15278
0.183232
0.222405
0.266703
0.309589
0.333397
0.332501
0.317444
0.307426
0.259183
0.200875
0.144207
0.10598
0.0906983
0.0867181
0.0838824
0.0832126
0.078469
0.0742503
0.0636072
0.0534559
0.0387554
0.0270831
0.0225039
0.015913
0.0128446
0.0102044
0.00703184
0.00625399
0.00739399
0.0218255
0.113851
0.568499
0.272945
0.00416368
0.00405892
0.00427676
0.00474572
0.00529614
0.00591497
0.00655923
0.00729033
0.00806486
0.00885794
0.00962397
0.0103376
0.0110221
0.0116831
0.0124145
0.0132401
0.0141624
0.0147287
0.0146464
0.0147361
0.0153992
0.0157249
0.0155132
0.0145266
0.0129502
0.0112437
0.0100545
0.0101366
0.0106518
0.0124959
0.0163893
0.021382
0.0287266
0.0384783
0.0463394
0.0572706
0.0706469
0.0846767
0.0973311
0.107188
0.114625
0.117889
0.117937
0.123641
0.136225
0.15734
0.187447
0.226329
0.269985
0.311272
0.330119
0.324926
0.31264
0.298445
0.256707
0.19503
0.146266
0.119016
0.0984236
0.0901025
0.0824294
0.081256
0.0783117
0.0745925
0.0656071
0.0542918
0.0380515
0.0271661
0.021739
0.0167261
0.0120858
0.00965336
0.00740092
0.00709063
0.00831323
0.0229842
0.137765
1.06997
0.231316
0.00452122
0.00437185
0.00451588
0.00496653
0.00555081
0.00621721
0.00688912
0.00764247
0.00843436
0.0092443
0.0100271
0.0107571
0.0114619
0.0121396
0.0128927
0.0137616
0.0147427
0.0153473
0.0153176
0.0154536
0.0160039
0.0162508
0.0157738
0.0145789
0.012939
0.0109344
0.0101022
0.0102673
0.010789
0.0130662
0.0173877
0.0226547
0.0294926
0.0379638
0.0493605
0.0604162
0.0747106
0.0899958
0.104435
0.115866
0.125382
0.131224
0.127563
0.131055
0.142238
0.162738
0.192284
0.230598
0.273367
0.312985
0.328073
0.321234
0.315916
0.293446
0.258894
0.198506
0.160674
0.116791
0.100544
0.0890361
0.0807355
0.0783525
0.0759771
0.0715569
0.0650535
0.0559686
0.039227
0.0272545
0.0216781
0.0156903
0.0120927
0.00905539
0.00792982
0.00786776
0.010128
0.0338492
0.212074
1.47226
0.237735
0.00492487
0.00477252
0.00479492
0.00519064
0.00580714
0.00652722
0.00722677
0.00800213
0.00881175
0.00963807
0.0104355
0.0111776
0.0118987
0.0125923
0.0133593
0.0142601
0.0153066
0.0159702
0.0160067
0.0162055
0.016623
0.0168189
0.0159181
0.0145747
0.0127603
0.0106913
0.01012
0.0103784
0.0110094
0.0134854
0.0176985
0.0241316
0.0303835
0.0400834
0.0529592
0.0638002
0.0791479
0.0956827
0.112063
0.125551
0.137109
0.14425
0.142742
0.140548
0.149745
0.169202
0.19796
0.235373
0.276919
0.314481
0.328008
0.322153
0.31969
0.295066
0.266102
0.214863
0.154679
0.117851
0.0993199
0.0863427
0.0781795
0.0756623
0.0731654
0.06786
0.0636597
0.0567001
0.0429226
0.026417
0.0199365
0.0156803
0.0110363
0.00934303
0.00870911
0.00925261
0.0131052
0.036515
0.161539
0.90673
0.18779
0.00535807
0.00534666
0.00515668
0.0054243
0.0060661
0.0068417
0.00757026
0.00836709
0.00919537
0.0100385
0.0108506
0.0116032
0.0123368
0.0130462
0.0138201
0.0147312
0.0158182
0.016557
0.0167062
0.0170282
0.0172321
0.0172371
0.0160965
0.0145348
0.0125406
0.0104344
0.0100226
0.0102937
0.0112349
0.0136245
0.0176076
0.0238112
0.0315806
0.041154
0.0569001
0.0670731
0.0840553
0.101761
0.120161
0.135952
0.149548
0.158815
0.156723
0.154586
0.159244