/*--------------------------------*- C++ -*----------------------------------*\
| =========                 |                                                 |
| \\      /  F ield         | OpenFOAM: The Open Source CFD Toolbox           |
|  \\    /   O peration     | Version:  4.1                                   |
|   \\  /    A nd           | Web:      www.OpenFOAM.org                      |
|    \\/     M anipulation  |                                                 |
\*---------------------------------------------------------------------------*/
FoamFile
{
    version     2.0;
    format      ascii;
    class       volScalarField;
    location    "28";
    object      nut;
}
// * * * * * * * * * * * * * * * * * * * * * * * * * * * * * * * * * * * * * //

dimensions      [0 2 -1 0 0 0 0];

internalField   nonuniform List<scalar> 
6785
(
0.270463
1.0328e-08
9.63228e-09
9.63269e-09
9.63401e-09
9.63172e-09
9.63286e-09
9.63424e-09
9.63206e-09
9.63333e-09
9.63464e-09
9.63166e-09
9.64201e-09
4.71219e-08
0.303875
0.305805
8.73898e-06
4.59336e-11
4.29184e-11
4.09059e-11
3.88342e-11
3.68652e-11
3.49306e-11
3.29497e-11
3.09945e-11
2.92229e-11
4.22824e-11
2.382e-07
0.000314603
0.159087
0.340644
0.000916284
1.22491e-11
3.40958e-12
4.17773e-10
3.76893e-09
1.32473e-08
3.98256e-08
2.29125e-07
3.23682e-06
4.06322e-05
0.000272199
0.000800629
0.0028657
0.0500273
0.379022
0.0115124
3.10893e-05
4.83209e-08
9.09785e-09
5.11484e-08
4.56534e-07
1.20549e-06
4.27151e-06
9.10638e-06
6.10621e-05
0.000250414
0.00123066
0.00186702
0.0358861
0.413766
0.0354478
0.000485103
5.49534e-07
2.18072e-06
2.65892e-05
0.00167781
0.00488177
0.0139268
0.0144565
0.00572754
0.00215886
0.00260524
0.00339471
0.0426167
0.446113
0.0096049
1.99607e-05
2.49999e-05
0.0466689
0.494236
1.20476
2.21299
2.09352
1.62888
1.18437
0.00313115
0.00295369
0.00443717
0.0613413
0.477613
0.00638136
1.58265e-06
0.00929764
0.312868
1.31481
1.61119
2.94544
3.2528
3.53504
5.40242
0.0316823
0.0252934
0.013907
0.079246
0.5022
0.0300039
8.68403e-05
0.000691826
0.081298
0.371359
0.208248
0.104252
0.152579
0.42563
0.761431
0.545069
0.13774
0.0679405
0.0773171
0.515104
0.123452
0.00744704
0.00298767
0.00770701
0.018045
0.0389685
0.0562597
0.0761515
0.0982573
0.166876
0.0861483
0.0578802
0.00609466
0.057019
0.516206
0.248842
0.0426344
0.0158253
0.00569451
0.0116383
0.0280642
0.0498157
0.0682445
0.0709867
0.0603619
0.0354085
0.0229877
0.00619771
0.0479729
0.509801
0.330127
0.12024
0.0687227
0.0092929
0.0116478
0.0253937
0.0496722
0.0776566
0.0830687
0.0422426
0.0227095
0.0142926
0.00670923
0.04821
0.500673
0.447826
0.178264
0.134713
0.0140859
0.0116014
0.0288072
0.0514167
0.0718729
0.0797722
0.0363478
0.0213449
0.0149971
0.00819989
0.0460724
0.493737
0.906055
0.507546
0.134069
0.0582588
0.0150647
0.018316
0.0443796
0.0646063
0.0888987
0.069724
0.0494996
0.0235773
0.0112087
0.0506874
0.474638
0.948674
0.253689
0.0907581
0.0261521
0.0130695
0.0156155
0.027983
0.0619548
0.100358
0.128259
0.0347558
0.0237389
0.0123808
0.0742076
0.50331
1.00901
0.586868
1.33483
0.109932
8.83945e-27
0.0124871
0.316414
0.649133
0.65722
0.0330734
0.00266416
0.00200283
0.0276119
0.0732611
2.87937
5.07994
2.75183
2.72561
2.70367
4.84449
2.64121
2.62681
2.61358
4.70467
2.57126
2.56093
4.616
2.52494
2.51621
2.50696
4.52456
2.47463
2.4677
4.4632
2.44647
2.44338
2.44169
4.43754
2.42896
2.42621
2.42697
4.42548
2.41568
2.41129
4.39147
2.38121
2.36891
2.36362
4.31534
2.33541
2.32387
4.23507
2.27636
2.256
2.2441
4.10206
2.21108
2.19904
2.19772
4.06622
2.192
2.18312
4.02914
2.14498
2.12041
2.10646
3.89584
2.06115
2.03609
2.02143
3.7693
1.98252
1.96277
3.67427
1.89687
1.86671
1.84982
3.50546
1.78971
1.76818
3.36537
1.71379
1.69548
1.69236
3.21868
1.73283
1.74913
1.77073
3.30074
1.81605
1.8329
3.34552
1.84442
1.85478
1.2182
0.819357
0.708813
0.427467
0.349832
0.332878
0.281483
0.289247
0.275776
0.291025
0.294823
0.307586
0.359167
0.304071
0.271788
0.276913
0.294674
0.27164
0.292589
0.289365
0.279505
0.271279
0.224251
0.184236
0.197317
0.210926
0.212656
0.199627
0.196767
0.196956
0.170848
0.234857
0.155729
0.134677
0.141871
0.156641
0.144414
0.133735
0.136035
0.118584
0.197081
0.0864837
0.0769531
0.086698
0.102142
0.111952
0.11458
0.105038
0.107179
0.200861
0.690606
0.336955
0.195739
0.14631
0.1446
0.16385
0.152905
0.206262
0.205273
0.287427
0.220709
0.215182
0.228688
0.241728
0.223311
0.231521
0.233115
0.2463
0.255177
0.205487
0.186831
0.200515
0.215592
0.235286
0.251496
0.276439
0.188678
0.180082
0.129803
0.133959
2.04442
3.37424
3.45309
2.1909
3.62172
2.2999
3.80849
3.89836
2.4727
4.08417
4.17856
2.65225
4.38153
2.79149
4.62448
4.75711
3.03873
5.03286
3.20368
5.32199
5.48702
3.48811
5.80932
5.93806
3.68224
6.17394
3.78841
6.40557
6.49132
3.89456
6.40933
3.87009
6.40274
6.4837
3.91257
6.39991
6.40578
3.85706
6.20341
3.74317
6.00577
5.93682
3.57587
5.73178
3.46316
5.71037
6.19018
3.77535
7.39219
7.6723
4.59298
7.03768
4.23123
6.54396
6.36223
3.82455
6.00913
3.62073
5.714
5.57163
3.35529
5.29295
5.13114
2.85914
2.268
0.89739
1.41317
1.41153
0.868993
1.4041
0.870049
1.40593
1.40046
0.868561
1.40356
1.39819
0.866874
1.40089
0.861737
1.39862
26.9394
29.5197
32.5967
33.8087
33.6853
32.6738
32.5577
33.4165
35.5962
37.0408
39.5731
42.7576
47.0686
51.098
54.8645
58.3384
61.4718
64.2673
65.9041
65.9995
63.0572
58.0017
56.3427
58.5968
63.3653
70.666
83.2454
100.512
108.314
115.756
122.023
119.632
113.517
108.291
103.974
101.64
100.918
108.975
116.137
123.706
131.152
137.731
138.726
124.772
102.691
85.4661
75.6965
66.1223
55.6382
42.5759
31.9991
25.6456
21.1553
17.7198
15.1045
14.4478
15.435
17.2152
17.5038
17.4224
17.848
19.2949
22.1262
24.9992
28.6935
31.621
34.6977
38.0676
39.4158
37.977
34.9085
28.7035
20.3624
13.439
8.70811
6.65546
7.13617
3.23874
1.90108
28.9404
31.9194
34.8156
36.2979
36.313
34.1578
34.0032
34.8499
38.1205
38.3901
41.0564
44.2917
49.9803
53.9895
58.0432
61.7822
65.1425
68.3962
68.6855
69.4901
69.4465
60.6037
58.3247
61.8779
65.9586
73.5008
85.9278
104.934
114.091
122.913
126.287
128.455
122.449
117.124
112.13
109.096
103.319
112.09
120.744
127.399
134.636
142.468
144.46
133.25
108.7
90.2986
79.1076
68.5344
57.7324
43.99
32.5419
25.6344
20.7483
17.0311
14.0552
12.9209
13.2013
15.0151
16.1876
16.6155
16.9015
17.3382
18.3863
19.7136
22.0519
24.3746
27.6547
30.4854
31.6128
30.7369
29.4649
24.875
17.7885
11.8584
7.75609
5.75112
6.00298
2.86003
1.90312
29.7831
32.6322
35.2323
36.2777
36.4179
36.2628
35.9908
36.7747
38.2107
40.6285
43.2976
46.3821
49.6604
53.6018
57.5518
61.2624
64.6203
68.2581
72.3723
74.4015
69.0919
64.4458
60.2211
61.2094
68.727
78.028
89.1473
107.206
116.765
124.568
131.318
128.281
122.139
116.773
111.525
109.063
108.184
116.573
123.931
136.476
140.524
144.117
144.124
136.055
118.202
97.3435
84.0238
71.9972
59.7982
45.3318
32.416
24.5577
19.3704
15.9152
13.3487
12.2092
12.2467
13.5301
14.961
15.46
15.765
15.9832
16.1925
16.6422
18.5125
20.1101
23.342
24.9429
26.8439
26.8412
26.454
21.9964
15.7943
10.5892
6.94531
5.19091
5.40296
2.63315
1.90535
30.6357
33.5829
35.4266
36.3217
36.3642
35.9203
35.6329
36.5348
38.1285
40.3278
43.0125
46.0613
49.6909
53.4891
57.3444
60.9509
64.3333
68.0924
71.6114
73.481
74.3569
68.7739
63.0267
62.6468
71.4862
80.4577
91.7512
110.23
123.278
131.883
138.367
136.361
131.012
125.941
119.991
117.169
114.163
123.605
129.883
135.454
141.713
145.94
146.47
137.664
119.271
98.4272
83.4982
71.9962
59.8991
44.694
33.2366
23.5501
18.506
14.9322
12.5173
11.401
11.4174
12.3975
13.4917
13.9494
14.2083
14.146
14.0772
14.6033
16.1386
17.6833
20.2283
22.7216
23.9596
24.4086
23.9665
19.5121
14.1801
9.52043
6.17827
4.78073
4.94333
2.53074
1.90071
31.5379
34.2726
35.8013
36.4671
36.4792
36.1488
35.8217
36.8237
38.4161
40.6738
43.3691
46.3578
49.7449
53.4996
57.2629
60.7751
64.1407
68.0854
71.9739
73.792
74.1382
68.1808
66.7568
65.1094
73.7291
82.4629
94.9935
112.609
125.756
133.927
139.94
137.318
131.812
126.798
120.094
116.42
121.736
123.836
130.932
138.352
144.125
148.483
148.957
140.841
122.867
101.528
84.7757
71.4786
58.8325
45.7722
32.7224
23.527
17.6776
14.0412
11.8861
10.7988
10.7241
11.3853
12.1396
12.5095
12.7581
12.6772
12.6676
12.848
14.2479
15.5249
17.6359
19.6933
21.8343
22.8706
21.6135
17.3489
12.5258
8.5511
5.47309
4.45177
4.55197
2.44946
1.92134
32.2341
34.8626
36.06
36.6018
36.5561
36.2573
35.9685
37.0433
38.6154
40.8891
43.5948
46.6197
50.0144
53.63
57.2908
60.6977
64.0177
68.0458
72.1644
73.5653
75.2082
75.2987
70.911
66.6497
73.1764
83.1797
99.0343
115.375
128.701
136.803
141.893
138.883
133.358
128.643
121.593
116.372
122.254
125.112
132.404
140.128
146.564
151.112
151.687
143.627
125.69
104.226
85.8991
71.6222
58.0139
43.9052
31.8229
22.7045
16.7417
13.2415
11.1826
10.173
10.0979
10.6127
11.1053
11.3906
11.4906
11.3978
11.4867
11.9729
13.2779
14.8435
16.5378
18.796
20.9235
21.3908
19.9158
15.7441
11.3359
7.43198
4.89681
4.27294
4.21986
2.4117
1.93445
32.7605
35.4466
36.3191
36.7347
36.6485
36.4132
36.153
37.2735
38.8896
41.1635
43.8701
46.8915
50.2308
53.8059
57.3941
60.6958
63.846
67.8504
72.4484
73.4877
74.6417
74.3341
70.4308
64.9852
73.1262
84.4371
102.548
118.462
131.796
139.709
143.427
140.004
134.295
129.907
122.907
114.737
123.931
126.357
133.87
142.358
149.088
153.869
154.514
146.631
128.721
107.014
87.327
71.7468
57.4294
43.1375
30.4198
21.4357
15.8844
12.5266
10.6192
9.66738
9.53011
9.84867
10.1921
10.5287
10.6573
10.6076
10.8646
11.561
12.28
14.2988
16.4381
18.6946
19.6295
19.9879
18.0158
14.1393
10.0895
6.66087
4.39656
4.14427
3.97262
2.40004
1.98381
33.1127
35.9778
36.523
36.8762
36.7616
36.5926
36.4015
37.5302
39.154
41.4465
44.1727
47.2244
50.5544
54.0703
57.6118
60.8211
63.6814
67.4877
72.7236
73.4805
74.6028
74.5613
71.3737
64.8558
72.6792
85.7442
104.027
122.171
135.083
142.997
144.335
140.821
134.722
130.732
125.046
114.256
125.211
127.736
135.319
144.471
151.7
156.682
157.41
149.578
131.618
109.709
88.878
72.106
56.9894
42.3306
29.751
20.6808
15.0542
11.7887
10.0418
9.18291
9.05597
9.31192
9.44455
9.71993
9.86512
9.77612
10.0852
10.7589
11.8512
13.5661
15.8323
18.2981
19.6582
18.8055
16.4108
12.6947
8.82652
6.08858
4.05378
4.129
3.76421
2.41002
2.0116
33.2617
36.3295
36.7113
37.0133
36.8937
36.7932
36.6733
37.8004
39.4404
41.7378
44.4747
47.5457
50.8648
54.3473
57.8552
60.9963
63.4761
66.8159
72.9833
73.4592
74.5699
74.7026
72.8734
69.6296
73.8262
86.0245
106.362
125.706
138.44
147.021
143.923
141.317
134.466
130.579
127.682
119.745
126.399
129.198
136.761
146.56
154.329
159.529
160.35
152.531
134.456
112.253
90.5317
72.6001
56.7543
41.7638
28.9662
19.9184
14.4212
11.2001
9.507
8.73991
8.63104
8.83875
9.03812
9.17672
9.2063
9.25714
9.76231
10.7916
12.6803
14.7715
17.1506
18.6739
18.6125
17.6574
14.9429
11.5688
8.0332
5.61977
3.80714
4.09208
3.59625
2.40893
2.10643
33.2753
36.4812
36.8057
37.1553
37.0536
37.0285
36.9839
38.1004
39.7403
42.0461
44.7898
47.8801
51.1936
54.6471
58.1491
61.2895
63.4626
66.3641
73.1679
73.4848
74.5024
74.5933
72.4334
70.6153
76.9945
87.7786
108.155
129.233
141.336
149.815
144.037
141.776
133.684
129.068
129.108
127.328
127.445
130.69
138.219
148.556
156.962
162.384
163.296
155.436
137.213
114.647
92.2087
73.2027
56.6403
41.3404
28.469
19.3398
13.8103
10.6608
9.04088
8.32584
8.22376
8.40902
8.54019
8.78008
8.56882
8.68963
9.12219
9.90829
11.0781
12.5316
14.6558
15.704
17.3047
16.4132
13.8825
10.6819
7.29754
5.16915
3.64749
4.087
3.48596
2.51538
2.36081
33.2121
36.5496
36.8174
37.2808
37.2439
37.3014
37.3254
38.4258
40.0603
42.368
45.1127
48.2144
51.5202
54.9507
58.4618
61.6905
63.9472
66.8166
73.2431
73.5591
74.5796
74.9385
72.3841
73.243
80.4106
91.0282
110.846
132.433
143.308
152.758
149.433
142.213
132.639
126.373
128.872
126.627
128.809
132.102
139.694
150.447
159.551
165.208
166.204
158.261
139.875
116.967
93.8464
73.8899
56.6697
41.0808
28.0848
18.8897
13.2716
10.2423
8.63089
7.95113
7.87824
8.05929
8.20504
8.46179
8.11629
8.43687
8.78426
9.68184
10.7727
12.0899
12.9139
14.5825
16.3645
15.0521
12.6185
9.5033
6.72362
4.80942
3.57481
4.10664
3.43353
2.70199
2.485
33.0666
36.4534
36.7598
37.3772
37.4631
37.6151
37.7133
38.7849
40.4057
42.7105
45.4512
48.5565
51.851
55.2588
58.7803
62.1173
64.5582
67.3328
73.3202
73.6384
74.667
75.5893
73.3187
78.2706
81.4633
93.2897
114.103
136.425
145.349
154.614
158.08
142.405
131.565
124.288
128.273
128.141
129.589
133.463
141.151
152.214
162.052
167.96
169.019
160.945
142.359
119.12
95.385
74.5989
56.7755
40.9374
27.8539
18.5988
12.9092
9.85443
8.31033
7.64112
7.57993
7.80196
7.90163
7.94694
7.65891
7.6595
7.94376
8.56721
9.38007
10.4203
11.4107
13.5612
15.016
13.898
11.6185
8.7991
6.29462
4.47282
3.54856
4.13839
3.45709
2.93539
2.36592
32.9232
36.3526
36.6401
37.4476
37.707
37.9667
38.1377
39.1772
40.7755
43.0716
45.8062
48.9064
52.1825
55.5643
59.0892
62.5411
65.2677
68.0512
73.3416
73.747
74.7564
76.4265
78.4198
79.4641
85.5626
95.6121
116.845
141.863
151.11
159.792
159.319
142.533
130.273
129.533
126.351
128.947
130.371
134.673
142.549
153.84
164.406
170.593
171.685
163.437
144.617
121.049
96.7552
75.2817
56.9313
40.8916
27.7309
18.4234
12.6567
9.58074
8.04517
7.39895
7.345
7.77839
7.6643
7.6789
7.37017
7.46766
7.7456
8.27902
8.62717
9.31598
11.426
13.2925
14.2954
12.9778
10.7527
8.10585
5.82529
4.16216
3.51461
4.13834
3.45786
2.93977
2.34152
32.7693
36.2079
36.4993
37.4901
37.971
38.3553
38.6022
39.5967
41.1666
43.4528
46.1809
49.2679
52.5168
55.8649
59.378
62.9335
66.0569
69.0101
73.313
73.8557
74.7735
76.2518
79.3639
83.5552
87.5639
99.1807
120.552
146.588
156.938
167.775
161.045
141.35
125.573
125.905
124.443
129.448
130.986
135.733
143.835
155.306
166.553
173.057
174.139
165.676
146.581
122.695
97.9208
75.8579
57.0809
40.9048
27.7157
18.3544
12.5158
9.43754
7.84308
7.23651
7.09793
7.22775
7.31949
7.34753
6.98959
7.11099
7.06843
7.43099
7.81571
9.43509
11.0587
12.7743
13.07
12.0913
9.92968
7.48208
5.45187
3.91423
3.59791
4.13474
3.60868
3.19245
2.18873
32.6531
36.0808
36.3548
37.5096
38.2441
38.7718
39.1005
40.0432
41.5791
43.8539
46.5757
49.6428
52.8543
56.1567
59.6297
63.2275
66.7028
69.9892
73.2579
73.96
74.9567
76.3377
79.157
83.5236
90.8015
101.831
124.959
151.409
164.461
168.197
162.253
139.382
122.688
126.068
123.491
129.162
131.508
136.608
144.96
156.579
168.434
175.294
176.316
167.595
148.174
123.967
98.7905
76.2609
57.167
40.9394
27.7981
18.4089
12.4531
9.3725
7.70365
7.10162
7.02756
7.35948
7.09096
6.87492
6.59546
6.58073
6.67473
7.19496
7.9374
9.07007
9.93026
11.6529
12.4181
11.2421
9.21397
6.93827
5.03672
3.64946
3.60944
4.09541
3.6733
2.71512
2.03545
32.5607
35.9835
36.2428
37.5202
38.5141
39.2038
39.6265
40.5151
42.0141
44.2753
46.9907
50.0324
53.1965
56.4385
59.8376
63.3832
66.9142
70.286
73.2362
73.9873
75.0982
76.5813
79.6234
84.3475
92.1376
105.056
129.768
154.97
165.905
169.086
163.002
137.805
126.434
124.717
126.986
128.41
131.806
137.314
145.892
157.621
169.99
177.244
178.147
169.119
149.319
124.786
99.2795
76.4089
57.121
40.9355
27.9058
18.572
12.556
9.37139
7.68889
7.00749
6.89901
6.92951
7.25272
6.71972
6.26944
6.2081
6.28976
6.45718
7.22731
8.11655
10.3049
11.6681
11.8885
10.5365
8.43858
6.4598
4.68582
3.47703
3.68668
4.06488
3.56487
3.09193
1.82529
32.5001
35.9179
36.1684
37.548
38.7913
39.6361
40.1668
41.0122
42.473
44.7168
47.4245
50.437
53.5446
56.7102
60.0046
63.435
66.8858
70.2656
73.1955
73.9849
75.2523
76.8929
80.1733
85.2041
93.6904
107.614
133.661
158.255
167.405
174.173
167.535
143.613
132.678
120.377
127.009
127.901
131.823
137.831
146.61
158.401
171.17
178.839
179.566
170.176
149.941
125.072
99.305
76.2229
56.8736
40.8406
28.0113
18.7861
12.7179
9.4422
7.71128
6.98439
6.8608
6.73541
6.77738
6.63832
6.06953
5.96515
5.84713
5.97698
7.05055
7.8434
9.40225
11.1428
10.9509
9.72196
7.89097
5.9952
4.41653
3.42031
4.00577
4.41142
3.8818
2.06427
1.55347
32.4543
35.8786
36.1141
37.5686
39.0968
40.0471
40.7011
41.5319
42.9572
45.179
47.876
50.856
53.8989
56.9711
60.1275
63.3926
66.7108
70.067
73.0751
73.918
75.3073
77.0932
80.6811
86.2403
94.8843
110.666
136.328
163.629
172.009
178.562
166.923
153.288
127.863
117.489
125.488
127.298
131.588
138.123
147.074
158.892
171.928
180.009
180.507
170.701
149.973
124.754
98.7915
75.6288
56.3559
40.5963
28.0804
19.0649
12.9932
9.60472
7.82082
7.03771
6.91189
6.72156
6.62684
6.42154
5.94697
5.88524
5.89548
6.07002
6.77153
7.58342
9.09206
10.2194
10.4103
9.15249
7.40605
5.62852
4.19613
3.3519
3.93695
3.58172
2.88217
2.29447
2.88738
32.4271
35.8651
36.0558
37.5354
39.402
40.4056
41.2125
42.0663
43.4683
45.6635
48.3447
51.2884
54.2596
57.2209
60.1991
63.2287
66.3404
69.6852
72.8718
73.8117
75.326
77.3271
81.2042
87.395
96.8479
113.719
141.233
167.443
176.643
183.611
171.367
153.031
125.58
121.571
124.678
126.536
131.089
138.154
147.25
159.053
172.232
180.688
180.913
170.639
149.361
123.777
97.6788
74.5663
55.509
40.135
28.0371
19.3229
13.3108
9.84172
7.97431
7.21345
7.06217
6.85824
6.5642
6.40656
5.9112
5.78882
5.60558
5.62755
6.23949
6.89047
9.23653
9.74329
9.97328
8.69904
6.93904
5.30142
4.01087
3.78368
4.68787
6.46839
13.5849
105.12
7.81855
32.4187
35.9221
36.0389
37.4652
39.6882
40.7117
41.6968
42.6052
44.0079
46.1723
48.8302
51.7329
54.6271
57.4623
60.2203
62.9224
65.6745
68.9207
72.5554
73.6513
75.2601
77.5268
81.6984
88.5159
98.8182
117.69
146.381
172.302
180.945
189.432
178.864
155.554
130.7
128.836
123.638
125.837
130.334
137.868
147.109
158.842
172.047
180.819
180.735
169.949
148.07
122.106
95.9271
72.994
54.3015
39.4217
27.8671
19.5438
13.6421
10.1042
8.20093
7.43687
7.31979
7.05917
6.67925
6.45656
5.89554
5.65672
5.57705
5.55824
6.50617
6.64972
8.39007
9.17857
9.67511
8.21386
6.52758
4.97608
3.90812
3.92959
4.01816
3.03209
1.67631
0.363396
0.773649
32.4021
36.0138
36.0841
37.3266
39.966
40.9879
42.1282
43.1375
44.575
46.7073
49.3324
52.1882
55.0014
57.7014
60.2075
62.4958
64.6886
67.6324
72.0222
73.4854
75.1251
77.7042
82.1795
89.5729
100.814
122.003
151.479
176.009
184.806
186.32
173.774
156.303
138.854
128.151
123.423
125.159
129.379
137.233
146.638
158.225
171.339
180.353
179.944
168.613
146.096
119.734
93.5208
70.8819
52.7002
38.4361
27.5252
19.7081
13.987
10.3778
8.43356
7.75303
7.69296
7.43625
6.95667
6.65168
6.04519
5.73513
5.65778
5.75416
6.23782
6.41285
7.87582
9.32361
9.06483
7.79351
6.11675
4.7584
3.76339
4.12899
4.64006
2.25719
0.71733
0.461167
1.75855
32.4004
36.1688
36.2505
37.0679
40.2074
41.2719
42.5043
43.6545
45.1649
47.2693
49.8508
52.653
55.382
57.9458
60.1884
62.0002
63.3031
65.2805
71.0487
73.3582
74.8651
77.8578
82.6846
90.5991
102.872
125.679
156.688
177.963
191.504
188.542
167.41
155.363
136.038
129.52
122.965
124.625
128.284
136.246
145.829
157.197
170.072
179.253
178.527
166.631
143.463
116.69
90.4825
68.2354
50.6972
37.1777
27.0007
19.8005
14.3415
10.6784
8.68223
8.05524
8.14363
7.93746
7.4073
7.00529
6.31247
5.80133
5.84894
5.85768
6.44169
6.91136
8.65219
9.16033
8.32071
7.44306
5.91039
4.54193
3.74343
4.69453
4.10981
2.74568
1.07769
0.776727
5.84834
32.4048
36.3908
36.6143
36.6663
40.3685
41.5583
42.8492
44.1554
45.7687
47.8554
50.3845
53.1248
55.7667
58.201
60.2067
61.6258
62.2826
64.0132
68.7032
73.3702
74.4716
77.936
83.1293
91.2823
105.705
128.948
159.188
180.581
191.543
194.568
176.262
151.041
133.15
129.722
122.908
124.06
127.192
134.916
144.651
155.751
168.226
177.48
176.498
164.032
140.234
113.04
86.8729
65.0925
48.3038
35.6542
26.3256
19.865
14.76
11.0457
9.00262
8.32749
8.51552
8.39672
7.88053
7.54485
6.79026
6.25312
5.944
5.85846
6.11346
6.54003
8.83373
8.97671
8.11193
7.0295
5.63602
4.38938
3.70213
4.67665
4.94728
2.88325
1.11922
0.92179
4.96529
32.4158
36.6565
37.3892
36.9865
40.5171
41.8239
43.1812
44.6369
46.369
48.4588
50.9322
53.6012
56.15
58.4589
60.2623
61.424
61.799
63.447
68.1528
73.0625
74.0674
77.8729
83.5889
92.6697
108.207
132.281
165
185.719
193.577
188.203
168.05
145.754
125.579
128.044
122.643
123.507
126.167
133.312
143.069
153.875
165.78
174.99
173.882
160.87
136.503
108.889
82.7913
61.5282
45.5597
33.8586
25.5013
19.9292
15.3327
11.6402
9.62573
8.78178
9.03027
9.03806
8.2345
7.57668
6.92525
6.37598
6.19734
6.01987
6.26358
6.3035
7.76779
8.8556
7.87025
7.00275
5.59114
4.22783
3.73233
4.48984
4.80118
3.30182
1.56422
1.61495
3.9467
32.4051
36.8553
38.3254
40.0863
40.5959
42.0715
43.5212
45.1019
46.9522
49.0684
51.4916
54.0804
56.525
58.7024
60.3098
61.27
61.4992
63.0978
67.936
72.5128
73.6993
77.7757
84.0365
94.0753
111.42
137.721
170.48
188.36
199.584
191.15
161.622
141.328
119.476
124.061
122.592
122.847
125.235
131.543
141.054
151.546
162.704
171.722
170.71
157.221
132.396
104.375
78.3677
57.6376
42.5085
31.7755
24.4466
19.8266
15.4491
12.3355
10.6471
9.79028
9.41155
10.3419
8.77707
8.14758
7.3778
6.69789
6.32057
5.9904
6.26095
6.21207
8.01326
8.22791
7.45423
6.63911
5.36518
4.10937
3.83968
4.63193
5.64531
5.24863
2.01601
1.55209
3.60557
32.3696
36.9058
38.5874
39.8038
41.0509
42.2559
43.8588
45.5516
47.5108
49.6703
52.0573
54.5606
56.8872
58.92
60.3126
61.0404
61.1048
62.5402
67.1483
71.7984
73.3346
77.6394
84.4118
95.7226
115.003
143.42
177.43
195.965
201.002
188.95
163.512
138
128.402
116.775
122.106
122.157
124.329
129.743
138.614
148.713
158.93
167.55
166.994
153.174
128.062
99.666
73.7663
53.5575
39.2333
29.3827
23.0469
19.1056
15.3428
12.5077
11.0908
10.2916
9.75852
11.5175
9.34645
8.73674
7.8577
7.053
6.70432
6.29134
6.39964
6.38499
6.88102
7.47466
7.29306
6.26805
5.31645
4.18279
4.32551
4.54583
5.43121
3.79278
2.83102
2.70954
2.77504
32.33
36.9737
39.3434
40.4048
41.2618
42.4831
44.1844
45.9949
48.0488
50.252
52.6186
55.0378
57.235
59.1144
60.2872
60.7565
60.6132
61.9638
66.4445
70.9047
72.8684
77.4109
84.5796
97.8384
119.092
148.653
183.142
198.13
206.201
192.258
170.45
144.667
125.331
112.436
120.741
121.416
123.401
128.001
135.835
145.314
154.331
162.214
162.674
148.819
123.656
94.9464
69.1675
49.4499
35.8812
26.8582
21.3259
17.7329
14.8365
11.821
10.5669
10.2013
10.7492
11.3638
10.6883
9.32792
8.35338
7.39903
6.90952
6.368
6.38253
6.36063
7.07702
7.7656
6.74409
6.4675
5.19411
4.26981
4.52718
4.82665
5.67808
4.03257
2.42753
3.13659
2.61011
32.269
36.8763
39.9282
40.8149
41.5891
42.6942
44.5326
46.4424
48.567
50.8036
53.1588
55.5014
57.5643
59.2877
60.2595
60.4818
60.0991
61.2526
65.5092
69.8624
72.2844
77.0952
85.4347
99.7901
122.54
154.547
188.848
203.702
210.125
194.425
163.404
143.881
127.118
115.401
118.847
120.56
122.457
126.353
132.898
141.39
148.808
155.16
157.506
144.216
119.322
90.4029
64.7503
45.4729
32.5826
24.3442
19.6686
16.7688
14.1886
11.7373
10.5354
10.611
10.9028
10.5458
10.3422
9.45567
8.92503
7.89823
7.13638
6.45283
6.20598
6.17674
6.98884
7.39178
6.59687
5.814
5.30766
4.53043
4.64243
5.02018
6.41686
5.09099
2.76851
2.61633
3.2573
32.215
36.9319
40.4091
41.336
41.8901
42.9363
44.9018
46.9018
49.0671
51.3168
53.6587
55.9317
57.8648
59.4327
60.2393
60.2629
59.6901
60.7049
64.6098
68.6577
71.6489
76.7275
86.2521
101.904
125.527
162.463
191.983
205.346
211.827
189.908
157.784
139.708
127.878
121.283
116.269
119.558
121.428
124.802
130.036
137.21
142.421
145.359
150.806
139.349
115.165
86.2097
60.6793
41.7707
29.4395
21.842
17.8008
15.3694
12.9238
11.2187
10.0465
10.2536
9.9533
10.9364
10.396
9.86928
9.39686
8.39557
7.46981
6.75752
6.20074
5.84858
6.52294
7.0079
6.26002
5.90259
5.17897
4.95525
4.78675
5.42078
6.71656
4.55619
2.37353
1.98632
3.00717
32.0427
36.4596
40.6141
41.8795
42.2394
43.205
45.2975
47.3777
49.5536
51.7856
54.1018
56.3045
58.1167
59.5317
60.2142
60.103
59.3323
60.1516
63.7041
67.3834
70.965
76.1789
87.6741
104.404
130.192
169.734
195.559
207.183
211.727
187.813
158.671
134.873
128.196
119.133
112.937
118.487
120.275
123.357
127.441
133.159
136.827
138.551
140.44
134.102
111.2
82.5129
57.0956
38.4762
26.5792
19.491
15.823
13.6503
11.5055
10.2316
9.15542
9.06833
10.095
10.7517
10.5536
10.2686
9.80719
8.75219
7.7552
7.05523
6.20045
5.58008
5.69993
6.8657
6.46774
5.68574
5.63864
5.03853
4.91676
5.58782
6.61036
5.46831
3.87856
2.46624
3.45825
31.8846
35.0285
40.2462
42.4051
42.6389
43.521
45.7229
47.8755
50.0267
52.2073
54.4752
56.5944
58.2892
59.555
60.1513
60.0075
59.1476
59.7353
62.8283
65.9461
70.3713
76.3254
88.8806
107.165
135.415
177.521
201.291
212.768
211.318
189.552
163.143
140.488
127.357
120.363
109.549
117.976
118.896
122.002
125.187
129.637
132.265
132.527
134.209
126.944
107.428
79.391
54.1058
35.6855
24.0963
17.376
13.9715
11.9385
10.4481
9.121
8.27675
8.56646
9.81111
10.9194
10.4741
10.4795
10.2198
9.09986
8.16224
7.38055
6.31807
5.53145
5.26843
6.57182
5.87768
5.47523
5.45223
5.20434
5.1958
6.07045
7.75674
7.00466
4.00275
4.75612
5.00053
31.9031
35.0313
38.3125
42.8491
43.0917
43.9039
46.1854
48.3929
50.4885
52.5825
54.7703
56.7795
58.3467
59.4607
59.9885
59.91
59.1293
59.51
62.1254
64.5689
69.4563
76.3389
90.5146
110.901
140.815
185.172
208.793
219.952
215.624
188.395
157.795
135.809
126.606
123.894
119.758
116.659
117.458
120.571
123.15
126.735
128.898
127.811
128.17
116.65
103.502
76.819
51.7822
33.4508
22.0403
15.5948
12.4445
10.6275
9.10232
8.38809
7.77495
7.20471
8.25375
11.9589
11.0197
11.274
10.7501
9.45433
8.56652
7.56425
6.38826
5.49438
5.20515
6.07354
6.21463
5.87387
5.67059
5.37736
5.73881
6.69863
6.50062
5.84356
6.11666
3.43739
5.82143
32.0243
35.93
38.0488
42.5191
43.6801
44.3523
46.6947
48.9255
50.9438
52.9131
54.9842
56.8472
58.2605
59.2013
59.6434
59.7091
59.5088
59.8979
61.6967
63.3468
68.4408
76.5334
92.2306
113.896
146.871
192.115
215.573
228.83
220.506
197.19
165.076
135.871
125.169
123.945
119.52
117.23
115.665
119.036
121.091
124.321
127.076
125.085
117.359
110.128
98.1232
74.5284
50.1852
31.7894
20.4202
14.0811
10.8884
9.21514
7.90753
7.04533
6.86966
6.50011
6.40487
8.06897
9.79708
9.52228
10.8508
9.99049
8.89105
7.72848
6.44653
5.44377
4.87814
5.65843
5.19127
5.92209
5.66118
5.64369
5.93116
6.42238
7.65454
7.24334
7.9094
3.36584
5.28026
32.1828
34.8615
37.6448
41.132
44.3714
44.8631
47.2544
49.4693
51.3954
53.2053
55.1189
56.7968
58.0198
58.7459
59.0249
59.0588
59.0021
59.1534
59.9639
62.2653
67.0809
77.4737
93.6467
119.926
153.109
200.502
220.12
231.971
222.365
199.709
164.825
138.925
122.472
123.922
120.818
118.249
114.273
117.642
118.691
121.927
124.043
122.735
115.16
103.98
90.9134
71.2665
49.4428
30.6787
19.2377
12.8886
9.6625
7.90202
6.82956
6.18244
5.75558
5.64834
5.53563
6.24891
7.87922
7.45728
10.0284
9.74811
8.82882
7.64852
6.40154
5.36111
4.68036
4.65644
5.6218
6.08006
5.94317
6.10476
6.40842
7.13359
8.6296
8.78771
10.271
3.50383
5.59577
32.4066
35.8935
37.8249
42.479
44.5963
45.5018
47.8441
50.0271
51.8445
53.4702
55.1798
56.6344
57.6323
58.114
58.169
57.9823
57.705
57.7555
58.6946
61.2487
66.8476
77.7076
96.1898
126.398
161.451
208.825
224.672
235.812
224.126
202.608
171.117
145.383
117.514
123.402
121.509
120.432
118.648
115.714
115.874
119.72
121.165
120.965
114.24
101.996
89.9644
70.9534
49.148
30.1418
18.4663
12.0332
8.78786
7.18487
6.25286
5.60966
5.33436
5.0516
4.80038
4.97888
6.19585
6.67801
8.88512
9.68057
8.74707
7.6967
6.46656
5.36109
4.61696
4.82249
5.74837
6.28262
6.29485
6.61686
7.09801
8.0062
9.42582
7.59929
11.7481
2.86599
5.14628
32.4419
36.2531
37.8347
42.2461
44.8937
46.1308
48.4681
50.5935
52.2901
53.7193
55.1788
56.3687
57.1162
57.3596
57.2303
56.9242
56.5812
56.5486
57.5044
60.4352
66.6026
78.1764
98.0536
130.868
170.974
217.164
229.6
239.681
224.663
201.201
170.861
146.43
121.453
121.146
121.017
120.779
118.488
114.067
114.123
117.751
118.197
117.592
111.272
99.7171
90.8528
68.8538
49.3605
30.1557
18.0171
11.3067
7.9118
6.35814
5.74985
5.32012
5.09232
4.73968
4.36327
4.31275
5.1522
6.06792
8.54076
9.45963
8.51999
7.55667
6.37041
5.32041
4.52495
4.68682
5.61223
6.45597
6.70183
6.9638
7.71449
8.72272
9.33818
6.77326
3.28126
2.50652
4.5955
32.1838
36.3259
37.5684
41.9946
45.004
46.7769
49.093
51.1591
52.721
53.9599
55.1334
56.0135
56.487
56.4945
56.177
55.7323
55.3326
55.3567
56.5076
59.8633
66.653
78.9251
100.715
135.676
182.783
224.369
235.394
244.806
226.907
201.104
176.806
146.761
133.4
119.873
119.743
121.041
119.309
112.453
118.502
115.862
115.737
114.929
108.814
97.8848
89.3778
69.4074
49.7886
30.7977
18.1276
10.8903
7.17581
5.40146
4.66313
4.49887
4.38194
4.47156
4.40198
4.56361
4.99837
5.96069
8.98806
9.29622
8.5653
7.50773
6.39912
5.34089
4.69757
4.66582
4.9683
6.74899
6.90864
7.70947
8.30583
10.1146
8.99615
4.02745
2.31351
1.69379
3.79961
32.1662
34.7103
36.8647
41.3597
44.9005
47.3788
49.7199
51.7065
53.1459
54.1977
55.0597
55.594
55.7767
55.5707
55.1127
54.5902
54.2003
54.3431
55.6594
59.061
67.1487
79.8465
104.144
144.12
195.373
232.05
242.189
250.565
231.054
204.78
181.231
152.519
140.464
130.887
119.08
120.782
120.66
116.372
119.71
115.879
113.515
112.674
106.812
96.1746
84.4076
68.7051
49.5163
32.0933
18.7382
11.0654
7.05087
4.98505
4.03881
3.63338
3.54358
3.69836
3.90168
3.87639
4.18486
5.51941
8.45894
9.3054
8.45618
7.3619
6.25909
5.26314
4.68911
4.51924
5.50705
7.27566
7.39329
7.72503
9.52081
9.78636
10.9717
6.28293
1.14108
2.26794
3.55625
32.1266
34.6292
36.347
39.3051
44.718
47.7783
50.3771
52.23
53.5663
54.4222
54.9633
55.1314
55.0044
54.5973
54.0355
53.479
53.1426
53.4693
55.1502
58.9293
66.983
81.4257
107.945
152.416
207.733
240.298
250.952
258.78
237.516
209.679
184.658
156.959
147.504
138.221
130.347
118.729
120.36
121.8
119.403
116.491
111.625
111.175
106.761
97.3599
82.3851
72.7439
51.4233
33.8104
19.7567
11.4612
7.0409
4.91683
3.86051
3.33582
3.21765
3.48028
4.24578
4.74837
4.77827
5.55321
9.09515
9.14971
8.34303
7.32297
6.27377
5.35026
4.76184
4.56136
5.91185
7.66771
8.29731
8.59636
9.98109
11.4803
13.2154
7.23262
1.54999
2.72059
3.30176
32.1881
35.4143
37.0631
38.879
43.9248
47.858
51.0157
52.7457
53.9674
54.6096
54.8376
54.6398
54.1965
53.5988
52.9691
52.4297
52.1913
52.7155
54.8184
59.0867
67.6598
82.8314
112.359
156.23
212.998
249.437
262.374
270.894
248.094
218.436
190.345
169.279
153.006
145.813
138.122
129.914
117.522
117.585
120.65
116.706
110.728
109.501
104.335
96.7557
83.1093
73.1895
53.4941
36.0722
21.2117
12.2176
7.3302
4.80401
3.71359
3.10712
2.92074
3.06106
3.53305
4.02474
4.14933
4.38206
6.20039
8.32421
7.9473
7.43985
6.51406
5.6192
4.98915
4.98269
5.68514
8.17182
9.16556