/*--------------------------------*- C++ -*----------------------------------*\
| =========                 |                                                 |
| \\      /  F ield         | OpenFOAM: The Open Source CFD Toolbox           |
|  \\    /   O peration     | Version:  4.1                                   |
|   \\  /    A nd           | Web:      www.OpenFOAM.org                      |
|    \\/     M anipulation  |                                                 |
\*---------------------------------------------------------------------------*/
FoamFile
{
    version     2.0;
    format      ascii;
    class       surfaceScalarField;
    location    "28";
    object      phi;
}
// * * * * * * * * * * * * * * * * * * * * * * * * * * * * * * * * * * * * * //

dimensions      [0 3 -1 0 0 0 0];

internalField   nonuniform List<scalar> 
13220
(
-882.383
2182.4
-1363.83
1781.75
-1821.16
1757.32
-2165.66
1644.49
-2429.44
1564.05
-2613.39
1483.93
-2719.73
1406.31
-2748.59
1329.12
-2700.32
1251.68
-2578.05
1177.68
-2392.34
1114.53
-2134.79
1042.41
-1735.45
900.632
-1073.58
638.425
226.325
-32.1728
2214.76
-105.512
1855.3
-264.538
1916.54
-393.71
1773.87
-526.904
1697.43
-642.911
1600.11
-743.356
1506.92
-826.624
1412.52
-896.508
1321.69
-948.836
1230.12
-937.306
1103.08
-762.62
867.857
-377.529
515.754
15.628
245.867
241.986
-172.494
2387.44
-409.421
2092.41
-626.916
2134.2
-774.664
1921.79
-916.228
1839.17
-1021.82
1705.88
-1108.2
1593.47
-1176.71
1481.21
-1231.96
1377.1
-1266.46
1264.86
-1240.23
1077.05
-1079.74
707.83
-768.139
205.013
-440.592
-80.2902
-198.594
25.0871
2362.56
-62.2734
2180.01
-99.4937
2171.68
-102.486
1925.06
-104.683
1841.65
-85.6074
1687.11
-53.805
1561.98
-5.71988
1433.43
58.5553
1313.17
132.451
1191.26
180.669
1029.02
132.13
756.936
-27.0687
365.59
-105.328
-0.418465
-303.903
150.889
2211.91
141.186
2189.95
194.793
2118.31
257.577
1862.52
324.463
1775.01
394.277
1617.52
469.502
1486.98
549.278
1353.83
634.655
1227.94
715.547
1110.56
756.97
987.628
689.002
825.389
469.847
585.424
168.064
302.571
-135.858
125.975
2086.16
144.559
2171.61
190.741
2072.4
239.612
1813.9
286.924
1727.92
335.874
1568.75
385.412
1437.58
436.599
1302.73
490.892
1173.73
557.508
1043.9
625.552
919.625
610.862
839.67
480.48
715.312
257.109
524.854
121.279
51.9645
2034.41
94.6862
2129.07
124.506
2042.75
157.853
1780.72
183.155
1702.77
219.213
1532.8
250.023
1406.88
286.151
1266.66
329.601
1130.34
408.025
965.609
518.561
809.099
560.48
798.371
471.264
805.251
279.683
717.637
400.944
-5.90701
2040.41
35.9278
2087.35
58.6275
2020.16
74.442
1764.98
85.374
1691.87
104.709
1513.49
117.472
1394.07
151.508
1232.61
228.68
1053.15
349.103
844.969
447.403
710.833
473.642
771.383
388.851
889.365
226.98
878.595
627.937
-21.8575
2062.33
-46.5884
2112.13
-50.2934
2023.9
-75.26
1790.02
-98.0859
1714.78
-124.266
1539.75
-149.004
1418.9
-138.156
1221.85
-63.5308
978.602
45.1127
736.66
115.655
640.33
164.729
723.351
174.328
880.556
107.19
946.569
735.11
16.067
2046.18
-110.637
2238.79
-174.566
2087.77
-253.644
1869.06
-330.162
1791.23
-414.831
1624.4
-500.853
1504.88
-572.253
1293.23
-626.54
1032.84
-668.177
778.064
-659.923
632.07
-526.77
589.296
-291.366
644.255
-91.7383
745.782
643.376
84.059
1961.91
-59.9474
2382.58
-159.817
2187.36
-254.353
1963.33
-347.351
1883.93
-447.596
1724.36
-559.109
1616.1
-690.892
1424.72
-855.414
1197.07
-1030.81
953.308
-1143.85
744.75
-1100.12
545.957
-822.361
366.698
-348.232
271.926
295.113
108.231
1853.33
21.7777
2468.74
-65.4953
2274.27
-129.445
2026.9
-181.795
1935.81
-237.857
1780.01
-300.939
1678.67
-394.52
1517.9
-534.213
1336.29
-708.434
1126.94
-878.976
915.004
-993.895
659.576
-920.524
291.82
-510.027
-140.795
-214.916
93.2776
1759.73
79.1514
2482.62
33.4271
2319.67
-21.1045
2081.13
-62.5693
1976.93
-105.741
1822.89
-131.072
1703.72
-156.237
1542.79
-198.78
1378.6
-269.587
1197.55
-363.458
1008.63
-466.812
762.978
-501.283
326.181
-336.575
-305.655
-551.496
-417.463
2176.97
-618.079
2683.12
-688.682
2390.09
-732.073
2124.41
-726.073
1970.75
-710.887
1807.61
-676.649
1669.33
-632.793
1498.89
-575.872
1321.56
-504.478
1126.04
-411.519
915.658
-299.39
650.361
-167.126
193.393
-66.2158
-407.071
-617.703
-1306.59
-1832.08
-2064.21
-2186.3
-2079.13
-1850.91
-1502.52
-1123.11
-762.115
-408.676
-96.0214
258.889
516.247
264.764
-0.0141107
36.8782
-36.9093
36.8593
36.8433
36.8251
210.503
-173.692
210.484
210.471
210.454
516.573
-306.131
516.554
516.545
917.419
-400.889
917.409
917.392
917.385
1343.82
-426.449
1343.81
1343.79
1768.67
-424.876
1768.65
1768.64
1768.63
2149.26
-380.638
2149.25
2149.24
2149.23
2482.83
-333.597
2482.81
2482.81
2764.39
-281.595
2764.39
2764.37
2764.37
3000.85
-236.488
3000.84
3000.83
3189.82
-188.994
3189.8
3189.8
3189.79
3344.63
-154.839
3344.61
3344.61
3344.59
3468.21
-123.616
3468.19
3468.2
3561.05
-92.8702
3561.06
3561.04
3561.04
3625.94
-64.9203
3625.95
3625.93
3625.94
3665.95
-40.0318
3665.96
3665.93
3673.67
-7.72341
3673.64
3673.65
3673.62
3654.41
19.2296
3654.39
3654.41
3596.41
57.9699
3596.43
3596.39
3596.42
3502.2
94.1815
3502.23
3502.18
3502.23
3378.16
124.003
3378.22
3378.1
3226.12
152.025
3225.98
3225.97
3140.61
3070.69
3011.63
2572.66
364.813
2528.27
2496.88
2474.75
2449.09
2419.13
2383.53
2354.63
2340.04
2098.95
217.06
2093.69
2088.34
2085.6
2137.94
2195.09
2251.61
2309.62
2364.06
1988.15
455.307
2100.64
2215.85
2332.31
2451.55
2580.81
2727.84
2874.76
3020.09
3161.87
2689.61
616.557
2866.26
3046.15
3225.55
3405.85
3588.07
3782.99
3985.04
4187.2
3617.12
780.514
3835.4
4064.43
4304.59
4549.06
4798.36
5051.47
5306.47
5577.34
4723.09
1134.52
5020.11
5329.35
5642.64
5972.28
6314.46
6661.57
7013.48
7371.44
6014.48
1720.36
6417.86
6837.23
7262.58
7696.33
8136.22
8614.39
9100.55
9591.66
10089.2
8119.99
2456.11
8673.53
9266.64
9863.41
10467.8
11086
11713.9
12350.7
12998.7
10419.7
3191
11086.3
11795.3
11795.3
8514.33
3280.93
5376.18
3138.15
5376.15
3422.41
1953.74
3422.39
2905.91
516.474
3236.38
-330.492
3236.38
3785.9
-549.534
4546.34
-760.434
4546.32
5238.17
-691.843
5238.16
5858.02
-619.861
6583.72
-725.709
6583.72
7225.12
-641.411
7225.12
7823.31
-598.203
8501.13
-677.814
8501.13
9251.53
-750.398
10155.2
-903.704
10155.2
11288.4
-1133.14
11288.4
12656.5
-1368.11
14224.2
-1567.74
14224.2
16036.9
-1812.66
16036.9
18257.2
-2220.35
20685.5
-2428.3
20685.5
23301.1
-2615.61
25677.3
-2376.22
25677.3
28010.7
-2333.34
28010.7
30366.4
-2355.74
32769.6
-2403.19
32769.6
36164.4
-3394.79
36164.4
41124
-4959.6
50389.3
-9265.27
50389.3
59935.3
-9546.03
67942
-8006.71
67942
73191.2
-5249.22
73191.2
74154.1
-962.91
72097
2057.14
72097
65316.1
6780.88
65316.1
53027.6
12288.5
37802.3
15225.3
37802.3
16314.7
21487.6
-12975.2
29289.9
-12975.2
-60574.3
47599.2
-60574.3
-128063
67489
-214439
86375.9
-214439
-319625
105185
-319625
-448838
129214
-588425
139587
-588425
-756261
167836
-927400
171139
-927400
-1.12109e+06
193690
-1.12109e+06
224113
-5687.61
-22604.4
-5910.39
-26562.3
-6125.37
-28522.6
-6382.62
-30868.5
-6675.3
-32855.2
-7011.8
-34739.8
-7390.69
-36397.5
-7816.43
-37930.6
-8290.38
-39342.6
-8808.85
-40664.7
-9365.59
-41908.5
-9959.85
-43123.6
-10594.6
-44369.4
-11270.2
-45698.5
-11979.6
-47131.9
-12715.2
-48697.4
-13472
-50459.3
-14249.5
-52509.8
-15050
-54914.5
-15876.1
-57664.6
-16713.4
-60724.5
-17523.5
-64018.6
-18289.7
-67435.8
-19040
-71055.2
-19807.1
-75096.4
-20594.9
-79720.9
-21398.4
-84876.2
-22227.9
-90440.1
-23082.6
-96138
-23959.1
-101640
-24873.9
-106832
-25830.7
-111690
-26799.9
-116284
-27728.8
-120664
-28565.7
-124755
-29274.9
-128357
-29812.5
-131306
-30121.3
-133297
-30145.8
-133961
-29852.4
-133111
-29284.8
-130884
-28579.5
-127756
-27910.7
-124156
-27409.6
-120009
-27136.1
-114906
-27103.8
-108831
-27273
-102414
-27518
-96247.8
-27677.3
-90286.7
-27657
-84108.9
-27477.1
-77485.5
-27229.7
-70563.5
-26996.2
-63609.7
-26805.1
-56751.2
-26650
-49948.9
-26534.5
-43134.9
-26495.3
-36329.8
-26588.1
-29627.2
-26848.9
-23103.9
-27263.5
-16777.6
-27775.1
-10654.4
-28328.1
-4790.44
-28939.2
756.125
-29785.5
6175.41
-31006.1
11936.2
-32631.2
18528
-34746.1
26377.9
-37460.9
36040.7
-40931.7
48255.3
-45377.9
64068.8
-51117.7
85036.6
-58622.4
113591
-68610.7
153669
-82215.8
211955
-101260
299952
-128598
436730
-167541
651084
-213772
959560
1.28208e+06
-5984.8
-22468.4
-6202.23
-26344.9
-6425.65
-28299.2
-6699.81
-30594.3
-7016.19
-32538.8
-7382.7
-34373.3
-7795.21
-35985
-8255.13
-37470.7
-8760.14
-38837.6
-9305.37
-40119.5
-9884.83
-41329
-10498
-42510.5
-11148.1
-43719.3
-11835.6
-45011.1
-12551.9
-46415.6
-13286.4
-47962.9
-14032.7
-49713
-14791.8
-51750.8
-15569.1
-54137.2
-16375.2
-56858.4
-17209.8
-59889.9
-18039.4
-63189
-18833.1
-66642.1
-19604.9
-70283.4
-20394.5
-74306.8
-21215.8
-78899.6
-22059.5
-84032.5
-22929.4
-89570.1
-23824.3
-95243
-24733.5
-100731
-25668.6
-105897
-26640.7
-110718
-27632
-115292
-28596.1
-119700
-29474.4
-123876
-30227.5
-127604
-30817.5
-130716
-31188.6
-132926
-31286.9
-133863
-31074
-133324
-30572.1
-131386
-29892.1
-128436
-29197.9
-124850
-28635
-120572
-28287.2
-115254
-28181.8
-108936
-28290.6
-102306
-28508.3
-96030.2
-28688
-90106.9
-28727.8
-84069.1
-28618.7
-77594.6
-28427.4
-70754.8
-28234.7
-63802.5
-28083
-56902.9
-27971.5
-50060.4
-27887.8
-43218.5
-27838.3
-36379.4
-27850.5
-29614.9
-27961.2
-22993.1
-28200
-16538.8
-28576.8
-10277.7
-29086.8
-4280.43
-29757
1426.34
-30685.9
7104.32
-31967.9
13218.3
-33660
20220.1
-35851.7
28569.7
-38660
38848.9
-42245.9
51841.3
-46835.9
68658.8
-52757.8
90958.5
-60493.5
121327
-70772.4
163948
-84754.8
225938
-104438
319635
-133234
465526
-174139
691989
-216844
1.00226e+06
1.25893e+06
-6172.88
-22333.4
-6387.1
-26130.6
-6619.82
-28066.5
-6906.78
-30307.4
-7239.24
-32206.4
-7624.15
-33988.4
-8056.66
-35552.5
-8536.31
-36991.1
-9057.89
-38316
-9616
-39561.4
-10206.1
-40738.9
-10828.2
-41888.4
-11484.9
-43062.6
-12175.8
-44320.2
-12892.2
-45699.2
-13622.4
-47232.7
-14360.9
-48974.4
-15110.4
-51001.2
-15877.5
-53370.2
-16672.2
-56063.7
-17499.6
-59062.5
-18335.7
-62352.9
-19147.6
-65830.2
-19936.5
-69494.5
-20739.9
-73503.4
-21580.6
-78058.9
-22452.3
-83160.8
-23351.5
-88670.9
-24276.1
-94318.4
-25212.4
-99795.1
-26165.5
-104944
-27147.2
-109736
-28147.4
-114292
-29127.9
-118720
-30029.7
-122974
-30807.8
-126826
-31430
-130094
-31841.1
-132515
-31985.1
-133718
-31821.8
-133487
-31364.5
-131843
-30709.9
-129091
-30010.7
-125550
-29414.1
-121169
-29017.1
-115651
-28857.9
-109095
-28915.5
-102248
-29098.6
-95847
-29275
-89930.6
-29342.4
-84001.6
-29275.5
-77661.5
-29120.3
-70910
-28950.6
-63972.2
-28818
-57035.5
-28733.2
-50145.3
-28689.6
-43262.1
-28692.7
-36376.3
-28763.5
-29544.2
-28925.1
-22831.6
-29195.8
-16268.1
-29590.5
-9882.89
-30125.1
-3745.89
-30844.8
2146.01
-31836.1
8095.7
-33184.1
14566.3
-34953.3
21989.3
-37237.3
30853.6
-40157.9
41769.6
-43882.3
55565.7
-48645.6
73422.1
-54784.5
97097.4
-62784.5
129327
-73382.8
174546
-87838.6
240393
-108598
340394
-139817
496746
-182462
734633
-215642
1.03545e+06
1.21442e+06
-6387.4
-22197.8
-6601.19
-25916.8
-6845.11
-27822.5
-7147.84
-30004.6
-7500.13
-31854.1
-7906.97
-33581.5
-8362.02
-35097.5
-8862.98
-36490.1
-9402.91
-37776.1
-9975.42
-38988.9
-10576.2
-40138.1
-11205.8
-41258.8
-11867
-42401.4
-12559.5
-43627.8
-13274.3
-44984.4
-13999.3
-46507.7
-14729.7
-48244.1
-15470.6
-50260.3
-16229.6
-52611.1
-17014.9
-55278.4
-17836.4
-58241
-18679
-61510.3
-19509.9
-64999.2
-20319.5
-68684.9
-21139.5
-72683.4
-21999.6
-77198.8
-22899.6
-82260.8
-23831.9
-87738.6
-24791.8
-93358.5
-25762.2
-98824.6
-26739.9
-103967
-27737.6
-108739
-28751.9
-113278
-29754
-117717
-30686.9
-122042
-31498.4
-126014
-32160.2
-129432
-32619.8
-132056
-32819.1
-133519
-32714.6
-133592
-32308.4
-132249
-31683
-129716
-30981.2
-126251
-30350.6
-121800
-29898
-116104
-29674
-109319
-29669.8
-102252
-29811.7
-95705.1
-29983.1
-89759.2
-30081.6
-83903.1
-30064.1
-77679
-29954.3
-71019.8
-29816.2
-64110.3
-29707.1
-57144.5
-29648
-50204.4
-29634.4
-43275.7
-29667.2
-36343.5
-29765.8
-29445.6
-29956
-22641.3
-30258.3
-15965.8
-30687.1
-9454.14
-31260.7
-3172.2
-32031.8
2917.1
-33083.6
9147.44
-34499.4
15982
-36349.8
23839.7
-38732
33235.9
-41773.5
44811
-45648.3
59440.5
-50599.8
78373.6
-56967.6
103465
-65235
137594
-76181
185492
-91320.5
255533
-113730
362803
-147653
530669
-190375
777355
-214391
1.05946e+06
1.16787e+06
-6600.06
-22061.2
-6815.14
-25701.8
-7071.79
-27565.9
-7391.46
-29685
-7764.28
-31481.3
-8192.86
-33152.9
-8669.19
-34621.1
-9189.06
-35970.2
-9744.56
-37220.6
-10328.7
-38404.8
-10937.2
-39529.6
-11570.8
-40625.2
-12232.6
-41739.6
-12922.5
-42937.8
-13632.5
-44274.4
-14350.7
-45789.5
-15072.8
-47521.9
-15806.5
-49526.6
-16561.2
-51856.5
-17342.2
-54497.3
-18159.8
-57423.4
-19007.5
-60662.7
-19856.2
-64150.5
-20688
-67853.2
-21525.8
-71845.7
-22403.2
-76321.3
-23328.7
-81335.3
-24293.9
-86773.4
-25290.6
-92361.9
-26299.1
-97816.1
-27306.8
-102959
-28324.4
-107721
-29354.2
-112248
-30376.5
-116695
-31341
-121077
-32188.8
-125167
-32891.5
-128729
-33400.6
-131546
-33655.3
-133264
-33610.4
-133637
-33258.2
-132602
-32667
-130307
-31969.1
-126949
-31310.3
-122459
-30803.8
-116610
-30511.2
-109612
-30437.5
-102326
-30528.8
-95613.9
-30686.1
-89601.9
-30809.8
-83779.4
-30840.5
-77648.3
-30779.5
-71080.8
-30676.9
-64212.8
-30592.6
-57228.9
-30559.1
-50237.9
-30579.1
-43255.6
-30651.1
-36271.4
-30788.6
-29308.2
-31015.9
-22413.9
-31355.7
-15626.1
-31823.4
-8986.38
-32440.5
-2555.13
-33265.5
3742.15
-34380.1
10262
-35866.5
17468.4
-37801.6
25774.8
-40286.5
35720.8
-43454.6
47979.1
-47487.3
63473.2
-52631.1
83517.4
-59220.6
110055
-67747.6
146121
-79114.8
196859
-95263.1
271681
-119839
387380
-156182
567012
-196851
818024
-208777
1.07139e+06
1.09868e+06
-6817.6
-21922.1
-7036.42
-25482.9
-7307.34
-27295
-7645.11
-29347.2
-8039.01
-31087.4
-8489.12
-32702.8
-8985.73
-34124.5
-9522.79
-35433.2
-10091.6
-36651.8
-10685.1
-37811.3
-11299.1
-38915.6
-11934.1
-39990.1
-12593.3
-41080.4
-13277.3
-42253.8
-13979.9
-43571.9
-14690.5
-45078.9
-15405.3
-46807.1
-16133.1
-48798.8
-16885.5
-51104.2
-17666.3
-53716.5
-18483.6
-56606.1
-19336.8
-59809.5
-20202.3
-63284.9
-21056.9
-66998.6
-21914.2
-70988.4
-22809
-75426.5
-23757.9
-80386.4
-24754.8
-85776.5
-25788.9
-91327.7
-26838.9
-96766.1
-27882.2
-101916
-28925.2
-106678
-29974.1
-111199
-31016.6
-115653
-32013.3
-120080
-32901.9
-124278
-33648.7
-127982
-34209.7
-130985
-34523
-132951
-34540.5
-133619
-34245.9
-132896
-33693.9
-130860
-33005.5
-127638
-32322.9
-123141
-31763.5
-117170
-31398.8
-109976
-31249
-102476
-31281.2
-95581.7
-31416.1
-89466.9
-31558.5
-83637
-31635.5
-77571.3
-31626.9
-71089.5
-31566.1
-64273.6
-31510.2
-57284.8
-31500.8
-50247.3
-31550.5
-43205.9
-31659.5
-36162.5
-31836.7
-29131
-32103.7
-22146.9
-32483.5
-15246.4
-32992.3
-8477.58
-33653.5
-1893.9
-34532.6
4621.23
-35711.6
11441.1
-37271.1
19027.9
-39294
27797.7
-41885.8
38312.6
-45185.6
51278.8
-49377.9
67665.6
-54705.3
88844.7
-61497.2
116847
-70293.8
154918
-82237
208802
-99785
289229
-126795
414390
-164624
604840
-200963
854363
-201014
1.07144e+06
1.02688e+06
-7039.6
-21779.2
-7264.48
-25258.1
-7550.97
-27008.5
-7907.61
-28990.5
-8322.73
-30672.3
-8793.62
-32231.9
-9308.9
-33609.3
-9860.83
-34881.3
-10440.4
-36072.2
-11040.6
-37211.1
-11657.5
-38298.7
-12291.4
-39356.2
-12944.9
-40426.9
-13619.9
-41578.9
-14312.4
-42879.3
-15014.8
-44376.6
-15723.6
-46098.3
-16447.4
-48075.1
-17199.2
-50352.3
-17982.8
-52932.9
-18803.6
-55785.4
-19663.2
-58949.9
-20543.6
-62404.5
-21421.1
-66121
-22300.4
-70109.1
-23214.2
-74512.7
-24185.2
-79415.4
-25211.9
-84749.9
-26282.8
-90256.8
-27376.2
-95672.6
-28460.2
-100832
-29533.8
-105605
-30605.7
-110127
-31669
-114589
-32696.4
-119053
-33628.7
-123346
-34423.4
-127187
-35038.9
-130370
-35413.8
-132576
-35496.5
-133536
-35263.4
-133129
-34755.8
-131367
-34083.4
-128310
-33382.8
-123842
-32773.3
-117779
-32334.9
-110415
-32103.2
-102707
-32067.6
-95617.4
-32169.5
-89365
-32320.9
-83485.6
-32439.7
-77452.6
-32485.3
-71043.8
-32472.8
-64286
-32451.5
-57306.1
-32468.1
-50230.7
-32545.5
-43128.5
-32689.4
-36018.6
-32907.2
-28913.2
-33216.1
-21838
-33637.6
-14824.9
-34188.5
-7926.68
-34894.8
-1187.6
-35828.9
5555.29
-37074.8
12687
-38710.3
20663.4
-40824.6
29912
-43527.8
41015.8
-46961.7
54712.7
-51308.1
72012
-56801.3
94338
-63783.8
123829
-72914
164048
-85679.9
221568
-105007
308556
-134401
443784
-172475
642915
-202780
884667
-190556
1.05921e+06
941508
-7267.09
-21630.7
-7500.52
-25024.6
-7803.58
-26705.4
-8179.44
-28614.7
-8615.38
-30236.3
-9105.81
-31741.5
-9637.7
-33077.4
-10201.9
-34317.1
-10789.3
-35484.7
-11393.6
-36606.8
-12010.9
-37681.4
-12641.2
-38726
-13286.6
-39781.4
-13949.8
-40915.6
-14630.4
-42198.8
-15324
-43682.9
-16028.2
-45394.1
-16750
-47353.2
-17503.3
-49599
-18291.6
-52144.6
-19118.3
-54958.6
-19985.7
-58082.5
-20879.7
-61510.6
-21780.2
-65220.5
-22684.4
-69204.9
-23619.7
-73577.5
-24612.6
-78422.4
-25667.7
-83694.9
-26774.1
-89150.3
-27911.6
-94535.1
-29040.6
-99702.7
-30150.1
-104495
-31250
-109027
-32336.3
-113503
-33392.6
-117997
-34369.2
-122369
-35215.7
-126341
-35888.6
-129697
-36327.9
-132137
-36478.7
-133386
-36310.7
-133297
-35853
-131825
-35203.3
-128960
-34491.3
-124554
-33835.7
-118435
-33323.6
-110927
-33006.5
-103025
-32895.5
-95728.4
-32953.4
-89307
-33102.2
-83336.9
-33254.5
-77300.3
-33353.5
-70944.8
-33394.8
-64244.7
-33415.5
-57285.4
-33462.6
-50183.6
-33567
-43024.1
-33742.3
-35843.3
-33998.5
-28657
-34350.8
-21485.7
-34817
-14358.8
-35411.7
-7331.93
-36163.2
-436.119
-37152.5
6544.57
-38467.7
14002.2
-40182.7
22378.5
-42392.5
32121.8
-45209.5
43832.7
-48774.3
58277.5
-53261.2
76498.9
-58902.8
99979.6
-66093.3
131020
-75692.6
173647
-89589.5
235465
-110969
329936
-142358
475173
-179262
679818
-202103
907508
-177897
1.03501e+06
849987
-7500.82
-21474.4
-7745.29
-24780.2
-8065.57
-26385.1
-8460.51
-28219.7
-8916.34
-29780.5
-9424.55
-31233.3
-9970.56
-32531.4
-10544.1
-33743.6
-11136.5
-34892.3
-11742.1
-36001.2
-12357.4
-37066.2
-12981.6
-38101.7
-13616.8
-39146.2
-14266.6
-40265.9
-14933.7
-41531.7
-15618
-42998.6
-16318.7
-44693.4
-17041
-46631
-17797.6
-48842.3
-18592.3
-51350
-19426.9
-54124
-20304.1
-57205.4
-21212.1
-60602.5
-22134.9
-64297.7
-23065.8
-68274
-24024.8
-72618.5
-25040.4
-77406.8
-26123.4
-82611.9
-27264.1
-88009.6
-28444.6
-93354.6
-29621.9
-98525.4
-30772.2
-103345
-31904.7
-107895
-33018.3
-112389
-34103.1
-116912
-35123.2
-121349
-36023.7
-125441
-36756.4
-128964
-37262.5
-131631
-37484.3
-133164
-37385.5
-133396
-36983.6
-132227
-36363.8
-129579
-35647.6
-125270
-34951.4
-119131
-34368
-111510
-33963.4
-103429
-33770.8
-95921
-33773.9
-89303.9
-33906.7
-83204.1
-34081.5
-77125.5
-34229.3
-70797
-34327.4
-64146.7
-34397.6
-57215.2
-34482.1
-50099.1
-34616.7
-42889.5
-34822
-35638
-35112.4
-28366.6
-35504.8
-21093.4
-36015.2
-13848.3
-36655.7
-6691.41
-37456.1
364.225
-38503
7591.52
-39889.6
15388.7
-41687.7
24176.6
-43995.4
34429.5
-46924.1
46761.4
-50609.1
61962.5
-55218.6
81108.4
-61004.6
105766
-68467.6
138483
-78739.7
183919
-94079.8
250805
-117599
353456
-150299
507873
-184604
714123
-199025
921930
-163680
999663
753796
-7741.44
-21308.1
-7999.43
-24522.2
-8337.25
-26047.3
-8750.64
-27806.4
-9224.83
-29306.3
-9748.53
-30709.6
-10305.8
-31974.1
-10885.5
-33163.8
-11479.8
-34298
-12083.9
-35397
-12694.7
-36455.4
-13311
-37485.4
-13934.5
-38522.7
-14569.8
-39630.6
-15222.7
-40878.8
-15897.5
-42323.8
-16595.4
-43995.4
-17320.2
-45906.2
-18082.3
-48080.2
-18885.1
-50547.2
-19729.1
-53279.9
-20617.9
-56316.6
-21541.5
-59678.9
-22486.7
-63352.5
-23444.7
-67315.9
-24429.5
-71633.7
-25469
-76367.3
-26579.9
-81501
-27754.2
-86835.3
-28975.3
-92133.5
-30202.6
-97298
-31398.7
-102149
-32567.7
-106726
-33713.6
-111243
-34829.7
-115796
-35891.8
-120287
-36846
-124486
-37640.3
-128170
-38215.4
-131056
-38510.9
-132868
-38485.2
-133422
-38145.1
-132567
-37563.2
-130161
-36851.2
-125982
-36121.4
-119861
-35470.7
-112161
-34978.9
-103921
-34700
-96199.9
-34638.1
-89365.8
-34741
-83101.2
-34924.4
-76942.1
-35112.6
-70608.8
-35266.9
-63992.4
-35392.3
-57089.8
-35522.2
-49969.2
-35693.1
-42718.5
-35931.2
-35400
-36255.1
-28042.6
-36683.8
-20664.6
-37234.6
-13297.6
-37920
-6005.99
-38775.1
1219.26
-39885.2
8701.62
-41344.7
16848.3
-43227.3
26059.3
-45630.5
36832.7
-48661.6
49792.6
-52449.8
65750.8
-57168.9
85827.5
-63124.2
111721
-70980
146338
-82173.7
195113
-99209.1
267841
-124731
378977
-157841
540983
-188242
744523
-193721
927409
-148292
954235
653103
-7989.55
-21129.5
-8263.32
-24248.4
-8618.67
-25692
-9049.38
-27375.6
-9539.83
-28815.8
-10076.2
-30173.2
-10641.5
-31408.9
-11224.2
-32581.2
-11817.2
-33705
-12417.1
-34797.1
-13021
-35851.5
-13627.7
-36878.7
-14238.6
-37911.9
-14859.2
-39010
-15498.1
-40239.9
-16163.3
-41658.6
-16859
-43299.8
-17587.8
-45177.4
-18357.2
-47310.9
-19169.8
-49734.6
-20024.8
-52424.9
-20925.8
-55415.6
-21866.3
-58738.3
-22835.3
-62383.5
-23821.9
-66329.4
-24834.2
-70621.4
-25898.7
-75302.8
-27037
-80362.7
-28244.4
-85627.9
-29504.6
-90873.3
-30782.3
-96020.3
-32028.1
-100903
-33236.4
-105518
-34419
-110061
-35570.7
-114644
-36674
-119184
-37680.9
-123479
-38537.7
-127313
-39183.5
-130410
-39555.2
-132497
-39606.7
-133370
-39334.8
-132839
-38799.2
-130697
-38100.8
-126680
-37346.1
-120615
-36634.2
-112873
-36057.5
-104498
-35689.2
-96568.2
-35553.5
-89501.5
-35612.4
-83042.3
-35789.1
-76765.4
-36005.5
-70392.4
-36211.2
-63786.6
-36394.6
-56906.3
-36576.6
-49787.3
-36790.8
-42504.3
-37067.2
-35123.6
-37428.2
-27681.6
-37894.6
-20198.2
-38484.3
-12707.8
-39213.3
-5277
-40124.7
2130.6
-41300.2
9877.17
-42832.3
18380.3
-44796.7
28023.7
-47287.1
39323
-50405.7
52911.2
-54281.8
69626.9
-59115.9
90661.6
-65306.3
117911
-73726.3
154758
-86098.1
207485
-104964
286707
-132122
406135
-164624
573485
-190047
769946
-186535
923898
-132535
900234
549858
-8245.62
-20936.5
-8537.13
-23956.9
-8909.63
-25319.5
-9356.07
-26929.2
-9860.14
-28311.8
-10406
-29627.4
-10975.8
-30839.1
-11558
-31998.9
-12146.8
-33116.2
-12739.7
-34204.2
-13334.6
-35256.6
-13930.3
-36283.1
-14528.2
-37314
-15134.6
-38403.5
-15760.4
-39614.2
-16416.7
-41002.2
-17110.6
-42605.9
-17844.3
-44443.6
-18622.1
-46533.1
-19446
-48910.7
-20313.9
-51557
-21228.1
-54501.5
-22186.2
-57780.1
-23179.9
-61389.8
-24196.5
-65312.8
-25239
-69578.9
-26330.1
-74211.7
-27495
-79197.8
-28734.4
-84388.5
-30033.8
-89573.9
-31361.2
-94692.9
-32658.9
-99605.3
-33909.3
-104267
-35131.2
-108839
-36321.8
-113454
-37467.1
-118038
-38526.4
-122420
-39445.9
-126394
-40163.4
-129692
-40613.7
-132046
-40746.3
-133238
-40549.1
-133036
-40069
-131177
-39394.7
-127355
-38625.3
-121385
-37860.5
-113638
-37203.3
-105155
-36744.8
-97026.8
-36527.7
-89718.6
-36529.6
-83040.5
-36683.1
-76611.9
-36912.5
-70163
-37160.2
-63538.9
-37400.3
-56666.3
-37638.9
-49548.7
-37903
-42240.2
-38223.3
-34803.3
-38626.2
-27278.7
-39134
-19690.4
-39764.9
-12077
-40538
-4503.81
-41504.5
3097.08
-42743.8
11116.4
-44344.7
19981.3
-46383
30062
-48947.7
41887.6
-52139.7
56103.1
-56101
73588.2
-61084.7
95645.3
-67620.3
124447
-76809.7
163948
-90579.1
221254
-111258
307385
-139493
434371
-170344
604336
-189927
789529
-177521
911492
-117079
839792
454266
-8509.97
-20727.2
-8820.76
-23646.1
-9209.66
-24930.6
-9669.8
-26469.1
-10184.4
-27797.2
-10736
-29075.8
-11306.7
-30268.4
-11885.1
-31420.4
-12466.6
-32534.7
-13050.1
-33620.8
-13634
-34672.7
-14217.6
-35699.5
-14802.7
-36728.9
-15396.1
-37810.1
-16010.1
-39000.2
-16658.5
-40353.8
-17350.9
-41913.6
-18090
-43704.5
-18876.9
-45746.1
-19713.3
-48074.3
-20596.3
-50674
-21525.7
-53572.1
-22502.2
-56803.6
-23519.8
-60372.2
-24566.5
-64266.1
-25642.1
-68503.4
-26763.5
-73090.3
-27955.5
-78005.9
-29224.7
-83119.3
-30561.9
-88236.7
-31937.4
-93317.4
-33288.4
-98254.3
-34585.4
-102970
-35848.7
-107576
-37080.6
-112222
-38268.9
-116850
-39380.1
-121309
-40361.9
-125412
-41151.5
-128903
-41682.1
-131516
-41899.7
-133020
-41783.9
-133152
-41369
-131592
-40730.6
-127993
-39958.4
-122157
-39150.9
-114445
-38420
-105886
-37872.3
-97574.4
-37568.6
-90022.3
-37501.7
-83107.4
-37615.8
-76497.8
-37841
-69937.8
-38117.1
-63262.8
-38407.2
-56376.1
-38703.4
-49252.5
-39022.2
-41921.4
-39391.8
-34433.7
-39840.8
-26829.8
-40393.2
-19138
-41067.2
-11402.9
-41884.9
-3686.09
-42904.7
4116.84
-44204.2
12415.9
-45867.3
21644.5
-47968.8
32163.5
-50595.6
44514.4
-53855.8
59363.3
-57921
77653.4
-63123.5
100848
-70152.3
131476
-80321.8
174117
-95630.2
236563
-117935
329690
-146550
462986
-174755
632541
-187874
802648
-167028
890646
-102033
774797
367459
-8782.75
-20500.1
-9113.85
-23315
-9517.97
-24526.5
-9989.4
-25997.6
-10511
-27275.6
-11064.4
-28522.3
-11632.2
-29700.6
-12203.6
-30849
-12775.1
-31963.3
-13346.6
-33049.2
-13917.9
-34101.4
-14488.8
-35128.6
-15061.6
-36156.2
-15643.6
-37228.1
-16247.8
-38395.9
-16889.5
-39712.1
-17580.6
-41222.5
-18325.1
-42960.1
-19121.7
-44949.5
-19970.9
-47225.1
-20870.5
-49774.4
-21818.2
-52624.4
-22814.1
-55807.7
-23854.7
-59331.6
-24931
-63189.8
-26041.2
-67393.2
-27197.4
-71934.1
-28419.7
-76783.5
-29717.8
-81821.2
-31088
-86866.5
-32506.7
-91898.7
-33911.7
-96849.3
-35261.4
-101620
-36569.2
-106268
-37844.3
-110946
-39077.2
-115617
-40239.3
-120147
-41282.5
-124369
-42144
-128041
-42756.1
-130904
-43062.3
-132714
-43034.8
-133179
-42695.2
-131932
-42105.3
-128583
-41344
-122918
-40506.3
-115283
-39710.4
-106682
-39077.1
-98207.7
-38683.7
-90415.7
-38538.3
-83252.7
-38598
-76438.1
-38801
-69734.9
-39088.3
-62975.4
-39416.7
-56047.7
-39766.1
-48903.1
-40141.3
-41546.1
-40564.2
-34010.8
-41062.7
-26331.3
-41662
-18538.7
-42380.1
-10684.9
-43241.3
-2824.89
-44310.8
5186.38
-45665.3
13770.4
-47382.7
23361.9
-49538.6
34319.4
-52223.3
47199.2
-55562.6
62702.5
-59775.8
81866.7
-65299.9
106372
-72992.9
139169
-84326.7
185451
-101206
253442
-124795
353278
-153011
491203
-177681
657210
-183950
808917
-155344
862039
-87602
707056
292146
-9063.86
-20253.9
-9415.75
-22963.1
-9833.54
-24108.7
-10313.4
-25517.7
-10838.2
-26750.8
-11389.5
-27971.1
-11950.5
-29139.6
-12511.8
-30287.7
-13070.6
-31404.5
-13628.3
-32491.5
-14185.6
-33544
-14743.5
-34570.7
-15304.8
-35594.9
-15877.2
-36655.6
-16473.8
-37799.4
-17110.4
-39075.5
-17800.6
-40532.3
-18550
-42210.7
-19356.3
-44143.2
-20218.6
-46362.7
-21135.2
-48857.9
-22102.7
-51656.8
-23119.9
-54790.6
-24183.9
-58267.6
-25289.1
-62084.5
-26434.4
-66247.9
-27628.8
-70739.7
-28886.5
-75525.8
-30214.5
-80493.3
-31612.8
-85468.2
-33067.4
-90444
-34523.4
-95393.4
-35930.6
-100213
-37288.1
-104910
-38609.1
-109625
-39888.7
-114338
-41101.1
-118935
-42204.3
-123265
-43136.8
-127109
-43831.3
-130209
-44229.3
-132316
-44296.7
-133112
-44042.8
-132185
-43515
-129111
-42779.8
-123654
-41926.4
-116136
-41076.9
-107531
-40363.8
-98920.8
-39879.9
-90899.7
-39648.9
-83483.8
-39641.1
-76445.9
-39804.4
-69571.6
-40084.1
-62695.7
-40434.4
-55697.4
-40826.8
-48510.8
-41255.1
-41117.8
-41732.4
-33533.5
-42282.5
-25781.2
-42929.9
-17891.4
-43691.6
-9923.22
-44593.6
-1922.81
-45708.5
6301.24
-47113
15174.9
-48879.3
25128.2
-51087.5
36527.6
-53837.9
49949.6
-57286
66150.6
-61718.6
86299.2
-67693.3
112347
-76222.5
147698
-88847.9
198077
-107207
271802
-131607
377678
-158625
518221
-179012
677598
-178312
808217
-142904
826632
-73882.3
638034
225044
-9352.9
-19987.9
-9725.49
-22590.5
-10155
-23679.1
-10640.3
-25032.5
-11164.4
-26226.7
-11709.3
-27426.2
-12259.9
-28589
-12808
-29739.6
-13351.9
-30860.6
-13894.1
-31949.4
-14436.5
-33001.6
-14981.2
-34025.9
-15532.2
-35043.9
-16097.2
-36090.7
-16688.4
-37208.2
-17321.5
-38442.3
-18011.2
-39842.6
-18764.8
-41457.1
-19580.5
-43327.5
-20456.2
-45487
-21389.7
-47924.4
-22377.4
-50669
-23416.8
-53751.2
-24505.5
-57178.9
-25640.1
-60950
-26820.8
-65067.2
-28055.1
-69505.3
-29352.3
-74228.6
-30712.3
-79133.3
-32136.3
-84044.1
-33620.4
-88960
-35122.3
-93891.5
-36589.3
-98746.2
-38002
-103498
-39371.8
-108256
-40699.8
-113010
-41962.4
-117672
-43123.9
-122104
-44126.1
-126107
-44903.1
-129432
-45395.7
-131823
-45564.3
-132943
-45406.5
-132343
-44954.9
-129562
-44262.3
-124346
-43409.8
-116989
-42520.5
-108420
-41736
-99705.2
-41163.7
-91472
-40842.6
-83804.8
-40756.8
-76531.7
-40864.8
-69463.6
-41118
-62442.4
-41471.3
-55344.2
-41891.1
-48091
-42362.9
-40646
-42891.3
-33005.1
-43493.1
-25179.3
-44188.8
-17195.7
-44992.8
-9119.15
-45932.8
-982.873
-47089.1
7457.57
-48541.3
16627
-50356.3
26943.2
-52623.1
38794.4
-55460.8
52787.4
-59068.5
69758.3
-63815.9
91046.7
-70383.6
118914
-79898.6
157213
-93862
212040
-113486
291425
-138131
402323
-163180
543269
-178716
693134
-171182
800682
-130089
785539
-61140.2
569085
165961
-9649.18
-19702.2
-10041.8
-22197.9
-10480.9
-23240
-10968.2
-24545.2
-11487.7
-25707.3
-12022.3
-26891.6
-12558.8
-28052.4
-13091.1
-29207.4
-13618.2
-30333.4
-14143.6
-31424
-14670.5
-32474.7
-15202.4
-33494.1
-15744.2
-34502
-16303.6
-35531.2
-16891.9
-36619.9
-17523.3
-37811
-18212.7
-39153.1
-18969.7
-40700.1
-19794.1
-42503.2
-20683
-44598.1
-21633.7
-46973.7
-22642
-49660.8
-23704.1
-52689.1
-24818.2
-56064.7
-25982.6
-59785.7
-27199.1
-63850.6
-28474
-68230.5
-29813.1
-72889.6
-31208.9
-77737.5
-32660.6
-82592.5
-34169.5
-87451
-35711.3
-92349.7
-37235.3
-97222.2
-38706.4
-102027
-40128.6
-106833
-41506
-111632
-42819.4
-116359
-44037.8
-120885
-45107.9
-125036
-45967
-128573
-46556.3
-131234
-46832
-132668
-46780.3
-132395
-46419.2
-129923
-45786.8
-124979
-44953.7
-117822
-44040.8
-109333
-43196.3
-100550
-42540.5
-92127.9
-42127.8
-84217.5
-41956.6
-76702.9
-41996.1
-69424.1
-42205.6
-62233
-42542.5
-55007.2
-42971.3
-47662.2
-43471.5
-40145.8
-44040.9
-32435.7
-44690
-24530.3
-45433
-16452.7
-46279.5
-8272.62
-47256.1
-6.3735
-48451.7
8653.25
-49952.8
18128.1
-51822.9
28813.3
-54165.8
41137.4
-57128.9
55750.5
-60967.4
73596.8
-66141.4
96220.7
-73440.2
126213
-84044.8
167817
-99298.8
227294
-119862
311989
-144137
426599
-166517
565649
-176828
703445
-162818
786672
-117166
739886
-49364.4
501284
115634
-9951.66
-19397.2
-10362.9
-21786.7
-10809.3
-22793.6
-11295.1
-24059.4
-11806
-25196.4
-12326.7
-26370.9
-12846.1
-27533.1
-13360.1
-28693.4
-13868.9
-29824.6
-14376.7
-30916.2
-14887.9
-31963.5
-15407.3
-32974.6
-15941
-33968.4