/*--------------------------------*- C++ -*----------------------------------*\
| =========                 |                                                 |
| \\      /  F ield         | OpenFOAM: The Open Source CFD Toolbox           |
|  \\    /   O peration     | Version:  4.1                                   |
|   \\  /    A nd           | Web:      www.OpenFOAM.org                      |
|    \\/     M anipulation  |                                                 |
\*---------------------------------------------------------------------------*/
FoamFile
{
    version     2.0;
    format      ascii;
    class       volVectorField;
    location    "28";
    object      U;
}
// * * * * * * * * * * * * * * * * * * * * * * * * * * * * * * * * * * * * * //

dimensions      [0 1 -1 0 0 0 0];

internalField   nonuniform List<vector> 
6785
(
(3.57712e-12 -0.834021 16.1423)
(3.01721e-12 -6.74842 12.5095)
(-6.63441e-13 -4.82881 12.9137)
(1.1909e-12 -4.35627 12.6592)
(3.69885e-13 -3.74473 12.4875)
(-2.21201e-13 -3.28561 12.2584)
(1.63681e-12 -2.90915 11.9987)
(3.78369e-13 -2.63326 11.6955)
(-1.26555e-13 -2.4589 11.3454)
(1.12965e-12 -2.35632 10.9695)
(3.0041e-13 -2.30316 10.6072)
(-1.1304e-13 -2.47798 10.173)
(1.90657e-12 -2.90098 9.51718)
(-3.77134e-13 -2.1467 8.85259)
(-2.18385e-12 0.797432 6.89799)
(8.48772e-12 -7.79157 26.1789)
(4.55108e-12 -16.5699 21.9021)
(3.36284e-16 -11.5318 22.3734)
(4.81381e-12 -11.8724 20.9098)
(3.40229e-13 -10.8043 19.9409)
(1.68831e-12 -10.0702 18.8775)
(5.5087e-12 -9.29283 17.8275)
(8.87855e-13 -8.54595 16.7639)
(3.0613e-12 -7.84012 15.7034)
(5.80553e-12 -7.20316 14.7512)
(1.82626e-12 -6.66282 14.0276)
(4.82047e-12 -6.34081 13.2111)
(5.79136e-12 -6.23894 11.4344)
(-1.35943e-12 -5.63274 8.56106)
(-1.00066e-12 -3.43586 5.67324)
(1.80099e-12 -10.7411 28.2033)
(4.43037e-12 -17.537 24.5308)
(-1.07845e-12 -11.9085 24.99)
(-1.37193e-12 -12.7519 22.8095)
(8.45741e-13 -11.1134 21.7054)
(-4.78518e-13 -10.3135 20.262)
(-1.90941e-12 -9.34567 18.9258)
(1.18304e-12 -8.48913 17.6167)
(2.59761e-13 -7.68764 16.3866)
(-2.46772e-12 -6.8202 15.0184)
(2.28837e-13 -5.4099 12.6263)
(-8.56927e-12 -2.84382 7.87814)
(-2.21371e-11 0.554647 1.42891)
(-2.11584e-11 2.27622 -2.17946)
(-1.22871e-11 0.516526 -0.927993)
(5.34126e-12 -11.7828 27.727)
(2.93114e-13 -17.648 24.5921)
(1.33109e-12 -11.9985 24.928)
(-2.18362e-12 -13.7146 22.1474)
(-4.19174e-12 -11.5888 21.2132)
(4.92149e-12 -11.2014 19.4678)
(-2.9986e-12 -10.2233 18.0853)
(-4.12467e-12 -9.51314 16.6612)
(5.48609e-12 -8.82924 15.369)
(-1.54444e-12 -8.14262 14.0273)
(-7.67474e-12 -7.03124 11.9716)
(-1.36085e-12 -4.76471 8.07042)
(-8.62238e-12 -1.41444 2.47374)
(-6.64599e-11 3.09943 -2.21646)
(-4.74958e-11 1.76326 -5.12015)
(3.81382e-12 -11.8974 26.3459)
(-5.58872e-12 -17.6677 25.1948)
(-1.27797e-12 -12.4101 24.6815)
(-4.14321e-12 -13.9818 21.7532)
(-1.02097e-11 -11.9419 20.7843)
(-1.02816e-12 -11.5758 18.9687)
(-3.49223e-12 -10.6815 17.4992)
(-1.20041e-11 -9.94758 16.0025)
(-6.26174e-12 -9.24717 14.5778)
(-3.95393e-12 -8.5657 13.1889)
(-1.35681e-11 -7.75266 11.5839)
(-1.33628e-11 -6.38188 9.27953)
(-9.0358e-12 -4.37722 5.92048)
(-3.35648e-11 -1.4094 2.38456)
(-4.76243e-11 -0.0254281 -2.10052)
(7.51204e-12 -11.654 24.6732)
(-5.2453e-12 -17.2601 25.3393)
(1.97154e-12 -12.5219 24.2287)
(-3.62653e-12 -13.5829 21.2661)
(-8.89059e-12 -11.7029 20.232)
(1.08695e-12 -11.2238 18.4315)
(-2.07886e-12 -10.3037 16.8878)
(-1.08505e-11 -9.4713 15.3258)
(-3.75858e-12 -8.7146 13.8522)
(-2.41645e-12 -8.03506 12.5379)
(-9.59893e-12 -7.48784 11.3307)
(-7.80318e-12 -6.71791 9.92527)
(-6.71595e-12 -5.51082 7.79991)
(-1.37091e-11 -3.41395 4.98859)
(9.01686e-12 -1.32481 -0.0514747)
(1.23771e-11 -11.4648 23.6145)
(-1.05598e-12 -16.6649 24.9168)
(6.42067e-12 -12.3335 23.7603)
(-1.84042e-12 -13.2105 20.7593)
(-4.9484e-12 -11.2695 19.7866)
(6.62825e-12 -10.8722 17.9048)
(-2.08289e-12 -9.80107 16.3997)
(-3.32937e-12 -9.03411 14.8247)
(5.12103e-12 -8.16998 13.3175)
(-3.81216e-12 -7.33575 11.6389)
(-1.02466e-12 -6.5446 9.98648)
(5.24191e-12 -6.47524 9.5825)
(9.27559e-13 -6.09277 8.87168)
(-1.11009e-11 -4.85653 7.31919)
(2.3251e-11 -2.70295 3.20398)
(8.19472e-12 -11.5922 23.3998)
(1.39427e-13 -16.0814 24.2994)
(5.76508e-12 -12.0678 23.4429)
(-2.02813e-12 -13.0751 20.4103)
(-3.37842e-12 -10.8702 19.588)
(7.03668e-12 -10.7128 17.5484)
(-4.76535e-12 -9.44249 16.166)
(1.24384e-13 -8.78516 14.5301)
(3.84735e-12 -7.8108 12.9055)
(-7.77005e-12 -6.85176 10.8125)
(3.21821e-12 -5.8608 8.85402)
(8.02186e-12 -6.04835 8.98679)
(3.84367e-12 -6.49032 9.8408)
(-7.73195e-12 -6.05225 9.40274)
(5.6164e-12 -4.06351 6.27326)
(7.30041e-12 -12.0689 23.7865)
(5.20578e-13 -15.6298 23.9948)
(7.7866e-13 -11.9965 23.2938)
(-2.10834e-12 -12.8896 20.4455)
(-1.71114e-12 -10.6104 19.6023)
(-1.57355e-12 -10.468 17.5409)
(-1.98758e-12 -9.03239 16.1746)
(-4.51849e-13 -8.14075 14.1163)
(-7.28767e-12 -6.62481 11.6314)
(-4.61346e-12 -5.3585 8.96847)
(-4.56754e-12 -4.80789 7.86177)
(-1.12587e-11 -5.629 9.09884)
(3.7509e-12 -6.73751 10.9362)
(-4.19725e-12 -7.01698 11.1663)
(-4.3672e-12 -5.03512 8.58663)
(3.69262e-12 -12.4193 24.01)
(7.81737e-13 -15.9513 24.942)
(-1.62077e-12 -12.1946 23.6151)
(-6.1403e-12 -12.8987 21.0803)
(-1.05439e-12 -10.6677 20.185)
(-5.92205e-12 -10.4368 18.2234)
(-7.3419e-12 -8.87293 16.8023)
(-2.95871e-12 -7.64468 14.312)
(-1.11983e-11 -5.565 11.1948)
(-1.94324e-11 -3.84771 8.27805)
(-3.21892e-11 -3.07014 7.14709)
(-4.62932e-11 -3.62657 7.83373)
(-3.11783e-11 -5.09312 9.68213)
(-7.85867e-12 -6.31916 11.0257)
(-8.08855e-12 -4.70954 8.77412)
(-3.06266e-12 -12.1658 23.3)
(2.10898e-12 -16.8747 26.8056)
(-1.08594e-11 -12.863 24.6267)
(-8.02886e-12 -13.375 22.1222)
(6.85333e-13 -11.1656 21.2223)
(-1.47508e-11 -10.9755 19.3178)
(-7.14997e-12 -9.37839 17.9831)
(-3.01978e-12 -8.19736 15.5794)
(-2.42908e-11 -6.07966 12.6678)
(-1.82291e-11 -4.16044 9.69662)
(-4.67833e-11 -2.58908 7.47018)
(-1.00125e-10 -1.6156 5.8332)
(-1.11864e-10 -1.49598 5.28241)
(-9.75042e-11 -2.41073 6.22289)
(-2.28786e-11 -2.54704 6.09634)
(-3.63089e-12 -11.4408 21.7925)
(4.99473e-12 -17.341 28.0266)
(-1.54628e-11 -13.7244 25.6785)
(-7.5156e-12 -13.8312 22.9787)
(3.08044e-12 -11.7952 22.0462)
(-2.26931e-11 -11.6687 20.2444)
(-7.18131e-12 -10.2317 19.054)
(1.65351e-12 -9.31703 17.0219)
(-2.59692e-11 -7.55839 14.645)
(-1.52126e-11 -5.81228 11.946)
(-3.84491e-11 -3.99842 9.3402)
(-9.38208e-11 -2.05728 6.35045)
(-1.04925e-10 0.326029 2.6378)
(-8.48354e-11 2.23245 -0.791847)
(-9.51645e-12 1.46731 -0.57459)
(-8.61458e-12 -11.0747 20.9215)
(3.66637e-12 -17.5491 28.8611)
(-1.13624e-11 -14.6516 26.7063)
(-1.32809e-11 -14.1965 23.652)
(4.23719e-12 -12.2269 22.4277)
(-2.20758e-11 -11.9627 20.594)
(-1.15565e-11 -10.6338 19.401)
(1.46771e-11 -9.90984 17.6579)
(-2.7907e-11 -8.6017 15.7901)
(-1.59476e-11 -7.27404 13.5818)
(-1.90195e-11 -5.74429 11.2198)
(-7.24176e-11 -3.83195 8.22127)
(-6.39906e-11 -0.526555 3.21815)
(-2.38719e-11 3.29608 -3.69251)
(-3.2519e-12 3.12433 -5.53394)
(-1.37175e-11 -9.59858 19.4415)
(8.76197e-13 -16.1316 28.1229)
(-1.56883e-11 -13.7683 26.4625)
(-1.32523e-11 -13.0985 23.9465)
(-2.86464e-12 -11.6942 22.7315)
(-2.02227e-11 -11.2282 20.9852)
(-2.76387e-12 -10.0076 19.435)
(8.54375e-12 -9.12923 17.4473)
(-2.49056e-11 -7.94442 15.4949)
(-1.01773e-11 -6.91092 13.4879)
(-1.78285e-11 -5.82395 11.4254)
(-5.02707e-11 -4.3142 8.61536)
(-4.48092e-11 -1.07038 3.1263)
(-5.49355e-11 2.41057 -4.7848)
(-6.65354e-12 3.58466 -8.05122)
(-1.29985e-11 -19.1742 33.8592)
(-5.76601e-12 -18.154 35.5531)
(-1.46039e-11 -13.9379 29.7455)
(-1.06167e-11 -11.8582 25.8318)
(-8.03913e-12 -10.0064 23.2524)
(-7.42753e-12 -9.29911 21.0953)
(-2.6986e-13 -8.54521 19.3018)
(-6.02825e-12 -8.01797 17.2315)
(-1.74213e-11 -7.25434 14.9703)
(-1.00959e-11 -6.2793 12.3027)
(-2.08825e-11 -5.21507 9.29609)
(-3.44104e-11 -3.60068 5.46915)
(-3.01718e-11 -1.24215 0.235089)
(-3.2752e-11 1.35219 -4.74025)
(-8.94585e-12 3.46375 -7.17041)
(5.28444e-14 0.0123596 -0.151182)
(1.37749e-13 0.0111972 -0.020488)
(1.34638e-13 0.0491856 0.0200924)
(1.84171e-13 0.0563756 0.0489997)
(2.79455e-13 0.0350979 -0.0199996)
(3.21285e-13 0.206588 -0.394225)
(4.98366e-13 0.266254 -0.11328)
(8.78053e-13 0.302687 0.0944252)
(1.80165e-12 0.241481 0.137591)
(1.80088e-11 0.538276 -0.608503)
(1.74484e-11 0.701602 -0.211311)
(1.30131e-11 0.644786 -0.0345175)
(1.02732e-11 1.21803 -0.83968)
(4.32969e-12 1.13721 -0.367662)
(2.45761e-12 1.29954 -0.150419)
(1.48223e-12 1.14715 0.000860626)
(5.14445e-13 1.855 -0.756483)
(9.6296e-13 1.74418 -0.331003)
(1.17274e-12 1.73317 -0.18363)
(1.65945e-12 2.68419 -0.799881)
(1.52265e-12 2.18977 -0.35742)
(1.12563e-12 2.47956 -0.239361)
(1.31297e-12 2.24388 -0.124627)
(1.50794e-12 3.38253 -0.57754)
(1.00921e-12 2.68575 -0.21993)
(1.2931e-12 2.99782 -0.159117)
(8.27968e-13 2.75458 -0.0934946)
(1.64252e-12 3.87054 -0.433763)
(5.29457e-13 3.19475 -0.13316)
(-4.05281e-13 3.21297 -0.0887386)
(-1.35462e-12 4.57386 -0.299064)
(-2.12005e-12 3.45954 -0.0767044)
(-2.28326e-12 3.83319 -0.0844541)
(-2.526e-12 3.55643 -0.0777132)
(-3.17655e-12 4.82704 -0.219244)
(-2.30238e-12 3.85137 -0.0256438)
(-2.08437e-12 3.88115 -0.0360802)
(-2.60373e-12 5.41647 -0.0798275)
(-2.01206e-12 3.99577 0.0322046)
(-2.09121e-12 4.41679 -0.0165966)
(-1.64571e-12 4.09569 -0.049412)
(-1.80723e-12 5.6294 -0.0619013)
(-1.05259e-12 4.18754 0.0820246)
(-8.09025e-13 4.62734 0.0711457)
(-6.10205e-13 4.3115 0.0236945)
(-4.35828e-13 5.71199 0.00916716)
(-3.04775e-13 4.4416 0.0790007)
(-5.79524e-14 4.48729 0.0276607)
(8.32134e-14 6.16725 0.104778)
(5.66328e-13 4.46585 0.156316)
(8.22289e-13 4.92113 0.127148)
(9.15734e-13 4.57927 0.0692589)
(1.29804e-12 6.18844 0.167483)
(8.47716e-13 4.53491 0.195774)
(4.76963e-13 5.00935 0.186336)
(4.38804e-13 4.67729 0.127679)
(3.2657e-13 6.12266 0.254638)
(2.62202e-13 4.68391 0.277872)
(4.89202e-14 4.7426 0.210489)
(1.03838e-13 6.45953 0.450112)
(8.07815e-14 4.61219 0.403127)
(1.636e-13 5.06337 0.380714)
(6.90319e-14 4.7356 0.289738)
(2.11868e-12 6.17554 0.55721)
(2.08482e-12 4.66675 0.504755)
(1.89697e-12 4.73106 0.401532)
(2.62656e-12 6.42556 0.833317)
(1.79125e-12 4.528 0.712573)
(1.75877e-12 4.96949 0.690324)
(1.69185e-12 4.61929 0.553406)
(2.30382e-12 6.14904 1.02807)
(1.82209e-12 4.37712 0.789295)
(1.83958e-12 4.83408 0.74508)
(2.12437e-12 4.5007 0.580839)
(2.50115e-12 5.83127 1.14603)
(9.02778e-13 4.28242 0.934348)
(9.4054e-13 4.39476 0.685304)
(1.5951e-12 5.72519 1.29706)
(9.65331e-13 4.172 1.04374)
(1.47821e-12 4.09205 0.855043)
(5.52653e-13 4.4384 -0.273061)
(-5.09028e-13 4.08254 0.257379)
(-1.77139e-12 3.77776 0.842443)
(5.07927e-13 4.61007 2.9379)
(1.42852e-12 3.72862 2.22942)
(-1.24216e-12 3.4657 2.49803)
(-3.80079e-12 3.41489 2.74822)
(-3.62202e-12 3.33285 2.68164)
(-1.97105e-12 3.23932 2.21645)
(-2.82055e-13 3.11414 1.40093)
(1.45534e-12 3.25177 0.614541)
(2.41963e-12 2.75593 0.656754)
(8.88936e-12 4.63358 0.827196)
(2.16924e-12 3.02071 1.36702)
(-7.92454e-14 2.87743 1.69327)
(-2.30519e-12 2.93587 1.86865)
(-4.22026e-12 2.78504 2.82245)
(-5.54228e-12 2.93562 3.17702)
(-6.61903e-12 2.86285 3.35834)
(-7.39237e-12 2.98124 3.38119)
(-7.89992e-12 2.61659 3.41723)
(-9.01054e-12 5.06714 3.21323)
(-1.24188e-11 3.16657 5.4681)
(-1.22741e-11 3.34242 5.84825)
(-1.2402e-11 3.33937 6.19622)
(-1.29114e-11 3.34247 6.36009)
(-1.3316e-11 3.38393 6.48594)
(-1.33435e-11 3.41838 6.82257)
(-1.36804e-11 3.4391 6.79706)
(-1.34444e-11 3.62841 6.55843)
(-1.29266e-11 3.3331 6.35161)
(-9.43744e-12 6.58266 5.09417)
(-9.93932e-12 4.12042 7.67283)
(-9.61719e-12 4.41072 7.87126)
(-9.42445e-12 4.4788 8.01357)
(-9.45033e-12 4.47784 8.1056)
(-1.00517e-11 4.58342 8.16698)
(-9.65489e-12 4.57788 8.45915)
(-9.49229e-12 4.78691 8.60731)
(-1.03547e-11 4.53423 8.71988)
(-9.72623e-12 8.28847 7.066)
(-1.09203e-11 5.535 9.99001)
(-1.14561e-11 5.90869 10.4163)
(-1.16469e-11 6.03423 11.0007)
(-1.23055e-11 6.04784 11.4277)
(-1.31574e-11 6.16366 11.75)
(-1.39963e-11 6.16883 12.077)
(-1.44245e-11 6.414 12.175)
(-1.55214e-11 6.067 12.8926)
(-1.77439e-11 10.5712 11.2607)
(-1.7552e-11 7.44758 15.2178)
(-1.67031e-11 7.92819 16.0226)
(-1.57171e-11 8.10296 16.6799)
(-1.48906e-11 8.06467 17.5135)
(-1.40779e-11 8.167 18.2564)
(-1.3176e-11 8.15262 18.7791)
(-1.22824e-11 8.36717 19.1178)
(-1.12991e-11 8.00018 19.6727)
(-1.10219e-11 13.7425 18.0472)
(-1.1491e-11 9.85011 22.7056)
(-1.10329e-11 10.4691 23.6008)
(-1.06188e-11 10.6634 24.4805)
(-1.02739e-11 10.554 25.3514)
(-9.76756e-12 10.6941 25.7062)
(-9.91968e-12 10.6243 26.8398)
(-9.69897e-12 10.665 27.476)
(-9.41231e-12 10.9081 27.8869)
(-9.2015e-12 10.4138 28.5353)
(-7.97058e-12 18.025 26.4792)
(-8.24508e-12 12.8596 31.4954)
(-7.69886e-12 13.6273 32.6452)
(-7.52425e-12 13.9697 33.6203)
(-7.46608e-12 13.8472 34.5252)
(-7.37134e-12 13.9129 35.3347)
(-7.46889e-12 13.8868 36.0046)
(-8.24102e-12 14.1477 36.4516)
(-8.35793e-12 13.6601 37.3042)
(-8.06005e-12 22.9795 35.5611)
(-9.53565e-12 16.6228 39.2836)
(-9.74169e-12 17.1429 40.6749)
(-7.11134e-12 18.6987 31.7149)
(-7.41575e-12 11.4445 35.0615)
(-6.97712e-12 8.79359 29.6378)
(-4.03731e-12 7.35844 18.6825)
(-5.12111e-12 6.154 14.2037)
(-2.73624e-12 4.06054 6.253)
(-3.06124e-12 3.2054 -2.97777)
(-9.24602e-12 5.48362 -12.7785)
(-7.75155e-12 3.36821 -10.3922)
(-1.06511e-11 5.4658 -14.1407)
(-1.35254e-11 7.07689 -15.8423)
(-9.38455e-12 4.22089 -10.4122)
(-1.23415e-11 8.99148 -13.4231)
(-8.31946e-12 6.40444 -9.28983)
(-1.03148e-11 8.2384 -10.9179)
(-1.01311e-11 10.1494 -10.9468)
(-5.87973e-12 6.92678 -6.70314)
(-7.02824e-12 12.257 -7.78964)
(-4.84281e-12 8.84591 -4.87666)
(-5.55134e-12 10.8454 -5.1692)
(-6.31114e-12 12.864 -4.39285)
(-4.20806e-12 9.78122 -2.41062)
(-4.91712e-12 12.5964 -2.40154)
(-5.83701e-12 16.029 -2.09424)
(-3.60691e-12 10.9564 -1.10935)
(-4.68457e-12 18.6011 -1.80852)
(-3.14851e-12 13.6316 -1.03155)
(-4.05389e-12 16.2418 -1.69658)
(-4.13085e-12 22.1167 -1.76449)
(-2.57973e-12 15.5532 -0.703946)
(-3.14217e-12 26.2949 -1.08999)
(-2.16133e-12 19.3192 -0.00326375)
(-2.4084e-12 23.5619 -0.351282)
(-2.89244e-12 31.0426 0.81501)
(-1.8804e-12 23.9685 1.71868)
(-2.14976e-12 31.4571 1.93454)
(-2.83303e-12 40.2722 4.5166)
(-1.91965e-12 28.3237 3.96247)
(-2.51281e-12 46.0982 5.63163)
(-1.78006e-12 33.8717 4.93941)
(-2.10544e-12 40.1158 5.78073)
(-2.0468e-12 50.9209 5.12558)
(-1.28002e-12 36.383 4.93892)
(-1.84076e-12 58.3185 -0.669529)
(-1.26439e-12 44.0234 0.156377)
(-1.4964e-12 51.9279 -5.95376)
(-1.8126e-12 70.695 -38.9802)
(-1.21477e-12 59.8437 -27.0554)
(-1.40461e-12 78.9286 -49.1321)
(-1.54051e-12 95.5753 -75.8559)
(-1.01606e-12 77.5276 -51.7333)
(-1.28707e-12 113.032 -79.7145)
(-8.54586e-13 91.7558 -58.926)
(-1.03771e-12 107.8 -76.2509)
(-1.31455e-12 107.498 -99.4548)
(-9.09134e-13 82.623 -68.4493)
(-1.18759e-12 112.278 -103.665)
(-9.01826e-13 83.2613 -78.3325)
(-1.02824e-12 93.819 -110.613)
(-1.18136e-12 70.5284 -162.853)
(-7.66826e-13 35.7072 -114.784)
(-1.35437e-12 61.2237 -187.996)
(-1.30551e-12 26.0574 -216.014)
(-3.26564e-13 -49.8696 -68.4887)
(-4.0514e-13 -19.2736 -88.9406)
(7.06527e-14 -86.5205 10.1337)
(2.56137e-13 -89.7976 54.2916)
(8.79517e-13 -256.508 187.052)
(9.7742e-13 -266.021 206.873)
(1.49537e-12 -436.316 323.971)
(1.39832e-12 -373.857 313.682)
(2.29235e-12 -585.399 520.408)
(2.52583e-12 -795.827 584.662)
(2.20832e-12 -685.293 527.901)
(3.47114e-12 -996.094 837.525)
(3.46645e-12 -1171.36 855.785)
(2.93919e-12 -1111.57 747.469)
(4.2427e-12 -1670.74 1081.46)
(3.33907e-12 -1344.65 874.022)
(5.30736e-12 -1887.71 1399.86)
(5.85831e-18 30.304 37.0151)
(1.58427e-17 35.676 38.8078)
(3.35274e-17 38.2836 40.0057)
(6.74306e-17 41.4601 41.6615)
(1.24368e-16 44.1499 43.4413)
(2.05975e-16 46.7134 45.5615)
(2.99952e-16 48.9732 47.9293)
(3.72338e-16 51.072 50.613)
(3.60516e-16 53.0107 53.6058)
(1.74966e-16 54.8249 56.9325)
(-2.8617e-16 56.5277 60.5188)
(-1.10885e-15 58.1915 64.3556)
(-2.32079e-15 59.8998 68.4419)
(-3.83737e-15 61.7194 72.8196)
(-5.38385e-15 63.6702 77.4494)
(-6.4888e-15 65.7881 82.278)
(-6.53201e-15 68.1619 87.258)
(-4.84697e-15 70.9196 92.3691)
(-8.42523e-16 74.1525 97.6237)
(5.86761e-15 77.8494 103.042)
(1.53949e-14 81.9428 108.638)
(2.75441e-14 86.3032 114.207)
(4.20408e-14 90.8079 119.44)
(5.92635e-14 95.6149 124.422)
(8.00651e-14 101.024 129.445)
(1.04871e-13 107.218 134.65)
(1.33139e-13 114.115 139.95)
(1.63864e-13 121.568 145.362)
(1.95751e-13 129.195 151.01)
(2.27001e-13 136.557 156.758)
(2.57439e-13 143.522 162.695)
(2.87704e-13 150.047 168.955)
(3.18229e-13 156.185 175.454)
(3.4889e-13 161.979 181.878)
(3.78986e-13 167.325 187.839)
(4.07536e-13 171.98 193.037)
(4.33425e-13 175.713 197.296)
(4.54653e-13 178.107 200.204)
(4.69342e-13 178.664 201.415)
(4.76278e-13 177.163 200.531)
(4.76626e-13 173.874 197.503)
(4.74237e-13 169.539 192.962)
(4.73787e-13 164.775 188.098)
(4.77544e-13 159.434 184.044)
(4.84344e-13 152.887 181.416)
(4.92158e-13 145.063 180.398)
(5.00826e-13 136.742 180.985)
(5.10295e-13 128.611 182.655)
(5.18371e-13 120.568 184.252)
(5.22341e-13 112.124 184.779)
(5.21412e-13 103.106 183.981)
(5.17407e-13 93.7956 182.38)
(5.12844e-13 84.5381 180.682)
(5.09042e-13 75.4438 179.267)
(5.05897e-13 66.4185 178.135)
(5.02952e-13 57.3799 177.2)
(5.00561e-13 48.3909 176.594)
(4.99993e-13 39.5971 176.677)
(5.02639e-13 31.082 177.831)
(5.08934e-13 22.8177 180.153)
(5.18063e-13 14.7671 183.359)
(5.28577e-13 7.01258 186.979)
(5.39705e-13 -0.280831 190.751)
(5.52848e-13 -7.24064 195.101)
(5.7406e-13 -14.5332 202.032)
(6.02796e-13 -22.8954 211.382)
(6.40745e-13 -32.842 223.701)
(6.89824e-13 -45.0853 239.581)
(7.52865e-13 -60.5622 259.899)
(8.3383e-13 -80.5998 285.859)
(9.38522e-13 -107.166 319.184)
(1.07569e-12 -143.337 362.395)
(1.25889e-12 -194.094 419.254)
(1.51003e-12 -267.9 495.58)
(1.86529e-12 -379.324 600.682)
(2.38366e-12 -552.614 749.477)
(3.15218e-12 -825.562 964.911)
(4.24777e-12 -1228.26 1268.93)
(5.47309e-12 -1696.41 1585.17)
(9.13529e-18 30.005 39.0061)
(2.43018e-17 35.2046 40.7614)
(4.98256e-17 37.819 41.9517)
(9.62699e-17 40.9048 43.7144)
(1.69178e-16 43.52 45.6197)
(2.64382e-16 45.9918 47.9271)
(3.57455e-16 48.1627 50.5097)
(3.9715e-16 50.1637 53.426)
(3.02485e-16 52.0024 56.6419)
(-2.72453e-17 53.7252 60.1596)
(-6.85564e-16 55.3482 63.9115)
(-1.72741e-15 56.9332 67.8857)
(-3.12428e-15 58.5555 72.0866)
(-4.71771e-15 60.2886 76.5543)
(-6.15573e-15 62.167 81.2525)
(-6.912e-15 64.229 86.105)
(-6.37447e-15 66.5579 91.0457)
(-3.97019e-15 69.2722 96.0569)
(7.48944e-16 72.457 101.166)
(8.06737e-15 76.0968 106.42)
(1.81434e-14 80.1599 111.915)
(3.09363e-14 84.5714 117.549)
(4.61935e-14 89.1646 122.976)
(6.40828e-14 94.0046 128.131)
(8.53626e-14 99.3755 133.269)
(1.10706e-13 105.516 138.657)
(1.39612e-13 112.368 144.221)
(1.70934e-13 119.756 149.902)
(2.03356e-13 127.328 155.821)
(2.3505e-13 134.646 161.835)
(2.65696e-13 141.536 167.942)
(2.96038e-13 147.976 174.303)
(3.26664e-13 154.089 180.906)
(3.57673e-13 159.964 187.522)
(3.88399e-13 165.501 193.759)
(4.17697e-13 170.421 199.233)
(4.44577e-13 174.507 203.803)
(4.67286e-13 177.365 207.096)
(4.83989e-13 178.501 208.753)
(4.93485e-13 177.652 208.406)
(4.96519e-13 174.935 205.914)
(4.96177e-13 170.903 201.715)
(4.96537e-13 166.09 196.847)
(4.99815e-13 160.43 192.459)
(5.05275e-13 153.434 189.342)
(5.11338e-13 145.117 187.822)
(5.18245e-13 136.373 187.934)
(5.26688e-13 128.067 189.272)
(5.35063e-13 120.178 190.836)
(5.40544e-13 112.091 191.67)
(5.41599e-13 103.402 191.369)
(5.39299e-13 94.2364 190.216)
(5.35949e-13 84.953 188.818)
(5.33213e-13 75.7648 187.644)
(5.31341e-13 66.6555 186.796)
(5.29788e-13 57.5343 186.157)
(5.28313e-13 48.4049 185.682)
(5.2737e-13 39.374 185.496)
(5.2785e-13 30.55 185.845)
(5.30593e-13 21.9834 186.97)
(5.36129e-13 13.7113 189.026)
(5.4446e-13 5.81465 192.005)
(5.5551e-13 -1.65996 195.852)
(5.70558e-13 -9.00909 200.904)
(5.92919e-13 -16.9044 208.228)
(6.23006e-13 -25.9448 218.007)
(6.62473e-13 -36.725 230.79)
(7.13419e-13 -49.9988 247.23)
(7.78785e-13 -66.7793 268.233)
(8.62706e-13 -88.5029 295.042)
(9.71215e-13 -117.309 329.431)
(1.11346e-12 -156.538 373.999)
(1.3035e-12 -211.604 432.568)
(1.56403e-12 -291.694 511.027)
(1.93283e-12 -412.61 619.045)
(2.47415e-12 -600.557 773.365)
(3.28823e-12 -894.063 1002.7)
(4.44086e-12 -1309.81 1324.29)
(5.48615e-12 -1718.5 1547.99)
(1.29798e-17 29.8829 40.2728)
(3.34961e-17 35.0024 41.9878)
(6.63298e-17 37.598 43.2009)
(1.22949e-16 40.6247 45.0482)
(2.05986e-16 43.1896 47.0476)
(3.04159e-16 45.6031 49.4715)
(3.82062e-16 47.7235 52.1851)
(3.75902e-16 49.6766 55.2362)
(1.95763e-16 51.4748 58.5804)
(-2.55827e-16 53.1623 62.191)
(-1.0541e-15 54.7564 66.0216)
(-2.22032e-15 56.3133 70.059)
(-3.68217e-15 57.9056 74.3155)
(-5.23209e-15 59.6083 78.8153)
(-6.48796e-15 61.4667 83.5274)
(-6.91994e-15 63.5228 88.3666)
(-5.95399e-15 65.8528 93.2636)
(-3.09216e-15 68.5652 98.2143)
(2.03264e-15 71.737 103.257)
(9.65976e-15 75.347 108.44)
(1.99597e-14 79.367 113.854)
(3.30155e-14 83.7567 119.473)
(4.86945e-14 88.3764 125.001)
(6.70536e-14 93.2457 130.299)
(8.86487e-14 98.6001 135.522)
(1.14283e-13 104.702 141.008)
(1.43558e-13 111.532 146.736)
(1.75297e-13 118.903 152.621)
(2.08034e-13 126.453 158.728)
(2.40067e-13 133.765 164.951)
(2.70954e-13 140.642 171.21)
(3.01428e-13 147.051 177.658)
(3.3211e-13 153.136 184.305)
(3.6327e-13 159.023 190.994)
(3.94357e-13 164.637 197.377)
(4.24143e-13 169.678 203.019)
(4.51611e-13 173.919 207.757)
(4.75277e-13 176.99 211.306)
(4.93177e-13 178.394 213.244)
(5.04158e-13 177.853 213.226)
(5.08782e-13 175.441 211.067)
(5.09783e-13 171.625 207.128)
(5.10817e-13 166.872 202.338)
(5.13866e-13 161.105 197.807)
(5.18336e-13 153.892 194.385)
(5.23096e-13 145.325 192.511)
(5.28737e-13 136.355 192.258)
(5.36321e-13 127.914 193.278)
(5.44592e-13 120.02 194.701)
(5.50697e-13 112.033 195.632)
(5.52789e-13 103.478 195.603)
(5.51496e-13 94.4084 194.739)
(5.4884e-13 85.1442 193.532)
(5.46597e-13 75.921 192.476)
(5.45304e-13 66.7709 191.765)
(5.44614e-13 57.6301 191.346)
(5.44314e-13 48.4955 191.184)
(5.44788e-13 39.4527 191.387)
(5.46686e-13 30.5842 192.127)
(5.50468e-13 21.9168 193.538)
(5.56465e-13 13.4834 195.735)
(5.65002e-13 5.37787 198.825)
(5.76519e-13 -2.38926 202.888)
(5.92771e-13 -10.1783 208.367)
(6.16393e-13 -18.6029 216.097)
(6.48033e-13 -28.2569 226.351)
(6.89352e-13 -39.7757 239.687)
(7.42601e-13 -53.9584 256.804)
(8.10828e-13 -71.8836 278.629)
(8.98397e-13 -95.0858 306.462)
(1.01165e-12 -125.852 342.137)
(1.16016e-12 -167.751 388.312)
(1.35843e-12 -226.55 448.8)
(1.63012e-12 -312.078 529.595)
(2.01683e-12 -441.496 641.638)
(2.59505e-12 -643.407 806.324)
(3.47652e-12 -955.126 1057.51)
(4.64395e-12 -1368.35 1382.66)
(5.33334e-12 -1652.77 1472.43)
(1.83411e-17 29.68 41.7045)
(4.57776e-17 34.6853 43.4018)
(8.74656e-17 37.2496 44.6499)
(1.55564e-16 40.1978 46.598)
(2.48463e-16 42.6968 48.7141)
(3.45891e-16 45.0353 51.2819)
(3.99266e-16 47.087 54.1462)
(3.32352e-16 48.9717 57.3461)
(4.79208e-17 50.7089 60.8261)
(-5.43121e-16 52.3436 64.5452)
(-1.49176e-15 53.8907 68.4591)
(-2.7779e-15 55.3999 72.556)
(-4.28495e-15 56.9403 76.8527)
(-5.76208e-15 58.5921 81.3721)
(-6.80272e-15 60.4118 86.0852)
(-6.88143e-15 62.4456 90.903)
(-5.46598e-15 64.7604 95.7522)
(-2.12607e-15 67.453 100.642)
(3.44079e-15 70.5973 105.63)
(1.14295e-14 74.1689 110.76)
(2.1999e-14 78.1435 116.103)
(3.53666e-14 82.5225 121.714)
(5.14974e-14 87.172 127.337)
(7.0392e-14 92.0726 132.794)
(9.23865e-14 97.4073 138.132)
(1.18334e-13 103.454 143.725)
(1.47948e-13 110.232 149.606)
(1.8013e-13 117.556 155.712)
(2.13247e-13 125.067 162.041)
(2.4569e-13 132.36 168.512)
(2.76914e-13 139.215 174.977)
(3.07579e-13 145.586 181.55)
(3.38383e-13 151.649 188.284)
(3.69733e-13 157.564 195.076)
(4.01257e-13 163.291 201.642)
(4.31674e-13 168.513 207.516)
(4.59862e-13 172.98 212.469)
(4.84663e-13 176.354 216.329)
(5.03977e-13 178.147 218.606)
(5.16728e-13 178.056 218.984)
(5.23212e-13 176.073 217.214)
(5.25763e-13 172.548 213.568)
(5.27594e-13 167.865 208.875)
(5.30482e-13 161.962 204.211)
(5.33933e-13 154.471 200.468)
(5.37196e-13 145.563 198.174)
(5.41334e-13 136.277 197.477)
(5.47873e-13 127.647 198.115)
(5.55964e-13 119.754 199.369)
(5.62754e-13 111.916 200.405)
(5.66062e-13 103.551 200.686)
(5.66008e-13 94.6097 200.171)
(5.64279e-13 85.3697 199.222)
(5.62684e-13 76.093 198.328)
(5.62035e-13 66.8673 197.767)
(5.62156e-13 57.6532 197.541)
(5.62726e-13 48.4297 197.587)
(5.63979e-13 39.2605 197.979)
(5.6656e-13 30.2342 198.9)
(5.70984e-13 21.399 200.511)
(5.77566e-13 12.8018 202.93)
(5.86639e-13 4.53947 206.265)
(5.98791e-13 -3.415 210.6)
(6.16192e-13 -11.5051 216.477)
(6.41105e-13 -20.3581 224.617)
(6.74344e-13 -30.5328 235.365)
(7.17613e-13 -42.6958 249.291)
(7.73275e-13 -57.6802 267.129)
(8.44531e-13 -76.6209 289.844)
(9.35978e-13 -101.138 318.794)
(1.05426e-12 -133.645 355.863)
(1.20919e-12 -177.886 403.7)
(1.41568e-12 -239.951 466.1)
(1.69936e-12 -330.422 549.63)
(2.10938e-12 -468.271 668.105)
(2.73598e-12 -684.252 848.477)
(3.67618e-12 -1008.8 1119.74)
(4.78485e-12 -1400.45 1424.47)
(5.19111e-12 -1586.25 1423.03)
(2.55829e-17 29.5085 43.1208)
(6.15305e-17 34.4133 44.8081)
(1.13178e-16 36.9294 46.1044)
(1.92786e-16 39.7972 48.1611)
(2.92645e-16 42.2284 50.4013)
(3.81583e-16 44.4944 53.1151)
(3.97047e-16 46.4835 56.1253)
(2.51591e-16 48.3105 59.462)
(-1.52744e-16 50.0004 63.0579)
(-8.89703e-16 51.5971 66.8684)
(-1.97734e-15 53.1119 70.846)
(-3.35319e-15 54.5882 74.9819)
(-4.85721e-15 56.0915 79.2933)
(-6.20821e-15 57.7067 83.805)
(-6.99068e-15 59.5014 88.4922)
(-6.70007e-15 61.5266 93.2711)
(-4.85448e-15 63.8387 98.0682)
(-1.0861e-15 66.5195 102.901)
(4.86539e-15 69.641 107.85)
(1.31767e-14 73.1793 112.96)
(2.39939e-14 77.1032 118.266)
(3.76245e-14 81.443 123.863)
(5.41622e-14 86.095 129.567)
(7.35785e-14 91.021 135.183)
(9.60023e-14 96.3472 140.657)
(1.22232e-13 102.342 146.351)
(1.52105e-13 109.062 152.362)
(1.84671e-13 116.342 158.676)
(2.18161e-13 123.816 165.235)
(2.51025e-13 131.097 171.967)
(2.82679e-13 137.951 178.677)
(3.13615e-13 144.304 185.408)
(3.44606e-13 150.345 192.25)
(3.76148e-13 156.269 199.14)
(4.08089e-13 162.075 205.877)
(4.39197e-13 167.451 212.003)
(4.68156e-13 172.103 217.187)
(4.94095e-13 175.732 221.361)
(5.14809e-13 177.852 223.984)
(5.29269e-13 178.146 224.755)
(5.3759e-13 176.557 223.387)
(5.41702e-13 173.333 220.058)
(5.44392e-13 168.777 215.505)
(5.47196e-13 162.808 210.754)
(5.49682e-13 155.106 206.722)
(5.51426e-13 145.913 203.998)
(5.53989e-13 136.343 202.814)
(5.59365e-13 127.508 203.013)
(5.671e-13 119.545 204.032)
(5.74396e-13 111.767 205.117)
(5.78817e-13 103.534 205.684)
(5.80004e-13 94.7145 205.527)
(5.79275e-13 85.5236 204.868)
(5.78348e-13 76.2181 204.158)
(5.78281e-13 66.9287 203.743)
(5.79168e-13 57.6568 203.712)
(5.80709e-13 48.3827 204.012)
(5.82959e-13 39.1446 204.672)
(5.86427e-13 30.0129 205.844)
(5.91626e-13 21.0333 207.698)
(5.98899e-13 12.2541 210.375)
(6.08595e-13 3.76264 213.986)
(6.21427e-13 -4.49727 218.613)
(6.40011e-13 -12.9837 224.905)
(6.66245e-13 -22.3302 233.474)
(7.01117e-13 -33.0909 244.735)
(7.46388e-13 -45.9683 259.278)
(8.04523e-13 -61.8365 277.867)
(8.78907e-13 -81.894 301.52)
(9.74351e-13 -107.851 331.637)
(1.09767e-12 -142.239 370.104)
(1.25877e-12 -188.99 419.502)
(1.47338e-12 -254.628 483.807)
(1.77116e-12 -350.894 571.062)
(2.2118e-12 -499.052 699.282)
(2.894e-12 -730.664 898.842)
(3.87498e-12 -1063.93 1182.94)
(4.87759e-12 -1423.7 1445.42)
(4.91017e-12 -1516.4 1325.52)
(3.524e-17 29.3215 44.5605)
(8.14383e-17 34.1198 46.2561)
(1.43916e-16 36.5734 47.6142)
(2.34302e-16 39.3542 49.7875)
(3.36736e-16 41.7121 52.1586)
(4.07389e-16 43.9028 55.0194)
(3.6994e-16 45.8282 58.1716)
(1.29212e-16 47.598 61.6358)
(-4.07224e-16 49.2417 65.3337)
(-1.29055e-15 50.8017 69.2197)
(-2.49986e-15 52.2853 73.2462)
(-3.93153e-15 53.7294 77.4054)
(-5.38917e-15 55.1964 81.7134)
(-6.57247e-15 56.7749 86.1944)
(-7.07105e-15 58.5429 90.8334)
(-6.41091e-15 60.5564 95.5607)
(-4.16052e-15 62.8622 100.308)
(-5.7674e-18 65.5255 105.094)
(6.28629e-15 68.6156 110.01)
(1.49009e-14 72.1175 115.122)
(2.59787e-14 75.994 120.425)
(3.98719e-14 80.2888 126.02)
(5.68058e-14 84.9337 131.798)
(7.6735e-14 89.8799 137.566)
(9.96192e-14 95.201 143.192)
(1.26143e-13 101.143 148.996)
(1.56243e-13 107.792 155.127)
(1.8913e-13 115.014 161.632)
(2.22969e-13 122.442 168.422)
(2.56252e-13 129.704 175.424)
(2.88404e-13 136.563 182.415)
(3.19701e-13 142.909 189.342)
(3.50957e-13 148.938 196.327)
(3.82721e-13 154.872 203.328)
(4.15059e-13 160.749 210.223)
(4.4691e-13 166.278 216.621)
(4.76743e-13 171.126 222.076)
(5.03826e-13 175.011 226.569)
(5.25988e-13 177.472 229.566)
(5.4218e-13 178.169 230.744)
(5.52376e-13 176.998 229.799)
(5.58112e-13 174.107 226.817)
(5.61743e-13 169.712 222.439)
(5.6454e-13 163.709 217.639)
(5.66103e-13 155.818 213.34)
(5.6632e-13 146.346 210.177)
(5.67238e-13 136.483 208.469)
(5.71331e-13 127.415 208.177)
(5.78542e-13 119.341 208.9)
(5.86185e-13 111.586 209.982)
(5.91622e-13 103.464 210.801)
(5.94082e-13 94.7654 211.01)
(5.94469e-13 85.6371 210.684)
(5.94317e-13 76.3139 210.198)
(5.94823e-13 66.9552 209.938)
(5.9636e-13 57.6023 210.074)
(5.98754e-13 48.2471 210.602)
(6.01953e-13 38.9121 211.527)
(6.06306e-13 29.6539 212.964)
(6.12286e-13 20.5246 215.081)
(6.20272e-13 11.5854 218.033)
(6.30625e-13 2.90952 221.928)
(6.4417e-13 -5.62436 226.845)
(6.6399e-13 -14.5096 233.56)
(6.91589e-13 -24.3667 242.572)
(7.2813e-13 -35.7455 254.362)
(7.7546e-13 -49.3801 269.547)
(8.36148e-13 -66.1895 288.921)
(9.13752e-13 -87.4366 313.544)
(1.0132e-12 -114.915 344.82)
(1.14133e-12 -151.272 384.576)
(1.30826e-12 -200.667 435.385)
(1.53161e-12 -270.284 501.882)
(1.84753e-12 -373.471 594.636)
(2.32684e-12 -533.752 736.013)
(3.06481e-12 -781.015 954.862)
(4.05461e-12 -1116.84 1239.47)
(4.89603e-12 -1432.98 1442.39)
(4.60332e-12 -1418.64 1231.79)
(4.79172e-17 29.1359 46.0209)
(1.06141e-16 33.8271 47.7432)
(1.79824e-16 36.2045 49.175)
(2.79057e-16 38.8939 51.471)
(3.77705e-16 41.1753 53.9769)
(4.18045e-16 43.2912 56.9826)
(3.11368e-16 45.1559 60.2688)
(-4.04371e-17 46.8744 63.847)
(-7.16519e-16 48.4788 67.6296)
(-1.73894e-15 50.0091 71.5735)
(-3.04528e-15 51.4684 75.6323)
(-4.49407e-15 52.8876 79.798)