/*--------------------------------*- C++ -*----------------------------------*\
| =========                 |                                                 |
| \\      /  F ield         | OpenFOAM: The Open Source CFD Toolbox           |
|  \\    /   O peration     | Version:  4.1                                   |
|   \\  /    A nd           | Web:      www.OpenFOAM.org                      |
|    \\/     M anipulation  |                                                 |
\*---------------------------------------------------------------------------*/
FoamFile
{
    version     2.0;
    format      ascii;
    class       volScalarField;
    location    "8";
    object      p;
}
// * * * * * * * * * * * * * * * * * * * * * * * * * * * * * * * * * * * * * //

dimensions      [0 2 -2 0 0 0 0];

internalField   nonuniform List<scalar> 
6785
(
568.716
497.189
447.338
396.202
349.537
305.46
264.127
225.182
188.508
153.757
120.095
88.4081
60.8816
29.2383
-7.55924
-10.2042
-28.3108
-22.0184
-27.5482
-29.3798
-32.1715
-34.1845
-35.6293
-36.2322
-35.8617
-34.5748
-32.3792
-28.5583
-23.974
-21.3377
-27.9724
-32.904
-22.8852
-25.3761
-21.6361
-20.6121
-18.8395
-17.5136
-16.2791
-15.2343
-14.3569
-13.7474
-13.2863
-12.7516
-10.8183
19.9235
18.2872
22.8784
18.9694
20.7784
19.3138
19.2265
18.6918
18.4212
18.1406
17.8073
17.3329
17.0783
17.1277
18.8867
25.4507
23.6908
26.544
23.6513
26.0728
25.1009
26.0426
26.1632
26.6191
26.8722
27.0153
27.0672
27.1859
27.4499
27.5395
17.4809
14.4709
16.2652
13.3615
14.8904
13.2145
13.6453
12.9655
12.8811
12.4673
12.0385
11.4885
10.7414
9.53028
7.77955
-4.23723
-7.75497
-7.06254
-10.0749
-9.74858
-12.2406
-12.9291
-14.8212
-16.2058
-17.7836
-19.0185
-19.9772
-21.1731
-22.1125
-21.6576
-18.2364
-20.4428
-19.1712
-21.3359
-20.4407
-22.0811
-22.0847
-23.0304
-23.5568
-24.0862
-24.1999
-23.8423
-23.056
-22.1616
-20.3817
-8.91539
-9.08538
-7.09196
-7.82597
-6.07832
-6.14316
-5.07036
-4.48677
-3.68229
-2.86249
-1.92296
-0.942909
0.285527
1.28246
3.07226
6.71244
7.50703
9.43106
9.29061
11.0523
11.4644
12.64
13.5046
14.4668
15.4249
16.4167
17.3653
18.4249
19.2566
20.3378
20.3626
21.3631
22.8428
22.7434
24.1697
24.4478
25.3349
25.9563
26.645
27.3425
28.0624
28.7626
29.5687
30.1752
31.0984
32.0097
32.9328
33.912
33.8371
34.9354
35.0662
35.7595
36.1085
36.548
36.9576
37.3963
37.9069
38.5285
39.041
39.7403
45.7926
45.6386
45.703
45.3171
45.7914
45.3751
45.4633
45.1241
44.8807
44.5038
44.1269
43.8745
43.7559
43.967
43.9628
45.2174
44.6088
43.0103
40.6928
39.0517
37.1413
36.253
35.2712
34.7349
34.1552
33.6924
33.3199
33.1932
33.3458
32.6385
64.9183
61.2919
54.6859
48.2015
43.5682
38.8732
35.6401
33.3257
31.2037
29.5857
28.0246
26.4497
25.1038
24.3867
23.4335
44.7637
45.2702
45.6523
45.613
45.8864
46.7497
47.3916
47.2725
47.1701
47.0602
47.7371
47.3654
47.0182
47.3206
46.7955
46.5422
46.5979
46.5807
45.7391
45.8439
45.8874
45.2047
44.9809
45.4925
45.3748
44.684
44.5309
45.1009
45.1396
44.3791
44.7675
44.9876
44.5312
44.4359
44.9028
45.0951
44.6362
44.8736
45.2048
44.9694
44.939
45.209
45.4523
45.2802
45.2823
45.4709
45.7001
45.5743
45.6756
45.7784
45.7274
45.7883
45.9524
46.1188
46.0853
46.1487
46.3015
46.666
46.6731
46.7198
47.0917
47.0937
47.064
46.9755
47.4203
47.6029
48.0959
48.2087
47.9338
49.0126
49.7223
46.8052
45.9856
48.5483
48.303
38.8189
46.0156
46.1541
22.4404
32.8529
39.9421
40.9452
44.2548
40.5271
41.6142
46.5422
47.7824
49.4713
50.4829
50.4933
49.8627
52.0172
57.925
44.3673
44.1259
43.6208
43.0912
41.699
40.4719
38.6937
40.3041
49.0666
33.7211
33.1801
30.9868
30.5517
31.9484
31.8177
30.3047
29.3062
29.3907
41.8169
31.2079
30.2603
28.6139
26.9583
27.5734
29.4089
28.7786
25.691
31.1684
31.4922
33.047
32.8649
30.7466
28.7886
27.3615
28.2218
25.4151
34.5457
35.0448
31.0237
30.5246
29.3443
26.8907
25.2877
22.7266
16.8675
26.343
32.5185
27.9174
25.8422
22.8197
19.5559
16.9513
15.5404
13.292
10.0129
9.69978
16.6469
13.1048
12.7434
12.0242
10.1219
5.23332
4.32908
6.52689
-3.14656
9.94095
7.34145
4.79216
10.4368
6.48634
8.34869
7.91152
9.52385
11.4824
8.63976
10.4314
11.7604
9.83025
10.3967
9.96839
10.6756
11.9374
10.1155
10.5298
10.0354
10.7069
11.7005
9.57937
10.6512
11.5394
9.84418
10.1577
9.60267
10.1701
11.2696
9.40661
9.73095
9.09022
9.77511
10.7384
8.38508
9.52881
10.3978
8.50014
8.83449
8.13823
8.75892
9.79352
7.82071
8.16566
7.44598
8.11985
8.94727
6.69776
7.7344
8.41262
6.70219
6.98572
6.35481
6.82979
7.56466
5.95511
6.20543
5.61378
6.05401
6.53462
4.89488
5.53927
5.82842
4.62402
4.74546
4.26984
4.45657
4.65968
3.61281
3.65253
3.21362
3.29099
3.23449
2.26251
2.36833
2.14499
1.36569
1.18493
0.742821
0.6622
0.512692
0.000758526
0.00127394
0.00207013
0.0026465
0.00330808
0.00391329
0.00454637
0.00516828
0.00580287
0.00643923
0.00708345
0.00773125
0.00838231
0.00903258
0.00967837
0.0103145
0.0109355
0.0115363
0.0121128
0.0126627
0.0131868
0.0136888
0.0141757
0.0146563
0.0151402
0.0156351
0.0161453
0.0166718
0.0172132
0.01777
0.0183488
0.0189639
0.019633
0.0203662
0.0211507
0.0219434
0.0226769
0.0232758
0.0236669
0.0237832
0.0235756
0.0230243
0.0221426
0.02098
0.0196154
0.0181307
0.0165611
0.0148278
0.0126722
0.00964036
0.00515308
-0.00137082
-0.0104267
-0.0222918
-0.0367718
-0.0533821
-0.0746418
-0.0957633
-0.0324655
-0.49173
-0.529419
-0.671309
-0.822734
-0.933679
-0.991117
-0.95715
-0.847682
-0.685885
-0.465461
-0.247431
-0.0242846
0.153928
0.319894
0.393148
0.511372
0.472363
0.515044
0.554587
0.200498
0.00216609
0.00363816
0.00590109
0.00757527
0.00945048
0.0111744
0.0129578
0.0147068
0.0164806
0.0182535
0.0200403
0.0218303
0.0236218
0.0254033
0.0271638
0.0288881
0.0305606
0.0321661
0.0336929
0.0351348
0.0364942
0.0377828
0.0390215
0.040237
0.0414573
0.0427055
0.0439949
0.0453278
0.0467004
0.0481141
0.0495884
0.0511655
0.0528982
0.0548166
0.0568848
0.0589789
0.0609067
0.0624558
0.0634247
0.063634
0.0629586
0.0613618
0.058905
0.0557586
0.0521844
0.0484624
0.0447519
0.0408958
0.0362293
0.029524
0.0191855
0.00360174
-0.0186163
-0.0482922
-0.0851844
-0.128791
-0.17968
-0.208875
-0.0983284
-0.881819
-0.94874
-1.25334
-1.57778
-1.80723
-1.91487
-1.85076
-1.6372
-1.31563
-0.902153
-0.483784
-0.0761813
0.273132
0.559857
0.754814
0.927925
0.983194
1.06334
1.16019
0.992715
0.00337749
0.0058885
0.00972383
0.0125602
0.015737
0.0186569
0.0216778
0.0246412
0.0276473
0.0306532
0.0336839
0.0367219
0.0397641
0.0427918
0.0457865
0.0487229
0.0515751
0.0543174
0.05693
0.0594026
0.061739
0.0639587
0.0660964
0.0681969
0.0703072
0.072466
0.0746954
0.0769988
0.0793696
0.0818096
0.0843509
0.0870646
0.0900402
0.0933292
0.0968723
0.100461
0.10377
0.106442
0.108134
0.108538
0.107439
0.104765
0.100611
0.0952535
0.0891219
0.0826779
0.0761797
0.0693506
0.0610553
0.0492052
0.031098
0.00400955
-0.0343928
-0.0854709
-0.149016
-0.224764
-0.307011
-0.349247
-0.238833
-1.02532
-1.1062
-1.49746
-1.9055
-2.18476
-2.30663
-2.22094
-1.95615
-1.56049
-1.06345
-0.561418
-0.0803675
0.33782
0.666561
0.913067
1.10383
1.19758
1.32082
1.37473
1.4658
0.00451754
0.00806441
0.013416
0.0174062
0.0218518
0.0259452
0.0301714
0.034318
0.0385206
0.0427222
0.0469566
0.0512001
0.0554483
0.0596754
0.0638555
0.0679533
0.0719324
0.0757569
0.0793989
0.0828441
0.0860975
0.0891866
0.0921602
0.0950814
0.0980162
0.101019
0.104121
0.107327
0.110625
0.114019
0.117551
0.121324
0.125464
0.130047
0.134991
0.140003
0.144628
0.148364
0.15073
0.151298
0.149763
0.146026
0.14022
0.132731
0.124171
0.115197
0.106191
0.096788
0.0854157
0.0691606
0.0442518
0.00690028
-0.0461235
-0.116726
-0.205066
-0.311486
-0.420779
-0.477377
-0.438493
-1.22619
-1.32976
-1.79709
-2.3003
-2.63952
-2.78069
-2.67012
-2.34604
-1.86509
-1.26593
-0.662954
-0.0880402
0.412889
0.800937
1.09787
1.32315
1.43043
1.60451
1.61236
1.82995
0.00554971
0.0101661
0.0170284
0.0221914
0.027916
0.0331975
0.038641
0.0439837
0.049395
0.0548049
0.0602556
0.0657177
0.0711856
0.0766263
0.0820067
0.0872812
0.092403
0.0973259
0.102014
0.106448
0.110634
0.114608
0.118433
0.122191
0.125967
0.129832
0.133825
0.137952
0.142198
0.146563
0.151103
0.15595
0.161271
0.167171
0.173545
0.180017
0.185995
0.190832
0.193908
0.194666
0.19271
0.18791
0.180429
0.170765
0.159708
0.148121
0.136519
0.124456
0.109921
0.0891616
0.0573289
0.00957877
-0.0581838
-0.148421
-0.261917
-0.399362
-0.534567
-0.619467
-0.705697
-1.465
-1.61634
-2.15733
-2.77681
-3.19165
-3.35783
-3.21908
-2.82517
-2.24262
-1.5212
-0.796297
-0.107801
0.4947
0.955512
1.31654
1.58171
1.71267
1.93542
1.91596
2.33123
0.00650676
0.0122108
0.0205507
0.0268928
0.0338868
0.0403551
0.047009
0.0535425
0.060155
0.0667654
0.0734237
0.0800955
0.0867733
0.0934176
0.0999877
0.106428
0.112682
0.118691
0.124411
0.12982
0.134924
0.139767
0.144426
0.149003
0.153603
0.158313
0.163182
0.168214
0.17339
0.178706
0.184231
0.190128
0.19661
0.20381
0.211607
0.219537
0.226872
0.232815
0.236607
0.23756
0.235188
0.229323
0.220161
0.208313
0.194756
0.180571
0.166427
0.151823
0.134324
0.109345
0.0709709
0.0133393
-0.0684635
-0.177499
-0.31545
-0.482887
-0.643356
-0.775013
-1.03029
-1.67461
-1.90627
-2.51344
-3.25273
-3.74231
-3.92889
-3.75714
-3.29099
-2.60589
-1.76389
-0.920117
-0.122288
0.578812
1.10728
1.53273
1.83178
1.99056
2.25696
2.21232
2.73071
0.00738953
0.0142058
0.0239958
0.0315267
0.0397861
0.0474454
0.0553092
0.0630346
0.0708478
0.0786588
0.086524
0.0944048
0.102292
0.11014
0.117899
0.125505
0.13289
0.139985
0.146736
0.153117
0.159135
0.164842
0.170331
0.175721
0.181139
0.186691
0.192433
0.198369
0.204472
0.210734
0.217235
0.224172
0.231805
0.240305
0.249536
0.258944
0.267659
0.274734
0.279265
0.280432
0.277652
0.270719
0.259856
0.245787
0.229681
0.212854
0.196152
0.179039
0.15867
0.129624
0.0849265
0.0177326
-0.0776472
-0.204942
-0.366904
-0.563373
-0.750808
-0.94924
-1.39311
-1.83753
-2.20135
-2.87237
-3.73521
-4.29879
-4.50095
-4.29037
-3.74887
-2.95959
-1.99715
-1.0365
-0.131679
0.665699
1.25861
1.74731
2.0766
2.26187
2.56773
2.49624
3.13375
0.00821025
0.0161596
0.027367
0.0360934
0.04561
0.0544611
0.0635307
0.0724461
0.0814561
0.0904641
0.099532
0.108618
0.11771
0.126757
0.135702
0.14447
0.152981
0.161156
0.168933
0.176278
0.183202
0.189763
0.196068
0.20226
0.208486
0.214869
0.221476
0.228309
0.23533
0.242526
0.249986
0.257943
0.266713
0.276508
0.287181
0.298084
0.308201
0.316431
0.321724
0.323121
0.31994
0.311931
0.299342
0.283009
0.264301
0.244785
0.225513
0.205945
0.182838
0.149937
0.0992227
0.0229145
-0.0854155
-0.23026
-0.415517
-0.639889
-0.857625
-1.13534
-1.74302
-1.93401
-2.50685
-3.24891
-4.24489
-4.88563
-5.09962
-4.84353
-4.22128
-3.32248
-2.235
-1.1545
-0.140146
0.7556
1.41336
1.96719
2.32477
2.53754
2.87815
2.78046
3.50743
0.00897493
0.0180789
0.030671
0.0405994
0.0513649
0.0614088
0.0716807
0.0817844
0.0919882
0.10219
0.112458
0.122746
0.13304
0.143284
0.153412
0.163338
0.172973
0.182226
0.191024
0.199329
0.20715
0.214555
0.221667
0.22865
0.235674
0.242881
0.250347
0.258071
0.266003
0.274122
0.282526
0.291485
0.301377
0.312464
0.324591
0.337014
0.348562
0.357979
0.364062
0.36571
0.362135
0.353039
0.338688
0.320028
0.298638
0.276353
0.254463
0.232452
0.206698
0.170115
0.113654
0.0286488
-0.0920429
-0.253789
-0.461636
-0.713123
-0.965406
-1.32077
-2.0099
-1.95826
-2.82063
-3.64297
-4.78505
-5.50671
-5.72687
-5.41684
-4.70757
-3.6931
-2.47582
-1.27275
-0.146745
0.849064
1.57133
2.1925
2.57518
2.81828
3.18741
3.07071
3.83218
0.00969069
0.0199694
0.0339129
0.0450479
0.0570529
0.0682895
0.0797588
0.0910485
0.102442
0.113835
0.125298
0.136785
0.148278
0.159715
0.171022
0.182106
0.192861
0.203187
0.213001
0.222258
0.230968
0.239207
0.247114
0.254876
0.262686
0.270707
0.279025
0.287633
0.296469
0.305499
0.314829
0.324768
0.335764
0.34814
0.361735
0.375706
0.38872
0.399358
0.406263
0.408183
0.40422
0.394019
0.377858
0.356791
0.33261
0.307444
0.28285
0.258373
0.230031
0.189912
0.127963
0.0346851
-0.0977714
-0.275776
-0.505496
-0.783732
-1.07449
-1.49397
-2.16051
-1.96489
-3.15144
-4.05456
-5.3578
-6.16474
-6.38315
-6.00844
-5.20509
-4.06839
-2.71678
-1.38907
-0.150077
0.946617
1.73215
2.42249
2.82612
3.10267
3.49333
3.35891
4.18655
0.010363
0.0218356
0.0370975
0.0494434
0.0626774
0.075106
0.0877677
0.100241
0.11282
0.1254
0.138055
0.150736
0.163425
0.176052
0.188537
0.200774
0.212648
0.224044
0.234869
0.245071
0.25466
0.263721
0.272411
0.280938
0.289523
0.298349
0.307511
0.316998
0.326731
0.336659
0.346894
0.35779
0.36987
0.383532
0.398613
0.414166
0.428684
0.440583
0.448345
0.45056
0.446213
0.434883
0.416848
0.393266
0.366149
0.33794
0.310501
0.283473
0.252538
0.208971
0.141748
0.0405959
-0.103065
-0.296744
-0.547729
-0.852876
-1.18529
-1.65489
-2.25162
-2.03561
-3.49814
-4.49034
-5.96904
-6.86772
-7.07482
-6.62198
-5.71629
-4.44965
-2.95843
-1.50371
-0.149974
1.04848
1.89626
2.65768
3.07776
3.39132
3.7961
3.64281
4.53218
0.0109969
0.0236819
0.0402296
0.0537892
0.0682413
0.0818605
0.0957086
0.109361
0.123121
0.136884
0.150727
0.164599
0.17848
0.192294
0.205954
0.219343
0.232332
0.244794
0.256625
0.267765
0.278225
0.288096
0.297554
0.306831
0.316178
0.325798
0.335797
0.346159
0.356781
0.367594
0.378712
0.390538
0.403681
0.418624
0.435213
0.452384
0.46845
0.481655
0.490312
0.492846
0.488114
0.475616
0.455621
0.429383
0.399138
0.367665
0.33717
0.307429
0.273817
0.226823
0.154504
0.0458582
-0.108475
-0.317298
-0.589107
-0.921806
-1.29833
-1.81085
-2.36145
-2.26039
-3.8387
-4.96381
-6.62475
-7.62451
-7.80944
-7.26178
-6.24394
-4.83834
-3.2014
-1.61678
-0.146259
1.15503
2.06373
2.89872
3.33059
3.68521
4.09591
3.93358
4.8369
0.0115966
0.0255115
0.0433134
0.0580887
0.0737475
0.0885549
0.103583
0.118412
0.133347
0.148289
0.163314
0.178374
0.193443
0.208442
0.223274
0.237812
0.251914
0.26544
0.278272
0.290343
0.301662
0.31233
0.322541
0.332554
0.342647
0.35305
0.36388
0.37511
0.386615
0.398298
0.410276
0.423001
0.437182
0.453403
0.471523
0.490355
0.508018
0.522577
0.532171
0.535045
0.52992
0.516201
0.49413
0.465049
0.431424
0.396396
0.362547
0.329832
0.293363
0.2429
0.165634
0.0498682
-0.11463
-0.338134
-0.630537
-0.991793
-1.41419
-1.96898
-2.52774
-2.6819
-4.17461
-5.4925
-7.33113
-8.44374
-8.59451
-7.93174
-6.79006
-5.23502
-3.44567
-1.72821
-0.138167
1.26657
2.23613
3.14597
3.58379
3.98534
4.39256
4.21946
5.16484
0.012166
0.0273274
0.0463527
0.0623451
0.0791985
0.0951913
0.111393
0.127393
0.143498
0.159614
0.175817
0.192059
0.208313
0.224494
0.240496
0.256181
0.271394
0.28598
0.299808
0.312802
0.32497
0.336422
0.347369
0.3581
0.368925
0.380099
0.391752
0.403848
0.416229
0.428768
0.441579
0.455169
0.47036
0.487854
0.507532
0.528072
0.547385
0.563351
0.573923
0.577154
0.571614
0.556595
0.532293
0.500127
0.462801
0.423839
0.38624
0.35018
0.310584
0.256564
0.174505
0.0520112
-0.122153
-0.359939
-0.67292
-1.06398
-1.53365
-2.13535
-2.75958
-3.24768
-4.47765
-6.08387
-8.09632
-9.33499
-9.43838
-8.63642
-7.35702
-5.64035
-3.6914
-1.83822
-0.124813
1.38307
2.41593
3.39891
3.84005
4.29086
4.68618
4.50747
5.47599
0.0127081
0.0291322
0.0493513
0.0665611
0.0845968
0.101771
0.119139
0.136305
0.153574
0.170859
0.188235
0.205656
0.223091
0.24045
0.25762
0.27445
0.290773
0.306416
0.321235
0.335145
0.34815
0.360369
0.372035
0.383466
0.395006
0.40694
0.41941
0.432366
0.445617
0.458997
0.472613
0.487029
0.503197
0.52196
0.543225
0.565526
0.586546
0.603973
0.615562
0.61916
0.613163
0.596729
0.569987
0.534427
0.492998
0.449634
0.40778
0.367898
0.324834
0.267165
0.180513
0.0517287
-0.131596
-0.383321
-0.717057
-1.13935
-1.65774
-2.31402
-3.04161
-3.82226
-4.70126
-6.73021
-8.92781
-10.3091
-10.3504
-9.38117
-7.94788
-6.05529
-3.93894
-1.94674
-0.105688
1.50488
2.60369
3.65655
4.10438
4.60065
4.97664
4.79481
5.77031
0.0132258
0.0309281
0.0523122
0.0707392
0.0899447
0.108297
0.126822
0.145149
0.163576
0.182023
0.200567
0.219162
0.237774
0.256309
0.274645
0.292619
0.310049
0.326747
0.342552
0.357369
0.3712
0.384171
0.396537
0.408648
0.420885
0.433566
0.446845
0.460659
0.474775
0.488981
0.50337
0.51857
0.535678
0.555701
0.578587
0.602706
0.625494
0.644437
0.657077
0.661031
0.654505
0.63649
0.607034
0.567691
0.521675
0.47335
0.426636
0.382366
0.335469
0.274116
0.183157
0.0485911
-0.143365
-0.408731
-0.763558
-1.21861
-1.7876
-2.50695
-3.35062
-4.28907
-4.88664
-7.44769
-9.83138
-11.3776
-11.3407
-10.1718
-8.56623
-6.48114
-4.18834
-2.0534
-0.0803362
1.63248
2.79959
3.91901
4.37757
4.91576
5.2636
5.07902
6.08623
0.0137213
0.032717
0.0552386
0.0748818
0.0952443
0.114769
0.134444
0.153926
0.173503
0.193108
0.212813
0.232577
0.252362
0.27207
0.29157
0.310687
0.329223
0.346972
0.363759
0.379475
0.394119
0.407825
0.420871
0.433641
0.446556
0.45997
0.474051
0.488721
0.503699
0.518714
0.533843
0.549778
0.567782
0.589058
0.613602
0.639599
0.664216
0.684729
0.69844
0.702714
0.695537
0.675709
0.643182
0.599587
0.548423
0.494501
0.442248
0.392984
0.341926
0.276965
0.182111
0.0423586
-0.157666
-0.436413
-0.812776
-1.30219
-1.92422
-2.71499
-3.67537
-4.67232
-5.14886
-8.26338
-10.8149
-12.5521
-12.4199
-11.0144
-9.21614
-6.91918
-4.43956
-2.15783
-0.0482567
1.76631
3.0041
4.18671
4.65926
5.23573
5.54881
5.37141
6.38727
0.0141966
0.0345006
0.0581331
0.0789911
0.100497
0.121189
0.142005
0.162635
0.183355
0.204111
0.224972
0.2459
0.266854
0.287732
0.308394
0.328652
0.348293
0.367093
0.384857
0.401463
0.416906
0.43133
0.445033
0.458439
0.472012
0.486144
0.501022
0.516547
0.532383
0.548193
0.564024
0.580638
0.599491
0.622008
0.648248
0.676188
0.702697
0.724821
0.7396
0.744115
0.736098
0.714139
0.678096
0.629706
0.572776
0.512577
0.454078
0.399235
0.343796
0.275464
0.177271
0.0330247
-0.174468
-0.46636
-0.864776
-1.39021
-2.06825
-2.93867
-4.01684
-5.06422
-5.61242
-9.15651
-11.8961
-13.8442
-13.5988
-11.9153
-9.90215
-7.37072
-4.69262
-2.25975
-0.00893443
1.90681
3.21764
4.45993
4.94978
5.55912
5.83553
5.66177
6.67405
0.0146535
0.0362803
0.0609981
0.0830689
0.105706
0.127559
0.149507
0.171278
0.193133
0.215033
0.237044
0.25913
0.281249
0.303294
0.325116
0.346515
0.36726
0.387107
0.405844
0.423332
0.439561
0.454683
0.469021
0.483037
0.497246
0.512081
0.527749
0.54413
0.560824
0.577412
0.593904
0.611138
0.63078
0.654525
0.682505
0.712452
0.740908
0.764669
0.780475
0.785083
0.775948
0.751437
0.711348
0.657567
0.59424
0.527098
0.461685
0.400769
0.340888
0.269612
0.168792
0.0208377
-0.193483
-0.498302
-0.919324
-1.48246
-2.21986
-3.17768
-4.37674
-5.50753
-6.35686
-10.1224
-13.1019
-15.2677
-14.8885
-12.8807
-10.6292
-7.83719
-4.94755
-2.35885
0.0381403
2.05446
3.44056
4.73899
5.24949
5.88599
6.12619
5.95097
6.99163
0.0150932
0.0380576
0.0638358
0.0871169
0.110871
0.133878
0.156949
0.179853
0.202836
0.225872
0.249026
0.272265
0.295545
0.318753
0.341734
0.364274
0.386122
0.407016
0.426721
0.445083
0.462083
0.477882
0.492829
0.507429
0.52225
0.537772
0.554224
0.571464
0.589017
0.606368
0.623478
0.64126
0.661626
0.686581
0.716343
0.748361
0.778807
0.8042
0.820928
0.825391
0.814743
0.787154
0.742421
0.682645
0.612342
0.537678
0.464792
0.397454
0.333265
0.259674
0.157084
0.00629738
-0.214176
-0.531712
-0.975897
-1.5784
-2.3786
-3.4307
-4.75526
-6.02338
-7.39015
-11.1462
-14.4595
-16.8403
-16.3005
-13.9167
-11.4023
-8.32027
-5.20447
-2.45476
0.0934705
2.20974
3.67316
5.02426
5.5586
6.21673
6.42159
6.2589
7.29342
0.0155168
0.0398337
0.0666482
0.0911366
0.115995
0.140149
0.164332
0.188361
0.212463
0.236628
0.260917
0.285304
0.309739
0.334109
0.358247
0.381926
0.404879
0.426818
0.447487
0.466713
0.48447
0.500924
0.516454
0.53161
0.547016
0.563207
0.580439
0.598542
0.616958
0.635058
0.652737
0.670988
0.692001
0.718142
0.749729
0.783874
0.816328
0.843292
0.86075
0.864706
0.852023
0.820731
0.77073
0.704424
0.626704
0.544103
0.463343
0.389404
0.321244
0.246166
0.142798
-0.00986885
-0.235793
-0.565833
-1.03371
-1.67716
-2.5435
-3.6956
-5.15147
-6.61661
-8.64785
-12.1634
-15.9737
-18.5816
-17.8475
-15.0291
-12.2268
-8.82175
-5.46361
-2.5471
0.157552
2.37312
3.9157
5.31615
5.8772
6.55135
6.72153
6.56449
7.57195
0.0159253
0.0416096
0.0694368
0.0951293
0.121078
0.146371
0.171656
0.196802
0.222013
0.2473
0.272717
0.298244
0.323831
0.349359
0.374653
0.399472
0.423528
0.446512
0.468142
0.488224
0.506721
0.523809
0.539892
0.555571
0.571535
0.588378
0.606384
0.625358
0.644643
0.663477
0.681675
0.700305
0.721873
0.749169
0.782621
0.81893
0.853368
0.881763
0.899631
0.902569
0.887193
0.851511
0.795668
0.722466
0.637119
0.546382
0.457523
0.376972
0.305376
0.229824
0.126787
-0.0267497
-0.257404
-0.599726
-1.09177
-1.77761
-2.71308
-3.96966
-5.56361
-7.27764
-9.98472
-13.0828
-17.6305
-20.511
-19.5432
-16.2229
-13.1074
-9.34335
-5.72535
-2.63545
0.230873
2.54507
4.1684
5.61504
6.20532
6.8897
7.02687
6.87824
7.87544
0.0163192
0.0433863
0.0722032
0.0990962
0.126121
0.152546
0.178921
0.205175
0.231486
0.257885
0.284422
0.311084
0.337817
0.3645
0.390949
0.416908
0.442069
0.466098
0.488685
0.509614
0.528836
0.546532
0.563137
0.579307
0.595798
0.613272
0.632048
0.651902
0.672067
0.691624
0.710283
0.729191
0.751208
0.779616
0.81496
0.853439
0.889768
0.919334
0.937132
0.938376
0.919538
0.878783
0.816692
0.736506
0.643613
0.544763
0.447733
0.360707
0.286393
0.21155
0.110049
-0.043306
-0.277961
-0.632329
-1.14892
-1.87839
-2.88546
-4.24981
-5.98931
-7.98701
-11.2231
-13.9071
-19.4472
-22.649
-21.4026
-17.5027
-14.0491
-9.88646
-5.99026
-2.7194
0.313909
2.72606
4.43145
5.92136
6.54293
7.23168
7.33796
7.19402
8.13775
0.016699
0.0451648
0.0749488
0.103038
0.131126
0.158672
0.186128
0.213479
0.240881
0.268383
0.296032
0.323821
0.351695
0.37953
0.407133
0.434233
0.460501
0.485574
0.509115
0.530882
0.550812
0.569091
0.586186
0.602809
0.619794
0.637878
0.657422
0.678169
0.699228
0.719498
0.738555
0.757623
0.779961
0.809422
0.846664
0.887267
0.925288
0.955605
0.972665
0.971376
0.948252
0.901868
0.833423
0.746532
0.646463
0.539702
0.434543
0.341296
0.265149
0.192354
0.0936621
-0.0584342
-0.296363
-0.662517
-1.20393
-1.97803
-3.05851
-4.53277
-6.42569
-8.72438
-12.2826
-14.7749
-21.482
-25.0184
-23.4417
-18.8721
-15.0559
-10.452
-6.259
-2.79853
0.407125
2.91649
4.70495
6.23549
6.8899
7.57711
7.65532
7.50889
8.43434
0.0170651
0.0469459
0.0776746
0.106956
0.136093
0.164752
0.193275
0.221714
0.250195
0.278791
0.307543
0.336453
0.365463
0.394447
0.423202
0.451445
0.47882
0.50494
0.529432
0.552028
0.572649
0.591484
0.609033
0.62607
0.643513
0.662184
0.682492
0.704148
0.726121
0.747095
0.766485
0.785576
0.808082
0.83851
0.877619
0.92021
0.959577
0.990026
1.00548
1.0007
0.972518
0.920236
0.845753
0.752809
0.646167
0.531807
0.418618
0.319489
0.242548
0.173281
0.0787255
-0.0710297
-0.311522
-0.689185
-1.25559
-2.075
-3.23
-4.81532
-6.86955
-9.47457
-13.219
-15.8448
-23.7064
-27.6506
-25.6771
-20.3344
-16.1314
-11.0404
-6.53219
-2.87238
0.510983
3.11677
4.989
6.55778
7.24606
7.92583
7.97966
7.84183
8.72015
0.0174174
0.0487305
0.0803816
0.110851
0.141021
0.170784
0.200364
0.229879
0.259429
0.289108
0.318954
0.348977
0.379116
0.409246
0.439154
0.468539
0.497026
0.524193
0.549635
0.573052
0.594345
0.613708
0.631673
0.649081
0.666943
0.686175
0.707245
0.72983
0.752742
0.774416
0.794063
0.81302
0.835505
0.866775
0.907656
0.951972
0.992143
1.02188
1.03467
1.02541
0.991637
0.933645
0.853904
0.755856
0.64337
0.521755
0.400646
0.296031
0.219478
0.155352
0.0662932
-0.0800474
-0.322428
-0.711325
-1.3028
-2.16792
-3.39783
-5.09459
-7.31745
-10.2243
-14.0909
-17.2717
-26.0572
-30.596
-28.1273
-21.8917
-17.2784
-11.6514
-6.81024
-2.94041
0.625949
3.32726
5.28359
6.88852
7.61115
8.27767
8.31067
8.1685
8.96546
0.0177561
0.0505192
0.0830705
0.114723
0.145913
0.176768
0.207392
0.237972
0.268579
0.299331
0.330262
0.36139
0.392653
0.423925
0.454984
0.485515
0.515115
0.543332
0.569723
0.593952
0.615899
0.635759
0.6541
0.671833
0.69007
0.709837
0.731666
0.755205
0.779087
0.801459
0.82128
0.839916
0.862145
0.894072
0.936528
0.982127
1.02233
1.05028
1.05923
1.04464
1.0052
0.942234
0.858405
0.756364
0.638781
0.510222
0.381263
0.271588
0.19675
0.139509
0.0573241
-0.0845603
-0.328228
-0.728136
-1.34474
-2.25573
-3.56034
-5.36839
-7.76561
-10.9618
-14.957
-19.1643
-28.5042
-33.9284
-30.8147
-23.5458
-18.4984
-12.2838
-7.09313
-3.00196
0.752519
3.54826
5.58867
7.22791
7.98482
8.63234
8.64887
8.48921
9.25217
0.0180809
0.0523129
0.0857419
0.118573
0.150768
0.182705
0.214359
0.245992
0.277645
0.309459
0.341464
0.373687
0.406068
0.438479
0.470689
0.502367
0.533085
0.562355
0.589694
0.614728
0.63731
0.657636
0.676308
0.694315
0.712881
0.733152
0.75574
0.780261
0.805152
0.828222
0.848123
0.866213
0.887885
0.920193
0.963883
1.0101
1.04932
1.07421
1.07816
1.05778
1.01322
0.946533
0.860006
0.755096
0.633096
0.497811
0.360994
0.246697
0.175051
0.12657
0.0526354
-0.0838217
-0.328317
-0.739165
-1.38104
-2.33799
-3.71665
-5.63561
-8.21042
-11.6793
-15.883
-21.5798
-30.9778
-37.716
-33.7648
-25.2978
-19.7918
-12.9359
-7.38027
-3.05617
0.89125
3.78008
5.90413
7.57604
8.3667
8.98975
8.995
8.83104
9.53097
0.0183915
0.0541122
0.0883965
0.122401
0.155585
0.188593
0.221264
0.253938
0.286623
0.319487
0.352556
0.385867
0.419359
0.452904
0.486264
0.519092
0.550933
0.58126
0.609547
0.635378
0.658576
0.679334
0.698291
0.716518
0.735361
0.756102
0.779447
0.804984
0.830929
0.854702
0.874572
0.891841
0.912564
0.944845
0.989237
1.03516
1.07213
1.09256
1.09063
1.06469
1.0162
0.947365
0.859561
0.752806
0.626936
0.485011
0.340211
0.221724
0.154913
0.1172
0.0528565
-0.0773464
-0.322478
-0.744495
-1.41206
-2.41513
-3.86711
-5.8966
-8.64936
-12.3767
-16.922
-24.39
-33.3045
-41.9875
-37.0051
-27.1485
-21.1579
-13.605
-7.67031
-3.10184
1.0428
4.02299
6.22973
7.93286
8.75633
9.34991
9.34786
9.16311
9.75869
0.0186875
0.0559178
0.0910344
0.126206
0.160365
0.194432
0.228106
0.261808
0.295513
0.329414
0.363535
0.397924
0.43252
0.467196
0.501706
0.535687
0.568655
0.600044
0.629281
0.655902
0.679696
0.700852
0.720044
0.738431
0.757494
0.778666
0.802767
0.829357
0.85641
0.880888
0.900594
0.916698
0.935955
0.967626
1.01196
1.05642
1.08964
1.10434
1.09628
1.06578
1.01504
0.945709
0.857922
0.750177
0.620819
0.472172
0.319107
0.196847
0.136698
0.111884
0.0583676
-0.0650268
-0.311051
-0.744983
-1.43915
-2.4888
-4.01358
-6.1534
-9.08208
-13.0615
-18.0908
-27.2087
-35.3478
-46.759
-40.5569
-29.0969
-22.595
-14.2877
-7.96118
-3.13742
1.208
4.27732
6.5652
8.29815
9.15315
9.7126
9.70787
9.49944
10.0336
0.0189685
0.0577303
0.0936559
0.12999
0.165107
0.200221
0.234884
0.2696
0.30431
0.339237
0.374398
0.409854
0.445547
0.48135
0.517009
0.552146
0.586247
0.618705
0.648894
0.676298
0.700669
0.722185
0.741559
0.760042
0.779261
0.800823
0.825676
0.853362
0.88158
0.906765
0.926138
0.940633
0.957738
0.988006
1.0313
1.07283
1.10073
1.10888
1.09534
1.06201
1.01087
0.942561
0.855877
0.747796
0.615149
0.459499
0.297698
0.172051
0.12059
0.110885
0.0692041
-0.0473011
-0.295175
-0.742528
-1.46492
-2.56214
-4.15963
-6.40974
-9.51099
-13.7465
-19.3711
-29.6193
-37.3284
-52.1695
-44.4338
-31.14
-24.1002
-14.9795
-8.25013
-3.16083
1.3879
4.54344
6.91016
8.67151
9.55656
10.0779
10.0745
9.83095
10.2549
0.0192337
0.0595502
0.0962612
0.133751
0.169811
0.205958
0.241596
0.277312
0.313014
0.348951
0.38514
0.421654
0.458434
0.495359
0.532168
0.568465
0.603706
0.637239
0.668384
0.696566
0.721493
0.743332
0.76283
0.781338
0.800644
0.822547
0.848147
0.876972
0.906417
0.932298
0.951114
0.963424
0.977488
1.00534
1.04635
1.08324
1.10447
1.10618
1.08877
1.05465
1.00487
0.938848
0.854116
0.746155
0.610228
0.44707
0.275823
0.147134
0.106582
0.11418
0.0849092
-0.0253818
-0.277054
-0.740331
-1.49342
-2.63978
-4.31037
-6.67075
-9.94124
-14.4471
-20.7385
-31.5787
-39.598
-58.3029
-48.6433
-33.2708
-25.6689
-15.6754
-8.5336
-3.16948
1.58385
4.82185
7.26417
9.05233
9.96589
10.4456
10.447
10.1589
10.5113
0.0194825
0.0613782
0.09885
0.13749
0.174477
0.211644
0.248241
0.284941
0.321619
0.358554
0.395758
0.433316
0.471177
0.509219
0.547176
0.584637
0.621026
0.655644
0.687749
0.716704
0.742167
0.764287
0.783849
0.802306
0.821621
0.84381
0.870146
0.900154
0.930885
0.957427
0.975378
0.984751
0.994673
1.0189
1.05609
1.08654
1.10048
1.09703
1.07796
1.04509
0.998128
0.935386
0.853232
0.745668
0.606284
0.43486
0.253169
0.121708
0.0944426
0.121339
0.104321
-0.001535
-0.260226
-0.743056
-1.53012
-2.72763
-4.47201
-6.94244
-10.3801
-15.1792
-22.1737
-33.241
-42.5416
-64.9211
-53.1839
-35.4784
-27.2947
-16.3696
-8.80729
-3.16028
1.79754
5.11328
7.62673
9.43984
10.3804
10.8159
10.8254
10.5058
10.7647
0.019714
0.0632149
0.101422
0.141206
0.179102
0.217276
0.254816
0.292486
0.330125
0.368041
0.406245
0.444837
0.483768
0.522922
0.562028
0.600657
0.638203
0.673914
0.706986
0.73671
0.76269
0.78505
0.804609
0.822932
0.842169
0.864578
0.891634
0.922864
0.954926
0.982043
0.998693
1.00418
1.0087
1.02785
1.05938
1.08194
1.08925
1.0829
1.06452
1.03461
0.991602
0.932878
0.853741
0.7467
0.603503
0.422767
0.229273
0.0951936
0.0836475
0.131349
0.125291
0.0206265
-0.249747
-0.756783
-1.58159
-2.83232
-4.65106
-7.23094
-10.836
-15.9565
-23.6561
-34.7082
-46.3418
-71.8761
-58.049
-37.7484
-28.9685
-17.0557
-9.06625
-3.12966
2.03109
5.4187
7.99737
9.83303
10.7991
11.1884
11.2076
10.8403
10.969
0.0199272
0.0650608
0.103978
0.144899
0.183687
0.222853
0.26132
0.299942
0.338526
0.377408
0.416598
0.456211
0.496202
0.536462
0.576716
0.616518
0.655229
0.692046
0.726092
0.756584
0.783059
0.805615
0.825102
0.843199
0.862261
0.884813
0.912562
0.945038
0.978444
1.00596
1.0207
1.0212
1.01895
1.03123
1.05516
1.06943
1.07215
1.06557
1.04994
1.02432
0.986102
0.931925
0.856105
0.7496
0.602064
0.410635
0.203533
0.0668
0.0732669
0.142359
0.144369
0.0359112
-0.252159
-0.788629
-1.65481
-2.96028
-4.85344
-7.54171
-11.3169
-16.7867
-25.1624
-36.1112
-51.2934
-79.0725
-63.2443
-40.0634
-30.6772
-17.7269
-9.30504
-3.07369
2.28694
5.73944
8.37566
10.2307
11.2212
11.5628
11.593
11.166
11.2272
0.0201211
0.0669163
0.106516
0.148567
0.18823
0.228373
0.267749
0.307308
0.34682
0.386651
0.426812
0.467431
0.508472
0.549832
0.591232
0.632213
0.6721
0.710035
0.745065
0.776323
0.803273
0.825979
0.84532
0.86309
0.881867
0.904471
0.932867
0.966586
1.00128
1.02888
1.04091
1.03526
1.02474
1.02792
1.04285
1.05002
1.05112
1.0468
1.0355
1.01514
0.982304
0.933056
0.860767
0.754734
0.60217
0.398277
0.17521
0.0354847
0.0617914
0.151358
0.156486
0.0374991
-0.275118
-0.845969
-1.75617