/*--------------------------------*- C++ -*----------------------------------*\
| =========                 |                                                 |
| \\      /  F ield         | OpenFOAM: The Open Source CFD Toolbox           |
|  \\    /   O peration     | Version:  4.1                                   |
|   \\  /    A nd           | Web:      www.OpenFOAM.org                      |
|    \\/     M anipulation  |                                                 |
\*---------------------------------------------------------------------------*/
FoamFile
{
    version     2.0;
    format      ascii;
    class       volVectorField;
    location    "3";
    object      U;
}
// * * * * * * * * * * * * * * * * * * * * * * * * * * * * * * * * * * * * * //

dimensions      [0 1 -1 0 0 0 0];

internalField   nonuniform List<vector> 
6785
(
(1.29987e-14 -2.24844 16.4329)
(1.13475e-14 -7.90611 12.8497)
(-3.37561e-15 -5.11354 13.6456)
(4.06713e-15 -5.08728 13.131)
(9.38768e-16 -4.30902 12.9722)
(-3.7146e-16 -3.90677 12.6646)
(2.37276e-15 -3.50839 12.372)
(3.90061e-16 -3.24193 12.0646)
(-1.71351e-16 -3.06944 11.7671)
(9.59857e-16 -3.0067 11.4536)
(-2.95481e-16 -2.99581 11.115)
(-8.02004e-16 -3.01325 10.7355)
(-9.9845e-17 -3.40934 10.0546)
(-1.95712e-16 -3.46414 9.03861)
(5.16229e-16 0.00672224 7.42941)
(1.78289e-14 -10.2026 26.6389)
(1.30278e-14 -16.0345 22.9176)
(-3.51266e-15 -10.9939 23.2776)
(3.02583e-15 -11.7343 21.454)
(3.56356e-16 -9.99187 20.6128)
(-3.53759e-16 -9.335 19.3952)
(5.97971e-16 -8.32373 18.3542)
(-2.77244e-16 -7.51958 17.2826)
(-7.76524e-16 -6.70514 16.243)
(-6.89186e-16 -5.99781 15.1712)
(-8.05257e-16 -5.42768 13.9991)
(-7.44486e-16 -5.01006 12.578)
(2.98509e-17 -4.7013 10.6677)
(8.71427e-16 -3.9837 7.55431)
(6.08978e-16 -1.29482 2.27536)
(1.94638e-14 -13.0697 28.4489)
(1.02626e-14 -16.6676 25.294)
(-1.80907e-15 -12.0664 25.1906)
(3.43768e-15 -12.939 22.8152)
(-5.08824e-16 -10.836 21.8485)
(3.43821e-16 -10.3339 20.24)
(6.03505e-16 -9.20049 19.0503)
(-1.02541e-15 -8.40777 17.7223)
(3.77891e-16 -7.29105 16.0947)
(3.65447e-15 -5.59826 13.2602)
(1.20858e-14 -2.94148 8.55642)
(2.64013e-14 -0.251964 3.16513)
(2.99411e-14 0.809709 0.249774)
(1.95632e-14 0.582203 -0.19269)
(7.65177e-15 0.422435 0.064517)
(1.86263e-14 -14.3596 29.3436)
(9.87704e-15 -17.278 26.199)
(-2.22939e-15 -13.0725 25.9575)
(3.88374e-15 -14.3723 23.273)
(1.91866e-16 -11.9743 22.4266)
(-6.81977e-16 -11.9752 20.5333)
(8.61307e-16 -10.7314 19.4077)
(3.47044e-16 -10.242 17.9896)
(-6.79597e-16 -9.25855 16.4827)
(2.84905e-15 -7.82047 13.8665)
(1.31787e-14 -5.02111 9.26378)
(2.31736e-14 -1.40221 3.12266)
(3.48899e-14 1.15611 -0.665582)
(3.2631e-14 3.07535 -3.38465)
(8.20181e-15 2.36344 -4.59486)
(1.89837e-14 -14.5227 28.6133)
(1.25876e-14 -17.7992 27.1593)
(-1.25541e-15 -13.5978 25.9794)
(4.3797e-15 -14.7694 23.1718)
(2.70549e-15 -12.487 22.2247)
(4.00162e-16 -12.5026 20.1752)
(1.46421e-15 -11.3101 18.8732)
(2.91926e-15 -10.8031 17.3074)
(4.48465e-16 -10.0167 15.8271)
(6.36522e-16 -9.07865 13.9268)
(6.66003e-15 -7.52977 11.1825)
(1.00962e-14 -5.12579 7.44832)
(1.26923e-14 -2.63046 3.63431)
(1.70988e-14 1.00359 -0.579289)
(8.75877e-15 2.08149 -5.88091)
(1.73501e-14 -13.9104 26.5154)
(1.35905e-14 -17.679 27.4568)
(-1.31243e-15 -13.5236 25.2335)
(3.21478e-15 -14.18 22.2817)
(2.51074e-15 -12.1025 21.2155)
(-1.51927e-15 -11.9239 19.107)
(-8.9879e-17 -10.7159 17.6652)
(1.83852e-15 -10.0608 15.9804)
(-1.26489e-15 -9.24038 14.4417)
(-1.96664e-15 -8.4085 12.8095)
(9.2981e-16 -7.42503 10.8988)
(2.2286e-15 -5.93315 8.52823)
(2.67801e-15 -4.20699 5.56985)
(3.06639e-15 -1.35765 1.8466)
(2.5659e-15 0.732128 -3.23371)
(1.46513e-14 -13.096 24.4561)
(1.33265e-14 -17.4339 27.6367)
(-1.76743e-15 -13.4235 24.7246)
(1.51833e-15 -13.5702 21.6181)
(9.78291e-16 -11.6255 20.5089)
(-3.89616e-15 -11.3444 18.424)
(-2.27138e-15 -10.0813 16.9826)
(-5.83817e-17 -9.36393 15.2679)
(-2.93279e-15 -8.45801 13.7424)
(-2.91209e-15 -7.62206 12.215)
(-1.57109e-16 -6.78035 10.631)
(1.59765e-15 -5.68625 8.87902)
(2.71471e-15 -4.43461 6.63932)
(5.09136e-15 -2.33811 3.61425)
(1.00975e-14 -0.102156 -0.990209)
(1.2883e-14 -12.3824 22.907)
(1.26542e-14 -17.2683 27.8467)
(-2.43968e-15 -13.5566 24.6886)
(-4.38781e-16 -13.2303 21.4113)
(3.00194e-16 -11.4016 20.2229)
(-3.97312e-15 -11.0649 18.2155)
(-2.80764e-15 -9.80273 16.8154)
(5.54461e-16 -9.08164 15.1178)
(1.54743e-17 -8.12781 13.6228)
(7.16263e-16 -7.28507 12.1256)
(4.39054e-15 -6.46018 10.6489)
(7.38107e-15 -5.51203 9.13945)
(8.48178e-15 -4.48948 7.28201)
(1.12761e-14 -2.78049 4.72162)
(2.25336e-14 0.0949206 -0.872813)
(1.43914e-14 -11.852 21.7686)
(1.32603e-14 -16.9786 27.7513)
(-2.11757e-15 -13.8425 24.7877)
(-1.0694e-15 -13.0665 21.3791)
(2.60151e-15 -11.393 19.9627)
(1.00046e-15 -10.9495 18.0745)
(1.76894e-15 -9.82508 16.6918)
(6.34131e-15 -9.1075 15.0884)
(9.06958e-15 -8.20712 13.6425)
(9.78419e-15 -7.37923 12.1975)
(1.22084e-14 -6.56899 10.7711)
(1.51815e-14 -5.6619 9.36034)
(1.54673e-14 -4.76592 7.69165)
(1.79816e-14 -3.29916 5.63403)
(2.59494e-14 -0.673631 0.273399)
(2.26394e-14 -11.557 21.0225)
(1.84576e-14 -16.324 27.0037)
(2.6372e-15 -13.9615 24.5439)
(2.52961e-15 -12.8947 21.1994)
(7.87477e-15 -11.378 19.478)
(8.34423e-15 -10.7924 17.6972)
(8.33666e-15 -9.86343 16.3347)
(1.27132e-14 -9.17436 14.9037)
(1.63576e-14 -8.40386 13.5868)
(1.44479e-14 -7.64843 12.2993)
(1.22712e-14 -6.90764 11.0122)
(1.28959e-14 -6.04783 9.7356)
(1.22644e-14 -5.21786 8.21691)
(1.64745e-14 -3.91578 6.56078)
(2.42799e-14 -1.43986 1.48964)
(3.06445e-14 -11.5182 20.7067)
(3.04494e-14 -15.3969 25.7273)
(1.27852e-14 -13.6805 23.7644)
(9.2288e-15 -12.5773 20.6984)
(1.11041e-14 -11.2109 18.8131)
(7.44832e-15 -10.5466 17.1377)
(4.56384e-15 -9.77953 15.8561)
(8.27959e-15 -9.16584 14.6432)
(8.52196e-15 -8.54504 13.5396)
(6.70454e-16 -7.9173 12.4965)
(-5.93286e-15 -7.30299 11.4523)
(-8.60811e-15 -6.56238 10.405)
(-9.18164e-15 -5.82253 9.11331)
(-6.83424e-16 -4.69112 7.76707)
(1.39089e-14 -2.40802 3.28438)
(2.24072e-14 -11.488 20.357)
(3.91292e-14 -14.6017 24.5195)
(2.04296e-14 -12.9913 22.4985)
(1.08694e-14 -11.9835 19.7105)
(2.14459e-15 -10.7744 17.9259)
(-1.23653e-14 -10.1676 16.4302)
(-1.82513e-14 -9.53379 15.3189)
(-1.33297e-14 -9.03353 14.3367)
(-1.83796e-14 -8.55124 13.4714)
(-3.31502e-14 -8.06191 12.6795)
(-4.12278e-14 -7.58526 11.8918)
(-4.59912e-14 -6.99487 11.0966)
(-4.51878e-14 -6.37917 10.0703)
(-2.94563e-14 -5.44232 9.00311)
(-4.97405e-15 -3.36623 5.12591)
(-1.25389e-14 -11.2149 19.6856)
(2.67698e-14 -14.4613 24.2015)
(2.18193e-14 -12.3556 21.4693)
(5.61614e-15 -11.4723 18.8071)
(-1.67298e-14 -10.4007 17.1883)
(-4.49894e-14 -9.88867 15.8714)
(-5.23416e-14 -9.344 14.9672)
(-4.28114e-14 -8.95426 14.2346)
(-5.5236e-14 -8.59135 13.6222)
(-7.42443e-14 -8.23053 13.0755)
(-7.9677e-14 -7.88351 12.5329)
(-8.75064e-14 -7.4533 11.9819)
(-8.49089e-14 -6.97961 11.2416)
(-6.41593e-14 -6.30038 10.4559)
(-3.40787e-14 -4.41589 7.22783)
(-5.80196e-14 -10.2906 17.6137)
(-3.08791e-14 -14.7384 24.2401)
(-1.44638e-14 -11.672 20.2599)
(-3.64805e-14 -10.0389 16.7158)
(-8.14321e-14 -9.13265 15.8768)
(-1.06093e-13 -9.10364 15.1776)
(-9.43188e-14 -8.78378 14.7121)
(-8.30189e-14 -8.63723 14.1378)
(-1.00621e-13 -8.38527 13.6429)
(-1.14841e-13 -8.13978 13.1831)
(-1.16843e-13 -7.88649 12.7321)
(-1.2752e-13 -7.55029 12.3044)
(-1.24093e-13 -7.17593 11.6859)
(-9.80952e-14 -6.62875 11.1198)
(-6.22604e-14 -4.95534 8.25787)
(-7.41894e-14 -8.14024 14.1756)
(-6.6127e-14 -16.2735 25.136)
(-5.06836e-15 -16.2981 24.3737)
(2.25482e-14 -13.8538 20.1459)
(-1.24791e-15 -11.5617 16.6696)
(-5.46465e-14 -10.3264 14.4565)
(-7.0614e-14 -9.60967 13.4343)
(-6.19832e-14 -9.34703 13.1874)
(-9.27452e-14 -9.21226 13.2278)
(-1.09403e-13 -9.04999 13.3118)
(-1.19848e-13 -8.86287 13.371)
(-1.51767e-13 -8.64535 13.3337)
(-1.42487e-13 -8.34571 13.3005)
(-1.54527e-13 -8.12287 13.1001)
(-1.23875e-13 -6.2403 10.6695)
(2.74268e-16 1.53574 0.068629)
(5.36852e-15 0.286415 -0.554638)
(5.68003e-15 0.0588109 -0.608489)
(6.12345e-15 0.175789 -0.652476)
(6.1082e-15 0.195333 -0.59422)
(5.84446e-15 0.284366 -0.671056)
(3.35226e-15 0.262501 -0.409732)
(2.7779e-15 0.318216 -0.368949)
(2.82768e-15 0.317916 -0.296396)
(3.29988e-15 0.417565 -0.32027)
(5.28451e-15 0.367257 -0.194219)
(7.43992e-15 0.388447 -0.164868)
(1.06528e-14 0.508792 -0.213873)
(8.21111e-15 0.41156 -0.176131)
(7.10521e-15 0.463391 -0.200811)
(5.46803e-15 0.446423 -0.177724)
(4.98873e-15 0.56263 -0.181982)
(3.13209e-15 0.479386 -0.113713)
(2.70826e-15 0.495441 -0.111077)
(3.27285e-15 0.63449 -0.166113)
(1.98204e-15 0.505418 -0.150727)
(1.12528e-15 0.565654 -0.176458)
(-1.66486e-16 0.535472 -0.141444)
(-1.87091e-15 0.689717 -0.128742)
(-2.85353e-15 0.55344 -0.0704654)
(-3.38942e-15 0.609928 -0.0859797)
(-3.29731e-15 0.574765 -0.0576525)
(-3.90432e-15 0.706518 -0.0491936)
(-2.39875e-15 0.603475 -0.0542129)
(-1.5861e-15 0.611141 -0.0553081)
(-8.59593e-16 0.775561 -0.102206)
(2.10308e-16 0.618487 -0.108798)
(6.1836e-16 0.6812 -0.133632)
(6.33905e-16 0.644766 -0.0890403)
(7.04445e-16 0.785477 -0.111081)
(-2.46728e-17 0.676364 -0.123071)
(-3.1446e-16 0.684818 -0.112231)
(-4.31146e-16 0.870253 -0.202741)
(-2.28166e-16 0.699837 -0.176828)
(6.19964e-17 0.775024 -0.161018)
(3.92984e-16 0.725818 -0.0707208)
(1.24132e-15 0.920923 -0.109042)
(1.05975e-15 0.749663 -0.129319)
(1.09709e-15 0.820907 -0.140282)
(9.61011e-16 0.772686 -0.0693634)
(1.60935e-15 0.934006 -0.145172)
(6.17465e-16 0.810673 -0.148759)
(2.3942e-16 0.806514 -0.0930932)
(5.36142e-16 1.01613 -0.178074)
(-1.08953e-16 0.800113 -0.131012)
(2.55834e-16 0.873008 -0.0660202)
(9.27623e-16 0.811283 0.0462328)
(2.9864e-15 0.983613 -0.00851466)
(1.9199e-15 0.769282 -0.0592684)
(1.67025e-15 0.826925 -0.00368769)
(1.0901e-15 0.772065 0.10148)
(6.6358e-16 0.862221 0.00453756)
(-1.94001e-15 0.69633 -0.0879087)
(-2.33146e-15 0.677281 0.00628729)
(-4.40643e-15 0.769651 -0.186445)
(-5.35165e-15 0.516793 -0.211989)
(-5.102e-15 0.55235 -0.0610109)
(-4.28284e-15 0.533443 0.133261)
(-6.0338e-15 0.481436 -0.385258)
(-1.187e-15 0.289625 -0.268449)
(3.4274e-15 0.232435 0.0100543)
(2.4412e-14 0.44009 0.158203)
(2.42608e-14 -0.179829 1.49376)
(2.20847e-14 -0.187792 1.48134)
(1.71647e-14 -0.265882 1.50481)
(5.35048e-15 -0.643937 2.93213)
(-1.17383e-14 -1.11686 3.38378)
(-1.98563e-14 -1.33891 3.62525)
(-2.44134e-14 -1.45061 3.91609)
(-3.90722e-14 -2.33572 6.75445)
(-3.06031e-14 -2.88909 6.30951)
(-2.87083e-14 -3.08689 6.9799)
(-3.70627e-14 -4.40246 10.7533)
(-2.93833e-14 -4.84039 8.99019)
(-3.64642e-14 -5.14115 9.98347)
(-5.83111e-14 -5.82306 12.6499)
(-5.37176e-14 -5.57809 12.2505)
(-5.41077e-14 -5.70594 12.4983)
(-4.18795e-14 -5.67458 13.1904)
(-5.86901e-14 -5.81006 13.2432)
(-6.72641e-14 -5.77749 13.8727)
(-7.26925e-14 -5.78446 14.0665)
(-7.88059e-14 -5.77144 14.1087)
(-8.46294e-14 -5.7912 14.0572)
(-8.85572e-14 -5.79187 13.9349)
(-8.95409e-14 -5.7638 13.8245)
(-8.84626e-14 -5.789 13.786)
(-6.56897e-14 -5.54074 14.1672)
(-5.79337e-14 -5.93019 14.3725)
(-4.12685e-14 -5.85242 14.75)
(-3.25903e-14 -5.87904 14.9904)
(-3.04095e-14 -5.88233 15.1276)
(-3.02392e-14 -5.90293 15.184)
(-3.61822e-14 -5.91934 15.1699)
(-4.34712e-14 -5.89886 15.1247)
(-4.80326e-14 -5.947 15.0856)
(-2.99118e-14 -5.78647 15.5724)
(-4.0749e-14 -6.17001 15.3545)
(-4.18607e-14 -6.1336 15.5004)
(-4.09706e-14 -6.1725 15.6328)
(-3.91746e-14 -6.17565 15.7373)
(-3.6235e-14 -6.20134 15.7934)
(-3.28887e-14 -6.22901 15.8079)
(-2.90103e-14 -6.2524 15.8058)
(-2.18472e-14 -6.2316 15.792)
(-1.50379e-14 -6.30931 15.7961)
(6.11154e-15 -6.20411 16.4861)
(-5.701e-15 -6.58855 16.0179)
(-9.77361e-15 -6.58922 16.0797)
(-1.89383e-14 -6.63063 16.0734)
(-2.79552e-14 -6.64818 16.0324)
(-3.78303e-14 -6.68322 15.9585)
(-4.60252e-14 -6.7082 15.8794)
(-5.8547e-14 -6.68455 15.8583)
(-6.98491e-14 -6.78094 15.8945)
(-9.0947e-14 -6.71561 16.7039)
(-7.96879e-14 -7.06662 16.0531)
(-7.03783e-14 -7.08935 16.0563)
(-5.63842e-14 -7.12583 16.0032)
(-4.29624e-14 -7.14024 15.9351)
(-3.13127e-14 -7.17505 15.8728)
(-2.46002e-14 -7.20493 15.8676)
(-2.2432e-14 -7.17139 15.9677)
(-2.30692e-14 -7.31603 16.2621)
(-4.46547e-14 -6.92496 16.6962)
(-5.1281e-14 -7.37465 16.0355)
(-6.20406e-14 -7.3789 16.096)
(-6.78205e-14 -7.37277 16.1581)
(-6.94304e-14 -7.4026 16.4439)
(-7.8267e-14 -7.39123 16.562)
(-8.91339e-14 -7.38215 16.7096)
(-9.89311e-14 -7.38193 16.9897)
(-1.06313e-13 -7.48291 17.3061)
(-1.26773e-13 -6.41465 17.2821)
(-9.05906e-14 -6.96403 17.4193)
(-7.64757e-14 -6.80181 17.7863)
(-6.40445e-14 -6.81519 18.1633)
(-6.04355e-14 -6.78823 18.5937)
(-6.84239e-14 -6.68165 19.0992)
(-9.15407e-14 -6.80728 19.9892)
(-1.15019e-13 -6.60243 19.7307)
(-1.4152e-13 -6.61517 19.5228)
(-1.59764e-13 -6.58366 18.8663)
(-1.72713e-13 -3.75549 14.0618)
(-1.23625e-13 -5.1875 14.6284)
(-8.6667e-14 -4.86567 12.8037)
(-4.36839e-14 -4.97522 10.8524)
(-1.16093e-14 -4.72766 8.47445)
(7.82778e-15 -4.61725 6.11946)
(1.19273e-14 -4.40093 3.75786)
(6.40327e-15 -4.04521 2.31831)
(-8.96572e-16 -4.05922 2.78496)
(2.04569e-17 -3.19798 0.703511)
(-1.41329e-14 -3.56396 2.43472)
(-1.53145e-14 -3.51374 1.5165)
(6.38198e-15 -2.33201 -1.7613)
(-3.01784e-16 -4.43034 -0.142996)
(1.69041e-16 -3.72383 -0.2826)
(9.92717e-16 -3.46672 -0.0829464)
(1.30589e-15 -4.62723 -0.270211)
(8.78156e-16 -3.29468 -0.168602)
(1.23135e-15 -4.32547 -0.328675)
(7.96203e-16 -4.12434 -0.285909)
(4.37851e-16 -3.43458 -0.166232)
(6.42053e-16 -4.19465 -0.298754)
(4.16812e-16 -3.94182 -0.273025)
(2.48013e-16 -3.39024 -0.2186)
(1.87607e-16 -4.50674 -0.423201)
(-2.26962e-18 -3.11778 -0.306453)
(-1.09904e-16 -4.05088 -0.482763)
(-2.62239e-16 -3.55809 -0.460509)
(-9.43357e-17 -3.09461 -0.361635)
(1.0327e-17 -4.04695 -0.564544)
(-8.09834e-17 -2.76721 -0.383216)
(8.67051e-17 -3.58726 -0.533761)
(2.93014e-16 -3.19594 -0.467205)
(4.10288e-16 -2.64011 -0.364733)
(7.60694e-16 -3.14995 -0.602987)
(6.10951e-16 -2.83476 -0.610902)
(2.05647e-16 -2.37326 -0.499467)
(1.57102e-16 -3.09203 -0.702436)
(5.2876e-17 -2.05669 -0.480997)
(1.20918e-16 -2.64706 -0.695585)
(1.92385e-17 -2.20967 -0.666072)
(1.62106e-16 -1.85831 -0.572424)
(3.70552e-16 -2.39318 -0.817181)
(3.32515e-16 -1.52527 -0.581888)
(4.21366e-16 -1.97055 -0.79391)
(3.47206e-16 -1.63964 -0.764584)
(2.81772e-16 -1.24698 -0.690115)
(5.03617e-16 -1.46238 -0.990182)
(1.71437e-16 -1.18633 -0.860679)
(-1.95922e-16 -0.869606 -0.681089)
(-1.75119e-16 -1.20659 -0.837835)
(-1.99956e-16 -0.533213 -0.625208)
(-4.98101e-16 -0.831202 -1.00551)
(-7.43597e-16 -0.512895 -1.08278)
(-3.27143e-16 -0.112459 -0.8175)
(3.61527e-16 -0.630821 -1.12039)
(5.41525e-17 0.196906 -0.820331)
(-3.14103e-16 0.0737497 -0.985394)
(-3.7913e-16 0.220214 -1.26817)
(-5.77529e-16 0.559765 -0.78836)
(-1.02463e-15 0.568416 -0.973026)
(-1.5921e-15 0.841521 -1.20855)
(-1.25609e-15 0.959516 -0.708609)
(-1.63336e-15 1.19629 -0.996336)
(-9.68439e-16 1.22183 -0.61366)
(-6.32343e-16 1.3512 -0.739542)
(-5.65795e-17 1.65435 -0.830829)
(6.22169e-17 1.48881 -0.46192)
(-1.3586e-16 1.97449 -0.637848)
(-4.55839e-16 1.71804 -0.355078)
(-1.06454e-15 1.94594 -0.436362)
(-1.88997e-15 2.17724 -0.48663)
(-1.50661e-15 1.97949 -0.243661)
(-1.67179e-15 2.24548 -0.338954)
(-1.3725e-15 2.53053 -0.394719)
(-4.6611e-16 2.0919 -0.218474)
(-2.67147e-17 2.81308 -0.325094)
(2.17731e-16 2.29005 -0.164011)
(3.5753e-16 2.5407 -0.21632)
(-1.51236e-16 2.78744 -0.207327)
(-5.56126e-16 2.24059 -0.122549)
(-1.45891e-15 3.02277 -0.149119)
(-1.42178e-15 2.37072 -0.0661654)
(-1.9626e-15 2.69193 -0.0744826)
(-2.0472e-15 2.84807 -0.0263734)
(-1.07422e-15 2.47567 0.0167523)
(-7.71321e-16 2.85206 -0.0392618)
(3.05368e-16 3.20994 -0.0859386)
(8.29253e-16 2.60899 -0.0287442)
(1.70134e-15 3.59135 -0.180429)
(1.49487e-15 2.87383 -0.0980482)
(1.47902e-15 3.41136 -0.275571)
(9.93131e-90 0.0133413 0.0127484)
(6.30218e-89 0.0199746 0.0121363)
(2.16204e-88 0.0249525 0.012119)
(-7.45109e-88 0.0294725 0.0119762)
(-1.87691e-86 0.0340116 0.012)
(-1.46996e-85 0.0383498 0.0120253)
(-3.53022e-85 0.042693 0.0121381)
(5.47951e-84 0.0469882 0.0122881)
(7.27527e-83 0.0513127 0.0125026)
(2.9955e-82 0.0556642 0.0127654)
(-2.26549e-81 0.0600804 0.0130851)
(-3.9849e-80 0.0645732 0.0134566)
(-1.59687e-79 0.069167 0.0138824)
(1.68458e-78 0.0738776 0.014361)
(2.3084e-77 0.0787247 0.0148937)
(6.75479e-78 0.083725 0.0154801)
(-1.75551e-75 0.0888964 0.0161214)
(-5.50452e-75 0.0942559 0.016818)
(1.75886e-73 0.099821 0.0175713)
(1.02201e-72 0.105609 0.0183824)
(-2.41654e-71 0.111638 0.019253)
(-2.74638e-70 0.117925 0.0201849)
(2.35264e-69 0.124489 0.0211802)
(5.56798e-68 0.131349 0.0222413)
(-1.44114e-68 0.138523 0.0233709)
(-7.8148e-66 0.146033 0.0245718)
(-4.13996e-65 0.153898 0.0258473)
(7.70743e-64 0.162141 0.027201)
(8.71475e-63 0.170783 0.0286367)
(-5.12252e-62 0.179847 0.0301585)
(-1.17181e-60 0.189358 0.0317711)
(1.72897e-60 0.199342 0.0334792)
(1.31464e-58 0.209824 0.0352882)
(1.05681e-58 0.220833 0.0372037)
(-1.46152e-56 0.232398 0.0392318)
(-4.05118e-56 0.24455 0.0413789)
(1.67297e-54 0.25732 0.0436519)
(9.38113e-54 0.270742 0.0460583)
(-1.71753e-52 0.284854 0.0486058)
(-1.71006e-51 0.29969 0.0513028)
(1.25435e-50 0.315292 0.054158)
(2.33857e-49 0.331699 0.0571805)
(-2.55955e-49 0.348956 0.0603799)
(-2.32672e-47 0.367107 0.0637659)
(-8.16452e-47 0.386199 0.0673486)
(1.55888e-45 0.406281 0.0711379)
(1.35216e-44 0.427401 0.0751433)
(-4.74154e-44 0.449611 0.0793739)
(-1.12487e-42 0.47296 0.0838372)
(-2.98845e-42 0.497496 0.0885388)
(4.61412e-41 0.523264 0.0934811)
(4.64513e-40 0.550303 0.098662)
(1.04802e-39 0.578642 0.104073)
(-2.13198e-38 0.608293 0.109694)
(-2.91536e-37 0.639248 0.115496)
(-7.2759e-37 0.671465 0.121428)
(1.88576e-35 0.704856 0.127415)
(1.76362e-34 0.739273 0.13335)
(-3.20231e-34 0.774483 0.139082)
(-1.27315e-32 0.810137 0.144401)
(-4.17056e-32 0.845752 0.149022)
(4.73188e-31 0.880629 0.152573)
(3.95103e-30 0.913884 0.154546)
(-4.10678e-30 0.944196 0.154341)
(-1.68298e-28 0.970137 0.151082)
(-4.9875e-28 0.989188 0.143944)
(3.43296e-27 0.999288 0.131448)
(2.66718e-26 0.995479 0.112814)
(9.08626e-27 0.975003 0.0856375)
(-5.74454e-25 0.927696 0.0503022)
(-2.29329e-24 0.850627 0.00319995)
(2.66652e-24 0.718345 -0.0494679)
(5.59282e-23 0.53486 -0.114259)
(1.13748e-21 0.140995 -0.171025)
(-7.14578e-21 -0.342671 -0.272575)
(6.2566e-20 -0.784441 -0.133841)
(-7.62424e-19 -0.904473 -0.386726)
(3.1465e-17 -1.7389 0.100507)
(-1.65849e-16 -1.79194 -1.56838)
(5.5531e-89 0.0134648 0.0155104)
(3.69227e-88 0.0200934 0.0146643)
(1.38557e-87 0.024988 0.0146221)
(-3.17312e-87 0.0294969 0.0144297)
(-1.04495e-85 0.034007 0.0144533)
(-8.7587e-85 0.038329 0.0144803)
(-2.53521e-84 0.042651 0.0146158)
(2.8708e-83 0.0469289 0.0147963)
(4.26962e-82 0.0512345 0.0150548)
(2.0148e-81 0.0555683 0.0153709)
(-1.08493e-80 0.0599664 0.015755)
(-2.32777e-79 0.0644416 0.0162004)
(-1.15956e-78 0.0690177 0.0167105)
(7.67988e-78 0.0737107 0.0172832)
(1.40233e-76 0.07854 0.0179198)
(3.4025e-76 0.0835223 0.01862)
(-8.52356e-75 0.0886756 0.019385)
(-5.82642e-74 0.0940166 0.0202154)
(6.16406e-73 0.0995629 0.0211127)
(6.90406e-72 0.105332 0.0220781)
(-7.79791e-71 0.11134 0.0231137)
(-1.36455e-69 0.117607 0.0242214)
(6.2118e-69 0.12415 0.0254036)
(2.51171e-67 0.130988 0.0266631)
(5.71113e-67 0.138139 0.0280029)
(-3.24331e-65 0.145625 0.0294263)
(-2.69078e-64 0.153466 0.030937)
(2.64597e-63 0.161682 0.0325391)
(4.71239e-62 0.170296 0.0342368)
(-7.20157e-62 0.179331 0.036035)
(-5.55333e-60 0.188812 0.0379387)
(-1.50194e-59 0.198764 0.0399534)
(5.13752e-58 0.209212 0.042085)
(2.97714e-57 0.220186 0.0443399)
(-4.42327e-56 0.231713 0.0467248)
(-3.77197e-55 0.243824 0.0492469)
(4.18296e-54 0.256552 0.051914)
(4.8766e-53 0.26993 0.0547341)
(-3.91618e-52 0.283994 0.0577158)
(-6.75731e-51 0.298781 0.0608683)
(2.35318e-50 0.31433 0.064201)
(8.37233e-49 0.330681 0.0677239)
(8.65765e-49 0.347879 0.0714469)
(-8.01977e-47 0.365968 0.0753807)
(-4.33185e-46 0.384995 0.0795354)
(5.19555e-45 0.405009 0.0839212)
(5.98545e-44 0.426058 0.0885477)
(-1.32849e-43 0.448194 0.093423)
(-5.03049e-42 0.471467 0.0985537)
(-1.45884e-41 0.495926 0.103943)
(2.55649e-40 0.521618 0.109591)
(2.15576e-39 0.548583 0.115489)
(-3.56598e-39 0.576852 0.121623)
(-1.37179e-37 0.606442 0.127964)
(-5.99767e-37 0.63735 0.134467)
(3.52471e-36 0.66954 0.141063)
(5.45053e-35 0.702936 0.147652)
(1.66604e-34 0.7374 0.154093)
(-1.91624e-33 0.772717 0.16019)
(-2.0776e-32 0.808561 0.165677)
(-1.95174e-32 0.844473 0.170195)
(9.05886e-31 0.879792 0.173285)
(5.33482e-30 0.913673 0.174318)
(-1.26085e-29 0.944852 0.172583)
(-2.54162e-28 0.971939 0.167006)
(-6.28488e-28 0.992513 0.156655)
(5.24332e-27 1.00451 0.13973)
(3.73907e-26 1.00311 0.115423)
(1.17325e-26 0.98539 0.0808611)
(-7.76013e-25 0.941352 0.0366855)
(-3.21135e-24 0.867202 -0.0212965)
(2.75908e-24 0.73806 -0.0848281)
(5.66231e-23 0.55449 -0.163435)
(2.09005e-21 0.172952 -0.229166)
(-8.05338e-21 -0.370735 -0.338904)
(6.21166e-20 -0.800577 -0.165078)
(-8.66979e-19 -0.958366 -0.414785)
(3.46985e-17 -1.61884 0.098174)
(-2.10108e-16 -1.79501 -1.60879)
(2.65469e-88 0.0135391 0.0170121)
(1.89243e-87 0.0201625 0.0160726)
(7.93437e-87 0.0250079 0.0160185)
(-7.6766e-87 0.0295088 0.0157999)
(-4.91518e-85 0.0340019 0.0158248)
(-4.52143e-84 0.038314 0.0158542)
(-1.58317e-83 0.0426238 0.0160038)
(1.22288e-82 0.0468913 0.0162026)
(2.13814e-81 0.0511859 0.016487)
(1.1558e-80 0.0555093 0.0168341)
(-4.03682e-80 0.0598968 0.0172553)
(-1.14717e-78 0.0643615 0.0177431)
(-6.82415e-78 0.0689271 0.0183012)
(2.70528e-77 0.0736096 0.0189273)
(7.01243e-76 0.0784283 0.0196227)
(2.94849e-75 0.0834001 0.0203872)
(-3.26048e-74 0.0885425 0.021222)
(-3.72647e-73 0.0938726 0.0221277)
(1.20476e-72 0.0994076 0.0231058)
(3.33513e-71 0.105165 0.0241579)
(-1.3312e-70 0.111162 0.0252858)
(-5.07047e-69 0.117416 0.0264919)
(5.04282e-69 0.123947 0.0277787)
(8.55019e-67 0.130771 0.029149)
(4.16021e-66 0.13791 0.0306062)
(-1.00857e-64 0.145381 0.0321537)
(-1.1967e-63 0.153207 0.0337955)
(6.12008e-63 0.161408 0.0355359)
(1.84754e-61 0.170006 0.0373794)
(2.94255e-61 0.179024 0.0393312)
(-1.91814e-59 0.188487 0.0413967)
(-1.23469e-58 0.19842 0.0435816)
(1.39168e-57 0.208849 0.0458922)
(1.71613e-56 0.219802 0.0483353)
(-7.15714e-56 0.231307 0.0509179)
(-1.70048e-54 0.243395 0.0536476)
(3.33014e-54 0.256099 0.0565326)
(1.59137e-52 0.269451 0.0595813)
(-2.18474e-52 0.283488 0.0628028)
(-1.72169e-50 0.298246 0.0662065)
(-2.98027e-51 0.313765 0.0698023)
(1.94109e-48 0.330085 0.0736005)
(6.47856e-48 0.34725 0.0776115)
(-1.8002e-46 0.365304 0.0818459)
(-1.36794e-45 0.384295 0.0863143)
(1.1025e-44 0.404271 0.0910268)
(1.68297e-43 0.425281 0.0959927)
(-1.62041e-43 0.447377 0.10122)
(-1.37735e-41 0.47061 0.106714)
(-5.03842e-41 0.495029 0.112477)
(7.13899e-40 0.520682 0.118507)
(6.49387e-39 0.547611 0.124794)
(-1.33535e-38 0.575848 0.131316)
(-4.31025e-37 0.605414 0.138042)
(-1.30332e-36 0.636307 0.144917)
(1.56108e-35 0.668499 0.151861)
(1.37984e-34 0.701918 0.158762)
(-3.35443e-35 0.736436 0.165457)
(-6.20056e-33 0.771848 0.171726)
(-2.99794e-32 0.807842 0.177272)
(9.88691e-32 0.843976 0.181694)
(1.66415e-30 0.87961 0.184486)
(4.53222e-30 0.913923 0.184954)
(-3.68284e-29 0.945682 0.182328)
(-3.18612e-28 0.973522 0.175429)
(-2.85589e-28 0.995073 0.16327)
(7.67669e-27 1.00827 0.143883)
(3.8446e-26 1.00836 0.116427)
(-2.39734e-26 0.992319 0.0778019)
(-8.78784e-25 0.950213 0.028705)
(-3.07075e-24 0.877627 -0.035374)
(4.38053e-24 0.750058 -0.105108)
(2.89397e-23 0.565404 -0.192376)
(3.06216e-21 0.186524 -0.259157)
(-1.41803e-20 -0.3632 -0.404299)
(8.554e-20 -0.783103 -0.216831)
(-1.19772e-18 -0.97143 -0.453919)
(4.15292e-17 -1.48754 0.0946081)
(-2.29697e-16 -1.75027 -1.32343)
(1.22353e-87 0.0136582 0.0186989)
(9.47041e-87 0.0202703 0.0176809)
(4.42687e-86 0.0250436 0.0176206)
(8.63557e-87 0.0295303 0.0173796)
(-2.2181e-84 0.0339975 0.0174089)
(-2.28015e-83 0.0382939 0.0174442)
(-9.47402e-83 0.0425851 0.017612)
(4.76274e-82 0.0468369 0.0178341)
(1.04192e-80 0.0511148 0.0181501)
(6.42925e-80 0.0554227 0.0185346)
(-1.22226e-79 0.0597943 0.0190003)
(-5.48079e-78 0.0642435 0.0195387)
(-3.81642e-77 0.0687935 0.0201539)
(7.55015e-77 0.0734605 0.0208432)
(3.35105e-75 0.0782637 0.0216083)
(1.95178e-74 0.0832197 0.0224487)
(-1.08236e-73 0.0883463 0.0233658)
(-2.02323e-72 0.0936602 0.0243603)
(-1.87244e-72 0.0991788 0.0254338)
(1.37679e-70 0.104919 0.0265879)
(2.38477e-70 0.110899 0.0278248)
(-1.57772e-68 0.117135 0.0291468)
(-4.51714e-68 0.123647 0.0305567)
(2.50275e-66 0.130453 0.0320576)
(2.00461e-65 0.137571 0.033653)
(-2.69366e-64 0.145022 0.0353467)
(-4.57016e-63 0.152826 0.037143)
(8.4206e-63 0.161004 0.0390464)
(6.39015e-61 0.169578 0.0410618)
(2.74933e-60 0.178572 0.0431948)
(-5.78326e-59 0.188009 0.045451)
(-6.1074e-58 0.197914 0.0478367)
(2.82758e-57 0.208314 0.0503585)
(7.24207e-56 0.219236 0.0530237)
(5.44324e-56 0.230709 0.0558397)
(-5.98262e-54 0.242763 0.0588147)
(-2.33384e-53 0.255431 0.0619571)
(4.01356e-52 0.268746 0.0652761)
(2.30748e-51 0.282743 0.0687811)
(-3.02948e-50 0.297459 0.0724821)
(-1.87945e-49 0.312933 0.0763895)
(3.08942e-48 0.329207 0.0805139)
(2.30483e-47 0.346323 0.0848662)
(-2.94599e-46 0.364326 0.0894575)
(-3.35003e-45 0.383263 0.0942984)
(1.72443e-44 0.403183 0.0993992)
(3.82554e-43 0.424135 0.104769)
(1.12814e-43 0.446172 0.110416)
(-3.06356e-41 0.469345 0.116344)
(-1.4286e-40 0.493704 0.122554)
(1.55e-39 0.519299 0.129043)
(1.63343e-38 0.546172 0.135795)
(-2.49488e-38 0.57436 0.142789)
(-1.0638e-36 0.603886 0.149982)
(-3.2759e-36 0.634755 0.157313)
(4.0326e-35 0.666944 0.164691)
(3.32592e-34 0.700391 0.171985)
(-3.73827e-34 0.73498 0.179014)
(-1.56533e-32 0.770521 0.185529)
(-5.29937e-32 0.806722 0.191196)
(3.50693e-31 0.843165 0.195569)
(3.35152e-30 0.879242 0.19809)
(2.99859e-30 0.914163 0.197988)
(-8.89484e-29 0.946746 0.194424)
(-4.59608e-28 0.975657 0.186101)
(4.27097e-28 0.998603 0.171958)
(1.28791e-26 1.01351 0.149838)
(4.19477e-26 1.01576 0.118847)
(-9.62686e-26 1.00216 0.0756094)
(-1.14186e-24 0.962887 0.0208516)
(-2.98332e-24 0.892745 -0.0503031)
(8.18839e-24 0.767784 -0.127628)
(2.70562e-24 0.582301 -0.22505)
(4.27787e-21 0.212008 -0.298391)
(-2.29402e-20 -0.36244 -0.457016)
(1.43008e-19 -0.779318 -0.280945)
(-1.79933e-18 -0.99824 -0.507346)
(4.91908e-17 -1.41556 0.078086)
(-1.99808e-16 -1.74695 -1.2173)
(5.37935e-87 0.01377 0.0202779)
(4.60243e-86 0.0203694 0.0192123)
(2.39806e-85 0.0250773 0.0191499)
(2.9646e-85 0.0295491 0.0188925)
(-9.47394e-84 0.0339913 0.0189284)
(-1.11794e-82 0.0382721 0.0189718)
(-5.44654e-82 0.0425453 0.0191589)
(1.58148e-81 0.0467817 0.0194052)
(4.91336e-80 0.0510435 0.019753)
(3.46705e-79 0.0553361 0.0201751)
(-1.77109e-79 0.0596922 0.0206849)
(-2.52621e-77 0.0641263 0.0212733)
(-2.04502e-76 0.0686611 0.0219446)
(7.855e-77 0.073313 0.0226961)
(1.53094e-74 0.0781009 0.0235293)
(1.1344e-73 0.0830416 0.0244439)
(-2.71294e-73 0.0881526 0.0254413)
(-9.87466e-72 0.0934507 0.0265223)
(-3.87676e-71 0.0989532 0.0276886)
(4.80575e-70 0.104677 0.028942)
(3.82778e-69 0.11064 0.0302847)
(-3.53445e-68 0.116859 0.0317193)
(-3.41525e-67 0.123353 0.0332487)
(5.70404e-66 0.13014 0.0348764)
(7.56976e-65 0.137239 0.0366059)
(-5.67045e-64 0.144669 0.0384414)
(-1.50477e-62 0.152452 0.0403874)
(-1.25575e-62 0.160608 0.0424488)
(1.93991e-60 0.169159 0.0446308)
(1.3584e-59 0.178129 0.0469393)
(-1.48702e-58 0.18754 0.0493802)
(-2.39202e-57 0.197418 0.0519604)
(2.35067e-57 0.20779 0.0546868)
(2.51944e-55 0.218683 0.0575669)
(1.06106e-54 0.230125 0.0606089)
(-1.71975e-53 0.242146 0.0638212)
(-1.63769e-52 0.25478 0.0672128)
(6.62613e-52 0.268058 0.0707933)
(1.38457e-50 0.282017 0.0745726)
(-5.14302e-51 0.296693 0.0785612)
(-8.2957e-49 0.312125 0.0827699)
(1.78726e-49 0.328354 0.0872098)
(5.27106e-47 0.345423 0.0918922)
(-1.73262e-46 0.363378 0.0968284)
(-5.63296e-45 0.382264 0.102029)
(1.37587e-44 0.402131 0.107506)
(6.47301e-43 0.42303 0.113266)
(1.02079e-42 0.445012 0.119318)
(-5.3746e-41 0.468129 0.125666)
(-3.12715e-40 0.492433 0.132309)
(2.69859e-39 0.517975 0.139241)
(3.35772e-38 0.544799 0.146445)
(-2.90135e-38 0.572945 0.153894)
(-2.14682e-36 0.60244 0.161541)
(-7.54698e-36 0.633295 0.169316)
(8.01023e-35 0.665492 0.177116)
(7.02325e-34 0.698979 0.184797)
(-7.09362e-34 0.733653 0.192157)
(-3.2455e-32 0.76934 0.19892)
(-1.04398e-31 0.805766 0.20472)
(7.55516e-31 0.842538 0.209067)
(6.52843e-30 0.879078 0.211352)
(2.40764e-30 0.914628 0.210735)
(-1.77788e-28 0.948054 0.206312)
(-7.55714e-28 0.978051 0.196675)
(1.40046e-27 1.0024 0.180692)
(2.21257e-26 1.01903 0.15603)
(5.51696e-26 1.02343 0.121729)
(-2.00097e-25 1.01225 0.0741545)
(-1.66921e-24 0.975779 0.0140019)
(-3.45197e-24 0.908038 -0.0639459)
(1.37412e-23 0.785604 -0.148917)
(-5.61909e-24 0.599248 -0.256585)
(6.03012e-21 0.235284 -0.338161)
(-2.02129e-20 -0.362802 -0.508664)
(9.05642e-20 -0.77934 -0.352123)
(-1.34814e-18 -1.03552 -0.562431)
(3.20471e-17 -1.36622 0.0507604)
(-1.90783e-16 -1.7464 -0.816121)
(2.22576e-86 0.0138939 0.0218212)
(2.16133e-85 0.0204765 0.0207269)
(1.25741e-84 0.0251156 0.0206663)
(2.74709e-84 0.0295697 0.0203981)
(-3.75534e-83 0.033984 0.0204429)
(-5.30621e-82 0.0382469 0.0204971)
(-3.01036e-81 0.0424997 0.0207052)
(3.51494e-81 0.0467186 0.0209775)
(2.22981e-79 0.0509623 0.0213587)
(1.81126e-78 0.0552377 0.0218198)
(1.34329e-78 0.0595765 0.0223751)
(-1.11721e-76 0.0639936 0.0230148)
(-1.05513e-75 0.0685113 0.0237435)
(-1.02292e-75 0.0731462 0.0245583)
(6.68123e-74 0.077917 0.0254609)
(6.07333e-73 0.0828404 0.0264509)
(-1.44622e-73 0.087934 0.0275299)
(-4.44194e-71 0.0932144 0.0286986)
(-2.86597e-70 0.0986988 0.0299589)
(1.30833e-69 0.104404 0.0313128)
(2.43277e-68 0.110348 0.0327625)
(-8.99966e-69 0.116548 0.034311)
(-1.51753e-66 0.123021 0.0359613)
(6.26845e-66 0.129787 0.037717)
(2.23793e-64 0.136864 0.039582)
(-6.94492e-64 0.144272 0.0415607)
(-4.18203e-62 0.152031 0.0436579)
(-1.41204e-61 0.160162 0.0458788)
(5.09723e-60 0.168688 0.0482291)
(5.12026e-59 0.17763 0.0507147)
(-3.11715e-58 0.187013 0.0533422)
(-7.89926e-57 0.196862 0.0561186)
(-1.28406e-56 0.207202 0.0590514)
(7.48108e-55 0.218061 0.0621486)
(5.45041e-54 0.229468 0.0654186)
(-3.9992e-53 0.241454 0.0688705)
(-6.82897e-52 0.254048 0.0725136)