/*--------------------------------*- C++ -*----------------------------------*\
| =========                 |                                                 |
| \\      /  F ield         | OpenFOAM: The Open Source CFD Toolbox           |
|  \\    /   O peration     | Version:  4.1                                   |
|   \\  /    A nd           | Web:      www.OpenFOAM.org                      |
|    \\/     M anipulation  |                                                 |
\*---------------------------------------------------------------------------*/
FoamFile
{
    version     2.0;
    format      ascii;
    class       volScalarField;
    location    "11";
    object      p;
}
// * * * * * * * * * * * * * * * * * * * * * * * * * * * * * * * * * * * * * //

dimensions      [0 2 -2 0 0 0 0];

internalField   nonuniform List<scalar> 
6785
(
680.643
614.531
563.829
514.108
468.118
424.923
384.395
346.294
310.446
276.281
243.16
212.328
184.251
150.496
114.816
138.867
121.506
125.545
121.161
118.402
115.407
112.869
110.938
109.846
109.72
110.446
112.312
116.164
120.442
121.844
102.331
96.6584
106.715
105.678
109.417
111.709
114.323
116.697
118.89
120.856
122.607
124.235
125.596
126.555
127.021
146.396
143.089
147.32
142.669
142.684
140.233
138.401
136.226
134.09
131.972
130.239
129.216
128.328
127.37
126.82
125.961
122.478
124.18
119.959
120.382
118.258
117.282
116.058
115.062
114.208
113.654
113.419
112.903
112.405
112.8
111.252
109.059
111.163
108.57
110.165
109.202
109.463
109.395
109.425
109.486
109.636
109.919
110.311
110.748
111.883
118.011
117.512
119.866
118.371
120.255
119.944
120.68
121.112
121.586
122.082
122.615
123.161
123.874
124.472
125.655
129.503
130.02
132.126
131.177
132.961
132.966
133.837
134.463
135.128
135.825
136.547
137.246
138.039
138.689
139.552
139.62
140.632
142.366
141.676
143.291
143.346
144.158
144.725
145.328
145.946
146.579
147.189
147.868
148.401
149.154
149.155
150.454
151.761
151.332
152.725
152.729
153.475
153.871
154.337
154.786
155.259
155.749
156.303
156.738
157.375
158.533
159.686
160.553
160.241
161.341
161.228
161.842
161.983
162.233
162.374
162.537
162.737
162.986
163.254
163.57
163.749
164.145
164.569
164.01
164.637
164.15
164.361
164.085
163.946
163.619
163.301
163.029
162.867
162.869
162.647
165.891
165.011
164.292
163.107
162.778
161.608
161.114
160.262
159.623
158.809
158.015
157.299
156.779
156.391
155.567
156.006
155.993
154.503
152.198
150.343
148.161
146.57
144.849
143.543
142.413
141.714
141.446
141.513
141.274
140.399
179.355
175.762
168.509
160.262
152.805
145.897
140.303
136.029
133.549
133.798
135.95
137.036
136.653
135.602
134.178
161.42
161.383
161.422
161.415
161.414
161.381
161.414
161.388
161.395
161.354
161.389
161.314
161.395
161.345
161.286
161.29
161.273
161.316
161.188
161.347
161.262
161.169
161.166
161.212
161.215
161.101
161.099
161.136
161.183
160.986
161.211
161.121
160.965
160.96
161.007
161.068
160.832
161.077
160.982
160.806
160.773
160.88
160.87
160.698
160.654
160.746
160.779
160.507
160.779
160.569
160.374
160.303
160.426
160.425
160.232
160.165
160.229
160.631
160.451
160.374
161.206
161.082
161.03
161.071
161.612
161.392
162.039
162.433
161.525
162.282
163.139
159.654
157.583
159.588
159.747
147.493
153.223
153.801
126.952
133.582
137.657
137.29
139.791
134.251
134.103
138.004
138.082
138.363
137.92
137.864
139.376
141.691
140.928
133.317
133.689
136.175
138.054
137.378
137.603
137.775
138.71
140.315
135.896
136.471
136.067
136.963
139.081
139.868
139.808
139.991
138.81
141.474
139.054
138.969
138.469
137.812
138.832
140.815
140.662
137.124
135.911
139.858
141.063
141.215
139.801
138.529
137.802
138.039
134.931
137.024
139.795
136.327
135.759
134.527
132.25
130.356
127.097
121.703
125.79
132.734
127.625
124.839
120.91
116.93
113.736
111.373
107.917
104.805
102.62
111.052
106.82
106.042
104.927
102.699
97.8364
96.9362
100.019
91.3525
106.58
104.837
104.464
108.376
109.825
110.54
110.607
110.943
110.293
110.333
109.407
106.941
107.502
105.327
102.12
101.484
98.5487
100.704
96.8807
92.4981
92.4037
89.2098
93.3629
89.4337
82.7595
89.3291
85.6224
80.6345
82.1265
79.6598
86.3008
82.4782
78.0464
80.2117
78.5406
84.8576
82.497
77.7002
84.7028
82.8836
80.026
81.9291
81.029
86.2984
84.0532
81.6528
83.482
82.823
87.1114
86.0571
83.5118
87.9448
87.9726
86.3857
88.2546
88.0901
91.1505
92.1229
91.6237
93.4615
93.6036
96.5134
98.8918
99.3724
101.853
104.449
99.5595
109.048
115.267
98.8066
97.861
77.7018
103.575
121.941
20.7449
75.1847
132.079
-32.5674
-43.353
-136.011
-95.6522
164.752
-0.00289572
-0.00503329
-0.00163165
-0.000279685
0.00123287
0.00250444
0.00344524
0.00450536
0.00309687
-0.00255454
-0.00261731
0.00168557
0.0149969
0.00972187
0.00395662
0.0176862
0.0417362
0.0628395
0.0708827
0.0711647
0.0784794
0.0722455
0.059075
0.0445767
0.0207486
0.018786
0.0600852
0.105582
0.0857857
0.0310933
0.0110952
0.0120407
0.020435
0.0381763
0.0603036
0.0712659
0.0814099
0.0827383
0.0776849
0.0758308
0.0737433
0.0741588
0.0692234
0.0516449
0.0370504
0.035438
0.0435319
0.0509958
0.0549686
0.0587266
0.0638999
0.070353
0.0796052
0.0953249
0.121136
0.153713
0.170738
0.142672
0.0647887
-0.03612
-0.125304
-0.192284
-0.230424
-0.240922
-0.193955
-0.0637469
0.152923
0.539925
1.0059
1.48381
2.01288
2.25971
2.0771
1.75898
1.37999
2.18887
6.28374
14.2414
22.716
-0.00641987
-0.0107668
-0.0026739
-0.000531084
0.0032448
0.00763622
0.0117063
0.0163771
0.0184743
0.0155317
0.00508201
-0.064893
-0.0956513
-0.0153485
0.0595906
0.0958209
0.126822
0.157134
0.187427
0.22134
0.252535
0.261852
0.248338
0.217678
0.176711
0.123791
0.0730476
0.0587664
0.0493844
0.0528529
0.0962179
0.143178
0.162706
0.165173
0.170373
0.17657
0.184189
0.185761
0.185374
0.177191
0.174216
0.172346
0.171628
0.161699
0.156277
0.158095
0.164233
0.168896
0.176223
0.189741
0.208861
0.233262
0.264974
0.305269
0.349722
0.389612
0.407692
0.404588
0.412658
0.461174
0.543495
0.589642
0.561314
0.440657
0.341874
0.44077
0.870356
2.06059
3.59398
4.80857
5.73641
5.50319
3.49789
2.98037
2.60205
2.42178
1.95291
-2.21757
42.9084
-0.0124764
-0.0193605
-0.00575964
-0.000871184
0.006307
0.0141373
0.0212297
0.0286122
0.0299653
0.0215616
0.00597978
-0.0719173
-0.117206
-0.0292651
0.0881398
0.160842
0.224163
0.2813
0.329679
0.382813
0.442005
0.470088
0.466071
0.42647
0.329511
0.216621
0.149228
0.152713
0.124791
0.0993823
0.155837
0.234525
0.281164
0.302456
0.321359
0.336658
0.356484
0.362072
0.365409
0.359033
0.35998
0.36097
0.362515
0.351497
0.345205
0.349134
0.363046
0.378854
0.401614
0.435182
0.479398
0.534196
0.6017
0.681426
0.762848
0.832541
0.865985
0.864455
0.864348
0.889853
0.927976
0.887718
0.740412
0.488985
0.340958
0.610537
1.53616
3.8796
6.71263
8.83206
10.4711
10.1109
6.41294
4.84297
4.36243
4.76422
5.31878
1.8366
81.6084
-0.0173723
-0.0261422
-0.00802673
-0.00123697
0.00869877
0.0196995
0.0297301
0.0399436
0.0429162
0.0344645
0.0131244
-0.0788584
-0.138546
-0.0341747
0.128782
0.231375
0.317272
0.395428
0.463056
0.537911
0.618643
0.662865
0.654743
0.602132
0.485172
0.334179
0.21465
0.188515
0.151453
0.136862
0.226345
0.339742
0.404817
0.429508
0.448575
0.466222
0.489414
0.496052
0.501953
0.49123
0.492113
0.491274
0.493999
0.485843
0.486173
0.494822
0.510181
0.527387
0.5575
0.603817
0.664761
0.740534
0.833794
0.941488
1.04433
1.12266
1.15168
1.15307
1.18838
1.27456
1.36656
1.32156
1.09772
0.710068
0.46753
0.823809
2.14541
5.50402
9.48043
12.3591
14.5266
13.9476
8.7475
6.4177
6.22806
7.91568
12.7028
17.2424
103.932
-0.022787
-0.033088
-0.0104118
-0.00118443
0.0116253
0.0256581
0.0384491
0.0509361
0.0544779
0.0456965
0.0242096
-0.0644862
-0.134365
-0.0334238
0.165998
0.301682
0.41332
0.51429
0.599549
0.693492
0.794528
0.855201
0.846658
0.784652
0.637122
0.449432
0.295761
0.250275
0.198706
0.178111
0.2878
0.430792
0.517989
0.554438
0.580743
0.603859
0.633549
0.642831
0.653323
0.643742
0.648919
0.650657
0.657324
0.652272
0.654653
0.663611
0.681448
0.705038
0.746223
0.806458
0.884493
0.981182
1.09926
1.23241
1.35185
1.43258
1.45022
1.44552
1.49771
1.60952
1.70874
1.61205
1.27375
0.727931
0.38944
0.855358
2.63192
7.10793
12.2827
15.9375
18.6796
17.9808
11.5342
8.43275
8.2494
10.9925
18.86
27.6442
102.277
-0.0278265
-0.0393804
-0.0125892
-0.00105638
0.0144566
0.0314021
0.0469456
0.0618693
0.0669757
0.0590695
0.0373818
-0.0445378
-0.117347
-0.0228298
0.20641
0.374075
0.509553
0.632531
0.735193
0.847164
0.965194
1.04076
1.02617
0.953374
0.7886
0.57306
0.379331
0.301867
0.236852
0.217757
0.350244
0.521086
0.626867
0.671603
0.703235
0.730953
0.764588
0.775593
0.78923
0.777835
0.784744
0.786222
0.794219
0.790569
0.797233
0.810143
0.830952
0.858273
0.906961
0.978014
1.07024
1.1848
1.32452
1.47869
1.60697
1.67916
1.67557
1.66472
1.74653
1.90407
2.03035
1.89363
1.43859
0.720569
0.265818
0.8149
3.03213
8.62321
14.9443
19.3251
22.6115
21.8381
14.4057
10.7027
10.6157
14.4258
24.5441
36.1592
107.128
-0.0329122
-0.0454394
-0.0146274
-0.000589069
0.0176132
0.0373564
0.0555616
0.0728058
0.0796715
0.0735059
0.0536588
-0.0171101
-0.0879469
-0.00398868
0.247896
0.448131
0.607385
0.752314
0.871689
1.0004
1.13353
1.22318
1.20401
1.12141
0.936733
0.695407
0.467059
0.357939
0.278611
0.257744
0.408938
0.604689
0.728637
0.78317
0.822126
0.855811
0.894069
0.907706
0.925545
0.915397
0.926751
0.930924
0.943185
0.94359
0.953523
0.966834
0.988673
1.02027
1.07684
1.15796
1.26284
1.39329
1.55188
1.72205
1.85053
1.90356
1.87056
1.85214
1.96383
2.16289
2.30642
2.11415
1.52089
0.607121
0.0157664
0.629752
3.29756
10.0616
17.5482
22.6561
26.4958
25.7364
17.6084
13.4734
13.4513
18.4796
30.7835
44.2966
104.761
-0.0378762
-0.0512026
-0.0165621
6.14028e-05
0.0209391
0.0434451
0.0643309
0.0840551
0.0932764
0.0896219
0.0723674
0.0143011
-0.0493044
0.0241375
0.29185
0.524113
0.706478
0.873006
1.00871
1.15297
1.29905
1.4012
1.37574
1.28235
1.08249
0.819308
0.556518
0.412479
0.318597
0.297316
0.465918
0.684211
0.823971
0.886906
0.93327
0.973611
1.01604
1.03249
1.05368
1.04386
1.05846
1.0638
1.07818
1.08015
1.09303
1.10899
1.13407
1.16996
1.23289
1.32249
1.43856
1.58344
1.75899
1.94092
2.06141
2.08516
2.01658
1.99338
2.14197
2.38965
2.55405
2.30195
1.55513
0.423657
-0.327598
0.320382
3.43392
11.414
20.0541
25.87
30.2651
29.6115
21.0879
16.7457
16.8336
23.0808
37.2106
52.1739
102.98
-0.0427761
-0.0567647
-0.0183923
0.000988137
0.0245728
0.0498349
0.0734177
0.0957219
0.107777
0.107487
0.0939996
0.0494295
-0.00315464
0.0609822
0.338471
0.602017
0.807197
0.994998
1.14667
1.30541
1.46266
1.57596
1.54468
1.44021
1.2249
0.941317
0.646565
0.467889
0.359177
0.337114
0.519989
0.758193
0.912345
0.983198
1.0376
1.08579
1.13307
1.15317
1.17823
1.17058
1.19006
1.19858
1.21715
1.22289
1.23917
1.25617
1.28246
1.32155
1.39006
1.48688
1.61241
1.76975
1.95938
2.14722
2.24979
2.23342
2.12404
2.09898
2.2885
2.5871
2.76993
2.44735
1.52598
0.151162
-0.786831
-0.143921
3.4088
12.668
22.4743
28.9969
33.9594
33.515
24.8961
20.5803
20.8235
28.1731
43.5865
60.0091
97.7115
-0.0475287
-0.0621345
-0.0201791
0.00213464
0.0284953
0.0565715
0.0829489
0.108032
0.123432
0.127275
0.118538
0.0875617
0.0490993
0.106465
0.388474
0.681852
0.909631
1.11834
1.2857
1.45794
1.62452
1.74724
1.70962
1.59312
1.3644
1.06212
0.736581
0.523439
0.39983
0.377456
0.571391
0.826452
0.993394
1.07107
1.13365
1.19071
1.24345
1.26793
1.2966
1.29118
1.31506
1.32602
1.34754
1.35545
1.37408
1.39275
1.42204
1.46515
1.53869
1.64161
1.77553
1.94423
2.14582
2.33406
2.409
2.34267
2.18966
2.16742
2.40308
2.75711
2.95807
2.55545
1.43852
-0.204942
-1.35828
-0.769792
3.20833
13.8158
24.7948
32.0125
37.5539
37.4286
28.9975
24.905
25.4463
33.7281
49.7439
66.3096
89.6768
-0.0519972
-0.0672398
-0.0219138
0.00351519
0.0327591
0.0637425
0.093048
0.121131
0.140362
0.149121
0.146191
0.12856
0.106226
0.160093
0.442394
0.763605
1.01396
1.24323
1.42609
1.61091
1.78502
1.91527
1.87134
1.74214
1.50111
1.18062
0.825787
0.579691
0.441559
0.418917
0.619879
0.887984
1.06661
1.15038
1.22132
1.28829
1.34762
1.37753
1.41023
1.40838
1.43768
1.45244
1.47799
1.48918
1.5109
1.53122
1.56241
1.60817
1.68562
1.79322
1.93389
2.1122
2.32258
2.50434
2.54077
2.41476
2.21653
2.20178
2.48781
2.90067
3.1175
2.62294
1.28772
-0.649663
-2.04985
-1.57803
2.80349
14.84
27.0101
34.9222
41.0516
41.3526
33.3686
29.6462
30.6625
39.6414
55.5099
71.1894
87.1388
-0.0559483
-0.0718857
-0.0235685
0.00509272
0.0373735
0.0714082
0.10383
0.135186
0.158724
0.173123
0.176999
0.17237
0.167251
0.221174
0.5008
0.847265
1.12031
1.36983
1.56809
1.76468
1.94439
2.08014
2.02918
1.88662
1.6355
1.29687
0.914031
0.636879
0.485048
0.461872
0.665608
0.94208
1.13124
1.22058
1.30002
1.37782
1.44497
1.48137
1.51829
1.52057
1.55511
1.57346
1.60249
1.61634
1.64028
1.66199
1.69586
1.74496
1.8261
1.93746
2.08391
2.27065
2.48689
2.6552
2.64218
2.44801
2.20477
2.20255
2.54328
3.0182
3.24781
2.64881
1.07321
-1.18082
-2.8613
-2.58264
2.17128
15.7252
29.111
37.716
44.4362
45.2644
37.9587
34.7297
36.3754
45.7795
60.9571
75.4878
84.7327
-0.0590211
-0.0757179
-0.0249992
0.00687423
0.042353
0.0796292
0.115392
0.150326
0.178634
0.199346
0.210975
0.219047
0.231484
0.288793
0.564137
0.932821
1.22876
1.49833
1.71196
1.91964
2.10294
2.24232
2.18303
2.02698
1.76744
1.41035
1.00111
0.695267
0.531036
0.506505
0.708777
0.988432
1.18667
1.2814
1.3696
1.45912
1.5355
1.57957
1.62131
1.62888
1.66933
1.69213
1.72502
1.74184
1.76858
1.79237
1.82867
1.88009
1.96373
2.07745
2.22812
2.42151
2.63976
2.78668
2.71266
2.44275
2.15576
2.17078
2.5701
3.10918
3.34663
2.63017
0.794046
-1.79534
-3.7914
-3.79877
1.28658
16.448
31.0946
40.3925
47.7018
49.1393
42.7095
40.1008
42.4604
52.0103
65.988
78.7422
83.6025
-0.0607998
-0.078287
-0.0259426
0.00891979
0.0476989
0.0884532
0.127821
0.166667
0.200192
0.227814
0.248066
0.268631
0.29847
0.3621
0.632602
1.02029
1.33936
1.62891
1.85801
2.07623
2.26112
2.4021
2.3327
2.16332
1.89629
1.52097
1.08701
0.754881
0.57983
0.552871
0.749753
1.02742
1.23262
1.33249
1.42988
1.53194
1.61902
1.67192
1.71906
1.7327
1.77903
1.80641
1.84298
1.8626
1.89171
1.91717
1.95594
2.00993
2.0959
2.21123
2.36494
2.56342
2.77968
2.89706
2.7505
2.39874
2.07027
2.10693
2.56843
3.17228
3.411
2.56496
0.45228
-2.48502
-4.83211
-5.23476
0.132377
16.9935
32.9563
42.9486
50.8376
52.9429
47.5457
45.6797
48.7796
58.193
70.4504
80.801
86.5603
-0.0609844
-0.0791348
-0.0259826
0.0114105
0.0534464
0.097912
0.141184
0.184296
0.223467
0.258526
0.288178
0.321124
0.367902
0.440323
0.706153
1.10976
1.45213
1.7617
2.00649
2.23493
2.41948
2.55988
2.47841
2.29594
2.02154
1.62854
1.17154
0.815567
0.631455
0.601025
0.78923
1.06004
1.26939
1.37371
1.48087
1.59626
1.69557
1.75842
1.81181
1.83257
1.88524
1.91775
1.95802
1.98042
2.01226
2.04005
2.0815
2.13744
2.22467
2.34036
2.49547
2.69692
2.90646
2.98551
2.7548
2.31641
1.94926
2.01133
2.53782
3.20501
3.43713
2.45163
0.0523112
-3.2368
-5.96854
-6.89053
-1.29749
17.3489
34.6786
45.3937
53.8371
56.6407
52.3947
51.3651
55.1888
64.1954
74.3823
81.9672
90.4951
-0.0596468
-0.0779066
-0.0245907
0.0146707
0.059711
0.108031
0.155532
0.203276
0.248505
0.291464
0.331175
0.376476
0.439587
0.522783
0.78464
1.2014
1.56702
1.89684
2.15766
2.39622
2.57873
2.71621
2.62042
2.42494
2.14301
1.73288
1.25436
0.876994
0.685624
0.651126
0.828377
1.08771
1.2976
1.40508
1.52265
1.65216
1.76516
1.83903
1.89955
1.92823
1.98735
2.02526
2.0692
2.09438
2.12888
2.15871
2.20254
2.26034
2.34853
2.46372
2.61889
2.82119
3.01896
3.05078
2.72457
2.19628
1.79354
1.88402
2.47692
3.20394
3.42126
2.29015
-0.3984
-4.0319
-7.17618
-8.75086
-2.98682
17.51
36.2689
47.7479
56.6926
60.1969
57.195
57.0568
61.5508
69.9107
77.7852
81.8572
92.1045
-0.0571419
-0.0745051
-0.0212428
0.0191527
0.0667267
0.118871
0.170894
0.223652
0.27533
0.3266
0.3769
0.434602
0.513405
0.608898
0.867852
1.29549
1.68398
2.03441
2.31175
2.56059
2.73966
2.87177
2.75918
2.55057
2.26069
1.83371
1.33491
0.938419
0.741832
0.703465
0.868548
1.11195
1.31798
1.42677
1.5554
1.69985
1.82798
1.91386
1.98248
2.01998
2.08591
2.12962
2.17717
2.2051
2.24242
2.27478
2.32113
2.38042
2.46867
2.58212
2.73575
2.93611
3.11657
3.09193
2.65931
2.03917
1.60396
1.72474
2.38329
3.16455
3.36001
2.08193
-0.889779
-4.848
-8.42033
-10.7803
-4.89861
17.5005
37.7908
50.0116
59.3977
63.5778
61.9002
62.675
67.7393
75.2412
80.6194
80.9358
92.4699
-0.0538481
-0.0692317
-0.0155857
0.0253701
0.0748355
0.130571
0.187297
0.245447
0.303954
0.363903
0.425204
0.495394
0.589279
0.698169
0.95552
1.39223
1.80292
2.17448
2.46895
2.72848
2.90305
3.0274
2.8952
2.67299
2.37463
1.93062
1.41234
0.998594
0.799431
0.758198
0.910859
1.13421
1.33124
1.43911
1.57939
1.73961
1.88424
1.98303
2.06074
2.10774
2.18066
2.23049
2.28168
2.31234
2.35233
2.38733
2.43602
2.49638
2.5842
2.69501
2.84571
3.041
3.19835
3.10808
2.55882
1.84624
1.38134
1.53277
2.2534
3.08148
3.2509
1.82991
-1.40934
-5.65929
-9.65497
-12.9179
-6.95087
17.367
39.3082
52.1643
61.9492
66.7491
66.4518
68.1609
73.6451
80.118
82.9314
79.9031
91.8389
-0.0500575
-0.0626349
-0.00764287
0.0337546
0.0844363
0.143352
0.2048
0.26867
0.334377
0.403343
0.475961
0.558741
0.667158
0.790169
1.04732
1.49177
1.92381
2.31712
2.62935
2.90024
3.06965
3.18396
3.02919
2.7924
2.48482
2.02293
1.48543
1.05585
0.857399
0.815183
0.955984
1.15565
1.33818
1.44257
1.59496
1.77184
1.93425
2.04679
2.13458
2.19172
2.27194
2.32816
2.38294
2.41608
2.45883
2.49675
2.54814
2.60929
2.69579
2.80273
2.94885
3.13544
3.26362
3.09872
2.42319
1.6186
1.1264
1.30678
2.08266
2.94891
3.09248
1.53813
-1.94274
-6.4362
-10.8268
-15.0721
-8.99344
17.1815
40.8373
54.1893
64.3479
69.6864
70.7543
73.4427
79.1822
84.5083
84.7752
78.969
90.9164
-0.0459782
-0.0552693
0.00219033
0.0444632
0.0959109
0.15749
0.223506
0.293331
0.366594
0.444894
0.529063
0.624526
0.746996
0.884527
1.14292
1.59418
2.04667
2.46237
2.79306
3.07616
3.24009
3.34231
3.16197
2.90911
2.59124
2.10975
1.55261
1.10827
0.914249
0.873971
1.00416
1.17693
1.3396
1.43775
1.60256
1.79699
1.97838
2.10543
2.20426
2.27199
2.3597
2.42255
2.48093
2.51635
2.56234
2.60297
2.65682
2.71854
2.80311
2.90509
3.04478
3.21876
3.31161
3.06312
2.25278
1.35785
0.839776
1.04469
1.86553
2.76126
2.8843
1.21142
-2.47428
-7.14526
-11.8823
-17.1044
-10.8375
17.0464
42.388
56.1082
66.5986
72.3937
74.7283
78.4186
84.2918
88.4056
86.1818
77.9621
89.8638
-0.0417545
-0.0475802
0.0133602
0.0573141
0.109491
0.173266
0.24356
0.319462
0.400598
0.488528
0.584423
0.692638
0.828745
0.980919
1.24198
1.69957
2.17162
2.61029
2.96011
3.25642
3.4149
3.50322
3.29447
3.02365
2.69388
2.18995
1.612
1.15377
0.968229
0.933772
1.05525
1.19829
1.33622
1.42536
1.60274
1.81559
2.01707
2.15931
2.27013
2.34874
2.44419
2.51382
2.5758
2.61372
2.66367
2.70683
2.76257
2.82443
2.90637
3.00228
3.13355
3.29086
3.34194
3.00069
2.05101
1.06585
0.521566
0.743511
1.59581
2.51367
2.62663
0.854928
-2.98739
-7.74972
-12.7595
-18.8121
-12.3244
17.0737
43.9797
57.9745
68.6997
74.8916
78.3703
83.0124
88.9401
91.8175
87.2498
76.9904
88.5875
-0.0374718
-0.0398469
0.025312
0.0719257
0.125188
0.1909
0.265143
0.347126
0.436379
0.534217
0.641966
0.76297
0.912345
1.07906
1.34419
1.80801
2.29883
2.7609
3.13054
3.44115
3.59449
3.66729
3.42751
3.13663
2.79268
2.26224
1.66145
1.19012
1.01758
0.993514
1.10881
1.21949
1.32852
1.40615
1.59614
1.82821
2.05079
2.20881
2.3325
2.42214
2.5255
2.602
2.66763
2.70886
2.76323
2.80894
2.86593
2.92702
3.00535
3.09402
3.21488
3.35091
3.35558
2.91194
1.82215
0.743705
0.171819
0.399221
1.26712
2.20221
2.32012
0.473833
-3.46541
-8.21459
-13.383
-20.0004
-13.3213
17.3858
45.641
59.8318
70.6382
77.1978
81.7127
87.2041
93.1154
94.7715
88.0465
76.044
87.1104
-0.0331616
-0.0321773
0.0376022
0.0878329
0.142844
0.210523
0.288432
0.376405
0.473947
0.581934
0.70163
0.835421
0.997721
1.1787
1.44926
1.91959
2.42846
2.91426
3.30439
3.63041
3.77917
3.83499
3.56181
3.24874
2.88747
2.32519
1.69851
1.21511
1.06062
1.052
1.16412
1.23997
1.31675
1.38091
1.5835
1.8355
2.08009
2.25438
2.3917
2.49239
2.60383
2.68717
2.75646
2.80212
2.86116
2.90961
2.96767
3.02727
3.10076
3.18049
3.28839
3.39924
3.35236
2.79826
1.5681
0.391934
-0.210182
0.00704821
0.873259
1.82397
1.96541
0.073005
-3.8928
-8.50971
-13.685
-20.546
-13.6677
18.1023
47.4051
61.6898
72.4119
79.3413
84.7809
90.9948
96.8242
97.3069
88.6413
75.2269
85.5046
-0.0288085
-0.0245368
0.0499817
0.104591
0.16218
0.232163
0.313581
0.407396
0.513319
0.631652
0.763359
0.909897
1.08478
1.27964
1.55694
2.03433
2.56068
3.07042
3.48174
3.8242
3.96919
4.00667
3.69791
3.36047
2.97797
2.37713
1.72039
1.22648
1.09575
1.10816
1.22028
1.25901
1.30101
1.35049
1.56569
1.83816
2.10553
2.29648
2.44806
2.55971
2.67936
2.76939
2.84253
2.89369
2.95759
3.00896
3.06807
3.12575
3.19346
3.26248
3.3545
3.43759
3.33172
2.66033
1.28949
0.00921817
-0.626033
-0.438234
0.408641
1.37676
1.56285
-0.343283
-4.25649
-8.61248
-13.613
-20.3603
-13.2247
19.3125
49.3004
63.543
74.061
81.3467
87.5845
94.392
100.086
99.47
89.1296
74.7174
83.6579
-0.024358
-0.0167962
0.0623983
0.121879
0.18286
0.255728
0.340696
0.4402
0.554524
0.683352
0.827101
0.986303
1.17341
1.38167
1.66701
2.15228
2.69565
3.22944
3.66266
4.0225
4.16472
4.18254
3.8362
3.47216
3.06382
2.41621
1.72394
1.22166
1.12163
1.16109
1.27635
1.27582
1.28141
1.31585
1.54367
1.83696
2.12771
2.3356
2.50191
2.62434
2.75227
2.8488
2.92637
2.98372
3.05264
3.10712
3.16728
3.22275
3.28399
3.34088
3.41462
3.46654
3.29462
2.49871
0.986606
-0.406763
-1.07801
-0.941878
-0.131479
0.858813
1.1123
-0.771654
-4.54723
-8.51046
-13.1321
-19.3768
-11.8942
21.0735
51.3429
65.3884
75.6407
83.2233
90.1312
97.4133
102.934
101.321
89.5296
74.1023
81.7106
-0.0197339
-0.00879087
0.0749405
0.139544
0.204575
0.281033
0.369814
0.474917
0.5976
0.737019
0.892809
1.06455
1.2635
1.48466
1.77927
2.27347
2.83351
3.39135
3.84719
4.22519
4.36586
4.36277
3.97695
3.58401
3.14453
2.4405
1.70581
1.1978
1.13705
1.20988
1.33153
1.28972
1.25829
1.27812
1.51855
1.83274
2.14727
2.37224
2.55359
2.68657
2.82274
2.92545
3.00849
3.07234
3.14645
3.20422
3.26542
3.31845
3.37254
3.41614
3.4695
3.48619
3.24148
2.31477
0.660221
-0.855154
-1.5688
-1.50886
-0.750923
0.268425
0.613036
-1.20993
-4.76064
-8.20288
-12.2321
-17.5742
-9.59274
23.4174
53.5306
67.2247
77.1789
84.9835
92.4448
100.088
105.408
102.91
89.8956
73.6124
79.8936
-0.014854
-0.000361863
0.0877632
0.157568
0.227109
0.307851
0.400897
0.511625
0.642583
0.792636
0.960435
1.14453
1.35491
1.58847
1.89355
2.39789
2.97438
3.55617
4.03533
4.43214
4.57262
4.54745
4.12036
3.69617
3.21962
2.44805
1.66264
1.15195
1.14068
1.25376
1.38514
1.3002
1.23227
1.23865
1.49155
1.82641
2.16487
2.40693
2.60343
2.74669
2.89091
2.99944
3.08915
3.15969
3.23917
3.3004
3.36267
3.41303
3.45934
3.48852
3.51942
3.49692
3.17285
2.11013
0.311457
-1.33095
-2.10206
-2.14358
-1.45272
-0.396345
0.0636291
-1.65742
-4.89794
-7.70042
-10.9296
-15.001
-6.31051
26.3248
55.8369
69.0468
78.686
86.6453
94.5535
102.453
107.553
104.291
90.356
73.4252
77.7149
-0.0096417
0.0086227
0.101027
0.176026
0.250356
0.335964
0.433844
0.550361
0.68952
0.85019
1.02992
1.22613
1.44752
1.69298
2.00973
2.52553
3.11833
3.7239
4.22699
4.64319
4.78487
4.73664
4.26661
3.80872
3.28863
2.43709
1.59153
1.08141
1.13115
1.29204
1.43626
1.30683
1.20422
1.19895
1.46396
1.81895
2.18117
2.44018
2.65181
2.80499
2.95694
3.07125
3.16855
3.24594
3.33097
3.39583
3.45919
3.5067
3.54465
3.55834
3.56476
3.49926
3.08993
1.88717
-0.0574241
-1.82835
-2.68131
-2.84973
-2.2393
-1.13792
-0.538121
-2.11508
-4.96571
-7.02371
-9.2633
-11.7743
-2.1839
29.6958
58.2041
70.8413
80.1682
88.2276
96.4865
104.547
109.419
105.524
90.8344
72.8412
75.6507
-0.0040337
0.0182626
0.11487
0.195028
0.274297
0.365207
0.468515
0.591119
0.738456
0.909667
1.10118
1.30924
1.54117
1.79809
2.1277
2.65631
3.26534
3.89442
4.422
4.85808
5.00237
4.93026
4.41583
3.9217
3.35123
2.40616
1.49034
0.984198
1.10727
1.32401
1.48367
1.30921
1.17512
1.16058
1.43708
1.81136
2.19689
2.47253
2.69908
2.8618
3.02105
3.14151
3.24687
3.33126
3.42201
3.49068
3.55518
3.59968
3.62876
3.62595
3.60597
3.49382
2.99378
1.6479
-0.444066
-2.34561
-3.309
-3.63023
-3.1128
-1.9594
-1.19527
-2.58558
-4.97464
-6.20105
-7.28657
-8.03493
2.55715
33.3795
60.5632
72.5975
81.6311
89.7509
98.272
106.412
111.056
106.647
91.437
72.5038
73.8235
0.00201793
0.0286329
0.129396
0.21469
0.298972
0.395479
0.504766
0.633852
0.789422
0.971052
1.17415
1.39371
1.63574
1.90373
2.24739
2.7901
3.41532
4.06752
4.62002
5.07649
5.22474
5.1281
4.56811
4.03519
3.40725
2.35441
1.35815
0.859447
1.06834
1.34898
1.52595
1.30684
1.14595
1.12498
1.41215
1.80463
2.21273
2.50452
2.74563
2.91739
3.08341
3.21065
3.32427
3.41586
3.51248
3.58512
3.65084
3.69223
3.71198
3.69177
3.64357
3.48136
2.88571
1.39393
-0.84805
-2.88576
-3.98923
-4.48704
-4.07526
-2.8647
-1.91181
-3.07327
-4.93832
-5.2655
-5.06225
-3.91336
7.69155
37.2329
62.8704
74.3161
83.08
91.2344
99.9355
108.084
112.512
107.719
92.1639
71.8168
72.1487
0.00854679
0.0397912
0.144678
0.235106
0.324449
0.426738
0.542467
0.678488
0.842421
1.03434
1.24877
1.47944
1.7311
2.00985
2.36874
2.9267
3.5681
4.2429
4.82061
5.29795
5.45145
5.3298
4.72345
4.1493
3.4567
2.28171
1.19532
0.707683
1.01438
1.36623
1.56156
1.29917
1.11754
1.09335
1.39028
1.79975
2.22939
2.53664
2.79177
2.97201
3.14422
3.27892
3.40093
3.49993
3.60255
3.67935
3.74636
3.7846
3.79465
3.75623
3.67812
3.46271
2.76714
1.12691
-1.26931
-3.45207
-4.72609
-5.42139
-5.12876
-3.85874
-2.6928
-3.58398
-4.87279
-4.25201
-2.65963
0.466354
13.0377
41.1387
65.1115
76.0033
84.5219
92.6927
101.499
109.597
113.828
108.77
93.0756
72.0477
71.1793
0.0155755
0.0517844
0.160765
0.256338
0.3508
0.45899
0.581523
0.724941
0.897436
1.09952
1.32494
1.56627
1.82709
2.11644
2.49165
3.06582
3.72338
4.4201
5.02316
5.52182
5.68181
5.53488
4.88181
4.26422
3.49984
2.1887
1.00359
0.530937
0.946354
1.37506
1.5889
1.28567
1.09054
1.06657
1.37241
1.79763
2.24753
2.56943
2.83786
3.02587
3.20391
3.34659
3.47707
3.58366
3.69241
3.77356
3.84199
3.87706
3.87714
3.81983
3.71028
3.43884
2.63957
0.848503
-1.70744
-4.04691
-5.52178
-6.43376
-6.27554
-4.94761
-3.54473
-4.1246
-4.79608
-3.19535
-0.150439
4.97762
18.4353
45.0015
67.2819
77.6671
85.9656
94.1361
102.982
110.982
115.04
109.838
94.2087
72.3779
70.1701
0.0231199
0.0646563
0.177692
0.278426
0.378086
0.492263
0.621876
0.773126
0.954429
1.16658
1.4026
1.65405
1.92356
2.2235
2.61602
3.20712
3.88076
4.59858
5.2269
5.74733
5.91499
5.74275
5.04306
4.38033
3.53729
2.07689
0.786059
0.332806
0.866234
1.37498
1.60656
1.26604
1.06544
1.04516
1.35927
1.79917
2.26781
2.60336
2.88422
3.07922
3.26297
3.41389
3.55289
3.66727
3.78226
3.86793
3.93793
3.96991
3.95982
3.88307
3.74072
3.41076
2.50461
0.560393
-2.16192
-4.67196
-6.37691
-7.52394
-7.518
-6.13866
-4.47572
-4.7026
-4.7272
-2.12822
2.39696
9.49772
23.7467
48.7456
69.3712
79.3167
87.4162
95.57
104.398
112.262
116.177
110.952
95.5564
73.1864
69.9823
0.0311922
0.0784532
0.195491
0.301387
0.406342
0.526592
0.663499
0.822971
1.01335
1.23546
1.48166
1.74268
2.02038
2.33109
2.74171
3.35014
4.03974
4.77765
5.43094
5.97347
6.14998
5.95276
5.20706
4.49824
3.57015
1.9488
0.547445
0.118594
0.776981
1.3658
1.6134
1.2403
1.04257
1.02935
1.35142
1.80517
2.29082
2.63878
2.93109
3.13229
3.32171
3.48107
3.62865
3.75096
3.87227
3.96267
4.03442
4.06344
4.04311
3.94651
3.77018
3.37958
2.36396
0.264344
-2.63193
-5.32808
-7.29193
-8.6911
-8.85866
-7.44047
-5.49568
-5.32577
-4.68473
-1.07975
4.92157
13.9203
28.8671
52.307
71.3637
80.9566
88.875
96.9958
105.756
113.459
117.261
112.122
97.1374
75.3156
70.4574
0.0398025
0.0932274
0.214193
0.325226
0.435588
0.562008
0.706386
0.874421
1.07413
1.30612
1.56201
1.83199
2.11741
2.43927
2.8685
3.49436
4.19969
4.95657
5.63419
6.19905
6.38563
6.16417
5.37373
4.61889
3.6002
1.80838
0.294481
-0.104503
0.68248
1.34761
1.60878
1.20896
1.02224
1.01922
1.34934
1.81646
2.31705
2.67628
2.97866
3.1852
3.38036
3.54838
3.70456
3.83493
3.96263
4.05797
4.13168
4.15794
4.12742
4.0107
3.79945
3.3465
2.21938
-0.037775
-3.11631
-6.01589
-8.26867
-9.93376
-10.3
-8.86277
-6.6164
-6.002
-4.68593
-0.0745123
7.37167
18.1562
33.7102
55.6436
73.2496
82.5859
90.3409
98.4112
107.062
114.587
118.306
113.362
98.9235
77.5039
71.1908
0.0489599
0.10904
0.233828
0.349943
0.465829
0.598535
0.750546
0.927438
1.13673
1.37847
1.64351
1.92177
2.21452
2.54811
2.99614
3.63919
4.3599
5.13448
5.83547
6.42265
6.62064
6.37621
5.54311
4.74354
3.63002
1.6614
0.0364786
-0.327251
0.587383
1.32079
1.59257
1.17313
1.00488
1.01493
1.35353
1.83389
2.34692
2.71657
3.02715
3.23818
3.43917
3.61608
3.78087
3.91935
4.05349
4.15399
4.22993
4.25373
4.21317
4.07623
3.82934
3.31277
2.07276
-0.343962
-3.61352
-6.73535
-9.3046
-11.2497
-11.8442
-10.4161
-7.85189
-6.73913
-4.74604
0.86822
9.70821
22.1426
38.2211
58.7537
75.032
84.2017
91.8119
99.8107
108.315
115.654
119.321
114.668
100.91
79.9197
72.8366
0.0586758
0.125966
0.254434
0.375532
0.497062
0.636183
0.795989
0.982
1.20107
1.45238
1.72597
2.01181
2.3116
2.65763
3.1243
3.78396
4.51952
5.31043
6.03348
6.64273
6.85363
6.58802
5.71536
4.87371
3.66309
1.51578
-0.214361
-0.538413
0.496901
1.28584
1.56481
1.13461
0.991149
1.01682
1.36465
1.85815
2.38116
2.76006
3.0768
3.29156
3.49839
3.68444
3.8578
4.00439
4.14503
4.2509
4.32939
4.3511
4.30079
4.14373
3.86073
3.27975
1.92607
-0.652071
-4.12166
-7.48507
-10.3893
-12.6364
-13.4933
-12.1114
-9.21864
-7.54526
-4.87752
1.73417
11.9053
25.8462
42.3782
61.6534
76.7451
85.804
93.2863
101.186
109.513
116.666
120.311
116.034
103.083
83.0211
75.0588
0.0689659
0.144096
0.276051
0.401989
0.529277
0.674952
0.842724
1.0381
1.2671
1.52772
1.80919
2.10189
2.40863
2.76778
3.25262
3.92792
4.67762
5.48335
6.22676
6.85761
7.08311
6.7987
5.89071
5.01107
3.70372
1.38163
-0.443137
-0.72511
0.416485
1.24337
1.52569
1.09568
0.981935
1.02555
1.38393
1.88987
2.42055
2.80679
3.12771
3.34558
3.55827
3.75373
3.93555
4.0902
4.23735
4.34885
4.43025
4.45035
4.39072
4.21381
3.89455
3.24886
1.78136
-0.959805
-4.63847
-8.2622
-11.5125
-14.0919
-15.2487
-13.9598
-10.7357
-8.42966
-5.08925
2.51338
13.9487
29.2569
46.1889
64.3623
78.4332
87.3978
94.7621
102.529
110.651
117.623
121.276
117.45
105.414
86.2542
77.7329
0.0798533
0.163537
0.298725
0.429313
0.562462
0.714834
0.890756
1.09573
1.33473
1.6043
1.89295
2.19182
2.5056
2.87843
3.38062
4.07028
4.83319