/*--------------------------------*- C++ -*----------------------------------*\
| =========                 |                                                 |
| \\      /  F ield         | OpenFOAM: The Open Source CFD Toolbox           |
|  \\    /   O peration     | Version:  4.1                                   |
|   \\  /    A nd           | Web:      www.OpenFOAM.org                      |
|    \\/     M anipulation  |                                                 |
\*---------------------------------------------------------------------------*/
FoamFile
{
    version     2.0;
    format      ascii;
    class       surfaceScalarField;
    location    "11";
    object      phi;
}
// * * * * * * * * * * * * * * * * * * * * * * * * * * * * * * * * * * * * * //

dimensions      [0 3 -1 0 0 0 0];

internalField   nonuniform List<scalar> 
13220
(
-882.7
2182.6
-1362.84
1780.33
-1820.18
1757.24
-2164.59
1644.3
-2427.82
1563.43
-2610.78
1482.86
-2714.86
1403.97
-2739.33
1324.67
-2684.32
1244.88
-2551.52
1167.1
-2346.92
1095.6
-2065.12
1018.1
-1660.59
895.361
-1051.31
690.918
248.591
3.30047
2179.29
-30.1462
1813.77
-144.995
1872.09
-224.523
1723.82
-305.321
1644.23
-364.811
1542.34
-404.532
1443.69
-421.375
1341.51
-415.062
1238.57
-382.905
1134.94
-321.384
1034.07
-245.204
941.918
-191.537
841.688
-144.94
644.309
103.649
-148.18
2327.47
-362.414
2028.01
-560.608
2070.28
-698.38
1861.59
-828.452
1774.29
-925.683
1639.57
-1005.04
1523.04
-1067.27
1403.74
-1103.13
1274.42
-1070.4
1102.2
-897.727
861.395
-562.674
606.83
-205.887
484.854
-6.741
445.033
96.9086
-62.9391
2390.41
-189.695
2154.76
-287.666
2168.25
-357.542
1931.47
-434.311
1851.06
-492.164
1697.42
-548.427
1579.3
-599.849
1455.16
-646.922
1321.49
-664.683
1119.96
-592.101
788.804
-354.781
369.531
-17.8228
147.917
213.837
213.406
310.746
55.8905
2334.52
-29.7568
2240.41
-56.8111
2195.31
-76.7688
1951.43
-103.386
1877.68
-124.221
1718.26
-148.645
1603.73
-174.785
1481.31
-211.745
1358.46
-283.183
1191.41
-414.454
920.091
-574.54
529.598
-605.741
179.111
-401.587
9.24475
-90.8408
149.549
2184.98
95.2624
2294.7
111.117
2179.46
134.575
1927.98
164.051
1848.21
194.523
1687.79
231.462
1566.79
272.007
1440.77
312.905
1317.57
325.837
1178.48
255.297
990.627
50.7506
734.18
-186.343
416.271
-195.941
18.9233
-286.782
170.487
2014.49
160.553
2304.64
190.743
2149.27
230.575
1888.15
282.104
1796.69
330.155
1639.75
383.62
1513.34
441.718
1382.67
503.325
1255.96
555.291
1126.52
567.075
978.845
497.989
803.275
338.107
576.168
79.5092
277.547
-207.273
131.065
1883.43
153.693
2282.02
184.905
2118.07
218.91
1854.15
263.844
1751.76
302.674
1600.92
341.086
1474.93
378.517
1345.25
414.474
1220.01
442.893
1098.1
452.095
969.646
424.222
831.151
340.644
659.748
181.782
436.417
-25.49
76.8233
1806.62
130.511
2228.33
170.028
2078.55
208.119
1816.07
250.88
1709.01
288.253
1563.55
321.285
1441.9
346.292
1320.24
364.186
1202.12
374.888
1087.41
372.512
972.022
348.546
855.135
286.809
721.503
164.265
559.008
138.774
23.8831
1782.73
105.184
2147.03
159.999
2023.74
210.666
1765.4
258.428
1661.25
308.436
1513.55
351.618
1398.72
392.078
1279.78
426.486
1167.71
452.935
1060.96
459.8
965.162
432.161
882.757
352.358
801.293
212.395
698.948
351.17
-28.3954
1811.13
40.8498
2077.79
105.389
1959.2
146.874
1723.91
187.032
1621.09
244.517
1456.06
317.487
1325.75
413.022
1184.24
506.383
1074.35
579.098
988.241
606.834
937.42
567.162
922.438
445.435
923.024
259.857
884.532
611.026
-4.73214
1815.86
-58.1519
2131.2
-45.321
1946.36
-56.391
1734.98
-69.5912
1634.28
-58.1013
1444.56
3.27755
1264.36
114.38
1073.14
239.459
949.266
352.107
875.584
424.268
865.259
427.27
919.415
343.463
1006.82
191.75
1036.23
802.776
196.08
1619.77
81.4658
2245.82
-37.8617
2065.69
-111.172
1808.28
-163.43
1686.54
-224.28
1505.41
-267.524
1307.6
-278.269
1083.88
-261.313
932.306
-218.305
832.573
-146.363
793.314
-58.7669
831.82
8.2129
939.836
19.4463
1024.99
822.222
512.945
1106.83
611.069
2147.69
400.29
2276.46
118.309
2090.26
-109.47
1914.31
-319.492
1715.43
-520.549
1508.66
-721.579
1284.9
-893.552
1104.28
-1012.19
951.211
-1039.08
820.203
-934.689
727.419
-690.359
695.5
-352.763
687.387
469.459
692.075
1669.41
2284.52
2598.98
2704.46
2658.85
2472.81
2179.49
1799.44
1393.21
978.762
601.204
335.347
171.236
-2.35192e-05
104.497
-104.497
104.497
104.497
104.497
196.158
-91.6618
196.158
196.158
196.158
265.623
-69.4651
265.623
265.623
322.592
-56.9683
322.592
322.591
322.591
375.673
-53.0811
375.672
375.672
420.539
-44.867
420.539
420.539
420.539
459.442
-38.9027
459.442
459.442
459.442
493.346
-33.9043
493.346
493.346
518.771
-25.4251
518.771
518.771
518.771
541.685
-22.914
541.685
541.685
558.637
-16.9524
558.637
558.637
558.637
567.539
-8.90211
567.539
567.539
567.539
580.059
-12.5195
580.059
580.058
648.651
-68.5921
648.651
648.65
648.65
664.613
-15.963
664.613
664.613
664.613
538.411
126.202
538.411
538.411
301.367
237.044
301.366
301.366
301.366
-13.2037
314.57
-13.2037
-13.2038
-913.724
900.52
-913.724
-913.724
-913.724
-2343.74
1430.01
-2343.74
-2343.74
-2343.74
-4207.66
1863.92
-4207.66
-4207.66
-6398.63
2190.97
-6398.63
-6398.63
-6280.35
-6164.52
-6046.1
-8333.11
2409.43
-8208.32
-8062.73
-7902.18
-7740.84
-7578.7
-7419.25
-7257.44
-7081.77
-9474.44
2566.28
-9286.21
-9100.53
-8916.39
-8710.81
-8503.67
-8295.84
-8087.53
-7877.89
-10318
2654.88
-10086.8
-9854.13
-9620.63
-9386.12
-9144.49
-8890.18
-8634.72
-8376.85
-8117.47
-10503.9
2635.28
-10227.8
-9949.9
-9671.23
-9392.53
-9113.73
-8820.76
-8518.98
-8217.16
-10290.3
2361.62
-9996.88
-9695.21
-9378.55
-9061.3
-8743.12
-8424.9
-8105.07
-7763.12
-9358.01
1924.13
-9029.57
-8702.8
-8377.52
-8037.28
-7692.28
-7350.37
-7010.03
-6674.87
-7483.72
1142.91
-7145.72
-6811.85
-6480.15
-6151.63
-5827.48
-5501.31
-5180.64
-4866.37
-4563.22
-4226.03
-33.8274
-3963.11
-3725.1
-3497.96
-3283.78
-3081.74
-2927.87
-2857.06
-2786.09
-1730.93
-965.94
-1657.04
-1588.87
-1588.87
-797.919
-790.948
-164.627
-633.292
-164.627
412.836
-577.463
412.836
882.922
-470.086
1336.15
-453.229
1336.15
1742.82
-406.671
2107.32
-364.498
2107.32
2427.15
-319.833
2427.15
2710.43
-283.276
2926.24
-215.817
2926.24
3123.26
-197.014
3123.26
3310.06
-186.804
3414.89
-104.829
3414.89
3511.3
-96.4103
3521.64
-10.3419
3521.64
3513.61
8.03365
3513.61
3503.37
10.2433
3409.67
93.6909
3409.67
3319.51
90.1667
3319.51
3239.73
79.7752
3096.13
143.6
3096.13
3013.8
82.3279
2888.11
125.691
2888.11
2836.86
51.258
2836.86
2770.49
66.3614
2678.12
92.3763
2678.12
2594.01
84.103
2594.01
2479.46
114.554
2335.69
143.773
2335.69
2164.27
171.416
1953.86
210.411
1953.86
1704.26
249.595
1704.26
1399.91
304.353
1065.13
334.778
1065.13
675.875
389.258
675.875
234.536
441.339
-369.002
603.538
-369.002
-1186.25
817.248
-2203.26
1017.01
-2203.26
-3409.71
1206.44
-3409.71
-4871.06
1461.36
-6479.57
1608.5
-6479.57
-8337.6
1858.04
-8337.6
-10527
2189.4
-12766.8
2239.76
-12766.8
-15445.8
2679.07
-18098.6
2652.75
-18098.6
-21103.8
3005.25
-21103.8
3504.99
134.293
-316.576
139.528
-307.024
143.083
-314.488
144.418
-324.116
144.321
-329.995
144.145
-329.737
145.017
-322.574
147.982
-307.399
159.281
-275.828
191.566
-240.755
218.187
-347.238
184.267
-853.707
121.177
-1655
96.7511
-2270.7
105.889
-2477.46
116.63
-2470.21
115.887
-2453.74
104.449
-2512.32
93.3705
-2616.66
91.6799
-2659.49
92.3134
-2564.97
95.8676
-2327.29
105.152
-1932.27
117.225
-1493.11
138.246
-1276.95
149.085
-1458.19
120.27
-1846.46
59.9635
-2117.56
13.3249
-2244.83
1.78199
-2281.32
10.4486
-2207.97
28.0483
-2013.61
45.6447
-1769.09
51.5418
-1553.46
39.963
-1439.2
19.8186
-1374.22
-7.97472
-1297.3
-36.6888
-1199.17
-62.0427
-1027.95
-89.0232
-856.65
-115.74
-714.756
-144.772
-595.242
-173.575
-499.171
-196.35
-449.169
-211.837
-472.99
-225.267
-531.558
-241.823
-592.132
-261.945
-647.33
-283.402
-711.308
-305.167
-792.493
-327.254
-893.942
-349.596
-1021.2
-372.342
-1180.79
-396.895
-1372.76
-426.755
-1588.95
-465.107
-1819.55
-507.56
-2069.9
-537.248
-2374.82
-532.785
-2773.19
-483.41
-3250.31
-393.969
-3726.29
-277.145
-4087.25
-147.66
-4232.66
-21.8904
-4079.56
82.3016
-3673.8
151.114
-3098.19
177.345
-2593.67
167.706
-2406.92
136.357
-2762.98
66.47
-3441.97
-58.952
-4354.17
-237.954
-5348.6
-507.209
-4709.43
-797.503
-1562.87
-1015.57
1145.98
-1363.2
3447.05
-2060.1
7331.68
-3039.19
13853.5
21731.3
151.874
-319.023
156.06
-311.21
159.107
-317.536
160.889
-325.899
161.945
-331.051
163.284
-331.075
166.078
-325.368
171.998
-313.319
186.957
-290.787
220.589
-274.387
250.181
-376.83
219.014
-822.54
146.588
-1582.58
108.751
-2232.87
113.154
-2481.87
124.563
-2481.62
125.067
-2454.25
113.233
-2500.49
100.163
-2603.59
97.858
-2657.18
100.657
-2567.77
105.931
-2332.56
121.303
-1947.64
143.877
-1515.68
167.606
-1300.68
172.458
-1463.04
138.714
-1812.72
79.2928
-2058.14
33.2747
-2198.82
19.4299
-2267.48
24.574
-2213.12
37.0905
-2026.12
50.3597
-1782.36
54.8866
-1557.99
42.8158
-1427.13
21.992
-1353.4
-5.96041
-1269.34
-35.0718
-1170.05
-60.547
-1002.47
-86.2335
-830.964
-109.024
-691.966
-131.629
-572.637
-154.485
-476.315
-175.126
-428.528
-192.821
-455.295
-210.918
-513.461
-232.31
-570.74
-255.902
-623.738
-279.816
-687.394
-304.163
-768.145
-329.24
-868.865
-354.782
-995.658
-380.928
-1154.64
-409.579
-1344.11
-445.494
-1553.04
-492.517
-1772.53
-543.705
-2018.71
-576.809
-2341.72
-567.547
-2782.46
-508.026
-3309.83
-407.66
-3826.65
-280.511
-4214.4
-140.771
-4372.4
-5.75601
-4214.58
104.569
-3784.13
173.373
-3167
187.891
-2608.19
153.873
-2372.9
94.9255
-2704.03
3.59213
-3350.64
-123.275
-4227.31
-289.897
-5181.98
-532.994
-4466.33
-795.454
-1300.41
-1035.34
1385.86
-1435.16
3846.87
-2177.92
8074.44
-3107.43
14783
21629.1
163.532
-321.136
167.068
-314.746
169.703
-320.171
171.46
-327.655
172.92
-332.512
174.975
-333.13
178.698
-329.091
185.806
-320.427
201.395
-306.375
233.051
-306.043
263.117
-406.896
238.5
-797.923
166.183
-1510.26
119.698
-2186.38
118.517
-2480.68
129.294
-2492.39
130.767
-2455.72
119.372
-2489.09
105.304
-2589.52
101.866
-2653.74
106.194
-2572.1
112.757
-2339.12
130.185
-1965.07
158.719
-1544.21
185.104
-1327.06
187.646
-1465.58
153.25
-1778.32
96.4353
-2001.33
50.5113
-2152.89
34.2779
-2251.25
38.3359
-2217.18
48.9528
-2036.74
58.4208
-1791.82
60.1105
-1559.68
46.6196
-1413.64
24.3836
-1331.16
-4.12222
-1240.84
-33.8676
-1140.31
-60.3544
-975.983
-86.8034
-804.515
-109.985
-668.784
-131.481
-551.141
-152.28
-455.516
-172.495
-408.313
-192.904
-434.885
-215.216
-491.149
-239.424
-546.532
-263.632
-599.53
-287.66
-663.366
-312.751
-743.054
-338.968
-842.649
-365.813
-968.813
-393.67
-1126.78
-425.456
-1312.32
-467.208
-1511.28
-521.615
-1718.12
-576.601
-1963.73
-605.454
-2312.87
-586.224
-2801.69
-517.389
-3378.66
-410.946
-3933.1
-278.881
-4346.47
-133.687
-4517.59
6.40625
-4354.67
119.814
-3897.53
187.284
-3234.47
191.51
-2612.42
137.402
-2318.79
56.4096
-2623.04
-47.366
-3246.87
-170.004
-4104.67
-332.199
-5019.78
-571.02
-4227.51
-813.91
-1057.52
-1073.82
1645.77
-1540.38
4313.43
-2325.95
8860.01
-3104.63
15561.7
21177.3
176.328
-322.971
179.338
-317.756
181.663
-322.496
183.413
-329.405
185.202
-334.3
187.878
-335.806
192.462
-333.675
200.615
-328.58
216.641
-322.401
246.582
-335.984
276.978
-437.292
258.703
-779.649
187.601
-1439.16
132.994
-2131.77
125.48
-2473.17
135.105
-2502.02
137.389
-2458
126.409
-2478.11
111.332
-2574.44
106.637
-2649.05
112.262
-2577.72
120.355
-2347.22
139.021
-1983.73
171.406
-1576.6
200.432
-1356.09
202.687
-1467.84
168.831
-1744.46
114.542
-1947.04
68.2322
-2106.58
48.9062
-2231.92
51.6956
-2219.96
61.4554
-2046.5
68.0398
-1798.41
66.6231
-1558.26
51.2808
-1398.3
27.3827
-1307.27
-1.88622
-1211.57
-32.2498
-1109.95
-59.3903
-948.843
-85.8358
-778.069
-109.033
-645.587
-130.27
-529.904
-150.628
-435.158
-171.203
-387.739
-193.115
-412.974
-216.831
-467.433
-241.375
-521.987
-265.774
-575.132
-290.929
-638.211
-317.725
-716.257
-345.72
-814.654
-374.441
-940.092
-404.691
-1096.53
-440.606
-1276.4
-489.225
-1462.67
-551.067
-1656.28
-608.648
-1906.15
-632.606
-2288.91
-604.934
-2829.36
-529.228
-3454.37
-417.799
-4044.53
-280.234
-4484.03
-128.555
-4669.27
17.4093
-4500.64
134.571
-4014.7
201.281
-3301.18
196.234
-2607.37
124.376
-2246.94
22.4774
-2521.14
-95.8465
-3128.54
-220.431
-3980.08
-384.133
-4856.08
-623.116
-3988.53
-857.476
-823.16
-1143.51
1931.8
-1672.07
4841.99
-2475.34
9663.28
-3126.03
16212.4
20730.3
188.776
-324.533
191.296
-320.276
193.319
-324.52
195.027
-331.113
197.029
-336.303
200.14
-338.917
205.371
-338.906
214.308
-337.517
230.37
-338.464
257.961
-363.575
287.527
-466.858
275.881
-768.002
208.87
-1372.14
147.866
-2070.77
133.327
-2458.63
141.002
-2509.69
143.897
-2460.9
133.558
-2467.77
117.702
-2558.59
111.541
-2642.89
118.025
-2584.21
127.622
-2356.81
146.703
-2002.81
181.269
-1611.16
212.424
-1387.24
215.489
-1470.9
183.771
-1712.75
133.122
-1896.39
86.9647
-2060.42
64.2432
-2209.2
65.276
-2221
74.693
-2055.92
79.1392
-1802.85
74.3857
-1553.51
56.7207
-1380.63
30.8167
-1281.36
0.586431
-1181.34
-30.4784
-1078.88
-58.4972
-920.824
-85.0332
-751.533
-108.132
-622.488
-129.121
-508.915
-149.343
-414.936
-170.221
-366.861
-192.924
-390.271
-217.481
-442.876
-242.747
-496.721
-268.194
-549.684
-294.796
-611.61
-323.092
-687.961
-352.617
-785.129
-383.029
-909.68
-415.69
-1063.87
-456.136
-1235.96
-511.974
-1406.83
-580.474
-1587.78
-638.692
-1847.93
-656.449
-2271.15
-620.982
-2864.83
-539.965
-3535.39
-424.532
-4159.96
-281.878
-4626.69
-124.2
-4826.95
27.0507
-4651.89
147.734
-4135.38
213.69
-3367.13
198.867
-2592.55
109.511
-2157.58
-12.2207
-2399.41
-144.265
-2996.5
-272.085
-3852.26
-440.799
-4687.36
-684.39
-3744.93
-921.248
-586.302
-1240.53
2251.09
-1819.88
5421.34
-2606.54
10449.9
-3080.18
16686
19889.9
201.2
-325.865
203.324
-322.4
205.108
-326.303
206.781
-332.786
208.936
-338.458
212.34
-342.321
217.983
-344.548
227.404
-346.939
243.341
-354.4
268.652
-388.886
296.63
-494.836
290.802
-762.174
229.59
-1310.93
164.149
-2005.33
142.374
-2436.86
147.342
-2514.66
150.529
-2464.08
140.916
-2458.16
124.477
-2542.15
116.759
-2635.17
123.605
-2591.05
134.783
-2367.99
153.764
-2021.8
188.707
-1646.11
221.511
-1420.05
226.545
-1475.94
198.082
-1684.28
151.612
-1849.92
106.157
-2014.97
80.0315
-2183.07
78.5985
-2219.56
87.7729
-2065.09
91.0009
-1806.08
83.1547
-1545.66
62.8652
-1360.34
34.7147
-1253.21
3.33355
-1149.96
-28.4615
-1047.09
-57.3079
-891.978
-83.9663
-724.875
-107.099
-599.356
-127.908
-488.105
-148.021
-394.823
-169.163
-345.719
-192.596
-366.838
-218.054
-417.419
-244.2
-470.575
-270.673
-523.211
-298.481
-583.802
-328.092
-658.35
-359.059
-754.161
-391.137
-877.602
-426.439
-1028.57
-471.982
-1190.41
-535.324
-1343.49
-609.509
-1513.6
-666.675
-1790.76
-677.823
-2260
-635.981
-2906.67
-551.249
-3620.12
-432.405
-4278.8
-284.753
-4774.34
-121.325
-4990.38
34.9285
-4808.14
159.281
-4259.73
225.035
-3432.89
200.466
-2567.98
93.9565
-2051.07
-46.403
-2259.05
-191.544
-2851.36
-325.194
-3718.61
-503.559
-4509
-757.045
-3491.45
-1004.15
-339.2
-1357.09
2604.03
-1967.87
6032.12
-2704.22
11186.3
-3015.15
16996.9
19064.1
213.477
-327.009
215.299
-324.222
216.924
-327.928
218.612
-334.474
220.917
-340.763
224.548
-345.951
230.454
-350.455
240.105
-356.59
255.709
-370.003
278.811
-411.988
304.67
-520.696
303.665
-761.169
249.369
-1256.64
181.491
-1937.45
152.6
-2407.97
154.142
-2516.2
157.248
-2467.19
148.414
-2449.32
131.597
-2525.33
122.278
-2625.85
128.941
-2597.71
141.656
-2380.71
160.401
-2040.54
194.475
-1680.18
228.218
-1453.79
235.706
-1483.42
211.332
-1659.91
169.753
-1808.34
125.957
-1971.17
96.7755
-2153.89
92.0265
-2214.82
100.398
-2073.46
102.981
-1808.67
92.5616
-1535.24
69.5574
-1337.34
38.9928
-1222.65
6.29755
-1117.26
-26.3221
-1014.47
-55.9991
-862.3
-82.7608
-698.113
-105.972
-576.145
-126.69
-467.386
-146.826
-374.687
-168.287
-324.258
-192.352
-342.773
-218.56
-391.211
-245.494
-443.64
-272.919
-495.787
-301.856
-554.864
-332.725
-627.482
-365.076
-721.81
-398.829
-843.849
-437.057
-990.343
-488.236
-1139.23
-559.096
-1272.63
-637.714
-1434.98
-692.345
-1736.13
-697.002
-2255.35
-650.306
-2953.36
-563.06
-3707.36
-441.131
-4400.73
-288.692
-4926.78
-119.96
-5159.11
40.8934
-4968.99
168.993
-4387.83
235.062
-3498.95
200.512
-2533.43
76.3891
-1926.95
-81.5733
-2101.08
-238.708
-2694.22
-380.306
-3577.02
-572.082
-4317.22
-839.734
-3223.8
-1102.51
-76.4274
-1485.7
2987.22
-2107.42
6653.84
-2771.52
11850.4
-2919.07
17144.5
18003.1
225.628
-328.019
227.261
-325.855
228.823
-329.49
230.582
-336.233
233.04
-343.221
236.853
-349.764
242.924
-356.526
252.623
-366.289
267.761
-385.141
288.846
-433.074
312.29
-544.139
314.898
-763.777
267.952
-1209.69
199.548
-1869.05
164.015
-2372.43
161.505
-2513.69
164.097
-2469.78
156.022
-2441.25
139.018
-2508.33
128.11
-2614.94
134.082
-2603.69
148.201
-2394.83
166.707
-2059.05
198.912
-1712.39
232.847
-1487.73
243.065
-1493.64
223.401
-1640.25
187.264
-1772.2
146.076
-1929.98
114.477
-2122.29
105.792
-2206.13
112.504
-2080.18
114.62
-1810.78
102.243
-1522.87
76.6478
-1311.74
43.6092
-1189.61
9.46551
-1083.12
-24.0587
-980.942
-54.4949
-831.864
-81.3245
-671.284
-104.652
-552.818
-125.325
-446.713
-145.517
-354.495
-167.295
-302.48
-191.986
-318.082
-218.958
-364.238
-246.693
-415.905
-275.03
-467.45
-305.015
-524.88
-337.064
-595.432
-370.734
-688.14
-406.205
-808.378
-447.687
-948.861
-504.973
-1081.95
-583.097
-1194.5
-664.756
-1353.32
-715.748
-1685.14
-714.538
-2256.56
-664.53
-3003.37
-575.662
-3796.23
-450.871
-4525.52
-293.929
-5083.72
-120.351
-5332.69
44.7406
-5134.08
176.734
-4519.82
243.76
-3565.98
199.218
-2488.89
56.8762
-1784.61
-117.815
-1926.39
-285.79
-2526.25
-437.367
-3425.44
-645.972
-4108.62
-931.345
-2938.42
-1212.4
204.624
-1618.73
3393.56
-2231.91
7267.02
-2806.82
12425.3
-2787.4
17125.1
16824.2
237.686
-328.939
239.242
-327.411
240.849
-331.097
242.736
-338.12
245.354
-345.839
249.322
-353.732
255.501
-362.705
265.127
-375.916
279.695
-399.709
298.981
-452.359
319.936
-565.095
324.975
-768.816
285.253
-1169.97
217.983
-1801.78
176.556
-2331.01
169.504
-2506.64
171.111
-2471.39
163.713
-2433.85
146.692
-2491.31
134.246
-2602.5
139.079
-2608.52
154.329
-2410.08
172.73
-2077.45
202.5
-1742.16
235.83
-1521.06
248.75
-1506.56
234.221
-1625.72
203.952
-1741.94
166.215
-1892.25
133.001
-2089.08
120.079
-2193.21
124.192
-2084.29
125.61
-1812.2
111.812
-1509.07
83.9326
-1283.86
48.4745
-1154.15
12.7847
-1047.43
-21.75
-946.407
-52.8845
-800.73
-79.7389
-644.429
-103.182
-529.375
-123.838
-426.056
-144.184
-334.149
-166.379
-280.286
-191.674
-292.788
-219.276
-336.636
-247.699
-387.482
-276.896
-438.254
-307.886
-493.889
-341.064
-562.254
-376.011
-653.193
-413.281
-771.108
-458.386
-903.757
-522.153
-1018.18
-607.035
-1109.62
-690.322
-1270.03
-736.983
-1638.48
-730.875
-2262.66
-678.959
-3055.29
-589.105
-3886.09
-461.667
-4652.96
-300.575
-5244.81
-122.632
-5510.63
46.2967
-5303.01
182.342
-4655.87
250.972
-3634.61
196.381
-2434.3
34.8874
-1623.11
-155.806
-1735.7
-333.199
-2348.85
-496.335
-3262.3
-724.261
-3880.69
-1028.83
-2633.85
-1327.96
503.75
-1748.75
3814.35
-2335.48
7853.75
-2809.28
12899.1
-2644.29
16960.1
15641.3
249.747
-329.807
251.322
-328.986
253.066
-332.84
255.118
-340.172
257.895
-348.617
261.997
-357.834
268.246
-368.954
277.729
-385.399
291.667
-413.647
309.366
-470.058
327.922
-583.65
334.338
-775.232
301.296
-1136.93
236.498
-1736.98
190.125
-2284.63
178.204
-2494.72
178.34
-2471.53
171.47
-2426.98
154.57
-2474.41
140.666
-2588.59
144.01
-2611.86
159.993
-2426.06
178.446
-2095.9
205.589
-1769.3
237.631
-1553.1
253.103
-1522.03
243.942
-1616.55
219.712
-1717.71
185.979
-1858.51
151.974
-2055.07
134.889
-2176.12
135.643
-2085.04
135.859
-1812.41
120.964
-1494.18
91.2003
-1254.1
53.4942
-1116.44
16.2175
-1010.15
-19.4069
-910.783
-51.1488
-768.988
-77.9765
-617.602
-101.547
-505.804
-122.217
-405.386
-142.751
-313.615
-165.362
-257.675
-191.215
-266.935
-219.425
-308.426
-248.559
-358.347
-278.611
-408.203
-310.55
-461.95
-344.785
-528.019
-380.964
-617.014
-420.145
-731.928
-469.25
-854.652
-539.73
-947.701
-630.633
-1018.72
-714.211
-1186.45
-756.272
-1596.42
-746.447
-2272.49
-693.835
-3107.9
-603.464
-3976.46
-473.625
-4782.8
-308.766
-5409.67
-127.002
-5692.4
45.25
-5475.26
185.522
-4796.14
256.466
-3705.55
191.802
-2369.63
10.2198
-1441.53
-195.655
-1529.82
-380.929
-2163.58
-556.79
-3086.44
-805.228
-3632.25
-1128.16
-2310.92
-1443.29
818.874
-1869.24
4240.3
-2414.75
8399.26
-2781.79
13266.1
-2483.4
16661.7
14364.3
261.954
-330.643
263.6
-330.633
265.527
-334.768
267.758
-342.403
270.687
-351.546
274.909
-362.056
281.2
-375.245
290.495
-394.694
303.766
-426.918
320.059
-486.351
336.409
-599.999
343.36
-782.183
316.198
-1109.77
254.849
-1675.63
204.587
-2234.37
187.65
-2477.78
185.84
-2469.72
179.288
-2420.43
162.602
-2457.72
147.338
-2573.33
148.938
-2613.46
165.164
-2442.29
183.808
-2114.54
208.556
-1794.05
238.914
-1583.46
256.693
-1539.81
252.86
-1612.72
234.506
-1699.35
204.964
-1828.97
170.878
-2020.99
150.019
-2155.26
146.981
-2082.01
145.405
-1810.84
129.489
-1478.26
98.2398
-1222.85
58.5535
-1076.76
19.7087
-971.308
-17.0732
-874.001
-49.3537
-736.707
-76.1145
-590.841
-99.8095
-482.109
-120.507
-384.689
-141.283
-292.839
-164.373
-234.585
-190.76
-240.548
-219.478
-279.707
-249.236
-328.59
-280.09
-377.348
-312.941
-429.099
-348.189
-492.771
-385.583
-579.62
-426.826
-690.684
-480.308
-801.17
-557.575
-870.434
-653.587
-922.705
-736.289
-1103.75
-773.869
-1558.84
-761.598
-2284.76
-709.3
-3160.2
-618.783
-4066.97
-486.828
-4914.76
-318.628
-5577.87
-133.768
-5877.26
41.0612
-5650.09
185.695
-4940.77
259.747
-3779.61
184.993
-2294.88
-17.5401
-1239
-237.545
-1309.82
-428.956
-1972.17
-617.989
-2897.41
-886.49
-3363.75
-1225.26
-1972.15
-1553.04
1146.65
-1974.83
4662.1
-2467.73
8892.16
-2727.22
13525.6
-2313.27
16247.7
13068
274.485
-331.437
276.172
-332.319
278.262
-336.858
280.666
-344.808
283.738
-354.617
288.063
-366.381
294.371
-381.553
303.443
-403.766
316.024
-439.499
331.046
-501.373
345.428
-614.382
352.313
-789.068
330.128
-1087.58
272.857
-1618.36
219.792
-2181.31
197.87
-2455.86
193.668
-2465.51
187.17
-2413.93
170.746
-2441.3
154.226
-2556.81
153.912
-2613.15
169.862
-2458.24
188.757
-2133.44
211.671
-1816.96
240.389
-1612.17
260.225
-1559.65
261.357
-1613.85
248.357
-1686.35
222.814
-1803.43
189.156
-1987.33
165.117
-2131.22
158.221
-2075.11
154.35
-1806.97
137.294
-1461.2
104.874
-1190.43
63.5377
-1035.42
23.2068
-930.977
-14.7569
-836.037
-47.4976
-703.967
-74.1643
-564.174
-98.0148
-458.259
-118.781
-363.923
-139.805
-271.815
-163.335
-211.056
-190.174
-213.709
-219.351
-250.53
-249.74
-298.201
-281.398
-345.69
-315.12
-395.376
-351.32
-456.571
-389.913
-541.027
-433.392
-647.206
-491.589
-742.972
-575.535
-786.488
-675.623
-822.617
-756.512
-1022.86
-790.057
-1525.29
-776.61
-2298.21
-725.45
-3211.36
-635.112
-4157.31
-501.358
-5048.51
-330.347
-5748.88
-143.416
-6064.19
32.9173
-5826.43
181.902
-5089.76
259.918
-3857.62
175.168
-2210.13
-48.7227
-1015.11
-281.286
-1077.26
-476.956
-1776.5
-678.81
-2695.56
-965.44
-3077.12
-1316.57
-1621.02
-1652.68
1482.76
-2061.78
5071.19
-2494.56
9324.95
-2650.69
13681.7
-2137.57
15734.6
11747.7
287.5
-332.139
289.117
-333.936
291.283
-339.023
293.829
-347.353
297.033
-357.822
301.447
-370.795
307.738
-387.844
316.552
-412.58
328.421
-451.368
342.264
-515.216
354.929
-627.047
361.37
-795.509
343.278
-1069.49
290.412
-1565.49
235.585
-2126.48
208.871
-2429.15
201.883
-2458.53
195.133
-2407.18
178.966
-2425.13
161.29
-2539.13
158.956
-2610.81
174.141
-2473.42
193.231
-2152.53
215.06
-1838.79
242.616
-1639.73
264.307
-1581.34
269.789
-1619.34
261.337
-1677.9
239.291
-1781.38
206.342
-1954.38
179.802
-2104.68
169.277
-2064.59
162.778
-1800.47
144.363
-1442.79
110.971
-1157.04
68.3323
-992.783
26.648
-889.293
-12.482
-796.907
-45.6197
-670.829
-72.1846
-537.609
-96.2168
-434.227
-117.097
-343.043
-138.373
-250.538
-162.323
-187.106
-189.555
-186.477
-219.111
-220.973
-250.059
-267.253
-282.473
-313.277
-317.04
-360.809
-354.155
-419.457
-393.955
-501.227
-439.869
-601.292
-503.07
-679.771
-593.409
-696.149
-696.49
-719.536
-774.896
-944.455
-805.107
-1495.08
-791.689
-2311.63
-742.34
-3260.71
-652.491
-4247.16
-517.299
-5183.7
-344.179
-5922
-156.586
-6251.78
19.7903
-6002.8
172.82
-5242.79
255.607
-3940.41
161.214
-2115.74
-83.4866
-770.406
-326.366
-834.376
-524.51
-1578.36
-737.995
-2482.07
-1039.73
-2775.38
-1399.19
-1261.57
-1738.74
1822.32
-2127.91
5460.36
-2496.45
9693.49
-2556.16
13741.5
-1960.06
15138.5
10391.2
301.084
-332.689
302.486
-335.339
304.597
-341.135
307.225
-349.981
310.544
-361.141
315.023
-375.274
321.258
-394.08
329.772
-421.094
340.912
-462.507
353.642
-527.946
364.827
-638.232
370.626
-801.307
355.833
-1054.7
307.459
-1517.12
251.822
-2070.84
220.642
-2397.97
210.542
-2448.43
203.202
-2399.84
187.235
-2409.16
168.493
-2520.39
164.074
-2606.4
178.082
-2487.43
197.187
-2171.63
218.645
-1860.25
245.789
-1666.87
269.273
-1604.82
278.421
-1628.48
273.578
-1673.06
254.304
-1762.11
222.147
-1922.22
193.775
-2076.31
180.018
-2050.83
170.733
-1791.18
150.726
-1422.78
116.449
-1122.76
72.8327
-949.167
29.9688
-846.429
-10.2518
-756.687
-43.7181
-637.363
-70.1958
-511.132
-94.456
-409.966
-115.52
-321.979
-137.029
-229.029
-161.312
-162.823
-188.83
-158.959
-218.699
-191.105
-250.179
-235.772
-283.334
-280.122
-318.728
-325.415
-356.723
-381.462
-397.745
-460.205
-446.299
-552.738
-514.709
-611.361
-610.983
-599.875
-715.982
-614.537
-791.514
-868.923
-819.27
-1467.32
-806.987
-2323.91
-760.008
-3307.69
-670.954
-4336.22
-534.749
-5319.91
-360.455
-6096.3
-174.023
-6438.21
0.543153
-6177.37
156.862
-5399.11
244.956
-4028.51
141.72
-2012.5
-121.4
-507.286
-371.609
-584.167
-571.063
-1378.9
-794.411
-2258.72
-1107.69
-2462.1
-1471.06
-898.202
-1808.8
2160.07
-2172.18
5823.73
-2475.35
9996.66
-2447.94
13714
-1788.4
14479
9044.14
315.239
-333.047
316.305
-336.405
318.221
-343.051
320.84
-352.6
324.235
-364.536
328.746
-379.784
334.88
-400.214
343.05
-429.264
353.45
-472.906
365.123
-539.62
375.041
-648.15
380.13
-806.396
367.956
-1042.52
323.99
-1473.15
268.372
-2015.22
233.158
-2362.75
219.699
-2434.97
211.413
-2391.56
195.543
-2393.29
175.802
-2500.65
169.263
-2599.86
181.759
-2499.93
200.619
-2190.49
222.228
-1881.86
249.776
-1694.42
275.19
-1630.24
287.437
-1640.73
285.269
-1670.89
267.925
-1744.77
236.481
-1890.78
206.869
-2046.7
190.321
-2034.28
178.211
-1779.07
156.412
-1400.98
121.265
-1087.62
76.9469
-904.849
33.1017
-802.584
-8.08184
-715.503
-41.8177
-603.627
-68.2353
-484.714
-92.7491
-385.452
-114.069
-300.659
-135.794
-207.304
-160.332
-138.285
-188.05
-131.241
-218.159
-160.996
-250.099
-203.833
-283.94
-246.281
-320.146
-289.209
-359.006
-342.602
-401.291
-417.92
-452.694
-501.335
-526.424
-537.631
-628.03
-498.27
-733.937
-508.63
-806.472
-796.388
-832.761
-1441.04
-822.607
-2334.06
-778.471
-3351.82
-690.533
-4424.15
-553.829
-5456.61
-379.56
-6270.57
-196.49
-6621.28
-25.9415
-6347.92
132.317
-5557.36
225.652
-4121.84
114.984
-1901.83
-161.267
-231.035
-415.186
-330.248
-616.141
-1177.95
-847.373
-2027.49
-1168.46
-2141.02
-1530.94
-535.713
-1861.52
2490.64
-2194.71
6156.92
-2433.53
10235.5
-2327.71
13608.2
-1624.25
13775.5
7809.15
329.886
-333.233
330.575
-337.093
332.173
-344.649
334.674
-355.1
338.078
-367.94
342.579
-384.286
348.562
-406.197
356.348
-437.05
366.009
-482.568
376.684
-550.295
385.52
-656.985
389.909
-810.785
379.791
-1032.41
340.027
-1433.39
285.124
-1960.32
246.381
-2324.01
229.404
-2417.99
219.813
-2381.97
203.891
-2377.37
183.194
-2479.95
174.511
-2591.17
185.231
-2510.64
203.555
-2208.82
225.643
-1903.95
254.355
-1723.13
282.011
-1657.89
296.96
-1655.68
296.616
-1670.54
280.346
-1728.5
249.424
-1859.86
219.028
-2016.3
200.08
-2015.33
185.167
-1764.16
161.434
-1377.25
125.397
-1051.58
80.5989
-860.051
35.9815
-757.966
-5.98758
-673.534
-39.9325
-569.682
-66.3237
-458.323
-91.1047
-360.672
-112.757
-279.007
-134.675
-185.386
-159.369
-113.591
-187.183
-103.426
-217.462
-130.717
-249.809
-171.487
-284.301
-211.789
-321.303
-252.207
-361.016
-302.889
-404.615
-374.322
-459.063
-446.886
-538.113
-458.581
-644.325
-392.058
-750.242
-402.713
-819.902
-726.728
-845.762
-1415.17
-838.611
-2341.21
-797.731
-3392.7
-711.254
-4510.63
-574.681
-5593.18
-401.896
-6443.35
-224.692
-6798.49
-60.6741
-6511.94
97.4575
-5715.5
194.987
-4219.37
79.294
-1786.14
-202.498
50.7569
-456.199
-76.5468
-659.331
-974.816
-896.613
-1790.21
-1221.83
-1815.8
-1578.26
-179.287
-1896.45
2808.84
-2196.49
6456.96
-2373.39
10412.4
-2198.91
13433.7
-1468.25
13044.9
6675.68
344.881
-333.316
345.248
-337.461
346.47
-345.871
348.745
-357.375
352.067
-371.262
356.499
-388.718
362.282
-411.98
369.65
-444.418
378.591
-491.509
388.334
-560.038
396.242
-664.894
399.981
-814.524
391.459
-1023.88
355.612
-1397.54
301.985
-1906.69
260.259
-2282.28
239.697
-2397.43
228.454
-2370.72
212.293
-2361.21
190.655
-2458.32
179.804
-2580.32
188.528
-2519.37
206.057
-2226.35
228.847
-1926.74
259.408
-1753.7
289.701
-1688.19
307.077
-1673.06
307.822
-1671.29
291.838
-1712.51
261.165
-1829.19
230.265
-1985.4
209.208
-1994.28
191.53
-1746.48
165.774
-1351.49
128.83
-1014.63
83.7265
-814.947
38.5437
-712.783
-4.00543
-630.985
-38.1048
-535.582
-64.4917
-431.936
-89.5138
-335.649
-111.561
-256.96
-133.656
-163.291
-158.421
-88.8255
-186.251
-75.5968
-216.637
-100.331
-249.316
-138.807
-284.393
-176.712
-322.165
-214.435
-362.734
-262.32
-407.725
-329.33
-465.394
-389.218
-549.643
-374.332
-659.656
-282.044
-764.832
-297.538
-831.947
-659.612
-858.416
-1388.71
-855.023
-2344.61
-817.774
-3429.95
-733.146
-4595.26
-597.461
-5728.87
-427.842
-6612.97
-259.204
-6967.13
-104.472
-6666.67
50.6607
-5870.63
150.032
-4318.74
34.1679
-1670.28
-244.628
329.552
-495.286
174.112
-700.235
-769.868
-941.794
-1548.65
-1267.49
-1490.1
-1612.68
165.897
-1913.94
3110.1
-2179.04
6722.07
-2297.22
10530.6
-2063.93
13200.4
-1322.37
12303.3
5657.67
360.061
-333.382
360.233
-337.633
361.101
-346.74
363.072
-359.346
366.206
-374.395
370.491
-393.003
376.031
-417.52
382.962
-451.349
391.216