/*--------------------------------*- C++ -*----------------------------------*\
| =========                 |                                                 |
| \\      /  F ield         | OpenFOAM: The Open Source CFD Toolbox           |
|  \\    /   O peration     | Version:  4.1                                   |
|   \\  /    A nd           | Web:      www.OpenFOAM.org                      |
|    \\/     M anipulation  |                                                 |
\*---------------------------------------------------------------------------*/
FoamFile
{
    version     2.0;
    format      ascii;
    class       volVectorField;
    location    "11";
    object      U;
}
// * * * * * * * * * * * * * * * * * * * * * * * * * * * * * * * * * * * * * //

dimensions      [0 1 -1 0 0 0 0];

internalField   nonuniform List<vector> 
6785
(
(1.61245e-14 -0.819218 16.1164)
(1.32352e-14 -6.7107 12.4827)
(-2.39349e-15 -4.79951 12.8751)
(4.89309e-15 -4.32282 12.6179)
(1.29339e-15 -3.71441 12.4434)
(-1.59886e-15 -3.25682 12.2124)
(3.8575e-15 -2.88201 11.9474)
(6.95407e-16 -2.6035 11.6269)
(-2.85101e-16 -2.41689 11.235)
(2.25991e-15 -2.29106 10.7892)
(3.3358e-16 -2.2136 10.3423)
(-1.12861e-15 -2.39137 9.8402)
(2.10036e-15 -2.91515 9.18874)
(-2.40117e-16 -2.29357 8.78172)
(-2.08119e-15 0.889235 7.40966)
(2.65031e-14 -7.59116 26.0619)
(1.74473e-14 -16.5999 21.6812)
(-2.75791e-15 -11.4835 22.1777)
(9.90984e-15 -11.9158 20.6818)
(1.0855e-15 -10.9039 19.6885)
(-4.95405e-16 -10.232 18.6016)
(6.73283e-15 -9.51652 17.5139)
(7.12251e-16 -8.82905 16.4073)
(2.05833e-15 -8.20341 15.33)
(5.8598e-15 -7.69555 14.3775)
(1.0163e-15 -7.24526 13.5837)
(2.69483e-15 -6.80257 12.7367)
(8.30767e-15 -6.42334 11.3219)
(-8.54659e-16 -5.11199 8.39364)
(-2.65184e-15 -1.11145 2.0389)
(2.23172e-14 -10.4099 27.5622)
(1.68232e-14 -17.3379 23.9637)
(-2.05852e-15 -11.6192 24.3838)
(4.80272e-15 -12.5163 22.1632)
(1.41235e-15 -10.854 21.0446)
(2.16091e-16 -10.0513 19.555)
(9.81758e-16 -9.0594 18.1627)
(1.21933e-15 -8.14785 16.7515)
(4.07582e-16 -7.2287 15.3004)
(-1.54507e-15 -6.28408 13.7054)
(-1.18775e-15 -5.43528 12.0221)
(-3.71798e-15 -5.02407 10.5956)
(-5.35168e-15 -5.08252 9.51445)
(-1.09251e-16 -4.6219 7.47112)
(-7.69724e-15 -1.54008 1.03913)
(2.28703e-14 -11.7558 27.3212)
(1.18484e-14 -16.9905 24.0395)
(6.33466e-16 -11.7747 24.409)
(3.01879e-15 -13.0938 21.7635)
(-1.39464e-15 -11.0567 20.7469)
(2.49163e-15 -10.4851 19.0438)
(-1.68334e-16 -9.43039 17.6557)
(-9.24515e-16 -8.58352 16.2217)
(2.16757e-15 -7.56967 14.6253)
(-4.21676e-15 -6.1041 12.2025)
(-8.91773e-15 -3.92173 8.33484)
(-1.32675e-14 -1.76048 4.02604)
(-2.13887e-14 -1.40349 2.6862)
(-1.05996e-14 -2.71567 4.34705)
(1.81637e-14 -2.23986 4.16548)
(2.09039e-14 -12.4066 27.367)
(8.27634e-15 -17.4162 25.1383)
(-8.49622e-16 -12.2834 25.0813)
(1.36888e-15 -13.9833 22.2686)
(-6.10919e-15 -11.6167 21.4417)
(2.30969e-16 -11.3635 19.6041)
(-2.44314e-15 -10.2431 18.2987)
(-6.71365e-15 -9.5015 16.8929)
(1.48395e-15 -8.57652 15.4309)
(-5.79245e-15 -7.22915 13.2333)
(-1.5335e-14 -4.89286 9.42043)
(-2.10803e-14 -1.40347 3.81699)
(-2.25565e-14 2.00692 -0.528028)
(8.40634e-15 2.25063 -1.40644)
(2.83942e-14 0.348402 0.0617448)
(2.20606e-14 -12.399 26.2327)
(1.11153e-14 -17.7711 26.2858)
(1.44097e-15 -12.8587 25.3149)
(1.0746e-15 -14.2462 22.4744)
(-4.9564e-15 -12.0584 21.6065)
(1.59605e-15 -11.8167 19.7539)
(-1.36284e-15 -10.793 18.396)
(-4.99899e-15 -10.0858 16.9649)
(2.08733e-15 -9.32803 15.5704)
(-2.29179e-15 -8.3834 13.8729)
(-7.92549e-15 -6.9173 11.3694)
(-8.58815e-15 -4.6433 7.76931)
(-1.76522e-14 -1.54589 3.53855)
(1.91794e-14 2.35824 -1.22713)
(4.42937e-14 1.11423 -3.75543)
(2.58621e-14 -11.9455 24.202)
(1.53287e-14 -17.6224 26.6686)
(6.0269e-15 -13.1574 25.0067)
(1.408e-15 -13.9737 22.0517)
(-2.02093e-15 -12.0477 21.0603)
(5.8598e-15 -11.7021 19.2219)
(7.1429e-16 -10.7361 17.7864)
(-1.72559e-15 -9.98842 16.2959)
(6.19302e-15 -9.25301 14.8533)
(8.88187e-16 -8.45365 13.3399)
(-2.0734e-15 -7.47561 11.5115)
(3.69395e-15 -6.08482 9.22114)
(-2.40236e-15 -4.29576 6.25181)
(-1.11215e-14 -1.43567 2.53161)
(8.90292e-15 0.119281 -2.54786)
(2.26115e-14 -11.4214 22.3307)
(1.73466e-14 -17.1277 26.5519)
(7.45825e-15 -13.2602 24.6283)
(1.9773e-15 -13.5443 21.5782)
(-8.85834e-16 -11.8101 20.4565)
(4.9915e-15 -11.361 18.6727)
(8.30335e-16 -10.4124 17.2077)
(-6.61627e-16 -9.61244 15.6897)
(4.55311e-15 -8.83148 14.2127)
(2.44564e-15 -8.02805 12.7584)
(-1.49072e-16 -7.18774 11.1989)
(2.85225e-15 -6.13527 9.46706)
(3.36857e-15 -4.90184 7.26224)
(-6.72139e-15 -2.80741 4.31085)
(-2.8708e-14 -0.692684 -1.20942)
(2.24604e-14 -11.0512 21.1195)
(1.84933e-14 -16.5058 26.1077)
(3.71363e-15 -13.2535 24.2556)
(3.34604e-15 -13.1722 21.2033)
(4.74698e-17 -11.5942 19.9705)
(2.89635e-16 -11.082 18.2753)
(3.56442e-15 -10.1827 16.8236)
(8.77764e-16 -9.38564 15.3571)
(-2.54237e-15 -8.61792 13.9422)
(2.43067e-15 -7.83538 12.5752)
(2.64445e-15 -7.05326 11.1712)
(-3.33714e-15 -6.14479 9.70132)
(2.7766e-15 -5.17011 7.93939)
(-1.5742e-15 -3.55762 5.72035)
(-3.71618e-14 -1.29502 0.470438)
(1.9761e-14 -10.92 20.5701)
(1.82483e-14 -15.8295 25.3128)
(4.18306e-15 -13.0253 23.7242)
(-2.57388e-15 -12.8622 20.7143)
(-1.81364e-16 -11.3214 19.4693)
(-1.10391e-16 -10.8554 17.8156)
(-1.19771e-15 -10.0123 16.4597)
(1.2287e-15 -9.32042 15.1167)
(-3.26494e-15 -8.64164 13.8137)
(-4.79229e-15 -7.94852 12.5389)
(1.43115e-15 -7.26414 11.276)
(-1.43759e-15 -6.52582 10.0575)
(-6.5346e-15 -5.77122 8.74156)
(2.61654e-15 -4.55432 7.22025)
(-2.99978e-14 -2.47654 2.83914)
(1.20833e-14 -11.1717 20.6668)
(1.93765e-14 -15.0604 24.3363)
(-4.82047e-15 -12.6034 23.0633)
(-2.74002e-15 -12.5512 20.1362)
(2.09228e-15 -10.8709 18.9886)
(-1.17898e-14 -10.5611 17.2392)
(-3.21493e-15 -9.63019 15.969)
(4.45764e-15 -9.07546 14.5825)
(-1.67804e-14 -8.46492 13.3044)
(-9.08524e-15 -7.93277 12.1352)
(5.07166e-15 -7.48296 11.1954)
(-1.54661e-14 -7.09132 10.5211)
(-8.26933e-15 -6.67551 9.97499)
(-1.39219e-14 -5.90388 9.18689)
(-3.26747e-14 -4.01826 5.76688)
(1.22661e-14 -11.7614 21.243)
(1.80007e-14 -14.5243 23.7364)
(-1.41439e-14 -12.0975 22.2709)
(1.31308e-15 -12.0648 19.7786)
(7.48987e-16 -10.3096 18.5712)
(-1.90885e-14 -9.79291 16.53)
(-1.99059e-15 -8.47317 14.8061)
(-6.78469e-16 -7.78091 12.9725)
(-2.80999e-14 -7.21936 11.7652)
(-1.6922e-14 -7.02256 10.9792)
(-9.77921e-15 -6.98694 10.7363)
(-3.04543e-14 -7.21085 11.0344)
(-1.04832e-14 -7.39395 11.5602)
(-1.89712e-14 -7.26755 11.4965)
(-3.36913e-14 -5.37499 8.69777)
(7.6253e-15 -11.8388 20.9404)
(1.62946e-14 -15.823 25.6586)
(-1.11951e-14 -12.6423 22.8736)
(-3.01296e-15 -12.3821 20.5234)
(-4.29904e-16 -10.7103 19.4093)
(-1.6677e-14 -9.92599 17.1002)
(-4.64413e-15 -8.05242 14.6906)
(-5.56087e-15 -6.74864 12.1413)
(-3.89462e-14 -5.70696 10.5305)
(-3.6329e-14 -5.27472 9.63009)
(-3.91995e-14 -5.29846 9.60293)
(-4.04879e-14 -5.97781 10.5244)
(-1.77204e-14 -6.99363 12.0074)
(-1.94719e-14 -7.68798 12.7756)
(-3.15236e-14 -5.70016 10.2398)
(7.14875e-16 -9.55689 16.1226)
(1.41164e-14 -16.4059 26.0087)
(-5.24455e-15 -14.6297 24.6444)
(-7.89889e-15 -12.8709 21.06)
(-2.549e-15 -10.8121 19.3374)
(-1.46395e-14 -9.93684 17.4516)
(-4.43847e-15 -8.03231 15.3024)
(-1.24556e-14 -6.43478 12.6711)
(-3.81691e-14 -4.94817 10.7656)
(-4.49517e-14 -3.9807 9.34105)
(-5.58434e-14 -3.34162 8.43629)
(-4.40637e-14 -3.42692 8.41226)
(-2.87288e-14 -4.36831 9.4837)
(-2.76288e-14 -5.46071 10.6798)
(-1.84655e-14 -4.18641 8.37027)
(-8.38219e-15 -6.13051 11.1019)
(5.22451e-15 -15.7343 24.1799)
(5.55392e-15 -19.2452 28.2968)
(2.44221e-16 -19.6942 27.4674)
(-2.42081e-15 -18.4574 25.0893)
(-5.71931e-15 -16.9955 22.3053)
(-5.94577e-15 -15.2293 19.6097)
(-8.15811e-15 -13.4249 17.0556)
(-1.1746e-14 -11.608 14.7871)
(-1.22513e-14 -9.84171 12.6838)
(-1.92831e-14 -8.03809 10.6371)
(-2.49951e-14 -6.1086 8.55452)
(-2.83483e-14 -4.42199 6.6629)
(-3.73557e-14 -3.32722 5.13741)
(-2.15309e-14 -0.96559 2.34603)
(-1.20904e-15 -0.0122614 -0.057609)
(-6.35154e-15 0.0864282 -0.442438)
(-5.60176e-15 0.107698 -0.382807)
(-4.93852e-15 0.142194 -0.424511)
(-3.8535e-15 0.154314 -0.358069)
(-6.90574e-15 0.231964 -0.500745)
(-4.88693e-15 0.235891 -0.351792)
(-4.16949e-15 0.276198 -0.324695)
(-3.78205e-15 0.27494 -0.270076)
(5.82569e-15 0.349526 -0.352517)
(5.21738e-15 0.341465 -0.248598)
(3.81697e-15 0.363576 -0.215246)
(1.24246e-15 0.433695 -0.284073)
(-3.25375e-17 0.400723 -0.205442)
(-6.51196e-16 0.446993 -0.212324)
(-7.17463e-16 0.428943 -0.193847)
(-3.20641e-15 0.526531 -0.261204)
(-9.2829e-16 0.482546 -0.192379)
(-1.09001e-15 0.505409 -0.171841)
(-3.19151e-15 0.596746 -0.224312)
(-2.07557e-15 0.522657 -0.162375)
(-2.17773e-15 0.583847 -0.165106)
(-6.58714e-16 0.546515 -0.151553)
(-2.65086e-15 0.693334 -0.195415)
(-2.30653e-15 0.577469 -0.140231)
(-1.83988e-15 0.637363 -0.143845)
(-3.25579e-15 0.603523 -0.135376)
(-5.42672e-15 0.72774 -0.17378)
(-5.45686e-15 0.636236 -0.130695)
(-4.35711e-15 0.662091 -0.121267)
(-5.45014e-15 0.770386 -0.14778)
(-4.81962e-15 0.650858 -0.112993)
(-3.98793e-15 0.72036 -0.114386)
(-4.59604e-15 0.676237 -0.108444)
(-6.32813e-15 0.811707 -0.127995)
(-4.07809e-15 0.699207 -0.0882276)
(-3.48614e-15 0.721774 -0.0769054)
(-5.2157e-15 0.8495 -0.0795071)
(-3.41839e-15 0.702736 -0.0528417)
(-3.02305e-15 0.778246 -0.0381244)
(-1.20513e-15 0.71905 -0.0300872)
(-2.14367e-15 0.895691 -0.0125508)
(-1.55223e-15 0.721219 0.0122482)
(-1.48581e-15 0.787239 0.0358244)
(-1.32132e-15 0.731341 0.0419214)
(-1.95301e-15 0.869303 0.0541571)
(-2.89374e-15 0.761651 0.0684327)
(-2.48814e-15 0.761068 0.100584)
(-3.72636e-15 0.942798 -0.0648455)
(-1.01388e-15 0.830694 -0.0105441)
(-1.3641e-15 0.901199 0.0137815)
(-1.623e-15 0.838424 0.024354)
(-2.52048e-15 1.00724 -0.0604232)
(-1.67227e-15 0.855193 -0.0362457)
(-1.66568e-15 0.914149 0.00557677)
(-3.46218e-17 0.871032 0.0493034)
(6.21839e-16 0.898195 -0.124845)
(8.09532e-16 0.685254 -0.354904)
(-9.52385e-16 0.742438 -0.210101)
(-1.36574e-15 0.630818 -1.06112)
(-6.71582e-16 0.265814 -1.48775)
(2.06149e-16 0.437322 -1.57157)
(1.04582e-15 0.466606 -1.31886)
(1.05982e-14 0.805873 -2.84929)
(-2.79093e-15 -0.224917 -0.0119698)
(-1.22073e-15 0.110838 -0.097121)
(-3.27151e-15 -0.352852 1.50976)
(-2.92217e-15 -1.07133 3.17605)
(-2.11125e-15 -1.22624 3.00531)
(-2.17244e-15 -1.23709 3.0781)
(-3.13978e-15 -2.27309 5.63804)
(-2.91679e-15 -2.87846 5.44488)
(-3.50412e-15 -3.26961 5.53944)
(-4.08101e-15 -3.26652 5.75388)
(-5.51323e-15 -5.32485 9.25079)
(-3.7079e-15 -5.45986 7.70736)
(-4.05194e-15 -5.55054 8.19736)
(-4.86949e-15 -8.21002 12.2329)
(-3.31247e-15 -7.91051 9.56809)
(-3.8253e-15 -8.34497 10.1753)
(-6.73857e-15 -9.00536 11.6821)
(-5.89411e-15 -8.93836 11.5525)
(-5.60265e-15 -9.05622 11.8412)
(-8.00694e-16 -10.975 14.8176)
(-4.41168e-15 -9.90955 12.9483)
(-5.16335e-15 -10.2019 13.4927)
(-5.73705e-15 -10.1831 13.5176)
(-5.81158e-15 -10.2843 13.567)
(-6.02498e-15 -10.3671 13.6464)
(-6.14345e-15 -10.4634 13.7704)
(-5.75358e-15 -10.5564 14.0408)
(-5.05932e-15 -10.6252 14.3957)
(-9.45465e-16 -11.6173 16.435)
(-4.15533e-15 -11.2412 15.1271)
(-4.06574e-15 -11.4052 15.3748)
(-4.12964e-15 -11.374 15.495)
(-3.71724e-15 -11.5738 15.9026)
(-4.11174e-15 -11.5474 15.9201)
(-4.45925e-15 -11.6625 16.0458)
(-4.87416e-15 -11.7205 16.1471)
(-5.20368e-15 -11.7781 16.289)
(-1.22868e-15 -12.4102 17.996)
(-2.36779e-15 -12.1117 16.9511)
(-2.09651e-15 -12.2185 17.162)
(-1.82282e-15 -12.2602 17.2565)
(-1.46583e-15 -12.3184 17.42)
(-7.82014e-16 -12.3627 17.6812)
(3.40045e-17 -12.4694 17.9879)
(1.60759e-16 -12.4694 18.0872)
(3.8078e-16 -12.5447 18.2646)
(3.99968e-16 -12.6331 18.4201)
(2.19066e-15 -12.4467 19.2516)
(3.00809e-16 -12.5263 18.6932)
(2.28488e-16 -12.5613 18.8505)
(-9.23092e-17 -12.5962 18.9058)
(-4.26265e-16 -12.6552 18.9922)
(-8.15206e-16 -12.6591 19.1018)
(-9.63251e-16 -12.725 19.4078)
(-8.59081e-16 -12.7285 19.5076)
(-7.75046e-16 -12.842 19.5096)
(1.03968e-15 -11.7304 18.7851)
(-3.70444e-16 -12.1552 18.8518)
(-3.41994e-17 -12.1021 19.0716)
(1.7187e-16 -12.1538 19.3079)
(2.63973e-16 -12.0984 19.2973)
(3.7325e-16 -12.1244 19.3713)
(4.56668e-16 -12.0975 19.4303)
(5.45736e-16 -12.0554 19.5285)
(7.61133e-16 -12.2484 19.836)
(2.41485e-15 -9.79819 17.1762)
(1.75159e-15 -10.9103 18.3749)
(1.71503e-15 -10.7324 18.1705)
(1.67249e-15 -10.7215 18.0953)
(1.9088e-15 -10.689 18.164)
(2.05706e-15 -10.6102 17.9178)
(2.20376e-15 -10.4881 17.5685)
(2.45425e-15 -10.4267 17.2132)
(2.80603e-15 -10.4228 16.7648)
(5.16804e-15 -7.19657 12.6156)
(4.7276e-15 -8.65511 15.3898)
(5.08805e-15 -8.2576 14.7211)
(5.38222e-15 -8.27019 14.472)
(5.70751e-15 -8.08838 14.0447)
(6.10136e-15 -8.01555 13.6199)
(6.97565e-15 -7.8056 13.1776)
(6.44786e-15 -7.65075 12.5037)
(6.33278e-15 -7.47416 11.747)
(5.93483e-15 -7.23756 10.7478)
(5.17215e-15 -3.22575 4.03316)
(4.60858e-15 -5.27798 8.43067)
(4.2196e-15 -4.59795 6.50033)
(4.08395e-15 -4.75748 5.56799)
(3.86205e-15 -4.36497 4.05074)
(3.59477e-15 -4.28753 2.40912)
(2.75112e-15 -4.05949 0.0597516)
(2.00888e-15 -3.61169 -1.90338)
(2.79274e-15 -3.45527 -1.91476)
(6.36744e-15 -2.21339 -5.09484)
(4.98015e-15 -2.70317 -1.51817)
(6.28817e-15 -2.29759 -2.68644)
(7.90245e-15 -1.43386 -4.521)
(1.0116e-14 -1.72563 -5.17542)
(6.0037e-15 -0.49662 -3.89964)
(3.06322e-15 -0.422389 -2.7295)
(4.7401e-15 0.525354 -3.84491)
(3.44098e-15 0.548414 -2.52023)
(3.70221e-15 1.14188 -2.78964)
(5.55409e-15 1.61228 -3.02594)
(4.00403e-15 1.59289 -2.0796)
(5.47158e-15 2.30144 -2.44218)
(6.88976e-15 2.88775 -2.45655)
(4.17577e-15 2.37047 -1.55142)
(6.54067e-15 3.72053 -1.85721)
(4.98844e-15 3.0214 -1.25787)
(6.49684e-15 3.66368 -1.4155)
(7.76394e-15 4.32186 -1.35102)
(5.43099e-15 3.34142 -0.893122)
(7.1179e-15 4.99496 -1.10784)
(4.91794e-15 3.8755 -0.796878)
(6.70861e-15 4.60091 -0.929544)
(8.27601e-15 5.09226 -0.782094)
(5.32678e-15 4.02803 -0.511403)
(6.57826e-15 5.06893 -0.527634)
(6.60167e-15 5.48253 -0.30902)
(4.30554e-15 4.00241 -0.233086)
(5.99627e-15 5.80124 -0.193803)
(4.10952e-15 4.33451 -0.176534)
(4.65015e-15 4.97128 -0.162403)
(4.15023e-15 5.30833 0.0149472)
(2.46722e-15 3.89287 -0.052779)
(3.18118e-15 5.55585 -0.0179011)
(2.12835e-15 4.09274 -0.0819615)
(2.76054e-15 4.67791 -0.0838009)
(2.83429e-15 4.76041 -0.00278771)
(1.46208e-15 3.6352 -0.0642301)
(2.15687e-15 4.50136 -0.0746349)
(2.36142e-15 4.57971 -0.0380904)
(1.20505e-15 3.28838 -0.0854457)
(2.03934e-15 4.69314 -0.139534)
(1.5586e-15 3.5133 -0.140149)
(1.78145e-15 3.95233 -0.199885)
(3.5089e-15 4.13586 -0.243847)
(2.611e-15 3.0777 -0.200941)
(2.18156e-15 4.31901 -0.320845)
(1.19705e-15 3.21717 -0.252032)
(1.76102e-15 3.6183 -0.361807)
(8.7945e-16 3.5766 -0.488741)
(4.72281e-16 2.75344 -0.352075)
(4.72111e-16 3.36923 -0.485779)
(3.71435e-16 3.10764 -0.668806)
(-3.56672e-16 2.21933 -0.467766)
(8.92927e-16 2.98372 -0.753209)
(6.9602e-16 2.11743 -0.563285)
(7.97562e-16 2.29451 -0.845819)
(-5.79373e-15 1.85531 -1.36735)
(-4.79075e-15 1.08741 -0.956238)
(-1.17874e-14 1.77414 -1.66752)
(-9.47691e-15 0.676471 -1.22267)
(-1.87918e-14 1.32876 -2.28596)
(-1.15378e-14 -0.199699 -1.56351)
(-3.30872e-16 -0.768317 -0.161362)
(-1.54039e-16 -0.221782 0.0158181)
(9.74189e-15 -2.69305 1.38417)
(7.74879e-15 -2.7062 1.60773)
(1.28441e-14 -4.56347 2.61122)
(1.18012e-14 -4.00304 2.59483)
(1.9667e-14 -5.83398 4.49944)
(2.22984e-14 -8.17266 5.30081)
(2.01299e-14 -7.93293 4.86965)
(2.95988e-14 -12.2934 7.30066)
(2.43656e-14 -9.65178 6.23754)
(3.89779e-14 -14.6817 10.1122)
(3.90518e-14 -17.5301 10.2645)
(3.32968e-14 -14.9234 9.0686)
(5.15961e-14 -21.1036 14.2131)
(4.9061e-14 -23.3023 13.9377)
(4.1255e-14 -21.7936 12.1259)
(5.9247e-14 -32.1142 17.5127)
(4.61497e-14 -25.1561 14.0432)
(7.34102e-14 -34.8885 22.6067)
(2.90431e-37 0.418587 -0.875602)
(2.62473e-37 0.403433 -0.914842)
(1.82973e-37 0.415201 -0.945862)
(2.59768e-37 0.430625 -0.961799)
(7.1108e-37 0.440194 -0.96379)
(2.67361e-36 0.440019 -0.960503)
(7.60764e-36 0.429321 -0.961412)
(3.46918e-35 0.406533 -0.972274)
(-3.171e-34 0.353804 -1.00117)
(-5.89043e-34 0.283414 -1.12191)
(1.04862e-32 0.429865 -1.43259)
(-1.4222e-32 1.17671 -1.47641)
(-1.75363e-31 2.28059 -0.981068)
(-2.89954e-31 3.0565 -0.634476)
(-2.1561e-31 3.29315 -0.655195)
(-9.85418e-32 3.28174 -0.75665)
(-2.72739e-32 3.27306 -0.798569)
(-1.4828e-32 3.36351 -0.746738)
(7.68574e-32 3.50224 -0.645905)
(-2.76464e-31 3.54848 -0.598878)
(1.62098e-31 3.42002 -0.623661)
(-2.88145e-31 3.1004 -0.607149)
(2.01012e-30 2.56771 -0.670959)
(-1.9872e-29 1.97948 -0.731132)
(2.65125e-28 1.68059 -0.831676)
(-2.06153e-27 1.93272 -1.01149)
(5.87503e-27 2.49526 -0.976645)
(4.65969e-26 2.89252 -0.627496)
(-9.87987e-25 3.04636 -0.171764)
(1.50293e-24 3.05528 -0.00532286)
(4.3688e-24 2.93494 -0.0185641)
(1.16723e-24 2.66601 -0.120908)
(-3.13576e-24 2.3402 -0.253036)
(6.27047e-24 2.06606 -0.355571)
(-3.06766e-23 1.93357 -0.331832)
(-1.68626e-22 1.85668 -0.200909)
(6.51807e-21 1.76296 -0.0634325)
(-8.53546e-19 1.63326 0.169787)
(-2.52895e-18 1.40135 0.319506)
(-2.33584e-18 1.17507 0.507711)
(-1.68204e-18 0.985715 0.679301)
(-8.58609e-19 0.829228 0.863799)
(1.04457e-19 0.701686 1.06642)
(4.25531e-19 0.629439 1.24809)
(-1.30689e-18 0.653359 1.36998)
(-7.82562e-18 0.728723 1.45444)
(-2.26477e-17 0.812651 1.54902)
(-4.59369e-17 0.890236 1.67527)
(-7.22042e-17 0.977138 1.81735)
(-9.98587e-17 1.08584 1.96135)
(-1.46955e-16 1.2216 2.10752)
(-2.63793e-16 1.3917 2.25585)
(-4.99614e-16 1.605 2.40543)
(-7.33231e-16 1.86291 2.55911)
(-4.72052e-16 2.15697 2.73274)
(9.00407e-16 2.47401 2.95716)
(3.2703e-15 2.8128 3.24415)
(4.73996e-15 3.20525 3.52341)
(3.87926e-15 3.69724 3.64014)
(8.95847e-16 4.2811 3.46384)
(-2.81088e-15 4.86872 2.98164)
(-6.36617e-15 5.31755 2.27126)
(-9.57854e-15 5.49597 1.42399)
(-1.19067e-14 5.29543 0.544915)
(-1.24461e-14 4.77875 -0.252974)
(-1.09387e-14 4.05236 -0.84444)
(-9.80519e-15 3.43058 -1.17024)
(-1.16617e-14 3.22797 -1.19529)
(-1.33766e-14 3.73277 -1.04147)
(-1.13032e-14 4.68344 -0.776546)
(-6.55061e-15 5.96162 -0.110814)
(-2.3197e-15 7.34531 0.897167)
(3.11697e-15 6.58387 2.27666)
(6.5884e-15 2.40077 4.48692)
(8.06827e-15 -1.29134 6.15436)
(1.18401e-14 -4.21218 7.38892)
(2.15143e-14 -9.01654 10.7817)
(3.96709e-14 -17.4077 16.6784)
(6.47793e-14 -28.4433 23.9348)
(2.78405e-37 0.424788 -0.995965)
(2.66119e-37 0.413811 -1.02882)
(1.79997e-37 0.422423 -1.0526)
(6.63549e-38 0.433427 -1.06856)
(-8.21369e-38 0.440045 -1.07664)
(4.7764e-37 0.439578 -1.08266)
(4.16192e-36 0.430918 -1.09442)
(7.09604e-35 0.412875 -1.12004)
(-1.75519e-34 0.378799 -1.17363)
(-1.6516e-33 0.349744 -1.31902)
(9.579e-33 0.485635 -1.62493)
(9.65574e-33 1.10627 -1.70886)
(-1.4321e-31 2.14901 -1.20954)
(-3.1569e-31 3.00496 -0.746021)
(-2.68103e-31 3.31096 -0.704542)
(-1.33939e-31 3.30296 -0.80392)
(-4.07834e-32 3.27069 -0.856901)
(-2.53531e-32 3.33898 -0.810681)
(1.25485e-31 3.47817 -0.699064)
(-4.73832e-31 3.54376 -0.636523)
(2.99909e-31 3.41967 -0.66838)
(-3.82516e-31 3.10427 -0.673734)
(3.52914e-30 2.58229 -0.738604)
(-3.12009e-29 1.99857 -0.878746)
(3.29949e-28 1.71798 -1.03972)
(-2.00536e-27 1.95138 -1.19504)
(2.06196e-27 2.43534 -1.10408)
(8.8047e-26 2.77052 -0.745534)
(-1.10076e-24 2.95264 -0.311652)
(1.91211e-24 3.0313 -0.131793)
(6.24724e-24 2.9501 -0.127479)
(1.63882e-24 2.69766 -0.200464)
(-4.50688e-24 2.37122 -0.294097)
(7.72439e-24 2.07365 -0.377253)
(-5.904e-23 1.90614 -0.35458)
(3.07779e-23 1.81198 -0.216299)
(8.32494e-21 1.70247 -0.0769896)
(-7.08249e-19 1.57063 0.156502)
(-2.54499e-18 1.34492 0.311076)
(-2.3939e-18 1.11474 0.496319)
(-1.75137e-18 0.925677 0.653432)
(-1.11471e-18 0.763863 0.800218)
(-2.99882e-19 0.634261 0.954761)
(4.19263e-19 0.570198 1.10512)
(3.62607e-19 0.60731 1.22988)
(-3.76958e-18 0.687859 1.34102)
(-1.74977e-17 0.766585 1.47118)
(-4.19378e-17 0.837158 1.6263)
(-7.0354e-17 0.921137 1.78572)
(-9.96853e-17 1.02889 1.94513)
(-1.46016e-16 1.16358 2.11034)
(-2.56974e-16 1.33273 2.27949)
(-4.80484e-16 1.54494 2.4509)
(-6.67297e-16 1.79934 2.62807)
(-2.30875e-16 2.08312 2.8329)
(1.49018e-15 2.38302 3.10694)
(4.11254e-15 2.71263 3.45998)
(5.31135e-15 3.13009 3.78954)
(3.67341e-15 3.69231 3.90131)
(-6.08023e-17 4.37007 3.66587)
(-4.28703e-15 5.04201 3.10755)
(-8.4915e-15 5.54906 2.32782)
(-1.26126e-14 5.75558 1.41234)
(-1.57329e-14 5.54914 0.464993)
(-1.6422e-14 4.98924 -0.387756)
(-1.40595e-14 4.18847 -1.00622)
(-1.10792e-14 3.47158 -1.30455)
(-1.17365e-14 3.17689 -1.20293)
(-1.48093e-14 3.6212 -0.851264)
(-1.34759e-14 4.49172 -0.414058)
(-7.60927e-15 5.66746 0.364246)
(-2.08663e-15 6.96313 1.2798)
(4.09927e-15 6.05689 2.59558)
(7.02153e-15 1.84968 4.50506)
(8.26194e-15 -1.69242 6.1028)
(1.28475e-14 -4.84913 7.69818)
(2.34967e-14 -10.2427 11.4283)
(4.28169e-14 -19.1039 17.7099)
(6.58895e-14 -29.3238 23.3401)
(2.6737e-37 0.426399 -1.07567)
(2.64511e-37 0.416898 -1.10453)
(2.26595e-37 0.42493 -1.12399)
(1.74763e-37 0.435833 -1.13834)
(-5.74415e-38 0.442672 -1.14781)
(-8.25738e-37 0.443048 -1.15785)
(-9.23059e-36 0.436424 -1.17513)
(5.73801e-35 0.422229 -1.20775)
(2.73337e-35 0.396652 -1.27022)
(-2.30497e-33 0.384212 -1.4148)
(4.85988e-33 0.520612 -1.69534)
(1.71064e-32 1.08143 -1.81113)
(-1.11661e-31 2.06499 -1.36673)
(-3.16183e-31 2.94931 -0.849786)
(-3.04677e-31 3.3095 -0.747079)
(-1.66081e-31 3.31598 -0.832894)
(-5.51389e-32 3.27362 -0.891052)
(-3.86278e-32 3.32741 -0.852601)
(1.84457e-31 3.46332 -0.738933)
(-7.2885e-31 3.54145 -0.665132)
(5.15896e-31 3.42685 -0.693327)
(-3.56227e-31 3.11479 -0.722638)
(5.50514e-30 2.60988 -0.780708)
(-4.46787e-29 2.0411 -0.955291)
(3.77677e-28 1.75031 -1.16088)
(-1.68907e-27 1.95064 -1.30692)
(-3.18744e-27 2.39561 -1.19472)
(1.26449e-25 2.71095 -0.84912)
(-1.17051e-24 2.90555 -0.436439)
(2.32216e-24 3.01427 -0.236467)
(8.33784e-24 2.95277 -0.220933)
(2.09691e-24 2.70721 -0.290677)
(-6.16604e-24 2.38274 -0.362096)
(6.77732e-24 2.07996 -0.41674)
(-7.65854e-23 1.89651 -0.384769)
(2.60963e-22 1.79311 -0.236774)
(4.93194e-21 1.67756 -0.0884989)
(-6.11732e-19 1.54457 0.143562)
(-2.54158e-18 1.3236 0.307949)
(-2.41106e-18 1.09608 0.496913)
(-1.71341e-18 0.914215 0.660411)
(-1.08561e-18 0.75744 0.806056)
(-2.85376e-19 0.630245 0.946924)
(5.90671e-19 0.567492 1.08357)
(6.74533e-19 0.602572 1.21635)
(-4.44286e-18 0.677467 1.35567)
(-2.06046e-17 0.751255 1.5138)
(-4.68534e-17 0.82159 1.67852)
(-7.54696e-17 0.907019 1.83655)
(-1.05891e-16 1.01429 1.99886)
(-1.58031e-16 1.14781 2.1711)
(-2.8456e-16 1.31636 2.3484)
(-5.14137e-16 1.52765 2.52902)
(-5.97293e-16 1.77801 2.71978)
(1.76997e-16 2.05081 2.95284)
(2.33233e-15 2.33556 3.27647)
(4.94958e-15 2.66209 3.67842)
(5.42893e-15 3.10678 4.00974)
(2.89585e-15 3.72252 4.06303)
(-1.32015e-15 4.45534 3.75317)
(-5.8661e-15 5.16632 3.14506)
(-1.07496e-14 5.69724 2.33417)
(-1.58335e-14 5.91451 1.38435)
(-1.97953e-14 5.70037 0.398796)
(-2.09082e-14 5.11009 -0.48339)
(-1.82507e-14 4.26016 -1.11366)
(-1.36276e-14 3.47873 -1.38197)
(-1.14136e-14 3.13456 -1.17611)
(-1.49854e-14 3.56628 -0.66035)
(-1.49008e-14 4.41654 -0.0905963)
(-8.10266e-15 5.5745 0.718686)
(-1.61606e-15 6.8261 1.54788)
(4.94699e-15 5.82672 2.89919)
(7.48144e-15 1.59699 4.70916)
(8.69777e-15 -2.01916 6.14344)
(1.42691e-14 -5.44626 8.16848)
(2.62355e-14 -11.3539 12.3588)
(4.62573e-14 -20.4079 18.8049)
(6.49769e-14 -28.601 22.185)
(2.52433e-37 0.429692 -1.16265)
(2.45831e-37 0.422093 -1.18816)
(2.19123e-37 0.42866 -1.20423)
(2.01318e-37 0.437961 -1.21747)
(1.75503e-37 0.444267 -1.22807)
(1.31041e-36 0.445573 -1.24137)
(-1.07974e-35 0.441389 -1.26364)
(3.66818e-35 0.43226 -1.30282)
(2.91905e-34 0.419538 -1.37265)
(-2.12472e-33 0.429595 -1.51587)
(1.42782e-33 0.562511 -1.77477)
(2.26933e-32 1.04713 -1.91641)
(-8.06618e-32 1.96381 -1.5303)
(-3.11971e-31 2.88166 -0.971669)
(-3.43267e-31 3.30559 -0.802892)
(-2.04205e-31 3.33047 -0.869918)
(-7.34074e-32 3.2755 -0.931484)
(-5.79257e-32 3.31096 -0.900484)
(2.70786e-31 3.44269 -0.784848)
(-1.11715e-30 3.53552 -0.69962)
(9.05667e-31 3.43259 -0.722484)
(-1.08441e-31 3.12335 -0.774514)
(7.81062e-30 2.63121 -0.830066)
(-5.81477e-29 2.07791 -1.02376)
(3.98274e-28 1.78814 -1.26165)
(-1.12863e-27 1.95638 -1.41053)
(-9.86819e-27 2.34727 -1.29139)
(1.69102e-25 2.62882 -0.960152)
(-1.2713e-24 2.83781 -0.566835)
(2.82901e-24 2.9896 -0.342315)
(1.1057e-23 2.95926 -0.310241)
(2.45579e-24 2.72326 -0.379637)
(-8.69956e-24 2.3948 -0.439877)
(4.12581e-24 2.07925 -0.467164)
(-8.83938e-23 1.87404 -0.421151)
(4.38432e-22 1.7579 -0.262556)
(1.95689e-21 1.63306 -0.102734)
(-5.11641e-19 1.49808 0.128017)
(-2.52038e-18 1.28088 0.301859)
(-2.43901e-18 1.05151 0.490231)
(-1.70103e-18 0.871677 0.654145)
(-1.08687e-18 0.715039 0.799651)
(-2.60681e-19 0.58729 0.937172)
(6.90978e-19 0.523854 1.0713)
(6.56504e-19 0.559038 1.21135)
(-5.14026e-18 0.633825 1.36346)
(-2.20007e-17 0.70778 1.52756)
(-4.82555e-17 0.778974 1.69079)
(-7.74037e-17 0.863865 1.85282)
(-1.10441e-16 0.969093 2.02616)
(-1.69955e-16 1.10115 2.21009)
(-3.10715e-16 1.26902 2.39941)
(-5.25624e-16 1.47895 2.593)
(-4.52454e-16 1.72332 2.80267)
(6.98146e-16 1.98117 3.07192)
(3.20377e-15 2.24819 3.45095)
(5.61086e-15 2.57674 3.8967)
(5.28114e-15 3.06263 4.2188)
(1.98762e-15 3.74901 4.2159)
(-2.6131e-15 4.55273 3.84962)
(-7.54289e-15 5.3182 3.20632)
(-1.32232e-14 5.88805 2.36428)
(-1.93226e-14 6.1263 1.37238)
(-2.41645e-14 5.90582 0.342627)
(-2.57877e-14 5.2774 -0.573574)
(-2.3164e-14 4.35986 -1.21997)
(-1.75652e-14 3.48284 -1.4617)
(-1.21486e-14 3.04461 -1.16154)
(-1.47568e-14 3.42677 -0.503012)
(-1.58672e-14 4.24314 0.205123)
(-8.41836e-15 5.37789 1.0682)
(-1.0472e-15 6.57396 1.87051)
(5.8626e-15 5.46745 3.27618)
(8.08703e-15 1.23961 5.02774)
(9.42905e-15 -2.37156 6.40524)
(1.6009e-14 -6.08359 8.84148)
(2.91447e-14 -12.3563 13.4386)
(4.89583e-14 -21.2417 19.6963)
(6.4597e-14 -27.9363 21.762)
(2.34195e-37 0.431641 -1.24727)
(2.2548e-37 0.4254 -1.26955)
(2.05812e-37 0.431415 -1.28247)
(1.91996e-37 0.440444 -1.29456)
(-7.50895e-38 0.44715 -1.30582)
(1.93808e-36 0.44982 -1.32133)
(-1.05652e-35 0.448279 -1.34719)
(-1.48524e-35 0.443723 -1.39146)
(4.49332e-34 0.440113 -1.46658)
(-1.55797e-33 0.466482 -1.60499)
(-1.82216e-33 0.6033 -1.8371)
(2.39464e-32 1.03023 -1.99518)
(-5.06814e-32 1.87247 -1.68036)
(-2.98044e-31 2.80346 -1.10471)
(-3.78686e-31 3.29039 -0.868454)
(-2.46786e-31 3.34205 -0.909079)
(-9.57284e-32 3.27934 -0.970921)
(-8.52529e-32 3.29725 -0.947861)
(3.94142e-31 3.4224 -0.832749)
(-1.69541e-30 3.52857 -0.736654)
(1.6028e-30 3.44125 -0.750864)
(5.8431e-31 3.13568 -0.823086)
(1.00374e-29 2.65828 -0.87832)
(-6.93345e-29 2.12563 -1.07803)
(3.77017e-28 1.82801 -1.3388)
(-2.43413e-28 1.95793 -1.49323)
(-1.83163e-26 2.30392 -1.37929)
(2.17355e-25 2.56189 -1.07147)
(-1.41088e-24 2.77866 -0.703231)
(3.39431e-24 2.96204 -0.455553)
(1.44952e-23 2.96107 -0.401588)
(2.45439e-24 2.73462 -0.46948)
(-1.27219e-23 2.40119 -0.526579)
(-6.62892e-25 2.07575 -0.528444)
(-9.55027e-23 1.85386 -0.463378)
(5.81746e-22 1.727 -0.29285)
(-9.57083e-22 1.59642 -0.118267)
(-4.20978e-19 1.46035 0.110627)
(-2.48631e-18 1.24787 0.29559)
(-2.46886e-18 1.02159 0.484643)
(-1.68444e-18 0.847899 0.648992)
(-1.08313e-18 0.695761 0.792814)
(-2.43333e-19 0.570667 0.928665)
(7.44508e-19 0.507674 1.06267)
(6.13027e-19 0.540133 1.20688)
(-5.48091e-18 0.610887 1.3654)
(-2.2589e-17 0.682431 1.53428)
(-4.92528e-17 0.752784 1.70234)
(-7.9764e-17 0.835939 1.87351)
(-1.15914e-16 0.93872 2.057)
(-1.84427e-16 1.06894 2.25078)
(-3.39163e-16 1.23544 2.45065)
(-5.22449e-16 1.44257 2.65622)
(-2.49237e-16 1.67775 2.88606)
(1.30507e-15 1.91655 3.19555)
(4.07335e-15 2.16579 3.63063)
(6.08913e-15 2.50356 4.10918)
(4.88225e-15 3.03849 4.40693)
(9.24196e-16 3.79379 4.34558)
(-3.98999e-15 4.65764 3.93381)
(-9.33522e-15 5.46701 3.2652)
(-1.5819e-14 6.07014 2.3952)
(-2.29495e-14 6.32655 1.36348)
(-2.86788e-14 6.09746 0.293764)
(-3.08724e-14 5.42952 -0.652921)
(-2.84835e-14 4.4428 -1.31584)
(-2.23532e-14 3.46635 -1.53068)
(-1.40426e-14 2.93838 -1.13014)
(-1.44426e-14 3.28537 -0.337878)
(-1.64515e-14 4.0885 0.503474)
(-8.59476e-15 5.22542 1.41424)
(-3.63697e-16 6.36968 2.21309)
(6.81817e-15 5.16644 3.69518)
(8.84167e-15 0.95058 5.42666)
(1.0453e-14 -2.77665 6.85707)
(1.8024e-14 -6.82584 9.68431)
(3.21005e-14 -13.4105 14.562)
(5.11832e-14 -21.9761 20.2888)
(6.23054e-14 -27.1448 20.4536)
(2.10048e-37 0.433686 -1.33146)
(1.9812e-37 0.428595 -1.35107)
(1.79985e-37 0.433941 -1.36149)
(2.10482e-37 0.442553 -1.37267)
(-1.96745e-37 0.449729 -1.38443)
(2.32977e-36 0.454006 -1.40149)
(-3.33477e-36 0.455454 -1.42971)
(-6.7647e-35 0.456107 -1.47715)
(4.73749e-34 0.461996 -1.5555)
(-7.37992e-34 0.502335 -1.68908)
(-4.08985e-33 0.6417 -1.89515)
(2.21808e-32 1.01807 -2.05883)
(-2.40797e-32 1.78615 -1.81567)
(-2.76405e-31 2.71861 -1.24517)
(-4.09819e-31 3.26643 -0.945296)
(-2.93581e-31 3.35079 -0.95301)
(-1.22472e-31 3.28338 -1.01149)
(-1.23396e-31 3.28372 -0.995769)
(5.6903e-31 3.40065 -0.882919)
(-2.54788e-30 3.51922 -0.776851)
(2.83763e-30 3.4501 -0.78024)
(2.04459e-30 3.14924 -0.868256)
(1.13847e-29 2.68278 -0.92854)
(-7.46205e-29 2.1711 -1.12197)
(2.95737e-28 1.87111 -1.39407)
(1.04787e-27 1.96403 -1.55916)
(-2.88511e-26 2.26331 -1.46067)
(2.74231e-25 2.49558 -1.18082)
(-1.61061e-24 2.71616 -0.840435)
(3.98645e-24 2.92922 -0.574196)
(1.87719e-23 2.96151 -0.493541)
(1.63008e-24 2.74767 -0.555259)
(-1.93283e-23 2.40629 -0.615229)
(-8.29814e-24 2.06687 -0.597923)
(-9.8204e-23 1.82782 -0.510823)
(6.58926e-22 1.68998 -0.327344)
(-2.33947e-21 1.55397 -0.135761)
(-3.37996e-19 1.41687 0.0915202)
(-2.43696e-18 1.20794 0.287755)
(-2.50556e-18 0.982977 0.476682)
(-1.66758e-18 0.81271 0.642681)
(-1.07111e-18 0.662162 0.785363)
(-2.36394e-19 0.536787 0.919924)
(7.73977e-19 0.471615 1.05379)
(6.092e-19 0.501349 1.20162)
(-5.5851e-18 0.570574 1.36628)
(-2.28774e-17 0.642486 1.54103)
(-5.01548e-17 0.713366 1.71496)
(-8.2116e-17 0.795333 1.89391)
(-1.22003e-16 0.896088 2.08571)
(-2.01659e-16 1.02488 2.28871)
(-3.6826e-16 1.19039 2.49859)
(-4.97015e-16 1.39429 2.71634)
(2.41429e-17 1.61788 2.96917)
(1.99286e-15 1.83467 3.3237)
(4.90305e-15 2.06798 3.81383)
(6.35438e-15 2.42394 4.3132)
(4.25299e-15 3.01737 4.57603)
(-2.47953e-16 3.84477 4.46135)
(-5.37188e-15 4.76864 4.01789)
(-1.11736e-14 5.62449 3.33145)