/*--------------------------------*- C++ -*----------------------------------*\
| =========                 |                                                 |
| \\      /  F ield         | OpenFOAM: The Open Source CFD Toolbox           |
|  \\    /   O peration     | Version:  4.1                                   |
|   \\  /    A nd           | Web:      www.OpenFOAM.org                      |
|    \\/     M anipulation  |                                                 |
\*---------------------------------------------------------------------------*/
FoamFile
{
    version     2.0;
    format      ascii;
    class       volScalarField;
    location    "7";
    object      p;
}
// * * * * * * * * * * * * * * * * * * * * * * * * * * * * * * * * * * * * * //

dimensions      [0 2 -2 0 0 0 0];

internalField   nonuniform List<scalar> 
225
(
-3.61373e+08
7.30286e+08
1.79214e+09
1.84809e+09
1.17218e+09
4.46272e+08
1.06405e+08
-4.32427e+07
-2.39441e+08
-5.54662e+08
-1.0345e+09
-1.36342e+09
-1.29017e+09
-7.54444e+08
-2.23659e+08
1.37301e+09
7.06739e+07
-7.48439e+08
-7.73018e+08
-5.01874e+08
-4.40188e+08
-6.51415e+08
-8.37848e+08
-9.91046e+08
-1.03887e+09
-8.02029e+08
-4.37324e+08
-4.78259e+08
-1.04775e+09
-1.73173e+09
-1.5223e+08
-8.32793e+07
-1.33771e+07
-1.07806e+08
-2.81369e+08
-5.74308e+08
-9.29689e+08
-8.99099e+08
-6.97586e+08
-9.41049e+08
-1.64596e+09
-2.06277e+09
-1.93045e+09
-1.60714e+09
-1.40499e+09
8.92283e+08
1.00874e+09
1.26136e+09
1.26527e+09
1.37205e+09
1.48822e+09
1.44284e+09
1.1427e+09
8.32643e+08
5.74772e+08
4.5204e+08
6.29652e+08
6.47924e+08
3.99483e+08
3.67995e+08
2.46113e+09
2.05635e+09
1.90987e+09
1.95328e+09
1.93762e+09
2.00426e+09
2.18532e+09
2.30401e+09
2.31515e+09
2.0859e+09
1.621e+09
1.34628e+09
1.56119e+09
1.84918e+09
2.22937e+09
3.47534e+09
3.35842e+09
3.43737e+09
3.54634e+09
3.4965e+09
3.25242e+09
2.94828e+09
2.49576e+09
2.07076e+09
2.10665e+09
2.13127e+09
1.75808e+09
1.32441e+09
1.25329e+09
1.5585e+09
2.39628e+09
2.24324e+09
2.18232e+09
2.18211e+09
2.10572e+09
1.89551e+09
1.80067e+09
1.9336e+09
2.07377e+09
2.13636e+09
2.11972e+09
2.13117e+09
2.27258e+09
2.56809e+09
2.71147e+09
2.67986e+09
2.70196e+09
2.61676e+09
2.42137e+09
2.29837e+09
2.30666e+09
2.30558e+09
2.31209e+09
2.38669e+09
2.5174e+09
2.67667e+09
2.85381e+09
2.90647e+09
2.88027e+09
2.73184e+09
3.48766e+09
3.34577e+09
2.9869e+09
2.59554e+09
2.31604e+09
2.23594e+09
2.32736e+09
2.44173e+09
2.50011e+09
2.50408e+09
2.36728e+09
2.1865e+09
2.06802e+09
2.07878e+09
2.14445e+09
2.85774e+09
2.75996e+09
2.65453e+09
2.49061e+09
2.33408e+09
2.19244e+09
2.09698e+09
2.05584e+09
2.0507e+09
2.10183e+09
2.19605e+09
2.23197e+09
2.25347e+09
2.43297e+09
2.75733e+09
2.23959e+09
2.23744e+09
2.24376e+09
2.20182e+09
2.12284e+09
2.04371e+09
1.97881e+09
1.9203e+09
1.87777e+09
1.87721e+09
1.8956e+09
1.9033e+09
1.90528e+09
1.92068e+09
2.05804e+09
2.23335e+09
2.13494e+09
2.04777e+09
1.94158e+09
1.83899e+09
1.80162e+09
1.85407e+09
1.94415e+09
2.02412e+09
2.07797e+09
2.11382e+09
2.12039e+09
2.08267e+09
2.05407e+09
2.05823e+09
1.95624e+09
2.04833e+09
2.16964e+09
2.0484e+09
1.90079e+09
1.95255e+09
2.11601e+09
2.25685e+09
2.34449e+09
2.39603e+09
2.42939e+09
2.39913e+09
2.32862e+09
2.36878e+09
2.64204e+09
1.83679e+09
2.50107e+09
2.49081e+09
2.07271e+09
1.77491e+09
1.68316e+09
1.61066e+09
1.47389e+09
1.31753e+09
1.24215e+09
1.22173e+09
1.19857e+09
1.18159e+09
1.25289e+09
1.58424e+09
9.92171e+08
6.04904e+08
4.30997e+08
3.39923e+08
2.91761e+08
2.67088e+08
3.50548e+08
6.60279e+08
6.4123e+08
3.46068e+08
2.06632e+08
3.0395e+08
1.97459e+08
-3.28238e+08
1.14962e+09
)
;

boundaryField
{
    inletFace
    {
        type            zeroGradient;
    }
    inlet
    {
        type            zeroGradient;
    }
    inletWalls
    {
        type            zeroGradient;
    }
    outletInlet
    {
        type            fixedValue;
        value           uniform 0;
    }
}


// ************************************************************************* //
