/*--------------------------------*- C++ -*----------------------------------*\
| =========                 |                                                 |
| \\      /  F ield         | OpenFOAM: The Open Source CFD Toolbox           |
|  \\    /   O peration     | Version:  4.1                                   |
|   \\  /    A nd           | Web:      www.OpenFOAM.org                      |
|    \\/     M anipulation  |                                                 |
\*---------------------------------------------------------------------------*/
FoamFile
{
    version     2.0;
    format      ascii;
    class       surfaceScalarField;
    location    "7";
    object      phi;
}
// * * * * * * * * * * * * * * * * * * * * * * * * * * * * * * * * * * * * * //

dimensions      [0 3 -1 0 0 0 0];

internalField   nonuniform List<scalar> 
420
(
3.28343e+07
-3.28305e+07
3.08818e+07
1.95409e+06
2.51777e+07
5.70566e+06
1.94456e+07
5.7337e+06
1.6086e+07
3.36109e+06
1.19371e+07
4.1505e+06
8.38282e+06
3.55587e+06
6.17979e+06
2.20459e+06
2.74588e+06
3.43546e+06
8072.88
2.73939e+06
-1.04484e+06
1.05444e+06
-1.63138e+06
588270
-1.61018e+06
-19409.8
-1.84848e+06
240178
-1.84718e+06
-3.36529e+07
822851
-2.96589e+07
-2.03949e+06
-2.67095e+07
2.7566e+06
-2.3306e+07
2.33055e+06
-1.8214e+07
-1.73062e+06
-1.21207e+07
-1.94248e+06
-7.73517e+06
-829335
-5.0376e+06
-492642
-2.72187e+06
1.12011e+06
-480624
498473
143117
431013
733958
-2259.97
1.13929e+06
-424385
1.53213e+06
-152305
-315031
987698
-163473
540627
-1.59096e+06
2.50197e+06
796360
5.26482e+06
-430943
7.73943e+06
-4.20374e+06
1.15985e+07
-5.80059e+06
1.33408e+07
-2.57097e+06
1.29282e+07
-79601.9
1.25975e+07
1.45124e+06
1.00445e+07
3.05215e+06
7.86613e+06
2.60984e+06
6.91146e+06
953596
4.53482e+06
1.95362e+06
1.42435e+06
2.95953e+06
1.10932e+06
1.74757e+06
-1.91046e+06
279588
-122420
6.61459e+06
-5.53815e+06
7.42348e+06
-1.23916e+06
2.58885e+06
631684
-2.31919e+06
-891912
-4.76508e+06
-124751
-6.35743e+06
1.51315e+06
-7.16343e+06
2.25761e+06
-8.13159e+06
4.02057e+06
-8.27352e+06
2.75212e+06
-8.8258e+06
1.50573e+06
-9.00097e+06
2.12871e+06
-7.35192e+06
1.3104e+06
-6.24259e+06
3.46748e+06
-5.37784e+06
1.17615e+07
-8.41632e+06
9.71965e+06
-3.49625e+06
5.39083e+06
3.08974e+06
-2.16487e+06
8.18744e+06
-8.86424e+06
5.80751e+06
-1.30874e+07
4.09847e+06
-1.62857e+07
4.71138e+06
-1.82204e+07
4.19236e+06
-1.80601e+07
3.86041e+06
-1.82974e+07
2.9893e+06
-1.7871e+07
1.07993e+06
-1.5319e+07
-422713
-1.22259e+07
-1.78187e+06
-1.84685e+07
5.31604e+06
-1.06939e+07
2.46208e+06
-5.56223e+06
-4.86271e+06
3.82854e+06
-6.19204e+06
4.41911e+06
-3.97935e+06
5.9747e+06
-3.28338e+06
5.11155e+06
-3.2413e+06
4.05634e+06
-2.03491e+06
3.50498e+06
-1.28449e+06
3.44187e+06
-1.06699e+06
3.64274e+06
-492174
2.41443e+06
440988
145901
850841
-833508
692002
-1.62506e+06
-1.77765e+07
1.67672e+07
-2.74611e+07
8.49309e+06
2.71198e+06
4.378e+06
7.94361e+06
2.06901e+06
6.72814e+06
5.35366e+06
2.69005e+06
5.05656e+06
5.40867e+06
1.60061e+06
7.51231e+06
-2.84263e+06
7.94818e+06
-6.96443e+06
7.56366e+06
-9.21807e+06
5.89646e+06
-6.65991e+06
-143819
-4.438e+06
-2.07535e+06
-2.1001e+06
-3.17061e+06
2.01286e+06
-5.73656e+06
-1.57636e+07
-2.31273e+07
-4.33355e+06
-2.77989e+07
7.38363e+06
-3.04095e+07
1.05542e+07
-3.58122e+07
1.21309e+07
-3.99934e+07
6.87114e+06
-4.09306e+07
6.34588e+06
-3.97545e+07
6.33603e+06
-3.70053e+07
5.19895e+06
-3.24611e+07
3.01926e+06
-2.26644e+07
-3.90073e+06
5.3053e+06
-2.81136e+07
1.04746e+07
-7.24586e+06
1.18839e+07
-4.58093e+06
1.00235e+07
-3.87751e+06
-5.74007e+06
-9.62339e+06
5.2899e+06
-9.85288e+06
7.61316e+06
-6.11047e+06
6.81181e+06
-15081.7
6.03553e+06
3.96543e+06
2.89069e+06
8.76166e+06
1.5497e+06
1.43684e+07
729446
1.93507e+07
216704
2.24038e+07
-33694.8
2.37811e+07
-5.27738e+06
1.27305e+07
-1.70627e+07
7.71402e+06
-2.2289e+06
4.6533e+06
-1.51994e+06
2.4579e+06
-1.6818e+06
-3.28217e+06
4.59279e+06
697011
7.87047e+06
4.33537e+06
1.38927e+07
789520
2.39567e+07
-4.02859e+06
2.90952e+07
-2.2478e+06
3.23749e+07
-1.73011e+06
3.43114e+07
-1.20705e+06
3.50271e+07
-498949
3.21199e+07
2.87359e+06
2.51128e+07
1.72962e+06
5.38397e+06
2.66621e+06
581049
2.57354e+06
-2.28644e+06
1.34724e+06
-2.06162e+06
-1.90691e+06
-5.3438e+06
-4.43033e+06
5.12674e+06
-5.96312e+06
5.8676e+06
-7.13185e+06
1.95743e+06
-1.0605e+07
-556120
-1.42454e+07
1.39197e+06
-1.86773e+07
2.70131e+06
-2.25774e+07
2.69259e+06
-2.46749e+07
1.59804e+06
-2.21552e+07
353549
-2.14529e+07
1.02714e+06
-2.00705e+07
1.28366e+06
-1.48454e+07
-2.65157e+06
-1.00664e+07
-3.43181e+06
-4.61805e+06
-7.35534e+06
-9.96185e+06
-523121
5.6493e+06
1.22336e+06
4.12054e+06
3.75183e+06
-571884
4.39561e+06
-1.20108e+06
4.29261e+06
1.49373e+06
3.94716e+06
3.04563e+06
2.95645e+06
3.68123e+06
-464241
5.01619e+06
-3.33651e+06
3.22386e+06
-4.04229e+06
1.73182e+06
-3.62565e+06
866459
-3.0189e+06
-3.25917e+06
-480764
-5.97043e+06
1.1914e+06
-9.0279e+06
-8.77045e+06
-2.80709e+06
8.45608e+06
-4.24392e+06
5.55707e+06
-6.60073e+06
1.78462e+06
-9.19844e+06
1.39642e+06
-1.05129e+07
2.80797e+06
-1.23459e+07
4.87845e+06
-1.08879e+07
2.22307e+06
-6.62851e+06
756687
-2.95405e+06
-450712
-682761
-539542
1.45238e+06
-1.26876e+06
737590
-2.5444e+06
-1.28991e+06
-3.94297e+06
-2.75488e+06
-7.56297e+06
-1.15253e+07
991441
7.46439e+06
2.01973e+06
4.52855e+06
2.56139e+06
1.24262e+06
3.44607e+06
511446
3.76052e+06
2.49285e+06
2.98599e+06
5.65248e+06
-1.1691e+06
6.37775e+06
-2.13599e+06
1.72338e+06
-1.07191e+06
-1.51506e+06
836921
-2.44857e+06
690911
-1.1228e+06
-1.60071e+06
-252923
-2.07804e+06
-3.46568e+06
-3.27599e+06
-6.36503e+06
-1.48013e+07
692562
1.89336e+06
1.69583e+06
-155981
-2.57287e+06
-1.2109e+06
4.47727e+06
8.69939e+06
9.58488e+06
6.83967e+06
4.06551e+06
-758181
-2.58744e+06
133549
)
;

boundaryField
{
    inletFace
    {
        type            calculated;
        value           nonuniform List<scalar> 
450
(
-1.32793e-05
-2.13951e-05
-2.24134e-05
-2.17644e-05
-1.98919e-05
-1.94599e-05
-1.97412e-05
-1.88514e-05
-1.82413e-05
-1.7806e-05
-1.70199e-05
-1.63579e-05
-1.50113e-05
-1.34875e-05
-8.41163e-06
-1.93003e-05
-2.48254e-05
-2.19142e-05
-2.01115e-05
-2.06376e-05
-2.05173e-05
-2.02691e-05
-2.03193e-05
-2.03524e-05
-2.01e-05
-1.83073e-05
-1.69015e-05
-1.53306e-05
-1.16725e-05
-7.04648e-06
-2.03567e-05
-2.37345e-05
-2.0727e-05
-2.11512e-05
-2.2126e-05
-2.07896e-05
-1.96969e-05
-1.91579e-05
-1.89778e-05
-1.87499e-05
-1.94197e-05
-2.01042e-05
-2.04903e-05
-2.00977e-05
-1.22892e-05
-1.66717e-05
-2.00494e-05
-2.07278e-05
-2.1287e-05
-2.1793e-05
-1.94758e-05
-1.8678e-05
-1.81217e-05
-1.76959e-05
-1.7636e-05
-1.79439e-05
-1.7583e-05
-1.63459e-05
-1.32622e-05
-8.70349e-06
-9.48952e-06
-1.54508e-05
-1.83611e-05
-1.99572e-05
-1.96161e-05
-1.88696e-05
-1.82109e-05
-1.77151e-05
-1.70095e-05
-1.61447e-05
-1.56383e-05
-1.47314e-05
-1.25334e-05
-1.11624e-05
-5.42783e-06
-1.43246e-05
-1.72426e-05
-1.9859e-05
-2.075e-05
-2.03832e-05
-2.03962e-05
-2.07119e-05
-2.09052e-05
-2.09727e-05
-2.08747e-05
-2.06956e-05
-2.12189e-05
-2.18539e-05
-2.34177e-05
-6.31073e-06
-8.24436e-06
-1.71805e-05
-2.10728e-05
-2.21969e-05
-2.13724e-05
-2.09495e-05
-2.04155e-05
-2.00832e-05
-1.97893e-05
-1.92592e-05
-1.80711e-05
-1.56965e-05
-1.46854e-05
-1.55286e-05
-3.21065e-06
-2.48768e-05
-2.53247e-05
-2.33712e-05
-2.21494e-05
-2.24241e-05
-2.20997e-05
-2.17743e-05
-2.1383e-05
-2.09514e-05
-2.02384e-05
-1.89406e-05
-1.29988e-05
-1.06881e-05
-1.01712e-05
-1.49034e-05
-2.44649e-05
-2.29739e-05
-2.1898e-05
-2.14346e-05
-2.20351e-05
-2.2306e-05
-2.20216e-05
-2.16971e-05
-2.12238e-05
-2.05836e-05
-1.83523e-05
-1.22739e-05
-9.53715e-06
-5.78769e-06
-3.75078e-06
-1.91004e-05
-2.56699e-05
-2.4825e-05
-2.43701e-05
-2.33582e-05
-2.28897e-05
-2.2646e-05
-2.19988e-05
-1.92765e-05
-1.80959e-05
-1.78717e-05
-1.78687e-05
-1.58715e-05
-1.16665e-05
-2.13371e-06
-1.98273e-05
-2.39786e-05
-2.3065e-05
-2.26705e-05
-2.25066e-05
-2.24701e-05
-2.24233e-05
-2.2585e-05
-2.03429e-05
-2.01952e-05
-2.0925e-05
-2.1706e-05
-2.20517e-05
-1.6553e-05
-4.30561e-06
-1.98705e-05
-2.31004e-05
-2.17024e-05
-2.07872e-05
-2.22767e-05
-2.28533e-05
-2.28309e-05
-2.26246e-05
-1.94913e-05
-1.93367e-05
-1.86789e-05
-1.49195e-05
-1.24331e-05
-6.64815e-06
-2.34726e-06
-1.89684e-05
-2.27833e-05
-2.0346e-05
-2.01407e-05
-1.95832e-05
-1.8879e-05
-1.80901e-05
-1.73048e-05
-1.65644e-05
-1.58798e-05
-1.52452e-05
-1.44676e-05
-1.18869e-05
-9.26738e-06
-4.48674e-06
-1.797e-05
-2.27237e-05
-2.19704e-05
-2.08299e-05
-2.02402e-05
-1.91126e-05
-1.80634e-05
-1.80473e-05
-1.74534e-05
-1.62055e-05
-1.56852e-05
-1.56194e-05
-2.00187e-05
-1.44577e-05
-6.31631e-06
-2.06437e-05
-2.51816e-05
-2.45415e-05
-2.39224e-05
-2.37304e-05
-2.47418e-05
-2.369e-05
-2.51936e-05
-2.33193e-05
-2.29076e-05
-2.22942e-05
-2.09746e-05
-1.84541e-05
-1.32067e-05
-6.03124e-06
1.32793e-05
2.13951e-05
2.24134e-05
2.17644e-05
1.98919e-05
1.94599e-05
1.97412e-05
1.88514e-05
1.82413e-05
1.7806e-05
1.70199e-05
1.63579e-05
1.50113e-05
1.34875e-05
8.41163e-06
1.93003e-05
2.48254e-05
2.19142e-05
2.01115e-05
2.06376e-05
2.05173e-05
2.02691e-05
2.03193e-05
2.03524e-05
2.01e-05
1.83073e-05
1.69015e-05
1.53306e-05
1.16725e-05
7.04648e-06
2.03567e-05
2.37345e-05
2.0727e-05
2.11512e-05
2.2126e-05
2.07896e-05
1.96969e-05
1.91579e-05
1.89778e-05
1.87499e-05
1.94197e-05
2.01042e-05
2.04903e-05
2.00977e-05
1.22892e-05
1.66717e-05
2.00494e-05
2.07278e-05
2.1287e-05
2.1793e-05
1.94758e-05
1.8678e-05
1.81217e-05
1.76959e-05
1.7636e-05
1.79439e-05
1.7583e-05
1.63459e-05
1.32622e-05
8.70349e-06
9.48952e-06
1.54508e-05
1.83611e-05
1.99572e-05
1.96161e-05
1.88696e-05
1.82109e-05
1.77151e-05
1.70095e-05
1.61447e-05
1.56383e-05
1.47314e-05
1.25334e-05
1.11624e-05
5.42783e-06
1.43246e-05
1.72426e-05
1.9859e-05
2.075e-05
2.03832e-05
2.03962e-05
2.07119e-05
2.09052e-05
2.09727e-05
2.08747e-05
2.06956e-05
2.12189e-05
2.18539e-05
2.34177e-05
6.31073e-06
8.24436e-06
1.71805e-05
2.10728e-05
2.21969e-05
2.13724e-05
2.09495e-05
2.04155e-05
2.00832e-05
1.97893e-05
1.92592e-05
1.80711e-05
1.56965e-05
1.46854e-05
1.55286e-05
3.21065e-06
2.48768e-05
2.53247e-05
2.33712e-05
2.21494e-05
2.24241e-05
2.20997e-05
2.17743e-05
2.1383e-05
2.09514e-05
2.02384e-05
1.89406e-05
1.29988e-05
1.06881e-05
1.01712e-05
1.49034e-05
2.44649e-05
2.29739e-05
2.1898e-05
2.14346e-05
2.20351e-05
2.2306e-05
2.20216e-05
2.16971e-05
2.12238e-05
2.05836e-05
1.83523e-05
1.22739e-05
9.53715e-06
5.78769e-06
3.75078e-06
1.91004e-05
2.56699e-05
2.4825e-05
2.43701e-05
2.33582e-05
2.28897e-05
2.2646e-05
2.19988e-05
1.92765e-05
1.80959e-05
1.78717e-05
1.78687e-05
1.58715e-05
1.16665e-05
2.13371e-06
1.98273e-05
2.39786e-05
2.3065e-05
2.26705e-05
2.25066e-05
2.24701e-05
2.24233e-05
2.2585e-05
2.03429e-05
2.01952e-05
2.0925e-05
2.1706e-05
2.20517e-05
1.6553e-05
4.30561e-06
1.98705e-05
2.31004e-05
2.17024e-05
2.07872e-05
2.22767e-05
2.28533e-05
2.28309e-05
2.26246e-05
1.94913e-05
1.93367e-05
1.86789e-05
1.49195e-05
1.24331e-05
6.64815e-06
2.34726e-06
1.89684e-05
2.27833e-05
2.0346e-05
2.01407e-05
1.95832e-05
1.8879e-05
1.80901e-05
1.73048e-05
1.65644e-05
1.58798e-05
1.52452e-05
1.44676e-05
1.18869e-05
9.26738e-06
4.48674e-06
1.797e-05
2.27237e-05
2.19704e-05
2.08299e-05
2.02402e-05
1.91126e-05
1.80634e-05
1.80473e-05
1.74534e-05
1.62055e-05
1.56852e-05
1.56194e-05
2.00187e-05
1.44577e-05
6.31631e-06
2.06437e-05
2.51816e-05
2.45415e-05
2.39224e-05
2.37304e-05
2.47418e-05
2.369e-05
2.51936e-05
2.33193e-05
2.29076e-05
2.22942e-05
2.09746e-05
1.84541e-05
1.32067e-05
6.03124e-06
)
;
    }
    inlet
    {
        type            calculated;
        value           nonuniform List<scalar> 
15
(
-1299.9
-1300.2
-1299.9
-1299.9
-1300.2
-1299.9
-1299.9
-1300.2
-1299.9
-1299.9
-1300.2
-1299.9
-1299.9
-1300.2
-1299.9
)
;
    }
    inletWalls
    {
        type            calculated;
        value           uniform 0;
    }
    outletInlet
    {
        type            calculated;
        value           nonuniform List<scalar> 
15
(
-1.46678e+07
-9.086e+06
-1.63575e+06
4.57231e+06
1.65304e+06
297790
-2.39953e+06
-2.49844e+06
689916
4.29094e+06
4.91063e+06
2.36506e+06
1.44177e+06
3.32849e+06
6.77259e+06
)
;
    }
}


// ************************************************************************* //
