/*--------------------------------*- C++ -*----------------------------------*\
| =========                 |                                                 |
| \\      /  F ield         | OpenFOAM: The Open Source CFD Toolbox           |
|  \\    /   O peration     | Version:  4.1                                   |
|   \\  /    A nd           | Web:      www.OpenFOAM.org                      |
|    \\/     M anipulation  |                                                 |
\*---------------------------------------------------------------------------*/
FoamFile
{
    version     2.0;
    format      ascii;
    class       volVectorField;
    location    "7";
    object      U;
}
// * * * * * * * * * * * * * * * * * * * * * * * * * * * * * * * * * * * * * //

dimensions      [0 1 -1 0 0 0 0];

internalField   nonuniform List<vector> 
225
(
(8.36838e-08 -12839.4 -394217)
(1.47529e-07 -40184.7 -26152.3)
(1.55264e-07 -24548.6 -10422.6)
(1.50528e-07 -14098.9 -21365.9)
(1.37637e-07 -22227.8 -20703.1)
(1.34781e-07 -22283.2 -2997.58)
(1.36611e-07 -21388.3 -8547.93)
(1.30434e-07 -19070.9 -5821.57)
(1.26353e-07 -13062.1 3631.67)
(1.23208e-07 -9465.18 943.227)
(1.17743e-07 -6477.39 -1968.43)
(1.13332e-07 -4935.8 -1519.42)
(1.03826e-07 -6022.31 -507.013)
(9.32679e-08 -1085.4 -11618.5)
(5.83557e-08 11914.5 -34149.8)
(1.33504e-07 66202 5297.37)
(1.71881e-07 10222.8 11481.9)
(1.51707e-07 16267 50199.6)
(1.39187e-07 129.14 54279.7)
(1.42886e-07 -8395.86 21187.7)
(1.42037e-07 -13748.7 40049.6)
(1.40238e-07 -22860 35380.2)
(1.40683e-07 -26977.1 6760.94)
(1.40896e-07 -25171 29815.2)
(1.3903e-07 -40727.1 26909.1)
(1.26752e-07 -42423.8 9418.7)
(1.17005e-07 -36097.4 9495.65)
(1.05977e-07 -42122.5 -3820.25)
(8.08156e-08 -32631.6 1522.82)
(4.87813e-08 11431.7 -13883.8)
(1.41157e-07 48077.3 -6275.62)
(1.64499e-07 -43400.5 -149577)
(1.43506e-07 1579.84 -62176.6)
(1.46818e-07 -5374.42 -91101.3)
(1.53175e-07 -19241.5 -144591)
(1.43939e-07 -9586.71 -141955)
(1.36728e-07 2644.83 -104146)
(1.32626e-07 -6427.76 -70157.7)
(1.31395e-07 -16147.1 -52493.8)
(1.2997e-07 -6744.17 -57260.2)
(1.34485e-07 -2318.32 -34099.3)
(1.39194e-07 -20925.2 -42091.3)
(1.42166e-07 -17224.2 -31253.4)
(1.39204e-07 -27413.2 -30738.4)
(8.50855e-08 3244.98 3397.54)
(1.153e-07 14943.7 -19381.2)
(1.38963e-07 -43664.9 -20667.4)
(1.434e-07 -43767.6 -31952.3)
(1.47385e-07 -12482.2 -28520.2)
(1.51211e-07 -42244.2 -109520)
(1.34734e-07 -31617.8 -102187)
(1.2932e-07 7896.69 -31606.5)
(1.25578e-07 -5124.28 -13190.7)
(1.22412e-07 -27891.6 1306.27)
(1.22106e-07 -10753.4 38131.5)
(1.24358e-07 -31790.9 21506)
(1.21615e-07 -32811.7 4841.45)
(1.13174e-07 -23267 26729.4)
(9.19879e-08 -31673.9 34137.7)
(6.01074e-08 5109.44 -14304.1)
(6.57592e-08 19165.5 -45071.4)
(1.07133e-07 -17532.3 -63576.4)
(1.27472e-07 -64070.5 -160179)
(1.38222e-07 -38362.9 -62724.3)
(1.35876e-07 -13750.7 26627)
(1.30651e-07 -11833.1 7368.47)
(1.26088e-07 -8150.58 -9785.81)
(1.22719e-07 430.329 16480.4)
(1.17767e-07 3113.71 13147.8)
(1.1178e-07 9253.61 14124.4)
(1.08354e-07 3401.31 12300.3)
(1.02002e-07 2715.58 1219.05)
(8.67902e-08 5130.76 -9600.78)
(7.74542e-08 5004.9 -37699.5)
(3.764e-08 3298.61 -118342)
(9.84556e-08 1803.44 -135672)
(1.19439e-07 -53064.3 -225158)
(1.372e-07 -38386.4 -76829.6)
(1.43389e-07 -28937.3 -9787.43)
(1.41118e-07 -16549.3 51531.3)
(1.41155e-07 -20835 39721.2)
(1.43386e-07 -25342.1 32953.2)
(1.44703e-07 -26052.9 31184.4)
(1.45106e-07 -29284.2 22483.1)
(1.44513e-07 -27837.1 15396.7)
(1.43233e-07 -25304.8 4457.63)
(1.46668e-07 -26331.1 -26330.4)
(1.51292e-07 -17637.6 -61868.2)
(1.6196e-07 16951.9 -90167.5)
(4.22036e-08 -4525.48 -361746)
(5.68562e-08 -42896.1 -148825)
(1.18886e-07 -37044 5576.89)
(1.458e-07 -29934.2 18749.7)
(1.53684e-07 -34965.5 -19664.7)
(1.47833e-07 -67445.1 -69648.4)
(1.44807e-07 -47255.9 -45843.9)
(1.4135e-07 -41485.8 -34235.5)
(1.38886e-07 -34672.7 -17657.6)
(1.36892e-07 -27657 -1997.17)
(1.33344e-07 -19576.2 6682.93)
(1.25056e-07 -8217.01 -15064.2)
(1.08545e-07 4229.18 -50871.3)
(1.01677e-07 3661.46 -68037.7)
(1.07646e-07 -12352.9 -118785)
(2.18244e-08 30228.9 -289384)
(1.72306e-07 -6161.41 -339255)
(1.75335e-07 -2366.01 19670.6)
(1.61838e-07 -28585.9 88304)
(1.53333e-07 560.888 112408)
(1.55253e-07 -515.985 39522)
(1.53027e-07 4047.81 46447.2)
(1.50736e-07 6218.28 61906.1)
(1.48045e-07 3342.18 51407.6)
(1.45099e-07 -1193.9 32572.7)
(1.40104e-07 -11497.8 -10572.3)
(1.31134e-07 -56710.7 -150858)
(9.00771e-08 -18468.4 -120669)
(7.41373e-08 8539.07 -109785)
(7.04202e-08 -14883.7 -125094)
(1.03341e-07 -7768.06 -119831)
(1.69368e-07 -24299.2 26547.4)
(1.59046e-07 -20165.8 55745.1)
(1.51801e-07 -53929.1 32120.6)
(1.48389e-07 -23513.5 73978)
(1.52546e-07 -45506.2 17986.5)
(1.54498e-07 -56594.8 150.887)
(1.52453e-07 -56709.3 -21664.4)
(1.50206e-07 -57156.3 -48271.8)
(1.47183e-07 -55903.3 -85753.5)
(1.42498e-07 -64268.1 -196731)
(1.27051e-07 -158197 -612587)
(8.51818e-08 -799.726 -116835)
(6.60246e-08 9937.69 -70550.3)
(4.00675e-08 3097.83 -43803.6)
(2.61299e-08 -22322.7 -48727)
(1.32198e-07 -31805 31357.7)
(1.77709e-07 -51900.8 51636.4)
(1.71843e-07 -67845.3 26889.2)
(1.68661e-07 -87491 -20094.7)
(1.61706e-07 -81438.8 -32864.8)
(1.58603e-07 -86076 -46007.6)
(1.56762e-07 -90826.3 -55251.5)
(1.52295e-07 -100727 -67037)
(1.33567e-07 -50281.2 -74844.2)
(1.25413e-07 -66318.6 -139202)
(1.23724e-07 -18057.1 -76327.6)
(1.23777e-07 -10533.6 -55789.3)
(1.09942e-07 8872.51 -63174.4)
(8.07658e-08 23734.5 -64518.1)
(1.48301e-08 -4287.96 -73438.5)
(1.37215e-07 -24924.5 8852.48)
(1.66034e-07 -47237.4 48336.1)
(1.59572e-07 -53028.8 15779.9)
(1.56941e-07 -44644.3 -16151.9)
(1.55844e-07 -30659.4 9920.38)
(1.55484e-07 -22008 15872.7)
(1.55229e-07 -17021.6 21485.6)
(1.56384e-07 -38866.8 12145.3)
(1.40781e-07 12953.9 34963.9)
(1.39846e-07 -9446.73 23813.3)
(1.4485e-07 1266.38 37859.2)
(1.50236e-07 -19345.9 27958.3)
(1.52731e-07 -17386.6 18155.5)
(1.14636e-07 3420.51 -27536.5)
(2.98125e-08 743.25 -79841.2)
(1.37561e-07 -23425.7 56993.5)
(1.59932e-07 -36774.1 54006.5)
(1.5022e-07 -30847.8 2457.83)
(1.43907e-07 -992.211 -19447.4)
(1.54252e-07 -36073.5 16812.5)
(1.58192e-07 -39963.9 32088.7)
(1.58056e-07 -33983 24920.3)
(1.5676e-07 -12524 7644.25)
(1.35578e-07 17677.4 -40817.4)
(1.33866e-07 4280.27 -19269)
(1.29312e-07 8015.35 -6498.96)
(1.0326e-07 17059.7 -71283.1)
(8.6084e-08 41433.7 -81374.3)
(4.60165e-08 57094.2 -114459)
(1.6246e-08 2219.84 -109610)
(1.31417e-07 -27322.1 73463.1)
(1.57718e-07 -14041.8 38692.6)
(1.40864e-07 9776.74 -7018.77)
(1.39434e-07 17791.8 2822.43)
(1.35572e-07 16992.7 5466.14)
(1.30697e-07 18465 1887.8)
(1.25245e-07 24440.8 -8989.62)
(1.19815e-07 26103.1 -21255)
(1.14668e-07 23872.5 -28641.8)
(1.09947e-07 22925.9 -33927.8)
(1.05545e-07 22714 -42593)
(1.00153e-07 31001.9 -57303.9)
(8.23014e-08 62801.6 -92415.9)
(6.41609e-08 76872 -105998)
(3.10567e-08 -2063.33 -106075)
(1.24386e-07 -24167.6 67873.4)
(1.57316e-07 -16388.3 33041.7)
(1.52244e-07 -6993.29 22812.1)
(1.44177e-07 -25003.7 37697.4)
(1.40092e-07 -77887.3 50653.7)
(1.3231e-07 -18510.6 36207)
(1.24876e-07 -11798.1 27474.7)
(1.25102e-07 -7182.4 36783.1)
(1.20824e-07 -27659.7 7441.86)
(1.12211e-07 -20907.3 -14256.5)
(1.08574e-07 -24988.2 -26718.2)
(1.08128e-07 -10775.9 -24262)
(1.38593e-07 -36901.4 -19200.1)
(1.00094e-07 98363 -58661.1)
(4.37258e-08 -22132.6 -161329)
(1.42915e-07 -13403.9 78627.7)
(1.74328e-07 -39563.5 46547.3)
(1.6992e-07 -57226.1 38583.4)
(1.65612e-07 -54098.4 52176.8)
(1.64281e-07 -46792.3 52547.7)
(1.71306e-07 12625.8 53810.5)
(1.64003e-07 -27811.6 29775.1)
(1.74411e-07 -53727.6 -25461.3)
(1.61436e-07 -916.948 16044.1)
(1.58587e-07 -40012.1 27408.6)
(1.54338e-07 -46233.3 40329.6)
(1.45224e-07 -63119 48712)
(1.27756e-07 47050.8 -42441.1)
(9.14276e-08 107616 -89156.3)
(4.17584e-08 -30683.4 -163461)
)
;

boundaryField
{
    inletFace
    {
        type            zeroGradient;
    }
    inlet
    {
        type            fixedValue;
        value           uniform (0 8.7 15);
    }
    inletWalls
    {
        type            noSlip;
    }
    outletInlet
    {
        type            zeroGradient;
    }
}


// ************************************************************************* //
