/*--------------------------------*- C++ -*----------------------------------*\
| =========                 |                                                 |
| \\      /  F ield         | OpenFOAM: The Open Source CFD Toolbox           |
|  \\    /   O peration     | Version:  4.1                                   |
|   \\  /    A nd           | Web:      www.OpenFOAM.org                      |
|    \\/     M anipulation  |                                                 |
\*---------------------------------------------------------------------------*/
FoamFile
{
    version     2.0;
    format      ascii;
    class       volScalarField;
    location    "2";
    object      k;
}
// * * * * * * * * * * * * * * * * * * * * * * * * * * * * * * * * * * * * * //

dimensions      [0 2 -2 0 0 0 0];

internalField   nonuniform List<scalar> 
6785
(
1.71901
0.000362198
0.000223062
0.000222866
0.000222897
0.000222843
0.000222861
0.000222879
0.000222823
0.000222824
0.000222793
0.000222703
0.0002231
0.000451921
0.186374
3.88447
0.329505
0.0191194
0.000166196
3.10195e-06
2.63101e-06
2.54168e-06
2.43603e-06
2.30077e-06
2.15222e-06
1.94608e-06
1.56315e-06
4.18597e-06
0.0105814
0.518128
6.07545
0.669707
0.0258532
0.000252528
3.91779e-06
3.47833e-05
0.000803327
0.00560523
0.0185072
0.0435099
0.0883295
0.16931
0.313419
0.532898
0.722605
6.7568
1.4521
0.199995
0.00669769
0.000190155
0.000173642
0.00127714
0.00770759
0.0262952
0.0607924
0.121034
0.237457
0.460757
0.741538
0.402762
6.06217
2.66885
0.565223
0.0842363
0.012811
0.00235817
0.00113791
0.00420023
0.0168269
0.0419919
0.0831534
0.158275
0.299519
0.530208
0.417767
4.97833
4.4868
1.15407
0.248308
0.0563702
0.0144634
0.0043504
0.00367658
0.0102151
0.0261302
0.0513442
0.0985012
0.227305
0.53607
0.593987
4.18848
5.97783
1.5059
0.347131
0.0963801
0.0306265
0.0102113
0.00485428
0.0071329
0.0163609
0.0317207
0.0665725
0.224232
0.73771
0.861826
3.63801
6.31617
1.5543
0.371185
0.119502
0.0460259
0.0174294
0.00706372
0.00591149
0.0109966
0.0210079
0.0531623
0.247646
0.883512
1.09075
3.21695
5.34362
1.28795
0.329189
0.125396
0.0574761
0.0246519
0.00973706
0.00569191
0.00822983
0.0160032
0.0497267
0.263938
0.976693
1.29208
3.03846
4.18153
0.973374
0.26652
0.121513
0.0654063
0.0313676
0.0126777
0.00615541
0.0071784
0.0143399
0.0514479
0.278098
1.0498
1.42638
2.93581
3.27357
0.717109
0.207552
0.113068
0.0680114
0.0363971
0.0153348
0.00707985
0.00732163
0.0151486
0.0575816
0.299166
1.13036
1.4879
2.86837
2.66246
0.53594
0.159441
0.102347
0.0676095
0.0394125
0.0177075
0.00845518
0.00865888
0.0180186
0.0650595
0.327049
1.21251
1.58936
2.94686
2.27727
0.417561
0.123666
0.0930576
0.067166
0.0422912
0.0205309
0.0105919
0.0103178
0.0195611
0.066996
0.348124
1.25454
1.53021
2.52655
1.90908
0.31866
0.0925002
0.0742899
0.0561556
0.0370391
0.0203276
0.0159627
0.0231762
0.0502782
0.144045
0.490171
1.46941
1.89984
4.00977
1.78802
0.256762
0.0869701
0.083082
0.0700422
0.0477075
0.0308575
0.0246965
0.0290231
0.0534951
0.131923
0.349894
0.699699
0.912155
0.324599
0.167484
0.195639
0.208501
0.208478
0.160835
0.187392
0.207614
0.218689
0.197659
0.222248
0.236869
0.226928
0.250636
0.270653
0.283661
0.28128
0.299593
0.310388
0.306705
0.325825
0.340715
0.350292
0.352475
0.365473
0.37444
0.380024
0.37639
0.386589
0.390064
0.382361
0.392835
0.396296
0.397463
0.391477
0.397514
0.397007
0.386182
0.395136
0.397274
0.398096
0.394407
0.40201
0.404132
0.40537
0.402946
0.409749
0.411357
0.410221
0.416797
0.419427
0.421309
0.422395
0.427455
0.429844
0.431447
0.432217
0.436264
0.437422
0.438067
0.439045
0.436578
0.432847
0.429791
0.416513
0.402823
0.39223
0.35657
0.327981
0.303717
0.285282
0.227503
0.192436
0.169349
0.155726
0.125259
0.114611
0.110071
0.100704
0.0964887
0.077801
0.103993
0.132923
0.0964868
0.157521
0.146414
0.132501
0.137541
0.132698
0.11697
0.10003
0.0855588
0.0508237
0.0477262
0.0446256
0.0412127
0.0393765
0.0402287
0.0422386
0.0438285
0.04458
0.043818
0.0434002
0.0452807
0.0470761
0.049286
0.0513823
0.0530806
0.0558578
0.0594022
0.062328
0.0668103
0.0702993
0.0736057
0.0773852
0.0815042
0.0862695
0.0911665
0.0957375
0.100164
0.107658
0.117235
0.122465
0.127906
0.133487
0.140159
0.147222
0.154616
0.160567
0.17021
0.186179
0.193372
0.202361
0.210641
0.219924
0.230902
0.242469
0.254363
0.276366
0.315157
0.333203
0.357621
0.384346
0.417461
0.456087
0.484222
0.518868
0.563942
0.64214
0.844646
0.866336
0.881638
0.887109
0.893595
0.89584
0.862625
0.758407
0.564412
0.467304
0.291838
0.0818558
0.0715252
0.0672065
0.0686029
0.0664217
0.0708867
0.0689223
0.0718257
0.0766641
0.0743088
0.0750273
0.0786154
0.0759613
0.0783143
0.0758846
0.0756206
0.078681
0.0755982
0.0777776
0.0753282
0.0747111
0.0766142
0.0733948
0.0719836
0.0734096
0.0701201
0.0704996
0.067347
0.065637
0.0666717
0.0633066
0.0635438
0.0606561
0.059388
0.0608129
0.0582815
0.0575753
0.059391
0.0567631
0.0576739
0.0554835
0.0555117
0.058047
0.0556899
0.0569822
0.0546744
0.0552922
0.0588307
0.0572315
0.058953
0.0636881
0.0627896
0.0653219
0.0631723
0.0649054
0.070311
0.0692521
0.0727284
0.0701837
0.0720763
0.0780759
0.075338
0.0777777
0.0849089
0.0824408
0.0878656
0.0845055
0.0878815
0.0972957
0.0944387
0.101872
0.096075
0.0981281
0.109995
0.104057
0.106179
0.120836
0.114313
0.127546
0.115048
0.00102603
0.00116807
0.00130569
0.000865049
0.00086538
0.00104709
0.000744666
0.00098568
0.00095933
0.000940359
0.000968641
0.00100131
0.000970678
0.000974316
0.00106386
0.00107043
0.00104374
0.00108925
0.00101645
0.000720806
0.000343895
0.00183415
0.00175622
0.0021959
0.00258259
0.00175058
0.00291947
0.00110955
0.000789044
0.000801579
0.000640858
0.00171028
0.00186767
0.00196535
0.00232124
0.00224919
0.00223842
0.00222216
0.00206116
0.002098
0.00272761
0.00156346
0.00364055
0.00279425
0.00283
0.00317925
0.00357888
0.00428111
0.00548064
0.00724741
0.00883598
0.00966795
0.0107074
0.0116948
0.0107886
0.0111671
0.00953774
0.00891876
0.00853519
0.00776851
0.00689582
0.00615438
0.00560167
0.00507068
0.00454633
0.00426483
0.00434677
0.00445306
0.00407228
0.00344063
0.00254964
0.00209439
0.00169546
0.00168164
0.00209944
0.00538372
0.00441117
0.00228757
0.0128173
0.00109286
0.00128927
0.00122372
0.000873421
0.000877013
0.0010036
0.000851351
0.00102251
0.00096773
0.0009578
0.00100629
0.00103106
0.000993013
0.00101149
0.00110701
0.0010874
0.00106969
0.00113861
0.00107224
0.000851934
0.000489545
0.00122839
0.00173776
0.00193055
0.00199003
0.00161609
0.00255917
0.000982938
0.000706813
0.000739794
0.000579118
0.00160844
0.00186029
0.00197782
0.00192227
0.00217726
0.00221421
0.0021676
0.00201295
0.00216348
0.00296582
0.00180028
0.00357754
0.00267402
0.00278637
0.00312921
0.00354952
0.00428656
0.00550438
0.00720914
0.00872636
0.00970633
0.0111138
0.0120688
0.0106078
0.0107046
0.0098446
0.00956581
0.00888874
0.00780849
0.00694606
0.00623851
0.00571092
0.00521734
0.0047178
0.00446589
0.00456169
0.00467325
0.00428614
0.00363782
0.00275745
0.00221875
0.00175781
0.00169487
0.00207946
0.00461261
0.00401731
0.00222753
0.0119174
0.00106202
0.00123887
0.0010853
0.000921615
0.000898256
0.000968533
0.0010444
0.00105775
0.000974533
0.000976357
0.00102764
0.00104111
0.00100902
0.00104033
0.00113922
0.00109361
0.00108533
0.00117498
0.00110465
0.000962936
0.0007922
0.000957136
0.00170475
0.00186099
0.00174405
0.00164388
0.00250263
0.000946095
0.000656901
0.00069341
0.000566315
0.0014634
0.00178758
0.00186006
0.000855878
0.00208728
0.00219366
0.00211058
0.00195816
0.00221028
0.00321201
0.00305706
0.00366057
0.00257873
0.00273197
0.00308227
0.00353332
0.00431392
0.00555447
0.00719685
0.00865097
0.00977975
0.0115049
0.0124421
0.0110437
0.0108216
0.0101638
0.00950955
0.00845736
0.00750324
0.00680301
0.0061937
0.00572886
0.00530368
0.00485714
0.00465212
0.00477093
0.00489285
0.00450383
0.00383381
0.00295354
0.00235417
0.00182728
0.00171126
0.00202241
0.0039781
0.00387872
0.00226881
0.0114555
0.00104195
0.00121344
0.00103531
0.000908282
0.000874563
0.000969765
0.00106722
0.00104021
0.000965017
0.000965949
0.00101108
0.00103245
0.00100173
0.0010354
0.00113352
0.00108784
0.00108224
0.00117307
0.00111406
0.000993069
0.000822689
0.000792865
0.00168517
0.0017725
0.00185433
0.00168372
0.00247355
0.000940696
0.000642519
0.000688266
0.000605396
0.00139669
0.00175188
0.00182282
0.00115275
0.00204915
0.00218591
0.00206193
0.00191486
0.00225913
0.00339023
0.00310015
0.00385759
0.00259331
0.00275704
0.003133
0.00364059
0.00449062
0.00576574
0.00735751
0.00879532
0.0101402
0.0122668
0.0134245
0.0119446
0.0111666
0.010319
0.00933838
0.0082751
0.00745017
0.00672884
0.00616957
0.00576366
0.00540212
0.0050156
0.0048546
0.00499967
0.00513135
0.00473669
0.00404036
0.00311962
0.00248078
0.00190399
0.00172376
0.0019713
0.00354267
0.00377318
0.00234085
0.0109152
0.00101116
0.00113706
0.000968554
0.000873377
0.000840581
0.000912275
0.00100832
0.0010299
0.000961747
0.000962862
0.0010148
0.00103716
0.000999494
0.00104087
0.00113501
0.00108685
0.00108518
0.00117911
0.00113231
0.00103847
0.000892071
0.000734214
0.00174061
0.00167212
0.00195498
0.00174345
0.00246682
0.000944564
0.0006411
0.000700103
0.000653765
0.00134406
0.00171687
0.0017893
0.00133475
0.00203195
0.00218109
0.00201629
0.0018814
0.00231475
0.00359227
0.00338313
0.00411218
0.00270599
0.00287416
0.00330432
0.00390871
0.00486657
0.0062112
0.00782355
0.00937314
0.0110428
0.0135739
0.0148402
0.0129935
0.0115103
0.0103162
0.00915043
0.00809797
0.00728223
0.00660599
0.00611607
0.00577952
0.00548703
0.00516798
0.00505817
0.00523432
0.00537821
0.0049811
0.00425922
0.00330317
0.00261568
0.00198873
0.00174758
0.00189582
0.00427772
0.00373
0.00242145
0.0103135
0.000972442
0.0010447
0.000923258
0.000870638
0.000849645
0.000898897
0.000991511
0.00103506
0.000955055
0.000961612
0.00100894
0.00102793
0.000995384
0.00104008
0.00112991
0.00108402
0.00108629
0.00118272
0.00114756
0.00108227
0.000962711
0.000736996
0.00187486
0.00162012
0.00203485
0.00179811
0.00245331
0.000945217
0.000648801
0.000724394
0.000703034
0.0012958
0.00167557
0.00174732
0.00140944
0.00202137
0.00217494
0.00197242
0.00185344
0.00236607
0.00379404
0.00374344
0.00438594
0.00291436
0.00311098
0.00363854
0.00439961
0.00553947
0.00706102
0.00887616
0.0107444
0.0128099
0.0156144
0.0166464
0.0140919
0.0118845
0.0102841
0.00900497
0.00793603
0.00709292
0.00646614
0.00604903
0.00578862
0.00556884
0.00532254
0.00526859
0.00547905
0.00563772
0.00524007
0.00449326
0.00350021
0.00276448
0.00208189
0.00178076
0.00181506
0.00368286
0.00366262
0.00250111
0.00970373
0.000943253
0.00098521
0.000901421
0.00087587
0.000869903
0.000929235
0.00100189
0.00102648
0.000949428
0.000959433
0.00100451
0.00102248
0.000992473
0.00103948
0.00112643
0.00108144
0.00108989
0.00118736
0.00116222
0.00112888
0.00104768
0.000779815
0.00204864
0.00161984
0.00210482
0.00184428
0.00239498
0.00094012
0.000662612
0.000754058
0.000751591
0.00125595
0.0016324
0.00170642
0.00146086
0.00201727
0.00216811
0.00193182
0.00183318
0.00242591
0.00404069
0.00465355
0.00469624
0.00321235
0.00348019
0.00416035
0.00515197
0.00658583
0.0084459
0.0106701
0.0129851
0.0153858
0.0182215
0.0186355
0.0152098
0.0122483
0.0102494
0.00887344
0.00774478
0.00686656
0.00630337
0.00596799
0.00578786
0.00564609
0.00547781
0.00548524
0.00573337
0.00590948
0.00551451
0.00474238
0.00371182
0.00292148
0.00218216
0.00182597
0.00177682
0.000714513
0.00343031
0.00257909
0.00913345
0.000923648
0.000950077
0.000891448
0.00087927
0.000879474
0.00093728
0.000994072
0.00101868
0.000945222
0.000957348
0.00100024
0.00101753
0.000991493
0.00104095
0.00112294
0.00107759
0.0010927
0.0011908
0.00117525
0.00117416
0.00113558
0.000845774
0.00220344
0.00169445
0.00216311
0.00187802
0.00225948
0.00092174
0.000680003
0.000785194
0.000796633
0.0012259
0.00159216
0.00167642
0.00150711
0.00201939
0.00216012
0.00189448
0.00182055
0.00249441
0.00432085
0.00559255
0.00505266
0.00356853
0.00396033
0.00484926
0.00614251
0.00796568
0.0102708
0.0129655
0.0156715
0.0182576
0.0208759
0.0204394
0.016184
0.0125529
0.0101917
0.00872123
0.00752809
0.00661516
0.00612315
0.0058752
0.00577904
0.0057204
0.00563528
0.00570893
0.00599829
0.00619421
0.00580491
0.00500816
0.00393669
0.00308732
0.00228564
0.00188035
0.00179772
0.000924455
0.00330973
0.0026698
0.00857794
0.00091225
0.000930564
0.000888204
0.000883593
0.000887381
0.000941001
0.000988364
0.0010124
0.00094119
0.000954854
0.000995374
0.00101201
0.000990191
0.00104101
0.00111764
0.00107361
0.00109509
0.00119275
0.00118669
0.00121805
0.00122603
0.000943585
0.00232171
0.00183452
0.00220869
0.00189834
0.00205832
0.000897741
0.000699213
0.000816729
0.000837151
0.00120466
0.00155493
0.00165053
0.00154797
0.00202811
0.00215248
0.00186126
0.00181509
0.00257385
0.00461918
0.00601497
0.00539076
0.00393491
0.00449799
0.00562984
0.00725664
0.00947802
0.0121915
0.0152407
0.018162
0.0207565
0.0229558
0.0216312
0.0168086
0.0127241
0.0100853
0.00853738
0.00728689
0.00633285
0.00592314
0.00576991
0.00576369
0.00579284
0.00579558
0.00594059
0.00627517
0.00649232
0.00611125
0.00529137
0.00417807
0.00326089
0.00239271
0.00193794
0.00182977
0.00172206
0.00335064
0.0027826
0.00814429
0.000906713
0.000920102
0.000887563
0.000887404
0.000893396
0.000942357
0.000982799
0.00100558
0.000937131
0.000952021
0.00099034
0.00100644
0.000988483
0.00103967
0.00111093
0.00106934
0.00109645
0.00119278
0.00119582
0.00125913
0.00131771
0.00107599
0.00240441
0.00200334
0.0022334
0.00190536
0.001878
0.00087888
0.000719929
0.000846135
0.000872438
0.00119054
0.0015196
0.00162007
0.00156979
0.00204179
0.00214361
0.00183213
0.00181734
0.00267111
0.00498112
0.00646661
0.0056329
0.0042729
0.00502538
0.0063921
0.00831375
0.0108392
0.0138096
0.0170139
0.0199614
0.0224157
0.0240837
0.0220411
0.0169867
0.0126625
0.00991457
0.0083183
0.00701471
0.00602836
0.00570978
0.00565526
0.00574337
0.00586494
0.00596001
0.00618094
0.00656487
0.00680438
0.00643328
0.00559232
0.00443528
0.00344394
0.00250365
0.00199555
0.00184016
0.00207094
0.00347917
0.00293377
0.00790246
0.000905008
0.00091495
0.00088796
0.000890397
0.000897603
0.000942156
0.000977286
0.000998879
0.000933174
0.000948972
0.000985012
0.00100088
0.000986727
0.0010383
0.00110378
0.00106437
0.00109715
0.00119135
0.00120334
0.00129767
0.00141007
0.00124529
0.00246456
0.00217914
0.00223664
0.00189899
0.00174189
0.00086753
0.000742204
0.000872623
0.00090367
0.00118163
0.00148498
0.00158296
0.0015889
0.00205609
0.00213443
0.00180692
0.0018278
0.00278458
0.00535632
0.00670331
0.00576897
0.00455665
0.0054732
0.00701992
0.00913419
0.0118112
0.0148498
0.0180178
0.0208439
0.0230603
0.0241788
0.0216773
0.0166773
0.0123815
0.00966129
0.008057
0.00671583
0.00570176
0.00548615
0.00553596
0.00572184
0.00593883
0.00612991
0.00643081
0.00686718
0.00713124
0.00677188
0.0059104
0.00470813
0.00363655
0.00261742
0.0020515
0.00183352
0.0020457
0.00325794
0.00303813
0.00767608
0.000905743
0.000912657
0.000888415
0.000892217
0.000900221
0.000941509
0.000972112
0.000992605
0.000929415
0.000945815
0.000979667
0.000995328
0.000984627
0.00103603
0.00109573
0.00105865
0.00109685
0.00118882
0.00121037
0.00133342
0.00149943
0.00143386
0.00250779
0.00235221
0.00222283
0.00188116
0.00162911
0.000861358
0.000764989
0.000895763
0.000931464
0.0011754
0.00145048
0.00153918
0.00160529
0.00207633
0.00212421
0.00178514
0.00184544
0.00290514
0.0056648
0.00657445
0.00580323
0.00476308
0.00578694
0.00742423
0.00960247
0.0122726
0.0152122
0.0182012
0.0208092
0.0227268
0.0233375
0.0206168
0.0159283
0.0118801
0.00932419
0.00775154
0.00638877
0.00535407
0.00525863
0.00541727
0.00570345
0.00601808
0.00630813
0.00669136
0.00718201
0.00747311
0.00712712
0.00624713
0.00499742
0.00383719
0.00273282
0.00210601
0.00183053
0.00197698
0.00241456
0.00298691
0.00759225
0.000907674
0.000911718
0.000888376
0.000892556
0.000901458
0.000941349
0.000968034
0.000986838
0.000925856
0.0009427
0.000974433
0.000989898
0.000982294
0.00103322
0.00108707
0.00105264
0.00109582
0.00118563
0.00121753
0.00136613
0.00157933
0.00161778
0.00253085
0.00250243
0.00219698
0.00185446
0.00153569
0.00085742
0.000787046
0.000915717
0.000957972
0.00116863
0.00141599
0.001491
0.00162162
0.00209752
0.00211328
0.00176709
0.00186954
0.00302848
0.00586048
0.0062566
0.00574677
0.00487004
0.00593198
0.00756588
0.00968785
0.0122196
0.0149357
0.0176501
0.0199697
0.0215317
0.0216888
0.018993
0.0148031
0.0112013
0.00891387
0.00740825
0.00605472
0.00502624
0.00503388
0.00530536
0.0056938
0.00610722
0.00649778
0.00696453
0.00751029
0.00783065
0.0074997
0.00660207
0.00530387
0.00404495
0.00284823
0.00215851
0.0018344
0.00189945
0.00181552
0.00278902
0.00778786
0.000910158
0.000911749
0.000888613
0.00089245
0.000902003
0.000939442
0.000964858
0.000981653
0.000922663
0.000939681
0.000969391
0.000984643
0.000979632
0.00102984
0.00107828
0.0010469
0.00109401
0.0011816
0.00122454
0.00139478
0.00164746
0.00178121
0.00256022
0.00261466
0.0021636
0.00182209
0.00145719
0.000858002
0.000807721
0.000933234
0.000983752
0.0011599
0.00138239
0.00144538
0.00164453
0.00211827
0.00210105
0.00175114
0.00189764
0.00314458
0.00597905
0.0059578
0.0056185
0.00487203
0.00590476
0.00746404
0.00942566
0.0117248
0.0141379
0.0165153
0.0184918
0.0196629
0.019461
0.0169974
0.0134632
0.0104178
0.00844467
0.00703854
0.00571686
0.00471886
0.00482037
0.00520779
0.00569899
0.00621148
0.00670282
0.0072528
0.00785366
0.00820435
0.0078893
0.00697525
0.00562613
0.00425976
0.00296338
0.00220893
0.00184455
0.00183803
0.00156111
0.00238648
0.00794815
0.000912156
0.000912376
0.000889651
0.000894133
0.000903322
0.000936508
0.00096265
0.000977122
0.000920119
0.000936946
0.000964587
0.000979597
0.000976574
0.00102586
0.00106939
0.00104161
0.00109158
0.00117704
0.00123089
0.0014185
0.00170088
0.00191551
0.00259143
0.00268205
0.00212338
0.00178745
0.00139302
0.00086351
0.000827795
0.000948788
0.00100584
0.00114987
0.00134944
0.00140235
0.0016642
0.00213858
0.00208781
0.00173824
0.00192988
0.00325558
0.00602502
0.00580661
0.00542965
0.00477838
0.00572195
0.00716363
0.0088913
0.0109045
0.0129732
0.0149884
0.0165984
0.0173941
0.0169858
0.0149029
0.0120614
0.00958692
0.00793367
0.00664512
0.00537821
0.00443575
0.00463103
0.0051349
0.00572734
0.0063379
0.00692787
0.00755966
0.00821411
0.00859482
0.00829642
0.00736622
0.00596328
0.00448229
0.00307816
0.00225814
0.0018582
0.00179217
0.0014794
0.00193115
0.00800959
0.000914461
0.000914666
0.000892143
0.000897332
0.000906076
0.000935619
0.000961456
0.000973562
0.000918426
0.000934763
0.000960155
0.000974858
0.000973229
0.00102136
0.00106067
0.0010366
0.00108854
0.00117215
0.00123638
0.00143664
0.0017392
0.00201579
0.0026083
0.00270513
0.00207811
0.00174926
0.00134014
0.000872766
0.000846994
0.000962621
0.00101988
0.00114039
0.00131879
0.00136932
0.0016905
0.00215689
0.0020736
0.00172778
0.00196487
0.00336436
0.00603407
0.00574974
0.00518301
0.00460706
0.00542332
0.00671477
0.00817446
0.00988458
0.0116036
0.0132654
0.0145232
0.0150073
0.0144905
0.0128667
0.0106632
0.00873497
0.00739559
0.00623823
0.00504975
0.00418859
0.00448112
0.00509924
0.0057897
0.00649527
0.00717986
0.00788937
0.00859388
0.00900307
0.00872146
0.00777414
0.00631395
0.00471239
0.00319211
0.0023043
0.00187478
0.00176178
0.00145461
0.00161175
0.00791094
0.000918
0.000919246
0.000896824
0.000902278
0.000910433
0.000936782
0.000961336
0.000971183
0.000917841
0.000933208
0.000956391
0.000970558
0.000969796
0.00101657
0.00105222
0.00103182
0.00108497
0.001167
0.00124069
0.00144927
0.00176076
0.00207362
0.0026012
0.00268687
0.00202929
0.00171006
0.00129851
0.000884678
0.000865601
0.000974604
0.00102596
0.00113356
0.0012903
0.00134523
0.00171632
0.00217337
0.00205846
0.00172004
0.00200024
0.00346687
0.00599641
0.00562801
0.00487814
0.00437756
0.00505385
0.00616766
0.00736161
0.00878102
0.0101691
0.0115118
0.0124563
0.0127028
0.0121919
0.0109708
0.00934075
0.00790212
0.00684897
0.00583217
0.00474313
0.00398815
0.00438519
0.00511503
0.00589872
0.00669431
0.00746715
0.00824744
0.00899622
0.00943061
0.00916398
0.00819833
0.00667699
0.00494802
0.00330428
0.00234657
0.00189105
0.00174346
0.00147631
0.00138838
0.00766175
0.000922549
0.000926026
0.000903577
0.000909089
0.000916294
0.000939187
0.000962435
0.00097009
0.00091844
0.00093244
0.000953439
0.000966759
0.000966405
0.00101161
0.0010441
0.00102723
0.00108099
0.00116183
0.00124396
0.00145786
0.00177085
0.00209475
0.00256948
0.00263493
0.00197923
0.00167156
0.00126758
0.000898894
0.000883773
0.000985946
0.00102807
0.00112975
0.00126545
0.00133488
0.00174668
0.00218794
0.00204229
0.00171363
0.00203871
0.00355629
0.00586135
0.00534188
0.00452558
0.00409929
0.00465001
0.00557866
0.00652636
0.00768386
0.00878133
0.00985494
0.0105449
0.0106204
0.0101492
0.00929264
0.00814936
0.00712581
0.00631421
0.00543747
0.00446756
0.00384552
0.00435881
0.0051973
0.00606883
0.00694807
0.0078004
0.00864103
0.00942538
0.00987955
0.0096241
0.00863824
0.00705051
0.00518748
0.00341338
0.00238434
0.00190611
0.00173099
0.00152636
0.00128014
0.00732838
0.000929672
0.000935611
0.000912968
0.000918031
0.000923625
0.000943275
0.000964973
0.000970429
0.000920318
0.000932576
0.00095138
0.000963579
0.000963181
0.00100641
0.00103635
0.00102272
0.00107671
0.00115665
0.00124616
0.00146317
0.00177187
0.00209581
0.0025178
0.00255979
0.00192965
0.00163596
0.00124489
0.000914362
0.000902037
0.000997183
0.00102996
0.00112729
0.00124415
0.00133464
0.00178112
0.0022009
0.00202538
0.00170902
0.00207172
0.00362718
0.00562298
0.00500771
0.00417686
0.00379101
0.00423496
0.00499406
0.00572193
0.00665853
0.00752025
0.00838349
0.00888385
0.00886696
0.00845042
0.00787014
0.00711688
0.00641787
0.00580778
0.00506694
0.00423473
0.00377471
0.00441965
0.00536206
0.00631561
0.00727155
0.00819228
0.00907899
0.0098866
0.0103526
0.0101029
0.00909303
0.00743302
0.00542885
0.0035185
0.00241788
0.00191919
0.00172212
0.00159431
0.00125777
0.00695805
0.00093792
0.000946808
0.000924483
0.000929029
0.000932647
0.000949159
0.000969026
0.00097226
0.000923458
0.000933574
0.000950166
0.000961059
0.000960307
0.00100118
0.00102894
0.0010182
0.00107209
0.00115154
0.00124746
0.00146577
0.00176645
0.00207649
0.00245041
0.00247095
0.00188229
0.00160436
0.00122944
0.000930468
0.000920108
0.0010088
0.00103351
0.00112553
0.00122685
0.00134138
0.00181222
0.00221013
0.00200781
0.00170629
0.00210586
0.00368633
0.00543749
0.00479415
0.00388946
0.003487
0.00383232
0.0044511
0.0049883
0.00575099
0.00642694
0.00714121
0.00752365
0.00745662
0.00709514
0.00671116
0.00625499
0.0057933
0.00534582
0.00473041
0.00405201
0.00378609
0.00458544
0.00562603
0.00665578
0.00768185
0.00865828
0.00957295
0.0103861
0.0108522
0.0106012
0.00956161
0.00782201
0.00566939
0.00361762
0.0024459
0.00192902
0.00171634
0.00164791
0.0012944
0.00660024
0.000948829
0.000960428
0.000938892
0.000942648
0.000943829
0.000957198
0.000974738
0.000975684
0.000927967
0.000935504
0.000949841
0.000959204
0.000957842
0.000996098
0.00102184
0.00101365
0.00106735
0.00114663
0.00124803
0.00146615
0.00175649
0.00204772
0.00237623
0.00237786
0.001839
0.00157729
0.00121987
0.000946774
0.000937739
0.00102139
0.00104417
0.00112943
0.0012126
0.0013568
0.00184627
0.00221675
0.00198973
0.00170529
0.00214182
0.0037279
0.00539422
0.00473245
0.00368022
0.00321671
0.00345069
0.0039642
0.00433582
0.00498703
0.00553455
0.00615513
0.00645807
0.0063852
0.00608221
0.00582255
0.00556149
0.00526815
0.00494056
0.00444422
0.00394018
0.00390737
0.00487084
0.0060048
0.00710681
0.00819808
0.00921695
0.0101376
0.0109326
0.0113826
0.0111194
0.0100436
0.00821505
0.00590693
0.00370862
0.00246722
0.00193409
0.00170958
0.00158595
0.00131885
0.00633938
0.000963181
0.000976941
0.000956705
0.000959277
0.000957513
0.000967692
0.000982385
0.000980984
0.0009339
0.000938486
0.000950468
0.000958088
0.000955848
0.000991271
0.00101514
0.00100911
0.00106257
0.00114184
0.0012481
0.00146536
0.00174577
0.0020187
0.0023031
0.00228751
0.00180116
0.00155493
0.00121498
0.000963019
0.000955085
0.00103757
0.00106924
0.00114347
0.00119991
0.00137794
0.00188181
0.00222066
0.00197121
0.00170506
0.00217411
0.00376263
0.00559228
0.00470258
0.00351902
0.00297556
0.00311031
0.00355766
0.00379611
0.00437727
0.00484478
0.00540499
0.00566623
0.00561195
0.00536249
0.00518095
0.00503758
0.00485063
0.00460285
0.00421651
0.00390292
0.00414382
0.00529169
0.00651021
0.00768527
0.00884053
0.00988977
0.0107913
0.0115377
0.0119489
0.0116594
0.0105387
0.00861047
0.00613865
0.00378897
0.00248029
0.00193403
0.00170121
0.00153919
0.00136382
0.00613606
0.000981506
0.000996859
0.000978211
0.000978649
0.000973818
0.000980791
0.000992103
0.00098812
0.000941266
0.000942783
0.000952165
0.000957752
0.000954353
0.000986698
0.00100891
0.00100477
0.00105787
0.00113722
0.001248
0.00146381
0.00173446
0.00198894
0.00223652
0.00220497
0.00176958
0.00153723
0.00121379
0.000978986
0.000972292
0.00105911
0.00110528
0.00116431
0.00118944
0.00140402
0.00191391
0.00222161
0.0019523
0.00170445
0.00219752
0.00380491
0.0058343
0.00457473
0.00337337
0.0027382
0.0028111
0.00323096
0.00336934
0.00391146
0.00433818
0.00487018
0.00511624
0.00508569
0.00488315
0.00475424
0.00467395
0.00454129
0.0043415
0.00405446
0.00394929
0.00450513
0.00585382
0.0071499
0.00840456
0.00962982
0.0107015
0.0115567
0.0122171
0.012558
0.012224
0.0110466
0.00900541
0.00636106
0.00385569
0.00248327
0.00192713
0.00169532
0.00170911
0.00143462
0.00600176
0.00100426
0.00102053
0.00100402
0.00100123
0.000993033
0.000996587
0.00100409
0.000997501
0.000950414
0.000948499
0.000955054
0.000958394
0.000953465
0.000982508
0.0010032
0.00100072
0.00105335
0.00113284
0.00124768
0.00146192
0.00172419
0.00196511
0.0021785
0.00213292
0.00174471
0.00152408
0.00121551
0.000994509
0.00098952
0.00108453
0.0011436
0.00118454
0.00118616
0.00143667
0.00194695
0.00221941
0.00193309
0.00170322
0.00221854
0.00385436
0.00575776
0.00433895
0.00322533
0.00249588
0.00256561
0.00298461
0.00305351
0.0035821
0.00399578
0.00451307
0.00476134
0.00475446
0.00459619
0.00450513
0.00445283
0.00433947
0.00416584
0.0039704
0.00408267
0.00499807
0.00655772
0.00792269
0.00927214
0.0105849
0.0116794
0.0124613
0.0129912
0.0132227
0.0128167
0.011567
0.00939793
0.0065707
0.00390579
0.00247431
0.00191201
0.00169032
0.00195488
0.00152829
0.00592772
0.00103248
0.00104862
0.0010342
0.00102715
0.00101541
0.0010153
0.00101877
0.00100926
0.000961511
0.000955842
0.000959267
0.000960074
0.000953341
0.000978847
0.00099797
0.000997018
0.0010491
0.00112866
0.00124731
0.00145972
0.0017141
0.00194214
0.00212817
0.00207271
0.00172641
0.00151509
0.00121943
0.00100928
0.00100583
0.00110997
0.00117985
0.00120006
0.00119483
0.00148062
0.00197844
0.00221433
0.00191392
0.00170222
0.00223566
0.00385052
0.00484765
0.00410056
0.00304785
0.00227662
0.00236841
0.00279961
0.00284349
0.00336956
0.00378887
0.00428981
0.00454642
0.00456805
0.00445806
0.00440011
0.00435743
0.0042426
0.00407998
0.00396953
0.00430572
0.00562728
0.00738861
0.00881489
0.010286
0.0117203
0.0128524
0.013538
0.0138852
0.0139576
0.0134434
0.0120995
0.00978603
0.00676468
0.00393643
0.00245135
0.00188655
0.00167474
0.00214383
0.00162488
0.00590616
0.00106621
0.00108089
0.00106849
0.00105655
0.00104134
0.00103714
0.00103619
0.00102341
0.000974725
0.000964982
0.000964941
0.000962875
0.00095405
0.000975895
0.000993367
0.000993534
0.00104501
0.00112493
0.00124705
0.00145785
0.0017052
0.00192172
0.00208605
0.00202452
0.00171423
0.00150967
0.00122495
0.00102348
0.0010222
0.00113369
0.00121275
0.00121311
0.00121538
0.00152023
0.00200848
0.00220634
0.00189481
0.00170065
0.0022532
0.00379748
0.0039229
0.00398879
0.0028312
0.00211664
0.00222312
0.00266665
0.00272404
0.003252
0.00368234
0.00416244
0.00442602
0.00447865
0.00442328
0.00440315
0.00436445
0.00423885
0.00407787
0.00404395
0.00461531
0.00637981
0.00831297
0.00979312
0.0114302
0.0130429
0.0142491
0.0148252
0.0149303
0.0147787
0.0141113
0.0126451
0.0101684
0.00693997
0.00394496
0.0024126
0.00184964
0.00164093
0.00228484
0.00170898
0.00594773
0.00110503
0.0011172
0.0011068
0.00108989
0.0010711
0.00106234
0.00105654
0.00104042
0.000990175
0.000976142
0.000972224
0.000967054
0.000955782
0.000973793
0.000989387
0.000990454
0.00104111
0.00112147
0.00124691
0.00145693
0.00169987
0.00190645
0.00205183
0.00198763
0.00170765
0.00150718
0.00123157
0.00103715
0.00103736
0.00115483
0.00124477
0.001228
0.00124867
0.00156705
0.00203757
0.00219658
0.00187698
0.00170291
0.00228132
0.00384198
0.00482709
0.0038867
0.00259521
0.00205961
0.00213095
0.00257949
0.00267817
0.00320135
0.00363959
0.00409376
0.00436043
0.0044464
0.00445552
0.00448221
0.00445251
0.0043204
0.00415925
0.0041921
0.00498132
0.00718871
0.00924563
0.0107994
0.0126684
0.0145465
0.0158948
0.0163669
0.0161664
0.0157074
0.0148287
0.0132059
0.0105441
0.00709381
0.00392894
0.00235707
0.00180094
0.00158505
0.00215878
0.00176954
0.00600714
0.00114927
0.00115811
0.00114931
0.00112728
0.00110504
0.00109123
0.00108035
0.0010602
0.0010083
0.000989471
0.000981208
0.0009727
0.000958609
0.000972634
0.000985974
0.0009879
0.00103747
0.00111854
0.0012468
0.00145648
0.00169749
0.00189738
0.002025
0.00196085
0.00170608
0.00150727
0.00123906
0.00105036
0.00105058
0.00117437
0.00127998
0.0012424
0.00128034
0.00161155
0.00205921
0.00218528
0.00186104
0.00170877
0.00231084
0.00396037
0.00643817
0.00351849
0.00242932
0.00217322
0.00209782
0.00254021
0.0026865
0.00319215
0.00362662
0.0040499
0.00431548
0.00443726
0.00451562
0.0045993
0.00459537
0.00446819
0.00431095
0.00439537
0.00535399
0.00795386
0.0100708
0.0117433
0.0139395
0.0162059
0.0178068
0.0182117
0.017644
0.0167749
0.0156093
0.0137854
0.0109122
0.00722454
0.00388652
0.00228433
0.00174107
0.00151318
0.00179996
0.00181673
0.00610006
0.00119936
0.00120466
0.00119669
0.00116933
0.00114348
0.00112419
0.00110792
0.00108302
0.00102896
0.001005
0.000991954
0.000979847
0.000962688
0.000972573
0.000983313
0.00098592
0.00103436
0.0011161
0.00124657
0.00145563
0.00169411
0.00188803
0.0020036
0.00194197
0.00170863
0.00150957
0.00124729
0.00106288
0.00106149
0.00119304
0.00131741
0.0012531
0.00130863
0.00165488
0.00208049
0.00217255
0.00184636
0.00171202
0.00232104
0.00393296
0.00563204