/*--------------------------------*- C++ -*----------------------------------*\
| =========                 |                                                 |
| \\      /  F ield         | OpenFOAM: The Open Source CFD Toolbox           |
|  \\    /   O peration     | Version:  4.1                                   |
|   \\  /    A nd           | Web:      www.OpenFOAM.org                      |
|    \\/     M anipulation  |                                                 |
\*---------------------------------------------------------------------------*/
FoamFile
{
    version     2.0;
    format      ascii;
    class       volScalarField;
    location    "2";
    object      nut;
}
// * * * * * * * * * * * * * * * * * * * * * * * * * * * * * * * * * * * * * //

dimensions      [0 2 -1 0 0 0 0];

internalField   nonuniform List<scalar> 
6785
(
0.552267
2.80656e-08
1.34795e-08
1.34609e-08
1.34629e-08
1.34596e-08
1.34606e-08
1.34615e-08
1.34581e-08
1.34576e-08
1.34543e-08
1.34478e-08
1.34817e-08
3.80949e-08
0.181866
0.830293
0.0334369
0.000896263
8.33997e-07
1.98844e-09
1.58878e-09
1.55147e-09
1.4986e-09
1.41883e-09
1.33087e-09
1.19453e-09
9.08284e-10
4.51606e-09
0.000521392
0.303239
1.03836
0.12528
0.00428036
1.62183e-05
6.80492e-08
2.19403e-06
0.000254806
0.00813422
0.0666005
0.180013
0.21963
0.195364
0.162943
0.209493
0.358064
1.09491
0.393651
0.191056
0.00105281
0.000130393
5.67094e-05
0.000565546
0.00674301
0.0361329
0.0735233
0.0978666
0.123603
0.167516
0.253544
0.267352
1.03725
0.744154
0.271555
0.069298
0.0172631
0.00402689
0.000606073
0.00242605
0.0166922
0.0397991
0.0593501
0.0743609
0.103384
0.199711
0.272292
0.939941
1.16776
0.715565
0.291827
0.154099
0.0717201
0.00813023
0.00260803
0.00764614
0.0208693
0.0327539
0.0467719
0.0905582
0.204839
0.324636
0.862059
1.27573
0.511506
0.204021
0.13131
0.0869944
0.0303653
0.00464854
0.0048024
0.010582
0.0170761
0.0285424
0.0917444
0.300807
0.391083
0.803525
1.107
0.44209
0.181231
0.113038
0.108801
0.055571
0.0095353
0.00396556
0.00609859
0.0100323
0.0220648
0.106919
0.356689
0.439977
0.75558
0.827993
0.328212
0.14948
0.101749
0.0892951
0.0640982
0.0138477
0.00391478
0.004418
0.00769399
0.0214564
0.112497
0.391584
0.478798
0.734236
0.597303
0.233976
0.116882
0.0891506
0.0930428
0.0716225
0.0201177
0.00467335
0.0042872
0.0077319
0.0227782
0.119217
0.430565
0.503125
0.721825
0.461703
0.178027
0.0921989
0.0778952
0.0702769
0.0618657
0.0198326
0.00594315
0.00487694
0.00918695
0.0285643
0.127555
0.48175
0.513872
0.713471
0.372647
0.151559
0.0774904
0.0714188
0.0657635
0.0603649
0.0250325
0.00837477
0.00698665
0.0116995
0.0278771
0.137217
0.510814
0.531031
0.723084
0.317999
0.120151
0.0664249
0.0630205
0.058094
0.0502546
0.0219669
0.00942495
0.00798931
0.0112218
0.0257708
0.137991
0.549791
0.521116
0.669625
0.292419
0.121842
0.0634182
0.0460887
0.0457089
0.0446791
0.0229201
0.0230753
0.0322947
0.0482465
0.0724839
0.209971
0.599783
0.580665
0.843564
0.386876
0.0394441
0.128758
0.0962385
0.20945
0.0518556
0.0290926
0.0120851
0.00929371
0.0141591
0.0403282
0.1393
0.276407
0.402293
1.59929
2.04863
1.2416
1.28176
1.2817
2.00755
1.21515
1.27904
1.31271
2.22554
1.32334
1.36618
2.38463
1.40532
1.46036
1.49504
2.65488
1.53646
1.56389
2.77228
1.60231
1.63851
1.66138
2.97194
1.697
1.71769
1.73045
3.07111
1.74534
1.75316
3.09538
1.75938
1.76711
1.76971
3.13206
1.76983
1.7687
3.1108
1.76452
1.76929
1.77112
3.14376
1.77981
1.7845
1.78723
3.1776
1.79686
1.80038
3.20616
1.81225
1.81795
1.82203
3.25339
1.83527
1.84039
1.84382
3.29099
1.85408
1.85654
3.31319
1.85998
1.85475
1.84681
3.28175
1.81163
1.78161
3.13507
1.6762
1.6076
1.547
2.67371
1.3389
1.2314
1.15517
1.97541
0.993481
0.950317
1.66078
0.890796
0.871952
0.0105429
0.0114757
0.0129029
0.0264102
0.0269221
0.0238612
0.019892
0.022616
0.0255536
0.0201841
0.0106141
0.00506708
0.00695813
0.010884
0.0122681
0.0116315
0.00954763
0.00816068
0.00740163
0.00721137
0.00792977
0.0177278
0.0203988
0.0216309
0.0237117
0.0259257
0.0270449
0.0291048
0.0303601
0.0304257
0.0342096
0.0376759
0.0415942
0.0419077
0.0429901
0.0441893
0.045135
0.0467218
0.0474398
0.0495783
0.0526765
0.054575
0.0546003
0.0561705
0.0573113
0.0579551
0.0583683
0.0587141
0.0604181
0.0632205
0.0638136
0.0619588
0.0634777
0.0620425
0.0620874
0.0626401
0.0609285
0.0593031
0.0632541
0.064925
0.0663904
0.0731147
0.0774555
0.0861835
0.093045
0.0987872
0.102004
0.108616
0.127174
0.160599
0.163478
0.162773
0.15173
0.141939
0.135751
0.135558
0.121914
0.296143
0.0885964
0.0948436
0.803118
1.2156
1.17829
0.735234
1.17139
0.747372
1.19324
1.21815
0.777232
1.23903
1.24496
0.787061
1.25269
0.785552
1.25206
1.24992
0.787389
1.24973
0.782856
1.2475
1.24234
0.776979
1.23134
1.21949
0.760555
1.2036
0.745329
1.17956
1.16445
0.724812
1.14359
0.707605
1.1194
1.10767
0.692233
1.0973
1.0906
0.684092
1.08288
0.674131
1.0706
1.07091
0.676308
1.07263
0.670076
1.0628
1.06876
0.680858
1.08734
1.1036
0.708408
1.13895
0.717437
1.14241
1.15794
0.744331
1.19609
0.757018
1.20411
1.22027
0.784356
1.24758
1.26758
0.817958
1.30502
0.832078
1.32126
1.34744
0.875591
1.3968
0.895946
1.40885
1.42378
0.930981
1.46616
1.48108
0.975782
1.53672
1.00251
1.54165
0.00942769
0.0180156
0.0262321
0.0117156
0.00833999
0.00967909
0.00551014
0.0180893
0.0181136
0.0148023
0.0151492
0.0159377
0.0121165
0.00864367
0.00970515
0.0121872
0.00928572
0.00859361
0.00586064
0.00312932
0.000564866
0.0174179
0.0137572
0.0158742
0.0161136
0.0168932
0.0221515
0.00591513
0.00577415
0.00588793
0.00317541
0.00752969
0.0138835
0.010309
0.0149586
0.0137654
0.0122045
0.00999246
0.00576878
0.00347202
0.00234585
0.00428479
0.0231168
0.0165171
0.0153199
0.0174916
0.0181327
0.022735
0.0318615
0.0521265
0.0766162
0.0917511
0.0977202
0.104953
0.158126
0.172832
0.117065
0.128972
0.262172
0.22758
0.26636
0.242761
0.225719
0.212737
0.197182
0.175444
0.183188
0.183153
0.127407
0.0746858
0.0394338
0.0276751
0.0208784
0.0192302
0.0108779
0.0200939
0.0140847
0.00946366
0.237566
0.00962726
0.0241418
0.0264173
0.0141604
0.00989613
0.00977973
0.00704536
0.0199383
0.01938
0.0166027
0.0180815
0.0188123
0.0149999
0.0110873
0.0124359
0.0146791
0.00992659
0.0100619
0.00695996
0.0042672
0.0012414
0.00655039
0.0137769
0.0114043
0.00933195
0.0135393
0.0160593
0.00449456
0.00476067
0.00535604
0.00272801
0.0117095
0.0137293
0.0140842
0.0144292
0.0130556
0.0120504
0.00952166
0.00544988
0.00321534
0.00258159
0.00348584
0.0232809
0.0149512
0.0147311
0.0167197
0.017662
0.0226233
0.0320294
0.0517906
0.0741454
0.0907308
0.100918
0.118237
0.154239
0.151562
0.118537
0.13659
0.277961
0.232598
0.264253
0.248654
0.234047
0.223283
0.211141
0.190718
0.204903
0.199946
0.140151
0.0836392
0.0445047
0.0300843
0.0221662
0.0207713
0.0156034
0.0175951
0.012596
0.00909093
0.210021
0.00855365
0.0224083
0.0238898
0.0169157
0.0115111
0.0101979
0.0106676
0.0233274
0.0203984
0.0182823
0.0199508
0.0200517
0.0166787
0.0147369
0.0171463
0.0165796
0.0114652
0.013582
0.00758646
0.00631306
0.00330158
0.00424195
0.0136611
0.0120856
0.00753686
0.0134962
0.0151175
0.00408858
0.00379878
0.00453691
0.00298622
0.0111245
0.0139507
0.0200098
0.00353079
0.0120233
0.0117229
0.0089894
0.00507154
0.00318071
0.00380115
0.0156032
0.0238762
0.0134786
0.0138779
0.0157572
0.0170916
0.0225924
0.0326263
0.0515257
0.0723303
0.0894161
0.105475
0.136562
0.164052
0.153631
0.117818
0.136091
0.253997
0.241126
0.25364
0.25148
0.239136
0.23076
0.226395
0.207071
0.223974
0.220266
0.161787
0.0888964
0.0502869
0.0337575
0.0241686
0.020634
0.0183914
0.0149689
0.0132031
0.00958996
0.190509
0.0142774
0.0242302
0.022547
0.0180637
0.0129952
0.0132827
0.0147962
0.0224098
0.0199109
0.0186818
0.0203125
0.0202914
0.016461
0.0150623
0.0177104
0.016891
0.0119209
0.013523
0.00822035
0.00748192
0.00370371
0.00303945
0.0139094
0.0121839
0.00908251
0.0143138
0.0149711
0.00424695
0.00381394
0.00484861
0.00374319
0.0237362
0.0148329
0.0158129
0.00547014
0.0113266
0.0116221
0.00854189
0.00479239
0.00322158
0.00556873
0.0151784
0.0262021
0.0136559
0.0139655
0.0159819
0.0179996
0.0243789
0.034913
0.0533591
0.073494
0.0923644
0.11593
0.199471
0.19093
0.148774
0.117797
0.154551
0.266642
0.239062
0.275172
0.258602
0.244013
0.243829
0.241301
0.225334
0.237599
0.247755
0.167596
0.0990732
0.0561114
0.0372854
0.0266065
0.0211456
0.020188
0.0136485
0.0140816
0.0105811
0.178994
0.0186035
0.0278251
0.0214177
0.0173804
0.0137202
0.0158306
0.0195648
0.0211914
0.019943
0.0188819
0.0206655
0.0210319
0.0166329
0.0165572
0.0196055
0.0177581
0.0130595
0.0151633
0.00909893
0.00889948
0.00490537
0.00280458
0.0157507
0.0118302
0.0108861
0.0162154
0.0160101
0.00479881
0.0041365
0.00513513
0.00464868
0.0186543
0.0158679
0.0160029
0.00684031
0.0109247
0.0114268
0.00804306
0.00434589
0.00324746
0.00718201
0.0172331
0.0298272
0.0150079
0.0149713
0.017556
0.0206451
0.0283689
0.0398214
0.0591783
0.081305
0.104345
0.136436
0.23322
0.2169
0.147287
0.118416
0.177778
0.249476
0.273814
0.268951
0.274114
0.255032
0.261849
0.260116
0.246256
0.256381
0.268848
0.183265
0.110751
0.0638165
0.0408902
0.0287254
0.0219737
0.0200442
0.0216779
0.015731
0.0118026
0.158533
0.0198038
0.023715
0.019747
0.0170959
0.0141549
0.015692
0.0189646
0.0228222
0.0197153
0.0193506
0.0208363
0.020675
0.0167529
0.0165418
0.0191354
0.0179312
0.013214
0.0152734
0.009905
0.0104772
0.00684217
0.00344332
0.021521
0.0120204
0.0129483
0.0176149
0.0175544
0.00520515
0.0045515
0.00562707
0.00559996
0.0141075
0.0161892
0.0147249
0.0067602
0.0109552
0.0111172
0.0075155
0.0041098
0.00333646
0.00931443
0.0208154
0.0352923
0.0174372
0.0173146
0.0210584
0.025952
0.0364269
0.0507633
0.0751693
0.104682
0.136176
0.178206
0.288527
0.234386
0.155005
0.126572
0.184742
0.266497
0.289246
0.261483
0.263797
0.260433
0.278166
0.279401
0.270343
0.282713
0.28585
0.202515
0.124447
0.0703145
0.0454486
0.0309584
0.0234052
0.0196468
0.0154762
0.0163448
0.0135123
0.146886
0.0203028
0.0233996
0.0196876
0.0174373
0.0149592
0.0167129
0.0192164
0.0229556
0.0193333
0.0191621
0.0202385
0.0204072
0.0172204
0.0181322
0.0212169
0.0181394
0.0135572
0.0165651
0.010902
0.0105317
0.00891639
0.00384827
0.024819
0.0141748
0.0171534
0.0191244
0.018625
0.00557738
0.00502598
0.00632811
0.00617268
0.0122868
0.0162949
0.0129904
0.00685779
0.0107633
0.0108817
0.00711319
0.00399875
0.00349635
0.0124425
0.03156
0.0408665
0.0211822
0.0211876
0.026997
0.0350488
0.0510548
0.0719553
0.10774
0.151163
0.192169
0.233854
0.338106
0.263105
0.170929
0.143592
0.224085
0.242065
0.263315
0.227961
0.255813
0.260244
0.283267
0.297384
0.303705
0.308997
0.298202
0.226229
0.140479
0.0794934
0.0506282
0.0334888
0.0231478
0.0191065
0.000849079
0.0159692
0.0148182
0.133266
0.0202501
0.0221307
0.0192787
0.0172444
0.0153963
0.0171349
0.0192775
0.0227698
0.0189554
0.018941
0.0201534
0.0200871
0.0174239
0.0188193
0.0222149
0.0183444
0.0137521
0.0176656
0.011797
0.0113179
0.0110267
0.00494579
0.0297135
0.0160468
0.0178791
0.0215019
0.0188743
0.00583678
0.00548114
0.00717724
0.00792664
0.011648
0.0164165
0.0129903
0.008215
0.0104504
0.0103998
0.0066479
0.00369943
0.00372594
0.0144668
0.0437603
0.0480905
0.0259258
0.0266686
0.0361517
0.04896
0.0739142
0.105655
0.157914
0.217732
0.26226
0.299805
0.392903
0.288462
0.178278
0.14727
0.213723
0.235482
0.225644
0.201792
0.236708
0.257186
0.287049
0.318258
0.327405
0.350465
0.326881
0.233685
0.163228
0.0899711
0.055931
0.0361668
0.0235264
0.019342
0.00223111
0.0170765
0.0166281
0.127753
0.0205715
0.0217791
0.0190401
0.0173575
0.0156321
0.0169322
0.019918
0.0224781
0.018608
0.0186262
0.0198835
0.0198122
0.0177996
0.0195414
0.0225751
0.0187397
0.0145953
0.0189431
0.0136651
0.0129364
0.0135374
0.00629701
0.0348816
0.0194368
0.0197943
0.0234053
0.0177304
0.00585238
0.00614853
0.00806736
0.00807417
0.011441
0.0156608
0.0135012
0.0069722
0.0102405
0.0101287
0.00640649
0.00360201
0.00381401
0.0175824
0.0495045
0.0548954
0.0309249
0.0335353
0.0472261
0.0669641
0.103444
0.146555
0.215175
0.286482
0.32249
0.342711
0.414521
0.312798
0.188866
0.154952
0.212438
0.202675
0.179917
0.165485
0.214273
0.24734
0.291211
0.327727
0.350547
0.376505
0.360153
0.258302
0.182424
0.104985
0.0617763
0.0391346
0.025738
0.0201899
0.00632166
0.0200754
0.0189605
0.115756
0.0208156
0.0217383
0.0189199
0.0172238
0.0160402
0.0175144
0.0205989
0.0222401
0.0183664
0.0186116
0.0195505
0.0195213
0.0172272
0.0190504
0.0221782
0.0187035
0.014808
0.0178124
0.0160109
0.0137311
0.0162162
0.00842397
0.0417136
0.0239601
0.0227768
0.027061
0.0182273
0.0059476
0.00666764
0.00916795
0.00777122
0.0111515
0.0141455
0.0126247
0.00681182
0.0100677
0.00964063
0.00589381
0.00365207
0.00392654
0.0180705
0.0577956
0.0598545
0.0357581
0.040603
0.0598859
0.0859347
0.131897
0.185145
0.260691
0.33401
0.359167
0.392728
0.447544
0.314077
0.187144
0.152773
0.196791
0.177302
0.14515
0.141487
0.189437
0.230544
0.289665
0.349225
0.388024
0.421925
0.402027
0.285681
0.20056
0.118042
0.0686308
0.0419061
0.0261953
0.0205956
0.00820628
0.0242302
0.0221466
0.110669
0.0211999
0.0218336
0.0191096
0.0172048
0.0163967
0.0178445
0.0209723
0.0219444
0.018075
0.0184241
0.0193963
0.0193031
0.0173493
0.0195348
0.0222167
0.0184277
0.0157048
0.0180119
0.0176777
0.0155277
0.0191975
0.0114956
0.0499448
0.0293221
0.0261852
0.02571
0.0170415
0.00622271
0.00750452
0.00973021
0.00935441
0.0108446
0.0126607
0.00985624
0.0065418
0.00972552
0.0093719
0.00569368
0.00368232
0.00426417
0.0196306
0.0663013
0.0621811
0.0386908
0.0460181
0.0701931
0.102312
0.151701
0.207096
0.280206
0.345595
0.351128
0.388449
0.424927
0.318855
0.197841
0.167653
0.181264
0.151252
0.112408
0.116791
0.16754
0.216694
0.283274
0.365626
0.41319
0.447363
0.459565
0.316562
0.226943
0.134135
0.0762345
0.0446918
0.0282532
0.0207795
0.00884122
0.0227322
0.0246097
0.111116
0.0215565
0.0219202
0.0189965
0.0173826
0.0167728
0.0181683
0.0207596
0.0217041
0.0179279
0.0182497
0.0191614
0.0190334
0.0173735
0.018935
0.022218
0.018773
0.0165911
0.0187566
0.0183356
0.0180627
0.0223224
0.0160717
0.056559
0.0362995
0.0298769
0.0262489
0.0160168
0.00669844
0.00774722
0.0111342
0.00982887
0.0106221
0.0112659
0.00869965
0.00653875
0.00953909
0.0090174
0.00552156
0.00362701
0.00454715
0.0221334
0.0668749
0.0623508
0.0418975
0.0511398
0.0781804
0.111215
0.159043
0.211033
0.272611
0.318457
0.318593
0.342888
0.376044
0.291421
0.182342
0.157593
0.173485
0.127802
0.0859493
0.0954763
0.145147
0.20016
0.278962
0.373948
0.440901
0.473474
0.483346
0.350674
0.244923
0.153318
0.0871737
0.0491875
0.0290291
0.0211831
0.00910225
0.0138362
0.0249701
0.113375
0.0218059
0.0218586
0.019596
0.0178805
0.0173336
0.0187472
0.0209301
0.0214327
0.0177539
0.0180732
0.0189215
0.0188562
0.0176785
0.0194242
0.0217878
0.01834
0.0168329
0.0192384
0.0189387
0.0187756
0.0252188
0.0214769
0.0614035
0.0457804
0.0335844
0.0281753
0.0154349
0.00732808
0.00923921
0.0115921
0.0102918
0.0104552
0.0100919
0.00817965
0.00709058
0.00938831
0.00872746
0.00532288
0.00353436
0.00480637
0.0270105
0.0634936
0.0607727
0.0435659
0.0533694
0.079092
0.111523
0.153018
0.198149
0.244989
0.273974
0.263432
0.304
0.345193
0.249099
0.16377
0.13584
0.145521
0.0974075
0.0615014
0.0794756
0.125303
0.186433
0.274817
0.39108
0.476815
0.514835
0.507294
0.389104
0.272053
0.173973
0.0972086
0.0524948
0.0315987
0.0216359
0.0115674
0.00967011
0.023766
0.126889
0.0221169
0.0219624
0.019648
0.018242
0.0177862
0.0190473
0.0208507
0.0210929
0.0176551
0.017914
0.0185807
0.018645
0.0178825
0.0195777
0.0213614
0.0182627
0.017304
0.0192011
0.0193311
0.0199816
0.0279613
0.0274493
0.0658533
0.0557746
0.039596
0.0301385
0.0160443
0.00790035
0.00940841
0.0119784
0.0101613
0.0104477
0.00989776
0.00734788
0.00652135
0.00944218
0.00844398
0.00515443
0.00369003
0.00513726
0.0349067
0.0604521
0.0571085
0.043752
0.0531578
0.0780554
0.105592
0.137151
0.172968
0.206929
0.223996
0.226946
0.243114
0.272198
0.202187
0.143067
0.121483
0.115653
0.0708712
0.0434544
0.0649465
0.105355
0.17256
0.267554
0.404207
0.50775
0.561965
0.530385
0.425577
0.305231
0.195083
0.108871
0.0554072
0.0324642
0.0231737
0.0153885
0.00880318
0.0195272
0.137924
0.0223524
0.0221318
0.0197857
0.0188425
0.0185158
0.0196169
0.0208812
0.0206913
0.0175622
0.0177984
0.0184611
0.0184756
0.0178913
0.0196551
0.0208101
0.0179567
0.0172258
0.0185093
0.0195075
0.0211735
0.0304098
0.0324988
0.0700656
0.0636515
0.0366618
0.0314296
0.0153812
0.00856547
0.0108208
0.0118887
0.010968
0.0105635
0.0110056
0.00710448
0.00662372
0.00940191
0.00818789
0.00500232
0.00320311
0.00545731
0.0327997
0.0583788
0.054319
0.0422435
0.0498375
0.0724971
0.091417
0.117598
0.142663
0.165954
0.172992
0.174428
0.171545
0.217133
0.173035
0.125172
0.111822
0.0978698
0.0536343
0.0311397
0.0515157
0.088368
0.161048
0.262312
0.419732
0.541546
0.622011
0.584462
0.469222
0.339157
0.21382
0.120873
0.0598796
0.0335786
0.022853
0.0152374
0.00954116
0.0145378
0.149321
0.0225489
0.0222945
0.0201122
0.019093
0.0188291
0.0197685
0.0209149
0.0205004
0.0174716
0.0176963
0.0182392
0.0181877
0.0175993
0.0188285
0.0204108
0.0176664
0.0170739
0.0188168
0.0195183
0.0221727
0.0324392
0.0380154
0.0728607
0.0707142
0.0366332
0.0317813
0.014912
0.00933863
0.01131
0.0121935
0.0109218
0.0108112
0.0141469
0.00858596
0.00719511
0.00930467
0.00793617
0.00475693
0.00319887
0.00579469
0.034569
0.0586389
0.05099
0.0400857
0.045438
0.0641209
0.0785676
0.0958627
0.114289
0.129458
0.129456
0.125675
0.134593
0.16342
0.135137
0.105888
0.0987578
0.0770142
0.0394989
0.023167
0.0426231
0.073567
0.152599
0.258011
0.43611
0.57632
0.658646
0.641839
0.514629
0.379653
0.244022
0.1304
0.065885
0.033497
0.0225739
0.0174947
0.0103768
0.0119485
0.155825
0.0227931
0.022533
0.0201761
0.0194954
0.019333
0.0201191
0.0207483
0.0200479
0.0174184
0.0176348
0.0181082
0.0180011
0.0170787
0.0188147
0.0197651
0.0174828
0.0172895
0.0188056
0.0195161
0.0231008
0.0340311
0.0386556
0.0739289
0.0736938
0.0382772
0.0314424
0.0148981
0.0101688
0.011584
0.0122853
0.0111246
0.0112361
0.0165276
0.00927764
0.00735974
0.00912962
0.0077754
0.00481741
0.00337587
0.00622349
0.0408959
0.0583161
0.046669
0.0360057
0.0400004
0.0537643
0.0625169
0.0759096
0.0875624
0.0972228
0.0941099
0.0917122
0.0954298
0.11951
0.0991416
0.0864309
0.0839759
0.0601074
0.0307193
0.0178993
0.0364744
0.0637286
0.143119
0.255837
0.452268
0.622719
0.724009
0.735624
0.570252
0.422112
0.259664
0.147456
0.0684624
0.0347149
0.0230797
0.0172716
0.0120344
0.0105257
0.155815
0.0232576
0.0228988
0.020492
0.0199778
0.0198163
0.0203604
0.0207158
0.0199395
0.0174334
0.0175678
0.0179821
0.0178698
0.0170874
0.0187141
0.0193647
0.0172221
0.0171544
0.0185403
0.0195238
0.0238193
0.0351017
0.0397023
0.0732458
0.0738676
0.0398573
0.0307534
0.0156131
0.0108453
0.0118429
0.0124323
0.0108552
0.0114115
0.0126066
0.00725632
0.00729463
0.00905771
0.00757509
0.0043228
0.00311696
0.00652989
0.052006
0.0547955
0.039289
0.0316812
0.0333303
0.0447984
0.0496451
0.05807
0.065585
0.0718656
0.0660144
0.0641342
0.0652377
0.0781558
0.0822436
0.0767801
0.0705655
0.0485754
0.0235797
0.0147107
0.0306579
0.058575
0.137834
0.260446
0.472957
0.670718
0.791848
0.777446
0.626148
0.474514
0.289247
0.156123
0.0747778
0.0360839
0.0232687
0.0171532
0.0140572
0.00998373
0.148575
0.0236198
0.0235545
0.0209767
0.0204269
0.0202582
0.0205506
0.0209223
0.0199374
0.0174701
0.0175417
0.0178293
0.0176359
0.0169479
0.0183451
0.0189091
0.0169766
0.0170415
0.0183107
0.0194543
0.0242474
0.0352364
0.0421542
0.0710747
0.0725782
0.0410863
0.0300222
0.016416
0.0121611
0.0126673
0.0128425
0.0107965
0.0116646
0.0103684
0.00706103
0.00727245
0.00889782
0.00734663
0.00458623
0.00317377
0.0073962
0.0453674
0.0489409
0.0331872
0.0268199
0.0274098
0.0358417
0.0381019
0.0436134
0.0481825
0.0527415
0.0474958
0.0449851
0.046034
0.0606669
0.0629273
0.0632331
0.0590334
0.0379786
0.0192043
0.0128898
0.0265078
0.0565328
0.134673
0.271294
0.49732
0.717519
0.879838
0.862406
0.691173
0.53583
0.319498
0.171755
0.0770535
0.0381871
0.0223805
0.0161104
0.0154551
0.011265
0.146898
0.0237578
0.0238858
0.021498
0.0209965
0.0206626
0.0207969
0.0207228
0.0200002
0.0175128
0.0175511
0.0176967
0.0174477
0.0167869
0.0178485
0.0184623
0.0167427
0.0168743
0.0180394
0.0194965
0.0245788
0.0354459
0.0431896
0.0690063
0.0699508
0.0407071
0.0293705
0.0171774
0.0125787
0.0127581
0.01308
0.0109815
0.0121697
0.0105093
0.0074972
0.00716175
0.00881704
0.00718915
0.00419519
0.00315257
0.00775175
0.052961
0.0446687
0.0282415
0.0216037
0.0220495
0.0282572
0.0281176
0.0321356
0.0351794
0.0386849
0.0340958
0.030745
0.0302223
0.044995
0.0478117
0.0557346
0.0487424
0.0309849
0.0158415
0.011651
0.02597
0.0579445
0.131937
0.290314
0.524806
0.76594
0.939456
0.972641
0.755166
0.566778
0.36553
0.184794
0.0813132
0.0371359
0.0235578
0.014545
0.0167163
0.0123435
0.137965
0.0242875
0.0243711
0.0221302
0.0214624
0.0210552
0.0209509
0.0207525
0.0200434
0.0175887
0.0175255
0.0176052
0.0173165
0.0166248
0.0175672
0.0179144
0.0164375
0.016742
0.0178007
0.0195544
0.0252798
0.0353664
0.0433426
0.0643213
0.0662972
0.0396464
0.0289935
0.0178384
0.0129442
0.0126276
0.0133067
0.0114592
0.0127367
0.0104927
0.0073166
0.00722813
0.00879738
0.00713217
0.0041178
0.00319968
0.00774798
0.0536959
0.0424114
0.0254758
0.017584
0.0171944
0.0217918
0.0203264
0.0236907
0.0256597
0.0291359
0.0256768
0.0229174
0.0226255
0.0341695
0.0410665
0.0457557
0.0401673
0.0238479
0.0122083
0.0117548
0.0290876
0.0623458
0.136105
0.315498
0.561843
0.818876
0.999942
1.05379
0.833492
0.600917
0.394659
0.201226
0.0814288
0.0359307
0.0228291
0.0155812
0.0154442
0.0132904
0.135104
0.0247539
0.0248978
0.0230426
0.022025
0.021512
0.0213687
0.0210748
0.0200967
0.0176944
0.0175166
0.0175942
0.0171929
0.0164445
0.0172434
0.0173655
0.0160383
0.0165655
0.0175049
0.0195358
0.0252461
0.0351517
0.0432287
0.0612653
0.0620346
0.0385243
0.0284644
0.0188245
0.013362
0.0126017
0.0135749
0.0122532
0.0129676
0.00874587
0.00751512
0.00721434
0.00874843
0.00693676
0.00443014
0.0032391
0.00912167
0.0483086
0.0400168
0.02364
0.0148803
0.0134995
0.0170511
0.0149575
0.0179663
0.0198269
0.0225505
0.0204465
0.018463
0.0179855
0.0261512
0.0337149
0.0379707
0.0327834
0.0193972
0.0122332
0.0144917
0.0397622
0.0700051
0.148727
0.343764
0.60811
0.87952
1.06423
1.12417
0.923431
0.667869
0.439716
0.223231
0.0815135
0.0344531
0.0237466
0.0133951
0.0127875
0.0148962
0.133029
0.0259304
0.0258933
0.0241793
0.0228802
0.0222932
0.0221024
0.0215103
0.0200573
0.0177656
0.0175309
0.0176438
0.017077
0.0162264
0.0169924
0.0169481
0.0157293
0.016303
0.0171827
0.0194416
0.0251873
0.0350274
0.0433784
0.058258
0.0581983
0.0373084
0.0279408
0.0188475
0.0135702
0.0135694
0.0149237
0.0133108
0.0131321
0.00800676
0.00607743
0.00727009
0.00871394
0.00678485
0.00400901
0.00321392
0.00848217
0.030638
0.0388386
0.0218608
0.0122368
0.0107376
0.0135571
0.0115301
0.0143009
0.0158348
0.0186991
0.0172696
0.0161889
0.0160624
0.0208
0.0279313
0.0330884
0.028273
0.0176147
0.0138449
0.0198631
0.0481327
0.0868024
0.168476
0.386258
0.667261
0.950116
1.13905
1.2178
1.02233
0.732362
0.489224
0.231429
0.0813069
0.0334223
0.0225493
0.013089
0.0149228
0.0165187
0.129558
0.026831
0.0267392
0.0251314
0.0239448
0.0228662
0.0224917
0.0219878
0.020024
0.0177679
0.0175489
0.0175538
0.017028
0.0160891
0.0167788
0.0165647
0.01551
0.0160358
0.0169411
0.0195105
0.0260619
0.0344869
0.0423355
0.0555451
0.05447
0.0360197
0.0273749
0.0186399
0.0137249
0.0140881
0.0155119
0.0142969
0.0139172
0.00782127
0.00624593
0.00736693
0.00866726
0.00669148
0.00426325
0.00335522
0.00795071
0.0355559
0.0369366
0.019608
0.00946494
0.00866948
0.0114093
0.00925768
0.0119289
0.013395
0.0161942
0.0157976
0.0153595
0.015461
0.0192011
0.0257056
0.029701
0.0230034
0.0151678
0.0148496
0.0274846
0.0649187
0.108262
0.198494
0.439816
0.745623
1.02887
1.21921
1.28201
1.12886
0.798018
0.521322
0.240435
0.0798096
0.0324482
0.0218077
0.0128454
0.0189419
0.0194037
0.133879
0.0278977
0.0282146
0.0265282
0.0253571
0.0238757
0.0233914
0.0224782
0.0205281
0.0179334
0.0175796
0.0175075
0.016834
0.0160358
0.0165407
0.0161368
0.0152786
0.0157956
0.016608
0.0193874
0.0258814
0.034192
0.0420679
0.0529272
0.051252
0.034805
0.0267938
0.0184339
0.0138159
0.0146812
0.0161414
0.0152437
0.0136331
0.00761188
0.00620205
0.00737261
0.00859101
0.00658558
0.00384249
0.00328397
0.00650349
0.0220362
0.0332546
0.0165127
0.00761146
0.00718733
0.00970081
0.00808309
0.0105578
0.0123181
0.0150497
0.0153141
0.0157541
0.0165115
0.0201278
0.0259189
0.0276639
0.021659
0.0157753
0.0175222
0.0395658
0.0873412
0.130927
0.230317
0.501634
0.838468
1.12855
1.28718
1.33908
1.23999
0.876221
0.553818
0.24727
0.0778972
0.0313286
0.0206815
0.0123317
0.0215645
0.0210496
0.132037
0.0298931
0.0299185
0.028139
0.0265929
0.0252168
0.0246435
0.0230487
0.0205368
0.0180295
0.0175298
0.0174927
0.0165972
0.0159868
0.0162706
0.0158554
0.0148693
0.0155635
0.016336
0.0192351
0.0253118
0.0335962
0.0415298
0.0500595
0.0481771
0.0337732
0.0261952
0.0182631
0.0139494
0.0151987
0.0163739
0.0163252
0.0137732
0.00751145
0.0065348
0.00743132
0.00846921
0.00631282
0.00376656
0.00315981
0.00646014
0.0174797
0.0324927
0.0135338
0.00568849
0.00598254
0.00913178
0.00766332
0.0100491
0.0121306
0.0146536
0.015619
0.0170605
0.0183416
0.0220689
0.0273372
0.0272242
0.0213791
0.0171742
0.022315
0.0583933
0.0969133
0.15014
0.25414
0.549763
0.925549
1.24054
1.37528
1.37421
1.26564
0.947926
0.583309
0.249904
0.0755137
0.0300088
0.0196992
0.0119483
0.0220911
0.0230592
0.135066
0.0310915
0.0313811
0.0299508
0.0279198
0.0260619
0.0254259
0.0237237
0.0210326
0.0181364
0.0176357
0.0175072
0.0165329
0.0157533
0.016019
0.0156257
0.0145771
0.015228
0.0161271
0.0190825
0.0248545
0.0329701
0.0408028
0.0477014
0.04555
0.0326483
0.0254706
0.0179266
0.0138961
0.0150456
0.0165723
0.0171107
0.0135855
0.00818178
0.0058818
0.00761738
0.00840328
0.00623837
0.0038215
0.00306273
0.00709402
0.0243325
0.0304893
0.0105497
0.00539235
0.00551607
0.0089702
0.00770744
0.00999627
0.0125579
0.0144567
0.0164321
0.0188746
0.0210999
0.0256596
0.028671
0.0284361
0.0221821
0.0196674
0.0286843
0.0608082
0.0960137
0.166307
0.273922
0.594839
1.00253
1.33621
1.46352
1.44246
1.28497
1.03442
0.607957
0.246762
0.0719628
0.0283114
0.017974
0.00928181
0.0225069
0.0241136
0.140711
0.0324908
0.0325836
0.0311995
0.0292492
0.0270501
0.0261896
0.0241872
0.0217812
0.0186344
0.017725
0.0174732
0.0164787
0.0154985
0.0157205
0.0154474
0.0142911
0.0148436
0.015997
0.018881
0.0245874
0.0324639
0.0398797
0.0454842
0.0430512
0.0319203
0.0250523
0.0178999
0.0141445
0.0145113
0.0167997
0.0181582
0.0133798
0.00843665
0.00715157
0.00760266
0.0083012
0.00602654
0.00331726
0.00280244
0.00573191
0.0104414
0.0240062
0.00818323
0.00687938
0.00519777
0.00849969
0.00825409
0.0102945
0.013308
0.0149366
0.0180944
0.0212488
0.0247327
0.0288616
0.0308615
0.0295362
0.0251699
0.0222088
0.036324
0.0695863
0.0901038
0.174541
0.286683
0.61836
1.06516
1.4258
1.5282
1.47587
1.2748
1.00259
0.619395
0.244697
0.0674641
0.0258677
0.0160761
0.00802608
0.00288892
0.0179916
0.143583
0.0339148
0.0339419
0.0325609
0.0302078
0.0280461
0.0270011
0.0248534
0.0227463
0.0191965
0.0176837
0.0172887
0.0162949
0.0152047
0.0153289
0.0151496
0.013949
0.014558
0.0158343
0.018667
0.024305
0.0318089
0.0388451
0.0433788
0.0405855
0.0309636
0.0242227
0.0171104
0.0136617
0.0149621
0.0172813
0.0191057
0.0135772
0.00957334
0.00670132
0.0077755
0.00822965
0.00595473
0.00327965
0.00281542
0.00668728
0.0109385
0.0140645
0.00801554
0.00830132
0.00521939
0.00895626
0.00914035
0.0110862
0.014257
0.015645
0.0196152
0.0234571
0.0261033
0.0322883
0.0338316
0.0319189
0.0263472
0.0243111
0.0357127
0.0653766
0.0804281
0.167891
0.284905
0.626679
1.10498
1.49105
1.60151
1.4966
1.26586
0.985876
0.598751
0.23708
0.0618341
0.0228268
0.0137357
0.00869718
0.00203907
0.0191733
0.150366
0.0356676
0.0354501
0.0343237
0.031549
0.0290293
0.0279533
0.0262538
0.0229592
0.0190005
0.0176653
0.0170807
0.0160622
0.0149809
0.0149025
0.0148279
0.0138217
0.0142876
0.0155605
0.0184255
0.0239996
0.0311724
0.0375341
0.04142
0.0388412
0.0305524
0.0241777
0.0183055
0.0145083
0.0149405
0.0173541
0.0195568
0.0133162
0.00823475
0.00700595
0.0080436
0.00813856
0.0058056
0.00330949
0.00259394
0.00495602
0.00142176
0.0121536
0.00982975
0.0198942
0.00503728
0.00951725
0.0104174
0.012089
0.0153893
0.0164951
0.021154
0.0249557
0.0274151
0.0342554
0.0365443
0.0347797
0.0295342
0.026648
0.0371771
0.0613922
0.0707808
0.147103
0.274043
0.603571
1.1116
1.51144
1.64923
1.51657
1.2699
0.950488
0.577109
0.225096
0.0553508
0.0192447
0.0111896
0.00713701
0.00282731
0.0168008
0.155172
0.0379253
0.037466
0.035998
0.0329347
0.0301891
0.0286343
0.0272582
0.0233608
0.0191056
0.0179065
0.0170298
0.0159669
0.0147555
0.0144478
0.0144462
0.0136993
0.014169
0.0154167
0.0181279
0.0235096
0.0303183
0.0363074
0.039707
0.0373377
0.0296523
0.0229737
0.0176819
0.0146682
0.0145069
0.016852
0.0186578
0.0113521
0.00880213
0.00847027
0.00800832
0.00805945
0.00573086
0.00295164
0.00252358
0.00345797
0.000609921
0.0157874
0.0267172
0.271402
0.00505687
0.0102481
0.0115249
0.0130711
0.0162646
0.0172
0.0218034
0.0254394
0.0285901
0.0358091
0.0382719
0.0381547
0.0323941
0.028514
0.0356199
0.054371
0.0614918
0.128457
0.248598
0.569385
1.08349
1.48366
1.67405
1.49371
1.26333
0.928525
0.540956
0.211419
0.0484438
0.0154319
0.00869075
0.0057261
0.00274589
0.0192821
0.162811
0.0404412
0.0398887
0.0382813
0.0346157
0.0314124
0.0296548
0.0279687
0.0241919
0.019417
0.0181379
0.0168387
0.0156824
0.0146151
0.0140669
0.0139075
0.0135169
0.0140174
0.015234
0.0178106
0.0230222
0.0295029
0.0352158
0.0381821
0.0362079
0.0295622
0.0242423
0.0189995
0.0148951
0.0140874
0.016189
0.0177698
0.0109886
0.00885802
0.00787881
0.00849098
0.00797964
0.00541562
0.00291787
0.00252339
0.00320235
0.00429315
0.0213985
0.153294
0.238741
0.00593693
0.0115514
0.0120913
0.0139758
0.0167109
0.0176857
0.0217697
0.0251931
0.029109
0.0353126
0.0393206
0.0406585
0.0364186
0.0305005
0.0252795
0.0402293
0.0504885
0.104395
0.222053
0.514087
1.02261
1.41722
1.62326
1.4726
1.2527
0.883855
0.520803
0.193165
0.0412251
0.0120278
0.00671771
0.00426817
0.00287495
0.0211157
0.176107
0.0433253
0.0425583
0.0406562
0.0364314