/*--------------------------------*- C++ -*----------------------------------*\
| =========                 |                                                 |
| \\      /  F ield         | OpenFOAM: The Open Source CFD Toolbox           |
|  \\    /   O peration     | Version:  4.1                                   |
|   \\  /    A nd           | Web:      www.OpenFOAM.org                      |
|    \\/     M anipulation  |                                                 |
\*---------------------------------------------------------------------------*/
FoamFile
{
    version     2.0;
    format      ascii;
    class       volScalarField;
    location    "16";
    object      p;
}
// * * * * * * * * * * * * * * * * * * * * * * * * * * * * * * * * * * * * * //

dimensions      [0 2 -2 0 0 0 0];

internalField   nonuniform List<scalar> 
6785
(
1627.88
1561.47
1510.55
1460.53
1414.22
1370.65
1329.68
1291.05
1254.59
1219.72
1185.85
1154.31
1125.54
1091.33
1056.74
1082.2
1064.17
1067.97
1063.22
1060.2
1056.96
1054.23
1052.18
1051.03
1050.86
1051.54
1053.73
1058.29
1061.88
1061.97
1035.88
1029.52
1039.17
1037.67
1040.87
1042.65
1044.74
1046.62
1048.39
1049.97
1051.4
1052.81
1053.85
1054.51
1055.54
1072.2
1069.15
1073.34
1068.82
1068.92
1066.54
1064.75
1062.65
1060.58
1058.5
1056.55
1055.18
1055.14
1055.91
1057.47
1070.44
1068.22
1071.4
1068
1069.79
1068.9
1069.11
1069.22
1069.5
1069.94
1070.55
1071.33
1072.57
1073.69
1075.27
1077.94
1077.31
1080.63
1078.98
1081.62
1081.94
1083.24
1084.42
1085.61
1086.83
1088.07
1089.24
1090.46
1091.37
1092.4
1092.34
1092.79
1095.59
1094.37
1096.59
1096.65
1097.64
1098.33
1099.01
1099.66
1100.3
1100.92
1101.59
1102.13
1102.88
1103.57
1104.41
1106.39
1105.37
1107.17
1106.96
1107.8
1108.12
1108.51
1108.77
1109.01
1109.3
1109.65
1109.99
1110.46
1110.76
1111.2
1112.54
1111.45
1112.78
1112.23
1112.77
1112.64
1112.67
1112.45
1112.2
1112
1111.87
1111.9
1111.8
1111.12
1110.59
1111.32
1109.92
1110.57
1109.57
1109.63
1108.98
1108.52
1107.7
1106.89
1106.17
1105.65
1105.19
1104.28
1101.39
1100.01
1099.84
1098.13
1098.04
1096.59
1096.12
1095.07
1094.38
1093.5
1092.78
1092.19
1091.53
1090.57
1089.33
1085.63
1084.26
1083.57
1081.85
1081.3
1079.68
1078.82
1077.53
1076.61
1075.69
1074.99
1074.48
1073.93
1073.43
1073.33
1082.17
1081.32
1080.02
1078.06
1077.18
1075.49
1074.37
1073.1
1072.2
1071.57
1071.28
1071.27
1071.48
1071.73
1072.3
1081.45
1083.26
1083.16
1081.92
1081.28
1080.27
1079.65
1079.09
1078.7
1078.44
1078.29
1078.18
1078.21
1078.2
1078.54
1128.31
1128.49
1125.81
1119.77
1112.52
1105.72
1099.71
1094.66
1090.14
1086.06
1082.58
1080.43
1079.3
1078.63
1077.95
1114.23
1114.16
1114.25
1114.25
1114.28
1114.21
1114.33
1114.35
1114.42
1114.36
1114.47
1114.52
1114.54
1114.6
1114.68
1114.78
1114.77
1114.84
1114.91
1115.04
1114.99
1115.07
1115.17
1115.25
1115.24
1115.28
1115.38
1115.45
1115.47
1115.42
1115.69
1115.55
1115.5
1115.58
1115.66
1115.68
1115.52
1115.83
1115.68
1115.54
1115.57
1115.69
1115.63
1115.47
1115.46
1115.55
1115.51
1115.23
1115.47
1115.39
1115.13
1115.04
1115.08
1115.17
1114.92
1114.79
1114.79
1115
1114.74
1114.66
1115.04
1114.82
1114.66
1114.6
1114.84
1114.64
1114.87
1114.68
1113.78
1114.09
1113.96
1109.43
1107.01
1108.21
1105.87
1091.57
1096.67
1093.35
1059.7
1067.75
1072.36
1071.19
1072.71
1058.24
1063.38
1067.69
1068.15
1068.63
1068.79
1069.59
1072.06
1074.16
1065.4
1063.47
1064.6
1067.54
1069.99
1070.33
1071.22
1072.11
1073.32
1066.9
1068.44
1069.74
1070.13
1071.61
1074.37
1075.9
1076.34
1077.11
1077.02
1071.3
1076.64
1077.45
1077.89
1078.05
1079.66
1081.68
1082.12
1080.61
1072.95
1083.34
1085.15
1086.15
1085.85
1085.6
1085.4
1086.76
1086.28
1081.53
1092.82
1091.12
1092.09
1092.64
1092.17
1091.81
1091.26
1088.86
1082.87
1099.85
1097.62
1097.44
1096.31
1094.5
1093.23
1092.8
1092.15
1091.41
1081.86
1095.03
1093.11
1094.46
1095.7
1094.39
1088.14
1086.72
1090.94
1081.96
1095.62
1093.16
1093.86
1103.5
1091.62
1102.41
1099.13
1112.45
1114.06
1107.23
1112.04
1108.4
1104.5
1099.27
1088.91
1085.97
1072.69
1077.55
1056.47
1036.78
1036.91
1020.1
1045.96
1020.62
982.91
1030.95
1005.38
977.447
990.282
979.627
1027.14
1000.09
976.208
990.822
985.393
1024
1007.93
985.475
1021.2
1012.88
1000.86
1009.39
1008.58
1023.77
1018.79
1013.3
1017.55
1017.24
1022.8
1020.86
1018.19
1024.18
1020.89
1020.8
1017.91
1010.68
1016.98
1009.21
993.815
1000.3
991.995
1012.75
1022.86
1009.21
1047.14
1067.64
1061.83
1091.06
1088.11
1145.61
1181.66
1094.3
1279.19
1335.77
780.743
1154.91
1541.91
160.894
-33.9804
-1048.67
-860.168
1363.02
0.000647689
-0.00164619
0.00382551
0.00692231
0.00981237
0.0130286
0.0164638
0.0203199
0.0246125
0.0293674
0.0346209
0.0396676
0.0443152
0.0495266
0.0563217
0.0656899
0.0785411
0.093945
0.112364
0.140273
0.189426
0.255215
0.304991
0.315053
0.282338
0.218937
0.154404
0.125593
0.136561
0.18425
0.265692
0.36473
0.47677
0.581673
0.652544
0.675809
0.673458
0.664706
0.68307
0.725339
0.79783
0.888388
0.98907
1.10061
1.23507
1.41122
1.65367
1.95749
2.26982
2.53248
2.75258
2.98883
3.28047
3.65023
4.14927
4.83209
5.64154
6.33821
6.66827
6.59899
6.25269
5.78562
5.21901
4.37523
3.12889
2.03518
2.86677
3.47811
3.62421
3.48839
3.38561
4.40315
7.07573
13.055
26.0666
54.6669
113.341
175.35
253.509
0.00521395
0.00170108
0.0179736
0.0276285
0.0368916
0.0472961
0.0585025
0.0710946
0.0851319
0.100598
0.117614
0.134955
0.152056
0.171474
0.196175
0.228401
0.270589
0.323172
0.388913
0.467027
0.551576
0.624158
0.685083
0.748586
0.778154
0.7754
0.750241
0.704206
0.68664
0.737798
0.883157
1.07027
1.26844
1.43177
1.52725
1.57083
1.63709
1.71069
1.8501
2.03427
2.26757
2.53411
2.8266
3.15527
3.54581
4.02474
4.61651
5.30739
6.05924
6.84537
7.69623
8.66971
9.78921
11.0625
12.5033
14.0815
15.6102
16.7481
17.4238
18.0764
18.8875
19.4295
18.8264
16.0396
10.5294
4.39972
4.20777
6.07563
7.69369
8.59764
8.42101
8.44277
8.54399
9.07488
8.85253
8.06635
5.90156
-27.5451
652.895
0.00816135
0.00358997
0.0292543
0.0458286
0.0617481
0.0795296
0.0986073
0.119932
0.143653
0.169741
0.198503
0.228707
0.259395
0.294052
0.337112
0.39187
0.462251
0.549037
0.656465
0.78532
0.935761
1.08494
1.22327
1.35636
1.40291
1.36711
1.29094
1.19627
1.19154
1.31125
1.57749
1.90832
2.25902
2.55585
2.74734
2.85191
2.98011
3.12857
3.3886
3.72939
4.15707
4.64229
5.17595
5.78138
6.50624
7.39778
8.4961
9.77833
11.1833
12.6452
14.1838
15.8794
17.7743
19.887
22.2613
24.9057
27.5702
29.6835
31.0295
32.1816
33.3772
33.9486
32.5556
27.5641
17.9725
7.09363
6.20165
10.4884
13.32
13.9834
14.2322
15.8065
17.5545
20.4948
23.5376
29.4582
47.5439
51.6744
1131.36
0.0120334
0.00769536
0.0423993
0.0660762
0.088744
0.114026
0.141157
0.171409
0.20507
0.24205
0.282655
0.325639
0.369877
0.419842
0.481539
0.559366
0.658623
0.780817
0.931803
1.10996
1.31138
1.50804
1.69869
1.89821
1.98369
1.95654
1.86448
1.72304
1.71027
1.87732
2.24135
2.687
3.1472
3.5289
3.77635
3.92676
4.12256
4.36026
4.7467
5.24037
5.847
6.53028
7.28295
8.1386
9.15977
10.405
11.9203
13.6784
15.6146
17.6633
19.8578
22.2874
24.9881
27.9715
31.2825
34.9215
38.5639
41.4875
43.4478
45.2133
47.0856
48.1017
46.3377
39.4948
26.218
11.0398
9.1345
14.6878
18.366
19.5631
20.4111
23.5373
28.2079
36.7981
51.1698
82.1863
163.245
271.338
1288.83
0.0156524
0.0123339
0.055351
0.086278
0.115877
0.148788
0.184117
0.223414
0.26714
0.315136
0.367637
0.423496
0.481648
0.547361
0.628008
0.729011
0.856916
1.01356
1.2064
1.43425
1.69354
1.95226
2.20694
2.47239
2.58715
2.55605
2.43163
2.23011
2.20726
2.43564
2.90722
3.47231
4.04259
4.51028
4.819
5.02657
5.29621
5.63161
6.14638
6.7954
7.58404
8.46922
9.44599
10.5585
11.8838
13.4924
15.4379
17.6919
20.1805
22.8283
25.6727
28.814
32.2889
36.1058
40.3146
44.9262
49.5726
53.4024
56.1129
58.5763
61.1081
62.4915
60.3256
51.7543
35.1461
16.0732
13.069
19.6937
24.0989
25.6251
27.0162
31.4722
38.3286
51.216
74.557
125.148
251.846
420.493
1168.38
0.0196447
0.0181504
0.0691407
0.10748
0.144126
0.184733
0.228374
0.276846
0.330787
0.389986
0.454519
0.523369
0.595673
0.677447
0.77734
0.901769
1.05849
1.24979
1.48463
1.76151
2.0756
2.39186
2.70773
3.0394
3.18814
3.16322
3.00833
2.73885
2.69427
2.98422
3.56014
4.2348
4.89789
5.43393
5.79332
6.06038
6.40758
6.84778
7.49231
8.29538
9.26053
10.3405
11.5337
12.8939
14.5103
16.4624
18.8094
21.5232
24.5246
27.7395
31.2184
35.0693
39.3212
43.9709
49.0649
54.6198
60.2365
64.9677
68.4727
71.7091
75
76.8878
74.5103
64.4719
44.9086
22.2677
17.9116
25.0553
29.9033
31.9784
34.1964
40.1648
49.4346
66.7331
98.909
166.667
326.342
545.25
1127.4
0.0236298
0.0246671
0.0832757
0.129154
0.173012
0.221414
0.27348
0.331245
0.395519
0.466068
0.542761
0.624744
0.711476
0.809674
0.929113
1.07713
1.26262
1.48823
1.76447
2.09048
2.46114
2.83871
3.21891
3.61632
3.7978
3.78072
3.58888
3.24032
3.1647
3.52051
4.20309
4.98267
5.72872
6.32482
6.7337
7.06974
7.50086
8.05145
8.82674
9.78359
10.9231
12.1949
13.6018
15.2068
17.11
19.3992
22.1392
25.303
28.8067
32.5788
36.682
41.2301
46.2442
51.7063
57.6546
64.1169
70.6851
76.346
80.7278
84.84
88.9836
91.4666
89.0094
77.7298
55.578
29.6724
23.7419
31.083
36.2151
38.7992
41.9171
49.5581
61.781
84.6477
128.014
216.093
408.898
667.756
1003.9
0.0277665
0.0319301
0.0979496
0.15152
0.202757
0.259054
0.319635
0.386787
0.46149
0.543535
0.632531
0.727819
0.829244
0.944205
1.08348
1.25526
1.46951
1.72941
2.04688
2.42176
2.8487
3.28781
3.73325
4.19664
4.4127
4.40909
4.17686
3.73825
3.6219
4.04364
4.83232
5.70912
6.52558
7.17164
7.6285
8.0413
8.56167
9.22596
10.1324
11.2414
12.5511
14.0097
15.6249
17.4683
19.6497
22.2639
25.381
28.975
32.9597
37.2709
41.9872
47.2265
52.9975
59.2608
66.0391
73.3743
80.8693
87.4738
92.7985
97.8853
102.991
106.2
103.847
91.5983
67.2495
38.3691
30.5833
37.7042
42.8886
46.0248
50.2265
59.7001
75.3196
104.738
161.16
271.013
491.764
777.321
937.043
0.0319559
0.039752
0.113008
0.174422
0.233229
0.297553
0.366754
0.443371
0.528576
0.622233
0.723676
0.832426
0.948788
1.08086
1.24029
1.43597
1.67894
1.97295
2.33139
2.75509
3.23902
3.74139
4.25391
4.78321
5.03514
5.04942
4.77199
4.23183
4.06678
4.55337
5.44706
6.41346
7.28967
7.9786
8.48603
8.98391
9.59971
10.3804
11.4181
12.6774
14.1538
15.7946
17.6134
19.6898
22.1424
25.0727
28.5552
32.5656
37.0165
41.8541
47.1736
53.0953
59.6134
66.661
74.2384
82.407
90.8026
98.3672
104.707
110.879
117.069
121.144
119.085
106.153
80.0158
48.4664
38.5643
45.1055
50.1681
53.8215
59.2223
70.7961
90.3889
127.356
198.02
328.799
569.846
875.028
884.535
0.036308
0.0481262
0.128449
0.19788
0.264464
0.336962
0.414896
0.501043
0.596799
0.702146
0.816204
0.938566
1.07007
1.21959
1.39949
1.61925
1.89088
2.21895
2.61817
3.0905
3.63166
4.19835
4.77944
5.37478
5.66519
5.70244
5.37513
4.72297
4.50288
5.05131
6.04631
7.09305
8.0187
8.74478
9.30891
9.89814
10.6143
11.5126
12.6811
14.0881
15.7269
17.5448
19.5618
21.8651
24.581
27.8171
31.6524
36.0638
40.9649
46.3149
52.2277
58.8246
66.0823
73.8991
82.2451
91.2071
100.476
109.014
116.44
123.808
131.209
136.304
134.756
121.452
93.9661
60.088
47.8293
53.3823
58.1298
62.2902
69.0676
83.1036
107.43
153.122
238.952
389.19
643.983
959.854
877.269
0.0409232
0.0570646
0.144204
0.22182
0.296407
0.377248
0.464049
0.559797
0.666139
0.78322
0.910049
1.04617
1.193
1.36023
1.56095
1.80499
2.10522
2.46728
2.90706
3.42781
4.02658
4.65881
5.31005
5.97148
6.30389
6.36843
5.98647
5.21349
4.9345
5.54067
6.63049
7.74692
8.71289
9.47309
10.1041
10.7888
11.609
12.6254
13.9239
15.4756
17.2725
19.2623
21.4721
23.9962
26.9676
30.5001
34.6767
39.4754
44.8125
50.6627
57.1591
64.423
72.4114
80.9802
90.062
99.7757
109.89
119.415
127.996
136.674
145.416
151.699
150.894
137.556
109.187
73.3709
58.5843
62.7528
67.0209
71.651
79.9976
96.9533
126.883
182.474
283.944
451.472
711.14
1013.29
955.164
0.0460446
0.0667371
0.160294
0.246201
0.329039
0.418406
0.514224
0.619654
0.736617
0.865453
1.00516
1.15518
1.31754
1.50273
1.72457
1.99313
2.32192
2.71791
3.19807
3.7669
4.42341
5.12219
5.84498
6.57274
6.95184
7.0471
6.60647
5.70639
5.36762
6.02675
7.2012
8.37482
9.37268
10.1672
10.8763
11.6585
12.585
13.7194
15.1466
16.8396
18.7898
20.9461
23.3431
26.0814
29.3005
33.1196
37.6257
42.7982
48.5575
54.8957
61.9656
69.8886
78.599
87.9031
97.6877
108.111
119.042
129.566
139.371
149.469
159.685
167.333
167.523
154.511
125.756
88.4541
71.0618
73.438
77.0483
82.1625
92.3233
112.75
149.207
215.689
332.527
514.091
770.323
1030.44
1025.32
0.0519792
0.0774341
0.176805
0.270977
0.36231
0.460408
0.565413
0.680624
0.808245
0.94884
1.10148
1.26551
1.44364
1.64705
1.89023
2.18357
2.54088
2.97076
3.49108
4.10759
4.82186
5.58813
6.38369
7.17838
7.60916
7.73782
7.23568
6.20622
5.81023
6.51653
7.76139
8.97776
9.9999
10.8339
11.6304
12.5102
13.5444
14.7962
16.3501
18.1807
20.2793
22.5967
25.175
28.1209
31.5796
35.6758
40.5003
46.0336
52.2021
59.0168
66.6496
75.2227
84.6459
94.668
105.122
116.214
127.933
139.469
150.565
162.187
174.004
183.204
184.662
172.359
143.737
105.47
85.5291
85.7418
88.4979
94.1465
106.421
130.944
174.839
252.89
384.025
575.359
822.882
1029.66
1046.89
0.0591067
0.0895528
0.193942
0.296176
0.396176
0.503232
0.61761
0.742721
0.881044
1.03339
1.19895
1.37711
1.57123
1.79315
2.05786
2.37622
2.76205
3.22576
3.78598
4.44975
5.2216
6.05614
6.92563
7.78822
8.27518
8.43975
7.87521
6.72017
6.27307
7.01824
8.31484
9.55761
10.5982
11.4823
12.3704
13.3463
14.4888
15.8568
17.5351
19.4993
21.7411
24.2138
26.9674
30.1143
33.8046
38.1682
43.2997
49.1814
55.7464
63.0261
71.2103
80.424
90.5505
101.274
112.366
124.085
136.565
149.124
161.574
174.815
188.357
199.306
202.323
191.128
163.178
124.531
102.249
99.9918
101.695
107.976
122.716
151.995
204.132
294.003
437.63
633.688
867.657
1026.75
1056.84
0.0676573
0.103491
0.212035
0.321923
0.430613
0.546843
0.6708
0.805943
0.955022
1.11909
1.29753
1.48988
1.70025
1.94098
2.22745
2.57101
2.98533
3.48277
4.0826
4.79326
5.62239
6.52576
7.47028
8.40192
8.949
9.15164
8.52664
7.25721
6.7682
7.54039
8.8656
10.1172
11.1746
12.1211
13.0985
14.1691
15.4198
16.9024
18.7024
20.7958
23.1754
25.7977
28.7206
32.0615
35.9752
40.5965
46.024
52.2419
59.1912
66.924
75.6478
85.4913
96.3109
107.72
119.419
131.726
144.941
158.535
172.395
187.336
202.723
215.626
220.51
210.833
184.105
145.722
121.458
116.537
117.023
124.067
141.659
176.332
237.304
338.715
492.375
688.026
904.868
1027.16
1055.1
0.077491
0.119565
0.231517
0.348474
0.465676
0.591212
0.724967
0.870287
1.03019
1.20596
1.39717
1.60377
1.83061
2.09052
2.39897
2.76779
3.21064
3.74164
4.3808
5.13802
6.02404
6.99654
8.01703
9.01886
9.62955
9.87176
9.1914
7.82618
7.30652
8.09032
9.41756
10.6613
11.741
12.755
13.8167
14.9806
16.3387
17.9341
19.8526
22.0706
24.5824
27.3485
30.4345
33.9625
38.0913
42.9605
48.6728
55.2152
62.5366
70.7102
79.9607
90.422
101.924
114.003
126.282
139.142
153.066
167.704
183.023
199.732
217.075
232.145
239.218
231.472
206.52
169.091
143.353
135.709
134.872
142.853
163.686
204.305
274.402
386.494
547.19
737.525
934.661
1033.22
1052.6
0.0882062
0.137844
0.25283
0.376193
0.501534
0.636332
0.780078
0.935734
1.10653
1.294
1.49787
1.71872
1.96226
2.24171
2.57242
2.96643
3.43786
4.0022
4.68039
5.48389
6.42639
7.46806
8.56517
9.63817
10.3155
10.5977
9.87
8.43378
7.8954
8.67263
9.974
11.1992
12.3069
13.3849
14.5267
15.7828
17.2468
18.953
20.9862
23.3241
25.9625
28.8664
32.1092
35.8173
40.1528
45.26
51.2462
58.1013
65.7828
74.384
84.1476
95.213
107.386
120.121
132.956
146.335
160.945
176.634
193.446
211.975
231.383
248.841
258.43
253.029
230.399
194.643
168.065
157.791
155.607
164.743
189.176
236.14
315.28
436.63
601.003
781.722
957.355
1044.39
1047.55
0.0994034
0.158033
0.276269
0.405495
0.53845
0.682273
0.836098
1.00226
1.18404
1.38318
1.59962
1.83471
2.09514
2.39454
2.74779
3.16686
3.66687
4.26423
4.98112
5.83069
6.82926
7.93986
9.11389
10.2587
11.0049
11.3262
10.5614
9.08257
8.53678
9.28854
10.5383
11.7405
12.8744
14.0112
15.2304
16.5775
18.1454
19.9598
22.1038
24.5567
27.3159
30.3517
33.7451
37.6261
42.1597
47.4951
53.7441
60.9004
68.9296
77.9446
88.2062
99.8605
112.693
126.07
139.441
153.311
168.585
185.327
203.65
224.036
245.616
265.684
278.122
275.469
255.686
222.329
195.647
182.993
179.527
190.082
218.41
271.902
359.586
488.28
652.869
820.342
972.551
1067.78
1044.58
0.11078
0.179608
0.301784
0.436718
0.576725
0.729192
0.893016
1.06982
1.26269
1.47351
1.70242
1.95172
2.2292
2.54898
2.92508
3.36907
3.89751
4.5275
5.28267
6.17808
7.23235
8.41143
9.66229
10.879
11.6954
12.0532
11.2621
9.76956
9.22807
9.93383
11.1139
12.2881
13.4436
14.6353
15.9295
17.366
19.0354
20.9556
23.206
25.7688
28.6428
31.8046
35.3422
39.3889
44.1122
49.6657
56.1664
63.6123
71.9767
81.3906
92.1334
104.36
117.837
131.846
145.736
160.073
175.99
193.781
213.618
235.884
259.74
282.641
298.254
298.74
282.302
252.05
226.063
211.427
206.836
219.105
251.529
311.471
406.787
540.546
701.91
852.832
979.457
1103.37
1039.78
0.122122
0.202042
0.329006
0.469946
0.616646
0.777287
0.950869
1.13838
1.34245
1.56497
1.80627
2.06971
2.36441
2.70503
3.10431
3.57308
4.1296
4.79179
5.58466
6.52565
7.63523
8.88211
10.2093
11.4975
12.384
12.7741
11.9666
10.4864
9.96197
10.598
11.7002
12.8415
14.0154
15.2582
16.6252
18.1497
19.9181
21.941
24.2933
26.9606
29.9437
33.2256
36.901
41.106
46.0104
51.772
58.5134
66.237
74.9235
84.7206
95.9261
108.707
122.812
137.442
151.84
166.625
183.167
201.994
223.33
247.485
273.722
299.671
318.776
322.773
310.138
283.656
259.183
243.099
237.62
251.906
288.501
354.537
456.204
592.538
747.477
879.914
977.824
1109.38
1029.35
0.13328
0.22491
0.357451
0.504972
0.658375
0.826751
1.00976
1.20792
1.42331
1.65754
1.91116
2.18869
2.50075
2.86272
3.2855
3.77886
4.3629
5.05682
5.88666
6.87286
8.03729
9.35105
10.7538
12.1122
13.0674
13.4836
12.6672
11.2229
10.7206
11.2693
12.2931
13.4007
14.5905
15.8809
17.3185
18.9297
20.7942
22.9167
25.366
28.1326
31.2188
34.6149
38.4218
42.7778
47.8545
53.814
60.785
68.7744
77.7693
87.9329
99.581
112.895
127.61
142.849
157.749
172.971
190.121
209.962
232.763
258.809
287.528
316.727
339.628
347.485
339.063
316.95
294.789
277.906
271.837
288.414
329.113
400.614
507.066
643.432
788.999
901.951
972.944
1086.69
1019.64
0.144159
0.247944
0.386658
0.541443
0.701875
0.877722
1.06983
1.27847
1.50521
1.75119
2.01709
2.30866
2.63823
3.02208
3.46869
3.98644
4.59729
5.32236
6.1882
7.21909
8.43774
9.81717
11.2942
12.7212
13.7419
14.1768
13.3559
11.9681
11.4783
11.9375
12.8885
13.9649
15.1685
16.504
18.0106
19.707
21.6647
23.8831
26.4248
29.285
32.4685
35.9731
39.905
44.4045
49.6446
55.792
62.9815
71.2245
80.5135
91.0259
103.095
116.919
132.222
148.056
163.457
179.112
196.852
217.677
241.896
269.83
301.12
333.756
360.739
372.778
368.925
351.703
332.583
315.646
309.322
328.392
372.977
449.078
558.564
692.492
826.045
918.916
970.717
1059.98
1012.1
0.154721
0.271031
0.416276
0.578964
0.746974
0.930293
1.13121
1.35009
1.58815
1.84591
2.12404
2.4296
2.77688
3.18318
3.6539
4.19578
4.83266
5.58814
6.48878
7.56363
8.83561
10.2791
11.8288
13.3219
14.4038
14.8491
14.0253
12.7072
12.2167
12.5942
13.4824
14.5319
15.7482
17.1278
18.7019
20.4822
22.5303
24.841
27.47
30.4181
33.6931
37.3004
41.3511
45.9864
51.3811
57.7062
65.1029
73.5871
83.1555
93.9978
106.464
120.771
136.636
153.052
168.955
185.045
203.36
225.127
250.706
280.522
314.462
350.7
382.029
398.541
399.561
387.659
372.205
356.034
349.803
371.452
419.559
499.21
609.889
739.091
858.587
931.465
971.044
1036.54
1005.67
0.164977
0.294189
0.446118
0.61718
0.793427
0.984467
1.19397
1.42289
1.67212
1.94167
2.23198
2.55151
2.91674
3.3461
3.84117
4.40686
5.06894
5.85385
6.78792
7.90572
9.22979
10.7353
12.3556
13.912
15.0498
15.4967
14.6703
13.4247
12.928
13.2334
14.0707
15.0987
16.3286
17.7525
19.3931
21.2561
23.3916
25.7905
28.5018
31.5321
34.8929
38.5974
42.7604
47.5238
53.0643
59.5568
67.1494
75.8622
85.6947
96.8474
109.685
124.444
140.843
157.821
174.229
190.762
209.639
232.298
259.176
290.864
327.515
367.499
403.412
424.655
430.796
424.552
413.242
398.659
392.927
417.082
468.217
550.25
660.277
782.731
886.844
940.595
971.551
1015.8
1000.58
0.174972
0.317524
0.476154
0.655852
0.840961
1.04015
1.25821
1.49696
1.75716
2.03842
2.34088
2.6744
3.05789
3.51097
4.03054
4.61964
5.30601
6.11914
7.08512
8.24449
9.61902
11.184
12.8723
14.4885
15.6764
16.117
15.2887
14.1096
13.6081
13.8521
14.6501
15.6622
16.9086
18.3778
20.0844
22.029
24.2493
26.732
29.5204
32.6272
36.0683
39.8644
44.1333
49.0173
54.6944
61.3443
69.1213
78.0499
88.1306
99.5732
112.756
127.934
144.83
162.347
179.261
196.252
215.676
239.173
267.288
300.837
340.242
384.088
424.794
450.991
462.455
462.116
455.262
442.974
438.261
464.687
518.249
601.434
709.044
823.065
911.104
947.208
971.077
998.102
995.326
0.184777
0.341186
0.506462
0.694881
0.889343
1.09716
1.32394
1.57236
1.84334
2.13615
2.4507
2.79825
3.20042
3.67793
4.22204
4.83404
5.54374
6.38362
7.37984
8.57894
10.0019
11.6231
13.3765
15.0487
16.281
16.7084
15.8801
14.758
14.2555
14.4499
15.2178
16.2201
17.4869
19.0034
20.7762
22.8015
25.1036
27.6656
30.526
33.7036
37.2198
41.102
45.4704
50.467
56.2719
63.0689
71.0189
80.1501
90.4631
102.174
115.674
131.234
148.587
166.612
184.031
201.494
221.453
245.733
275.027
310.425
352.607
400.403
446.076
477.411
494.356
500.098
497.889
488.394
485.28
513.629
568.947
652.041
755.616
859.908
931.744
952.095
969.248
983.519
988.272
0.194468
0.365328
0.537175
0.734275
0.938419
1.15533
1.39113
1.64913
1.93074
2.23485
2.56135
2.92305
3.34447
3.84714
4.41571
5.04994
5.78197
6.64689
7.67149
8.90798
10.3767
12.0506
13.8658
15.5895
16.8609
17.2703
16.4439
15.3711
14.8713
15.0272
15.7721
16.771
18.0631
19.6291
21.469
23.5737
25.9545
28.5912
31.5185
34.7615
38.3475
42.3105
46.7719
51.8734
57.7971
64.7311
72.8426
82.1633
92.6919
104.65
118.437
134.34
152.103
170.597
188.513
206.462
226.941
251.953
282.38
319.614
364.576
416.381
467.158
503.772
526.31
538.249
540.833
534.457
533.426
563.284
619.626
701.413
799.544
893.23
949.258
955.965
965.589
971.361
979.643
0.204116
0.390089
0.568424
0.774096
0.988136
1.21449
1.45971
1.72731
2.01941
2.33452
2.67279
3.04879
3.49018
4.01881
4.61157
5.26721
6.02046
6.90858
7.95939
9.23048
10.7416
12.4642
14.3374
16.1082
17.414
17.8029
16.9811
15.9518
15.4582
15.5844
16.312
17.3138
18.6367
20.2549
22.1627
24.3457
26.8021
29.5089
32.4982
35.8011
39.4519
43.4904
48.0384
53.2369
59.2706
66.3313
74.5929
84.0897
94.8173
107.001
121.045
137.249
155.371
174.288
192.682
211.124
232.109
257.807
289.333
328.393
376.121
431.966
487.939
529.928
558.12
576.302
583.856
580.854
582.193
613.098
669.656
748.978
840.506
923.13
964.186
959.364
960.37
961.26
970.101
0.213776
0.415589
0.600312
0.814435
1.03851
1.27455
1.52954
1.80688
2.10934
2.43516
2.78496
3.17547
3.63771
4.19314
4.80963
5.48564
6.25896
7.16822
8.24277
9.54516
11.0949
12.8616
14.7888
16.602
17.9384
18.3064
17.4938
16.5033
16.0184
16.1217
16.8372
17.8482
19.2077
20.8809
22.8574
25.1176
27.6466
30.4188
33.4648
36.8227
40.5334
44.6419
49.2701
54.5578
60.6926
67.8702
76.2703
85.9299
96.8398
109.227
123.498
139.96
158.383
177.67
196.51
215.442
236.919
263.267
295.873
336.752
387.22
447.107
508.326
555.744
589.59
613.966
626.697
627.324
631.134
662.574
718.475
794.261
878.299
949.803
977.065
962.663
954.69
952.599
960.89
0.223489
0.441932
0.632912
0.85538
1.08957
1.33545
1.60049
1.88782
2.20054
2.53676
2.89777
3.30308
3.78726
4.37039
5.00986
5.70501
6.49712
7.42529
8.52069
9.85058
11.4344
13.2403
15.2175
17.0684
18.4323
18.7813
17.9839
17.0291
16.5542
16.6394
17.3477
18.3744
19.7765
21.5073
23.5534
25.8899
28.488
31.3207
34.4184
37.8264
41.5921
45.7656
50.4674
55.8366
62.0639
69.3484
77.8756
87.6846
98.7602
111.33
125.797
142.473
161.14
180.733
199.976
219.38
241.331
268.306
301.987
344.682
397.858
461.762
528.241
581.101
620.533
650.932
669.03
673.542
679.792
711.232
765.588
836.894
912.83
973.534
988.447
965.913
949.294
945.273
951.122
0.233281
0.469209
0.666271
0.896989
1.14138
1.39719
1.67247
1.97004
2.29295
2.63924
3.01113
3.43161
3.93901
4.55078
5.2122
5.925
6.73448
7.67913
8.79204
10.1451
11.7579
13.598
15.6211
17.5051
18.8943
19.2277
18.4531
17.5324
17.0677
17.1378
17.8439
18.893
20.3432
22.1343
24.251
26.6627
29.3264
32.2144
35.3589
38.8125
42.6285
46.8617
51.6306
57.0736
63.3848
70.7665
79.4095
89.3546
100.579
113.31
127.946
144.792
163.642
183.474
203.064
222.909
245.314
272.903
307.662
352.176
408.025
475.9
547.619
605.896
650.792
686.906
710.509
719.116
727.666
758.582
810.561
876.605
944.107
994.658
998.807
969.168
945.446
939.786
941.938
0.243165
0.497506
0.700408
0.939287
1.19399
1.45977
1.74541
2.05342
2.38653
2.74249
3.12489
3.56105
4.0932
4.7345
5.41653
6.14522
6.97044
7.9289
9.0555
10.427
12.0632
13.9325
15.9976
17.9099
19.3233
19.645
18.9029
18.0157
17.5607
17.6175
18.3265
19.4049
20.9082
22.7622
24.9506
27.4363
30.1615
33.0998
36.2864
39.7811
43.6429
47.9305
52.7599
58.2693
64.6562
72.1256
80.873
90.941
102.299
115.172
129.948
146.924
165.899
185.902
205.774
226.018
248.853
277.05
312.891
359.224
417.713
489.5
566.414
630.05
680.236
721.632
750.83
763.668
774.267
804.154
853.028
913.216
972.223
1013.54
1008.58
972.592
943.236
935.91
935.131
0.253145
0.526902
0.735321
0.982278
1.24744
1.5232
1.81926
2.13784
2.48113
2.84632
3.23889
3.69141
4.25005
4.92167
5.62261
6.36513
7.2042
8.17356
9.30947
10.6942
12.3485
14.2422
16.3453
18.2813
19.7184
20.0329
19.3339
18.4805
18.0345
18.0793
18.7962
19.911
21.472
23.3916
25.6527
28.2106
30.9931
33.9765
37.2007
40.7324
44.6354
48.9722
53.8556
59.424
65.8786
73.4264
82.2672
92.445
103.921
116.917
131.81
148.876
167.924
188.033
208.12
228.717
251.957
280.756
317.676
365.82
426.914
502.548
584.594
653.499
708.767
754.88
789.706
806.89
819.178
847.546
892.702
946.632
997.341
1030.56
1018.05
976.364
942.79
934.735
933.901
0.263219
0.557472
0.770985
1.02594
1.30169
1.58745
1.89397
2.22315
2.5766
2.95053
3.3529
3.82264
4.40974
5.11228
5.83004
6.58404
7.43469
8.41179
9.55217
10.9449
12.6121
14.526
16.6633
18.618
20.0788
20.3908
19.7466
18.928
18.4901
18.5239
19.2538
20.4121
22.0349
24.0229
26.3575
28.9855
31.8209
34.8444
38.1018
41.6667
45.6063
49.9871
54.9179
60.5382
67.0528
74.6701
83.5935
93.8679
105.447
118.549
133.537
150.662
169.734
189.893
210.137
231.042
254.665
284.059
322.032
371.954
435.613
515.031
602.14
676.197
736.312
786.491
826.797
848.503
862.075
888.445
929.379
976.839
1019.68
1046.07
1027.41
980.606
944.375
935.508
936.472
0.273379
0.589281
0.807354
1.07023
1.35671
1.65247
1.96946
2.30923
2.67272
3.05484
3.46667
3.95472
4.57239
5.30602
6.03819
6.80099
7.66056
8.64199
9.78173
11.1775
12.853
14.7837
16.9512
18.919
20.4043
20.7181
20.1408
19.3587
18.928
18.9518
19.7001
20.9093
22.5975
24.6565
27.0651
29.7608
32.6444
35.7031
38.9899
42.5839
46.5557
50.9751
55.947
61.6124
68.1795
75.8578
84.8535
95.2114
106.879
120.072
135.136
152.293
171.353
191.52
211.875
233.055
257.046
287.022
325.993
377.624
443.791
526.929
619.04
698.103
762.812
816.417
861.786
888.188
902.696
926.625
962.933
1003.9
1039.5
1060.38
1036.8
985.096
946.442
936.619
940.271
0.28361
0.622378
0.844352
1.11507
1.41241
1.71816
2.04561
2.39591
2.76924
3.15889
3.57994
4.08766
4.73795
5.50222
6.24604
7.01478
7.88023
8.86239
9.99651
11.3909
13.0711
15.016
17.2093
19.1841
20.6947
21.0144
20.5159
19.7725
19.3484
19.3636
20.1358
21.4037
23.1604
25.2925
27.7753
30.5362
33.4632
36.5526
39.8648
43.4842
47.4838
51.9364
56.943
62.6471
69.2596
76.9909
86.0488
96.4772
108.219
121.491
136.618
153.786
172.806
192.955
213.396
234.836
259.189
289.73
329.611
382.83
451.419
538.212
635.283
719.186
788.207
844.689
894.51
925.632
940.833
961.943
993.314
1027.92
1057.07
1073.77
1046.34
989.886
948.37
937.799
944.676
0.29389
0.656789
0.881869
1.16037
1.46868
1.78437
2.12225
2.48298
2.86584
3.26221
3.69234
4.2214
4.90603
5.69966
6.45211
7.22403
8.09201
9.07122
10.1953
11.5848
13.2672
15.2242
17.4382
19.4132
20.9496
21.2798
20.8712
20.1692
19.7511
19.7596
20.5616
21.8964
23.7237
25.931
28.488
31.3112
34.2768
37.3925
40.7267
44.3676
48.3905
52.8709
57.9061
63.6427
70.2941
78.0705
87.1812
97.6674
109.472
122.812
137.992
155.156
174.122
194.243
214.765
236.471
261.194
292.276
332.947
387.582
458.463
548.837
650.855
739.425
812.436
871.352
924.936
960.582
976.331
994.325
1020.54
1049.09
1072.66
1086.42
1056.11
995.152
950.523
939.233
951.155
0.304187
0.692503
0.919752
1.20602
1.52532
1.85087
2.19917
2.57015
2.96202
3.36404
3.80337
4.35584
5.07583
5.89648
6.65453
7.42731
8.29442
9.26704
10.3777
11.7596
13.4426
15.4103
17.639
19.6066
21.1675
21.5159
21.206
20.5482
20.1358
20.1402
20.979
22.3882
24.2878
26.572
29.2027
32.0852
35.0849
38.2229
41.5756
45.2339
49.276
53.7786
58.8367
64.5998
71.2838
79.0981
88.2527
98.7844
110.639
124.036
139.266
156.419
175.327
195.426
216.046
238.043
263.151
294.743
336.058
391.889
464.885
558.751
665.731
758.814
835.44
896.434
953.062
992.85
1009.08
1023.76
1044.68
1067.62
1086.55
1098.47
1066.12
1000.84
952.738
940.623
958.907
0.314463
0.729457
0.957804
1.25186
1.58214
1.91739
2.27603
2.65692
3.05686
3.46317
3.91242
4.49088
5.24609
6.09017
6.8513
7.62344
8.48645
9.44903
10.544
11.9168
13.5995
15.5766
17.8125
19.7656
21.3466
21.7253
21.5194
20.9086
20.5017
20.5057
21.3897
22.8801
24.853
27.2152
29.9187
32.8575
35.8869
39.0437
42.4114
46.0829
50.14
54.6594
59.7347
65.5191
72.2298
80.0752
89.2656
99.8307
111.721
125.168
140.443
157.595
176.446
196.544
217.294
239.617
265.126
297.19
338.986
395.757
470.645
567.894
679.869
777.353
857.184
919.959
978.889
1022.28
1039
1050.28
1065.87
1083.74
1098.97
1110.01
1076.25
1006.58
954.169
941.618
968.124
0.324665
0.767522
0.995772
1.29771
1.63884
1.98358
2.3523
2.74227
3.1486
3.55778
4.01897
4.62647
5.41524
6.27796
7.04076
7.81178
8.66786
9.61724
10.6952
12.0581
13.7399
15.7251
17.9596
19.8914
21.4877
21.909
21.8105
21.2493
20.8477
20.8565
21.7958
23.3736
25.4198
27.8605
30.6353
33.6275
36.6826
39.8547
43.234
46.9145
50.9823
55.5131
60.6006
66.4011
73.1331
81.0035
90.2221
100.807
112.718
126.223
141.535
158.7
177.501
197.628
218.547
241.235
267.155
299.641
341.745
399.185
475.707
576.211
693.21
795.051
877.651
941.975
1002.45
1048.76
1066.02
1073.96
1084.27
1097.73
1110.16
1121.06
1086.35
1011.75
953.798
941.173
977.978
0.334734
0.80649
1.03334
1.34333
1.69506
2.04881
2.42686
2.82406
3.23419
3.64575
4.12242
4.76247
5.58182