/*--------------------------------*- C++ -*----------------------------------*\
| =========                 |                                                 |
| \\      /  F ield         | OpenFOAM: The Open Source CFD Toolbox           |
|  \\    /   O peration     | Version:  4.1                                   |
|   \\  /    A nd           | Web:      www.OpenFOAM.org                      |
|    \\/     M anipulation  |                                                 |
\*---------------------------------------------------------------------------*/
FoamFile
{
    version     2.0;
    format      ascii;
    class       surfaceScalarField;
    location    "16";
    object      phi;
}
// * * * * * * * * * * * * * * * * * * * * * * * * * * * * * * * * * * * * * //

dimensions      [0 3 -1 0 0 0 0];

internalField   nonuniform List<scalar> 
13220
(
-881.351
2181.25
-1361.64
1780.48
-1817.81
1756.08
-2161.05
1643.13
-2423.44
1562.59
-2605.85
1482.31
-2710.42
1404.47
-2737.22
1326.99
-2686.69
1249.37
-2562.42
1175.63
-2375.36
1113.14
-2117.07
1041.61
-1718.17
900.995
-1059.5
641.532
240.397
-30.931
2212.18
-103.695
1853.25
-261.956
1914.34
-390.561
1771.74
-523.313
1695.35
-639.044
1598.04
-739.386
1504.82
-822.842
1410.45
-892.887
1319.42
-943.53
1226.28
-925.59
1095.2
-742.83
858.853
-363.635
521.808
5.96697
271.948
246.363
-175.508
2387.7
-414.08
2091.83
-633.784
2134.05
-784.481
1922.45
-928.87
1839.74
-1037.66
1706.84
-1127.74
1594.9
-1200.8
1483.51
-1261.46
1380.09
-1300.21
1265.02
-1271.99
1066.98
-1099.71
686.549
-771.887
193.954
-427.838
-72.1431
-181.474
18.897
2368.83
-71.9717
2182.73
-113.874
2175.98
-121.513
1930.11
-129.286
1847.54
-115.349
1692.93
-89.2053
1568.79
-46.9252
1441.26
10.8427
1322.35
77.0052
1198.89
115.33
1028.67
59.2994
742.665
-86.8418
340.294
-126.857
-31.9142
-308.329
148.953
2219.91
129.957
2201.76
176.931
2129.04
233.53
1873.56
293.405
1787.7
356.686
1629.69
424.228
1501.28
496.05
1369.47
575.432
1242.99
654.804
1119.54
699.928
983.565
634.414
808.213
416.526
558.256
114.301
270.436
-194.026
138.342
2081.61
145.619
2194.53
188.915
2085.8
234.069
1828.45
282.428
1739.39
327.131
1585.04
372.213
1456.24
414.709
1327.01
456.177
1201.56
493.256
1082.5
513.35
963.492
485.891
835.707
374.758
669.433
193.197
452.117
-0.822269
81.6872
1999.96
130.414
2145.84
173.478
2042.77
219.954
1782.02
263.835
1695.55
309.748
1539.16
351.745
1414.28
389.374
1289.41
417.771
1173.19
438.297
1062.02
448.144
953.664
434.101
849.866
364.579
739.087
218.512
598.464
217.686
20.3487
1979.64
88.2547
2077.96
134.001
1997.05
176.782
1739.26
214.043
1658.3
264.251
1488.97
312.814
1365.72
378.114
1224.12
450.816
1100.5
517.165
995.644
553.021
917.82
536.438
866.332
442.151
833.266
269.739
770.717
487.427
-35.3769
2015.02
-14.5838
2057.17
5.67822
1976.79
2.92425
1742.02
3.98586
1657.25
14.5835
1478.38
49.6871
1330.63
144.701
1129.12
287.087
958.128
431.911
850.864
525.288
824.444
529.731
862.029
427.778
935.332
245.261
953.372
732.685
-34.755
2049.76
-142.968
2165.37
-194.242
2028.05
-274.319
1822.08
-349.034
1731.95
-424.016
1553.35
-471.454
1378.06
-460.781
1118.44
-393.651
890.983
-287.527
744.701
-152.684
689.598
-12.0425
721.223
81.0426
842.098
75.2101
959.036
807.896
82.7663
1966.95
-105.957
2354.06
-234.811
2156.86
-354.226
1941.45
-470.359
1848.04
-594.475
1677.42
-728.526
1512.07
-864.401
1254.27
-980.818
1007.36
-1040.04
803.895
-995.793
645.302
-805.7
531.179
-482.8
519.22
-157.236
633.497
650.657
274.733
1692.17
190.571
2438.18
53.2717
2294.11
-45.7797
2040.45
-114.645
1916.84
-196.502
1759.22
-299.549
1615.04
-453.96
1408.62
-636.571
1189.9
-808.492
975.738
-932.032
768.802
-955.233
554.208
-797.883
361.688
-410.886
246.246
239.769
472.469
1219.66
629.25
2281.37
584.604
2338.72
556.081
2068.95
597.457
1875.43
634.566
1722.08
650.963
1598.62
604.555
1455.01
498.781
1295.65
348.057
1126.44
167.53
949.301
-32.5214
754.236
-193.403
522.497
-196.642
249.357
43.1261
594.72
624.917
896.304
1979.77
928.757
2306.25
847.558
2150.13
795.822
1927.15
779.304
1738.59
790.132
1587.77
797.027
1448.1
782.363
1310.3
741.507
1167.28
669.467
1021.33
552.648
871.023
375.59
699.527
141.461
483.423
184.589
163.573
1000.48
1817.24
2451.46
2787.22
2923.99
2900.58
2773.41
2566.89
2305.19
1981.44
1586.99
1136.15
594.455
-0.00040895
66.8124
-66.8134
66.8119
66.8114
66.8109
82.9216
-16.1113
82.9211
82.9206
82.9201
99.2874
-16.3678
99.2869
99.2864
127.348
-28.0626
127.348
127.347
127.347
174.225
-46.879
174.225
174.224
236.434
-62.2103
236.433
236.433
236.432
302.137
-65.7047
302.136
302.136
302.135
367.237
-65.1028
367.237
367.237
428.251
-61.0151
428.251
428.25
428.25
483.699
-55.4502
483.699
483.698
530.032
-46.3347
530.032
530.031
530.031
574.521
-44.4903
574.52
574.52
574.519
621.888
-47.369
621.887
621.887
628.773
-6.88646
628.773
628.772
628.772
593.653
35.1179
593.653
593.652
593.652
512.552
81.0987
512.552
512.551
344.223
168.328
344.222
344.222
344.22
103.186
241.035
103.184
103.185
-753.262
856.445
-753.261
-753.262
-753.261
-2294.06
1540.8
-2294.06
-2294.06
-2294.06
-4381.73
2087.67
-4381.72
-4381.73
-6912.31
2530.59
-6912.32
-6912.32
-6770.5
-6627.21
-6477.02
-9152.98
2821.08
-9002.47
-8825.33
-8632.6
-8439.21
-8245.53
-8053.48
-7855.96
-7641.24
-10410.7
2978.98
-10190.1
-9970.04
-9750.99
-9514.73
-9277.22
-9039.21
-8801.17
-8561.23
-11297.8
2977.47
-11045
-10791.4
-10538.1
-10284.6
-10025.8
-9756.68
-9487.24
-9216.58
-8944.54
-11489
2805.91
-11207.1
-10923.2
-10638.5
-10353.5
-10068.3
-9771.74
-9469.12
-9166.25
-11351.9
2475.42
-11062.8
-10768.3
-10463.6
-10160.1
-9857.47
-9557.1
-9258.47
-8941.49
-10501.3
1866.34
-10204.3
-9911.26
-9621.56
-9319.51
-9014.26
-8713.93
-8417.38
-8125.25
-8902.41
1075.78
-8613.75
-8330.45
-8049.9
-7771.71
-7495.53
-7215.52
-6936.98
-6659.14
-6382.79
-6547.83
453.16
-6316.25
-6099.96
-5886.35
-5673.29
-5457.04
-5278.85
-5194.85
-5107.43
-5075.47
56.5661
-4999.07
-4917.41
-4917.41
-4650.61
-266.815
-3955.13
-695.476
-3955.13
-2956.15
-998.988
-2956.15
-1713.04
-1243.1
-429.193
-1283.85
-429.193
889.659
-1318.85
2372.17
-1482.52
2372.17
3777.14
-1404.97
3777.14
5029.17
-1252.02
6129.69
-1100.53
6129.69
7040.17
-910.477
7040.17
7777.17
-737.005
8299.52
-522.343
8299.52
8709.22
-409.705
8898.23
-189.011
8898.23
8987.72
-89.4895
8987.72
8974.31
13.4082
8720.44
253.87
8720.44
8390.32
330.121
8390.32
7992.28
398.04
7388.7
603.585
7388.7
6806.2
582.492
6063.68
742.528
6063.68
5345.47
718.205
5345.47
4661.43
684.042
3930.59
730.833
3930.59
3300.48
630.111
3300.48
2789.42
511.061
2380.78
408.643
2380.78
2216.54
164.239
2668.6
-452.061
2668.6
3677.72
-1009.12
3677.72
4383.74
-706.023
4849.9
-466.159
4849.9
4941.78
-91.8873
4941.78
4590.3
351.486
3959.68
630.615
3959.68
2817.01
1142.67
1333.78
1483.23
1333.78
-871.975
2205.76
-871.976
-4494.88
3622.9
-9613.27
5118.4
-9613.27
-16003.2
6389.91
-16003.2
-23971.3
7968.11
-32735.1
8763.76
-32735.1
-43287
10551.9
-54134.4
10847.4
-54134.4
-66408.5
12274.1
-66408.5
14168.3
306.44
-376.735
310.96
-375.825
315.952
-388.772
321.057
-411.825
326.271
-442.503
331.629
-480.85
337.167
-526.769
342.922
-580.653
348.921
-642.97
355.102
-713.837
361.238
-793.028
367.141
-878.124
372.87
-966.986
378.667
-1060.57
384.817
-1162.8
391.468
-1279.09
398.573
-1414.66
406.574
-1569.93
416.349
-1748.7
425.174
-1979.85
421.985
-2327.1
397.773
-2832.42
360.31
-3391.98
324.59
-3807.34
303.708
-3993.45
310.627
-4042.87
344.693
-4019.07
386.283
-3890.98
416.399
-3642.56
428.301
-3373.59
421.334
-3197.94
393.708
-3146.87
341.992
-3208.83
266.001
-3346.9
170.135
-3442.02
67.0361
-3380.41
-23.95
-3322.59
-98.1829
-3400.89
-161.644
-3505.52
-219.782
-3617.18
-278.458
-3768.08
-340.02
-3951.63
-404.792
-4158.29
-472.751
-4384.71
-545.299
-4644.92
-626.457
-4956.39
-723.405
-5320.82
-841.014
-5720.98
-973.552
-6165.79
-1105.26
-6726.27
-1222.27
-7481.27
-1320.29
-8444.16
-1401.17
-9569.5
-1470.87
-10791.5
-1543.69
-12023.7
-1641.98
-13150.8
-1782.82
-14047.2
-1959.5
-14600.2
-2134.23
-14767.6
-2253.73
-14714.9
-2284.08
-14800.6
-2235.39
-15248.4
-2150.82
-15876.7
-2078.27
-16125.6
-2052.9
-15015.2
-2086.6
-11391.3
-2201.35
-6121.19
-2428.92
-2812.33
-2691.36
-1735.03
-2888
-434.673
-3086.61
1188.15
-3430.72
3005.29
-3996.71
5481.42
-4861.43
9128.62
-6157.11
14810.7
-8050.98
23803.7
-10683.1
37762.5
-13648.9
57290.1
76798.6
321.203
-378.852
325.222
-379.844
329.656
-393.206
334.236
-416.405
338.968
-447.235
343.872
-485.754
348.995
-531.891
354.395
-586.053
360.102
-648.676
366.037
-719.772
371.947
-798.938
377.635
-883.812
383.16
-972.511
388.728
-1066.14
394.548
-1168.62
400.707
-1285.25
407.135
-1421.08
414.13
-1576.93
422.378
-1756.95
429.879
-1987.35
427.359
-2324.58
405.873
-2810.94
370.83
-3356.93
335.34
-3771.85
313.781
-3971.89
322.493
-4051.58
360.437
-4057.01
403.963
-3934.5
432.186
-3670.79
439.012
-3380.41
424.755
-3183.68
388.508
-3110.62
328.563
-3148.89
246.62
-3264.95
147.396
-3342.8
44.5789
-3277.59
-42.4832
-3235.53
-113.419
-3329.95
-176.205
-3442.74
-235.201
-3558.18
-295.451
-3707.83
-358.993
-3888.08
-426.236
-4091.05
-497.357
-4313.59
-573.823
-4568.45
-659.599
-4870.62
-761.609
-5218.81
-883.931
-5598.65
-1019.82
-6029.91
-1153.81
-6592.27
-1273.8
-7361.29
-1376.6
-8341.36
-1464
-9482.1
-1542.79
-10712.8
-1630.16
-11936.3
-1751.25
-13029.7
-1921.3
-13877.2
-2124.26
-14397.2
-2310.07
-14581.8
-2420.78
-14604.2
-2431.12
-14790.2
-2365.32
-15314.2
-2274.39
-15967.6
-2205.61
-16194.4
-2189.15
-15031.7
-2220.89
-11359.6
-2282.73
-6059.35
-2411.41
-2683.65
-2621.05
-1525.38
-2864.15
-191.573
-3140.85
1464.85
-3536.81
3401.25
-4142.54
6087.14
-5050.1
10036.2
-6404.3
16164.9
-8403.98
25803.4
-11154.7
40513.2
-13865.7
60001.1
75207.1
329.466
-380.936
333.171
-383.548
337.307
-397.343
341.608
-420.706
346.071
-451.698
350.717
-490.401
355.621
-536.795
360.85
-591.283
366.416
-654.242
372.219
-725.574
378.02
-804.74
383.646
-889.438
389.128
-977.993
394.611
-1071.62
400.233
-1174.24
406.038
-1291.06
411.972
-1427.02
418.286
-1583.24
425.564
-1764.23
432.184
-1993.97
430.08
-2322.48
410.649
-2791.5
377.762
-3324.05
342.903
-3736.99
321.02
-3950.01
330.669
-4061.23
370.501
-4096.84
414.394
-3978.4
440.571
-3696.96
443.329
-3383.17
423.605
-3163.96
381.161
-3068.18
315.656
-3083.38
230.149
-3179.45
129.414
-3242.06
27.6461
-3175.82
-56.6057
-3151.28
-125.798
-3260.76
-188.427
-3380.11
-248.154
-3498.45
-309.58
-3646.4
-374.59
-3823.07
-443.679
-4021.96
-517.174
-4240.1
-596.647
-4488.98
-686.125
-4781.14
-792.182
-5112.75
-917.892
-5472.94
-1055.57
-5892.23
-1190.29
-6457.55
-1311.43
-7240.15
-1416.49
-8236.3
-1507.39
-9391.2
-1592.04
-10628.1
-1689.74
-11838.6
-1826.47
-12893
-2013.89
-13689.8
-2227.85
-14183.2
-2411.84
-14397.8
-2510.54
-14505.5
-2508.87
-14791.9
-2439.03
-15384
-2352.64
-16054
-2293.35
-16253.6
-2286.55
-15038.5
-2324.12
-11322
-2388.02
-5995.45
-2512.91
-2558.77
-2706.73
-1331.56
-2938.98
40.6779
-3239.11
1764.98
-3676.57
3838.71
-4322.76
6733.33
-5283.04
10996.5
-6730.56
17612.5
-8899.61
27972.4
-11741.5
43355.1
-13806
62065.6
72248.4
338.858
-382.992
342.287
-386.977
346.141
-401.197
350.167
-424.732
354.37
-455.9
358.78
-494.812
363.49
-541.505
368.568
-596.361
373.996
-659.671
379.66
-731.237
385.335
-810.416
390.863
-894.966
396.253
-983.383
401.599
-1076.97
406.974
-1179.62
412.392
-1296.47
417.801
-1432.43
423.4
-1588.84
429.692
-1770.52
435.42
-1999.7
433.619
-2320.68
416.039
-2773.92
385.133
-3293.14
350.768
-3702.63
328.612
-3927.85
339.625
-4072.24
381.786
-4139
425.998
-4022.61
449.519
-3720.48
447.231
-3380.88
420.877
-3137.6
371.091
-3018.39
299.27
-3011.56
210.105
-3090.28
108.248
-3140.2
8.37648
-3075.95
-72.2214
-3070.68
-139.153
-3193.83
-201.253
-3318.01
-261.476
-3438.23
-323.956
-3583.92
-390.394
-3756.63
-461.299
-3951.06
-537.107
-4164.29
-619.494
-4406.59
-712.543
-4688.09
-822.484
-5002.81
-951.51
-5343.92
-1091.26
-5752.48
-1227.41
-6321.4
-1350.63
-7116.93
-1458.96
-8127.98
-1554.46
-9295.69
-1646.17
-10536.4
-1755.53
-11729.3
-1909.27
-12739.2
-2115.1
-13483.9
-2340.58
-13957.8
-2523.58
-14214.8
-2612.3
-14416.8
-2601.18
-14803
-2529.13
-15456.1
-2448.57
-16134.5
-2400.37
-16301.8
-2403.45
-15035.4
-2440.4
-11285.1
-2492.36
-5943.49
-2607.71
-2443.42
-2801.31
-1137.96
-3041.35
280.72
-3363.87
2087.5
-3835.28
4310.12
-4524.05
7422.1
-5554.59
12027
-7134.49
19192.3
-9480.56
30318.5
-12287.9
46162.5
-13711.2
63488.9
69089.1
347.678
-385.009
350.857
-390.156
354.45
-404.79
358.237
-428.519
362.238
-459.901
366.489
-499.063
371.077
-546.093
376.052
-601.335
381.37
-664.988
386.908
-736.776
392.466
-815.974
397.906
-900.406
403.208
-988.686
408.412
-1082.17
413.534
-1184.74
418.568
-1301.51
423.468
-1437.33
428.392
-1593.77
433.769
-1775.89
438.599
-2004.53
436.884
-2318.96
420.871
-2757.91
391.864
-3264.13
358.123
-3668.88
335.927
-3905.66
348.389
-4084.71
392.508
-4183.12
436.314
-4066.42
456.376
-3740.55
448.263
-3372.77
414.555
-3103.9
356.996
-2960.84
279.113
-2933.68
187.224
-2998.39
85.427
-3038.41
-11.4514
-2979.07
-88.0111
-2994.12
-152.725
-3129.11
-214.215
-3256.52
-274.809
-3377.64
-338.207
-3520.52
-405.944
-3688.9
-478.532
-3878.47
-556.498
-4086.32
-641.626
-4321.46
-738.055
-4591.66
-851.63
-4889.23
-983.658
-5211.89
-1125.26
-5610.87
-1262.84
-6183.82
-1388.27
-6991.5
-1499.99
-8016.25
-1600.23
-9195.46
-1699.17
-10437.4
-1820.19
-11608.3
-1990.16
-12569.2
-2212.14
-13262
-2445.89
-13724
-2625.8
-14034.9
-2705.42
-14337.2
-2688.23
-14820.2
-2618.02
-15526.3
-2546.91
-16205.7
-2512.63
-16336.1
-2526.54
-15021.5
-2560.86
-11250.7
-2598.37
-5905.99
-2705.09
-2336.7
-2901.97
-941.081
-3154.5
533.254
-3500.15
2433.14
-4004.64
4814.62
-4744.56
8162.02
-5870.78
13153.2
-7612.74
20934.3
-10101.6
32807.3
-12725
48785.9
-13327.1
64091
64525.8
356.317
-386.991
359.284
-393.122
362.652
-408.158
366.245
-432.112
370.101
-463.757
374.256
-503.218
378.771
-550.608
383.667
-606.23
388.882
-670.204
394.304
-742.197
399.756
-821.426
405.109
-905.759
410.315
-993.891
415.356
-1087.21
420.211
-1189.6
424.858
-1306.15
429.258
-1441.73
433.539
-1598.05
438.074
-1780.43
442.054
-2008.51
440.278
-2317.18
425.513
-2743.15
398.147
-3236.77
364.962
-3635.7
342.859
-3883.55
356.849
-4098.7
402.579
-4228.85
445.263
-4109.1
460.993
-3756.28
446.119
-3357.9
404.172
-3061.95
338.39
-2895.05
254.938
-2850.23
161.517
-2904.97
61.0475
-2937.94
-31.8191
-2886.21
-104.041
-2921.9
-166.539
-3066.61
-227.281
-3195.78
-288.097
-3316.82
-352.272
-3456.35
-421.186
-3619.98
-495.329
-3804.33
-575.299
-4006.35
-662.993
-4233.77
-762.596
-4492.06
-879.55
-4772.28
-1014.34
-5077.1
-1157.75
-5467.46
-1297.01
-6044.56
-1425.02
-6863.49
-1540.51
-7900.77
-1645.84
-9090.12
-1752.34
-10330.9
-1884.99
-11475.6
-2070.28
-12383.9
-2306.35
-13025.9
-2546.25
-13484.1
-2722.88
-13858.2
-2795.96
-14264.1
-2776.46
-14839.7
-2711.26
-15591.5
-2651.88
-16265
-2633.31
-16354.7
-2658.84
-14996
-2688.97
-11220.6
-2708.55
-5886.41
-2805.14
-2240.12
-3006.79
-739.428
-3273.71
800.175
-3643.68
2803.11
-4185.39
5356.33
-4991.51
8968.13
-6239.73
14401.5
-8150.74
22845.3
-10705.5
35362.1
-12992.3
51072.7
-12783.8
63882.4
59710.1
364.693
-388.941
367.488
-395.916
370.676
-411.347
374.131
-435.566
377.904
-467.53
382.016
-507.33
386.492
-555.084
391.322
-611.061
396.445
-675.326
401.762
-747.514
407.12
-826.784
412.39
-911.029
417.486
-998.987
422.348
-1092.07
426.926
-1194.17
431.195
-1310.42
435.114
-1445.65
438.788
-1601.72
442.539
-1784.18
445.68
-2011.65
443.684
-2315.19
429.867
-2729.33
403.888
-3210.79
371.178
-3602.99
349.272
-3861.65
364.73
-4114.15
411.464
-4275.59
452.059
-4149.69
462.393
-3766.61
439.692
-3335.2
388.61
-3010.87
314.419
-2820.86
226.472
-2762.28
133.183
-2811.68
35.4648
-2840.22
-52.4466
-2798.3
-120.17
-2854.17
-180.504
-3006.28
-240.407
-3135.88
-301.333
-3255.89
-366.163
-3391.52
-436.134
-3550.01
-511.708
-3728.75
-593.541
-3924.52
-683.645
-4143.67
-786.24
-4389.46
-906.339
-4652.18
-1043.65
-4939.79
-1188.8
-5322.31
-1329.9
-5903.46
-1460.77
-6732.62
-1580.31
-7781.23
-1691.05
-8979.38
-1805.33
-10216.7
-1949.33
-11331.6
-2148.58
-12184.7
-2396.36
-12778.1
-2640.38
-13240.1
-2814.05
-13684.6
-2883.39
-14194.8
-2865.17
-14857.9
-2807.9
-15648.7
-2762.4
-16310.5
-2761.31
-16355.8
-2799.7
-14957.6
-2825.78
-11194.5
-2825.56
-5886.63
-2908.82
-2156.86
-3114.16
-534.089
-3397.84
1083.86
-3796.48
3201.75
-4385.02
5944.87
-5277.03
9860.14
-6667.25
15791.7
-8728.9
24907
-11255.1
37888.2
-13093.1
52910.7
-12050.9
62840.2
54049.2
372.832
-390.872
375.507
-398.592
378.582
-414.422
381.964
-438.948
385.707
-471.273
389.808
-511.432
394.26
-559.536
399.033
-615.834
404.073
-680.366
409.302
-752.743
414.576
-832.058
419.758
-916.211
424.728
-1003.96
429.394
-1096.74
433.694
-1198.47
437.597
-1314.33
441.058
-1449.11
444.167
-1604.83
447.196
-1787.21
449.521
-2013.98
447.165
-2312.83
433.985
-2716.15
409.068
-3185.87
376.659
-3570.58
354.975
-3839.96
371.687
-4130.87
418.582
-4322.48
455.899
-4187.01
459.597
-3770.31
427.885
-3303.49
366.847
-2949.83
284.509
-2738.52
193.857
-2671.63
102.723
-2720.55
9.12396
-2746.62
-73.1013
-2716.07
-136.31
-2790.96
-194.544
-2948.05
-253.534
-3076.89
-314.468
-3194.96
-379.832
-3326.15
-450.736
-3479.11
-527.61
-3651.88
-611.16
-3840.97
-703.51
-4051.32
-808.902
-4284.07
-931.907
-4529.18
-1071.53
-4800.17
-1218.38
-5175.45
-1361.52
-5760.32
-1495.55
-6598.59
-1619.47
-7657.31
-1735.97
-8862.88
-1858.17
-10094.5
-2013.02
-11176.8
-2224.54
-11973.2
-2481.47
-12521.2
-2727.93
-12993.6
-2899.49
-13513
-2968.21
-14126
-2954.82
-14871.3
-2908.22
-15695.3
-2878.57
-16340.2
-2896.55
-16337.8
-2949.27
-14904.9
-2972.76
-11171
-2952.72
-5906.68
-3020.51
-2089.06
-3228.68
-325.919
-3531.33
1386.51
-3964.76
3635.19
-4613.67
6593.77
-5611.25
10857.7
-7150.71
17331.1
-9320.83
27077.1
-11716.3
40283.7
-13016.1
54210.6
-11176.3
61000.4
47991.2
380.763
-392.797
383.379
-401.208
386.415
-417.457
389.786
-442.319
393.534
-475.02
397.635
-515.533
402.064
-563.965
406.787
-620.557
411.761
-685.34
416.918
-757.9
422.115
-837.255
427.2
-921.296
432.025
-1008.78
436.482
-1101.2
440.509
-1202.5
444.067
-1317.88
447.099
-1452.14
449.685
-1607.42
452.044
-1789.57
453.563
-2015.49
450.714
-2309.98
437.875
-2703.31
413.666
-3161.66
381.321
-3538.24
359.785
-3818.43
377.329
-4148.41
423.228
-4368.38
455.786
-4219.57
451.395
-3765.92
409.411
-3261.5
337.822
-2878.24
248.322
-2649.02
157.58
-2580.89
70.8257
-2633.8
-17.4764
-2658.32
-93.5439
-2640
-152.384
-2732.12
-208.586
-2891.84
-266.617
-3018.86
-327.478
-3134.1
-393.265
-3260.37
-464.978
-3407.4
-543.022
-3573.83
-628.144
-3755.85
-722.579
-3956.88
-830.575
-4176.08
-956.251
-4403.5
-1097.98
-4658.44
-1246.52
-5026.91
-1391.87
-5614.97
-1529.35
-6461.11
-1658
-7528.66
-1780.59
-8740.29
-1910.81
-9964.25
-2075.79
-11011.8
-2297.62
-11751.4
-2561.08
-12257.7
-2808.54
-12746.2
-2979.13
-13342.4
-3050.3
-14054.9
-3045.1
-14876.5
-3011.81
-15728.6
-2999.93
-16352.1
-3038.52
-16299.2
-3107.43
-14836
-3131.34
-11147.1
-3094.11
-5943.91
-3145.9
-2037.27
-3356.13
-115.693
-3680.74
1711.11
-4157.31
4111.76
-4881.33
7317.79
-5998.76
11975.2
-7677.96
19010.3
-9896.22
29295.4
-12064.9
42452.3
-12775.7
54921.4
-10184.9
58409.6
41429.3
388.541
-394.729
391.159
-403.826
394.224
-420.523
397.629
-445.725
401.395
-478.786
405.494
-519.632
409.902
-568.372
414.588
-625.243
419.514
-690.266
424.612
-762.999
429.73
-842.373
434.703
-926.269
439.365
-1013.44
443.609
-1105.44
447.374
-1206.27
450.611
-1321.12
453.248
-1454.78
455.354
-1609.52
457.089
-1791.3
457.81
-2016.22
454.35
-2306.53
441.563
-2690.53
417.673
-3137.77
385.086
-3505.65
363.503
-3796.84
381.2
-4166.11
424.582
-4411.76
450.571
-4245.56
436.439
-3751.78
382.952
-3208.01
300.701
-2795.99
206.068
-2554.39
118.635
-2493.46
38.3598
-2553.52
-43.8012
-2576.16
-113.527
-2570.28
-168.313
-2677.34
-222.564
-2837.59
-279.61
-2961.81
-340.33
-3073.38
-406.438
-3194.26
-478.833
-3335
-557.914
-3494.75
-644.462
-3669.3
-740.816
-3860.52
-851.206
-4065.69
-979.31
-4275.4
-1122.96
-4514.79
-1273.17
-4876.71
-1420.92
-5467.22
-1562.16
-6319.87
-1695.91
-7394.91
-1824.95
-8611.25
-1963.22
-9825.98
-2137.43
-10837.6
-2367.41
-11521.4
-2634.82
-11990.3
-2882.08
-12498.9
-3052.9
-13171.6
-3129.4
-13978.4
-3135.52
-14870.4
-3118.13
-15746
-3125.94
-16344.3
-3186.7
-16238.5
-3273.93
-14748.7
-3302.54
-11118.5
-3253.26
-5993.19
-3290.95
-1999.58
-3503.7
97.0607
-3854.24
2061.65
-4383.24
4640.76
-5195.26
8129.81
-6437.28
13217.2
-8230.03
20803.1
-10426.6
31491.9
-12288.3
44314.1
-12390.1
55023.2
-9122.01
55141.5
34513
396.249
-396.678
398.909
-406.486
402.044
-423.657
405.501
-449.182
409.285
-482.57
413.379
-523.726
417.772
-572.765
422.438
-629.909
427.333
-695.161
432.377
-768.043
437.409
-847.405
442.253
-931.113
446.742
-1017.93
450.773
-1109.47
454.294
-1209.79
457.24
-1324.07
459.519
-1457.06
461.186
-1611.19
462.331
-1792.45
462.255
-2016.14
458.076
-2302.35
445.068
-2677.52
421.091
-3113.79
387.894
-3472.45
365.934
-3774.88
382.801
-4182.97
421.732
-4450.69
438.981
-4262.81
413.3
-3726.1
347.318
-3142.03
255.15
-2703.82
158.738
-2457.98
78.4762
-2413.19
6.18891
-2481.23
-69.4796
-2500.49
-132.915
-2506.84
-184.031
-2626.22
-236.416
-2785.21
-292.472
-2905.75
-352.999
-3012.85
-419.332
-3127.93
-492.286
-3262.05
-572.269
-3414.77
-660.096
-3581.47
-758.196
-3762.43
-870.757
-3953.12
-1001.03
-4145.12
-1146.43
-4369.39
-1298.31
-4724.83
-1448.64
-5316.89
-1593.94
-6174.57
-1733.2
-7255.66
-1869.07
-8475.38
-2015.36
-9679.69
-2197.79
-10655.1
-2433.68
-11285.5
-2702.56
-11721.4
-2948.6
-12252.9
-3120.81
-12999.4
-3205.19
-13894
-3225.44
-14850.2
-3226.43
-15745
-3255.89
-16314.8
-3340.36
-16154
-3448.33
-14640.8
-3486.93
-11079.9
-3432.91
-6047.21
-3460.44
-1972.05
-3677.74
314.359
-4059.49
2443.41
-4649.84
5231.1
-5557.94
9037.91
-6917.85
14577.1
-8784.52
22669.8
-10887.4
33594.8
-12376.5
45803.1
-11860.9
54507.7
-8059.04
51339.6
27937.2
403.98
-398.64
406.685
-409.191
409.887
-426.859
413.392
-452.687
417.193
-486.371
421.288
-527.82
425.68
-577.158
430.343
-634.572
435.215
-700.033
440.202
-773.03
445.135
-852.339
449.839
-935.818
454.15
-1022.24
457.978
-1113.3
461.277
-1213.09
463.964
-1326.75
465.923
-1459.02
467.189
-1612.46
467.773
-1793.03
466.897
-2015.26
461.902
-2297.35
448.41
-2664.03
423.924
-3089.31
389.694
-3438.22
366.885
-3752.07
381.606
-4197.69
413.706
-4482.79
419.708
-4268.81
380.638
-3687.03
301.72
-3063.11
201.721
-2603.82
108.289
-2364.55
38.8849
-2343.79
-24.9019
-2417.45
-94.2229
-2431.17
-151.637
-2449.43
-199.476
-2578.38
-250.086
-2734.6
-305.167
-2850.67
-365.459
-2952.56
-431.928
-3061.46
-505.317
-3188.66
-586.068
-3334.02
-675.027
-3492.52
-774.688
-3662.76
-889.178
-3838.63
-1021.36
-4012.94
-1168.33
-4222.43
-1321.88
-4571.27
-1474.98
-5163.79
-1624.68
-6024.87
-1769.85
-7110.48
-1912.95
-8332.28
-2067.23
-9525.41
-2256.79
-10465.6
-2496.35
-11045.9
-2764.4
-11453.4
-3008.4
-12008.9
-3183.04
-12824.7
-3277.46
-13799.6
-3314.29
-14813.3
-3335.98
-15723.3
-3388.95
-16261.8
-3498.67
-16044.3
-3629.93
-14509.5
-3684.44
-11025.4
-3634.51
-6097.13
-3658.03
-1948.53
-3883.74
540.065
-4302.4
2862.07
-4960.82
5889.52
-5966.31
10043.4
-7426.15
16036.9
-9318.23
24561.8
-11258.3
35534.9
-12322.9
46867.7
-11201.2
53386
-7009.73
47148.1
22070.1
411.816
-400.589
414.52
-411.895
417.752
-430.091
421.292
-456.226
425.115
-490.194
429.227
-531.932
433.635
-581.566
438.303
-639.241
443.153
-704.882
448.072
-777.949
452.896
-857.163
457.454
-940.376
461.592
-1026.38
465.231
-1116.94
468.333
-1216.19
470.795
-1329.22
472.474
-1460.69
473.374
-1613.36
473.413
-1793.07
471.729
-2013.58
465.83
-2291.45
451.606
-2649.8
426.18
-3063.88
390.451
-3402.49
366.175
-3727.8
377.084
-4208.6
399.553
-4505.26
391.563
-4260.82
337.44
-3632.91
246.128
-2971.8
142.187
-2499.88
57.5687
-2279.93
1.59789
-2287.82
-54.3635
-2361.49
-117.786
-2367.74
-169.654
-2397.56
-214.599
-2533.44
-263.528
-2685.67
-317.662
-2796.54
-377.687
-2892.53
-444.21
-2994.93
-517.913
-3114.96
-599.299
-3252.63
-689.24
-3402.57
-790.268
-3561.74
-906.422
-3722.48
-1040.22
-3879.13
-1188.59
-4074.07
-1343.84
-4416.01
-1499.91
-5007.72
-1654.32
-5870.46
-1805.86
-6958.95
-1956.6
-8181.53
-2118.85
-9363.16
-2314.45
-10270
-2555.51
-10804.9
-2820.66
-11188.2
-3061.98
-11767.5
-3240
-12646.7
-3346.21
-13693.4
-3401.66
-14757.9
-3446.07
-15678.9
-3524.24
-16183.7
-3660.61
-15907.9
-3817.74
-14352.4
-3894.36
-10948.8
-3858.34
-6133.16
-3886.24
-1920.63
-4125.61
779.439
-4585.96
3322.42
-5315.57
6619.13
-6412.13
11140
-7944.47
17569.3
-9808.93
26426.3
-11523.8
37249.8
-12130.1
47474.1
-10446.1
51701.9
-5983.99
42686
16716.7
419.799
-402.489
422.43
-414.526
425.643
-433.305
429.204
-459.787
433.059
-494.05
437.204
-536.076
441.638
-586
446.313
-643.916
451.131
-709.7
455.972
-782.789
460.679
-861.87
465.093
-944.79
469.071
-1030.36
472.543
-1120.41
475.473
-1219.12
477.747
-1331.49
479.184
-1462.13
479.748
-1613.92
479.254
-1792.58
476.75
-2011.08
469.866
-2284.57
454.666
-2634.6
427.867
-3037.08
390.14
-3364.77
363.637
-3701.3
368.743
-4213.71
378.465
-4514.98
353.703
-4236.06
283.397
-3562.61
181.71
-2870.11
79.7013
-2397.87
9.85623
-2210.08
-32.1709
-2245.79
-82.0639
-2311.59
-140.061
-2309.75
-186.952
-2350.67
-229.356
-2491.03
-276.702
-2638.32
-329.929
-2743.31
-389.662
-2832.8
-456.163
-2928.43
-530.062
-3041.06
-611.951
-3170.74
-702.724
-3311.8
-804.912
-3459.55
-922.444
-3604.95
-1057.57
-3744.01
-1207.15
-3924.48
-1364.15
-4259.01
-1523.38
-4848.5
-1682.83
-5711.01
-1841.19
-6800.59
-2000.04
-8022.68
-2170.27
-9192.94
-2370.88
-10069.4
-2611.44
-10564.3
-2871.87
-10927.8
-3110.04
-11529.4
-3292.25
-12464.5
-3411.66
-13573.9
-3487.34
-14682.2
-3556.11
-15610.2
-3660.85
-16078.9
-3825.06
-15743.7
-4010.51
-14166.9
-4115.29
-10844
-4103.24
-6145.2
-4145.34
-1878.53
-4404.41
1038.51
-4909.57
3827.58
-5709.04
7418.59
-6882.99
12313.9
-8453.49
19139.8
-10236.9
28209.8
-11674.2
38687
-11807.3
47607.1
-9617.4
49512
-4995.49
38064.1
12072.7
427.942
-404.318
430.441
-417.025
433.583
-436.446
437.145
-463.349
441.038
-497.944
445.225
-540.264
449.687
-590.462
454.36
-648.588
459.134
-714.475
463.888
-787.544
468.479
-866.46
472.759
-949.069
476.595
-1034.2
479.925
-1123.74
482.713
-1221.91
484.831
-1333.61
486.065
-1463.37
486.32
-1614.17
485.298
-1791.56
481.958
-2007.74
474.009
-2276.62
457.596
-2618.19
428.991
-3008.48
388.747
-3324.52
359.125
-3671.67
356.183
-4210.77
349.935
-4508.74
305.927
-4192.05
219.373
-3476.05
111.301
-2762.04
18.6754
-2305.25
-32.0015
-2159.41
-62.0778
-2215.72
-108.05
-2265.62
-161.015
-2256.78
-203.534
-2308.15
-243.711
-2450.86
-289.576
-2592.46
-341.946
-2690.94
-401.367
-2773.38
-467.771
-2862.03
-541.756
-2967.07
-624.017
-3088.48
-715.469
-3220.35
-818.601
-3356.42
-937.209
-3486.34
-1073.34
-3607.88
-1224
-3773.83
-1382.79
-4100.22
-1545.36
-4685.93
-1710.16
-5546.21
-1875.8
-6634.96
-2043.27
-7855.21
-2221.56
-9014.64
-2426.31
-9864.63
-2664.58
-10326
-2918.74
-10673.6
-3153.38
-11294.7
-3340.44
-12277.5
-3474.1
-13440.3
-3571.18
-14585.1
-3665.51
-15515.8
-3797.84
-15946.6
-3990.8
-15550.7
-4206.73
-13951
-4345.2
-10705.5
-4366.7
-6123.7
-4433.1
-1812.13
-4717.91
1323.31
-5268.98
4378.65
-6132.25
8281.86
-7363.72
13545.4
-8934.11
20710.2
-10586.3
29861.9
-11706.1
39806.9
-11369.8
47270.8
-8745.09
46887.3
-4044.13
33363.1
7936.72
436.238
-406.088
438.583
-419.371
441.606
-439.469
445.141
-466.884
449.063
-501.865
453.29
-544.49
457.771
-594.943
462.426
-653.244
467.145
-719.194
471.812
-792.211
476.295
-870.943
480.457
-953.232
484.175
-1037.91
487.389
-1126.95
490.063
-1224.58
492.058
-1335.6
493.126
-1464.43
493.096
-1614.14
491.55
-1790.01
487.354
-2003.54
478.258
-2267.52
460.396
-2600.33
429.561
-2977.64
386.273
-3281.24
352.528
-3637.93
339.187
-4197.43
313.979
-4483.53
249.061
-4127.13
147.922
-3374.91
39.6705
-2653.79
-36.0038
-2229.57
-66.5429
-2128.87
-88.7045
-2193.55
-132.412
-2221.91
-180.663
-2208.53
-219.412
-2269.4
-257.634
-2412.63
-302.122
-2547.97
-353.694
-2639.37
-412.783
-2714.29
-479.023
-2795.79
-552.985
-2893.11
-635.491
-3005.98
-727.467
-3128.37
-831.32
-3252.56
-950.693
-3366.97
-1087.53
-3471.04
-1239.1
-3622.26
-1399.75
-3939.57
-1565.85
-4519.82
-1736.26
-5375.8
-1909.62
-6461.59
-2086.26
-7678.57
-2272.85
-8828.05
-2481.06
-9656.42
-2715.57
-10091.5
-2962.08
-10427.1
-3192.84
-11064
-3385.2
-12085.1
-3533.83
-13291.6
-3653.04
-14465.9
-3773.7
-15395.2
-3934.26
-15786
-4156.54
-15328.4
-4404.63
-13702.9
-4581.45
-10528.7
-4644.87
-6060.28
-4744.92
-1712.08
-5060.77
1639.17
-5656.54
4974.41
-6573.24
9198.56
-7837.86
14810
-9368.78
22241.1
-10845.2
31338.3
-11621.4
40583.2
-10836.4
46485.8
-7854.4
43905.4
-3138.89
28647.6
4331.68
444.657
-407.827
446.869
-421.583
449.746
-442.346
453.216
-470.354
457.141
-505.79
461.389
-548.738
465.872
-599.425
470.495
-657.867
475.154
-723.853
479.742
-796.799
484.134
-875.335
488.2
-957.298
491.822
-1041.54
494.946
-1130.08
497.536
-1227.17
499.44
-1337.51
500.373
-1465.37
500.082
-1613.85
498.015
-1787.94
492.939
-1998.46
482.609
-2257.19
463.059
-2580.78
429.579
-2944.16
382.731
-3234.39
343.794
-3598.99
317.821
-4171.45
271.376
-4437.08
185.339
-4041.1
73.5726
-3263.15
-27.0431
-2553.18
-80.699
-2175.92
-94.1626
-2115.4
-112.944
-2174.77
-155.21
-2179.65
-199.062
-2164.68
-234.605
-2233.86
-271.101
-2376.14
-314.322
-2504.75
-365.158
-2588.53
-423.896
-2655.55
-489.906
-2729.78
-563.744
-2819.27
-646.369
-2923.35
-738.712
-3036.03
-843.059
-3148.22
-962.889
-3247.14
-1100.14
-3333.78
-1252.5
-3469.9
-1415.06
-3777.01
-1584.84
-4350.04
-1761.07
-5199.57
-1942.58
-6280.09
-2128.98
-7492.17
-2324.24
-8632.78
-2535.56
-9445.1
-2765.17
-9861.92
-3002.89
-10189.4
-3229.27
-10837.6
-3427.07
-11887.3
-3590.95
-13127.8
-3732.59
-14324.3
-3879.97
-15247.8
-4069.09
-15596.9
-4320.91
-15076.6
-4602.2
-13421.6
-4820.81
-10310.1
-4932.74
-5948.35
-5074.21
-1570.61
-5425.09
1990.04
-6061.98
5611.3
-7018.23
10154.8
-8289.05
16080.8
-9742.59
23694.6
-11006.7
32602.4
-11426.7
41003.2
-10226.6
45285.7
-6958.97
40637.8
-2239.62
23928.3
1386.03
453.156
-409.567
455.276
-423.703
458.012
-445.082
461.382
-473.724
465.271
-509.679
469.51