/*--------------------------------*- C++ -*----------------------------------*\
| =========                 |                                                 |
| \\      /  F ield         | OpenFOAM: The Open Source CFD Toolbox           |
|  \\    /   O peration     | Version:  4.1                                   |
|   \\  /    A nd           | Web:      www.OpenFOAM.org                      |
|    \\/     M anipulation  |                                                 |
\*---------------------------------------------------------------------------*/
FoamFile
{
    version     2.0;
    format      ascii;
    class       volVectorField;
    location    "16";
    object      U;
}
// * * * * * * * * * * * * * * * * * * * * * * * * * * * * * * * * * * * * * //

dimensions      [0 1 -1 0 0 0 0];

internalField   nonuniform List<vector> 
6785
(
(3.68729e-14 -0.832032 16.137)
(3.44357e-14 -6.74883 12.5028)
(-1.0025e-14 -4.83046 12.9063)
(1.36939e-14 -4.35957 12.6508)
(3.30212e-15 -3.74984 12.4779)
(-1.60833e-15 -3.29259 12.2474)
(1.2607e-14 -2.9181 11.9859)
(2.24903e-15 -2.64429 11.6803)
(-2.17658e-15 -2.47204 11.3263)
(8.44045e-15 -2.37091 10.9446)
(1.87279e-15 -2.31659 10.5745)
(-3.14566e-15 -2.48716 10.1308)
(8.84844e-15 -2.91195 9.46246)
(-2.35372e-15 -2.17591 8.7988)
(-1.70838e-14 0.837237 6.96723)
(6.70773e-14 -7.7833 26.1598)
(3.86613e-14 -16.564 21.8805)
(-6.04544e-16 -11.5228 22.3528)
(3.56305e-14 -11.866 20.8876)
(1.92662e-15 -10.7969 19.9179)
(1.03905e-14 -10.0627 18.8525)
(2.87535e-14 -9.28326 17.7995)
(3.92838e-15 -8.53344 16.7315)
(1.71183e-14 -7.82625 15.6703)
(3.06515e-14 -7.19554 14.729)
(9.90842e-15 -6.67214 14.0279)
(2.54101e-14 -6.3743 13.2362)
(3.45258e-14 -6.30345 11.5056)
(-1.08647e-14 -5.7 8.68786)
(-1.19364e-14 -3.33771 5.43595)
(3.29789e-14 -10.7371 28.1743)
(3.69928e-14 -17.5165 24.519)
(-6.24866e-15 -11.8944 24.9721)
(-2.15762e-15 -12.7301 22.7948)
(7.98217e-15 -11.0899 21.6913)
(-7.14036e-17 -10.2843 20.2494)
(-9.682e-15 -9.31306 18.9142)
(9.20943e-15 -8.45113 17.6087)
(-1.97843e-15 -7.63855 16.3729)
(-1.40634e-14 -6.73244 14.9559)
(-6.43202e-15 -5.24991 12.4483)
(-4.1385e-14 -2.66767 7.65199)
(-9.79549e-14 0.53629 1.50629)
(-8.28653e-14 2.02131 -1.7068)
(-7.18902e-14 0.362308 -0.63699)
(4.99286e-14 -11.8051 27.76)
(1.74102e-14 -17.6162 24.5876)
(8.54884e-15 -12.0029 24.9393)
(-1.04425e-14 -13.6912 22.1726)
(-1.00784e-14 -11.5715 21.2358)
(2.15561e-14 -11.1763 19.4982)
(-1.26712e-14 -10.1919 18.1252)
(-1.76104e-14 -9.48181 16.7147)
(2.26633e-14 -8.79419 15.4394)
(-1.47167e-14 -8.08317 14.0779)
(-3.86167e-14 -6.88055 11.8947)
(-8.40717e-15 -4.45703 7.75998)
(-3.60357e-14 -0.901573 1.9777)
(-4.37328e-13 4.02986 -3.07634)
(-2.21383e-13 1.90594 -5.00553)
(3.44999e-14 -11.9444 26.4486)
(-1.19262e-14 -17.6871 25.251)
(-6.47626e-15 -12.4089 24.7563)
(-2.45474e-14 -14.0079 21.8317)
(-4.92929e-14 -11.9252 20.8835)
(-4.54001e-15 -11.5777 19.0557)
(-2.29412e-14 -10.6527 17.5941)
(-5.98255e-14 -9.91446 16.0957)
(-2.07556e-14 -9.20375 14.6793)
(-2.64515e-14 -8.50389 13.272)
(-7.50823e-14 -7.65629 11.6039)
(-6.2155e-14 -6.22227 9.19126)
(-4.95852e-14 -4.13575 5.71014)
(-1.95378e-13 -1.0969 2.1774)
(-2.01849e-13 0.375539 -2.52167)
(4.75445e-14 -11.6952 24.7275)
(-4.90211e-15 -17.3429 25.5214)
(9.36369e-15 -12.5839 24.364)
(-2.22452e-14 -13.6494 21.4008)
(-4.69033e-14 -11.7452 20.3804)
(4.22187e-15 -11.2928 18.5793)
(-1.75246e-14 -10.378 17.0799)
(-5.04227e-14 -9.56156 15.5545)
(-1.41334e-14 -8.77588 14.0609)
(-2.02183e-14 -7.99776 12.6201)
(-4.80232e-14 -7.2235 11.1609)
(-3.44283e-14 -6.25246 9.5385)
(-4.83712e-14 -4.97195 7.284)
(-7.83208e-14 -2.76763 4.32544)
(2.50937e-13 -0.610215 -1.27319)
(8.41194e-14 -11.406 23.3828)
(1.3785e-14 -16.7528 25.183)
(5.25055e-14 -12.5283 23.8556)
(-1.46432e-14 -13.2331 20.8758)
(-3.38641e-14 -11.4629 19.8237)
(3.90557e-14 -10.9858 18.0661)
(-2.9266e-15 -10.0929 16.5799)
(-3.2694e-14 -9.29446 15.1076)
(2.83682e-14 -8.558 13.7007)
(2.12117e-15 -7.82889 12.3852)
(-1.60809e-14 -7.12082 11.0815)
(2.48231e-14 -6.32624 9.75065)
(-5.65832e-15 -5.44474 8.15787)
(-8.04188e-14 -3.90976 6.09523)
(1.60183e-13 -1.74027 1.21332)
(6.28926e-14 -11.3499 22.8127)
(1.87348e-14 -16.068 24.3917)
(4.68609e-14 -12.1937 23.3256)
(-1.51307e-14 -12.9553 20.2966)
(-2.88171e-14 -11.02 19.3616)
(3.88261e-14 -10.7186 17.5046)
(-3.66181e-15 -9.73049 16.1224)
(-2.43033e-14 -9.08176 14.7258)
(2.80985e-14 -8.45478 13.4541)
(1.6328e-14 -7.86198 12.2271)
(7.21667e-15 -7.28734 11.0433)
(2.88845e-14 -6.70155 9.99118)
(3.62099e-14 -6.11437 9.04611)
(-3.89216e-14 -5.14169 7.90586)
(2.1686e-14 -3.22423 4.2119)
(6.18124e-14 -11.7614 22.9692)
(2.00757e-14 -15.3146 23.6812)
(1.71041e-14 -11.8895 22.8637)
(-1.32852e-14 -12.6149 19.9523)
(-1.62277e-14 -10.477 19.0425)
(2.12123e-16 -10.2674 17.0107)
(-4.97508e-15 -8.97866 15.5617)
(-1.30709e-14 -8.26443 13.741)
(-2.23299e-14 -7.51032 12.2123)
(1.42926e-14 -7.12715 11.0503)
(2.07771e-15 -6.95276 10.4392)
(-4.52485e-14 -6.93018 10.288)
(4.78444e-14 -6.91015 10.4477)
(-4.70215e-15 -6.60713 10.1939)
(-9.5002e-14 -4.81967 7.50574)
(4.15917e-14 -12.4656 23.7434)
(1.87491e-14 -15.1566 23.9879)
(-2.71514e-15 -11.9542 22.9513)
(-3.88623e-14 -12.3975 20.4637)
(-1.05656e-14 -10.3168 19.4151)
(-3.57379e-14 -9.83664 17.3384)
(-3.76867e-14 -8.13526 15.3875)
(-3.08672e-14 -6.72718 12.5761)
(-9.34424e-14 -5.28854 10.1917)
(-1.44559e-13 -4.72422 8.89232)
(-1.6809e-13 -4.86591 8.87548)
(-1.60414e-13 -5.71091 9.89376)
(-4.66023e-14 -6.8635 11.4521)
(2.54099e-14 -7.52526 12.1692)
(-9.59493e-14 -5.60118 9.80867)
(6.05359e-15 -12.6079 23.7142)
(2.76065e-14 -16.3439 26.1243)
(-6.16445e-14 -12.5828 23.9709)
(-4.89471e-14 -12.9187 21.7185)
(-5.69145e-15 -10.8672 20.6891)
(-8.9839e-14 -10.3399 18.6358)
(-3.61629e-14 -8.4337 16.5515)
(-5.10053e-14 -6.67559 13.3726)
(-1.93232e-13 -4.64081 10.4978)
(-2.24487e-13 -3.32763 8.41529)
(-4.08483e-13 -2.53895 7.15796)
(-5.67687e-13 -2.59248 6.89625)
(-4.64374e-13 -3.78397 8.19016)
(-3.19486e-13 -5.41599 10.1601)
(-1.13716e-13 -4.48428 8.97903)
(1.26346e-15 -11.6169 21.4774)
(4.45166e-14 -17.4899 28.0464)
(-7.54285e-14 -14.1248 25.6321)
(-4.48061e-14 -13.8033 22.8839)
(1.42479e-14 -11.9 21.75)
(-1.26276e-13 -11.4723 19.8388)
(-4.33994e-14 -9.7861 18.0662)
(-1.33992e-14 -8.2673 15.2621)
(-1.99277e-13 -6.1724 12.393)
(-1.93986e-13 -4.40176 9.7382)
(-3.99339e-13 -2.77993 7.32146)
(-6.7379e-13 -1.29478 4.92395)
(-6.49785e-13 -0.269886 3.25744)
(-5.64489e-13 -0.786741 3.67899)
(-1.22531e-13 -1.84416 4.90392)
(-3.11468e-14 -9.7618 17.4086)
(3.25514e-14 -17.5669 28.0775)
(-3.75318e-14 -16.1105 27.1797)
(-7.05216e-14 -14.9767 24.0446)
(3.20195e-15 -13.4263 22.2958)
(-7.91615e-14 -12.8445 20.5618)
(-9.16326e-14 -11.7928 18.9904)
(2.05661e-14 -10.7252 17.0048)
(-8.54199e-14 -9.30945 14.8132)
(-1.31606e-13 -7.77331 12.4978)
(-1.63935e-13 -6.11413 10.0957)
(-3.70544e-13 -4.23452 7.43748)
(-4.64291e-13 -1.93483 4.34338)
(-5.02817e-13 0.744903 0.731146)
(-4.8937e-13 1.48482 -1.31606)
(-8.04203e-14 -6.25379 9.86674)
(2.61575e-15 -15.3728 24.2003)
(-3.00061e-14 -16.4949 26.4861)
(-8.31724e-14 -14.9767 23.4255)
(-3.08855e-14 -13.0766 20.7291)
(-4.55093e-14 -12.1078 18.9498)
(-8.17641e-14 -11.3593 17.7214)
(-1.45685e-14 -10.6464 16.4353)
(-2.06543e-14 -9.80922 14.9827)
(-5.90848e-14 -8.86099 13.4329)
(-8.48496e-14 -7.82914 11.7731)
(-1.45028e-13 -6.59057 9.92917)
(-1.76997e-13 -5.12131 7.67195)
(-2.36425e-13 -3.02777 4.94574)
(-2.8465e-13 -1.62624 2.22065)
(-1.50379e-13 -3.98089 7.1088)
(-5.49198e-14 -13.8938 22.3521)
(-1.95567e-14 -17.9274 27.3751)
(-5.2806e-14 -18.7432 26.71)
(-6.48294e-14 -17.9954 24.2121)
(-4.91689e-14 -16.8169 21.562)
(-6.01926e-14 -15.5431 19.2394)
(-6.35706e-14 -14.2834 17.2572)
(-2.90352e-14 -12.9823 15.4796)
(-2.64661e-14 -11.5776 13.6749)
(-6.87052e-14 -10.1215 11.9332)
(-8.41142e-14 -8.67483 10.2778)
(-9.31413e-14 -7.08405 8.61336)
(-1.34791e-13 -5.15339 6.42404)
(-1.62477e-13 -1.9236 2.49064)
(-2.05706e-15 -0.00442276 -0.109223)
(-9.03901e-15 0.0520698 -0.436604)
(-7.40416e-15 0.0672547 -0.273979)
(-6.90119e-15 0.0892511 -0.254604)
(-5.97035e-15 0.102711 -0.212521)
(-1.00591e-14 0.0985862 -0.260843)
(-7.25624e-15 0.0959572 -0.243805)
(-6.08746e-15 0.114092 -0.277078)
(-3.14561e-15 0.134278 -0.263821)
(1.33377e-13 0.12607 -0.292227)
(8.27982e-14 0.119016 -0.269039)
(5.48592e-14 0.151118 -0.230171)
(4.37947e-14 0.130034 -0.25005)
(2.07985e-14 0.153099 -0.218699)
(1.40188e-14 0.174268 -0.214069)
(1.02646e-14 0.17921 -0.178095)
(3.35963e-15 0.19623 -0.215799)
(1.22389e-14 0.224803 -0.187989)
(9.04234e-15 0.238292 -0.160148)
(6.37821e-15 0.278461 -0.237027)
(4.17789e-15 0.29015 -0.176325)
(1.4021e-15 0.329713 -0.167641)
(9.08924e-15 0.305602 -0.133405)
(5.30987e-15 0.412551 -0.218771)
(3.82573e-15 0.377493 -0.159488)
(4.97395e-15 0.421954 -0.163103)
(-1.22323e-14 0.397159 -0.136626)
(-1.5848e-14 0.496662 -0.232802)
(-1.45099e-14 0.475046 -0.164302)
(-1.00016e-14 0.496167 -0.147923)
(-1.1907e-14 0.587992 -0.267847)
(-1.69323e-14 0.530897 -0.186468)
(-1.38199e-14 0.598273 -0.18398)
(-1.91607e-14 0.557844 -0.162332)
(-2.28908e-14 0.69513 -0.26617)
(-1.75507e-14 0.620525 -0.16927)
(-1.62638e-14 0.649022 -0.152236)
(-2.21191e-14 0.766359 -0.261527)
(-1.48391e-14 0.655612 -0.17715)
(-1.42616e-14 0.738498 -0.174787)
(-6.91698e-15 0.685254 -0.163287)
(-1.32182e-14 0.873231 -0.272152)
(-8.55736e-15 0.720498 -0.164724)
(-6.54978e-15 0.797352 -0.158014)
(-5.51291e-15 0.751787 -0.154234)
(-6.85488e-15 0.91912 -0.281825)
(-1.08327e-14 0.800796 -0.169984)
(-7.20636e-15 0.832038 -0.146735)
(-1.00008e-14 0.96355 -0.209711)
(-2.27935e-15 0.787645 -0.155863)
(-4.90766e-15 0.86939 -0.145545)
(-4.43699e-15 0.821283 -0.128351)
(-4.73119e-15 0.964359 -0.179539)
(-2.25731e-15 0.748525 -0.154343)
(-4.49896e-15 0.819259 -0.141335)
(7.55647e-15 0.780906 -0.112951)
(1.23328e-14 0.881523 -0.239392)
(9.43722e-15 0.646064 -0.254852)
(8.14277e-16 0.698247 -0.182568)
(3.10665e-15 0.669176 -0.642561)
(3.66077e-16 0.376915 -0.76372)
(-8.83995e-16 0.480707 -0.805235)
(-7.07273e-15 0.485707 -0.710164)
(7.74559e-14 0.747377 -2.25344)
(1.68618e-15 0.00742074 0.238367)
(-4.58295e-15 0.221586 0.290087)
(-1.96884e-14 -0.174599 1.63826)
(-2.39215e-14 -0.819139 3.51374)
(-1.85484e-14 -1.00253 3.4148)
(-2.16137e-14 -1.05824 3.59952)
(-3.14076e-14 -2.06165 6.42504)
(-2.70936e-14 -2.78247 6.26713)
(-2.82925e-14 -3.19493 6.31406)
(-2.9599e-14 -3.25562 6.49569)
(-4.25256e-14 -5.38289 10.3588)
(-3.1786e-14 -5.67285 8.70705)
(-3.698e-14 -5.79566 9.26567)
(-5.52451e-14 -8.64446 13.9136)
(-4.53895e-14 -8.56426 11.0005)
(-5.43063e-14 -8.95074 11.8827)
(-8.04911e-14 -9.81305 13.8899)
(-7.55807e-14 -9.66424 13.6782)
(-7.42106e-14 -9.84845 14.0151)
(-4.72048e-14 -11.526 17.197)
(-6.54381e-14 -10.8368 15.2513)
(-5.71875e-14 -11.1017 15.8598)
(-5.61843e-14 -11.1161 15.9603)
(-5.54607e-14 -11.2135 16.0312)
(-5.52828e-14 -11.3095 16.1017)
(-5.57589e-14 -11.4047 16.1971)
(-5.47016e-14 -11.4839 16.4113)
(-5.23153e-14 -11.5937 16.7231)
(-4.35821e-14 -12.4754 18.8015)
(-5.18289e-14 -12.3141 17.2129)
(-5.09175e-14 -12.4523 17.4315)
(-5.01704e-14 -12.4477 17.5147)
(-4.89988e-14 -12.6176 17.8303)
(-4.8174e-14 -12.6158 17.8576)
(-4.89336e-14 -12.7221 17.9488)
(-4.95535e-14 -12.7745 18.0176)
(-5.04438e-14 -12.8424 18.1128)
(-3.9492e-14 -13.5248 19.7117)
(-4.35455e-14 -13.3012 18.2422)
(-4.35542e-14 -13.3968 18.3587)
(-4.31211e-14 -13.4487 18.3445)
(-4.11016e-14 -13.5061 18.407)
(-3.62741e-14 -13.5498 18.5515)
(-3.07955e-14 -13.6396 18.7374)
(-3.00271e-14 -13.6487 18.7531)
(-2.69717e-14 -13.7074 18.8433)
(-2.44965e-14 -13.7671 18.9372)
(-1.86251e-14 -13.8687 19.6529)
(-2.34247e-14 -13.8394 18.726)
(-2.15418e-14 -13.8561 18.8841)
(-2.15123e-14 -13.8892 18.9582)
(-2.24344e-14 -13.9316 19.0644)
(-2.48211e-14 -13.9384 19.1714)
(-3.02422e-14 -13.9988 19.3994)
(-3.15771e-14 -13.9968 19.4478)
(-3.16507e-14 -14.0513 19.4153)
(-2.43397e-14 -13.4431 18.6654)
(-3.32029e-14 -13.6272 18.1999)
(-3.32089e-14 -13.5784 18.237)
(-3.29184e-14 -13.6217 18.264)
(-3.2699e-14 -13.5675 18.0862)
(-3.20701e-14 -13.5817 17.9507)
(-3.09123e-14 -13.5562 17.7823)
(-2.95767e-14 -13.4934 17.6382)
(-2.69311e-14 -13.5703 17.6974)
(-1.71693e-14 -12.012 14.9463)
(-1.9404e-14 -12.6633 15.6224)
(-1.88995e-14 -12.5113 15.1767)
(-1.93134e-14 -12.486 14.9195)
(-2.08568e-14 -12.4276 14.786)
(-2.07137e-14 -12.3373 14.4012)
(-2.02041e-14 -12.2099 13.9086)
(-1.99437e-14 -12.0862 13.4037)
(-1.92444e-14 -11.9973 12.8363)
(-5.12579e-15 -10.0749 8.76597)
(-1.22926e-14 -10.9254 10.833)
(-1.12019e-14 -10.596 10.0719)
(-1.05907e-14 -10.5404 9.79299)
(-9.38643e-15 -10.3364 9.4515)
(-7.50905e-15 -10.2279 9.24839)
(-1.94541e-15 -9.99319 9.17901)
(-3.126e-15 -9.85975 9.0212)
(-2.39224e-15 -9.65444 8.92306)
(-2.3126e-15 -9.45738 8.69162)
(-4.29319e-17 -7.31992 3.80233)
(-9.26318e-15 -8.37036 6.54975)
(-9.63277e-15 -7.89096 5.99482)
(-9.06535e-15 -7.9133 6.02042)
(-8.77423e-15 -7.59742 5.74903)
(-9.28073e-15 -7.53647 5.37252)
(-1.4716e-14 -7.39925 4.18837)
(-2.20495e-14 -7.04257 2.95363)
(-2.01508e-14 -7.07619 3.36728)
(7.22795e-15 -7.357 1.42186)
(-1.17031e-14 -6.57774 1.70258)
(-1.05334e-14 -6.69671 1.52248)
(1.43356e-14 -5.15862 -0.175222)
(7.49682e-15 -7.6765 0.0952928)
(-3.10954e-16 -6.28025 -2.31684)
(-1.57423e-15 -4.87008 -2.5037)
(-1.9924e-15 -5.93818 -3.81081)
(-1.82912e-15 -2.99918 -3.44427)
(-5.16945e-15 -3.499 -5.15364)
(-3.47406e-15 -2.38999 -4.49151)
(1.99211e-15 -0.00761262 -2.49312)
(1.6736e-14 0.534878 -4.70239)
(2.4347e-14 1.89044 -6.50165)
(1.63962e-14 2.75728 -4.17521)
(2.2987e-14 4.87557 -5.95649)
(1.72684e-14 4.83788 -4.05127)
(1.65451e-14 6.23867 -4.95318)
(1.92141e-14 8.48547 -5.21468)
(1.29095e-14 7.0743 -3.23184)
(1.43726e-14 10.8513 -4.08178)
(1.00516e-14 8.78692 -2.69911)
(1.36607e-14 10.5559 -3.11276)
(1.70292e-14 12.152 -2.78828)
(1.13367e-14 9.85418 -1.64283)
(1.45707e-14 12.3549 -1.75413)
(1.41374e-14 13.7594 -1.10589)
(8.66279e-15 10.0975 -0.605442)
(1.2168e-14 14.7969 -0.293998)
(9.2812e-15 11.076 -0.0278201)
(8.85581e-15 12.6399 0.268351)
(9.83205e-15 13.6549 1.34967)
(6.39035e-15 9.96509 1.00412)
(9.22896e-15 14.1585 1.93072)
(6.26005e-15 10.2697 1.51943)
(8.28016e-15 11.5516 2.13729)
(4.87414e-15 11.6117 3.14209)
(1.85828e-15 8.64257 2.19042)
(2.4863e-15 10.5346 2.88347)
(-2.70855e-15 10.0882 3.72095)
(-2.79079e-15 6.95395 2.40449)
(-3.86904e-15 9.43681 3.36258)
(-2.87474e-15 6.54413 2.34415)
(-4.72868e-15 7.09028 2.89432)
(6.63107e-16 6.50582 3.30661)
(2.76791e-15 4.51031 2.05212)
(-3.39454e-15 5.96198 2.71359)
(-4.38275e-15 3.9972 1.8324)
(-3.15329e-15 4.26073 2.18781)
(-1.48538e-14 3.79593 2.29889)
(-1.26772e-14 2.83661 1.37012)
(-1.51395e-14 2.87656 2.01207)
(-2.06027e-14 4.13617 -1.01355)
(-1.43889e-14 2.93089 -0.534929)
(-1.71609e-14 5.15699 -5.19947)
(-1.07905e-14 4.56671 -4.36282)
(-1.84652e-14 5.97511 -6.50512)
(-2.76057e-14 6.73958 -8.6013)
(-1.90093e-14 5.55357 -5.89879)
(-3.10351e-14 8.00512 -8.49841)
(-2.49914e-14 6.3126 -6.33162)
(-3.11863e-14 7.50999 -8.20828)
(-3.90194e-14 6.19918 -10.6728)
(-2.65013e-14 4.42385 -7.58557)
(-4.37792e-14 5.90395 -10.5896)
(-4.18904e-14 3.8047 -14.0429)
(-2.53385e-14 -0.587891 -10.1315)
(-5.24038e-14 5.32107 -13.6428)
(-2.20717e-14 -3.56717 -3.14158)
(-2.04132e-14 1.06818 -3.06926)
(3.02274e-14 -10.8985 8.50266)
(4.64956e-14 -12.1032 11.2601)
(7.07663e-14 -20.6456 17.7449)
(7.25073e-14 -18.9091 18.3546)
(1.20023e-13 -29.8855 30.5928)
(1.3735e-13 -43.9549 35.7957)
(1.21319e-13 -38.1143 32.5759)
(1.90842e-13 -55.9676 51.8212)
(1.92953e-13 -67.7727 53.659)
(1.64127e-13 -64.7564 46.9329)
(2.36757e-13 -98.0884 67.9342)
(1.87431e-13 -79.8288 55.0592)
(2.9749e-13 -112.758 88.0008)
(8.8001e-38 0.499787 -2.02851)
(8.82829e-38 0.496067 -2.05703)
(7.35896e-38 0.512633 -2.08944)
(1.44153e-37 0.543224 -2.12319)
(-2.17218e-37 0.584009 -2.15757)
(1.39875e-36 0.63498 -2.19273)
(-4.51821e-36 0.695999 -2.229)
(7.57124e-36 0.767587 -2.26657)
(7.25342e-35 0.85038 -2.30573)
(-1.08218e-33 0.944645 -2.34656)
(9.89383e-33 1.05029 -2.38816)
(-7.69593e-32 1.16411 -2.42836)
(5.60909e-31 1.28293 -2.46684)
(-3.91566e-30 1.40774 -2.50476)
(2.58917e-29 1.5437 -2.54413)
(-1.58806e-28 1.69818 -2.58677)
(8.80481e-28 1.87834 -2.63284)
(-4.33251e-27 2.08428 -2.68149)
(1.8845e-26 2.32057 -2.73946)
(-7.1753e-26 2.62976 -2.81173)
(2.27735e-25 3.1063 -2.85725)
(-5.49209e-25 3.80394 -2.76946)
(5.33624e-25 4.56541 -2.53439)
(3.253e-24 5.11787 -2.26984)
(-1.37714e-23 5.34937 -2.05801)
(-1.388e-23 5.38319 -1.99126)
(5.48583e-23 5.3202 -2.15018)
(1.46176e-22 5.14107 -2.44566)
(2.08776e-22 4.82392 -2.70479)
(3.11855e-22 4.4868 -2.84726)
(6.20551e-23 4.27438 -2.86359)
(-2.81293e-22 4.22987 -2.7543)
(2.36961e-21 4.33982 -2.49534)
(-2.29575e-21 4.55134 -2.06477)
(-2.78596e-20 4.70091 -1.48203)
(-3.41741e-20 4.62726 -0.786279)
(7.27177e-22 4.5365 -0.10736)
(-4.87952e-19 4.62236 0.426895)
(-2.4631e-18 4.75026 0.882095)
(-2.25773e-18 4.89359 1.27309)
(2.99953e-18 5.09578 1.65717)
(1.19601e-17 5.34408 2.05547)
(-6.21978e-19 5.62359 2.47805)
(-1.04051e-16 5.92951 2.91914)
(-3.07949e-16 6.28219 3.38417)
(-2.9911e-16 6.70782 3.88643)
(5.90228e-16 7.21217 4.46613)
(2.53566e-15 7.76982 5.17896)
(4.00281e-15 8.38087 6.03434)
(2.56699e-15 9.12826 6.94636)
(-2.23017e-15 10.1188 7.79047)
(-8.50389e-15 11.3808 8.50634)
(-1.45855e-14 12.8611 9.09743)
(-1.99082e-14 14.4767 9.58481)
(-2.38037e-14 16.1221 10.0265)
(-2.57229e-14 17.6533 10.5556)
(-2.74366e-14 18.8974 11.3368)
(-3.30561e-14 19.6762 12.4338)
(-4.28791e-14 19.897 13.6932)
(-4.93613e-14 19.7629 14.7638)
(-4.46442e-14 19.7746 15.2865)
(-2.97043e-14 20.2814 15.1681)
(-1.08945e-14 21.0787 14.637)
(7.4605e-15 21.4252 14.0407)
(2.26775e-14 19.9972 13.6709)
(3.01359e-14 15.2192 13.7039)
(2.8178e-14 8.25526 14.1117)
(2.7096e-14 3.98194 15.2405)
(3.23853e-14 2.60001 17.1442)
(3.67055e-14 0.798018 18.7425)
(3.90947e-14 -1.35529 19.768)
(4.34775e-14 -3.61771 21.3858)
(5.18585e-14 -6.67988 24.3585)
(6.53463e-14 -11.222 28.933)
(8.6839e-14 -18.3341 35.8895)
(1.20197e-13 -29.6757 46.2076)
(1.70077e-13 -47.4799 61.1211)
(2.38839e-13 -73.1314 81.3224)
(3.10987e-13 -101.815 100.854)
(8.0171e-38 0.504221 -2.12754)
(8.3566e-38 0.504657 -2.15439)
(6.39558e-38 0.522407 -2.1826)
(1.78331e-37 0.553194 -2.21268)
(-3.90228e-37 0.594094 -2.24379)
(2.22241e-36 0.645247 -2.27582)
(-7.90208e-36 0.706538 -2.30916)
(1.93209e-35 0.7785 -2.34414)
(4.91255e-35 0.861746 -2.38116)
(-1.18557e-33 0.956351 -2.42023)
(1.1706e-32 1.06183 -2.46031)
(-9.31747e-32 1.17493 -2.49902)
(6.86076e-31 1.29305 -2.53611)
(-4.83995e-30 1.41768 -2.57269)
(3.24281e-29 1.55411 -2.61037)
(-2.02026e-28 1.70945 -2.6503)
(1.13839e-27 1.8905 -2.69251)
(-5.68697e-27 2.09822 -2.73598)
(2.51147e-26 2.33799 -2.78582)
(-9.7355e-26 2.64547 -2.846)
(3.15439e-25 3.09852 -2.88592)
(-7.85423e-25 3.75443 -2.81228)
(8.87107e-25 4.48864 -2.59933)
(4.16698e-24 5.04276 -2.34529)
(-2.02594e-23 5.30312 -2.12596)
(-1.56015e-23 5.39381 -2.05779)
(9.14692e-23 5.38613 -2.24214)
(2.30741e-22 5.22115 -2.56343)
(3.22874e-22 4.87812 -2.8225)
(4.38478e-22 4.50196 -2.93989)
(8.00548e-23 4.25009 -2.91397)
(-2.22962e-22 4.16316 -2.74972)
(3.02983e-21 4.22448 -2.43073)
(-4.65863e-21 4.38771 -1.95035)
(-3.61e-20 4.49737 -1.33785)
(-3.85059e-20 4.40897 -0.627027)
(8.19893e-21 4.34255 0.0325291)
(-5.30362e-19 4.46051 0.534082)
(-2.4938e-18 4.60774 0.977888)
(-2.33846e-18 4.75977 1.37134)
(3.48135e-18 4.9593 1.76442)
(1.34843e-17 5.20051 2.17471)
(-2.54233e-18 5.4723 2.61171)
(-1.20452e-16 5.77029 3.07132)
(-3.32648e-16 6.11193 3.55995)
(-2.66924e-16 6.51838 4.09084)
(7.7324e-16 6.98926 4.7035)
(2.81778e-15 7.50354 5.45094)
(4.07868e-15 8.08201 6.33453)
(2.16944e-15 8.8283 7.26287)
(-2.98311e-15 9.84658 8.12115)
(-9.29618e-15 11.1467 8.8626)
(-1.52499e-14 12.6628 9.49173)
(-2.03378e-14 14.303 10.0279)
(-2.3733e-14 15.9439 10.5422)
(-2.49789e-14 17.4241 11.1928)
(-2.6466e-14 18.5815 12.1567)
(-3.25787e-14 19.2877 13.4607)
(-4.24134e-14 19.5147 14.8634)
(-4.71454e-14 19.4958 15.9375)
(-3.98899e-14 19.6905 16.339)
(-2.34736e-14 20.3587 16.0752)
(-4.63859e-15 21.2306 15.4621)
(1.29373e-14 21.5576 14.8643)
(2.69793e-14 20.0477 14.5488)
(3.30361e-14 15.1865 14.6484)
(2.98363e-14 8.12158 14.9532)
(2.70641e-14 3.60259 15.4807)
(3.08531e-14 2.09449 16.6687)
(3.57117e-14 0.39663 18.2785)
(3.9752e-14 -1.76959 19.9153)
(4.52671e-14 -4.28839 21.9615)
(5.44765e-14 -7.73201 25.1967)
(6.89275e-14 -12.7877 30.0347)
(9.16521e-14 -20.6402 37.3008)
(1.26743e-13 -33.0195 48.0896)
(1.79403e-13 -52.1051 63.9457)
(2.50877e-13 -78.3205 85.1116)
(3.11317e-13 -102.795 98.5884)
(8.09906e-38 0.506257 -2.18299)
(8.72285e-38 0.508549 -2.20874)
(6.05113e-38 0.526513 -2.23456)
(2.23519e-37 0.557488 -2.2627)
(-5.7073e-37 0.598685 -2.29205)
(3.06381e-36 0.650146 -2.32228)
(-1.1107e-35 0.711797 -2.35398)
(2.92071e-35 0.784187 -2.38768)
(3.77845e-35 0.867869 -2.42371)
(-1.35196e-33 0.962791 -2.46189)
(1.38507e-32 1.06834 -2.50111)
(-1.11651e-31 1.18144 -2.53924)
(8.25995e-31 1.29969 -2.57606)
(-5.83723e-30 1.42459 -2.61234)
(3.91268e-29 1.56135 -2.6492)
(-2.43636e-28 1.71694 -2.68729)
(1.37256e-27 1.89805 -2.72664)
(-6.87038e-27 2.10593 -2.76638)
(3.04888e-26 2.34638 -2.81087)
(-1.18958e-25 2.65317 -2.86342)
(3.89168e-25 3.09792 -2.8993)
(-9.85571e-25 3.73647 -2.83528)
(1.18861e-24 4.45667 -2.64009)
(4.98824e-24 5.0088 -2.39721)
(-2.63381e-23 5.28308 -2.17492)
(-1.56576e-23 5.40766 -2.10523)
(1.31676e-22 5.43263 -2.30362)
(3.19224e-22 5.27188 -2.63584)
(4.41958e-22 4.91019 -2.88918)
(5.63001e-22 4.50952 -2.98507)
(1.03217e-22 4.23403 -2.92659)
(-1.20436e-22 4.1232 -2.72192)
(3.50999e-21 4.16057 -2.36079)
(-7.34106e-21 4.30345 -1.84833)
(-4.30438e-20 4.39838 -1.22025)
(-4.04129e-20 4.31107 -0.504671)
(1.50555e-20 4.26579 0.135986)
(-5.79008e-19 4.40103 0.618983)
(-2.53848e-18 4.55545 1.05785)
(-2.29633e-18 4.71123 1.4542)
(4.24482e-18 4.9099 1.85406)
(1.48495e-17 5.14825 2.27329)
(-6.74626e-18 5.41657 2.72099)
(-1.4052e-16 5.71086 3.19452)
(-3.52884e-16 6.04745 3.70086)
(-2.10496e-16 6.44488 4.25409)
(9.81237e-16 6.89982 4.89368)
(3.06322e-15 7.39516 5.66811)
(4.04347e-15 7.96375 6.56988)
(1.69981e-15 8.71589 7.50407)
(-3.66886e-15 9.74918 8.36619)
(-9.93159e-15 11.0647 9.11907)
(-1.57479e-14 12.593 9.76695)
(-2.06045e-14 14.2366 10.3312)
(-2.3573e-14 15.8594 10.8955)
(-2.43872e-14 17.2932 11.6335)
(-2.58616e-14 18.392 12.7184)
(-3.21997e-14 19.0685 14.1333)
(-4.14352e-14 19.3321 15.5722)
(-4.44942e-14 19.4144 16.5858)
(-3.58336e-14 19.725 16.8874)
(-1.91897e-14 20.466 16.5633)
(-8.39676e-16 21.3478 15.9569)
(1.61455e-14 21.6346 15.4134)
(2.94896e-14 20.0526 15.1727)
(3.46933e-14 15.1236 15.3297)
(3.09512e-14 8.03332 15.644)
(2.83593e-14 3.51516 16.1841)
(3.24839e-14 1.93918 17.3197)
(3.71316e-14 0.108716 18.7762)
(4.11984e-14 -2.15239 20.4154)
(4.7665e-14 -4.8292 22.7684)
(5.77773e-14 -8.57347 26.2544)
(7.3352e-14 -14.0751 31.3795)
(9.76771e-14 -22.6005 39.0642)
(1.35429e-13 -35.9755 50.6831)
(1.92015e-13 -56.1903 67.9589)
(2.63278e-13 -82.015 89.0481)
(3.01948e-13 -98.5446 93.8037)
(8.34409e-38 0.509408 -2.24593)
(9.33485e-38 0.513851 -2.27071)
(5.71928e-38 0.53257 -2.2944)
(2.84369e-37 0.563802 -2.32063)
(-8.11833e-37 0.605174 -2.34824)
(4.20089e-36 0.656843 -2.37677)
(-1.55156e-35 0.718832 -2.40701)
(4.34577e-35 0.791669 -2.4396)
(1.41436e-35 0.875807 -2.47472)
(-1.50604e-33 0.971044 -2.51198)
(1.61826e-32 1.07658 -2.55026)
(-1.32329e-31 1.18937 -2.58764)
(9.84028e-31 1.30731 -2.62389)
(-6.97091e-30 1.43208 -2.65952)
(4.68144e-29 1.56892 -2.6952)
(-2.92027e-28 1.7247 -2.73118)
(1.6489e-27 1.90598 -2.7675)
(-8.28591e-27 2.11449 -2.80328)
(3.70114e-26 2.35643 -2.84224)
(-1.45682e-25 2.66224 -2.88719)
(4.82331e-25 3.09423 -2.91876)
(-1.24466e-24 3.70769 -2.86301)
(1.60373e-24 4.40838 -2.68421)
(5.92162e-24 4.95727 -2.4516)
(-3.41377e-23 5.25015 -2.22546)
(-1.39137e-23 5.42079 -2.15594)
(1.87168e-22 5.48948 -2.37237)
(4.35402e-22 5.33393 -2.71722)
(5.95342e-22 4.94559 -2.96242)
(7.14792e-22 4.51007 -3.03119)
(1.15894e-22 4.20139 -2.93273)
(6.37875e-23 4.05733 -2.6796)
(4.00291e-21 4.06147 -2.269)
(-1.14685e-20 4.176 -1.7217)
(-5.16542e-20 4.24924 -1.07953)
(-4.11295e-20 4.16051 -0.363033)
(2.11649e-20 4.14001 0.251217)
(-6.28898e-19 4.29583 0.711903)
(-2.58147e-18 4.45895 1.14281)
(-2.2391e-18 4.61826 1.54011)
(5.06439e-18 4.81388 1.9456)
(1.6089e-17 5.04651 2.37331)
(-1.16133e-17 5.30843 2.83159)
(-1.60559e-16 5.59574 3.31875)
(-3.6868e-16 5.92288 3.84227)
(-1.45984e-16 6.30487 4.41714)
(1.18581e-15 6.73494 5.08268)
(3.28086e-15 7.20111 5.88296)
(3.98206e-15 7.75146 6.8031)
(1.2447e-15 8.50693 7.74657)
(-4.31129e-15 9.55968 8.61846)
(-1.05319e-14 10.8992 9.38929)
(-1.62211e-14 12.4492 10.0628)
(-2.08382e-14 14.1028 10.6628)
(-2.33614e-14 15.7073 11.2855)
(-2.37143e-14 17.0852 12.1204)
(-2.50972e-14 18.1124 13.3353)
(-3.14805e-14 18.7537 14.8659)
(-3.99392e-14 19.063 16.3428)
(-4.13627e-14 19.2668 17.3049)
(-3.14657e-14 19.7176 17.5247)
(-1.4653e-14 20.5537 17.1564)
(3.27353e-15 21.4595 16.5652)
(1.96961e-14 21.7096 16.0851)
(3.23072e-14 20.0577 15.9309)
(3.66468e-14 15.0755 16.1354)
(3.23702e-14 7.9508 16.385)
(2.97391e-14 3.3133 16.8288)
(3.39402e-14 1.62195 17.9397)
(3.87101e-14 -0.220834 19.4184)
(4.31247e-14 -2.56155 21.14)
(5.03017e-14 -5.41931 23.7073)
(6.12967e-14 -9.41598 27.4329)
(7.80805e-14 -15.316 32.887)
(1.04396e-13 -24.4845 41.1824)
(1.45434e-13 -38.8125 53.9623)
(2.05128e-13 -59.7457 72.4154)
(2.71695e-13 -83.9697 91.7696)
(2.92843e-13 -94.0795 90.3655)
(9.031e-38 0.511917 -2.30511)
(1.04578e-37 0.517985 -2.3289)
(5.57299e-38 0.537178 -2.35066)
(3.64724e-37 0.568623 -2.37515)
(-1.12113e-36 0.610271 -2.40131)
(5.66587e-36 0.662271 -2.42864)
(-2.12175e-35 0.724709 -2.45794)
(6.218e-35 0.798073 -2.48985)
(-2.09792e-35 0.882691 -2.52429)
(-1.65609e-33 0.978238 -2.56074)
(1.87546e-32 1.0838 -2.59816)
(-1.55528e-31 1.19645 -2.63486)
(1.16172e-30 1.31426 -2.67059)
(-8.24271e-30 1.43898 -2.70556)
(5.54212e-29 1.57581 -2.74002)
(-3.4617e-28 1.73154 -2.77386)
(1.95818e-27 1.91268 -2.8072)
(-9.8736e-27 2.12119 -2.83916)
(4.43745e-26 2.36369 -2.87296)
(-1.76187e-25 2.66889 -2.91087)
(5.9053e-25 3.09251 -2.93754)
(-1.55325e-24 3.68729 -2.88783)
(2.12786e-24 4.371 -2.72387)
(6.90436e-24 4.91407 -2.50191)
(-4.35758e-23 5.2219 -2.27324)
(-9.23012e-24 5.4366 -2.2057)
(2.60444e-22 5.54624 -2.43949)
(5.81222e-22 5.39158 -2.7927)
(7.83122e-22 4.97407 -3.02433)
(8.86834e-22 4.50336 -3.06086)
(1.14905e-22 4.16245 -2.91706)
(3.6612e-22 3.98778 -2.61115)
(4.31269e-21 3.96471 -2.14964)
(-1.74469e-20 4.05949 -1.57234)
(-6.12568e-20 4.11883 -0.923693)
(-3.91382e-20 4.03563 -0.214503)
(2.53318e-20 4.04186 0.367037)
(-6.81458e-19 4.21431 0.806501)
(-2.62599e-18 4.38233 1.22903)
(-2.13808e-18 4.54335 1.62657)
(5.98051e-18 4.7358 2.03675)
(1.71787e-17 4.96321 2.47205)
(-1.73741e-17 5.21924 2.94009)
(-1.8105e-16 5.50005 3.43993)
(-3.80457e-16 5.81851 3.97951)
(-7.25818e-17 6.1866 4.57484)
(1.39063e-15 6.59508 5.26494)
(3.47408e-15 7.03768 6.08909)
(3.88688e-15 7.57599 7.02541)
(7.8638e-16 8.33717 7.97739)
(-4.91609e-15 9.40587 8.85982)
(-1.1079e-14 10.7628 9.64958)
(-1.66411e-14 12.3272 10.3495)
(-2.10124e-14 13.9827 10.9862)
(-2.30879e-14 15.5595 11.6687)
(-2.29957e-14 16.8746 12.5991)
(-2.42531e-14 17.8328 13.9347)
(-3.04809e-14 18.4545 15.5602)
(-3.79208e-14 18.8298 17.0527)
(-3.77566e-14 19.1645 17.9578)
(-2.69554e-14 19.7451 18.1131)
(-1.02658e-14 20.6537 17.7283)
(7.11606e-15 21.5622 17.1784)
(2.29753e-14 21.764 16.7838)
(3.49142e-14 20.0448 16.7315)
(3.85211e-14 15.026 16.9806)
(3.38674e-14 7.89417 17.1431)
(3.12684e-14 3.18894 17.4788)
(3.55272e-14 1.39754 18.5884)
(4.04024e-14 -0.537118 20.1139)
(4.52168e-14 -3.01172 21.9535)
(5.30672e-14 -6.07664 24.7106)
(6.49522e-14 -10.3715 28.6889)
(8.31363e-14 -16.7451 34.5731)
(1.11897e-13 -26.6797 43.7149)
(1.56457e-13 -42.0202 57.8117)
(2.17861e-13 -63.3394 76.8348)
(2.76888e-13 -85.2688 93.0332)
(2.75615e-13 -89.4591 83.955)
(1.01238e-37 0.514692 -2.36304)
(1.2062e-37 0.522195 -2.38595)
(5.50082e-38 0.541966 -2.40609)
(4.6686e-37 0.573706 -2.42909)
(-1.51443e-36 0.61566 -2.45412)
(7.5277e-36 0.668012 -2.48068)
(-2.85163e-35 0.730906 -2.50947)
(8.65639e-35 0.804779 -2.54092)
(-7.17131e-35 0.889836 -2.57476)
(-1.79005e-33 0.985664 -2.61046)
(2.15418e-32 1.09126 -2.64707)
(-1.8125e-31 1.20375 -2.68316)
(1.35946e-30 1.32136 -2.71836)
(-9.65471e-30 1.4459 -2.75256)
(6.4956e-29 1.58253 -2.78564)
(-4.06148e-28 1.73806 -2.81728)
(2.30137e-27 1.91897 -2.84767)
(-1.1641e-26 2.12747 -2.87591)
(5.26309e-26 2.37052 -2.90488)
(-2.10814e-25 2.67494 -2.93641)
(7.15661e-25 3.08997 -2.95814)
(-1.91957e-24 3.66603 -2.91253)
(2.78738e-24 4.33242 -2.76109)
(7.90123e-24 4.86855 -2.54868)
(-5.49051e-23 5.19177 -2.3177)
(-3.15595e-25 5.45414 -2.25375)
(3.55759e-22 5.60663 -2.50426)
(7.61362e-22 5.45001 -2.86183)
(1.00729e-21 4.99864 -3.0743)
(1.07156e-21 4.48843 -3.07266)
(9.39062e-23 4.11202 -2.87692)
(8.31543e-22 3.90499 -2.51302)
(4.16172e-21 3.85571 -1.99976)
(-2.59522e-20 3.9337 -1.39986)
(-7.15853e-20 3.98121 -0.753277)
(-3.32521e-20 3.90597 -0.0598782)
(2.61682e-20 3.93965 0.48395)
(-7.35737e-19 4.12678 0.903174)
(-2.66978e-18 4.29826 1.31642)
(-1.99564e-18 4.45989 1.71325)
(6.974e-18 4.64815 2.12709)
(1.80588e-17 4.86939 2.56912)
(-2.39681e-17 5.11856 3.04613)
(-2.01395e-16 5.39174 3.55774)
(-3.87343e-16 5.70006 4.11226)
(8.59499e-18 6.05234 4.72682)
(1.59055e-15 6.43731 5.44)
(3.63797e-15 6.85508 6.28612)
(3.76171e-15 7.38068 7.23724)
(3.3556e-16 8.14712 8.19857)
(-5.47851e-15 9.23185 9.09404)
(-1.15794e-14 10.6071 9.90521)
(-1.70195e-14 12.1869 10.6338)
(-2.11414e-14 13.8431 11.3098)
(-2.27683e-14 15.3882 12.0538)
(-2.22306e-14 16.6355 13.0779)
(-2.3291e-14 17.5246 14.5239)
(-2.91603e-14 18.1353 16.227)
(-3.54261e-14 18.5888 17.724)
(-3.37936e-14 19.06 18.5809)
(-2.23726e-14 19.7675 18.6968)
(-5.97844e-15 20.7428 18.3207)
(1.083e-14 21.6488 17.8293)
(2.61487e-14 21.7994 17.5332)
(3.74705e-14 20.0184 17.5933)
(4.04545e-14 14.9826 17.8866)
(3.55136e-14 7.85359 17.9433)
(3.29027e-14 3.04022 18.1439)
(3.71438e-14 1.11097 19.2577)
(4.21314e-14 -0.889697 20.843)
(4.74062e-14 -3.48646 22.8137)