/*--------------------------------*- C++ -*----------------------------------*\
| =========                 |                                                 |
| \\      /  F ield         | OpenFOAM: The Open Source CFD Toolbox           |
|  \\    /   O peration     | Version:  4.1                                   |
|   \\  /    A nd           | Web:      www.OpenFOAM.org                      |
|    \\/     M anipulation  |                                                 |
\*---------------------------------------------------------------------------*/
FoamFile
{
    version     2.0;
    format      ascii;
    class       volScalarField;
    location    "6";
    object      p;
}
// * * * * * * * * * * * * * * * * * * * * * * * * * * * * * * * * * * * * * //

dimensions      [0 2 -2 0 0 0 0];

internalField   nonuniform List<scalar> 
6785
(
606.741
552.545
500.678
451.968
406.803
364.493
324.855
287.595
252.276
218.634
187.288
158.862
130.007
95.0636
64.5689
133.594
111.719
107.029
103.508
98.147
92.6315
87.6777
83.4786
80.1889
77.9211
76.8834
77.5067
79.7948
81.9434
81.8952
35.4634
29.8254
35.7795
39.5138
42.2847
45.6018
49.2016
52.8481
56.4759
59.9384
63.0213
65.8121
68.6749
70.9974
71.5822
80.0568
79.9792
84.3685
84.4604
84.277
84.3151
84.0832
83.5892
82.913
82.0824
81.0675
79.8894
78.8582
78.506
78.7396
93.3342
94.2204
95.9079
94.128
92.8266
91.7706
90.5061
89.2467
88.1134
87.1451
86.3551
85.7151
85.219
85.1262
85.2483
82.6361
83.3927
84.508
84.0896
84.2573
84.5236
84.6577
84.8749
85.1855
85.5373
85.912
86.2834
86.5348
86.781
86.7069
78.6904
79.5078
81.0337
81.9862
82.8424
83.4494
83.9036
84.3621
84.7815
85.1245
85.3954
85.5991
85.6076
85.6347
85.1964
81.1075
81.668
83.1336
84.2902
84.786
84.979
85.102
85.219
85.2856
85.3093
85.3104
85.298
85.0839
85.0228
84.4764
83.3739
83.4659
84.4579
85.3504
85.3826
85.2937
85.2445
85.2066
85.1479
85.0897
85.0362
84.9929
84.6855
84.6154
84.0476
83.5427
83.3681
83.9912
84.7765
84.68
84.6073
84.5827
84.5438
84.4865
84.4314
84.3648
84.3132
83.9359
83.8608
83.2827
82.438
82.2607
82.7489
83.6071
83.5852
83.6132
83.6314
83.6002
83.5475
83.4915
83.4042
83.3473
82.9324
82.8721
82.2844
80.6942
80.6531
81.1293
82.0614
82.125
82.2348
82.2917
82.2978
82.2917
82.2819
82.2298
82.2172
81.8165
81.8099
81.241
79.22
79.2074
79.6562
80.6208
80.7144
80.853
80.9344
80.9865
81.0435
81.1177
81.1431
81.2338
80.8897
80.96
80.4842
75.2036
75.7621
76.7839
78.0924
78.525
79.1014
79.6416
80.1889
80.7334
81.228
81.6486
82.0124
81.9521
82.2388
81.6298
83.3167
81.5865
80.0875
79.0406
77.209
76.1684
75.7196
75.7956
76.1725
76.8878
77.7326
78.7411
79.6581
81.1723
82.2586
121.352
121.433
121.45
121.312
121.35
121.273
121.289
121.059
121.074
121.15
121.173
120.683
120.517
120.746
120.396
120.31
120.637
120.722
120.046
119.917
120.202
119.798
119.711
120.254
120.367
119.734
119.555
120.087
120.352
119.616
119.611
120.06
119.644
119.545
120.138
120.54
119.837
119.829
120.377
120.015
119.935
120.527
121.021
120.58
120.442
120.925
121.518
121.055
121.078
121.691
121.481
121.452
121.819
122.362
122.147
122.103
122.338
122.854
122.654
122.618
123.089
123.008
123.01
123.037
123.401
123.298
123.142
123.465
123.36
123.368
123.177
123.149
122.993
122.956
121.994
121.223
122.115
121.204
116.678
117.347
118.438
118.303
117.452
121.531
114.771
115.905
116.291
116.587
116.78
117.046
117.091
116.601
121.173
111.363
111.414
112.808
113.969
114.075
114.431
114.175
113.063
114.422
107.087
106.64
106.008
106.09
106.865
107.356
107.456
106.816
104.846
101.849
96.0212
95.0916
94.0487
93.2923
93.7806
94.6366
93.7686
90.7625
81.802
80.4105
80.1021
79.3572
78.1592
77.3514
76.7484
75.8653
73.3045
63.6771
62.9853
60.5837
59.4713
58.3726
56.895
55.0696
52.3508
49.42
41.0445
44.6287
41.3359
38.9219
36.2907
33.5702
30.9664
28.3872
25.9557
24.8177
15.8354
23.7626
20.9705
19.5896
17.9226
15.1819
11.7731
11.3322
13.2889
2.40494
15.8205
14.2721
12.3029
13.592
12.3803
12.5569
12.6129
13.0932
13.5194
12.524
13.0495
13.2993
12.2834
12.3551
12.3466
12.7446
13.0447
12.0055
12.1248
12.1368
12.6073
12.9108
11.9944
12.5779
12.747
11.7073
11.8814
11.9094
12.3611
12.5787
11.5579
11.7655
11.799
12.2583
12.4662
11.6945
12.2795
12.3191
11.5022
11.7115
11.6754
11.9225
11.908
11.2793
11.4434
11.3215
11.3936
11.2418
10.9343
11.1616
10.8324
10.6835
10.7099
10.3851
10.1469
9.79013
10.1044
10.0988
9.65881
9.24827
8.75313
9.38066
9.17019
8.24681
8.96685
8.63749
7.90585
7.53148
7.06501
8.30682
7.51225
6.27219
5.79562
5.20717
6.40412
4.79543
2.39883
3.84421
2.15329
0.0589195
-0.533779
-0.842448
0.00107316
-0.000919909
-0.00624181
-0.00467058
-0.00499236
-0.00708736
-0.00772901
-0.0093827
-0.0128384
-0.0188828
-0.0210768
-0.0188832
-0.0214024
-0.0368699
-0.0539943
-0.0683724
-0.0875082
-0.114897
-0.14147
-0.165898
-0.187861
-0.208284
-0.218684
-0.218669
-0.214578
-0.210801
-0.207362
-0.186928
-0.139694
-0.0866442
-0.0259225
0.0536562
0.165652
0.31433
0.481246
0.617119
0.652427
0.209796
0.0469689
-0.176819
-0.011667
0.174274
0.239822
0.172689
-0.113332
-0.275848
-0.495335
-0.887916
-1.51031
-2.34288
-3.61201
-4.73947
-3.83278
-0.267107
3.58859
6.05779
8.316
10.4335
9.95324
7.29886
5.67273
4.74621
4.07687
1.88493
0.236354
1.57932
0.116158
-1.9285
-2.4687
-2.33622
-2.56848
-2.3079
-1.90659
-0.943003
0.0267102
0.547383
0.87827
1.0331
1.08466
0.00228285
0.000899832
-0.0103128
-0.00651199
-0.0105091
-0.0183424
-0.0222388
-0.0276451
-0.0350274
-0.0486095
-0.052817
-0.0520171
-0.0673528
-0.104683
-0.135527
-0.154095
-0.189675
-0.231209
-0.264089
-0.290267
-0.309655
-0.330385
-0.334652
-0.329687
-0.324766
-0.326568
-0.325418
-0.285722
-0.181919
-0.0630063
0.0663472
0.22068
0.402698
0.588229
0.748405
0.870811
0.919047
0.262304
-0.0808631
-0.214892
0.239574
0.533803
0.268837
0.0760489
-0.437824
-1.03582
-1.74368
-2.80251
-4.13278
-5.86552
-7.56502
-8.1668
-5.92986
-0.920187
3.93881
7.34793
10.9605
14.2676
14.0345
11.0646
9.107
8.0476
6.76909
3.39843
0.433333
1.01836
-0.989944
-3.05681
-3.98485
-4.02958
-4.32637
-4.08877
-3.58724
-2.14592
-0.901757
0.183398
1.2043
1.56273
1.91547
0.00177717
0.00331454
-0.00999466
-0.00496242
-0.0143568
-0.031529
-0.0436777
-0.053065
-0.0606605
-0.0710622
-0.0724994
-0.0723222
-0.100811
-0.154318
-0.186989
-0.205034
-0.252146
-0.2945
-0.321571
-0.337469
-0.336935
-0.330981
-0.302069
-0.267405
-0.23354
-0.210018
-0.191149
-0.140499
-0.0260538
0.116232
0.274976
0.450742
0.632763
0.782967
0.891557
0.955821
0.816494
0.18294
-0.302581
-0.28784
0.281129
0.889348
0.691494
0.423994
-0.205395
-0.87053
-1.42204
-2.47837
-3.75504
-5.05355
-5.94063
-5.58579
-2.47674
2.65653
6.92807
9.83688
13.3911
16.4068
15.466
12.0377
10.0596
9.22394
7.84289
4.06619
0.193723
-0.0268522
-2.11678
-3.98478
-5.12409
-5.04712
-5.04159
-4.68822
-3.74853
-2.20778
-0.984558
0.269966
1.53629
2.02912
2.7486
-0.00258904
0.00457333
-0.00785788
-0.00139941
-0.016047
-0.0459451
-0.0724891
-0.0848588
-0.0891804
-0.0888607
-0.0862897
-0.0894014
-0.12832
-0.195317
-0.228979
-0.247742
-0.304345
-0.358737
-0.387927
-0.40881
-0.403194
-0.380473
-0.326195
-0.260162
-0.181838
-0.109932
-0.035799
0.0617497
0.214466
0.392688
0.587475
0.783342
0.956786
1.0763
1.16431
1.2072
0.974341
0.340096
-0.114288
-0.111126
0.342254
0.999525
0.960154
0.779292
0.260375
-0.158694
-0.377951
-0.917664
-1.53047
-1.81715
-1.65507
-0.400201
3.11555
7.78364
11.1425
13.3685
16.2857
18.2467
16.3148
12.664
10.8423
10.2304
8.81429
4.77366
0.347801
-0.894676
-3.08166
-4.66534
-5.94061
-5.59919
-5.26019
-4.70634
-3.40327
-1.85644
-0.601632
0.650111
1.90992
2.50638
3.54575
-0.00760758
0.00540389
-0.00519374
0.00347556
-0.0152603
-0.0595324
-0.10614
-0.123862
-0.120574
-0.106445
-0.099602
-0.108966
-0.155816
-0.23144
-0.266193
-0.285911
-0.347161
-0.415206
-0.451952
-0.48482
-0.489923
-0.468506
-0.405478
-0.325909
-0.218566
-0.102559
0.0284192
0.184974
0.389125
0.616938
0.856281
1.08589
1.27183
1.39603
1.49742
1.543
1.25908
0.594411
0.171631
0.111195
0.416042
0.992708
1.10745
1.13157
0.875611
0.831816
0.933309
1.04294
1.19181
1.71271
2.5622
4.3306
7.744
11.6135
14.1386
15.8887
18.0992
18.9666
16.3588
12.8762
11.3177
10.8327
9.38423
5.28036
0.641979
-1.48739
-3.71738
-5.16453
-6.44135
-5.93359
-5.23037
-4.43609
-2.93634
-1.40101
-0.0818593
1.12469
2.31504
2.99179
4.30455
-0.0121514
0.00602452
-0.00327374
0.00731813
-0.0145536
-0.0724454
-0.140301
-0.168057
-0.156754
-0.128923
-0.118022
-0.133244
-0.185529
-0.26685
-0.304817
-0.325871
-0.387393
-0.466153
-0.510445
-0.553686
-0.574434
-0.566141
-0.505724
-0.424222
-0.307941
-0.165397
0.00427192
0.209949
0.460746
0.737189
1.02415
1.29491
1.5102
1.65834
1.77862
1.81008
1.48077
0.79751
0.430463
0.320237
0.435115
0.981806
1.24401
1.52746
1.58146
1.91521
2.32742
2.92587
3.61951
4.54524
5.68131
7.53213
10.4735
13.4851
15.3963
16.8551
18.4953
18.6224
15.789
12.6472
11.37
10.9647
9.61354
5.55238
0.867158
-1.86191
-4.16231
-5.51412
-6.74784
-6.20361
-5.14068
-4.07469
-2.45127
-0.873392
0.472892
1.64669
2.79276
3.51857
4.93851
-0.0159496
0.00728475
-0.00141668
0.0101029
-0.0152622
-0.0851105
-0.171131
-0.211668
-0.197247
-0.159813
-0.144993
-0.16284
-0.217118
-0.301615
-0.3467
-0.369605
-0.427852
-0.513688
-0.563292
-0.612974
-0.64445
-0.651841
-0.601403
-0.521024
-0.403347
-0.248866
-0.0571853
0.180592
0.467028
0.782214
1.11123
1.42226
1.67115
1.84416
1.97748
1.98252
1.6276
0.985294
0.678707
0.520424
0.489728
0.995814
1.39963
1.947
2.29868
2.91391
3.62167
4.47614
5.44564
6.47813
7.6318
9.29192
11.6462
13.9439
15.4349
16.6718
17.9036
17.6648
14.976
12.2224
11.1522
10.8475
9.61958
5.63657
0.990695
-2.07689
-4.43428
-5.72885
-6.98415
-6.4095
-5.05288
-3.6999
-1.92262
-0.254955
1.05242
2.22573
3.35738
4.08009
5.51654
-0.0196289
0.0088919
0.00039811
0.0118317
-0.0182209
-0.0980966
-0.197192
-0.249545
-0.238318
-0.198562
-0.181109
-0.198016
-0.250871
-0.33574
-0.391063
-0.417727
-0.471274
-0.559999
-0.613326
-0.665439
-0.699603
-0.717695
-0.678999
-0.602671
-0.483775
-0.322565
-0.118205
0.138428
0.449356
0.793239
1.15347
1.4966
1.77311
1.96413
2.09764
2.07898
1.73766
1.18384
0.925152
0.737229
0.60595
1.05013
1.5959
2.34973
2.95966
3.76025
4.69833
5.65219
6.71696
7.71115
8.74859
10.1245
11.9483
13.708
14.8803
15.9032
16.8483
16.4903
14.1431
11.7968
10.8368
10.5655
9.31202
5.57432
1.06449
-2.19692
-4.63101
-5.9603
-7.22081
-6.51895
-4.93295
-3.31409
-1.3416
0.412002
1.63175
2.83677
3.97705
4.66672
6.04357
-0.0234009
0.0105735
0.00234419
0.0124527
-0.023672
-0.111679
-0.21874
-0.279937
-0.276496
-0.242055
-0.224815
-0.238572
-0.287627
-0.370843
-0.435694
-0.467785
-0.517395
-0.606138
-0.661584
-0.713661
-0.745843
-0.765301
-0.734171
-0.662554
-0.542852
-0.376523
-0.16265
0.106292
0.433663
0.798153
1.17908
1.54261
1.83701
2.03733
2.14896
2.10154
1.80087
1.37039
1.15525
0.967368
0.812053
1.19318
1.8556
2.72585
3.54332
4.49661
5.58837
6.60628
7.68623
8.60453
9.48389
10.5713
11.9517
13.2875
14.1799
14.99
15.7283
15.3751
13.3945
11.4266
10.483
10.1478
8.74363
5.29024
1.10078
-2.27597
-4.84503
-6.24649
-7.45276
-6.56681
-4.76
-2.91491
-0.711491
1.05683
2.18237
3.42812
4.59891
5.25601
6.46821
-0.0272149
0.012155
0.00460162
0.0121142
-0.0310158
-0.125429
-0.236304
-0.303324
-0.310097
-0.286607
-0.273118
-0.283335
-0.327726
-0.408967
-0.480555
-0.51741
-0.564793
-0.652857
-0.708365
-0.759499
-0.788017
-0.801321
-0.770321
-0.698723
-0.577317
-0.406175
-0.183133
0.0964945
0.435718
0.813615
1.20538
1.57713
1.88151
2.08258
2.16182
2.09348
1.86105
1.57575
1.40614
1.21555
1.09684
1.45203
2.20303
3.12638
4.10266
5.21556
6.44391
7.56656
8.64933
9.498
10.2145
11.0183
12.0008
12.9664
13.5994
14.2054
14.7958
14.5067
12.8129
11.108
10.1487
9.65479
8.08679
4.85953
1.04417
-2.27534
-5.11019
-6.55305
-7.6389
-6.59687
-4.55071
-2.51124
-0.0614861
1.63581
2.69324
3.96606
5.17663
5.80527
6.85886
-0.0308916
0.0135529
0.007065
0.0110638
-0.0392943
-0.138579
-0.250282
-0.320734
-0.338383
-0.328758
-0.322111
-0.330097
-0.370258
-0.450468
-0.526339
-0.565355
-0.611747
-0.698869
-0.754
-0.80323
-0.828089
-0.832322
-0.794099
-0.715761
-0.587287
-0.408694
-0.175948
0.114881
0.463534
0.847486
1.23872
1.60636
1.91313
2.10553
2.15939
2.0916
1.95094
1.80234
1.69085
1.52084
1.45495
1.83337
2.66528
3.63217
4.73791
6.02665
7.42448
8.6981
9.80888
10.5934
11.1413
11.6507
12.2391
12.8516
13.2412
13.6541
14.1529
13.9625
12.4545
10.8171
9.81823
9.10514
7.41391
4.42675
0.881234
-2.25673
-5.38962
-6.80712
-7.72277
-6.60951
-4.31328
-2.0795
0.56213
2.14347
3.16956
4.45259
5.68706
6.30505
7.23728
-0.0342637
0.0148107
0.00958466
0.00966299
-0.0475397
-0.150411
-0.261234
-0.333595
-0.36137
-0.365961
-0.367925
-0.37584
-0.413232
-0.493774
-0.572311
-0.611503
-0.656504
-0.74217
-0.796764
-0.843862
-0.865752
-0.860966
-0.811659
-0.720065
-0.577469
-0.385793
-0.141212
0.161617
0.51855
0.90247
1.28213
1.63464
1.93151
2.10764
2.14351
2.08782
2.05691
2.05832
2.0133
1.8992
1.89452
2.34171
3.26103
4.31801
5.54812
7.02253
8.62893
10.0683
11.2278
11.9363
12.2976
12.4919
12.6761
12.9374
13.1002
13.3379
13.7865
13.6963
12.3182
10.5759
9.45677
8.47746
6.67936
3.98681
0.673308
-2.33818
-5.67991
-6.95481
-7.71274
-6.54026
-4.03099
-1.59869
1.12301
2.593
3.62423
4.89935
6.12822
6.76285
7.60845
-0.0372897
0.0159532
0.0120299
0.00831306
-0.0547959
-0.160107
-0.269525
-0.343286
-0.379824
-0.397169
-0.407971
-0.417712
-0.454298
-0.536452
-0.616834
-0.654919
-0.697293
-0.780664
-0.833907
-0.879786
-0.898726
-0.886484
-0.825837
-0.717087
-0.555083
-0.344358
-0.0840378
0.231596
0.596275
0.976596
1.33647
1.6633
1.93278
2.09834
2.13514
2.11591
2.1997
2.33569
2.35598
2.33348
2.43105
2.98118
4.0011
5.22125
6.59463
8.25467
10.0825
11.6687
12.8697
13.4745
13.6253
13.489
13.2679
13.1863
13.1479
13.2393
13.6397
13.5996
12.3068
10.3931
9.02401
7.74903
5.8044
3.37562
0.400216
-2.62978
-5.96654
-7.12706
-7.67795
-6.32331
-3.72126
-1.11201
1.60401
3.00003
4.06615
5.30222
6.50542
7.17233
7.99285
-0.0400272
0.0168979
0.0141797
0.00719857
-0.0603654
-0.166962
-0.275087
-0.350455
-0.394462
-0.422311
-0.440996
-0.453709
-0.491449
-0.576342
-0.658113
-0.693908
-0.733167
-0.812667
-0.863498
-0.908442
-0.924575
-0.905991
-0.835657
-0.709646
-0.525694
-0.292531
-0.0130062
0.317092
0.690208
1.06726
1.40491
1.69283
1.91794
2.07917
2.14249
2.19053
2.38137
2.63391
2.73601
2.80571
3.06704
3.75728
4.89616
6.34306
7.90192
9.74151
11.7532
13.4514
14.6572
15.1317
15.0547
14.5884
13.9802
13.5761
13.3637
13.3353
13.6604
13.5917
12.2996
10.2264
8.50447
6.96026
4.82187
2.44634
-0.100827
-3.16205
-6.32418
-7.43814
-7.71398
-6.00597
-3.41435
-0.64136
1.99947
3.37562
4.49225
5.65363
6.82163
7.53745
8.33618
-0.0425208
0.0175599
0.0158062
0.00625329
-0.0640231
-0.170743
-0.277793
-0.355162
-0.405552
-0.441572
-0.466532
-0.482603
-0.523244
-0.611841
-0.694532
-0.727101
-0.763133
-0.837656
-0.884422
-0.927681
-0.941475
-0.917042
-0.838541
-0.697182
-0.491887
-0.235849
0.0636747
0.409658
0.793507
1.17151
1.49075
1.72865
1.90195
2.05274
2.15784
2.29621
2.6017
2.9533
3.16746
3.33608
3.79238
4.6669
5.95447
7.64281
9.44845
11.4588
13.5922
15.3567
16.5191
16.8487
16.5429
15.7666
14.8029
14.0983
13.7251
13.5832
13.8046
13.6281
12.2299
9.99286
7.90891
6.06777
3.66755
1.20194
-0.979909
-3.94186
-6.89139
-7.85538
-7.84713
-5.70939
-3.10747
-0.170764
2.31693
3.73356
4.88666
5.94608
7.0761
7.85414
8.67178
-0.044737
0.0179339
0.0168074
0.00537874
-0.0659018
-0.171649
-0.277732
-0.357292
-0.41303
-0.455055
-0.484419
-0.503773
-0.548606
-0.641375
-0.724362
-0.753226
-0.785975
-0.855098
-0.896385
-0.936183
-0.947574
-0.918254
-0.831853
-0.676834
-0.452955
-0.175828
0.141564
0.502159
0.898798
1.28291
1.5877
1.77297
1.89776
2.04208
2.21295
2.46245
2.87632
3.31379
3.63898
3.94009
4.60277
5.69679
7.17264
9.08161
11.1671
13.3455
15.55
17.3312
18.4108
18.5907
18.0713
17.0189
15.7321
14.737
14.1945
13.9258
14.02
13.676
12.065
9.61245
7.19622
4.97337
2.28815
-0.308187
-2.28435
-5.04256
-7.70841
-8.41353
-7.96332
-5.44792
-2.79005
0.315447
2.59856
4.08835
5.23032
6.17507
7.26824
8.12965
8.98076
-0.0465917
0.0180689
0.0172063
0.0045941
-0.0662503
-0.170096
-0.275215
-0.356847
-0.416764
-0.462732
-0.494606
-0.516985
-0.566612
-0.663246
-0.745683
-0.770759
-0.800153
-0.863436
-0.898924
-0.933322
-0.940858
-0.907376
-0.813339
-0.645098
-0.405546
-0.110963
0.220447
0.591314
1.00111
1.39729
1.69194
1.83334
1.91146
2.05493
2.31168
2.68395
3.202
3.74098
4.16228
4.62424
5.49941
6.8345
8.53267
10.6386
12.9844
15.3313
17.5673
19.3305
20.3036
20.3355
19.628
18.3369
16.7515
15.4597
14.7214
14.3046
14.2425
13.7045
11.8102
9.05311
6.29918
3.59108
0.562279
-2.14677
-4.00893
-6.55957
-8.83444
-9.15304
-8.01824
-5.16801
-2.42914
0.804452
2.88997
4.44231
5.50443
6.34083
7.40072
8.3693
9.26425
-0.0480243
0.0180337
0.017116
0.00403267
-0.0652439
-0.166512
-0.270622
-0.354053
-0.416877
-0.464704
-0.497238
-0.522184
-0.576628
-0.676109
-0.756802
-0.778045
-0.803929
-0.86062
-0.890207
-0.91856
-0.919477
-0.88113
-0.77981
-0.598199
-0.344875
-0.0371718
0.302745
0.677454
1.09775
1.50959
1.80148
1.91683
1.95475
2.09729
2.43995
2.94446
3.56758
4.22593
4.75794
5.39379
6.48516
8.07385
10.0069
12.3045
14.8525
17.3596
19.5939
21.3155
22.1678
22.0629
21.1954
19.6969
17.8269
16.2203
15.2478
14.6574
14.4035
13.6587
11.4689
8.31101
5.14866
1.87287
-1.64018
-4.46865
-6.19875
-8.57056
-10.3428
-10.1102
-8.09799
-4.90418
-1.99563
1.25254
3.18219
4.76939
5.69304
6.44785
7.48289
8.57128
9.54977
-0.0490639
0.0178565
0.016682
0.00385433
-0.0629251
-0.161169
-0.264209
-0.349175
-0.413755
-0.461415
-0.492754
-0.519555
-0.578474
-0.67929
-0.75659
-0.773672
-0.79574
-0.844652
-0.867867
-0.890124
-0.8822
-0.83674
-0.727785
-0.532765
-0.266229
0.0508111
0.392967
0.764631
1.18926
1.61298
1.91102
2.01988
2.04386
2.2102
2.64035
3.25733
3.97733
4.75566
5.43177
6.25397
7.56497
9.40749
11.5745
14.0524
16.7394
19.3815
21.5904
23.2474
23.9741
23.7511
22.7478
21.0634
18.9156
16.9746
15.7292
14.9383
14.4584
13.4689
10.9918
7.37914
3.6707
-0.223428
-4.33971
-7.35658
-8.9685
-11.1174
-12.3
-11.3137
-8.28457
-4.69227
-1.55375
1.60617
3.43246
5.03659
5.80572
6.50648
7.53089
8.74436
9.8218
-0.0498078
0.0175007
0.0159916
0.00410396
-0.0593416
-0.1542
-0.25605
-0.342312
-0.407823
-0.453591
-0.481969
-0.509675
-0.57236
-0.672699
-0.744616
-0.756899
-0.774493
-0.814109
-0.830175
-0.845664
-0.827865
-0.772941
-0.65512
-0.446765
-0.166832
0.157629
0.497464
0.860961
1.28134
1.70819
2.02154
2.13927
2.17479
2.39319
2.9154
3.62297
4.43758
5.34228
6.18428
7.20076
8.73136
10.8204
13.2215
15.856
18.6144
21.3437
23.5176
25.0906
25.7026
25.3795
24.258
22.4017
19.9842
17.7007
16.1562
15.138
14.3944
13.1035
10.3149
6.22713
1.79104
-2.85705
-7.60833
-10.8234
-12.4312
-14.2512
-14.7512
-12.8158
-8.71489
-4.60928
-1.16105
1.84807
3.63821
5.2307
5.87121
6.53137
7.56267
8.90468
10.071
-0.050338
0.0169311
0.0150673
0.00467072
-0.0547117
-0.145754
-0.246149
-0.333411
-0.399359
-0.442063
-0.466057
-0.493513
-0.558819
-0.656689
-0.721184
-0.727826
-0.739729
-0.768522
-0.776557
-0.783918
-0.755713
-0.690171
-0.561748
-0.340462
-0.0461889
0.285783
0.621369
0.973228
1.37858
1.80206
2.13946
2.28485
2.35611
2.64286
3.26037
4.04051
4.94522
5.99712
7.02326
8.2324
9.97111
12.288
14.9159
17.6908
20.4661
23.2113
25.345
26.8286
27.3448
26.9343
25.7064
23.6904
21.0191
18.4005
16.5412
15.2672
14.2178
12.5729
9.40858
4.77701
-0.587587
-6.22747
-11.5812
-14.9063
-16.6148
-18.0224
-17.711
-14.6829
-9.49254
-4.68097
-0.786255
2.04008
3.82914
5.35965
5.91263
6.54166
7.5971
9.059
10.3038
-0.0506439
0.0162264
0.0139591
0.00536978
-0.0494502
-0.136138
-0.23458
-0.322364
-0.388441
-0.42754
-0.44633
-0.472345
-0.538631
-0.631936
-0.68716
-0.687142
-0.691545
-0.708165
-0.707083
-0.704816
-0.665909
-0.589876
-0.449584
-0.215515
0.0949033
0.436876
0.769748
1.10595
1.48554
1.90307
2.26727
2.46269
2.60826
2.98545
3.68029
4.52231
5.51771
6.7207
7.94925
9.34592
11.2826
13.7906
16.6142
19.5216
22.2914
24.986
27.067
28.4656
28.9013
28.413
27.0871
24.9247
22.0219
19.0838
16.8966
15.337
13.9456
11.9011
8.26457
2.9401
-3.5674
-10.4604
-16.4022
-19.7246
-21.5257
-22.4832
-21.228
-17.0084
-10.6515
-4.90772
-0.384471
2.266
4.00754
5.44595
5.96683
6.56948
7.65554
9.21315
10.5175
-0.050604
0.0156364
0.0128227
0.00603358
-0.0440827
-0.125887
-0.221615
-0.309157
-0.374967
-0.410466
-0.42403
-0.447604
-0.512755
-0.59936
-0.643832
-0.635919
-0.630554
-0.633767
-0.622139
-0.608984
-0.559149
-0.473775
-0.321643
-0.0744557
0.25392
0.610856
0.946138
1.26306
1.61218
2.02438
2.4132
2.6701
2.91377
3.40158
4.16569
5.07621
6.1604
7.50307
8.95414
10.5346
12.6657
15.3218
18.2939
21.3105
24.0826
26.6878
28.6985
30.0139
30.3805
29.8244
28.4072
26.1112
22.9996
19.7573
17.2282
15.3553
13.5952
11.1079
6.88462
0.658338
-7.21829
-15.5499
-22.1245
-25.3937
-27.1894
-27.6442
-25.3926
-19.9198
-12.2661
-5.35467
-0.0169117
2.54188
4.16963
5.52421
6.06614
6.63931
7.75634
9.37231
10.7156
-0.0500403
0.0155392
0.0119522
0.00661013
-0.0391157
-0.115718
-0.207796
-0.293995
-0.358805
-0.391026
-0.40013
-0.420707
-0.482365
-0.560123
-0.592816
-0.575598
-0.558133
-0.546587
-0.522612
-0.49718
-0.436481
-0.343349
-0.181015
0.0795019
0.427057
0.804808
1.14793
1.44547
1.76703
2.17424
2.5925
2.92505
3.27794
3.87878
4.71978
5.70145
6.8722
8.34588
10.0149
11.783
14.0968
16.8765
19.9557
23.0403
25.8272
28.335
30.2595
31.4902
31.797
31.1831
29.6801
27.2602
23.9569
20.4212
17.535
15.3236
13.1775
10.1974
5.26213
-2.10943
-11.5863
-21.4472
-28.6932
-31.8835
-33.6238
-33.5056
-30.2636
-23.498
-14.3836
-6.0244
0.270627
2.85888
4.31802
5.62872
6.21405
6.75797
7.90792
9.5425
10.9048
-0.0488087
0.0163476
0.01176
0.00723217
-0.0348524
-0.106315
-0.193887
-0.27738
-0.340043
-0.369249
-0.375163
-0.392832
-0.448906
-0.515664
-0.53576
-0.50783
-0.476461
-0.448418
-0.410054
-0.370661
-0.299553
-0.200281
-0.0305063
0.242467
0.610164
1.01414
1.36922
1.65253
1.95241
2.35349
2.81007
3.2354
3.70891
4.4119
5.33476
6.38876
7.65202
9.25884
11.1014
13.0721
15.5332
18.437
21.5944
24.7016
27.5043
29.9344
31.7647
32.9131
33.1679
32.5041
30.9191
28.3795
24.8947
21.0716
17.8143
15.2415
12.6948
9.16114
3.38105
-5.38946
-16.6994
-28.169
-36.0595
-39.0753
-40.7622
-40.0564
-35.7901
-27.7285
-17.0523
-6.96218
0.446135
3.2116
4.45161
5.79572
6.40022
6.92237
8.10519
9.72899
11.0898
-0.0468948
0.0183611
0.0126702
0.00821003
-0.0312492
-0.0980948
-0.180668
-0.260098
-0.319178
-0.345278
-0.34926
-0.364675
-0.413908
-0.467811
-0.474307
-0.434343
-0.387986
-0.341627
-0.286626
-0.231325
-0.150523
-0.0468942
0.127222
0.41062
0.799458
1.23289
1.6049
1.88522
2.16992
2.56859
3.07061
3.59154
4.18502
4.98613
5.99576
7.12772
8.49092
10.2396
12.1962
14.3868
16.94
19.9794
23.1899
26.2958
29.0934
31.4761
33.2231
34.2966
34.5073
33.799
32.133
29.4733
25.8118
21.7061
18.0676
15.1102
12.1384
7.98245
1.21403
-9.19003
-22.5338
-35.6992
-44.2191
-46.926
-48.4425
-47.1506
-41.8806
-32.5763
-20.3084
-8.30701
0.325048
3.54709
4.56339
6.02921
6.60715
7.12918
8.3334
9.92647
11.2546
-0.0444571
0.0216513
0.0149729
0.00995223
-0.0279369
-0.0910388
-0.168636
-0.242991
-0.297105
-0.319667
-0.32247
-0.336362
-0.378447
-0.418505
-0.410397
-0.357201
-0.294943
-0.228781
-0.154854
-0.0820022
0.00776364
0.113803
0.289044
0.580399
0.991009
1.45351
1.84765
2.13645
2.41338
2.82155
3.38337
4.00306
4.70079
5.59727
6.69828
7.90885
9.36647
11.2507
13.3298
15.6994
18.3176
21.4671
24.7171
27.8222
30.5962
32.9457
34.6377
35.6481
35.8233
35.0742
33.3268
30.5435
26.708
22.325
18.2991
14.9295
11.4878
6.63036
-1.28962
-13.5136
-29.0095
-43.9479
-53.1187
-55.3426
-56.424
-54.5665
-48.4421
-37.9913
-24.1451
-10.2098
-0.267732
3.6973
4.67063
6.29989
6.82079
7.37446
8.57571
10.1255
11.4146
-0.0417927
0.0260428
0.0186957
0.0127797
-0.0244043
-0.0847126
-0.15778
-0.226609
-0.27484
-0.293409
-0.295195
-0.30786
-0.342911
-0.369103
-0.345944
-0.278782
-0.19961
-0.112415
-0.0174788
0.0738323
0.171898
0.278586
0.452082
0.749485
1.18106
1.67196
2.09524
2.40063
2.67871
3.10665
3.73559
4.45854
5.25345
6.23815
7.43213
8.72333
10.257
12.2456
14.5278
16.9522
19.6943
22.8719
26.1574
29.2775
32.0332
34.3416
36.0034
36.969
37.1177
36.332
34.5028
31.5923
27.5847
22.9313
18.5151
14.6998
10.7224
5.06821
-4.18106
-18.3445
-35.9905
-52.6942
-62.4645
-63.9724
-64.4092
-62.0545
-55.2705
-43.8259
-28.5199
-12.7866
-1.41756
3.59897
4.87179
6.55846
7.03746
7.64328
8.81922
10.3252
11.5757
-0.0392253
0.031188
0.0235807
0.0167528
-0.0202449
-0.0785086
-0.147657
-0.211024
-0.253116
-0.267559
-0.268231
-0.279478
-0.3075
-0.320264
-0.282276
-0.201053
-0.104163
0.00512746
0.122476
0.232605
0.33845
0.444402
0.614153
0.915989
1.36522
1.88582
2.34594
2.67439
2.96692
3.42632
4.12019
4.93697
5.82522
6.89459
8.1814
9.5604
11.1527
13.2023
15.7369
18.1807
21.018
24.2062
27.496
30.6428
33.4055
35.6681
37.3114
38.2552
38.3885
37.5727
35.6632
32.6233
28.4457
23.5311
18.7247
14.4251
9.83121
3.26359
-7.49261
-23.6503
-43.3255
-61.6213
-71.8814
-72.5755
-72.1525
-69.3932
-62.1813
-49.9006
-33.371
-16.0391
-3.13483
3.29629
5.27413
6.76649
7.26357
7.91344
9.06059
10.5235
11.7059
-0.0369859
0.0367055
0.029197
0.0216508
-0.0153216
-0.071951
-0.137691
-0.195947
-0.232187
-0.242773
-0.242306
-0.251756
-0.272588
-0.272422
-0.220207
-0.125172
-0.0101917
0.121774
0.262034
0.391149
0.504645
0.609242
0.774805
1.07832
1.54189
2.09602
2.59743
2.95366
3.27156
3.77187
4.53426
5.4406
6.41017
7.55697
8.93309
10.4122
12.0577
14.1178
16.8662
19.4543
22.2481
25.535
28.7586
31.8932
34.6845
36.9276
38.5582
39.5009
39.633
38.7959
36.8108
33.642
29.2971
24.1326
18.9392
14.1135
8.81431
1.1928
-11.2274
-29.3533
-50.8162
-70.3628
-80.9776
-81.0278
-79.6299
-76.3954
-68.9919
-56.0735
-38.5972
-19.8961
-5.31922
2.86193
5.81031
6.9287
7.49756
8.17292
9.3021
10.7183
11.8272
-0.0351602
0.0422948
0.035101
0.0271024
-0.00974882
-0.0648428
-0.127462
-0.18102
-0.211987
-0.219236
-0.217717
-0.225004
-0.238537
-0.226031
-0.16035
-0.0516809
0.0813126
0.235555
0.398553
0.546697
0.668113
0.771606
0.933009
1.23414
1.71157
2.30411
2.84929
3.24075
3.58899
4.12889
4.95937
5.95467
7.0037
8.21595
9.67357
11.2686
12.9803
15.012
17.8672
20.7117
23.4346
26.8116
30.0022
33.0413
35.8621
38.125
39.7496
40.7048
40.8498
40.002
37.9493
34.6555
30.1478
24.7478
19.1751
13.7849
7.69291
-1.1373
-15.3361
-35.3043
-58.1866
-78.5104
-89.2474
-88.874
-86.748
-83.0323
-75.4406
-62.2187
-44.075
-24.2413
-7.80307
2.33501
6.27586
7.09604
7.74159
8.42573
9.54807
10.9065
11.916
-0.033739
0.0477681
0.0409605
0.0327531
-0.00375146
-0.0572002
-0.116769
-0.165971
-0.192328
-0.196839
-0.194355
-0.199144
-0.205437
-0.181428
-0.10317
0.0190938
0.169499
0.34475
0.529896
0.69704
0.827291
0.930969
1.08677
1.38273
1.87592
2.50873
3.10131
3.5373
3.9179
4.49422
5.38617
6.46225
7.59142
8.85955
10.3873
12.1065
13.9215
15.9162
18.7574
21.8411
24.6228
27.9501
31.381
34.1884
36.9822
39.2635
40.8967
41.8722
42.0404
41.193
39.0841
35.6732
31.0105
25.3932
19.4541
13.4667
6.49537
-3.70479
-19.7465
-41.3435
-65.1815
-85.7608
-96.4004
-95.7684
-93.2141
-89.2028
-81.4157
-68.1786
-49.6294
-28.9051
-10.5133
1.59825
6.4799
7.34313
7.99345
8.67427
9.79663
11.0809
12.0019
-0.0326856
0.0530174
0.0465799
0.0383509
0.00246291
-0.0491172
-0.105542
-0.150592
-0.172961
-0.175314
-0.171895
-0.173866
-0.173133
-0.138716
-0.0489792
0.0865424
0.253252
0.447927
0.654328
0.840496
0.981376
1.08661
1.23455
1.52539
2.03507
2.70688
3.35301
3.83778
4.25283
4.86804
5.81315
6.96093
8.16546
9.48057
11.0608
12.8982
14.8649
16.8499
19.5875
22.8412
25.8182
28.6103
32.704
35.3526
38.0769
40.3509
42.0102
43.0114
43.2084
42.3726
40.2221
36.707
31.9013
26.0873
19.7938
13.1781
5.23143
-6.49908
-24.3977
-47.3503
-71.6495
-92.0363
-102.48
-101.73
-98.9616
-94.7862
-86.9073
-73.7791
-55.0803
-33.7381
-13.4848
0.485304
6.36348
7.72927
8.26839
8.92337
10.0348
11.2466
12.1027
-0.0319438
0.0579906
0.0518882
0.0437687
0.00876887
-0.0406695
-0.0937404
-0.134719
-0.153623
-0.15433
-0.149968
-0.148874
-0.141463
-0.0978713
0.00192281
0.149524
0.33122
0.543799
0.770479
0.975887
1.12958
1.23732
1.37744
1.66528
2.18935
2.89817
3.60081
4.13554
4.59063
5.2435
6.23593
7.45068
8.72492
10.0826
11.694
13.6168
15.7597
17.8256
20.4036
23.712
27.0505
29.4788
33.7932
36.6012
39.1571
41.4179
43.0969
44.1296
44.359
43.5456
41.3707
37.769
32.8353
26.843
20.2018
12.9237
3.89246
-9.51389
-29.2362
-53.2409
-77.5246
-97.3667
-107.565
-106.842
-104.036
-99.7693
-91.8744
-78.8981
-60.3254
-38.6131
-16.7615
-1.08931
6.01874
8.24026
8.56918
9.17007
10.2527
11.4072
12.1915
-0.0313941
0.0626848
0.0569271
0.0490144
0.0151528
-0.0318749
-0.0813425
-0.118287
-0.134152
-0.133616
-0.128286
-0.124054
-0.110464
-0.0589907
0.0490027
0.206759
0.402156
0.631484
0.877754
1.10272
1.27057
1.3826
1.51879
1.80539
2.34
3.08272
3.83749
4.42783
4.93001
5.61539
6.64722
7.92289
9.26878
10.6773
12.2996
14.2554
16.5665
18.8281
21.2185
24.346
28.1607
31.4798
32.0371
37.8599
40.2731
42.5195
44.1652
45.232
45.4974
44.7167
42.5356
38.8678
33.8223
27.6648
20.6752
12.698
2.46314
-12.7373
-34.2097
-58.9549
-82.7929
-101.832
-111.757
-111.233
-108.522
-104.207
-96.3297
-83.5314
-65.2815
-43.3715
-20.3255
-3.10174
5.55663
8.78278
8.86185
9.40368
10.4595
11.5546
12.2902
-0.0307793
0.0671617
0.0618619
0.0542432
0.0217272
-0.0227041
-0.068392
-0.101393
-0.114575
-0.113061
-0.106716
-0.0994697
-0.0803912
-0.0225338
0.0915727
0.257435
0.465293
0.710714
0.97611
1.2203
1.40338
1.52416
1.66251
1.94748
2.4873
3.25669
4.05969
4.71318
5.2662
5.98393
7.04323
8.36933
9.79458
11.2695
12.8917
14.8396
17.2615
19.7948
22.1278
24.9141
28.7546
32.7619
35.8372
38.4998
41.2894
43.6153
45.2224
46.3221
46.6281
45.8892
43.7191
40.0064
34.8641
28.548
21.2051
12.4897
0.929203
-16.1494
-39.2639
-64.4412
-87.4808
-105.565
-115.208
-115.065
-112.524
-108.185
-100.323
-87.7048
-69.8507
-47.8612
-24.0602
-5.41506
4.96739
9.24132
9.16455
9.61277
10.6513
11.6865
12.4154
-0.0296677
0.0715099
0.0669501
0.0596944
0.0286543
-0.0131594
-0.0550844
-0.0843495
-0.0951592
-0.0927722
-0.0853051
-0.0752991
-0.051705
0.0108744
0.129287
0.301468
0.520537
0.781559
1.06514
1.32805
1.52928
1.66551
1.81007
2.09086
2.63094
3.41862
4.26748
4.98638
5.59807
6.34856
7.42436
8.7876
10.2912
11.8472
13.4902
15.4079
17.8307
20.6208
23.1733
25.7208
29.0968
32.7171
37.5865
38.6202
42.0968