/*--------------------------------*- C++ -*----------------------------------*\
| =========                 |                                                 |
| \\      /  F ield         | OpenFOAM: The Open Source CFD Toolbox           |
|  \\    /   O peration     | Version:  4.1                                   |
|   \\  /    A nd           | Web:      www.OpenFOAM.org                      |
|    \\/     M anipulation  |                                                 |
\*---------------------------------------------------------------------------*/
FoamFile
{
    version     2.0;
    format      ascii;
    class       volScalarField;
    location    "11";
    object      p;
}
// * * * * * * * * * * * * * * * * * * * * * * * * * * * * * * * * * * * * * //

dimensions      [0 2 -2 0 0 0 0];

internalField   nonuniform List<scalar> 
225
(
523.378
469.981
418.149
369.738
324.847
282.83
243.476
206.472
171.377
138.014
107.072
78.9329
49.904
14.9852
-14.167
56.9437
34.6827
28.9241
25.2138
19.7398
14.0323
8.87939
4.49063
1.0067
-1.45205
-2.64335
-2.1417
-0.045262
1.82626
2.08643
-45.8387
-52.4817
-46.7148
-42.5679
-39.4773
-35.882
-31.9957
-28.0583
-24.1539
-20.4381
-17.0925
-14.0254
-10.9486
-8.29579
-7.06155
0.294959
-2.1231
2.4697
2.79384
2.84742
3.06261
2.97347
2.59617
2.0146
1.25541
0.298663
-0.810687
-1.72099
-1.87323
-1.56277
16.7228
14.39
15.9437
13.8457
12.4268
11.1833
9.77333
8.39147
7.13403
6.04297
5.14196
4.42942
3.95182
3.9191
4.16396
7.49466
5.4716
6.44558
5.22623
5.02321
5.00744
4.91965
4.95296
5.10855
5.35205
5.67134
6.03422
6.35388
6.61059
6.78533
4.02306
2.86759
3.95317
3.63005
4.01687
4.411
4.70999
5.06065
5.41722
5.74199
6.03169
6.2856
6.46383
6.54485
6.56056
5.70075
5.14293
5.99729
5.7683
5.96683
6.07935
6.10326
6.14856
6.17314
6.16829
6.14458
6.11676
6.08309
6.03723
5.98874
6.00821
5.68282
6.19367
5.91779
5.9606
5.92973
5.8546
5.80744
5.75176
5.69114
5.63184
5.57868
5.53193
5.48582
5.4346
4.68841
4.4807
4.82633
4.64987
4.72254
4.73142
4.71847
4.72663
4.72401
4.71723
4.70763
4.6929
4.67068
4.63539
4.57765
3.31746
3.20122
3.49881
3.44485
3.56445
3.61118
3.63987
3.67491
3.6916
3.69854
3.69659
3.68411
3.66009
3.62184
3.55629
2.34274
2.28252
2.53681
2.53819
2.65666
2.69818
2.72737
2.75454
2.76215
2.76009
2.74868
2.72777
2.69791
2.65914
2.5945
1.56416
1.52922
1.73171
1.74568
1.845
1.87146
1.89383
1.91095
1.91125
1.90437
1.88977
1.86751
1.83792
1.80318
1.74532
0.880485
0.868447
1.02949
1.03423
1.11119
1.12472
1.14247
1.15449
1.15388
1.1489
1.13798
1.12094
1.09595
1.0648
1.0106
0.43884
0.39957
0.455393
0.423185
0.459219
0.440477
0.434105
0.420045
0.399151
0.376474
0.349873
0.321196
0.290775
0.260834
0.217824
)
;

boundaryField
{
    inletFace
    {
        type            zeroGradient;
    }
    inlet
    {
        type            zeroGradient;
    }
    inletWalls
    {
        type            zeroGradient;
    }
    outletInlet
    {
        type            fixedValue;
        value           uniform 0;
    }
}


// ************************************************************************* //
