/*--------------------------------*- C++ -*----------------------------------*\
| =========                 |                                                 |
| \\      /  F ield         | OpenFOAM: The Open Source CFD Toolbox           |
|  \\    /   O peration     | Version:  4.1                                   |
|   \\  /    A nd           | Web:      www.OpenFOAM.org                      |
|    \\/     M anipulation  |                                                 |
\*---------------------------------------------------------------------------*/
FoamFile
{
    version     2.0;
    format      ascii;
    class       surfaceScalarField;
    location    "11";
    object      phi;
}
// * * * * * * * * * * * * * * * * * * * * * * * * * * * * * * * * * * * * * //

dimensions      [0 3 -1 0 0 0 0];

internalField   nonuniform List<scalar> 
420
(
-949.879
2249.78
-1573.96
1924.28
-2054
1779.95
-2424.23
1670.13
-2699.86
1575.83
-2888.38
1488.42
-2993.06
1404.58
-3013.86
1321
-2949.61
1235.66
-2797.23
1147.52
-2551.17
1054.13
-2193
941.735
-1687.17
794.065
-1012.67
625.704
287.229
373.335
1876.44
442.748
1854.86
437.301
1785.39
406.697
1700.74
380.579
1601.94
359.9
1509.1
345.291
1419.19
337.534
1328.76
333.482
1239.71
326.952
1154.05
309.608
1071.48
267.466
983.878
191.427
870.104
111.447
705.684
398.676
33.5756
1842.87
-97.389
1985.83
-253.613
1941.62
-371.12
1818.24
-473.183
1704.01
-567.532
1603.45
-651.749
1503.4
-725.796
1402.8
-788.074
1301.99
-837.307
1203.28
-868.226
1102.4
-856.089
971.74
-740.336
754.351
-434.284
399.633
-35.6077
28.7765
1814.09
-100.652
2115.26
-225.56
2066.53
-304.496
1897.18
-368.157
1767.67
-416.954
1652.24
-446.229
1532.68
-457.016
1413.59
-451.854
1296.83
-430.156
1181.59
-387.227
1059.47
-311.874
896.386
-192.866
635.343
-48.4076
255.176
-84.0155
169.626
1644.47
146.159
2138.72
123.734
2088.95
122.871
1898.04
126.944
1763.6
135.807
1643.38
149.104
1519.38
166.593
1396.1
186.944
1276.48
208.132
1160.4
229.132
1038.47
243.823
881.696
233.004
646.162
155.23
332.951
71.2142
223.079
1421.39
244.185
2117.62
234.748
2098.39
236.027
1896.76
240.375
1759.25
244.309
1639.45
246.55
1517.14
245.254
1397.4
241.165
1280.57
233.991
1167.57
221.384
1051.08
199.141
903.941
156.143
689.162
78.3033
410.793
149.518
203.323
1218.07
238.379
2082.57
213.623
2123.14
191.411
1918.97
177.203
1773.46
163.771
1652.88
150.038
1530.87
135.896
1411.54
121.071
1295.39
106.919
1181.72
92.8232
1065.17
75.7723
920.991
52.0252
712.909
19.0225
443.796
168.54
171.858
1046.21
221.986
2032.43
199.424
2145.7
170.406
1947.99
152.058
1791.81
137.675
1667.26
122.788
1545.76
108.589
1425.74
95.5951
1308.39
83.116
1194.2
71.4954
1076.79
58.6446
933.841
40.3318
731.22
15.7533
468.373
184.293
146.095
900.111
210.056
1968.47
196.878
2158.89
170.059
1974.81
152.414
1809.45
139.547
1680.13
127.084
1558.23
113.88
1438.95
101.334
1320.93
89.4338
1206.1
76.9988
1089.23
63.1012
947.741
44.3181
750.007
19.1748
493.519
203.468
116.75
783.359
184.851
1900.39
179.634
2164.11
154.321
2000.13
137.231
1826.55
124.015
1693.35
111.383
1570.86
98.9748
1451.36
86.1212
1333.79
73.8811
1218.35
62.1157
1101
49.0389
960.826
32.8711
766.186
13.1971
513.2
216.66
83.1685
700.205
143.144
1840.42
144.689
2162.56
122.762
2022.06
106.152
1843.16
94.4606
1705.04
82.5771
1582.74
71.1674
1462.77
60.3875
1344.57
49.4633
1229.27
39.4288
1111.03
29.7502
970.51
18.0891
777.85
5.24671
526.045
221.901
51.2783
648.948
97.9379
1793.73
102.709
2157.77
87.3779
2037.39
73.1483
1857.39
63.1283
1715.05
54.2337
1591.64
44.8513
1472.15
36.1427
1353.27
28.1664
1237.24
20.4226
1118.77
13.6804
977.238
6.73363
784.775
-0.41957
533.178
221.481
25.129
623.803
57.7012
1761.13
63.5041
2151.97
53.4675
2047.43
43.8811
1866.96
36.1692
1722.76
29.5446
1598.26
23.4958
1478.19
17.0455
1359.72
11.298
1242.99
6.59682
1123.47
2.46821
981.366
-1.07215
788.321
-3.67804
535.796
217.797
1.35715
622.402
24.0157
1738.5
33.3593
2142.68
27.7194
2053.05
20.3624
1874.31
15.0805
1728.05
9.54449
1603.79
4.59648
1483.14
0.0490773
1364.27
-4.82078
1247.86
-8.33516
1126.99
-9.65865
982.684
-9.72725
788.401
-7.13204
533.213
210.643
-11.7428
-3.13776
1.43912
-0.417582
-5.092
-8.84353
-11.7922
-15.2262
-18.0803
-20.2111
-21.7743
-21.1046
-18.1276
-12.404
)
;

boundaryField
{
    inletFace
    {
        type            calculated;
        value           nonuniform List<scalar> 
450
(
1.24618e-13
5.7907e-13
-2.38358e-13
-1.46689e-13
1.51063e-13
-1.96762e-13
-7.50137e-14
6.15427e-14
-4.6502e-14
1.55752e-14
2.53885e-14
-1.915e-14
5.3487e-15
1.37088e-15
-1.23991e-16
-2.21148e-12
-2.24488e-12
-3.27312e-14
-4.46717e-13
-2.40214e-13
6.31978e-15
-2.61443e-13
-1.12646e-13
-4.38376e-15
-1.01949e-13
-6.79294e-14
3.92734e-14
-6.33012e-15
-3.18094e-15
1.94425e-15
-2.48656e-12
-2.55098e-12
-2.20893e-13
-6.18739e-13
-2.10583e-13
-1.14306e-13
-3.13708e-13
-2.24047e-13
-2.74727e-14
-7.18002e-14
-6.72482e-14
-2.76463e-14
-2.07717e-14
1.21905e-14
5.60608e-15
-2.58288e-12
-2.56459e-12
-3.48015e-13
-9.45386e-13
-2.00889e-13
-2.36787e-13
-4.89436e-13
-2.23501e-13
-1.21902e-13
-1.0818e-13
-4.19201e-14
-9.58433e-14
-8.01383e-14
3.88121e-14
7.61343e-14
-2.38509e-12
-2.43537e-12
-5.15066e-13
-7.52708e-13
-2.15042e-13
-2.4414e-13
-4.8278e-13
-1.98887e-13
-1.20023e-13
-1.65002e-13
-9.23536e-14
-5.00563e-14
-4.82541e-14
1.06592e-14
7.7468e-14
-2.12531e-12
-2.43715e-12
-6.79961e-13
-6.63331e-13
-2.18494e-13
-1.96021e-13
-4.10323e-13
-2.3591e-13
-1.76289e-13
-1.77457e-13
-9.61981e-14
-2.52789e-14
-3.77084e-14
1.28879e-14
2.58273e-15
-1.90716e-12
-2.49037e-12
-9.26349e-13
-6.39607e-13
-2.74739e-13
-2.22301e-13
-3.78862e-13
-2.39879e-13
-2.35765e-13
-1.93073e-13
-1.02865e-13
-6.93427e-14
-4.64461e-14
-7.30237e-14
-2.10206e-13
-1.66317e-12
-2.49014e-12
-1.13843e-12
-6.47679e-13
-3.18315e-13
-2.51366e-13
-3.85948e-13
-2.57563e-13
-2.46976e-13
-2.01437e-13
-1.43245e-13
-1.10774e-13
-5.15406e-14
-2.96628e-14
-2.54465e-13
-1.4108e-12
-2.43562e-12
-1.28476e-12
-6.70202e-13
-3.4738e-13
-2.38222e-13
-3.74464e-13
-2.94582e-13
-2.30293e-13
-2.26805e-13
-1.5437e-13
-8.98236e-14
-3.321e-14
-2.17992e-14
-6.55741e-14
-1.18314e-12
-2.35843e-12
-1.42015e-12
-7.32853e-13
-3.57848e-13
-2.08604e-13
-3.75133e-13
-3.01878e-13
-2.30003e-13
-2.45125e-13
-1.59916e-13
-1.04292e-13
-9.43245e-14
-4.49023e-14
7.07939e-14
-9.96054e-13
-2.2743e-12
-1.51765e-12
-7.83717e-13
-4.05174e-13
-2.38334e-13
-3.2189e-13
-3.02429e-13
-1.99659e-13
-1.65193e-13
-1.64666e-13
-1.00137e-13
-7.07513e-14
-2.42219e-14
9.79873e-14
-8.67096e-13
-2.20411e-12
-1.53815e-12
-8.14857e-13
-4.42847e-13
-2.30441e-13
-2.77481e-13
-3.07792e-13
-1.26076e-13
-1.4653e-13
-1.7764e-13
-2.82378e-14
-1.85818e-14
1.09875e-13
1.67362e-13
-7.84438e-13
-2.1339e-12
-1.55962e-12
-8.28093e-13
-4.40572e-13
-2.02166e-13
-2.89136e-13
-3.16806e-13
-1.38004e-13
-1.74493e-13
-1.76711e-13
-2.20655e-14
-1.77451e-14
1.22355e-13
1.72213e-13
-7.32991e-13
-2.07459e-12
-1.57408e-12
-8.34507e-13
-4.47774e-13
-2.08884e-13
-2.80651e-13
-3.30984e-13
-1.53441e-13
-1.78857e-13
-1.80497e-13
1.22918e-15
-1.27077e-14
1.06855e-13
1.29668e-13
-7.21679e-13
-1.99597e-12
-1.56103e-12
-8.44777e-13
-4.43731e-13
-2.16701e-13
-2.78662e-13
-3.14745e-13
-1.65032e-13
-1.83126e-13
-1.60621e-13
-8.59931e-15
-4.77774e-15
1.0507e-13
6.98199e-14
-1.24618e-13
-5.7907e-13
2.38358e-13
1.46689e-13
-1.51063e-13
1.96762e-13
7.50137e-14
-6.15427e-14
4.6502e-14
-1.55752e-14
-2.53885e-14
1.915e-14
-5.3487e-15
-1.37088e-15
1.23991e-16
2.21148e-12
2.24488e-12
3.27312e-14
4.46717e-13
2.40214e-13
-6.31978e-15
2.61443e-13
1.12646e-13
4.38376e-15
1.01949e-13
6.79294e-14
-3.92734e-14
6.33012e-15
3.18094e-15
-1.94425e-15
2.48656e-12
2.55098e-12
2.20893e-13
6.18739e-13
2.10583e-13
1.14306e-13
3.13708e-13
2.24047e-13
2.74727e-14
7.18002e-14
6.72482e-14
2.76463e-14
2.07717e-14
-1.21905e-14
-5.60608e-15
2.58288e-12
2.56459e-12
3.48015e-13
9.45386e-13
2.00889e-13
2.36787e-13
4.89436e-13
2.23501e-13
1.21902e-13
1.0818e-13
4.19201e-14
9.58433e-14
8.01383e-14
-3.88121e-14
-7.61343e-14
2.38509e-12
2.43537e-12
5.15066e-13
7.52708e-13
2.15042e-13
2.4414e-13
4.8278e-13
1.98887e-13
1.20023e-13
1.65002e-13
9.23536e-14
5.00563e-14
4.82541e-14
-1.06592e-14
-7.7468e-14
2.12531e-12
2.43715e-12
6.79961e-13
6.63331e-13
2.18494e-13
1.96021e-13
4.10323e-13
2.3591e-13
1.76289e-13
1.77457e-13
9.61981e-14
2.52789e-14
3.77084e-14
-1.28879e-14
-2.58273e-15
1.90716e-12
2.49037e-12
9.26349e-13
6.39607e-13
2.74739e-13
2.22301e-13
3.78862e-13
2.39879e-13
2.35765e-13
1.93073e-13
1.02865e-13
6.93427e-14
4.64461e-14
7.30237e-14
2.10206e-13
1.66317e-12
2.49014e-12
1.13843e-12
6.47679e-13
3.18315e-13
2.51366e-13
3.85948e-13
2.57563e-13
2.46976e-13
2.01437e-13
1.43245e-13
1.10774e-13
5.15406e-14
2.96628e-14
2.54465e-13
1.4108e-12
2.43562e-12
1.28476e-12
6.70202e-13
3.4738e-13
2.38222e-13
3.74464e-13
2.94582e-13
2.30293e-13
2.26805e-13
1.5437e-13
8.98236e-14
3.321e-14
2.17992e-14
6.55741e-14
1.18314e-12
2.35843e-12
1.42015e-12
7.32853e-13
3.57848e-13
2.08604e-13
3.75133e-13
3.01878e-13
2.30003e-13
2.45125e-13
1.59916e-13
1.04292e-13
9.43245e-14
4.49023e-14
-7.07939e-14
9.96054e-13
2.2743e-12
1.51765e-12
7.83717e-13
4.05174e-13
2.38334e-13
3.2189e-13
3.02429e-13
1.99659e-13
1.65193e-13
1.64666e-13
1.00137e-13
7.07513e-14
2.42219e-14
-9.79873e-14
8.67096e-13
2.20411e-12
1.53815e-12
8.14857e-13
4.42847e-13
2.30441e-13
2.77481e-13
3.07792e-13
1.26076e-13
1.4653e-13
1.7764e-13
2.82378e-14
1.85818e-14
-1.09875e-13
-1.67362e-13
7.84438e-13
2.1339e-12
1.55962e-12
8.28093e-13
4.40572e-13
2.02166e-13
2.89136e-13
3.16806e-13
1.38004e-13
1.74493e-13
1.76711e-13
2.20655e-14
1.77451e-14
-1.22355e-13
-1.72213e-13
7.32991e-13
2.07459e-12
1.57408e-12
8.34507e-13
4.47774e-13
2.08884e-13
2.80651e-13
3.30984e-13
1.53441e-13
1.78857e-13
1.80497e-13
-1.22918e-15
1.27077e-14
-1.06855e-13
-1.29668e-13
7.21679e-13
1.99597e-12
1.56103e-12
8.44777e-13
4.43731e-13
2.16701e-13
2.78662e-13
3.14745e-13
1.65032e-13
1.83126e-13
1.60621e-13
8.59931e-15
4.77774e-15
-1.0507e-13
-6.98199e-14
)
;
    }
    inlet
    {
        type            calculated;
        value           nonuniform List<scalar> 
15
(
-1299.9
-1300.2
-1299.9
-1299.9
-1300.2
-1299.9
-1299.9
-1300.2
-1299.9
-1299.9
-1300.2
-1299.9
-1299.9
-1300.2
-1299.9
)
;
    }
    inletWalls
    {
        type            calculated;
        value           uniform 0;
    }
    outletInlet
    {
        type            calculated;
        value           nonuniform List<scalar> 
15
(
198.247
527.473
785.417
982.023
1128.55
1249.99
1367.13
1486.58
1606.74
1731.8
1879
2054.9
2138.09
1729.92
634.158
)
;
    }
}


// ************************************************************************* //
