/*--------------------------------*- C++ -*----------------------------------*\
| =========                 |                                                 |
| \\      /  F ield         | OpenFOAM: The Open Source CFD Toolbox           |
|  \\    /   O peration     | Version:  4.1                                   |
|   \\  /    A nd           | Web:      www.OpenFOAM.org                      |
|    \\/     M anipulation  |                                                 |
\*---------------------------------------------------------------------------*/
FoamFile
{
    version     2.0;
    format      ascii;
    class       volVectorField;
    location    "11";
    object      U;
}
// * * * * * * * * * * * * * * * * * * * * * * * * * * * * * * * * * * * * * //

dimensions      [0 1 -1 0 0 0 0];

internalField   nonuniform List<vector> 
225
(
(1.01683e-14 0.852193 15.7946)
(9.2747e-15 -4.89458 12.1215)
(-2.15978e-15 -4.19551 12.1321)
(4.45507e-15 -3.60118 11.9966)
(5.57747e-16 -3.00468 11.8778)
(-1.70731e-16 -2.55319 11.6992)
(2.01558e-15 -2.20881 11.4769)
(3.18469e-16 -1.96603 11.2116)
(-4.33682e-16 -1.79855 10.916)
(6.7531e-16 -1.71238 10.5882)
(2.4027e-16 -1.83746 10.1561)
(-3.25155e-16 -2.28567 9.53762)
(2.29531e-16 -2.51301 8.96378)
(-9.49034e-18 -1.06552 8.91356)
(8.58366e-19 1.76574 7.47091)
(1.59992e-14 -5.35014 22.493)
(1.55426e-14 -14.6049 21.394)
(2.26591e-16 -13.2708 20.3412)
(3.27937e-15 -11.7697 19.5066)
(1.66314e-15 -11.1561 18.5044)
(-4.37506e-17 -10.6594 17.5174)
(1.92067e-15 -10.0901 16.5714)
(7.79916e-16 -9.525 15.6236)
(3.03479e-17 -8.96544 14.6638)
(6.73064e-16 -8.36731 13.6946)
(4.70315e-16 -7.75709 12.7179)
(-2.71882e-16 -7.30335 11.7194)
(4.24255e-17 -7.01705 10.6244)
(2.20235e-17 -5.73095 9.16116)
(-1.34596e-17 -2.30499 4.58318)
(1.92597e-14 -7.71562 23.9801)
(1.76599e-14 -16.7731 24.6729)
(1.52938e-15 -13.7365 23.9372)
(5.80276e-15 -12.3062 22.6249)
(1.45783e-15 -11.6447 21.2414)
(7.91414e-16 -10.814 20.0013)
(3.31174e-15 -9.94025 18.7738)
(1.55104e-15 -9.10011 17.5247)
(1.90211e-16 -8.28338 16.2654)
(1.08892e-15 -7.47524 15.0263)
(4.65547e-16 -6.66762 13.8176)
(1.91413e-16 -5.84165 12.4301)
(6.2712e-16 -4.8139 10.2753)
(-8.43927e-17 -3.12625 6.68442)
(-3.88143e-17 -0.832103 1.68986)
(1.78739e-14 -8.50255 22.0462)
(1.77543e-14 -16.6211 24.332)
(2.40926e-15 -12.93 23.7971)
(6.54555e-15 -12.1536 21.9985)
(1.31952e-15 -11.4201 20.5028)
(1.66357e-15 -10.4936 19.1722)
(3.3887e-15 -9.63388 17.8167)
(1.46828e-15 -8.82359 16.459)
(8.71764e-16 -8.05363 15.123)
(7.34103e-16 -7.32378 13.8164)
(2.82076e-16 -6.55247 12.4394)
(6.54154e-16 -5.49087 10.583)
(5.30026e-16 -3.78524 7.50866)
(-7.60686e-17 -1.49363 2.76599)
(-7.19071e-16 0.153304 -1.77303)
(1.63e-14 -8.47609 19.748)
(1.65156e-14 -16.3601 24.312)
(3.38737e-15 -13.099 23.6602)
(5.01624e-15 -12.628 21.5365)
(1.17779e-15 -11.8565 20.0248)
(1.47034e-15 -10.9574 18.6637)
(3.2253e-15 -10.1698 17.2587)
(1.12832e-15 -9.40278 15.8711)
(6.98564e-16 -8.65259 14.5236)
(1.07177e-15 -7.93052 13.2136)
(4.87909e-16 -7.16588 11.8292)
(1.77215e-16 -6.11615 9.99627)
(2.27722e-16 -4.42401 7.15553)
(-4.31975e-16 -2.30527 3.28786)
(-9.02469e-16 -0.787175 0.317702)
(1.49374e-14 -8.02186 17.5536)
(1.6914e-14 -16.0195 24.5277)
(4.83487e-15 -13.6434 24.0462)
(4.59216e-15 -12.9943 21.7651)
(1.56173e-15 -12.1264 20.2158)
(1.46122e-15 -11.2247 18.847)
(2.89602e-15 -10.439 17.4341)
(1.69246e-15 -9.64889 16.0434)
(1.41183e-15 -8.86036 14.6933)
(1.22852e-15 -8.09326 13.3818)
(7.41446e-16 -7.29731 12.0171)
(4.33788e-16 -6.2846 10.2818)
(2.61051e-16 -4.73302 7.72091)
(2.68385e-16 -2.75613 4.37245)
(1.36385e-15 -0.949374 1.29733)
(1.33374e-14 -7.33734 15.2534)
(1.72618e-14 -15.491 24.3551)
(6.49756e-15 -14.0226 24.4218)
(4.42843e-15 -13.1279 22.0676)
(1.95229e-15 -12.1448 20.4401)
(1.64668e-15 -11.2358 19.0547)
(2.62312e-15 -10.4361 17.6437)
(1.7234e-15 -9.61985 16.2576)
(1.76863e-15 -8.81017 14.9067)
(1.33678e-15 -8.02724 13.5919)
(8.76998e-16 -7.22396 12.2369)
(7.64292e-16 -6.24028 10.5488)
(3.21578e-16 -4.78753 8.10752)
(1.30716e-16 -2.91411 4.94714)
(2.7276e-15 -1.01084 1.79737)
(1.13287e-14 -6.55611 13.0328)
(1.72404e-14 -14.847 23.8163)
(7.83884e-15 -14.2639 24.6691)
(4.48367e-15 -13.2372 22.3215)
(2.20385e-15 -12.1674 20.5832)
(1.63174e-15 -11.2657 19.1667)
(2.7302e-15 -10.4651 17.7587)
(1.78323e-15 -9.64317 16.3766)
(1.57213e-15 -8.83496 15.0246)
(1.46969e-15 -8.05532 13.7073)
(9.91751e-16 -7.25503 12.3576)
(5.76606e-16 -6.28692 10.6996)
(3.56799e-16 -4.89103 8.33099)
(2.0537e-16 -3.08523 5.26767)
(1.26498e-15 -1.12217 2.0439)
(9.76681e-15 -5.77817 11.1235)
(1.68615e-14 -14.1745 23.0905)
(8.76944e-15 -14.4413 24.8463)
(4.63973e-15 -13.3964 22.6149)
(2.40487e-15 -12.2528 20.7553)
(1.48806e-15 -11.3493 19.2955)
(2.59237e-15 -10.5477 17.8904)
(2.03936e-15 -9.72546 16.5109)
(1.39057e-15 -8.91947 15.1562)
(1.57014e-15 -8.14027 13.8352)
(1.06869e-15 -7.33999 12.4864)
(3.41326e-16 -6.3802 10.8513)
(2.29909e-16 -5.02356 8.54677)
(1.50913e-16 -3.26581 5.55836)
(-4.82776e-16 -1.23752 2.24765)
(7.99192e-15 -5.08475 9.59894)
(1.63271e-14 -13.5191 22.3)
(9.78938e-15 -14.535 24.9523)
(4.98259e-15 -13.5531 22.9353)
(2.47734e-15 -12.3448 20.9699)
(1.3903e-15 -11.4251 19.4566)
(2.48138e-15 -10.6174 18.0506)
(2.08987e-15 -9.79449 16.6721)
(1.52421e-15 -8.9883 15.3136)
(1.47399e-15 -8.20627 13.9874)
(1.10708e-15 -7.40479 12.6357)
(6.28388e-16 -6.45154 11.0133)
(4.21111e-16 -5.12532 8.75521)
(3.10853e-16 -3.40662 5.81964)
(-7.90287e-16 -1.31907 2.43097)
(6.74548e-15 -4.53853 8.46197)
(1.57955e-14 -12.9255 21.5503)
(1.03778e-14 -14.535 24.9758)
(5.42542e-15 -13.6654 23.221)
(2.85555e-15 -12.4128 21.1812)
(1.48686e-15 -11.4736 19.6121)
(2.22834e-15 -10.659 18.2004)
(2.15713e-15 -9.83699 16.821)
(1.10715e-15 -9.0321 15.4586)
(1.14358e-15 -8.24861 14.127)
(1.223e-15 -7.44653 12.7692)
(3.15451e-16 -6.49779 11.1499)
(4.89788e-16 -5.19268 8.91861)
(-4.98398e-16 -3.50196 6.0107)
(-1.23682e-15 -1.3638 2.5426)
(6.0028e-15 -4.1703 7.70242)
(1.52847e-14 -12.4378 20.9277)
(1.05841e-14 -14.4734 24.9366)
(5.64116e-15 -13.7316 23.4379)
(3.09119e-15 -12.4593 21.3594)
(1.51305e-15 -11.5039 19.7406)
(1.92097e-15 -10.6833 18.3207)
(2.19475e-15 -9.8636 16.9392)
(8.03423e-16 -9.06119 15.5729)
(1.01441e-15 -8.27764 14.2364)
(1.22978e-15 -7.47493 12.871)
(1.00247e-16 -6.52687 11.2466)
(1.8713e-16 -5.2331 9.02659)
(-8.43656e-16 -3.55802 6.12621)
(-1.49833e-15 -1.37727 2.57261)
(5.33194e-15 -3.97306 7.27913)
(1.47458e-14 -12.0681 20.4609)
(1.08193e-14 -14.3843 24.8626)
(5.6866e-15 -13.76 23.583)
(3.05003e-15 -12.4876 21.4971)
(1.39957e-15 -11.523 19.8407)
(1.97198e-15 -10.6966 18.4121)
(2.29005e-15 -9.87996 17.0279)
(9.20343e-16 -9.08053 15.6584)
(1.20813e-15 -8.29718 14.317)
(1.26552e-15 -7.49312 12.9421)
(1.04809e-16 -6.54209 11.3061)
(1.22862e-16 -5.25088 9.08426)
(-7.64535e-16 -3.57877 6.17536)
(-1.34021e-15 -1.36511 2.53866)
(5.02705e-15 -3.90329 7.10967)
(1.43495e-14 -11.831 20.1814)
(1.08742e-14 -14.2999 24.7901)
(5.7652e-15 -13.7668 23.6687)
(3.08722e-15 -12.5019 21.5898)
(1.44603e-15 -11.532 19.9095)
(1.95794e-15 -10.7004 18.4746)
(2.27528e-15 -9.88548 17.0884)
(1.06222e-15 -9.08793 15.7173)
(1.25739e-15 -8.30409 14.373)
(1.22861e-15 -7.49784 12.9907)
(-8.50921e-18 -6.54314 11.3434)
(1.16999e-16 -5.25336 9.11723)
(-7.80661e-16 -3.58365 6.20158)
(-8.97646e-16 -1.35002 2.50618)
(4.98128e-15 -4.03922 7.28635)
(1.38109e-14 -11.627 19.9521)
(1.08138e-14 -14.1918 24.6681)
(5.84829e-15 -13.7462 23.7082)
(3.06538e-15 -12.5065 21.6736)
(1.5074e-15 -11.5392 19.9772)
(1.92914e-15 -10.6994 18.535)
(2.17085e-15 -9.88691 17.1437)
(1.15136e-15 -9.09049 15.7694)
(1.26776e-15 -8.30496 14.4184)
(1.10677e-15 -7.48992 13.0147)
(6.54249e-17 -6.51532 11.3281)
(3.30757e-17 -5.20598 9.06124)
(-7.37569e-16 -3.50152 6.08267)
(-4.64283e-16 -1.2523 2.30699)
)
;

boundaryField
{
    inletFace
    {
        type            zeroGradient;
    }
    inlet
    {
        type            fixedValue;
        value           uniform (0 8.7 15);
    }
    inletWalls
    {
        type            noSlip;
    }
    outletInlet
    {
        type            zeroGradient;
    }
}


// ************************************************************************* //
