/*--------------------------------*- C++ -*----------------------------------*\
| =========                 |                                                 |
| \\      /  F ield         | OpenFOAM: The Open Source CFD Toolbox           |
|  \\    /   O peration     | Version:  4.1                                   |
|   \\  /    A nd           | Web:      www.OpenFOAM.org                      |
|    \\/     M anipulation  |                                                 |
\*---------------------------------------------------------------------------*/
FoamFile
{
    version     2.0;
    format      ascii;
    class       volScalarField;
    location    "14";
    object      p;
}
// * * * * * * * * * * * * * * * * * * * * * * * * * * * * * * * * * * * * * //

dimensions      [0 2 -2 0 0 0 0];

internalField   nonuniform List<scalar> 
225
(
523.378
469.981
418.149
369.738
324.847
282.83
243.475
206.471
171.377
138.013
107.071
78.9326
49.9037
14.9849
-14.1673
56.9434
34.6825
28.9238
25.2136
19.7395
14.032
8.87914
4.49038
1.00645
-1.4523
-2.6436
-2.14195
-0.0455156
1.82601
2.08618
-45.839
-52.482
-46.715
-42.5682
-39.4776
-35.8822
-31.9959
-28.0586
-24.1542
-20.4383
-17.0928
-14.0257
-10.9489
-8.29606
-7.06182
0.294702
-2.12336
2.46945
2.79358
2.84716
3.06235
2.97321
2.5959
2.01434
1.25515
0.298402
-0.810947
-1.72125
-1.87349
-1.56303
16.7225
14.3897
15.9434
13.8454
12.4266
11.183
9.77306
8.39121
7.13377
6.04271
5.14171
4.42916
3.95157
3.91885
4.16371
7.49434
5.47128
6.44526
5.22593
5.02292
5.00715
4.91937
4.95269
5.10828
5.35178
5.67107
6.03395
6.35361
6.61032
6.78505
4.02284
2.86738
3.95297
3.62987
4.01669
4.41082
4.7098
5.06045
5.417
5.74177
6.03146
6.28536
6.46359
6.54461
6.56032
5.70065
5.14284
5.99718
5.76817
5.96667
6.07916
6.10305
6.14833
6.17291
6.16806
6.14435
6.11653
6.08287
6.037
5.98852
6.00794
5.68253
6.19332
5.9174
5.96019
5.92934
5.85423
5.80711
5.75146
5.69086
5.63158
5.57845
5.53171
5.4856
5.43438
4.68792
4.4802
4.82581
4.64938
4.72211
4.73106
4.71815
4.72635
4.72376
4.71699
4.7074
4.69267
4.67046
4.63519
4.57746
3.31727
3.20108
3.49875
3.4449
3.56458
3.61133
3.64002
3.67504
3.69171
3.69863
3.69667
3.68418
3.66015
3.62191
3.55638
2.34308
2.28293
2.53731
2.53876
2.65719
2.69865
2.72779
2.75492
2.7625
2.76043
2.74902
2.72812
2.69827
2.6595
2.59486
1.56459
1.52966
1.73212
1.74597
1.84518
1.87158
1.89393
1.91106
1.91138
1.90451
1.88993
1.86767
1.83809
1.80335
1.74548
0.880561
0.868481
1.0294
1.03405
1.11104
1.12462
1.14244
1.15452
1.15396
1.149
1.13809
1.12105
1.09604
1.06487
1.01064
0.438674
0.399364
0.455167
0.423026
0.459164
0.440474
0.43413
0.420074
0.399171
0.376482
0.349867
0.321177
0.290743
0.260797
0.217784
)
;

boundaryField
{
    inletFace
    {
        type            zeroGradient;
    }
    inlet
    {
        type            zeroGradient;
    }
    inletWalls
    {
        type            zeroGradient;
    }
    outletInlet
    {
        type            fixedValue;
        value           uniform 0;
    }
}


// ************************************************************************* //
