/*--------------------------------*- C++ -*----------------------------------*\
| =========                 |                                                 |
| \\      /  F ield         | OpenFOAM: The Open Source CFD Toolbox           |
|  \\    /   O peration     | Version:  4.1                                   |
|   \\  /    A nd           | Web:      www.OpenFOAM.org                      |
|    \\/     M anipulation  |                                                 |
\*---------------------------------------------------------------------------*/
FoamFile
{
    version     2.0;
    format      ascii;
    class       surfaceScalarField;
    location    "14";
    object      phi;
}
// * * * * * * * * * * * * * * * * * * * * * * * * * * * * * * * * * * * * * //

dimensions      [0 3 -1 0 0 0 0];

internalField   nonuniform List<scalar> 
420
(
-949.879
2249.78
-1573.96
1924.28
-2054
1779.95
-2424.23
1670.13
-2699.86
1575.83
-2888.38
1488.42
-2993.06
1404.58
-3013.86
1321
-2949.61
1235.66
-2797.23
1147.52
-2551.17
1054.13
-2193
941.735
-1687.17
794.065
-1012.67
625.704
287.229
373.335
1876.44
442.748
1854.86
437.301
1785.39
406.697
1700.74
380.579
1601.94
359.9
1509.1
345.291
1419.19
337.535
1328.76
333.483
1239.71
326.953
1154.05
309.609
1071.48
267.466
983.878
191.429
870.104
111.448
705.684
398.677
33.5759
1842.87
-97.3891
1985.83
-253.613
1941.62
-371.12
1818.24
-473.183
1704.01
-567.532
1603.45
-651.748
1503.4
-725.796
1402.81
-788.074
1301.99
-837.306
1203.28
-868.225
1102.4
-856.087
971.741
-740.335
754.352
-434.284
399.633
-35.6076
28.7763
1814.09
-100.652
2115.26
-225.56
2066.53
-304.495
1897.18
-368.156
1767.67
-416.953
1652.24
-446.228
1532.68
-457.016
1413.59
-451.854
1296.83
-430.155
1181.59
-387.227
1059.47
-311.873
896.387
-192.865
635.344
-48.4076
255.177
-84.0152
169.627
1644.47
146.16
2138.72
123.735
2088.95
122.872
1898.04
126.943
1763.6
135.807
1643.38
149.104
1519.38
166.592
1396.1
186.943
1276.48
208.131
1160.4
229.131
1038.47
243.822
881.696
233.004
646.162
155.23
332.952
71.2147
223.08
1421.39
244.185
2117.62
234.747
2098.39
236.025
1896.76
240.373
1759.25
244.307
1639.45
246.55
1517.14
245.254
1397.4
241.165
1280.57
233.991
1167.57
221.385
1051.08
199.141
903.94
156.142
689.162
78.3021
410.792
149.517
203.322
1218.07
238.375
2082.57
213.62
2123.14
191.41
1918.97
177.203
1773.46
163.772
1652.88
150.039
1530.87
135.897
1411.54
121.072
1295.39
106.921
1181.72
92.8247
1065.17
75.7737
920.992
52.0261
712.91
19.0227
443.795
168.539
171.854
1046.21
221.984
2032.43
199.425
2145.7
170.409
1947.99
152.059
1791.81
137.678
1667.26
122.789
1545.76
108.59
1425.74
95.5947
1308.39
83.1153
1194.2
71.4954
1076.79
58.6451
933.841
40.333
731.221
15.7548
468.372
184.292
146.098
900.113
210.065
1968.47
196.884
2158.89
170.063
1974.81
152.415
1809.46
139.546
1680.13
127.081
1558.23
113.876
1438.95
101.33
1320.93
89.429
1206.1
76.9936
1089.23
63.0982
947.738
44.3162
750.003
19.1741
493.515
203.465
116.766
783.355
184.863
1900.38
179.64
2164.11
154.321
2000.13
137.23
1826.55
124.009
1693.35
111.379
1570.86
98.9698
1451.36
86.116
1333.79
73.875
1218.35
62.11
1100.99
49.03
960.819
32.8589
766.175
13.1857
513.188
216.648
83.1616
700.199
143.135
1840.41
144.684
2162.56
122.755
2022.06
106.145
1843.16
94.4561
1705.04
82.5741
1582.74
71.1636
1462.77
60.3828
1344.57
49.4575
1229.28
39.4225
1111.03
29.7412
970.513
18.0819
777.849
5.24332
526.036
221.886
51.2366
648.953
97.9041
1793.73
102.686
2157.77
87.3599
2037.38
73.133
1857.38
63.1255
1715.05
54.2297
1591.63
44.8515
1472.15
36.1432
1353.27
28.1694
1237.25
20.4209
1118.77
13.6752
977.25
6.73003
784.788
-0.416047
533.177
221.47
25.1193
623.815
57.6815
1761.14
63.4751
2151.97
53.4401
2047.42
43.8632
1866.95
36.1538
1722.75
29.5286
1598.25
23.4866
1478.18
17.0441
1359.71
11.3036
1242.97
6.61047
1123.45
2.47825
981.345
-1.08219
788.296
-3.70088
535.767
217.782
1.3988
622.398
24.0335
1738.5
33.3397
2142.67
27.7046
2053.05
20.3464
1874.31
15.0436
1728.05
9.50535
1603.79
4.55051
1483.13
0.00135638
1364.25
-4.87293
1247.84
-8.37766
1126.96
-9.67721
982.648
-9.74511
788.357
-7.15577
533.184
210.646
-11.714
-3.10163
1.48608
-0.366139
-5.0562
-8.80747
-11.7554
-15.196
-18.0574
-20.1933
-21.7604
-21.0882
-18.0786
-12.3378
)
;

boundaryField
{
    inletFace
    {
        type            calculated;
        value           nonuniform List<scalar> 
450
(
-1.41647e-15
6.5449e-13
-9.48012e-14
-1.58182e-13
1.26285e-13
-1.83896e-13
-6.62311e-14
6.86397e-14
-1.03728e-13
-3.40152e-14
4.30538e-14
-5.50581e-14
-1.32923e-15
1.52045e-14
4.01304e-17
-2.08623e-12
-2.21356e-12
1.12446e-13
-3.88972e-13
-2.75059e-13
2.55774e-14
-2.9088e-13
-1.41481e-13
5.36257e-16
-1.43918e-13
-2.07931e-14
2.33689e-14
-7.47412e-14
-1.54083e-14
1.50225e-15
-2.27284e-12
-2.36785e-12
-6.12217e-14
-3.83569e-13
-2.34693e-13
-1.18116e-13
-2.93568e-13
-1.0676e-13
-8.91554e-14
-1.97095e-13
-1.11537e-13
-2.24261e-14
-5.10072e-14
-1.02596e-14
3.46959e-15
-2.60477e-12
-2.29048e-12
-1.1602e-13
-5.33848e-13
-2.00497e-13
-2.17143e-13
-4.10327e-13
-1.00704e-13
-1.78872e-13
-2.59784e-13
-1.59872e-13
-8.13242e-14
-9.14175e-14
3.0904e-14
7.53274e-14
-2.42907e-12
-2.3589e-12
-2.15962e-13
-5.30392e-13
-1.91356e-13
-2.36994e-13
-3.91994e-13
-1.04191e-13
-1.68878e-13
-2.48123e-13
-1.08736e-13
-2.35937e-14
-6.12954e-14
2.4066e-14
8.7753e-14
-2.14128e-12
-2.37294e-12
-4.67705e-13
-4.52859e-13
-1.67816e-13
-1.68255e-13
-3.11738e-13
-1.16926e-13
-5.85797e-14
-1.77488e-13
-9.29843e-14
-6.76064e-15
1.33553e-14
5.41222e-14
4.57136e-14
-1.92429e-12
-2.42212e-12
-7.56784e-13
-4.32381e-13
-2.02652e-13
-1.72572e-13
-2.89103e-13
-1.22154e-13
-5.98101e-14
-1.5514e-13
-1.11264e-13
-1.09528e-13
1.32226e-14
-4.52308e-14
-2.15845e-13
-1.68609e-12
-2.44397e-12
-9.58654e-13
-4.46886e-13
-2.29717e-13
-2.15486e-13
-3.04628e-13
-1.48753e-13
-1.243e-13
-1.37509e-13
-1.37475e-13
-1.64905e-13
-5.79913e-14
-2.46581e-14
-2.85655e-13
-1.44016e-12
-2.41646e-12
-1.15716e-12
-5.02195e-13
-2.48506e-13
-1.82892e-13
-3.13903e-13
-2.02585e-13
-1.12158e-13
-1.67278e-13
-1.39903e-13
-1.26886e-13
-8.92375e-14
-3.26502e-14
-5.69604e-14
-1.21011e-12
-2.34499e-12
-1.29409e-12
-5.29501e-13
-2.75776e-13
-1.9264e-13
-2.70957e-13
-2.07846e-13
-9.91824e-14
-1.2056e-13
-1.52047e-13
-6.59691e-14
-8.46796e-14
-5.04957e-14
7.5011e-14
-9.82677e-13
-2.2625e-12
-1.3812e-12
-5.56063e-13
-2.67721e-13
-1.88651e-13
-2.14745e-13
-1.99596e-13
-1.01146e-13
-6.0938e-14
-1.06091e-13
-8.3992e-14
-3.89551e-14
-2.95139e-14
9.39064e-14
-8.6974e-13
-2.19897e-12
-1.41806e-12
-6.24646e-13
-2.76222e-13
-1.4845e-13
-2.27652e-13
-2.27895e-13
-4.55971e-14
-8.7851e-14
-8.66079e-14
-7.52985e-14
-3.63133e-14
9.89972e-14
1.61065e-13
-8.00455e-13
-2.13191e-12
-1.44165e-12
-6.58354e-13
-3.14844e-13
-1.5063e-13
-2.22449e-13
-2.55799e-13
-3.67649e-14
-8.61373e-14
-1.19814e-13
-2.36876e-14
-3.91971e-14
1.09972e-13
1.68958e-13
-7.47987e-13
-2.06831e-12
-1.46823e-12
-6.7792e-13
-3.26608e-13
-1.42625e-13
-2.17251e-13
-2.57679e-13
-5.28449e-14
-8.88602e-14
-1.21608e-13
4.1823e-15
-3.34029e-14
9.47909e-14
1.26719e-13
-7.30572e-13
-1.98852e-12
-1.46478e-12
-6.99275e-13
-3.32744e-13
-1.55004e-13
-2.18646e-13
-2.42446e-13
-6.6999e-14
-9.56939e-14
-1.04006e-13
-6.5668e-15
-2.15124e-14
9.39171e-14
6.62643e-14
1.41647e-15
-6.5449e-13
9.48012e-14
1.58182e-13
-1.26285e-13
1.83896e-13
6.62311e-14
-6.86397e-14
1.03728e-13
3.40152e-14
-4.30538e-14
5.50581e-14
1.32923e-15
-1.52045e-14
-4.01304e-17
2.08623e-12
2.21356e-12
-1.12446e-13
3.88972e-13
2.75059e-13
-2.55774e-14
2.9088e-13
1.41481e-13
-5.36257e-16
1.43918e-13
2.07931e-14
-2.33689e-14
7.47412e-14
1.54083e-14
-1.50225e-15
2.27284e-12
2.36785e-12
6.12217e-14
3.83569e-13
2.34693e-13
1.18116e-13
2.93568e-13
1.0676e-13
8.91554e-14
1.97095e-13
1.11537e-13
2.24261e-14
5.10072e-14
1.02596e-14
-3.46959e-15
2.60477e-12
2.29048e-12
1.1602e-13
5.33848e-13
2.00497e-13
2.17143e-13
4.10327e-13
1.00704e-13
1.78872e-13
2.59784e-13
1.59872e-13
8.13242e-14
9.14175e-14
-3.0904e-14
-7.53274e-14
2.42907e-12
2.3589e-12
2.15962e-13
5.30392e-13
1.91356e-13
2.36994e-13
3.91994e-13
1.04191e-13
1.68878e-13
2.48123e-13
1.08736e-13
2.35937e-14
6.12954e-14
-2.4066e-14
-8.7753e-14
2.14128e-12
2.37294e-12
4.67705e-13
4.52859e-13
1.67816e-13
1.68255e-13
3.11738e-13
1.16926e-13
5.85797e-14
1.77488e-13
9.29843e-14
6.76064e-15
-1.33553e-14
-5.41222e-14
-4.57136e-14
1.92429e-12
2.42212e-12
7.56784e-13
4.32381e-13
2.02652e-13
1.72572e-13
2.89103e-13
1.22154e-13
5.98101e-14
1.5514e-13
1.11264e-13
1.09528e-13
-1.32226e-14
4.52308e-14
2.15845e-13
1.68609e-12
2.44397e-12
9.58654e-13
4.46886e-13
2.29717e-13
2.15486e-13
3.04628e-13
1.48753e-13
1.243e-13
1.37509e-13
1.37475e-13
1.64905e-13
5.79913e-14
2.46581e-14
2.85655e-13
1.44016e-12
2.41646e-12
1.15716e-12
5.02195e-13
2.48506e-13
1.82892e-13
3.13903e-13
2.02585e-13
1.12158e-13
1.67278e-13
1.39903e-13
1.26886e-13
8.92375e-14
3.26502e-14
5.69604e-14
1.21011e-12
2.34499e-12
1.29409e-12
5.29501e-13
2.75776e-13
1.9264e-13
2.70957e-13
2.07846e-13
9.91824e-14
1.2056e-13
1.52047e-13
6.59691e-14
8.46796e-14
5.04957e-14
-7.5011e-14
9.82677e-13
2.2625e-12
1.3812e-12
5.56063e-13
2.67721e-13
1.88651e-13
2.14745e-13
1.99596e-13
1.01146e-13
6.0938e-14
1.06091e-13
8.3992e-14
3.89551e-14
2.95139e-14
-9.39064e-14
8.6974e-13
2.19897e-12
1.41806e-12
6.24646e-13
2.76222e-13
1.4845e-13
2.27652e-13
2.27895e-13
4.55971e-14
8.7851e-14
8.66079e-14
7.52985e-14
3.63133e-14
-9.89972e-14
-1.61065e-13
8.00455e-13
2.13191e-12
1.44165e-12
6.58354e-13
3.14844e-13
1.5063e-13
2.22449e-13
2.55799e-13
3.67649e-14
8.61373e-14
1.19814e-13
2.36876e-14
3.91971e-14
-1.09972e-13
-1.68958e-13
7.47987e-13
2.06831e-12
1.46823e-12
6.7792e-13
3.26608e-13
1.42625e-13
2.17251e-13
2.57679e-13
5.28449e-14
8.88602e-14
1.21608e-13
-4.1823e-15
3.34029e-14
-9.47909e-14
-1.26719e-13
7.30572e-13
1.98852e-12
1.46478e-12
6.99275e-13
3.32744e-13
1.55004e-13
2.18646e-13
2.42446e-13
6.6999e-14
9.56939e-14
1.04006e-13
6.5668e-15
2.15124e-14
-9.39171e-14
-6.62643e-14
)
;
    }
    inlet
    {
        type            calculated;
        value           nonuniform List<scalar> 
15
(
-1299.9
-1300.2
-1299.9
-1299.9
-1300.2
-1299.9
-1299.9
-1300.2
-1299.9
-1299.9
-1300.2
-1299.9
-1299.9
-1300.2
-1299.9
)
;
    }
    inletWalls
    {
        type            calculated;
        value           uniform 0;
    }
    outletInlet
    {
        type            calculated;
        value           nonuniform List<scalar> 
15
(
198.261
527.462
785.387
982.002
1128.54
1249.99
1367.12
1486.58
1606.74
1731.8
1879
2054.91
2138.08
1729.9
634.136
)
;
    }
}


// ************************************************************************* //
