/*--------------------------------*- C++ -*----------------------------------*\
| =========                 |                                                 |
| \\      /  F ield         | OpenFOAM: The Open Source CFD Toolbox           |
|  \\    /   O peration     | Version:  4.1                                   |
|   \\  /    A nd           | Web:      www.OpenFOAM.org                      |
|    \\/     M anipulation  |                                                 |
\*---------------------------------------------------------------------------*/
FoamFile
{
    version     2.0;
    format      ascii;
    class       volVectorField;
    location    "26";
    object      U;
}
// * * * * * * * * * * * * * * * * * * * * * * * * * * * * * * * * * * * * * //

dimensions      [0 1 -1 0 0 0 0];

internalField   nonuniform List<vector> 
6785
(
(-5.93368e+57 1.80455e+59 1.34261e+57)
(-1.16392e+58 2.58623e+59 -8.97289e+58)
(-1.34552e+58 3.26153e+59 -1.74668e+59)
(-1.47177e+58 3.8467e+59 -2.48132e+59)
(-1.53357e+58 4.37054e+59 -3.24863e+59)
(-1.58719e+58 4.9465e+59 -4.20144e+59)
(-1.68257e+58 5.55152e+59 -5.23078e+59)
(-1.7201e+58 5.70567e+59 -5.6607e+59)
(-1.65297e+58 5.18935e+59 -5.24559e+59)
(-1.59995e+58 4.51859e+59 -4.6797e+59)
(-1.57038e+58 3.92882e+59 -4.21844e+59)
(-1.5185e+58 3.2568e+59 -3.56957e+59)
(-1.49898e+58 2.42256e+59 -2.811e+59)
(-1.40027e+58 1.70863e+59 -1.93945e+59)
(-8.50213e+57 8.894e+58 -1.96466e+57)
(-1.01463e+58 1.51731e+59 2.82974e+59)
(-1.67071e+58 1.71092e+59 1.42663e+59)
(-1.67632e+58 2.54126e+59 3.41894e+58)
(-1.67145e+58 3.35177e+59 -6.21288e+58)
(-1.67162e+58 4.15505e+59 -1.50374e+59)
(-1.69652e+58 4.96094e+59 -2.38026e+59)
(-1.71833e+58 5.70429e+59 -3.20548e+59)
(-1.7222e+58 6.32058e+59 -4.00767e+59)
(-1.7154e+58 6.83799e+59 -4.88778e+59)
(-1.6932e+58 7.13156e+59 -5.58569e+59)
(-1.63661e+58 6.79433e+59 -5.46774e+59)
(-1.54278e+58 5.60959e+59 -4.09427e+59)
(-1.41645e+58 3.70692e+59 -1.50046e+59)
(-1.19852e+58 2.12461e+59 9.31183e+58)
(-6.86725e+57 5.52749e+58 2.99996e+59)
(-1.11719e+58 6.11983e+58 5.04243e+59)
(-1.76635e+58 -1.31259e+56 3.71727e+59)
(-1.74596e+58 4.70841e+58 2.90562e+59)
(-1.72581e+58 8.94829e+58 2.47762e+59)
(-1.73535e+58 1.25527e+59 2.10749e+59)
(-1.7779e+58 1.6233e+59 1.9494e+59)
(-1.81587e+58 1.63732e+59 1.93593e+59)
(-1.8629e+58 1.98894e+59 6.78414e+58)
(-1.90452e+58 3.36806e+59 -1.91413e+59)
(-1.92681e+58 5.15442e+59 -4.56027e+59)
(-1.93894e+58 6.91779e+59 -7.0119e+59)
(-1.92798e+58 8.31036e+59 -9.21925e+59)
(-1.83576e+58 8.96346e+59 -1.115e+60)
(-1.52402e+58 8.64381e+59 -1.20421e+60)
(-7.81861e+57 5.31132e+59 -7.24286e+59)
(-1.04938e+58 -1.71577e+58 5.5621e+59)
(-1.74897e+58 -1.49946e+59 5.10058e+59)
(-1.76875e+58 -1.47298e+59 4.04609e+59)
(-1.7128e+58 -1.2969e+59 3.55827e+59)
(-1.69789e+58 -1.25945e+59 3.21847e+59)
(-1.72118e+58 -1.2166e+59 3.07011e+59)
(-1.75642e+58 -1.34076e+59 3.15889e+59)
(-1.7877e+58 -1.45113e+59 2.91747e+59)
(-1.80338e+58 -1.39635e+59 2.44516e+59)
(-1.80038e+58 -1.50369e+59 2.38372e+59)
(-1.76082e+58 -1.60613e+59 2.83992e+59)
(-1.82184e+58 -2.13236e+59 4.28766e+59)
(-2.12918e+58 2.11948e+59 -2.93376e+59)
(-2.17058e+58 8.18758e+59 -1.28103e+60)
(-1.57942e+58 9.00938e+59 -1.76644e+60)
(-8.47608e+57 -6.36762e+58 4.65838e+59)
(-1.62622e+58 -2.33907e+59 5.54362e+59)
(-1.77612e+58 -2.68707e+59 4.55482e+59)
(-1.73185e+58 -2.50247e+59 3.79701e+59)
(-1.68257e+58 -2.34873e+59 3.27638e+59)
(-1.66244e+58 -2.23743e+59 2.90747e+59)
(-1.66381e+58 -2.21286e+59 2.71973e+59)
(-1.67331e+58 -2.25471e+59 2.57737e+59)
(-1.67881e+58 -2.3072e+59 2.43229e+59)
(-1.68157e+58 -2.35218e+59 2.33208e+59)
(-1.66916e+58 -2.59539e+59 2.64308e+59)
(-1.68455e+58 -2.70484e+59 2.92333e+59)
(-1.6476e+58 -3.49937e+59 3.22668e+59)
(-1.82239e+58 2.55776e+59 -1.93956e+59)
(-1.88194e+58 9.70847e+59 -2.05953e+60)
(-6.23189e+57 -8.02508e+58 3.4523e+59)
(-1.44254e+58 -2.62218e+59 5.34778e+59)
(-1.73215e+58 -3.16e+59 4.85193e+59)
(-1.74516e+58 -2.90285e+59 4.04844e+59)
(-1.69025e+58 -2.54665e+59 3.38292e+59)
(-1.64324e+58 -2.26415e+59 2.87559e+59)
(-1.61839e+58 -2.08048e+59 2.54702e+59)
(-1.6103e+58 -1.98261e+59 2.35544e+59)
(-1.60944e+58 -1.9219e+59 2.19512e+59)
(-1.61309e+58 -1.81314e+59 2.00523e+59)
(-1.61351e+58 -1.908e+59 2.05529e+59)
(-1.61537e+58 -1.96364e+59 2.16175e+59)
(-1.51421e+58 -4.559e+59 4.79887e+59)
(-1.7444e+58 2.50299e+59 -4.59518e+58)
(-1.8881e+58 9.77942e+59 -2.02019e+60)
(-4.4895e+57 -8.60851e+58 2.85739e+59)
(-1.27321e+58 -2.72854e+59 5.22026e+59)
(-1.6658e+58 -3.34502e+59 5.24074e+59)
(-1.74386e+58 -3.09892e+59 4.59894e+59)
(-1.69796e+58 -2.67932e+59 3.91852e+59)
(-1.63367e+58 -2.34414e+59 3.38493e+59)
(-1.59232e+58 -2.1338e+59 3.05543e+59)
(-1.57508e+58 -2.01301e+59 2.88327e+59)
(-1.57128e+58 -1.9124e+59 2.75337e+59)
(-1.5742e+58 -1.77659e+59 2.60079e+59)
(-1.58151e+58 -1.73739e+59 2.57273e+59)
(-1.58016e+58 -1.91735e+59 2.94484e+59)
(-1.49097e+58 -4.41977e+59 5.81798e+59)
(-1.7314e+58 1.46209e+59 9.69555e+58)
(-1.8961e+58 1.00321e+60 -2.01389e+60)
(-3.04348e+57 -8.45546e+58 2.68287e+59)
(-1.0906e+58 -2.75053e+59 5.27278e+59)
(-1.55619e+58 -3.48228e+59 5.69581e+59)
(-1.71393e+58 -3.37805e+59 5.30262e+59)
(-1.70654e+58 -3.01735e+59 4.67554e+59)
(-1.64218e+58 -2.67588e+59 4.11874e+59)
(-1.58564e+58 -2.45033e+59 3.7717e+59)
(-1.55647e+58 -2.31976e+59 3.60533e+59)
(-1.54709e+58 -2.21878e+59 3.49873e+59)
(-1.54704e+58 -2.11392e+59 3.42119e+59)
(-1.55244e+58 -2.09581e+59 3.50707e+59)
(-1.54516e+58 -2.44314e+59 4.19427e+59)
(-1.5292e+58 -3.44178e+59 5.37023e+59)
(-1.69049e+58 2.61132e+58 2.3627e+59)
(-1.90193e+58 1.022e+60 -2.00942e+60)
(-1.83978e+57 -7.67641e+58 2.70986e+59)
(-8.91687e+57 -2.70595e+59 5.42123e+59)
(-1.41078e+58 -3.56975e+59 6.1308e+59)
(-1.65194e+58 -3.63907e+59 6.03065e+59)
(-1.69958e+58 -3.40201e+59 5.57952e+59)
(-1.65382e+58 -3.11257e+59 5.08363e+59)
(-1.59001e+58 -2.88403e+59 4.71823e+59)
(-1.54632e+58 -2.73788e+59 4.5122e+59)
(-1.52672e+58 -2.62737e+59 4.37731e+59)
(-1.52294e+58 -2.52578e+59 4.26824e+59)
(-1.5284e+58 -2.45773e+59 4.29355e+59)
(-1.52211e+58 -2.79574e+59 4.886e+59)
(-1.55846e+58 -2.86594e+59 4.87838e+59)
(-1.66091e+58 -1.57025e+58 3.57445e+59)
(-1.91345e+58 1.03402e+60 -2.0132e+60)
(-1.01188e+57 -9.05918e+58 2.94179e+59)
(-7.27402e+57 -2.8114e+59 5.93658e+59)
(-1.23323e+58 -3.8249e+59 6.69323e+59)
(-1.53159e+58 -4.04055e+59 6.68151e+59)
(-1.66257e+58 -3.94614e+59 6.24024e+59)
(-1.67161e+58 -3.70111e+59 5.66279e+59)
(-1.62192e+58 -3.45215e+59 5.16326e+59)
(-1.56689e+58 -3.27605e+59 4.89104e+59)
(-1.53154e+58 -3.17898e+59 4.78805e+59)
(-1.51569e+58 -3.12892e+59 4.86162e+59)
(-1.50812e+58 -3.24378e+59 5.2836e+59)
(-1.4797e+58 -4.00665e+59 6.47732e+59)
(-1.5096e+58 -4.0162e+59 7.29293e+59)
(-1.57735e+58 -1.42025e+59 7.52285e+59)
(-1.91676e+58 1.02846e+60 -2.01752e+60)
(3.05975e+55 -4.18792e+58 2.61842e+59)
(-5.91907e+57 -3.13594e+59 5.94044e+59)
(-1.19757e+58 -4.29764e+59 7.019e+59)
(-1.57084e+58 -4.63595e+59 7.52097e+59)
(-1.64922e+58 -4.34364e+59 7.68136e+59)
(-1.59208e+58 -3.93324e+59 7.65971e+59)
(-1.51628e+58 -3.51196e+59 7.60873e+59)
(-1.46556e+58 -3.15463e+59 7.57549e+59)
(-1.44522e+58 -2.87055e+59 7.54087e+59)
(-1.44912e+58 -2.63737e+59 7.44234e+59)
(-1.47451e+58 -2.32861e+59 7.21182e+59)
(-1.52104e+58 -2.12492e+59 6.62414e+59)
(-1.57555e+58 -2.38325e+59 6.53117e+59)
(-1.62232e+58 -1.27829e+58 7.3295e+59)
(-1.92575e+58 1.00853e+60 -2.01403e+60)
(-4.10814e+57 -3.86751e+59 7.98193e+59)
(-1.13131e+58 -3.36985e+59 1.15897e+60)
(-1.4294e+58 -2.72022e+59 1.22872e+60)
(-1.49163e+58 -1.24091e+59 1.19445e+60)
(-1.49221e+58 -6.16705e+58 1.07202e+60)
(-1.4921e+58 -1.16397e+58 9.23381e+59)
(-1.50818e+58 7.32636e+57 7.6591e+59)
(-1.5383e+58 -2.82314e+57 6.11145e+59)
(-1.57804e+58 -4.45121e+58 4.57423e+59)
(-1.62497e+58 -1.2731e+59 3.20999e+59)
(-1.67492e+58 -1.97656e+59 1.68736e+59)
(-1.72e+58 -1.78948e+59 8.31598e+58)
(-1.77419e+58 -9.88467e+58 -7.04437e+58)
(-1.82801e+58 5.43015e+57 -1.25116e+59)
(-1.96841e+58 8.6756e+59 -1.79813e+60)
(-7.11277e+57 3.35916e+59 1.99451e+60)
(-1.33426e+58 -4.50757e+59 1.62857e+60)
(-1.51741e+58 -3.14859e+59 1.13428e+60)
(-1.73684e+58 -1.11935e+60 5.91407e+59)
(-1.87552e+58 -1.26007e+60 3.57401e+59)
(-1.99282e+58 -1.32401e+60 1.92399e+59)
(-2.09005e+58 -1.38286e+60 9.07433e+58)
(-2.16856e+58 -1.47216e+60 5.77993e+58)
(-2.22848e+58 -1.57272e+60 1.1767e+59)
(-2.26783e+58 -1.65984e+60 2.53516e+59)
(-2.28302e+58 -1.67432e+60 4.74456e+59)
(-2.27619e+58 -1.67976e+60 7.54974e+59)
(-2.24566e+58 -1.62237e+60 1.04619e+60)
(-2.17913e+58 -1.49518e+60 1.29929e+60)
(-2.07864e+58 -2.71833e+59 3.57198e+59)
(-1.15633e+58 -4.45592e+60 8.14765e+59)
(-2.19703e+58 -2.95301e+60 -7.13072e+59)
(-2.62363e+58 -2.07796e+60 -1.51095e+60)
(-2.86717e+58 -1.47882e+60 -2.20041e+60)
(-3.02332e+58 -1.1666e+60 -2.61456e+60)
(-3.13371e+58 -9.625e+59 -2.83815e+60)
(-3.20659e+58 -9.73397e+59 -2.80623e+60)
(-3.25415e+58 -1.04756e+60 -2.56311e+60)
(-3.27753e+58 -1.24894e+60 -2.09751e+60)
(-3.28424e+58 -1.50415e+60 -1.39729e+60)
(-3.26968e+58 -1.89611e+60 -4.37999e+59)
(-3.2146e+58 -2.4046e+60 8.46577e+59)
(-3.10327e+58 -3.09352e+60 2.67171e+60)
(-2.8523e+58 -4.01702e+60 5.69967e+60)
(-2.46483e+58 -6.50394e+60 1.05382e+61)
(-3.60004e+58 -2.64199e+59 9.21423e+60)
(-4.3713e+58 1.04769e+61 -3.00056e+60)
(-4.25462e+58 9.81237e+60 -3.07573e+60)
(-4.28403e+58 1.12338e+61 -4.33506e+60)
(-4.25751e+58 1.15385e+61 -4.13373e+60)
(-4.24589e+58 1.20565e+61 -4.45178e+60)
(-4.21501e+58 1.19888e+61 -4.31732e+60)
(-4.18759e+58 1.20538e+61 -4.12546e+60)
(-4.14509e+58 1.17036e+61 -4.1335e+60)
(-4.09352e+58 1.124e+61 -3.55695e+60)
(-4.04186e+58 1.08088e+61 -3.68221e+60)
(-3.94466e+58 9.86732e+60 -2.85231e+60)
(-3.82605e+58 9.81753e+60 -2.37161e+60)
(-3.48775e+58 1.00493e+61 -7.18524e+59)
(-2.42328e+58 1.09055e+61 3.0773e+60)
(-7.20024e+58 3.00979e+62 2.90781e+61)
(-9.47259e+58 6.53561e+61 2.18021e+61)
(-6.92496e+58 -1.14637e+61 -1.52758e+61)
(-6.93157e+58 -1.01044e+61 -1.95684e+61)
(-6.63155e+58 -7.74343e+60 -1.69037e+61)
(-1.06719e+59 -1.24701e+59 -2.56093e+61)
(-7.57512e+58 -2.96177e+60 -2.35151e+61)
(-7.07652e+58 -1.53242e+60 -2.32557e+61)
(-6.69128e+58 -3.197e+59 -2.37408e+61)
(-9.97367e+58 7.57536e+60 -2.87977e+61)
(-7.44901e+58 3.41582e+60 -2.40072e+61)
(-6.99908e+58 3.84662e+60 -2.39798e+61)
(-1.00773e+59 1.37132e+61 -3.01108e+61)
(-7.37445e+58 8.67644e+60 -2.41977e+61)
(-7.30405e+58 1.04425e+61 -2.49033e+61)
(-6.9439e+58 1.09729e+61 -2.43641e+61)
(-9.83535e+58 2.19752e+61 -3.21477e+61)
(-7.36554e+58 1.6219e+61 -2.52712e+61)
(-6.87482e+58 1.63907e+61 -2.45306e+61)
(-9.73107e+58 2.87304e+61 -3.1572e+61)
(-7.17082e+58 2.10593e+61 -2.42667e+61)
(-7.09403e+58 2.32315e+61 -2.42916e+61)
(-6.73595e+58 2.3332e+61 -2.35542e+61)
(-9.5396e+58 3.64945e+61 -2.97241e+61)
(-7.03913e+58 2.71538e+61 -2.27792e+61)
(-6.9622e+58 2.93287e+61 -2.26272e+61)
(-6.6152e+58 2.92328e+61 -2.18681e+61)
(-9.3209e+58 4.28145e+61 -2.71486e+61)
(-6.9969e+58 3.30416e+61 -2.09752e+61)
(-6.53015e+58 3.24756e+61 -2.00879e+61)
(-9.22282e+58 4.79706e+61 -2.45328e+61)
(-6.80902e+58 3.59092e+61 -1.88595e+61)
(-6.73445e+58 3.80608e+61 -1.86675e+61)
(-6.39918e+58 3.75089e+61 -1.8047e+61)
(-9.01305e+58 5.24657e+61 -2.19051e+61)
(-6.77178e+58 4.05242e+61 -1.69848e+61)
(-6.32049e+58 3.95237e+61 -1.6282e+61)
(-8.926e+58 5.63939e+61 -1.94635e+61)
(-6.59406e+58 4.22847e+61 -1.50717e+61)
(-6.52356e+58 4.43654e+61 -1.49203e+61)
(-6.19465e+58 4.33583e+61 -1.44455e+61)
(-8.76597e+58 6.00251e+61 -1.72704e+61)
(-6.48045e+58 4.51869e+61 -1.33851e+61)
(-6.41053e+58 4.71542e+61 -1.31941e+61)
(-6.09131e+58 4.60522e+61 -1.27558e+61)
(-8.58248e+58 6.2435e+61 -1.51919e+61)
(-6.4519e+58 4.82901e+61 -1.18628e+61)
(-6.022e+58 4.67831e+61 -1.13862e+61)
(-8.50922e+58 6.49987e+61 -1.32965e+61)
(-6.28804e+58 4.88803e+61 -1.04228e+61)
(-6.22115e+58 5.07817e+61 -1.02988e+61)
(-5.90715e+58 4.93549e+61 -9.98069e+60)
(-8.36493e+58 6.70128e+61 -1.17355e+61)
(-6.18419e+58 5.0597e+61 -9.19757e+60)
(-6.11762e+58 5.23841e+61 -9.042e+60)
(-5.81251e+58 5.09289e+61 -8.7468e+60)
(-8.19646e+58 6.80178e+61 -1.03014e+61)
(-6.16065e+58 5.27139e+61 -8.11531e+60)
(-5.74919e+58 5.08733e+61 -7.80734e+60)
(-8.13163e+58 6.97208e+61 -8.95084e+60)
(-6.00619e+58 5.25865e+61 -7.12344e+60)
(-5.94147e+58 5.43045e+61 -7.02945e+60)
(-5.64434e+58 5.27025e+61 -6.81564e+60)
(-7.96506e+58 7.00078e+61 -7.93938e+60)
(-5.98383e+58 5.43082e+61 -6.3215e+60)
(-5.58345e+58 5.23275e+61 -6.11527e+60)
(-7.90389e+58 7.13448e+61 -6.93472e+60)
(-5.8342e+58 5.38799e+61 -5.59177e+60)
(-5.77207e+58 5.55542e+61 -5.55185e+60)
(-5.47904e+58 5.37591e+61 -5.38862e+60)
(-7.77499e+58 7.19642e+61 -6.30243e+60)
(-5.73963e+58 5.45638e+61 -5.04769e+60)
(-5.67764e+58 5.61609e+61 -4.9717e+60)
(-5.39251e+58 5.43979e+61 -4.79946e+60)
(-7.62299e+58 7.18989e+61 -5.76762e+60)
(-5.7181e+58 5.58563e+61 -4.61446e+60)
(-5.34023e+58 5.39034e+61 -4.43794e+60)
(-7.50579e+58 7.1723e+61 -5.24243e+60)
(-5.7146e+58 5.66667e+61 -4.23739e+60)
(-5.03754e+58 5.13241e+61 -4.1132e+60)
(-6.43857e+58 6.05721e+61 -4.46708e+60)
(-6.56403e+58 5.87075e+61 -4.6472e+60)
(-6.51678e+58 5.75103e+61 -4.82447e+60)
(-7.25191e+58 5.80161e+61 -4.20602e+60)
(-6.50116e+58 5.4724e+61 -4.09172e+60)
(-6.5365e+58 5.48339e+61 -4.41902e+60)
(-6.56612e+58 5.49143e+61 -4.65508e+60)
(-6.54692e+58 5.49604e+61 -4.69787e+60)
(-6.52228e+58 5.50214e+61 -4.70153e+60)
(-6.4899e+58 5.50025e+61 -4.7013e+60)
(-6.47847e+58 5.52127e+61 -4.66345e+60)
(-6.44574e+58 5.47536e+61 -4.928e+60)
(-6.92422e+58 5.98323e+61 -2.74764e+60)
(-6.42791e+58 5.36952e+61 -3.91051e+60)
(-6.39203e+58 5.35238e+61 -3.97198e+60)
(-6.35912e+58 5.35395e+61 -3.97152e+60)
(-6.34654e+58 5.35609e+61 -4.03892e+60)
(-6.32291e+58 5.35982e+61 -4.03903e+60)
(-6.29317e+58 5.3562e+61 -4.04265e+60)
(-6.2767e+58 5.37403e+61 -3.97184e+60)
(-6.21601e+58 5.33086e+61 -4.0981e+60)
(-6.64617e+58 5.79847e+61 -1.55258e+60)
(-6.20073e+58 5.2144e+61 -3.14289e+60)
(-6.1654e+58 5.19521e+61 -3.20517e+60)
(-6.13794e+58 5.19506e+61 -3.22252e+60)
(-6.11149e+58 5.1961e+61 -3.22431e+60)
(-6.08596e+58 5.19614e+61 -3.2164e+60)
(-6.0653e+58 5.20127e+61 -3.1829e+60)
(-6.0369e+58 5.1964e+61 -3.17467e+60)
(-6.02052e+58 5.21217e+61 -3.08926e+60)
(-5.96327e+58 5.17096e+61 -3.21983e+60)
(-6.35268e+58 5.61096e+61 -4.22798e+59)
(-5.93782e+58 5.04457e+61 -2.25429e+60)
(-5.90398e+58 5.02596e+61 -2.31574e+60)
(-5.8773e+58 5.02623e+61 -2.32385e+60)
(-5.85171e+58 5.02683e+61 -2.31721e+60)
(-5.82634e+58 5.0287e+61 -2.29526e+60)
(-5.80112e+58 5.02591e+61 -2.28638e+60)
(-5.78697e+58 5.04115e+61 -2.1942e+60)
(-5.73299e+58 5.00092e+61 -2.33686e+60)
(-6.09021e+58 5.42233e+61 7.18134e+59)
(-5.69713e+58 4.86623e+61 -1.29564e+60)
(-5.66502e+58 4.84778e+61 -1.36536e+60)
(-5.64151e+58 4.84741e+61 -1.38969e+60)
(-5.61685e+58 4.84771e+61 -1.38486e+60)
(-5.59299e+58 4.85023e+61 -1.36052e+60)
(-5.56626e+58 4.84619e+61 -1.35535e+60)
(-5.54899e+58 4.86062e+61 -1.25711e+60)
(-5.50131e+58 4.82259e+61 -1.42594e+60)
(-5.82783e+58 5.23793e+61 1.86976e+60)
(-5.461e+58 4.68499e+61 -3.81567e+59)
(-5.42991e+58 4.66611e+61 -4.51232e+59)
(-5.40486e+58 4.66734e+61 -4.67821e+59)
(-5.38139e+58 4.66527e+61 -4.37567e+59)
(-5.35886e+58 4.66754e+61 -3.94396e+59)
(-5.33277e+58 4.66494e+61 -3.84949e+59)
(-5.3168e+58 4.68054e+61 -2.87561e+59)
(-5.26794e+58 4.64256e+61 -4.48622e+59)
(-5.56733e+58 5.06949e+61 2.96394e+60)
(-5.22487e+58 4.50475e+61 5.58919e+59)
(-5.19506e+58 4.48877e+61 4.83722e+59)
(-5.17108e+58 4.49122e+61 4.68518e+59)
(-5.14757e+58 4.49169e+61 4.92922e+59)
(-5.12563e+58 4.49968e+61 4.58113e+59)
(-5.09928e+58 4.49254e+61 6.52106e+59)
(-5.07341e+58 4.49589e+61 6.95262e+59)
(-5.05755e+58 4.51869e+61 8.05645e+59)
(-5.01133e+58 4.48215e+61 6.69476e+59)
(-5.28353e+58 4.96222e+61 3.91822e+60)
(-4.96886e+58 4.36728e+61 1.61119e+60)
(-4.94563e+58 4.35721e+61 1.54414e+60)
(-4.92403e+58 4.36562e+61 1.53332e+60)
(-4.90082e+58 4.3722e+61 1.56539e+60)
(-4.88398e+58 4.39284e+61 1.53218e+60)
(-4.84748e+58 4.39987e+61 1.76298e+60)
(-4.76091e+58 4.39376e+61 3.02286e+60)
(-4.69408e+58 4.35588e+61 3.35119e+60)
(-5.07016e+58 5.40839e+61 4.35638e+60)
(-4.6237e+58 4.45141e+61 4.04711e+60)
(-4.68002e+58 4.49255e+61 4.23191e+60)
(-3.67008e+58 4.15572e+61 2.74706e+60)
(-4.42216e+58 4.92968e+61 3.11632e+60)
(-5.11253e+58 5.33482e+61 3.81343e+60)
(-3.36041e+58 3.65185e+61 2.35077e+60)
(-4.61581e+58 5.07458e+61 3.29064e+60)
(-3.31221e+58 3.72048e+61 2.30683e+60)
(-4.09394e+58 4.41687e+61 2.6219e+60)
(-4.73178e+58 4.77328e+61 3.11782e+60)
(-3.18673e+58 3.38843e+61 2.00972e+60)
(-3.9078e+58 4.08999e+61 2.40013e+60)
(-4.52473e+58 4.49678e+61 2.90776e+60)
(-2.96394e+58 3.07463e+61 1.74352e+60)
(-4.07372e+58 4.29406e+61 2.4003e+60)
(-2.91217e+58 3.13516e+61 1.67553e+60)
(-3.60332e+58 3.72156e+61 1.81397e+60)
(-4.25683e+58 4.20061e+61 2.79437e+60)
(-2.79922e+58 2.86426e+61 1.69158e+60)
(-3.90122e+58 4.13768e+61 3.30744e+60)
(-2.80583e+58 3.01567e+61 2.26896e+60)
(-3.4908e+58 3.66356e+61 3.49548e+60)
(-4.08538e+58 4.05433e+61 6.55479e+60)
(-2.76003e+58 2.85745e+61 4.052e+60)
(-3.39691e+58 3.52284e+61 6.53156e+60)
(-4.01232e+58 4.05299e+61 9.41149e+60)
(-2.64415e+58 2.70366e+61 6.47414e+60)
(-3.66418e+58 4.10581e+61 7.31149e+60)
(-2.64103e+58 2.99892e+61 5.74312e+60)
(-3.25346e+58 3.58473e+61 4.50056e+60)
(-3.47424e+58 5.30402e+61 -1.1556e+61)
(-2.35312e+58 3.61043e+61 -5.64871e+60)
(-2.60272e+58 6.03224e+61 -2.73381e+61)
(-1.79978e+58 4.78648e+61 -2.07424e+61)
(-2.00221e+58 6.01695e+61 -3.2517e+61)
(-2.36357e+58 7.14246e+61 -4.43033e+61)
(-1.52392e+58 5.51904e+61 -3.01871e+61)
(-1.96318e+58 6.86679e+61 -3.93763e+61)
(-2.49503e+58 7.79925e+61 -5.0028e+61)
(-1.5253e+58 5.78786e+61 -3.32406e+61)
(-2.30551e+58 8.097e+61 -4.89654e+61)
(-1.5346e+58 6.34473e+61 -3.58405e+61)
(-1.98809e+58 7.52922e+61 -4.66616e+61)
(-2.16713e+58 7.72353e+61 -5.63042e+61)
(-1.22925e+58 5.76592e+61 -4.01717e+61)
(-1.50611e+58 7.19867e+61 -5.41955e+61)
(-8.38426e+57 5.60023e+61 -4.29623e+61)
(-7.88177e+57 6.46719e+61 -5.39209e+61)
(6.91062e+57 6.27203e+61 -6.3433e+61)
(8.03959e+57 4.06927e+61 -5.12753e+61)
(2.73293e+58 5.11353e+61 -6.70028e+61)
(1.03023e+59 1.13755e+62 -9.97426e+61)
(5.7238e+58 -3.84709e+61 -5.68521e+61)
(6.10197e+58 6.44539e+61 -6.20992e+61)
(-2.9966e+57 -1.43869e+61 -1.73433e+61)
(-1.00365e+58 -3.32774e+59 -1.00739e+61)
(-6.01403e+58 -6.81347e+61 3.30736e+61)
(-6.4861e+58 -7.19575e+61 3.97272e+61)
(-9.76425e+58 -1.12258e+62 6.47588e+61)
(-9.08493e+58 -1.04015e+62 6.3608e+61)
(-1.44363e+59 -1.65953e+62 1.05757e+62)
(-1.55452e+59 -2.07198e+62 1.19262e+62)
(-1.34811e+59 -1.84574e+62 1.05957e+62)
(-2.06791e+59 -2.82623e+62 1.64163e+62)
(-2.02426e+59 -3.16143e+62 1.65062e+62)
(-1.69607e+59 -2.83373e+62 1.43067e+62)
(-2.39629e+59 -4.07683e+62 2.01866e+62)
(-1.85678e+59 -3.2459e+62 1.61056e+62)
(-2.83411e+59 -4.89972e+62 2.44445e+62)
(-2.61177e+59 -5.01984e+62 2.28874e+62)
(-2.15615e+59 -4.43363e+62 1.95841e+62)
(-3.01015e+59 -6.24535e+62 2.70951e+62)
(-2.28038e+59 -4.82727e+62 2.11974e+62)
(-3.4482e+59 -7.18012e+62 3.17317e+62)
(-3.09566e+59 -6.98893e+62 2.88821e+62)
(-2.55817e+59 -5.99951e+62 2.46031e+62)
(-3.76721e+59 -8.61966e+62 3.56964e+62)
(-3.35042e+59 -8.36838e+62 3.24699e+62)
(-2.7434e+59 -7.2581e+62 2.78819e+62)
(-3.78578e+59 -1.01432e+63 3.79118e+62)
(-2.83714e+59 -7.3499e+62 2.94256e+62)
(-4.39106e+59 -1.01433e+63 4.59087e+62)
(-9.19918e+56 -1.13528e+59 2.00544e+60)
(-8.95206e+56 -3.42997e+59 1.83422e+60)
(-8.7892e+56 1.26709e+59 1.96497e+60)
(-8.33378e+56 -1.73192e+58 1.81954e+60)
(-7.74374e+56 -6.38898e+59 1.41409e+60)
(-7.70175e+56 2.53803e+59 1.51582e+60)
(-1.01489e+57 9.00538e+59 1.22259e+60)
(-1.1178e+57 1.33195e+60 9.55866e+59)
(-9.4309e+56 8.06936e+59 1.217e+60)
(-8.00537e+56 6.27861e+59 9.21568e+59)
(-7.88454e+56 5.74807e+59 9.15709e+59)
(-7.75196e+56 -5.13015e+59 1.0618e+60)
(-7.87102e+56 -9.53578e+59 1.21775e+60)
(-7.84462e+56 -1.27429e+60 7.9952e+59)
(-7.76711e+56 -8.19988e+59 8.09584e+59)
(-1.06819e+57 6.33657e+59 1.4083e+60)
(-9.71783e+56 -4.81416e+59 1.35914e+60)
(-9.48756e+56 7.44401e+59 1.55675e+60)
(-8.82128e+56 -2.36242e+57 1.72505e+60)
(-8.20924e+56 -8.52919e+59 1.65451e+60)
(-7.55518e+56 -1.96119e+60 8.07483e+59)
(-6.83881e+56 -4.61556e+59 1.25401e+60)
(-4.61731e+56 -1.5386e+60 -4.21136e+57)
(-9.49496e+56 5.88383e+60 5.04212e+59)
(-1.1055e+57 1.92426e+60 2.09924e+60)
(-9.8857e+56 1.68603e+60 1.94712e+60)
(-1.06689e+57 1.71785e+60 1.80762e+60)
(-1.11787e+57 1.41102e+60 1.5059e+60)
(-1.03156e+57 6.64811e+59 1.33625e+60)
(-8.19307e+56 -1.49745e+60 8.197e+59)
(-6.36364e+56 -2.23633e+60 3.61422e+59)
(-1.15178e+57 -2.47308e+59 1.49455e+60)
(-9.93633e+56 -4.15323e+60 -5.68577e+58)
(-8.95209e+56 -6.11455e+59 8.70471e+59)
(-6.81877e+56 -1.17479e+60 7.31206e+59)
(-7.92962e+56 -9.01671e+59 1.07727e+60)
(-7.05787e+56 -2.00857e+60 1.13702e+60)
(-6.18037e+56 -2.92755e+60 5.08194e+59)
(-6.3811e+56 -4.92092e+59 7.05508e+59)
(-8.04565e+56 -2.78415e+59 2.51774e+59)
(-7.70943e+56 -5.42861e+59 -1.83249e+57)
(-7.64818e+56 2.42781e+60 5.60201e+59)
(-6.46501e+56 2.7184e+59 -7.80725e+59)
(-6.62105e+56 7.47128e+59 -1.26476e+60)
(-6.82007e+56 4.62416e+59 5.00719e+58)
(-3.50019e+56 -1.47078e+60 -5.9985e+59)
(-5.73621e+56 2.31574e+59 1.27822e+59)
(-7.3451e+56 -1.15706e+60 -3.49999e+59)
(-5.46275e+56 -2.09049e+60 -5.73253e+59)
(-3.90038e+56 -2.3244e+60 -5.91175e+59)
(-3.86678e+56 -2.25049e+60 -5.46066e+59)
(-2.44954e+56 -2.08919e+60 -3.53231e+59)
(-9.86901e+55 -2.27026e+60 -3.3574e+59)
(-7.85334e+55 -2.35263e+60 -4.49779e+59)
(-8.7288e+55 -2.13779e+60 -3.57271e+59)
(-9.48415e+55 -1.75857e+60 -3.01892e+59)
(-4.94387e+55 -1.42614e+60 -1.67305e+59)
(-2.27696e+55 -1.43568e+60 -1.58851e+59)
(-7.85957e+54 -1.47001e+60 -8.79394e+58)
(-6.83675e+52 -1.74252e+60 -5.58413e+58)
(8.0517e+52 -2.08074e+60 -5.01129e+58)
(8.35296e+51 -2.36391e+60 -4.56598e+58)
(4.69675e+51 -2.65198e+60 -4.95395e+58)
(2.35369e+51 -2.97661e+60 -6.03433e+58)
(7.00889e+50 -3.37993e+60 -7.8213e+58)
(-4.27465e+49 -3.90016e+60 -1.03474e+59)
(-2.22309e+50 -4.58365e+60 -1.36397e+59)
(-2.19949e+50 -5.47486e+60 -1.76324e+59)
(-2.29922e+50 -6.6165e+60 -2.22149e+59)
(-2.69987e+50 -8.04589e+60 -2.60335e+59)
(8.50316e+50 -9.69962e+60 -2.774e+59)
(-1.86995e+53 -1.14729e+61 -1.43475e+59)
(1.24798e+56 -1.19028e+61 2.46982e+59)
(6.63939e+56 -8.66372e+60 1.88578e+60)
(-1.45867e+57 -1.40778e+61 7.10795e+60)
(-1.20441e+58 -5.12872e+61 2.13291e+61)
(-4.61292e+58 -1.56455e+62 6.50001e+61)
(-1.33575e+59 -3.8458e+62 1.75558e+62)
(-3.00012e+59 -7.63133e+62 3.75346e+62)
(-9.5314e+56 -1.30645e+59 2.00697e+60)
(-9.05701e+56 -4.7695e+59 1.81785e+60)
(-8.56436e+56 -3.00226e+59 1.7591e+60)
(-8.17082e+56 -1.91165e+59 1.78816e+60)
(-7.68811e+56 -6.30383e+59 1.46034e+60)
(-8.4642e+56 2.71787e+59 1.46502e+60)
(-1.10058e+57 7.69505e+59 1.31168e+60)
(-1.14937e+57 1.27505e+60 9.18732e+59)
(-8.8838e+56 3.07934e+59 1.21777e+60)
(-7.64613e+56 -3.91883e+59 1.41256e+60)
(-7.75667e+56 1.39906e+59 9.14836e+59)
(-7.72304e+56 -7.23662e+59 1.29195e+60)
(-7.81386e+56 -1.05102e+60 1.26911e+60)
(-7.76665e+56 -1.17093e+60 8.76113e+59)
(-8.14485e+56 -5.38247e+59 8.82153e+59)
(-1.08085e+57 2.95205e+59 1.32947e+60)
(-9.62193e+56 -4.73548e+59 1.3557e+60)
(-9.38117e+56 6.62235e+59 1.62065e+60)
(-8.62015e+56 1.33347e+59 2.12545e+60)
(-8.05478e+56 -7.98777e+59 1.8416e+60)
(-7.47623e+56 -1.58895e+60 9.83273e+59)
(-6.28827e+56 1.87684e+59 1.05939e+60)
(-4.91397e+56 -5.391e+59 -1.81366e+59)
(-1.03897e+57 4.63986e+60 7.31579e+59)
(-1.12244e+57 1.80043e+60 2.12619e+60)
(-1.01269e+57 1.78418e+60 2.1133e+60)
(-1.11867e+57 1.57567e+60 1.96934e+60)
(-1.12603e+57 1.47922e+60 1.38897e+60)
(-1.07366e+57 5.22687e+59 1.44326e+60)
(-8.6236e+56 -1.28827e+60 8.35464e+59)
(-6.55952e+56 -3.07705e+60 3.18204e+59)
(-1.24146e+57 -4.62473e+59 1.59603e+60)
(-9.98259e+56 -4.12857e+60 2.7008e+58)
(-9.00492e+56 -1.28434e+60 4.62645e+59)
(-6.32157e+56 -1.67874e+60 3.44445e+59)
(-7.59672e+56 -1.34908e+60 1.16883e+60)
(-7.04094e+56 -2.14628e+60 1.71577e+60)
(-6.1779e+56 -2.88936e+60 7.36317e+59)
(-6.61286e+56 -2.26333e+59 1.10268e+60)
(-8.07994e+56 6.96325e+58 3.85872e+59)
(-7.71682e+56 1.50044e+59 -2.7925e+59)
(-7.50857e+56 1.84312e+60 6.13067e+59)
(-6.315e+56 1.50002e+60 -1.14608e+60)
(-8.2637e+56 2.43185e+60 -1.49149e+60)
(-6.5636e+56 2.84864e+59 3.07783e+59)
(-3.60486e+56 -1.79133e+60 -8.08572e+59)
(-6.45865e+56 1.76941e+59 3.23132e+59)
(-7.50405e+56 -7.0749e+59 -2.85038e+59)
(-5.49932e+56 -2.41633e+60 -7.93434e+59)
(-4.03367e+56 -2.74625e+60 -6.46318e+59)
(-3.86448e+56 -2.61666e+60 -4.25288e+59)
(-2.48878e+56 -2.35171e+60 -1.5147e+59)
(-9.91233e+55 -2.41491e+60 -1.38665e+59)
(-7.81491e+55 -2.42433e+60 -2.91477e+59)
(-8.74226e+55 -2.15779e+60 -2.5408e+59)
(-9.46891e+55 -1.7405e+60 -2.72837e+59)
(-4.87949e+55 -1.39624e+60 -2.13749e+59)
(-2.27355e+55 -1.42653e+60 -2.46704e+59)
(-7.93523e+54 -1.5014e+60 -1.87605e+59)
(-1.07332e+53 -1.808e+60 -1.40605e+59)
(9.45232e+52 -2.17336e+60 -1.11804e+59)
(9.22413e+51 -2.47717e+60 -8.79018e+58)
(4.64087e+51 -2.7783e+60 -7.87742e+58)
(2.36229e+51 -3.11252e+60 -8.54072e+58)
(7.07351e+50 -3.52585e+60 -1.07456e+59)
(-4.0446e+49 -4.05999e+60 -1.43438e+59)
(-2.22256e+50 -4.76409e+60 -1.91978e+59)
(-2.20238e+50 -5.6851e+60 -2.51191e+59)
(-2.29756e+50 -6.86831e+60 -3.19242e+59)
(-2.72332e+50 -8.35473e+60 -3.77987e+59)
(1.14724e+51 -1.00871e+61 -4.09534e+59)
(-2.10243e+53 -1.19733e+61 -2.4407e+59)
(1.39235e+56 -1.25567e+61 2.52745e+59)
(7.25312e+56 -9.58642e+60 2.04638e+60)
(-1.57521e+57 -1.62331e+61 6.73159e+60)
(-1.30039e+58 -5.80256e+61 2.01867e+61)
(-5.04617e+58 -1.7573e+62 6.68073e+61)
(-1.47077e+59 -4.25254e+62 1.8645e+62)
(-3.15765e+59 -8.12079e+62 3.69191e+62)
(-9.79927e+56 -1.2716e+59 1.96641e+60)
(-9.23838e+56 -4.84674e+59 1.78179e+60)
(-8.6368e+56 -4.27818e+59 1.73251e+60)
(-8.24496e+56 -3.65149e+59 1.72614e+60)
(-7.83244e+56 -5.32616e+59 1.45828e+60)
(-8.91681e+56 4.09305e+59 1.42203e+60)
(-1.12944e+57 7.63465e+59 1.33332e+60)
(-1.15842e+57 1.02582e+60 9.97705e+59)
(-8.86268e+56 2.94284e+59 1.41304e+60)
(-7.94906e+56 -1.18473e+59 1.32624e+60)
(-7.64573e+56 -1.56458e+59 1.00546e+60)
(-7.6012e+56 -6.28139e+59 1.29369e+60)
(-7.65418e+56 -1.08266e+60 1.22993e+60)
(-7.66564e+56 -1.14888e+60 8.9383e+59)
(-8.57216e+56 -4.70344e+59 9.46281e+59)
(-1.07066e+57 2.08251e+59 1.16859e+60)
(-9.53753e+56 -5.86559e+59 1.26484e+60)
(-9.17576e+56 1.69667e+59 1.45892e+60)
(-8.44283e+56 -2.77669e+59 2.01486e+60)
(-7.90657e+56 -1.17609e+60 1.76007e+60)
(-7.35374e+56 -1.70348e+60 1.04017e+60)
(-6.00776e+56 -1.76517e+59 1.07699e+60)
(-5.24595e+56 -3.45985e+59 1.87339e+59)
(-1.08169e+57 3.95857e+60 9.47814e+59)
(-1.1505e+57 1.64655e+60 2.06498e+60)
(-1.05352e+57 1.70641e+60 2.18815e+60)
(-1.15986e+57 1.44757e+60 2.14273e+60)
(-1.17087e+57 1.22715e+60 1.65354e+60)
(-1.13156e+57 7.07954e+59 1.4303e+60)
(-9.41558e+56 -7.94666e+59 9.78788e+59)
(-7.14185e+56 -2.83914e+60 4.24216e+59)
(-1.28138e+57 -2.95894e+59 1.60685e+60)
(-9.82628e+56 -3.96163e+60 6.71465e+57)
(-9.06373e+56 -1.39477e+60 4.90303e+59)
(-6.45566e+56 -2.23504e+60 -1.00819e+59)
(-7.31799e+56 -2.01827e+60 7.70788e+59)
(-7.03593e+56 -2.13476e+60 1.54886e+60)
(-6.19137e+56 -2.94757e+60 6.93915e+59)
(-6.81786e+56 -3.48238e+59 1.16141e+60)
(-8.10128e+56 -1.41771e+59 5.21102e+59)
(-7.77033e+56 -3.80512e+58 -2.2325e+59)
(-7.82912e+56 1.77758e+60 7.03629e+59)
(-6.77e+56 1.38241e+60 -1.19189e+60)
(-8.16542e+56 1.22146e+60 -8.13918e+59)
(-6.89609e+56 4.09729e+59 3.87376e+59)
(-3.98084e+56 -1.72736e+60 -9.47984e+59)
(-6.94989e+56 3.8634e+59 5.16196e+59)
(-7.85969e+56 -4.62643e+59 -1.94752e+59)
(-5.44476e+56 -2.13281e+60 -6.11252e+59)
(-4.14228e+56 -2.68994e+60 -7.10632e+59)
(-3.8821e+56 -2.62935e+60 -4.96417e+59)
(-2.60646e+56 -2.37024e+60 -1.82557e+59)
(-1.04133e+56 -2.42277e+60 -1.16073e+59)
(-7.73731e+55 -2.45622e+60 -2.43384e+59)
(-8.71418e+55 -2.21183e+60 -1.95995e+59)
(-9.45321e+55 -1.80208e+60 -2.1055e+59)
(-4.8176e+55 -1.45837e+60 -1.64879e+59)
(-2.24724e+55 -1.47403e+60 -2.28451e+59)
(-7.92533e+54 -1.53268e+60 -1.92603e+59)
(-1.28197e+53 -1.81796e+60 -1.58956e+59)
(1.03594e+53 -2.1697e+60 -1.33551e+59)
(9.98335e+51 -2.46643e+60 -1.09668e+59)
(4.6066e+51 -2.76313e+60 -1.00247e+59)
(2.37803e+51 -3.09481e+60 -1.08545e+59)
(7.17369e+50 -3.50626e+60 -1.35541e+59)
(-3.68521e+49 -4.03843e+60 -1.80173e+59)
(-2.22163e+50 -4.73979e+60 -2.41016e+59)
(-2.20682e+50 -5.65748e+60 -3.15809e+59)
(-2.29501e+50 -6.83749e+60 -4.02436e+59)
(-2.77066e+50 -8.32424e+60 -4.79628e+59)
(1.72316e+51 -1.00691e+61 -5.2766e+59)
(-2.889e+53 -1.20039e+61 -3.52983e+59)
(1.56912e+56 -1.27024e+61 2.02658e+59)
(8.00273e+56 -9.96817e+60 2.05662e+60)
(-1.67018e+57 -1.7935e+61 5.90021e+60)
(-1.42151e+58 -6.42381e+61 1.9019e+61)
(-5.68237e+58 -1.94667e+62 7.18239e+61)
(-1.64227e+59 -4.628e+62 2.02734e+62)
(-3.26017e+59 -8.25285e+62 3.6042e+62)
(-1.01509e+57 -1.16965e+59 1.96857e+60)
(-9.53816e+56 -4.70966e+59 1.76076e+60)
(-8.82859e+56 -4.7374e+59 1.69127e+60)
(-8.44867e+56 -3.9391e+59 1.67015e+60)
(-8.11657e+56 -4.32992e+59 1.45428e+60)
(-9.27991e+56 4.48138e+59 1.48239e+60)
(-1.1012e+57 7.02573e+59 1.50388e+60)
(-1.10914e+57 9.35892e+59 1.14352e+60)
(-9.1294e+56 3.06366e+59 1.64165e+60)
(-8.30465e+56 -9.1614e+57 1.47566e+60)
(-7.48467e+56 -1.93058e+59 1.11292e+60)
(-7.47626e+56 -6.03226e+59 1.28007e+60)
(-7.50466e+56 -1.03856e+60 1.16917e+60)
(-7.61979e+56 -1.10358e+60 9.2202e+59)
(-8.94426e+56 -3.76006e+59 1.02235e+60)
(-1.06184e+57 -1.8877e+58 1.11753e+60)
(-9.46752e+56 -6.50566e+59 1.19718e+60)
(-9.06678e+56 -7.66823e+57 1.45645e+60)
(-8.34802e+56 -4.06991e+59 1.92654e+60)
(-7.82218e+56 -1.25927e+60 1.71761e+60)
(-7.228e+56 -1.64465e+60 1.08525e+60)
(-5.82397e+56 -1.12631e+59 1.06315e+60)
(-5.65609e+56 2.7901e+58 4.91739e+59)
(-1.0993e+57 3.60243e+60 1.22611e+60)
(-1.14944e+57 1.73934e+60 2.15773e+60)
(-1.09761e+57 1.76403e+60 2.20139e+60)
(-1.1951e+57 1.55827e+60 2.20867e+60)
(-1.20802e+57 1.48164e+60 1.6735e+60)
(-1.18627e+57 8.07834e+59 1.51214e+60)
(-1.0322e+57 -5.01114e+59 1.18016e+60)
(-8.09235e+56 -2.92841e+60 6.1476e+59)
(-1.31261e+57 -1.82841e+59 1.50127e+60)
(-9.81894e+56 -3.99989e+60 3.8743e+58)
(-8.905e+56 -1.54417e+60 6.88574e+59)