/*--------------------------------*- C++ -*----------------------------------*\
| =========                 |                                                 |
| \\      /  F ield         | OpenFOAM: The Open Source CFD Toolbox           |
|  \\    /   O peration     | Version:  4.1                                   |
|   \\  /    A nd           | Web:      www.OpenFOAM.org                      |
|    \\/     M anipulation  |                                                 |
\*---------------------------------------------------------------------------*/
FoamFile
{
    version     2.0;
    format      ascii;
    class       volScalarField;
    location    "30";
    object      p;
}
// * * * * * * * * * * * * * * * * * * * * * * * * * * * * * * * * * * * * * //

dimensions      [0 2 -2 0 0 0 0];

internalField   nonuniform List<scalar> 
6785
(
585.547
506.828
459.742
406.201
359.353
314.221
272.201
232.448
194.923
159.487
125.368
92.3901
65.0241
36.8848
-3.78706
-31.4183
-49.8702
-40.18
-47.7767
-47.497
-50.3367
-51.3601
-52.2342
-52.1349
-51.123
-49.0936
-46.3054
-42.1827
-37.4656
-35.0131
-24.7772
-29.5125
-20.9815
-26.1713
-23.1076
-25.0414
-25.0471
-26.31
-27.3556
-28.808
-30.3147
-31.803
-32.6649
-32.2047
-30.22
-4.73652
-6.99885
-3.24684
-8.15938
-5.83116
-8.49918
-8.41223
-9.42557
-9.76595
-10.0841
-10.0206
-9.66104
-8.38461
-6.54553
-3.1266
11.6057
11.4683
15.3961
13.589
17.8106
17.6827
20.4094
21.836
23.8944
25.8495
28.0362
30.3146
32.7735
34.8032
36.9976
31.8917
32.7301
35.489
34.7148
37.9331
37.8759
40.1144
40.9189
42.1676
42.7
42.8542
42.5698
42.2401
42.4174
42.7288
45.8945
44.5167
46.088
43.9281
45.4211
43.5639
43.871
42.3003
41.2253
39.2651
37.3008
35.3394
34.0202
33.5347
31.4379
19.9577
15.3552
15.3105
11.5254
11.0105
7.96149
6.92763
4.73859
3.79305
2.56394
1.74133
0.939834
0.472624
-0.706383
-3.72344
-20.1543
-24.7555
-25.002
-28.2896
-29.2093
-32.251
-33.8834
-36.5218
-38.4506
-40.5706
-42.4131
-43.7522
-44.6989
-45.3841
-44.0035
-32.1354
-33.1547
-32.1945
-33.6206
-32.9854
-34.1658
-34.2046
-34.9945
-35.219
-35.2555
-34.593
-33.33
-31.1694
-29.2888
-26.1501
-7.44661
-5.81862
-3.86134
-3.20413
-1.19956
-0.223964
1.5138
2.9318
4.59778
6.26212
8.07059
9.80305
11.7269
13.1313
15.2339
10.8249
12.627
13.9499
14.6846
16.1381
16.888
18.0817
18.9856
20
20.9135
21.8466
22.6405
23.4941
24.0392
24.7634
30.0455
30.7727
30.6955
30.4979
30.769
30.4201
30.4355
30.2807
30.288
30.3543
30.5559
30.766
31.1603
31.3751
31.9352
32.7544
34.8924
33.9624
33.0899
32.6937
32.4459
32.6787
32.9955
33.5612
34.0673
34.5052
34.7372
34.8791
34.8467
34.7719
87.6826
85.227
78.3303
69.4688
62.82
56.4618
50.2479
45.3763
40.8086
36.824
33.4887
30.8337
28.2741
26.5384
23.4083
33.9692
34.5427
35.1359
35.0774
35.3369
36.2268
37.2277
36.9943
36.8875
36.7779
37.6977
36.9584
36.7859
37.2595
36.1566
35.8985
36.1058
36.3581
34.4602
35.3412
35.3999
33.6181
33.433
34.6477
34.647
32.7899
32.7166
34.0429
34.6708
32.4055
34.1237
34.8987
33.212
33.2619
34.6211
35.6523
33.9486
35.2773
36.3703
35.2747
35.3684
36.4025
37.2225
36.4371
36.5418
37.3418
37.8166
37.1631
37.8887
38.4345
38.0957
38.2511
38.6797
39.5382
39.3955
39.4784
39.6659
40.7534
40.6503
40.7135
41.0336
40.9861
41.1389
41.031
41.6497
42.1924
43.3371
41.6133
40.0559
42.4232
44.8161
34.6095
30.7245
36.6293
42.5497
9.97281
25.9366
34.8681
-23.9487
-4.32957
6.22867
3.89659
9.42511
-0.0991582
3.38731
8.05889
7.67231
8.06564
8.38468
8.58171
7.49103
10.3546
14.9094
6.26105
7.93283
7.35455
7.63279
8.18653
8.40553
7.69443
10.1895
19.7852
7.74236
8.53659
6.95322
6.91549
8.06254
8.19283
7.05021
5.33582
4.67811
15.9143
6.9977
5.75546
3.73473
1.25202
0.82519
1.41598
-0.934816
-5.44633
-1.41235
0.772023
1.11102
0.1752
-2.54189
-4.5874
-6.93391
-6.2821
-10.1807
-10.1008
3.36146
-0.566493
-0.149153
-0.844109
-2.73714
-4.30291
-5.63846
-11.9171
-12.5765
5.08978
0.419036
-0.636019
-3.13881
-4.82546
-6.32626
-6.99094
-7.57347
-10.0859
-15.4608
2.38485
-1.42604
-1.21762
-2.25238
-3.66019
-8.50714
-9.63121
-6.57748
-18.8974
-0.525099
-3.30328
-4.56116
0.280304
-0.65911
1.06104
1.53338
2.27066
3.17474
3.04939
3.46754
3.7775
3.8037
3.93018
4.00405
4.06771
4.13176
4.15437
4.15791
4.16061
4.15344
4.14111
4.12923
4.10209
4.04718
4.09542
4.02311
3.95436
3.98232
3.85852
4.0703
3.90511
3.79145
3.89051
3.69524
4.12255
3.82206
3.3708
4.23173
3.58777
3.31289
3.57047
3.07731
4.30528
3.22524
2.87157
3.19518
2.5409
4.20593
2.99238
1.664
4.32559
2.44802
1.79044
2.39115
1.33051
4.25427
1.88802
1.27493
1.87786
0.819037
3.93241
1.7886
-0.171205
4.00966
1.22771
0.410255
1.20084
-0.0775778
3.71123
0.791718
-0.0470961
0.759158
-0.591615
3.15825
0.71823
-1.87549
3.12443
0.0487293
-1.53685
-0.390898
-2.07487
0.0144366
-0.0470375
-0.0288098
-0.0400649
-0.0425158
-0.0453625
-0.0415491
-0.0298251
-0.0107876
-0.00250336
-0.0403339
-0.0771542
-0.00436382
-0.240914
-0.284106
-0.370978
-0.50821
-0.639144
-0.752723
-0.842388
-0.905303
-0.941424
-0.948371
-0.927121
-0.880284
-0.810698
-0.72258
-0.620154
-0.507606
-0.389074
-0.268305
-0.148302
-0.031552
0.0795216
0.183082
0.277814
0.363133
0.439153
0.506629
0.566325
0.618771
0.664392
0.703507
0.735954
0.760747
0.775936
0.778668
0.765997
0.735575
0.683639
0.603744
0.486815
0.343154
0.230884
0.000164304
0.0228677
-0.00179939
-0.00500174
-0.00916493
-0.0113546
-0.0135309
-0.00773671
-0.003072
-0.0268894
-0.191849
-0.28777
-0.346137
-0.352706
-0.315863
-0.25671
-0.193269
-0.128821
-0.0774952
-0.03661
0.0060786
0.00829686
0.0422426
0.0812437
0.00616388
0.0738987
-0.0573366
-0.00305537
-0.0169734
-0.0136309
-0.0261228
-0.0511855
-0.0979452
-0.153296
-0.194905
-0.220954
-0.165292
0.0686225
-0.306158
-0.377159
-0.559303
-0.815922
-1.05112
-1.2555
-1.41449
-1.52275
-1.58008
-1.58195
-1.53065
-1.43136
-1.28949
-1.11308
-0.910362
-0.689627
-0.458857
-0.224753
0.00665041
0.230005
0.440978
0.636496
0.814465
0.974268
1.1168
1.2434
1.35462
1.45062
1.53218
1.59991
1.6534
1.69048
1.70728
1.69825
1.65727
1.57923
1.45613
1.27638
1.02452
0.707224
0.468263
0.0678784
0.117805
0.0278058
0.00186499
-0.0240908
-0.0416951
-0.0541444
-0.0354626
-0.03375
-0.0762599
-0.378782
-0.538023
-0.621298
-0.622125
-0.556941
-0.453148
-0.33892
-0.221813
-0.123301
-0.0460976
0.0212679
0.0390989
0.122547
0.0595015
0.00252808
0.0957724
-0.112055
-0.0340538
-0.0615866
-0.0601931
-0.0791906
-0.108433
-0.156411
-0.203547
-0.233805
-0.272518
-0.254005
0.0325269
-0.266585
-0.39426
-0.610694
-0.915655
-1.19524
-1.43953
-1.62932
-1.75885
-1.82747
-1.8292
-1.76699
-1.6469
-1.47542
-1.2623
-1.01758
-0.751229
-0.472919
-0.190931
0.0873866
0.355667
0.608904
0.843474
1.0571
1.24896
1.41977
1.5707
1.7025
1.81569
1.91125
1.9898
2.05078
2.09164
2.10785
2.09277
2.0385
1.93751
1.77982
1.55427
1.24687
0.850873
0.534271
0.162539
0.172055
0.0342466
-0.0117595
-0.0551155
-0.0842783
-0.104002
-0.0728476
-0.0864835
-0.153834
-0.496762
-0.676017
-0.764464
-0.753533
-0.666765
-0.536552
-0.395112
-0.250481
-0.129424
-0.0328655
0.0441336
0.0633187
0.198145
0.230308
0.193323
0.124089
-0.134136
-0.0364459
-0.0700239
-0.0684703
-0.0959751
-0.141272
-0.213715
-0.285635
-0.33239
-0.369234
-0.338584
-0.0419419
-0.213519
-0.490733
-0.744252
-1.11951
-1.46555
-1.76678
-1.99971
-2.15815
-2.24136
-2.24192
-2.1636
-2.01385
-1.80076
-1.53641
-1.23328
-0.903639
-0.559451
-0.211064
0.132444
0.463333
0.775573
1.06472
1.32811
1.56464
1.77492
1.96012
2.12129
2.25935
2.37559
2.47073
2.54406
2.59258
2.61087
2.59083
2.52246
2.39575
2.19845
1.91817
1.5438
1.0815
0.57781
0.289998
0.237098
0.051776
-0.0228988
-0.0891167
-0.134799
-0.164382
-0.123874
-0.149595
-0.255969
-0.648139
-0.858557
-0.957818
-0.935726
-0.822589
-0.658302
-0.481492
-0.30099
-0.151091
-0.029241
0.062616
0.0821139
0.25317
0.316398
0.283791
0.137028
-0.157866
-0.0498654
-0.0901283
-0.0920679
-0.129609
-0.188481
-0.273591
-0.351409
-0.399567
-0.43665
-0.415164
-0.136355
-0.109326
-0.59213
-0.876241
-1.32175
-1.73772
-2.09927
-2.37865
-2.56901
-2.66892
-2.66921
-2.57446
-2.39356
-2.13628
-1.8172
-1.45142
-1.05377
-0.638694
-0.218725
0.195153
0.593615
0.969481
1.31743
1.63432
1.91882
2.17155
2.39374
2.58666
2.75152
2.8899
3.00268
3.08901
3.14535
3.16523
3.13896
3.05432
2.89879
2.65772
2.31646
1.86819
1.37589
0.631595
0.410504
0.288428
0.0631344
-0.0437694
-0.134327
-0.198275
-0.238086
-0.193303
-0.233893
-0.380852
-0.817811
-1.05894
-1.16661
-1.13188
-0.991142
-0.791034
-0.576723
-0.358134
-0.177315
-0.0282586
0.0779539
0.0998364
0.29768
0.461798
0.512
0.144409
-0.166351
-0.0554404
-0.0992833
-0.106385
-0.155607
-0.230156
-0.330023
-0.420458
-0.480153
-0.520832
-0.497831
-0.234979
-0.0347971
-0.715386
-1.01833
-1.52197
-2.0034
-2.41926
-2.73951
-2.95786
-3.07181
-3.07027
-2.95869
-2.7473
-2.44743
-2.07605
-1.65071
-1.18866
-0.706673
-0.21932
0.260636
0.722417
1.15779
1.56064
1.92741
2.25653
2.54863
2.80497
3.02708
3.21646
3.37504
3.50381
3.60185
3.66512
3.6862
3.65387
3.55375
3.37092
3.08865
2.69002
2.16817
1.65849
0.742932
0.542079
0.340482
0.0752283
-0.0693747
-0.188033
-0.27429
-0.326573
-0.28565
-0.343968
-0.530394
-0.996673
-1.26011
-1.37077
-1.32093
-1.15239
-0.917731
-0.667675
-0.412938
-0.203087
-0.0275625
0.0906503
0.116463
0.320025
0.565564
0.627381
0.140862
-0.166743
-0.0620724
-0.108495
-0.124323
-0.186883
-0.276115
-0.387103
-0.486849
-0.555816
-0.60263
-0.585275
-0.348471
-0.0488642
-0.840073
-1.18048
-1.73496
-2.28487
-2.75471
-3.11407
-3.35912
-3.48595
-3.48137
-3.35179
-3.10878
-2.76529
-2.34071
-1.85508
-1.32805
-0.77872
-0.223699
0.322494
0.847655
1.34252
1.80017
2.21666
2.59018
2.92136
3.21151
3.46245
3.67602
3.85449
3.99904
4.10868
4.17892
4.20141
4.16342
4.04837
3.83898
3.51647
3.06205
2.45895
1.87543
0.926549
0.67078
0.388348
0.0828908
-0.103381
-0.253212
-0.365349
-0.433026
-0.40537
-0.483177
-0.70813
-1.19394
-1.47268
-1.5821
-1.51462
-1.31694
-1.04728
-0.761376
-0.470579
-0.232027
-0.0292973
0.0998653
0.133113
0.321097
0.706387
0.791587
0.128214
-0.155427
-0.0659685
-0.113709
-0.141555
-0.217995
-0.320945
-0.442997
-0.554481
-0.636243
-0.69334
-0.685621
-0.485661
-0.162471
-0.933588
-1.3608
-1.95722
-2.57845
-3.10281
-3.49969
-3.77034
-3.90917
-3.90069
-3.75217
-3.47648
-3.0883
-2.60943
-2.06247
-1.46948
-0.851909
-0.228417
0.384718
0.973862
1.52872
2.04155
2.50803
2.92613
3.29646
3.62044
3.90018
4.13784
4.33611
4.49635
4.61755
4.69479
4.71881
4.67533
4.54554
4.30973
3.94702
3.43861
2.76021
2.01067
1.15518
0.793019
0.435126
0.087236
-0.145082
-0.329957
-0.472377
-0.560221
-0.556237
-0.658634
-0.919648
-1.41526
-1.70016
-1.80324
-1.71524
-1.4868
-1.18143
-0.859217
-0.532184
-0.264885
-0.0339393
0.10567
0.152431
0.29796
0.82748
1.02103
0.104979
-0.134296
-0.0696911
-0.11845
-0.161675
-0.251465
-0.367093
-0.500028
-0.62314
-0.717848
-0.788085
-0.796737
-0.644324
-0.344489
-0.973668
-1.56203
-2.19041
-2.88358
-3.46319
-3.89522
-4.18937
-4.33842
-4.32452
-4.15575
-3.84621
-3.41235
-2.87838
-2.26949
-1.61014
-0.924125
-0.232107
0.447891
1.10083
1.71539
2.28306
2.79913
3.26134
3.67034
4.02763
4.33564
4.59692
4.81452
4.9901
5.12263
5.20679
5.23243
5.18373
5.03956
4.77784
4.37539
3.81671
3.11396
2.10306
1.38633
0.907983
0.479812
0.0857876
-0.196098
-0.419757
-0.597056
-0.711243
-0.743068
-0.878539
-1.1729
-1.66652
-1.94437
-2.0336
-1.92149
-1.66069
-1.31917
-0.960535
-0.597527
-0.301659
-0.0416769
0.10859
0.17994
0.266446
0.935207
1.14909
0.0711671
-0.10331
-0.0733828
-0.123063
-0.183912
-0.285557
-0.413626
-0.557917
-0.693386
-0.802854
-0.889577
-0.919542
-0.817916
-0.558322
-0.960316
-1.78924
-2.43868
-3.20158
-3.83846
-4.30394
-4.61963
-4.77689
-4.75572
-4.56508
-4.22023
-3.73939
-3.14924
-2.47755
-1.75121
-0.996324
-0.235546
0.511387
1.22806
1.90216
2.5244
3.08972
3.59563
4.04285
4.43297
4.76876
5.05317
5.2897
5.48028
5.62394
5.71501
5.74244
5.68891
5.53084
5.24373
4.80202
4.19246
3.51242
2.21944
1.60353
1.01637
0.522354
0.078157
-0.256678
-0.523258
-0.7406
-0.8888
-0.969664
-1.14983
-1.47761
-1.95741
-2.2119
-2.27617
-2.13475
-1.83946
-1.46118
-1.06581
-0.666993
-0.342461
-0.0526313
0.108113
0.217838
0.256677
1.06838
1.31334
0.0259858
-0.0640017
-0.0787707
-0.129136
-0.208561
-0.320627
-0.461496
-0.617068
-0.765123
-0.890686
-0.996575
-1.05196
-0.999143
-0.776243
-0.923118
-2.04873
-2.70669
-3.53256
-4.22947
-4.72729
-5.06295
-5.22644
-5.19591
-4.98151
-4.59964
-4.07031
-3.42266
-2.6871
-1.89294
-1.06859
-0.238655
0.575429
1.3559
2.08948
2.76612
3.38044
3.92973
4.41476
4.83727
5.20038
5.50749
5.76254
5.96782
6.12246
6.22045
6.2499
6.19196
6.02046
5.70837
5.22805
4.55836
3.88074
2.42569
1.81104
1.12099
0.561841
0.0631056
-0.327724
-0.641504
-0.904444
-1.09553
-1.23932
-1.47808
-1.84342
-2.29966
-2.51275
-2.53681
-2.35757
-2.02412
-1.60778
-1.17491
-0.740114
-0.386306
-0.0660294
0.104031
0.25921
0.291664
1.19359
1.5197
-0.0311867
-0.017916
-0.0870176
-0.136899
-0.23479
-0.356446
-0.510347
-0.676821
-0.838273
-0.981827
-1.10955
-1.19343
-1.18501
-0.991209
-0.921114
-2.34411
-2.99919
-3.87672
-4.63674
-5.16621
-5.52056
-5.68838
-5.6462
-5.40579
-4.98488
-4.40532
-3.69868
-2.89805
-2.03514
-1.14066
-0.241151
0.6403
1.48462
2.27758
3.00842
3.67143
4.2637
4.78609
5.2405
5.63044
5.95975
6.23289
6.45254
6.61798
6.72291
6.75463
6.69277
6.50839
6.17157
5.65428
4.91586
4.13651
2.72469
2.00986
1.22346
0.597229
0.0398907
-0.409746
-0.775224
-1.08977
-1.33363
-1.55473
-1.86735
-2.27788
-2.70464
-2.8583
-2.82376
-2.59352
-2.21517
-1.75817
-1.28632
-0.814922
-0.430644
-0.0794971
0.102075
0.297589
0.368202
1.31373
1.64521
-0.101124
0.0326676
-0.0991139
-0.146248
-0.262311
-0.393242
-0.559811
-0.736852
-0.912805
-1.07609
-1.22802
-1.34313
-1.37699
-1.21794
-1.01702
-2.67212
-3.3205
-4.23498
-5.06107
-5.62171
-5.9937
-6.1643
-6.10813
-5.83918
-5.37688
-4.74506
-3.9777
-3.11059
-2.17787
-1.21251
-0.242943
0.706128
1.61435
2.46661
3.25142
3.96279
4.59764
5.1569
5.64267
6.05889
6.40988
6.70065
6.93431
7.11037
7.2223
7.25658
7.19133
6.9947
6.63327
6.08302
5.30066
4.2876
3.05573
2.1947
1.32362
0.627435
0.0077619
-0.503417
-0.925207
-1.29769
-1.60505
-1.91807
-2.32048
-2.78569
-3.18054
-3.25817
-3.14539
-2.847
-2.41293
-1.91053
-1.39726
-0.888021
-0.471479
-0.0889064
0.109703
0.335799
0.476745
1.45583
1.85005
-0.184142
0.0851517
-0.115083
-0.156724
-0.290966
-0.430686
-0.609087
-0.796818
-0.988645
-1.17338
-1.35181
-1.50086
-1.57834
-1.47322
-1.23968
-3.01114
-3.67228
-4.60866
-5.50336
-6.09485
-6.48338
-6.65552
-6.58323
-6.28303
-5.77666
-5.09023
-4.26016
-3.32499
-2.32124
-1.28412
-0.243924
0.773075
1.7453
2.65677
3.49533
4.25472
4.9317
5.52733
6.0439
6.48583
6.85796
7.16587
7.41316
7.59966
7.71863
7.7558
7.68778
7.47959
7.09354
6.51477
5.7718
4.40235
3.36038
2.36468
1.42048
0.651308
-0.03393
-0.609271
-1.09205
-1.52904
-1.91129
-2.33096
-2.83969
-3.36954
-3.73121
-3.71715
-3.50636
-3.12074
-2.61707
-2.0624
-1.50406
-0.955139
-0.504061
-0.089303
0.132682
0.385901
0.61027
1.57304
1.98268
-0.279313
0.136587
-0.134171
-0.168255
-0.320666
-0.468175
-0.657633
-0.856666
-1.06572
-1.27344
-1.48054
-1.66632
-1.79139
-1.76285
-1.57834
-3.33527
-4.05683
-5.00015
-5.96479
-6.58686
-6.99048
-7.16309
-7.07279
-6.73862
-6.18527
-5.44156
-4.54652
-3.54147
-2.4653
-1.35543
-0.243948
0.841337
1.87769
2.84829
3.74037
4.54742
5.26607
5.89751
6.4443
6.91132
7.304
7.62852
7.88906
8.0858
8.21187
8.25228
8.18214
7.96311
7.55223
6.94044
6.28342
4.58191
3.63813
2.52449
1.51306
0.667845
-0.0857217
-0.727778
-1.27623
-1.78445
-2.25359
-2.79453
-3.42693
-4.03138
-4.3577
-4.23537
-3.90659
-3.41406
-2.82592
-2.21118
-1.60333
-1.0124
-0.524276
-0.0765977
0.174874
0.456663
0.763249
1.72931
2.13994
-0.383088
0.183728
-0.155243
-0.181117
-0.350927
-0.504967
-0.705134
-0.916365
-1.14387
-1.37601
-1.61392
-1.83935
-2.01763
-2.08695
-2.01233
-3.62306
-4.47404
-5.41275
-6.44684
-7.09934
-7.51602
-7.68795
-7.57795
-7.20717
-6.60378
-5.79985
-4.83725
-3.76028
-2.61012
-1.42638
-0.242874
0.911109
2.01173
3.04139
3.98674
4.84108
5.60089
6.26757
6.84393
7.33541
7.74801
8.08858
8.36194
8.5687
8.70194
8.74598
8.67443
8.44521
8.00973
7.34928
6.71785
4.87988
3.90161
2.67847
1.6001
0.676129
-0.148143
-0.859333
-1.47803
-2.06419
-2.63282
-3.30933
-4.08408
-4.77336
-5.06037
-4.8109
-4.34361
-3.7245
-3.03726
-2.35495
-1.69303
-1.05753
-0.529838
-0.0486845
0.237352
0.550599
0.929785
1.87479
2.31658
-0.487963
0.222753
-0.177314
-0.19561
-0.380933
-0.540557
-0.751528
-0.975906
-1.22294
-1.48086
-1.75166
-2.0198
-2.25753
-2.43974
-2.50826
-3.85202
-4.92677
-5.85223
-6.95108
-7.63411
-8.0613
-8.23107
-8.09971
-7.68979
-7.03325
-6.16594
-5.13292
-3.98171
-2.7558
-1.49692
-0.240555
0.982595
2.14765
3.23631
4.23468
5.13588
5.93634
6.63764
7.24289
7.75814
8.18999
8.546
8.83171
9.04828
9.18874
9.23681
9.16467
8.92571
8.46756
7.7461
6.98529
5.26457
4.14676
2.82837
1.68034
0.675444
-0.221648
-1.0042
-1.69748
-2.36811
-3.0494
-3.87547
-4.8132
-5.59818
-5.84009
-5.44174
-4.81477
-4.04986
-3.24971
-2.49312
-1.77282
-1.09013
-0.520382
-0.00527066
0.318897
0.66599
1.10534
2.0059
2.45662
-0.582168
0.249134
-0.199553
-0.211677
-0.409816
-0.574725
-0.796819
-1.03522
-1.30273
-1.58775
-1.89353
-2.20752
-2.51057
-2.81138
-3.02655
-4.01669
-5.42262
-6.32523
-7.47936
-8.1932
-8.62788
-8.79357
-8.63906
-8.18741
-7.47464
-6.54066
-5.43411
-4.20608
-2.90244
-1.567
-0.236838
1.05601
2.28571
3.43331
4.48442
5.43207
6.2726
7.00784
7.64128
8.17955
8.62994
9.00075
9.29831
9.52441
9.67215
9.72469
9.65287
9.40457
8.92967
8.19155
7.13548
5.65722
4.36927
2.97394
1.75253
0.665145
-0.306649
-1.16252
-1.93433
-2.69561
-3.50333
-4.49264
-5.61674
-6.50937
-6.69862
-6.1266
-5.31803
-4.38857
-3.46277
-2.62627
-1.84363
-1.11109
-0.496764
0.0528487
0.417078
0.798961
1.28602
2.16803
2.60203
-0.651557
0.258203
-0.220965
-0.228914
-0.436946
-0.607455
-0.84101
-1.09421
-1.38307
-1.69647
-2.03929
-2.40223
-2.77547
-3.1912
-3.53348
-4.15076
-5.98028
-6.84157
-8.03342
-8.77857
-9.21759
-9.37685
-9.19706
-8.70094
-7.9288
-6.9248
-5.7414
-4.43374
-3.05016
-1.63658
-0.231562
1.13159
2.42618
3.63266
4.73623
5.72985
6.60985
7.37834
8.03919
8.5997
9.06786
9.45278
9.76162
9.99698
10.152
10.2095
10.139
9.88164
9.39636
8.75785
7.25826
6.00503
4.57307
3.11404
1.81557
0.644689
-0.403505
-1.33427
-2.18809
-3.04578
-3.99423
-5.1593
-6.49708
-7.51128
-7.63865
-6.86482
-5.85191
-4.73945
-3.67628
-2.75538
-1.90688
-1.1218
-0.460319
0.124392
0.529053
0.944897
1.46831
2.31878
2.76056
-0.683641
0.246629
-0.240211
-0.24681
-0.461994
-0.638781
-0.884053
-1.15274
-1.46377
-1.80681
-2.18866
-2.60357
-3.05071
-3.57175
-4.011
-4.31642
-6.61478
-7.40965
-8.6148
-9.39213
-9.83246
-9.98257
-9.77502
-9.23129
-8.39648
-7.31904
-6.05536
-4.66503
-3.1991
-1.70561
-0.224558
1.20958
2.56933
3.83466
4.99039
6.02949
6.94831
7.74929
8.43673
9.01864
9.50376
9.90202
10.2215
10.4658
10.6282
10.691
10.6229
10.3566
9.85467
9.37366
7.47708
6.32397
4.76657
3.24782
1.8686
0.613541
-0.512528
-1.51932
-2.4581
-3.41748
-4.52144
-5.87257
-7.4559
-8.60894
-8.66377
-7.65622
-6.41525
-5.10141
-3.89004
-2.88147
-1.96407
-1.12379
-0.412496
0.207903
0.652026
1.09948
1.64962
2.4568
2.88802
-0.671933
0.214051
-0.255878
-0.26494
-0.484832
-0.668712
-0.92587
-1.21068
-1.54466
-1.91856
-2.34132
-2.81098
-3.33479
-3.95105
-4.46828
-4.60071
-7.35177
-8.04028
-9.22482
-10.0355
-10.4747
-10.6126
-10.3745
-9.77955
-8.87841
-7.72396
-6.37647
-4.90029
-3.34939
-1.77404
-0.215651
1.29024
2.71548
4.03962
5.24719
6.33125
7.28819
8.12085
8.83402
9.43643
9.93763
10.3484
10.6779
10.9308
11.1006
11.1691
11.1044
10.8298
10.289
9.89415
7.83234
6.62622
4.95524
3.37423
1.91099
0.57122
-0.633995
-1.71747
-2.74351
-3.80936
-5.08409
-6.63265
-8.49548
-9.80796
-9.77838
-8.50089
-7.00701
-5.47327
-4.10368
-3.00549
-2.0167
-1.11864
-0.354754
0.301855
0.783431
1.2588
1.8274
2.61134
3.02766
-0.618176
0.16371
-0.266934
-0.28295
-0.505416
-0.697201
-0.966359
-1.26789
-1.62556
-2.03144
-2.4968
-3.02365
-3.62617
-4.33173
-4.94196
-5.09122
-8.16615
-8.73471
-9.86356
-10.7102
-11.1465
-11.2692
-10.9973
-10.347
-9.37541
-8.14013
-6.70515
-5.13982
-3.50116
-1.84184
-0.204658
1.37383
2.86493
4.24787
5.50697
6.63542
7.62974
8.49323
9.23118
9.85314
10.3695
10.7919
11.1307
11.3917
11.5688
11.6436
11.5828
11.3033
10.6989
10.2021
8.27262
6.90388
5.14022
3.49201
1.94232
0.517243
-0.768162
-1.9284
-3.04311
-4.21941
-5.68067
-7.44552
-9.61936
-11.1148
-10.9877
-9.39908
-7.62605
-5.85364
-4.31664
-3.12837
-2.06631
-1.10799
-0.288556
0.404699
0.920951
1.41943
2.00018
2.73452
3.14437
-0.531339
0.101609
-0.273014
-0.300465
-0.523727
-0.724159
-1.00541
-1.32423
-1.70627
-2.14513
-2.65455
-3.24051
-3.92293
-4.71571
-5.45142
-5.82159
-9.01668
-9.49354
-10.531
-11.4169
-11.8504
-11.9545
-11.6455
-10.9353
-9.88847
-8.5681
-7.04174
-5.38384
-3.65453
-1.90896
-0.191386
1.46066
3.01805
4.45978
5.77007
6.94232
7.97324
8.86662
9.62836
10.2688
10.7993
11.2324
11.5797
11.8483
12.0327
12.1144
12.058
11.7827
11.1427
10.343
8.71358
7.15074
5.32109
3.60021
1.96221
0.451139
-0.915174
-2.15142
-3.35489
-4.64402
-6.3072
-8.31609
-10.8287
-12.5356
-12.2975
-10.3511
-8.27114
-6.24077
-4.52811
-3.25104
-2.1145
-1.0936
-0.215368
0.5149
1.06252
1.57844
2.16557
2.87883
3.25779
-0.424299
0.0347637
-0.274385
-0.317035
-0.539751
-0.749467
-1.04291
-1.37954
-1.78658
-2.25927
-2.81388
-3.46025
-4.22273
-5.10319
-6.00114
-6.76919
-9.83545
-10.3025
-11.2254
-12.1559
-12.5887
-12.671
-12.3213
-11.546
-10.4188
-9.00853
-7.38658
-5.63253
-3.80955
-1.97531
-0.175631
1.55102
3.17518
4.67574
6.03687
7.25229
8.31896
9.24128
10.0257
10.6836
11.2271
11.6699
12.0247
12.3004
12.492
12.5812
12.5295
12.2724
11.7302
10.427
9.09791
7.37601
5.49699
3.69797
1.97031
0.372524
-1.0749
-2.38519
-3.67547
-5.07707
-6.95548
-9.23959
-12.1179
-14.0732
-13.7127
-11.3568
-8.9407
-6.6325
-4.73696
-3.37435
-2.16298
-1.07733
-0.136656
0.630955
1.20631
1.73329
2.32143
3.00472
3.36629
-0.31013
-0.0304726
-0.271713
-0.332144
-0.553482
-0.772995
-1.07877
-1.43367
-1.86622
-2.3734
-2.97397
-3.68134
-4.523
-5.49293
-6.58251
-7.86103
-10.5489
-11.1463
-11.945
-12.9263
-13.3635
-13.4211
-13.0269
-12.1812
-10.9676
-9.46223
-7.74002
-5.88602
-3.96622
-2.04081
-0.157173
1.64525
3.33674
4.89616
6.30778
7.56572
8.66726
9.61745
10.4235
11.0976
11.653
12.1043
12.4657
12.7478
12.9464
13.0438
12.9965
12.7597
12.4212
10.6058
9.44318
7.59215
5.66708
3.78478
1.96636
0.281176
-1.24672
-2.62737
-3.99977
-5.50981
-7.61324
-10.2018
-13.4729
-15.7246
-15.2352
-12.4149
-9.6326
-7.02615
-4.9417
-3.49917
-2.21355
-1.06117
-0.0538734
0.751412
1.35107
1.88263
2.46533
3.10987
3.45533
-0.199497
-0.0893645
-0.265813
-0.345276
-0.564924
-0.794613
-1.11288
-1.48645
-1.94492
-2.487
-3.1339
-3.90208
-4.82095
-5.88178
-7.17648
-8.9855
-11.0934
-12.0003
-12.6878
-13.7259
-14.1762
-14.2073
-13.7647
-12.8429
-11.5366
-9.93016
-8.10251
-6.14444
-4.12453
-2.10532
-0.135772
1.74369
3.50312
5.12149
6.58324
7.88301
9.01847
9.99543
10.8218
11.511
12.077
12.5356
12.9024
13.1903
13.3956
13.5017
13.4589
13.222
13.05
10.9469
9.77154
7.80558
5.83031
3.86039
1.95013
0.177241
-1.42931
-2.87466
-4.32166
-5.93244
-8.26734
-11.1857
-14.8756
-17.4807
-16.8621
-13.5212
-10.3435
-7.41829
-5.14041
-3.62628
-2.26812
-1.04723
0.0315471
0.874894
1.49554
2.02473
2.59499
3.22198
3.53439
-0.099611
-0.138977
-0.25747
-0.355965
-0.574095
-0.814205
-1.14515
-1.5377
-2.02235
-2.59952
-3.29264
-4.12064
-5.11377
-6.26523
-7.75344
-9.99984
-11.4302
-12.8489
-13.4534
-14.5511
-15.0269
-15.0315
-14.5369
-13.533
-12.1273
-10.4134
-8.47462
-6.40794
-4.28441
-2.16867
-0.111164
1.8467
3.67479
5.35221
6.86374
8.2046
9.37301
10.3756
11.2211
11.9238
12.4991
12.9637
13.3348
13.6276
13.8392
13.9542
13.9187
13.6509
13.4689
11.3955
10.0771
8.01823
5.9856
3.9247
1.92166
0.0613297
-1.62081
-3.1235
-4.63541
-6.33679
-8.90838
-12.1801
-16.3093
-19.3304
-18.5856
-14.6679
-11.0682
-7.80447
-5.33072
-3.75647
-2.32871
-1.03769
0.118214
0.999999
1.63871
2.15793
2.70608
3.31514
3.60538
-0.0143734
-0.177888
-0.247346
-0.363841
-0.581029
-0.831671
-1.1755
-1.58723
-2.09817
-2.71033
-3.44908
-4.33509
-5.3986
-6.63752
-8.28318
-10.7898
-11.6154
-13.6898
-14.2425
-15.3965
-15.9142
-15.895
-15.3455
-14.2537
-12.7412
-10.913
-8.85701
-6.67677
-4.4458
-2.23065
-0.0830592
1.95466
3.8522
5.58884
7.14977
8.53099
9.73129
10.7582
11.6214
12.3363
12.9194
13.3887
13.7627
14.0594
14.2769
14.4005
14.3809
14.079
13.6598
11.8673
10.35
8.22967
6.13207
3.97785
1.88122
-0.065649
-1.81941
-3.37117
-4.93729
-6.71808
-9.53351
-13.1868
-17.7692
-21.2714
-20.3987
-15.8436
-11.7987
-8.17884
-5.50961
-3.89042
-2.39747
-1.03489
0.204781
1.12531
1.77955
2.28086
2.79885
3.38657
3.66619
0.0548646
-0.205744
-0.235957
-0.368638
-0.585777
-0.846936
-1.20384
-1.63484
-2.172
-2.81872
-3.602
-4.5434
-5.67255
-6.99278
-8.74649
-11.3269
-11.7989
-14.5258
-15.0563
-16.2552
-16.8344
-16.7978
-16.192
-15.0067
-13.3801
-11.4303
-9.25038
-6.95121
-4.60868
-2.29105
-0.0511431
2.06797
4.03584
5.83192
7.44192
8.86271
10.0938
11.1438
12.0232
12.7488
13.3382
13.8105
14.1859
14.4855
14.7085
14.8402
14.8527
14.6052
13.7277
12.2908
10.594
8.43858
6.26888
4.02009
1.82927
-0.20287
-2.02407
-3.61666
-5.22596
-7.07464
-10.1452
-14.2152
-19.2784
-23.3242
-22.3036
-17.0366
-12.5249
-8.53379
-5.67323
-4.02871
-2.47672
-1.04129
0.28994
1.24941
1.91715
2.39242
2.87687
3.45305
3.71548
0.108414
-0.222844
-0.223686
-0.370202
-0.588405
-0.859949
-1.2301
-1.68033
-2.24343
-2.92398
-3.7501
-4.74351
-5.93282
-7.32619
-9.14449
-11.6904
-12.1426
-15.3247
-15.8912
-17.1198
-17.7823
-17.7383
-17.0767
-15.7933
-14.0452
-11.9663
-9.65546
-7.2316
-4.77306
-2.34965
-0.0150772
2.18704
4.2262
6.08202
7.74077
9.20033
10.4611
11.5327
12.4269
13.1615
13.7555
14.2293
14.6044
14.9056
15.1337
15.2723
15.3306
15.2639
13.8169
12.6592
10.8219
8.64362
6.39563
4.05173
1.76621
-0.350077
-2.23505
-3.86074
-5.50171
-7.40591
-10.7477
-15.2735
-20.8906
-25.5348
-24.3177
-18.2386
-13.2352
-8.86003
-5.81674
-4.1716
-2.56892
-1.05951
0.372432
1.3709
2.05097
2.48997
2.94432
3.49574
3.76015
0.147485
-0.229827
-0.210816
-0.368474
-0.588998
-0.870686
-1.25422
-1.72349
-2.31205
-3.02528
-3.89201
-4.93337
-6.17688
-7.6347
-9.49065
-11.9844
-12.7318
-15.9918
-16.7385
-17.9844
-18.7515
-18.7135
-17.9984
-16.614
-14.7377
-12.5219
-10.0729
-7.5183
-4.93895
-2.40622
0.0254968
2.31231
4.42379
6.33971
8.04695
9.54449
10.8337
11.9256
12.8328
13.5747
14.1716
14.645
15.0181
15.3195
15.552
15.6961
15.7949
15.9414
14.0486
12.995
11.0446
8.84331
6.51257
4.07302
1.69207
-0.507918
-2.45395
-4.10542
-5.7652
-7.71068
-11.3437
-16.3709
-22.669
-27.9626
-26.474
-19.4478
-13.9189
-9.14698
-5.93422
-4.31888
-2.67659
-1.09235
0.451062
1.48851
2.18055
2.57333
2.99608
3.54459
3.80797
0.173626
-0.22746
-0.197563
-0.363479
-0.587654
-0.879144
-1.27613
-1.76409
-2.37738
-3.1218
-4.02636
-5.11112
-6.40264
-7.91675
-9.79886
-12.2648
-13.5084
-16.4121
-17.5912
-18.8476
-19.7355
-19.719
-18.9548
-17.4682
-15.458
-13.098
-10.5033
-7.81161
-5.10641
-2.46055
0.0709566
2.44422
4.62912
6.60559
8.36114
9.89586
11.2123
12.3228
13.2414
13.9888
14.5866
15.0579
15.4269
15.7268
15.9626
16.1123
16.2282
16.4735
14.4213
13.3065
11.2674
9.03649
6.62037
4.08411
1.60641
-0.677991
-2.68334
-4.35328
-6.01656
-7.98612
-11.9335
-17.518
-24.6681
-30.675
-28.8182
-20.6687
-14.5674
-9.38355
-6.01876
-4.46974
-2.80229
-1.14272
0.524756
1.60123
2.30616
2.64137
3.03419
3.59227
3.84456
0.188369
-0.216514
-0.184105
-0.355307
-0.584484
-0.885344
-1.29579
-1.80192
-2.43897
-3.2127
-4.15189
-5.27525
-6.60887
-8.17222
-10.0783
-12.5349
-14.2835
-16.5548
-18.4634
-19.7171
-20.7296
-20.7504
-19.942
-18.3536
-16.2057
-13.6948
-10.9471
-8.11176
-5.27542
-2.51241
0.121702
2.58326
4.84271
6.88025
8.68398
10.2552
11.5976
12.7251
13.6533
14.4041
15.001
15.4681
15.8309
16.1273
16.3648
16.5244
16.6358
16.7487
14.8631
13.5888
11.4914
9.22243
6.7197
4.08488
1.50817
-0.862675
-2.92641
-4.60701
-6.25498
-8.22767
-12.5156
-18.7251
-26.9375
-33.7515
-31.4078
-21.9114
-15.1747
-9.55887
-6.06279
-4.62273
-2.94848
-1.21358
0.592644
1.7084
2.42884
2.69336
3.05893
3.6272
3.88293
0.193023
-0.197691
-0.170598
-0.344098
-0.579615
-0.889331
-1.31314
-1.83676
-2.49634
-3.29716
-4.2675
-5.42481
-6.79534
-8.40239
-10.3341
-12.7818
-14.8969
-16.5839
-19.3855
-20.608
-21.7308
-21.8037
-20.9556
-19.2669
-16.979
-14.3118
-11.4042
-8.41882
-5.44595
-2.56154
0.178163
2.72997
5.06513
7.16428
9.01614
10.6231
11.9902
13.1332
14.0689
14.8212
15.415
15.8758
16.2301
16.5209
16.7578
16.9398
17.0798
16.815
15.2952
13.8397
11.7149
9.40084
6.81114
4.07479
1.39573
-1.06492
-3.18669
-4.86929
-6.4787
-8.42911
-13.086
-20.0022
-29.5375
-37.2867
-34.3129
-23.1902
-15.7377
-9.66281
-6.05844
-4.77582
-3.11754
-1.30792
0.654159
1.8099
2.55044
2.72936
3.06961
3.6746
3.93436
0.188579
-0.171593
-0.157193
-0.330033
-0.573189
-0.891173
-1.32816
-1.86841
-2.54904
-3.37451
-4.3725
-5.55957
-6.96293
-8.60967
-10.5699
-13.0043
-15.3347
-16.78
-20.3301
-21.5348
-22.7385
-22.8769
-21.9919
-20.2038
-17.7749
-14.9476
-11.8742
-8.73266
-5.61781
-2.60765
0.240806
2.88491
5.29698
7.45828
9.35829
11.0004
12.3911
13.5478
14.4891
15.2405
15.829
16.2812
16.6247
16.9074
17.1408
17.3639
17.6473
16.8044
15.6773
14.0692
11.9365
9.57172
6.895
4.0529
1.26701
-1.2881
-3.46801
-5.14284
-6.68515
-8.58269
-13.6365
-21.3497
-32.5256
-41.377
-37.6147
-24.5226
-16.2553
-9.68624
-5.99803
-4.92667
-3.31177
-1.42859
0.709148
1.90627
2.67369
2.74906
3.06629
3.72303
3.9807
0.175685
-0.138715
-0.144041
-0.313328
-0.565367
-0.890964
-1.34084
-1.89668
-2.59671
-3.44426
-4.46663
-5.68004
-7.11334
-8.79717
-10.789
-13.2162
-15.7045
-17.3335
-21.1437
-22.5039
-23.7557
-23.9702
-23.0487
-21.1599
-18.5897
-15.5997
-12.3558
-9.05276
-5.79071
-2.65035
0.310147
3.04873
5.53894
7.76291
9.71106
11.3879
12.801
13.9696
14.9144
15.6628
16.2434
16.6848
17.0147
17.2868
17.5126
17.7863
18.3137
16.8755
16.0254
14.292
12.1565
9.73509
6.97135
4.0179
1.11953
-1.53591
-3.77439
-5.43053
-6.87105
-8.67746
-14.1473
-22.7293
-35.9063
-46.0631
-41.3927
-25.9283
-16.7276
-9.62089
-5.87441
-5.0729
-3.53358
-1.57827
0.757966
1.99875
2.80215
2.7519
3.04853
3.76396
4.0277
0.154659
-0.0994589
-0.131304
-0.294231
-0.556337
-0.888829
-1.3512
-1.92144
-2.63907
-3.50619
-4.5501
-5.78733
-7.24871
-8.96793
-10.9942
-13.4277
-16.0684
-18.1868
-21.6448
-23.5226
-24.7918