/*--------------------------------*- C++ -*----------------------------------*\
| =========                 |                                                 |
| \\      /  F ield         | OpenFOAM: The Open Source CFD Toolbox           |
|  \\    /   O peration     | Version:  4.1                                   |
|   \\  /    A nd           | Web:      www.OpenFOAM.org                      |
|    \\/     M anipulation  |                                                 |
\*---------------------------------------------------------------------------*/
FoamFile
{
    version     2.0;
    format      ascii;
    class       volScalarField;
    location    "26";
    object      p;
}
// * * * * * * * * * * * * * * * * * * * * * * * * * * * * * * * * * * * * * //

dimensions      [0 2 -2 0 0 0 0];

internalField   nonuniform List<scalar> 
6785
(
3767.88
3703.59
3652.39
3602.83
3556.85
3513.68
3473.16
3435.02
3399.09
3364.89
3332.12
3302.18
3274.48
3240.49
3206.88
3233.23
3215.37
3217.91
3213.58
3210.04
3206.47
3203.28
3200.71
3198.97
3198.18
3198.29
3199.59
3202.82
3206.51
3207.24
3180.27
3174.76
3184.37
3183.99
3187.36
3189.9
3192.6
3195.18
3197.61
3199.89
3201.9
3203.46
3204.87
3206.79
3208.25
3237.43
3235.64
3240.92
3237.67
3238.48
3237.44
3236.74
3235.88
3235.07
3234.32
3233.66
3232.98
3232.2
3231.92
3233.15
3244.46
3243.03
3245.96
3243.07
3244.57
3244
3244.37
3244.64
3245.09
3245.55
3245.92
3246.18
3246.46
3246.98
3248
3239.38
3237.96
3240.3
3238.23
3240.12
3239.67
3240.4
3240.67
3240.98
3241.03
3240.84
3240.47
3240.01
3239.56
3239.29
3232.17
3230.6
3231.97
3229.78
3230.79
3229.49
3229.42
3228.71
3228.18
3227.54
3226.97
3226.35
3225.51
3224.69
3224.17
3219.23
3217.78
3218.45
3216.28
3216.7
3215.09
3214.61
3213.58
3212.74
3211.95
3211.37
3210.89
3210.34
3210.16
3210.65
3210.83
3210.16
3210.91
3209.31
3209.92
3208.84
3208.72
3208.2
3207.81
3207.51
3207.38
3207.41
3207.54
3207.94
3208.81
3211.88
3212.21
3213.19
3212.38
3213.32
3212.96
3213.36
3213.45
3213.64
3213.89
3214.21
3214.57
3215.03
3215.48
3216.27
3218
3218.94
3219.93
3219.51
3220.52
3220.45
3221.04
3221.28
3221.71
3222.18
3222.69
3223.19
3223.73
3224.16
3224.72
3222.94
3223.83
3224.1
3223.74
3224.54
3224.49
3225.1
3225.42
3225.88
3226.24
3226.58
3226.85
3227.14
3227.32
3227.73
3223.43
3223.59
3223.63
3223.08
3223.93
3224.28
3225.25
3225.93
3226.64
3227.2
3227.78
3228.43
3229.22
3230.02
3231.14
3200.71
3203.79
3211.36
3218.43
3226.39
3233.13
3238.7
3242.55
3245.5
3248.05
3250.66
3253.51
3255.9
3256.95
3257.51
3174.11
3177.65
3180.62
3185.08
3191.1
3196.87
3202.71
3209.89
3218.67
3227.76
3235.15
3241.82
3248.17
3253.51
3254.31
3858.15
3857.81
3857.19
3856.31
3855.72
3856.08
3853.1
3851.04
3849.97
3850.72
3847.07
3841.88
3844.1
3838.99
3832.99
3830.36
3833.81
3828.57
3817.11
3821.47
3815.48
3804.13
3799.12
3808.36
3798.93
3783.4
3777.64
3789.53
3781.67
3756.76
3766.3
3760.28
3738.23
3729.35
3749.32
3740.32
3704.01
3718.51
3713.43
3683.06
3670.63
3702.78
3687
3647.91
3635.35
3672.72
3661.84
3605.37
3629.43
3627.51
3582.87
3565.51
3616.76
3597.94
3541.78
3525.44
3582.7
3571.16
3493.21
3529.96
3532.15
3472.77
3452.28
3519.89
3510.08
3420.88
3464.36
3470.04
3404.4
3381.18
3462.33
3443.07
3364.98
3344.29
3429.66
3420.4
3320.55
3363.74
3395.62
3296.89
3348.21
3413.25
3407.72
3418.69
3399.72
3386.34
3377.51
3374.17
3372.43
3368.79
3367.27
3356.45
3397.01
3361.4
3343.96
3342.23
3343.48
3339.06
3329.22
3326.27
3316.32
3378.35
3337.13
3302.68
3294.46
3293.22
3287.33
3283.89
3277.86
3271.68
3258.9
3285.36
3273.68
3241.87
3224.74
3214.99
3204.47
3192.5
3185.79
3170.65
3171.34
3139.46
3101.35
3078.56
3060.33
3045.55
3023.59
3007.91
2974.84
2875.9
2900.55
2856.25
2834.22
2810.37
2769.52
2735.28
2713.85
2679.14
2573.91
2567.89
2479.7
2447.94
2424.44
2389.79
2342.06
2278.94
2238.05
2182.92
1983.32
2046.58
1896.31
1834.16
1792.63
1729.17
1658.5
1584.99
1478.18
1144.21
1292.24
1067.7
825.929
1297.99
1596.96
1242.44
1239.7
1272.18
1295.69
1521.45
1347.81
1234.73
1530.86
1362.8
1290.46
1345.42
1307.05
1604.83
1400.71
1296.1
1376.55
1314.48
1674.8
1473.88
1194.92
1724.54
1472.86
1258.1
1387.94
1275.66
1838.26
1454.48
1190.46
1346.19
1211.52
1872.06
1475.65
924.532
1861.98
1400.87
989.353
1197.65
1009.5
1955.61
1286.67
824.52
1069.68
862.83
1931.74
1272.58
383.776
1863.64
1135.3
484.055
797.146
526.415
1980.6
945.901
228.522
595.371
301.053
1912.01
913.741
-429.44
1773.64
699.543
-290.21
164.43
-225.344
1918.1
384.905
-707.571
-184.625
-612.736
1742.65
253.356
-1762.41
1448.1
-169.338
-1636.94
-1139.92
-1407.88
0.457468
3.20559
3.26923
4.36159
5.3395
6.48453
7.26797
7.31976
6.75936
6.42407
7.4505
10.6308
15.9417
21.5333
23.5935
21.282
19.0222
19.1955
20.1427
20.0492
21.1521
22.9065
23.6609
22.5404
20.7439
20.3691
21.0247
21.5131
21.1015
19.4083
15.666
11.3107
7.88231
5.71734
4.52599
4.0435
3.54701
3.21513
2.14346
-0.11908
-6.76177
-6.24994
-0.831872
-0.138668
-2.08548
-3.98091
-6.37679
-11.4203
-15.8038
-17.5558
-17.2965
-9.69789
-2.64578
-9.25983
-15.7083
-20.7807
-10.5795
17.6397
52.6654
17.4298
-17.1501
52.8834
130.771
3.83343
-26.5233
-20.7453
-5.82372
5.59403
14.021
19.8746
24.0572
25.9398
28.0087
30.1347
32.9823
31.6644
30.9887
14.7316
12.9032
-0.637334
5.93348
8.98334
13.0218
17.1312
21.4908
25.5562
28.5377
30.1155
31.3175
34.3675
41.4576
52.7088
63.7375
67.1792
61.0418
57.0694
59.4879
60.761
61.0901
61.56
64.1066
65.4964
62.2244
57.7602
56.3582
56.5229
55.8537
52.2622
45.2472
35.5696
26.3676
19.9387
15.9773
13.6195
12.2702
11.1836
10.4382
7.8148
10.0327
6.8585
0.640803
-4.77559
-10.2483
-14.0964
-15.8565
-18.4139
-28.8879
-41.3839
-50.3767
-51.7293
-30.54
-9.77042
-26.6258
-46.6117
-44.7566
-4.08964
21.1581
-9.38335
-6.95505
-19.3766
146.318
182.891
-37.4312
-48.205
-19.79
13.935
36.3961
52.3211
63.4056
71.8028
75.9122
79.1991
80.3043
80.5132
75.8704
81.9728
72.0865
43.1148
-0.490848
8.38428
13.0269
19.0627
24.8776
30.9279
36.6365
41.4127
44.9284
48.031
52.6133
60.5679
71.8199
82.2182
85.7063
80.8314
77.9817
80.664
81.7008
82.4253
82.5252
84.4371
85.2889
82.0448
77.6515
75.7973
75.0215
73.1965
67.8527
59.734
49.3654
39.0917
31.476
26.357
23.065
20.8508
19.0473
17.711
13.0424
14.5626
4.38901
-2.46523
-5.8204
-12.9967
-20.3562
-25.4282
-32.4872
-51.7401
-73.1843
-88.1077
-88.6097
-53.7173
-19.5462
-41.5453
-88.8089
-107.24
-19.8501
74.2335
-8.41248
-25.3541
-38.6869
78.6802
112.225
-37.0294
-13.198
18.0175
55.3468
79.782
97.2109
109.286
118.612
124.516
130.653
134.334
138.282
131.753
137.349
118.794
128.271
0.179835
11.2451
16.9673
24.7201
31.8503
39.2342
46.1221
52.1378
57.0448
61.6406
67.4781
75.9701
86.8205
96.4772
100.328
97.3657
95.438
97.6072
98.4904
99.4523
99.7328
101.266
101.544
98.7024
94.8128
92.8671
91.7294
89.6729
83.1807
73.9886
63.6138
52.531
43.629
37.1662
32.8419
29.7471
27.3307
25.394
19.0125
21.6084
8.04335
-1.13128
-7.45064
-18.0444
-28.4264
-35.978
-46.4856
-72.2973
-103.727
-124.506
-122.396
-75.0922
-32.4989
-58.141
-124.889
-151.19
-29.2625
60.5406
-5.76539
-34.2039
-48.2593
11.3441
69.1793
-34.3796
16.6687
50.5239
92.8944
120.35
140.069
153.774
164.836
172.462
180.374
184.978
190.085
181.886
189.737
170.581
163.333
0.691282
14.1146
21.2401
30.868
39.5755
48.574
56.9393
64.3775
70.6477
76.5769
83.6813
93.2646
104.91
115.106
119.592
117.435
115.799
117.87
118.771
119.934
120.367
121.861
121.839
118.945
114.979
112.822
111.429
109.235
101.762
90.4863
79.1943
66.6562
56.1959
48.3179
42.9558
39.0356
36.0398
33.4367
25.4964
28.2113
10.2453
-0.554301
-8.66284
-22.213
-35.789
-46.3461
-60.8514
-93.6075
-134.973
-159.652
-154.076
-95.5359
-49.6848
-82.1635
-168.835
-201.519
-37.9294
60.4402
-12.4245
-51.498
-67.2679
-66.3377
41.6957
-42.607
35.6816
76.7397
126.924
158.801
181.715
197.608
210.373
219.362
229.144
235.125
242.135
232.773
241.932
222.796
247.069
1.19344
16.8691
25.5508
37.0772
47.4349
58.099
68.0032
76.919
84.5938
91.8833
100.296
111.079
123.695
134.526
139.49
137.801
136.473
138.737
139.697
141.083
141.519
142.958
142.718
139.659
135.441
132.943
131.156
128.624
120.533
107.177
94.9261
80.9531
69.0183
59.8115
53.4588
48.744
45.2058
41.8806
32.6636
35.4254
13.9251
1.1141
-9.81712
-26.6635
-43.386
-56.9665
-75.3393
-114.855
-165.159
-191.08
-183.476
-114.036
-73.2942
-118.521
-220.448
-254.139
-58.4556
44.1697
-21.5402
-68.4925
-89.8449
-174.45
3.96125
-52.6991
55.4551
104.131
161.822
197.679
223.423
241.124
255.238
265.43
276.765
283.746
292.117
281.97
292.72
266.627
285.69
1.82123
19.5952
29.8192
43.1728
55.1191
67.3641
78.7129
89.0145
98.0334
106.655
116.337
128.206
141.579
152.809
158.127
156.99
156.055
158.487
159.5
161.107
161.544
162.898
162.443
159.302
154.914
152.093
149.929
147.08
138.824
123.581
110.572
95.4145
82.1525
71.6918
64.3819
58.9031
54.854
50.7526
40.5336
42.8179
18.0138
3.09524
-10.8133
-30.9814
-50.8899
-67.6936
-89.9453
-135.745
-193.79
-218.418
-210.904
-130.907
-106.684
-171.463
-284.44
-315.021
-88.7819
19.1283
-32.0105
-94.9285
-126.654
-303.104
-42.3815
-63.3504
75.9409
132.229
197.087
236.534
264.812
284.073
299.373
310.584
323.364
331.34
341.053
330.469
342.978
329.121
331.224
2.5351
22.3186
34.1118
49.2505
62.7663
76.556
89.3085
100.938
111.235
121.123
132.022
144.937
159.041
170.67
176.334
175.715
175.121
177.688
178.766
180.581
181.057
182.368
181.725
178.521
173.98
170.869
168.399
165.278
157.223
140.295
126.362
110.144
95.645
83.9848
75.7491
69.5399
65.0078
60.0837
49.1486
50.5538
22.8963
5.60127
-11.698
-35.31
-58.4293
-78.6061
-104.547
-155.832
-219.918
-241.979
-235.712
-148.58
-150.667
-242.797
-362.094
-385.805
-137.134
-17.5813
-46.4355
-128.416
-174.029
-444.384
-94.1017
-75.9838
95.0715
159.688
231.897
274.895
305.664
326.411
342.782
354.887
368.949
377.777
388.624
377.825
392.209
379.395
420.703
3.30593
25.0252
38.4492
55.3505
70.4473
85.7726
99.9197
112.85
124.383
135.494
147.584
161.555
176.449
188.544
194.531
194.324
194.019
196.757
197.925
199.945
200.463
201.768
200.973
197.685
192.95
189.544
186.791
183.377
175.756
157.632
142.355
125.159
109.503
96.707
87.5834
80.6785
75.6872
69.9082
58.5257
58.6028
28.3923
8.48161
-12.472
-39.5928
-65.977
-89.7245
-119.133
-175.103
-243.165
-263.04
-257.736
-170.323
-204.477
-334.238
-454.373
-468.477
-201.366
-65.4125
-67.7342
-171.934
-233.993
-593.459
-150.284
-89.916
113.163
186.698
266.371
312.851
346.034
368.152
385.448
398.327
413.558
423.167
435.03
424.289
440.418
424.656
463.552
4.14203
27.713
42.821
61.4553
78.1369
94.976
110.496
124.691
137.425
149.727
162.989
178.018
193.712
206.28
212.544
212.677
212.645
215.592
216.87
219.095
219.649
220.966
220.042
216.666
211.713
208.008
204.975
201.259
194.203
175.581
158.478
140.446
123.728
109.87
99.9015
92.3372
86.909
80.2613
68.6731
67.0286
34.5175
11.7275
-13.1469
-43.842
-73.5731
-101.128
-133.831
-193.683
-263.693
-282.891
-278.003
-198.322
-265.941
-447.793
-561.529
-563.666
-282.852
-125.233
-98.5958
-223.182
-302.263
-742.897
-208.576
-104.109
130.705
213.501
300.62
350.452
385.915
409.271
427.365
440.935
457.215
467.513
480.256
469.795
487.878
483.058
511.974
5.04848
30.3871
47.226
67.5593
85.8238
104.147
121.01
136.43
150.328
163.789
178.203
194.273
210.752
223.776
230.273
230.708
230.937
234.108
235.51
237.94
238.531
239.874
238.843
235.39
230.214
226.211
222.907
218.913
212.443
194.013
174.698
155.995
138.322
123.48
112.714
104.529
98.6869
91.1784
79.5895
75.8721
41.2061
15.2816
-13.7279
-48.0409
-81.2453
-112.903
-148.781
-211.822
-282.317
-302.582
-298.403
-233.193
-332.818
-577.177
-680.832
-671.446
-381.144
-197.516
-140.711
-283.109
-375.559
-886.33
-265.815
-117.935
147.742
240.061
334.589
387.658
425.269
449.747
468.531
482.719
499.941
510.85
524.362
514.337
534.443
534.114
591.124
6.02282
33.05
51.6693
73.669
93.5167
113.296
131.475
148.082
163.108
177.7
193.245
210.34
227.588
241.055
247.755
248.458
248.932
252.336
253.872
256.508
257.14
258.524
257.411
253.895
248.494
244.195
240.625
236.382
230.379
212.696
191.147
171.811
153.284
137.54
126.027
117.263
111.031
102.694
91.2679
85.1864
48.4183
19.1089
-14.2176
-52.1783
-89.0415
-125.164
-164.185
-229.843
-300.258
-322.984
-321.048
-274.466
-403.222
-705.604
-805.487
-790.941
-495.359
-282.308
-194.142
-350.371
-449.854
-1019.24
-319.25
-130.803
164.328
266.37
368.245
424.455
464.078
489.574
508.947
523.698
541.751
553.189
567.373
557.933
580.178
585.143
630.841
7.06378
35.7025
56.1539
79.7883
101.221
122.427
141.898
159.655
175.78
191.476
208.134
226.239
244.242
258.141
265.013
265.953
266.659
270.308
271.985
274.827
275.5
276.938
275.77
272.2
266.581
261.992
258.155
253.682
247.932
231.346
208.153
187.898
168.61
152.047
139.842
130.54
123.95
114.842
103.699
95.0167
56.1031
23.1696
-14.6143
-56.2389
-97.0196
-138.06
-180.387
-248.25
-318.877
-344.953
-347.537
-320.926
-474.443
-821.312
-928.932
-919.872
-623.059
-378.158
-257.801
-423.452
-522.157
-1138.26
-366.835
-142.097
180.614
292.497
401.605
460.85
502.343
528.743
548.618
563.88
582.654
594.542
609.32
600.586
625.038
635.417
704.079
8.17184
38.346
60.6814
85.9183
108.938
131.54
152.275
171.149
188.344
205.123
222.877
241.977
260.714
275.029
282.044
283.193
284.119
288.024
289.846
292.894
293.607
295.11
293.911
290.301
284.479
279.613
275.508
270.816
265.101
249.76
225.938
204.288
184.296
166.996
154.153
144.358
137.45
127.652
116.876
105.4
64.2136
27.429
-14.9108
-60.2086
-105.249
-151.747
-197.746
-267.838
-339.524
-369.42
-378.645
-370.911
-543.407
-919.988
-1044.23
-1053.69
-760.33
-482.015
-329.947
-499.169
-589.92
-1240.43
-407.292
-151.262
196.784
318.547
434.712
496.854
540.063
567.252
587.549
603.273
622.652
634.913
650.234
642.356
668.977
677.279
741.724
9.34727
40.9818
65.2536
92.0607
116.667
140.635
162.607
182.564
200.804
218.646
237.482
257.558
277.005
291.715
298.846
300.182
301.314
305.483
307.451
310.7
311.456
313.033
311.827
308.194
302.192
297.071
292.697
287.796
281.961
267.844
244.318
221.099
200.353
182.377
168.951
158.714
151.537
141.153
130.795
116.363
72.7025
31.8545
-15.0941
-64.0753
-113.812
-166.38
-216.606
-289.47
-363.369
-397.328
-414.318
-422.635
-607.526
-997.877
-1142.01
-1184.37
-901.533
-589.693
-408.93
-574.501
-651.577
-1322.94
-440.053
-157.787
213.089
344.668
467.634
532.477
577.24
605.099
625.746
641.876
661.74
674.305
690.145
683.267
712.348
731.93
783.682
10.5902
43.6108
69.8725
98.2175
124.412
149.713
172.895
193.902
213.165
232.053
251.956
272.99
293.12
308.204
315.425
316.924
318.245
322.684
324.795
328.242
329.045
330.704
329.513
325.88
319.728
314.375
309.743
304.64
298.606
285.567
262.86
238.468
216.818
198.183
184.222
173.6
166.219
155.374
145.46
127.914
81.5242
36.4165
-15.1465
-67.8325
-122.8
-182.152
-237.365
-313.894
-391.263
-429.545
-453.909
-474.466
-664.974
-1054.15
-1211.71
-1300.06
-1037.66
-695.523
-493.306
-646.366
-706.556
-1383.5
-465.099
-161.19
229.835
371.061
500.442
567.741
613.88
642.283
663.211
679.68
699.909
712.718
729.084
723.302
754.947
776.884
856.298
11.901
46.2339
74.5401
104.39
132.173
158.773
183.138
205.164
225.431
245.351
266.308
288.282
309.065
324.502
331.782
333.42
334.91
339.62
341.868
345.51
346.369
348.118
346.963
343.356
337.085
331.528
326.667
321.371
315.115
302.913
281.23
256.356
233.749
214.421
199.957
189.019
181.502
170.337
160.876
140.051
90.634
41.0886
-15.045
-71.4809
-132.317
-199.237
-260.424
-341.705
-423.785
-466.677
-496.421
-524.978
-714.801
-1088.73
-1243.14
-1387.55
-1156.67
-792.246
-580.465
-710.771
-755.523
-1421.97
-482.892
-161.039
247.33
397.957
533.188
602.674
649.991
678.806
699.942
716.671
737.144
750.156
767.089
762.564
796.749
816.885
893.562
13.2802
48.8517
79.2581
110.581
139.951
167.815
193.337
216.354
237.608
258.547
280.546
303.441
324.845
340.608
347.915
349.664
351.298
356.28
358.654
362.495
363.416
365.259
364.161
360.614
354.257
348.522
343.476
338.015
331.543
319.884
299.262
274.525
251.161
231.114
216.15
204.986
197.4
186.066
177.051
152.755
99.9883
45.8481
-14.7635
-75.0347
-142.454
-217.755
-286.134
-373.332
-461.331
-508.877
-540.726
-572.924
-757.067
-1106.85
-1236.07
-1439.64
-1248.7
-873.327
-664.524
-761.285
-800.124
-1442.41
-494.312
-156.934
265.88
425.577
565.918
637.315
685.584
714.668
735.932
752.825
773.428
786.629
804.206
801.091
838.025
866.113
933.806
14.7288
51.4648
84.0284
116.789
147.746
176.839
203.492
227.472
249.699
271.648
294.679
318.475
340.466
356.521
363.816
365.645
367.397
372.651
375.139
379.182
380.174
382.109
381.087
377.634
371.232
365.352
360.163
354.595
347.925
336.569
316.893
292.721
268.974
248.278
232.807
221.515
213.938
202.581
193.99
165.999
109.543
50.6772
-14.276
-78.5263
-153.28
-237.853
-314.773
-409.045
-504.088
-555.906
-585.843
-617.287
-792.602
-1113.21
-1205.93
-1459.7
-1312.03
-935.827
-737.879
-789.863
-841.261
-1453.18
-500.433
-148.44
285.855
454.11
598.716
671.711
720.673
749.867
771.164
788.114
808.746
822.157
840.486
838.908
878.687
909.507
995.28
16.2479
54.0738
88.8524
123.018
155.559
185.844
213.601
238.52
261.711
284.661
308.713
333.393
355.935
372.233
379.469
381.342
383.189
388.717
391.309
395.562
396.629
398.659
397.721
394.4
387.998
382.014
376.719
371.114
364.298
353.127
334.184
310.774
287.053
265.9
249.942
238.609
231.147
219.897
211.688
179.746
119.255
55.5637
-13.5622
-82.0065
-164.901
-259.699
-346.487
-448.955
-552.028
-607.284
-631.138
-657.357
-822.355
-1112.29
-1164.21
-1449.64
-1346.55
-979.68
-793.946
-791.502
-878.176
-1463.49
-502.128
-135.023
307.657
483.743
631.698
705.913
755.272
784.397
805.612
822.506
843.09
856.771
875.993
876.09
918.819
952.043
1027.74
17.839
56.6792
93.7319
129.266
163.388
194.828
223.665
249.501
273.647
297.592
322.656
348.201
371.256
387.73
394.85
396.732
398.659
404.466
407.156
411.628
412.772
414.905
414.052
410.896
404.542
398.499
393.14
387.566
380.707
369.699
351.37
328.598
305.259
283.92
267.56
256.234
249.011
238.018
230.134
193.957
129.079
60.5012
-12.6149
-85.5427
-177.506
-283.496
-381.345
-493.108
-605.035
-662.315
-676.313
-692.77
-847.658
-1109.22
-1114.04
-1414.4
-1344.02
-1002.37
-828.744
-766.49
-909.397
-1477.01
-499.722
-116.033
331.623
514.707
664.973
739.964
789.383
818.241
839.243
855.974
876.464
890.521
910.8
912.69
958.436
994.175
1081.68
19.504
59.2815
98.6681
135.536
171.234
203.792
233.684
260.416
285.514
310.451
336.516
362.904
386.427
402.991
409.927
411.787
413.788
419.887
422.679
427.383
428.607
430.852
430.089
427.12
420.849
414.794
409.423
403.956
397.194
386.372
368.668
346.203
323.472
302.24
285.63
274.338
267.449
256.935
249.305
208.588
138.969
65.4902
-11.4431
-89.2183
-191.21
-309.467
-419.396
-541.561
-662.935
-720.178
-721.3
-723.829
-870.195
-1108.91
-1065.78
-1366.81
-1303.5
-1000.97
-841.374
-719.712
-932.788
-1482.91
-492.831
-90.6931
358.054
547.218
698.607
773.879
822.991
851.367
872.019
888.496
908.887
923.47
944.989
948.808
997.519
1029.35
1112.38
21.2448
61.8812
103.662
141.826
179.096
212.733
243.657
271.269
297.317
323.246
350.299
377.5
401.439
417.99
424.671
426.482
428.567
434.977
437.884
442.833
444.143
446.511
445.851
443.078
436.905
430.867
425.542
420.275
413.782
403.224
386.119
363.813
341.59
320.76
304.07
292.892
286.328
276.639
269.174
223.593
148.881
70.5365
-10.0814
-93.1252
-205.95
-337.546
-460.664
-594.412
-725.524
-780.085
-766.253
-751.533
-891.514
-1113.64
-1028.89
-1318.18
-1243.93
-975.907
-833.998
-663.381
-944.548
-1449.44
-480.558
-58.3096
387.179
581.377
732.602
807.632
856.047
883.726
903.903
920.068
940.403
955.696
978.649
984.526
1036.36
1073.67
1143.44
23.064
64.4781
108.716
148.138
186.971
221.65
253.585
282.063
309.062
335.983
364.01
391.983
416.269
432.699
439.056
440.806
442.99
449.736
452.774
457.988
459.397
461.9
461.365
458.792
452.708
446.683
441.433
436.457
430.431
420.324
403.745
381.793
359.575
339.375
322.773
311.828
305.514
297.074
289.71
238.928
158.77
75.6485
-8.5987
-97.357
-221.635
-367.601
-505.197
-651.852
-792.577
-841.446
-811.504
-777.147
-912.929
-1122.76
-1006.24
-1274.97
-1181.6
-932.827
-813.999
-613.764
-944.338
-1341.67
-463.009
-18.6832
418.962
617.128
766.878
841.141
888.475
915.255
934.865
950.702
971.076
987.286
1011.87
1019.88
1074.87
1110.99
1194.5
24.9643
67.0718
113.83
154.47
194.859
230.542
263.468
292.8
320.755
348.669
377.651
406.34
430.878
447.089
453.064
454.758
457.061
464.173
467.361
472.865
474.386
477.038
476.657
474.294
468.28
462.232
457.026
452.373
446.984
437.637
421.659
400.257
377.576
358.019
341.642
331.062
324.981
318.049
310.873
254.555
168.597
80.8316
-7.09734
-102.012
-238.294
-399.724
-553.143
-714.165
-863.842
-904.119
-857.179
-801.903
-935.209
-1135.49
-996.889
-1236.05
-1120.63
-881.337
-792.787
-578.037
-939.194
-1164.97
-443.66
27.7016
453.05
654.283
801.302
874.3
920.184
945.894
964.891
980.429
1000.99
1018.34
1044.76
1055.01
1113.03
1144.26
1223.58
26.9489
69.6615
119.005
160.822
202.759
239.41
273.311
303.483
332.401
361.308
391.221
420.554
445.231
461.13
466.685
468.345
470.796
478.303
481.662
487.479
489.124
491.942
491.743
489.614
483.66
477.548
472.314
467.922
463.203
454.912
439.87
419.042
395.912
376.695
360.648
350.52
344.698
339.231
332.565
270.453
178.327
86.08
-5.70779
-107.188
-256.054
-434.024
-604.743
-781.672
-939.288
-968.487
-903.641
-826.992
-958.491
-1151.48
-1001.48
-1205.94
-1068.26
-829.38
-778.893
-562.107
-935.219
-967.737
-427.275
79.669
488.805
692.568
835.716
907.001
951.098
975.6
993.99
1009.3
1030.24
1048.94
1077.4
1089.97
1151.08
1184.01
1251.98
29.0215
72.246
124.242
167.192
210.668
248.252
283.117
314.12
344.008
373.904
404.717
434.606
459.3
474.799
479.916
481.579
484.218
492.154
495.695
501.849
503.625
506.624
506.631
504.767
498.888
492.694
487.372
483.128
478.949
471.797
458.09
438.005
414.813
395.475
379.819
370.151
364.56
360.324
354.506
286.595
187.942
91.368
-4.58149
-113.015
-275.037
-470.566
-660.32
-854.751
-1019.36
-1035.41
-952.129
-853.527
-982.659
-1170.12
-1017.85
-1188.44
-1031.38
-787.143
-775.346
-569.885
-931.833
-790.898
-414.616
135.61
525.485
731.652
869.955
939.157
981.172
1004.36
1022.2
1037.37
1058.92
1079.21
1109.89
1124.83
1188.98
1219.63
1294.02
31.186
74.8236
129.542
173.578
218.583
257.072
292.887
324.719
355.585
386.461
418.128
448.472
473.053
488.081
492.767
494.482
497.355
505.754
509.487
515.993
517.903
521.095
521.321
519.753
513.979
507.716
502.294
498.121
494.31
488.146
475.931
456.962
434.187
414.475
399.127
389.882
384.443
381.094
376.158
302.919
197.437
96.644
-3.87849
-119.66
-295.376
-509.473
-720.312
-933.867
-1105.09
-1106.16
-1003.84
-882.124
-1007.3
-1190.73
-1040.03
-1177.49
-1001.89
-763.019
-776.658
-591.805
-929.666
-640.362
-401.618
193.973
562.636
771.216
903.859
970.7
1010.39
1032.21
1049.55
1064.72
1087.15
1109.22
1142.34
1159.66
1226.83
1254.39
1318.36
33.4468
77.3922
134.902
179.98
226.503
265.87
302.625
335.29
367.138
398.978
431.44
462.12
486.466
500.983
505.269
507.083
510.23
519.124
523.064
529.928
531.972
535.366
535.815
534.559
528.927
522.624
517.12
512.999
509.459
504.074
493.254
475.641
453.689
433.712
418.426
409.517
404.173
401.46
396.881
319.283
206.821
101.828
-3.76092
-127.25
-317.209
-551.014
-785.295
-1019.63
-1198.09
-1182.07
-1059.51
-913.066
-1032.08
-1211.69
-1064.31
-1168.84
-972.686
-755.069
-776.833
-616.405
-927.454
-505.621
-383.818
253.567
600.188
811.013
937.309
1001.58
1038.76
1059.2
1076.12
1091.43
1115.03
1139.11
1174.84
1194.52
1264.69
1289.31
1352.5
35.8087
79.9491
140.321
186.394
234.424
274.64
312.333
345.839
378.67
411.448
444.63
475.518
499.536
513.535
517.46
519.418
522.87
532.287
536.449
543.672
545.847
549.447
550.117
549.178
543.712
537.398
531.829
527.763
524.463
519.723
510.13
493.894
473.018
453.025
437.565
428.822
423.638
421.449
416.287
335.423
216.102
106.816
-4.3748
-135.933
-340.677
-595.627
-856.019
-1112.89
-1300.24
-1264.11
-1119.71
-947.089
-1057.36
-1231.04
-1088.5
-1161.8
-950.895
-758.591
-776.576
-641.832
-917.767
-381.739
-358.992
313.62
638.219
850.836
970.227
1031.76
1066.29
1085.37
1101.96
1117.62
1142.69
1168.98
1207.47
1229.5
1302.62
1319.49
1376.16
38.2764
82.4911
145.796
192.816
242.344
283.369
322.007
356.367
390.181
423.858
457.669
488.646
512.284
525.773
529.38
531.526
535.31
545.265
549.662
557.244
559.541
563.351
564.236
563.61
558.319
552.01
546.384
542.369
539.296
535.122
526.627
511.729
492.05
472.227
456.505
447.708
442.796
441.098
434.516
350.963
225.273
111.487
-5.83884
-145.944
-365.97
-643.912
-933.406
-1214.75
-1413.35
-1352.72
-1184.83
-985.136
-1083.7
-1248.15
-1110.9
-1156.76
-945.84
-770.735
-779.069
-665.983
-894.368
-271.135
-326.089
373.585
676.781
890.5
1002.56
1061.23
1093.04
1110.82
1127.17
1143.44
1170.27
1198.96
1240.28
1264.63
1340.84
1356.01
1395.78
40.8551
85.0145
151.321
199.241
250.263
292.058
331.648
366.875
401.665
436.191
470.531
501.508
524.743
537.736
541.067
543.443
547.584
558.081
562.725
570.662
573.07
577.089
578.184
577.862
572.741
566.442
560.76
556.785
553.922
550.256
542.764
529.182
510.754
491.256
475.299
466.273
461.661
460.487
451.888
365.618
234.313
115.721
-8.24751
-157.475
-393.616
-696.688
-1018.44
-1326.56
-1538.67
-1447.98
-1255.09
-1027.95
-1111.5
-1263.57
-1130.33
-1153.94
-955.823
-788.69
-785.713
-684.225
-855.151
-176.32
-283.9
432.953
715.902
929.834
1034.28
1090.04
1119.06
1135.62
1151.89
1169.08
1197.96
1229.14
1273.33
1299.89
1379.36
1388.57
1426.69
43.5497
87.5149
156.893
205.659
258.174
300.719
341.261
377.364
413.111
448.422
483.202
514.127
536.949
549.458
552.555
555.196
559.718
570.764
575.657
583.944
586.453
590.672
591.971
591.942
586.985
580.69
574.942
570.992
568.326
565.122
558.553
546.277
529.123
510.129
494.029
484.692
480.285
479.591
468.59
379.341
243.197
119.41
-11.6559
-170.699
-424.48
-754.992
-1112.05
-1449.83
-1676.48
-1549.87
-1330.58
-1077.27
-1141.92
-1278.13
-1146.33
-1153.11
-973.361
-810.057
-794.92
-694.473
-800.566
-96.8757
-231.384
491.214
755.638
968.731
1065.41
1118.24
1144.48
1159.95
1176.37
1194.78
1225.9
1259.58
1306.6
1335.32
1418.25
1419.12
1448.43
46.3652
89.9881
162.505
212.062
266.062
309.354
350.854
387.831
424.505
460.536
495.688
526.536
548.937
560.969
563.868
566.808
571.736
583.337
588.472
597.105
599.702
604.11
605.603
605.857
601.058
594.76
588.927
584.98
582.488
579.718
574.005
563.029
547.168
528.867
512.767
503.099
498.764
498.379
484.61
392.162
251.896
122.482
-16.0753
-185.831
-458.894
-819.962
-1215.31
-1586.38
-1825.9
-1658.55
-1411.7
-1135.52
-1176.53
-1292.71
-1159.62
-1153.86
-993.391
-833.551
-804.703
-697.624
-733.847
-31.2922
-168.565
547.877
796.068
1007.13
1096.11
1145.99
1169.48
1184.05
1200.87
1220.76
1254.22
1290.29
1340.08
1370.92
1457.69
1454.39
1466.55
49.3063
92.4294
168.15
218.446
273.914
317.951
360.426
398.267
435.829
472.524
508.011
538.768
560.73
572.283
575.021
578.291
583.648
595.811
601.181
610.149
612.821
617.408
619.085
619.614
614.967
608.662
602.727
598.752
596.397
594.033
589.112
579.423
564.903
547.479
531.552
521.573
517.21
516.866
499.696
404.163
260.443
124.937
-21.4635
-203.031
-497.351
-892.772
-1329.61
-1738.78
-1984.77
-1774.62
-1499.02
-1204.06
-1216.67
-1308.67
-1171.87
-1156.13
-1013.86
-858.333
-814.558
-696.233
-660.097
21.3301
-96.9859
602.577
837.335
1045.06
1126.56
1173.47
1194.27
1208.16
1225.65
1247.16
1282.92
1321.22
1373.74
1406.68
1497.75
1488.1
1493.47
52.3774
94.834
173.821
224.805
281.727
326.506
369.969
408.656
447.072
484.39
520.199
550.845
572.337
583.408
586.02
589.648
595.458
608.186
613.785
623.073
625.805
630.562
632.415
633.215
628.723
622.407
616.356
612.322
610.062
608.061
603.865
595.418
582.291
565.93
550.368
540.134
535.646
535.118
513.775
415.391
268.98
126.854
-27.7167
-222.332
-541.048
-974.475
-1456.07
-1910.44
-2150.8
-1898.48
-1593.46
-1282.88
-1263.19
-1327.97
-1184.12
-1160.28
-1033.07
-883.45
-824.847
-693.012
-584.675
61.113
-19.5008
655.184
879.64
1082.73
1156.97
1200.85
1219.06
1232.54
1250.92
1274.06
1312
1352.31
1407.52
1442.61
1538.53
1522.38
1514.37
55.5816
97.1969
179.509
231.131
289.495
335.017
379.468
418.983
458.226
496.151
532.276
562.774
583.756
594.345
596.865
600.873
607.158
620.453
626.279
635.869
638.647
643.566
645.589
646.661
642.334
636.01
629.832
625.709
623.505
621.817
618.279
610.984
599.248
584.136
569.142
558.75
554.039
553.221
527.239
425.8
277.846
128.436
-34.6616
-243.654
-590.185
-1065.69
-1595.09
-2105.21
-2322.89
-2029.53
-1696.33
-1370.48
-1318.43
-1350.91
-1195.55
-1167.73
-1049.89
-907.882
-836.083
-690.191
-512.59
87.9047
60.3265
705.817
923.185
1120.4
1187.52
1228.3
1244.14
1257.47
1276.81
1301.49
1341.39
1383.5
1441.39
1478.71
1580.15
1558.26
1539.63
58.9212
99.5128
185.204
237.415
297.216
343.479
388.912
429.237
469.293
507.828
544.254
574.55
594.985
605.094
607.554
611.961
618.738
632.602
638.649
648.529
651.342
656.413
658.6
659.95
655.804
649.486
643.178
638.943
636.758
635.33
632.394
626.133
615.715
601.983
587.754
577.366
572.404
571.087
540.604
435.758
287.631
130.165
-41.9814
-266.92
-644.29
-1166.34
-1747.27
-2325.71
-2499.9
-2166.73
-1808.24
-1464.36
-1380.86
-1373.69
-1207.05
-1178.51
-1065.49
-931.622
-848.83
-689.474
-448.131
101.559
138.85
754.797
968.133
1158.27
1218.4
1255.98
1269.75
1283.15
1303.38
1329.38
1371.01
1414.71
1475.29
1515.03
1622.68
1593.12
1564.68
62.3964
101.776
190.895
243.646
304.884
351.884
398.286
439.411
480.285
519.44
556.133
586.167
606.022
615.653
618.082
622.905
630.189
644.62
650.886
661.041
663.883
669.095
671.44
673.076
669.136
662.848
656.419
652.058
649.861
648.647
646.261
640.922
631.711
619.374
606.084
595.957
590.828
588.494
554.06
445.882
298.589
132.878
-48.9724
-291.916
-703.47
-1275.6
-1913.25
-2569.76
-2679.41
-2310.06
-1928.67
-1563.67
-1445.42
-1393.5
-1219.57
-1186.76
-1081.53
-955.39
-863.666
-692.287
-393.96
101.982
212.817
802.606
1014.56
1196.57
1249.8
1284.14
1296.12
1309.65
1330.58
1357.67
1400.78
1445.86
1509.18
1551.61
1666.32
1633.26
1591.38
66.006
103.98
196.568
249.813
312.487
360.216
407.579
449.51
491.222
530.999
567.906
597.617
616.865
626.021
628.445
633.697
641.505
656.501
662.978
673.398
676.262
681.604
684.101
686.03
682.327
676.106
669.578
665.089
662.86
661.822
659.94
655.433
647.33
636.291
624.122
614.583
609.419
605.368
567.634
456.355
309.983
137.691
-54.2305
-317.981