/*--------------------------------*- C++ -*----------------------------------*\
| =========                 |                                                 |
| \\      /  F ield         | OpenFOAM: The Open Source CFD Toolbox           |
|  \\    /   O peration     | Version:  4.1                                   |
|   \\  /    A nd           | Web:      www.OpenFOAM.org                      |
|    \\/     M anipulation  |                                                 |
\*---------------------------------------------------------------------------*/
FoamFile
{
    version     2.0;
    format      ascii;
    class       surfaceScalarField;
    location    "26";
    object      phi;
}
// * * * * * * * * * * * * * * * * * * * * * * * * * * * * * * * * * * * * * //

dimensions      [0 3 -1 0 0 0 0];

internalField   nonuniform List<scalar> 
13220
(
-903.845
2203.75
-1408.09
1804.45
-1878.4
1770.22
-2238.37
1659.88
-2514.58
1576.41
-2710.63
1495.95
-2828.45
1417.73
-2868.56
1340.31
-2830.1
1261.45
-2709.91
1179.72
-2509.23
1099.52
-2226.96
1017.63
-1827.94
900.887
-1207.49
679.766
92.4075
22.1418
2181.63
-3.11266
1829.72
-110.25
1877.37
-188.015
1737.66
-268.452
1656.87
-333.127
1560.64
-381.506
1466.13
-411.004
1369.82
-423.844
1274.3
-424.651
1180.53
-417.712
1092.59
-409.053
1008.98
-363.701
855.547
-141.26
457.367
-48.8479
-96.0032
2277.64
-259.706
1993.43
-420.472
2038.15
-505.83
1823.03
-582.458
1733.51
-622.493
1600.69
-636.749
1480.39
-626.648
1359.73
-598.239
1245.9
-560.199
1142.52
-514.434
1046.84
-448.734
943.344
-348.818
755.714
-193.861
302.602
-242.711
23.7531
2253.88
-4.30015
2021.47
-19.923
2053.76
5.39692
1797.7
25.7363
1713.16
72.2294
1554.19
132.052
1420.56
210.761
1281.01
308.674
1147.99
425.738
1025.44
551.101
921.484
663.311
831.073
690.622
728.347
467.147
525.988
224.435
33.1255
2220.73
38.4296
2016.15
53.7396
2038.43
71.3174
1780.1
81.3788
1703.07
100.009
1535.53
111.683
1408.86
133.148
1259.52
198.007
1083.1
337.852
885.554
508.677
750.621
613.234
726.496
587.532
754.015
372.521
740.952
596.955
-20.235
2240.94
-100.742
2096.63
-150.099
2087.76
-215.768
1845.74
-286.426
1773.7
-355.318
1604.39
-432.995
1486.51
-495.906
1322.4
-495.319
1082.48
-376.117
766.319
-166.173
540.653
43.7431
516.505
164.153
633.534
127.009
778.02
723.962
8.91896
2232
-148.42
2253.95
-239.429
2178.75
-338.839
1945.13
-443.288
1878.13
-548.129
1709.22
-662.697
1601.06
-781.28
1440.97
-904.935
1206.13
-1005.8
867.167
-1016.6
551.445
-859.285
359.134
-542.917
317.104
-203.778
438.799
520.185
120.75
2111.24
-3.20951
2377.9
-62.0466
2237.58
-115.098
1998.17
-159.385
1922.41
-209.237
1759.06
-259.038
1650.86
-325.332
1507.26
-440.775
1321.56
-630.768
1057.16
-836.504
757.168
-939.292
461.961
-815.811
193.657
-461.544
84.575
58.6388
197.99
1913.25
167.11
2408.78
160.83
2243.85
171.146
1987.85
201.2
1892.35
221.748
1738.51
251.714
1620.89
271.094
1487.88
253.708
1338.95
157.124
1153.73
-17.0066
931.313
-225.255
670.095
-373.015
341.246
-299.314
10.682
-240.672
190.854
1722.4
216.377
2383.26
233.295
2226.94
264.929
1956.22
315.248
1842.04
360.776
1692.98
414.295
1567.37
464.748
1437.42
498.478
1305.22
494.259
1157.96
436.561
988.996
315.982
790.777
126.015
531.368
-66.9762
203.901
-307.649
135.505
1586.9
175.958
2342.81
207.969
2194.94
243.097
1921.1
277.221
1807.92
311.664
1658.55
346.358
1532.69
374.259
1409.53
389.334
1290.15
388.028
1159.27
364.29
1012.76
306.857
848.17
197.445
640.75
25.0387
376.262
-282.607
88.4285
1498.49
88.844
2342.41
49.3503
2234.44
21.8484
1948.62
24.5477
1805.24
40.812
1642.29
66.6876
1506.82
99.6764
1376.56
130.653
1259.19
152.136
1137.82
159.742
1005.15
153.612
854.386
144.855
649.603
140.725
380.574
-141.881
289.017
1209.49
442.554
2188.88
513.957
2163.05
498.532
1964.06
456.897
1846.89
395.855
1703.34
341.657
1561.03
306.56
1411.66
290.781
1274.97
281.709
1146.89
259.687
1027.18
209.43
904.643
115.31
743.733
72.3168
423.595
-69.5634
-993.316
2202.81
-1518.7
2714.27
-1751.37
2395.73
-1813.07
2025.76
-1605.54
1639.36
-1208.47
1306.28
-780.571
1133.14
-470.505
1101.6
-302.084
1106.56
-215.542
1060.36
-139.531
951.173
-22.7996
787.922
148.372
572.573
308.948
263.043
239.384
-1973.79
-2797.57
-3398.41
-3913.5
-4302.68
-4562.44
-4610.11
-4295.52
-3662.63
-2927.59
-2303.98
-1667.63
-1139.73
-758.391
-8.30388e-05
1042.21
-1042.21
1042.21
1042.21
1042.21
1922.26
-880.058
1922.26
1922.26
1922.26
2737.63
-815.367
2737.63
2737.63
3543.69
-806.065
3543.69
3543.69
3543.69
4371.2
-827.501
4371.2
4371.2
5214.17
-842.97
5214.17
5214.17
5214.17
6050.58
-836.411
6050.58
6050.58
6050.58
6882.58
-832.002
6882.58
6882.58
7709.11
-826.529
7709.11
7709.11
7709.11
8515.17
-806.062
8515.17
8515.17
9303.8
-788.63
9303.8
9303.8
9303.8
10060.9
-757.082
10060.9
10060.9
10060.9
10785.8
-724.967
10785.8
10785.8
11475.4
-689.541
11475.4
11475.4
11475.4
12110.4
-635.032
12110.4
12110.4
12110.4
12694
-583.537
12694
12694
13224.9
-530.91
13224.9
13224.9
13224.9
13682.8
-457.983
13682.8
13682.8
14080.6
-397.787
14080.6
14080.6
14080.6
14392.5
-311.843
14392.5
14392.5
14392.5
14624.5
-232.037
14624.5
14624.5
14777
-152.51
14777
14777
14520.5
14318.3
14272.5
14229.1
-2.88682
14227
14227.1
14208.9
14181.3
14153.7
14124.4
14116.4
14120.8
14101.1
16.6998
14125.6
14144
14138.6
14167
14203.5
14236.3
14265.7
14283
14457.3
-134.366
14523
14595.7
14654.4
14711.1
14769.2
14826.3
14881.5
14938.8
14995
15036.6
30.3388
15104.4
15185.3
15269.6
15363.2
15470.3
15580.5
15702.8
15841.7
14793.7
1188.91
14973.5
15167.1
15365
15574.4
15797.9
16035.9
16284.7
16572
14538.1
2290.53
14838.1
15150.6
15458.3
15813.4
16198.1
16581.9
16968.8
17360.5
15246.2
2496.29
15723.1
16213.2
16684.5
17158.4
17638.1
18196.9
18760.6
19323.3
19892.3
18125.8
2309.07
18749.5
19430.5
20078.2
20731.3
21401.9
22102
22865.8
23648.4
22250.1
2125.09
23033.4
23892.9
23892.9
22171.3
1721.52
20567.7
1603.61
20567.7
19596.5
971.193
19596.5
19050.7
545.868
18630.9
419.737
18630.9
18602.4
28.4891
18669.8
-67.375
18669.8
19016
-346.211
19016
19536.5
-520.436
20162.3
-625.888
20162.3
20988.7
-826.326
20988.7
21932.9
-944.222
22965.8
-1032.88
22965.8
24105
-1139.2
25273.6
-1168.59
25273.6
26531.5
-1257.94
26531.5
27799.3
-1267.75
29041.8
-1242.53
29041.8
30339
-1297.24
30339
31626.9
-1287.92
32849.3
-1222.38
32849.3
34130.9
-1281.56
35308.1
-1177.21
35308.1
36569.8
-1261.7
36569.8
37845.4
-1275.63
39016.1
-1170.7
39016.1
40297.1
-1280.99
40297.1
41607.4
-1310.25
42794.5
-1187.17
42794.5
44125.3
-1330.73
45290.2
-1164.95
45290.2
46599
-1308.75
46599
47956.4
-1357.48
49152.6
-1196.21
49152.6
50524.1
-1371.41
50524.1
51963.1
-1439
53235.8
-1272.72
53235.8
54736.7
-1500.88
56033.5
-1296.84
56033.5
57547.9
-1514.35
57547.9
59150.5
-1602.66
60564.9
-1414.36
60564.9
62229.6
-1664.77
62229.6
63999.8
-1770.13
65585.2
-1585.47
65585.2
67490.6
-1905.38
69193.4
-1702.77
69193.4
71229.6
-2036.26
71229.6
-2283.57
-3062.89
18680.3
-3090.62
19378
-3072.66
19933.6
-3035.43
20399.4
-2969.78
21009.3
-2877.47
21532.5
-2751.67
22012.4
-2591.67
22397.5
-2408.1
22845.2
-2218.49
23585
-2030.72
24713.6
-1831.22
25867.1
-1596.49
26145.6
-1316.59
24612.7
-1008.06
21440.4
-740.245
19006.1
-505.344
20721.7
-251.323
23688
4.64698
23181.4
260.54
23720.3
507.838
21672.8
760.838
20785.8
1014.27
21752.7
1235.29
21969.5
1432.75
20801
1629.3
19254.9
1822.86
18021
1996.58
17213.6
2136
16731
2207.63
15571.7
2199.06
13332.2
2142.91
10381.5
2081.21
7257.77
2038.59
4321.18
2020.97
1627.28
2018.73
-800.825
2091.51
-3048.4
2191.86
-5739.76
2333.87
-7228.32
3004.6
-9279.02
4004.17
-18500.3
4504.68
-28968.7
4415
-32902.7
4099.02
-31173.6
3818.44
-27385.4
3682.15
-23816.9
3767.36
-21786.4
4072.53
-19591.2
4422.8
-15543.8
4657.66
-10558.2
4773.26
-5546.21
4844.52
-2455.14
4786.67
-1756.84
4566.44
212.897
5204.19
2607.63
6859.7
937.429
7550.82
-5820.93
5726.58
-7294.17
3397.45
6887.05
2795.31
10499.5
3556.27
2813.34
4370.11
29416.5
4354.53
61917.2
4055.59
64182.1
3878.88
53363.6
3831.66
42520.2
3835
33272.4
3847.48
25014.8
3856.38
17226.6
3859.19
9680.6
3857.69
2272.03
3812.26
-5307.33
3666.03
-13149.2
3394.51
-21009.6
2938.72
-27824.7
2512.26
-32908.5
2365.87
-42938.5
2493.6
-60242.5
-72439.5
-3069.37
18718
-3093.44
19402.1
-3073.48
19913.6
-3034.39
20360.3
-2967
20941.9
-2872.42
21437.9
-2743.9
21883.9
-2581.93
22235.5
-2398.53
22661.8
-2211.41
23397.9
-2026.9
24529.1
-1829.31
25669.5
-1593.37
25909.6
-1308.58
24327.9
-996.407
21128.3
-732.71
18742.4
-503.346
20492.3
-250.617
23435.3
4.1943
22926.6
258.449
23466
503
21428.3
754.901
20533.9
1009.94
21497.7
1231.47
21748
1426.52
20606
1620.29
19061.1
1813.58
17827.7
1990.06
17037.1
2134.47
16586.6
2214.32
15491.8
2214.25
13332.3
2162.86
10432.9
2102.6
7318.03
2060.55
4363.23
2046.78
1641.05
2063.41
-817.456
2165.13
-3150.13
2285.09
-5859.72
2482.46
-7425.69
3206.62
-10003.2
4140.64
-19434.3
4526.31
-29354.4
4375.06
-32751.4
4045.12
-30843.6
3781
-27121.2
3683.22
-23719.1
3817.44
-21920.6
4160.11
-19933.9
4510.03
-15893.7
4689.76
-10737.9
4676.15
-5532.6
4558.96
-2337.95
4341.13
-1539.01
4545.06
8.96052
6014.25
1138.45
7614.67
-662.986
7465.3
-5671.57
5372.07
-5200.93
3405.74
8853.38
3095.77
10809.5
3707.08
2202.03
4350.55
28773
4393.65
61874.1
4077.33
64498.5
3877.18
53563.7
3821.01
42576.3
3824.43
33268.9
3837.88
25001.3
3846.68
17217.8
3847.35
9679.93
3833.74
2285.65
3763.13
-5236.73
3598.18
-12984.3
3319.98
-20731.4
2864.23
-27369
2457.94
-32502.2
2347.8
-42828.3
2311.95
-60206.6
-72163.8
-3077.99
18755.1
-3098.71
19422.8
-3076.07
19891
-3034.58
20318.8
-2964.95
20872.3
-2867.53
21340.5
-2735.8
21752.2
-2571.56
22071.3
-2388.35
22478.6
-2203.92
23213.5
-2022.71
24347.9
-1826.61
25473.4
-1588.74
25671.8
-1298.91
24038.1
-984.499
20813.9
-724.823
18482.7
-500.416
20267.9
-249.871
23184.7
3.51149
22673.2
255.926
23213.6
497.936
21186.3
748.546
20283.3
1004.48
21241.8
1226.5
21525.9
1419.48
20413
1610.47
18870.1
1803.8
17634.4
1983.96
16857
2133.93
16436.6
2222.78
15403
2233.11
13321.9
2188.45
10477.5
2131.08
7375.4
2090.93
4403.38
2082.05
1649.93
2108.53
-843.937
2218.45
-3260.05
2345.82
-5987.09
2578.04
-7657.91
3325.38
-10750.5
4208.82
-20317.8
4536.08
-29681.6
4359.91
-32575.3
4028.48
-30512.2
3780.94
-26873.7
3708.71
-23646.9
3861.16
-22073.1
4200.7
-20273.4
4517.67
-16210.7
4617.52
-10837.8
4447.07
-5362.15
4172.68
-2063.56
4064.23
-1430.56
4844.45
-771.257
6713.97
-731.08
8092.27
-2041.28
7618.64
-5197.94
5334.65
-2916.94
3510.47
10677.6
3577.4
10742.5
4036.27
1743.15
4369.49
28439.8
4417.02
61826.6
4094.39
64821.1
3872.21
53785.9
3806.82
42641.7
3810.11
33265.6
3825.02
24986.4
3833.85
17209
3832.1
9681.68
3809.29
2308.46
3727.56
-5155
3559.02
-12815.7
3279.25
-20451.6
2826.43
-26916.2
2432.77
-32108.5
2340.05
-42735.6
2323.1
-60189.7
-71543.5
-3088.55
18790.9
-3105.54
19439.8
-3080.16
19865.6
-3036.08
20274.7
-2963.97
20800.2
-2863.48
21240
-2728.46
21617.2
-2562.06
21904.9
-2379.18
22295.7
-2197.26
23031.6
-2018.77
24169.4
-1823.46
25278.1
-1583.42
25431.7
-1289.32
23744
-973.83
20498.4
-717.736
18226.6
-497.307
20047.5
-249.091
22936.5
2.82767
22421.3
253.277
22963.1
493.131
20946.4
742.442
20034
998.66
20985.5
1221.07
21303.5
1412.41
20221.7
1600.84
18681.7
1794.28
17441
1978.64
16672.6
2134.3
16280.9
2231.24
15306
2252.62
13300.5
2216.45
10513.7
2163.68
7428.16
2126.99
4440.08
2123.25
1653.67
2159.13
-879.821
2278.55
-3379.47
2415.58
-6124.11
2683.52
-7925.85
3452.43
-11519.4
4283
-21148.3
4546.86
-29945.5
4339.69
-32368.1
4004.88
-30177.4
3776.09
-26644.9
3732.03
-23602.8
3899.8
-22240.8
4227.6
-20601.2
4495.36
-16478.5
4480.73
-10823.1
4112.17
-4993.59
3791.83
-1743.22
4179.45
-1818.19
5650.3
-2242.1
7577.01
-2657.8
8521.4
-2985.67
7707.81
-4384.35
5252.59
-461.722
3578.51
12351.6
4026.17
10294.9
4424.13
1345.2
4430.86
28433.1
4428.41
61829
4100.8
65148.7
3863.65
54023.1
3790.47
42714.9
3793.54
33262.6
3810
24970
3818.86
17200.1
3813.53
9687
3781.82
2340.17
3689.94
-5063.12
3516.55
-12642.3
3232.6
-20167.6
2780.33
-26463.9
2400.61
-31728.8
2329.74
-42664.8
2304.07
-60164
-71144.8
-3101.11
18825.4
-3114.1
19452.8
-3085.85
19837.4
-3039.17
20228
-2964.39
20725.4
-2860.68
21136.3
-2722.29
21478.8
-2553.82
21736.4
-2371.33
22113.2
-2191.81
22852
-2015.69
23993.3
-1820.76
25083.2
-1578.39
25189.3
-1280.34
23445.9
-963.99
20182
-711.245
17973.9
-494.374
19830.6
-248.277
22690.4
2.07616
22170.9
250.64
22714.6
488.505
20708.5
736.578
19785.9
993.009
20729.1
1215.8
21080.7
1405.66
20031.8
1591.59
18495.8
1785.16
17247.4
1974.23
16483.6
2136.31
16118.9
2240.67
15201.7
2273.09
13268.1
2246.57
10540.2
2199.78
7474.95
2167.6
4472.26
2169.08
1652.19
2213.69
-924.431
2340.41
-3506.19
2486.7
-6270.41
2788.71
-8227.85
3571.33
-12302
4347.74
-21924.7
4555.07
-30152.8
4321.86
-32134.9
3986.81
-29842.3
3779.06
-26437.2
3762.35
-23586.1
3935.33
-22413.8
4231.43
-20897.3
4426.92
-16673.9
4272.32
-10668.5
3754.24
-4475.5
3689.05
-1678.04
4818.81
-2947.95
6747.35
-4170.64
8406.29
-4316.74
8864.48
-3443.86
7724.29
-3244.16
5134.03
2128.54
3623.53
13862.1
4411.17
9507.25
4806.8
949.576
4523.43
28716.4
4431.26
61921.2
4096.9
65483.1
3850.22
54269.8
3770.83
42794.3
3773.87
33259.5
3792.02
24951.8
3800.91
17191.2
3792.02
9695.9
3752.45
2379.74
3652.63
-4963.3
3476.05
-12465.7
3187.77
-19879.4
2736.75
-26012.9
2371.98
-31364
2321.56
-42614.3
2253.39
-60095.8
-70476.9
-3115.54
18858.5
-3124.49
19461.7
-3093.29
19806.2
-3043.98
20178.7
-2966.36
20647.8
-2859.28
21029.2
-2717.48
21337
-2547.01
21566
-2364.96
21931.2
-2187.74
22674.8
-2013.71
23819.3
-1818.81
24888.3
-1573.88
24944.4
-1271.96
23144
-954.887
19864.9
-705.33
17724.3
-491.691
19617
-247.519
22446.3
1.24915
21922.2
248.091
22467.7
484.133
20472.5
731.051
19539
987.701
20472.5
1210.92
20857.5
1399.5
19843.2
1583.04
18312.2
1776.62
17053.8
1970.71
16289.5
2140
15949.6
2251.44
15090.2
2294.63
13224.9
2278.47
10556.4
2238.75
7514.67
2211.86
4499.15
2218.64
1645.4
2271.48
-977.266
2404.26
-3638.97
2559.81
-6425.96
2893.75
-8561.79
3684
-13092.3
4406.9
-22647.6
4561.57
-30307.5
4303.9
-31877.2
3970.15
-29508.6
3784.88
-26251.9
3794.77
-23596
3963.97
-22583
4210.02
-21143.3
4313.77
-16777.7
4017.54
-10372.3
3508.33
-3966.29
3966.72
-2136.43
5750.6
-4731.83
7786.16
-6206.2
9058.08
-5588.66
9100.84
-3486.62
7674.49
-1817.81
4971.02
4832.01
3662.32
15170.8
4752.19
8417.38
5174.9
526.863
4633.51
29257.8
4422.69
62132
4081.84
65823.9
3831.37
54520.2
3747.83
42877.8
3751.22
33256.1
3771.28
24931.8
3780.46
17182.1
3768.48
9707.88
3722.2
2426.02
3616.26
-4857.36
3437.01
-12286.5
3143.39
-19585.7
2693.33
-25562.8
2343.84
-31014.5
2314.57
-42585.1
2301.01
-60082.3
-69946
-3131.8
18889.9
-3136.68
19466.6
-3102.5
19772
-3050.49
20126.7
-2969.86
20567.2
-2859.28
20918.6
-2714.03
21191.7
-2541.64
21393.6
-2360.09
21749.6
-2185.04
22499.8
-2012.77
23647
-1817.52
24693
-1569.76
24696.7
-1264.12
22838.4
-946.584
19547.4
-700.026
17477.8
-489.238
19406.2
-246.849
22203.9
0.384053
21674.9
245.648
22222.5
480.07
20238.1
725.922
19293.2
982.74
20215.6
1206.47
20633.8
1394.01
19655.7
1575.27
18131
1768.6
16860.5
1967.72
16090.3
2145.06
15772.2
2263.45
14971.8
2316.92
13171.5
2311.64
10561.6
2280.01
7546.31
2259.12
4520.03
2271.36
1633.17
2331.96
-1037.87
2469.55
-3776.56
2634.42
-6590.83
2998.43
-8925.8
3790.27
-13884.1
4459.91
-23317.3
4565.51
-30413.1
4285.64
-31597.4
3955.53
-29178.5
3794.38
-26090.7
3830.23
-23631.9
3986.24
-22739
4164.54
-21321.7
4162.89
-16776
3763.89
-9973.3
3468.6
-3671
4538.55
-3206.38
6703.48
-6896.76
8598.35
-8101.07
9483.08
-6473.39
9199.24
-3202.78
7545.9
-164.474
4789.46
7588.45
3697.26
16263
5005.73
7108.91
5473.96
58.6307
4739.4
29992.4
4400.32
62471.1
4054.64
66169.6
3806.78
54768.1
3721.7
42962.9
3726.01
33251.8
3748.23
24909.5
3758
17172.3
3743.49
9722.4
3691.53
2477.98
3580.76
-4746.59
3399.07
-12104.8
3099.36
-19286
2650.81
-25114.3
2317.81
-30681.5
2305.44
-42572.7
2172.07
-59948.9
-69438.7
-3149.89
18919.5
-3150.62
19467.3
-3113.45
19734.8
-3058.66
20071.9
-2974.85
20483.4
-2860.63
20804.4
-2711.91
21043
-2537.7
21219.3
-2356.71
21568.6
-2183.69
22326.7
-2012.84
23476.2
-1816.86
24497
-1566.04
24445.8
-1256.8
22529.1
-939.02
19229.6
-695.278
17234
-486.997
19197.9
-246.256
21963.1
-0.496324
21429.2
243.313
21978.7
476.304
20005.1
721.185
19048.3
978.139
19958.7
1202.45
20409.5
1389.19
19468.9
1568.28
17951.9
1760.99
16667.8
1964.91
15886.4
2151.16
15586
2276.87
14846.1
2339.89
13108.5
2345.74
10555.8
2323.06
7568.99
2308.89
4534.2
2326.76
1615.3
2394.6
-1105.71
2535.85
-3917.81
2710.07
-6765.05
3101.93
-9317.66
3889.82
-14672
4507.06
-23934.5
4566.6
-30472.6
4266.32
-31297.1
3942.32
-28854.5
3807.12
-25955.5
3868.53
-23693.3
4003.03
-22873.5
4099.1
-21417.7
3990.59
-16667.5
3570.12
-9552.83
3637.48
-3738.36
5236.65
-4805.55
7510.6
-9170.7
9133.26
-9723.73
9676.15
-7016.28
9150.15
-2676.78
7333.34
1652.33
4605.07
10316.7
3718.17
17149.9
5138.56
5688.52
5668.69
-471.503
4818.31
30842.8
4362.28
62927.1
4015.03
66516.9
3776.13
55007
3692.49
43046.5
3698.45
33245.9
3723.11
24884.9
3733.8
17161.6
3717.3
9738.9
3660.66
2534.61
3546.35
-4632.27
3362.19
-11920.7
3055.64
-18979.5
2609.28
-24667.9
2294.66
-30366.9
2300.45
-42578.5
2206.41
-59854.9
-68646.6
-3169.84
18946.9
-3166.36
19463.8
-3126.17
19694.6
-3068.49
20014.3
-2981.32
20396.2
-2863.32
20686.4
-2711.1
20890.8
-2535.15
21043.4
-2354.77
21388.2
-2183.65
22155.6
-2013.93
23306.4
-1816.85
24300
-1562.75
24191.7
-1249.97
22216.4
-932.094
18911.8
-691.017
16993
-484.97
18991.9
-245.735
21723.9
-1.38149
21184.8
241.099
21736.2
472.82
19773.4
716.829
18804.3
973.933
19701.6
1198.92
20184.5
1385.06
19282.8
1562.11
17774.8
1753.78
16476.1
1961.99
15678.2
2157.93
15390
2291.98
14712.1
2363.68
13036.8
2380.55
10538.9
2367.49
7582.05
2360.65
4541.03
2384.33
1591.63
2458.82
-1180.21
2602.71
-4061.69
2786.39
-6948.73
3203.77
-9735.03
3982.59
-15450.9
4548.26
-24500.2
4564.14
-30488.5
4245.13
-30978.1
3930.27
-28539.6
3823.41
-25848.7
3910.35
-23780.2
4016.92
-22980.1
4021.33
-21422.1
3821.28
-16467.5
3483.29
-9214.83
3967.9
-4222.98
5920.02
-6757.66
8096.39
-11347.1
9380
-11007.3
9641.6
-7277.88
8957.06
-1992.24
7054.31
3555.09
4425.27
12945.8
3708.86
17866.4
5142.04
4255.34
5745.2
-1074.66
4852.67
31735.3
4306.36
63473.4
3963.21
66860
3739.25
55231
3660.24
43125.6
3668.73
33237.4
3696.15
24857.4
3708.13
17149.6
3690.25
9756.78
3629.89
2594.97
3513.04
-4515.42
3326.05
-11733.7
3012.05
-18665.5
2568.92
-24224.8
2273
-30071
2297.73
-42603.2
2237.35
-59794.5
-68012
-3191.64
18971.9
-3183.9
19456.1
-3140.66
19651.4
-3079.98
19953.6
-2989.27
20305.5
-2867.34
20564.5
-2711.6
20735
-2534
20865.8
-2354.28
21208.5
-2184.92
21986.3
-2016.02
23137.5
-1817.5
24101.4
-1559.88
23934.1
-1243.61
21900.1
-925.731
18593.9
-687.198
16754.4
-483.157
18787.8
-245.287
21486
-2.25831
20941.8
239.026
21494.9
469.625
19542.8
712.862
18561
970.152
19444.3
1195.91
19958.7
1381.66
19097.1
1556.82
17599.7
1747.04
16285.9
1958.7
15466.6
2164.87
15183.9
2308.87
14568.1
2388.48
12957.1
2415.95
10511.4
2412.86
7585.14
2413.87
4540.03
2443.53
1561.96
2523.99
-1260.67
2669.69
-4207.39
2863.02
-7142.07
3303.29
-10175.3
4068.37
-16215.9
4583.37
-25015.2
4557.41
-30462.5
4221.23
-30641.9
3919.07
-28237.5
3843.62
-25773.2
3956.42
-23893
4031.41
-23055.1
3942.09
-21332.8
3683.65
-16209.1
3522.7
-9053.88
4397.79
-5098.06
6502.54
-8862.41
8437.47
-13282
9359.78
-11929.6
9416.91
-7335.02
8652.07
-1227.39
6734.87
5472.29
4248.12
15432.5
3657.8
18456.7
5033.51
2879.63
5711.78
-1752.93
4833.68
32613.4
4230.8
64076.3
3899.71
67191.1
3696.22
55434.4
3625.04
43196.7
3637.09
33225.3
3667.65
24826.9
3681.31
17136
3662.62
9775.47
3599.41
2658.18
3480.83
-4396.84
3290.36
-11543.2
2968.52
-18343.6
2529.92
-23786.2
2253.92
-29795
2293.59
-42642.9
2129.17
-59630.1
-67397.1
-3215.29
18994.3
-3203.26
19444.1
-3156.95
19605.1
-3093.12
19889.7
-2998.67
20211
-2872.67
20438.5
-2713.4
20575.8
-2534.24
20686.6
-2355.2
21029.5
-2187.49
21818.6
-2019.11
22969.2
-1818.8
23901.1
-1557.42
23672.7
-1237.66
21580.3
-919.877
18276.1
-683.783
16518.3
-481.546
18585.6
-244.91
21249.4
-3.1113
20700
237.108
21254.7
466.723
19313.1
709.288
18318.5
966.813
19186.8
1193.47
19732.1
1379.01
18911.5
1552.45
17426.2
1740.85
16097.5
1954.86
15252.6
2171.41
14967.3
2327.3
14412.2
2414.44
12870
2451.83
10474.1
2458.84
7578.13
2468.02
4530.84
2503.81
1526.18
2589.49
-1346.34
2736.42
-4354.32
2939.65
-7345.3
3399.89
-10635.5
4146.97
-16963
4612.08
-25480.3
4545.51
-30396
4193.72
-30290.1
3908.52
-27952.3
3868.2
-25732.9
4007.52
-24032.3
4050.82
-23098.4
3874.64
-21156.6
3604.26
-15938.7
3681.14
-9130.77
4864.09
-6281.01
6942.27
-10940.6
8551.8
-14891.5
9137.27
-12515.1
9068.25
-7266
8275.02
-434.163
6393.2
7354.11
4073.97
17751.7
3568.57
18962.1
4840.3
1607.9
5585.24
-2497.87
4760.19
33438.4
4135.07
64701.4
3825.44
67500.7
3647.32
55612.6
3587.06
43257
3603.77
33208.6
3637.87
24792.8
3653.61
17120.2
3634.65
9794.43
3569.38
2723.45
3449.59
-4277.05
3254.75
-11348.3
2924.98
-18013.9
2492.52
-23353.7
2238.11
-29540.6
2292.68
-42697.4
2152.88
-59490.3
-66541.1
-3240.81
19013.8
-3224.46
19427.7
-3175.02
19555.6
-3107.89
19822.6
-3009.51
20112.6
-2879.3
20308.2
-2716.47
20412.9
-2535.84
20506
-2357.55
20851.2
-2191.32
21652.3
-2023.16
22801
-1820.73
23698.7
-1555.36
23407.4
-1232.08
21257
-914.476
17958.5
-680.73
16284.6
-480.123
18385
-244.595
21013.9
-3.92744
20459.3
235.353
21015.4
464.113
19084.4
706.099
18076.5
963.926
18928.9
1191.62
19504.4
1377.16
18726
1549.07
17254.3
1735.33
15911.2
1950.43
15037.5
2176.97
14740.8
2346.67
14242.5
2441.8
12774.9
2488.2
10427.6
2505.12
7561.22
2522.65
4513.31
2564.6
1484.23
2654.71
-1436.46
2802.66
-4502.27
3015.99
-7558.63
3492.88
-11112.4
4218.15
-17688.3
4633.95
-25896.1
4527.4
-30289.4
4161.77
-29924.5
3898.5
-27689
3897.7
-25732.1
4064.44
-24199
4079.85
-23113.8
3833.45
-20910.2
3601.17
-15706.4
3934.67
-9464.26
5314.47
-7660.81
7231.16
-12857.3
8485.23
-16145.6
8781.87
-12811.8
8628.14
-7112.28
7842.87
351.116
6036.31
9160.67
3907.73
19880.3
3453.31
19416.5
4586.35
474.857
5384.71
-3296.22
4636.76
34186.4
4020.04
65318.1
3741.65
67779.1
3593
55761.2
3546.47
43303.5
3568.98
33186.1
3607.08
24754.7
3625.27
17102
3606.51
9813.18
3539.88
2790.08
3419.09
-4156.26
3218.8
-11148.1
2881.4
-17676.5
2456.93
-22929.3
2224.81
-29308.5
2293.39
-42766
2155.22
-59352.1
-65886.8
-3268.21
19030.3
-3247.52
19407
-3194.9
19503
-3124.29
19752
-3021.77
20010.1
-2887.19
20173.7
-2720.82
20246.6
-2538.82
20324
-2361.29
20673.7
-2196.41
21487.5
-2028.17
22632.8
-1823.27
23493.8
-1553.66
23137.8
-1226.84
20930.2
-909.473
17641.1
-677.999
16053.1
-478.873
18185.9
-244.332
20779.3
-4.69766
20219.7
233.768
20776.9
461.783
18856.4
703.28
17835
961.49
18670.7
1190.36
19275.5
1376.13
18540.2
1546.71
17083.7
1730.7
15727.2
1945.64
14822.5
2181.09
14505.3
2366.16
14057.4
2470.91
12670.1
2525.21
10373.3
2551.53
7534.9
2577.36
4487.48
2625.36
1436.23
2719.17
-1530.26
2868.33
-4651.43
3091.74
-7782.04
3581.55
-11602.2
4281.64
-18388.4
4648.37
-26262.8
4501.97
-30143
4124.62
-29547.1
3889.03
-27453.4
3932.66
-25775.7
4127.9
-24394.3
4123.08
-23109
3832.06
-20619.2
3680.88
-15555.2
4252.65
-10036
5715.38
-9123.54
7381.5
-14523.4
8286.9
-17051
8332.19
-12857
8096.21
-6876.3
7353.84
1093.49
5663.01
10851.5
3754.57
21788.7
3320.18
19850.9
4280.76
-485.721
5125.36
-4140.82
4471.36
34840.4
3888.02
65901.5
3649.88
68017.3
3533.87
55877.2
3503.49
43333.9
3532.93
33156.7
3575.49
24712.1
3596.48
17081
3578.32
9831.35
3510.9
2857.5
3389
-4034.37
3182.08
-10941.1
2837.82
-17332.2
2423.36
-22514.8
2214.33
-29099.4
2295.67
-42847.4
2125.95
-59182.4
-65033.5
-3297.52
19043.4
-3272.46
19382
-3216.58
19447.1
-3142.29
19677.7
-3035.42
19903.3
-2896.34
20034.6
-2726.43
20076.7
-2543.16
20140.7
-2366.42
20496.9
-2202.73
21323.8
-2034.11
22464.1
-1826.39
23286.1
-1552.29
22863.7
-1221.9
20599.8
-904.815
17324
-675.553
15823.9
-477.784
17988.1
-244.117
20545.7
-5.41767
19981
232.349
20539.2
459.715
18629
700.803
17593.9
959.492
18412
1189.71
19045.3
1375.95
18353.9
1545.45
16914.3
1727.17
15545.5
1940.9
14608.8
2183.51
14262.7
2384.79
13856.1
2501.78
12553.1
2563.26
10311.9
2598.08
7500.08
2631.85
4453.7
2685.62
1382.46
2782.52
-1627.17
2933.5
-4802.41
3166.51
-8015.05
3665.12
-12100.8
4337.1
-19060.4
4654.56
-26580.3
4468
-29956.4
4081.69
-29160.8
3880.3
-27252
3973.59
-25869
4198.49
-24619.2
4184.37
-23094.9
3880.86
-20315.7
3839.57
-15513.9
4605.43
-10801.9
6051.64
-10569.8
7416.56
-15888.3
7999.13
-17633.6
7793.58
-12651.5
7450.75
-6533.46
6790.6
1753.63
5268.86
12373.2
3617.56
23440
3166.59
20301.9
3917.88
-1237.01
4817.63
-5040.57
4273.68
35384.3
3742.48
66432.7
3551.94
68207.8
3470.64
55958.5
3458.35
43346.2
3495.8
33119.2
3543.27
24664.7
3567.37
17056.9
3550.11
9848.61
3482.33
2925.28
3358.84
-3910.88
3144.18
-10726.5
2794.35
-16982.4
2392
-22112.5
2206.12
-28913.6
2299.56
-42940.8
2169.98
-59052.8
-64302.6
-3328.75
19053
-3299.31
19352.5
-3240.06
19387.9
-3161.88
19599.5
-3050.45
19791.8
-2906.73
19890.9
-2733.3
19903.2
-2548.85
19956.3
-2372.93
20321
-2210.27
21161.1
-2040.94
22294.8
-1830.06
23075.2
-1551.22
22584.8
-1217.21
20265.8
-900.452
17007.3
-673.356
15596.8
-476.844
17791.6
-243.949
20312.8
-6.09219
19743.1
231.078
20302
457.873
18402.2
698.626
17353.1
957.9
18152.8
1189.64
18813.6
1376.62
18167
1545.31
16745.6
1724.96
15365.8
1936.7
14397.1
2184.27
14015.1
2401.64
13638.8
2533.74
12421
2602.89
10242.7
2644.99
7457.99
2686.03
4412.66
2745.01
1323.48
2844.74
-1726.9
2998.42
-4956.09
3239.79
-8256.41
3742.82
-12603.9
4384.18
-19701.7
4651.58
-26847.7
4424.27
-29729.1
4032.64
-28769.2
3872.74
-27092.1
4020.93
-26017.2
4276.58
-24874.8
4266.31
-23084.6
3985.06
-20034.4
4066.48
-15595.3
4968.98
-11704.4
6321.6
-11922.4
7362.96
-16929.7
7650.46
-17921.1
7148.36
-12149.4
6635.56
-6020.66
6113.64
2275.56
4846.76
13640.1
3496.6
24790.2
2986.45
20812
3492.61
-1743.17
4471.19
-6019.15
4054.08
35801.4
3587.68
66899.1
3449.73
68345.7
3404.09
56004.1
3411.29
43339
3457.71
33072.8
3510.51
24611.9
3537.97
17029.5
3521.82
9864.76
3453.91
2993.2
3328.04
-3785.01
3104.75
-10503.2
2751.23
-16628.9
2363.08
-21724.3
2200.37
-28750.8
2301.62
-43042
2080.25
-58831.4
-63593.7
-3361.94
19058.8
-3328.09
19318.7
-3265.34
19325.1
-3183.04
19517.2
-3066.82
19675.6
-2918.33
19742.4
-2741.41
19726.3
-2555.91
19770.8
-2380.81
20145.9
-2219
20999.3
-2048.63
22124.4
-1834.22
22860.8
-1550.39
22301
-1212.71
19928.1
-896.333
16690.9
-671.376
15371.8
-476.048
17596.2
-243.835
20080.5
-6.73952
19506
229.922
20065.3
456.206
18175.9
696.686
17112.7
956.652
17892.8
1190.1
18580.1
1378.1
17979
1546.29
16577.4
1724.2
15187.9
1933.51
14187.7
2183.7
13765
2415.98
13406.5
2565.62
12271.4
2644.36
10164
2692.77
7409.58
2740.07
4365.36
2803.53
1260.02
2906.24
-1829.6
3063.35
-5113.2
3310.8
-8503.86
3813.89
-13107
4422.42
-20310.3
4638.29
-27063.6
4369.62
-29460.5
3977.49
-28377.1
3866.94
-26981.6
4074.91
-26225.2
4362.26
-25162.2
4369.99
-23092.3
4143.97
-19808.4
4347.52
-15798.9
5326.7
-12683.6
6531.29
-13127
7245.53
-17643.9
7255.16
-17930.7
6391.03
-11285.3
5629.45
-5259.08
5296.04
2608.96
4382.25
14553.9
3384.05
25788.4
2790.46
21405.6
3030.07
-1982.78
4103.02
-7092.1
3822.89
36081.6
3428.12
67293.8
3345.14
68428.7
3334.97
56014.3
3362.52
43311.5
3418.71
33016.6
3477.17
24553.4
3508.16
16998.5
3493.28
9879.63
3425.24
3061.24
3295.93
-3655.69
3063.58
-10270.8
2708.79
-16274.1
2336.85
-21352.4
2197.62
-28611.6
2306.39
-43150.8
2105.84
-58630.9
-62684.1
-3397.13
19060.7
-3358.82
19280.4
-3292.44
19258.7
-3205.76
19430.5
-3084.52
19554.4
-2931.14
19589
-2750.78
19545.9
-2564.32
19584.3
-2390.06
19971.6
-2228.89
20838.1
-2057.14
21952.7
-1838.83
22642.5
-1549.76
22011.9
-1208.35
19586.7
-892.409
16375
-669.586
15149
-475.398
17402.1
-243.792
19848.9
-7.39385
19269.6
228.827
19829.1
454.638
17950.1
694.888
16872.4
955.646
17632
1190.99
18344.8
1380.3
17789.7
1548.33
16409.3
1724.94
15011.3
1931.76
13980.9
2182.44
13514.3
2427.43
13161.5
2596.07
12102.8
2687.26
10072.8
2742.01
7354.82
2794.48
4312.89
2861.63
1192.87
2967.79
-1935.76
3128.32
-5273.74
3378.57
-8754.11
3877.63
-13606
4451.27
-20883.9
4613.41
-27225.7
4303.04
-29150.1
3916.58
-27990.6
3863.59
-26928.6
4135.35
-26496.9
4455.46
-25482.3
4494.97
-23131.8
4352.01
-19665.5
4667.95
-16114.8
5667.99
-13683.6
6689.06
-14148
7084.46
-18039.3
6823.57
-17669.8
5575.37
-10037.1
4510.63
-4194.35
4359.95
2759.64
3864.77
15049.1
3265.25
26387.9
2623.16
22047.7
2606.83
-1966.45
3741.84
-8227.11
3589.56
36233.9
3268
67615.4
3239.84
68456.9
3263.92
55990.2
3312.17
43263.2
3378.68
32950.1
3443.07
24489
3477.69
16963.9
3464.16
9893.17
3395.77
3129.63
3261.87
-3521.8
3020.64
-10029.6
2667.48
-15920.9
2313.46
-20998.3
2196.44
-28494.6
2312.2
-43266.6
2130.46
-58449.1
-61911.1
-3434.34
19058.5
-3391.54
19237.6
-3321.33
19188.5
-3230.01
19339.2
-3103.52
19427.9
-2945.13
19430.6
-2761.39
19362.2
-2574.09
19397
-2400.65
19798.2
-2239.92
20677.4
-2066.42
21779.2
-1843.83
22419.9
-1549.28
21717.4
-1204.09
19241.5
-888.636
16059.5
-667.967
14928.3
-474.905
17209
-243.849
19617.9
-8.10349
19033.9
227.725
19593.3
453.074
17724.8
693.102
16632.4
954.727
17370.4
1192.16
18107.3
1383.06
17598.8
1551.24
16241.2
1727.04
14835.5
1931.73
13776.2
2181.46
13264.6
2436.23
12906.7
2623.9
11915.1
2730.49
9966.2
2793.07
7292.24
2850.01
4255.96
2920.23
1122.64
3030.3
-2045.83
3192.94
-5436.38
3441.93
-9003.1
3933.47
-14097.6
4470.01
-21420.5
4575.52
-27331.2
4223.84
-28798.4
3850.65
-27617.4
3863.35
-26941.3
4201.92
-26835.5
4556.21
-25836.6
4639.59
-23215.2
4599.75
-19625.6
5012.59
-16527.7
5985.01
-14656
6801.98
-14965
6895.07
-18132.4
6375.66
-17150.4
4838.77
-8500.17
3496.52
-2852.1
3419.7
2836.47
3308.83
15160
3124.83
26571.9
2548.72
22623.8
2325.83
-1743.56
3418.95
-9320.23
3361.29
36291.5
3110.58
67866.1
3135.11
68432.3
3191.4
55934
3260.26
43194.4
3337.39
32873
3407.88
24418.5
3446.14
16925.6
3433.96
9905.35
3364.79
3198.79
3225.3
-3382.31
2976.17
-9780.46
2627.83
-15572.6
2293.08
-20663.6
2197.31
-28398.8
2315.89
-43385.2
2048.92
-58182.1
-61171
-3473.62
19051.9
-3426.26
19190.2
-3352.02
19114.3
-3255.77
19243
-3123.79
19295.9
-2960.29
19267.1
-2773.25
19175.2
-2585.23
19209
-2412.58
19625.5
-2252.05