/*--------------------------------*- C++ -*----------------------------------*\
| =========                 |                                                 |
| \\      /  F ield         | OpenFOAM: The Open Source CFD Toolbox           |
|  \\    /   O peration     | Version:  4.1                                   |
|   \\  /    A nd           | Web:      www.OpenFOAM.org                      |
|    \\/     M anipulation  |                                                 |
\*---------------------------------------------------------------------------*/
FoamFile
{
    version     2.0;
    format      ascii;
    class       volVectorField;
    location    "26";
    object      U;
}
// * * * * * * * * * * * * * * * * * * * * * * * * * * * * * * * * * * * * * //

dimensions      [0 1 -1 0 0 0 0];

internalField   nonuniform List<vector> 
6785
(
(7.44178e-14 -0.577854 16.0881)
(8.00413e-14 -6.44757 12.4112)
(-2.09225e-14 -4.69443 12.7649)
(3.26078e-14 -4.15834 12.5292)
(1.08737e-14 -3.54302 12.3601)
(-1.67553e-14 -3.06886 12.1351)
(1.8907e-14 -2.67846 11.8789)
(9.22743e-15 -2.3888 11.5811)
(-1.07742e-14 -2.20193 11.2471)
(3.31135e-14 -2.09638 10.9024)
(9.5702e-15 -2.08003 10.5585)
(-1.52288e-14 -2.34034 10.1049)
(3.32402e-14 -2.80587 9.4848)
(-6.42627e-15 -1.96245 9.05959)
(-6.83443e-14 0.917085 7.15948)
(1.58017e-13 -7.29197 25.8993)
(1.06645e-13 -16.4984 21.7492)
(-2.41677e-14 -11.6465 22.0923)
(1.40229e-13 -11.8264 20.7145)
(8.68889e-15 -10.9515 19.7089)
(6.18157e-15 -10.2634 18.6681)
(1.21998e-13 -9.57955 17.6303)
(-6.78865e-16 -8.91549 16.5862)
(2.3953e-14 -8.27338 15.5157)
(1.45673e-13 -7.63234 14.413)
(1.33853e-15 -6.96067 13.344)
(4.35876e-14 -6.39268 12.3583)
(1.77785e-13 -5.99804 11.0003)
(-5.49557e-14 -4.3855 7.79669)
(-7.04323e-14 0.0239438 0.821523)
(4.8718e-14 -9.90272 27.5938)
(1.16978e-13 -17.7189 24.059)
(-3.75228e-14 -11.8253 24.4946)
(4.90239e-15 -12.7178 22.3302)
(3.59685e-14 -11.278 21.1913)
(-1.64957e-14 -10.5206 19.7701)
(-5.99292e-14 -9.66756 18.4074)
(1.31182e-14 -8.88549 17.0476)
(-1.38509e-14 -8.15877 15.7273)
(-4.55244e-14 -7.49089 14.4506)
(2.88834e-14 -6.84644 13.2393)
(-1.47718e-14 -6.11754 11.9704)
(-1.40533e-13 -4.69656 9.35533)
(6.90413e-14 -1.40323 2.68224)
(5.24801e-16 0.993357 -4.08231)
(1.46178e-13 -10.7509 26.2998)
(7.343e-14 -17.3423 23.3681)
(1.98114e-14 -11.5062 23.7783)
(-1.53537e-14 -13.1664 20.9616)
(-4.94974e-14 -11.2895 19.9381)
(6.47698e-14 -10.784 18.2299)
(-4.68657e-14 -9.91264 16.7385)
(-6.78051e-14 -9.18022 15.2314)
(8.10864e-14 -8.52611 13.8611)
(-2.68427e-14 -8.00591 12.682)
(-8.47531e-14 -7.55786 11.6146)
(4.57308e-14 -7.06524 10.4701)
(-8.8634e-16 -6.21841 8.83483)
(-1.62487e-13 -4.32073 5.52342)
(-1.29735e-14 -3.06881 1.58717)
(9.91245e-14 -11.314 25.6076)
(-3.44009e-14 -16.8396 23.1691)
(-2.93174e-14 -11.4729 23.489)
(-7.752e-14 -13.341 20.437)
(-1.81652e-13 -11.0517 19.5554)
(1.2342e-14 -10.7097 17.646)
(-1.3021e-13 -9.64291 16.1433)
(-1.93606e-13 -8.82433 14.5438)
(-6.20479e-15 -7.99876 12.9975)
(-2.0172e-13 -7.33498 11.5431)
(-3.98814e-13 -6.87578 10.3126)
(-1.69845e-13 -6.62782 9.40658)
(-2.14803e-13 -6.38625 8.7578)
(-5.46224e-13 -5.54279 7.65809)
(-3.06274e-13 -4.65787 5.31292)
(1.2776e-13 -12.0358 25.8461)
(-3.24458e-14 -16.4022 23.6197)
(2.35596e-15 -11.6898 23.8064)
(-1.02575e-13 -13.1726 20.921)
(-8.3902e-14 -10.7285 20.0477)
(3.88406e-14 -10.3684 18.1018)
(-1.49285e-13 -9.06946 16.6754)
(-9.8267e-14 -8.01399 14.833)
(-9.2845e-14 -6.43183 12.3018)
(-3.25216e-13 -4.70597 9.19388)
(-5.31897e-14 -3.92463 7.35312)
(1.56261e-13 -4.66363 7.80254)
(1.6862e-14 -5.85038 9.15328)
(-1.3883e-13 -6.27368 9.89761)
(-6.59772e-14 -5.41914 8.68874)
(2.4902e-13 -12.5189 26.1025)
(1.42669e-14 -16.7387 24.9974)
(8.65792e-14 -12.1008 24.5896)
(-1.29405e-13 -13.4601 21.8853)
(-1.68147e-14 -10.9093 21.068)
(9.75893e-14 -10.6764 19.1009)
(-1.62615e-13 -9.23493 17.7888)
(-1.07499e-14 -8.14418 15.8194)
(-5.37811e-14 -6.13672 12.8115)
(-2.74892e-13 -3.5384 8.61486)
(1.90132e-15 -1.45773 5.25051)
(-3.25514e-13 -0.947976 4.26681)
(-7.93044e-13 -2.04284 5.60158)
(-2.34398e-13 -3.83099 8.07289)
(4.59673e-13 -3.78419 7.93158)
(1.90077e-13 -12.3774 25.2042)
(3.8978e-14 -17.5111 26.8012)
(9.54611e-14 -12.863 25.4303)
(-1.1849e-13 -14.0826 22.7162)
(-2.33393e-14 -11.5993 21.958)
(1.03691e-13 -11.5462 19.9824)
(-1.08541e-13 -10.1519 18.7693)
(-3.42627e-14 -9.29082 16.9985)
(-6.65333e-15 -7.63734 14.5283)
(-2.36362e-13 -5.271 10.8217)
(-1.24257e-13 -2.59167 6.791)
(-6.7114e-13 -0.103898 3.20374)
(-1.56588e-12 1.66525 0.678614)
(-1.68617e-12 1.19723 0.707708)
(-5.93177e-13 -0.467064 2.31644)
(1.79557e-13 -11.7243 23.1442)
(6.90182e-14 -17.7565 27.7388)
(3.11715e-14 -13.7861 25.8594)
(-5.49287e-14 -14.2828 22.9952)
(-4.54867e-14 -12.3246 21.9989)
(1.60725e-15 -12.0799 20.1784)
(-4.49249e-14 -11.0034 18.8639)
(-5.77598e-14 -10.2495 17.3026)
(-1.16036e-13 -9.1754 15.4624)
(-1.04439e-13 -7.6796 13.0067)
(-8.80813e-14 -5.7316 10.0061)
(-4.88221e-13 -3.29068 6.51098)
(-8.53448e-13 -0.0516655 2.21909)
(-1.64758e-12 2.65132 -1.75321)
(-1.96116e-12 1.18303 -2.99663)
(1.19682e-13 -10.9179 20.7989)
(8.17318e-14 -17.4188 27.6673)
(1.13235e-14 -14.1889 25.7612)
(-1.06072e-13 -14.06 22.7086)
(-7.78172e-14 -12.4164 21.4893)
(-6.54251e-14 -12.0064 19.7747)
(-1.03117e-13 -11.0796 18.3821)
(-8.52282e-14 -10.3259 16.8707)
(-1.74625e-13 -9.48512 15.2877)
(-1.93153e-13 -8.45951 13.4749)
(-8.3828e-14 -7.1999 11.3395)
(-2.74907e-13 -5.56781 8.7917)
(-5.68224e-13 -3.43017 5.49078)
(-3.50645e-13 -0.606438 1.71697)
(-2.14277e-12 0.831302 -3.02321)
(-1.01197e-14 -10.242 18.9415)
(9.60392e-14 -16.9246 27.3278)
(-1.22295e-13 -14.3151 25.6312)
(-1.33154e-13 -13.8036 22.4533)
(-5.17947e-14 -12.2662 21.0444)
(-2.19352e-13 -11.7013 19.3115)
(-1.44725e-13 -10.7231 17.8123)
(-5.95359e-14 -9.95991 16.3276)
(-3.52458e-13 -9.16167 14.8732)
(-2.21255e-13 -8.26481 13.3204)
(2.28938e-14 -7.26613 11.5855)
(-4.98449e-13 -6.0205 9.5907)
(-5.79543e-13 -4.45902 6.98816)
(-7.88217e-13 -2.07312 3.54906)
(-2.78827e-12 1.20587 -3.27516)
(-2.89712e-14 -9.76692 17.7124)
(1.42822e-13 -16.3045 26.7627)
(-2.54338e-13 -13.8649 25.0395)
(-1.20627e-13 -13.1918 21.8881)
(-4.43296e-14 -11.6364 20.6902)
(-3.9994e-13 -11.1512 18.9691)
(-1.54552e-13 -10.104 17.5438)
(4.87084e-14 -9.45298 16.1812)
(-4.81753e-13 -8.72441 14.8664)
(-2.55982e-13 -7.89058 13.378)
(3.51728e-14 -6.96306 11.7104)
(-7.54744e-13 -5.82643 9.86068)
(-4.70985e-13 -4.55872 7.59102)
(-1.00266e-12 -2.57032 4.7683)
(-2.32875e-12 1.27824 -3.94519)
(-1.3554e-13 -9.56707 17.0406)
(1.22424e-13 -16.8228 27.3309)
(-1.35972e-13 -15.5961 26.521)
(-2.16856e-13 -14.3797 23.0053)
(7.64625e-15 -12.5455 20.8158)
(-2.7743e-13 -11.5483 18.7479)
(-2.56659e-13 -10.3479 17.0412)
(2.80738e-13 -9.3497 15.3539)
(-2.49192e-13 -8.45631 13.9013)
(-3.08294e-13 -7.63852 12.5149)
(6.58872e-14 -6.79892 11.034)
(-5.59615e-13 -5.72124 9.31795)
(-4.64096e-13 -4.15255 6.67575)
(-7.16399e-13 -1.57834 2.96457)
(-1.6414e-12 -1.66571 -1.92009)
(-1.37244e-13 -4.71055 10.4476)
(3.52621e-15 -11.7158 22.9506)
(-2.07662e-13 -10.8208 23.2666)
(-2.11579e-13 -10.3684 22.3131)
(-1.8509e-13 -10.0192 21.9221)
(-2.76485e-13 -10.0417 20.8494)
(-1.42142e-13 -9.89768 19.4683)
(3.89027e-14 -9.74445 17.9029)
(-2.29458e-13 -9.29742 16.3703)
(-2.86127e-13 -8.5676 14.8083)
(-2.70612e-13 -7.7779 13.3942)
(-3.73126e-13 -7.19451 12.2994)
(-2.37011e-13 -6.90478 11.5266)
(-4.40946e-13 -5.39953 8.76668)
(-8.38712e-13 -5.03271 5.81881)
(-1.68416e-13 -26.5136 49.182)
(-1.96668e-13 -22.29 44.8659)
(-3.57224e-13 -15.9472 35.3496)
(-4.3265e-13 -10.2233 26.8076)
(-4.23059e-13 -4.04767 17.3644)
(-3.06188e-13 0.58666 10.2097)
(-2.76102e-13 2.64272 7.15728)
(-3.39101e-13 2.22388 7.62926)
(-4.08746e-13 0.671646 9.09806)
(-4.38041e-13 -0.599445 9.54703)
(-3.84307e-13 -0.787577 8.34687)
(-3.1124e-13 0.346508 5.38699)
(-3.40974e-13 2.27032 0.597634)
(-2.96675e-13 5.10586 -4.82247)
(-1.47417e-14 5.44689 -4.15912)
(-2.32863e-15 -0.0467712 -0.0659542)
(-1.05008e-14 0.790496 -3.82594)
(-1.18722e-14 1.07395 -3.38568)
(-6.46939e-15 1.48782 -2.46724)
(3.57948e-15 1.37108 -1.13374)
(6.89227e-15 2.56086 -1.94076)
(8.25004e-15 2.38475 -0.698888)
(1.31866e-14 2.70326 -0.455845)
(1.27198e-14 2.4588 -0.137478)
(4.96247e-14 3.818 -1.33746)
(4.52565e-14 3.53333 -0.636542)
(5.08532e-14 3.55651 -0.331189)
(6.47157e-14 5.38804 -1.42317)
(6.59389e-14 4.40197 -0.761295)
(8.80725e-14 4.92619 -0.768241)
(1.04813e-13 4.59465 -0.637987)
(1.38123e-13 6.53452 -1.83127)
(1.07073e-13 5.58551 -1.12924)
(9.85591e-14 5.69071 -0.95512)
(1.06386e-13 8.25422 -2.13305)
(6.77084e-14 6.45539 -1.27015)
(5.49599e-14 7.20624 -1.24899)
(4.2721e-14 6.7606 -1.08644)
(3.65118e-14 9.57257 -2.22074)
(1.87338e-14 7.51953 -1.31786)
(1.35632e-14 8.3819 -1.29428)
(5.12983e-15 7.91472 -1.16289)
(-1.19143e-15 10.7391 -2.30242)
(-2.91024e-15 8.78776 -1.41152)
(-3.45526e-15 8.97295 -1.23199)
(-7.20047e-15 12.6312 -2.32842)
(-5.4333e-15 9.6095 -1.4004)
(-5.44284e-15 10.6057 -1.39147)
(-4.89118e-15 10.0703 -1.27605)
(-7.27026e-15 13.4644 -2.34068)
(-4.63284e-15 10.8484 -1.43631)
(-3.70035e-15 11.0767 -1.28224)
(-5.27439e-15 15.4304 -2.27472)
(-3.61941e-15 11.5959 -1.36709)
(-3.82674e-15 12.7781 -1.37835)
(-4.10982e-15 12.0986 -1.28959)
(-7.4039e-15 16.4235 -2.28087)
(-6.29751e-15 12.5217 -1.38925)
(-6.81651e-15 13.8744 -1.37288)
(-6.65717e-15 13.1706 -1.28965)
(-9.37441e-15 17.3018 -2.23652)
(-6.30024e-15 13.7437 -1.35734)
(-4.95978e-15 14.0451 -1.2223)
(-5.44625e-15 19.317 -2.03026)
(-2.38777e-15 14.3471 -1.19586)
(-9.0806e-16 15.7556 -1.19249)
(6.49723e-16 14.9318 -1.13565)
(2.25412e-15 19.9935 -1.92088)
(3.5516e-15 15.0971 -1.13814)
(4.15399e-15 16.6973 -1.09931)
(7.04365e-15 15.8431 -1.05039)
(1.03721e-14 20.5685 -1.77779)
(9.29912e-15 16.1763 -1.01853)
(9.53675e-15 16.5418 -0.913416)
(1.30665e-14 22.4928 -1.43963)
(1.07161e-14 16.5706 -0.780249)
(1.13051e-14 18.1372 -0.758505)
(1.0528e-14 17.2494 -0.746508)
(2.07084e-14 22.3336 -1.2222)
(1.86383e-14 17.4274 -0.635214)
(1.80234e-14 17.8035 -0.602289)
(2.47395e-14 24.1412 -0.862968)
(1.75382e-14 17.6456 -0.383896)
(1.74715e-14 19.3121 -0.386508)
(1.69969e-14 18.2974 -0.417908)
(2.26666e-14 24.1721 -0.614545)
(1.79627e-14 17.949 -0.236192)
(1.79452e-14 19.8081 -0.20223)
(1.80962e-14 18.7813 -0.252714)
(2.33703e-14 24.1598 -0.375295)
(1.29214e-14 18.5745 -0.0219438)
(1.26714e-14 19.0952 -0.0446523)
(1.88239e-14 24.9211 0.162712)
(1.01076e-14 19.1216 0.350256)
(2.16638e-14 18.1823 0.466678)
(3.07902e-15 20.3688 -0.215388)
(-2.09207e-15 19.0057 -0.320905)
(-8.08297e-15 18.4127 -0.387314)
(1.76081e-14 22.9335 0.708752)
(1.30823e-14 18.9307 0.0869435)
(-8.42402e-15 19.0084 0.0777722)
(-2.03056e-14 19.0471 0.189668)
(-2.03516e-14 18.9601 0.250276)
(-2.00673e-14 18.9271 0.255974)
(-2.00529e-14 18.7886 0.0951114)
(-1.79112e-14 19.0099 0.0700944)
(-1.6546e-14 18.352 0.278772)
(5.47211e-14 23.0756 -0.0545268)
(1.33175e-14 18.6284 -0.167577)
(2.04999e-14 18.9129 -0.514104)
(2.94825e-14 18.9467 -0.899351)
(4.06656e-14 18.757 -0.703426)
(4.46005e-14 18.9399 -0.976093)
(5.39111e-14 18.9666 -1.68764)
(5.77491e-14 19.2954 -2.2085)
(3.97092e-14 18.9339 -2.17746)
(1.01111e-13 23.284 -3.0017)
(9.883e-16 18.8778 -1.11258)
(-1.76099e-14 19.5093 -0.904366)
(-3.19828e-14 19.5838 -0.812171)
(-4.49517e-14 19.598 -0.79772)
(-5.50888e-14 19.6426 -0.905238)
(-5.19034e-14 19.8404 -1.36677)
(-4.16117e-14 19.8464 -1.78938)
(-3.43377e-14 20.1786 -1.97466)
(-5.27889e-14 19.9001 -1.60037)
(2.85998e-14 24.1253 -2.01764)
(-5.93301e-14 19.7828 -0.273393)
(-8.57632e-14 20.3057 0.30329)
(-1.23704e-13 20.5035 1.15862)
(-1.74243e-13 20.5095 2.37434)
(-2.23635e-13 20.5637 3.74213)
(-2.67387e-13 20.5412 5.00194)
(-3.26864e-13 20.6697 6.62781)
(-4.04848e-13 20.101 8.70055)
(-4.16556e-13 24.5876 10.4765)
(-5.19598e-13 20.4405 12.3237)
(-5.56344e-13 20.9349 13.199)
(-6.10166e-13 20.9957 14.4899)
(-6.64174e-13 20.8453 15.9388)
(-7.03746e-13 20.851 17.3016)
(-7.22665e-13 20.508 18.7217)
(-7.24013e-13 20.8253 19.3599)
(-7.34894e-13 19.9767 21.171)
(-7.38035e-13 26.0464 22.7153)
(-7.43565e-13 21.0515 23.1465)
(-7.31295e-13 21.3874 23.4252)
(-7.14728e-13 21.5159 23.3843)
(-7.06115e-13 21.1917 24.2941)
(-6.86742e-13 21.2891 25.1768)
(-6.56507e-13 21.2015 25.6131)
(-6.2734e-13 21.3109 25.8197)
(-5.98359e-13 20.7659 26.0805)
(-5.61102e-13 29.3439 24.8324)
(-5.64532e-13 22.2025 27.3858)
(-5.40776e-13 23.2842 27.2984)
(-5.12926e-13 23.3348 27.1895)
(-4.84244e-13 23.0573 27.2028)
(-4.62657e-13 23.3766 26.8079)
(-4.13956e-13 23.2014 27.9479)
(-3.80246e-13 23.446 28.2068)
(-3.53517e-13 23.8125 28.0484)
(-3.31179e-13 23.3925 28.4345)
(-2.97734e-13 34.5129 23.9092)
(-2.93743e-13 25.5427 28.3213)
(-2.71477e-13 27.0594 28.7434)
(-2.54589e-13 27.3776 28.8521)
(-2.38914e-13 27.2897 29.0288)
(-2.24646e-13 27.6842 29.195)
(-2.08918e-13 27.8637 29.6421)
(-1.89199e-13 28.3361 30.2494)
(-1.77506e-13 28.1655 31.5223)
(-1.65658e-13 41.8461 24.7212)
(-1.68183e-13 31.1572 30.2664)
(-1.69182e-13 33.2673 31.6784)
(-1.27316e-13 33.3053 22.4004)
(-1.48442e-13 29.2636 22.5029)
(-1.67523e-13 32.363 21.0087)
(-1.09864e-13 23.9191 13.4358)
(-1.50532e-13 33.2877 14.536)
(-1.07075e-13 23.6481 10.1408)
(-1.31399e-13 25.8544 10.0217)
(-1.53691e-13 28.9231 8.4393)
(-1.03764e-13 22.0621 5.48549)
(-1.25317e-13 26.3169 4.8544)
(-1.46461e-13 29.9477 3.31492)
(-9.56831e-14 20.9738 2.05585)
(-1.31526e-13 31.7856 0.78793)
(-9.47463e-14 23.2385 0.466506)
(-1.16448e-13 26.4309 -0.734365)
(-1.41441e-13 31.4557 -2.33334)
(-9.4363e-14 22.5768 -1.59748)
(-1.346e-13 34.9231 -3.64094)
(-9.86764e-14 25.6317 -2.65259)
(-1.21433e-13 30.12 -4.29732)
(-1.43554e-13 34.5504 -5.83408)
(-9.93878e-14 26.9061 -3.83732)
(-1.20128e-13 34.0486 -5.45439)
(-1.4372e-13 39.2845 -6.69648)
(-9.69311e-14 28.0889 -4.33864)
(-1.31479e-13 43.6589 -6.69878)
(-9.66888e-14 32.5917 -4.64351)
(-1.18311e-13 37.7735 -6.26528)
(-1.37531e-13 44.6416 -7.17859)
(-9.28979e-14 32.6409 -4.55361)
(-1.25539e-13 50.0634 -6.7512)
(-9.2689e-14 37.2487 -4.59552)
(-1.11587e-13 43.6494 -6.1776)
(-1.31586e-13 49.3641 -6.90512)
(-9.21207e-14 38.5555 -4.29452)
(-1.10161e-13 48.5308 -5.67035)
(-1.31177e-13 55.0387 -6.21487)
(-8.9461e-14 39.5274 -3.91041)
(-1.2166e-13 60.1268 -5.93364)
(-9.06274e-14 45.006 -4.00471)
(-1.10033e-13 51.7076 -5.46546)
(-1.28997e-13 60.1349 -6.01579)
(-8.78222e-14 44.0428 -3.76075)
(-1.20624e-13 66.4619 -5.76647)
(-9.0497e-14 49.5114 -3.85672)
(-1.09793e-13 57.5314 -5.41374)
(-1.30999e-13 64.509 -5.96294)
(-9.26734e-14 50.2693 -3.60039)
(-1.11791e-13 62.9012 -4.96004)
(-1.32393e-13 70.841 -5.33813)
(-9.06722e-14 50.8692 -3.30563)
(-1.22822e-13 76.6074 -5.30441)
(-9.16874e-14 57.3905 -3.52159)
(-1.10766e-13 65.6469 -5.04754)
(-1.31701e-13 75.8705 -5.5593)
(-9.01809e-14 55.5932 -3.45252)
(-1.21819e-13 83.2862 -5.62751)
(-9.08373e-14 62.1185 -3.77074)
(-1.09525e-13 71.9007 -5.56715)
(-1.27742e-13 80.3367 -6.3201)
(-8.97901e-14 62.5453 -3.8598)
(-1.07765e-13 78.1079 -5.53679)
(-1.25665e-13 87.6996 -6.22259)
(-8.51978e-14 63.0149 -3.93556)
(-1.15611e-13 94.4772 -6.56064)
(-8.66419e-14 70.9448 -4.46947)
(-1.04409e-13 81.0293 -6.48818)
(-1.24537e-13 93.3967 -7.44062)
(-8.57435e-14 68.5584 -4.71355)
(-1.16217e-13 102.386 -7.7153)
(-8.7191e-14 76.6128 -5.26475)
(-1.05781e-13 88.5485 -7.68268)
(-1.21692e-13 98.8792 -9.00913)
(-8.56973e-14 77.1007 -5.63932)
(-1.0316e-13 96.1346 -7.9797)
(-1.20729e-13 108.196 -9.4812)
(-8.25473e-14 77.7656 -6.06887)
(-1.11065e-13 117.209 -10.2043)
(-8.14019e-14 86.9595 -6.93921)
(-1.07922e-13 104.548 -11.3504)
(-3.51608e-16 -24.8663 20.1741)
(-3.92649e-16 -25.8142 20.661)
(-4.18362e-16 -26.6047 20.5502)
(-4.4548e-16 -27.2483 20.4178)
(-4.68342e-16 -28.0951 20.0548)
(-4.86761e-16 -28.8246 19.542)
(-4.9981e-16 -29.5028 18.8242)
(-5.07278e-16 -30.0516 17.865)
(-5.08305e-16 -30.6692 16.6913)
(-5.0251e-16 -31.6578 15.4174)
(-4.90586e-16 -33.1627 14.1628)
(-4.73917e-16 -34.7262 12.9132)
(-4.53175e-16 -35.1594 11.5018)
(-4.27876e-16 -33.1927 9.78239)
(-3.97918e-16 -29.0097 7.77148)
(-3.63894e-16 -25.7065 5.67274)
(-3.25901e-16 -27.9389 4.19898)
(-2.85843e-16 -31.9137 2.53757)
(-2.44044e-16 -31.2459 0.812162)
(-2.02045e-16 -31.9625 -0.872622)
(-1.62359e-16 -29.2313 -2.60161)
(-1.26768e-16 -28.0669 -4.17085)
(-9.40375e-17 -29.3598 -5.97438)
(-6.43715e-17 -29.6055 -7.5485)
(-3.99338e-17 -28.0136 -8.92048)
(-2.38446e-17 -25.9526 -10.183)
(-2.40983e-17 -24.3118 -11.542)
(-3.88016e-17 -23.219 -12.7636)
(-9.47915e-17 -22.5426 -13.8581)
(-1.81541e-16 -20.9232 -14.6231)
(-2.51306e-16 -17.8339 -14.8109)
(-2.7562e-16 -13.8261 -14.5078)
(-2.57518e-16 -9.63541 -14.0628)
(-2.24721e-16 -5.72519 -13.6857)
(-2.01796e-16 -2.14362 -13.4931)
(-1.95544e-16 1.08458 -13.4578)
(-1.85412e-16 3.9927 -13.456)
(-2.18281e-16 7.54666 -14.4332)
(-2.63716e-16 9.46374 -14.7972)
(-2.94638e-17 11.6141 -16.3265)
(-4.42031e-16 23.5102 -23.7205)
(-2.1507e-15 38.0726 -29.6647)
(-4.00433e-15 43.9936 -30.4079)
(-5.11888e-15 41.9424 -28.4591)
(-5.50334e-15 36.8449 -26.1925)
(-5.49761e-15 31.912 -24.7208)
(-5.33667e-15 28.9383 -24.3772)
(-5.16808e-15 25.7429 -25.8518)
(-5.08054e-15 20.3 -28.4446)
(-5.05264e-15 13.7886 -30.5249)
(-5.04033e-15 7.26911 -31.5553)
(-5.01452e-15 3.24799 -32.099)
(-4.97587e-15 2.46252 -32.5666)
(-5.10311e-15 0.0704118 -31.1968)
(-5.41152e-15 -4.36105 -29.705)
(-4.28059e-15 -3.37576 -39.6724)
(-1.80922e-15 7.17502 -51.7356)
(-2.46121e-16 12.0291 -49.0012)
(3.80003e-17 -6.59535 -27.3603)
(-1.00241e-16 -13.5003 -17.9396)
(-1.22418e-16 -4.6629 -19.2169)
(-2.6319e-17 -40.2704 -28.2627)
(2.92828e-18 -82.7733 -30.0655)
(1.46397e-18 -85.2454 -27.9297)
(8.07321e-20 -70.8787 -26.1543)
(-1.69527e-20 -56.5601 -25.5696)
(3.35574e-20 -44.3015 -25.5237)
(1.47929e-19 -33.3163 -25.6099)
(-1.65055e-19 -22.9433 -25.6902)
(1.31804e-18 -12.8912 -25.7282)
(-3.72882e-18 -3.03365 -25.7308)
(1.81616e-17 7.11433 -25.6997)
(-6.45403e-17 17.6916 -25.1308)
(1.57639e-16 28.3198 -23.7489)
(2.82186e-16 37.6247 -21.5157)
(-4.11479e-15 44.3683 -17.6634)
(-1.9402e-15 57.4114 -15.8433)
(-1.19462e-15 80.219 -15.6852)
(2.80724e-14 96.8719 -18.1833)
(-3.53815e-16 -24.9327 20.2209)
(-3.95173e-16 -25.8481 20.6895)
(-4.20691e-16 -26.5592 20.5626)
(-4.47498e-16 -27.1658 20.4163)
(-4.6994e-16 -27.9579 20.0426)
(-4.87903e-16 -28.6346 19.5171)
(-5.00514e-16 -29.2503 18.7816)
(-5.07535e-16 -29.7422 17.8044)
(-5.08132e-16 -30.3282 16.6232)
(-5.02002e-16 -31.3157 15.3597)
(-4.89894e-16 -32.8212 14.1274)
(-4.73143e-16 -34.3415 12.8969)
(-4.52334e-16 -34.6693 11.4886)
(-4.26966e-16 -32.5697 9.74853)
(-3.96968e-16 -28.3048 7.69783)
(-3.62987e-16 -25.0973 5.60477)
(-3.25254e-16 -27.4254 4.1698)
(-2.85475e-16 -31.3697 2.531)
(-2.43918e-16 -30.6885 0.810817)
(-2.02173e-16 -31.4094 -0.865561)
(-1.62732e-16 -28.6777 -2.57799)
(-1.27339e-16 -27.4799 -4.13333)
(-9.47434e-17 -28.7662 -5.93755)
(-6.51542e-17 -29.0842 -7.52455)
(-4.06811e-17 -27.549 -8.88944)
(-2.42862e-17 -25.4853 -10.1323)
(-2.37336e-17 -23.8329 -11.4753)
(-3.72101e-17 -22.7613 -12.7097)
(-9.01863e-17 -22.1375 -13.8269)
(-1.74733e-16 -20.6435 -14.635)
(-2.46119e-16 -17.7263 -14.8853)
(-2.74835e-16 -13.842 -14.6313)
(-2.61916e-16 -9.69593 -14.2028)
(-2.32571e-16 -5.7778 -13.8293)
(-2.10557e-16 -2.17476 -13.6398)
(-2.06019e-16 1.07659 -13.6571)
(-1.99656e-16 4.14318 -13.8511)
(-2.41963e-16 7.74997 -15.0264)
(-2.69929e-16 9.7802 -15.4257)
(-2.5642e-17 12.9932 -17.6813)
(-5.41933e-16 25.5258 -25.0823)
(-2.33164e-15 39.0254 -30.1134)
(-4.1751e-15 43.7653 -30.2393)
(-5.22538e-15 41.2767 -28.0933)
(-5.54248e-15 36.2689 -25.841)
(-5.49135e-15 31.6503 -24.576)
(-5.30078e-15 29.15 -24.5431)
(-5.11192e-15 26.4194 -26.3545)
(-5.02535e-15 21.0434 -29.1061)
(-5.015e-15 14.2951 -31.0156)
(-5.02435e-15 7.56015 -31.4544)
(-5.04563e-15 3.45966 -30.9249)
(-5.1374e-15 2.26086 -30.0858)
(-5.45738e-15 -0.377118 -27.6181)
(-5.08435e-15 -2.52377 -32.9071)
(-3.22544e-15 0.559335 -47.3019)
(-1.1064e-15 8.11267 -54.2324)
(-4.1268e-17 7.55054 -45.4149)
(4.43423e-17 -10.7613 -26.0429)
(-9.35431e-17 -14.2381 -19.4844)
(-1.07208e-16 -3.06691 -21.6686)
(-2.92912e-17 -38.4436 -27.8631)
(2.48354e-18 -82.3326 -30.2213)
(1.73179e-18 -85.8028 -28.2106)
(1.30516e-19 -71.3612 -26.1947)
(-2.70123e-20 -56.8086 -25.5101)
(2.71654e-20 -44.4266 -25.4472)
(1.4601e-19 -33.3968 -25.5436)
(-1.68922e-19 -23.0033 -25.6285)
(1.31497e-18 -12.9339 -25.6594)
(-4.24361e-18 -3.03602 -25.6426)
(2.06912e-17 7.04073 -25.4678)
(-7.99796e-17 17.4031 -24.7084)
(2.35971e-16 27.7723 -23.2657)
(8.72655e-17 36.6914 -21.0038)
(-4.66885e-15 43.5025 -17.1747)
(-1.71961e-15 57.1382 -15.6136)
(-4.04777e-16 80.3313 -15.6912)
(2.6995e-14 96.399 -15.7997)
(-3.56571e-16 -24.987 20.2858)
(-3.98289e-16 -25.8851 20.736)
(-4.23548e-16 -26.5327 20.5878)
(-4.49958e-16 -27.1122 20.4249)
(-4.71877e-16 -27.8645 20.037)
(-4.89279e-16 -28.503 19.4955)
(-5.0135e-16 -29.0702 18.7383)
(-5.0782e-16 -29.5131 17.7396)
(-5.07891e-16 -30.0662 16.5495)
(-5.01358e-16 -31.0461 15.2975)
(-4.89029e-16 -32.5553 14.0896)
(-4.7218e-16 -34.0604 12.8789)
(-4.51289e-16 -34.3412 11.4711)
(-4.2584e-16 -32.1833 9.70578)
(-3.95801e-16 -27.8905 7.61216)
(-3.6188e-16 -24.7517 5.52984)
(-3.24464e-16 -27.1176 4.13874)
(-2.85022e-16 -31.0229 2.5236)
(-2.43764e-16 -30.3403 0.809673)
(-2.02329e-16 -31.0607 -0.857126)
(-1.63188e-16 -28.349 -2.55225)
(-1.28038e-16 -27.147 -4.09115)
(-9.56098e-17 -28.429 -5.89443)
(-6.61183e-17 -28.7926 -7.49549)
(-4.16079e-17 -27.295 -8.8531)
(-2.48543e-17 -25.2373 -10.0752)
(-2.33431e-17 -23.5929 -11.4014)
(-3.5371e-17 -22.5539 -12.6538)
(-8.48041e-17 -21.9764 -13.7995)
(-1.6649e-16 -20.5625 -14.6556)
(-2.39438e-16 -17.7514 -14.9795)
(-2.73207e-16 -13.9346 -14.7883)
(-2.66451e-16 -9.79539 -14.3868)
(-2.41483e-16 -5.84473 -14.0239)
(-2.21098e-16 -2.19192 -13.8503)
(-2.17319e-16 1.1143 -13.9162)
(-2.10281e-16 4.27654 -14.1925)
(-2.54527e-16 7.89691 -15.4011)
(-2.69715e-16 10.0391 -15.8547)
(-2.28709e-17 13.7921 -18.5412)
(-5.97569e-16 26.4429 -25.7881)
(-2.42236e-15 39.3423 -30.3161)
(-4.25341e-15 43.5717 -30.1737)
(-5.26745e-15 40.9346 -27.9567)
(-5.54975e-15 36.0186 -25.7542)
(-5.47914e-15 31.5845 -24.6642)
(-5.28102e-15 29.3198 -24.7994)
(-5.08631e-15 26.7765 -26.6782)
(-5.0013e-15 21.3813 -29.3201)
(-5.00635e-15 14.3954 -30.8947)
(-5.0453e-15 7.34573 -30.58)
(-5.13235e-15 3.02581 -28.7631)
(-5.30352e-15 1.88971 -27.2258)
(-5.48845e-15 0.12261 -26.8275)
(-4.59833e-15 -0.634803 -37.6568)
(-2.71608e-15 1.6708 -51.7398)
(-9.08216e-16 7.41775 -56.1663)
(7.7294e-18 5.97009 -45.6831)
(4.65116e-17 -13.1202 -25.1941)
(-8.34998e-17 -14.594 -21.7175)
(-9.4031e-17 -2.73999 -25.9009)
(-3.15742e-17 -38.0281 -27.986)
(1.76651e-18 -82.439 -30.335)
(2.01997e-18 -86.2335 -28.4379)
(2.06816e-19 -71.5912 -26.2005)
(-3.76441e-20 -56.8291 -25.4254)
(1.80715e-20 -44.37 -25.3445)
(1.43334e-19 -33.3346 -25.4544)
(-1.75135e-19 -22.9565 -25.5465)
(1.32858e-18 -12.9082 -25.57)
(-4.57224e-18 -3.06435 -25.5273)
(2.13455e-17 6.92278 -25.2569)
(-8.70804e-17 17.2061 -24.4469)
(2.83551e-16 27.4763 -23.0036)
(-6.61818e-17 36.2282 -20.7283)
(-4.95743e-15 43.1059 -16.9412)
(-1.55797e-15 57.0479 -15.5169)
(6.27265e-17 80.2531 -15.6594)
(2.62332e-14 95.8336 -14.7875)
(-3.5949e-16 -25.0311 20.3658)
(-4.01537e-16 -25.9103 20.7945)
(-4.26503e-16 -26.5059 20.6226)
(-4.52486e-16 -27.0635 20.4434)
(-4.73853e-16 -27.7829 20.0393)
(-4.90671e-16 -28.3885 19.4802)
(-5.02178e-16 -28.9146 18.7)
(-5.08074e-16 -29.3183 17.6801)
(-5.07604e-16 -29.8484 16.4823)
(-5.00663e-16 -30.8268 15.242)
(-4.88114e-16 -32.3411 14.0561)
(-4.71164e-16 -33.8321 12.8601)
(-4.5019e-16 -34.0704 11.4487)
(-4.2466e-16 -31.8608 9.6589)
(-3.94585e-16 -27.5499 7.53159)
(-3.60738e-16 -24.4783 5.46468)
(-3.23648e-16 -26.8782 4.10914)
(-2.84553e-16 -30.7481 2.51424)
(-2.43602e-16 -30.0644 0.808647)
(-2.0249e-16 -30.7854 -0.847594)
(-1.63659e-16 -28.0912 -2.52726)
(-1.28759e-16 -26.8835 -4.05169)
(-9.65079e-17 -28.158 -5.85091)
(-6.71211e-17 -28.5587 -7.46261)
(-4.25798e-17 -27.0945 -8.81481)
(-2.54757e-17 -25.0406 -10.0191)
(-2.30097e-17 -23.3936 -11.3287)
(-3.35997e-17 -22.3678 -12.6013)
(-7.9556e-17 -21.8271 -13.7796)
(-1.58101e-16 -20.4853 -14.6782)
(-2.32145e-16 -17.7596 -15.0734)
(-2.70699e-16 -14.0025 -14.9545)
(-2.70071e-16 -9.87387 -14.5934)
(-2.49752e-16 -5.89716 -14.2503)
(-2.31537e-16 -2.19884 -14.1042)
(-2.28418e-16 1.15306 -14.21)
(-2.20898e-16 4.43068 -14.5741)
(-2.68525e-16 8.07628 -15.8252)
(-2.67705e-16 10.3839 -16.3488)
(-2.07742e-17 14.8621 -19.4668)
(-6.66031e-16 27.6923 -26.5483)
(-2.53558e-15 39.7916 -30.5453)
(-4.35214e-15 43.3077 -30.0882)
(-5.32065e-15 40.4557 -27.7717)
(-5.55997e-15 35.6682 -25.6245)
(-5.46612e-15 31.4899 -24.7312)
(-5.26e-15 29.5428 -25.0468)
(-5.06122e-15 27.2589 -26.9487)
(-4.98288e-15 21.8183 -29.4009)
(-5.01225e-15 14.5073 -30.5049)
(-5.10242e-15 7.00992 -29.1304)
(-5.28215e-15 2.59163 -25.7718)
(-5.38731e-15 1.93016 -25.171)
(-5.05622e-15 1.56791 -30.4871)
(-3.81038e-15 2.26273 -44.6986)
(-2.16448e-15 3.62342 -56.1401)
(-7.19027e-16 6.45803 -57.5512)
(3.75046e-17 2.06395 -45.4682)
(4.35574e-17 -15.3903 -24.3428)
(-7.3302e-17 -14.0861 -23.443)
(-8.10421e-17 -2.00808 -30.2132)
(-3.24001e-17 -37.8775 -28.7824)
(9.07308e-19 -82.4588 -30.3746)
(2.2515e-18 -86.6332 -28.5585)
(3.01e-19 -71.8521 -26.1725)
(-4.49469e-20 -56.8867 -25.328)
(7.2575e-21 -44.3412 -25.2267)
(1.40067e-19 -33.2966 -25.3502)
(-1.83051e-19 -22.9347 -25.4506)
(1.3442e-18 -12.9107 -25.4651)
(-4.71236e-18 -3.09967 -25.3846)
(2.18431e-17 6.81485 -25.0331)
(-9.44508e-17 16.9691 -24.17)
(3.40736e-16 27.0711 -22.7128)
(-2.69035e-16 35.5694 -20.3994)
(-5.2999e-15 42.5373 -16.6503)
(-1.34381e-15 56.9203 -15.3833)
(6.12351e-16 80.2402 -15.6613)
(2.53992e-14 95.1412 -15.8528)
(-3.62478e-16 -25.0771 20.4598)
(-4.04811e-16 -25.9289 20.8651)
(-4.29455e-16 -26.4699 20.668)
(-4.5499e-16 -27.0032 20.473)
(-4.75795e-16 -27.6858 20.0513)
(-4.92027e-16 -28.2536 19.4736)
(-5.02964e-16 -28.7342 18.6693)
(-5.08284e-16 -29.0979 17.6286)
(-5.07276e-16 -29.6089 16.4241)
(-4.99939e-16 -30.5911 15.1957)
(-4.87177e-16 -32.1106 14.0297)
(-4.70129e-16 -33.578 12.8453)
(-4.49071e-16 -33.7545 11.4276)
(-4.23465e-16 -31.4705 9.61339)
(-3.93362e-16 -27.1313 7.45746)
(-3.59599e-16 -24.1409 5.40683)
(-3.22834e-16 -26.5907 4.08082)
(-2.84082e-16 -30.4247 2.50412)
(-2.4344e-16 -29.7357 0.807985)
(-2.0265e-16 -30.4593 -0.837264)
(-1.64128e-16 -27.7776 -2.50272)
(-1.29479e-16 -26.5555 -4.01479)
(-9.74076e-17 -27.8196 -5.80903)
(-6.81292e-17 -28.2647 -7.42956)
(-4.35648e-17 -26.8424 -8.77779)
(-2.61321e-17 -24.7915 -9.96609)
(-2.27505e-17 -23.1331 -11.2585)
(-3.19588e-17 -22.1125 -12.5516)
(-7.46358e-17 -21.6084 -13.771)
(-1.49896e-16 -20.3466 -14.71)
(-2.2449e-16 -17.7196 -15.1709)
(-2.6734e-16 -14.0404 -15.1295)
(-2.7255e-16 -9.93735 -14.8195)
(-2.56931e-16 -5.94171 -14.504)
(-2.41226e-16 -2.20091 -14.3912)
(-2.38798e-16 1.20732 -14.5329)
(-2.3074e-16 4.59485 -14.9798)
(-2.81016e-16 8.26373 -16.2471)
(-2.62449e-16 10.7646 -16.8665)
(-1.94862e-17 15.8746 -20.3651)
(-7.3535e-16 28.727 -27.2231)
(-2.64512e-15 40.0824 -30.7356)
(-4.44318e-15 43.0156 -30.0084)
(-5.36504e-15 40.0214 -27.6131)
(-5.56306e-15 35.389 -25.5421)
(-5.44938e-15 31.4567 -24.8551)
(-5.24118e-15 29.7708 -25.3305)
(-5.0421e-15 27.6742 -27.1407)
(-4.97497e-15 22.1191 -29.252)
(-5.03723e-15 14.3835 -29.7328)
(-5.19355e-15 6.34182 -27.123)
(-5.40974e-15 2.20699 -23.0232)
(-5.15686e-15 2.83487 -26.5184)
(-4.27471e-15 3.97504 -37.7512)
(-2.96964e-15 4.66194 -52.0142)
(-1.66429e-15 4.39233 -59.8079)
(-5.46865e-16 5.24723 -58.5296)
(6.76469e-17 -1.01716 -44.7201)
(3.87577e-17 -17.5338 -23.4972)
(-6.31222e-17 -13.3487 -24.8768)
(-6.79146e-17 -1.61247 -33.9603)
(-3.16692e-17 -38.0209 -30.0662)
(2.14168e-20 -82.472 -30.3694)
(2.39783e-18 -87.0792 -28.5868)
(4.04775e-19 -72.1902 -26.1043)
(-4.67595e-20 -57.0025 -25.2085)
(-4.59793e-21 -44.3486 -25.0875)
(1.36152e-19 -33.283 -25.2257)
(-1.91462e-19 -22.9304 -25.3355)
(1.34315e-18 -12.9247 -25.3405)
(-4.64273e-18 -3.1485 -25.2224)
(2.15044e-17 6.68203 -24.8024)
(-9.92766e-17 16.7383 -23.9046)
(3.96851e-16 26.7017 -22.437)
(-5.07206e-16 34.9893 -20.0805)
(-5.61408e-15 42.0617 -16.3839)
(-1.09779e-15 56.8472 -15.2704)
(1.14505e-15 80.1764 -15.6505)
(2.45173e-14 94.3974 -13.8014)
(-3.65514e-16 -25.1232 20.567)
(-4.08083e-16 -25.9436 20.948)
(-4.32381e-16 -26.4292 20.725)
(-4.57451e-16 -26.9375 20.5147)
(-4.77688e-16 -27.5816 20.0743)
(-4.93334e-16 -28.1095 19.4769)
(-5.03702e-16 -28.5426 18.6477)
(-5.08445e-16 -28.8663 17.5863)
(-5.0691e-16 -29.3601 16.3757)
(-4.99189e-16 -30.3479 15.1592)
(-4.86225e-16 -31.8718 14.0119)
(-4.69082e-16 -33.3114 12.8367)
(-4.47942e-16 -33.4196 11.4103)
(-4.22263e-16 -31.056 9.57076)
(-3.92138e-16 -26.6915 7.38858)
(-3.58472e-16 -23.7905 5.3543)
(-3.22029e-16 -26.2911 4.05465)
(-2.83614e-16 -30.0852 2.49449)
(-2.43277e-16 -29.3894 0.807879)
(-2.02807e-16 -30.1158 -0.826691)
(-1.64591e-16 -27.4477 -2.47919)
(-1.30193e-16 -26.21 -3.98029)
(-9.83024e-17 -27.462 -5.76965)
(-6.91351e-17 -27.9537 -7.39845)
(-4.45554e-17 -26.578 -8.74404)
(-2.68179e-17 -24.5328 -9.91787)
(-2.2567e-17 -22.8621 -11.1927)
(-3.04517e-17 -21.8452 -12.5045)
(-7.00558e-17 -21.3771 -13.7727)
(-1.41987e-16 -20.1924 -14.7535)
(-2.16581e-16 -17.6628 -15.2744)
(-2.63184e-16 -14.0662 -15.3125)
(-2.7387e-16 -9.99454 -15.0614)
(-2.62899e-16 -5.98129 -14.7803)
(-2.49892e-16 -2.1959 -14.7043)
(-2.48146e-16 1.27221 -14.8795)
(-2.3964e-16 4.76808 -15.4056)
(-2.92356e-16 8.46464 -16.6741)
(-2.54075e-16 11.1915 -17.4066)
(-1.94074e-17 16.9312 -21.2366)
(-8.09877e-16 29.7412 -27.8443)
(-2.7593e-15 40.3303 -30.9055)
(-4.535e-15 42.687 -29.9248)
(-5.4067e-15 39.5707 -27.4564)
(-5.56257e-15 35.1225 -25.4768)
(-5.43018e-15 31.4504 -24.9994)
(-5.22236e-15 30.0032 -25.6221)
(-5.02787e-15 28.0454 -27.2319)
(-4.97796e-15 22.3308 -28.867)
(-5.08131e-15 14.0772 -28.6089)
(-5.30063e-15 5.58977 -24.8505)
(-5.39229e-15 2.36551 -22.0421)
(-4.62694e-15 4.86874 -31.1389)
(-3.42297e-15 6.76912 -45.5987)
(-2.22473e-15 6.66838 -57.9893)
(-1.24057e-15 4.74128 -62.4683)
(-3.93838e-16 3.38436 -59.1002)
(9.6498e-17 -4.62537 -43.44)
(3.40324e-17 -19.4349 -22.6344)
(-5.40666e-17 -12.0237 -26.2413)