/*--------------------------------*- C++ -*----------------------------------*\
| =========                 |                                                 |
| \\      /  F ield         | OpenFOAM: The Open Source CFD Toolbox           |
|  \\    /   O peration     | Version:  4.1                                   |
|   \\  /    A nd           | Web:      www.OpenFOAM.org                      |
|    \\/     M anipulation  |                                                 |
\*---------------------------------------------------------------------------*/
FoamFile
{
    version     2.0;
    format      ascii;
    class       volScalarField;
    location    "23";
    object      p;
}
// * * * * * * * * * * * * * * * * * * * * * * * * * * * * * * * * * * * * * //

dimensions      [0 2 -2 0 0 0 0];

internalField   nonuniform List<scalar> 
6785
(
4555.61
4491.54
4440.51
4391.11
4345.28
4302.27
4261.93
4224.04
4188.41
4154.41
4121.52
4091.16
4063.33
4029.41
3993.81
4026.91
4009.39
4012.3
4008.23
4005.05
4001.82
3998.98
3996.77
3995.41
3995
3995.44
3997.13
4000.76
4004.58
4005.67
3979.83
3974.12
3984.01
3983.74
3987.46
3990.23
3993.18
3995.95
3998.5
4000.8
4002.79
4004.54
4006
4007.29
4007.94
4029.41
4026.43
4031.07
4026.92
4026.93
4024.84
4023.09
4021.04
4018.97
4016.93
4015.31
4014.24
4013.26
4012.38
4011.9
4012.99
4009.69
4011.47
4007.22
4007.4
4005.35
4004.21
4002.97
4001.94
4001.1
4000.59
4000.18
3999.41
3998.67
3998.73
3994.1
3991.69
3993.51
3990.72
3991.95
3990.89
3990.86
3990.63
3990.48
3990.38
3990.38
3990.4
3990.24
3990.28
3990.98
3993.53
3992.49
3994.41
3992.57
3993.98
3993.3
3993.54
3993.52
3993.5
3993.48
3993.5
3993.54
3993.69
3993.97
3994.74
3999.74
3999.7
4001.42
4000.21
4001.63
4001.29
4001.81
4002.07
4002.38
4002.71
4003.07
4003.43
4003.88
4004.29
4005
4006.96
4007.43
4008.82
4008
4009.32
4009.15
4009.79
4010.16
4010.6
4011.04
4011.49
4011.91
4012.39
4012.75
4013.25
4011.82
4012.75
4013.97
4013.46
4014.72
4014.68
4015.35
4015.73
4016.12
4016.52
4016.94
4017.31
4017.75
4018.06
4018.54
4021.29
4022.19
4023.01
4022.45
4023.38
4023.16
4023.6
4023.71
4023.95
4024.12
4024.31
4024.47
4024.72
4024.87
4025.23
4018.39
4020.25
4021.32
4021.34
4022.57
4022.81
4023.61
4024.17
4024.89
4025.48
4026.07
4026.68
4027.36
4027.88
4028.59
4051.53
4051.39
4051.04
4050.24
4050.51
4050.1
4050.1
4049.22
4048.52
4047.74
4046.94
4045.98
4045.11
4044.82
4044.54
3975.65
3979.73
3985.13
3988.71
3993.09
3995.86
3998.31
3999.79
4001.11
4002.09
4003.31
4005.32
4008.43
4012.97
4016.58
4120.15
4126.64
4122.98
4119.03
4113.32
4104.57
4095.43
4085.06
4076.92
4071
4074.55
4086.83
4093.29
4094.4
4096.38
4177.57
4178.45
4177.96
4176.98
4177.98
4172.96
4170.71
4169.25
4171.18
4163.77
4159.87
4163.59
4156.54
4149.03
4147.25
4151.65
4142.16
4134.29
4141.68
4134.51
4122.74
4120.2
4127.57
4121.66
4108.23
4106.14
4113.43
4104.72
4093.28
4103.5
4098.68
4084.61
4081.79
4089.53
4084.14
4072.17
4081.73
4081.34
4069.28
4065.16
4072.08
4074.29
4063.67
4059.81
4065.48
4066.94
4058.04
4063.16
4066.88
4061.24
4056.51
4059.2
4063.89
4060.08
4055.37
4057.12
4062.34
4058.15
4057.83
4063.1
4063.77
4059.44
4058.96
4065.22
4064.93
4062.6
4068.34
4071.67
4069.03
4067.6
4072.74
4076.47
4074.49
4072.71
4075.66
4081.35
4077.83
4080.55
4085.29
4082.83
4081.08
4079.46
4078.02
4071.69
4080.98
4076.61
4073.69
4072.09
4069.77
4066.98
4064.77
4061.76
4048.68
4050.22
4041.12
4037.49
4034.17
4027.62
4022.49
4020.53
4008.94
4008.69
3959.93
3935.29
3933.82
3924.28
3915.11
3905.87
3894.78
3887.4
3876.21
3845.74
3874.56
3843.98
3842.83
3840.92
3834.26
3828.39
3824
3815.3
3785.95
3840.03
3803.7
3799.68
3798.37
3790.58
3782.94
3778.99
3768.34
3720.5
3783.49
3734.77
3726.73
3725.71
3712.11
3697.59
3689.4
3673.38
3611.33
3665.64
3589.19
3571.81
3569.35
3550.77
3530.62
3510.54
3497.58
3472.63
3379.97
3438.24
3319.64
3297.57
3294.53
3270.64
3242.36
3224.9
3183.86
3074.4
3109.5
2946.25
2782.34
3052.33
3462.08
3030.08
2922.98
2976.72
2930.66
3377.98
3019.73
2691.41
3349.25
2918.2
2699.33
2795.27
2673.42
3401.82
2789.29
2492.41
2640.72
2481.6
3387.73
2746.69
1995.27
3339.54
2583.45
2022.96
2288.39
2032.58
3451.65
2370.07
1690.79
2040.53
1743.06
3396.52
2331.17
943.047
3268.16
2111.12
1073.75
1570.46
1163.76
3456.19
1832.7
682.006
1272.42
841.951
3347.32
1822.46
-234.967
3098.65
1546.69
78.7463
748.285
255.865
3323.41
1213.71
-274.847
441.459
-15.4188
3084.04
1214.17
-1181.29
2656.97
870.342
-710.285
-56.4028
-496.951
2764.73
480.802
-1023.89
-388.483
-778.05
2256.47
342.916
-1945.68
1635.61
-124.646
-1600.97
-1145.88
-1368.64
-5.62503
3.5892
4.8814
13.2399
18.2641
24.6421
29.5339
34.8828
40.1876
45.116
48.1322
49.2562
50.426
54.0373
59.8289
65.2846
64.7154
62.1695
62.517
60.2515
59.5734
58.2812
53.8957
49.2279
45.5384
42.8333
36.5611
29.5463
18.7265
7.19153
-0.0948968
-0.610087
9.90416
-9.33379
-4.27445
-6.55357
9.71366
15.8814
17.8833
16.2776
5.62335
7.50915
6.36428
5.20131
1.22634
0.0275731
-33.272
-24.0266
-23.6403
-8.41686
-12.0379
-18.9574
-22.3779
-21.4175
-14.561
-6.4766
-12.4844
-2.97912
-23.2309
131.899
223.616
-18.4114
-31.0148
-21.6983
-11.1456
-2.89789
4.29962
10.5697
15.8238
19.6234
22.4146
23.638
26.6405
27.9143
32.6613
36.8849
41.097
34.8166
41.0507
-11.3978
5.97174
12.5066
30.2009
43.1391
58.6388
71.635
85.8587
100.29
113.63
122.367
127.252
133.971
144.149
157.387
164.026
160.89
160.004
159.605
155.785
151.745
148.35
139.297
127.364
117.855
110.632
95.0663
77.5422
50.1272
21.9435
8.41255
8.50905
25.0542
-8.19129
-14.1499
-31.3165
10.4052
19.8505
38.9052
54.1193
14.8356
21.1677
14.4767
10.1185
2.6875
-1.62053
-49.0467
-43.8421
-32.5885
-22.6898
-43.1522
-61.5158
-68.4862
-62.7011
-43.7427
-38.7727
-31.3575
12.0754
-44.6175
100.154
281.912
-84.8172
-67.4123
-33.2122
-4.99711
14.9564
30.4467
42.765
52.6623
59.9505
66.0905
68.3184
72.7266
70.1989
75.8191
76.4197
75.5004
65.0072
39.351
-9.10736
11.9904
21.4988
42.013
58.3798
77.3842
94.1561
112.062
129.764
145.936
157.574
165.714
175.556
187.579
200.931
206.856
204.16
204.631
203.386
199.417
193.624
188.817
178.459
164.956
153.001
143.065
124.79
104.22
73.4556
42.8523
26.2088
22.1357
34.3143
6.06311
-13.5513
-36.4542
22.8898
42.329
66.5551
80.5914
29.0267
38.1489
22.6953
12.8075
3.97387
-4.08035
-49.3337
-94.8715
-68.4045
-39.5463
-69.0285
-101.296
-114.694
-101.185
-69.2807
-60.3699
-44.4213
-36.7268
-80.6436
-153.29
145.38
-78.5337
-35.786
-3.60543
26.9457
49.6736
67.3194
81.1671
92.255
100.306
108.151
112.094
120.733
120.022
129.973
130.173
135.919
128.357
158.861
-6.81204
18.7643
30.7726
54.3057
73.8575
96.0235
116.13
137.014
157.159
175.398
189.478
200.377
212.126
224.932
237.49
243.724
242.103
242.54
240.455
236.2
229.469
223.451
211.959
197.834
184.132
171.934
152.068
129.75
96.9063
64.8916
44.3831
36.1803
42.5678
20.3312
-11.3185
-41.3366
31.0799
57.8854
89.7443
103.57
49.7046
48.0014
32.3256
17.3479
6.2457
-6.76251
-48.4913
-130.652
-92.9534
-55.377
-95.2792
-140.621
-163.703
-138.28
-92.5092
-80.9295
-49.9543
-60.7234
-123.062
-328.984
46.5734
-71.4736
-10.4045
20.7823
54.4011
80.6805
101.314
117.432
130.375
139.802
149.842
154.909
166.088
164.807
177.478
176.224
185.85
180.506
176.724
-6.04353
24.6626
39.811
67.7401
91.4312
117.898
142.208
167.07
190.824
212.253
229.335
243.019
257.043
271.541
284.838
291.896
290.772
291.126
288.3
283.443
275.511
268.162
254.828
238.92
222.832
208.035
185.296
159.842
122.535
86.1556
60.9143
50.1887
51.9399
33.0834
-4.79741
-41.2554
40.6308
75.2878
110.78
123.564
64.9988
55.2972
41.0912
22.8564
9.16719
-9.58174
-45.2865
-157.428
-117.077
-70.8184
-118.762
-176.962
-213.231
-174.113
-112.174
-98.7492
-58.7201
-106.524
-169.701
-476.423
-21.1245
-79.2355
1.37495
38.353
77.9773
109.28
133.758
152.712
167.894
178.843
190.641
196.707
210.719
209.649
225.378
223.145
238.089
236.421
312.395
-5.10083
30.3401
48.9469
81.2115
109.07
139.857
168.384
197.319
224.819
249.558
269.633
286.08
302.598
319.069
333.462
341.118
340.261
340.863
337.382
331.932
322.611
313.924
298.701
280.707
262.101
244.703
218.927
190.148
148.557
107.649
77.5818
64.4309
62.2949
46.0296
4.11933
-38.9289
49.6077
91.4122
129.43
140.455
80.9047
65.8947
50.0778
28.3864
12.2959
-12.4964
-38.0847
-170.859
-135.559
-84.8104
-139.389
-209.198
-263.243
-209.885
-129.227
-112.147
-60.4338
-149.688
-223.004
-628.188
-88.7412
-86.4897
13.4087
57.1173
102.655
138.726
166.699
188.139
205.221
217.354
230.737
237.598
253.947
252.561
270.986
267.71
287.777
281.587
329.742
-3.73807
36.1231
58.2774
94.5582
126.385
161.184
193.665
226.38
257.3
285.027
307.852
326.919
345.764
363.983
379.205
387.307
386.746
387.592
383.47
377.503
366.887
356.959
340.05
320.217
299.322
279.541
251.183
219.562
174.641
129.877
95.1924
79.0616
73.1622
59.094
14.7018
-34.1727
58.9511
107.407
145.989
154.817
97.0589
77.4652
59.0073
33.5856
15.3766
-15.4153
-28.1611
-175.327
-150.246
-97.3138
-155.842
-234.766
-312.637
-246.831
-144.836
-123.271
-71.9709
-197.49
-274.813
-751.528
-150.013
-91.3501
25.7011
76.403
127.65
168.332
199.596
223.307
242.1
255.275
270.042
277.568
296.142
294.474
315.551
311.325
337.697
350.024
393.086
-2.3057
41.8939
67.733
108.034
143.852
182.619
219.003
255.405
289.644
320.264
345.747
367.329
388.365
408.223
424.216
432.792
432.522
433.502
428.75
422.277
410.463
399.354
380.823
359.247
336.183
314.146
283.402
249.12
201.243
152.683
113.7
94.3132
84.6215
71.8309
25.8511
-27.5089
68.5665
122.884
160.629
167.462
111.487
85.7329
66.0189
38.1139
18.2552
-18.2116
-17.2974
-173.751
-161.298
-108.219
-167.653
-252.057
-358.367
-286.611
-161.467
-133.521
-101.85
-243.703
-324.627
-832.91
-197.762
-95.7617
36.1542
94.9602
152.168
197.578
232.126
258.052
278.484
292.6
308.595
316.669
337.222
335.075
358.687
353.496
386.424
401.086
511.5
-0.811269
47.6283
77.323
121.708
161.587
204.355
244.66
284.75
322.317
355.833
383.944
407.979
431.173
452.687
469.532
478.602
478.574
479.666
474.322
467.331
454.335
442.064
421.899
398.545
373.332
349.099
316.005
279.059
228.407
175.964
133.079
110.398
96.9732
84.447
37.1604
-18.9706
78.7526
137.966
173.648
178.269
124.142
91.9609
70.32
41.465
20.7119
-20.8404
-6.77427
-169.692
-170.09
-117.913
-174.743
-260.144
-394.927
-331.076
-181.808
-136.329
-147.425
-290.148
-367.187
-872.195
-231.703
-98.8258
45.3464
113.106
176.408
226.602
264.385
292.431
314.39
329.317
346.381
354.912
377.284
374.563
400.67
394.63
434.377
445.605
545.408
0.841907
53.3813
87.0876
135.548
179.498
226.247
270.436
314.172
355.018
391.381
422.055
448.477
473.794
496.961
514.684
524.221
524.396
525.608
519.709
512.2
498.03
484.615
462.833
437.699
410.375
384.027
348.683
309.162
256.012
199.796
153.421
127.492
110.403
97.3774
48.5473
-8.43266
89.6691
152.61
185.255
187.504
135.628
98.5324
72.4012
43.1626
22.3637
-23.3373
2.46802
-165.374
-177.724
-127.083
-177.727
-258.713
-417.815
-383.869
-208.082
-127.33
-187.164
-331.928
-401.525
-868.254
-252.761
-99.6639
53.7879
131.024
200.435
255.43
296.376
326.432
349.792
365.416
383.417
392.332
416.335
412.907
441.484
434.707
482.063
510.934
619.136
2.66974
59.1813
97.0421
149.551
197.575
248.265
296.286
343.602
387.648
426.779
459.936
488.674
516.058
540.842
559.424
569.4
569.752
571.072
564.643
556.624
541.305
526.772
503.414
476.544
447.172
418.8
381.346
339.411
284.04
224.282
174.738
145.788
125.052
111.012
60.4246
4.46441
101.517
166.842
195.713
195.426
144.689
105.043
73.759
43.6513
23.0127
-25.7166
9.83618
-161.962
-185.305
-136.768
-177.593
-247.599
-431.65
-442.948
-239.195
-125.798
-213.804
-364.456
-427.722
-822.631
-262.379
-98.2703
61.4246
148.619
224.161
283.997
328.049
360.029
384.674
400.893
419.709
428.942
454.408
450.165
481.22
473.792
529.145
566.407
727.574
4.66909
65.0434
107.193
163.744
215.855
270.462
322.276
373.114
420.29
462.12
497.693
528.682
558.08
584.444
603.87
614.265
614.774
616.182
609.242
600.72
584.277
568.646
543.757
515.198
483.841
453.521
414.085
369.893
312.489
249.487
196.853
165.468
141.04
125.97
73.6843
20.1145
114.455
180.684
205.183
201.896
152.832
110.213
75.2482
43.8556
22.8005
-27.9638
15.5063
-159.939
-193.678
-148.265
-175.835
-227.237
-419.939
-481.441
-272.241
-149.612
-237.423
-388.24
-447.597
-741.381
-262.976
-94.8537
68.2023
165.841
247.554
312.284
359.39
393.219
419.029
435.747
455.269
464.76
491.513
486.35
519.912
511.968
575.957
623.302
759.855
6.85094
70.9895
117.553
178.147
234.356
292.862
348.432
402.741
452.981
497.447
535.376
568.561
599.925
627.841
648.1
658.894
659.541
661.024
653.591
644.566
627.014
610.304
583.926
553.715
520.439
488.246
446.943
400.64
341.341
275.45
219.526
186.602
158.454
142.901
89.3178
38.8188
128.623
194.178
213.823
207.24
160.22
113.842
76.3601
43.9523
21.8377
-29.9781
19.7171
-159.559
-203.502
-163.062
-175.033
-200.997
-373.412
-481.793
-302.895
-191.004
-266.344
-408.058
-464.118
-632.918
-257.519
-89.7845
74.1195
182.685
270.619
340.305
390.407
426.004
452.857
469.976
490.108
499.792
527.653
521.489
557.605
549.312
622.329
678.589
881.593
9.22272
77.0449
128.135
192.774
253.084
315.471
374.756
432.481
485.714
532.75
572.974
608.305
641.59
671.028
692.103
703.272
704.039
705.585
697.672
688.14
669.494
651.72
623.9
592.078
556.957
522.973
479.917
431.651
370.599
302.194
242.698
209.006
177.383
162.126
108.054
60.6594
144.115
207.372
221.725
211.658
165.846
116.76
76.7857
43.5404
20.0331
-31.6849
22.6649
-161.05
-215.286
-182.716
-178.689
-175.742
-321.388
-472.726
-331.195
-235.147
-300.997
-427.06
-480.517
-506.131
-249.112
-83.6998
79.2012
199.18
293.399
368.089
421.125
458.384
486.161
503.584
524.234
534.038
562.821
555.599
594.334
585.988
668.246
722.41
909.554
11.7807
83.2342
138.949
207.641
272.053
338.303
401.259
462.342
518.492
568.03
610.493
647.92
683.081
714.009
735.875
747.392
748.257
749.852
741.468
731.422
711.7
692.875
663.663
630.281
593.392
557.705
513.009
462.931
400.295
329.714
266.619
232.257
197.852
183.588
130.207
85.491
160.969
220.32
229.04
215.141
169.982
119.602
76.612
42.286
17.2858
-33.1344
24.4876
-164.569
-229.521
-208.774
-190.406
-157.466
-286.578
-466.578
-357.323
-279.86
-341.011
-447.007
-499.563
-369.748
-240.85
-77.4036
83.537
215.444
316.004
395.703
451.59
490.37
518.943
536.571
557.648
567.484
596.998
588.705
630.132
622.079
714.638
791.393
965.374
14.5129
89.5812
150.001
222.762
291.274
361.374
427.954
492.336
551.327
603.3
647.947
687.428
724.42
756.804
779.431
791.264
792.199
793.825
784.977
774.406
753.633
733.771
703.216
668.328
629.75
592.444
546.23
494.488
430.47
358.018
291.658
256.046
219.773
206.999
155.657
113.043
179.168
233.077
235.864
217.742
173.409
122.386
75.6415
40.1034
13.6362
-34.0411
25.4056
-170.186
-246.712
-242.702
-213.594
-152.113
-268.959
-462.146
-379.493
-322.634
-384.067
-468.498
-522.728
-232.977
-235.636
-71.7133
87.2832
231.685
338.605
423.259
481.857
521.974
551.208
568.937
590.345
600.11
630.16
620.832
665.028
657.622
760.834
843.717
1080.24
17.4008
96.1097
161.294
238.151
310.756
384.694
454.851
522.471
584.227
638.568
685.351
726.848
765.626
799.43
822.779
834.89
835.859
837.497
828.183
817.082
795.284
774.399
742.55
706.215
666.026
627.178
579.58
526.329
461.149
387.176
318.012
280.509
242.994
231.919
183.968
143.005
198.655
245.697
242.302
219.78
176.555
125.193
73.7874
36.9982
9.13527
-33.9791
25.5343
-177.948
-267.238
-285.75
-251.38
-164.53
-265.136
-460.788
-399.33
-360.058
-427.47
-491.292
-550.13
-107.238
-235.904
-67.3179
90.7195
248.168
361.406
450.894
511.967
553.218
582.96
600.679
622.309
631.883
662.277
652.012
699.06
692.848
806.901
889.014
1121.17
20.419
102.844
172.833
253.819
330.506
408.271
481.954
552.752
617.193
673.838
722.714
766.192
806.712
841.893
865.917
878.259
879.217
880.843
871.059
859.428
836.635
814.733
781.641
743.927
702.197
661.883
613.045
558.455
492.328
417.259
345.655
306.04
267.452
257.841
214.387
174.997
219.344
258.236
248.484
221.459
179.354
127.591
71.4529
33.1483
3.79638
-32.9377
24.6408
-187.822
-291.255
-338.653
-306.327
-197.913
-273.928
-464.301
-417.278
-390.396
-469.686
-515.916
-580.842
-6.70604
-243.421
-64.6395
94.3512
265.237
384.656
478.753
541.968
584.128
614.202
631.789
653.514
662.765
693.32
682.286
732.272
727.862
853.463
955.59
1178.65
23.5379
109.807
184.622
269.78
350.535
432.118
509.272
583.183
650.231
709.116
760.044
805.477
847.691
884.194
908.832
921.348
922.243
923.837
913.578
901.42
877.664
854.747
820.46
781.438
738.242
696.535
646.594
590.863
523.993
448.252
374.471
332.861
293.287
284.408
245.987
208.455
241.104
270.754
254.556
222.98
181.834
129.65
69.4157
28.837
-2.32322
-30.5255
22.4433
-199.637
-318.665
-401.214
-379.892
-253.455
-294.925
-473.795
-433.72
-415.047
-509.499
-544.439
-613.552
56.0416
-259.157
-63.7141
98.9474
283.364
408.667
506.979
571.932
614.74
644.94
662.25
683.921
692.709
723.266
711.706
764.718
762.734
900.274
1013.19
1279.32
26.7263
117.024
196.664
286.048
370.852
456.246
536.813
613.772
683.347
744.409
797.355
844.721
888.578
926.328
951.505
964.124
964.907
966.452
955.719
943.044
918.349
894.426
858.98
818.722
774.137
731.112
680.193
623.529
556.139
480.075
404.505
360.924
320.72
311.507
277.901
242.66
263.748
283.321
260.688
224.537
184.277
131.858
67.864
24.0871
-9.12865
-26.1363
18.7159
-212.965
-349.045
-472.242
-471.903
-330.356
-327.522
-489.64
-451.013
-436.347
-543.183
-577.391
-647.858
77.0024
-283.561
-64.2011
105.489
303.14
433.784
535.723
601.956
645.087
675.17
692.036
713.483
721.672
752.105
740.334
796.468
797.607
947.581
1072.52
1321.96
29.9549
124.515
208.962
302.637
391.467
480.664
564.582
644.523
716.545
779.725
834.656
883.942
929.384
968.281
993.904
1006.54
1007.18
1008.66
997.468
984.291
958.681
933.766
897.185
855.758
809.863
765.597
713.813
656.418
588.765
512.643
436.045
390.127
349.867
339.514
309.947
276.989
287.108
296.013
267.072
226.366
186.954
134.535
66.9134
19.165
-16.3835
-19.3881
13.4302
-227.095
-381.629
-549.662
-579.997
-426.155
-370.905
-511.464
-472.09
-455.361
-566.12
-610.055
-682.653
58.94
-317.555
-65.5017
115.066
325.206
460.324
565.149
632.123
675.194
704.881
721.107
742.145
749.616
779.85
768.245
827.605
832.582
995.348
1132.49
1423.33
33.1981
132.304
221.521
319.561
412.39
505.384
592.585
675.441
749.832
815.076
871.956
923.144
970.11
1010.03
1035.99
1048.56
1049.02
1050.46
1038.82
1025.16
998.666
972.776
935.083
892.536
845.396
799.965
747.429
689.492
621.856
545.924
469.238
420.501
380.696
368.888
342.68
311.253
311.17
308.929
273.916
228.702
190.145
138.028
66.9323
14.6288
-23.7249
-9.11947
7.05958
-241.181
-415.244
-630.41
-698.874
-536.192
-423.433
-538.162
-499.383
-474.142
-578.512
-636.024
-714.839
2.81592
-362.804
-66.8039
128.716
350.184
488.561
595.396
662.475
705.056
734.037
749.411
769.847
776.519
806.537
795.525
858.234
867.856
1043.53
1181.36
1470.87
36.4359
140.41
234.348
336.836
433.632
530.415
620.83
706.529
783.216
850.48
909.272
962.323
1010.75
1051.54
1077.72
1090.14
1090.41
1091.82
1079.79
1065.67
1038.32
1011.47
972.693
929.062
880.718
834.176
780.996
722.7
655.36
579.92
503.82
452.373
413.147
399.826
376.496
345.645
336.063
322.188
281.426
231.776
194.095
142.627
68.1987
11.0058
-30.3954
5.05587
0.171894
-254.3
-448.308
-710.486
-821.111
-654.064
-481.811
-567.981
-533.396
-497.933
-585.403
-655.041
-743.035
-91.1931
-419.855
-67.2072
147.115
378.462
518.673
626.504
692.988
734.621
762.573
776.881
796.536
802.381
832.229
822.265
888.471
903.549
1092.85
1253.29
1530.53
39.6545
148.852
247.448
354.479
455.203
555.769
649.321
737.791
816.701
885.95
946.613
1001.47
1051.27
1092.79
1119.06
1131.25
1131.34
1132.74
1120.36
1105.83
1077.67
1049.87
1010.05
965.355
915.823
868.183
814.424
755.936
689.156
614.56
539.427
486.221
447.184
432.691
411.641
380.283
361.868
336.041
289.784
235.791
198.965
148.576
71.0505
8.94208
-34.9858
22.6354
-6.58599
-265.568
-478.957
-785.242
-938.78
-772.454
-541.104
-599.363
-573.487
-530.575
-592.898
-673.022
-770.513
-219.883
-485.996
-66.414
170.208
409.916
550.615
658.394
723.567
763.794
790.398
803.447
822.188
827.229
857.014
848.563
918.445
939.707
1142.96
1312.44
1637.64
42.8456
157.645
260.83
372.509
477.118
581.457
678.068
769.228
850.291
921.493
983.979
1040.57
1091.61
1133.73
1159.99
1171.88
1171.8
1173.24
1160.56
1145.64
1116.72
1087.98
1047.16
1001.44
950.726
901.969
847.619
789.041
723.04
649.637
575.855
522.033
482.735
467.596
448.033
415.151
388.4
350.986
299.13
240.856
204.872
156.019
75.6844
8.91341
-36.3323
43.8927
-12.1557
-274.13
-505.136
-849.608
-1044.48
-883.394
-596.644
-630.648
-618.076
-571.113
-609.482
-696.742
-803.133
-378.4
-556.662
-65.0259
197.118
443.962
584.122
690.889
754.071
792.453
817.415
829.049
846.807
851.11
880.994
874.519
948.3
976.557
1193.88
1365.78
1695.56
46.0056
166.8
274.503
390.944
499.389
607.492
707.082
800.841
883.99
957.109
1021.37
1079.58
1131.75
1174.34
1200.48
1212.07
1211.84
1213.34
1200.41
1185.14
1155.49
1125.84
1084.06
1037.35
985.458
935.554
880.547
821.867
756.757
684.832
612.839
559.192
519.53
504.085
485.17
450.094
415.472
367.588
309.584
246.973
211.912
164.982
82.1154
11.0367
-34.171
68.2991
-15.6824
-279.139
-524.862
-898.783
-1132.2
-979.119
-645.098
-659.902
-663.232
-617.439
-644.169
-730.23
-846.205
-561.558
-628.49
-63.9436
226.493
479.744
618.727
723.754
784.347
820.487
843.542
853.648
870.411
874.086
904.283
900.233
978.191
1014.21
1246.12
1436.86
1763.24
49.1344
176.327
288.474
409.806
522.033
633.89
736.379
832.638
917.808
992.806
1058.78
1118.48
1171.64
1214.58
1240.54
1251.8
1251.47
1253.08
1239.92
1224.35
1193.99
1163.43
1120.73
1073.08
1020.04
968.981
913.252
854.382
790.115
719.823
649.92
596.983
557.119
541.62
522.733
484.972
443.024
386.141
321.399
254.085
220.124
175.356
90.6294
15.3983
-28.6512
94.1764
-16.7746
-279.968
-536.701
-929.397
-1196.26
-1052.82
-684.201
-685.381
-705.628
-667.893
-697.724
-774.548
-903.625
-763.691
-700.18
-63.7124
257.173
516.441
653.863
756.719
814.241
847.806
868.729
877.241
893.031
896.227
926.995
925.809
1008.28
1052.73
1299.54
1501.49
1866.23
52.2335
186.232
302.751
429.116
545.066
660.669
765.964
864.636
951.768
1028.59
1096.19
1157.25
1211.24
1254.43
1280.17
1291.12
1290.75
1292.5
1279.14
1263.29
1232.24
1200.78
1157.17
1108.63
1054.48
1002.27
945.801
886.655
823.088
754.41
686.668
634.865
595.129
579.927
560.525
519.775
471.016
406.69
335.072
262.123
229.497
187.071
101.688
21.6775
-19.9381
120.101
-15.5049
-276.388
-540.21
-939.651
-1232.94
-1100.59
-712.519
-704.712
-744.985
-719.557
-763.53
-828.853
-978.162
-978.875
-771.607
-64.3127
288.537
553.542
689.141
789.535
843.607
874.339
892.954
899.847
914.705
917.614
949.252
951.36
1038.73
1092.24
1354.31
1567.51
1928.59
55.3013
196.52
317.339
448.898
568.503
687.847
795.847
896.861
985.883
1064.47
1133.57
1195.82
1250.54
1293.91
1319.4
1330.06
1329.71
1331.64
1318.1
1301.98
1270.26
1237.9
1193.37
1143.97
1088.75
1035.42
978.201
918.743
855.747
788.564
722.913
672.519
633.38
618.894
598.483
554.419
499.403
429.051
351.154
271.029
239.955
200.146
115.413
29.8713
-7.97484
145.02
-12.2154
-268.628
-536.126
-929.639
-1242.41
-1121.86
-729.835
-717.482
-780.256
-769.41
-834.858
-890.915
-1071.13
-1202.64
-842.729
-65.3542
320.34
590.772
724.389
822.023
872.327
900.028
916.21
921.502
935.478
938.346
971.184
977.012
1069.72
1132.85
1410.47
1635.58
2028.59
58.328
207.196
332.241
469.174
592.365
715.424
826.035
929.328
1020.16
1100.4
1170.87
1234.17
1289.52
1333.03
1358.28
1368.68
1368.39
1370.52
1356.85
1340.45
1308.08
1274.79
1229.34
1179.08
1122.81
1068.36
1010.4
950.618
888.119
822.318
758.666
709.815
671.772
658.394
636.671
588.801
528.015
452.973
369.822
280.911
251.384
214.535
131.86
40.7215
7.71391
168.109
-7.41824
-257.455
-526.272
-901.878
-1227.29
-1118.34
-736.996
-726.083
-809.064
-815.255
-904.733
-957.843
-1181.74
-1432.11
-912.763
-66.2107
352.576
627.968
759.489
854.048
900.313
924.83
938.504
942.248
955.41
958.544
992.938
1002.92
1101.42
1174.72
1468.04
1695.12
2093.16
61.2897
218.269
347.458
489.97
616.675
743.369
856.516
962.028
1054.6
1136.37
1208.04
1272.28
1328.22
1371.83
1396.83
1407.02
1406.83
1409.17
1395.39
1378.74
1345.69
1311.47
1265.09
1213.96
1156.64
1101.06
1042.33
982.212
920.159
855.667
793.946
746.674
710.135
698.226
674.973
622.843
556.651
478.178
390.574
292.287
263.709
230.156
151.088
54.9142
27.531
188.714
-1.85732
-244.147
-513.304
-860.892
-1191.99
-1093.64
-735.304
-732.412
-830.753
-855.383
-965.933
-1027.11
-1306.75
-1663.74
-979.746
-66.0117
385.305
665.011
794.302
885.485
927.501
948.729
959.858
962.132
974.593
978.373
1014.7
1029.23
1133.97
1217.95
1527.49
1771.75
2165.69
64.1416
229.752
362.988
511.303
641.464
771.69
887.282
994.954
1089.19
1172.3
1245.04
1310.16
1366.66
1410.35
1435.11
1445.13
1445.1
1447.65
1433.77
1416.85
1383.13
1347.95
1300.62
1248.6
1190.21
1133.47
1073.95
1013.46
951.805
888.561
828.729
782.987
748.213
738.087
713.06
656.485
585.096
504.241
412.782
305.768
276.877
246.909
172.654
73.7806
51.5917
205.765
3.34246
-230.32
-500.067
-811.885
-1141.78
-1052.65
-726.42
-736.903
-846.281
-888.59
-1014.57
-1096.91
-1441.34
-1892.13
-1040.68
-63.7654
418.568
701.83
828.687
916.218
953.827
971.743
980.325
981.241
993.192
998.053
1036.67
1056.11
1167.45
1262.57
1588.62
1840.09
2270.86
66.8129
241.664
378.827
533.192
666.745
800.433
918.36
1028.11
1123.86
1208.16
1281.86
1347.85
1404.88
1448.61
1473.14
1483.05
1483.24
1485.98
1472
1454.81
1420.41
1384.25
1335.94
1283.02
1223.52
1165.57
1105.2
1044.33
983.009
920.948
862.97
818.668
785.756
777.599
750.516
689.561
613.125
530.79
435.999
321.581
290.861
264.423
195.619
97.4374
79.6946
218.099
6.9937
-217.708
-488.691
-759.388
-1081.91
-999.891
-712.64
-739.897
-857.761
-914.229
-1051.38
-1165.65
-1580.02
-2110.5
-1092.03
-58.529
452.458
738.41
862.543
946.186
979.299
993.929
1000.01
999.735
1011.46
1017.84
1059.05
1083.65
1201.92
1308.73
1651.42
1904.42
2340.18
69.2067
254.028
394.973
555.652
692.504
829.614
949.776
1061.49
1158.58
1243.88
1318.53
1385.39
1442.91
1486.63
1510.93
1520.81
1521.27
1524.19
1510.1
1492.62
1457.54
1420.37
1371.07
1317.21
1256.57
1197.36
1136.07
1074.76
1013.73
952.778
896.625
853.672
822.553
816.366
786.957
721.818
640.49
557.397
459.961
339.946
305.799
281.854
219.179
123.702
111.84
226.949
9.20918
-208.117
-479.932
-707.027
-1017.39
-939.751
-696.454
-742.085
-867.912
-932.519
-1079.44
-1231.18
-1716.93
-2311.56
-1130.21
-49.4855
487.12
774.664
895.785
975.367
1004.03
1015.43
1019.07
1017.86
1029.7
1037.99
1081.98
1111.92
1237.45
1356.53
1716.21
1981.13
2415.37
71.2032
266.87
411.431
578.709
718.737
859.215
981.537
1095.05
1193.26
1279.49
1355.09
1422.81
1480.76
1524.4
1548.49
1558.4
1559.21
1562.28
1548.05
1530.28
1494.5
1456.31
1406
1351.18
1289.36
1228.83
1166.53
1104.72
1043.91
983.993
929.642
887.973
858.464
854.056
822.072
753.052
667.032
583.649
484.572
360.858
321.673
298.29
242.833
151.803
149.53
234.029
11.1543
-203.904
-473.073
-657.787
-951.21
-876.868
-680.661
-746.938
-879.607
-944.428
-1099.4
-1290.14
-1846.71
-2488.33
-1152.09
-35.977
522.686
810.492
928.419
1003.83
1028.17
1036.42
1037.71
1035.87
1048.18
1058.7
1105.53
1140.95
1274.06
1406.04
1782.91
2053.76
2513.13
72.6661
280.215
428.218
602.395
745.461
889.232
1013.62
1128.71
1227.88
1314.99
1391.59
1460.12
1518.41
1561.92
1585.8
1595.82
1597.03
1600.25
1585.86
1567.77
1531.27
1492.05
1440.72
1384.92
1321.88
1259.97
1196.59
1134.19
1073.5
1014.52
961.936
921.524
893.516
890.414
855.683
783.182
692.803
609.19
509.566
384.236
338.97
313.595
265.537
180.494
191.27
239.536
13.3435
-208.818
-467.343
-614.212
-886.03
-815.986
-667.262
-758.008
-893.068
-952.16
-1108.98
-1338.77
-1965.49
-2634.94
-1155.29
-17.5218
559.253
845.955
960.564
1031.77
1051.87
1057.04
1056.15
1054.05
1067.16
1080.07
1129.73
1170.75
1311.82
1457.38
1851.55
2126.96
2582.5
73.4517
294.081
445.358
626.71
772.702
919.684
1045.98
1162.4
1262.4
1350.45
1428.05
1497.33
1555.87
1599.17
1622.86
1633.05
1634.71
1638.06
1623.5
1605.05
1567.83
1527.58
1475.23
1418.43
1354.14
1290.79
1226.23
1163.14
1102.46
1044.28
993.377
954.215
927.825
925.264
887.789
812.213
718.015
633.835
534.468
410.579
359.768
328.504
286.051
207.351
230.872
243.837
14.8325
-228.362
-463.431
-577.962
-826.461
-762.531
-658.479
-772.162
-903.34
-959.442
-1108.8
-1374.81
-2070.16
-2746.7
-1138.41
6.19589
596.914
881.252
992.411
1059.42
1075.31
1077.47
1074.67
1072.71
1086.84
1102.18
1154.59
1201.35
1350.77
1510.65
1922.11
2202.22
2673.01
73.4199
308.465
462.895
651.651
800.509
950.585
1078.55
1196.07
1296.86
1385.89
1464.48
1534.42
1593.09
1636.13
1659.65
1670.07
1672.22
1675.69
1660.93
1642.09
1604.15
1562.87
1509.51
1451.69
1386.12
1321.28
1255.45
1191.56
1130.74
1073.2
1023.82
985.877
961.392
958.654
918.495
840.167
742.877
657.739
558.798
438.91
386.126
344.927
304.803
232.477
263.911
246.39
12.9596
-267.95
-462.164
-550.037
-779.366
-719.041
-657.371
-784.738
-907.703
-965.496
-1101.89
-1398.01
-2156.73
-2820.03
-1100.92
35.3623
635.79
916.618
1024.2
1086.97
1098.64
1097.87
1093.56
1092.09
1107.33
1125.04
1180.12
1232.77
1391
1566.01
1994.54
2271.71
2740.96
72.4488
323.342
480.89
677.224
828.935
981.906
1111.26
1229.67
1331.3
1421.35
1500.88
1571.38
1630.08
1672.79
1696.16
1706.86
1709.54
1713.1
1698.14
1678.88
1640.21
1597.92
1543.55
1484.7
1417.81
1351.43
1284.25
1219.44
1158.32
1101.22
1053.18
1016.35
994.031
990.85
947.903
867.061
767.483
681.302
582.372
466.601
416.743
367.715
324.116
257.257
291.001
247.446
4.3566
-328.516
-463.062
-531.389
-747.918
-686.63
-664.59
-795.215
-908.81
-964.926
-1089.55
-1408.28
-2222.21
-2852.56
-1043.16
70.1047
676.02
952.303
1056.16
1114.59
1122.04
1118.53
1113.07
1112.34
1128.66
1148.62
1206.27
1265.03
1432.6
1623.59
2069.01
2352.07
2813.83
70.446
338.645
499.357
703.397
857.998
1013.57
1144.03
1263.24
1365.77
1456.85
1537.25
1608.18
1666.8
1709.12
1732.37
1743.42
1746.64
1750.26
1735.09
1715.37
1675.98
1632.7
1577.34
1517.44
1449.2
1381.23
1312.63
1246.78
1185.2
1128.35
1081.4
1045.54
1025.49
1021.98
976.083
892.947
791.839
704.833
605.301
493.257
445.159
400.364
346.621
282.539
314.128
247.161
-12.9188
-402.78
-465.071
-522.483
-728.758
-668.335
-679.149
-804.879
-909.137
-960.92
-1073.13
-1404.88
-2268.07