/*--------------------------------*- C++ -*----------------------------------*\
| =========                 |                                                 |
| \\      /  F ield         | OpenFOAM: The Open Source CFD Toolbox           |
|  \\    /   O peration     | Version:  4.1                                   |
|   \\  /    A nd           | Web:      www.OpenFOAM.org                      |
|    \\/     M anipulation  |                                                 |
\*---------------------------------------------------------------------------*/
FoamFile
{
    version     2.0;
    format      ascii;
    class       surfaceScalarField;
    location    "23";
    object      phi;
}
// * * * * * * * * * * * * * * * * * * * * * * * * * * * * * * * * * * * * * //

dimensions      [0 3 -1 0 0 0 0];

internalField   nonuniform List<scalar> 
13220
(
-890.468
2190.34
-1384.62
1794.33
-1843.02
1758.27
-2192.17
1649.03
-2457.32
1565.33
-2641.62
1484.18
-2746.32
1404.58
-2770.59
1324.45
-2713.01
1242.31
-2573.11
1159.98
-2355.95
1083.03
-2055.93
999.855
-1625.07
869.014
-1001.65
676.745
298.25
42.336
2147.95
31.2685
1805.34
-54.8551
1844.33
-107.517
1701.63
-162.252
1620
-199.251
1521.12
-218.035
1423.31
-215.227
1321.59
-190.714
1217.75
-145.9
1115.11
-86.2782
1023.37
-37.3431
950.851
-42.951
874.544
-70.4037
704.06
227.835
-131.342
2279.26
-326.083
2000.04
-521.354
2039.57
-657.894
1838.13
-785.956
1748.02
-882.13
1617.25
-957.959
1499.09
-1013.86
1377.45
-1037.82
1241.66
-982.583
1059.79
-781.02
821.732
-457.859
627.459
-187.532
603.878
-56.1724
572.039
171.662
-76.3748
2355.61
-206.174
2129.81
-315.215
2148.58
-392.411
1915.3
-474.974
1830.55
-537.198
1679.44
-594.609
1556.47
-644.274
1427.06
-680.672
1278
-659.379
1038.46
-490.356
652.638
-162.306
299.43
148.328
293.241
284.55
435.801
456.209
25.8051
2329.79
-65.4758
2221.08
-112.324
2195.42
-152.027
1954.99
-203.302
1881.81
-249.927
1726.05
-304.326
1610.85
-365.1
1487.84
-442.073
1354.97
-553.435
1149.8
-692.658
791.902
-761.461
368.061
-596.291
127.944
-257.239
96.5769
198.974
118.162
2211.64
49.0904
2290.16
44.5809
2199.93
44.269
1955.3
46.0158
1880.08
47.7067
1724.37
52.1498
1606.43
56.0529
1483.95
51.5923
1359.46
-0.323824
1201.77
-162.255
953.839
-393.348
599.445
-491.816
226.755
-385.257
-9.56234
-186.285
164.097
2047.55
140.757
2313.51
163.768
2176.93
195.259
1923.83
236.328
1839.02
275.451
1685.26
319.952
1561.94
368.277
1435.64
415.929
1311.82
440.135
1177.56
389.46
1004.54
220.722
768.074
-10.0245
457.31
-106.607
86.7851
-292.886
154.882
1892.68
157.906
2310.5
184.23
2150.63
218.978
1889.1
259.649
1798.37
300.264
1644.67
341.016
1521.21
384.757
1391.91
429.167
1267.42
463.58
1143.19
465.881
1002.24
405.295
828.827
270.289
592.542
75.3483
282.1
-217.538
122.725
1769.97
132.388
2300.85
146.359
2136.67
167.079
1868.4
192.107
1773.36
215.407
1621.38
237.215
1499.42
259.17
1369.97
283.282
1243.33
305.252
1121.22
314.053
993.461
293.508
849.331
229.324
656.711
113.651
397.752
-103.88
91.0699
1678.92
113.254
2278.69
124.043
2125.9
136.284
1856.17
158.652
1751.02
176.599
1603.46
194.133
1481.91
205.682
1358.44
211.938
1237.09
218.245
1114.95
221.418
990.305
211.378
859.468
175.434
692.772
101.072
472.592
-2.80438
57.9687
1620.97
101.794
2234.88
123.758
2103.96
139.406
1840.55
166.895
1723.55
196.365
1574
230.826
1447.46
266.813
1322.47
283.987
1219.94
286.019
1112.94
280.341
996.012
266.243
873.574
231.302
727.746
152.304
551.679
149.502
32.8102
1588.18
102.589
2165.12
155.849
2050.72
204.867
1791.55
257.835
1670.6
298.794
1533.06
336.385
1409.89
398.884
1259.99
444.296
1174.55
448.739
1108.53
410.065
1034.7
333.731
949.961
231.043
830.491
116.354
666.475
265.857
-22.7335
1610.93
64.4232
2077.98
127.415
1987.74
153.182
1765.8
171.802
1652
237.941
1466.93
372.106
1275.73
528.958
1103.15
666.061
1037.45
787.568
987.028
875.025
947.25
850.281
974.71
618.499
1062.28
334.662
950.329
600.518
-413.866
2024.81
-693.749
2357.86
-796.717
2090.72
-913.962
1883.05
-979.052
1717.1
-1025.17
1513.05
-1063.32
1313.89
-1122.31
1162.13
-1179.25
1094.4
-1229.41
1037.19
-1170.91
888.754
-969.701
773.501
-757.412
849.991
-561.383
754.292
39.1334
-739.514
-588.704
-320.321
-32.2621
459.193
970.787
1566.14
2009.58
2274.21
2018.21
1041
386.309
221.217
223.549
-8.09356e-05
-1235.45
1235.45
-1235.45
-1235.45
-1235.45
-2337.72
1102.27
-2337.72
-2337.72
-2337.72
-3235.92
898.199
-3235.92
-3235.92
-3971.99
736.062
-3971.99
-3971.99
-3971.99
-4546.22
574.232
-4546.22
-4546.22
-4973.2
426.98
-4973.2
-4973.2
-4973.2
-5261.49
288.293
-5261.49
-5261.49
-5261.49
-5393.49
131.996
-5393.49
-5393.49
-5391.68
-1.80359
-5391.68
-5391.68
-5391.68
-5258.38
-133.302
-5258.38
-5258.38
-5004.11
-254.272
-5004.11
-5004.11
-5004.11
-4647.81
-356.296
-4647.81
-4647.81
-4647.81
-4202.17
-445.639
-4202.17
-4202.17
-3680.79
-521.39
-3680.79
-3680.79
-3680.79
-3103.72
-577.063
-3103.72
-3103.72
-3103.72
-2480.72
-623.006
-2480.72
-2480.72
-1802.95
-677.762
-1802.95
-1802.95
-1802.95
-1097.61
-705.344
-1097.61
-1097.61
-362.807
-734.801
-362.807
-362.807
-362.807
355.132
-717.938
355.13
355.132
355.129
1037.3
-682.167
1037.29
1037.3
1725.14
-687.837
1725.15
1725.16
1756.51
1794.79
1846.93
2367.15
-478.88
2432.85
2546.08
2671.95
2807.17
2954.48
3110.6
3273.9
3448.33
3310.92
301.057
3512.19
3727.07
3936.11
4155
4384.9
4623.85
4931.73
5257.72
3508.69
2068.98
3909.09
4286.45
4630.52
4954.26
5257.53
5547.18
5808.38
6040.4
6247.44
6497.91
-43.9977
6693.91
6876.42
7026.69
7163.34
7288.45
7412.43
7534.23
7654.08
8979.02
-1169.22
9107.93
9250.72
9385.16
9518.88
9654.27
9786.58
9916.67
10082.9
11690.4
-1402.95
11872.4
12073.9
12243.2
12437.7
12657.6
12877.9
13101.2
13339.3
14994
-1381.04
15288.8
15619.2
15896.3
16178.4
16480.2
16797
17116.8
17444.3
17791.6
19371.8
-1219.46
19771.5
20216.9
20601.9
20996
21417.6
21850.8
22306.9
22792.5
24025.2
-752.417
24571.7
25195.4
25195.4
25793.8
-598.479
26379.6
-585.789
26379.6
27206.4
-826.795
27206.4
28173.8
-967.349
29094.4
-920.634
29094.4
30245.9
-1151.52
31349.3
-1103.35
31349.3
32673.1
-1323.87
32673.1
34142.8
-1469.64
35582.3
-1439.48
35582.3
37223.5
-1641.19
37223.5
38965.6
-1742.19
40618.9
-1653.26
40618.9
42434.5
-1815.62
44088.1
-1653.56
44088.1
45868.4
-1780.27
45868.4
47675.6
-1807.22
49286.7
-1611.1
49286.7
51033.5
-1746.81
51033.5
52815.1
-1781.58
54377.9
-1562.8
54377.9
56132.2
-1754.3
57619
-1486.85
57619
59274
-1654.95
59274
60965.9
-1691.93
62371.5
-1405.65
62371.5
63945.7
-1574.12
63945.7
65544.4
-1598.72
66801.7
-1257.32
66801.7
68288
-1486.31
69349.8
-1061.78
69349.8
70568.8
-1219.01
70568.8
71803.2
-1234.4
72562
-758.767
72562
73489.1
-927.117
73489.1
74429.8
-940.722
74825.3
-395.528
74825.3
75529
-703.632
75587.2
-58.1942
75587.2
75807.9
-220.777
75807.9
76067.2
-259.218
75667.4
399.743
75667.4
75513.1
154.334
75513.1
75464
49.0389
74825
639.085
74825
74684.2
140.755
73969.9
714.29
73969.9
73638
331.964
73638
144.919
-2925
15793.8
-3024.96
18853.5
-3060.1
20775.4
-3069.11
22712
-3042.98
24372.3
-2983.71
26051.8
-2896.13
27620.4
-2773.65
29258.1
-2610.18
30643.1
-2409.37
31633.1
-2192.21
32389.2
-1971.39
33625.7
-1723.94
35521.6
-1448.84
36984.1
-1132.67
37160.8
-835.466
35099.6
-569.974
34638.8
-280.013
37006.2
5.75907
37018.4
294.721
37167.4
569.165
35723.3
842.264
35647.1
1106.32
36001
1339.41
34599.6
1562.87
32680.6
1783.65
31705.9
1968.83
30367.5
2111.42
28738.7
2166.27
25800.5
2083.58
19866.3
1983.24
13068.8
2012.99
7277.5
2248.78
4496.8
2527.91
7536.12
2377.86
-1386.74
1782.2
-26738.3
1339.67
-34587.5
685.567
-33424.8
101.263
-30306.2
192.356
-23005
581.065
-15576.2
915.1
-9758.95
1091.26
-5906.84
1138.83
-2412.85
1202.95
-635.215
1084.18
-545.76
1548.47
6660.95
3294.91
-10474
4240.82
-33605.9
4262.74
-40375.4
4040.14
-34291
3869.62
-23994.8
3690.05
-13461.4
3589.08
-4752.66
3568.1
1279.67
3068.14
5237.55
3460.52
6822.8
4893.46
-6932.45
5095.95
-22531.6
4720.94
21708.6
4528.63
72301.6
4193.46
73520.2
3979.5
60333
3891.72
48695.4
3863.75
39445
3866.16
31558.7
3883.36
24426.3
3903.44
17706.9
3917.46
11165.5
3925.93
4774.49
3916.59
-1775.6
3837.72
-8382.14
3616.04
-15539
3214.76
-21109.2
2705.12
-26158.3
2200.29
-40158.9
1606.8
-62076.6
982.496
-75939.1
-91286.1
-2941.02
15894.2
-3037.67
18950.1
-3072.15
20809.9
-3077.24
22717
-3048.59
24343.7
-2986.73
25989.9
-2897.68
27531.4
-2773.39
29133.8
-2607.59
30477.3
-2404.46
31430
-2186.8
32171.6
-1967.17
33406
-1721.43
35275.9
-1447.18
36709.9
-1129.33
36843
-831.006
34801.3
-567.273
34375
-278.377
36717.3
6.90577
36733.1
295.005
36879.3
568.33
35449.9
842.011
35373.4
1106.63
35736.4
1338.46
34367.8
1560.64
32458.4
1783.7
31482.8
1972.06
30179.1
2121.01
28589.8
2184.12
25737.3
2104.75
19945.7
1988.38
13185.2
1972.88
7293
2215.67
4254.02
2609.03
7142.76
2652.84
-1430.54
2016.02
-26101.5
1605.12
-34176.6
1086.05
-32905.7
498.559
-29718.7
494.84
-23001.3
791.007
-15872.4
1054.07
-10022
1169.63
-6022.4
1308.28
-2551.5
1434.21
-761.141
1294.82
-406.374
1714.12
6241.65
3559.9
-12319.8
4336.64
-34382.7
4258.32
-40297.1
3997.88
-34030.6
3813.29
-23810.2
3557.66
-13205.7
3378.62
-4573.61
3411.51
1246.78
3121.05
5528.01
3820.12
6123.74
5334.98
-8447.32
5301.6
-22498.2
4720.33
22289.9
4574.06
72447.8
4212.53
73881.7
3976.22
60569.3
3883.97
48787.6
3856.73
39472.2
3859.37
31556.1
3876.23
24409.4
3895.55
17687.6
3907.98
11153.1
3911.96
4770.51
3882.15
-1745.8
3773.56
-8273.54
3535.06
-15300.5
3133.04
-20707.2
2654.15
-25679.4
2196.23
-39701
1622.2
-61502.6
910.3
-75227.2
-90043.9
-2960.3
15998.3
-3057.68
19047.5
-3088.86
20841.1
-3090.78
22719
-3058.27
24311.1
-2993.72
25925.4
-2902.26
27439.9
-2775.37
29006.9
-2606.38
30308.3
-2400.74
31224.4
-2182.66
31953.5
-1963.78
33187.1
-1719.34
35031.4
-1444.74
36435.2
-1125.21
36523.4
-826.673
34502.8
-564.08
34112.4
-276.008
36429.2
8.59139
36448.5
296.156
36591.7
568.74
35177.4
842.661
35099.5
1107.84
35471.2
1339.03
34136.6
1560.73
32236.7
1785.8
31257.8
1979.39
29985.5
2135.54
28433.6
2207.95
25664.9
2135.41
20018.2
2003.96
13316.6
1962.93
7334.02
2202.78
4014.17
2668.25
6677.29
2808.67
-1570.96
2174.67
-25467.5
1765.72
-33767.7
1318.84
-32458.9
772.19
-29172.1
756.82
-22985.9
1055.31
-16170.9
1361.93
-10328.6
1503.1
-6163.57
1603.48
-2651.88
1691.14
-848.809
1433.48
-148.709
1919.99
5755.15
3730.41
-14130.2
4400.56
-35052.8
4270.04
-40166.6
3983.13
-33743.6
3776.75
-23603.8
3464.98
-12894
3171.76
-4280.39
3167.63
1250.91
3085.28
5610.36
3979.78
5229.23
5532.44
-9999.97
5483.98
-22449.8
4753.76
23020.1
4585.89
72615.7
4227.88
74239.7
3971.86
60825.3
3874.1
48885.4
3846.97
39499.4
3849.9
31553.2
3866.54
24392.8
3885.1
17669
3895.68
11142.5
3893.32
4772.87
3850.54
-1703.02
3731.62
-8154.62
3491.95
-15060.9
3090.83
-20306.1
2626.64
-25215.3
2192.97
-39267.3
1634.88
-60944.5
974.208
-74566.6
-88355.4
-2985.92
16104.7
-3081.56
19143.1
-3109.19
20868.7
-3107.63
22717.4
-3071.14
24274.7
-3003.68
25857.9
-2909.34
27345.6
-2779.3
28876.9
-2606.81
30135.8
-2398.79
31016.3
-2180.29
31735
-1961.59
32968.5
-1717.7
34787.5
-1442.05
36159.6
-1121.24
36202.6
-822.723
34204.2
-560.692
33850.4
-273.408
36142
10.7925
36164.3
297.851
36304.7
570
34905.2
844.109
34825.4
1109.79
35205.5
1340.84
33905.5
1562.4
32015.1
1789.39
31030.8
1988.41
29786.5
2152
28270
2234.22
25582.7
2171.42
20081
2034.88
13453.2
1965.03
7403.87
2200.48
3778.72
2739.63
6138.13
2974.32
-1805.65
2366.87
-24860
1967.26
-33368.1
1586.67
-32078.3
1077.16
-28662.6
1015.73
-22924.5
1301.48
-16456.6
1632.6
-10659.8
1816.82
-6347.79
1896.88
-2731.93
1919.41
-871.341
1602.32
168.387
2187.61
5169.86
3915.38
-15858
4482.72
-35620.2
4286.03
-39969.9
3958.65
-33416.3
3716.66
-23361.8
3336.5
-12513.8
2932.15
-3876.04
2859.01
1324.05
2922.99
5546.38
4068.87
4083.35
5675.02
-11606.1
5590.93
-22365.7
4786.34
23824.7
4578.21
72823.8
4231.23
74586.7
3966.66
61089.9
3863.8
48988.3
3835.86
39527.3
3838.78
31550.3
3855.19
24376.4
3872.88
17651.3
3880.84
11134.5
3871.48
4782.23
3816.76
-1648.3
3687.52
-8025.37
3443.92
-14817.3
3042.32
-19904.5
2596.9
-24769.8
2193.69
-38864.1
1653.05
-60403.9
1020.26
-73933.8
-87194.3
-3017.47
16213.5
-3109.82
19235.5
-3133.73
20892.6
-3128.38
22712
-3087.81
24234.1
-3017.11
25787.2
-2919.52
27248
-2785.88
28743.3
-2609.61
29959.6
-2399.08
30805.8
-2179.91
31515.8
-1960.99
32749.5
-1717.03
34543.6
-1439.94
35882.5
-1117.71
35880.4
-819.031
33905.6
-557.323
33588.7
-270.502
35855.1
13.5239
35880.3
300.275
36017.9
572.185
34633.3
846.659
34550.9
1113.04
34939.2
1344.25
33674.3
1565.92
31793.5
1795.12
30801.6
1999.79
29581.8
2171.62
28098.2
2264.75
25489.6
2212.9
20132.9
2078.44
13587.6
1982.92
7499.39
2207.45
3554.2
2791.49
5554.09
3117.61
-2131.77
2564.79
-24307.2
2175.08
-32978.3
1849.67
-31752.9
1393.14
-28206
1297.31
-22828.6
1561.74
-16721
1900.07
-10998.1
2105.37
-6553.09
2177.24
-2803.81
2126.94
-821.038
1791.89
503.438
2489.68
4472.06
4099.26
-17467.6
4574.66
-36095.6
4313.39
-39708.6
3938.98
-33041.9
3648.34
-23071.2
3208.29
-12073.8
2709.45
-3377.19
2519.04
1514.46
2700.5
5364.92
4127.27
2656.58
5754.41
-13233.3
5638.74
-22250
4797.17
24666.3
4558.05
73063
4224.93
74919.8
3959.22
61355.6
3852.02
49095.5
3822.8
39556.5
3825.57
31547.5
3841.72
24360.2
3858.37
17634.7
3863.22
11129.7
3847.22
4798.23
3782
-1583.07
3644.9
-7888.27
3398.66
-14571
2996.42
-19502.3
2569.23
-24342.6
2195.99
-38490.9
1674.19
-59882.1
1045.48
-73305.1
-85509.8
-3054.19
16323.8
-3142.8
19324.1
-3162.66
20912.5
-3153.38
22702.8
-3108.54
24189.2
-3034.33
25713
-2933.12
27146.8
-2795.45
28605.6
-2615.11
29779.2
-2401.88
30592.6
-2181.76
31295.7
-1962.25
32530
-1717.65
34299
-1438.68
35603.5
-1114.7
35556.4
-815.667
33606.5
-554.076
33327.1
-267.315
35568.4
16.7825
35596.2
303.543
35731.2
575.444
34361.4
850.49
34275.9
1117.85
34671.8
1349.57
33442.6
1571.65
31571.4
1803.36
30569.9
2014.1
29371.1
2195
27917.3
2300.06
25384.5
2260.25
20172.7
2132.28
13715.6
2020.98
7610.68
2222.66
3352.52
2828.67
4948.07
3247.86
-2550.96
2770.06
-23829.4
2394.66
-32602.9
2113.81
-31472
1707.81
-27800
1579.06
-22699.9
1806.15
-16948.1
2148.55
-11340.5
2380.24
-6784.78
2449.58
-2873.15
2331.17
-702.626
1979.82
854.784
2798.12
3653.77
4285.3
-18954.8
4680.63
-36490.9
4353.29
-39381.3
3921.55
-32610.1
3567.19
-22716.8
3081.97
-11588.6
2514.15
-2809.38
2154.21
1874.4
2457.28
5061.85
4200.66
913.196
5780.98
-14813.6
5626.87
-22095.9
4780.93
25512.2
4523.95
73319.9
4210.62
75233.1
3949.28
61616.9
3838.59
49206.1
3807.86
39587.3
3810.45
31544.9
3826.4
24344.3
3841.95
17619.1
3843.62
11128
3821.33
4820.52
3747.18
-1508.93
3604.14
-7745.23
3355.04
-14321.9
2951.61
-19098.8
2543.68
-23934.7
2201.17
-38148.4
1700.4
-59381.3
1166.2
-72770.9
-84294.5
-3096.1
16434.4
-3180.4
19408.4
-3195.89
20928
-3182.49
22689.4
-3133.18
24139.9
-3055.22
25635
-2950.03
27041.6
-2807.93
28463.5
-2623.24
29594.5
-2407.15
30376.5
-2185.86
31074.4
-1965.35
32309.5
-1719.57
34053.2
-1438.19
35322.2
-1112.22
35230.5
-812.687
33307
-550.941
33065.3
-263.901
35281.3
20.5428
35311.7
307.607
35444.1
579.77
34089.2
855.569
34000.1
1124.15
34403.2
1356.72
33210
1579.54
31348.6
1813.97
30335.4
2031.06
29154
2221.74
27726.6
2339.64
25266.6
2313.54
20198.8
2195.16
13834
2078.13
7727.71
2246.79
3183.86
2855.41
4339.46
3366.67
-3062.23
2978.98
-23441.7
2622.61
-32246.6
2377.54
-31226.9
2020.72
-27443.2
1863.85
-22543
2037.94
-17122.2
2369.86
-11672.4
2631.07
-7046
2711.98
-2954.05
2544.09
-534.734
2168.04
1230.83
3104.4
2717.41
4472.59
-20323
4801.55
-36819.9
4409.1
-38988.8
3909.44
-32110.5
3475.06
-22282.4
2961.66
-11075.2
2342.31
-2190.03
1773.44
2443.27
2245.23
4590.06
4308.6
-1150.17
5726.47
-16231.4
5539.32
-21908.8
4737.19
26314.4
4477.17
73580
4189.37
75520.9
3936.91
61869.4
3823.67
49319.4
3791.3
39619.6
3793.71
31542.5
3809.53
24328.5
3824.02
17604.6
3822.62
11129.4
3794.61
4848.53
3712.75
-1427.06
3564.99
-7597.47
3312.58
-14069.5
2907.74
-18694
2520.28
-23547.3
2209.28
-37837.4
1723.9
-58895.9
1095.32
-72142.3
-83044.9
-3143.37
16544.1
-3222.59
19487.6
-3233.46
20938.8
-3215.63
22671.5
-3161.69
24086
-3079.71
25553
-2970.16
26932
-2823.25
28316.6
-2633.93
29405.2
-2414.84
30157.4
-2192.15
30851.7
-1970.25
32087.6
-1722.75
33805.7
-1438.47
35037.9
-1110.27
34902.3
-810.082
33006.8
-547.903
32803.2
-260.285
34993.7
24.778
35026.7
312.41
35156.5
585.104
33816.5
861.845
33723.3
1131.87
34133.2
1365.64
32976.3
1589.48
31124.7
1826.8
30098.1
2050.43
28930.4
2251.5
27525.5
2383.17
25134.9
2372.56
20209.4
2266.6
13940
2152.36
7841.96
2281.93
3054.29
2879.06
3742.32
3479.25
-3662.42
3189.75
-23152.2
2857.3
-31914.1
2640.02
-31009.7
2329.66
-27132.8
2152.44
-22365.8
2277.99
-17247.8
2585.38
-11979.8
2858.16
-7318.78
2957.65
-3053.55
2765.61
-342.694
2363.69
1632.76
3400.99
1680.11
4660.67
-21582.6
4939.65
-37098.9
4484.84
-38534
3905.07
-31530.7
3370.83
-21748.2
2853.14
-10557.5
2193.14
-1530.03
1419.66
3216.74
2113.09
3896.64
4429.4
-3466.49
5584.3
-17386.3
5383.73
-21708.2
4668.91
27029.2
4421.39
73827.5
4162.64
75779.7
3922.07
62110
3807.24
49434.2
3773.22
39653.7
3775.51
31540.2
3791.31
24312.7
3804.84
17591.1
3800.6
11133.6
3767.45
4881.68
3679.04
-1338.65
3527.64
-7446.07
3271.1
-13813
2864.72
-18287.6
2499.32
-23181.9
2221.13
-37559.2
1755.83
-58430.6
1213.35
-71599.8
-81431.8
-3195.96
16652.1
-3269.41
19561.1
-3275.39
20944.8
-3252.83
22649
-3194.06
24027.2
-3107.78
25466.8
-2993.5
26817.7
-2841.41
28164.5
-2647.23
29211
-2424.97
29935.1
-2200.61
30627.3
-1976.95
31864
-1727.21
33555.9
-1439.58
34750.2
-1108.88
34571.6
-807.842
32705.8
-544.981
32540.3
-256.487
34705.2
29.4635
34740.7
317.93
34868
591.417
33543.1
869.302
33445.4
1140.99
33861.5
1376.27
32741
1601.41
30899.6
1841.82
29857.7
2072.1
28700.1
2284.14
27313.5
2430.48
24988.6
2436.85
20203
2346.36
14030.4
2243.01
7945.31
2332.33
2964.97
2909
3165.65
3590.79
-4344.2
3400.6
-22962
3096.5
-31610
2900.37
-30813.5
2630.77
-26863.2
2437.95
-22173
2517.12
-17326.9
2799.28
-12262
3069.86
-7589.36
3184.54
-3168.22
2989.05
-147.208
2585.95
2035.86
3663.5
602.553
4849.09
-22768.2
5096.67
-37346.4
4585.14
-38022.5
3912.63
-30858.2
3252.11
-21087.7
2734.3
-10039.6
2030.69
-826.424
1162.86
4084.58
2132.62
2926.87
4522.12
-5855.98
5355.25
-18219.5
5176.83
-21529.8
4583.94
27622.1
4360.7
74050.7
4132.03
76008.3
3904.79
62337.2
3789.26
49549.7
3753.74
39689.2
3756.02
31537.9
3771.96
24296.7
3784.67
17578.4
3777.93
11140.4
3740.28
4919.33
3646.31
-1244.68
3491.87
-7291.63
3230.04
-13551.2
2822.33
-17879.9
2480.85
-22840.4
2235.01
-37313.3
1790.7
-57986.3
1327.52
-71136.6
-80363.5
-3253.85
16757.2
-3320.87
19628.1
-3321.69
20945.6
-3294.05
22621.3
-3230.27
23963.4
-3139.4
25375.9
-3020.05
26698.4
-2862.4
28006.8
-2663.12
29011.8
-2437.52
29709.5
-2211.25
30401.1
-1985.44
31638.2
-1732.99
33303.5
-1441.56
34458.8
-1108.08
34238.1
-805.975
32403.7
-542.195
32276.5
-252.532
34415.6
34.5752
34453.6
324.151
34578.4
598.694
33268.5
877.931
33166.2
1151.52
33587.9
1388.61
32503.9
1615.3
30672.9
1858.99
29614
2096
28463.1
2319.45
27090.1
2481.42
24826.6
2505.9
20178.6
2433.87
14102.5
2349.06
8030.12
2402.3
2911.72
2954.88
2613.07
3705.89
-5095.21
3609.99
-22866.1
3337.86
-31337.9
3157.52
-30633.2
2921.65
-26627.4
2719.43
-21970.8
2746.61
-17354.1
2997.1
-12512.4
3263.97
-7856.23
3393.39
-3297.64
3206.68
39.5021
2824.22
2418.32
3899.22
-472.45
5038.12
-23907.1
5274
-37582.3
4714.99
-37463.5
3937.74
-30080.9
3114.55
-20264.5
2519.97
-9445.07
1764.47
-70.9283
1021.89
4827.16
2354.66
1594.1
4558.85
-8060.17
5055.97
-18716.6
4936.75
-21410.5
4492.58
28066.2
4299.56
74243.7
4099.09
76208.8
3885.25
62551.1
3769.81
49665.2
3733.06
39725.9
3735.47
31535.5
3751.7
24280.5
3763.81
17566.3
3754.95
11149.2
3713.33
4960.95
3614.68
-1146.02
3457.47
-7134.42
3188.98
-13282.7
2780.5
-17471.4
2465.08
-22525
2251.9
-37100.2
1824.79
-57559.2
1254.67
-70566.5
-79329.6
-3317.04
16858.2
-3376.9
19687.9
-3372.26
20941
-3339.21
22588.3
-3270.25
23894.5
-3174.5
25280.2
-3049.73
26573.6
-2886.18
27843.3
-2681.6
28807.2
-2452.49
29480.4
-2224.05
30172.6
-1995.74
31409.9
-1740.09
33047.8
-1444.42
34163.1
-1107.87
33901.5
-804.489
32100.3
-539.56
32011.6
-248.447
34124.4
40.088
34165.1
331.049
34287.5
606.915
32992.6
887.71
32885.4
1163.41
33312.2
1402.6
32264.7
1631.1
30444.4
1878.24
29366.9
2122.04
28219.3
2357.13
26855
2535.8
24648
2579.2
20135.2
2528
14153.7
2467.44
8090.68
2493.85
2885.32
3024.43
2082.49
3827.51
-5898.3
3816.38
-22855
3578.81
-31100.3
3410.14
-30464.5
3200.08
-26417.3
2994.49
-21765.2
2971.61
-17331.2
3179.24
-12720.1
3437.45
-8114.44
3584.14
-3444.34
3414.1
209.549
3056.43
2775.99
4123.8
-1539.82
5228.61
-25011.9
5472.27
-37826
4879.28
-36870.5
3987.09
-29188.7
2961.04
-19238.4
2203
-8687.02
1257.29
874.778
854.71
5229.74
2756.52
-307.706
4529.73
-9833.39
4716.02
-18902.9
4680.57
-21375.1
4404.27
28342.5
4242.57
74405.4
4065.36
76386
3863.7
62752.7
3748.98
49779.9
3711.35
39763.6
3714.09
31532.8
3730.79
24263.8
3742.52
17554.5
3731.89
11159.9
3686.78
5006.07
3584.18
-1043.43
3424.03
-6974.27
3147.35
-13006
2739.19
-17063.3
2452.26
-22238
2272.48
-36920.4
1866.53
-57153.3
1360.82
-70060.8
-78027
-3385.57
16953.9
-3437.4
19739.8
-3427.03
20930.6
-3388.22
22549.5
-3313.91
23820.2
-3213.01
25179.2
-3082.49
26443.1
-2912.71
27673.5
-2702.62
28597.1
-2469.84
29247.6
-2238.99
29941.8
-2007.82
31178.7
-1748.53
32788.5
-1448.18
33862.8
-1108.25
33561.6
-803.389
31795.4
-537.089
31745.3
-244.257
33831.6
45.9739
33874.9
338.594
33994.8
616.049
32715.2
898.605
32602.9
1176.64
33034.2
1418.21
32023.1
1648.76
30213.8
1899.5
29116.1
2150.12
27968.7
2396.86
26608.2
2593.29
24451.6
2656.45
20072
2627.42
14182.7
2593.83
8124.27
2605.32
2873.83
3120.97
1566.84
3956.45
-6733.78
4018.19
-22916.7
3816.68
-30898.8
3656.37
-30304.2
3464.01
-26224.9
3257.13
-21558.3
3193.96
-17268.1
3355.99
-12882.1
3596.6
-8355.05
3758.59
-3606.33
3609.46
358.682
3280.31
3105.14
4338.32
-2597.82
5421.26
-26094.9
5690.87
-38095.6
5082.34
-36262
4069.38
-28175.8
2811.15
-17980.2
1464.65
-7340.52
40.0963
2299.33
578.582
4691.25
3208.3
-2937.42
4427.35
-11052.4
4374.67
-18850.2
4423.18
-21423.6
4325.76
28440
4193.67
74537.5
4032.3
76547.4
3840.47
62944.5
3726.89
49893.5
3688.82
39801.6
3692.09
31529.5
3709.45
24246.4
3721.03
17543
3708.93
11172
3660.72
5054.28
3554.73
-937.443
3391.04
-6810.58
3104.66
-12719.6
2698.5
-16657.1
2442.6
-21982.1
2295.85
-36773.6
1911.57
-56769
1432.62
-69581.8
-77298
-3459.39
17042.8
-3502.21
19782.6
-3485.87
20914.3
-3440.98
22504.6
-3361.19
23740.4
-3254.83
25072.9
-3118.26
26306.5
-2941.95
27497.2
-2726.17
28381.3
-2489.57
29011
-2256.06
29708.2
-2021.69
30944.3
-1758.3
32525.2
-1452.85
33557.3
-1109.25
33218
-802.687
31488.9
-534.803
31477.4
-239.99
33536.8
52.1998
33582.7
346.751
33700.3
626.057
32435.9
910.57
32318.3
1191.16
32753.6
1435.39
31778.9
1668.24
29981
1922.72
28861.7
2180.17
27711.2
2438.4
26350
2653.38
24236.6
2737.73
19987.6
2731.25
14189.2
2724.08
8131.44
2732.76
2865.15
3243.65
1055.95
4091.34
-7581.47
4213.77
-23039.2
4048.63
-30733.7
3893.85
-30149.4
3711.47
-26042.6
3503.83
-21350.6
3408.43
-17172.7
3525.86
-12999.5
3742.63
-8571.82
3915.83
-3779.53
3789.14
485.371
3492.91
3401.36
4543.65
-3648.56
5615.85
-27167.1
5927.31
-38407
5326.73
-35661.4
4198.18
-27047.2
2704.92
-16486.9
595.481
-5231.09
-802.972
3697.78
805.09
3083.19
3484.67
-5617
4255.19
-11823
4069.92
-18664.9
4175.56
-21529.3
4260.52
28355
4155.62
74642.4
4001.14
76701.9
3815.96
63129.7
3703.68
50005.8
3665.61
39839.7
3669.66
31525.4
3687.85
24228.3
3699.48
17531.3
3686.18
11185.3
3635.17
5105.29
3526.12
-828.395
3357.83
-6642.29
3060.42
-12422.2
2658.64
-16255.3
2436.39
-21759.9
2322.35
-36659.6
1961.6
-56408.2
1471.91
-69092.1
-76221.6
-3538.25
17123.5
-3571.08
19815.4
-3548.6
20891.8
-3497.32
22453.3
-3411.95
23655
-3299.87
24960.8
-3156.95
26163.6
-2973.84
27314.1
-2752.21
28159.7
-2511.65
28770.5
-2275.25
29471.8
-2037.33
30706.4
-1769.4
32257.2
-1458.44
33246.4
-1110.87
32870.4
-802.399
31180.4
-532.729
31207.7
-235.684
33239.8
58.7257
33288.3
355.477
33403.5
636.888
32154.5
923.547
32031.7
1206.89
32470.2
1454.04
31531.7
1689.45
29745.6
1947.81
28603.3
2212.13
27446.9
2481.57
26080.5
2715.54
24002.6
2823.22
19880
2839.72
14172.7
2856.09
8115.08
2872.88
2848.35
3388.61
540.225
4229.27
-8422.13
4401.51
-23211.4
4271.78
-30603.9
4119.7
-29997.4
3939.79
-25862.6
3730.14
-21141
3606.74
-17049.3
3681.18
-13074
3873.32
-8763.96
4055.4
-3961.61
3949.36
591.409
3690.95
3659.77
4740.13
-4697.74
5810.99
-28237.9
6176.52
-38772.6
5611.34
-35096.2
4385.11
-25821
2703.4
-14805.2
378.976
-2906.66
-388.258
4465.02
1613.48
1081.46
3586.67
-7590.2
4060.87
-12297.2
3823.64
-18427.7
3944.74
-21650.4
4209.47
28090.3
4129.8
74722.1
3972.81
76858.9
3790.56
63312
3679.48
50116.8
3641.85
39877.3
3646.94
31520.3
3666.11
24209.1
3677.95
17519.5
3663.6
11199.6
3610.02
5158.87
3497.94
-716.306
3323.59
-6467.95
3014.29
-12112.9
2619.98
-15861
2433.86
-21573.8
2351.34
-36577.1
2016.89
-56073.8
1617.83
-68693.1
-75544.5
-3621.61
17194.6
-3643.65
19837.4
-3614.98
20863.2
-3557.07
22395.4
-3466.07
23564
-3348.02
24842.8
-3198.5
26014.1
-3008.32
27123.9
-2780.72
27932.1
-2536.07
28525.8
-2296.53
29232.3
-2054.73
30464.6
-1781.85
31984.3
-1464.96
32929.5
-1113.14
32518.6
-802.546
30869.8
-530.9
30936.1
-231.381
32940.2
65.5014
32991.4
364.712
33104.3
648.475
31870.7
937.458
31742.7
1223.75
32183.9
1474.09
31281.4
1712.29
29507.4
1974.68
28340.9
2245.89
27175.7
2526.23
25800.2
2779.19
23749.6
2912.34
19746.8
2953.3
14131.7
2990.17
8078.21
3026.83
2811.69
3551.53
15.5325
4366.95
-9237.55
4580.05
-23424.5
4483.16
-30507
4330.47
-29844.7
4145.81
-25678
3932.8
-20928
3785.22
-16901.7
3817.45
-13106.2
3984.46
-8930.96
4175.52
-4152.67
4089.03
677.895
3872.77
3876.04
4928.07
-5753.04
6004.16
-29314
6430.4
-39198.8
5929.06
-34594.9
4630.91
-24522.9
2810.5
-12984.8
764.824
-860.987
495.63
4734.21
2243.05
-665.958
3543.52
-8890.67
3877.25
-12630.9
3637.01
-18187.5
3736.86
-21750.2
4171.78
27655.4
4116.23
74777.6
3947.77
77027.3
3764.6
63495.2
3654.41
50227
3617.62
39914.1
3623.99
31514
3644.28
24188.8
3656.37
17507.4
3641.06
11214.9
3585.02
5214.91
3469.56
-600.841
3287.45
-6285.84
2966.11
-11791.6
2583.08
-15478
2435.33
-21426
2383.51
-36525.3
2070.24
-55760.5
1551.32
-68174.2
-74920.3
-3708.67
17255.2
-3719.49
19848.3
-3684.69
20828.4
-3620.03
22330.7
-3523.4
23467.4
-3399.17
24718.5
-3242.8
25857.7
-3045.34
26926.5
-2811.66
27698.4
-2562.81
28277
-2319.92
28989.4
-2073.9
30218.6
-1795.64
31706.1
-1472.43
32606.3
-1116.06
32162.2
-803.153
30556.9
-529.357
30662.3
-227.134
32638
72.4637
32691.8
374.381
32802.4
660.732
31584.4
952.203
31451.2
1241.62
31894.5
1495.39
31027.6
1736.64
29266.1
2003.18
28074.4
2281.34
26897.5
2572.3
25509.3
2843.78
23478.2
3003.64
19587
3070.8
14064.6
3126.45
8022.55
3191.32
2746.82
3721.04
-514.189
4501.6
-10018.1
4748.05
-23671
4679.75
-30438.7
4522.31
-29687.2
4325.85
-25481.5
4107.92
-20710.1
3943.62
-16737.4
3939.45
-13102
4078.63
-9070.14
4275.09
-4349.12
4207.35
745.63
4037.43
4045.95
5107.07
-6822.67
6191.7
-30398.7
6677.74
-39684.9
6264.76
-34181.9
4926.78
-23184.9
3013.51
-11071.5
1296.67
855.851
1273.51
4757.38
2603.73
-1996.18
3422.03
-9708.97
3713.96
-12922.8
3505.29
-17978.8
3563.59
-21808.5
4145.59
27073.4
4113.68
74809.6
3925.94
77215
3738.22
63682.9
3628.52
50336.7
3592.91
39949.7
3600.79
31506.1
3622.23
24167.4
3634.54
17495.1
3618.2
11231.3
3559.68
5273.42
3440.14
-481.301
3248.56
-6094.26
2915.99
-11459
2548.63
-15110.6
2441.13
-21318.5
2419.77
-36503.9
2131.29
-55472
1683.55
-67726.4
-73995.5
-3798.49
17304.7
-3798.08
19847.8
-3757.35
20787.6
-3686.01
22259.4
-3583.81
23365.2
-3453.22
24587.9
-3289.78
25694.3
-3084.87
26721.5
-2845.02
27458.6
-2591.87
28023.8
-2345.41
28742.9
-2094.84
29968
-1810.77
31422
-1480.84
32276.3
-1119.65
31801
-804.254
30241.5
-528.148
30386.2
-223.005
32332.9
79.5352
32389.2
384.392
32497.5
673.553
31295.2
967.662
31157.1
1260.35
31601.8
1517.79
30770.2
1762.33
29021.6
2033.13
27803.6
2318.3
26612.4
2619.65
25207.9
2908.78
23189
3095.4
19400.3
3189.56
13970.4
3263.64
7948.48
3356.55
2653.9
3884.97
-1042.6
4631.28
-10764.4
4904.08
-23943.8
4858.45
-30393.1
4690.99
-29519.8
4476.04
-25266.6
4249.73
-20483.7
4074.85
-16562.5
4045.83
-13073
4159.28
-9183.59
4354.62
-4544.46
4299.71
800.534
4183.3
4162.37
5275.68
-7915.06
6368.59
-31491.6
6904.47
-40220.7
6594.17
-33871.6
5255.04
-21845.8
3285.01
-9101.49
1792.78
2348.07
1846.34
4703.82
2787.17
-2937.02
3274.33
-10196.1
3577.32
-13225.8
3435.18
-17836.6
3443.22
-21816.6
4128.28
26388.3
4119.62
74818.2
3906.6
77428.1
3711.32
63878.2
3601.73
50446.3
3567.57
39983.9
3577.11
31496.5
3599.64
24144.8
3612.02
17482.7
3594.48
11248.8
3533.3
5334.61
3408.69
-356.684
3206.21
-5891.79
2864.34
-11117.1
2517.43
-14763.7
2451.46
-21252.5
2458.48
-36510.9
2195.62
-55209.2
1816.02
-67346.8
-73413.9
-3890.1
17343.4
-3878.93
19836.7
-3832.59
20741.3
-3754.82
22181.6
-3647.19
23257.5
-3510.06
24450.8
-3339.39
25523.6
-3126.87
26509
-2880.8
27212.5
-2623.27
27766.3
-2373
28492.7
-2117.54
29712.6
-1827.27
31131.7
-1490.23
31939.3
-1123.96
31434.8
-805.891
29923.4
-527.331
30107.6
-219.067
32024.6
86.6251
32083.5
394.637
32189.5
686.816
31003
983.684
30860.3
1279.76
31305.8
1541.08
30508.9
1789.12
28773.6
2064.28
27528.4
2356.49
26320.1
2668.11
24896.3
2973.95
22883.2
3186.55
19187.7
3307.17
13849.8
3399.44
7856.21
3516.53
2536.81
4040.01
-1566.08
4754.56
-11479
5046.64
-24235.8
5016.05
-30362.5
4831.97
-29335.7
4592.46
-25027.1
4354.23
-20245.5
4171.33
-16379.6
4126.89
-13028.6
4223.16
-9279.86
4414.26
-4735.56
4364.02
850.775
4309.81
4216.57
5432.27
-9037.51
6528.16
-32587.5
7094.15
-40786.7
6884.96
-33662.4
5588.04
-20548.8
3593.68
-7107.13
2241.88
3699.87
2269.09
4676.62
2864.09
-3532.02
3134.58
-10466.6
3475.06
-13566.3
3433.14
-17794.7
3385.34
-21768.8
4116.39
25657.3
4130.22
74804.4
3888.43
77669.8
3683.47
64083.1
3573.79
50556
3541.32
40016.4
3552.55
31485.3
3575.98
24121.4
3588.18
17470.5
3569.16
11267.8
3504.94
5398.82
3374.1
-225.843
3159.99
-5677.67
2811.94
-10769.1
2490.41
-14442.2
2466.59
-21228.7
2500.8
-36545.1
2258.46
-54966.8
1762.45
-66850.8
-72870.4
-3982.61
17371.9
-3961.59
19815.7
-3910.04
20689.7
-3826.27
22097.8