/*--------------------------------*- C++ -*----------------------------------*\
| =========                 |                                                 |
| \\      /  F ield         | OpenFOAM: The Open Source CFD Toolbox           |
|  \\    /   O peration     | Version:  4.1                                   |
|   \\  /    A nd           | Web:      www.OpenFOAM.org                      |
|    \\/     M anipulation  |                                                 |
\*---------------------------------------------------------------------------*/
FoamFile
{
    version     2.0;
    format      ascii;
    class       volVectorField;
    location    "23";
    object      U;
}
// * * * * * * * * * * * * * * * * * * * * * * * * * * * * * * * * * * * * * //

dimensions      [0 1 -1 0 0 0 0];

internalField   nonuniform List<vector> 
6785
(
(1.16202e-13 -0.576907 16.0534)
(8.08519e-14 -6.46871 12.3857)
(-2.31311e-14 -4.7288 12.7281)
(3.20402e-14 -4.20443 12.4964)
(1.25458e-14 -3.60651 12.326)
(-1.03721e-14 -3.14706 12.1027)
(3.13495e-14 -2.77375 11.8437)
(9.37217e-15 -2.50018 11.5276)
(-1.04481e-14 -2.321 11.1407)
(2.89797e-14 -2.19909 10.7046)
(9.45472e-16 -2.13719 10.2651)
(-2.0027e-14 -2.37381 9.75519)
(3.2976e-14 -2.95073 9.11255)
(-1.61377e-15 -2.25014 8.80587)
(-6.60563e-14 1.06236 7.57729)
(2.2593e-13 -7.19506 25.6798)
(1.26151e-13 -16.5172 21.606)
(-2.33737e-14 -11.6578 21.8954)
(1.46676e-13 -11.8834 20.5072)
(1.10132e-14 -11.0196 19.4928)
(1.96002e-14 -10.3614 18.4348)
(8.62925e-14 -9.69415 17.3699)
(7.44244e-15 -9.04313 16.287)
(3.8965e-14 -8.44516 15.2082)
(1.68624e-13 -7.93853 14.2203)
(4.15412e-14 -7.45299 13.3927)
(8.76017e-14 -6.96634 12.5582)
(2.94826e-13 -6.66943 11.2377)
(4.73233e-15 -5.54807 8.73297)
(-8.09497e-14 -1.27601 3.00748)
(6.91289e-14 -9.98181 27.2706)
(1.28041e-13 -17.4458 23.9005)
(-3.68185e-14 -11.7017 24.252)
(-4.57906e-15 -12.4596 22.1269)
(1.86913e-14 -10.9307 20.9786)
(-6.27524e-15 -10.0837 19.53)
(-2.27716e-14 -9.11513 18.1344)
(1.90359e-14 -8.19861 16.7148)
(-2.28597e-14 -7.29198 15.2557)
(-7.01899e-14 -6.41403 13.7281)
(-2.64522e-14 -5.7375 12.2742)
(-8.08545e-14 -5.5682 11.2388)
(-1.21259e-13 -5.81406 10.519)
(-2.78752e-14 -5.30495 8.39682)
(-2.1405e-13 -1.55791 1.9811)
(1.42598e-13 -11.3414 26.8627)
(4.34903e-14 -16.9647 23.8368)
(2.47347e-14 -11.6746 24.1776)
(-3.44591e-14 -12.8764 21.5921)
(-4.05219e-14 -10.9667 20.5193)
(5.02899e-14 -10.2981 18.8509)
(-5.39988e-14 -9.26874 17.4141)
(-3.44381e-14 -8.3701 15.9241)
(9.9723e-15 -7.28847 14.1828)
(-2.10832e-13 -5.70864 11.4848)
(-3.29031e-13 -3.60575 7.51049)
(-2.51376e-13 -2.27077 4.37003)
(-2.55505e-13 -3.21295 5.14723)
(-2.09535e-13 -4.45575 6.74045)
(2.01244e-13 -2.98835 5.13218)
(1.02313e-13 -12.06 27.0589)
(-8.37487e-14 -17.2754 24.8026)
(-2.5478e-14 -12.1078 24.8943)
(-9.66543e-14 -13.7513 22.1131)
(-1.79712e-13 -11.4557 21.2491)
(-1.82371e-14 -11.0858 19.4493)
(-1.3925e-13 -9.97295 18.0996)
(-2.01148e-13 -9.13868 16.6498)
(-6.57704e-14 -8.06957 15.0033)
(-3.32972e-13 -6.33904 12.2302)
(-6.70469e-13 -3.34552 7.26877)
(-6.89642e-13 0.182133 1.99272)
(-3.24853e-13 1.47234 0.561352)
(3.46557e-13 0.0670448 2.00738)
(3.33303e-13 -1.17683 3.59603)
(1.63127e-13 -12.1914 26.3336)
(-6.0817e-14 -17.694 26.0602)
(-4.54622e-15 -12.6939 25.3819)
(-1.44738e-13 -14.1966 22.5833)
(-1.74024e-13 -11.9535 21.7558)
(4.70978e-14 -11.6774 19.9397)
(-1.23711e-13 -10.6318 18.6004)
(-1.93102e-13 -9.86724 17.1816)
(1.3669e-14 -9.00033 15.7155)
(-2.13792e-13 -7.75438 13.6623)
(-4.69399e-13 -5.56537 10.1364)
(-3.79882e-13 -2.06514 5.04438)
(-2.10758e-13 1.83741 0.225426)
(6.8813e-13 3.11874 -2.46395)
(1.13895e-13 1.0645 -2.05117)
(3.05595e-13 -11.8657 24.5851)
(2.2711e-14 -17.711 26.6533)
(1.52578e-13 -13.1352 25.2685)
(-8.65722e-14 -14.1292 22.4108)
(-1.25525e-13 -12.1751 21.4744)
(1.58337e-13 -11.8303 19.6914)
(-6.20093e-14 -10.8883 18.2911)
(-1.29605e-13 -10.1417 16.85)
(1.24539e-13 -9.39638 15.4272)
(-5.98821e-14 -8.50865 13.8139)
(-2.03784e-13 -7.22401 11.57)
(-1.84839e-14 -5.18336 8.37086)
(-1.78455e-13 -2.40907 4.36222)
(-7.17564e-13 0.571319 0.433845)
(-1.66052e-12 0.806934 -3.35727)
(2.2612e-13 -11.3512 22.6417)
(5.72239e-14 -17.4116 26.7123)
(1.46366e-13 -13.2949 24.9447)
(-7.48684e-14 -13.8324 21.9761)
(-1.22324e-13 -12.0395 20.9562)
(1.11483e-13 -11.6397 19.1886)
(-2.24743e-14 -10.7039 17.7612)
(-1.2206e-13 -9.94101 16.2974)
(7.0214e-14 -9.19959 14.8699)
(1.51918e-14 -8.40549 13.4112)
(-1.1126e-13 -7.47778 11.6945)
(-3.10709e-14 -6.13772 9.48675)
(-3.99207e-14 -4.35416 6.489)
(-3.88448e-13 -1.77902 2.74596)
(-2.69154e-12 0.177084 -2.4245)
(2.25981e-13 -10.8776 21.0808)
(7.83749e-14 -17.0464 26.6526)
(4.05397e-14 -13.3488 24.7421)
(-3.80606e-14 -13.5463 21.6742)
(-1.12676e-13 -11.7901 20.6137)
(-2.42908e-14 -11.383 18.843)
(2.18023e-14 -10.3888 17.423)
(-1.00175e-13 -9.59554 15.9209)
(-4.71188e-14 -8.81456 14.4882)
(4.83427e-14 -8.02413 13.0873)
(-4.50428e-14 -7.21024 11.5758)
(-2.48657e-13 -6.14452 9.81089)
(-5.54057e-15 -4.80803 7.41638)
(-1.44816e-13 -2.66624 4.20687)
(-2.54046e-12 -0.143204 -1.58432)
(1.29236e-13 -10.4231 19.7176)
(7.64898e-14 -16.5727 26.4014)
(8.03247e-15 -13.3793 24.5415)
(-1.30922e-13 -13.2539 21.4181)
(-1.26283e-13 -11.5624 20.2729)
(-7.20807e-14 -11.1329 18.5462)
(-1.04881e-13 -10.1477 17.1491)
(-1.07711e-13 -9.34406 15.652)
(-1.76701e-13 -8.51073 14.1642)
(-1.38729e-13 -7.67327 12.7397)
(-5.7462e-14 -6.86788 11.2877)
(-3.11049e-13 -5.8971 9.71719)
(-3.24964e-13 -4.77307 7.64391)
(-5.43928e-14 -2.82414 4.80686)
(-1.72108e-12 -0.0266562 -1.4928)
(-2.71203e-14 -10.2781 19.1805)
(1.08813e-13 -16.2444 26.2838)
(-1.6361e-13 -13.5768 24.6118)
(-1.54713e-13 -13.1837 21.5219)
(-8.32184e-14 -11.6022 20.2258)
(-3.32995e-13 -11.0881 18.5192)
(-1.82216e-13 -10.1672 17.1076)
(-1.94243e-14 -9.50041 15.7569)
(-4.11149e-13 -8.77124 14.444)
(-2.5892e-13 -7.9617 13.0523)
(1.55734e-14 -7.15352 11.6178)
(-5.36026e-13 -6.2436 10.1535)
(-4.40523e-13 -5.29312 8.37782)
(-6.62367e-13 -3.70358 6.12317)
(-1.91426e-12 -1.52973 1.49036)
(-3.37922e-14 -9.75585 17.657)
(1.78795e-13 -15.2527 24.9098)
(-3.0891e-13 -13.1388 23.5661)
(-1.60535e-13 -12.6279 20.5432)
(9.01865e-15 -11.1783 19.1594)
(-4.98337e-13 -10.6499 17.4786)
(-2.37514e-13 -9.72643 16.0359)
(1.23239e-13 -9.0003 14.5226)
(-3.46246e-13 -8.44573 13.4393)
(-3.5913e-13 -7.84666 12.3451)
(6.16013e-16 -7.12065 11.0929)
(-3.91396e-13 -6.22524 9.74621)
(-2.89042e-13 -5.26834 8.15377)
(-6.59186e-13 -3.84715 6.3116)
(-1.5806e-12 -1.63156 1.31325)
(-1.30418e-13 -11.3434 20.6504)
(1.63187e-13 -15.9459 26.2648)
(-2.76166e-13 -14.0132 24.9744)
(-2.80424e-13 -13.5578 22.089)
(6.73652e-14 -11.937 20.6571)
(-5.13801e-13 -11.517 18.9655)
(-1.71764e-13 -10.3996 17.3573)
(2.87962e-13 -9.70321 15.4203)
(-5.21028e-13 -9.42233 14.6058)
(-5.73506e-13 -9.40019 14.1982)
(-5.28036e-14 -9.29183 13.7201)
(-3.74609e-13 -8.99499 13.0855)
(-3.14008e-13 -8.29568 11.9781)
(-2.17021e-13 -6.90727 10.2535)
(-1.16444e-12 -4.74299 7.09184)
(-2.0668e-13 -7.31215 13.6982)
(5.39467e-15 -11.0771 19.6201)
(-3.68161e-13 -9.31691 18.8657)
(-2.47001e-13 -8.72509 16.5976)
(-2.07461e-13 -7.37236 15.5105)
(-5.80991e-13 -6.33499 13.1889)
(-7.16397e-13 -4.59692 10.6325)
(-1.21922e-12 -3.5554 8.67739)
(-1.51097e-12 -3.06596 8.07789)
(-1.29166e-12 -2.63976 7.52713)
(-1.13333e-12 -2.40717 7.26536)
(-7.80862e-13 -3.36189 8.58712)
(-2.77975e-13 -5.46943 11.6095)
(-4.13735e-13 -5.14626 10.4128)
(-7.25476e-13 -2.20582 4.00454)
(-2.51154e-13 -24.634 42.6676)
(-1.4004e-13 -22.8527 42.2335)
(-4.01732e-13 -20.1223 36.1793)
(-2.83379e-13 -19.3513 33.5801)
(-4.02459e-13 -17.1637 29.5953)
(-4.92878e-13 -16.3563 26.0955)
(-6.38488e-13 -15.4717 23.4312)
(-1.01486e-12 -15.047 21.1258)
(-1.2413e-12 -14.6962 19.6686)
(-1.36975e-12 -13.7878 18.2697)
(-1.53936e-12 -11.5567 14.8664)
(-1.44355e-12 -7.26588 11.023)
(-1.00833e-12 -5.26442 9.91515)
(-9.41556e-13 -5.40161 9.08012)
(-5.98171e-13 -3.59023 2.23188)
(5.37184e-16 0.638985 0.695211)
(1.8999e-14 -1.75313 5.24074)
(2.06298e-14 -1.45774 3.44605)
(2.0822e-14 -1.67252 3.59058)
(2.23475e-14 -1.59189 3.52544)
(3.54631e-14 -2.85428 4.60525)
(2.98797e-14 -3.05183 2.44897)
(3.22954e-14 -3.19685 2.67235)
(3.42028e-14 -3.05061 2.6073)
(4.12308e-14 -4.53742 3.41581)
(1.03061e-14 -4.33603 1.60864)
(1.46758e-14 -4.10316 1.85096)
(2.06912e-14 -5.56766 2.34947)
(1.51753e-14 -5.22194 0.948403)
(1.5591e-14 -5.39248 1.1378)
(1.51325e-14 -5.03717 1.10727)
(1.98162e-14 -6.77452 1.46144)
(1.25958e-14 -6.07715 0.336693)
(7.24811e-15 -5.76438 0.496139)
(1.04623e-14 -7.28225 0.584538)
(5.52647e-15 -6.59418 -0.181677)
(4.6941e-15 -6.78645 -0.0519955)
(3.20524e-15 -6.25215 -0.0855683)
(-2.93058e-15 -7.89762 -0.132576)
(-2.58226e-15 -6.98476 -0.670585)
(-3.63472e-15 -7.15466 -0.582279)
(-4.09109e-15 -6.59766 -0.618225)
(1.24122e-15 -8.33415 -0.888963)
(1.89086e-15 -7.24624 -1.15469)
(2.70221e-15 -6.83647 -1.12493)
(2.06069e-15 -8.15627 -1.57737)
(4.15059e-15 -7.22744 -1.51496)
(4.74247e-15 -7.35107 -1.46933)
(6.90756e-15 -6.73877 -1.48553)
(1.16339e-14 -8.18453 -2.0595)
(6.38607e-15 -7.14389 -1.81121)
(6.95839e-15 -6.68753 -1.84063)
(9.24431e-15 -7.63512 -2.55582)
(5.46502e-15 -6.78211 -2.08959)
(4.55872e-15 -6.88377 -2.06782)
(3.17806e-15 -6.27049 -2.06897)
(6.35162e-15 -7.11921 -2.88708)
(4.9937e-15 -6.28033 -2.27808)
(6.14719e-15 -6.34663 -2.27095)
(7.65864e-15 -5.76181 -2.26111)
(1.32131e-14 -6.42338 -3.17452)
(9.26774e-15 -5.80861 -2.43995)
(8.99212e-15 -5.33052 -2.5053)
(9.8992e-15 -5.55375 -3.49078)
(6.29608e-15 -5.07494 -2.65368)
(7.64236e-15 -5.05543 -2.63918)
(8.37184e-15 -4.60004 -2.59833)
(1.13734e-14 -4.56834 -3.64665)
(7.79681e-15 -4.27333 -2.72223)
(8.61466e-15 -4.21676 -2.71135)
(8.78728e-15 -3.79854 -2.65391)
(3.22921e-15 -3.40196 -3.72178)
(4.64447e-15 -3.58006 -2.72514)
(6.7008e-15 -3.13174 -2.77893)
(8.07882e-15 -2.45275 -3.86281)
(5.23727e-15 -2.64672 -2.87339)
(8.44712e-15 -2.45496 -2.82475)
(1.30981e-14 -2.24044 -2.68965)
(1.12946e-14 -0.985807 -3.7426)
(-2.80135e-14 -1.8428 -2.68575)
(-2.48122e-14 -1.4255 -2.66803)
(-3.47005e-14 -0.0098383 -3.65807)
(-4.20141e-14 -0.912821 -2.90341)
(-1.77148e-14 -0.421695 -2.8008)
(-1.66392e-14 -0.615629 -2.45205)
(-2.43251e-14 1.8242 -3.20045)
(-5.05438e-14 -0.128647 -2.94859)
(-6.66673e-14 0.853954 -2.94157)
(-9.59143e-14 0.113517 -2.52195)
(-1.647e-13 2.99607 -2.50885)
(-5.78508e-14 1.19015 -2.08874)
(-1.53316e-14 1.04311 -1.8996)
(2.27167e-14 4.08775 -2.46571)
(-1.12543e-14 1.85046 -0.687926)
(7.54083e-14 2.47586 -1.60255)
(-8.31474e-14 2.36887 -1.51897)
(-1.46412e-13 2.52906 -1.19016)
(-2.50773e-13 2.36917 0.256256)
(-8.51724e-14 6.03445 -0.200438)
(-1.77662e-13 3.18905 2.51625)
(-2.67651e-13 3.56555 3.9072)
(-3.66853e-13 3.77808 5.29414)
(-4.38325e-13 3.76198 6.35737)
(-4.887e-13 3.82536 7.27507)
(-5.18648e-13 3.81052 8.09754)
(-5.38671e-13 3.93735 8.65589)
(-5.65695e-13 3.73449 9.60539)
(-3.70275e-13 8.0833 9.03654)
(-5.16835e-13 5.18467 12.0642)
(-5.19142e-13 5.63398 12.5262)
(-5.04082e-13 5.93406 12.7341)
(-5.53754e-13 5.57902 13.7212)
(-5.31866e-13 5.79126 14.5222)
(-4.20779e-13 5.54565 15.9932)
(-6.91542e-13 5.4667 22.611)
(-8.09987e-13 4.79621 24.6082)
(-8.69733e-13 10.5246 27.4954)
(-1.07162e-12 6.97241 29.3535)
(-9.35368e-13 7.57207 27.1763)
(-7.94925e-13 6.95555 24.5429)
(-6.79385e-13 6.87172 21.6573)
(-5.82579e-13 6.85623 18.7063)
(-4.88418e-13 6.8741 15.7553)
(-4.22811e-13 7.01536 12.671)
(-3.63074e-13 7.43123 9.40826)
(-3.18629e-13 7.44991 6.679)
(-1.02378e-13 14.506 3.26219)
(-2.35277e-13 8.37246 4.25893)
(-2.04401e-13 9.40025 2.20791)
(-1.6447e-13 9.36754 0.132524)
(-1.23497e-13 9.39863 -1.62347)
(-8.41025e-14 9.74579 -3.13765)
(-3.43383e-14 9.9429 -4.10185)
(-1.55151e-14 10.3771 -5.00525)
(-3.19407e-14 10.4659 -5.38938)
(1.06901e-13 17.4451 -9.11057)
(-7.81872e-14 10.9912 -4.74726)
(-7.40372e-14 12.1758 -5.09869)
(-4.82027e-14 12.3905 -5.34205)
(-5.40841e-14 12.5043 -5.71945)
(-6.00892e-14 12.9074 -6.09256)
(-6.11379e-14 13.1585 -6.25145)
(-6.10216e-14 13.6557 -6.72965)
(-4.91801e-14 13.6397 -5.85748)
(1.19655e-14 21.2665 -10.8021)
(-7.74336e-14 14.5928 -5.02737)
(-7.71453e-14 15.8689 -4.87579)
(-7.56328e-14 16.237 -4.97024)
(-7.00477e-14 16.3344 -4.65661)
(-6.90605e-14 16.8053 -4.32074)
(-7.40442e-14 17.1538 -4.01929)
(-7.86732e-14 17.6823 -3.97448)
(-8.83677e-14 17.7117 -3.08269)
(-3.99201e-14 26.2403 -9.54737)
(-8.74096e-14 19.1795 -2.42356)
(-9.71563e-14 20.7217 -1.98886)
(-1.076e-13 21.1771 -1.70057)
(-1.17982e-13 21.3339 -1.3668)
(-1.24223e-13 21.8012 -1.1605)
(-1.49971e-13 22.2767 -0.455589)
(-1.60675e-13 22.5983 0.121286)
(-1.64944e-13 23.1987 0.30801)
(-1.75224e-13 23.196 1.61611)
(-1.28106e-13 32.7288 -6.36709)
(-1.54762e-13 25.3354 1.66454)
(-1.45471e-13 27.0633 2.7392)
(-1.46169e-13 27.5442 3.49887)
(-1.49357e-13 27.682 4.28102)
(-1.52651e-13 28.2511 5.15337)
(-1.58622e-13 28.5654 6.32265)
(-1.79634e-13 29.1878 7.12864)
(-1.98256e-13 29.0605 9.31621)
(-1.73628e-13 40.1766 0.66801)
(-2.16979e-13 31.983 9.10137)
(-2.36485e-13 34.3234 11.4466)
(-1.83899e-13 33.8055 6.35454)
(-2.16505e-13 33.7702 5.1607)
(-2.60634e-13 40.2071 4.77086)
(-1.78362e-13 30.2317 3.52167)
(-2.47309e-13 44.5631 3.47248)
(-1.86854e-13 33.3135 3.05167)
(-2.26748e-13 37.9829 2.72642)
(-2.68072e-13 43.8637 2.54974)
(-1.89944e-13 34.5596 2.33047)
(-2.26835e-13 42.0153 1.91366)
(-2.63362e-13 49.0474 1.53272)
(-1.78367e-13 35.5731 1.41517)
(-2.39683e-13 53.2341 0.411999)
(-1.78206e-13 40.1837 0.695494)
(-2.13864e-13 45.7448 -0.31305)
(-2.55729e-13 54.7995 -1.18521)
(-1.76519e-13 40.4487 -0.425832)
(-2.44339e-13 60.7529 -2.13064)
(-1.83707e-13 45.6832 -1.13248)
(-2.23657e-13 53.0063 -2.60693)
(-2.65219e-13 60.8986 -3.47878)
(-1.8906e-13 48.0018 -1.76164)
(-2.2816e-13 59.5603 -3.13468)
(-2.73618e-13 68.6211 -3.75401)
(-1.88817e-13 49.7345 -2.08132)
(-2.5531e-13 74.906 -4.04111)
(-1.90345e-13 56.5063 -2.4581)
(-2.29668e-13 64.649 -3.98772)
(-2.65872e-13 75.8518 -4.5915)
(-1.80657e-13 55.9037 -2.67027)
(-2.38746e-13 83.7308 -4.84187)
(-1.7526e-13 62.7489 -3.12255)
(-2.06778e-13 72.6858 -4.96909)
(-2.3209e-13 81.8483 -5.78992)
(-1.60943e-13 64.0269 -3.43395)
(-1.87082e-13 79.8181 -5.1761)
(-2.12263e-13 90.0123 -5.86478)
(-1.42676e-13 64.8966 -3.68215)
(-1.8661e-13 97.204 -6.25322)
(-1.36657e-13 73.0988 -4.2274)
(-1.61474e-13 83.4778 -6.22712)
(-1.85946e-13 96.172 -6.81538)
(-1.26342e-13 70.6766 -4.26828)
(-1.72453e-13 105.311 -6.76372)
(-1.30415e-13 78.7212 -4.47955)
(-1.58834e-13 90.8554 -6.4992)
(-1.95946e-13 100.976 -6.75568)
(-1.42337e-13 78.4985 -3.89312)
(-1.75342e-13 97.8314 -5.41925)
(-2.223e-13 108.96 -5.02315)
(-1.56525e-13 78.1368 -2.94175)
(-2.26633e-13 116.2 -4.4938)
(-1.77034e-13 87.0221 -2.5916)
(-2.22889e-13 98.9266 -3.84055)
(-2.90191e-13 112.61 -2.75328)
(-2.05385e-13 82.245 -1.29942)
(-2.99847e-13 121.587 -1.88819)
(-2.33604e-13 90.3673 -0.510266)
(-2.9618e-13 103.557 -1.23802)
(-3.78279e-13 114.095 0.601888)
(-2.75939e-13 87.7775 1.55962)
(-3.47086e-13 108.801 1.67534)
(-4.38553e-13 120.174 4.49829)
(-3.05729e-13 85.3889 3.69773)
(-4.3887e-13 125.749 5.27819)
(-3.3391e-13 93.2935 4.82161)
(-4.17227e-13 105.444 5.56288)
(-5.1522e-13 118.681 8.81043)
(-3.53007e-13 85.837 6.491)
(-4.9223e-13 125.781 8.77663)
(-3.66353e-13 92.5579 7.15702)
(-4.51147e-13 105.415 8.02237)
(-5.33118e-13 115.13 10.6593)
(-3.69613e-13 87.6322 8.01935)
(-4.48238e-13 108.156 9.05278)
(-5.26898e-13 118.655 11.458)
(-3.52168e-13 83.5216 7.84828)
(-4.78891e-13 123.203 9.50029)
(-3.40946e-13 89.82 7.09427)
(-4.50722e-13 104.979 7.87515)
(-3.12802e-16 -20.9212 18.94)
(-3.44135e-16 -25.0248 20.0347)
(-3.69804e-16 -27.6634 20.3094)
(-4.01032e-16 -30.3014 20.4851)
(-4.30592e-16 -32.5648 20.4399)
(-4.58339e-16 -34.8545 20.1319)
(-4.80475e-16 -36.9846 19.6525)
(-4.96701e-16 -39.2162 18.9625)
(-5.06467e-16 -41.1181 18.0196)
(-5.08678e-16 -42.4887 16.7823)
(-5.02233e-16 -43.5165 15.3431)
(-4.87853e-16 -45.1642 13.8875)
(-4.67989e-16 -47.7187 12.3987)
(-4.43407e-16 -49.7065 10.5869)
(-4.13196e-16 -50.0061 8.72992)
(-3.7913e-16 -47.2558 6.3699)
(-3.37612e-16 -46.6028 4.77161)
(-2.9257e-16 -49.7744 2.83008)
(-2.46275e-16 -49.7888 0.90094)
(-1.99685e-16 -49.9857 -0.976012)
(-1.55695e-16 -48.0476 -2.9547)
(-1.16982e-16 -47.9442 -4.63552)
(-8.20636e-17 -48.3957 -6.59368)
(-5.11381e-17 -46.4836 -8.15691)
(-2.84356e-17 -43.9118 -9.70209)
(-2.08958e-17 -42.6096 -11.1389)
(-3.99909e-17 -40.7737 -12.6424)
(-8.43277e-17 -38.5412 -13.6111)
(-2.03456e-16 -34.501 -14.5406)
(-2.80478e-16 -26.3982 -14.3408)
(-2.5176e-16 -17.285 -13.4377)
(-1.23156e-16 -9.70292 -12.9885)
(1.21324e-16 -6.52212 -13.964)
(3.80995e-16 -10.5676 -15.9522)
(1.71703e-16 0.9645 -17.818)
(-1.05164e-15 36.4087 -13.6657)
(-2.27514e-15 46.6485 -10.1306)
(-3.48663e-15 45.308 -7.73452)
(-4.50684e-15 41.1833 -1.38229)
(-4.83865e-15 30.3984 -0.0425554)
(-4.35174e-15 20.2683 -2.45224)
(-3.46408e-15 14.2967 -5.01149)
(-2.68511e-15 9.61806 -7.39321)
(-2.06499e-15 3.77691 -7.68971)
(-1.84593e-15 0.722377 -7.55342)
(-1.75366e-15 0.57975 -9.28033)
(-1.70324e-15 -8.98575 -4.45787)
(-2.30241e-15 11.4269 -16.3812)
(-1.65523e-15 43.7109 -27.4317)
(-4.67582e-16 53.8231 -29.1409)
(1.06438e-16 45.9746 -27.69)
(1.6697e-16 32.1776 -26.1707)
(9.06219e-17 18.1715 -25.4163)
(3.45262e-17 6.54036 -23.7635)
(2.55058e-17 -1.6194 -24.1014)
(-2.60722e-17 -6.44157 -23.5014)
(-1.01942e-16 -9.56002 -17.3637)
(-9.63493e-17 7.34775 -28.8532)
(-4.46376e-17 29.8446 -36.2416)
(-7.36581e-18 -28.8635 -31.7578)
(1.38021e-18 -96.5624 -31.2756)
(4.71407e-19 -97.6169 -28.9903)
(4.58786e-20 -80.1294 -26.9599)
(5.50675e-20 -64.7644 -26.1045)
(7.55702e-20 -52.5078 -25.7866)
(4.05065e-20 -42.032 -25.7298)
(1.41421e-19 -32.5449 -25.819)
(3.22398e-19 -23.5976 -25.9593)
(3.55468e-19 -14.881 -26.0873)
(-1.0285e-18 -6.36978 -26.1456)
(-3.5862e-18 2.36059 -26.2028)
(1.98743e-17 11.2564 -26.0111)
(-1.38848e-16 20.9685 -25.1633)
(5.67994e-16 28.6078 -23.0452)
(-8.77057e-16 35.4617 -19.8206)
(-3.8702e-15 54.1099 -16.2472)
(2.22594e-15 83.4498 -13.0956)
(1.03247e-14 102.019 -8.31548)
(-8.7222e-14 123.066 -5.30614)
(-3.14569e-16 -21.1619 18.9973)
(-3.46377e-16 -25.207 20.1407)
(-3.72232e-16 -27.7227 20.3893)
(-4.03275e-16 -30.2585 20.5567)
(-4.32606e-16 -32.4371 20.484)
(-4.59905e-16 -34.6391 20.1615)
(-4.81586e-16 -36.7036 19.668)
(-4.97391e-16 -38.8545 18.9685)
(-5.06753e-16 -40.6634 18.0109)
(-5.08564e-16 -41.9487 16.7561)
(-5.01793e-16 -42.9429 15.3069)
(-4.87254e-16 -44.5939 13.8566)
(-4.67348e-16 -47.108 12.3739)
(-4.42738e-16 -49.0348 10.5779)
(-4.12583e-16 -49.227 8.71003)
(-3.78525e-16 -46.4732 6.34604)
(-3.37116e-16 -45.8838 4.74488)
(-2.92274e-16 -49.0374 2.81638)
(-2.46178e-16 -49.0551 0.891576)
(-1.9979e-16 -49.2575 -0.981895)
(-1.55981e-16 -47.3388 -2.95171)
(-1.1739e-16 -47.2392 -4.63306)
(-8.25682e-17 -47.728 -6.5934)
(-5.16929e-17 -45.8894 -8.1586)
(-2.88581e-17 -43.3404 -9.68955)
(-2.08202e-17 -42.0439 -11.1319)
(-3.89241e-17 -40.2968 -12.6493)
(-8.1675e-17 -38.1688 -13.6573)
(-1.97747e-16 -34.3418 -14.6216)
(-2.77749e-16 -26.5752 -14.487)
(-2.57974e-16 -17.5927 -13.5816)
(-1.48278e-16 -9.85389 -12.8834)
(6.20811e-17 -5.87978 -13.7616)
(3.57924e-16 -10.1055 -15.7988)
(2.16635e-16 0.944113 -19.3156)
(-8.25259e-16 35.0339 -15.4555)
(-1.97343e-15 45.7467 -11.5218)
(-3.15486e-15 44.0226 -9.86515)
(-4.21979e-15 39.9176 -4.55529)
(-4.83953e-15 30.7496 -2.29925)
(-4.6067e-15 20.6729 -4.19587)
(-3.76967e-15 12.5015 -5.82522)
(-2.98456e-15 8.1708 -8.34173)
(-2.31732e-15 4.31533 -8.75495)
(-1.96172e-15 1.45595 -8.88867)
(-1.82564e-15 0.82009 -11.3626)
(-1.68033e-15 -8.85077 -4.63001)
(-2.36604e-15 15.5606 -18.805)
(-1.64156e-15 45.5957 -28.5352)
(-4.10517e-16 53.8206 -29.3049)
(1.32592e-16 45.5058 -27.4584)
(1.54805e-16 31.8365 -25.8338)
(6.16857e-17 17.747 -24.9894)
(-2.14249e-18 6.26466 -22.4)
(-2.47351e-18 -1.66158 -22.7167)
(-3.1098e-17 -7.29043 -22.7478)
(-9.87304e-17 -8.56582 -18.8083)
(-8.49419e-17 10.7752 -32.2789)
(-3.45695e-17 30.0702 -38.7004)
(-7.472e-18 -28.6489 -31.8873)
(1.2913e-18 -96.183 -31.399)
(5.48263e-19 -98.3127 -29.2917)
(5.52476e-20 -80.6792 -26.9706)
(5.08795e-20 -65.0557 -26.0531)
(7.49146e-20 -52.6701 -25.7369)
(4.13249e-20 -42.1284 -25.6849)
(1.31244e-19 -32.6027 -25.7734)
(3.05529e-19 -23.6342 -25.9098)
(4.3384e-19 -14.9069 -26.0317)
(-1.28021e-18 -6.37523 -26.0734)
(-4.88543e-19 2.36824 -26.0913)
(1.59836e-17 11.1065 -25.6613)
(-1.39056e-16 20.5196 -24.6623)
(6.13581e-16 27.7824 -22.4586)
(-1.0484e-15 34.4399 -19.3232)
(-4.0532e-15 53.131 -16.0642)
(2.53068e-15 82.2588 -13.2211)
(8.75185e-15 100.626 -8.40734)
(-6.90512e-14 120.723 -4.28738)
(-3.16807e-16 -21.2789 19.1016)
(-3.49186e-16 -25.3432 20.2929)
(-3.75237e-16 -27.768 20.5061)
(-4.06034e-16 -30.2794 20.6634)
(-4.35064e-16 -32.4158 20.5577)
(-4.61804e-16 -34.5791 20.2172)
(-4.82928e-16 -36.6087 19.7055)
(-4.98218e-16 -38.7128 18.9921)
(-5.07083e-16 -40.4659 18.0142)
(-5.08403e-16 -41.7022 16.7373)
(-5.01241e-16 -42.6778 15.2765)
(-4.86514e-16 -44.323 13.8316)
(-4.66554e-16 -46.7954 12.3532)
(-4.41914e-16 -48.6808 10.5707)
(-4.11829e-16 -48.8161 8.68553)
(-3.77782e-16 -46.102 6.31704)
(-3.3651e-16 -45.5619 4.71561)
(-2.91912e-16 -48.6693 2.8005)
(-2.46061e-16 -48.6923 0.87809)
(-1.9992e-16 -48.8876 -0.993067)
(-1.56334e-16 -46.9938 -2.95459)
(-1.17894e-16 -46.8934 -4.63619)
(-8.3191e-17 -47.3905 -6.59963)
(-5.23789e-17 -45.5973 -8.16963)
(-2.9388e-17 -43.0627 -9.68626)
(-2.07506e-17 -41.7647 -11.1368)
(-3.7651e-17 -40.0619 -12.6735)
(-7.84767e-17 -37.9854 -13.7321)
(-1.90771e-16 -34.2643 -14.7405)
(-2.73954e-16 -26.6806 -14.6891)
(-2.64486e-16 -17.7417 -13.7942)
(-1.76293e-16 -9.87149 -12.8897)
(-8.3578e-18 -5.63443 -13.5883)
(3.26604e-16 -9.42184 -15.9231)
(1.96498e-16 1.47324 -20.1034)
(-7.34564e-16 34.3789 -16.5849)
(-1.81922e-15 45.3372 -12.5245)
(-2.97548e-15 43.6319 -11.0032)
(-4.03304e-15 39.3079 -6.51518)
(-4.74206e-15 30.6046 -4.01864)
(-4.72625e-15 21.4154 -5.95497)
(-4.09287e-15 13.5742 -7.67129)
(-3.24457e-15 7.82835 -10.4238)
(-2.52824e-15 3.58853 -10.8425)
(-2.0819e-15 1.29309 -10.8588)
(-1.89166e-15 0.423698 -12.6549)
(-1.64794e-15 -7.74989 -5.42467)
(-2.41122e-15 17.6817 -20.4969)
(-1.64527e-15 46.2722 -29.2105)
(-3.90126e-16 53.6607 -29.5087)
(1.40659e-16 45.2076 -27.4005)
(1.4609e-16 31.6309 -25.6822)
(4.61095e-17 17.4534 -24.6289)
(-1.78827e-17 6.02149 -21.511)
(-2.54133e-17 -1.56827 -20.8888)
(-4.19976e-17 -7.45994 -21.2955)
(-1.01237e-16 -7.74452 -19.8283)
(-7.94296e-17 11.9807 -33.3381)
(-2.99373e-17 29.9731 -40.3937)
(-7.17327e-18 -30.2551 -32.4109)
(1.18077e-18 -96.6368 -31.4146)
(6.25495e-19 -98.7758 -29.4846)
(6.95167e-20 -80.9567 -26.9644)
(4.59886e-20 -65.1309 -25.9898)
(7.37709e-20 -52.6587 -25.6703)
(4.24452e-20 -42.0802 -25.6217)
(1.19595e-19 -32.5399 -25.7105)
(2.80215e-19 -23.5739 -25.8433)
(5.50212e-19 -14.8639 -25.959)
(-1.48361e-18 -6.35942 -25.9801)
(-2.10844e-19 2.2922 -25.9373)
(1.48961e-17 10.9512 -25.3905)
(-1.39364e-16 20.2569 -24.3792)
(6.34685e-16 27.3785 -22.1624)
(-1.14992e-15 33.9704 -19.0615)
(-4.14335e-15 52.676 -15.951)
(2.73779e-15 81.6733 -13.2963)
(7.75842e-15 99.9088 -8.47745)
(-5.64974e-14 119.029 -4.02101)
(-3.19219e-16 -21.3909 19.2581)
(-3.52174e-16 -25.4587 20.4751)
(-3.78382e-16 -27.8036 20.647)
(-4.08903e-16 -30.2935 20.7929)
(-4.37595e-16 -32.3945 20.6532)
(-4.63745e-16 -34.5282 20.2936)
(-4.84291e-16 -36.5302 19.7617)
(-4.99048e-16 -38.5966 19.0304)
(-5.07397e-16 -40.3042 18.0288)
(-5.08212e-16 -41.5026 16.7293)
(-5.00653e-16 -42.4674 15.2585)
(-4.85738e-16 -44.1107 13.8171)
(-4.65723e-16 -46.5512 12.3386)
(-4.41054e-16 -48.4022 10.5634)
(-4.11042e-16 -48.4915 8.65921)
(-3.77012e-16 -45.8152 6.28989)
(-3.35884e-16 -45.319 4.68826)
(-2.91538e-16 -48.3884 2.78295)
(-2.45942e-16 -48.4167 0.861912)
(-2.00057e-16 -48.6052 -1.00749)
(-1.56702e-16 -46.731 -2.96274)
(-1.18419e-16 -46.6268 -4.64487)
(-8.38412e-17 -47.1275 -6.61021)
(-5.30969e-17 -45.3711 -8.18688)
(-2.99517e-17 -42.8456 -9.69314)
(-2.0708e-17 -41.5391 -11.1518)
(-3.63778e-17 -39.8628 -12.7077)
(-7.52328e-17 -37.819 -13.8194)
(-1.83594e-16 -34.1803 -14.8726)
(-2.69483e-16 -26.7487 -14.9135)
(-2.69827e-16 -17.8687 -14.0511)
(-2.01923e-16 -9.89257 -13.0621)
(-7.49616e-17 -5.37766 -13.4019)
(2.80643e-16 -8.61566 -16.1828)
(1.64812e-16 1.80715 -20.8926)
(-6.304e-16 33.4596 -17.901)
(-1.64166e-15 44.7415 -13.7802)
(-2.76661e-15 42.9934 -12.4272)
(-3.82631e-15 38.5422 -8.66607)
(-4.60593e-15 30.6494 -5.95283)
(-4.80712e-15 21.9279 -7.41678)
(-4.36723e-15 14.1693 -9.53228)
(-3.52415e-15 8.3861 -12.2809)
(-2.72765e-15 3.80235 -12.7718)
(-2.20292e-15 1.36513 -12.9009)
(-1.94175e-15 0.0616851 -13.4697)
(-1.62634e-15 -6.76883 -6.95918)
(-2.46941e-15 20.2789 -22.2522)
(-1.64366e-15 47.2121 -30.0274)
(-3.62927e-16 53.4569 -29.8039)
(1.51146e-16 44.7808 -27.3115)
(1.35882e-16 31.3178 -25.4393)
(2.7401e-17 16.9707 -24.0277)
(-3.68341e-17 5.53913 -20.4033)
(-4.55767e-17 -1.6416 -18.8553)
(-5.6459e-17 -7.44189 -19.1622)
(-1.06217e-16 -6.12261 -19.8169)
(-7.0797e-17 14.5073 -34.5403)
(-2.40045e-17 29.8685 -41.1398)
(-6.40339e-18 -31.3232 -32.9855)
(1.06343e-18 -96.9787 -31.3076)
(6.8377e-19 -99.2011 -29.5313)
(8.65941e-20 -81.2582 -26.9487)
(4.15203e-20 -65.234 -25.9278)
(7.21865e-20 -52.674 -25.5966)
(4.37098e-20 -42.0604 -25.5476)
(1.08801e-19 -32.5061 -25.6367)
(2.48219e-19 -23.5422 -25.7657)
(6.81686e-19 -14.8489 -25.8739)
(-1.67277e-18 -6.3708 -25.8654)
(6.93832e-19 2.23803 -25.7639)
(1.25625e-17 10.7886 -25.1099)
(-1.37259e-16 19.9121 -24.0767)
(6.61606e-16 26.7897 -21.8187)
(-1.29465e-15 33.2991 -18.7636)
(-4.25952e-15 52.0618 -15.8462)
(2.97752e-15 80.8771 -13.4135)
(6.62429e-15 98.9706 -8.61452)
(-4.05537e-14 116.965 -5.74554)
(-3.21739e-16 -21.5395 19.4576)
(-3.5525e-16 -25.5833 20.6882)
(-3.81566e-16 -27.8384 20.8159)
(-4.11786e-16 -30.2861 20.9495)
(-4.40111e-16 -32.3393 20.7746)
(-4.65662e-16 -34.4313 20.3946)
(-4.8563e-16 -36.3973 19.8404)
(-4.99852e-16 -38.4162 19.0879)
(-5.07682e-16 -40.0675 18.0596)
(-5.07994e-16 -41.2195 16.7365)
(-5.00046e-16 -42.1716 15.2556)
(-4.84952e-16 -43.8159 13.8149)
(-4.64882e-16 -46.2252 12.3329)
(-4.40188e-16 -48.0344 10.5599)
(-4.10248e-16 -48.0642 8.63549)
(-3.7624e-16 -45.4158 6.26617)
(-3.3526e-16 -44.9677 4.66246)
(-2.91166e-16 -48.0069 2.76372)
(-2.45825e-16 -48.0394 0.84287)
(-2.00198e-16 -48.2248 -1.02573)
(-1.57074e-16 -46.3688 -2.97672)
(-1.1895e-16 -46.2614 -4.66076)
(-8.4498e-17 -46.7734 -6.62825)
(-5.38239e-17 -45.0623 -8.21327)
(-3.05325e-17 -42.5486 -9.71265)
(-2.06974e-17 -41.2328 -11.1802)
(-3.51518e-17 -39.5906 -12.7566)
(-7.20536e-17 -37.5912 -13.9248)
(-1.7646e-16 -34.0602 -15.0289)
(-2.64458e-16 -26.8235 -15.1675)
(-2.73669e-16 -18.0497 -14.3476)
(-2.24301e-16 -9.98765 -13.3639)
(-1.32517e-16 -5.05496 -13.3244)
(2.16201e-16 -7.85951 -16.4)
(1.09678e-16 2.33109 -21.4581)
(-5.49043e-16 32.7044 -19.1908)
(-1.48247e-15 44.2304 -15.1272)
(-2.57187e-15 42.5617 -13.8486)
(-3.62465e-15 37.9 -10.7585)
(-4.43608e-15 30.5532 -8.06065)
(-4.80562e-15 22.0579 -9.0734)
(-4.53117e-15 14.3698 -11.3441)
(-3.77282e-15 8.62598 -14.0867)
(-2.93328e-15 3.94805 -14.5936)
(-2.33218e-15 1.36446 -14.8399)
(-1.98221e-15 -0.317584 -14.0853)
(-1.64541e-15 -5.99784 -9.01352)
(-2.53478e-15 22.4227 -23.9254)
(-1.64244e-15 47.8705 -30.881)
(-3.40502e-16 53.1498 -30.1993)
(1.58936e-16 44.327 -27.2777)
(1.25543e-16 30.9807 -25.209)
(9.75956e-18 16.4207 -23.2939)
(-5.31371e-17 4.95442 -19.4271)
(-6.25506e-17 -1.78734 -16.9512)
(-7.31545e-17 -7.26894 -16.4565)
(-1.09379e-16 -4.62041 -19.5956)
(-6.06923e-17 16.5146 -35.4915)
(-1.86545e-17 29.7708 -41.3084)
(-5.4353e-18 -32.281 -33.3696)
(9.53974e-19 -97.236 -31.1088)
(7.20563e-19 -99.6668 -29.4761)
(1.04722e-19 -81.6277 -26.9152)
(3.79249e-20 -65.3865 -25.8575)
(7.02456e-20 -52.7227 -25.5107)
(4.50334e-20 -42.0662 -25.4594)
(9.95034e-20 -32.4929 -25.5489)
(2.10737e-19 -23.5263 -25.6737)
(8.15636e-19 -14.8452 -25.7725)
(-1.86073e-18 -6.38829 -25.7307)
(1.62276e-18 2.15254 -25.5769)
(9.95565e-18 10.6079 -24.8297)
(-1.33295e-16 19.5943 -23.7935)
(6.86644e-16 26.2763 -21.4935)
(-1.46071e-15 32.7436 -18.4818)
(-4.36935e-15 51.5662 -15.7523)
(3.22356e-15 80.1922 -13.5419)
(5.53723e-15 98.1653 -8.73704)
(-2.80629e-14 115.159 -4.56174)
(-3.24357e-16 -21.6915 19.697)
(-3.58395e-16 -25.707 20.9323)
(-3.84769e-16 -27.8684 21.0154)
(-4.14663e-16 -30.2732 21.1346)
(-4.42596e-16 -32.2769 20.9239)
(-4.67539e-16 -34.3264 20.5218)
(-4.86933e-16 -36.2545 19.9433)
(-5.00623e-16 -38.2229 19.1666)
(-5.07934e-16 -39.8148 18.1091)
(-5.07748e-16 -40.9196 16.7608)
(-4.99426e-16 -41.8601 15.269)
(-4.84159e-16 -43.5052 13.8265)
(-4.64037e-16 -45.8808 12.3382)
(-4.39322e-16 -47.6434 10.5629)
(-4.09454e-16 -47.6099 8.61606)
(-3.75472e-16 -44.9914 6.24557)
(-3.34643e-16 -44.5938 4.6384)
(-2.90798e-16 -47.6006 2.74366)
(-2.45711e-16 -47.6364 0.821075)
(-2.00341e-16 -47.8189 -1.04838)
(-1.57448e-16 -45.9828 -2.99722)
(-1.19482e-16 -45.872 -4.68468)
(-8.51577e-17 -46.3965 -6.65555)
(-5.45558e-17 -44.7347 -8.25085)
(-3.1127e-17 -42.2344 -9.74622)
(-2.07197e-17 -40.9079 -11.2242)
(-3.39821e-17 -39.2991 -12.8232)
(-6.89559e-17 -37.3454 -14.0511)
(-1.69412e-16 -33.9232 -15.2148)
(-2.58947e-16 -26.8877 -15.4549)
(-2.76007e-16 -18.2339 -14.6886)
(-2.43299e-16 -10.1207 -13.7522)
(-1.80418e-16 -4.72321 -13.4319)
(1.36665e-16 -7.05465 -16.5327)
(4.22775e-17 2.91427 -21.8894)
(-4.80705e-16 32.007 -20.4742)
(-1.33536e-15 43.7088 -16.5756)
(-2.38628e-15 42.147 -15.3256)
(-3.42795e-15 37.3177 -12.8135)
(-4.25219e-15 30.4051 -10.1735)
(-4.73238e-15 22.5186 -10.7501)
(-4.6349e-15 14.8395 -12.9426)
(-3.99693e-15 8.87975 -15.7884)
(-3.14914e-15 4.01594 -16.4029)
(-2.47319e-15 1.23536 -16.689)
(-2.02076e-15 -0.747202 -14.7093)
(-1.72315e-15 -5.23228 -11.2156)
(-2.60456e-15 24.4275 -25.5176)
(-1.6388e-15 48.4555 -31.8008)
(-3.19791e-16 52.7616 -30.7134)
(1.66103e-16 43.7919 -27.2968)
(1.15628e-16 30.5523 -24.9626)
(-7.38237e-18 15.8038 -22.3984)
(-6.80006e-17 4.2474 -18.614)
(-7.6849e-17 -2.13697 -15.2936)
(-9.08023e-17 -6.96872 -13.1417)
(-1.07599e-16 -2.50888 -19.7462)
(-4.97567e-17 18.7797 -36.2403)
(-1.41266e-17 29.5702 -40.9692)
(-4.50907e-18 -33.4484 -33.4818)