/*--------------------------------*- C++ -*----------------------------------*\
| =========                 |                                                 |
| \\      /  F ield         | OpenFOAM: The Open Source CFD Toolbox           |
|  \\    /   O peration     | Version:  4.1                                   |
|   \\  /    A nd           | Web:      www.OpenFOAM.org                      |
|    \\/     M anipulation  |                                                 |
\*---------------------------------------------------------------------------*/
FoamFile
{
    version     2.0;
    format      ascii;
    class       volScalarField;
    location    "23";
    object      p;
}
// * * * * * * * * * * * * * * * * * * * * * * * * * * * * * * * * * * * * * //

dimensions      [0 2 -2 0 0 0 0];

internalField   nonuniform List<scalar> 
6785
(
579.841
501.224
454.171
400.743
353.985
308.99
267.114
227.539
190.212
154.983
121.084
88.111
59.9754
31.0656
-9.22487
-36.8725
-54.6078
-44.8003
-51.9348
-51.437
-53.9294
-54.6721
-55.2428
-54.8779
-53.6679
-51.4396
-48.4449
-44.3179
-39.1515
-35.1756
-15.0194
-18.0668
-8.70245
-12.559
-8.30237
-8.75509
-7.34318
-6.97244
-6.37964
-6.03503
-5.70843
-5.57997
-5.17367
-4.61926
-1.80198
23.2143
22.4643
26.0735
22.4002
25.1163
23.4301
24.382
24.2191
24.7414
24.9264
24.9616
24.5756
24.5141
24.8118
26.3759
28.1962
26.4046
28.7189
25.8812
28.4576
26.7828
27.9665
27.3542
27.4711
26.9459
26.3421
25.6079
25.1595
24.9882
23.7854
9.54725
5.45554
6.38056
2.6968
3.26277
0.405939
0.158467
-1.74451
-2.44204
-3.57465
-4.3134
-5.16345
-6.04628
-7.64827
-10.2208
-24.8064
-28.9713
-28.5646
-31.9808
-32.1337
-35.2622
-36.3306
-38.992
-40.7451
-42.7206
-44.2703
-45.541
-46.4794
-47.1362
-45.561
-32.9756
-34.2193
-32.5925
-34.335
-32.9458
-34.2949
-33.7467
-34.456
-34.4771
-34.5943
-34.0809
-33.0507
-31.066
-29.2537
-26.1557
-8.59122
-7.39098
-5.15101
-5.01667
-2.60341
-1.95382
0.0119873
1.3411
3.08387
4.75047
6.57396
8.30768
10.235
11.631
13.7387
10.2765
11.7144
13.3221
13.6609
15.438
15.9695
17.3432
18.2152
19.2988
20.2478
21.2266
22.0724
23.0066
23.6203
24.4896
23.4256
24.639
25.7286
25.9353
27.1787
27.4442
28.3384
28.8352
29.4806
30.0491
30.6753
31.2627
32.0295
32.5496
33.4921
34.3064
35.4724
36.2006
36.455
37.3634
37.5226
38.1987
38.5202
39.0346
39.5594
40.1764
40.8594
41.6814
42.2876
43.1667
52.5306
52.3651
51.8372
51.5938
51.8758
51.6122
51.6658
51.2767
50.8673
50.1196
49.2274
48.5724
48.1545
48.3081
48.0943
45.417
45.319
43.3806
41.0569
38.8767
36.6831
35.3134
33.9948
32.988
31.8698
30.9331
30.2492
29.8567
30.0843
29.1137
75.5244
72.1452
65.0425
57.9084
51.9912
45.9352
41.9039
38.9597
35.8183
33.4372
31.1167
28.6599
26.4205
25.0448
23.2808
42.1626
42.6141
43.0038
42.9764
43.1484
43.7239
44.4928
44.3015
44.2115
44.126
44.6707
44.1189
44.0044
44.2454
43.4574
43.2833
43.4191
43.536
42.2021
42.7995
42.8206
41.5275
41.3679
42.1796
42.1867
40.7689
40.658
41.5666
42.0021
40.1957
41.4467
41.9043
40.5591
40.4943
41.572
42.1237
40.7007
41.8184
42.3244
41.4471
41.4413
42.3281
42.6909
42.064
42.1105
42.825
43.0131
42.4473
43.3118
43.4192
43.0921
43.2837
43.8531
44.4567
44.2855
44.4234
44.7405
45.767
45.7136
45.7183
46.8058
46.7725
46.7013
46.6109
47.3445
47.4878
48.4736
48.6408
47.731
49.3058
51.1728
45.827
43.279
47.5161
52.975
30.0143
42.1415
50.8925
6.04786
21.0665
31.3858
31.8268
37.4885
33.2382
33.2006
40.3098
41.236
43.1482
44.2022
44.7659
43.5823
46.5242
54.1079
36.8521
36.902
35.979
35.0694
33.2324
31.9701
29.0402
31.1939
41.8572
22.8182
22.302
19.62
18.7812
20.1718
19.9082
17.9105
16.401
16.2842
30.261
19.1109
17.7841
15.9979
13.9239
14.5201
16.4902
15.966
12.1271
16.8514
20.3213
21.8883
21.7588
19.1622
17.1063
14.6698
16.7262
12.6272
18.9831
26.2648
20.471
19.9914
18.4248
15.599
13.5609
12.1851
4.34157
8.27258
23.5845
18.3563
17.0644
14.4597
10.6224
7.9002
7.66362
6.69853
3.86205
0.740483
12.2657
8.91552
9.54095
9.08828
8.3206
3.88889
2.9437
5.26301
-6.72721
9.30274
6.10817
3.29063
10.3827
5.85298
8.4913
8.24915
9.25929
11.3277
9.86359
10.7518
11.5211
11.1788
11.3879
11.4618
11.4174
11.5244
11.5251
11.5314
11.5046
11.502
11.4316
11.3922
11.2241
10.9448
10.9396
10.7021
10.3826
10.3121
9.98147
10.0821
9.85179
9.44384
9.45744
9.11773
9.25159
9.07848
8.624
8.81396
8.6366
8.23722
8.28382
7.9381
8.15502
7.8392
7.35901
7.42328
6.98146
7.30804
6.91564
6.19997
6.78933
6.26959
5.62418
5.7787
5.19809
5.8397
5.20073
4.54681
4.72915
4.12711
4.86496
4.26235
3.33637
4.39944
3.65599
2.99862
3.22886
2.61272
3.55402
2.70034
2.12494
2.28581
1.6929
2.57013
1.74175
0.77566
1.93412
0.8064
0.157516
0.121232
-0.509939
0.000301317
0.0122297
0.0107702
0.0174537
0.0188574
0.0232772
0.0260757
0.0298891
0.0333604
0.0371885
0.041052
0.0453919
0.0508656
0.0587249
0.0699396
0.0840172
0.0982288
0.108495
0.111413
0.105921
0.0935325
0.0772392
0.059992
0.0437357
0.0292723
0.0166266
0.00545459
-0.00473579
-0.0144968
-0.0243709
-0.034806
-0.0460347
-0.0578761
-0.0698155
-0.085876
-0.150186
-0.245836
-0.269048
-0.579431
-0.437349
-0.544103
-0.699773
-0.835968
-0.965414
-1.06946
-1.12783
-1.14204
-1.11775
-1.05685
-0.964345
-0.844753
-0.703322
-0.546338
-0.382444
-0.212569
-0.0389674
0.134065
0.309712
0.512831
0.702366
0.864049
0.980401
1.03106
1.0268
0.970658
0.870457
0.737782
0.590899
0.43667
0.309291
0.180071
0.125892
0.0321365
0.0222891
0.100965
0.0919219
0.17139
0.0111297
0.390601
-0.0021402
0.0306761
0.0254012
0.0439186
0.0466699
0.0582795
0.0650453
0.0746993
0.0833624
0.0929789
0.102118
0.110253
0.115482
0.115943
0.110253
0.098795
0.0840553
0.0699218
0.059936
0.0556322
0.0560886
0.0588211
0.0611077
0.0609539
0.0574632
0.0507253
0.0413345
0.0297241
0.0156947
-0.00163394
-0.0235522
-0.0514735
-0.0869309
-0.130462
-0.181148
-0.314214
-0.529734
-0.342559
-0.832964
-0.614554
-0.826778
-1.09673
-1.33429
-1.55699
-1.72628
-1.80979
-1.8127
-1.74134
-1.59637
-1.39005
-1.1327
-0.836214
-0.514545
-0.178256
0.163691
0.501779
0.829584
1.15232
1.4604
1.7195
1.91957
2.04118
2.08024
2.03731
1.9126
1.71287
1.45381
1.16895
0.868626
0.622287
0.372749
0.280889
0.112522
0.0752325
0.220058
0.220016
0.419489
0.0937956
0.937372
-0.00389803
0.0520428
0.0437908
0.0753012
0.0804897
0.100414
0.112297
0.128997
0.144095
0.160918
0.177375
0.193253
0.20654
0.215584
0.219026
0.216866
0.21038
0.201507
0.19176
0.181633
0.170754
0.158366
0.143701
0.126247
0.105949
0.0832594
0.0587786
0.0325806
0.00375359
-0.0294933
-0.0693306
-0.117809
-0.176512
-0.244893
-0.323452
-0.525611
-0.846751
-0.27685
-0.882974
-0.646709
-0.909521
-1.23515
-1.51931
-1.78457
-1.98443
-2.07989
-2.07831
-1.98607
-1.80395
-1.54787
-1.23036
-0.866238
-0.471941
-0.0602138
0.356927
0.768233
1.16539
1.55136
1.90781
2.20251
2.42645
2.55606
2.59082
2.5308
2.37406
2.12683
1.80732
1.45543
1.08638
0.783022
0.482575
0.375657
0.202862
0.152399
0.394132
0.393039
0.718391
0.180305
1.1252
-0.0071022
0.0716496
0.0597741
0.103844
0.110983
0.138657
0.155142
0.178266
0.199158
0.222341
0.244791
0.265894
0.282404
0.291479
0.290809
0.280568
0.263713
0.244907
0.228137
0.214965
0.204372
0.193851
0.180713
0.163079
0.140359
0.113151
0.082483
0.0486556
0.0105213
-0.0343376
-0.0888559
-0.155761
-0.237007
-0.33136
-0.4371
-0.672962
-1.04108
-0.242309
-1.09484
-0.786421
-1.08176
-1.48904
-1.84096
-2.16688
-2.41247
-2.5281
-2.52386
-2.40752
-2.18042
-1.86268
-1.46976
-1.02014
-0.533557
-0.0262562
0.486799
0.992496
1.48012
1.9514
2.38523
2.74503
3.02048
3.18047
3.22329
3.15021
2.95772
2.65253
2.25721
1.82021
1.36333
0.986205
0.618675
0.483984
0.295787
0.23324
0.544779
0.554745
0.989957
0.289092
1.32255
-0.0110295
0.0918744
0.076057
0.133031
0.142276
0.177869
0.199168
0.228866
0.255664
0.285109
0.313146
0.338766
0.357957
0.36773
0.36631
0.355156
0.338377
0.320711
0.305104
0.291783
0.278839
0.263506
0.243294
0.21676
0.183878
0.145842
0.1041
0.0589233
0.00861514
-0.050101
-0.120985
-0.207287
-0.310871
-0.429226
-0.558708
-0.811541
-1.19631
-0.312924
-1.29881
-0.930451
-1.25299
-1.75244
-2.17884
-2.57118
-2.86699
-3.00409
-2.99664
-2.85358
-2.57646
-2.19011
-1.7133
-1.16866
-0.579835
0.0336433
0.653086
1.26276
1.84964
2.41486
2.93023
3.35617
3.68182
3.86971
3.91928
3.83089
3.59905
3.23018
2.7514
2.2207
1.66667
1.20842
0.766329
0.599632
0.394373
0.32746
0.706349
0.730788
1.27036
0.436299
1.60473
-0.0162603
0.111922
0.091385
0.16132
0.172495
0.21583
0.24181
0.277818
0.310132
0.345072
0.377386
0.405551
0.42488
0.432473
0.427403
0.4125
0.392894
0.373649
0.357516
0.344237
0.331203
0.314858
0.292031
0.260948
0.221709
0.175994
0.125742
0.0713056
0.0105128
-0.0607
-0.146791
-0.251346
-0.376034
-0.517205
-0.668145
-0.922368
-1.31414
-0.550538
-1.43501
-1.06798
-1.40619
-1.99915
-2.49741
-2.95222
-3.29516
-3.45051
-3.43808
-3.26787
-2.94172
-2.48915
-1.93196
-1.29685
-0.611032
0.102854
0.822556
1.53005
2.21008
2.86323
3.45458
3.94217
4.31486
4.52939
4.58618
4.48419
4.21576
3.78636
3.22765
2.6067
1.95945
1.4235
0.911456
0.713931
0.498153
0.431258
0.865876
0.911828
1.54691
0.608922
1.89459
-0.0228023
0.13245
0.106317
0.189455
0.202496
0.25353
0.284174
0.326287
0.363676
0.40315
0.438227
0.467035
0.484748
0.489432
0.481831
0.466235
0.448082
0.431681
0.418561
0.407312
0.394474
0.376
0.348568
0.310605
0.262763
0.207492
0.147344
0.0827164
0.0108389
-0.0732311
-0.174611
-0.297054
-0.441875
-0.604436
-0.775218
-1.02652
-1.42492
-0.918433
-1.43079
-1.21551
-1.5597
-2.25264
-2.82602
-3.34342
-3.7342
-3.90693
-3.88845
-3.68999
-3.31393
-2.79458
-2.15676
-1.43131
-0.648885
0.16463
0.983563
1.78781
2.55994
3.3001
3.96794
4.51864
4.94077
5.18507
5.25205
5.13897
4.83591
4.34687
3.70841
2.99668
2.25584
1.64174
1.06076
0.830018
0.607585
0.545976
1.03036
1.10332
1.82675
0.790557
2.21146
-0.0309798
0.15345
0.120584
0.21713
0.231889
0.290478
0.325633
0.373387
0.414999
0.457541
0.493438
0.520788
0.535278
0.536613
0.527219
0.512106
0.496278
0.483078
0.473075
0.464076
0.451987
0.432239
0.401185
0.357279
0.301661
0.2376
0.168338
0.0943245
0.01214
-0.0840453
-0.19989
-0.339112
-0.50261
-0.685153
-0.874958
-1.12412
-1.52131
-1.29283
-1.25537
-1.38415
-1.71516
-2.51222
-3.16571
-3.74651
-4.18643
-4.37609
-4.35064
-4.12251
-3.69491
-3.10711
-2.387
-1.56974
-0.689369
0.224884
1.14393
2.04563
2.9105
3.73834
4.48375
5.09885
5.57203
5.84839
5.92796
5.80568
5.46912
4.92014
4.20064
3.39602
2.55962
1.86569
1.21578
0.949201
0.722821
0.67092
1.19815
1.30409
2.10886
1.05094
2.55147
-0.04102
0.175233
0.134306
0.244511
0.260846
0.326811
0.366219
0.418889
0.463496
0.507303
0.541976
0.56612
0.576781
0.575698
0.566523
0.55422
0.542878
0.534697
0.529211
0.523387
0.512453
0.491347
0.45618
0.405589
0.341409
0.267956
0.18931
0.105952
0.0136853
-0.0942784
-0.224064
-0.379195
-0.560127
-0.761448
-0.970078
-1.2214
-1.60387
-1.56791
-1.07232
-1.59012
-1.87761
-2.77482
-3.51417
-4.15849
-4.64763
-4.85282
-4.819
-4.55954
-4.0788
-3.42114
-2.61764
-1.70786
-0.729158
0.285873
1.30475
2.30345
3.26054
4.17554
4.99841
5.67822
6.20324
6.51325
6.60765
6.47819
6.10963
5.50088
4.69964
3.80068
2.86761
2.09297
1.37531
1.07147
0.844092
0.80629
1.37108
1.51477
2.39496
1.35883
2.89699
-0.0532619
0.197981
0.14743
0.271527
0.289252
0.362283
0.405436
0.461889
0.507849
0.550887
0.582407
0.602289
0.609576
0.607709
0.600663
0.5927
0.586821
0.584205
0.583557
0.581161
0.571635
0.549389
0.510234
0.452968
0.380219
0.29753
0.209935
0.11788
0.0162203
-0.102865
-0.245863
-0.415953
-0.613134
-0.832181
-1.05968
-1.31838
-1.68184
-1.75414
-1.08785
-1.75242
-2.05052
-3.04084
-3.87389
-4.58276
-5.12089
-5.33977
-5.29594
-5.00327
-4.46752
-3.73835
-2.85013
-1.847
-0.769473
0.346393
1.46481
2.55999
3.6087
4.61024
5.51052
6.25575
6.83377
7.17884
7.29072
7.15639
6.75753
6.08918
5.20542
4.2105
3.17956
2.32333
1.5394
1.19734
0.971552
0.951701
1.5492
1.73478
2.6847
1.67327
3.26662
-0.0680722
0.221958
0.159992
0.298189
0.317058
0.396642
0.442688
0.501383
0.546801
0.587061
0.614057
0.629744
0.635153
0.634542
0.63144
0.629158
0.629695
0.633363
0.638145
0.639649
0.631829
0.608502
0.565143
0.500783
0.419047
0.326984
0.230723
0.130522
0.0200137
-0.109749
-0.265487
-0.44989
-0.662527
-0.898617
-1.14529
-1.41681
-1.76971
-1.91304
-1.34355
-1.71773
-2.24358
-3.31281
-4.24657
-5.02219
-5.60917
-5.83941
-5.78361
-5.45562
-4.86277
-4.06005
-3.08544
-1.98776
-0.810575
0.406481
1.6244
2.81577
3.95571
5.04334
6.02109
6.83262
7.46489
7.84637
7.9785
7.84177
7.41432
6.6863
5.71886
4.62592
3.4956
2.55665
1.708
1.32732
1.10529
1.10682
1.73304
1.96383
2.97856
2.0454
3.66156
-0.0859083
0.247422
0.171987
0.324413
0.344049
0.429347
0.477023
0.53611
0.579019
0.614845
0.636951
0.649653
0.655186
0.657691
0.659854
0.664064
0.671501
0.68179
0.692298
0.697984
0.69209
0.667757
0.620064
0.548323
0.457391
0.356134
0.25185
0.144298
0.0255028
-0.114633
-0.282808
-0.481089
-0.708722
-0.961532
-1.22774
-1.51635
-1.87004
-2.05948
-1.65394
-1.50883
-2.49448
-3.59948
-4.63312
-5.47873
-6.11461
-6.35339
-6.28302
-5.91724
-5.26497
-4.38642
-3.32348
-2.12988
-0.852078
0.466594
1.784
3.07125
4.30196
5.47514
6.53033
7.4089
8.09648
8.5156
8.67099
8.53445
8.08018
7.29226
6.23971
5.04639
3.81498
2.79215
1.88054
1.4616
1.24522
1.27099
1.92253
2.20095
3.27539
2.42649
4.07083
-0.107326
0.274673
0.183416
0.350051
0.369849
0.459604
0.507313
0.564816
0.603439
0.634024
0.652116
0.663784
0.671415
0.678479
0.686804
0.69804
0.71275
0.73001
0.746618
0.756849
0.75314
0.727841
0.675573
0.596035
0.495646
0.385468
0.273942
0.159762
0.0329043
-0.117669
-0.298229
-0.510204
-0.752741
-1.02239
-1.30871
-1.61743
-1.98069
-2.19907
-1.89358
-1.38175
-2.80749
-3.91299
-5.03377
-5.95435
-6.6396
-6.88392
-6.7957
-6.38914
-5.67488
-4.71793
-3.5645
-2.27342
-0.893883
0.526904
1.9438
3.32659
4.64755
5.90564
7.03813
7.98446
8.72838
9.1863
9.36795
9.23445
8.7552
7.907
6.76763
5.47121
4.13681
3.02892
2.05624
1.60011
1.39104
1.44336
2.1175
2.44527
3.57505
2.84356
4.49912
-0.133035
0.304033
0.194221
0.374798
0.393806
0.486369
0.532351
0.586356
0.619533
0.645326
0.661233
0.673922
0.685205
0.697782
0.712788
0.731351
0.753576
0.778083
0.801125
0.816239
0.814954
0.7887
0.731578
0.643819
0.533845
0.415328
0.29756
0.17727
0.0421223
-0.11923
-0.312213
-0.53781
-0.795409
-1.08238
-1.38971
-1.72104
-2.1005
-2.34816
-2.12548
-1.55216
-3.06119
-4.26138
-5.44916
-6.45105
-7.18653
-7.43349
-7.32365
-6.87261
-6.09341
-5.05522
-3.80888
-2.41851
-0.935946
0.587574
2.10404
3.58203
4.99266
6.33496
7.54456
8.55932
9.36093
9.85928
10.0694
9.94196
9.43962
8.53053
7.30229
5.89965
4.46013
3.2659
2.23412
1.74251
1.54224
1.62285
2.31746
2.69549
3.8758
3.27192
4.95558
-0.163974
0.335858
0.204241
0.398127
0.415011
0.508509
0.55099
0.599975
0.627702
0.650321
0.666179
0.681574
0.69755
0.716195
0.738175
0.76427
0.794245
0.826314
0.856181
0.876569
0.877966
0.850733
0.788388
0.691926
0.572367
0.446389
0.323348
0.19688
0.0526819
-0.119899
-0.325306
-0.564517
-0.837516
-1.1426
-1.47227
-1.82879
-2.23008
-2.51638
-2.40245
-1.99462
-3.12772
-4.66001
-5.88247
-6.97081
-7.75763
-8.00447
-7.86901
-7.36911
-6.52147
-5.39882
-4.05693
-2.56523
-0.978156
0.648833
2.265
3.83785
5.33753
6.76324
8.04966
9.13348
9.99425
10.5347
10.7751
10.6571
10.1336
9.16273
7.84314
6.33077
4.78371
3.5018
2.41296
1.88817
1.69813
1.80829
2.52175
2.95053
4.17624
3.67478
5.40051
-0.201414
0.370508
0.213125
0.419244
0.432424
0.524926
0.562287
0.605701
0.629302
0.650925
0.668568
0.687806
0.709072
0.734076
0.763203
0.797006
0.834981
0.87496
0.912079
0.938159
0.942494
0.914199
0.846155
0.740471
0.611588
0.479345
0.351612
0.218087
0.0638291
-0.120232
-0.337925
-0.590756
-0.879604
-1.20382
-1.55751
-1.94208
-2.37036
-2.70418
-2.71143
-2.49545
-3.0319
-5.13867
-6.3425
-7.51528
-8.3551
-8.59904
-8.43399
-7.88035
-6.9601
-5.7493
-4.30894
-2.71368
-1.0204
0.710914
2.42697
4.09433
5.68235
7.19055
8.55341
9.70685
10.6282
11.2123
11.4848
11.3796
10.837
9.80333
8.38947
6.76342
5.10613
3.73514
2.59132
2.03621
1.85784
1.99846
2.72952
3.20938
4.47544
4.10375
5.85635
-0.247089
0.408305
0.220272
0.437179
0.445017
0.534622
0.565884
0.604595
0.626241
0.648875
0.669567
0.693298
0.720155
0.751679
0.7881
0.829818
0.876094
0.924395
0.96926
1.0015
1.00903
0.979497
0.905106
0.789654
0.65209
0.514857
0.382073
0.239921
0.0748255
-0.12059
-0.350298
-0.616782
-0.92202
-1.26656
-1.64621
-2.062
-2.52256
-2.91064
-3.03402
-2.93754
-2.96851
-5.73011
-6.84268
-8.08474
-8.98112
-9.21926
-9.02072
-8.40825
-7.41059
-6.10729
-4.56524
-2.86394
-1.06257
0.774053
2.59024
4.35174
6.0273
7.61699
9.05579
10.2793
11.2626
11.8925
12.199
12.1096
11.5499
10.4519
8.9404
7.19623
5.42576
3.96423
2.76757
2.18554
2.0204
2.19213
2.93982
3.47067
4.77113
4.53126
6.31557
-0.303265
0.449397
0.224886
0.450969
0.451784
0.536945
0.56242
0.598488
0.620378
0.645451
0.669914
0.698451
0.73105
0.769224
0.813115
0.863007
0.917951
0.975057
1.02823
1.06713
1.07808
1.04697
0.96532
0.839625
0.694528
0.553078
0.413637
0.261257
0.0852258
-0.12104
-0.362422
-0.64263
-0.964886
-1.33108
-1.73882
-2.18919
-2.68761
-3.13577
-3.36798
-3.35718
-3.14394
-6.41868
-7.3953
-8.67852
-9.63751
-9.86714
-9.63108
-8.95483
-7.87449
-6.47357
-4.82615
-3.0161
-1.10455
0.838502
2.75514
4.61039
6.37258
8.04263
9.55672
10.8508
11.8974
12.5758
12.9183
12.8469
12.272
11.108
9.49483
7.62764
5.74073
4.18718
2.9399
2.33486
2.18469
2.38812
3.15161
3.73322
5.06197
4.92931
6.74474
-0.372568
0.493539
0.226197
0.459714
0.451798
0.532081
0.55352
0.589349
0.613126
0.641463
0.670034
0.703514
0.741967
0.786952
0.838553
0.896953
0.961011
1.02749
1.08961
1.13572
1.15024
1.1169
1.02669
0.8906
0.739448
0.593212
0.444686
0.281319
0.0950282
-0.121364
-0.374076
-0.66814
-1.00814
-1.39742
-1.83549
-2.32385
-2.86581
-3.37959
-3.71924
-3.82805
-3.68072
-7.12986
-8.00714
-9.29519
-10.3253
-10.5448
-10.2667
-9.52195
-8.35352
-6.84912
-5.09207
-3.17022
-1.14621
0.904526
2.922
4.87059
6.71841
8.46752
10.0561
11.421
12.5322
13.2619
13.642
13.5908
13.003
11.7708
10.0514
8.05581
6.04896
4.40187
3.10632
2.48272
2.34956
2.58525
3.36382
3.99581
5.3467
5.3445
7.17119
-0.457151
0.539742
0.223581
0.462473
0.444667
0.521323
0.541222
0.578752
0.605384
0.637367
0.670177
0.708687
0.753136
0.805162
0.864788
0.932113
1.00582
1.08233
1.15412
1.20801
1.22603
1.18924
1.08884
0.942884
0.786715
0.633363
0.47375
0.299991
0.104631
-0.121116
-0.384862
-0.692998
-1.05155
-1.46543
-1.93607
-2.46575
-3.05668
-3.64118
-4.09092
-4.37114
-4.54329
-7.78085
-8.67714
-9.93492
-11.0445
-11.2545
-10.9292
-10.1112
-8.84941
-7.23511
-5.36353
-3.32641
-1.18741
0.972405
3.09117
5.13266
7.06498
8.89173
10.554
11.9897
13.167
13.9505
14.3704
14.342
13.7424
12.4395
10.6085
8.47866
6.34811
4.60596
3.26467
2.62751
2.51378
2.78245
3.57542
4.25693
5.62278
5.73737
7.58462
-0.556655
0.58572
0.216328
0.458449
0.431094
0.506669
0.527295
0.567713
0.597657
0.633421
0.670532
0.714184
0.764842
0.824221
0.892276
0.969037
1.05303
1.14034
1.22259
1.28475
1.30578
1.26346
1.15123
0.996708
0.834876
0.671165
0.500232
0.317809
0.114703
-0.119694
-0.39427
-0.716796
-1.09481
-1.53483
-2.04021
-2.61432
-3.25922
-3.91905
-4.48427
-4.98113
-5.61717
-8.28854
-9.40098
-10.6015
-11.7952
-11.9978
-11.6199
-10.7239
-9.36375
-7.63288
-5.64123
-3.4848
-1.228
1.04244
3.26303
5.39695
7.4125
9.31531
11.05
12.5568
13.8012
14.6413
15.1045
15.1016
14.4898
13.1129
11.1643
8.89378
6.63556
4.79685
3.4126
2.76751
2.6761
2.97868
3.7854
4.51515
5.88977
6.13445
7.94311
-0.665089
0.627131
0.203448
0.447632
0.412906
0.490067
0.512925
0.556791
0.590211
0.629801
0.671297
0.720271
0.777435
0.844569
0.921552
1.00836
1.10339
1.20237
1.29593
1.36663
1.3893
1.33835
1.21343
1.05156
0.881116
0.70495
0.524635
0.335707
0.126041
-0.11643
-0.401754
-0.739096
-1.13753
-1.6052
-2.14737
-2.76881
-3.47211
-4.21153
-4.89857
-5.63408
-6.73585
-8.59774
-10.1766
-11.3033
-12.5776
-12.7765
-12.3402
-11.3613
-9.89783
-8.04371
-5.92602
-3.64563
-1.26782
1.11494
3.43797
5.66383
7.76122
9.73832
11.5443
13.1219
14.4348
15.334
15.8439
15.8696
15.2444
13.7897
11.7164
9.29839
6.90839
4.97168
3.54758
2.90092
2.83525
3.17297
3.99283
4.76873
6.14529
6.50954
8.28031
-0.768774
0.657129
0.184117
0.431028
0.392255
0.472863
0.498768
0.546271
0.583216
0.62669
0.672719
0.727278
0.791333
0.86672
0.953232
1.05082
1.15774
1.26936
1.37502
1.45399
1.47552
1.41224
1.27514
1.10532
0.922376
0.734654
0.548238
0.354748
0.139464
-0.110675
-0.406807
-0.759493
-1.17934
-1.6761
-2.25696
-2.92836
-3.69405
-4.51712
-5.33179
-6.29878
-7.7295
-8.76778
-11.0347
-12.0549
-13.3927
-13.5912
-13.0912
-12.0244
-10.4527
-8.46871
-6.21889
-3.80927
-1.30677
1.19025
3.61641
5.93368
8.11135
10.1608
12.0365
13.6846
15.0671
16.0282
16.5881
16.6454
16.0049
14.4681
12.2621
9.68932
7.16332
5.12725
3.66689
3.02581
2.98997
3.36446
4.19687
5.0162
6.38909
6.84522
8.54735
-0.848722
0.66823
0.159474
0.410313
0.370889
0.455817
0.485145
0.536302
0.576836
0.624313
0.675102
0.735589
0.807014
0.891255
0.988005
1.09721
1.217
1.34227
1.4606
1.54645
1.5622
1.48362
1.33549
1.15435
0.957103
0.761774
0.57255
0.375933
0.155705
-0.101885
-0.409028
-0.77766
-1.21988
-1.74708
-2.36837
-3.09215
-3.92386
-4.83466
-5.78158
-6.95371
-8.53001
-8.96683
-12.0024
-12.8713
-14.2426
-14.4437
-13.873
-12.7141
-11.0291
-8.90869
-6.52074
-3.97619
-1.34476
1.26872
3.7988
6.2069
8.46315
10.5828
12.5265
14.2447
15.698
16.7236
17.3368
17.4292
16.7703
15.146
12.7983
10.0629
7.3967
5.26005
3.76755
3.14021
3.13899
3.55234
4.39681
5.2561
6.62061
7.18643
8.76279
-0.888063
0.653388
0.130682
0.387288
0.349836
0.439192
0.472221
0.527029
0.571277
0.62295
0.6788
0.74564
0.825006
0.918807
1.02661
1.14839
1.2821
1.422
1.55296
1.64236
1.64634
1.55156
1.39194
1.19517
0.986245
0.788539
0.598918
0.400098
0.175332
-0.0896809
-0.40816
-0.793371
-1.25888
-1.81771
-2.48103
-3.25945
-4.16054
-5.16319
-6.24596
-7.5953
-9.19927
-9.36195
-13.1096
-13.7654
-15.128
-15.3356
-14.6865
-13.4309
-11.6279
-9.36417
-6.8323
-4.14695
-1.3818
1.35072
3.98562
6.48394
8.8169
11.0043
13.0142
14.8017
16.3268
17.4195
18.0896
18.2219
17.5407
15.8207
13.3211
10.415
7.60436
5.36611
3.84634
3.24206
3.28106
3.73592
4.59204
5.48679
6.83812
7.49467
8.91427
-0.882011
0.609121
0.103008
0.361341
0.329711
0.423115
0.4601
0.518621
0.566799
0.622924
0.6842
0.757894
0.845869
0.95004
1.06982
1.20522
1.35393
1.50921
1.65148
1.73847
1.72516
1.61507
1.44037
1.22679
1.01268
0.817009
0.628349
0.427829
0.198686
-0.0738821
-0.404089
-0.80648
-1.29608
-1.88759
-2.59441
-3.42959
-4.40324
-5.50179
-6.72322
-8.22943
-9.84965
-10.072
-14.2974
-14.7473
-16.0505
-16.2681
-15.5317
-14.175
-12.2495
-9.83545
-7.15401
-4.32199
-1.41795
1.43659
4.17737
6.76526
9.17288
11.4255
13.4992
15.3552
16.9532
18.1155
18.8459
19.0245
18.3162
16.4894
13.826
10.7407
7.78161
5.44096
3.89973
3.32924
3.41492
3.91464
4.78204
5.70694
7.04208
7.74982
9.0052
-0.838827
0.545238
0.0790359
0.333935
0.310729
0.407667
0.44898
0.511316
0.563694
0.624573
0.691699
0.772821
0.870165
0.985613
1.11839
1.2685
1.43325
1.60404
1.754
1.83039
1.79723
1.67164
1.47726
1.25164
1.03971
0.848616
0.661477
0.459429
0.225872
-0.0544797
-0.396801
-0.81688
-1.33121
-1.95633
-2.70798
-3.60194
-4.6511
-5.84927
-7.21059
-8.85813
-10.5282
-11.1315
-15.4894
-15.8231
-17.017
-17.2473
-16.4102
-14.9463
-12.8942
-10.3227
-7.48604
-4.50161
-1.45328
1.52669
4.37461
7.05137
9.5314
11.8463
13.9815
15.9048
17.5766
18.8109
19.6051
19.8369
19.0953
17.148
14.3077
11.0343
7.92305
5.4795
3.92376
3.39955
3.5393
4.08778
4.96658
5.91538
7.23131
7.98039
9.07955
-0.77709
0.479046
0.0569843
0.306512
0.293005
0.393004
0.439074
0.505373
0.56226
0.628228
0.701672
0.790865
0.898421
1.02614
1.17297
1.33894
1.52052
1.70565
1.85642
1.91424
1.86185
1.71709
1.50257
1.2742
1.06977
0.884126
0.698557
0.494923
0.256806
-0.0315666
-0.386302
-0.824428
-1.36399
-2.02348
-2.82121
-3.77582
-4.90316
-6.20392
-7.70403
-9.47882
-11.2405
-12.4638
-16.6113
-16.9738
-18.0276
-18.2805
-17.3272
-15.7448
-13.562
-10.8259
-7.82831
-4.68581
-1.48777
1.62136
4.57792
7.34281
9.8928
12.2668
14.4607
16.45
18.1964
19.5052
20.3663
20.6592
19.876
17.792
14.7599
11.2891
8.02239
5.47581
3.91405
3.45071
3.65274
4.25366
5.14528
6.11126
7.40334
8.18608
9.1684
-0.710734
0.414267
0.0360525
0.279116
0.276529
0.379349
0.430627
0.501042
0.562768
0.63418
0.714451
0.81241
0.931094
1.07214
1.23415
1.41703
1.61569
1.81155
1.95324
1.9883
1.91707
1.74821
1.52042
1.29874
1.10408
0.923758
0.739524
0.534138
0.291311
-0.00523456
-0.37253
-0.828884
-1.394
-2.08851
-2.93344
-3.95042
-5.15819
-6.56336
-8.19812
-10.0863
-11.9806
-13.9555
-17.5775
-18.1615
-19.0746
-19.367
-18.2889
-16.573
-14.2524
-11.3449
-8.1806
-4.87437
-1.52124
1.72102
4.78797
7.64018
10.2574
12.687
14.9367
16.9903
18.8121
20.1974
21.1289
21.4913
20.6559
18.4154
15.1748
11.4972
8.07217
5.42282
3.86553
3.48031
3.75372
4.41031
5.3176
6.29442
7.55937
8.40748
9.28056
-0.643631
0.3497
0.0166974
0.252404
0.261588
0.366928
0.423849
0.498545
0.565444
0.642662
0.73029
0.837751
0.968538
1.12403
1.30233
1.50301
1.71776
1.91713
2.03969
2.05266
1.95907
1.76593
1.53683
1.32775
1.14291
0.967335
0.78411
0.576825
0.329236
0.0245287
-0.355284
-0.829867
-1.42071
-2.15077
-3.0439
-4.12472
-5.41458
-6.92437
-8.68615
-10.674
-12.7319
-15.4588
-18.298
-19.3414
-20.151
-20.5011
-19.2984
-17.4343
-14.9654
-11.8792
-8.54256
-5.06684
-1.55329
1.82619
5.00548
7.94419
10.6257
13.107
15.409
17.5251
19.4231
20.8869
21.8917
22.3331
21.4316
19.0103
15.5433
11.6488
8.06344
5.31206
3.77237
3.48581
3.84121
4.55738
5.48365
6.46473
7.69723
8.58707
9.42069
-0.576341
0.285879
-0.00199401
0.226592
0.248264
0.35597
0.418942
0.498064
0.570457
0.653836
0.749356
0.867082
1.01099
1.18207
1.37775
1.59666
1.82417
2.01616
2.11409
2.10641
1.98482
1.77583
1.55671
1.36194
1.18595
1.01447
0.831996
0.622802
0.370574
0.0579116
-0.334186
-0.826836
-1.44346
-2.20947
-3.15166
-4.29747
-5.67022
-7.28278
-9.16044
-11.2351
-13.4666
-16.7989
-18.7032
-20.4883
-21.2555
-21.6753
-20.355
-18.3313
-15.7023
-12.4281
-8.91364
-5.26259
-1.58333
1.93755
5.23132
8.25564
10.9981
13.5269
15.8775
18.0539
20.0286
21.5726
22.654
23.1847
22.1992
19.5665
15.8537
11.7309
7.98443
5.13267
3.62756
3.46458
3.91436
4.69543
5.64394
6.62244
7.8192
8.7469
9.56112
-0.509415
0.223861
-0.020001
0.202321
0.236769
0.346699
0.416063
0.49974
0.577925
0.667793
0.771729
0.900493
1.05858
1.24641
1.46041
1.69697
1.93017
2.10326
2.17761
2.14613
1.99581
1.78512
1.58228
1.40095
1.23266
1.06475
0.882973
0.672062
0.415523
0.0953052
-0.308681
-0.819105
-1.46145
-2.26371
-3.25562
-4.46714
-5.92249
-7.63347
-9.61286
-11.7635
-14.1515
-17.824
-18.8502
-21.624
-22.3971
-22.8826
-21.4544
-19.2653
-16.4646
-12.9911
-9.29309
-5.46084
-1.61058
2.05595
5.46651
8.57552
11.3751
13.9465
16.3417
18.5761
20.628
22.2535
23.4146
24.0461
22.9529
20.0699
16.0888
11.7255
7.82028
4.87023
3.4224
3.41369
3.97236
4.82478
5.79883
6.76831
7.92578
8.86715
9.71152
-0.442755
0.164137
-0.0367395
0.179893
0.227254
0.339332
0.415363
0.503696
0.587924
0.684569
0.797411
0.937982
1.11133
1.31704
1.54999
1.80152
2.0292
2.1769
2.23061
2.16857
1.99853
1.79902
1.6136
1.44404
1.28251
1.11793
0.937048
0.724833
0.464503
0.137285
-0.278069
-0.805875
-1.47379
-2.31247
-3.35454
-4.63191
-6.16816
-7.97043
-10.0358
-12.255
-14.7639
-18.4857
-18.9643
-22.8079
-23.5952
-24.1184
-22.5902
-20.2354
-17.2531
-13.5684
-9.68005
-5.66067
-1.63411
2.18239
5.71225
8.90501
11.7576
14.3661
16.8015
19.0912
21.2206
22.9285
24.1724
24.9172
23.6857
20.5006
16.2505
11.6047
7.54853
4.50577
3.14588
3.33
4.01465
4.9462
5.9479
6.90374
8.02142
8.95747
9.86749
-0.375396
0.107059
-0.0511023
0.159702
0.219948
0.334103
0.416996
0.51005
0.600509
0.704151
0.826331
0.979451
1.16914
1.3938
1.64557
1.90578
2.11546
2.23939
2.26994
2.17503
2.001
1.8194
1.64982
1.4905
1.33516
1.17403
0.994492
0.781576
0.518116
0.184561
-0.241558
-0.786286
-1.47954
-2.35472
-3.44709
-4.78972
-6.40343
-8.28726
-10.4236
-12.7086
-15.307
-18.9118
-19.3247
-24.0611
-24.874
-25.383
-23.7567
-21.2379
-18.0667
-14.1601
-10.0738
-5.86101
-1.65279
2.31795
5.96983
9.24546
12.1465
14.7858
17.2564
19.5985
21.8057
23.5963
24.9265
25.7981
24.3895
20.8519
16.344
11.3602
7.13782
4.00875
2.78281
3.20945
4.04066
5.06116
6.09126
7.03069
8.11062
9.03817
10.0184
-0.306175
0.0527135
-0.0616009
0.142033
0.215135
0.331263
0.421138
0.518921
0.615709
0.726473
0.85834
1.0247
1.23179
1.47627
1.74502
2.0032
2.18748
2.2924
2.29158
2.17235
2.00871
1.84584
1.68999
1.53988
1.39062
1.23336
1.05581
0.842924
0.577082
0.237913
-0.198324
-0.759475
-1.4778
-2.38939
-3.53189
-4.93828
-6.62397
-8.57804
-10.7739
-13.1267
-15.8031
-19.3036
-20.166
-25.2618
-26.2497
-26.6814
-24.9498
-22.2687
-18.9034
-14.7659
-10.4736
-6.06076
-1.6654
2.46392
6.2406
9.5984
12.543
15.2061
17.7062
20.0975
22.3824
24.2556
25.676
26.6869
25.0343
21.17
16.3402
11.0083
6.59181
3.34953
2.31226
3.04762
4.05035
5.1717
6.23157
7.15191
8.19434
9.11162
10.1772
-0.234084
0.000571423
-0.0664585
0.127077
0.213168
0.331074
0.427964
0.530411
0.633506
0.751398
0.89319
1.07344
1.29895
1.5636
1.84424
2.08766
2.24856
2.33294
2.29594
2.16918
2.02332
1.87719
1.73349
1.59211
1.44921
1.29647
1.12168
0.909611
0.642167
0.298124
-0.147579
-0.724642
-1.46772
-2.41557
-3.60762
-5.07503
-6.82526
-8.83891
-11.0884
-13.5141
-16.272
-19.7599
-21.487
-26.2099
-27.7257
-28.0246
-26.1691
-23.3245
-19.76
-15.3845
-10.8792
-6.2589
-1.67058
2.62173
6.526
9.96538
12.9483
15.6275
18.1508
20.5876
22.9501
24.9047
26.4201
27.5847
25.489
21.5288
16.238
10.5537
5.92017
2.51818
1.71289
2.83685
4.0438
5.28061
6.37232
7.2682
8.27402
9.17897
10.3393
-0.15834
-0.0509913
-0.0642121
0.115053
0.2144
0.333778
0.437628
0.544572
0.653822
0.778706
0.93054
1.12523
1.37011
1.654
1.93698
2.1576
2.30168
2.35578
2.28974
2.17143
2.04415
1.91257
1.78008
1.64749
1.51154
1.36407
1.19285
0.98239
0.714112
0.36591
-0.0886283
-0.681117
-1.44865
-2.43251
-3.67302
-5.19711
-7.00348
-9.06916
-11.3717
-13.8763
-16.7261
-20.2849
-22.9908
-26.7259
-29.3133
-29.4322
-27.418
-24.4045
-20.6331
-16.0139
-11.2896
-6.4545
-1.66695
2.79302
6.82755
10.348
13.364
16.0506
18.5901
21.0684
23.508
25.5423
27.1601
28.5551
25.7814
21.8733
16.0553
9.9987
5.11755
1.50948
0.976643
2.57157
4.02117
5.39199
6.5171
7.37922
8.3509
9.24457
10.5019
-0.0784921
-0.104962
-0.0540141
0.106036
0.219156
0.339559
0.450222
0.561392
0.676497
0.80809
0.969951
1.17959
1.44446
1.74392