/*--------------------------------*- C++ -*----------------------------------*\
| =========                 |                                                 |
| \\      /  F ield         | OpenFOAM: The Open Source CFD Toolbox           |
|  \\    /   O peration     | Version:  4.1                                   |
|   \\  /    A nd           | Web:      www.OpenFOAM.org                      |
|    \\/     M anipulation  |                                                 |
\*---------------------------------------------------------------------------*/
FoamFile
{
    version     2.0;
    format      ascii;
    class       surfaceScalarField;
    location    "23";
    object      phi;
}
// * * * * * * * * * * * * * * * * * * * * * * * * * * * * * * * * * * * * * //

dimensions      [0 3 -1 0 0 0 0];

internalField   nonuniform List<scalar> 
13220
(
-800.812
2100.71
-1252.05
1751.44
-1714.72
1762.57
-2054.32
1639.5
-2332.31
1578.18
-2531.49
1499.08
-2659.22
1427.64
-2712.93
1353.91
-2694.66
1281.63
-2603.28
1208.52
-2437.83
1134.75
-2183.55
1045.63
-1766.47
882.822
-1053.35
587.079
246.549
-176.847
2277.56
-400.243
1974.84
-647.634
2009.96
-827.363
1819.24
-996.223
1747.05
-1114.44
1617.3
-1202.35
1515.55
-1254.43
1405.99
-1280.61
1307.82
-1282.32
1210.23
-1250.25
1102.68
-1158.68
954.052
-958.431
682.579
-589.023
217.674
-342.473
-91.8154
2369.38
-230.045
2113.07
-319.196
2099.11
-346.361
1846.4
-364.61
1765.3
-333.346
1586.04
-283.493
1465.7
-205.746
1328.24
-111.264
1213.34
-1.78883
1100.76
116.168
984.725
226.426
843.801
278.735
630.282
195.823
300.605
-146.651
31.5382
2337.84
22.7436
2121.87
39.6589
2082.2
58.6004
1827.46
77.1617
1746.74
99.9037
1563.3
119.917
1445.68
171.435
1276.73
295.793
1088.98
507.525
889.029
739.942
752.309
892.343
691.398
864.209
658.415
580.955
583.857
434.304
-56.4701
2394.31
-140.667
2206.07
-208.149
2149.68
-307.433
1926.75
-408.527
1847.83
-531.136
1685.91
-666.951
1581.5
-775.042
1384.82
-788.292
1102.23
-663.392
764.129
-426.767
515.683
-134.077
398.712
105.246
419.095
162.031
527.075
596.335
-30.1976
2424.51
-208.407
2384.28
-325.347
2266.62
-454.118
2055.52
-585.264
1978.98
-724.916
1825.56
-875.012
1731.6
-1041.33
1551.14
-1226.6
1287.5
-1395.73
933.255
-1471.06
591.01
-1357.1
284.747
-1003.79
65.7775
-484.976
8.2544
111.359
180.72
2243.79
47.8866
2517.11
0.714064
2313.79
-16.9492
2073.18
-13.3168
1975.34
-3.84781
1816.09
19.7328
1708.01
19.9067
1550.96
-49.9362
1357.35
-210.637
1093.96
-415.988
796.359
-607.621
476.384
-669.04
127.199
-511.62
-149.163
-400.261
308.281
1935.51
305.951
2519.44
335.395
2284.35
407.98
2000.6
513.581
1869.74
623.38
1706.29
752.399
1578.99
872.936
1430.43
953.458
1276.82
944.496
1102.92
833.664
907.191
619.58
690.464
314.412
432.36
35.731
129.509
-364.53
236.772
1698.73
287.764
2468.45
326.319
2245.79
389.385
1937.53
472.83
1786.3
553.962
1625.16
639.776
1493.18
718.35
1351.85
780.153
1215.02
804.864
1078.21
776.813
935.241
684.98
782.299
519.104
598.238
281.04
367.575
-83.4899
119.84
1578.89
177.677
2410.61
215.165
2208.3
259.125
1893.57
317.053
1728.37
368.178
1574.03
414.547
1446.81
451.412
1314.99
476.637
1189.79
487.407
1067.44
477.415
945.232
435.59
824.12
345.816
688.009
191.48
521.9
107.99
28.0635
1550.83
109.188
2329.48
179.111
2138.38
235.482
1837.2
300.121
1663.73
360.808
1513.34
414.87
1392.75
462.133
1267.72
504.855
1147.07
541.796
1030.49
561.303
925.724
538.116
847.307
439.196
786.928
249.394
711.701
357.384
-34.5907
1585.42
38.9185
2255.97
155.599
2021.7
245.262
1747.53
318.232
1590.76
398.868
1432.71
489.612
1302
589.547
1167.79
691.717
1044.9
779.568
942.641
815.978
889.313
762.749
900.533
590.904
958.772
325.941
976.66
683.325
63.8149
1521.6
55.8438
2263.94
27.3671
2050.17
42.7367
1732.16
112.537
1520.96
222.897
1322.35
361.305
1163.59
518.744
1010.35
672.171
891.473
783.678
831.133
803.612
869.379
702.059
1002.09
488.263
1172.57
228.987
1235.94
912.312
433.06
1088.54
637.265
2059.74
497.331
2190.11
198.721
2030.77
-112
1831.68
-392.294
1602.64
-607.524
1378.82
-759.193
1162.02
-842.84
975.119
-852.719
841.012
-777.581
794.24
-621.33
845.834
-429.319
980.556
-237.458
1044.07
674.854
639.018
1692.18
2351.98
2620.74
2674.26
2514.87
2164.61
1762.14
1284.69
808.57
411.928
165.157
86.5208
105.478
2.05456e-06
-272.328
272.328
-272.328
-272.328
-272.328
284.663
-556.991
284.663
284.663
284.663
759.192
-474.529
759.192
759.192
1142.77
-383.573
1142.77
1142.77
1142.77
1432.59
-289.83
1432.59
1432.59
1634.73
-202.134
1634.73
1634.73
1634.73
1757.06
-122.334
1757.06
1757.06
1757.06
1800.44
-43.3816
1800.44
1800.44
1763.88
36.5613
1763.88
1763.88
1763.88
1653.27
110.615
1653.27
1653.27
1488.84
164.431
1488.84
1488.84
1488.84
1309.72
179.115
1309.72
1309.72
1309.72
1223.84
85.8806
1223.84
1223.84
1131.91
91.9333
1131.91
1131.91
1131.91
912.635
219.273
912.635
912.635
912.635
574.373
338.261
574.373
574.373
175.422
398.951
175.422
175.422
175.422
-356.267
531.689
-356.267
-356.266
-1512.34
1156.07
-1512.34
-1512.34
-1512.34
-3181.69
1669.35
-3181.69
-3181.69
-3181.69
-5268.31
2086.62
-5268.31
-5268.31
-7613.37
2345.06
-7613.37
-7613.37
-7470.75
-7329.7
-7185.07
-9508.16
2472.66
-9356.81
-9181.74
-8991.73
-8801.3
-8608.35
-8411.37
-8215.81
-8024.01
-10438.7
2605.76
-10234.4
-10030.3
-9824.81
-9619.66
-9413.81
-9206.21
-9000.34
-8797
-11196.7
2603.45
-10972.9
-10747.8
-10521.1
-10294.1
-10059.1
-9809.01
-9557.44
-9305.23
-9054.62
-11310.3
2490.6
-11037.9
-10765.3
-10492.7
-10220.8
-9949.58
-9660.32
-9361.47
-9063.73
-10889
2109.13
-10596.6
-10292.8
-9969.66
-9645.34
-9319.39
-8994.36
-8669.87
-8321.79
-9609.73
1618.53
-9280.01
-8955.46
-8634.16
-8300.74
-7963.84
-7630.26
-7297.22
-6966.7
-7584.93
950.154
-7251.85
-6919.86
-6588.44
-6260.08
-5937.81
-5629.4
-5328.03
-5037.05
-4759.43
-4468.67
-17.1529
-4242.35
-4043.52
-3851.54
-3668.23
-3490.57
-3348.85
-3271.9
-3190.43
-2701.07
-394.512
-2622.22
-2541.39
-2541.39
-2268.75
-272.643
-1976.34
-292.41
-1976.34
-1708.21
-268.131
-1708.21
-1446.59
-261.612
-1190.09
-256.504
-1190.09
-933.018
-257.07
-685.183
-247.834
-685.183
-443.99
-241.193
-443.99
-216.195
-227.796
-29.1775
-187.017
-29.1774
135.917
-165.094
135.917
261.515
-125.598
356.616
-95.1005
356.616
424.371
-67.755
472.114
-47.7426
472.114
504.906
-32.7922
504.906
520.747
-15.841
525.985
-5.23809
525.985
524.976
1.00953
524.976
522.203
2.77272
526.53
-4.32739
526.53
536.406
-9.87624
557.366
-20.9599
557.366
601.627
-44.2602
601.627
648.271
-46.6442
699.992
-51.7209
699.992
752.594
-52.6018
752.594
794.184
-41.5903
842.104
-47.9205
842.104
881.56
-39.4551
923.191
-41.6313
923.191
962.341
-39.1503
962.341
990.844
-28.5027
1022
-31.1522
1022
1052.14
-30.1478
1052.14
1073.6
-21.4558
1095.56
-21.9634
1095.56
1114.31
-18.7422
1129.68
-15.3773
1129.68
1148.02
-18.3348
1148.02
1162.94
-14.9181
1177.24
-14.3088
1177.24
1197.62
-20.3729
1197.62
1217.45
-19.8289
1238.35
-20.9045
1238.35
1268.25
-29.8971
1300.4
-32.1525
1300.4
1347.43
-47.0303
1347.43
-50.6993
-222.591
-792.338
-224.898
-894.939
-227.856
-929.757
-231.376
-985.132
-235.462
-1025.38
-240.098
-1070.94
-245.231
-1111.96
-250.889
-1154.82
-257.112
-1196.86
-264.234
-1239.61
-273.193
-1281.22
-286.09
-1319.27
-306.458
-1348.7
-338.686
-1363.77
-386.165
-1360.47
-448.895
-1339.97
-522.29
-1309.42
-598.363
-1279.11
-668.639
-1257.71
-726.877
-1248.97
-770.241
-1251.58
-798.894
-1261.27
-814.817
-1273.53
-820.641
-1285.38
-818.862
-1296.17
-811.465
-1307.05
-799.85
-1319.74
-784.958
-1335.08
-767.47
-1352.17
-748.039
-1368.26
-727.446
-1378.99
-706.733
-1378.36
-687.477
-1359.31
-671.935
-1319.56
-659.082
-1264.86
-631.043
-1131.99
-565.21
-625.921
-503.533
347.813
-476.566
910.131
-454.388
1174.43
-431.964
1398.51
-409.718
1643.21
-388.003
1898.5
-366.418
2160.19
-344.578
2422.38
-322.554
2676.58
-300.52
2918.04
-278.363
3146.01
-255.762
3358.77
-232.557
3552.73
-208.691
3725.09
-184.183
3873.23
-159.178
3995.7
-133.454
4094.25
-107.12
4161.47
-80.5781
4195.64
-54.132
4202.35
-27.841
4166.7
-4.43561
3999.18
14.8382
3739.85
29.1776
3396.57
38.2504
2989.86
44.0395
2639.64
47.5473
2328.96
49.9035
2050.32
51.8896
1800.55
53.7828
1562.2
55.9535
1364.58
57.8372
1138.89
60.3498
979.973
61.5608
658.495
71.0667
543.002
73.7502
67.5535
64.7484
-799.975
38.3303
-1607.81
23.5725
-2110.37
6.26604
-2542.18
16.8967
-2755.91
1528.76
-233.88
-791.102
-235.996
-892.824
-239.139
-926.613
-242.851
-981.421
-247.232
-1021
-252.208
-1065.96
-257.714
-1106.45
-263.824
-1148.71
-270.78
-1189.9
-279.545
-1230.85
-292.346
-1268.42
-313.232
-1298.39
-347.536
-1314.4
-399.679
-1311.63
-469.876
-1290.27
-552.211
-1257.63
-636.182
-1225.44
-710.994
-1204.3
-769.488
-1199.22
-809.447
-1209.01
-832.452
-1228.57
-841.9
-1251.83
-841.432
-1273.99
-834.129
-1292.68
-822.265
-1308.04
-807.337
-1321.98
-790.235
-1336.85
-771.485
-1353.83
-751.555
-1372.1
-731.126
-1388.69
-711.257
-1398.86
-693.396
-1396.23
-679.451
-1373.26
-671.85
-1327.16
-669.702
-1267.01
-651.667
-1150.02
-576.491
-701.097
-493.623
264.944
-467.238
883.746
-449.418
1156.61
-427.202
1376.29
-405.267
1621.27
-384.38
1877.61
-363.605
2139.41
-342.534
2401.3
-321.187
2655.24
-299.707
2896.56
-277.993
3124.29
-255.734
3336.52
-232.793
3529.79
-209.125
3701.42
-184.764
3848.87
-159.865
3970.8
-134.213
4068.59
-107.93
4135.18
-81.4341
4169.15
-55.034
4175.95
-28.7467
4140.41
-5.28842
3975.72
14.1059
3720.46
28.66
3382.02
38.0253
2980.5
44.2098
2633.45
48.2182
2324.95
51.1638
2047.38
53.7743
1797.94
56.2333
1559.74
58.8929
1361.92
60.9748
1136.81
63.8521
977.096
64.3357
658.011
79.2971
528.041
82.9338
63.9167
68.5264
-785.568
40.0602
-1579.34
23.7279
-2094.04
6.49554
-2524.95
16.752
-2766.17
1498.49
-240.23
-789.75
-242.207
-890.847
-245.489
-923.331
-249.307
-977.603
-253.863
-1016.44
-259.021
-1060.81
-264.747
-1100.73
-271.243
-1142.22
-279.168
-1181.98
-290.404
-1219.61
-308.612
-1250.21
-339.174
-1267.82
-387.283
-1266.29
-454.506
-1244.41
-536.049
-1208.73
-621.605
-1172.07
-699.69
-1147.36
-762.195
-1141.8
-806.17
-1155.24
-832.787
-1182.4
-845.231
-1216.13
-847.035
-1250.02
-841.258
-1279.77
-830.276
-1303.67
-815.809
-1322.5
-799.02
-1338.77
-780.647
-1355.22
-761.227
-1373.26
-741.38
-1391.95
-722.077
-1407.99
-704.744
-1416.19
-691.121
-1409.85
-683.086
-1381.29
-682.541
-1327.71
-688.175
-1261.37
-678.657
-1159.54
-603.165
-776.588
-494.312
156.09
-455.027
844.461
-440.785
1142.37
-421.032
1356.54
-399.349
1599.59
-379.194
1857.45
-359.499
2119.72
-339.517
2381.32
-319.169
2634.89
-298.534
2875.93
-277.499
3103.26
-255.775
3314.79
-233.247
3507.26
-209.888
3678.06
-185.758
3824.74
-161.018
3946.06
-135.468
4043.04
-109.25
4108.97
-82.8024
4142.7
-56.4232
4149.57
-30.0954
4114.08
-6.53436
3952.16
13.0448
3700.88
27.8937
3367.17
37.6528
2970.74
44.3573
2626.75
49.0407
2320.26
52.8044
2043.61
56.3102
1794.43
59.6373
1556.41
63.0176
1358.54
65.5588
1134.27
68.7416
973.913
68.7415
658.011
84.9101
511.872
89.4811
59.3458
71.7377
-767.825
42.1677
-1549.77
24.4846
-2076.35
7.44786
-2507.91
12.1301
-2770.85
1478.46
-247.836
-788.246
-249.707
-888.976
-253.158
-919.88
-257.117
-973.644
-261.878
-1011.68
-267.265
-1055.42
-273.328
-1094.66
-280.591
-1134.95
-290.507
-1172.06
-306.389
-1203.73
-333.564
-1223.04
-378.047
-1223.34
-442.995
-1201.34
-525.096
-1162.3
-614.276
-1119.55
-697.872
-1088.48
-766.084
-1079.15
-814.748
-1093.13
-844.602
-1125.39
-858.937
-1168.06
-861.563
-1213.5
-855.793
-1255.79
-844.195
-1291.37
-828.692
-1319.17
-810.705
-1340.49
-791.246
-1358.23
-771.039
-1375.42
-750.737
-1393.56
-731.212
-1411.48
-713.804
-1425.4
-700.308
-1429.69
-692.61
-1417.55
-692.211
-1381.69
-700.074
-1319.84
-714.185
-1247.26
-713.602
-1160.12
-641.23
-848.961
-506.782
21.6431
-445.587
783.265
-429.003
1125.78
-412.839
1340.38
-392.536
1579.29
-372.936
1837.85
-354.289
2101.07
-335.644
2362.68
-316.58
2615.83
-297.055
2856.4
-276.927
3083.13
-255.925
3293.79
-233.959
3485.3
-211.021
3655.13
-187.202
3800.92
-162.671
3921.53
-137.25
4017.62
-111.107
4082.82
-84.7006
4116.29
-58.3205
4123.19
-31.926
4087.69
-8.22538
3928.46
11.5862
3681.07
26.7992
3351.96
37.0467
2960.49
44.3836
2619.41
49.8906
2314.76
54.6688
2038.83
59.3122
1789.79
63.7719
1551.95
68.1342
1354.18
71.3358
1131.07
75.0011
970.248
74.5476
658.464
90.7194
495.7
96.2815
53.7837
76.5013
-748.044
45.1519
-1518.42
25.6049
-2056.81
7.74266
-2490.05
9.47384
-2772.58
1458.04
-255.324
-786.556
-257.107
-887.194
-260.734
-916.252
-264.838
-969.54
-269.802
-1006.71
-275.453
-1049.77
-282.076
-1088.04
-290.852
-1126.18
-304.553
-1158.36
-328.316
-1179.97
-368.675
-1182.68
-430.364
-1161.65
-511.867
-1119.84
-603.798
-1070.37
-692.505
-1030.84
-766.382
-1014.6
-819.876
-1025.65
-853.254
-1059.76
-869.976
-1108.67
-874.191
-1163.85
-869.427
-1218.26
-858.302
-1266.92
-842.716
-1306.95
-824.125
-1337.76
-803.712
-1360.9
-782.462
-1379.48
-761.242
-1396.64
-741.003
-1413.8
-723.045
-1429.43
-709.169
-1439.28
-701.449
-1437.41
-701.575
-1417.42
-710.104
-1373.16
-726.459
-1303.49
-747.823
-1225.9
-755.207
-1152.74
-689.451
-914.716
-532.898
-134.91
-441.033
691.4
-415.952
1100.7
-401.925
1326.35
-384.303
1561.66
-365.777
1819.33
-348.044
2083.34
-330.829
2345.46
-313.329
2598.33
-295.195
2838.27
-276.229
3064.16
-256.166
3273.73
-234.935
3464.07
-212.554
3632.74
-189.144
3777.51
-164.885
3897.27
-139.627
3992.37
-113.571
4056.77
-87.1979
4089.92
-60.7927
4096.78
-34.2891
4061.18
-10.3995
3904.57
9.70312
3660.97
25.3539
3336.3
36.1767
2949.67
44.2555
2611.33
50.7318
2308.28
56.7202
2032.85
62.7469
1783.76
68.6132
1546.08
74.2363
1348.56
78.3283
1126.98
82.6945
965.882
81.9183
659.241
97.8552
479.763
103.834
47.805
82.0992
-726.31
48.8489
-1485.17
27.1915
-2035.15
7.87743
-2470.74
3.42125
-2768.12
1440.56
-263.015
-784.638
-264.725
-885.483
-268.541
-912.437
-272.799
-965.282
-277.988
-1001.53
-284.058
-1043.7
-291.805
-1080.29
-303.585
-1114.4
-324.029
-1137.91
-359.98
-1144.02
-417.567
-1125.09
-497.399
-1081.82
-591.349
-1025.89
-685.135
-976.588
-765.201
-950.774
-824.227
-955.574
-861.747
-988.133
-881.347
-1040.16
-887.595
-1102.42
-884.339
-1167.1
-874.288
-1228.31
-859.263
-1281.94
-840.597
-1325.62
-819.446
-1358.91
-796.935
-1383.41
-774.203
-1402.21
-752.458
-1418.39
-733.139
-1433.12
-718.104
-1444.47
-709.572
-1447.81
-709.591
-1437.39
-719.075
-1407.94
-736.981
-1355.26
-760.784
-1279.69
-787.096
-1199.59
-800.417
-1139.42
-742.724
-972.41
-569.149
-308.484
-442.576
564.826
-403.548
1061.68
-388.724
1311.52
-373.903
1546.84
-357.54
1802.97
-340.931
2066.73
-325.073
2329.6
-309.301
2582.55
-292.836
2821.8
-275.29
3046.62
-256.396
3254.83
-236.094
3443.77
-214.423
3611.07
-191.536
3754.62
-167.628
3873.36
-142.582
3967.32
-116.632
4030.82
-90.292
4063.58
-63.8388
4070.33
-37.185
4034.53
-13.0567
3880.44
7.39351
3640.52
23.5466
3320.15
35.0184
2938.2
43.9287
2602.42
51.4964
2300.71
58.8637
2025.48
66.4905
1776.13
74.0144
1538.56
81.1574
1341.41
86.3744
1121.76
91.633
960.623
90.743
660.131
105.842
464.664
111.909
41.7382
88.6075
-703.008
53.2441
-1449.81
29.1567
-2011.06
7.81591
-2449.4
-1.89861
-2758.41
1418.83
-270.856
-782.454
-272.498
-883.841
-276.507
-908.428
-280.936
-960.854
-286.442
-996.02
-293.332
-1036.81
-303.385
-1070.24
-320.76
-1097.02
-352.152
-1106.52
-404.903
-1091.27
-481.854
-1048.14
-576.786
-986.888
-675.304
-927.371
-761.895
-889.998
-827.054
-885.615
-869.215
-913.413
-891.992
-965.357
-900.478
-1031.67
-898.997
-1103.9
-890.476
-1175.63
-876.697
-1242.09
-858.795
-1299.84
-837.7
-1346.71
-814.426
-1382.19
-790.199
-1407.64
-766.491
-1425.92
-745.051
-1439.83
-727.986
-1450.18
-717.744
-1454.71
-716.715
-1448.84
-726.35
-1427.75
-746.055
-1388.23
-772.648
-1328.66
-801.607
-1250.73
-829.521
-1171.67
-846.007
-1122.93
-798.199
-1020.22
-615.08
-491.603
-451.159
400.904
-392.998
1003.52
-374.313
1292.84
-361.009
1533.54
-347.623
1789.58
-332.924
2052.03
-318.471
2315.15
-304.434
2568.52
-289.851
2807.22
-273.992
3030.76
-256.507
3237.35
-237.345
3424.6
-216.557
3590.28
-194.327
3732.39
-170.867
3849.9
-146.092
3942.54
-120.283
4005.01
-93.9833
4037.28
-67.466
4043.81
-40.6287
4007.69
-16.2176
3856.03
4.63145
3619.67
21.3453
3303.44
33.5334
2926.01
43.356
2592.6
52.1242
2291.95
61.0223
2016.58
70.4463
1766.71
79.8593
1529.15
88.7635
1332.51
95.3313
1115.19
101.655
954.299
100.889
660.897
114.676
450.878
120.388
36.026
95.8786
-678.499
58.2753
-1412.21
31.3959
-1984.18
7.58146
-2425.58
-5.56958
-2745.26
1392.89
-278.873
-779.964
-280.443
-882.27
-284.654
-904.217
-289.312
-956.196
-295.404
-989.928
-304.02
-1028.19
-318.568
-1055.69
-345.49
-1070.1
-392.807
-1059.21
-465.663
-1018.41
-560.264
-953.54
-662.854
-884.298
-756.136
-834.089
-828.042
-818.092
-875.429
-838.228
-901.731
-887.111
-912.615
-954.472
-913.037
-1031.25
-906.288
-1110.65
-894.217
-1187.7
-877.795
-1258.52
-857.659
-1319.98
-834.514
-1369.86
-809.394
-1407.3
-783.808
-1433.23
-759.776
-1449.95
-739.812
-1459.79
-726.809
-1463.18
-723.639
-1457.88
-732.307
-1440.17
-752.837
-1407.22
-782.439
-1358.63
-815.666
-1295.44
-846.485
-1219.91
-872.138
-1146.02
-888.371
-1106.7
-852.286
-1056.3
-672.596
-671.292
-470.075
198.383
-384.759
918.199
-359.689
1267.77
-345.994
1519.84
-335.419
1779
-323.642
2040.25
-311.078
2302.59
-298.756
2556.19
-286.146
2794.61
-272.217
3016.83
-256.395
3221.53
-238.599
3406.81
-218.888
3570.57
-197.469
3710.97
-174.569
3827
-150.145
3918.12
-124.521
3979.38
-98.28
4011.04
-71.6905
4017.22
-44.6421
3980.64
-19.9082
3831.3
1.38873
3598.37
18.718
3286.11
31.6856
2913.04
42.4976
2581.79
52.5693
2281.87
63.1421
2006.01
74.5498
1755.3
86.0698
1517.63
96.9609
1321.62
105.093
1107.06
112.632
946.76
112.221
661.307
124.471
438.628
129.415
31.0818
103.877
-652.961
63.8983
-1372.23
33.8232
-1954.11
7.06515
-2398.82
-13.2456
-2724.95
1365.33
-287.074
-777.127
-288.559
-880.785
-293.001
-899.775
-298.071
-951.126
-305.408
-982.592
-317.533
-1016.07
-340.144
-1033.08
-381.721
-1028.52
-449.31
-991.616
-542.086
-925.635
-647.73
-847.896
-747.637
-784.392
-826.869
-754.856
-880.148
-764.813
-910.39
-807.987
-923.81
-873.69
-926.13
-952.153
-921.167
-1036.21
-910.971
-1120.85
-896.451
-1202.22
-877.997
-1276.97
-855.943
-1342.03
-830.935
-1394.87
-804.201
-1434.04
-777.743
-1459.68
-754.389
-1473.31
-737.621
-1476.56
-731.067
-1469.74
-737.52
-1451.43
-757.686
-1420
-789.259
-1375.65
-826.93
-1320.96
-863.508
-1258.86
-892.428
-1190.99
-912.098
-1126.35
-924.256
-1094.54
-900.064
-1080.5
-743.292
-828.064
-506.793
-38.1162
-379.966
791.372
-345.243
1233.05
-329.694
1504.3
-320.772
1770.08
-312.514
2031.99
-302.731
2292.8
-292.341
2545.81
-281.693
2783.96
-269.856
3004.99
-255.951
3207.62
-239.758
3390.62
-221.334
3552.15
-200.899
3690.54
-178.694
3804.8
-154.715
3894.14
-129.337
3954.01
-103.183
3984.88
-76.5216
3990.56
-49.2416
3953.36
-24.1489
3806.21
-2.35878
3576.58
15.636
3268.11
29.442
2899.23
41.3168
2569.91
52.79
2270.4
65.1748
1993.62
78.7431
1741.73
92.5757
1503.79
105.66
1308.53
115.552
1097.17
124.422
937.889
124.577
661.153
135.185
428.02
138.98
27.2869
112.526
-626.507
70.0722
-1329.77
36.4958
-1920.53
6.43336
-2368.76
-19.0498
-2699.46
1331.37
-295.469
-773.9
-296.859
-879.396
-301.64
-894.994
-307.595
-945.171
-317.566
-972.62
-336.299
-997.334
-371.97
-997.41
-433.371
-967.121
-522.682
-902.306
-630.027
-818.29
-736.165
-741.758
-823.207
-697.35
-883.109
-694.954
-917.8
-730.122
-933.936
-791.851
-938.11
-869.516
-934.821
-955.441
-926.456
-1044.58
-913.976
-1133.32
-897.617
-1218.58
-877.401
-1297.19
-853.535
-1365.9
-826.762
-1421.64
-798.704
-1462.1
-772.134
-1486.25
-750.976
-1494.46
-739.787
-1487.75
-742.546
-1466.98
-761.011
-1432.96
-793.441
-1387.57
-834.578
-1334.52
-876.969
-1278.57
-912.847
-1222.98
-936.305
-1167.53
-947.056
-1115.6
-951.396
-1090.2
-935.33
-1096.56
-812.879
-950.515
-558.765
-292.231
-381.125
613.732
-330.707
1182.63
-312.85
1486.44
-304.098
1761.33
-299.087
2026.98
-293.002
2286.72
-285.163
2537.97
-276.54
2775.34
-266.843
2995.3
-255.064
3195.84
-240.721
3376.27
-223.805
3535.23
-204.546
3671.28
-183.187
3783.44
-159.767
3870.72
-134.713
3928.95
-108.687
3958.86
-81.9635
3963.84
-54.4404
3925.84
-28.9599
3780.73
-6.63499
3554.26
12.0718
3249.41
26.77
2884.54
39.7773
2556.91
52.7468
2257.43
67.0773
1979.29
82.9773
1725.83
99.3182
1487.45
114.785
1293.07
126.611
1085.34
136.898
927.602
137.797
660.253
146.766
419.052
149.087
24.9654
121.768
-599.187
76.7662
-1284.77
39.3853
-1883.15
5.71709
-2335.09
-22.4181
-2671.33
1290.61
-304.073
-770.229
-305.395
-878.073
-310.826
-889.563
-318.723
-937.274
-333.905
-957.438
-363.921
-967.318
-418.354
-942.977
-502.636
-882.84
-609.976
-794.966
-721.588
-706.678
-816.745
-646.6
-884.049
-630.046
-923.818
-655.186
-942.933
-711.007
-948.934
-785.85
-947.15
-871.3
-940.434
-962.157
-929.907
-1055.1
-915.751
-1147.48
-897.782
-1236.55
-875.839
-1319.13
-850.14
-1391.6
-821.698
-1450.08
-792.796
-1491
-767.327
-1511.72
-750.587
-1511.2
-748.039
-1490.3
-763.114
-1451.9
-795.142
-1400.93
-838.915
-1343.8
-886.34
-1287.09
-928.995
-1235.91
-960.025
-1191.95
-975.177
-1152.38
-975.223
-1115.55
-968.714
-1096.71
-954.132
-1111.14
-863.823
-1040.82
-615.453
-540.601
-391.505
389.784
-316.269
1107.39
-295.61
1465.78
-286.118
1751.84
-283.297
2024.16
-281.343
2284.76
-276.972
2533.6
-270.723
2769.09
-263.179
2987.75
-253.644
3186.31
-241.385
3364.01
-226.211
3520.06
-208.332
3653.4
-187.99
3763.1
-165.26
3847.99
-140.622
3904.32
-114.781
3933.02
-88.0169
3937.07
-60.2494
3898.07
-34.3603
3754.84
-11.4634
3531.36
7.99888
3229.94
23.6374
2868.9
37.8434
2542.7
52.4031
2242.87
68.8128
1962.88
87.2139
1707.43
106.253
1468.41
124.277
1275.04
138.189
1071.43
149.952
915.839
151.732
658.472
159.138
411.647
159.712
24.3914
131.529
-571.004
83.9596
-1237.2
42.4667
-1841.66
4.81077
-2297.44
-29.8643
-2636.65
1245.37
-312.923
-766.032
-314.336
-876.66
-321.167
-882.732
-333.083
-925.358
-357.652
-932.869
-404.857
-920.113
-482.549
-865.285
-587.994
-777.395
-703.867
-679.093
-807.202
-603.343
-882.689
-571.114
-928.29
-584.444
-950.756
-632.719
-958.606
-703.157
-958.151
-786.306
-952.838
-876.613
-944.041
-970.955
-931.98
-1067.16
-916.36
-1163.1
-896.77
-1256.14
-872.996
-1342.9
-845.407
-1419.19
-815.51
-1479.98
-786.603
-1519.91
-764.117
-1534.21
-754.841
-1520.48
-764.465
-1480.68
-794.327
-1422.04
-839.803
-1355.46
-891.913
-1291.69
-940.87
-1238.13
-978.987
-1197.8
-1001.58
-1169.36
-1006.51
-1147.45
-995.181
-1126.88
-976.125
-1115.76
-956.063
-1131.2
-890.612
-1106.27
-673.48
-757.733
-415.375
131.678
-303.771
995.79
-277.628
1439.64
-267.407
1741.62
-265.531
2022.29
-267.357
2286.59
-267.297
2533.53
-264.147
2765.94
-258.905
2982.51
-251.65
3179.05
-241.653
3354.02
-228.456
3506.86
-212.173
3637.12
-193.034
3743.96
-171.145
3826.1
-147.035
3880.2
-121.448
3907.43
-94.6773
3910.3
-66.676
3870.07
-40.3668
3728.53
-16.865
3507.86
3.39181
3209.69
20.0113
2852.28
35.4784
2527.23
51.7228
2226.63
70.3479
1944.26
91.422
1686.36
113.347
1446.49
134.09
1254.3
150.22
1055.3
163.493
902.566
166.235
655.731
172.173
405.708
170.786
25.7787
141.728
-541.947
91.6443
-1187.12
45.8128
-1795.83
3.93105
-2255.56
-33.5951
-2599.13
1193.03
-322.126
-761.134
-324.108
-874.677
-333.917
-872.923
-353.447
-905.828
-393.175
-893.141
-463.199
-850.089
-564.592
-763.891
-683.121
-658.866
-794.32
-567.894
-878.729
-518.934
-931.048
-518.795
-957.375
-558.117
-967.169
-622.925
-967.889
-702.438
-963.717
-790.477
-956.363
-883.966
-946.15
-981.168
-932.755
-1080.56
-915.629
-1180.23
-894.264
-1277.5
-868.499
-1368.67
-839.017
-1448.67
-808.132
-1510.87
-780.635
-1547.4
-763.894
-1550.95
-765.91
-1518.46
-791.14
-1455.45
-836.779
-1376.4
-893.248
-1298.99
-948.743
-1236.2
-993.804
-1193.07
-1023.08
-1168.52
-1034.62
-1157.83
-1028.25
-1153.81
-1005.64
-1149.49
-973.834
-1147.57
-943.154
-1161.88
-891.486
-1157.94
-723.552
-925.666
-453.427
-138.446
-296.228
838.591
-258.824
1402.23
-248.097
1730.89
-246.433
2020.62
-251.027
2291.18
-255.607
2538.11
-256.494
2766.83
-254.017
2980.03
-249.095
3174.13
-241.451
3346.37
-230.444
3495.86
-215.983
3622.66
-198.245
3726.22
-177.364
3805.22
-153.91
3856.75
-128.665
3882.19
-101.935
3883.57
-73.7238
3841.86
-46.9934
3701.8
-22.8605
3483.72
-1.77648
3188.6
15.8569
2834.64
32.6433
2510.45
50.6686
2208.6
71.6504
1923.28
95.5755
1662.43
120.577
1421.49
144.193
1230.68
162.65
1036.84
177.447
887.769
181.167
652.011
185.722
401.154
182.223
29.2773
152.281
-512.005
99.8167
-1134.66
49.4648
-1745.48
3.04944
-2209.14
-39.3203
-2556.76
1131.75
-331.962
-755.159
-335.646
-870.993
-351.351
-857.218
-383.873
-873.307
-445.119
-831.894
-540.54
-754.668
-659.575
-644.856
-777.913
-540.528
-871.834
-473.973
-931.89
-458.878
-962.752
-487.932
-974.687
-546.183
-976.463
-621.148
-973.176
-705.725
-966.961
-796.693
-958.285
-892.642
-946.851
-992.602
-932.06
-1095.35
-913.246
-1199.04
-889.885
-1300.86
-861.979
-1396.58
-830.763
-1479.88
-799.805
-1541.82
-775.963
-1571.24
-768.734
-1558.18
-786.289
-1500.91
-829.487
-1412.25
-889.428
-1316.46
-951.947
-1236.47
-1004.72
-1183.42
-1040.81
-1156.98
-1058.1
-1151.24
-1057.06
-1158.86
-1038.96
-1171.92
-1005.47
-1182.98
-961.844
-1191.2
-918.489
-1205.24
-869.016
-1207.42
-743.101
-1051.58
-486.188
-395.358
-294.304
646.707
-240.306
1348.23
-228.032
1718.62
-226.537
2019.13
-232.756
2297.4
-241.546
2546.9
-247.259
2772.54
-248.351
2981.13
-246.004
3171.78
-240.752
3341.12
-232.088
3487.19
-219.673
3610.24
-203.545
3710.09
-183.854
3785.53
-161.202
3834.1
-136.401
3857.38
-109.776
3856.95
-81.3923
3813.48
-54.2521
3674.66
-29.4726
3458.95
-7.5358
3166.67
11.1422
2815.97
29.3005
2492.29
49.2024
2188.7
72.6892
1899.79
99.6528
1635.47
127.925
1393.21
154.566
1204.04
175.441
1015.97
191.751
871.459
196.412
647.349
199.644
397.921
193.945
34.9767
163.104
-481.164
108.474
-1080.03
53.5527
-1690.55
2.46071
-2158.05
-43.0223
-2511.28
1067.27
-343.066
-747.308
-350.752
-863.307
-377.059
-830.911
-429.221
-821.145
-516.487
-744.628
-633.735
-637.421
-757.841
-520.749
-861.643
-436.727
-930.545
-405.071
-966.833
-422.591
-981.238
-473.528
-984.005
-543.416
-981.358
-623.795
-975.977
-711.106
-968.512
-804.157
-958.711
-902.443
-945.977
-1005.34
-929.587
-1111.74
-908.83
-1219.8
-883.238
-1326.45
-853.131
-1426.68
-820.651
-1512.36
-791.226
-1571.25
-774.361
-1588.11
-781.312
-1551.23
-818.229
-1463.99
-879.449
-1351.03
-949.187
-1246.72
-1010.97
-1174.69
-1054.96
-1139.43
-1078.26
-1133.68
-1081.79
-1147.71
-1067.68
-1172.97
-1037.9
-1201.7
-994.13
-1226.74
-940.218
-1245.11
-885.045
-1260.41
-830.796
-1261.67
-730.925
-1151.45
-502.554
-623.729
-295.108
439.261
-223.761
1276.89
-207.479
1702.33
-206.015
2017.66
-213.167
2304.56
-225.127
2558.86
-235.901
2783.31
-241.53
2986.76
-242.33
3172.58
-239.571
3338.36
-233.328
3480.95
-223.152
3600.07
-208.853
3695.79
-190.545
3767.22
-168.858
3812.41
-144.62
3833.15
-118.178
3830.5
-89.6759
3784.98
-62.1515
3647.13
-36.7217
3433.52
-13.9112
3143.86
5.84006
2796.22
25.4123
2472.72
47.2849
2166.83
73.4348
1873.64
103.638
1605.27
135.388
1361.47
165.201
1174.23
188.567
992.603
206.361
853.665
211.881
641.83
213.829
395.973
205.889
42.9163
174.118
-449.394
117.597
-1023.5
58.1386
-1631.1
2.18433
-2102.09
-44.2425
-2464.85
992.881
-356.722
-736.037
-372.464
-847.565
-415.802
-787.573
-493.598
-743.349
-606.107
-632.12
-734.169
-509.359
-847.742
-407.176
-926.663
-357.806
-969.501
-362.233
-986.902
-405.189
-990.672
-469.758
-988.436
-545.652
-983.587
-628.644
-977.01
-717.683
-968.499
-812.668
-957.471
-913.47
-943.214
-1019.59
-924.954
-1130
-901.975
-1242.78
-873.954
-1354.47
-841.776
-1458.86
-809.016
-1545.12
-783.72
-1596.54
-778.366
-1593.46
-804.518
-1525.07
-862.866
-1405.64
-938.773
-1275.12
-1011.08
-1174.42
-1064.85
-1120.91
-1095.27
-1109.02
-1103.6
-1125.34
-1092.9
-1158.41
-1066.02
-1199.85
-1025.15
-1242.57
-972.04
-1279.86
-909.766
-1307.39
-845.46
-1324.72
-784.751
-1322.37
-700.017
-1236.19
-506.281
-817.465
-294.105
227.084
-209.874
1192.66
-187.483
1679.94
-184.885
2015.06
-192.775
2312.45
-206.779
2572.87
-222.085
2798.62
-233.013
2997.68
-237.853
3177.42
-237.912
3338.42
-234.14
3477.18
-226.342
3592.27
-214.086
3683.54
-197.365
3750.5
-176.816
3791.86
-153.277
3809.61
-127.113
3804.34
-98.5633
3756.43
-70.6953
3619.26
-44.6238
3407.44
-20.9264
3120.16
-0.0815079
2775.37
20.9383
2451.7
44.8775
2142.89
73.8611
1844.66
107.523
1571.6
142.97
1326.02
176.106
1141.09
202.021
966.689
221.252
834.433
227.511
635.571
228.189
395.296
218.009
53.0965
185.255
-416.639
127.153
-965.403
63.2694
-1567.21
2.11736
-2040.94
-49.4444
-2413.29
912.285
-375.215
-718.658
-405.164
-817.616
-472.413
-720.323
-577.811
-637.951
-706.998
-502.933
-829.777
-386.58
-919.76
-317.193
-970.545
-307.021
-991.726
-341.052
-996.641
-400.274
-994.617
-471.782
-989.996
-550.273
-983.985
-634.656
-976.428
-725.24
-966.745
-822.351
-954.246
-925.969
-938.18
-1035.66
-917.749
-1150.43
-892.275
-1268.25
-861.732
-1385.02
-827.956
-1492.64
-796.692
-1576.39
-779.4
-1613.84
-791.128
-1581.74
-840.688
-1475.51
-919.239
-1327.09
-1002.81
-1191.55
-1069.05
-1108.18
-1108.64
-1081.32
-1122.67
-1094.98
-1115.52
-1132.5
-1091.13
-1182.8
-1052.46
-1238.52
-1001.72
-1293.31
-940.794
-1340.78
-872.455
-1375.72
-802.364
-1394.81
-736.696
-1388.04
-660.711
-1312.17
-503.297
-974.879
-291.668
15.4552
-197.289
1098.28
-169.017
1651.67
-163.528
2009.58
-171.798
2320.72
-187.159
2588.23
-205.879
2817.34
-222.262
3014.07
-232.144
3187.3
-235.682
3341.96
-234.531
3476.03
-229.185
3586.92
-219.161
3673.51
-204.24
3735.58
-185.014
3772.64
-162.322
3786.92
-136.548
3778.57
-108.037
3727.92
-79.8817
3591.11
-53.192
3380.75
-28.6091
3095.58
-6.65691
2753.42
15.8461
2429.19
41.9492
2116.78
73.9477
1812.66
111.31
1534.24
150.69
1286.64
187.305
1104.48
215.813
938.18
236.414
813.832
243.266
628.719
242.666
395.896
230.273
65.4895
196.457
-382.823
137.09
-906.037
69.0516
-1499.17
2.51505
-1974.41
-52.3241
-2358.45
831.458
-402.099
-691.081
-453.942
-765.773
-549.494
-624.772
-677.006
-510.439
-807.354
-372.585
-909.262
-284.672
-969.602
-256.852
-995.683
-280.94
-1002.08
-334.653
-1000.14
-402.22
-995.44
-476.478