/*--------------------------------*- C++ -*----------------------------------*\
| =========                 |                                                 |
| \\      /  F ield         | OpenFOAM: The Open Source CFD Toolbox           |
|  \\    /   O peration     | Version:  4.1                                   |
|   \\  /    A nd           | Web:      www.OpenFOAM.org                      |
|    \\/     M anipulation  |                                                 |
\*---------------------------------------------------------------------------*/
FoamFile
{
    version     2.0;
    format      ascii;
    class       volScalarField;
    location    "17";
    object      p;
}
// * * * * * * * * * * * * * * * * * * * * * * * * * * * * * * * * * * * * * //

dimensions      [0 2 -2 0 0 0 0];

internalField   nonuniform List<scalar> 
6785
(
583.616
504.852
457.735
404.193
357.343
312.238
270.255
230.57
193.149
157.848
123.87
90.8805
63.0758
34.5426
-5.74864
-34.9277
-53.0317
-43.3191
-50.6963
-50.351
-53.0343
-53.9422
-54.6739
-54.4432
-53.3348
-51.2049
-48.2811
-44.1995
-39.4016
-35.8182
-19.5393
-22.9931
-13.8237
-17.9971
-14.0545
-14.8682
-13.8314
-13.8824
-13.7525
-13.9564
-14.2118
-14.6333
-14.498
-13.9001
-11.247
17.4563
16.403
20.2014
16.0388
18.8742
16.7349
17.4551
16.8078
16.8494
16.5997
16.6167
16.7964
17.791
18.8437
21.1624
24.0413
23.7447
26.4353
24.5312
27.8682
27.1407
29.3224
29.9611
31.3473
32.2941
33.2106
33.7528
33.9521
34.4964
35.1348
33.9799
31.7442
33.6908
31.1317
33.094
31.2639
32.1122
31.0229
30.6816
29.3571
27.7546
25.8492
24.5318
23.6079
20.9547
2.28375
-2.49546
-2.62026
-6.80728
-7.51873
-11.2054
-12.7627
-15.8668
-17.7056
-19.6414
-20.665
-21.2224
-21.6364
-22.7904
-24.4984
-33.4688
-37.1571
-36.6776
-39.6669
-39.5968
-42.1449
-42.7123
-44.5293
-45.2749
-45.9756
-46.2032
-46.3834
-46.5191
-46.7481
-44.8694
-28.5807
-28.6933
-26.8779
-27.6981
-25.9986
-26.4074
-25.4094
-25.3312
-24.8418
-24.5203
-23.9592
-23.3341
-21.9484
-20.4208
-17.4164
-5.05548
-3.48233
-1.55007
-1.1371
0.897123
1.60731
3.24072
4.39244
5.81413
7.16479
8.63287
10.0339
11.6476
12.9115
14.5689
11.9103
13.2452
14.4686
14.8112
16.1849
16.6185
17.688
18.3748
19.2334
20.0012
20.8211
21.5526
22.4049
23.0006
23.848
21.3271
22.6543
23.5269
23.8495
24.933
25.2982
26.1487
26.7029
27.3828
27.9982
28.6653
29.292
30.0919
30.6309
31.577
41.4368
41.8795
41.7588
41.7266
42.1134
41.7475
41.7202
41.2759
40.8897
40.5319
40.4345
40.7271
41.2836
41.7411
42.1682
40.3469
40.9658
39.1011
37.2104
35.8205
34.6208
34.1964
33.969
34.2276
34.5766
35.0201
35.4093
35.5745
35.7483
35.2958
76.297
73.0125
65.3429
58.1811
53.2816
47.7634
43.225
39.8562
36.2885
33.5585
31.1907
29.3575
27.924
27.3147
26.0397
42.374
42.7079
42.9016
42.9014
42.9844
43.2074
43.6468
43.5263
43.4805
43.3961
43.6593
43.3576
43.2855
43.43
42.9843
42.9367
43.0304
43.1231
42.376
42.7943
42.8272
42.0684
42.0432
42.5985
42.6265
41.7627
41.7589
42.373
42.7013
41.5599
42.3846
42.8187
41.9152
41.908
42.6165
43.13
42.1607
42.9443
43.3965
42.798
42.8444
43.5456
43.8421
43.4378
43.5348
44.1192
44.3232
43.9978
44.6769
44.6515
44.5243
44.7334
45.2047
45.5216
45.4893
45.6563
45.9423
46.5683
46.5765
46.7137
47.1516
47.1338
47.1226
46.9917
47.6857
47.9456
48.5935
48.965
48.4293
50.068
51.42
47.2677
45.4
49.6865
54.0376
33.8744
46.0517
53.4203
11.3496
26.8576
38.0482
39.1491
44.1324
36.4631
41.1141
48.6199
49.5536
51.3805
52.5692
53.5066
52.789
54.805
60.8968
46.9916
47.9767
45.5401
43.7437
43.1846
42.2428
39.8747
41.7603
54.1434
32.1573
31.57
28.7103
27.4179
27.702
26.8352
24.6109
21.9516
22.0644
40.2736
22.7461
20.889
18.1972
15.1841
15.0003
16.0167
13.7991
10.2182
18.629
16.3511
17.3773
16.3601
13.1054
10.5901
7.54763
8.49162
5.09653
12.2249
18.3425
13.2404
12.8624
11.4983
8.90603
6.88218
5.23101
-1.54824
3.11452
16.9802
12.448
11.2475
8.82918
6.40668
4.53875
3.99387
3.40828
0.848282
-4.65716
9.42839
6.23636
6.78762
6.32901
5.40621
0.880464
0.116539
2.59066
-11.3742
6.37426
3.18206
0.684948
7.91888
2.02307
5.23836
4.24329
6.25746
9.04885
5.08981
7.53647
9.2296
6.62803
7.81718
7.15957
8.06937
9.57303
7.30953
8.22853
7.57076
8.3211
9.40759
7.25371
8.36128
9.05706
7.53915
8.07725
7.58667
8.00807
8.71591
7.35754
7.79718
7.34214
7.69436
8.22816
6.92171
7.48304
7.80301
6.86086
7.1067
6.77459
6.94522
7.27058
6.43464
6.62477
6.3198
6.45178
6.66159
5.87687
6.12166
6.19624
5.61606
5.68689
5.45445
5.47975
5.53404
5.02837
5.05711
4.84096
4.8399
4.81194
4.33835
4.37997
4.27475
3.88664
3.8215
3.60315
3.59836
3.52929
3.04157
2.97758
2.93677
2.65557
2.6045
2.24771
2.02542
1.98263
1.38294
1.10828
0.90059
0.499107
0.26326
0.00153156
0.00245504
0.00383299
0.00473903
0.00572061
0.00653214
0.0073049
0.00798619
0.00860601
0.00916141
0.00966437
0.0101269
0.010563
0.0109907
0.0114257
0.0118833
0.0123729
0.0128999
0.0134651
0.014069
0.014718
0.0154376
0.0162897
0.0173835
0.0188593
0.0208264
0.023256
0.0259835
0.0288551
0.0316721
0.0341972
0.0362324
0.0375561
0.038014
0.0375471
0.0362508
0.0344409
0.032672
0.0316818
0.032184
0.0345426
0.0383142
0.041987
0.0433474
0.0403188
0.0316939
0.0172712
-0.00211185
-0.0238752
-0.0456171
-0.0753006
-0.143405
-0.193647
-0.555055
-0.704865
-0.759571
-0.955171
-1.10091
-1.16601
-1.15459
-1.07308
-0.89888
-0.725555
-0.521246
-0.306458
-0.108408
0.079023
0.227012
0.348306
0.429936
0.489902
0.510077
0.52706
0.513466
0.489617
0.525995
0.450482
0.527867
0.45846
0.00424268
0.00660171
0.0103355
0.0128081
0.0153802
0.0175035
0.0194599
0.0211575
0.0226533
0.0239596
0.0251032
0.026126
0.027067
0.0279796
0.0289091
0.0298985
0.0309743
0.032151
0.0334298
0.0348113
0.0363125
0.038003
0.0400555
0.0427759
0.046558
0.0517048
0.0581155
0.0653044
0.0728416
0.0801808
0.0866771
0.091813
0.0950096
0.0958896
0.0943219
0.0904824
0.084813
0.0777658
0.0694879
0.0596488
0.0477974
0.0337955
0.0179989
0.00121454
-0.0157689
-0.0327802
-0.0505771
-0.0704202
-0.0940183
-0.125201
-0.16005
-0.211004
-0.360013
-0.64357
-1.04659
-1.17033
-1.48777
-1.70489
-1.8407
-1.88387
-1.82786
-1.60607
-1.33709
-0.982931
-0.590791
-0.214913
0.14668
0.439891
0.671417
0.834583
0.93224
0.981007
0.9921
0.991055
0.948106
1.00872
0.946978
0.993075
1.33849
0.0066321
0.0107671
0.017193
0.0214534
0.025908
0.0295908
0.033004
0.0359782
0.0386177
0.040938
0.0429865
0.0448317
0.04654
0.0482007
0.0498904
0.0516817
0.0536197
0.0557288
0.058011
0.0604669
0.0631237
0.0660974
0.0696791
0.0743871
0.0808933
0.0897177
0.100693
0.113001
0.125919
0.138519
0.149712
0.158611
0.164224
0.165902
0.163438
0.157224
0.148264
0.137812
0.126798
0.115313
0.102789
0.0883023
0.0707732
0.0492802
0.0230451
-0.00879103
-0.0473824
-0.0938098
-0.148947
-0.215778
-0.294415
-0.434442
-0.732247
-0.483519
-1.21111
-1.33425
-1.70378
-1.95548
-2.12855
-2.20395
-2.1664
-1.92479
-1.61607
-1.19203
-0.717145
-0.257494
0.186666
0.548268
0.832704
1.03482
1.15242
1.21318
1.22533
1.21776
1.18473
1.2112
1.20905
1.17192
1.68186
0.00885432
0.0146783
0.023623
0.0296079
0.0358222
0.0409731
0.0457302
0.0498757
0.0535462
0.0567693
0.059609
0.0621627
0.0645231
0.0668157
0.0691477
0.0716213
0.0742991
0.0772146
0.0803701
0.0837641
0.0874315
0.0915299
0.0964627
0.102958
0.111965
0.124226
0.139498
0.156622
0.174597
0.192123
0.207692
0.220068
0.227871
0.230186
0.226712
0.217989
0.205413
0.190707
0.175051
0.158309
0.139347
0.116693
0.0891204
0.0561268
0.0175763
-0.0270435
-0.0791401
-0.140719
-0.214471
-0.305186
-0.412493
-0.593871
-0.945317
-0.330709
-1.54676
-1.62877
-2.0618
-2.37252
-2.59031
-2.69545
-2.66305
-2.37378
-1.99859
-1.47495
-0.886767
-0.316115
0.235881
0.685474
1.03899
1.29076
1.43711
1.51216
1.52912
1.51071
1.48456
1.48157
1.51709
1.42415
2.06278
0.0108597
0.0184944
0.02998
0.0377556
0.0457824
0.0524596
0.0586148
0.0639859
0.0687401
0.0729175
0.0765984
0.0799094
0.0829696
0.0859415
0.0889637
0.0921682
0.095636
0.0994098
0.103491
0.107875
0.1126
0.117863
0.124176
0.132485
0.144035
0.159809
0.179486
0.201552
0.224734
0.247344
0.267458
0.283479
0.293613
0.296652
0.292155
0.280787
0.264376
0.245266
0.225151
0.203997
0.180437
0.152623
0.11893
0.0784068
0.0302955
-0.026673
-0.0946575
-0.176378
-0.275254
-0.396468
-0.543835
-0.777237
-1.09748
-0.284327
-1.93327
-1.96461
-2.44575
-2.82104
-3.08924
-3.23005
-3.20686
-2.86832
-2.42111
-1.7877
-1.07448
-0.38105
0.290115
0.836872
1.26584
1.57196
1.7481
1.83923
1.85929
1.83199
1.80855
1.78307
1.84422
1.70736
2.33298
0.0127021
0.0221814
0.0361232
0.0456968
0.0555039
0.0636972
0.0712268
0.077805
0.0836192
0.0887277
0.0932243
0.0972662
0.100999
0.104622
0.108306
0.112214
0.116444
0.121048
0.126025
0.131365
0.137107
0.143477
0.151097
0.161129
0.175136
0.194363
0.218403
0.245362
0.273707
0.301356
0.32598
0.345621
0.358055
0.361746
0.356059
0.34175
0.321081
0.297047
0.271831
0.245393
0.216034
0.181571
0.14017
0.0907469
0.0323
-0.036874
-0.119583
-0.219484
-0.341249
-0.490955
-0.676353
-0.948846
-1.22295
-0.480115
-2.31117
-2.31734
-2.80559
-3.24032
-3.55767
-3.73516
-3.72309
-3.3372
-2.82202
-2.08227
-1.24943
-0.438492
0.346319
0.984992
1.48504
1.8421
2.04558
2.15152
2.17406
2.13685
2.11742
2.06626
2.15231
1.97391
2.62767
0.0143827
0.0257895
0.042135
0.0535415
0.0651289
0.0748581
0.0837708
0.091569
0.0984521
0.1045
0.109819
0.114597
0.119006
0.123284
0.127634
0.132249
0.137248
0.14269
0.14857
0.154871
0.161624
0.169082
0.177966
0.189668
0.206092
0.228775
0.257213
0.289109
0.322678
0.355434
0.384646
0.407979
0.422745
0.427011
0.419884
0.4022
0.376742
0.347289
0.316616
0.284737
0.249755
0.209297
0.161319
0.104344
0.0367213
-0.044075
-0.141763
-0.261013
-0.407557
-0.588277
-0.815414
-1.12901
-1.39424
-0.970802
-2.6735
-2.71247
-3.17328
-3.66505
-4.03284
-4.24877
-4.2474
-3.81067
-3.22575
-2.37656
-1.42258
-0.493147
0.405574
1.13558
1.70612
2.11329
2.34362
2.46389
2.48885
2.4405
2.42523
2.34683
2.45368
2.23936
2.78842
0.015923
0.0293234
0.0479953
0.061257
0.0746056
0.085876
0.0961637
0.105179
0.113124
0.120105
0.126235
0.131739
0.136811
0.141731
0.146734
0.152047
0.157805
0.164075
0.170849
0.178097
0.185838
0.19434
0.20442
0.217706
0.236473
0.262591
0.295442
0.332291
0.37112
0.409015
0.442858
0.469907
0.486946
0.491564
0.482557
0.460891
0.430014
0.39463
0.35812
0.320516
0.279741
0.23326
0.178772
0.114341
0.0376461
-0.0546429
-0.167173
-0.305711
-0.477201
-0.689617
-0.958698
-1.31288
-1.62217
-1.68302
-2.93838
-3.15544
-3.55403
-4.1003
-4.52281
-4.77988
-4.78924
-4.29777
-3.64006
-2.67624
-1.59733
-0.546224
0.468696
1.29109
1.93257
2.38982
2.64658
2.78107
2.80788
2.74795
2.73585
2.63031
2.75412
2.50757
3.05589
0.0173331
0.032806
0.0537305
0.0688755
0.0839703
0.0967927
0.108453
0.118689
0.127693
0.135605
0.142543
0.148765
0.154494
0.160048
0.165698
0.171703
0.178216
0.185313
0.192979
0.201168
0.20988
0.219387
0.230592
0.245372
0.266411
0.295956
0.333257
0.375103
0.41926
0.462359
0.500895
0.531662
0.550828
0.555411
0.543891
0.51751
0.480592
0.438887
0.396366
0.353045
0.306715
0.254701
0.194367
0.123174
0.0379866
-0.0654712
-0.192898
-0.351241
-0.548697
-0.794497
-1.10678
-1.50498
-1.89854
-2.42982
-3.01832
-3.65145
-3.9465
-4.54656
-5.0241
-5.32452
-5.34451
-4.79421
-4.06104
-2.97767
-1.77098
-0.596
0.536241
1.45092
2.16283
2.66933
2.95152
3.09993
3.12773
3.05598
3.04615
2.91308
3.05242
2.77443
3.43122
0.0186255
0.0362479
0.0593449
0.0763983
0.0932188
0.1076
0.120625
0.132081
0.142139
0.150976
0.158713
0.165644
0.172017
0.178193
0.184479
0.191166
0.198428
0.206347
0.2149
0.22402
0.233682
0.244146
0.256394
0.272559
0.295782
0.328745
0.370537
0.417428
0.466983
0.515345
0.5586
0.59299
0.613947
0.617863
0.603002
0.571134
0.527686
0.479489
0.430999
0.382137
0.330573
0.273459
0.207736
0.13018
0.036785
-0.0777056
-0.220093
-0.398564
-0.622667
-0.903056
-1.25903
-1.70398
-2.19123
-3.00255
-2.9648
-4.2172
-4.36174
-5.01002
-5.54025
-5.88608
-5.91628
-5.30205
-4.48998
-3.28121
-1.9434
-0.642068
0.608648
1.61539
2.39708
2.95182
3.2583
3.42033
3.44818
3.3645
3.3559
3.19485
3.34727
3.03813
3.65634
0.0198096
0.0396627
0.0648519
0.0838402
0.102365
0.118314
0.132696
0.145372
0.156476
0.166233
0.17476
0.18239
0.189395
0.196181
0.20309
0.210451
0.218456
0.227193
0.236629
0.246675
0.257266
0.268639
0.281837
0.299264
0.324575
0.360952
0.407291
0.459288
0.514324
0.567995
0.61593
0.653676
0.675828
0.67819
0.659055
0.621053
0.570881
0.51634
0.462175
0.408146
0.351821
0.290156
0.219603
0.136175
0.0349365
-0.0904177
-0.247861
-0.446877
-0.698449
-1.01472
-1.41523
-1.90995
-2.48102
-3.361
-2.95887
-4.86411
-4.81138
-5.49072
-6.07708
-6.46926
-6.50896
-5.82474
-4.92938
-3.58813
-2.11505
-0.684279
0.686413
1.78517
2.63598
3.23787
3.56745
3.74282
3.76962
3.67414
3.66545
3.47621
3.63895
3.30058
3.89297
0.0208942
0.0430602
0.0702602
0.0912089
0.111414
0.128937
0.144667
0.158561
0.170705
0.181374
0.19068
0.198996
0.206618
0.213999
0.221519
0.229543
0.238284
0.247835
0.258152
0.269116
0.280615
0.292843
0.306888
0.325436
0.352726
0.392515
0.443467
0.500639
0.561235
0.620205
0.672624
0.713185
0.735612
0.735323
0.711034
0.666588
0.609931
0.549519
0.490163
0.431439
0.370865
0.305179
0.230291
0.141394
0.0325823
-0.103534
-0.276149
-0.496089
-0.775839
-1.12904
-1.57494
-2.12228
-2.76668
-3.63558
-3.17028
-5.51897
-5.30559
-5.98574
-6.63896
-7.07866
-7.12602
-6.36477
-5.38088
-3.89891
-2.28577
-0.722148
0.770111
1.96066
2.87982
3.52761
3.87883
4.06727
4.09175
3.98486
3.97452
3.75712
3.9281
3.56225
4.15661
0.0218866
0.0464502
0.0755797
0.0985145
0.120376
0.139477
0.156546
0.171655
0.184831
0.196404
0.206477
0.215465
0.223689
0.231649
0.239764
0.24844
0.25791
0.268271
0.279467
0.291345
0.303731
0.316758
0.331536
0.351044
0.380189
0.423395
0.479037
0.54146
0.607662
0.671798
0.728241
0.770707
0.792175
0.788075
0.75807
0.707424
0.644991
0.57942
0.515454
0.452549
0.388252
0.319075
0.240339
0.146368
0.030251
-0.116528
-0.304426
-0.545654
-0.854238
-1.24527
-1.7375
-2.34001
-3.04901
-3.89859
-3.71303
-6.12626
-5.85104
-6.49155
-7.22844
-7.72043
-7.77164
-6.92507
-5.84642
-4.21416
-2.45561
-0.755236
0.860567
2.14262
3.12892
3.82099
4.1923
4.3935
4.41424
4.29657
4.2828
4.03744
4.21497
3.82146
4.44121
0.0227933
0.0498408
0.080819
0.105765
0.129256
0.149942
0.168337
0.184659
0.198857
0.211325
0.222151
0.231796
0.240603
0.249123
0.257819
0.267134
0.277325
0.288492
0.300565
0.313354
0.32661
0.340376
0.35576
0.376046
0.406906
0.453542
0.513961
0.581693
0.653461
0.722392
0.782015
0.825066
0.844129
0.835267
0.799606
0.743661
0.676518
0.606591
0.538593
0.472005
0.404495
0.332328
0.250199
0.151513
0.0283308
-0.129024
-0.332308
-0.59514
-0.933089
-1.36257
-1.90183
-2.56081
-3.327
-4.18691
-4.57447
-6.62467
-6.43859
-7.00401
-7.84622
-8.40177
-8.45126
-7.50921
-6.32838
-4.53491
-2.62482
-0.783119
0.958639
2.33208
3.38418
4.11823
4.50776
4.72139
4.73686
4.60928
4.59008
4.31719
4.49911
4.07901
4.67673
0.0236195
0.0532397
0.0859864
0.112969
0.138063
0.160337
0.180047
0.197576
0.212786
0.226138
0.237704
0.247988
0.25736
0.26642
0.275678
0.28562
0.296523
0.308493
0.321444
0.335141
0.34925
0.363697
0.379546
0.400404
0.432822
0.482906
0.548188
0.621237
0.69834
0.771324
0.832818
0.874778
0.890017
0.876042
0.835627
0.775836
0.705188
0.631659
0.560147
0.490336
0.420098
0.345426
0.260346
0.157297
0.027288
-0.140547
-0.359293
-0.643988
-1.01168
-1.47993
-2.06651
-2.78181
-3.60068
-4.5156
-5.61359
-6.87854
-7.04821
-7.5193
-8.49147
-9.1298
-9.17145
-8.12127
-6.82938
-4.86236
-2.7934
-0.805226
1.06501
2.52974
3.64658
4.41978
4.82501
5.05079
5.0593
4.92292
4.89606
4.59636
4.78052
4.3349
4.9228
0.0243699
0.0566535
0.0910897
0.120135
0.146803
0.170668
0.19168
0.210411
0.226621
0.240847
0.253136
0.264041
0.273955
0.283534
0.293335
0.303889
0.315496
0.328266
0.342095
0.356703
0.371652
0.386719
0.402881
0.424074
0.457874
0.511429
0.581635
0.659877
0.74176
0.817573
0.879158
0.91816
0.928619
0.91015
0.866679
0.804766
0.731745
0.655227
0.58063
0.508013
0.435512
0.358808
0.271215
0.164151
0.0275602
-0.150649
-0.384909
-0.691653
-1.0893
-1.59626
-2.22989
-3.00011
-3.87026
-4.8643
-6.51371
-6.83027
-7.67959
-8.03637
-9.16185
-9.9114
-9.93975
-8.76614
-7.35236
-5.19756
-2.96122
-0.820959
1.1804
2.73617
3.91664
4.7261
5.14434
5.38136
5.38119
5.23739
5.20041
4.8749
5.05923
4.58867
5.16079
0.0250482
0.0600887
0.0961363
0.127268
0.155483
0.180941
0.203241
0.223168
0.240366
0.255452
0.268448
0.279954
0.290387
0.300461
0.310783
0.321933
0.334235
0.347802
0.362513
0.378038
0.393818
0.409445
0.425754
0.447014
0.481996
0.539035
0.614148
0.697203
0.782853
0.859745
0.919253
0.953642
0.959359
0.938074
0.89372
0.831363
0.756886
0.677821
0.600484
0.52544
0.451137
0.37288
0.283222
0.172507
0.0295901
-0.158879
-0.408688
-0.737607
-1.16522
-1.71049
-2.3903
-3.2134
-4.1353
-5.19984
-7.03059
-6.69978
-8.34631
-8.56392
-9.8533
-10.7532
-10.7644
-9.44964
-7.90078
-5.54156
-3.12818
-0.829701
1.30563
2.95207
4.19476
5.03748
5.46629
5.71289
5.70223
5.55254
5.50279
5.15279
5.33503
4.84132
5.37927
0.0256572
0.063551
0.101133
0.134377
0.164109
0.191162
0.214735
0.235851
0.254024
0.269957
0.283641
0.295725
0.306651
0.317195
0.328016
0.339746
0.352733
0.367094
0.382691
0.399141
0.415749
0.43188
0.448155
0.469178
0.505107
0.565607
0.645425
0.732518
0.8204
0.896102
0.951255
0.980246
0.982559
0.960876
0.917856
0.85648
0.781196
0.69986
0.620053
0.542944
0.467309
0.388
0.296755
0.182768
0.0337865
-0.164845
-0.430255
-0.781433
-1.23885
-1.82172
-2.54645
-3.42041
-4.39585
-5.5167
-7.30159
-6.78851
-8.99564
-9.12774
-10.5604
-11.6615
-11.6538
-10.1786
-8.47879
-5.89567
-3.29419
-0.830791
1.44154
3.17816
4.48139
5.35397
5.79126
6.0454
6.022
5.86822
5.80283
5.42998
5.6079
5.09191
5.62046
0.0261993
0.0670461
0.106086
0.141468
0.172687
0.201336
0.226165
0.248462
0.267597
0.284363
0.298715
0.311354
0.322746
0.333731
0.345027
0.357317
0.37098
0.386133
0.402623
0.420012
0.437453
0.454037
0.47008
0.490515
0.527101
0.590931
0.674935
0.764817
0.852849
0.924663
0.973747
0.998017
0.999336
0.979872
0.940133
0.880821
0.805123
0.721641
0.639583
0.56077
0.484306
0.404488
0.31217
0.195305
0.0404947
-0.168265
-0.449398
-0.822928
-1.3099
-1.9295
-2.69778
-3.62111
-4.65291
-5.82556
-7.53826
-7.39818
-9.555
-9.7481
-11.2792
-12.6421
-12.6168
-10.9607
-9.09141
-6.26146
-3.45919
-0.823528
1.589
3.41517
4.777
5.67559
6.11926
6.3788
6.33984
6.18418
6.10013
5.70639
5.8776
5.33967
5.85565
0.0266761
0.0705793
0.111001
0.148546
0.181222
0.211467
0.237537
0.261006
0.281088
0.298671
0.313671
0.326838
0.338668
0.350064
0.361806
0.374639
0.388966
0.404909
0.422301
0.440648
0.458935
0.475929
0.491527
0.510962
0.547817
0.614619
0.701871
0.792826
0.878297
0.943603
0.986363
1.00805
1.01122
0.996323
0.961411
0.90492
0.828969
0.743343
0.659218
0.579083
0.502346
0.422621
0.329781
0.210414
0.0499304
-0.169068
-0.466193
-0.862242
-1.37851
-2.03401
-2.8447
-3.81658
-4.90748
-6.13704
-7.83345
-8.44023
-9.80569
-10.4072
-12.0067
-13.7008
-13.6626
-11.8042
-9.74458
-6.64089
-3.62313
-0.807174
1.74894
3.66385
5.08201
6.00233
6.45
6.7127
6.65618
6.50011
6.39432
5.982
6.14362
5.58697
6.06296
0.0270885
0.0741556
0.115884
0.155617
0.189721
0.22156
0.248854
0.273485
0.294499
0.312882
0.328508
0.342178
0.354411
0.366186
0.378347
0.391701
0.406682
0.423412
0.441716
0.461047
0.480206
0.497577
0.512496
0.530425
0.566971
0.636046
0.725246
0.814949
0.894654
0.951998
0.990048
1.01207
1.01971
1.01127
0.98234
0.92915
0.85291
0.765034
0.679009
0.597976
0.521595
0.442628
0.349831
0.228267
0.0620864
-0.167512
-0.481132
-0.900021
-1.44544
-2.13623
-2.98856
-4.00886
-5.1612
-6.45763
-8.17674
-9.38218
-9.65459
-11.1174
-12.7422
-14.843
-14.8008
-12.7179
-10.4451
-7.03637
-3.78602
-0.780956
1.92234
3.92498
5.39685
6.33414
6.78321
7.0466
6.97135
6.81584
6.685
6.2567
6.40581
5.83061
6.30735
0.027437
0.0777802
0.12074
0.162688
0.198187
0.231619
0.260119
0.285902
0.307832
0.326998
0.343227
0.357369
0.369974
0.382091
0.394639
0.408494
0.424116
0.441631
0.46086
0.481208
0.501278
0.519006
0.532976
0.548741
0.584082
0.654442
0.743924
0.829131
0.90034
0.950422
0.986678
1.01186
1.02607
1.02549
1.00338
0.953751
0.877012
0.786683
0.69892
0.617471
0.542159
0.46467
0.37245
0.248818
0.0766101
-0.164314
-0.495245
-0.937513
-1.51212
-2.23782
-3.13146
-4.20062
-5.41635
-6.7874
-8.52546
-9.86766
-9.51408
-11.9251
-13.5129
-16.0733
-16.041
-13.7108
-11.2005
-7.45082
-3.94797
-0.744062
2.11022
4.19937
5.72195
6.67092
7.11853
7.38013
7.28548
7.13083
6.97185
6.5304
6.66364
6.07279
6.51321
0.0277214
0.0814579
0.125573
0.169762
0.206627
0.241648
0.271336
0.298259
0.321088
0.34102
0.357827
0.372412
0.38535
0.397772
0.410675
0.425005
0.441256
0.459555
0.479723
0.501129
0.522164
0.540241
0.552924
0.56559
0.598494
0.6691
0.756315
0.833212
0.895255
0.940783
0.978348
1.00893
1.0312
1.03952
1.02483
0.978868
0.901257
0.808173
0.718836
0.637527
0.564083
0.488816
0.397581
0.271689
0.0926689
-0.160772
-0.510181
-0.976573
-1.58051
-2.34087
-3.27578
-4.39467
-5.67586
-7.1277
-8.88687
-10.2297
-9.86584
-12.729
-14.3806
-17.3993
-17.3931
-14.7926
-12.0189
-7.88762
-4.10929
-0.695652
2.31364
4.48783
6.05772
7.01248
7.45555
7.71289
7.59944
7.44438
7.25455
6.80299
6.91661
6.31214
6.72959
0.027941
0.0851939
0.130389
0.176846
0.215043
0.25165
0.282507
0.310558
0.33427
0.354949
0.372308
0.387303
0.400536
0.413221
0.426443
0.441224
0.45809
0.47717
0.498295
0.520807
0.542876
0.56129
0.572194
0.580425
0.609691
0.679209
0.760106
0.826092
0.881072
0.925486
0.966833
1.00433
1.03574
1.05372
1.04692
1.00459
0.925561
0.829315
0.73857
0.65804
0.58734
0.514995
0.42488
0.296042
0.10883
-0.158827
-0.528179
-1.01947
-1.65274
-2.44746
-3.42376
-4.59361
-5.94263
-7.48067
-9.27839
-10.6996
-10.9838
-13.3109
-15.3542
-18.831
-18.8683
-15.9733
-12.9089
-8.35047
-4.27058
-0.634872
2.53371
4.79121
6.40457
7.35859
7.79379
8.04434
7.91323
7.75609
7.53281
7.07438
7.16432
6.5477
6.94987
0.0280946
0.0889931
0.135191
0.183942
0.223441
0.261629
0.293634
0.322801
0.347378
0.368784
0.38667
0.40204
0.415526
0.428431
0.441932
0.457139
0.474605
0.494462
0.516563
0.540238
0.563415
0.582103
0.590397
0.592663
0.617596
0.683123
0.753081
0.808722
0.860449
0.90664
0.953403
0.998803
1.04007
1.06833
1.06983
1.03098
0.949799
0.849858
0.757877
0.678858
0.611819
0.542932
0.453606
0.320446
0.12299
-0.161031
-0.551847
-1.06851
-1.73072
-2.55926
-3.5771
-4.79934
-6.21893
-7.84782
-9.70836
-11.2875
-12.2984
-13.4074
-16.4057
-20.3761
-20.4777
-17.2635
-13.8797
-8.84328
-4.43283
-0.560865
2.7716
5.11038
6.7629
7.70891
8.13267
8.37394
8.22617
8.06571
7.80641
7.34455
7.40615
6.78218
7.13708
0.0281803
0.0928606
0.139984
0.191057
0.231823
0.271587
0.304721
0.334989
0.360414
0.382527
0.400912
0.41662
0.430314
0.443392
0.457133
0.472735
0.490787
0.511416
0.534511
0.559407
0.58375
0.602445
0.606832
0.602225
0.621809
0.678124
0.734828
0.783772
0.835906
0.885748
0.938879
0.992772
1.04447
1.08359
1.09374
1.05813
0.973818
0.869503
0.776466
0.69979
0.637299
0.57206
0.482489
0.342803
0.132399
-0.170311
-0.583708
-1.12551
-1.81569
-2.67725
-3.73667
-5.01285
-6.5061
-8.23065
-10.1763
-11.9266
-13.199
-13.3556
-17.5694
-22.0528
-22.2316
-18.6744
-14.9411
-9.37004
-4.59735
-0.472795
3.02851
5.44621
7.13309
8.06304
8.47154
8.70111
8.53756
8.37297
8.07508
7.61342
7.6417
7.01236
7.34583
0.028196
0.0968018
0.14477
0.198193
0.240194
0.281526
0.315768
0.347123
0.373378
0.396177
0.415033
0.431041
0.444896
0.458095
0.472032
0.488001
0.506622
0.528016
0.552118
0.578282
0.603742
0.621676
0.620839
0.609557
0.619999
0.661568
0.707381
0.75437
0.809211
0.863754
0.923753
0.986523
1.04915
1.09971
1.11891
1.08614
0.997452
0.887916
0.794018
0.720618
0.663411
0.60142
0.509638
0.360318
0.133856
-0.18948
-0.625625
-1.19141
-1.90805
-2.80152
-3.90241
-5.23406
-6.80444
-8.63073
-10.6818
-12.6045
-13.9143
-13.6659
-18.7892
-23.9312
-24.1379
-20.2155
-16.1031
-9.93476
-4.76569
-0.369861
3.30566
5.79962
7.5155
8.42044
8.80968
9.02523
8.84663
8.67768
8.33821
7.88085
7.87071
7.23671
7.56066
0.0281387
0.100822
0.149553
0.205355
0.248556
0.291448
0.326776
0.359203
0.386269
0.409734
0.429031
0.4453
0.459264
0.472531
0.486617
0.502922
0.522093
0.544239
0.56935
0.596776
0.622954
0.638722
0.632541
0.614667
0.610253
0.634776
0.67371
0.722554
0.781497
0.841217
0.908318
0.980277
1.05435
1.11699
1.14564
1.11519
1.02054
0.904743
0.810219
0.741105
0.689578
0.629559
0.532459
0.369624
0.124204
-0.220564
-0.678333
-1.26609
-2.00719
-2.93116
-4.07314
-5.46166
-7.11299
-9.04897
-11.2264
-13.339
-14.7803
-14.8326
-20.0229
-26.0947
-26.2068
-21.8951
-17.3752
-10.5414
-4.93949
-0.251293
3.60432
6.17151
7.91049
8.78048
9.14629
9.34561
9.1526
8.97923
8.59537
8.14706
8.09288
7.46069
7.73584
0.0280051
0.104927
0.154336
0.212546
0.256912
0.301354
0.337746
0.371229
0.399089
0.423198
0.442907
0.459393
0.473413
0.486689
0.500874
0.517481
0.537181
0.560056
0.586144
0.614645
0.640417
0.652721
0.642321
0.613764
0.58428
0.59908
0.637351
0.689904
0.7532
0.818453
0.892792
0.974256
1.06034
1.1358
1.17436
1.14553
1.04291
0.919629
0.824777
0.760985
0.71495
0.654417
0.547635
0.367187
0.1011
-0.264225
-0.741253
-1.3483
-2.1115
-3.06418
-4.24647
-5.69295
-7.42925
-9.48452
-11.8101
-14.1413
-15.8807
-16.7975
-21.1578
-28.5767
-28.4549
-23.7207
-18.7657
-11.1941
-5.12051
-0.116301
3.92582
6.56282
8.31836
9.14241
9.48048
9.66149
9.45477
9.27631
8.84768
8.41191
8.30837
7.6762
7.94886
0.0277912
0.109123
0.159122
0.219769
0.265265
0.311246
0.348678
0.3832
0.411836
0.436568
0.456659
0.473318
0.487336
0.500558
0.514789
0.531664
0.551865
0.575422
0.602367
0.631261
0.654805
0.663583
0.64796
0.5994
0.543359
0.56001
0.5972
0.656926
0.724663
0.795639
0.87738
0.968735
1.0675
1.15663
1.20563
1.17753
1.06445
0.932233
0.837444
0.779962
0.738331
0.673141
0.551323
0.350146
0.0637698
-0.319538
-0.812559
-1.43575
-2.21826
-3.19734
-4.41859
-5.92371
-7.74904
-9.93433
-12.4307
-15.0166
-17.1944
-19.1631
-22.1095
-31.4116
-30.8998
-25.7024
-20.2819
-11.8968
-5.3101
0.0360583
4.27154
6.97449
8.73943
9.50532
9.81128
9.97203
9.75254
9.5679
9.098
8.67365
8.51734
7.88887
8.1286
0.0274923
0.113417
0.163913
0.227029
0.273615
0.321124
0.359572
0.395115
0.424508
0.449843
0.470284
0.48707
0.501025
0.514126
0.528346
0.545448
0.56611
0.590261
0.617685
0.645429
0.665329
0.672315
0.649092
0.566619
0.499034
0.520759
0.555887
0.624125
0.696017
0.773037
0.862352
0.96405
1.07626
1.18009
1.24018
1.21165
1.08503
0.942233
0.848029
0.797752
0.757938
0.681892
0.539911
0.317316
0.0133363
-0.384156
-0.889357
-1.52515
-2.32364
-3.32615
-4.58433
-6.14828
-8.06661
-10.3932
-13.0838
-15.9636
-18.6605
-21.5056
-23.1149
-34.811
-33.5623
-27.8523
-21.9312
-12.6535
-5.50817
0.207042
4.64303
7.4075
9.17394
9.86819
10.1377
10.2763
10.0454
9.85353
9.34853
8.93025
8.71981
8.09498
8.31853
0.0271034
0.117814
0.168712
0.234327
0.281965
0.330987
0.370426
0.406972
0.437105
0.463021
0.483781
0.500646
0.514472
0.527379
0.541526
0.558806
0.579865
0.604409
0.63134
0.655859
0.672586
0.679753
0.637319
0.52486
0.454427
0.47946
0.514131
0.591559
0.667555
0.750943
0.848042
0.960625
1.0872
1.20695
1.27891
1.24852
1.10456
0.949279
0.856494
0.814079
0.770786
0.676183
0.511338
0.269788
-0.0473967
-0.454628
-0.967833
-1.61222
-2.42274
-3.44499
-4.73749
-6.36011
-8.37539
-10.8544
-13.7623
-16.975
-20.2487
-23.8134
-24.507
-39.0029
-36.4686
-30.1751
-23.7189
-13.4679
-5.71223
0.398348
5.04201
7.86285
9.62213
10.2298
10.4584
10.5734
10.3327
10.1329
9.59886
9.18109
8.91587
8.29316
8.52569
0.0266182
0.122322
0.173522
0.241666
0.290316
0.340835
0.381239
0.418769
0.449624
0.476099
0.497148
0.514042
0.527669
0.540303
0.554304
0.571698
0.593041
0.617475
0.64214
0.662525
0.678668
0.683491
0.608105
0.484123
0.406745
0.436663
0.472245
0.559375
0.639615
0.729717
0.834848
0.958955
1.10097
1.23814
1.32297
1.28892
1.12286
0.952918
0.86329
0.828108
0.772036
0.652339
0.466224
0.210725
-0.114449
-0.526686
-1.04339
-1.69186
-2.50985
-3.54769
-4.87172
-6.55293
-8.66919
-11.3115
-14.4577
-18.0394
-21.9511
-26.1931
-26.6476
-43.8423
-39.6482
-32.6616
-25.644
-14.3419
-5.91858
0.612151
5.47048
8.34164
10.0841
10.5889
10.7724
10.8623
10.614
10.4058
9.84726
9.42614
9.10547
8.49049
8.69128
0.0260301
0.126949
0.178343
0.249049
0.298667
0.350665
0.392008
0.430502
0.462062
0.489077
0.510383
0.527253
0.540606
0.552877
0.566644
0.58406
0.605449
0.628696
0.649392
0.668146
0.688644
0.672082
0.576339
0.441995
0.356452
0.392752
0.430707
0.527971
0.612543
0.709736
0.823212
0.959614
1.11838
1.2748
1.37376
1.33375
1.13942
0.952736
0.869712
0.836752
0.755716
0.609551
0.407924
0.144634
-0.183129
-0.595484
-1.11085
-1.7585
-2.5792
-3.62859
-4.98182
-6.72207
-8.9435
-11.7586
-15.1611
-19.1437
-23.7555
-28.6413
-29.6569
-49.2387
-43.1185
-35.292
-27.6969
-15.2736
-6.12393
0.851155
5.93083
8.84515
10.5601
10.9438
11.0781
11.1418
10.889
10.6724
10.0916
9.665
9.28846
8.68014
8.88655
0.0253312
0.131704
0.183177
0.256477
0.30702
0.360477
0.402729
0.442166
0.474414
0.50195
0.523483
0.540274
0.553268
0.565071
0.578494
0.595782
0.616676
0.637166
0.654001
0.675048
0.69673
0.649969
0.547563
0.396504
0.304575
0.346917
0.389838
0.497539
0.58675
0.691425
0.813633
0.963258
1.14036
1.31833
1.43302
1.38387
1.15289
0.949279
0.8769
0.832995
0.71764
0.550873
0.341542
0.0766452
-0.248381
-0.655877
-1.16493
-1.80689
-2.62593
-3.6837
-5.06486
-6.86533
-9.19592
-12.1915
-15.8638
-20.2748
-25.6443
-31.1498
-33.5552
-55.1329
-46.8971
-38.0467
-29.862
-16.2575
-6.32605
1.11851
6.42603
9.37496
11.0501
11.2929
11.3742
11.4108
11.1571
10.9328
10.3295
9.89696
9.4647
8.85955
9.10272
0.024513
0.136594
0.188027
0.263953
0.315374
0.370266
0.413397
0.453755
0.486677
0.514716
0.536444
0.553097
0.565637
0.576844
0.589773
0.606648
0.626064
0.642887
0.659389
0.68715
0.690563
0.631022
0.517657
0.349065
0.251774
0.298775
0.350457
0.468403
0.562676
0.675222
0.80666
0.97063
1.16801
1.37036
1.50278
1.43949
1.16083
0.945583
0.882046
0.807433
0.658661
0.482192
0.272757
0.0120303
-0.305113
-0.70287
-1.20089
-1.83296
-2.64709
-3.71142
-5.12041
-6.98274
-9.42564
-12.6067
-16.5579
-21.4211
-27.5976
-33.7184
-38.3539
-61.4459
-50.9971
-40.9118
-32.119
-17.2859
-6.52381
1.41796
6.95982
9.93314
11.5542
11.6342
11.659
11.6682
11.4182
11.1874
10.5583
10.1214
9.63388
9.0432
9.26765
0.0235654
0.141631
0.192893
0.271477
0.323726
0.380028
0.424007
0.465264
0.498844
0.527369
0.549261
0.565709
0.577679