/*--------------------------------*- C++ -*----------------------------------*\
| =========                 |                                                 |
| \\      /  F ield         | OpenFOAM: The Open Source CFD Toolbox           |
|  \\    /   O peration     | Version:  4.1                                   |
|   \\  /    A nd           | Web:      www.OpenFOAM.org                      |
|    \\/     M anipulation  |                                                 |
\*---------------------------------------------------------------------------*/
FoamFile
{
    version     2.0;
    format      ascii;
    class       volVectorField;
    location    "17";
    object      U;
}
// * * * * * * * * * * * * * * * * * * * * * * * * * * * * * * * * * * * * * //

dimensions      [0 1 -1 0 0 0 0];

internalField   nonuniform List<vector> 
6785
(
(1.41627e-14 -2.34218 16.5289)
(1.11069e-14 -7.91328 13.0379)
(-2.58327e-15 -5.12348 13.8317)
(4.78442e-15 -5.04198 13.3476)
(7.80406e-16 -4.23548 13.2118)
(-1.68398e-16 -3.78815 12.9242)
(2.51146e-15 -3.34002 12.6329)
(6.19104e-16 -3.00937 12.2969)
(-5.99473e-16 -2.76899 11.9468)
(1.86764e-15 -2.65567 11.598)
(1.63667e-16 -2.64418 11.3191)
(-5.48546e-16 -2.74848 11.1428)
(5.96896e-16 -3.31516 10.7057)
(-2.1687e-16 -3.49155 9.68224)
(-2.0091e-16 -0.150955 7.55374)
(1.9258e-14 -10.3304 27.0468)
(1.31049e-14 -16.4081 23.3958)
(-2.33084e-15 -11.2932 23.7546)
(4.91709e-15 -12.1196 21.9175)
(7.02417e-16 -10.4106 21.0659)
(9.53081e-16 -9.81516 19.8327)
(1.92871e-15 -8.85913 18.7419)
(3.01719e-16 -8.11009 17.5964)
(1.80449e-16 -7.36065 16.4861)
(8.50335e-16 -6.69258 15.3815)
(-1.92701e-17 -5.97785 14.1351)
(-2.82951e-16 -4.9123 12.1892)
(-4.70505e-16 -3.08178 8.53802)
(-8.11427e-16 -0.342086 2.80996)
(-6.96016e-16 1.4955 -2.29524)
(2.08895e-14 -12.6981 28.1968)
(1.22752e-14 -17.07 24.9082)
(-1.97972e-15 -12.0122 24.9334)
(5.07478e-15 -13.405 22.2492)
(8.25131e-16 -11.1545 21.2744)
(1.46823e-15 -10.9009 19.4318)
(2.23151e-15 -9.78747 18.0674)
(3.31218e-16 -9.1669 16.5517)
(4.87865e-16 -8.4164 15.1868)
(1.55504e-15 -7.77066 13.8098)
(4.9009e-16 -7.03717 12.2828)
(2.67192e-16 -5.87215 10.1062)
(6.9991e-16 -3.86639 6.18237)
(4.77172e-18 0.538331 -0.283869)
(-2.26425e-15 1.79488 -6.21134)
(2.093e-14 -13.0286 27.0792)
(1.24541e-14 -16.8419 24.6784)
(-1.58613e-15 -12.1756 24.2082)
(4.62263e-15 -13.7562 21.1264)
(6.97574e-16 -11.2393 20.2034)
(1.88095e-15 -11.2334 18.0083)
(2.24589e-15 -9.97163 16.573)
(-7.60523e-17 -9.43604 14.9672)
(6.49463e-16 -8.79265 13.6853)
(9.01409e-16 -8.29726 12.4143)
(-9.28358e-16 -7.73829 11.0156)
(-3.79751e-16 -6.88614 9.39439)
(2.15516e-16 -5.73329 7.15969)
(-2.22935e-15 -3.40004 4.139)
(-2.86398e-15 -1.34605 0.379102)
(2.03734e-14 -13.1161 26.365)
(1.07269e-14 -16.1384 24.3362)
(-1.75108e-15 -12.0035 23.6665)
(3.38119e-15 -13.2459 20.5812)
(-3.66819e-16 -10.5493 19.6782)
(1.295e-15 -10.5387 17.3504)
(3.52873e-16 -8.9021 15.9606)
(-1.46866e-15 -8.12606 13.9729)
(-1.36315e-16 -6.95892 12.1338)
(-6.345e-16 -6.40383 10.5386)
(-2.18285e-15 -6.20318 9.61682)
(-5.26085e-16 -6.17713 9.0349)
(-8.69739e-16 -6.04239 8.6043)
(-5.91207e-15 -5.45007 7.77985)
(-5.5979e-15 -3.78592 5.78017)
(2.09975e-14 -13.9002 27.0801)
(8.09837e-15 -15.7417 24.9811)
(-7.78421e-16 -12.4057 24.3049)
(1.92243e-15 -12.8935 21.7641)
(-1.18e-16 -10.5916 20.8326)
(9.3896e-16 -10.2746 18.9816)
(-1.09684e-15 -8.55328 17.5476)
(-5.49933e-16 -6.9857 14.7243)
(1.33013e-15 -4.47447 11.0323)
(2.04555e-15 -2.46111 7.42567)
(2.08394e-15 -1.43549 5.47223)
(-3.70962e-17 -1.91628 5.64904)
(-3.34473e-15 -3.732 7.78662)
(-5.03534e-15 -5.79004 10.1062)
(-2.46339e-15 -4.76591 9.30694)
(2.04788e-14 -14.7318 28.152)
(7.33501e-15 -17.0808 27.2912)
(-1.47538e-15 -13.5134 25.9356)
(1.44025e-15 -14.0344 23.6852)
(-6.99876e-16 -11.9113 22.831)
(-3.61194e-16 -11.8012 21.1459)
(-1.42374e-15 -10.2406 19.9147)
(-1.42723e-15 -8.91992 17.2183)
(-3.69804e-16 -6.2168 13.4427)
(1.87889e-15 -3.50798 9.0982)
(6.62979e-16 -0.871431 5.25268)
(-8.46334e-16 1.22486 1.80382)
(-2.28696e-15 2.16369 -0.0550089)
(-6.07754e-15 1.06928 0.786298)
(-4.87788e-15 -0.71127 2.67851)
(1.95844e-14 -14.0755 26.1196)
(1.06264e-14 -18.5822 29.5411)
(-4.48445e-16 -14.8679 27.0167)
(1.17508e-15 -14.9843 24.3669)
(-4.48362e-16 -13.1995 23.2802)
(-1.67099e-16 -13.0778 21.5359)
(-5.74169e-16 -11.9417 20.2902)
(-1.07329e-15 -11.1594 18.2979)
(-7.55009e-16 -9.53059 15.7683)
(7.1375e-16 -7.58409 12.5874)
(5.45567e-16 -5.2132 9.11917)
(8.05284e-16 -2.48475 5.11462)
(1.12832e-15 0.738469 0.347017)
(1.51493e-15 3.75432 -3.96341)
(-2.48904e-16 2.10604 -5.19365)
(1.77039e-14 -12.2404 21.9641)
(1.43341e-14 -18.4261 29.5933)
(2.52693e-15 -15.4815 26.9549)
(9.62643e-16 -14.7234 23.6189)
(3.85237e-16 -13.1935 22.0072)
(8.1057e-16 -12.7508 20.1629)
(6.25832e-16 -11.8342 18.6724)
(2.93563e-16 -11.1255 16.9277)
(3.27126e-16 -10.1675 15.0608)
(5.78796e-16 -9.02131 12.96)
(9.62614e-16 -7.66178 10.6276)
(1.23571e-15 -5.9464 8.05636)
(9.39429e-16 -4.01409 5.02041)
(2.16145e-15 -1.24332 1.79914)
(-5.72564e-16 0.979947 -3.68408)
(1.64958e-14 -10.5758 18.6323)
(1.65319e-14 -17.4542 28.6755)
(4.65881e-15 -15.2596 26.384)
(1.13506e-15 -13.9375 22.6942)
(9.41874e-16 -12.4304 20.77)
(1.32146e-15 -11.769 18.9059)
(1.15149e-15 -10.8367 17.3479)
(1.141e-15 -10.0439 15.6895)
(9.88936e-16 -9.18719 14.0619)
(5.72405e-16 -8.2754 12.4201)
(1.26786e-15 -7.31221 10.6913)
(9.81351e-16 -6.11339 8.84686)
(-5.17682e-16 -4.80209 6.6213)
(2.27776e-15 -2.69057 3.83445)
(-1.73662e-15 -0.237834 -1.6366)
(1.5193e-14 -9.74314 17.1924)
(1.78094e-14 -16.6968 27.9871)
(5.20301e-15 -14.9366 25.9274)
(9.85396e-16 -13.3815 22.1841)
(1.40431e-15 -11.8844 20.1324)
(5.6265e-16 -11.1671 18.3224)
(6.99838e-16 -10.2574 16.8271)
(1.54919e-15 -9.47816 15.2853)
(-5.03884e-16 -8.66796 13.8171)
(-4.12653e-16 -7.86049 12.3992)
(1.31205e-15 -7.07081 10.9695)
(-1.35939e-15 -6.14247 9.50656)
(-1.86294e-15 -5.17168 7.80122)
(-2.58553e-15 -3.60331 5.69387)
(-8.0136e-15 -1.05349 0.791858)
(1.51455e-14 -9.47624 16.7018)
(1.89695e-14 -15.9473 27.089)
(4.37457e-15 -14.5683 25.2206)
(3.86043e-16 -13.0119 21.596)
(2.41488e-15 -11.5105 19.3722)
(-9.70245e-16 -10.7506 17.6006)
(-1.06603e-15 -9.91931 16.2055)
(1.91909e-15 -9.21784 14.813)
(-3.27652e-16 -8.49721 13.4714)
(-2.24454e-15 -7.78917 12.152)
(-1.2232e-15 -7.12388 10.8598)
(-3.34412e-15 -6.43762 9.70962)
(-2.89506e-15 -5.83209 8.6409)
(-5.1432e-15 -4.78834 7.49675)
(-9.74926e-15 -2.36497 3.18634)
(1.39621e-14 -9.93105 17.3652)
(1.84233e-14 -15.3643 26.1579)
(2.23369e-15 -13.7069 23.8094)
(-1.07695e-15 -12.4627 20.8074)
(3.69611e-15 -11.3225 19.042)
(-2.21288e-15 -10.7666 17.3899)
(-4.29737e-15 -10.062 15.9694)
(4.6121e-15 -9.47983 14.4966)
(1.12587e-15 -8.83988 13.0336)
(-3.58372e-15 -8.20652 11.6311)
(-1.88999e-15 -7.6384 10.5475)
(-4.14832e-15 -7.26721 10.081)
(-5.09226e-15 -7.08242 10.2262)
(-5.38768e-15 -6.65929 10.3025)
(-1.18747e-14 -4.49109 7.17459)
(1.03907e-14 -9.33353 15.5881)
(1.80002e-14 -15.6848 25.8197)
(9.46724e-16 -14.1492 23.5204)
(-4.5821e-15 -11.5455 18.9847)
(7.94307e-16 -9.32129 16.0419)
(-4.14024e-15 -8.08017 13.9983)
(4.48501e-16 -6.89817 12.5117)
(4.96944e-15 -6.09485 11.1008)
(-2.3063e-16 -5.5789 10.2613)
(-2.33221e-15 -5.70984 10.2373)
(-3.58867e-15 -6.38096 11.1216)
(-5.89448e-15 -7.36605 12.5072)
(-6.14744e-15 -8.16647 13.9157)
(-8.45373e-15 -8.33936 14.2293)
(-1.23894e-14 -5.64548 10.132)
(3.77127e-15 -6.70782 11.6625)
(1.27724e-14 -15.2286 23.2991)
(8.62342e-15 -18.2472 26.2945)
(2.88075e-15 -18.554 25.5081)
(1.29721e-15 -17.4657 23.7832)
(-5.17448e-16 -16.0043 21.357)
(5.95556e-16 -13.8664 18.4104)
(2.07778e-15 -11.4966 15.3314)
(1.7562e-15 -9.08013 12.2687)
(9.99788e-16 -6.87427 9.52247)
(-2.21977e-15 -5.32101 7.9179)
(-4.27998e-15 -5.20615 8.33223)
(-6.50082e-15 -6.21497 10.5663)
(-1.15534e-14 -7.01116 11.6421)
(-1.10007e-14 -3.731 6.82532)
(-2.82568e-17 9.32567 41.5856)
(-1.14888e-15 -0.186865 4.63337)
(-1.14731e-15 -0.432788 -2.83416)
(-1.11511e-15 -0.267345 -1.9155)
(-1.13668e-15 -0.120566 -2.1178)
(-1.56068e-15 0.322005 -2.67741)
(-1.156e-15 0.146872 -1.92689)
(-1.10211e-15 0.346655 -1.98163)
(-1.24806e-15 0.478906 -1.98041)
(-3.61676e-16 0.800301 -2.45206)
(1.49728e-16 0.699472 -1.73616)
(1.52002e-16 0.867028 -1.66633)
(-3.01316e-16 1.21601 -2.0803)
(-4.47272e-16 1.03163 -1.45935)
(-5.593e-16 1.22837 -1.4461)
(-5.95323e-16 1.25849 -1.41239)
(-1.01941e-15 1.60479 -1.72812)
(-6.73145e-16 1.38735 -1.21436)
(-6.6808e-16 1.52992 -1.16452)
(-1.01991e-15 1.91067 -1.38961)
(-8.5246e-16 1.55585 -0.982973)
(-9.55966e-16 1.77073 -0.977194)
(-8.52273e-16 1.73599 -0.974854)
(-1.25273e-15 2.14264 -1.13501)
(-1.05e-15 1.73021 -0.826666)
(-1.06648e-15 1.9412 -0.827479)
(-1.23641e-15 1.90041 -0.83641)
(-1.37292e-15 2.25138 -0.93161)
(-1.1876e-15 1.84129 -0.697452)
(-1.28264e-15 1.96871 -0.688654)
(-1.86365e-15 2.31488 -0.695961)
(-1.59138e-15 1.78624 -0.532575)
(-1.54279e-15 1.98703 -0.514101)
(-1.54869e-15 1.93042 -0.49629)
(-2.10933e-15 2.20534 -0.387087)
(-1.49048e-15 1.74839 -0.266875)
(-1.25769e-15 1.84678 -0.238511)
(-1.56455e-15 2.10847 -0.00118988)
(-8.25478e-16 1.5867 0.0211611)
(-6.20997e-16 1.73537 0.0639643)
(-2.08147e-16 1.65223 0.0783732)
(4.45835e-17 1.86531 0.401996)
(3.98514e-16 1.40455 0.307019)
(5.99366e-16 1.51451 0.330803)
(7.42724e-16 1.42902 0.319839)
(1.3882e-15 1.57919 0.665776)
(1.03172e-15 1.26743 0.547691)
(1.10497e-15 1.28628 0.505411)
(1.69867e-15 1.44429 0.87702)
(1.61373e-15 1.17145 0.693217)
(1.71423e-15 1.21687 0.6662)
(1.7196e-15 1.13712 0.581269)
(2.41305e-15 1.17479 0.944746)
(1.83855e-15 0.905095 0.60954)
(1.71811e-15 0.922863 0.546415)
(1.79945e-15 0.889719 0.47519)
(2.25859e-15 0.793328 0.546123)
(1.71565e-15 0.480586 0.0685934)
(1.06608e-15 0.506982 0.104406)
(1.42972e-15 0.63231 -1.01787)
(1.0646e-15 -0.156347 -1.42465)
(1.11677e-15 -0.0343284 -1.48309)
(8.29979e-16 0.314679 -1.41502)
(2.52279e-15 0.199597 -2.577)
(-1.19917e-15 -0.79745 -0.209341)
(-9.28937e-16 -0.334528 -0.334807)
(-2.4159e-15 -1.20323 1.87179)
(-2.63308e-15 -1.79097 3.04099)
(-2.76398e-15 -1.95569 3.02032)
(-3.18161e-15 -1.91763 3.35442)
(-4.81288e-15 -3.33426 6.4258)
(-3.92181e-15 -3.76235 5.96366)
(-4.13593e-15 -4.28844 6.19316)
(-4.11971e-15 -4.23315 6.51511)
(-4.86845e-15 -6.51599 10.4317)
(-2.90447e-15 -6.67554 8.43263)
(-2.57563e-15 -6.8023 8.8821)
(-1.89132e-15 -9.52169 12.8604)
(-5.78792e-16 -9.31257 9.71346)
(-1.62223e-16 -9.7755 10.3612)
(-9.70489e-16 -10.4265 12.5428)
(-4.66839e-16 -10.3184 12.5332)
(-2.87973e-16 -10.4235 12.9612)
(2.52813e-15 -12.0814 15.0936)
(8.86645e-16 -11.1006 13.5022)
(9.14968e-16 -11.3594 14.1462)
(8.53686e-16 -11.2683 14.2883)
(8.45763e-16 -11.341 14.4469)
(7.71288e-16 -11.3382 14.6546)
(7.28087e-16 -11.3926 14.8875)
(9.7019e-16 -11.453 15.0639)
(1.39028e-15 -11.4407 15.2138)
(2.89797e-15 -12.4605 16.6861)
(1.76884e-15 -11.8816 15.4856)
(1.82707e-15 -12.0087 15.7635)
(1.91053e-15 -12.0127 15.9008)
(2.332e-15 -12.0751 15.7754)
(2.27484e-15 -12.1391 15.8373)
(2.27744e-15 -12.2164 15.9721)
(2.19323e-15 -12.3256 16.1346)
(2.08986e-15 -12.3411 16.4157)
(3.36336e-15 -13.2382 18.3413)
(2.97254e-15 -12.6217 16.9965)
(3.03038e-15 -12.773 17.3084)
(2.99951e-15 -12.8082 17.5085)
(2.99399e-15 -12.9056 17.8053)
(3.17251e-15 -12.9669 18.1629)
(3.46682e-15 -13.0916 18.4655)
(3.42801e-15 -13.1275 18.4781)
(3.39709e-15 -13.2673 18.5099)
(3.32471e-15 -13.2914 18.5208)
(3.49312e-15 -13.5179 19.5042)
(3.16492e-15 -13.0533 18.7787)
(3.23488e-15 -13.1418 18.8326)
(3.29425e-15 -13.1786 18.8621)
(3.39043e-15 -13.2702 18.9433)
(3.4923e-15 -13.2813 19.0675)
(3.63419e-15 -13.3921 19.437)
(3.83202e-15 -13.4106 19.5028)
(4.01643e-15 -13.4892 19.4826)
(4.53924e-15 -12.5702 18.896)
(4.31957e-15 -12.5299 19.2957)
(4.55422e-15 -12.4785 19.7417)
(4.60045e-15 -12.555 20.1203)
(4.76734e-15 -12.4959 20.0971)
(4.9187e-15 -12.552 20.0854)
(5.05581e-15 -12.5576 19.912)
(5.12263e-15 -12.4867 19.672)
(4.97863e-15 -12.6725 19.6427)
(5.63713e-15 -10.2122 16.1542)
(5.14462e-15 -10.9818 17.8867)
(5.23328e-15 -10.8232 17.3692)
(5.37159e-15 -10.8452 17.2227)
(5.67564e-15 -10.7844 17.2232)
(5.85442e-15 -10.7394 17.07)
(6.10307e-15 -10.6371 16.91)
(6.44207e-15 -10.5476 16.7892)
(6.81807e-15 -10.6122 16.5906)
(7.97996e-15 -7.73354 13.2219)
(7.84914e-15 -8.68703 16.2568)
(8.03452e-15 -8.36945 15.8725)
(8.0353e-15 -8.42561 15.5388)
(7.87292e-15 -8.26294 14.8377)
(7.60017e-15 -8.23681 13.9481)
(7.76298e-15 -8.04463 12.952)
(6.86164e-15 -7.92029 11.8504)
(6.04551e-15 -7.6347 10.3985)
(5.13227e-15 -7.46429 8.88208)
(2.57409e-15 -4.24162 2.03252)
(3.84802e-15 -5.75711 6.06943)
(2.94599e-15 -5.2252 4.32011)
(2.40442e-15 -5.32298 3.86695)
(1.76623e-15 -4.95737 3.09902)
(1.2684e-15 -4.85988 2.51555)
(4.70028e-16 -4.66132 1.39461)
(-2.41846e-16 -4.33374 0.395606)
(2.28784e-17 -4.29746 0.746224)
(-6.60649e-16 -3.55576 -1.62719)
(-1.86094e-16 -3.6916 0.444612)
(-7.53756e-17 -3.57345 0.060988)
(-5.68336e-16 -2.5211 -2.15435)
(-7.62061e-16 -4.07968 -1.63593)
(-8.26494e-16 -3.01896 -1.38567)
(-6.90447e-16 -2.75226 -0.948161)
(-9.24246e-16 -3.40428 -1.35236)
(-6.55066e-16 -2.32862 -0.820837)
(-9.56284e-16 -2.93409 -1.24917)
(-6.85049e-16 -2.62966 -0.923943)
(-5.62054e-16 -2.14336 -0.671702)
(-8.3974e-16 -2.53772 -1.01366)
(-7.55037e-16 -2.32639 -0.771664)
(-6.4312e-16 -1.94614 -0.561512)
(-9.0771e-16 -2.57149 -0.806678)
(-7.0726e-16 -1.71164 -0.513709)
(-1.06797e-15 -2.2297 -0.788204)
(-8.26468e-16 -1.95499 -0.619885)
(-7.1802e-16 -1.66799 -0.460673)
(-9.18449e-16 -2.22452 -0.661418)
(-5.77677e-16 -1.46126 -0.430049)
(-9.08693e-16 -1.93572 -0.651726)
(-7.97055e-16 -1.7708 -0.530754)
(-6.82767e-16 -1.41708 -0.398838)
(-9.97075e-16 -1.73368 -0.601223)
(-8.73394e-16 -1.61123 -0.488592)
(-6.16788e-16 -1.33082 -0.363874)
(-9.1166e-16 -1.82484 -0.518004)
(-7.26032e-16 -1.17616 -0.342022)
(-9.82404e-16 -1.58544 -0.515808)
(-5.48988e-16 -1.3892 -0.423665)
(-5.27428e-16 -1.16965 -0.317598)
(-7.0976e-16 -1.61199 -0.451474)
(-5.47243e-16 -1.01884 -0.299358)
(-8.14101e-16 -1.39814 -0.449441)
(-6.88378e-16 -1.26654 -0.378337)
(-4.23378e-16 -0.991816 -0.285294)
(-6.76805e-16 -1.24573 -0.430415)
(-5.55973e-16 -1.14033 -0.358831)
(-2.67503e-16 -0.922272 -0.267239)
(-3.75634e-16 -1.31184 -0.380689)
(-2.41384e-16 -0.79641 -0.255489)
(-3.5929e-16 -1.12547 -0.388869)
(-3.91877e-16 -0.951294 -0.330305)
(-5.54015e-16 -0.780635 -0.24913)
(-6.05137e-16 -1.12721 -0.356295)
(-3.32894e-16 -0.65017 -0.242632)
(-5.83056e-16 -0.956457 -0.370261)
(-4.26106e-16 -0.825931 -0.324466)
(-2.20063e-16 -0.607811 -0.248528)
(-4.1496e-16 -0.812977 -0.377911)
(-3.59547e-16 -0.701736 -0.325268)
(-2.79699e-16 -0.525888 -0.24385)
(-5.6935e-16 -0.836513 -0.34248)
(-6.13919e-16 -0.402415 -0.235529)
(-4.98897e-16 -0.685359 -0.359252)
(-2.51303e-16 -0.501848 -0.314856)
(-9.20239e-17 -0.361589 -0.237152)
(-1.90469e-17 -0.658672 -0.331638)
(1.99264e-16 -0.220623 -0.231075)
(2.78557e-16 -0.525313 -0.357028)
(3.82218e-16 -0.361318 -0.329151)
(4.03183e-16 -0.135843 -0.250942)
(8.66296e-16 -0.406863 -0.382961)
(1.48517e-15 -0.214904 -0.345244)
(1.99061e-16 -0.00331482 -0.242439)
(3.81602e-16 -0.637997 -0.312313)
(-5.70474e-16 0.328435 -0.183073)
(-9.43025e-16 -0.366419 -0.311892)
(-1.56252e-15 -0.638301 -0.373)
(-1.02628e-15 0.586562 -0.289005)
(-3.35377e-16 -0.595557 -0.32616)
(1.76907e-16 0.263534 -0.197633)
(-6.37402e-16 0.226142 -0.215066)
(-3.07975e-16 -0.0588308 -0.381392)
(9.26505e-17 0.352173 -0.319439)
(7.741e-16 0.308105 -0.42222)
(1.31973e-15 0.108044 -0.646058)
(1.00181e-15 0.54012 -0.453525)
(1.13557e-15 0.290715 -0.698283)
(6.9888e-16 0.592013 -0.52726)
(5.42403e-16 0.612325 -0.698641)
(-1.43569e-36 0.562049 0.661047)
(-2.12401e-35 0.653226 0.659648)
(-4.09474e-35 0.705727 0.664615)
(5.49693e-35 0.758812 0.669042)
(5.81967e-34 0.808628 0.676216)
(1.56869e-33 0.855176 0.68415)
(1.79177e-35 0.899504 0.693704)
(-1.60364e-32 0.941438 0.704302)
(-6.59553e-32 0.981366 0.716129)
(-1.20572e-31 1.01937 0.728996)
(1.05663e-31 1.0556 0.742913)
(1.60222e-30 1.09021 0.757803)
(6.56827e-30 1.12331 0.773644)
(1.6944e-29 1.15507 0.790405)
(1.71102e-29 1.18564 0.808073)
(-1.20247e-28 1.21519 0.82664)
(-9.30111e-28 1.24391 0.846106)
(-3.54402e-27 1.27196 0.866475)
(-6.30176e-27 1.29948 0.887749)
(1.49551e-26 1.32662 0.90993)
(1.57902e-25 1.3535 0.933025)
(5.87955e-25 1.38026 0.957054)
(9.077e-25 1.40712 0.982076)
(-2.58877e-24 1.43446 1.00821)
(-2.20864e-23 1.46289 1.03565)
(-7.20654e-23 1.49322 1.06464)
(-9.26165e-23 1.52623 1.09541)
(3.08962e-22 1.56239 1.1281)
(2.22921e-21 1.60179 1.16275)
(6.80114e-21 1.6442 1.19926)
(9.676e-21 1.68896 1.23738)
(-1.54891e-20 1.73513 1.27671)
(-1.42607e-19 1.78153 1.31671)
(-4.85232e-19 1.82685 1.35674)
(-1.01688e-18 1.86978 1.39637)
(-9.49803e-19 1.90911 1.43593)
(2.64569e-18 1.94366 1.47766)
(1.70397e-17 1.97208 1.52729)
(5.61774e-17 1.99256 1.59524)
(1.41465e-16 2.00278 1.69609)
(2.98949e-16 2.00057 1.84476)
(5.52218e-16 1.98528 2.04947)
(9.13378e-16 1.95881 2.30484)
(1.37661e-15 1.92551 2.58981)
(1.91742e-15 1.89046 2.8729)
(2.49712e-15 1.85706 3.12157)
(3.06926e-15 1.82475 3.3098)
(3.58548e-15 1.78756 3.42019)
(4.0012e-15 1.73777 3.444)
(4.28507e-15 1.67908 3.38987)
(4.42428e-15 1.61475 3.28484)
(4.38348e-15 1.39578 3.05514)
(4.06483e-15 0.56364 2.30096)
(3.61059e-15 -0.70695 1.1804)
(3.24865e-15 -1.54404 0.903864)
(2.75901e-15 -2.05264 0.691426)
(2.20695e-15 -2.53501 0.477261)
(1.62259e-15 -3.02959 0.258496)
(1.04286e-15 -3.45202 0.0375532)
(5.22527e-16 -3.81365 -0.12422)
(1.72896e-16 -4.11571 -0.255112)
(2.72614e-17 -4.35905 -0.314035)
(-1.59034e-18 -4.59604 -0.345712)
(-1.3175e-18 -4.79521 -0.354325)
(-1.48951e-19 -4.92214 -0.356368)
(1.14405e-20 -4.96581 -0.350055)
(3.86429e-21 -4.91425 -0.348058)
(2.03984e-22 -4.77223 -0.34167)
(-4.79498e-23 -4.52405 -0.345083)
(-8.79921e-24 -4.20732 -0.335447)
(-2.63593e-23 -3.7492 -0.342528)
(6.86608e-23 -3.32247 -0.312492)
(-2.24023e-22 -2.64838 -0.328368)
(9.71469e-22 -2.45988 -0.25921)
(-5.27033e-21 -1.43367 -0.323456)
(4.68701e-20 -2.15338 -0.206021)
(-4.33289e-19 -1.15991 -0.350483)
(2.13874e-18 -1.2262 -0.328079)
(9.68532e-18 -4.86213 -0.372047)
(-2.11342e-36 0.562478 0.700694)
(-6.7095e-36 0.652792 0.697233)
(6.55485e-35 0.704321 0.702046)
(4.2041e-34 0.757033 0.705954)
(1.06518e-33 0.806275 0.713065)
(-4.03361e-34 0.852433 0.720928)
(-1.44245e-32 0.896327 0.730566)
(-6.02979e-32 0.937892 0.741296)
(-1.1659e-31 0.977453 0.75333)
(8.36186e-32 1.01512 0.766454)
(1.47442e-30 1.05103 0.780683)
(5.91376e-30 1.08532 0.795936)
(1.4451e-29 1.11812 0.812199)
(1.52954e-29 1.14958 0.829442)
(-7.89959e-29 1.17986 0.847661)
(-6.70635e-28 1.20913 0.866854)
(-2.88402e-27 1.23755 0.887022)
(-6.93239e-27 1.2653 0.90817)
(2.82978e-27 1.29254 0.930298)
(1.10183e-25 1.31938 0.953403)
(5.22427e-25 1.34596 0.977494)
(1.18119e-24 1.37241 1.0026)
(-6.48698e-25 1.39892 1.02883)
(-1.6695e-23 1.42587 1.05635)
(-6.93712e-23 1.45383 1.08543)
(-1.34932e-22 1.48361 1.11638)
(1.09831e-22 1.51602 1.14941)
(1.80545e-21 1.55155 1.18459)
(6.80958e-21 1.59034 1.22185)
(1.31014e-20 1.6322 1.26098)
(-2.37777e-21 1.67653 1.30157)
(-1.17147e-19 1.72242 1.34309)
(-4.77102e-19 1.76873 1.38482)
(-1.14536e-18 1.81412 1.42617)
(-1.46527e-18 1.8571 1.46725)
(1.49376e-18 1.89594 1.51022)
(1.55927e-17 1.92849 1.56124)
(5.66758e-17 1.95198 1.63232)
(1.49936e-16 1.96315 1.74116)
(3.2671e-16 1.95915 1.9069)
(6.15308e-16 1.93926 2.14139)
(1.02865e-15 1.90658 2.43951)
(1.55539e-15 1.86805 2.77546)
(2.15991e-15 1.83205 3.10946)
(2.79055e-15 1.80498 3.40125)
(3.39034e-15 1.78874 3.62157)
(3.90558e-15 1.77994 3.75555)
(4.2913e-15 1.76977 3.7985)
(4.51442e-15 1.74664 3.75056)
(4.55544e-15 1.70844 3.62279)
(4.40813e-15 1.66997 3.45197)
(4.08309e-15 1.55023 3.2201)
(3.66638e-15 0.884049 2.52567)
(3.46233e-15 -0.598342 1.00991)
(3.21204e-15 -1.53487 0.821602)
(2.74286e-15 -2.03493 0.67342)
(2.19552e-15 -2.51748 0.45778)
(1.61753e-15 -3.00932 0.247871)
(1.04207e-15 -3.43665 0.0331973)
(5.23952e-16 -3.80673 -0.124453)
(1.74383e-16 -4.11844 -0.251133)
(2.77367e-17 -4.36945 -0.307157)
(-1.63923e-18 -4.60812 -0.337196)
(-1.37342e-18 -4.80593 -0.344516)
(-1.57193e-19 -4.92975 -0.346362)
(1.23613e-20 -4.96951 -0.340544)
(4.21006e-21 -4.91371 -0.339374)
(2.18009e-22 -4.76747 -0.334491)
(-5.31643e-23 -4.51652 -0.3393)
(-9.61646e-24 -4.19655 -0.331391)
(-2.63224e-23 -3.73832 -0.339844)
(6.84067e-23 -3.3079 -0.311434)
(-2.23623e-22 -2.63474 -0.327774)
(9.74847e-22 -2.43782 -0.260588)
(-5.36802e-21 -1.40684 -0.321626)
(4.7708e-20 -2.12123 -0.206692)
(-4.37922e-19 -1.10559 -0.347575)
(2.04813e-18 -1.17481 -0.30826)
(6.44867e-18 -4.7941 -0.371267)
(1.33724e-35 0.562872 0.722018)
(1.16143e-34 0.652764 0.717743)
(4.33849e-34 0.703725 0.722446)
(9.06274e-34 0.756254 0.726108)
(-3.99649e-34 0.805195 0.733193)
(-1.17814e-32 0.851163 0.741038)
(-5.03885e-32 0.894843 0.750737)
(-1.08387e-31 0.936231 0.761558)
(1.11469e-32 0.975614 0.773723)
(1.07139e-30 1.01311 0.78701)
(4.63457e-30 1.04887 0.801432)
(1.13858e-29 1.08301 0.816911)
(1.23521e-29 1.11566 0.833432)
(-4.59055e-29 1.14697 0.850972)
(-3.94049e-28 1.1771 0.869528)
(-1.7771e-27 1.20622 0.8891)
(-5.17003e-27 1.23449 0.909693)
(-4.28961e-27 1.26209 0.931308)
(5.03945e-26 1.28918 0.953942)
(3.27376e-25 1.31587 0.977593)
(1.0056e-24 1.3423 1.00227)
(8.38347e-25 1.36858 1.02801)
(-8.05392e-24 1.3949 1.05494)
(-4.72266e-23 1.4216 1.08328)
(-1.27571e-22 1.44928 1.11335)
(-7.62266e-23 1.47873 1.14547)
(9.503e-22 1.5108 1.17983)
(4.89784e-21 1.546 1.21646)
(1.24356e-20 1.58451 1.25521)
(1.01855e-20 1.62615 1.29581)
(-6.11787e-20 1.67034 1.33775)
(-3.41097e-19 1.71621 1.38039)
(-9.75425e-19 1.76261 1.42299)
(-1.64346e-18 1.80805 1.46526)
(-2.17673e-19 1.85068 1.50855)
(9.79701e-18 1.88805 1.55783)
(4.26132e-17 1.91693 1.62394)
(1.22384e-16 1.93351 1.72433)
(2.81126e-16 1.93432 1.8798)
(5.50057e-16 1.91796 2.10622)
(9.46259e-16 1.88703 2.40375)
(1.46166e-15 1.8486 2.75049)
(2.06154e-15 1.81214 3.10704)
(2.69312e-15 1.78568 3.4303)
(3.29788e-15 1.77288 3.68716)
(3.8211e-15 1.77235 3.86019)
(4.21731e-15 1.77848 3.94495)
(4.45343e-15 1.78185 3.94318)
(4.51081e-15 1.77079 3.85702)
(4.38412e-15 1.7406 3.69363)
(4.07418e-15 1.70356 3.48518)
(3.59779e-15 1.61054 3.2524)
(3.11556e-15 1.07232 2.69027)
(3.15719e-15 -0.384077 1.04572)
(3.14647e-15 -1.47798 0.638719)
(2.72031e-15 -1.98205 0.642526)
(2.18218e-15 -2.45397 0.430108)
(1.61117e-15 -2.9471 0.229695)
(1.04132e-15 -3.38103 0.0250369)
(5.25895e-16 -3.76181 -0.127028)
(1.76302e-16 -4.08616 -0.247647)
(2.83387e-17 -4.34953 -0.298619)
(-1.69773e-18 -4.59582 -0.325532)
(-1.44228e-18 -4.79902 -0.330448)
(-1.67448e-19 -4.92659 -0.331402)
(1.34779e-20 -4.96887 -0.326106)
(4.64182e-21 -4.91494 -0.3259)
(2.36199e-22 -4.76983 -0.323145)
(-5.98788e-23 -4.52076 -0.330038)
(-1.06755e-23 -4.20178 -0.324684)
(-2.62767e-23 -3.74712 -0.335295)
(6.81101e-23 -3.31719 -0.309238)
(-2.2318e-22 -2.65028 -0.326646)
(9.79071e-22 -2.44959 -0.261551)
(-5.48119e-21 -1.43013 -0.320497)
(4.86786e-20 -2.13213 -0.20629)
(-4.4258e-19 -1.11538 -0.345537)
(2.00021e-18 -1.19841 -0.28352)
(4.29286e-19 -4.75512 -0.365671)
(9.2228e-35 0.563472 0.747321)
(5.14656e-34 0.652677 0.74229)
(1.21629e-33 0.702817 0.746903)
(6.59579e-34 0.755043 0.750352)
(-8.67008e-33 0.803523 0.757441)
(-4.47268e-32 0.849188 0.765309)
(-1.13945e-31 0.892533 0.775112)
(-7.71173e-32 0.933639 0.786075)
(7.11472e-31 0.972743 0.798426)
(3.76112e-30 1.00999 0.811934)
(1.01496e-29 1.04549 0.826611)
(1.29049e-29 1.07939 0.842381)
(-2.77437e-29 1.11181 0.859231)
(-2.59722e-28 1.1429 0.877141)
(-1.14678e-27 1.1728 0.896114)
(-3.5828e-27 1.20168 0.916153)
(-5.62142e-27 1.22972 0.937264)
(1.90847e-26 1.25709 0.959449)
(1.87721e-25 1.28395 0.982702)
(7.40243e-25 1.31041 1.00702)
(1.32334e-24 1.3366 1.03241)
(-2.72094e-24 1.36263 1.05892)
(-2.87768e-23 1.38865 1.08669)
(-1.03309e-22 1.415 1.116)
(-1.58876e-22 1.44225 1.14722)
(3.63043e-22 1.47122 1.18072)
(3.19109e-21 1.50278 1.21667)
(1.0485e-20 1.53748 1.25503)
(1.62976e-20 1.57554 1.29561)
(-2.11013e-20 1.61682 1.33801)
(-2.24488e-19 1.66079 1.38161)
(-7.85617e-19 1.70659 1.42565)
(-1.64393e-18 1.753 1.46953)
(-1.37114e-18 1.79825 1.51385)
(5.25098e-18 1.83982 1.56242)
(3.08396e-17 1.87408 1.6248)
(9.85479e-17 1.89644 1.71797)
(2.41345e-16 1.9022 1.86425)
(4.94181e-16 1.88854 2.08371)
(8.79718e-16 1.85687 2.38244)
(1.39449e-15 1.81408 2.74341)
(2.00464e-15 1.77109 3.12783)
(2.65424e-15 1.73878 3.48846)
(3.27983e-15 1.72385 3.78611)
(3.82248e-15 1.72718 3.99867)
(4.23407e-15 1.74476 4.12)
(4.47992e-15 1.76941 4.15349)
(4.54067e-15 1.79123 4.10507)
(4.41405e-15 1.79799 3.97833)
(4.11235e-15 1.78191 3.77793)
(3.64865e-15 1.75377 3.53033)
(3.03624e-15 1.69657 3.27765)
(2.44832e-15 1.28742 2.82071)
(2.59922e-15 -0.174917 1.2787)
(3.06854e-15 -1.43355 0.41991)
(2.68166e-15 -1.96857 0.57033)
(2.17179e-15 -2.41277 0.399516)
(1.60462e-15 -2.90614 0.202911)
(1.04105e-15 -3.34471 0.0122099)
(5.28271e-16 -3.73335 -0.132472)
(1.78446e-16 -4.06775 -0.245415)
(2.89894e-17 -4.34004 -0.28918)
(-1.75714e-18 -4.59121 -0.311342)
(-1.51354e-18 -4.79721 -0.312772)
(-1.78099e-19 -4.92612 -0.311937)
(1.46035e-20 -4.96896 -0.307045)
(5.08951e-21 -4.91513 -0.307855)
(2.55847e-22 -4.76974 -0.307647)
(-6.70772e-23 -4.52126 -0.317251)
(-1.18256e-23 -4.20225 -0.315118)
(-2.62299e-23 -3.74988 -0.328664)
(6.7825e-23 -3.31967 -0.30559)
(-2.22785e-22 -2.65691 -0.324881)
(9.83578e-22 -2.45272 -0.261886)
(-5.59187e-21 -1.43933 -0.320278)
(4.96254e-20 -2.13323 -0.205137)
(-4.4631e-19 -1.1129 -0.344607)
(1.99039e-18 -1.2048 -0.255112)
(-3.97168e-18 -4.72996 -0.352858)
(3.51539e-34 0.564111 0.771593)
(1.44988e-33 0.652711 0.76608)
(2.16051e-33 0.702098 0.770617)
(-3.65611e-33 0.754049 0.773927)
(-3.48556e-32 0.802112 0.781045)
(-1.13544e-31 0.847508 0.788972)
(-1.62002e-31 0.890556 0.798904)
(3.36735e-31 0.931415 0.810034)
(2.84329e-30 0.970275 0.822593)
(9.09427e-30 1.00729 0.836342)
(1.48078e-29 1.04258 0.851293)
(-1.11277e-29 1.07627 0.867371)
(-1.78092e-28 1.10848 0.884566)
(-7.92935e-28 1.13936 0.902863)
(-2.49697e-27 1.16905 0.922267)
(-4.93494e-27 1.19773 0.942787)
(4.95077e-27 1.22556 0.964429)
(1.00152e-25 1.25272 0.987197)
(4.90984e-25 1.27937 1.01108)
(1.25701e-24 1.30563 1.03607)
(5.14575e-26 1.3316 1.06218)
(-1.52868e-23 1.35739 1.08946)
(-7.36793e-23 1.38314 1.11809)
(-1.71318e-22 1.40914 1.14836)
(1.12873e-23 1.43596 1.18073)
(1.81516e-21 1.46445 1.2156)
(7.91079e-21 1.49552 1.25315)
(1.74604e-20 1.52977 1.29326)
(4.5128e-21 1.56745 1.33566)
(-1.296e-19 1.60845 1.37984)
(-5.87928e-19 1.65229 1.42505)
(-1.49234e-18 1.6981 1.47051)
(-2.01113e-18 1.74442 1.51624)
(1.83581e-18 1.78892 1.56487)
(2.08968e-17 1.82795 1.62449)
(7.6837e-17 1.8564 1.71105)
(2.02879e-16 1.8685 1.84758)
(4.3719e-16 1.85977 2.05755)
(8.08149e-16 1.82996 2.35278)
(1.31779e-15 1.78503 2.72196)
(1.93422e-15 1.73649 3.12854)
(2.59876e-15 1.69749 3.52235)
(3.24268e-15 1.67767 3.8581)
(3.80235e-15 1.68022 4.10827)
(4.22717e-15 1.70239 4.26424)
(4.48177e-15 1.73784 4.32963)
(4.54659e-15 1.77852 4.31277)
(4.41894e-15 1.81489 4.22144)
(4.11412e-15 1.83534 4.05959)
(3.66236e-15 1.83026 3.82935)
(3.09155e-15 1.80539 3.54958)
(2.40847e-15 1.76061 3.27158)
(1.73992e-15 1.45202 2.8927)
(1.84474e-15 0.114408 1.61187)
(2.95199e-15 -1.35752 0.240989)
(2.62886e-15 -1.97697 0.431163)
(2.16205e-15 -2.38417 0.362799)
(1.5997e-15 -2.87199 0.167228)
(1.04153e-15 -3.31602 -0.00747336)
(5.31248e-16 -3.7117 -0.141762)
(1.80838e-16 -4.056 -0.245175)
(2.96798e-17 -4.33645 -0.279324)
(-1.81695e-18 -4.59131 -0.29463)
(-1.58448e-18 -4.79882 -0.291306)
(-1.88573e-19 -4.92759 -0.287616)
(1.56781e-20 -4.96968 -0.282834)
(5.52406e-21 -4.91474 -0.284723)
(2.75586e-22 -4.76803 -0.287431)
(-7.42861e-23 -4.51934 -0.300428)
(-1.29994e-23 -4.1996 -0.302251)
(-2.61856e-23 -3.74907 -0.319572)
(6.75683e-23 -3.31805 -0.300209)
(-2.22461e-22 -2.65888 -0.322247)
(9.8826e-22 -2.45071 -0.261508)
(-5.69661e-21 -1.44151 -0.320618)
(5.05212e-20 -2.12826 -0.203474)
(-4.49441e-19 -1.10315 -0.344571)
(1.98889e-18 -1.20253 -0.23404)
(-4.10809e-18 -4.71175 -0.339557)
(1.00113e-33 0.564825 0.796027)
(3.01343e-33 0.652748 0.790213)
(1.37521e-33 0.70133 0.794698)
(-2.04372e-32 0.752967 0.797938)
(-9.51955e-32 0.80057 0.805116)
(-2.05756e-31 0.845665 0.813143)
(6.27586e-33 0.888383 0.823235)
(1.84091e-30 0.928969 0.834568)
(7.53855e-30 0.967558 0.847365)
(1.57037e-29 1.00433 0.861387)
(3.51504e-30 1.03937 0.876643)
(-1.15107e-28 1.07283 0.893061)
(-5.65322e-28 1.10481 0.91063)
(-1.79677e-27 1.13546 0.929344)
(-3.93234e-27 1.16492 0.94921)
(-7.56282e-28 1.19336 0.970242)
(5.0146e-26 1.22096 0.99245)
(3.03363e-25 1.24789 1.01583)
(9.87705e-25 1.27431 1.04039)
(1.17212e-24 1.30033 1.06609)
(-6.67744e-24 1.32607 1.09296)
(-4.71047e-23 1.3516 1.12104)
(-1.46918e-22 1.37703 1.15054)
(-1.59676e-22 1.40263 1.18181)
(8.34906e-22 1.42896 1.21537)
(5.36447e-21 1.45691 1.25167)
(1.55699e-20 1.48743 1.29087)
(1.81784e-20 1.52118 1.3328)
(-5.88724e-20 1.55843 1.37709)
(-4.04139e-19 1.59916 1.42308)
(-1.24973e-18 1.64288 1.46992)
(-2.24401e-18 1.68859 1.5172)
(-5.58678e-19 1.73437 1.56652)
(1.27852e-17 1.77685 1.62438)
(5.75398e-17 1.81083 1.70531)
(1.66508e-16 1.8297 1.83236)
(3.80541e-16 1.82738 2.03162)
(7.33895e-16 1.80141 2.32019)
(1.23518e-15 1.75596 2.69292)
(1.8559e-15 1.70214 3.11703)
(2.53549e-15 1.65461 3.54104)
(3.19956e-15 1.62607 3.91396)
(3.77871e-15 1.62281 4.20189)
(4.21889e-15 1.64414 4.39252)
(4.48377e-15 1.68459 4.4889)
(4.55423e-15 1.73672 4.50065)
(4.42808e-15 1.79248 4.43791)
(4.12029e-15 1.84288 4.30852)
(3.66271e-15 1.87695 4.11626)
(3.10009e-15 1.88384 3.86176)
(2.47243e-15 1.86464 3.557)
(1.7813e-15 1.82799 3.25108)
(1.08032e-15 1.59595 2.90968)
(1.06405e-15 0.416777 1.8639)
(2.69739e-15 -1.22511 0.148028)
(2.59027e-15 -1.98881 0.230765)
(2.14198e-15 -2.36479 0.305889)
(1.59911e-15 -2.83534 0.125724)
(1.04316e-15 -3.28614 -0.0359913)
(5.35113e-16 -3.68873 -0.156132)
(1.83584e-16 -4.04331 -0.247846)
(3.04254e-17 -4.33221 -0.270019)
(-1.87901e-18 -4.59085 -0.276062)
(-1.65471e-18 -4.79994 -0.266505)
(-1.98584e-19 -4.92858 -0.258804)