/*--------------------------------*- C++ -*----------------------------------*\
| =========                 |                                                 |
| \\      /  F ield         | OpenFOAM: The Open Source CFD Toolbox           |
|  \\    /   O peration     | Version:  4.1                                   |
|   \\  /    A nd           | Web:      www.OpenFOAM.org                      |
|    \\/     M anipulation  |                                                 |
\*---------------------------------------------------------------------------*/
FoamFile
{
    version     2.0;
    format      ascii;
    class       surfaceScalarField;
    location    "12";
    object      phi;
}
// * * * * * * * * * * * * * * * * * * * * * * * * * * * * * * * * * * * * * //

dimensions      [0 3 -1 0 0 0 0];

internalField   nonuniform List<scalar> 
13220
(
-815.641
2115.54
-1275.27
1759.83
-1739.21
1763.83
-2083.78
1644.47
-2363.32
1579.74
-2565.4
1501.99
-2696.07
1430.57
-2755.2
1359.33
-2746.38
1291.08
-2669.15
1222.67
-2516.04
1147.09
-2254
1037.86
-1795.32
841.222
-1036.39
541.273
263.51
-180.383
2295.93
-410.186
1989.64
-678.438
2032.09
-890.367
1856.4
-1096.04
1785.41
-1261.11
1667.05
-1400.06
1569.52
-1505.96
1465.24
-1583.99
1369.12
-1632.89
1271.57
-1633.51
1147.71
-1528.45
932.789
-1198.3
511.076
-560.169
-96.8553
-296.658
-122.342
2418.27
-315.747
2183.04
-450.241
2166.58
-524.234
1930.4
-585.019
1846.2
-604.037
1686.07
-598.923
1564.41
-565.802
1432.12
-507.412
1310.73
-426.391
1190.55
-329.403
1050.73
-231.33
834.723
-142.644
422.411
-66.0697
-173.406
-362.728
98.1959
2320.07
93.6577
2187.58
141.249
2118.99
213.885
1857.76
289.479
1770.61
385.478
1590.08
491.579
1458.31
606.786
1316.91
724.428
1193.09
840.674
1074.31
942.029
949.375
974.763
801.987
808.06
589.113
270.345
364.305
-92.3829
97.2721
2222.8
143.968
2140.89
210.244
2052.72
281.413
1786.6
348.32
1703.7
428.671
1509.73
506.507
1380.47
601.833
1221.59
709.13
1085.79
812.318
971.117
877.359
884.333
864.346
815.001
709.766
743.694
422.823
651.25
330.44
-0.949305
2223.75
20.2005
2119.74
34.4127
2038.51
24.5582
1796.45
12.461
1715.8
-9.93251
1532.12
-21.9206
1392.46
31.0026
1168.66
175.22
941.572
384.877
761.458
582.489
686.72
677.35
720.135
594.659
826.38
357.485
888.417
687.926
-99.747
2323.5
-226.501
2246.49
-330.337
2142.34
-473.085
1939.2
-618.608
1861.32
-790.92
1704.43
-957.598
1559.14
-1074.72
1285.79
-1101.93
968.779
-1022
681.522
-830.635
495.358
-537.634
427.136
-223.694
512.442
-17.1162
681.841
670.809
32.7186
2290.78
-183.13
2462.34
-324.377
2283.59
-461.182
2076
-592.253
1992.39
-733.385
1845.56
-892.522
1718.27
-1088.77
1482.03
-1315.99
1196
-1528.05
893.581
-1640.07
607.374
-1541.56
328.622
-1150.97
121.854
-530.125
60.9854
140.684
285.985
2004.79
179.113
2569.21
101.812
2360.89
78.3563
2099.46
91.659
1979.09
109.981
1827.24
125.075
1703.18
81.6477
1525.46
-37.0539
1314.7
-215.231
1071.76
-415.888
808.029
-602.079
514.815
-660.471
180.247
-485.294
-114.192
-344.61
357.777
1647.02
408.856
2518.13
418.438
2351.31
477.209
2040.69
581.662
1874.63
692.996
1715.91
813.586
1582.59
906.693
1432.35
949.023
1272.37
922.027
1098.75
818.838
911.218
625.473
708.177
339.416
466.299
36.55
188.668
-308.06
221.956
1425.06
301.256
2438.83
343.418
2309.14
403.266
1980.84
489.295
1788.6
577.532
1627.67
664.452
1495.67
737.86
1358.94
786.754
1223.48
797.663
1087.84
762.484
946.395
671.076
799.585
510.462
626.913
279.804
419.325
-28.2565
85.0168
1340.04
161.447
2362.4
222.598
2247.99
266.807
1936.63
314.775
1740.63
359.829
1582.61
400.301
1455.2
429.966
1329.28
448.509
1204.93
454.325
1082.03
443.017
957.702
406.772
835.828
327.216
706.466
185.548
560.986
157.292
59.5138
1280.53
148.302
2273.61
250.402
2145.89
364.193
1822.84
481.569
1623.26
583.715
1480.47
664.201
1374.71
721.296
1272.18
748.581
1177.65
745.121
1085.49
705.299
997.525
622.095
919.031
483.904
844.657
281.162
763.726
438.454
216.457
1064.07
347.223
2142.84
317.548
2175.57
227.914
1912.47
155.005
1696.16
109.939
1525.53
106.09
1378.56
144.44
1233.83
223.392
1098.69
333.322
975.555
450.704
880.143
507.905
861.829
425.266
927.296
233.147
955.845
671.601
490.942
1471.62
2149.55
2374.83
2367.19
2258.45
2014.33
1746.18
1455.25
1172.64
871.978
608.027
385.214
207.225
6.92656e-06
-212.907
212.907
-212.907
-212.907
-212.907
310.348
-523.255
310.348
310.348
310.348
724.409
-414.061
724.409
724.409
1037.87
-313.46
1037.87
1037.87
1037.87
1242.67
-204.797
1242.67
1242.67
1350.85
-108.186
1350.85
1350.85
1350.85
1362.94
-12.0907
1362.94
1362.94
1362.94
1294.08
68.8653
1294.08
1294.08
1159.67
134.409
1159.67
1159.67
1159.67
976.414
183.254
976.414
976.414
765.768
210.647
765.768
765.768
765.768
556.453
209.315
556.453
556.453
556.453
388.82
167.633
388.82
388.82
338.932
49.8875
338.932
338.932
338.932
223.606
115.326
223.606
223.606
223.606
25.6805
197.926
25.6805
25.6805
-165.213
190.894
-165.213
-165.213
-165.213
-658.29
493.077
-658.29
-658.29
-1637.37
979.075
-1637.37
-1637.37
-1637.37
-3094.31
1456.94
-3094.31
-3094.31
-3094.31
-4949.45
1855.14
-4949.45
-4949.45
-7065.68
2116.23
-7065.68
-7065.68
-6908.04
-6748.9
-6584.87
-8770.38
2355.54
-8601.64
-8407.1
-8197.83
-7986.53
-7772.18
-7554.28
-7338.72
-7128.91
-9518.94
2599.18
-9300.22
-9078.6
-8855.55
-8649.02
-8439.63
-8227.04
-8013.15
-7798.05
-10281
2689.21
-10058.8
-9835
-9609.89
-9384.79
-9154.88
-8915.47
-8675.82
-8435.91
-8196.98
-10485.9
2513.74
-10227.3
-9967.49
-9706.59
-9445.81
-9184.95
-8907.96
-8622.04
-8336.18
-10320.7
2255.35
-10037.2
-9744.48
-9437.53
-9131.53
-8826.37
-8523.91
-8223.25
-7904.12
-9344.6
1741.97
-9038.01
-8734.16
-8431.3
-8114.63
-7792.33
-7471.32
-7149.72
-6829.93
-7787.81
1275.58
-7459.29
-7136.74
-6820.37
-6512.61
-6214.97
-5911.05
-5619.56
-5339.89
-5072.28
-4745.55
-53.3583
-4505.68
-4281.85
-4061.74
-3846.3
-3633.81
-3459.19
-3355.97
-3249.68
-2856.65
-274.756
-2756.11
-2658.24
-2658.24
-2454.46
-203.776
-2256.58
-197.882
-2256.58
-2096.22
-160.357
-2096.22
-1967.82
-128.397
-1866.51
-101.313
-1866.51
-1783.4
-83.1089
-1718.21
-65.1865
-1718.21
-1664.72
-53.4912
-1664.72
-1626.34
-38.3871
-1595.67
-30.6673
-1595.67
-1572.19
-23.4771
-1572.19
-1559.28
-12.9077
-1545.54
-13.7448
-1545.54
-1538.63
-6.91183
-1529.09
-9.53916
-1529.09
-1520.51
-8.58131
-1520.51
-1514.82
-5.68927
-1503.86
-10.9615
-1503.86
-1491.76
-12.1003
-1491.76
-1481.68
-10.0719
-1465.16
-16.5197
-1465.16
-1449.89
-15.2779
-1430.11
-19.7765
-1430.11
-1408.86
-21.2526
-1408.86
-1388.76
-20.0953
-1364.08
-24.6782
-1364.08
-1337.26
-26.8286
-1337.26
-1311.2
-26.058
-1279.68
-31.5192
-1279.68
-1247.11
-32.5635
-1210.95
-36.1682
-1210.95
-1171.85
-39.0971
-1171.85
-1131.73
-40.1155
-1088.18
-43.5556
-1088.18
-1040.64
-47.5427
-1040.64
-991.077
-49.5591
-938.008
-53.0691
-938.008
-880.053
-57.9542
-820.947
-59.1064
-820.947
-757.118
-63.8294
-757.118
-689.582
-67.5356
-622.113
-67.469
-622.113
-549.309
-72.8041
-549.309
-471.595
-77.714
-394.635
-76.96
-394.635
-309.453
-85.1818
-228.18
-81.2727
-228.18
-146.371
-81.8094
-146.371
-77.4787
-63.4919
-282.759
-63.5247
-337.449
-63.9153
-370.347
-64.4206
-403.351
-65.1294
-435.034
-65.9757
-465.025
-66.9826
-494.229
-68.1304
-522.44
-69.4236
-550.012
-70.8543
-576.956
-72.4211
-603.414
-74.1189
-629.428
-75.944
-655.054
-77.8915
-680.311
-79.9565
-705.207
-82.1334
-729.733
-84.4171
-753.868
-86.8023
-777.588
-89.2843
-800.87
-91.8592
-823.7
-94.5241
-846.078
-97.2776
-868.027
-100.119
-889.592
-103.05
-910.842
-106.07
-931.862
-109.182
-952.744
-112.386
-973.572
-115.683
-994.421
-119.075
-1015.36
-122.565
-1036.46
-126.161
-1057.87
-129.876
-1079.78
-133.725
-1102.51
-137.719
-1126.42
-141.864
-1151.83
-146.147
-1178.9
-150.544
-1207.52
-155.014
-1237.43
-159.504
-1268.16
-163.954
-1299.14
-168.302
-1329.78
-172.49
-1359.59
-176.464
-1388.22
-180.179
-1415.57
-183.592
-1441.78
-186.662
-1467.02
-189.361
-1491.24
-191.698
-1513.71
-193.739
-1532.83
-195.584
-1546.1
-197.261
-1550.15
-198.549
-1540.8
-198.801
-1512.8
-196.882
-1459.05
-191.157
-1372.99
-177.465
-1253.04
-137.767
-1020.8
-56.9151
-299.717
0.717423
711.422
26.8195
1175.38
42.1695
1506.69
50.4914
1848.58
54.6976
2203.1
56.4652
2554.14
57.0615
2876.77
57.0356
3136.59
56.5154
3321.16
56.2162
3430.76
55.4512
3446.34
54.6294
3394.21
52.0823
3234.09
49.9409
3069.77
44.634
2776.68
44.0661
2716.73
38.014
2280.95
42.8846
2674.93
49.3552
2064.11
52.1512
2614.84
4275.21
-67.7919
-283.137
-67.6986
-337.542
-68.043
-370.003
-68.5184
-402.876
-69.2247
-434.328
-70.0821
-464.168
-71.1152
-493.196
-72.2997
-521.255
-73.6397
-548.672
-75.1251
-575.47
-76.7535
-601.786
-78.5183
-627.663
-80.4145
-653.158
-82.436
-678.29
-84.5767
-703.067
-86.8304
-727.479
-89.1912
-751.507
-91.6537
-775.126
-94.2135
-798.31
-96.8676
-821.046
-99.6144
-843.331
-102.454
-865.188
-105.387
-886.659
-108.416
-907.813
-111.543
-928.735
-114.769
-949.517
-118.096
-970.246
-121.522
-990.994
-125.052
-1011.83
-128.692
-1032.82
-132.454
-1054.1
-136.356
-1075.88
-140.418
-1098.45
-144.65
-1122.19
-149.05
-1147.43
-153.595
-1174.35
-158.244
-1202.87
-162.945
-1232.73
-167.635
-1263.47
-172.25
-1294.52
-176.729
-1325.31
-181.023
-1355.29
-185.098
-1384.14
-188.943
-1411.73
-192.567
-1438.15
-196.022
-1463.57
-199.429
-1487.83
-203.017
-1510.12
-207.104
-1528.75
-211.977
-1541.23
-217.645
-1544.48
-223.548
-1534.9
-228.382
-1507.96
-230.173
-1457.26
-226.427
-1376.74
-212.539
-1266.92
-169.445
-1063.89
-64.7405
-404.422
5.18294
641.499
28.7417
1151.82
44.4488
1490.98
52.2447
1840.78
55.7203
2199.63
56.6825
2553.18
56.5901
2876.86
56.0903
3137.09
55.1827
3322.07
54.7567
3431.19
53.937
3447.16
53.2141
3394.93
50.8359
3236.47
48.9175
3071.69
43.851
2781.74
43.4639
2717.12
37.6069
2286.8
42.416
2670.12
48.867
2057.66
52.2242
2611.49
4245.63
-70.1077
-283.59
-69.9694
-337.681
-70.2861
-369.686
-70.7493
-402.413
-71.455
-433.622
-72.3207
-463.302
-73.3694
-492.147
-74.5757
-520.049
-75.9425
-547.305
-77.459
-573.954
-79.1221
-600.123
-80.9242
-625.861
-82.8598
-651.222
-84.922
-676.227
-87.1042
-700.884
-89.3998
-725.183
-91.8027
-749.104
-94.3076
-772.621
-96.9105
-795.708
-99.6088
-818.347
-102.402
-840.538
-105.29
-862.299
-108.276
-883.673
-111.363
-904.727
-114.552
-925.546
-117.844
-946.224
-121.241
-966.849
-124.743
-987.492
-128.353
-1008.22
-132.078
-1029.1
-135.937
-1050.25
-139.949
-1071.87
-144.136
-1094.26
-148.508
-1117.82
-153.056
-1142.89
-157.748
-1169.66
-162.538
-1198.09
-167.365
-1227.9
-172.163
-1258.67
-176.866
-1289.82
-181.417
-1320.75
-185.776
-1350.94
-189.932
-1379.98
-193.912
-1407.75
-197.803
-1434.26
-201.784
-1459.59
-206.163
-1483.45
-211.384
-1504.9
-217.927
-1522.2
-226.057
-1533.1
-235.48
-1535.06
-245.059
-1525.32
-252.794
-1500.23
-256.095
-1453.96
-252.133
-1380.7
-236.968
-1282.09
-193.36
-1107.5
-76.2129
-521.569
10.6288
554.657
32.9961
1129.45
47.9894
1475.99
55.3111
1833.46
57.5795
2197.36
57.2605
2553.5
56.0545
2878.07
54.74
3138.41
53.2446
3323.57
52.5416
3431.89
51.6524
3448.05
51.043
3395.54
48.9155
3238.59
47.3206
3073.28
42.5929
2786.47
42.4852
2717.23
36.9028
2292.39
41.6138
2665.41
48.2298
2051.05
51.9069
2607.81
4216.26
-72.8535
-284.11
-72.6724
-337.862
-72.9647
-369.394
-73.4182
-401.959
-74.1273
-432.913
-75.0059
-462.423
-76.0763
-491.077
-77.3112
-518.814
-78.7128
-545.903
-80.2692
-572.397
-81.9763
-598.416
-83.826
-624.012
-85.8118
-649.237
-87.9259
-674.113
-90.1611
-698.649
-92.5104
-722.834
-94.9672
-746.647
-97.5263
-770.062
-100.184
-793.05
-102.938
-815.593
-105.789
-837.688
-108.738
-859.35
-111.789
-880.622
-114.946
-901.57
-118.21
-922.282
-121.584
-942.851
-125.066
-963.366
-128.659
-983.9
-132.364
-1004.51
-136.194
-1025.27
-140.167
-1046.27
-144.31
-1067.72
-148.646
-1089.93
-153.184
-1113.28
-157.91
-1138.16
-162.784
-1164.79
-167.749
-1193.12
-172.739
-1222.91
-177.679
-1253.73
-182.502
-1285
-187.153
-1316.1
-191.609
-1346.48
-195.895
-1375.7
-200.112
-1403.53
-204.48
-1429.89
-209.386
-1454.68
-215.401
-1477.44
-223.21
-1497.09
-233.368
-1512.04
-245.909
-1520.56
-259.954
-1521.01
-273.57
-1511.71
-283.984
-1489.81
-288.09
-1449.85
-282.999
-1385.79
-265.69
-1299.4
-220.312
-1152.88
-94.4422
-647.439
13.0174
447.197
40.1424
1102.33
52.8482
1463.28
59.5627
1826.74
60.3364
2196.58
58.2479
2555.59
55.5047
2880.81
53.0571
3140.85
50.7513
3325.87
49.6412
3433
48.6398
3449.05
48.1534
3396.03
46.3468
3240.4
45.1616
3074.47
40.891
2790.74
41.1534
2716.97
35.9398
2297.6
40.6565
2660.69
47.3818
2044.32
50.7612
2604.43
4181.84
-75.4859
-284.679
-75.278
-338.07
-75.551
-369.121
-76
-401.51
-76.7154
-432.197
-77.6097
-461.529
-78.7035
-489.983
-79.9686
-517.549
-81.4063
-544.466
-83.0036
-570.8
-84.7558
-596.664
-86.6538
-622.114
-88.6903
-647.2
-90.8569
-671.947
-93.1457
-696.36
-95.549
-720.431
-98.0602
-744.136
-100.674
-767.448
-103.387
-790.337
-106.197
-812.783
-109.106
-834.778
-112.117
-856.339
-115.233
-877.505
-118.46
-898.344
-121.8
-918.942
-125.255
-939.396
-128.824
-959.797
-132.507
-980.217
-136.309
-1000.71
-140.242
-1021.33
-144.329
-1042.19
-148.601
-1063.45
-153.086
-1085.44
-157.791
-1108.57
-162.696
-1133.26
-167.753
-1159.73
-172.897
-1187.98
-178.051
-1217.76
-183.137
-1248.64
-188.083
-1280.05
-192.845
-1311.34
-197.424
-1341.9
-201.909
-1371.21
-206.527
-1398.91
-211.715
-1424.71
-218.156
-1448.24
-226.731
-1468.86
-238.299
-1485.52
-253.263
-1497.08
-271.081
-1502.74
-289.985
-1502.11
-307.124
-1494.57
-319.084
-1477.85
-322.529
-1446.41
-314.865
-1393.45
-294.401
-1319.86
-247.532
-1199.75
-117.268
-777.703
13.6038
316.326
49.1101
1066.82
59.4433
1452.95
65.1086
1821.08
64.1521
2197.54
59.797
2559.94
55.0453
2885.56
51.1012
3144.8
47.7213
3329.25
46.0434
3434.68
44.8601
3450.23
44.4988
3396.39
43.0629
3241.84
42.3897
3075.14
38.6646
2794.47
39.443
2716.19
34.6373
2302.4
39.5008
2655.83
46.1978
2037.62
49.4019
2601.23
4154.28
-78.1314
-285.282
-77.9073
-338.294
-78.1666
-368.861
-78.6158
-401.061
-79.3409
-431.472
-80.2542
-460.616
-81.3745
-488.863
-82.6729
-516.25
-84.1496
-542.989
-85.7909
-569.159
-87.5913
-594.863
-89.5407
-620.164
-91.6313
-645.11
-93.8536
-669.724
-96.1993
-694.015
-98.6601
-717.97
-101.229
-741.567
-103.9
-764.776
-106.672
-787.566
-109.541
-809.913
-112.512
-831.808
-115.587
-853.264
-118.772
-874.32
-122.073
-895.043
-125.493
-915.522
-129.033
-935.856
-132.692
-956.137
-136.47
-976.438
-140.372
-996.809
-144.412
-1017.29
-148.617
-1037.98
-153.022
-1059.05
-157.661
-1080.8
-162.54
-1103.69
-167.632
-1128.16
-172.882
-1154.48
-178.215
-1182.64
-183.545
-1212.43
-188.788
-1243.4
-193.873
-1274.97
-198.77
-1306.45
-203.529
-1337.14
-208.351
-1366.39
-213.672
-1393.59
-220.247
-1418.13
-229.137
-1439.35
-241.509
-1456.49
-258.183
-1468.85
-279.039
-1476.22
-302.571
-1479.21
-325.924
-1478.76
-345.438
-1475.05
-357.39
-1465.9
-358.588
-1445.21
-347.012
-1405.03
-322.401
-1344.47
-274.392
-1247.76
-146.002
-906.093
11.855
158.469
58.2689
1020.41
68.2041
1443.01
72.1237
1817.16
69.1081
2200.56
62.0418
2567.01
54.799
2892.8
48.9708
3150.63
44.2347
3333.99
41.8057
3437.11
40.3517
3451.69
40.1016
3396.64
39.073
3242.87
38.9982
3075.22
35.9039
2797.56
37.3276
2714.76
32.9803
2306.75
38.1121
2650.69
44.7654
2030.97
47.3445
2598.65
4123.91
-80.7654
-285.906
-80.5347
-338.524
-80.7857
-368.611
-81.2398
-400.607
-81.9782
-430.734
-82.9136
-459.68
-84.0634
-487.713
-85.3979
-514.916
-86.9163
-541.471
-88.6043
-567.471
-90.4556
-593.012
-92.4592
-618.16
-94.6065
-642.962
-96.8875
-667.443
-99.2928
-691.609
-101.814
-715.449
-104.443
-738.938
-107.175
-762.044
-110.007
-784.734
-112.939
-806.981
-115.974
-828.773
-119.116
-850.121
-122.373
-871.063
-125.751
-891.666
-129.253
-912.02
-132.881
-932.228
-136.634
-952.385
-140.511
-972.562
-144.515
-992.804
-148.665
-1013.14
-152.99
-1033.66
-157.533
-1054.5
-162.329
-1076.01
-167.388
-1098.63
-172.676
-1122.88
-178.128
-1149.03
-183.66
-1177.11
-189.177
-1206.91
-194.588
-1237.99
-199.831
-1269.72
-204.906
-1301.37
-209.955
-1332.09
-215.367
-1360.98
-221.902
-1387.06
-230.742
-1409.29
-243.348
-1426.75
-260.995
-1438.84
-284.079
-1445.76
-311.482
-1448.82
-340.431
-1450.26
-367.033
-1452.16
-387.182
-1454.9
-397.308
-1455.78
-394.717
-1447.8
-378.08
-1421.67
-348.414
-1374.14
-299.678
-1296.49
-186.191
-1019.58
-2.38816
-25.3342
67.0311
950.988
79.393
1430.65
80.9417
1815.61
75.294
2206.2
65.0811
2577.22
54.8592
2903.02
46.7346
3158.75
40.3414
3340.38
36.9628
3440.49
35.1337
3453.51
34.9696
3396.8
34.3767
3243.46
34.9766
3074.62
32.5995
2799.94
34.7921
2712.57
30.9643
2310.58
36.4846
2645.17
43.1177
2024.34
44.9222
2596.84
4096.03
-83.3969
-286.542
-83.1679
-338.753
-83.4159
-368.362
-83.8797
-400.143
-84.6349
-429.979
-85.5958
-458.719
-86.7781
-486.531
-88.1516
-513.542
-89.7147
-539.908
-91.4525
-565.733
-93.3575
-591.107
-95.4184
-616.1
-97.6255
-640.755
-99.9681
-665.101
-102.436
-689.141
-105.02
-712.865
-107.713
-736.245
-110.509
-759.248
-113.405
-781.838
-116.402
-803.984
-119.504
-825.672
-122.716
-846.909
-126.048
-867.732
-129.505
-888.208
-133.094
-908.431
-136.814
-928.507
-140.665
-948.534
-144.643
-968.584
-148.754
-988.693
-153.016
-1008.88
-157.465
-1029.21
-162.148
-1049.82
-167.108
-1071.05
-172.354
-1093.39
-177.846
-1117.38
-183.51
-1143.36
-189.252
-1171.37
-194.968
-1201.2
-200.565
-1232.39
-205.999
-1264.29
-211.338
-1296.03
-216.887
-1326.54
-223.34
-1354.53
-231.912
-1378.48
-244.283
-1396.92
-262.191
-1408.84
-286.64
-1414.39
-317.052
-1415.35
-350.879
-1414.99
-384.039
-1417.1
-411.972
-1424.22
-430.67
-1436.21
-437.174
-1449.27
-429.511
-1455.46
-406.99
-1444.19
-371.562
-1409.57
-321.257
-1346.8
-220.498
-1120.34
-25.89
-219.942
76.1351
848.963
92.8192
1413.97
91.9258
1816.5
82.8982
2215.23
69.0005
2591.12
55.3058
2916.72
44.4452
3169.61
36.0724
3348.76
31.5319
3445.03
29.2095
3455.84
29.0973
3396.92
28.9622
3243.59
30.3088
3073.27
28.7324
2801.52
31.8238
2709.48
28.5758
2313.83
34.6213
2639.13
41.236
2017.72
42.8338
2595.24
4071.4
-86.0273
-287.178
-85.8072
-338.974
-86.0577
-368.112
-86.5357
-399.665
-87.3113
-429.203
-88.3013
-457.729
-89.5191
-485.313
-90.9348
-512.127
-92.5456
-538.297
-94.336
-563.942
-96.2979
-589.145
-98.4192
-613.978
-100.689
-638.485
-103.097
-662.693
-105.631
-686.607
-108.282
-710.214
-111.041
-733.486
-113.904
-756.386
-116.867
-778.875
-119.932
-800.919
-123.104
-822.5
-126.389
-843.623
-129.798
-864.323
-133.339
-884.667
-137.017
-904.753
-140.834
-924.691
-144.785
-944.583
-148.869
-964.5
-153.091
-984.472
-157.469
-1004.5
-162.044
-1024.63
-166.871
-1044.99
-172
-1065.92
-177.44
-1087.95
-183.146
-1111.68
-189.034
-1137.48
-194.998
-1165.4
-200.928
-1195.27
-206.738
-1226.58
-212.429
-1258.6
-218.202
-1290.26
-224.638
-1320.11
-232.885
-1346.28
-244.727
-1366.64
-262.287
-1379.36
-287.232
-1383.89
-319.695
-1381.93
-357.553
-1377.49
-396.652
-1375.89
-431.943
-1381.81
-458.829
-1397.34
-473.975
-1421.06
-475.33
-1447.92
-461.698
-1469.1
-432.844
-1473.04
-391.148
-1451.26
-337.867
-1400.08
-243.671
-1214.54
-41.614
-422
86.3347
721.014
107.702
1392.6
105.227
1818.98
92.2285
2228.23
73.9072
2609.44
56.2184
2934.41
42.1647
3183.67
31.4683
3359.45
25.5411
3450.96
22.5944
3458.78
22.49
3397.02
22.8281
3243.26
24.9868
3071.11
24.2916
2802.21
28.4136
2705.36
25.8047
2316.44
32.5142
2632.42
39.2037
2011.03
39.757
2594.69
4043.62
-88.6596
-287.808
-88.4549
-339.178
-88.7132
-367.854
-89.2099
-399.169
-90.0097
-428.403
-91.0321
-456.707
-92.2888
-484.056
-93.7498
-510.665
-95.4115
-536.635
-97.2578
-562.096
-99.2797
-587.123
-101.465
-611.794
-103.801
-636.149
-106.276
-660.218
-108.88
-684.004
-111.601
-707.493
-114.43
-730.656
-117.363
-753.453
-120.396
-775.841
-123.533
-797.783
-126.777
-819.256
-130.139
-840.261
-133.629
-860.833
-137.257
-881.039
-141.029
-900.981
-144.945
-920.774
-149.002
-940.526
-153.196
-960.306
-157.531
-980.137
-162.029
-1000.01
-166.734
-1019.93
-171.709
-1040.02
-177.011
-1060.62
-182.655
-1082.31
-188.586
-1105.75
-194.709
-1131.35
-200.91
-1159.2
-207.075
-1189.1
-213.148
-1220.51
-219.231
-1252.52
-225.762
-1283.73
-233.757
-1312.11
-244.974
-1335.06
-261.776
-1349.84
-286.442
-1354.69
-319.95
-1350.39
-360.851
-1341.03
-405.128
-1333.22
-447.291
-1333.73
-482.033
-1347.07
-505.434
-1373.94
-515.225
-1411.27
-510.337
-1452.81
-490.251
-1489.18
-454.996
-1508.3
-406.888
-1499.37
-349.476
-1457.49
-259.828
-1304.18
-52.9061
-628.922
96.5266
571.582
122.935
1366.19
120.735
1821.18
103.663
2245.3
79.9801
2633.12
57.6777
2956.71
39.9596
3201.38
26.5754
3372.84
19.0237
3458.51
15.3105
3462.5
15.1589
3397.17
15.9795
3242.43
19.0084
3068.08
19.2708
2801.95
24.5552
2700.07
22.6439
2318.35
30.1583
2624.91
37.008
2004.18
36.5105
2595.19
4016.3
-91.2965
-288.424
-91.1129
-339.362
-91.3843
-367.582
-91.904
-398.649
-92.7319
-427.575
-93.7902
-455.649
-95.0891
-482.757
-96.5988
-509.156
-98.3146
-534.92
-100.22
-560.191
-102.305
-585.038
-104.557
-609.542
-106.963
-633.743
-109.511
-657.671
-112.187
-681.327
-114.981
-704.699
-117.884
-727.753
-120.89
-750.447
-123.997
-772.734
-127.208
-794.572
-130.529
-815.935
-133.97
-836.82
-137.545
-857.259
-141.263
-877.321
-145.132
-897.112
-149.153
-916.753
-153.321
-936.358
-157.629
-955.998
-162.081
-975.684
-166.701
-995.386
-171.539
-1015.09
-176.666
-1034.89
-182.15
-1055.13
-188.005
-1076.45
-194.172
-1099.58
-200.544
-1124.98
-207
-1152.75
-213.44
-1182.66
-219.879
-1214.07
-226.617
-1245.78
-234.493
-1275.85
-245.141
-1301.46
-261.011
-1319.19
-284.837
-1326.01
-318.443
-1321.09
-361.297
-1307.53
-409.822
-1292.5
-458.242
-1284.8
-500.485
-1291.49
-531.86
-1315.69
-549.663
-1356.13
-552.807
-1408.13
-541.067
-1464.54
-514.425
-1515.83
-473.034
-1549.69
-418.824
-1553.58
-356.513
-1519.8
-270.035
-1390.66
-64.8107
-834.146
103.595
403.176
137.961
1331.83
138.331
1820.81
117.542
2266.09
87.5006
2663.16
59.7781
2984.43
37.8925
3223.27
21.4375
3389.29
12.009
3467.94
7.37772
3467.13
7.11368
3397.44
8.42094
3241.13
12.3711
3064.13
13.6638
2800.66
20.2438
2693.49
19.0862
2319.51
27.57
2616.42
34.612
1997.14
33.9682
2595.83
3991.16
-93.9408
-289.019
-93.7835
-339.519
-94.0729
-367.293
-94.6201
-398.102
-95.4798
-426.716
-96.5779
-454.551
-97.9224
-481.413
-99.4841
-507.594
-101.257
-533.146
-103.225
-558.223
-105.378
-582.885
-107.7
-607.219
-110.179
-631.263
-112.802
-655.048
-115.555
-678.575
-118.426
-701.828
-121.406
-724.773
-124.489
-747.364
-127.674
-769.549
-130.962
-791.284
-134.363
-812.534
-137.887
-833.296
-141.549
-853.597
-145.362
-873.508
-149.333
-893.14
-153.463
-912.623
-157.746
-932.076
-162.173
-951.571
-166.747
-971.11
-171.494
-990.64
-176.467
-1010.12
-181.751
-1029.61
-187.422
-1049.46
-193.499
-1070.37
-199.914
-1093.16
-206.551
-1118.34
-213.291
-1146.01
-220.081
-1175.87
-227.094
-1207.06
-234.984
-1237.89
-245.199
-1265.64
-260.142
-1286.52
-282.83
-1296.51
-315.808
-1293.04
-359.542
-1277.35
-411.229
-1255.84
-465.111
-1238.62
-514.4
-1235.51
-553.485
-1252.4
-579.019
-1290.16
-589.716
-1345.44
-585.509
-1412.33
-566.767
-1483.29
-533.787
-1548.8
-486.783
-1596.69
-427.199
-1613.17
-359.836
-1587.16
-275.354
-1475.14
-83.9531
-1025.55
104.81
214.413
153.489
1283.15
158.018
1816.28
134.034
2290.08
96.8366
2700.36
62.6592
3018.61
36.0208
3249.91
16.095
3409.22
4.52229
3479.51
-1.18664
3472.84
-1.63667
3397.89
0.15635
3239.33
5.07475
3059.21
7.46789
2798.26
15.476
2685.49
15.1233
2319.86
24.7416
2606.8
32.0625
1989.82
29.9488
2597.95
3963.16
-96.5952
-289.588
-96.4689
-339.645
-96.7813
-366.98
-97.3603
-397.523
-98.2558
-425.82
-99.3972
-453.409
-100.791
-480.019
-102.408
-505.977
-104.242
-531.312
-106.277
-556.188
-108.499
-580.663
-110.896
-604.823
-113.453
-628.707
-116.154
-652.346
-118.988
-675.741
-121.94
-698.876
-125.001
-721.712
-128.165
-744.2
-131.43
-766.284
-134.8
-787.914
-138.283
-809.051
-141.894
-829.685
-145.648
-849.843
-149.559
-869.597
-153.637
-889.062
-157.881
-908.379
-162.284
-927.673
-166.835
-947.019
-171.536
-966.409
-176.412
-985.764
-181.525
-1005
-186.969
-1024.16
-192.835
-1043.6
-199.144
-1064.06
-205.821
-1086.49
-212.746
-1111.42
-219.825
-1138.93
-227.123
-1168.57
-235.117
-1199.06
-245.036
-1227.97
-259.151
-1251.52
-280.612
-1265.06
-312.515
-1264.6
-356.26
-1249.29
-409.994
-1223.62
-468.354
-1197.48
-524.071
-1182.91
-570.539
-1189.04
-603.567
-1219.38
-621.486
-1272.24
-624.269
-1342.65
-612.559
-1424.04
-587.056
-1508.79
-548.231
-1587.63
-496.331
-1648.59
-432.363
-1677.13
-360.478
-1659.05
-277.179
-1558.44
-119.152
-1183.57
94.1216
1.13938
170.683
1206.59
179.476
1807.49
153.026
2316.53
108.38
2745.01
66.5466
3060.44
34.4075
3282.05
10.5873
3433.04
-3.40969
3493.51
-10.3597
3479.79
-11.085
3398.61
-8.80939
3237.06
-2.88026
3053.28
0.677705
2794.7
10.2478
2675.91
10.7506
2319.36
21.6887
2595.86
29.3571
1982.15
26.8611
2600.44
3936.95
-99.2623
-290.126
-99.1715
-339.736
-99.5118
-366.64
-100.127
-396.908
-101.062
-424.885
-102.251
-452.221
-103.697
-478.573
-105.374
-504.3
-107.273
-529.413
-109.377
-554.084
-111.674
-578.366
-114.148
-602.348
-116.786
-626.069
-119.571
-649.561
-122.489
-672.823
-125.526
-695.839
-128.672
-718.566
-131.921
-740.952
-135.27
-762.935
-138.725
-784.459
-142.295
-805.481
-145.996
-825.984
-149.845
-845.994
-153.859
-865.583
-158.048
-884.873
-162.412
-904.015
-166.941
-923.144
-171.622
-942.338
-176.454
-961.577
-181.464
-980.754
-186.72
-999.746
-192.329
-1018.55
-198.396
-1037.53
-204.949
-1057.51
-211.905
-1079.53
-219.156
-1104.17
-226.689
-1131.39
-234.815
-1160.45
-244.539
-1189.34
-257.935
-1214.57
-278.178
-1231.28
-308.786
-1234.45
-351.966
-1221.42
-406.814
-1194.44
-468.595
-1161.84
-529.919
-1136.16
-583.314
-1129.51
-623.573
-1148.78
-648.441
-1194.51
-657.807
-1262.87
-652.525
-1347.93
-633.615
-1442.95
-601.915
-1540.49
-557.965
-1631.58
-502.031
-1704.53
-434.769
-1744.39
-359.398
-1734.42
-275.955
-1641.89
-146.17
-1313.36
76.071
-221.101
189.011
1093.64
201.603
1794.9
174.161
2343.97
122.451
2796.72
71.7694
3111.13
33.1437
3320.67
4.95724
3461.22
-11.7545
3510.22
-20.121
3488.15
-21.2195
3399.71
-18.4652
3234.3
-11.5099
3046.33
-6.71188
2789.91
4.57697
2664.63
5.96926
2317.96
18.4186
2583.42
26.4797
1974.09
22.6393
2604.28
3910.03
-101.945
-290.627
-101.894
-339.787
-102.267
-366.267
-102.922
-396.253
-103.901
-423.906
-105.141
-450.981
-106.644
-477.069
-108.383
-502.561
-110.35
-527.446
-112.528
-551.906
-114.904
-575.99
-117.461
-599.791
-120.184
-623.346
-123.056
-646.688
-126.063
-669.817
-129.189
-692.712
-132.424
-715.331
-135.762
-737.614
-139.199
-759.497
-142.743
-780.915
-146.404
-801.82
-150.199
-822.189
-154.147
-842.045
-158.269
-861.462
-162.574
-880.568
-167.064
-899.525
-171.724
-918.483
-176.541
-937.522
-181.51
-956.608
-186.658
-975.606
-192.06
-994.344
-197.838
-1012.78
-204.114
-1031.25
-210.923
-1050.7
-218.185
-1072.27
-225.841
-1096.51
-234.068
-1123.17
-243.638
-1150.88
-256.389
-1176.59
-275.436
-1195.53
-304.62
-1202.09
-346.887
-1192.19
-402.223
-1166.09
-466.545
-1130.12
-532.559
-1095.82
-592.223
-1076.5
-639.35
-1082.38
-670.898
-1117.23
-686.5
-1178.91
-687.155
-1262.22
-674.183
-1360.91
-648.727
-1468.41
-611.641
-1577.58
-563.473
-1679.75
-504.471
-1763.53
-435.011
-1813.85
-357.327
-1812.11
-272.711
-1726.5
-154.795
-1431.28
68.5772
-444.473
205.748
956.474
223.287
1777.36
197.047
2370.21
139.175
2854.59
78.7155
3171.59
32.3812
3367.01
-0.752273
3494.36
-20.481
3529.95
-30.4499
3498.12
-32.0252
3401.28
-28.8036
3231.08
-20.8206
3038.35
-14.6769
2783.76
-1.53553
2651.48
0.755018
2315.67
14.9482
2569.22
23.4873
1965.55
18.4795
2609.29
3880.96
-104.646
-291.088
-104.638
-339.795
-105.048
-365.857
-105.748
-395.553
-106.775
-422.878
-108.07
-449.687
-109.633
-475.506
-111.44
-500.754
-113.479
-525.406
-115.735
-549.651
-118.193
-573.532
-120.836
-597.148
-123.649
-620.533
-126.613
-643.724
-129.713
-666.717
-132.933
-689.492
-136.262
-712.002
-139.692
-734.184
-143.223
-755.966
-146.859
-777.279
-150.614
-798.065
-154.507
-818.297
-158.56
-837.992
-162.793
-857.228
-167.22
-876.14
-171.841
-894.905
-176.641
-913.684
-181.6
-932.563
-186.711
-951.497
-192.001
-970.316
-197.553
-988.793
-203.504
-1006.83
-209.997
-1024.76
-217.08
-1043.62
-224.699
-1064.65
-232.931
-1088.28
-242.334
-1113.77
-254.466
-1138.75
-272.301
-1158.75
-299.924
-1167.9
-341.003
-1161.01
-396.432
-1136.76
-462.746
-1099.77
-532.721
-1060.15
-597.893
-1030.65
-651.334
-1023.06
-689.21
-1044.51
-710.714
-1095.73
-716.876
-1172.74
-709.278
-1269.82
-689.37
-1380.81
-658.272
-1499.51
-616.79
-1619.06
-565.43
-1731.11
-504.389
-1824.57
-433.823
-1884.42
-355.084
-1890.84
-269.546
-1812.04
-158.282
-1542.54
64.2521
-667.007
218.831
801.895
244.332
1751.86
221.427
2393.11
158.362
2917.65
87.7284
3242.22
32.3601
3422.37
-6.48395
3533.2
-29.5578
3553.02
-41.3252
3509.89
-43.4865
3403.45
-39.8178
3227.41
-30.8099
3029.34
-23.1931
2776.15
-8.14753
2636.44
-4.90666
2312.43
11.3437
2552.97
20.36
1956.54
15.4989
2614.15
3852.91
-107.368
-291.504
-107.407
-339.755
-107.86
-365.405
-108.608
-394.804
-109.687
-421.799
-111.041
-448.334
-112.669
-473.877
-114.546
-498.877
-116.662
-523.29
-119
-547.314
-121.544
-570.988
-124.279
-594.413
-127.185
-617.626
-130.246
-640.663
-133.444
-663.519
-136.763
-686.174
-140.19
-708.575
-143.717
-730.656
-147.345
-752.339
-151.079
-773.545
-154.932
-794.211
-158.927
-814.302
-163.088
-833.832
-167.438
-852.878
-171.994
-871.585
-176.753
-890.146
-181.698
-908.738
-186.807
-927.454
-192.067
-946.238
-197.504
-964.879
-203.208
-983.089
-209.335
-1000.7
-216.055
-1018.04
-223.442
-1036.23
-231.532
-1056.56
-240.698
-1079.11
-252.199
-1102.26
-268.767
-1122.18
-294.632
-1132.89
-334.183
-1128.35
-389.351
-1105.85
-457.37
-1068.74
-530.968
-1026.17
-601.104
-990.012
-660.193
-971.561
-703.851
-979.397
-730.851
-1017.51
-742.101
-1084.48
-739.372
-1175.47
-724.394
-1284.79
-698.554
-1406.65
-662.879
-1535.18
-618.091
-1663.85
-564.621
-1784.58
-502.605
-1886.59
-432.053
-1954.97
-353.641
-1969.26
-268.272
-1897.41
-161.596
-1649.22
57.667
-886.27
228.461
631.101
265.276
1715.04
247.018
2411.37
179.498
2985.17
99.0137
3322.7
33.413
3487.98
-12.1488
3578.76
-38.9538
3579.82
-52.7259
3523.66
-55.5883
3406.31