/*--------------------------------*- C++ -*----------------------------------*\
| =========                 |                                                 |
| \\      /  F ield         | OpenFOAM: The Open Source CFD Toolbox           |
|  \\    /   O peration     | Version:  4.1                                   |
|   \\  /    A nd           | Web:      www.OpenFOAM.org                      |
|    \\/     M anipulation  |                                                 |
\*---------------------------------------------------------------------------*/
FoamFile
{
    version     2.0;
    format      ascii;
    class       volVectorField;
    location    "12";
    object      U;
}
// * * * * * * * * * * * * * * * * * * * * * * * * * * * * * * * * * * * * * //

dimensions      [0 1 -1 0 0 0 0];

internalField   nonuniform List<vector> 
6785
(
(1.41691e-14 -2.0277 16.4503)
(1.09018e-14 -7.71278 12.9202)
(-2.90011e-15 -5.07641 13.6452)
(3.57094e-15 -4.90453 13.2147)
(8.86632e-16 -4.14775 13.0648)
(-4.81006e-17 -3.6908 12.7947)
(3.0543e-15 -3.26228 12.5171)
(5.90476e-16 -2.94241 12.2045)
(-5.77067e-16 -2.71722 11.8773)
(1.59553e-15 -2.61431 11.5608)
(1.53164e-16 -2.60421 11.3337)
(-5.01067e-16 -2.74329 11.1754)
(7.16167e-16 -3.35272 10.6713)
(-5.96322e-18 -3.38591 9.63176)
(-2.84074e-16 0.0311441 7.57594)
(2.04513e-14 -9.89439 26.9101)
(1.30917e-14 -16.4379 23.2128)
(-2.63681e-15 -11.3023 23.5923)
(4.36403e-15 -12.0096 21.8397)
(6.92243e-16 -10.4018 20.9702)
(8.36709e-16 -9.72472 19.7885)
(1.82772e-15 -8.78137 18.7174)
(1.0625e-16 -8.00116 17.6304)
(-2.15787e-17 -7.25297 16.5921)
(6.60834e-16 -6.5575 15.5363)
(-3.61299e-16 -5.73259 14.2103)
(-7.31474e-16 -4.48501 12.0178)
(-6.3112e-16 -2.64124 8.15912)
(-5.21516e-16 -0.281712 2.7112)
(-4.46407e-16 0.907009 -1.23058)
(2.11572e-14 -12.5197 28.5238)
(1.15056e-14 -17.2783 25.1658)
(-1.83448e-15 -12.1065 25.2883)
(4.92955e-15 -13.3918 22.7433)
(5.24461e-16 -11.2471 21.7516)
(1.39117e-15 -10.8633 20.0179)
(1.96299e-15 -9.77272 18.668)
(-3.82591e-17 -9.08573 17.2052)
(4.84931e-16 -8.32988 15.8764)
(1.54159e-15 -7.66881 14.5133)
(-3.45013e-16 -6.80336 12.8115)
(-2.47239e-16 -5.23113 9.83689)
(2.5549e-15 -1.60968 3.60522)
(2.32925e-15 4.15109 -6.14654)
(-8.34415e-16 1.81372 -6.00162)
(2.07069e-14 -13.0248 27.4377)
(1.20535e-14 -17.3632 25.3192)
(-1.26535e-15 -12.5679 24.7787)
(4.66365e-15 -14.0584 21.851)
(1.12471e-15 -11.8361 20.854)
(1.47843e-15 -11.6566 18.8716)
(2.29427e-15 -10.6194 17.3885)
(6.72936e-16 -9.96634 15.7737)
(4.00353e-16 -9.26688 14.3)
(1.45431e-15 -8.62855 12.8939)
(8.20455e-16 -7.94715 11.3852)
(7.70775e-17 -6.90517 9.42527)
(7.71096e-16 -5.13562 6.29051)
(7.5641e-16 -2.6754 3.0939)
(-1.49845e-15 -0.0539809 -1.9035)
(2.01297e-14 -12.7346 26.0451)
(1.26576e-14 -16.922 25.1089)
(-1.29714e-15 -12.4424 24.0857)
(4.01506e-15 -13.7071 21.0168)
(5.69807e-16 -11.404 20.0358)
(9.20693e-16 -11.2461 17.8789)
(1.94086e-15 -10.0602 16.3682)
(-5.2509e-16 -9.41139 14.7611)
(-7.05054e-16 -8.75365 13.4099)
(8.65113e-17 -8.17028 12.1194)
(-1.34999e-15 -7.56868 10.7809)
(-1.88296e-15 -6.77852 9.37737)
(-8.38582e-16 -5.76869 7.67558)
(-2.45686e-15 -4.22945 5.86719)
(-6.57399e-15 -1.62063 1.01143)
(2.09558e-14 -12.6407 25.3087)
(1.21609e-14 -16.0467 24.3877)
(-3.04993e-16 -11.9763 23.3723)
(3.70475e-15 -13.0169 20.3029)
(5.82888e-16 -10.4815 19.3752)
(2.05087e-15 -10.3697 17.062)
(8.83188e-16 -8.77905 15.5814)
(-2.12603e-16 -7.97161 13.5408)
(1.42396e-15 -6.9482 11.7839)
(5.09833e-16 -6.52604 10.4326)
(-2.10085e-16 -6.39637 9.7204)
(6.75825e-16 -6.49179 9.45951)
(-5.8303e-16 -6.47565 9.44619)
(-2.8632e-15 -6.09696 9.07013)
(-3.53793e-15 -3.98469 6.24576)
(2.17636e-14 -13.4318 26.191)
(9.72052e-15 -15.5466 24.6974)
(8.85094e-16 -12.2079 23.8402)
(2.61376e-15 -12.6399 21.322)
(7.652e-16 -10.4101 20.3713)
(1.44681e-15 -9.99923 18.4416)
(-5.66099e-16 -8.14744 16.6865)
(6.33852e-16 -6.41406 13.5416)
(1.86948e-15 -4.10341 10.0439)
(9.3228e-16 -2.59601 7.21983)
(5.87246e-17 -2.15016 6.19)
(-1.82277e-15 -3.14727 7.228)
(-4.36566e-15 -5.14297 9.73601)
(-5.1087e-15 -6.87759 11.6068)
(-1.7055e-15 -5.18253 9.80552)
(2.09647e-14 -14.2811 27.358)
(8.80767e-15 -16.9206 27.0645)
(3.10389e-18 -13.2581 25.4904)
(1.88754e-15 -13.6996 23.3182)
(1.03094e-16 -11.6433 22.464)
(3.38761e-16 -11.3861 20.7562)
(-1.37622e-15 -9.64112 19.1645)
(-3.94552e-16 -7.92391 15.9954)
(8.38556e-16 -5.17453 12.1681)
(9.87933e-16 -2.72938 8.36422)
(5.81787e-16 -0.486684 5.09557)
(3.06869e-16 1.0348 2.48091)
(-2.40134e-16 0.992548 1.9502)
(-6.66521e-19 -0.936567 3.94273)
(5.69352e-16 -2.15879 5.36299)
(1.89883e-14 -13.5776 25.3108)
(1.17305e-14 -18.6062 29.6019)
(1.33759e-15 -14.8785 27.0432)
(1.30887e-15 -14.8558 24.3993)
(-1.35059e-16 -13.0917 23.3314)
(8.17183e-16 -12.9109 21.643)
(-7.87355e-16 -11.6687 20.2805)
(-9.65993e-16 -10.6053 17.9829)
(6.46593e-16 -8.68278 15.1453)
(6.59622e-16 -6.54489 11.821)
(6.7371e-16 -4.07212 8.26439)
(4.15454e-15 -1.49858 4.25949)
(2.27611e-15 1.53748 -0.204919)
(3.76263e-15 3.64761 -3.75184)
(3.21367e-15 1.7357 -3.53239)
(1.73341e-14 -11.596 20.8756)
(1.4994e-14 -18.4791 29.6359)
(4.13553e-15 -15.8348 27.4166)
(1.62763e-15 -14.9218 24.0265)
(1.77621e-16 -13.3923 22.3112)
(1.15014e-15 -12.917 20.5109)
(9.04169e-16 -12.0221 19.0152)
(-4.28474e-17 -11.2439 17.2121)
(7.61984e-16 -10.1686 15.2117)
(1.02352e-15 -8.88989 12.9708)
(5.97797e-16 -7.40099 10.5221)
(2.15197e-15 -5.60687 7.84176)
(2.29236e-15 -3.56964 4.70276)
(2.28876e-15 -0.76407 1.48728)
(-3.8247e-15 1.02257 -3.89475)
(1.5848e-14 -9.81925 17.2861)
(1.67698e-14 -17.4212 28.5801)
(5.83997e-15 -15.6691 26.9494)
(1.70177e-15 -14.2352 23.2005)
(6.2893e-16 -12.7061 21.0937)
(8.40619e-16 -12.006 19.2343)
(1.21599e-15 -11.1341 17.6744)
(9.97401e-16 -10.3446 16.0289)
(1.86812e-16 -9.47941 14.3569)
(3.70933e-16 -8.52068 12.6359)
(1.13622e-15 -7.49085 10.8142)
(2.86641e-16 -6.23824 8.89127)
(4.04716e-17 -4.86885 6.60625)
(-1.25022e-15 -2.72311 3.85608)
(-8.12436e-15 -0.355579 -1.67287)
(1.52073e-14 -8.88965 15.5795)
(1.79873e-14 -16.5108 27.6944)
(6.09751e-15 -15.2415 26.3302)
(1.64359e-15 -13.5793 22.4868)
(1.35186e-15 -11.9716 20.1643)
(4.25379e-17 -11.1621 18.3059)
(9.34334e-16 -10.2732 16.8078)
(1.84924e-15 -9.4854 15.3)
(-3.38889e-16 -8.67936 13.8388)
(-5.41127e-16 -7.85801 12.4134)
(5.18008e-16 -7.04783 10.9613)
(-1.82552e-15 -6.10154 9.47261)
(-8.23508e-16 -5.11256 7.72289)
(-3.27019e-15 -3.52482 5.58291)
(-8.51883e-15 -0.919811 0.365047)
(1.41146e-14 -8.82158 15.4068)
(1.82168e-14 -15.8708 26.8409)
(6.46734e-15 -14.8707 25.5762)
(7.43896e-16 -13.4728 22.2339)
(2.06862e-15 -12.1173 20.0232)
(4.74856e-16 -11.3938 18.2377)
(-1.82172e-15 -10.6384 16.7879)
(2.04219e-15 -9.93806 15.3747)
(1.227e-15 -9.19241 13.9638)
(-9.32576e-16 -8.37807 12.5442)
(-5.99574e-16 -7.53982 11.1147)
(-2.52032e-15 -6.64746 9.79121)
(-2.76085e-15 -5.84506 8.5538)
(-2.97935e-15 -4.7288 7.32474)
(-8.31451e-15 -2.36534 3.17195)
(1.13362e-14 -8.35108 13.8729)
(1.87836e-14 -15.3203 25.5138)
(4.15022e-15 -14.1579 23.8365)
(-2.55891e-15 -11.9582 19.7435)
(1.65039e-15 -10.2184 17.3589)
(-9.04835e-16 -9.43585 15.8693)
(-2.05801e-15 -8.73646 14.9248)
(2.81003e-15 -8.30256 14.0112)
(1.28025e-15 -7.93315 13.2732)
(-1.4406e-15 -7.69481 12.5981)
(-2.56624e-15 -7.5421 12.0124)
(-3.58603e-15 -7.41005 11.526)
(-3.65321e-15 -7.17521 11.0588)
(-4.50179e-15 -6.53057 10.4418)
(-9.0441e-15 -4.36923 7.1912)
(5.66402e-15 -6.8202 12.0258)
(1.6197e-14 -15.6736 24.4816)
(1.09023e-14 -18.2031 26.7549)
(2.61809e-15 -17.892 24.6837)
(2.02064e-16 -16.3204 22.0619)
(-1.24641e-15 -14.8341 19.5694)
(-2.25923e-15 -13.0949 17.0641)
(-1.13063e-16 -11.2586 14.5734)
(8.2035e-16 -9.38703 12.1162)
(-6.18101e-16 -7.6735 9.84641)
(-3.70001e-15 -6.2481 8.17823)
(-5.19993e-15 -5.84591 8.2026)
(-5.77442e-15 -6.53159 10.147)
(-8.7152e-15 -7.13059 11.3936)
(-1.14951e-14 -4.2951 7.95188)
(-6.04382e-17 11.9891 52.7854)
(-3.03895e-15 -0.0169131 5.92337)
(-3.56398e-15 -0.541385 -3.39086)
(-3.56055e-15 -0.319028 -2.37559)
(-3.66419e-15 -0.146908 -2.71188)
(-5.01299e-15 0.440009 -3.53363)
(-3.65528e-15 0.211506 -2.4814)
(-3.57311e-15 0.456511 -2.46242)
(-3.54448e-15 0.614393 -2.32779)
(-2.75339e-15 0.994062 -2.93175)
(-1.90709e-15 0.858576 -2.07402)
(-1.88233e-15 1.05084 -1.93022)
(-2.96724e-15 1.4517 -2.36957)
(-2.15954e-15 1.21406 -1.61424)
(-2.07757e-15 1.43175 -1.53949)
(-1.82073e-15 1.45743 -1.41331)
(-2.63656e-15 1.81768 -1.64618)
(-1.63665e-15 1.55301 -1.06712)
(-1.33679e-15 1.679 -0.934405)
(-1.90294e-15 2.08318 -1.00093)
(-1.14068e-15 1.66 -0.602592)
(-1.00677e-15 1.85579 -0.517411)
(-6.02598e-16 1.78637 -0.438295)
(-7.81441e-16 2.16645 -0.348191)
(-1.47754e-16 1.71126 -0.15066)
(1.67665e-16 1.87569 -0.0808433)
(3.03172e-16 1.78742 -0.0423918)
(7.64267e-16 2.0718 0.182146)
(1.16841e-15 1.66083 0.222579)
(1.37342e-15 1.71181 0.223421)
(2.1033e-15 1.97515 0.549001)
(1.78068e-15 1.48333 0.430922)
(1.94606e-15 1.59077 0.446044)
(1.82884e-15 1.49866 0.404087)
(2.55272e-15 1.66066 0.74684)
(2.14025e-15 1.25819 0.532851)
(2.03313e-15 1.29505 0.454787)
(2.70603e-15 1.40876 0.801304)
(1.98229e-15 0.990896 0.51449)
(1.78891e-15 1.05018 0.480667)
(1.78661e-15 0.997147 0.39151)
(2.18113e-15 1.03974 0.693726)
(1.38319e-15 0.706515 0.411215)
(1.21009e-15 0.752672 0.370576)
(9.90038e-16 0.725461 0.273492)
(1.22069e-15 0.734888 0.570587)
(1.9377e-16 0.481597 0.366023)
(1.29e-16 0.520064 0.25659)
(4.24268e-17 0.581616 0.63411)
(5.83186e-16 0.451528 0.507224)
(6.06306e-16 0.457986 0.429476)
(5.9049e-16 0.443735 0.264972)
(8.18359e-16 0.417512 0.556061)
(7.07014e-16 0.282184 0.343956)
(5.36447e-16 0.287554 0.249023)
(1.16079e-15 0.29467 0.145303)
(1.62702e-15 0.328562 -0.0941708)
(1.7055e-15 -0.100383 -0.326409)
(-1.61955e-15 0.120531 -0.124176)
(1.11673e-15 0.0981975 -2.33878)
(1.56176e-15 -0.490614 -1.91692)
(1.64678e-15 -0.186973 -2.1403)
(1.66249e-15 0.0155257 -2.07408)
(9.17163e-16 -0.568163 -1.25006)
(-1.49897e-15 -1.00542 0.173215)
(-1.06936e-15 -0.715251 0.203213)
(-1.35261e-15 -1.65787 2.00493)
(-8.47398e-16 -2.05648 2.53752)
(-6.53184e-16 -2.22925 2.60767)
(-6.30702e-16 -2.12535 2.87353)
(-7.01645e-16 -3.59582 5.49326)
(-4.58495e-16 -3.87334 4.94985)
(-4.16884e-16 -4.3195 5.14992)
(-3.57729e-16 -4.19281 5.37066)
(-1.52179e-16 -6.51225 8.62052)
(1.95709e-16 -6.48247 6.85765)
(2.32578e-16 -6.49375 7.22687)
(3.17733e-16 -9.20871 10.8243)
(-3.37039e-17 -8.92485 8.40793)
(-7.77737e-16 -9.19752 9.33146)
(-2.72396e-15 -9.92338 11.705)
(-3.06857e-15 -9.74136 11.6668)
(-3.47513e-15 -9.83316 11.9943)
(-2.12661e-15 -11.2399 13.8094)
(-4.1261e-15 -10.5032 12.9257)
(-4.57578e-15 -10.6702 13.7511)
(-4.86361e-15 -10.5976 14.0357)
(-5.13364e-15 -10.6496 14.3224)
(-5.18405e-15 -10.654 14.622)
(-4.93783e-15 -10.7092 14.8939)
(-4.26147e-15 -10.7618 15.0694)
(-3.42818e-15 -10.7534 15.1884)
(-1.10899e-15 -11.7028 16.7705)
(-1.52152e-15 -11.2012 15.9398)
(-6.12651e-16 -11.307 16.284)
(3.78337e-17 -11.3523 16.2979)
(6.67301e-16 -11.3978 16.1146)
(9.26521e-16 -11.4968 16.4521)
(1.15733e-15 -11.5674 16.7156)
(1.31136e-15 -11.694 17.0405)
(1.53804e-15 -11.7322 17.3689)
(3.77632e-15 -12.6488 19.1564)
(2.7724e-15 -11.9657 17.6425)
(2.84455e-15 -12.1481 17.931)
(2.839e-15 -12.1837 18.017)
(2.9425e-15 -12.2954 18.139)
(3.20367e-15 -12.3621 18.2509)
(3.44883e-15 -12.4788 18.3376)
(3.28056e-15 -12.5143 18.2615)
(3.21039e-15 -12.6392 18.3107)
(3.15324e-15 -12.685 18.4383)
(3.97752e-15 -12.9633 19.5801)
(3.37538e-15 -12.4799 18.5862)
(3.47572e-15 -12.5864 18.6861)
(3.53662e-15 -12.6138 18.7334)
(3.64238e-15 -12.708 18.8239)
(3.78994e-15 -12.7225 18.9653)
(3.93933e-15 -12.8281 19.344)
(4.0951e-15 -12.8656 19.5138)
(4.24592e-15 -12.9588 19.6684)
(5.20116e-15 -12.2097 19.5625)
(4.61949e-15 -12.1328 19.479)
(4.7042e-15 -12.122 19.8398)
(4.5837e-15 -12.1959 20.0428)
(4.70508e-15 -12.1657 19.8863)
(4.72174e-15 -12.2239 19.748)
(4.68794e-15 -12.2327 19.5282)
(4.60839e-15 -12.1933 19.3589)
(4.67455e-15 -12.3672 19.4684)
(5.84583e-15 -10.2825 16.8852)
(5.03256e-15 -10.9029 18.0928)
(5.24711e-15 -10.7881 17.7877)
(5.45184e-15 -10.8002 17.7687)
(5.856e-15 -10.7745 17.8989)
(6.13543e-15 -10.7407 17.8431)
(6.42966e-15 -10.6624 17.7416)
(6.76221e-15 -10.6156 17.665)
(7.0743e-15 -10.675 17.5053)
(8.13272e-15 -8.04289 14.4537)
(7.46215e-15 -8.90968 16.6246)
(7.35937e-15 -8.65133 15.8498)
(7.0362e-15 -8.71002 15.1789)
(6.60671e-15 -8.58486 14.2322)
(6.21143e-15 -8.51597 13.2036)
(6.68561e-15 -8.37721 12.2709)
(5.61983e-15 -8.17407 10.9117)
(4.9765e-15 -7.92273 9.57303)
(4.32898e-15 -7.73245 8.29859)
(2.01658e-15 -4.46269 2.09162)
(3.73363e-15 -6.01879 6.49295)
(3.22221e-15 -5.45433 5.14279)
(2.85741e-15 -5.52537 4.89451)
(2.50939e-15 -5.16111 4.30692)
(2.15782e-15 -5.06426 3.73752)
(1.29625e-15 -4.86722 2.46812)
(4.53298e-16 -4.51217 1.24184)
(7.84719e-16 -4.4765 1.44467)
(-1.56453e-16 -3.54926 -1.27114)
(6.68596e-16 -3.79444 0.899021)
(6.00359e-16 -3.67498 0.129587)
(-5.08785e-16 -2.55061 -2.38139)
(-1.45292e-16 -4.24135 -1.5185)
(-3.57251e-16 -3.08309 -1.35219)
(-2.83434e-16 -2.83796 -0.877723)
(-3.60051e-16 -3.50711 -1.25498)
(-2.38591e-16 -2.40236 -0.719779)
(-4.67722e-16 -3.07221 -1.0884)
(-4.09418e-16 -2.73115 -0.728195)
(-3.2025e-16 -2.24685 -0.496222)
(-5.45343e-16 -2.70837 -0.742805)
(-5.30721e-16 -2.46627 -0.492473)
(-4.68899e-16 -2.11162 -0.321241)
(-6.88016e-16 -2.80473 -0.472063)
(-5.55647e-16 -1.90991 -0.252261)
(-8.36823e-16 -2.52488 -0.39335)
(-5.51911e-16 -2.23327 -0.258374)
(-4.87317e-16 -1.9599 -0.159052)
(-5.87323e-16 -2.63103 -0.2476)
(-3.36345e-16 -1.79224 -0.122029)
(-5.70747e-16 -2.40999 -0.195259)
(-5.20281e-16 -2.24454 -0.14559)
(-4.64018e-16 -1.84704 -0.0878365)
(-6.91655e-16 -2.30131 -0.162197)
(-6.27023e-16 -2.17089 -0.136081)
(-4.10056e-16 -1.86695 -0.0889466)
(-6.50764e-16 -2.54837 -0.163121)
(-5.1478e-16 -1.73972 -0.102744)
(-6.36777e-16 -2.33037 -0.176584)
(-3.90357e-16 -2.11196 -0.175227)
(-3.85381e-16 -1.84117 -0.129827)
(-5.27938e-16 -2.50616 -0.215345)
(-4.02e-16 -1.69101 -0.145543)
(-5.97521e-16 -2.28603 -0.229455)
(-4.9007e-16 -2.15196 -0.228351)
(-3.10947e-16 -1.74173 -0.171821)
(-4.77125e-16 -2.17532 -0.275822)
(-3.78707e-16 -2.05576 -0.256082)
(-2.13375e-16 -1.74283 -0.191289)
(-3.2212e-16 -2.39059 -0.283538)
(-2.42427e-16 -1.59966 -0.193878)
(-3.81135e-16 -2.1529 -0.291998)
(-3.90725e-16 -1.93499 -0.272611)
(-3.75377e-16 -1.66473 -0.207233)
(-4.63754e-16 -2.27833 -0.301972)
(-2.4535e-16 -1.50111 -0.208056)
(-3.71248e-16 -2.0462 -0.309858)
(-2.70882e-16 -1.89838 -0.295535)
(-2.08342e-16 -1.51206 -0.227507)
(-3.31817e-16 -1.89745 -0.347498)
(-2.91963e-16 -1.7634 -0.319779)
(-2.39325e-16 -1.46911 -0.245524)
(-3.83978e-16 -2.03603 -0.351784)
(-3.16784e-16 -1.31094 -0.248735)
(-3.87431e-16 -1.79455 -0.374262)
(-1.95735e-16 -1.56519 -0.349692)
(-1.52693e-16 -1.31876 -0.274734)
(-2.09133e-16 -1.83193 -0.392939)
(-3.4672e-17 -1.13944 -0.282084)
(-9.17852e-17 -1.59693 -0.425681)
(-7.39089e-17 -1.42413 -0.402943)
(-5.75509e-17 -1.08705 -0.321868)
(5.04978e-17 -1.39543 -0.488203)
(1.74625e-16 -1.23806 -0.447522)
(-5.47674e-17 -0.98009 -0.352856)
(-4.66565e-17 -1.42129 -0.498083)
(-1.36484e-16 -0.796288 -0.361155)
(-1.55975e-16 -1.18599 -0.549055)
(-1.33635e-16 -0.935246 -0.502318)
(-1.55413e-17 -0.726181 -0.398836)
(-2.43619e-17 -1.11578 -0.562052)
(-5.5331e-18 -0.514814 -0.409099)
(1.93719e-17 -0.900308 -0.628551)
(1.73143e-16 -0.672356 -0.580627)
(-7.30517e-18 -0.375167 -0.463787)
(2.42357e-17 -0.675506 -0.704503)
(-9.41108e-17 -0.42479 -0.630244)
(-4.04378e-17 -0.180194 -0.464362)
(-6.0921e-17 -0.73556 -0.624499)
(-1.34744e-16 0.12561 -0.382404)
(-1.62336e-16 -0.39963 -0.61448)
(1.71497e-41 0.376683 0.424666)
(1.12252e-40 0.44991 0.421972)
(2.95469e-40 0.494213 0.424996)
(2.40528e-40 0.538359 0.427223)
(-1.85498e-39 0.580849 0.431711)
(-1.03528e-38 0.621003 0.436685)
(-2.53299e-38 0.660134 0.442988)
(-4.30478e-39 0.697917 0.450115)
(2.18797e-37 0.734854 0.45829)
(8.70698e-37 0.770943 0.467358)
(1.25249e-36 0.806384 0.477365)
(-3.17054e-36 0.841225 0.488249)
(-2.20178e-35 0.875546 0.500002)
(-4.90369e-35 0.909368 0.512585)
(1.7043e-35 0.942704 0.525969)
(4.55721e-34 0.975539 0.540117)
(1.36322e-33 1.00785 0.554995)
(9.11304e-34 1.0396 0.570567)
(-7.22181e-33 1.07075 0.586798)
(-2.89599e-32 1.1013 0.60366)
(-3.76551e-32 1.13125 0.62113)
(8.31289e-32 1.16062 0.639192)
(4.66409e-31 1.18948 0.657842)
(5.7861e-31 1.21792 0.67708)
(-2.3541e-30 1.24605 0.696915)
(-1.20043e-29 1.274 0.717355)
(-9.03272e-30 1.30188 0.738407)
(1.39565e-28 1.32978 0.760076)
(7.98e-28 1.35781 0.782368)
(1.93252e-27 1.38607 0.805298)
(-1.57686e-27 1.41473 0.828902)
(-3.5164e-26 1.44408 0.853248)
(-1.60874e-25 1.47454 0.878433)
(-3.70324e-25 1.50659 0.904561)
(1.34769e-25 1.54065 0.931695)
(5.2167e-24 1.57689 0.959816)
(2.48734e-23 1.6152 0.988806)
(6.6131e-23 1.65516 1.01844)
(5.94925e-23 1.69616 1.04841)
(-3.9972e-22 1.73742 1.07831)
(-2.59621e-21 1.77816 1.10774)
(-9.0204e-21 1.81771 1.13629)
(-2.04943e-20 1.85563 1.16358)
(-2.05319e-20 1.8918 1.18928)
(7.55546e-20 1.92639 1.21311)
(5.47581e-19 1.95966 1.23478)
(2.12866e-18 1.99153 1.25404)
(6.44024e-18 2.02112 1.27077)
(1.65919e-17 2.04635 1.2852)
(3.7822e-17 2.06393 1.29799)
(7.79255e-17 2.06926 1.3098)
(1.47143e-16 2.05646 1.32034)
(2.57126e-16 2.01797 1.32698)
(4.18507e-16 1.94375 1.32371)
(6.39287e-16 1.82435 1.30136)
(9.359e-16 1.65504 1.24727)
(1.32244e-15 1.31615 1.12016)
(1.52336e-15 0.290655 0.694622)
(9.3088e-16 -0.971125 0.0930393)
(4.59937e-16 -1.57776 -0.11135)
(1.63078e-16 -2.00869 -0.244972)
(3.61577e-17 -2.45657 -0.316816)
(3.90301e-18 -2.92555 -0.356511)
(-2.33295e-19 -3.39196 -0.372699)
(-1.46787e-19 -3.82261 -0.380214)
(-1.95689e-20 -4.17058 -0.380724)
(-1.78005e-23 -4.41845 -0.379757)
(3.78107e-22 -4.56753 -0.373923)
(4.17896e-23 -4.59027 -0.375638)
(-1.37654e-23 -4.52328 -0.363761)
(-2.64632e-23 -4.31036 -0.364727)
(2.18292e-23 -4.09388 -0.329602)
(-9.74123e-23 -3.70198 -0.33652)
(3.86185e-22 -3.62837 -0.258197)
(-1.54342e-21 -3.04384 -0.329884)
(2.3326e-20 -3.58006 -0.176472)
(-3.88047e-19 -2.76887 -0.394923)
(3.53586e-18 -3.50023 -0.264885)
(2.12027e-17 -5.73244 -0.428151)
(3.16289e-41 0.377307 0.454286)
(2.83906e-40 0.449978 0.44983)
(8.60227e-40 0.493467 0.45274)
(1.09434e-39 0.537357 0.454539)
(-3.69754e-39 0.579397 0.45902)
(-2.66868e-38 0.61925 0.463984)
(-7.5733e-38 0.658033 0.470438)
(-5.36268e-38 0.695511 0.477766)
(4.92966e-37 0.732135 0.486229)
(2.36492e-36 0.767929 0.495634)
(4.35256e-36 0.803079 0.506033)
(-5.01843e-36 0.837641 0.517347)
(-5.51825e-35 0.87169 0.529563)
(-1.48929e-34 0.905253 0.542631)
(-5.20322e-35 0.938339 0.556516)
(1.02745e-33 0.970937 0.571174)
(3.83044e-33 1.00302 0.586565)
(4.79652e-33 1.03455 0.602651)
(-1.24452e-32 1.06551 0.619399)
(-7.32666e-32 1.09586 0.636783)
(-1.46114e-31 1.12562 0.654787)
(9.808e-33 1.1548 0.673406)
(7.98882e-31 1.18347 0.692644)
(1.56627e-30 1.21171 0.712514)
(-2.05216e-30 1.23965 0.733031)
(-1.15728e-29 1.26741 0.754207)
(3.82004e-29 1.29509 0.776049)
(4.71538e-28 1.3228 0.798558)
(1.84989e-27 1.35062 0.821742)
(2.0641e-27 1.37867 0.845624)
(-1.79216e-26 1.4071 0.870269)
(-1.26199e-25 1.43619 0.89578)
(-4.15694e-25 1.46636 0.922295)
(-4.88442e-25 1.49809 0.949932)
(2.77149e-24 1.53183 0.978731)
(2.01225e-23 1.56778 1.0086)
(6.95149e-23 1.60585 1.03932)
(1.23464e-22 1.64566 1.07059)
(-1.33738e-22 1.68663 1.10201)
(-1.95159e-21 1.72799 1.13313)
(-8.37957e-21 1.76896 1.16354)
(-2.29198e-20 1.80886 1.19285)
(-3.66058e-20 1.84723 1.22079)
(2.10302e-20 1.88394 1.24719)
(4.15768e-19 1.91914 1.27204)
(1.89961e-18 1.95308 1.29551)
(6.22807e-18 1.98564 1.3181)
(1.69055e-17 2.01582 1.34094)
(4.00071e-17 2.04142 1.36594)
(8.47302e-17 2.05906 1.39544)
(1.63211e-16 2.06436 1.43092)
(2.89232e-16 2.05206 1.47102)
(4.75605e-16 2.01562 1.50964)
(7.30031e-16 1.9461 1.53547)
(1.05326e-15 1.83523 1.53351)
(1.45644e-15 1.68317 1.48547)
(1.947e-15 1.39691 1.34948)
(2.10878e-15 0.471406 0.885529)
(9.3503e-16 -0.947179 0.0232997)
(4.62863e-16 -1.56815 -0.118485)
(1.65541e-16 -2.01409 -0.2596)
(3.70715e-17 -2.47593 -0.331425)
(3.94091e-18 -2.95111 -0.365649)
(-2.79757e-19 -3.42012 -0.376932)
(-1.59096e-19 -3.84962 -0.379144)
(-2.06228e-20 -4.19435 -0.375887)
(9.66486e-23 -4.43858 -0.372012)
(4.17808e-22 -4.58182 -0.364435)
(4.55585e-23 -4.60037 -0.365613)
(-1.39914e-23 -4.52825 -0.353916)
(-2.65762e-23 -4.31339 -0.355677)
(2.16441e-23 -4.09175 -0.322158)
(-9.72404e-23 -3.70072 -0.330196)
(3.85957e-22 -3.61628 -0.254131)
(-1.57579e-21 -3.03646 -0.325667)
(2.39599e-20 -3.55519 -0.175352)
(-3.94843e-19 -2.73819 -0.389435)
(3.45571e-18 -3.47355 -0.263825)
(2.12264e-17 -5.67646 -0.432461)
(4.1681e-41 0.377757 0.470128)
(5.67661e-40 0.450127 0.464981)
(1.92315e-39 0.493143 0.467812)
(3.04241e-39 0.536893 0.469404)
(-5.73008e-39 0.578691 0.473888)
(-5.45939e-38 0.618388 0.47886)
(-1.72287e-37 0.65699 0.485406)
(-1.79679e-37 0.694313 0.492855)
(8.92614e-37 0.730779 0.501484)
(5.02892e-36 0.766427 0.511083)
(1.06778e-35 0.801433 0.521703)
(-5.33304e-36 0.835859 0.533258)
(-1.10329e-34 0.869778 0.545731)
(-3.38128e-34 0.903218 0.559066)
(-2.47233e-34 0.936188 0.573227)
(1.89322e-33 0.968677 0.588163)
(8.31562e-33 1.00066 0.603835)
(1.33334e-32 1.03209 0.620202)
(-1.69596e-32 1.06295 0.637234)
(-1.50004e-31 1.09321 0.654907)
(-3.78533e-31 1.12288 0.673211)
(-3.08049e-31 1.15196 0.692147)
(9.8422e-31 1.18054 0.711724)
(3.59123e-30 1.20868 0.73196)
(5.0791e-30 1.23652 0.752874)
(2.12423e-29 1.26417 0.774479)
(2.06407e-28 1.29175 0.796779)
(1.06773e-27 1.31935 0.819773)
(2.52903e-27 1.34707 0.843468)
(-4.32654e-27 1.375 0.8679)
(-6.60585e-26 1.40329 0.893147)
(-2.9907e-25 1.43223 0.919339)
(-6.74615e-25 1.46222 0.946636)
(4.4103e-25 1.49376 0.975163)
(1.08667e-23 1.52732 1.00493)
(5.03182e-23 1.56313 1.0358)
(1.28922e-22 1.6011 1.0675)
(8.82405e-23 1.64089 1.09966)
(-9.37009e-22 1.6819 1.13187)
(-5.58087e-21 1.72337 1.16365)
(-1.85491e-20 1.76451 1.19458)
(-3.94651e-20 1.80461 1.22433)
(-2.79448e-20 1.84319 1.2527)
(2.04229e-19 1.88008 1.27973)
(1.24933e-18 1.91539 1.30576)
(4.59549e-18 1.94928 1.3316)
(1.33897e-17 1.98149 1.35883)
(3.33534e-17 2.01085 1.38999)
(7.34973e-17 2.03504 1.42845)
(1.46095e-16 2.05083 1.47724)
(2.65443e-16 2.05435 1.53686)
(4.45324e-16 2.04128 1.60288)
(6.95381e-16 2.00612 1.66461)
(1.01663e-15 1.94073 1.706)
(1.40068e-15 1.83732 1.70866)
(1.85108e-15 1.69741 1.65309)
(2.37511e-15 1.44306 1.5065)
(2.54126e-15 0.608071 1.05822)
(1.06433e-15 -0.799807 -0.0101321)
(4.6539e-16 -1.52086 -0.152931)
(1.66578e-16 -1.97725 -0.281724)
(3.84499e-17 -2.44992 -0.355986)
(4.03765e-18 -2.93193 -0.382152)
(-3.46788e-19 -3.40527 -0.385114)
(-1.76274e-19 -3.83762 -0.378803)
(-2.19362e-20 -4.18472 -0.369211)
(2.61933e-22 -4.43146 -0.360681)
(4.69353e-22 -4.57629 -0.350128)
(5.01865e-23 -4.59757 -0.350336)
(-1.43089e-23 -4.52757 -0.338875)
(-2.67202e-23 -4.31722 -0.341708)
(2.14271e-23 -4.09691 -0.310629)
(-9.70438e-23 -3.71243 -0.320284)
(3.85786e-22 -3.62257 -0.247392)
(-1.61515e-21 -3.0527 -0.31926)
(2.47269e-20 -3.55582 -0.172072)
(-4.02637e-19 -2.7378 -0.383335)
(3.35878e-18 -3.4783 -0.258566)
(2.15449e-17 -5.63946 -0.435519)
(3.31686e-41 0.378461 0.488812)
(1.10329e-39 0.450347 0.483012)
(4.18936e-39 0.492691 0.485774)
(7.77684e-39 0.536216 0.487179)
(-7.7201e-39 0.577651 0.491687)
(-1.09907e-37 0.617107 0.496697)
(-3.82711e-37 0.655434 0.50337)
(-5.04229e-37 0.692521 0.510984)
(1.5691e-36 0.728746 0.519828)
(1.05294e-35 0.76417 0.529676)
(2.49972e-35 0.798957 0.540578)
(-1.48056e-36 0.833175 0.552439)
(-2.18526e-34 0.866895 0.56524)
(-7.43761e-34 0.900146 0.578917)
(-7.37939e-34 0.932937 0.593428)
(3.52492e-33 0.965256 0.608721)
(1.77437e-32 0.997075 0.624752)
(3.25233e-32 1.02836 0.64148)
(-2.33897e-32 1.05907 0.658874)
(-3.14611e-31 1.08919 0.676914)
(-9.15323e-31 1.11871 0.695595)
(-1.15016e-30 1.14766 0.714924)
(1.17806e-30 1.17608 0.734919)
(9.49891e-30 1.20408 0.755604)
(3.31232e-29 1.23176 0.777002)
(1.40373e-28 1.25926 0.799128)
(6.38952e-28 1.28668 0.821983)
(1.97095e-27 1.31413 0.845566)
(7.77863e-28 1.34169 0.869883)
(-2.999e-26 1.36944 0.894977)
(-1.87729e-25 1.39754 0.920946)
(-6.03708e-25 1.42624 0.947948)
(-6.46386e-25 1.45597 0.976171)
(4.58173e-24 1.48723 1.00575)
(3.20166e-23 1.52053 1.03668)
(1.09188e-22 1.55612 1.06876)
(1.85731e-22 1.59395 1.10167)
(-2.68598e-22 1.63369 1.13498)
(-3.30836e-21 1.67474 1.1682)
(-1.37889e-20 1.71635 1.20086)
(-3.65348e-20 1.75771 1.23251)
(-5.3423e-20 1.79809 1.26288)
(5.99651e-20 1.83697 1.29193)
(7.54255e-19 1.87409 1.32002)
(3.26615e-18 1.90946 1.34814)
(1.03929e-17 1.94307 1.37825)
(2.75115e-17 1.97446 1.41354)
(6.35031e-17 2.00226 1.45845)
(1.30969e-16 2.02418 1.51767)
(2.45099e-16 2.03742 1.59391)
(4.20994e-16 2.0391 1.68489)
(6.69929e-16 2.02617 1.78119)
(9.95321e-16 1.99438 1.86645)
(1.38878e-15 1.9363 1.92003)
(1.83103e-15 1.84424 1.92132)
(2.3165e-15 1.72085 1.85194)
(2.85287e-15 1.50722 1.68859)
(3.0234e-15 0.783425 1.24682)
(1.34515e-15 -0.655799 0.0299873)
(4.80811e-16 -1.48605 -0.218117)
(1.6582e-16 -1.9552 -0.312772)
(3.96715e-17 -2.4364 -0.388727)
(4.16157e-18 -2.92545 -0.40633)
(-4.20475e-19 -3.40229 -0.397583)
(-1.96662e-19 -3.83596 -0.37965)
(-2.34897e-20 -4.18348 -0.361176)
(4.67131e-22 -4.43089 -0.346273)
(5.28321e-22 -4.57522 -0.33152)
(5.49102e-23 -4.59729 -0.330222)
(-1.4708e-23 -4.52754 -0.318967)
(-2.68741e-23 -4.31969 -0.323061)
(2.12178e-23 -4.09933 -0.295084)
(-9.68606e-23 -3.7194 -0.307003)
(3.85742e-22 -3.62432 -0.237924)
(-1.65514e-21 -3.06192 -0.311141)
(2.55039e-20 -3.55249 -0.16679)
(-4.10033e-19 -2.73237 -0.376992)
(3.26259e-18 -3.47692 -0.251862)
(2.16081e-17 -5.60055 -0.42647)
(-4.82258e-41 0.379172 0.506617)
(2.04596e-39 0.45061 0.50039)
(8.80784e-39 0.492337 0.503094)
(1.86329e-38 0.535646 0.504367)
(-7.07429e-39 0.576744 0.508913)
(-2.14944e-37 0.615977 0.513984)
(-8.23503e-37 0.654054 0.520797)
(-1.28026e-36 0.690926 0.528587)
(2.61282e-36 0.726935 0.537655)
(2.1449e-35 0.762158 0.547761)
(5.58454e-35 0.79675 0.558951)
(1.46336e-35 0.830785 0.571125)
(-4.2231e-34 0.86433 0.584257)
(-1.56957e-33 0.897416 0.59828)
(-1.83366e-33 0.930053 0.613146)
(6.5731e-33 0.962228 0.628799)
(3.66314e-32 0.993911 0.645191)
(7.14717e-32 1.02507 0.662281)
(-3.87553e-32 1.05565 0.68004)
(-6.6644e-31 1.08565 0.698451)
(-2.06572e-30 1.11505 0.717511)
(-2.93537e-30 1.14386 0.737237)
(2.15133e-30 1.17216 0.757652)
(2.71537e-29 1.20002 0.778789)
(1.18683e-28 1.22756 0.800674)
(4.65238e-28 1.25491 0.823324)
(1.51966e-27 1.28219 0.846739)
(2.39626e-27 1.30949 0.870913)
(-1.09304e-26 1.3369 0.895852)
(-1.06059e-25 1.36449 0.921606)
(-4.47063e-25 1.39239 0.948292)
(-9.58983e-25 1.42087 0.976098)
(9.3854e-25 1.45034 1.00524)
(1.75061e-23 1.48132 1.03588)
(7.94854e-23 1.51437 1.06798)
(1.99793e-22 1.54977 1.10128)
(1.09939e-22 1.58749 1.13541)
(-1.62295e-21 1.62721 1.16987)
(-9.27794e-21 1.66835 1.20414)
(-3.01031e-20 1.71013 1.23769)
(-6.12421e-20 1.75173 1.2701)
(-2.93497e-20 1.79236 1.30119)
(3.89858e-19 1.83142 1.33116)
(2.18599e-18 1.86852 1.36097)
(7.77394e-18 1.90345 1.39273)
(2.20909e-17 1.93595 1.43012)
(5.3735e-17 1.96524 1.47859)
(1.15482e-16 1.98988 1.54446)
(2.23363e-16 2.00788 1.63283)
(3.93887e-16 2.01739 1.744)
(6.39892e-16 2.017 1.87043)
(9.663e-16 2.00517 1.99607)
(1.36684e-15 1.97866 2.09896)
(1.82183e-15 1.93026 2.15552)
(2.30112e-15 1.85162 2.14509)
(2.78939e-15 1.74471 2.05285)
(3.29663e-15 1.56792 1.86886)
(3.47623e-15 0.958062 1.44086)
(1.76954e-15 -0.503629 0.115879)
(5.48961e-16 -1.44897 -0.294667)
(1.69741e-16 -1.94319 -0.358019)
(3.92566e-17 -2.43111 -0.430154)
(4.04785e-18 -2.92869 -0.439119)
(-4.7608e-19 -3.4095 -0.415548)
(-2.16845e-19 -3.84363 -0.382519)
(-2.56075e-20 -4.19006 -0.352336)
(6.86839e-22 -4.4366 -0.329026)
(5.96754e-22 -4.57852 -0.308632)
(5.96336e-23 -4.59972 -0.305073)
(-1.52063e-23 -4.52859 -0.293893)
(-2.703e-23 -4.32185 -0.299357)
(2.10295e-23 -4.10014 -0.275095)
(-9.67019e-23 -3.72383 -0.289936)
(3.8584e-22 -3.62248 -0.225333)
(-1.69355e-21 -3.06693 -0.300951)
(2.6255e-20 -3.54461 -0.159224)
(-4.16684e-19 -2.72153 -0.370084)
(3.1765e-18 -3.47044 -0.240825)
(2.07209e-17 -5.55643 -0.423372)
(-3.44482e-40 0.379966 0.524432)
(3.56885e-39 0.450901 0.517921)
(1.78433e-38 0.491975 0.520581)
(4.23956e-38 0.535036 0.521772)
(3.62759e-39 0.575767 0.526375)
(-4.06795e-37 0.614751 0.531533)
(-1.71754e-36 0.652552 0.538505)
(-3.03991e-36 0.689188 0.546494)
(4.00982e-36 0.724959 0.555805)
(4.23917e-35 0.759961 0.566188)
(1.19709e-34 0.79434 0.577687)
(6.18323e-35 0.828175 0.590195)
(-7.89676e-34 0.86153 0.60368)
(-3.17022e-33 0.894438 0.61807)
(-4.07326e-33 0.926908 0.633312)
(1.21872e-32 0.958926 0.649347)
(7.24388e-32 0.990462 0.666123)
(1.42325e-31 1.02148 0.683599)
(-9.00747e-32 1.05193 0.701745)
(-1.40515e-30 1.08179 0.720547)
(-4.32573e-30 1.11105 0.740009)
(-5.88572e-30 1.13973 0.760152)
(7.50347e-30 1.16788 0.78101)
(7.75715e-29 1.19558 0.80262)
(3.4128e-28 1.22297 0.825016)
(1.18989e-27 1.25016 0.848215)
(2.79801e-27 1.27728 0.872216)
(-1.13661e-27 1.30443 0.897007)
(-5.23628e-26 1.33167 0.922594)
(-2.926e-25 1.35908 0.949033)
(-8.92337e-25 1.38677 0.97646)
(-8.06149e-25 1.41499 1.0051)
(7.64897e-24 1.44415 1.03519)
(5.07484e-23 1.47483 1.06692)
(1.69801e-22 1.5076 1.10024)
(2.74873e-22 1.54279 1.13483)
(-5.12531e-22 1.58039 1.17024)
(-5.53659e-21 1.6201 1.20594)
(-2.24672e-20 1.66134 1.24133)
(-5.77091e-20 1.70332 1.27585)
(-7.6269e-20 1.74518 1.30914)
(1.3885e-19 1.78604 1.34115)
(1.3455e-18 1.82516 1.3726)
(5.56253e-18 1.86191 1.40543)
(1.72103e-17 1.89575 1.44353)
(4.44504e-17 1.926 1.49307)
(1.00056e-16 1.95168 1.56205)
(2.00823e-16 1.97147 1.65803)
(3.64797e-16 1.9843 1.78438)
(6.06679e-16 1.98989 1.93613)
(9.32911e-16 1.98862 2.09816)
(1.33826e-15 1.98034 2.24752)
(1.80458e-15 1.96229 2.35837)
(2.30117e-15 1.92684 2.40686)
(2.78921e-15 1.86432 2.3746)
(3.24489e-15 1.7749 2.25175)
(3.67906e-15 1.63224 2.04271)
(3.85587e-15 1.13092 1.63374)
(2.34715e-15 -0.339328 0.251205)
(7.11448e-16 -1.39761 -0.357277)
(1.92057e-16 -1.93083 -0.421234)
(3.59917e-17 -2.42464 -0.482428)
(3.10251e-18 -2.93147 -0.480681)
(-5.15994e-19 -3.41729 -0.43994)