/*--------------------------------*- C++ -*----------------------------------*\
| =========                 |                                                 |
| \\      /  F ield         | OpenFOAM: The Open Source CFD Toolbox           |
|  \\    /   O peration     | Version:  4.1                                   |
|   \\  /    A nd           | Web:      www.OpenFOAM.org                      |
|    \\/     M anipulation  |                                                 |
\*---------------------------------------------------------------------------*/
FoamFile
{
    version     2.0;
    format      ascii;
    class       volScalarField;
    location    "25";
    object      k;
}
// * * * * * * * * * * * * * * * * * * * * * * * * * * * * * * * * * * * * * //

dimensions      [0 2 -2 0 0 0 0];

internalField   nonuniform List<scalar> 
6785
(
0.671364
0.000505677
0.000479965
0.000479938
0.000479994
0.000479885
0.000479945
0.000479999
0.000479903
0.000479984
0.000480017
0.000479861
0.000481074
0.00134897
0.86648
0.799497
0.00137813
1.06093e-06
9.88033e-07
9.40476e-07
8.9285e-07
8.47483e-07
8.02747e-07
7.57009e-07
7.1258e-07
6.72083e-07
6.31134e-07
2.90478e-06
0.000519884
0.349085
0.91162
0.0073639
2.15657e-08
6.7766e-09
9.68732e-09
2.52945e-08
1.87576e-06
9.73126e-05
0.000839114
0.00288841
0.00899837
0.0252628
0.0603548
0.0856478
0.135634
1.08264
0.0236107
1.01663e-05
1.03075e-09
1.34025e-09
4.72295e-09
1.45968e-07
1.32247e-05
0.000445072
0.00135818
0.00388004
0.0103426
0.023233
0.0260823
0.0274049
1.2313
0.0857321
0.00459393
0.00032312
3.86667e-05
5.6386e-06
5.59693e-07
2.68743e-06
0.000258273
0.000799673
0.00230357
0.00553174
0.0146481
0.0237613
0.0223187
1.34795
0.141739
0.0120351
0.00111376
0.000166647
2.81176e-05
4.47993e-06
2.11571e-06
0.000191174
0.000574767
0.00183576
0.00478326
0.0141675
0.026639
0.0210487
1.42497
0.189894
0.021803
0.00243832
0.000439752
8.43056e-05
2.0105e-05
8.47875e-06
0.000159732
0.000457666
0.00172278
0.00438175
0.0129956
0.0235536
0.0175231
1.46668
0.2242
0.0342038
0.0050541
0.00113426
0.000269995
9.55322e-05
5.83169e-05
0.000193686
0.000455699
0.00163061
0.00409745
0.0111138
0.0187538
0.0152483
1.48737
0.236595
0.0441059
0.0085708
0.00249144
0.000759978
0.000458929
0.000400961
0.000529114
0.000762426
0.00169587
0.0035852
0.00887987
0.0155495
0.020172
1.50057
0.222554
0.0484887
0.0108118
0.00446366
0.00204923
0.00285593
0.00287145
0.00255695
0.00207262
0.00221453
0.00307726
0.00647289
0.0150939
0.029602
1.51317
0.204928
0.0467846
0.0112314
0.00903781
0.00968497
0.0182199
0.0144434
0.008688
0.00486866
0.00363893
0.00371805
0.00515545
0.0177838
0.0499483
1.56824
0.194067
0.0478583
0.0136727
0.0202046
0.0303634
0.0494716
0.037944
0.0193386
0.00935
0.0114416
0.0187367
0.0140114
0.0252479
0.0842014
1.57245
0.364253
0.0795556
0.0193566
0.0273528
0.0486905
0.0799604
0.0669547
0.0443527
0.0286376
0.0305126
0.0444165
0.0475609
0.0468464
0.115966
1.4335
1.19011
0.379443
0.121094
0.0517165
0.0467286
0.0843354
0.0766995
0.070281
0.0647564
0.0884708
0.132741
0.153897
0.135901
0.133823
1.62269
5.76505
2.64798
1.55643
1.01299
0.734521
0.608962
0.520565
0.447153
0.278099
1.5e-15
0.047001
0.166292
0.443641
0.404735
0.59251
0.775397
0.731534
0.741576
0.77083
0.908785
0.839404
0.835869
0.855172
0.9896
0.920247
0.918551
1.0195
0.923302
0.897557
0.892677
0.989146
0.903294
0.884436
0.950501
0.851358
0.816722
0.796702
0.854424
0.762984
0.73115
0.711547
0.764516
0.687197
0.665128
0.710366
0.62983
0.603194
0.586937
0.642034
0.57267
0.55556
0.609071
0.534215
0.512862
0.501036
0.566739
0.497476
0.48414
0.481186
0.568635
0.518792
0.525547
0.634947
0.58966
0.601197
0.621731
0.772347
0.705318
0.707767
0.720623
0.875017
0.797603
0.80553
0.952941
0.833183
0.81722
0.813799
0.92086
0.76465
0.727047
0.739514
0.584031
0.542805
0.514525
0.524415
0.45382
0.451032
0.453668
0.478201
0.442958
0.447959
0.467552
0.436324
0.442058
0.444233
0.447833
0.450872
0.458034
0.371077
0.370267
0.347931
0.326243
0.300904
0.270598
0.237634
0.146541
0.0878395
0.0759007
0.0725533
0.0901253
0.174621
0.346701
0.745954
0.772868
0.763268
0.855065
0.804307
0.836187
0.894395
0.966152
1.0514
1.14884
1.25621
1.37305
1.50108
2.0776
2.10956
2.21593
2.31596
2.41854
2.52785
2.64626
2.77676
2.91977
3.33272
3.18989
3.3252
3.47137
3.63299
3.81072
4.00361
4.21634
4.43992
4.92222
4.68407
4.88337
5.12
5.37707
5.65166
5.94764
6.26599
6.59291
7.25828
6.99978
7.3027
7.68276
8.09365
8.54307
9.02914
9.51276
9.99824
10.4616
11.6145
10.1098
10.2708
10.5217
10.8048
11.1083
11.3554
11.5457
11.7743
13.7659
11.2557
11.3472
11.7715
12.9591
13.2282
12.8347
13.8766
13.5553
14.8502
15.1162
14.5437
15.9718
16.2359
15.3851
16.6438
16.023
17.5757
18.0163
17.1093
18.4331
17.741
19.3592
19.941
19.0934
20.5529
21.0708
20.0106
21.227
20.3478
21.7693
22.2972
21.2105
22.354
21.4306
22.7169
23.226
22.2368
23.3075
23.7065
22.5755
23.4198
22.4634
23.4367
23.8398
22.7668
23.5479
22.6229
23.4491
23.8303
22.9017
23.5553
23.8323
22.8273
23.3554
22.488
23.0026
23.2383
22.3179
22.7723
21.9603
22.3019
22.4565
21.6601
21.8464
21.8921
21.0683
21.2485
20.5142
20.5608
20.5695
19.8717
20.0192
19.3425
19.2926
19.2545
18.6112
18.5218
18.4664
17.8802
17.9352
17.3699
17.3312
1.99876
2.14975
2.31877
2.51385
2.71892
2.92625
3.12723
3.31032
3.46363
3.57735
3.64955
3.68535
3.69427
3.67899
3.63201
3.55487
3.45467
3.34785
3.24672
3.15485
3.07814
3.02156
2.97188
2.9095
2.7913
2.53465
2.08939
1.59156
0.975969
0.334544
0.108865
0.0679431
0.0268915
0.00738646
0.00173968
0.000529402
0.00156241
0.00300847
0.00279104
0.0051708
0.0068139
0.00567294
0.0049014
0.00501972
0.00582063
0.0132946
0.490354
28.6561
32.3272
32.6088
33.7298
26.7864
18.0463
12.5761
18.683
25.5443
33.5087
41.4585
48.2311
53.7912
58.5117
62.4733
65.4775
67.2998
67.5429
66.128
63.5428
60.6756
58.3292
56.7852
55.8013
54.8898
53.6275
51.695
48.9481
45.4726
41.3423
36.3653
30.3164
2.01524
2.17194
2.34761
2.54875
2.75894
2.97082
3.17621
3.36365
3.521
3.63803
3.71271
3.75082
3.76182
3.74853
3.70291
3.62542
3.52516
3.41795
3.31565
3.22361
3.14747
3.09114
3.04212
2.9804
2.86581
2.61953
2.181
1.64789
1.01979
0.341404
0.107326
0.0670785
0.0269817
0.00760049
0.00183303
0.000551904
0.00153012
0.00295607
0.00274928
0.0051094
0.00687293
0.00573012
0.00492395
0.00501666
0.00592686
0.0264492
0.94002
31.3901
34.1292
35.8225
38.9922
33.0964
21.2128
13.6639
19.2518
25.693
33.4476
41.3669
48.2283
53.9409
58.8335
62.9395
66.0525
67.9942
68.3398
66.9971
64.4424
61.5677
59.212
57.6905
56.7417
55.8426
54.5515
52.5515
49.7036
46.1247
41.936
36.9593
30.7731
2.04597
2.21017
2.39436
2.60346
2.82064
3.03909
3.25104
3.44487
3.60813
3.72997
3.80822
3.84943
3.8634
3.85285
3.80862
3.73053
3.629
3.52017
3.41606
3.32315
3.24711
3.19131
3.14398
3.08491
2.97729
2.74616
2.31796
1.7426
1.09367
0.361471
0.107342
0.0671116
0.0274354
0.00792813
0.00196045
0.000585025
0.0015187
0.00294005
0.00273937
0.00509327
0.00697544
0.00581207
0.00495967
0.00502276
0.00618527
0.0482603
1.49328
34.6915
36.9848
40.5816
46.0863
41.9571
26.7522
14.8704
19.833
25.973
33.5942
41.6166
48.7471
54.7624
59.9079
64.1828
67.4404
69.557
70.03
68.7249
66.1078
63.1127
60.6555
59.104
58.1689
57.2793
55.9579
53.8781
50.902
47.1717
42.8735
37.8293
31.4539
2.0853
2.2568
2.44986
2.66751
2.89257
3.11844
3.3378
3.53893
3.70903
3.8365
3.9189
3.96349
3.98097
3.97336
3.93047
3.85157
3.74795
3.63662
3.53008
3.43576
3.3594
3.3045
3.25902
3.2048
3.10726
2.89729
2.49238
1.89065
1.19249
0.388735
0.107525
0.067009
0.0278725
0.00828065
0.00210222
0.000623067
0.00150248
0.00291101
0.00272373
0.00507108
0.00707198
0.00589408
0.00499567
0.00503105
0.00673582
0.083218
2.1816
36.7979
40.3275
46.1494
54.203
52.2092
37.3631
16.8021
20.5531
26.2965
33.9034
42.2946
49.9254
56.4176
61.9257
66.4322
69.8473
72.0969
72.6145
71.2095
68.3588
65.0859
62.4161
60.7755
59.8312
58.9434
57.5794
55.3977
52.2669
48.3545
43.9117
38.7605
32.2238
2.12983
2.30818
2.51006
2.73647
2.96993
3.20371
3.43097
3.63991
3.81742
3.95105
4.03789
4.08585
4.10684
4.10218
4.06026
3.97994
3.87324
3.75833
3.64836
3.55172
3.47432
3.41992
3.37657
3.32836
3.24303
3.058
2.68432
2.07348
1.31605
0.432539
0.108772
0.0668141
0.0283195
0.00866718
0.00226151
0.000666639
0.00147998
0.00286725
0.00269868
0.00503523
0.00715506
0.00597217
0.00502934
0.00504139
0.00781087
0.136342
3.0218
39.224
44.07
52.2806
63.2258
63.9978
50.1046
19.6948
21.5835
26.79
34.4816
43.4723
51.7883
58.8651
64.781
69.5427
73.1271
75.4859
75.9672
74.3252
71.0851
67.4025
64.4356
62.6549
61.6774
60.7808
59.3642
57.0664
53.7643
49.6474
45.0276
39.7755
33.0435
2.17765
2.36244
2.57302
2.80835
3.05053
3.29261
3.52801
3.74508
3.9304
4.07063
4.16218
4.21367
4.23799
4.23616
4.19473
4.11219
4.00134
3.88165
3.76712
3.66715
3.58792
3.53335
3.49272
3.45121
3.37992
3.22289
2.88876
2.28871
1.46924
0.512777
0.111994
0.0668418
0.0289034
0.00913202
0.00245293
0.00072019
0.00145799
0.00282093
0.00267332
0.0049973
0.00723601
0.00605239
0.00506378
0.00506107
0.00982989
0.214787
4.06102
42.1384
48.0754
58.5872
72.5125
76.7149
65.3711
23.7553
23.1362
27.6004
35.5025
45.3186
54.4852
62.2445
68.6172
73.6495
77.3838
79.7791
80.0878
78.027
74.2204
69.9927
66.6483
64.6775
63.6433
62.7253
61.2433
58.8118
55.3211
50.9829
46.1633
40.7591
33.8866
2.22795
2.41896
2.63823
2.88264
3.13381
3.38468
3.62842
3.85389
4.04736
4.19461
4.29118
4.34626
4.37372
4.37438
4.33272
4.24679
4.1304
4.00448
3.88399
3.77948
3.69733
3.64183
3.60411
3.57013
3.51456
3.38777
3.0997
2.52934
1.65747
0.639446
0.11731
0.0671956
0.0296566
0.00969669
0.00268658
0.000787281
0.00143825
0.0027737
0.0026496
0.00496013
0.00731772
0.00613653
0.00510013
0.00510224
0.0134868
0.332433
5.42299
45.1778
52.3021
64.8839
81.3565
88.9802
82.9673
29.4209
25.458
28.8817
37.109
47.9426
58.0979
66.6212
73.4975
78.8126
82.664
85.0035
84.9766
82.2989
77.7479
72.8483
69.0515
66.8426
65.7263
64.7723
63.2103
60.6275
56.9311
52.3568
47.3185
41.7842
34.73
2.28025
2.47741
2.70542
2.95911
3.21952
3.47962
3.73194
3.966
4.16793
4.32261
4.42451
4.4832
4.51347
4.51612
4.47322
4.38238
4.25867
4.12484
3.99681
3.88637
3.79997
3.74325
3.70819
3.68264
3.64472
3.5503
3.3125
2.79056
1.88813
0.804445
0.124123
0.0679455
0.0305953
0.0103757
0.00297039
0.000871075
0.00142044
0.00272308
0.00262571
0.00492112
0.00739715
0.00622351
0.0051379
0.00518886
0.0200403
0.50805
7.15423
48.1303
56.6202
70.9642
89.2745
99.8433
100.615
38.0976
29.0215
30.8874
39.5093
51.5134
62.7714
72.1212
79.5371
85.1398
89.0555
91.2129
90.6521
87.1375
81.6566
75.9649
71.6397
69.1462
67.9215
66.9149
65.2556
62.5
58.5779
53.753
48.481
42.7848
35.5467
2.33437
2.53769
2.77455
3.03776
3.30769
3.57737
3.83859
4.08144
4.29209
4.45456
4.5621
4.62434
4.65693
4.66075
4.61522
4.51752
4.38432
4.2406
4.1033
3.9854
3.89337
3.83486
3.80257
3.78657
3.76821
3.70813
3.52355
3.06712
2.16958
0.997869
0.132063
0.0692909
0.0317957
0.0112018
0.00331664
0.000975958
0.0014055
0.00266835
0.00260076
0.00487874
0.00747235
0.00631256
0.00517684
0.00536362
0.0309292
0.750141
9.19052
51.0787
60.9922
76.7367
95.9814
108.817
116.278
51.4341
34.7353
34.0506
43.0123
56.2816
68.7249
78.9417
86.9038
92.7776
96.6752
98.4843
97.1541
92.5602
85.9542
79.3551
74.4237
71.599
70.2374
69.1589
67.3817
64.4286
60.2583
55.1681
49.6487
43.7552
36.3711
2.39017
2.59973
2.84562
3.1186
3.39832
3.67788
3.94841
4.20023
4.41977
4.59034
4.70379
4.76938
4.80351
4.80731
4.75732
4.65034
4.50508
4.34925
4.2009
4.07401
3.97513
3.91421
3.88515
3.88007
3.88295
3.85894
3.73049
3.35262
2.49251
1.21828
0.153647
0.0718992
0.0333916
0.0122289
0.00374447
0.0011082
0.00139568
0.00261052
0.00257486
0.00483295
0.00754273
0.00640366
0.00521737
0.00571028
0.0490914
1.09449
11.7017
54.1188
65.4068
82.1789
101.369
115.611
128.831
73.1151
43.8202
39.0465
48.0891
62.628
76.2838
87.3681
95.8435
101.924
105.674
106.913
104.532
98.5893
90.6519
83.0296
77.4151
74.2118
72.6829
71.5107
69.5915
66.412
61.9673
56.5963
50.8208
44.7586
37.1813
2.44761
2.66352
2.91864
3.20169
3.49151
3.78121
4.06147
4.32241
4.55095
4.72982
4.84934
4.91791
4.95241
4.95446
4.89762
4.7785
4.6183
4.44798
4.28696
4.14968
4.04299
3.97919
3.9541
3.96079
3.98663
4.00013
3.93137
3.64021
2.8518
1.47273
0.245026
0.0783265
0.0356426
0.0135313
0.00428097
0.00127657
0.00139378
0.00255052
0.00254817
0.00478395
0.00760804
0.00649691
0.00526071
0.00638151
0.0787221
1.57042
14.6671
57.3484
69.8821
87.3226
105.413
120.082
137.783
107.19
58.5037
47.1802
55.4982
71.1226
85.9125
97.7914
106.693
112.852
116.249
116.618
112.845
105.248
95.7658
86.9981
80.6278
76.9981
75.2693
73.9791
71.8907
68.4517
63.7027
58.0331
51.9944
45.7375
37.9552
2.50664
2.72905
2.99363
3.28708
3.58735
3.88749
4.17778
4.44803
4.68557
4.87279
4.99836
5.06921
5.10239
5.10024
5.03355
4.89902
4.72092
4.53382
4.35887
4.21036
4.09516
4.02843
4.00835
4.02761
4.07724
4.12911
4.12144
3.92345
3.23838
1.77286
0.451306
0.0930793
0.0391619
0.0152525
0.0049683
0.00149372
0.00140367
0.00248962
0.00252056
0.00473179
0.007668
0.00659232
0.00530946
0.00761283
0.124134
2.19359
17.9966
60.8017
74.4306
92.2361
108.17
122.175
142.836
135.47
79.5862
60.1236
66.2835
82.5441
98.2292
110.719
119.876
125.907
128.645
127.737
122.153
112.549
101.311
91.2675
84.0724
79.9697
78.0073
76.5725
74.2847
70.5496
65.4628
59.4753
53.1669
46.6869
38.7199
2.56725
2.7963
3.07059
3.37481
3.68589
3.99678
4.29728
4.57706
4.8235
5.01891
5.15024
5.22227
5.25176
5.24206
5.16181
5.00839
4.80964
4.60388
4.41386
4.2539
4.1308
4.06163
4.04778
4.08014
4.15424
4.24329
4.29531
4.19504
3.64357
2.13811
0.7171
0.13258
0.046124
0.0177881
0.00589732
0.00178111
0.00143082
0.00242918
0.00249209
0.00467656
0.00772216
0.00668994
0.00536885
0.00981173
0.19336
3.01049
21.674
64.3586
79.0534
96.9783
109.774
122.061
143.907
153.985
104.938
78.4611
81.3647
97.7499
113.967
126.763
135.9
141.484
143.126
140.399
132.503
120.498
107.286
95.8384
87.7551
83.1356
80.906
79.2989
76.7791
72.7077
67.2467
60.9211
54.3392
47.6696
39.458
2.62939
2.86522
3.14949
3.46488
3.78715
4.10909
4.41994
4.70941
4.96452
5.1677
5.30407
5.37562
5.3982
5.37657
5.27834
5.10263
4.88116
4.65568
4.45075
4.2799
4.15056
4.08063
4.07285
4.11917
4.21632
4.34068
4.44951
4.44798
4.05696
2.59953
1.01176
0.239245
0.0633941
0.0221327
0.00725756
0.00217893
0.0014844
0.00237148
0.00246271
0.00461841
0.00777049
0.00678981
0.0054488
0.0135708
0.295273
4.05398
25.6935
68.0779
83.7454
101.589
110.399
119.987
141.166
164.054
132.205
101.656
100.999
117.217
133.798
146.56
155.316
159.993
159.921
154.669
143.874
129.071
113.657
100.7
91.675
86.5003
83.9714
82.1634
79.3771
74.9271
69.0537
62.3691
55.5096
48.6067
40.1857
2.69306
2.93579
3.2303
3.55723
3.89107
4.22435
4.54569
4.8448
5.10827
5.31849
5.45866
5.52726
5.53865
5.49957
5.37846
5.17769
4.93249
4.6877
4.46937
4.29038
4.15743
4.08806
4.08662
4.14598
4.2639
4.42036
4.5815
4.67579
4.46343
3.19068
1.35685
0.416803
0.103434
0.0308574
0.009461
0.00276598
0.00158032
0.0023198
0.00243288
0.00455764
0.00781283
0.00689213
0.00556629
0.0197917
0.441567
5.33132
29.899
71.9754
88.4943
106.083
110.23
116.441
135.333
165.661
157.413
127.354
124.026
140.428
157.857
170.567
178.596
181.768
179.157
170.516
156.153
138.188
120.362
105.818
95.819
90.0604
87.2041
85.1669
82.079
77.2069
70.8824
63.8195
56.6797
49.5761
40.8739
2.75819
3.00799
3.31295
3.65178
3.99757
4.34251
4.67443
4.98291
5.25431
5.47036
5.61236
5.67449
5.66925
5.60598
5.45715
5.22993
4.96194
4.70034
4.47212
4.28909
4.15642
4.0895
4.09344
4.1636
4.29883
4.48276
4.68991
4.87193
4.84401
3.9106
1.79834
0.638862
0.17787
0.0499367
0.0135138
0.00371371
0.00174997
0.00227995
0.00240316
0.00449461
0.00784936
0.0069971
0.00574964
0.0297285
0.643743
6.83451
34.2644
76.0288
93.2796
110.456
109.431
111.974
127.563
159.494
175.862
152.291
147.58
165.18
185.104
198.606
205.846
206.878
200.752
187.728
169.139
147.672
127.298
111.137
100.157
93.8024
90.5974
88.3049
84.8804
79.543
72.7306
65.2717
57.8486
50.51
41.4875
2.82472
3.08176
3.39741
3.74844
4.10659
4.4635
4.80604
5.12352
5.40203
5.62214
5.76307
5.81389
5.78535
5.69005
5.51051
5.25667
4.96956
4.69635
4.46422
4.28259
4.15464
4.09207
4.0997
4.17712
4.32494
4.53071
4.77614
5.03233
5.17461
4.63869
2.39569
0.912716
0.288128
0.0874002
0.0216791
0.00540975
0.00205891
0.00226278
0.00237504
0.00442975
0.0078801
0.00710505
0.00604139
0.0449817
0.913928
8.59518
38.768
80.2121
98.091
114.69
108.12
107.089
118.991
148.616
183.578
172.9
168.26
187.863
212.864
229.25
236.365
234.801
224.234
205.842
182.49
157.26
134.304
116.56
104.635
97.6984
94.1362
91.5663
87.7715
81.9276
74.5942
66.726
59.0149
51.3968
42.0678
2.89256
3.15703
3.48358
3.84714
4.21803
4.58726
4.94045
5.26642
5.55064
5.77232
5.90813
5.94132
5.88174
5.7472
5.53501
5.25698
4.95775
4.68135
4.45369
4.27977
4.16099
4.10438
4.1134
4.19373
4.34864
4.57022
4.8455
5.15898
5.44
5.2811
3.21159
1.28425
0.436441
0.147785
0.0381903
0.00875734
0.00265494
0.0022912
0.00235151
0.0043637
0.00790532
0.00721632
0.00650134
0.0678316
1.2704
10.6016
43.385
84.5131
102.921
118.726
106.426
102.106
110.383
135.555
177.129
187.284
185.79
206.768
237.88
259.724
268.31
264.168
248.528
224.146
195.651
166.593
141.151
121.95
109.171
101.703
97.7953
94.9333
90.7368
84.3482
76.4667
68.1815
60.1787
52.2941
42.5851
2.96157
3.23369
3.57137
3.94779
4.33185
4.71374
5.0776
5.41134
5.69921
5.91908
6.04426
6.052
5.95298
5.7731
5.5293
5.23316
4.93238
4.66404
4.45069
4.29119
4.1854
4.13643
4.14492
4.22349
4.37952
4.61045
4.9067
5.26141
5.64161
5.7854
4.27838
1.82805
0.640639
0.235577
0.069769
0.0160486
0.00390978
0.00241829
0.00233918
0.00429729
0.00792492
0.00733135
0.00721307
0.100693
1.71392
12.8141
48.1394
88.9406
107.807
122.494
104.473
97.2344
102.024
121.6
160.597
193.389
202.321
223.923
258.942
287.031
298.727
292.718
272.011
241.631
207.921
175.204
147.548
127.122
113.654
105.755
101.54
98.3817
93.7552
86.7874
78.3385
69.6348
61.334
53.1323
43.0051
3.03161
3.3116
3.66063
4.05026
4.44794
4.84285
5.21737
5.55797
5.84685
6.06009
6.1675
6.1408
5.99398
5.76696
5.49491
5.19257
4.90314
4.65583
4.46505
4.32764
4.23769
4.19835
4.20694
4.27956
4.42995
4.66353
4.9718
5.35465
5.79751
6.15264
5.45391
2.63
0.937412
0.365763
0.122736
0.0328776
0.00682252
0.00278274
0.00235452
0.00423242
0.00793931
0.00745062
0.00826752
0.146347
2.26514
15.3099
52.9735
93.4712
112.706
125.925
102.37
92.598
94.0177
107.905
140.264
184.615
213.561
239.759
276.38
309.224
324.424
317.596
292.653
256.989
218.475
182.567
153.161
131.864
117.952
109.778
105.329
101.883
96.8009
89.2226
80.1954
71.0792
62.4717
53.8949
43.37
3.10254
3.39057
3.75116
4.15437
4.56614
4.97444
5.35958
5.70582
5.99238
6.1926
6.2732
6.20237
6.00092
5.72868
5.43818
5.14514
4.88126
4.66847
4.5108
4.39995
4.32677
4.29843
4.3083
4.37299
4.51195
4.7395
5.05225
5.45312
5.93301
6.40902
6.37218
3.74485
1.38051
0.565754
0.205573
0.0634788
0.0137058
0.00374023
0.00244071
0.00417333
0.00794846
0.00757463
0.0097736
0.207571
2.92351
17.9606
57.8581
98.0709
117.63
128.968
100.215
88.2584
86.5346
95.2807
119.082
160.725
208.186
248.152
288.36
324.5
342.674
335.99
308.196
268.783
226.46
188.186
157.687
135.983
121.942
113.696
109.117
105.407
99.8458
91.6277
82.0192
72.503
63.5814
54.6393
43.6591
3.17419
3.47041
3.84274
4.25989
4.68622
5.10829
5.50386
5.8542
6.13429
6.3136
6.3563
6.23135
5.97287
5.66305
5.36978
5.10139
4.87928
4.71158
4.59404
4.51446
4.46271
4.44369
4.45741
4.51373
4.63558
4.84493
5.15183
5.56107
6.06486
6.59734
6.87842
5.11284
2.03102
0.866222
0.334781
0.11428
0.0305503
0.00625623
0.00271695
0.00413153
0.00795354
0.00770409
0.0117714
0.287147
3.69361
20.8232
62.7716
102.766
122.695
131.608
98.1095
84.2773
79.8285
84.2071
99.8989
131.336
183.055
237.736
288.322
329.335
351.049
345.612
316.663
275.445
231.174
191.738
160.952
139.375
125.555
117.461
112.869
108.925
102.861
93.9752
83.7884
73.8884
64.6448
55.2771
43.8996
3.2464
3.55093
3.9352
4.36663
4.80794
5.24406
5.64965
6.002
6.27063
6.4201
6.41325
6.22642
5.91312
5.57853
5.30151
5.07513
4.90939
4.79408
4.72083
4.67491
4.6471
4.64148
4.66127
4.71053
4.81101
4.9852
5.2644
5.66416
6.18135
6.75113
7.1774
6.39979
2.9455
1.29892
0.531353
0.192082
0.0604018
0.0119834
0.0034519
0.00413712
0.00795644
0.00783973
0.0144085
0.387332
4.58048
23.8469
67.6648
107.563
127.979
133.868
96.1619
80.7135
74.1054
75.0744
84.23
105.654
148.54
208.087
270.21
320.397
347.649
345.174
317.196
276.174
232.318
193.202
163.011
142.092
128.819
121.073
116.57
112.414
105.819
96.237
85.4796
75.2158
65.6438
55.8758
44.0769
3.31906
3.63199
4.02841
4.47441
4.93101
5.38129
5.79601
6.14751
6.39862
6.50851
6.44116
6.18875
5.82945
5.4893
5.24805
5.08195
4.98321
4.92376
4.89554
4.88143
4.87999
4.89134
4.91775
4.97078
5.05148
5.1802
5.40002
5.74683
6.23991
6.83756
7.3861
7.23934
4.1493
1.8945
0.824597
0.313341
0.109695
0.0244838
0.00526702
0.00426541
0.00796409
0.00798262
0.0173324
0.505324
5.57112
26.9896
72.5248
112.517
133.682
135.818
94.4789
77.6312
69.4506
67.952
72.3554
87.1908
114.314
169.627
238.148
297.812
332.862
336.003
310.993
272.007
230.375
192.94
164.158
144.356
131.879
124.604
120.238
115.861
108.692
98.3844
87.0681
76.4619
66.5575
56.3611
44.1458
3.3921
3.71348
4.12223
4.58302
5.05506
5.51928
5.94159
6.28827
6.51445
6.57466
6.43854
6.12357
5.73647
5.41554
5.22656
5.13683
5.11133
5.10767
5.12256
5.13512
5.15909
5.18619
5.22266
5.2849
5.36198
5.45783
5.60952
5.85188
6.23839
6.79598
7.45171
7.68552
5.44772
2.66217
1.24515
0.502968
0.186091
0.0500743
0.00957806
0.00470746
0.00799283
0.00813478
0.0205902
0.651652
6.63781
30.2301
77.3182
117.725
139.96
137.575
93.1301
75.101
65.8534
62.6342
64.0365
73.5723
86.892
133.253
200.84
267.224
310.42
320.396
300.234
264.526
226.11
191.474
164.807
146.49
134.953
128.179
123.922
119.265
111.455
100.388
88.5274
77.6032
67.3663
56.7136
44.1789
3.46542
3.79531
4.21645
4.69212
5.17956
5.65709
6.08455
6.42093
6.61327
6.61389
6.40468
6.0382
5.64978
5.37848
5.26383
5.25721
5.30611
5.35175
5.40596
5.4424
5.48237
5.52257
5.56647
5.6349
5.72149
5.81628
5.93657
6.08186
6.30033
6.68522
7.30884
7.88024
6.5733
3.60869
1.81225
0.779666
0.302617
0.0981999
0.0193963
0.00592237
0.00808823
0.0083003
0.0237941
0.809962
7.76787
33.5179
82.0723
123.296
146.974
139.256
92.1692
73.1682
63.2251
58.8931
58.4953
63.7165
71.5241
104.572
165.53
233.987
284.36
301.274
287.32
255.55
220.642
189.474
165.381
148.806
138.266
131.938
127.688
122.633
114.084
102.217
89.8297
78.6155
68.0536
56.9941
44.1509
3.53884
3.87728
4.31074
4.80124
5.30381
5.79345
6.2225
6.5413
6.68945
6.62194
6.34248
5.94294
5.58591
5.39315
5.36981
5.44862
5.56675
5.6609
5.74844
5.80035
5.85237
5.89908
5.93804
6.00096
6.09369
6.20231
6.32911
6.44936
6.5577
6.71259
7.10726
7.77954
7.36981
4.69255
2.52751
1.17506
0.485393
0.175385
0.0404976
0.00897202
0.00836505
0.00848836
0.0260235
0.987717
8.99689
36.9031
86.814
129.382
154.949
140.945
91.6015
71.8267
61.4025
56.3667
54.8725
57.3285
62.8011
84.0337
135.814
202.236
257.245
281.208
273.682
246.576
215.29
187.629
166.259
151.517
141.97
135.989
131.592
125.972
116.559
103.844
90.9468
79.4735
68.6009
57.1361
43.9942
3.61204
3.95909
4.4047
4.90978
5.42694
5.92675
6.35241
6.64445
6.73725
6.59625
6.25798
5.85666
5.56544
5.47868
5.55705
5.71815
5.89504
6.0397
6.15359
6.21586
6.27795
6.31617
6.33737
6.37739
6.45786
6.56838
6.7047
6.8411
6.93577
6.96533
7.09631
7.57828
7.71442
5.75591
3.39618
1.6884
0.743225
0.292508
0.0834038
0.0161583
0.00911424
0.00872097
0.0268642
1.17425
10.2817
40.2848
91.6216
136.152
164.178
142.683
91.4078
71.0216
60.2057
54.6545
52.4832
53.3303
56.9623
70.4086
112.656
174.342
231.122
261.023
259.561
237.945
210.482
186.246
167.613
154.697
146.116
140.383
135.668
129.284
118.856
105.238
91.8494
80.1531
68.9904
57.115
43.7697
3.6846
4.0403
4.49782
5.01707
5.54785
6.05493
6.47058
6.72502
6.75195
6.53793
6.16309
5.79903
5.61409
5.65328
5.83531
6.07382
6.304
6.49242
6.62719
6.70184
6.75889
6.78091
6.77087
6.7742
6.81699
6.90353
7.03097
7.17552
7.28524
7.29872
7.28862
7.51572
7.81374
6.5853
4.40109
2.33828
1.10144
0.467724
0.156673
0.0316051
0.0109855
0.00905757
0.0268886
1.36862
11.6538
43.6516
96.5649
143.786
175.088
144.409
91.5847
70.6855
59.505
53.4886
50.8242
50.9274
52.9599
61.6998
95.2997
150.998
207.213
241.367
245.886
229.788
206.271
185.412
169.469
158.348
150.688
145.118
139.92
132.558
120.943
106.359
92.5061
80.6308
69.2062
56.9919
43.4498
3.75613
4.12039
4.58949
5.12232
5.66517
6.17537
6.57264
6.77771
6.73109
6.45341
6.07569
5.79687
5.75454
5.92832
6.20996
6.52114
6.80399
7.01987
7.17657
7.25674
7.3022
7.29943
7.25005
7.20328
7.18662
7.22461
7.31785
7.44861
7.56442
7.59574
7.55242
7.60647
7.90376
7.1533
5.4172
3.13501
1.57087
0.71312
0.269233
0.0616477
0.0152948
0.00963705
0.0272207
1.57517
13.0471
47.0022
101.721
152.456
188.075
145.917
92.1529
70.7559
59.2218
52.7368
49.6417
49.3389
50.1941
56.1138
82.5533
131.98
186.009
222.753
232.525
221.655
202.575
185.082
171.813
162.44
155.637
150.165
144.329
135.756
122.765
107.157
92.8851
80.8848
69.2336
56.696
43.0439
3.82627
4.19881
4.67904
5.22457
5.77707
6.28479
6.65368
6.79814
6.67616
6.35634
6.02168
5.87678
5.99853
6.30257
6.67499
7.05484
7.38912
7.63016
7.8048
7.88762
7.91656
7.87767
7.78605
7.67563
7.58699
7.55681
7.59364
7.69032
7.79868
7.84892
7.81946
7.7834
8.01895
7.60475
6.27624
4.06521
2.18431
1.05611
0.434567
0.115706
0.0244935
0.0107854
0.0283345
1.77665
14.4609
50.3315
107.192
162.357
203.332
147.044
93.0325
71.1561
59.28
52.3226
48.8275
48.1568
48.4109
52.355
73.2065
116.708
167.581
205.496
219.593
213.587
199.139
185.149
174.639
166.929
160.918
155.484
148.834
138.783
124.22
107.571
92.9595
80.9003
69.0641
56.2833
42.5582
3.89475
4.27513
4.76582
5.32259
5.88121
6.37916
6.70861
6.78391
6.59468
6.26818
6.02944
6.05556
6.34272
6.76482
7.22239
7.6714
8.05939
8.33381
8.50996
8.595
8.60399
8.5195
8.37977
8.20257
8.03541
7.92376
7.88783
7.932
8.01826
8.07916
8.07826
8.00803
8.1538
8.00203
6.97737
5.04878
2.95919
1.52205
0.666467
0.202528
0.0423419
0.01316
0.0291647
1.95835
15.8383
53.6654
113.069
173.686
220.551
147.765
94.0488
71.789
59.5918
52.1616
48.3124
47.2867
47.2913
49.7449
66.2928
104.525
151.815
189.78
207.266
206.069
196.226
185.866
178.012
171.763
166.48
160.994
153.287
141.448
125.163
107.545
92.7102
80.6652
68.6872
55.7097
41.9304
3.96119
4.34894
4.84899
5.41475
5.97466
6.45388
6.73289
6.73614
6.50065
6.21513
6.12157
6.33374
6.77076
7.29902
7.84248
8.36189
8.80228
9.10514
9.27881
9.3557
9.33987
9.21801
9.02876
8.7897
8.5438
8.34418
8.22466
8.19937
8.24462
8.30002
8.32069
8.24789
8.31075
8.35369
7.59709
6.00166
3.8943
2.15705
1.00726
0.3357
0.0744928
0.0179909
0.0303088
2.1279
17.1733
57.0359
119.447
186.67
238.676
148.128
95.0489
72.5539
60.0709
52.1801
48.0758
46.6756
46.5677
47.93
61.1142
94.8017
138.475
175.737
195.796
199.059
193.766
187.149
181.743
176.822
172.199
166.49
157.393
143.48
125.459
107.05
92.1351
80.1742
68.0968
54.9526
41.2101
4.02503
4.41963
4.92743
5.49903
6.05396
6.50416
6.7236
6.66076
6.41344
6.22213
6.3077
6.69745
7.26245
7.89164
8.52154
9.10962
9.59931
9.92636
10.0939
10.1547
10.1088
9.95841
9.7275
9.43593
9.11843
8.83319
8.62247
8.51359
8.4963
8.52365
8.54577
8.47287
8.47129
8.65359
8.1728
6.90952
4.94476
2.99324
1.50347
0.543132
0.130354
0.0275069
0.0324664
2.26187
18.4351
60.4799
126.437
201.662
255.913
148.257
95.9208
73.364
60.6209
52.2587
48.1012
46.2296
46.0726
46.6901
57.204
87.0177
127.28
163.433
185.435
192.712
191.917
188.827
185.544
181.924
177.864
171.665
160.787
144.614
125.032
106.097
91.2496
79.4314
67.2916
54.0566
40.3975
4.08551
4.48627
4.99971
5.57301
6.11527
6.52578
6.68084
6.56915
6.35526
6.30653
6.5825
7.12662
7.80488
8.53131
9.2435
9.89502
10.429
10.7764
10.9375
10.9777
10.9008
10.7287
10.4671
10.1325
9.76128
9.39999
9.09932
8.89443
8.79693
8.77111
8.7706
8.68179
8.61966
8.87311
8.70911
7.79206
6.04748
4.0435
2.23945
0.879233
0.229878
0.0462658
0.0350769
2.34085
19.6978
64.0469
134.191
219.42
270.135
148.35
96.6035
74.1447
61.0841
52.0186
47.7541
45.8344
45.6709
45.8627
54.2425
80.7766
117.968
152.872
176.368
187.215
190.559
190.678
189.276
186.87
183.276
176.185
163.119
144.689
123.889
104.723
90.0826
78.4482
66.2734
52.9987
39.4426
4.14184
4.54775
5.06413
5.63401
6.15482
6.51622
6.60931
6.4781
6.34763
6.47486
6.93144
7.60713
8.39164
9.20948
9.99678
10.7047
11.2746
11.6397
11.7967
11.8162
11.7147
11.523
11.2394
10.8773
10.4678
10.0476
9.66723
9.3661
9.17694
9.07715
9.03225
8.9076
8.77706
9.02425
9.18307
8.64799
7.18079
5.26624
3.29231
1.44343
0.414077
0.0847066
0.0408569
2.37914
21.0351
67.7743
143.098
241.533
279.446
148.62
97.0585
74.8044
61.1602
50.5885
45.0592
45.5663
45.2811
45.3211
51.9783
75.7776
110.298
143.992
168.671
182.656
189.619
192.538
192.804
191.497
188.214
179.685
164.097
143.653
122.092
102.984
88.6733
77.2428
65.0481
51.7684
38.3912
4.19349
4.60297
5.11899
5.67931
6.16951
6.47576
6.51902
6.40817
6.40768
6.72393
7.33926
8.13353
9.01862
9.92064
10.7759
11.5334
12.1318
12.5135
12.6684
12.6695
12.5482
12.3402
12.0416
11.6631
11.2295
10.7708
10.3287
9.94694
9.6667
9.48271
9.37717
9.19977
8.99417
9.16726
9.56
9.4467
8.34124
6.64192
4.62987
2.35184
0.764711
0.167442
0.0526927
2.36793
22.3059
71.7843
153.842
270.646
283.77
148.478
97.2372
75.1843
60.3176
46.967
39.4476
46.5412
44.9892
44.9598
50.226
71.787
104.05
136.678
162.322
179.017
189.038
194.282
196.088
195.749
192.217
181.72
163.629
141.623
119.744
100.948
87.0675
75.8369
63.6255
50.4012
37.2346
4.24043
4.65129
5.16291
5.70681
6.15813
6.40899
6.42534
6.38054
6.54503
7.04461
7.79878
8.70519
9.68343
10.662
11.5786
12.3804
13.0072
13.4061
13.5602
13.5449
13.4078
13.1858
12.8757
12.4863
12.0392
11.5586
11.0762
10.6353
10.2789
10.015
9.84131
9.60006
9.32048
9.37878
9.86194
10.146
9.48696
8.16447
6.20175
3.61112
1.39066
0.345033
0.0819071
2.30156
23.5401
76.2644
167.151
309.921
284.128
147.25
97.1053
75.0378
57.8806
41.6633
34.7532
49.1358
44.736
44.6666
48.8454
68.6269
99.0318
130.786
157.242
176.244
188.781
195.931
199.123
199.507
195.088
182.198
161.838
138.78
116.956
98.6849
85.3127
74.251
62.0132
48.885
35.998
4.28325
4.69276
5.19537
5.71588
6.12272
6.32595
6.34817
6.41408
6.76184
7.42828
8.31033
9.32143
10.3835
11.431
12.4032
13.2468
13.9052
14.3234
14.4832
14.4535