/*--------------------------------*- C++ -*----------------------------------*\
| =========                 |                                                 |
| \\      /  F ield         | OpenFOAM: The Open Source CFD Toolbox           |
|  \\    /   O peration     | Version:  4.1                                   |
|   \\  /    A nd           | Web:      www.OpenFOAM.org                      |
|    \\/     M anipulation  |                                                 |
\*---------------------------------------------------------------------------*/
FoamFile
{
    version     2.0;
    format      ascii;
    class       surfaceScalarField;
    location    "25";
    object      phi;
}
// * * * * * * * * * * * * * * * * * * * * * * * * * * * * * * * * * * * * * //

dimensions      [0 3 -1 0 0 0 0];

internalField   nonuniform List<scalar> 
13220
(
-913.937
2213.86
-1421.18
1807.46
-1896.9
1775.64
-2262.04
1665.05
-2544.27
1582.44
-2747.16
1502.8
-2873.23
1425.99
-2923.49
1350.47
-2897.68
1274.1
-2794.44
1196.67
-2619.13
1124.9
-2369.53
1050.31
-1981.41
911.796
-1276.6
595.404
23.3
-4.73211
2218.62
-43.0651
1845.83
-176.798
1909.4
-284.74
1773.03
-397.016
1694.75
-495.184
1601
-578.875
1509.71
-645.357
1416.98
-696.399
1325.17
-737.335
1237.62
-766.525
1154.1
-749.781
1033.59
-584.719
746.765
-205.61
216.391
-182.304
-127.754
2346.4
-329.578
2047.68
-519.511
2099.36
-633.781
1887.33
-739.93
1800.93
-809.718
1670.82
-855.467
1555.48
-877.553
1439.09
-877.448
1325.1
-856.532
1216.76
-807.791
1105.39
-698.314
924.228
-480.327
529.011
-214.486
-49.096
-396.79
51.433
2294.99
-18.9341
2118.07
-41.9975
2122.45
-28.7546
1874.11
-15.34
1787.55
18.0199
1637.5
65.4062
1508.14
128.461
1376.08
206.991
1246.61
302.057
1121.72
406.772
1000.71
482.97
848.024
440.621
571.36
162.889
228.642
-233.899
135.732
2159.27
136.508
2117.31
186.036
2072.94
242.104
1818.06
298.14
1731.53
354.471
1581.18
410.688
1451.93
464.323
1322.45
513.382
1197.56
555.285
1079.83
588.54
967.444
588.035
848.596
485.536
673.92
267.744
446.56
33.8409
98.0207
2061.25
131.249
2084.09
174.831
2029.36
223.357
1769.54
263.993
1690.89
309.875
1535.3
351.594
1410.21
387.05
1287
411.574
1173.03
425.578
1065.8
429.66
963.357
411.837
866.312
334.891
750.751
185.548
595.67
219.39
34.3943
2026.86
84.0224
2034.46
119.887
1993.49
158.298
1731.13
190.013
1659.17
234.776
1490.53
278.883
1366.1
341.392
1224.47
416.502
1097.91
487.467
994.836
526.179
924.628
511.022
881.516
420.512
841.297
255.945
760.285
475.333
-24.1379
2050.99
-15.0459
2025.36
-3.29244
1981.73
-12.0693
1739.89
-15.211
1662.3
-10.6414
1485.94
13.6613
1341.77
101.486
1136.63
249.083
950.281
404.914
838.962
508.945
820.586
524.001
866.364
431.168
934.05
251.508
939.847
726.842
-41.2338
2092.21
-146.83
2130.94
-201.559
2036.45
-284.542
1822.86
-361.868
1739.62
-439.937
1564
-496.264
1398.09
-493.833
1134.19
-423.043
879.485
-301.424
717.346
-145.514
664.663
15.2005
705.701
112.501
836.787
90.9108
961.477
817.751
33.5912
2058.6
-155.844
2320.36
-280.444
2161.03
-406.708
1949.11
-529.385
1862.28
-658.794
1693.4
-796.066
1535.35
-948.395
1286.51
-1074.78
1005.86
-1130.81
773.356
-1070.86
604.705
-860.038
494.811
-523.772
500.449
-181.726
619.337
636.025
155.994
1902.59
37.5402
2438.8
-58.7234
2257.27
-133.204
2023.57
-202.405
1931.46
-282.07
1773.05
-380.65
1633.91
-539.134
1444.97
-733.735
1200.44
-906.682
946.286
-1012.85
710.849
-993.421
475.393
-784.326
291.353
-393.345
228.351
242.678
189.401
1713.16
136.706
2491.47
31.2504
2362.71
-42.5491
2097.35
-75.6798
1964.56
-99.3605
1796.71
-109.426
1643.96
-149.841
1485.37
-251.993
1302.57
-386.911
1081.18
-512.065
835.988
-584.655
547.908
-510.271
216.864
-281.267
-0.833402
-38.59
311.468
1401.68
425.145
2377.78
475.269
2312.57
484.644
2087.96
472.512
1976.68
420.567
1848.65
360.81
1703.71
309.234
1536.94
248.434
1363.36
142.427
1187.17
-11.056
989.46
-183.619
720.458
-253.765
286.968
-67.8244
-186.842
-106.415
-841.113
2242.78
-1343.37
2880.03
-1643.22
2612.42
-1914.46
2359.19
-2072.61
2134.83
-2084.44
1860.47
-1961.55
1580.81
-1814.01
1389.4
-1690.72
1240.07
-1439.88
936.331
-915.607
465.184
-266.23
71.076
205.561
-184.828
324.589
-305.877
218.176
-1438.09
-1711.27
-1795.29
-1837.97
-1815.94
-1900.33
-2069.24
-2300.09
-2464.02
-2240.8
-1693.74
-1211.13
-853.894
-715.912
0.00019872
228.765
-228.764
228.765
228.765
228.765
528.815
-300.049
528.815
528.815
528.815
936.999
-408.184
936.999
936.999
1404.75
-467.752
1404.75
1404.75
1404.75
1924.77
-520.018
1924.77
1924.77
2509.22
-584.448
2509.22
2509.22
2509.22
3126.07
-616.856
3126.07
3126.07
3126.07
3769.98
-643.901
3769.98
3769.98
4437.61
-667.635
4437.61
4437.61
4437.61
5107.8
-670.185
5107.8
5107.8
5783.8
-676.003
5783.8
5783.8
5783.8
6450.21
-666.414
6450.21
6450.21
6450.21
7095.99
-645.774
7095.99
7095.99
7725.45
-629.457
7725.45
7725.45
7725.45
8322.17
-596.726
8322.17
8322.17
8322.17
8884.46
-562.288
8884.46
8884.46
9414.26
-529.797
9414.26
9414.26
9414.26
9901.37
-487.114
9901.37
9901.37
10360.4
-459.023
10360.4
10360.4
10360.4
10766.2
-405.794
10766.2
10766.2
10766.2
11117.3
-351.105
11117.3
11117.3
11421.4
-304.122
11421.4
11421.4
11227.6
11078.5
11034.4
11191.8
-217.58
11149.4
11071.6
10975.5
10887.6
10810
10735.1
10658.7
10558.8
10422.4
6.89479
10329.7
10239.5
10147.4
10078.5
10010.7
9934.93
9858.83
9779.69
9965.31
-257.369
9944.8
9930.32
9910.79
9907.16
9950.5
10061.6
10186.6
10328.1
10485.4
9517.38
1111.7
9764.35
10020.8
10278.7
10547.6
10826.3
11114.8
11411.9
11707.5
9860.51
2127.23
10194.6
10530.4
10865.8
11196
11522.9
11846.2
12164
12527.9
10971.5
1906.03
11345.1
11723.1
12077.8
12462.4
12865.3
13260.7
13653.3
14047.3
13019.6
1432.36
13469.1
13936.9
14378.7
14820.6
15268.3
15760.1
16256.8
16756.7
17266.5
16533.8
1240.6
17089.2
17699.1
18275.2
18857.1
19456.7
20075.3
20736.6
21418.8
20905.6
1162.76
21593.2
22359.4
22359.4
21467
892.326
20752.4
714.632
20752.4
20569.1
183.266
20569.1
20740.7
-171.515
21069.7
-329.047
21069.7
21700.7
-630.959
22413.8
-713.151
22413.8
23318.5
-904.702
23318.5
24307.1
-988.53
25311.2
-1004.13
25311.2
26417.2
-1106.02
26417.2
27556.6
-1139.39
28675.6
-1119.02
28675.6
29877.3
-1201.74
31023.3
-1145.92
31023.3
32267
-1243.74
32267
33539.9
-1272.91
34743.3
-1203.44
34743.3
36047.5
-1304.15
36047.5
37378.5
-1331
38607.5
-1229.04
38607.5
39957.1
-1349.56
41161.8
-1204.75
41161.8
42493.3
-1331.45
42493.3
43869.5
-1376.25
45107.6
-1238.09
45107.6
46504.8
-1397.12
46504.8
47964.4
-1459.61
49276.2
-1311.84
49276.2
50784.8
-1508.59
52097.9
-1313.08
52097.9
53588.8
-1490.96
53588.8
55138.1
-1549.3
56480.3
-1342.16
56480.3
58011
-1530.73
58011
59602
-1591.01
60960.2
-1358.21
60960.2
62567.7
-1607.44
63894.7
-1327.04
63894.7
65449.6
-1554.91
65449.6
67090.8
-1641.24
68470
-1379.13
68470
70124.4
-1654.4
70124.4
71891.5
-1767.11
73404.4
-1512.89
73404.4
75285.1
-1880.7
76888.5
-1603.42
76888.5
78849.5
-1961.01
78849.5
-2196.77
-3031.04
18325.9
-3083.74
19495.6
-3080.91
20331
-3057.04
20983.1
-3002.69
21844.7
-2923.04
22653.3
-2812.34
23459.1
-2664.18
24086.5
-2481.75
24552
-2281.93
25110.4
-2081.59
26141.5
-1875.53
27647.1
-1641.26
28875.4
-1368.99
28669.7
-1059.23
26544.8
-777.483
23735.3
-527.955
24491.8
-260.747
27387.8
5.76969
27100.4
274
27539.5
532.377
25765.4
793.605
25329.2
1050.28
26289.7
1273.72
25979.9
1480.49
24448.1
1689.68
23097.2
1886.3
22188.3
2052.79
21494
2170.75
20712
2195.7
18593.8
2137.05
15103.7
2055.6
11162.9
1990.75
7474.01
1950.45
4103.17
1914.46
1229.77
1975.93
-1092.72
1996.94
-4066.82
1995.73
-4136.28
2968.73
-6846.02
4428.19
-21243.2
5090.57
-32595.3
5066.6
-34584.5
4846.43
-31439.2
4676.41
-27255.3
4615.43
-23440.3
4644.07
-20068.8
4756.21
-16867.6
4908.92
-13030.8
4909.77
-8878.37
4572.52
-3943.5
4855.46
-2453.06
6284.13
-9799.31
7467.24
-17485.1
7517.99
-18774.3
6781.34
-14581.8
5697.59
-8714.2
4037.82
-946.132
2817.58
13312.6
3218.39
15317.6
4187.72
-2362.55
4511.79
8615.45
4505.04
54735.2
4195.06
69357.4
3945.95
59506.7
3856.84
47732.8
3844.58
38036.1
3854.62
29775.2
3867.77
22172
3877.03
14873.3
3879.88
7746.67
3877.67
694.253
3825.09
-6659.9
3667.62
-14232.5
3371.5
-21640.7
2899.37
-27509.8
2538.76
-32540
2352.36
-45705.4
2354.78
-64338.8
-76272.7
-3040.24
18384.7
-3088.76
19544.2
-3083.51
20325.8
-3057.37
20956.9
-3001.55
21788.9
-2920.38
22572.1
-2807.45
23346.1
-2656.52
23935.6
-2472.39
24367.9
-2273.42
24911.5
-2075.97
25944.1
-1872.69
27443.8
-1639.36
28642
-1364.67
28395
-1051.1
26231.2
-770.822
23455.1
-525.816
24246.8
-259.967
27121.9
5.57021
26834.9
272.389
27272.7
528.569
25509.2
789.46
25068.4
1047.44
26031.7
1270.41
25756.9
1474.46
24244
1682.3
22889.4
1880.42
21990.2
2050.83
21323.6
2174.91
20587.9
2207.71
18561
2154.05
15157.4
2073.01
11244
2007.28
7539.74
1965.07
4145.38
1933.2
1261.64
2016.15
-1175.66
2046.52
-4097.2
2135.04
-4224.79
3235.16
-7946.14
4578.13
-22586.1
5059.46
-33076.7
4932.12
-34457.1
4674.45
-31181.5
4501.05
-27081.9
4456.59
-23395.9
4533.95
-20146.2
4735.96
-17069.7
4944.82
-13239.7
4855.2
-8788.75
4468.83
-3557.14
5115.63
-3099.87
6846.96
-11530.6
7891.18
-18529.3
7703.1
-18586.2
6744.24
-13622.9
5489.05
-7459
3913.05
629.87
2867.9
14357.7
3668.32
14517.2
4689.23
-3383.47
4570.58
8734.1
4539.67
54766.1
4226.28
69670.8
3948.33
59784.7
3846.6
47834.5
3834.08
38048.6
3845.46
29763.8
3859.15
22158.3
3867.33
14865.1
3867.61
7746.4
3852.17
709.689
3773.84
-6581.57
3598.49
-14057.2
3295
-21337.2
2825.59
-27040.4
2494.46
-32208.9
2349.24
-45560.2
2169.13
-64158.7
-76064.6
-3051.71
18443.8
-3096.94
19589.4
-3088.47
20317.3
-3059.58
20928.1
-3001.8
21731.1
-2918.57
22488.9
-2802.81
23230.4
-2648.66
23781.5
-2462.71
24181.9
-2264.75
24713.5
-2070.28
25749.6
-1869.54
27243.1
-1636.6
28409.1
-1358.88
28117.3
-1042.64
25915
-764.24
23176.7
-522.916
24005.5
-259.05
26858.1
5.22788
26570.6
270.574
27007.4
524.84
25254.9
785.101
24808.1
1043.88
25772.9
1266.55
25534.2
1468.36
24042.2
1674.75
22683
1874.89
21790
2050.25
21148.2
2181.1
20457
2223.11
18519
2176.61
15203.9
2097.09
11323.5
2030.56
7606.27
1989.07
4186.87
1962.62
1288.09
2053.08
-1266.12
2090.21
-4134.33
2243.8
-4378.37
3399.8
-9102.14
4624.9
-23811.2
4996.96
-33448.7
4823.61
-34283.8
4556.99
-30914.9
4386.06
-26911
4348.78
-23358.6
4455.4
-20252.8
4711.88
-17326.1
4940.91
-13468.7
4787.63
-8635.47
4422.15
-3191.66
5353.25
-4030.96
7190.56
-13368
8085.56
-19424.3
7783.77
-18284.4
6809.76
-12648.9
5501.99
-6151.23
3891.05
2240.81
2929.12
15319.7
3967.23
13479.1
5066.24
-4482.48
4724.7
9075.63
4553.77
54937
4245.43
69979.1
3947.23
60082.9
3833.24
47948.5
3819.95
38061.9
3833.2
29750.6
3847.81
22143.7
3855.17
14857.7
3852.02
7749.55
3826.48
735.227
3737.71
-6492.8
3559.09
-13878.6
3253.41
-21031.5
2788.24
-26575.2
2472.6
-31893.2
2347.07
-45434.7
2197.81
-64009.4
-75470.2
-3065.66
18502.4
-3106.9
19630.6
-3095.21
20305.6
-3063.48
20896.3
-3003.52
21671.1
-2917.92
22403.2
-2799.05
23111.5
-2641.69
23624.1
-2454.16
23994.4
-2257.3
24516.7
-2065.41
25557.7
-1866.46
27044.1
-1633.37
28176
-1352.83
27836.8
-1034.98
25597.1
-758.437
22900.1
-519.962
23767
-258.116
26596.2
4.97596
26307.5
268.782
26743.6
521.464
25002.2
781.016
24548.5
1040.16
25513.8
1262.72
25311.7
1462.77
23842.2
1667.77
22478
1869.86
21587.9
2050.45
20967.6
2188.11
20319.4
2239.39
18467.7
2201.73
15241.5
2125.58
11399.6
2059.96
7671.89
2020.27
4226.56
2001.1
1307.25
2100.52
-1365.54
2143.9
-4177.71
2363.5
-4597.97
3563.25
-10301.9
4668.88
-24916.9
4927.54
-33707.4
4706.01
-34062.2
4429.96
-30638.8
4259.22
-26740.2
4227.75
-23327.1
4368.44
-20393.5
4688.18
-17645.9
4933.77
-13714.3
4700.2
-8401.9
4409.29
-2900.75
5659.55
-5281.22
7553.56
-15262
8280.66
-20151.4
7859
-17862.8
6852.73
-11642.7
5512.68
-4811.18
3857.96
3895.53
2969.98
16207.6
4191.84
12257.2
5403.03
-5693.66
4903.22
9575.44
4559.54
55280.7
4247.22
70291.4
3940.13
60390
3818.14
48070.5
3803.81
38076.2
3818.97
29735.4
3834.73
22128
3841.26
14851.2
3833.45
7757.36
3798.67
770.008
3700.07
-6394.21
3516.21
-13694.7
3205.09
-20720.4
2742.49
-26112.6
2445.69
-31596.4
2343.84
-45332.8
2192.08
-63857.7
-75158.8
-3082.07
18560.5
-3118.86
19667.4
-3103.82
20290.6
-3069.3
20861.8
-3007.02
21608.9
-2918.83
22315.1
-2796.67
22989.3
-2636.09
23463.5
-2447.07
23805.4
-2251.31
24320.9
-2061.72
25368.1
-1864.14
26846.6
-1630.55
27942.4
-1347.29
27553.5
-1028
25277.8
-753.199
22625.3
-517.259
23531
-257.153
26336.1
4.76221
26045.6
267.147
26481.2
518.391
24751
777.302
24289.6
1036.83
25254.2
1259.41
25089.1
1457.9
23643.7
1661.58
22274.3
1865.61
21383.9
2051.81
20781.4
2196.83
20174.4
2257.25
18407.3
2229.29
15269.5
2157.93
11471
2094.47
7735.35
2057.07
4263.97
2047.02
1317.31
2152.34
-1470.86
2204.57
-4229.95
2493.94
-4887.33
3710.63
-11518.6
4688.65
-25894.9
4844.58
-33863.3
4587.73
-33805.4
4308.08
-30359.2
4135.04
-26567.2
4105.27
-23297.4
4280.2
-20568.4
4660.63
-18026.3
4906.91
-13960.6
4597.85
-8092.84
4452.3
-2755.2
6006.78
-6835.7
7874.33
-17129.5
8417.39
-20694.5
7888.85
-17334.2
6864.37
-10618.2
5511.17
-3457.97
3815.7
5591
3012.7
17010.6
4380.34
10889.6
5670.73
-6984.05
5056.84
10189.3
4555.75
55781.8
4234.23
70612.9
3926.08
60698.1
3799.98
48196.6
3784.93
38091.3
3802.2
29718.1
3819.33
22110.9
3825.02
14845.5
3812.98
7769.39
3769.82
813.173
3663.18
-6287.57
3475.37
-13506.9
3158.47
-20403.5
2699.19
-25653.3
2421.57
-31318.8
2341.42
-45252.7
2153.26
-63669.5
-74518.5
-3100.7
18617.8
-3132.93
19699.7
-3114.49
20272.1
-3077.22
20824.5
-3012.46
21544.1
-2921.52
22224.1
-2795.88
22863.7
-2632.05
23299.7
-2441.62
23614.9
-2246.93
24126.2
-2059.41
25180.6
-1862.87
26650
-1628.44
27708
-1342.37
27267.5
-1021.68
24957.1
-748.534
22352.2
-514.859
23297.4
-256.224
26077.5
4.57292
25784.8
265.739
26220
515.703
24501
774.072
24031.3
1034.08
24994.2
1256.84
24866.3
1454
23446.5
1656.43
22071.9
1862.37
21178
2054.48
20589.3
2207.45
20021.4
2276.97
18337.8
2259.17
15287.3
2193.71
11536.4
2133.42
7795.64
2098.73
4298.66
2098.69
1317.35
2208.46
-1580.64
2272.23
-4293.72
2630.88
-5245.97
3841.72
-12729.4
4693.25
-26746.4
4758.6
-33928.6
4475.78
-33522.6
4193.85
-30077.2
4013.75
-26387.1
3982.51
-23266.1
4193.14
-20779.1
4631.04
-18464.2
4861.86
-14191.4
4491.61
-7722.6
4549.83
-2813.42
6370.21
-8656.08
8148.99
-18908.3
8503.16
-21048.6
7873.92
-16705
6836.47
-9580.74
5478.83
-2100.33
3757.3
7312.53
3055.21
17712.7
4517.05
9427.74
5841.46
-8308.46
5168.01
10862.8
4534.91
56414.9
4206.11
70941.7
3904.91
60999.3
3778.6
48322.9
3763.51
38106.3
3783.15
29698.5
3801.93
22092.1
3807
14840.4
3791.1
7785.3
3740.68
863.595
3627.63
-6174.53
3435.97
-13315.2
3111.94
-20079.5
2656.03
-25197.4
2398.09
-31060.9
2340.31
-45194.9
2228.12
-63557.3
-74057.5
-3121.49
18674
-3149.07
19727.3
-3127.24
20250.3
-3087.21
20784.5
-3019.83
21476.7
-2925.93
22130.2
-2796.66
22734.4
-2629.57
23132.6
-2437.83
23423.2
-2244.18
23932.5
-2058.48
24994.9
-1862.59
26454.1
-1626.93
27472.3
-1337.96
26978.5
-1016.06
24635.2
-744.479
22080.6
-512.724
23065.6
-255.356
25820.1
4.43643
25525
264.566
25959.9
513.449
24252.2
771.368
23773.3
1031.89
24733.7
1255.02
24643.2
1451.13
23250.4
1652.39
21870.7
1860.05
20970.3
2058.16
20391.2
2219.64
19859.9
2298.33
18259.1
2291.06
15294.6
2232.6
11594.9
2176.5
7851.74
2145.01
4330.14
2155.3
1307.06
2267.91
-1693.25
2346.47
-4372.28
2773.32
-5672.82
3957.23
-13913.3
4685.08
-27474.3
4672.98
-33916.5
4372.43
-33222
4087.54
-29792.4
3895.7
-26195.2
3861.74
-23232.2
4109.14
-21026.5
4595.43
-18950.5
4793.27
-14389.2
4391.55
-7320.88
4700.86
-3122.73
6726.54
-10681.8
8365.96
-20547.7
8526.94
-21209.6
7793.99
-15972
6743.37
-8530.12
5399.63
-756.595
3678.38
9033.79
3080.62
18310.5
4563.24
7945.12
5877.05
-9622.26
5214.71
11525.1
4492.96
57136.7
4162.93
71271.8
3876.76
61285.5
3754.21
48445.5
3740.01
38120.6
3762.29
29676.2
3783
22071.4
3787.72
14835.7
3768.4
7804.62
3711.62
920.375
3593.27
-6056.18
3397.58
-13119.5
3065.5
-19747.4
2613.84
-24745.7
2376.68
-30823.7
2336.17
-45154.4
2095.89
-63317
-73616
-3144.5
18728.6
-3167.29
19750
-3142.08
20225.1
-3099.27
20741.7
-3029.11
21406.6
-2932.04
22033.2
-2798.97
22601.4
-2628.62
22962.2
-2435.65
23230.2
-2243.02
23739.9
-2058.87
24810.8
-1863.24
26258.5
-1626
27235.1
-1334.06
26686.6
-1011.08
24312.2
-740.977
21810.5
-510.826
22835.5
-254.534
25563.8
4.37479
25266.1
263.628
25700.6
511.616
24004.2
769.186
23515.8
1030.28
24472.6
1253.96
24419.5
1449.27
23055.1
1649.41
21670.5
1858.55
20761.2
2062.61
20187.2
2233.19
19689.3
2321.35
18170.9
2324.77
15291.2
2274.36
11645.3
2223.45
7902.65
2195.76
4357.84
2216.29
1286.52
2330.71
-1807.67
2426.99
-4468.57
2917.85
-6163.67
4057.44
-15052.9
4668.42
-28085.3
4592.07
-33840.2
4279.12
-32909.1
3988.55
-29501.8
3781.99
-25988.7
3746.92
-23197.1
4030.45
-21310
4550.26
-19470.3
4699.29
-14538.3
4306.75
-6928.34
4897.18
-3713.16
7055.14
-12839.7
8519.62
-22012.2
8482.67
-21172.7
7629.3
-15118.7
6555.81
-7456.64
5248
551.219
3578.26
10703.5
3075.5
18813.3
4507.78
6512.84
5781.04
-10895.5
5186.78
12119.4
4427.86
57895.6
4106.16
71593.5
3841.96
61549.7
3726.94
48560.5
3714.7
38132.8
3739.9
29651
3762.8
22048.5
3767.46
14831
3745.12
7826.96
3682.88
982.616
3560.31
-5933.61
3360.13
-12919.4
3019.09
-19406.3
2572.77
-24299.4
2358.38
-30609.3
2337.32
-45133.3
2159.55
-63139.3
-72835.5
-3169.75
18781.4
-3187.63
19767.9
-3159.07
20196.5
-3113.4
20696
-3040.3
21333.5
-2939.86
21932.7
-2802.82
22464.3
-2629.21
22788.6
-2435.08
23036.1
-2243.42
23548.2
-2060.56
24627.9
-1864.83
26062.8
-1625.68
26995.9
-1330.68
26391.6
-1006.7
23988.3
-737.963
21541.8
-509.155
22606.7
-253.747
25308.4
4.40096
25007.9
262.939
25442.1
510.195
23756.9
767.533
23258.4
1029.29
24210.9
1253.69
24195.1
1448.42
22860.4
1647.53
21471.4
1857.86
20550.8
2067.65
19977.4
2247.94
19509
2346.21
18072.6
2360.27
15277.1
2318.78
11686.8
2273.98
7947.45
2250.76
4381.07
2281.21
1256.06
2396.85
-1923.3
2513.3
-4585.02
3061.89
-6712.26
4143.8
-16134.8
4646.7
-28588.2
4517.85
-33711.3
4194.91
-32586.1
3895.44
-29202.3
3674.61
-25767.9
3642.64
-23165.1
3957.94
-21625.3
4490.32
-20002.7
4579.39
-14627.3
4245.53
-6594.48
5129
-4596.64
7340.38
-15051.1
8605.6
-23277.4
8358.46
-20925.5
7358.63
-14118.8
6264.6
-6362.6
5021.42
1794.4
3465.68
12259.3
3045.92
19233
4361.75
5197
5573.06
-12106.8
5087.51
12604.9
4339.28
58643.8
4037.83
71894.9
3801.21
61786.3
3696.95
48664.7
3687.82
38141.9
3716.26
29622.6
3741.59
22023.1
3746.51
14826.1
3721.65
7851.82
3654.78
1049.49
3528.69
-5807.53
3323.19
-12713.9
2972.56
-19055.7
2533.07
-23859.9
2341.48
-30417.7
2341.32
-45133.1
2219.42
-63017.4
-72257.4
-3197.28
18831.9
-3210.18
19780.8
-3178.25
20164.6
-3129.65
20647.4
-3053.44
21257.2
-2949.38
21828.7
-2808.21
22323.2
-2631.32
22611.7
-2436.1
22840.9
-2245.35
23357.5
-2063.55
24446.1
-1867.37
25866.6
-1625.97
26754.5
-1327.8
26093.4
-1002.86
23663.3
-735.393
21274.3
-507.696
22379
-252.988
25053.7
4.53036
24750.4
262.52
25184.1
509.199
23510.2
766.423
23001.2
1028.95
23948.3
1254.26
23969.8
1448.61
22666
1646.77
21273.2
1858.02
20339.6
2073.13
19762.3
2263.64
19318.5
2372.98
17963.3
2397.55
15252.5
2365.64
11718.7
2327.79
7985.3
2309.77
4399.09
2349.63
1216.2
2466.25
-2039.92
2604.67
-4723.44
3202.94
-7310.54
4217.87
-17149.8
4622.69
-28993
4450.91
-33539.5
4117.92
-32253.1
3807.23
-28891.6
3576.66
-25537.3
3553.32
-23141.8
3890.65
-21962.6
4409.75
-20521.8
4436.65
-14654.2
4215.52
-6373.35
5383.66
-5764.78
7569.84
-17237.3
8619.56
-24327.2
8142.18
-20448.2
6976.71
-12953.4
5888.58
-5274.47
4735.38
2947.59
3348.59
13646.1
3007.44
19574.2
4155.52
4048.92
5284.41
-13235.7
4929.29
12960
4229.41
59343.7
3960.28
72164.1
3755.46
61991.1
3664.58
48755.6
3659.68
38146.8
3691.65
29590.6
3719.64
21995.1
3725.14
14820.6
3698.21
7878.74
3627.45
1120.25
3498.35
-5678.42
3286.44
-12502
2925.91
-18695.2
2495.01
-23429
2327.28
-30250
2344.14
-45150
2113.95
-62787.2
-71698.3
-3227.13
18879.9
-3234.99
19788.7
-3199.69
20129.3
-3148.04
20595.8
-3068.51
21177.7
-2960.6
21720.7
-2815.13
22177.7
-2634.96
22431.6
-2438.69
22644.6
-2248.8
23167.6
-2067.8
24265.1
-1870.85
25669.6
-1626.87
26510.6
-1325.4
25791.9
-999.515
23337.4
-733.227
21008
-506.427
22152.2
-252.244
24799.5
4.78226
24493.4
262.39
24926.5
508.638
23264
765.871
22744
1029.28
23684.9
1255.7
23743.4
1449.87
22471.8
1647.19
21075.9
1859.05
20127.7
2078.92
19542.4
2279.96
19117.5
2401.53
17841.7
2436.55
15217.5
2414.74
11740.5
2384.58
8015.46
2372.51
4411.16
2421.1
1167.62
2538.67
-2157.49
2700.29
-4885.06
3339.14
-7949.39
4281.32
-18091.9
4598.2
-29309.9
4390.57
-33331.9
4045.91
-31908.5
3723.64
-28569.4
3491.36
-25305
3481.58
-23132
3825.33
-22306.4
4302.89
-20999.3
4278
-14629.3
4223.84
-6319.19
5646.56
-7187.49
7733.37
-19324.1
8558.33
-25152.1
7841.46
-19731.3
6525.5
-11637.4
5479.16
-4228.14
4419.25
4007.51
3232.28
14833
2976.74
19829.7
3922.85
3102.81
4944.86
-14257.7
4728
13176.9
4102.76
59968.9
3876.14
72390.7
3705.83
62161.4
3630.22
48831.2
3630.56
38146.5
3666.35
29554.8
3697.2
21964.3
3703.58
14814.3
3675.01
7907.31
3601.02
1194.24
3469.04
-5546.44
3249.42
-12282.3
2879.09
-18324.8
2458.91
-23008.9
2316.59
-30107.7
2351.69
-45185.1
2168.84
-62604.3
-70856.5
-3259.36
18925
-3262.13
19791.5
-3223.44
20090.6
-3168.59
20540.9
-3085.53
21094.7
-2973.52
21608.7
-2823.59
22027.8
-2640.12
22248.1
-2442.86
22447.3
-2253.74
22978.5
-2073.31
24084.7
-1875.22
25471.6
-1628.36
26263.7
-1323.45
25487
-996.631
23010.6
-731.423
20742.8
-505.321
21926.1
-251.499
24545.7
5.17598
24236.7
262.562
24669.1
508.519
23018
765.879
22486.6
1030.31
23420.5
1258.02
23515.7
1452.22
22277.6
1648.81
20879.3
1861.04
19915.5
2084.94
19318.5
2296.53
18905.9
2431.55
17706.7
2477.26
15171.8
2465.85
11751.9
2443.99
8037.33
2438.63
4416.51
2495.12
1111.13
2613.73
-2276.11
2799.37
-5070.69
3469.15
-8619.17
4335.64
-18958.4
4574.16
-29548.4
4335.42
-33093.2
3976.96
-31550
3644.98
-28237.4
3420.87
-25080.9
3427.42
-23138.6
3757.39
-22636.3
4166.15
-21408.1
4113.35
-14576.6
4274.03
-6479.87
5900.75
-8814.21
7822.99
-21246.3
8423.84
-25753
7487.78
-18795.2
6063.62
-10213.2
5075.42
-3239.93
4096.24
4986.69
3120.75
15808.5
2966.85
19983.6
3690.14
2379.52
4577.72
-15145.3
4500.11
13254.5
3965.31
60503.7
3788.2
72567.8
3653.48
62296.2
3594.3
48890.4
3600.74
38140.1
3640.6
29514.9
3674.49
21930.4
3682.02
14806.7
3652.16
7937.18
3575.49
1270.9
3440.47
-5411.41
3211.7
-12053.6
2832.18
-17945.3
2425.03
-22601.7
2308.52
-29991.2
2361.94
-45238.5
2197.34
-62439.7
-70266.6
-3294.06
18966.8
-3291.69
19789.1
-3249.55
20048.5
-3191.34
20482.7
-3104.52
21007.8
-2988.14
21492.4
-2833.57
21873.2
-2646.8
22061.3
-2448.58
22249.1
-2260.16
22790.1
-2080.03
23904.6
-1880.48
25272
-1630.4
26013.6
-1321.92
25178.5
-994.159
22682.8
-729.936
20478.6
-504.353
21700.5
-250.733
24292.1
5.72906
23980.2
263.051
24411.8
508.842
22772.2
766.446
22229
1032.05
23154.9
1261.25
23286.5
1455.7
22083.2
1651.68
20683.3
1864.12
19703.1
2091.32
19091.3
2313.04
18684.2
2462.68
17557.1
2519.85
15114.6
2518.77
11753
2505.62
8050.48
2507.7
4414.44
2571.07
1047.75
2690.96
-2396
2901.19
-5280.92
3592.07
-9310.05
4382.07
-19748.4
4550.79
-29717.1
4283.83
-32826.2
3909.81
-31176
3571.74
-27899.3
3365.4
-24874.5
3388.4
-23161.6
3682.77
-22930.7
3999.91
-21725.2
3953.77
-14530.4
4364.84
-6890.94
6129.66
-10579
7834.33
-22951
8221.32
-26140
7114.8
-17688.7
5624.46
-8722.88
4687.04
-2302.52
3773.17
5900.56
3013.96
16567.7
2984.92
20012.6
3470.53
1893.9
4196.12
-15870.9
4260.25
13190.4
3823.74
60940.2
3699.25
72692.3
3599.57
62395.9
3557.24
48932.7
3570.45
38126.8
3614.62
29470.8
3651.67
21893.3
3660.57
14797.8
3629.71
7968.03
3550.78
1349.83
3412.15
-5272.78
3172.81
-11814.2
2785.3
-17557.8
2393.67
-22210.1
2303.5
-29901
2375.14
-45310.2
2191.22
-62255.8
-69433.6
-3331.3
19005.2
-3323.75
19781.5
-3278.08
20002.8
-3216.31
20421
-3125.49
20917
-3004.46
21371.3
-2845.09
21713.8
-2655
21871.2
-2455.85
22050
-2268.04
22602.3
-2087.95
23724.5
-1886.59
25070.6
-1632.97
25760
-1320.78
24866.4
-992.055
22354.1
-728.724
20215.3
-503.495
21475.2
-249.931
24038.5
6.45621
23723.9
263.864
24154.4
509.601
22526.5
767.56
21971.1
1034.49
22888
1265.41
23055.6
1460.32
21888.3
1655.84
20487.8
1868.44
19490.5
2098.27
18861.5
2329.28
18453.2
2494.45
17391.9
2564.43
15044.6
2573.44
11744
2569.1
8054.82
2579.14
4404.39
2648.22
978.671
2769.99
-2517.76
3005.19
-5516.13
3707.3
-10012.2
4421.47
-20462.6
4527.85
-29823.5
4234.32
-32532.7
3843.8
-30785.5
3504.06
-27559.6
3323.17
-24693.7
3360.86
-23199.3
3599.94
-23169.8
3810.28
-21935.6
3811.11
-14531.2
4491.79
-7571.62
6320.76
-12408
7767.98
-24398.2
7958.61
-26330.6
6745.96
-16476.1
5192.92
-7169.85
4277.99
-1387.59
3441.9
6736.65
2906.3
17103.3
3027.44
19891.5
3261.83
1659.52
3801.2
-16410.3
4019.86
12971.7
3684.67
61275.4
3611.92
72765
3545.16
62462.6
3519.42
48958.5
3539.91
38106.3
3588.56
29422.1
3628.85
21853
3639.28
14787.4
3607.66
7999.66
3526.67
1430.82
3383.5
-5129.61
3132.33
-11563.1
2738.7
-17164.2
2365.06
-21836.4
2300.88
-29836.8
2391.33
-45400.6
2272.72
-62137.2
-68751.9
-3371.19
19039.6
-3358.4
19768.7
-3309.11
19953.5
-3243.55
20355.4
-3148.43
20821.9
-3022.46
21245.3
-2858.13
21549.5
-2664.71
21677.8
-2464.66
21849.9
-2277.36
22414.9
-2097.04
23544.2
-1893.51
24867.1
-1636.04
25502.5
-1319.99
24550.3
-990.27
22024.4
-727.744
19952.7
-502.725
21250.2
-249.078
23784.9
7.36551
23467.4
264.998
23896.8
510.779
22280.7
769.198
21712.6
1037.61
22619.5
1270.47
22822.7
1466.1
21692.7
1661.34
20292.6
1874.13
19277.7
2106.07
18629.5
2345.22
18214
2526.3
17210.8
2610.75
14960.2
2629.99
11724.7
2634.14
8050.68
2652.28
4386.25
2725.83
905.118
2850.73
-2642.65
3110.89
-5776.29
3814.34
-10715.6
4454.45
-21102.7
4504.87
-29873.9
4185.66
-32213.5
3778.72
-30378.5
3441.6
-27222.4
3291.16
-24543.2
3341.47
-23249.6
3511.48
-23339.8
3610.09
-22034.2
3698.6
-14619.8
4649.53
-8522.55
6467.88
-14226.4
7630.29
-25560.6
7644.06
-26344.3
6383.25
-15215.3
4664.71
-5451.3
3696.37
-419.254
3043.86
7389.17
2781.5
17365.7
3080.8
19592.2
3047.67
1692.65
3381.72
-16744.3
3786.49
12566.9
3554.06
61507.9
3528.51
72790.6
3491.18
62499.9
3481.17
48968.5
3509.23
38078.3
3562.5
29368.8
3606.05
21809.5
3618.1
14775.3
3585.84
8031.92
3502.77
1513.89
3353.81
-4980.65
3089.98
-11299.2
2692.72
-16766.9
2339.48
-21483.2
2301.06
-29798.4
2406.35
-45505.9
2191.73
-61922.6
-68090.9
-3413.84
19070
-3395.74
19750.6
-3342.68
19900.4
-3273.07
20285.8
-3173.37
20722.2
-3042.15
21114.1
-2872.69
21380
-2675.94
21481.1
-2475.03
21649
-2288.1
22228
-2107.27
23363.3
-1901.2
24661
-1639.55
25240.9
-1319.49
24230.2
-988.757
21693.7
-726.957
19690.9
-502.022
21025.3
-248.167
23531
8.45407
23210.8
266.436
23638.8
512.344
22034.8
771.32
21453.7
1041.39
22349.5
1276.43
22587.7
1473.02
21496.1
1668.18
20097.4
1881.32
19064.5
2115.02
18395.8
2361.01
17968
2557.65
17014.2
2658.25
14859.6
2688.62
11694.4
2700.77
8038.53
2726.49
4360.53
2803.55
828.066
2933.61
-2772.71
3217.68
-6060.36
3912.69
-11410.6
4481.41
-21671.4
4481.34
-29873.8
4136.92
-31869.1
3714.51
-29956.1
3383.71
-26891.6
3266.33
-24425.8
3328.5
-23311.7
3424.57
-23435.9
3418.67
-22028.3
3629.85
-14830.9
4832.25
-9724.94
6571.85
-15966
7432.93
-26421.7
7285.97
-26197.4
6001.02
-13930.3
3808.67
-3258.96
2646.22
743.196
2479.25
7556.14
2619.65
17225.3
3128.13
19083.7
2806.25
2014.53
2922
-16860.1
3564.28
11924.7
3436.77
61635.4
3450.92
72776.4
3438.36
62512.5
3442.69
48964.2
3478.45
38042.5
3536.42
29310.9
3583.16
21762.7
3596.82
14761.7
3563.98
8064.76
3478.51
1599.35
3322.35
-4824.49
3045.6
-11022.5
2647.83
-16369.2
2317.19
-21152.5
2304.75
-29785.9
2425.75
-45626.9
2252.09
-61748.9
-67181
-3459.34
19095.8
-3435.86
19727.2
-3378.86
19843.4
-3304.92
20211.8
-3200.31
20617.6
-3063.52
20977.3
-2888.78
21205.3
-2688.7
21281
-2486.93
21447.2
-2300.25
22041.3
-2118.6
23181.7
-1909.62
24452.1
-1643.47
24974.7
-1319.25
23906
-987.468
21361.9
-726.325
19429.8
-501.372
20800.3
-247.201
23276.8
9.70546
22953.9
268.144
23380.3
514.245
21788.7
773.861
21194
1045.75
22077.6
1283.2
22350.2
1481.02
21298.3
1676.31
19902.1
1890.02
18850.8
2125.37
18160.5
2376.91
17716.5
2588.06
16803
2706.1
14741.6
2749.34
11651.1
2769.42
8018.45
2801.68
4328.26
2881.93
747.815
3019.49
-2910.27
3324.61
-6365.48
4001.82
-12087.8
4502.63
-22172.2
4456.72
-29827.9
4087.4
-31499.7
3651.16
-29519.9
3329.84
-26570.3
3246.57
-24342.6
3321.99
-23387.2
3349.67
-23463.6
3259.6
-21938.2
3616.95
-15188.3
5033.53
-11141.5
6639.11
-17571.5
7191.03
-26973.6
6892.84
-25899.2
5580.77
-12618.2
2997.69
-675.885
1653.31
2087.58
1891.93
7317.52
2418.45
16698.8
3148.44
18353.7
2526.62
2636.34
2419.33
-16752.8
3355.7
10988.3
3336.3
61654.8
3380.49
72732.2
3387.2
62505.8
3404.06
48947.3
3447.46
37999.1
3510.11
29248.2
3559.93
21712.9
3575.07
14746.5
3541.59
8098.23
3453.17
1687.78
3288.37
-4659.69
2999.3
-10733.4
2604.59
-15974.5
2298.36
-20846.3
2310.41
-29798
2447.38
-45763.9
2309.67
-61611.2
-66420.6
-3507.84
19116.9
-3478.86
19698.2
-3417.71
19782.3
-3339.12
20133.3
-3229.25
20507.7
-3086.57
20834.7
-2906.39
21025.1
-2702.99
21077.6
-2500.37
21244.6
-2313.78
21854.8
-2130.99
22998.9
-1918.71
24239.8
-1647.73
24703.8
-1319.21
23577.5
-986.355
21029
-725.816
19169.3
-500.771
20575.3
-246.191
23022.3
11.0905
22696.6
270.077
23121.3
516.417
21542.4
776.725
20933.7
1050.57
21803.7
1290.66
22110.1
1489.98
21098.9
1685.61
19706.5
1900.14
18636.3
2137.3
17923.3
2393.47
17460.3
2617.52
16579
2753.47
14605.6
2811.7
11592.9
2840.6
7989.55
2878.6
4290.26
2962.75
663.67
3109.18
-3056.71
3430.14
-6686.44
4081.26
-12738.9
4518.35
-22609.3
4430.52
-29740.1
4036.51
-31105.7
3588.57
-29072
3279.79
-26261.5
3231.1
-24293.9
3323.37
-23479.4
3298.38
-23438.6
3156.54
-21796.4
3669.57
-15701.3
5247.78
-12719.7
6678.89
-19002.6
6920.17
-27214.9
6471.42
-25450.4
5153.15
-11300
2554.23
1923.03
1052.01
3589.8
1323.19
7046.34
2169.4
15852.6
3121.57
17401.6
2226.43
3531.49
1905.16
-16431.5
3163.51
9729.95
3254.5
61563.8
3317.89
72668.8
3337.91
62485.8
3365.22
48920
3416.02
37948.3
3483.21
29181
3535.88
21660.3
3552.32
14730.1
3518.04
8132.51
3425.87
1779.95
3251.32
-4485.14
2951.45
-10433.5
2563.67
-15586.7
2283.17
-20565.8
2318.8
-29833.6
2467.53
-45912.6
2237.12
-61380.8
-65674.4
-3559.44
19132.8
-3524.84
19663.6
-3459.29
19716.7
-3375.69
20049.7
-3260.19