/*--------------------------------*- C++ -*----------------------------------*\
| =========                 |                                                 |
| \\      /  F ield         | OpenFOAM: The Open Source CFD Toolbox           |
|  \\    /   O peration     | Version:  4.1                                   |
|   \\  /    A nd           | Web:      www.OpenFOAM.org                      |
|    \\/     M anipulation  |                                                 |
\*---------------------------------------------------------------------------*/
FoamFile
{
    version     2.0;
    format      ascii;
    class       volVectorField;
    location    "25";
    object      U;
}
// * * * * * * * * * * * * * * * * * * * * * * * * * * * * * * * * * * * * * //

dimensions      [0 1 -1 0 0 0 0];

internalField   nonuniform List<vector> 
6785
(
(7.44885e-14 -0.60129 16.1067)
(7.49154e-14 -6.48361 12.4915)
(-2.06891e-14 -4.71804 12.8307)
(1.24918e-14 -4.17864 12.6107)
(1.32349e-14 -3.56149 12.4525)
(-8.43379e-15 -3.08461 12.2431)
(3.25286e-14 -2.6945 12.0049)
(1.05373e-14 -2.40568 11.7268)
(-6.65472e-15 -2.21229 11.408)
(2.36321e-14 -2.08547 11.062)
(7.02263e-15 -2.0339 10.691)
(-1.37871e-14 -2.22541 10.2051)
(2.98818e-14 -2.55858 9.57066)
(-1.50564e-14 -1.71321 8.98741)
(-6.8574e-14 0.891582 6.77893)
(1.88373e-13 -7.3576 26.1674)
(9.90872e-14 -16.5698 21.8178)
(-1.63364e-14 -11.6798 22.2909)
(1.09792e-13 -11.876 20.9164)
(5.80598e-15 -10.9455 19.9357)
(2.92137e-14 -10.2248 18.9077)
(1.26742e-13 -9.49945 17.8917)
(8.21928e-15 -8.80136 16.8759)
(5.3768e-14 -8.13121 15.8428)
(1.02168e-13 -7.47163 14.8165)
(7.47217e-15 -6.83808 13.9323)
(7.4279e-14 -6.3898 13.1185)
(1.31715e-13 -5.82624 11.2231)
(-1.88328e-14 -3.0437 6.11423)
(8.04844e-14 2.4835 -1.8727)
(6.603e-14 -10.1743 28.1942)
(1.15726e-13 -17.7651 24.363)
(-2.69284e-14 -11.9835 24.9394)
(9.16915e-15 -12.8049 22.8014)
(3.93508e-14 -11.327 21.6614)
(-1.11628e-14 -10.5228 20.2508)
(-2.91359e-14 -9.62638 18.9071)
(4.47978e-14 -8.79846 17.5669)
(-8.13952e-15 -8.02165 16.2605)
(-3.54602e-14 -7.32094 15.0225)
(3.95899e-14 -6.60899 13.7222)
(-2.482e-14 -5.38045 11.4455)
(-1.26373e-13 -2.44398 6.22939)
(2.21912e-13 2.22795 -2.12818)
(2.64588e-14 1.89347 -4.69144)
(1.38592e-13 -11.0446 27.0935)
(7.16917e-14 -17.6862 24.0742)
(3.00454e-15 -11.7405 24.497)
(-1.40822e-14 -13.4783 21.687)
(-2.42853e-14 -11.4929 20.7036)
(3.11515e-14 -11.0097 18.9953)
(-6.77743e-14 -10.1038 17.5566)
(-5.7144e-14 -9.35269 16.0793)
(7.36948e-14 -8.62281 14.6489)
(-5.61345e-14 -7.96055 13.2854)
(-6.90597e-14 -7.32687 11.9333)
(6.72408e-14 -6.35451 10.001)
(-1.20932e-14 -4.1637 6.15177)
(-3.13809e-13 -1.16022 1.58065)
(-2.76486e-13 0.528925 -3.70059)
(1.01142e-13 -11.1205 25.5187)
(-3.96339e-14 -17.4183 24.3736)
(-2.88087e-14 -11.9945 24.0667)
(-7.82414e-14 -13.5681 21.1256)
(-1.48179e-13 -11.6456 20.1309)
(-1.81854e-14 -11.1644 18.3909)
(-1.07531e-13 -10.3117 16.8964)
(-2.35167e-13 -9.52622 15.388)
(-7.6697e-14 -8.75487 13.9009)
(-1.13313e-13 -8.0095 12.4803)
(-2.62096e-13 -7.30491 11.1426)
(-1.50005e-13 -6.47734 9.6575)
(-1.42762e-13 -5.12439 7.25504)
(-4.76631e-13 -2.84561 4.14358)
(-7.54069e-13 -0.769058 -0.805716)
(1.31721e-13 -10.9841 24.1985)
(-1.51072e-15 -16.9674 24.3966)
(4.15971e-14 -12.0606 23.7093)
(-7.98662e-14 -13.2991 20.7619)
(-1.45193e-13 -11.4499 19.7793)
(5.43386e-14 -10.9552 18.0618)
(-7.47827e-14 -10.1127 16.5735)
(-2.02383e-13 -9.32387 15.1177)
(-4.66647e-14 -8.59987 13.7332)
(-1.02425e-13 -7.90117 12.4446)
(-1.79704e-13 -7.22061 11.1981)
(-9.85209e-14 -6.45387 9.92802)
(-1.93877e-13 -5.53862 8.26472)
(-2.79973e-13 -3.90169 6.0713)
(-5.22834e-14 -1.72153 1.34574)
(2.7771e-13 -11.0291 23.4872)
(5.31192e-14 -16.3888 23.8358)
(1.5185e-13 -11.7876 23.2765)
(-7.92398e-14 -13.1108 20.2336)
(-8.83175e-14 -11.0134 19.4029)
(2.08372e-13 -10.738 17.5458)
(-7.76779e-14 -9.77808 16.1548)
(-1.4732e-13 -9.11927 14.7752)
(2.19487e-13 -8.52373 13.5441)
(1.22736e-14 -7.97557 12.3708)
(-5.61918e-14 -7.4439 11.2493)
(1.81264e-13 -6.87043 10.2807)
(4.94635e-14 -6.29362 9.28198)
(-2.8494e-13 -5.22578 7.94363)
(3.39878e-14 -3.27444 4.27554)
(2.16783e-13 -11.5258 23.472)
(5.05241e-14 -15.6784 23.3318)
(1.18337e-13 -11.631 22.9235)
(-1.00852e-13 -12.8239 19.9534)
(-4.49625e-14 -10.5298 19.1438)
(1.08724e-13 -10.3526 17.1299)
(-1.09087e-13 -9.09682 15.6889)
(-3.40559e-14 -8.32109 13.8569)
(1.31238e-13 -7.55791 12.2464)
(-2.83701e-14 -7.20143 11.1092)
(-4.2376e-14 -7.09254 10.5779)
(8.33386e-14 -7.10277 10.5146)
(1.51287e-13 -7.12268 10.5919)
(-1.27583e-13 -6.71075 10.1448)
(-3.07275e-14 -4.8979 7.50943)
(1.98691e-13 -12.2855 24.1669)
(5.16303e-14 -15.4375 23.7415)
(6.63104e-16 -11.8457 23.1326)
(-7.43172e-14 -12.5996 20.539)
(-1.7564e-14 -10.3858 19.5738)
(-6.09456e-14 -9.96584 17.5312)
(-7.88325e-14 -8.30111 15.6493)
(-1.00615e-13 -6.8163 12.7859)
(-2.9419e-13 -5.2281 10.1457)
(-4.89306e-13 -4.59232 8.74117)
(-6.98621e-13 -4.86291 8.83925)
(-5.33987e-13 -5.84827 9.98186)
(-3.72967e-14 -7.06343 11.5217)
(3.16252e-14 -7.61489 12.1502)
(-6.38001e-14 -5.66707 9.92072)
(1.11535e-13 -12.5539 24.3386)
(5.59128e-14 -16.2987 25.6396)
(-3.78584e-14 -12.3757 24.064)
(-1.37406e-13 -12.96 21.7214)
(-1.42011e-14 -10.7651 20.7491)
(-1.44908e-13 -10.3116 18.7382)
(-1.92923e-13 -8.45736 16.7761)
(-2.06005e-13 -6.64916 13.5321)
(-5.59946e-13 -4.38973 10.2933)
(-9.99571e-13 -2.90507 7.94766)
(-1.47298e-12 -2.13129 6.64165)
(-1.66509e-12 -2.2738 6.49361)
(-1.21574e-12 -3.59622 8.01994)
(-4.35279e-13 -5.25861 10.1912)
(-8.99994e-14 -4.39614 9.02809)
(-2.92193e-14 -12.0064 23.0343)
(9.00814e-14 -17.4038 27.7773)
(-1.50221e-13 -13.6651 25.6425)
(-1.71801e-13 -13.9004 23.0733)
(-8.66591e-15 -11.8371 22.0171)
(-2.69139e-13 -11.4939 20.1299)
(-2.37456e-13 -10.0338 18.4775)
(-1.63783e-13 -8.61745 15.9576)
(-7.32437e-13 -6.19719 12.6378)
(-8.95231e-13 -4.14188 9.56121)
(-1.46576e-12 -2.43769 6.94661)
(-2.54937e-12 -0.896895 4.50406)
(-3.04734e-12 0.0512186 2.96776)
(-2.74087e-12 -0.449732 3.29715)
(-4.63066e-13 -1.46252 4.45148)
(-2.58107e-14 -10.9186 20.5293)
(1.36095e-13 -17.4299 28.2516)
(-2.5341e-13 -14.3426 26.1896)
(-1.61545e-13 -13.9833 23.3207)
(5.72602e-14 -12.1838 22.2489)
(-3.88165e-13 -11.854 20.531)
(-2.14775e-13 -10.6562 19.013)
(-1.2821e-14 -9.71317 17.1466)
(-6.26941e-13 -8.05153 14.7102)
(-6.63282e-13 -6.12147 11.7971)
(-9.80112e-13 -4.23779 8.90074)
(-2.28828e-12 -2.25805 5.78165)
(-2.81133e-12 -0.0982879 2.7435)
(-3.69485e-12 1.51657 0.266411)
(-1.74783e-12 1.30674 -1.45955)
(-1.33364e-13 -10.4337 19.3218)
(9.02354e-14 -18.1298 29.3628)
(-1.44003e-13 -16.5721 28.4421)
(-2.75028e-13 -15.564 25.136)
(2.47105e-14 -13.7667 23.0721)
(-3.31626e-13 -12.8167 20.8841)
(-3.54635e-13 -11.3987 18.8501)
(1.82125e-13 -10.2714 16.9929)
(-4.40399e-13 -9.06254 15.1304)
(-5.48618e-13 -7.61219 12.8326)
(-3.19832e-13 -5.74986 9.96009)
(-1.58102e-12 -3.29433 6.2934)
(-1.56563e-12 0.142607 1.39343)
(-1.10218e-12 2.45179 -2.01093)
(-1.60638e-12 1.09209 -1.3341)
(-1.71655e-13 -5.5522 11.8911)
(-4.57044e-15 -13.0322 24.882)
(-1.98334e-13 -11.5647 24.4158)
(-1.79711e-13 -10.4988 22.6411)
(-1.12369e-13 -9.67331 22.2521)
(-2.28622e-13 -9.33022 21.6389)
(-1.21765e-13 -8.68888 20.4732)
(-6.81004e-14 -7.8568 18.5457)
(-3.42399e-13 -6.812 16.4382)
(-3.05403e-13 -5.99776 14.6862)
(-4.01269e-13 -5.51018 12.9691)
(-7.04987e-13 -4.88213 10.4808)
(-5.32882e-13 -2.93926 5.61868)
(-6.00334e-13 0.384182 -1.31478)
(-8.08058e-13 0.632234 0.661601)
(-1.98239e-13 -25.6802 48.5474)
(-1.30837e-13 -24.5358 46.7486)
(-2.41453e-13 -20.0759 39.3974)
(-2.42328e-13 -17.1626 34.3817)
(-2.15108e-13 -13.7766 28.5868)
(-1.00354e-13 -10.1502 22.1798)
(-5.72722e-14 -6.5203 16.3408)
(-1.51265e-13 -4.4847 13.339)
(-2.57204e-13 -3.14221 11.8141)
(-3.23185e-13 0.285031 6.23645)
(-2.3456e-13 5.08484 -3.23879)
(-3.79606e-14 8.42724 -10.6109)
(-1.43245e-14 9.22823 -12.7402)
(4.13705e-14 7.90726 -10.1634)
(8.78212e-14 4.09903 -3.87824)
(1.0457e-15 -0.00648544 0.447716)
(2.6044e-14 0.0917826 0.995215)
(3.33813e-14 0.516946 2.14234)
(3.74067e-14 0.286486 2.24697)
(4.13258e-14 0.178265 1.77308)
(5.15592e-14 0.617863 0.499069)
(5.18819e-14 0.744007 0.967144)
(6.86508e-14 0.725408 1.26874)
(1.10015e-13 0.550732 1.00539)
(3.30357e-13 1.25625 -0.386748)
(1.85759e-13 1.2545 0.00711673)
(1.00903e-13 1.12965 0.252268)
(5.47072e-14 2.18659 -0.732078)
(1.5539e-14 1.72871 -0.402975)
(5.45658e-15 1.98402 -0.159841)
(5.62881e-16 1.75299 -0.0136337)
(-1.43582e-15 2.87261 -1.00747)
(2.3297e-15 2.47377 -0.67159)
(2.43635e-15 2.44544 -0.549463)
(1.94947e-15 4.01997 -1.49037)
(4.3657e-15 3.06468 -0.879004)
(6.2669e-15 3.49966 -0.802055)
(5.88417e-15 3.20361 -0.666247)
(5.26672e-15 5.00719 -1.64517)
(2.23171e-15 3.85011 -1.00606)
(9.2655e-15 4.35846 -0.935056)
(3.23499e-15 4.0576 -0.784038)
(2.04515e-15 5.90232 -1.76917)
(-5.62193e-15 4.81448 -1.10762)
(-1.03401e-14 4.86451 -0.939913)
(-1.76096e-14 7.31503 -1.90957)
(-1.27734e-14 5.49002 -1.17372)
(-9.22364e-15 6.1284 -1.1361)
(-4.52741e-15 5.77217 -0.985411)
(4.95714e-16 8.10647 -1.91221)
(4.78348e-15 6.50356 -1.17322)
(6.81768e-15 6.58806 -1.02551)
(1.11768e-14 9.64459 -1.95911)
(9.87867e-15 7.16738 -1.1991)
(1.07901e-14 7.96157 -1.19068)
(1.1162e-14 7.49188 -1.07387)
(1.51757e-14 10.6063 -1.98896)
(1.23324e-14 7.99911 -1.18648)
(1.28533e-14 8.91329 -1.12992)
(1.28102e-14 8.42027 -1.0051)
(1.67789e-14 11.4407 -1.88288)
(1.31871e-14 9.04874 -1.14368)
(1.25985e-14 9.17922 -0.999963)
(1.64763e-14 13.0825 -1.80391)
(1.26621e-14 9.63508 -1.0681)
(1.26019e-14 10.627 -1.04473)
(1.20925e-14 10.0225 -0.944875)
(1.56379e-14 13.8337 -1.73728)
(1.21976e-14 10.3572 -1.03543)
(1.1201e-14 11.4937 -0.979359)
(1.35775e-14 10.8629 -0.864035)
(1.82085e-14 14.4632 -1.59258)
(1.43807e-14 11.3407 -0.907442)
(1.37505e-14 11.5124 -0.75827)
(1.86793e-14 16.0944 -1.37185)
(1.42742e-14 11.7855 -0.769317)
(1.42967e-14 12.9343 -0.733707)
(1.27652e-14 12.2491 -0.646578)
(2.61477e-14 16.2156 -1.24155)
(2.14717e-14 12.6307 -0.701754)
(2.12063e-14 12.8165 -0.604438)
(3.27432e-14 17.8242 -1.09756)
(2.5292e-14 12.9686 -0.604403)
(2.67795e-14 14.2305 -0.586217)
(2.68497e-14 13.4297 -0.502752)
(3.68051e-14 18.158 -0.930267)
(2.80336e-14 13.4211 -0.472667)
(2.66954e-14 14.836 -0.405986)
(2.57269e-14 14.0208 -0.321505)
(2.44114e-14 18.4032 -0.689098)
(1.65e-14 14.1507 -0.303553)
(1.59211e-14 14.4541 -0.221714)
(2.40393e-14 19.2349 -0.34999)
(2.36653e-14 14.7951 -0.190345)
(1.44503e-14 14.0737 0.179714)
(4.56893e-14 15.7586 -0.539322)
(5.49729e-14 14.7557 -0.670692)
(5.19942e-14 14.2375 -0.758363)
(4.2253e-14 18.3189 -0.157157)
(5.1924e-14 14.8076 -0.239563)
(4.21286e-14 14.8267 -0.840954)
(2.36768e-14 14.7206 -1.28724)
(5.58347e-15 14.5357 -1.33367)
(-9.98351e-15 14.5283 -1.23327)
(-2.14327e-14 14.381 -1.06537)
(-2.93432e-14 14.496 -0.983333)
(-4.97188e-14 14.0377 -0.918465)
(-3.66147e-14 16.2749 1.51177)
(-3.47343e-14 13.7256 -0.402986)
(-3.46647e-14 13.6561 -0.432582)
(-3.29474e-14 13.6941 -0.856419)
(-4.13531e-14 13.4387 -0.484743)
(-3.47026e-14 13.5434 -0.436312)
(-6.25336e-14 13.2957 -0.474184)
(-4.20215e-14 13.3989 -1.84874)
(-4.24033e-14 12.9174 -1.71069)
(-8.193e-16 16.4646 -1.78589)
(-5.09553e-14 12.9689 -1.13426)
(-8.15397e-14 13.3597 -0.320849)
(-1.32426e-13 13.2716 0.770949)
(-2.00652e-13 13.252 2.23099)
(-2.79036e-13 13.231 4.4156)
(-3.55185e-13 13.1621 6.94028)
(-4.22829e-13 13.0929 8.64898)
(-4.99796e-13 13.1251 10.5646)
(-5.79001e-13 12.5362 12.6069)
(-5.92992e-13 17.0923 12.9786)
(-6.6922e-13 13.6114 16.3412)
(-7.13737e-13 14.2344 17.6086)
(-7.58737e-13 14.1124 18.8209)
(-8.0211e-13 13.9407 19.962)
(-8.20797e-13 13.9359 20.8423)
(-8.02506e-13 13.7447 21.2289)
(-7.82497e-13 13.8552 21.6489)
(-7.5746e-13 13.3598 21.6788)
(-8.07967e-13 18.928 22.9233)
(-7.46911e-13 14.6666 23.6581)
(-7.01267e-13 15.316 23.0227)
(-6.64867e-13 15.0776 22.6617)
(-6.49071e-13 14.9202 22.1427)
(-6.36749e-13 14.9987 21.5292)
(-6.13366e-13 14.7525 21.0355)
(-5.76954e-13 15.2717 19.8249)
(-5.4425e-13 14.5372 20.1048)
(-5.65033e-13 22.3074 19.3447)
(-4.91497e-13 15.9586 20.8362)
(-4.49678e-13 16.6842 20.0161)
(-4.0765e-13 16.8304 18.8024)
(-3.84291e-13 16.615 18.3952)
(-3.60841e-13 16.8674 18.0653)
(-3.3259e-13 16.9751 17.5812)
(-3.0176e-13 17.3432 16.9938)
(-2.80292e-13 17.0341 16.8707)
(-2.54098e-13 26.3472 13.6228)
(-2.47166e-13 18.3168 17.837)
(-2.34397e-13 19.641 17.5169)
(-2.2296e-13 19.8772 17.1101)
(-2.10862e-13 19.8034 16.8436)
(-2.07835e-13 20.1858 16.3651)
(-1.98159e-13 20.3507 16.9896)
(-1.86582e-13 20.6275 17.2623)
(-1.74281e-13 21.1448 17.2133)
(-1.70467e-13 20.8852 17.952)
(-1.44679e-13 31.9301 12.5403)
(-1.50684e-13 22.6917 18.4842)
(-1.42441e-13 24.3338 18.8995)
(-1.39559e-13 24.7632 18.949)
(-1.37981e-13 24.8238 19.0461)
(-1.35916e-13 25.326 19.1954)
(-1.36387e-13 25.6031 19.5802)
(-1.37087e-13 26.2395 19.955)
(-1.34388e-13 26.1048 21.3738)
(-1.17117e-13 38.9467 14.2915)
(-1.30691e-13 28.6845 20.7323)
(-1.35797e-13 30.7261 21.9817)
(-9.81348e-14 31.3925 14.2181)
(-1.13471e-13 28.5139 13.1828)
(-1.3288e-13 32.1424 11.4552)
(-8.89725e-14 23.7738 7.22061)
(-1.30788e-13 34.52 6.90335)
(-9.88143e-14 25.005 4.70438)
(-1.26455e-13 28.1996 3.77101)
(-1.58422e-13 32.1136 1.88165)
(-1.12288e-13 24.8663 1.11823)
(-1.38866e-13 30.53 -0.195916)
(-1.67171e-13 35.2004 -1.81555)
(-1.13432e-13 25.1016 -1.25623)
(-1.5495e-13 38.4425 -3.17136)
(-1.14096e-13 28.6323 -2.22553)
(-1.39629e-13 32.9253 -3.65357)
(-1.62499e-13 39.0525 -4.74476)
(-1.09238e-13 28.495 -3.00068)
(-1.49778e-13 43.5891 -4.92661)
(-1.11138e-13 32.4105 -3.33424)
(-1.34276e-13 37.9159 -4.76855)
(-1.56574e-13 43.0971 -5.60471)
(-1.09631e-13 33.7025 -3.45866)
(-1.31293e-13 42.3082 -4.7467)
(-1.57532e-13 48.3252 -5.41121)
(-1.0817e-13 34.742 -3.38186)
(-1.48306e-13 52.9828 -5.29787)
(-1.10811e-13 39.7018 -3.54277)
(-1.35832e-13 45.6477 -4.92504)
(-1.61811e-13 53.5068 -5.50748)
(-1.10885e-13 39.2295 -3.38853)
(-1.51751e-13 59.3699 -5.25011)
(-1.13918e-13 44.2776 -3.44299)
(-1.38474e-13 51.5214 -4.86747)
(-1.65183e-13 58.1155 -5.35283)
(-1.16963e-13 45.3993 -3.14554)
(-1.40645e-13 56.765 -4.37293)
(-1.67338e-13 64.3113 -4.70788)
(-1.14501e-13 46.2477 -2.84822)
(-1.54775e-13 69.8015 -4.67571)
(-1.15257e-13 52.3201 -3.05609)
(-1.39307e-13 59.8858 -4.47264)
(-1.60494e-13 69.5831 -4.9979)
(-1.09203e-13 51.0252 -3.07076)
(-1.48335e-13 76.6067 -5.13321)
(-1.10731e-13 57.1529 -3.42445)
(-1.33291e-13 66.2416 -5.13783)
(-1.56879e-13 74.2773 -5.86966)
(-1.10638e-13 57.932 -3.5496)
(-1.32603e-13 72.3543 -5.13444)
(-1.57284e-13 81.4717 -5.70831)
(-1.08041e-13 58.5814 -3.57149)
(-1.47027e-13 88.0015 -5.91097)
(-1.10258e-13 66.0426 -3.9629)
(-1.33744e-13 75.47 -5.75297)
(-1.58426e-13 87.1274 -6.338)
(-1.08966e-13 63.9374 -3.94212)
(-1.48757e-13 95.5612 -6.36438)
(-1.11718e-13 71.3707 -4.24386)
(-1.35324e-13 82.4977 -6.22477)
(-1.57867e-13 92.0221 -6.89573)
(-1.10839e-13 71.6353 -4.15473)
(-1.32269e-13 89.3875 -5.92183)
(-1.51073e-13 100.091 -6.44935)
(-1.02933e-13 71.9159 -4.04309)
(-1.37248e-13 107.483 -6.71563)
(-1.01715e-13 80.7194 -4.53639)
(-1.20754e-13 92.0555 -6.63257)
(-1.40861e-13 105.679 -7.45793)
(-9.56962e-14 77.5532 -4.72024)
(-1.26762e-13 115.453 -7.77381)
(-9.40986e-14 86.3579 -5.29639)
(-1.12393e-13 99.6206 -7.82097)
(-1.29029e-13 110.831 -9.06131)
(-9.08892e-14 86.2665 -5.64359)
(-1.09143e-13 107.487 -8.04485)
(-1.30954e-13 120.452 -9.36436)
(-9.02571e-14 86.4641 -5.98979)
(-1.27067e-13 129.869 -10.026)
(-9.35455e-14 96.3231 -6.79404)
(-1.36193e-13 115.335 -10.9611)
(-3.37535e-16 -24.3676 19.8406)
(-3.75821e-16 -25.9437 20.566)
(-4.02357e-16 -27.1194 20.5548)
(-4.31259e-16 -28.0141 20.5227)
(-4.56801e-16 -29.1983 20.2385)
(-4.7833e-16 -30.3075 19.7971)
(-4.94337e-16 -31.4206 19.1766)
(-5.04774e-16 -32.302 18.321)
(-5.08768e-16 -32.9593 17.2017)
(-5.05455e-16 -33.7173 15.889)
(-4.94991e-16 -35.0878 14.5376)
(-4.789e-16 -37.1049 13.2172)
(-4.58514e-16 -38.7882 11.7894)
(-4.33571e-16 -38.5795 10.0922)
(-4.03778e-16 -35.8088 8.15925)
(-3.6967e-16 -32.032 5.96537)
(-3.3013e-16 -32.9898 4.4039)
(-2.88234e-16 -36.867 2.63485)
(-2.44848e-16 -36.4882 0.8402)
(-2.01207e-16 -37.0732 -0.915526)
(-1.59944e-16 -34.7032 -2.7383)
(-1.23136e-16 -34.1329 -4.36145)
(-8.95922e-17 -35.407 -6.21998)
(-5.94537e-17 -34.9489 -7.78288)
(-3.53715e-17 -32.8828 -9.19879)
(-2.16768e-17 -31.089 -10.5421)
(-2.78179e-17 -29.8684 -11.9878)
(-5.16902e-17 -28.9092 -13.1634)
(-1.28941e-16 -27.809 -14.2075)
(-2.23591e-16 -24.8716 -14.7359)
(-2.74122e-16 -20.1051 -14.5383)
(-2.6404e-16 -14.8066 -13.9546)
(-2.09832e-16 -9.89349 -13.4528)
(-1.64205e-16 -5.40707 -13.0869)
(-1.40004e-16 -1.59368 -12.9277)
(-1.226e-16 1.40765 -12.5849)
(-1.37758e-16 5.38663 -13.785)
(-1.61563e-16 5.43922 -12.8288)
(-2.24206e-17 8.06062 -13.8301)
(-5.85291e-16 26.662 -25.6797)
(-1.86176e-15 42.7189 -33.3841)
(-3.10382e-15 46.1553 -34.499)
(-3.9362e-15 42.1858 -33.0517)
(-4.3852e-15 36.5434 -31.5667)
(-4.60153e-15 31.3265 -30.7825)
(-4.69868e-15 26.7192 -30.7605)
(-4.7529e-15 22.3405 -31.1644)
(-4.7089e-15 17.1947 -32.2302)
(-4.59483e-15 11.8883 -33.2237)
(-4.56337e-15 5.67137 -32.2295)
(-4.84633e-15 3.04518 -28.8165)
(-4.02757e-15 11.1657 -35.9426)
(-2.21201e-15 21.8987 -47.7634)
(-8.07687e-16 25.0065 -51.8173)
(-7.24205e-17 20.3452 -48.4339)
(2.17938e-16 12.959 -41.9954)
(2.4804e-16 3.29435 -33.8592)
(-6.47501e-18 -16.6345 -20.1974)
(-1.0719e-16 -20.8749 -17.1989)
(-9.84219e-17 1.79771 -25.8784)
(-4.24676e-17 -11.8318 -29.6382)
(-6.20241e-19 -73.3608 -30.8161)
(1.67642e-18 -92.2005 -29.1329)
(2.17383e-19 -78.9841 -26.8042)
(1.21639e-20 -63.4571 -25.8204)
(3.78222e-20 -50.6286 -25.6093)
(5.9835e-20 -39.6517 -25.6519)
(1.63273e-19 -29.5298 -25.7435)
(-7.4314e-20 -19.8066 -25.827)
(1.85127e-18 -10.3131 -25.867)
(-4.4533e-18 -0.938286 -25.8708)
(2.07214e-17 8.92711 -25.824)
(-7.03212e-17 19.1513 -25.178)
(1.6356e-16 29.1926 -23.7235)
(2.72524e-16 37.2257 -21.234)
(-3.94649e-15 43.8 -17.4172)
(-9.64975e-16 61.1446 -16.4484)
(-1.34296e-15 85.8355 -14.8967)
(3.22746e-14 101.928 -17.2204)
(-3.39564e-16 -24.4791 19.896)
(-3.78299e-16 -26.0219 20.6133)
(-4.04761e-16 -27.0981 20.5798)
(-4.33425e-16 -27.9508 20.5317)
(-4.58586e-16 -29.0778 20.235)
(-4.79648e-16 -30.1357 19.7855)
(-4.95212e-16 -31.1849 19.1528)
(-5.05213e-16 -31.9926 18.279)
(-5.08764e-16 -32.5906 17.142)
(-5.05062e-16 -33.3288 15.8258)
(-4.94357e-16 -34.7088 14.4898)
(-4.78174e-16 -36.7109 13.1908)
(-4.57743e-16 -38.318 11.7754)
(-4.32765e-16 -37.9976 10.0762)
(-4.02972e-16 -35.119 8.1126)
(-3.68872e-16 -31.391 5.91333)
(-3.29525e-16 -32.4361 4.37451)
(-2.87888e-16 -36.2896 2.62747)
(-2.44732e-16 -35.9027 0.838015)
(-2.01329e-16 -36.4898 -0.910697)
(-1.60288e-16 -34.1248 -2.7191)
(-1.23647e-16 -33.5337 -4.33408)
(-9.02179e-17 -34.8189 -6.19497)
(-6.0148e-17 -34.4358 -7.76614)
(-3.6e-17 -32.409 -9.16845)
(-2.19205e-17 -30.6009 -10.4961)
(-2.71761e-17 -29.3916 -11.9381)
(-4.9706e-17 -28.4845 -13.1378)
(-1.2389e-16 -27.4792 -14.2088)
(-2.17798e-16 -24.7322 -14.7875)
(-2.71822e-16 -20.1547 -14.6414)
(-2.67297e-16 -14.9321 -14.0773)
(-2.18631e-16 -10.017 -13.5639)
(-1.73994e-16 -5.51972 -13.1885)
(-1.50543e-16 -1.67862 -13.0299)
(-1.36453e-16 1.51618 -12.7173)
(-1.62764e-16 5.42096 -14.2312)
(-1.75798e-16 5.5091 -12.9382)
(-4.09138e-17 10.0056 -15.6442)
(-7.39767e-16 29.5721 -27.4172)
(-2.16441e-15 43.9778 -33.6535)
(-3.4718e-15 46.0474 -33.7996)
(-4.28884e-15 41.7045 -31.9538)
(-4.68903e-15 36.183 -30.3772)
(-4.85743e-15 31.2017 -29.6327)
(-4.9185e-15 26.7959 -29.8012)
(-4.94759e-15 22.6144 -30.662)
(-4.85922e-15 17.5445 -32.4264)
(-4.71068e-15 11.7999 -33.5232)
(-4.73214e-15 4.96625 -31.1325)
(-4.88097e-15 3.76636 -28.6143)
(-3.66941e-15 14.4047 -39.6739)
(-1.84785e-15 24.2606 -51.4785)
(-6.01969e-16 24.9665 -53.732)
(1.85805e-17 18.6541 -48.9837)
(2.4186e-16 10.4071 -41.0055)
(2.25385e-16 -0.295025 -32.0571)
(-8.34152e-19 -18.4269 -20.3052)
(-1.02081e-16 -20.0245 -17.7405)
(-7.73494e-17 4.21676 -31.4119)
(-3.99526e-17 -11.292 -30.6679)
(-1.63805e-18 -72.5868 -30.7818)
(1.83366e-18 -92.6462 -29.4689)
(2.92781e-19 -79.6043 -26.9037)
(8.69453e-21 -63.7921 -25.7672)
(3.34586e-20 -50.7907 -25.5323)
(5.72067e-20 -39.749 -25.5879)
(1.60429e-19 -29.5995 -25.6861)
(-9.79197e-20 -19.8606 -25.7695)
(1.83463e-18 -10.3505 -25.7949)
(-4.92171e-18 -0.909921 -25.7801)
(2.25204e-17 8.84362 -25.5746)
(-8.36265e-17 18.8389 -24.7453)
(2.35918e-16 28.591 -23.2333)
(8.91289e-17 36.2567 -20.7017)
(-4.46379e-15 43.0761 -16.9618)
(-7.70889e-16 60.7965 -16.3204)
(-1.09636e-15 85.6647 -14.9921)
(3.13645e-14 101.562 -14.7232)
(-3.42111e-16 -24.5605 19.9738)
(-3.8137e-16 -26.0937 20.6836)
(-4.07718e-16 -27.0932 20.6213)
(-4.36074e-16 -27.9172 20.5548)
(-4.60755e-16 -29.0023 20.2421)
(-4.81241e-16 -30.025 19.7816)
(-4.96262e-16 -31.0299 19.133)
(-5.05723e-16 -31.7843 18.2371)
(-5.08731e-16 -32.3346 17.0793)
(-5.04558e-16 -33.0495 15.7593)
(-4.93564e-16 -34.4288 14.4405)
(-4.7727e-16 -36.422 13.1642)
(-4.56786e-16 -37.9899 11.7601)
(-4.31766e-16 -37.6184 10.0557)
(-4.01977e-16 -34.6949 8.05713)
(-3.67893e-16 -31.0195 5.85525)
(-3.28785e-16 -32.1075 4.34357)
(-2.87461e-16 -35.9253 2.61956)
(-2.4459e-16 -35.5403 0.83553)
(-2.01478e-16 -36.124 -0.905576)
(-1.60711e-16 -33.7792 -2.69913)
(-1.24273e-16 -33.1853 -4.30405)
(-9.09881e-17 -34.4732 -6.16666)
(-6.10048e-17 -34.1383 -7.74779)
(-3.67825e-17 -32.1392 -9.13594)
(-2.22464e-17 -30.3297 -10.4471)
(-2.6439e-17 -29.1384 -11.8862)
(-4.73641e-17 -28.2746 -13.1166)
(-1.17869e-16 -27.3312 -14.2209)
(-2.10601e-16 -24.7021 -14.8589)
(-2.68535e-16 -20.2411 -14.7763)
(-2.70609e-16 -15.0527 -14.2427)
(-2.2877e-16 -10.1083 -13.7197)
(-1.86143e-16 -5.57022 -13.3457)
(-1.63553e-16 -1.72298 -13.186)
(-1.49616e-16 1.61627 -12.9507)
(-1.81081e-16 5.47519 -14.521)
(-1.84112e-16 5.71372 -13.1689)
(-5.57156e-17 11.2649 -16.9604)
(-8.4659e-16 30.8782 -28.2238)
(-2.34966e-15 44.3363 -33.4892)
(-3.67178e-15 45.8371 -33.1378)
(-4.46016e-15 41.4127 -31.165)
(-4.82427e-15 36.0044 -29.6005)
(-4.96612e-15 31.1714 -28.8721)
(-5.01065e-15 26.9201 -29.1325)
(-5.02645e-15 22.8996 -30.287)
(-4.93019e-15 17.7969 -32.4439)
(-4.78317e-15 11.6687 -33.4749)
(-4.84522e-15 4.60691 -30.2131)
(-4.83985e-15 4.59829 -29.0842)
(-3.38343e-15 16.3947 -42.3052)
(-1.60648e-15 25.2413 -53.3726)
(-4.7837e-16 24.6088 -54.4379)
(6.01401e-17 17.5914 -49.3526)
(2.58867e-16 9.27524 -41.5479)
(2.1945e-16 -1.83853 -31.7544)
(2.95852e-18 -19.8689 -20.2048)
(-9.27715e-17 -18.7773 -18.7185)
(-6.67048e-17 4.97403 -34.4252)
(-3.67897e-17 -11.9767 -32.6678)
(-2.64491e-18 -73.0439 -30.7842)
(1.93917e-18 -93.1063 -29.7)
(3.89605e-19 -79.9382 -26.9444)
(8.10516e-21 -63.8732 -25.6925)
(2.73804e-20 -50.7523 -25.4296)
(5.37179e-20 -39.6849 -25.5017)
(1.57396e-19 -29.5402 -25.6096)
(-1.26349e-19 -19.8166 -25.6946)
(1.81321e-18 -10.3268 -25.7073)
(-5.01035e-18 -0.971063 -25.6573)
(2.25993e-17 8.7123 -25.3557)
(-8.89642e-17 18.634 -24.4841)
(2.79072e-16 28.2717 -22.9684)
(-5.44693e-17 35.7847 -20.4176)
(-4.75713e-15 42.7612 -16.7403)
(-6.16442e-16 60.6721 -16.2591)
(-1.0141e-15 85.4441 -14.9947)
(3.12735e-14 101.049 -13.7078)
(-3.44823e-16 -24.6299 20.0718)
(-3.84589e-16 -26.1483 20.7679)
(-4.10791e-16 -27.0837 20.6738)
(-4.38806e-16 -27.8846 20.5901)
(-4.62974e-16 -28.9363 20.2596)
(-4.82862e-16 -29.9296 19.7866)
(-4.97316e-16 -30.8967 19.1196)
(-5.06215e-16 -31.6062 18.2006)
(-5.08659e-16 -32.1193 17.0231)
(-5.04006e-16 -32.8198 15.7012)
(-4.92724e-16 -34.2026 14.3988)
(-4.76319e-16 -36.1889 13.1407)
(-4.55779e-16 -37.7226 11.743)
(-4.3072e-16 -37.3057 10.0309)
(-4.00937e-16 -34.3474 8.00289)
(-3.66879e-16 -30.7234 5.8047)
(-3.28019e-16 -31.8506 4.31544)
(-2.87019e-16 -35.6372 2.61031)
(-2.44442e-16 -35.2538 0.832764)
(-2.01632e-16 -35.8352 -0.90027)
(-1.61149e-16 -33.5076 -2.68093)
(-1.24923e-16 -32.9091 -4.2768)
(-9.17892e-17 -34.1961 -6.13833)
(-6.18986e-17 -33.9014 -7.72806)
(-3.76071e-17 -31.9267 -9.10543)
(-2.26178e-17 -30.1131 -10.4025)
(-2.57389e-17 -28.9276 -11.8375)
(-4.50493e-17 -28.0891 -13.0995)
(-1.11853e-16 -27.1955 -14.2393)
(-2.03051e-16 -24.6659 -14.9342)
(-2.64555e-16 -20.3032 -14.9208)
(-2.73171e-16 -15.1517 -14.4322)
(-2.38382e-16 -10.1858 -13.9087)
(-1.98707e-16 -5.61116 -13.5513)
(-1.77146e-16 -1.74834 -13.3896)
(-1.6318e-16 1.74889 -13.2642)
(-2.01414e-16 5.52245 -14.8609)
(-1.88566e-16 5.96586 -13.4834)
(-7.53028e-17 12.9089 -18.3142)
(-9.74896e-16 32.5707 -29.0205)
(-2.56369e-15 44.8299 -33.2861)
(-3.89658e-15 45.5773 -32.416)
(-4.64914e-15 41.0307 -30.3164)
(-4.97207e-15 35.7603 -28.7571)
(-5.08375e-15 31.1179 -28.0212)
(-5.10763e-15 27.0814 -28.3785)
(-5.10581e-15 23.2859 -29.8821)
(-5.00013e-15 18.1245 -32.5048)
(-4.86291e-15 11.3801 -33.3378)
(-4.96705e-15 4.10832 -29.1023)
(-4.71844e-15 6.05643 -30.1886)
(-3.04714e-15 19.0731 -45.2177)
(-1.34327e-15 26.4558 -55.2609)
(-3.41768e-16 24.1415 -55.1569)
(1.09814e-16 16.1833 -49.6318)
(2.7402e-16 7.18967 -41.8721)
(2.16549e-16 -4.0884 -31.5933)
(5.1375e-18 -21.052 -19.8884)
(-8.18364e-17 -17.1579 -19.5951)
(-5.45693e-17 6.8201 -36.5791)
(-3.23901e-17 -12.4175 -34.9661)
(-3.41479e-18 -73.4808 -30.8357)
(1.95404e-18 -93.5052 -29.7607)
(4.88262e-19 -80.2911 -26.9186)
(1.26169e-20 -63.9923 -25.6084)
(2.05546e-20 -50.7441 -25.3143)
(4.96968e-20 -39.6465 -25.4015)
(1.54741e-19 -29.5062 -25.5209)
(-1.52858e-19 -19.7996 -25.6087)
(1.76834e-18 -10.3344 -25.6067)
(-4.89336e-18 -0.995978 -25.5111)
(2.24449e-17 8.59807 -25.1305)
(-9.433e-17 18.3806 -24.2085)
(3.31116e-16 27.8266 -22.6715)
(-2.459e-16 35.1071 -20.0721)
(-5.10641e-15 42.307 -16.4707)
(-4.11729e-16 60.4971 -16.1754)
(-8.88618e-16 85.2414 -15.0407)
(3.11808e-14 100.435 -15.1393)
(-3.47617e-16 -24.7072 20.1875)
(-3.87852e-16 -26.1987 20.8661)
(-4.13876e-16 -27.0652 20.7383)
(-4.41525e-16 -27.8399 20.6389)
(-4.65165e-16 -28.8551 20.2895)
(-4.8445e-16 -29.8145 19.8031)
(-4.98335e-16 -30.7373 19.1157)
(-5.06667e-16 -31.396 18.1728)
(-5.08547e-16 -31.8709 16.9764)
(-5.03422e-16 -32.5619 15.6536)
(-4.91863e-16 -33.9533 14.3666)
(-4.7535e-16 -35.9304 13.1237)
(-4.54755e-16 -37.418 11.7292)
(-4.2966e-16 -36.9359 10.0074)
(-3.99886e-16 -33.9276 7.95305)
(-3.65863e-16 -30.3592 5.76073)
(-3.27254e-16 -31.5388 4.28964)
(-2.86575e-16 -35.2959 2.60059)
(-2.44293e-16 -34.9105 0.82993)
(-2.01787e-16 -35.4915 -0.895081)
(-1.61588e-16 -33.1773 -2.66433)
(-1.25575e-16 -32.5682 -4.25269)
(-9.25948e-17 -33.855 -6.11239)
(-6.27999e-17 -33.6086 -7.71018)
(-3.84474e-17 -31.6641 -9.07929)
(-2.30257e-17 -29.8423 -10.3638)
(-2.51055e-17 -28.6562 -11.7938)
(-4.28439e-17 -27.8413 -13.088)
(-1.06065e-16 -27.0038 -14.2688)
(-1.95426e-16 -24.5894 -15.0194)
(-2.59978e-16 -20.3445 -15.0761)
(-2.74806e-16 -15.2487 -14.6436)
(-2.46978e-16 -10.2724 -14.127)
(-2.11003e-16 -5.66315 -13.7952)
(-1.90846e-16 -1.76577 -13.6309)
(-1.76902e-16 1.88392 -13.6419)
(-2.22207e-16 5.58641 -15.1853)
(-1.88781e-16 6.32785 -13.9317)
(-9.87725e-17 14.5014 -19.6525)
(-1.1086e-15 33.9084 -29.6295)
(-2.77044e-15 45.0757 -32.9438)
(-4.09837e-15 45.2526 -31.6551)
(-4.8077e-15 40.6653 -29.499)
(-5.08996e-15 35.5384 -27.9506)
(-5.17363e-15 31.0818 -27.1687)
(-5.17659e-15 27.2924 -27.6071)
(-5.15685e-15 23.7518 -29.475)
(-5.04967e-15 18.4616 -32.5198)
(-4.93881e-15 11.0207 -32.9828)
(-5.07178e-15 3.83119 -28.0364)
(-4.52361e-15 7.89995 -31.9496)
(-2.69906e-15 21.5644 -48.0225)
(-1.0932e-15 27.2683 -56.6977)
(-2.14639e-16 23.5072 -55.5549)
(1.58151e-16 14.862 -49.6244)
(2.90264e-16 5.55317 -42.0782)
(2.14114e-16 -6.3215 -31.3766)
(6.556e-18 -22.1789 -19.5068)
(-7.15083e-17 -15.5235 -20.5779)
(-4.41579e-17 8.36219 -38.1141)
(-2.71978e-17 -13.1682 -36.9622)
(-3.85374e-18 -73.9731 -30.8865)
(1.88573e-18 -93.9243 -29.6814)
(5.77059e-19 -80.7178 -26.829)
(2.25746e-20 -64.173 -25.5026)
(1.37343e-20 -50.7755 -25.18)
(4.52017e-20 -39.6348 -25.2832)
(1.52327e-19 -29.4925 -25.4162)
(-1.73618e-19 -19.798 -25.5079)
(1.68975e-18 -10.3509 -25.4909)
(-4.60457e-18 -1.05523 -25.3537)
(2.13915e-17 8.4549 -24.9022)
(-9.70189e-17 18.1369 -23.9463)
(3.81748e-16 27.4221 -22.3886)
(-4.7184e-16 34.5162 -19.7359)
(-5.44179e-15 41.9423 -16.2251)
(-1.72795e-16 60.3862 -16.1026)
(-7.67009e-16 85.0212 -15.0626)
(3.11364e-14 99.7658 -12.9578)
(-3.50472e-16 -24.7862 20.3194)
(-3.91133e-16 -26.2455 20.9785)
(-4.16949e-16 -27.0421 20.8162)
(-4.4421e-16 -27.7904 20.702)
(-4.67309e-16 -28.7678 20.3328)
(-4.85993e-16 -29.6916 19.8321)
(-4.9931e-16 -30.5673 19.1228)
(-5.07073e-16 -31.1735 18.1553)
(-5.08394e-16 -31.6106 16.9402)
(-5.0281e-16 -32.2943 15.6171)
(-4.90986e-16 -33.6952 14.3447)
(-4.7437e-16 -35.6608 13.1148)
(-4.53722e-16 -37.0969 11.7211)
(-4.28594e-16 -36.5436 9.98736)
(-3.98831e-16 -33.4845 7.90775)
(-3.64851e-16 -29.9776 5.72178)
(-3.26494e-16 -31.2119 4.26657)
(-2.86134e-16 -34.9364 2.59146)
(-2.44145e-16 -34.5476 0.827213)
(-2.01941e-16 -35.1284 -0.890495)
(-1.62024e-16 -32.8285 -2.64979)
(-1.26224e-16 -32.2078 -4.2318)
(-9.33993e-17 -33.4937 -6.09003)
(-6.37023e-17 -33.2986 -7.69618)
(-3.92974e-17 -31.3882 -9.05903)
(-2.34671e-17 -29.5588 -10.3322)
(-2.45436e-17 -28.3703 -11.7569)
(-4.07577e-17 -27.5781 -13.0826)
(-1.00536e-16 -26.7966 -14.3107)
(-1.87827e-16 -24.4972 -15.1169)
(-2.54864e-16 -20.3739 -15.2436)
(-2.75493e-16 -15.3415 -14.8742)
(-2.54426e-16 -10.3578 -14.3723)
(-2.22657e-16 -5.71348 -14.0709)
(-2.04337e-16 -1.77073 -13.9047)
(-1.90596e-16 2.02734 -14.0683)
(-2.42699e-16 5.6609 -15.5087)
(-1.83985e-16 6.76395 -14.494)
(-1.27134e-16 16.1426 -20.9344)
(-1.24812e-15 35.1423 -30.0963)
(-2.97104e-15 45.2282 -32.5366)
(-4.28204e-15 44.892 -30.9175)
(-4.94457e-15 40.2897 -28.7435)
(-5.18763e-15 35.3034 -27.1841)
(-5.24358e-15 31.0413 -26.3151)
(-5.22226e-15 27.5482 -26.8341)
(-5.18121e-15 24.2997 -29.083)
(-5.08123e-15 18.7838 -32.4981)
(-5.01303e-15 10.5469 -32.4152)
(-5.14368e-15 3.73486 -27.1682)
(-4.26874e-15 10.1824 -34.1719)
(-2.35128e-15 24.0432 -50.6098)
(-8.58095e-16 27.8999 -57.7371)
(-9.66792e-17 22.7491 -55.6717)
(2.04336e-16 13.4834 -49.3053)
(3.06728e-16 3.67656 -42.0525)
(2.11566e-16 -8.61357 -30.9982)
(6.36035e-18 -23.1867 -19.0684)
(-6.32832e-17 -13.5477 -21.6194)
(-3.64784e-17 10.1997 -38.8903)