/*--------------------------------*- C++ -*----------------------------------*\
| =========                 |                                                 |
| \\      /  F ield         | OpenFOAM: The Open Source CFD Toolbox           |
|  \\    /   O peration     | Version:  4.1                                   |
|   \\  /    A nd           | Web:      www.OpenFOAM.org                      |
|    \\/     M anipulation  |                                                 |
\*---------------------------------------------------------------------------*/
FoamFile
{
    version     2.0;
    format      ascii;
    class       volScalarField;
    location    "10";
    object      p;
}
// * * * * * * * * * * * * * * * * * * * * * * * * * * * * * * * * * * * * * //

dimensions      [0 2 -2 0 0 0 0];

internalField   nonuniform List<scalar> 
6785
(
8132.86
8068.38
8017.02
7967.28
7921.15
7877.85
7837.22
7799.02
7763
7728.65
7695.74
7665.58
7637.35
7603.08
7571.11
7593.76
7575.75
7578.14
7573.48
7569.69
7565.86
7562.44
7559.67
7557.75
7556.77
7556.7
7557.9
7561.19
7564.42
7564.4
7535.78
7529.88
7539.42
7538.81
7542
7544.36
7546.88
7549.3
7551.6
7553.77
7555.67
7557.09
7558.26
7559.93
7561.79
7589
7587.07
7592.33
7589.05
7589.93
7588.91
7588.19
7587.34
7586.51
7585.73
7585.06
7584.49
7584.1
7584.55
7586.58
7600.85
7599.79
7603.32
7600.5
7602.48
7602.23
7602.76
7603.26
7603.87
7604.56
7605.34
7606.28
7607.48
7608.67
7610.19
7606.26
7606.06
7608.89
7607.24
7609.63
7609.67
7610.72
7611.4
7612.07
7612.56
7612.92
7613.28
7613.8
7614.21
7614.7
7612.94
7612.58
7614.56
7612.83
7614.45
7613.7
7614.13
7613.94
7613.84
7613.52
7613.12
7612.73
7612.44
7612.15
7611.77
7610.4
7609.26
7610.27
7608.26
7609.06
7607.8
7607.77
7607.08
7606.61
7605.9
7605.18
7604.46
7603.7
7602.86
7601.89
7596.61
7595.04
7595.26
7593.22
7593.43
7591.9
7591.52
7590.53
7589.86
7589.14
7588.56
7587.93
7587.06
7586.13
7585.47
7581.04
7579.82
7579.83
7578.13
7578.18
7576.77
7576.32
7575.34
7574.62
7573.95
7573.42
7572.94
7572.39
7572.15
7572.52
7572.24
7571.98
7572.31
7571.09
7571.34
7570.38
7570.24
7569.71
7569.43
7569.22
7569.09
7569.03
7569.06
7569.33
7570.09
7573.45
7573.57
7573.28
7572.46
7572.98
7572.78
7573.26
7573.46
7573.84
7574.16
7574.47
7574.71
7574.96
7575.09
7575.8
7568.65
7567.11
7567.24
7567.68
7569.18
7570.17
7571.7
7573
7574.44
7575.79
7577.11
7578.35
7579.47
7580.3
7581.59
7511.46
7515.86
7530.32
7542.72
7554.82
7564.84
7573.8
7581.4
7587.92
7593.47
7598.51
7603.12
7605.92
7606.87
7607.15
7495.53
7521.47
7526.44
7532.54
7539.12
7547.48
7559.4
7572.96
7586.48
7599.3
7607.49
7614.04
7614.43
7595.11
7559.99
5976.4
5975.7
5985.9
5983.41
5995.51
5934.95
5920.24
5918.35
5940.76
5840.64
5824.15
5887.89
5801.02
5696.85
5709.57
5786.3
5649.36
5583.51
5747.77
5664.72
5469.76
5505.16
5682.49
5629.15
5417.22
5478.97
5655.79
5529.28
5454.28
5748.71
5694.36
5496.53
5593.28
5815.38
5710.69
5690.49
6011.64
5990.7
5855.59
5967.01
6218.28
6246.02
6165.61
6280.29
6477.17
6462.22
6538.44
6758.1
6784.42
6803.76
6891.34
7036.65
7077.22
7125.31
7193.16
7290.07
7298.86
7393.95
7464.32
7467.03
7525.72
7549.03
7585.98
7572.13
7604.22
7602.35
7598.9
7597.04
7571.2
7589.41
7604.03
7547.59
7487.15
7508.09
7568.74
7462.61
7322.41
7416.12
7353.94
7096.96
7278.39
7476.6
7488.04
7370.93
7359.08
7348.81
7376.76
7413.14
7442.18
7466.87
7496.62
7512.12
7612.76
7437.9
7388.15
7424.82
7467
7484.12
7500.85
7545.89
7587.65
7836.85
7543.49
7458.15
7502.74
7551.75
7573.02
7594.93
7616.18
7646.78
7657.64
7848.28
7611.14
7513.27
7531.15
7563.66
7573.2
7573.69
7587.53
7577.59
7711.74
7538.09
7416.56
7400.95
7409.24
7397.77
7373.94
7365.91
7331.88
7358.11
7271.98
7112.75
7058.23
7038.51
6990.45
6936.36
6901.37
6830.8
6711.39
6699.97
6473.15
6375.62
6320.92
6242.81
6120.75
5962.91
5876.14
5750.96
5372.04
5466
5069.48
4850.12
4729.26
4560.14
4346.84
4077.24
3703.85
2752.98
3127.06
2498.56
1397.03
2758.23
4066.93
2769.7
2521.42
2587.61
2657.96
3419.97
2740.45
2314.53
3092.36
2558.1
2302.95
2319.97
2245.53
2755.89
2287.09
2029.61
2063.24
1960.3
2375.77
2052.45
1676.1
2169.06
1883.75
1623.54
1698.53
1562.55
2034.76
1709.39
1436.99
1556.77
1415.77
1962.86
1670.77
1186.56
1945.39
1613.58
1238.05
1418.69
1231.69
2010
1512.93
1081.11
1293.91
1088.2
1963.42
1467.01
694.618
1876.13
1336.36
749.095
999.585
746.835
1874.4
1112.91
483.867
758.321
500.572
1681.77
981.091
-44.2669
1477.55
772.617
25.4708
323.242
19.0461
1424.78
465.723
-309.349
19.9047
-290.6
1176.68
289.922
-986.487
935.489
4.37386
-908.13
-609.752
-810.329
2.19668
2.46101
6.45682
12.766
18.9357
23.1532
26.1035
28.1591
29.4737
30.4651
31.2187
31.6834
31.8304
31.8568
32.0902
32.5889
33.2938
33.9778
34.2299
33.5341
31.438
24.9882
9.05891
7.88708
10.0981
10.7967
10.8156
10.8081
13.1332
19.5701
24.5809
25.7206
26.8811
26.9561
24.8905
20.7736
15.6915
9.90228
3.87792
-3.37878
-9.0822
-11.7393
-51.7163
-123.28
-236.827
-284.799
-229.13
-177.372
-202.571
-252.798
-269.869
-247.778
-193.295
-192.606
-225.549
-198.743
-105.379
-24.5043
33.1243
60.0788
51.9369
65.2201
39.829
37.3068
35.7288
41.4722
41.6504
46.1464
33.0998
-142.835
-169.217
-44.9714
-18.1853
16.3798
21.1329
26.832
25.6203
12.9698
6.44597
7.77566
9.52452
19.8326
32.4588
43.3121
50.3212
55.2011
58.62
60.8936
62.8649
64.6942
66.1545
67.0945
67.7989
68.7861
69.9397
70.9987
71.6288
71.2632
69.3022
65.3413
55.6653
25.4907
26.9212
32.4874
34.0462
35.5595
37.0881
40.9792
52.7292
64.7184
71.3809
76.583
77.1336
71.2939
61.4706
49.6242
32.7049
13.7681
-6.17743
-21.2332
-36.5587
-100.665
-216.055
-398.676
-511.388
-473.118
-410.92
-426.231
-479.655
-490.366
-448.299
-353.014
-294.206
-266.915
-198.344
-91.738
-10.1705
68.8272
114.482
78.1336
127.268
94.255
93.45
90.5334
99.2802
96.4088
84.4506
26.6673
-323.441
-523.383
-105.309
-9.04984
58.6257
64.8437
79.0359
79.0665
77.7737
55.3835
12.7753
18.1379
34.8825
47.4823
57.7975
63.9587
68.3162
71.3637
73.4866
75.5075
77.4984
79.1936
80.4233
81.3565
82.4392
83.4472
84.1332
84.2375
83.3278
81.0368
77.3083
69.7592
43.6661
48.5498
55.2477
57.87
61.1936
64.5031
71.0888
89.6329
109.832
120.087
128.374
129.579
120.623
103.631
82.4657
54.2181
22.3469
-12.9947
-41.9234
-75.3534
-134.398
-258.097
-444.866
-574.417
-567.425
-532.741
-534.12
-561.359
-556.321
-502.716
-394.188
-302.848
-229.007
-124.366
3.16053
105.161
178.926
198.074
121.318
162.864
132.902
135.054
129.459
138.112
127.191
107.54
26.2356
-381.064
-818.273
-184.641
-16.9701
98.0023
112.026
135.352
135.279
129.22
124.754
17.5591
26.9643
51.1053
64.9619
74.7961
79.9522
83.7183
86.38
88.337
90.312
92.2772
93.9632
95.2065
96.0655
96.9459
97.5908
97.8437
97.5392
96.3972
94.299
91.5881
86.7831
65.005
69.0534
76.8651
81.2499
86.7787
91.8925
101.178
124.322
152.204
166.997
178.902
181.075
169.299
145.834
116.271
76.7503
31.1219
-19.713
-63.0921
-117.516
-174.638
-309.066
-501.225
-641.193
-656.133
-648.663
-649.026
-660.248
-644.17
-575.525
-451.339
-337.284
-238.728
-99.2767
72.6331
214.857
289.878
276.816
177.308
213.338
178.692
182.092
173.669
183.271
164.37
140.944
37.1031
-403.232
-1022.92
-241.616
-9.30236
139.218
159.821
190.865
191.124
186.582
169.541
22.2722
36.1899
67.4637
83.6914
93.9926
98.8421
102.48
105.1
107.127
109.252
111.378
113.203
114.547
115.394
116.176
116.588
116.524
115.879
114.459
112.342
110.136
106.365
85.5281
88.982
98.5372
104.713
112.472
119.634
132.181
158.619
194.132
213.334
228.954
232.519
218.583
188.974
150.76
99.75
40.1906
-26.7433
-86.7338
-162.431
-219.716
-373.234
-585.544
-746.016
-779.521
-787.843
-790.41
-795.557
-772.868
-687.254
-543.713
-398.447
-269.408
-92.5856
124.738
305.77
390.647
353.012
227.336
264.049
225.163
229.183
218.052
228.667
204.371
177.369
52.1238
-409.832
-1143.78
-288.235
5.46277
181.494
209.386
246.993
247.593
244.315
245.047
26.9149
46.1695
84.3826
102.35
112.907
117.407
120.871
123.402
125.457
127.713
130.004
131.985
133.457
134.331
135.069
135.297
134.938
133.946
132.192
129.937
127.964
124.733
105.503
109.422
120.184
127.764
137.899
147.272
163.537
191.929
234.859
258.746
278.244
283.619
268.122
232.818
186.164
123.633
49.6899
-33.8886
-111.502
-206.658
-265.366
-442.57
-681.168
-866.875
-919.58
-938.387
-936.608
-932.041
-901.583
-798.422
-637.629
-455.912
-289.31
-76.1891
180.752
398.087
495.48
433.018
279.502
313.101
270.728
274.896
260.92
272
243.473
214.376
75.5599
-392.494
-1190.18
-316.58
30.6418
226.002
260.595
303.531
304.281
297.255
293.731
31.3953
56.7099
102.023
121.319
131.676
135.541
138.63
140.929
142.909
145.211
147.586
149.652
151.201
152.064
152.721
152.741
152.078
150.76
148.725
146.417
144.751
142.227
125.505
129.889
141.528
150.63
163.19
174.979
195.226
224.806
274.582
303.339
326.818
334.446
318.093
277.598
222.622
148.466
59.8906
-40.794
-136.986
-249.585
-312.667
-515.892
-781.529
-992.687
-1065.25
-1095.9
-1086.28
-1066.23
-1025.59
-902.792
-727.386
-509.072
-304.326
-56.7878
237.606
491.831
603.357
514.026
334.787
363.158
317.07
320.711
303.893
315.119
283.173
253.186
107.468
-350.483
-1175.14
-327.854
64.8051
273.071
313.668
360.676
361.854
364.724
347.799
35.7401
67.7192
120.283
140.867
150.831
153.949
156.582
158.597
160.47
162.788
165.21
167.321
168.915
169.738
170.288
170.087
169.129
167.512
165.249
162.938
161.585
159.694
145.371
150.188
162.762
173.341
188.221
202.625
226.906
257.745
313.154
347.077
374.636
384.942
368.447
323.321
260.276
174.483
70.9852
-47.2389
-162.588
-291.723
-364.917
-595.328
-888.208
-1125.07
-1217.9
-1262.99
-1246
-1207.63
-1155.15
-1009.83
-820.003
-567.248
-323.595
-40.974
290.478
582.848
711.367
596.182
391.231
413.403
363.879
366.438
346.947
358.161
323.927
293.91
145.725
-288.189
-1110.06
-320.763
107.478
323.106
368.579
418.4
419.934
424.312
435.093
39.9403
79.1601
139.098
160.91
170.363
172.714
174.865
176.579
178.333
180.652
183.103
185.236
186.856
187.626
188.055
187.633
186.384
184.474
181.994
179.659
178.523
177.09
164.928
170.319
183.877
195.862
212.967
230.154
258.412
291.33
350.38
389.94
421.693
435.065
419.158
370.07
299.277
201.85
83.1988
-52.8599
-187.764
-333.867
-424.394
-680.872
-1002.94
-1267.66
-1381.56
-1441.95
-1417.06
-1357.8
-1291.5
-1120.85
-914.116
-632.602
-347.928
-27.9053
339.724
671.381
818.114
679.073
449.05
463.476
410.795
411.841
389.87
400.848
365.266
336.082
189.126
-210.745
-1005.98
-295.974
157.465
376.275
425.317
476.855
478.489
481.067
491.867
43.9746
90.999
158.474
181.365
190.134
191.669
193.296
194.677
196.286
198.579
201.029
203.154
204.776
205.482
205.771
205.126
203.587
201.382
198.69
196.308
195.316
194.262
184.199
190.236
204.824
218.22
237.462
257.536
289.633
325.717
385.919
431.889
467.975
484.74
470.151
417.877
339.753
230.764
96.7805
-57.3158
-211.954
-376.105
-491.708
-769.604
-1124.87
-1421.68
-1559.12
-1634.67
-1599.19
-1515.18
-1432.27
-1233.29
-1004.83
-706.396
-377.669
-17.2352
385.535
757.392
920.23
760.459
508.395
513.654
457.794
456.986
432.77
443.245
406.929
379.182
236.426
-122.999
-873.212
-254.528
213.576
432.595
483.792
536.065
537.907
549.082
553.401
47.8315
103.215
178.413
202.225
210.109
210.755
211.799
212.807
214.241
216.478
218.895
220.978
222.578
223.211
223.346
222.474
220.65
218.152
215.261
212.833
211.946
211.232
203.24
209.968
225.604
240.431
261.701
284.677
320.318
360.424
419.826
472.851
513.473
533.87
521.321
466.75
381.824
261.415
111.992
-60.2212
-234.613
-418.265
-564.745
-857.819
-1252.37
-1587.24
-1752.54
-1843.5
-1793.84
-1680.4
-1577.66
-1346.97
-1090.84
-789.09
-414.935
-10.985
426.573
839.047
1013.45
837.707
568.987
563.887
504.707
501.837
475.675
485.397
448.763
422.678
286.089
-29.4821
-721.526
-198.376
274.512
491.923
543.89
596.018
598.052
612.832
639.033
51.5123
115.793
198.915
223.537
230.31
229.994
230.399
231
232.233
234.386
236.742
238.753
240.308
240.862
240.832
239.734
237.631
234.843
231.763
229.29
228.469
228.027
222.062
229.544
246.224
262.501
285.689
311.48
350.182
394.555
452.962
512.647
558.16
582.34
572.53
516.647
425.59
294.007
129.108
-61.1857
-255.239
-459.836
-640.263
-943.367
-1383.93
-1764.17
-1963.23
-2070.92
-2003.23
-1855.19
-1728.91
-1462.89
-1173.81
-871.535
-459.539
-11.7808
461.128
913.796
1094.46
908.229
630.277
613.774
551.266
546.286
518.529
527.261
490.56
466.069
336.695
65.8206
-559.733
-129.996
339.022
553.985
605.463
656.744
658.953
677.341
697.182
55.017
128.704
219.992
245.352
250.75
249.4
249.117
249.284
250.292
252.336
254.602
256.512
258
258.468
258.265
256.941
254.564
251.484
248.212
245.684
244.884
244.626
240.643
248.917
266.665
284.425
309.437
337.885
379.091
427.45
486.468
551.083
601.965
630.027
623.602
567.48
471.135
328.746
148.415
-59.8089
-273.351
-500.03
-715.07
-1027.87
-1519.44
-1952.41
-2192.62
-2319.18
-2229.33
-2041.1
-1886.87
-1581.49
-1255.43
-943.686
-507.947
-21.1613
487.631
978.96
1161.42
969.883
691.128
662.659
597.159
590.214
561.261
568.771
532.096
508.901
387.074
159.625
-395.376
-52.2112
405.935
618.41
668.349
718.242
720.551
742.247
781.39
58.3436
141.88
241.627
267.647
271.42
268.964
267.946
267.656
268.418
270.325
272.473
274.253
275.651
276.03
275.645
274.092
271.44
268.063
264.587
261.983
261.168
261.065
258.98
268.084
286.899
306.18
332.939
363.87
407.121
459.052
520.671
588.348
644.768
676.797
674.335
619.126
518.52
365.842
170.217
-55.6918
-288.501
-538.046
-787.129
-1116.94
-1661.09
-2152.61
-2442.25
-2590.34
-2473.67
-2239.83
-2052.55
-1703.13
-1336.41
-1004.79
-555.808
-38.8117
505.023
1032.39
1214.03
1021.35
749.885
709.758
642.013
633.465
603.761
609.834
573.157
550.805
436.322
249.453
-234.356
32.1221
474.216
684.765
732.38
780.552
782.731
802.17
838.903
61.4935
155.206
263.72
290.336
292.304
288.674
286.872
286.108
286.601
288.344
290.349
291.974
293.259
293.545
292.969
291.178
288.246
284.561
280.862
278.149
277.318
277.435
277.073
287.041
306.896
327.74
356.181
389.423
434.465
489.652
554.801
625.01
686.482
722.497
724.51
671.424
567.772
405.503
194.827
-48.4415
-300.256
-573.162
-856.102
-1215.63
-1808.86
-2365.82
-2713.72
-2886.3
-2737.09
-2453.03
-2227.52
-1828.58
-1417.09
-1056.83
-598.565
-62.5067
513.485
1073.46
1253.17
1062.12
804.768
754.307
685.459
675.838
645.867
650.33
613.545
591.535
483.861
333.622
-80.9116
120.329
542.99
752.59
797.384
843.635
845.856
873.221
896.733
64.4777
168.534
286.046
313.323
313.37
308.523
305.89
304.637
304.841
306.394
308.232
309.68
310.828
311.02
310.24
308.197
304.967
300.954
297.004
294.141
293.311
293.757
294.898
305.759
326.617
349.075
379.152
414.533
461.325
519.392
587.914
661.356
727.153
767.026
773.889
724.181
618.87
447.926
222.57
-37.6741
-308.193
-604.72
-922.383
-1325.62
-1956.74
-2591.01
-3008.43
-3208.94
-3019.77
-2681.85
-2413.47
-1958.76
-1498.01
-1100.88
-631.681
-87.6708
514.975
1103.32
1280.6
1092.33
854.269
795.689
727.219
717.167
687.403
690.138
653.136
630.969
529.437
411.148
62.2299
210.078
611.558
821.425
863.189
907.398
909.575
937.48
978.652
67.3352
181.755
308.385
336.509
334.57
328.5
324.994
323.244
323.139
324.476
326.128
327.381
328.369
328.462
327.457
325.142
321.583
317.21
312.965
309.905
309.088
309.915
312.383
324.208
346.003
370.112
401.837
439.205
487.806
548.122
619.616
697.058
766.867
810.411
822.253
777.149
671.741
493.278
253.773
-23.0115
-311.894
-632.09
-985.574
-1441.77
-2098.56
-2826.76
-3328.56
-3560.27
-3321.59
-2926.52
-2611.51
-2094.52
-1580.02
-1139.71
-652.075
-108.127
512.642
1124.42
1298.83
1112.81
897.463
833.538
767.164
757.375
728.262
729.173
691.931
669.098
573.052
481.685
193.643
299.468
679.393
890.835
929.631
971.829
973.69
998.715
1035.98
70.1432
194.845
330.658
359.801
355.839
348.593
344.178
341.929
341.497
342.594
344.042
345.088
345.889
345.872
344.616
341.997
338.06
333.286
328.69
325.38
324.564
325.711
329.406
342.315
364.983
390.753
424.188
463.46
513.864
575.754
649.959
731.582
805.486
852.719
869.515
830.031
726.252
541.696
288.766
-4.07578
-310.94
-654.64
-1044.74
-1555.89
-2235.18
-3075.98
-3677.59
-3942.18
-3642.2
-3186.39
-2821.61
-2236.69
-1664.07
-1176.76
-659.041
-118.834
509.28
1139.47
1310.74
1125.09
934.105
867.83
805.349
796.484
768.421
767.428
730.001
706.004
614.888
545.351
312.925
387.042
746.126
960.429
996.55
1036.81
1038.34
1068.36
1090.33
72.9925
207.85
352.846
383.149
377.092
368.78
363.43
360.694
359.916
360.749
361.981
362.813
363.399
363.247
361.701
358.733
354.359
349.133
344.123
340.507
339.643
340.973
345.815
359.971
383.495
410.922
446.132
487.289
539.387
602.516
679.114
764.633
842.706
894.008
915.792
882.626
782.145
593.267
327.874
19.5135
-304.914
-671.705
-1098.36
-1660.91
-2377.4
-3344.05
-4059.36
-4356.6
-3981.02
-3460.23
-3042.68
-2385.92
-1750.78
-1213.67
-655.18
-117.599
506.894
1150.21
1318.52
1131.27
964.677
898.941
842.021
834.619
807.891
804.982
767.383
741.829
655.205
602.595
420.424
471.739
811.535
1029.87
1063.78
1102.16
1103.27
1133.99
1160.06
75.9514
220.834
374.827
406.533
398.218
389.031
382.739
379.536
378.398
378.944
379.952
380.572
380.912
380.574
378.685
375.311
370.437
364.707
359.221
355.238
354.242
355.607
361.489
377.079
401.502
430.586
467.605
510.638
564.316
628.722
707.223
796.19
878.335
934.261
961.347
935.001
839.049
648.014
371.403
48.1396
-293.396
-682.578
-1144.88
-1755.87
-2537.19
-3630
-4476.68
-4805.34
-4337.05
-3746.38
-3272.96
-2542.12
-1840.52
-1250.68
-645.431
-103.988
508.784
1157.98
1323.22
1133.5
990.061
927.581
877.601
872.005
846.743
841.925
804.084
776.726
694.26
654.092
516.994
552.823
875.525
1098.87
1131.17
1167.71
1168.31
1199.38
1209.49
79.0318
233.794
396.251
429.878
419.085
409.308
402.086
398.457
396.947
397.184
397.96
398.383
398.435
397.831
395.532
391.68
386.246
379.967
373.955
369.551
368.327
369.602
376.432
393.581
418.998
449.766
488.586
533.477
588.662
654.483
734.451
826.323
912.334
973.207
1006.18
987.449
896.737
705.847
419.623
82.1889
-275.967
-686.617
-1183.55
-1844.76
-2721.27
-3918.48
-4930.33
-5290.27
-4708.94
-4042.48
-3510.42
-2703.98
-1933.79
-1287.78
-634.491
-78.7038
519.736
1166.37
1326.64
1133.9
1011.16
954.636
912.615
908.97
885.131
878.292
840.097
810.816
732.262
700.614
603.783
629.797
938.108
1167.18
1198.54
1233.25
1233.28
1264.79
1268.8
82.1865
246.61
416.531
452.971
439.552
429.56
421.453
417.454
415.57
415.483
416.011
416.245
415.966
414.985
412.194
407.788
401.744
394.877
388.317
383.45
381.923
383.031
390.783
409.486
436.003
468.494
509.106
555.817
612.463
679.722
761.003
855.192
944.707
1010.62
1049.89
1039.88
955.185
766.453
472.746
122.052
-252.215
-683.316
-1214.12
-1929.85
-2921.98
-4188.67
-5419.55
-5813.13
-5095.13
-4345.73
-3753.02
-2869.17
-2031.45
-1325.33
-625.698
-45.3019
541.632
1180.79
1332.74
1135.25
1029.15
981.005
947.568
945.913
923.195
914.063
875.381
844.164
769.433
742.945
682.099
702.394
999.382
1234.63
1265.71
1298.56
1297.92
1325.58
1317.61
85.3453
259.086
434.982
475.51
459.491
449.726
440.821
436.525
434.277
433.87
434.123
434.145
433.491
431.999
428.626
423.589
416.9
409.419
402.309
396.951
395.087
396.005
404.729
424.889
452.568
486.776
529.153
577.657
635.749
704.408
787.043
883.099
975.458
1046.44
1092.1
1091.43
1014.43
829.212
530.903
168.118
-221.757
-672.329
-1236.46
-2010.13
-3120.08
-4438.23
-5947.94
-6375.2
-5493.79
-4653.4
-3998.92
-3035.39
-2134.3
-1364.89
-619.392
-10.6772
570.461
1203.11
1345.13
1140.5
1045.83
1007.46
982.764
983.051
960.963
949.19
909.852
876.794
806.006
781.783
753.304
770.597
1059.5
1301.04
1332.5
1363.36
1362.33
1393.94
1357.44
88.4646
271.038
451.139
497.145
478.807
469.734
460.172
455.664
453.076
452.365
452.307
452.064
450.961
448.834
444.791
439.057
431.696
423.586
415.934
410.077
407.879
408.612
418.431
439.909
468.774
504.631
548.644
598.893
658.486
728.615
812.672
910.281
1004.65
1080.53
1132.36
1141.19
1073.92
893.393
594.092
220.757
-184.26
-653.438
-1250.19
-2082.15
-3297.97
-4698.7
-6520.38
-6976.05
-5902.75
-4962.97
-4246.54
-3201.1
-2242.41
-1408.33
-613.685
20.0898
599.242
1228.85
1363.11
1150.6
1063
1034.46
1018.13
1020.19
998.315
983.585
943.385
908.701
842.052
817.781
818.744
834.575
1118.66
1366.3
1398.67
1427.34
1426.28
1457.17
1411.99
91.5695
282.393
465.089
517.409
497.444
489.51
479.496
474.864
471.971
470.974
470.558
469.962
468.304
465.451
460.667
454.194
446.135
437.382
429.208
422.859
420.338
420.895
431.964
454.645
484.7
522.099
567.507
619.347
680.476
752.288
837.894
936.691
1032.53
1112.76
1170.32
1188.33
1132.02
958.658
662.036
280.28
-139.454
-626.538
-1254.79
-2142.65
-3452.1
-5009.93
-7122.08
-7610.46
-6319.04
-5271.99
-4494.2
-3365.57
-2354.28
-1457.11
-606.804
47.1815
621.521
1249.96
1382.59
1163.73
1081.29
1062.02
1053.31
1056.93
1035.05
1017.11
975.846
939.837
877.442
851.548
879.662
894.559
1177.05
1430.28
1464.02
1490.22
1489.55
1518.12
1457.83
94.7428
293.205
477.429
535.859
515.42
508.996
498.8
494.119
490.969
489.7
488.875
487.795
485.46
481.814
476.241
469.012
460.243
450.839
442.16
435.343
432.496
432.869
445.336
469.146
500.401
539.21
585.746
638.908
701.444
775.098
862.492
962.204
1059.46
1143.07
1205.78
1232.46
1187.68
1024.88
734.095
346.882
-87.1519
-591.647
-1249.82
-2190.15
-3590.75
-5387.62
-7703.44
-8269.03
-6739.8
-5578
-4739.6
-3528.35
-2467.68
-1512.18
-599.384
71.4682
632.785
1260.11
1398.2
1176.67
1100.26
1089.66
1087.79
1092.76
1070.84
1049.59
1007.1
970.117
911.897
883.486
937.13
950.732
1234.89
1492.89
1528.29
1551.72
1552.28
1584.48
1495.58
98.0298
303.546
488.853
552.43
532.864
528.152
518.103
513.437
510.098
508.558
507.249
505.525
502.385
497.892
491.511
483.528
474.065
464.014
454.828
447.572
444.402
444.608
458.534
483.418
515.903
555.989
603.43
657.63
721.322
796.711
886.026
986.72
1085.51
1171.4
1238.55
1273.35
1240.37
1091.37
809.522
420.563
-27.2649
-548.919
-1235.11
-2224.55
-3719.59
-5804.27
-8210.95
-8940.67
-7161.44
-5878.06
-4980.35
-3688.81
-2580.87
-1574.32
-594.995
93.0253
633.369
1257
1404.89
1186.32
1119.17
1116.55
1121.11
1127.24
1105.27
1080.85
1037.03
999.43
945.151
913.928
992.06
1003.2
1292.36
1554.05
1591.22
1611.53
1614.42
1648.23
1545.24
101.374
313.433
499.727
567.38
549.907
546.947
537.397
532.864
529.417
527.578
525.645
523.106
519.042
513.674
506.494
497.773
487.642
476.966
467.269
459.597
456.13
456.258
471.546
497.439
531.198
572.425
620.617
675.639
740.269
817.089
908.132
1010
1110.42
1197.83
1268.54
1310.55
1289.71
1157.21
887.772
500.955
40.1705
-498.636
-1210.74
-2245.79
-3834.97
-6202.69
-8636.67
-9611.33
-7578.71
-6168.66
-5214.03
-3846.2
-2692.74
-1643.45
-595.438
112.028
627.512
1240.4
1399.61
1190.47
1136.84
1141.88
1152.81
1160.07
1138.1
1110.7
1065.53
1027.67
977.1
943.286
1045.23
1052.01
1349.66
1613.66
1652.58
1669.45
1676.04
1712.19
1587.85
104.66
322.836
510.151
580.91
566.59
565.336
556.686
552.481
548.967
546.76
544.016
540.469
535.409
529.186
521.242
511.796
501.008
489.737
479.546
471.477
467.757
467.94
484.358
511.162
546.23
588.47
637.282
692.99
758.439
836.375
928.714
1031.76
1133.81
1222.5
1295.74
1343.92
1335.51
1221.23
968.395
587.179
114.941
-441.211
-1176.93
-2253.1
-3928.02
-6534.49
-9021.68
-10256.5
-7984.23
-6445.67
-5437.03
-3999.48
-2802.51
-1716.95
-601.728
127.23
618.366
1210.89
1381.07
1188.03
1151.77
1164.91
1182.4
1191.04
1169.21
1139.05
1092.5
1054.78
1007.73
971.829
1097.24
1097.24
1406.95
1671.66
1712.15
1725.33
1737.34
1777.08
1633.53
107.764
331.721
520.162
593.032
582.902
583.19
575.979
572.349
568.781
566.065
562.288
557.566
551.51
544.486
535.812
525.657
514.213
502.361
491.707
483.27
479.354
479.719
496.982
524.567
560.916
604.058
653.354
709.648
775.855
854.67
947.821
1051.83
1155.39
1245.33
1320.15
1373.57
1377.46
1282.77
1050.56
678.007
196.558
-377.201
-1134.05
-2245.55
-3991.46
-6782.22
-9414.43
-10836
-8369
-6704.49
-5644.96
-4147.28
-2909.4
-1791.51
-617.019
136.901
607.95
1169.07
1348.27
1178.4
1162.75
1184.85
1209.42
1219.96
1198.47
1165.78
1117.92
1080.81
1037.14
999.714
1148.59
1139.08
1464.36
1728.01
1769.76
1779.14
1798.53
1840.45
1680.27
110.558
340.049
529.72
603.719
598.806
600.405
595.238
592.475
588.897
585.436
580.374
574.396
567.41
559.638
550.267
539.415
527.316
514.879
503.796
495.029
490.978
491.648
509.458
537.668
575.193
619.112
668.758
725.553
792.483
872.01
965.557
1070.19
1175.01
1266.13
1341.91
1399.75
1415.73
1341.53
1132.55
772.256
284.07
-307.351
-1082.85
-2223.22
-4022.69
-6955.65
-9834.8
-11308.4
-8725.06
-6939.17
-5833.33
-4287.95
-3012.5
-1865.08
-642.742
140.751
596.932
1113.8
1299.37
1160.77
1168.82
1201.01
1233.46
1246.55
1225.72
1190.81
1141.83
1105.9
1065.52
1027.11
1199.62
1177.93
1522.06
1782.67
1825.22
1830.87
1860.03
1909.7
1727.29
112.91
347.752
538.646
612.95
614.243
617.191
614.465
612.887
609.278
604.772
598.216
591.018
583.186
574.709
564.663
553.126
540.375
527.344
515.848
506.798
502.681
503.763
521.825
550.491
589.04
633.567
683.434
740.66
808.293
888.427
982.06
1086.9
1192.61
1284.77
1361.21
1422.79
1450.93
1397.4
1212.89
868.531
375.933
-232.62
-1024.2
-2186.45
-4022.82
-7069.04
-10259.9
-11646.8
-9041.4
-7141.62
-5998.23
-4419.5
-3110.41
-1935.87
-676.15
139.62
584.032
1042.06
1230.95
1133.63
1168.75
1212.81
1254.02
1270.38
1250.73
1213.97
1164.28
1130.1
1092.98
1054.22
1250.52
1214.36
1580.18
1835.59
1878.33
1880.55
1922.08
1977.26
1797.57
114.679
354.711
546.748
620.692
629.073
633.909
633.748
633.653
629.82
623.954
615.835
607.532
598.917
589.76
579.049
566.834
553.434
539.808
527.892
518.608
514.492
516.066
534.103
563.06
602.446
647.385
697.337
754.94
823.249
903.946
997.492
1102.11
1208.22
1301.19
1378.22
1443.43
1483.96
1450.59
1290.4
964.871
470.3
-154.165
-959.041
-2135.71
-3994.16
-7123.2
-10626.8
-11836.2
-9302.83
-7303.85
-6136.81
-4539.98
-3201.41
-2001.29
-711.6
134.316
568.515
950.512
1137.75
1094.42
1161.16
1219.66
1270.61
1291.07
1273.29
1235.17
1185.34
1153.4
1119.74
1081.41
1301.29
1249.27
1638.75
1886.68
1928.92
1928.32
1984.93
2044.17
1864.29
115.714
360.783
553.818
626.937
643.102
650.677
653.181
654.795
650.392
642.928
633.338
624.048
614.678
604.845
593.461
580.571
566.525
552.302
539.936
530.46
526.394
528.517
546.29
575.4
615.405
660.543
710.456
768.378
837.307
918.565
1011.99
1116.04
1222
1315.45
1393.22
1462.6
1515.24
1501.1
1364.29
1059.43
565.382
-73.3748
-888.441
-2071.96
-3936.12
-7109.45
-10862.3
-11861.1
-9501.33
-7418.08
-6246.57
-4646.96
-3283.02
-2057.89
-742.87
125.586
552.986
838.448
1014.54
1039.87
1144.27
1220.91
1282.71
1308.29
1293.18
1254.36
1205.18
1175.91
1146.09
1109.18
1351.54
1283.98
1697.63
1935.8
1976.89
1974.31
2049
2114.51
1947.62
115.848
365.788
559.455
631.736
656.226
667.423
672.8
676.209
670.848
661.74
650.877
640.663
630.535
620.002
607.921
594.346
579.653
564.827
551.976
542.323
538.33
541.03
558.358
587.515
627.904
673.029
722.807
780.983
850.443
932.25
1025.64
1128.88
1234.17
1327.69
1406.51
1480.95
1544.96
1549.01
1434.21
1150.01
659.269
8.2554
-813.409
-1996.1
-3847.44
-7017
-10908.9
-11721.1
-9629.3
-7479.42
-6325.59
-4737.79
-3351.88
-2102.06
-764.845
115.527
540.971
710.413
860.975
967.473
1116.39
1215.86
1289.75
1321.77
1310.28
1271.61
1224.09
1197.86
1172.35
1138.04
1400.61
1320.2
1756.57
1982.8
2022.11
2018.67
2114.38
2184.08
2066.85
114.908
369.469
563.243
635.119
668.456
684.105
692.558
697.701
691.102
680.541
668.6
657.468
646.542
635.259
622.441
608.156
592.802
577.362
563.995
554.149
550.228
553.495
570.255
599.393
639.926
684.844
734.418
792.788
862.659
944.947
1038.42
1140.82
1244.99
1338.16
1418.24
1498.49
1573.48
1594.27
1499.62
1234.57
750.603
89.6171
-734.988
-1909.36
-3730.85
-6839.91
-10746.8
-11440.5
-9669.42
-7489.88
-6371.71
-4810.18
-3403.99
-2130.86
-774.971
109.115
533.082
577.467
686.373
878.226
1077.19
1203.57
1291.17
1331.33
1324.59
1287.15
1242.4
1219.44
1198.76
1168.58
1447.63
1360.01
1815.26
2027.49
2064.51
2061.55
2181.01
2254.85
2184.94
112.709
371.515
564.676
636.954
679.865
700.74
712.361
719.104
711.2
699.534
686.636
674.545
662.749
650.645
637.028
621.988
605.942
589.869
575.96
565.887
562.015
565.802
581.92
611.011
651.457
696.004
745.336
803.833
873.978
956.621
1050.25
1151.89
1254.71
1347.07
1428.21
1514.54
1600.94
1636.81
1560.42
1313
838.923
169.983
-654.666
-1813.07
-3587.81
-6581.63
-10393.8
-11052.7
-9601.76
-7451.39
-6380.24
-4858.45
-3436.24
-2140.94
-768.91
115.675
532.732
456.76
509.974
778.649
1028.39
1183.31
1286.69
1336.92
1336.21
1301.32
1260.33
1240.87
1225.24
1201.23
1491
1405.77
1873.29
2069.63
2104.01
2103.08
2248.7
2328.1
2348.3
109.062
371.576
563.155
637.062
690.585
717.341
732.13
740.353
731.32
718.915
705.104
691.981
679.207
666.188
651.692
635.832
619.044
602.314
587.831
577.491
573.628
577.858
593.322
622.334
662.484
706.535
755.61
814.168
884.443
967.287
1061.07
1162.01
1263.47
1354.55
1436.13
1528.2
1626.48
1676.89
1617.55
1385.71
923.226
249.431
-574.189
-1708.79
-3418.38
-6254.19
-9889.51
-10586.3
-9411.31
-7361.73
-6342.48
-4875.28
-3446.76
-2123.51
-737.057
142.913
549.663
369.208
355.328
679.496
973.341
1155.64
1276.61
1338.68
1345.46
1314.65
1278.07
1262.37
1251.57
1236.49
1527.38
1459.61
1930.21
2109.01
2140.55
2143.4
2317.3
2403.1
2487.63
103.776
369.273
558.128
635.26
700.766
733.857
751.842
761.502
751.713
738.855
724.125
709.864
695.98
681.92
666.442
649.682
632.089
614.673
599.577
588.922
585.016
589.596
604.455
633.323
672.996
716.47
765.293
823.847
894.121
977.02
1070.85
1171.07
1271.22
1360.63
1442.02
1538.96
1648.28
1714.6
1671.5
1451.4
1001.46
330.878
-494.552
-1598.45
-3226.61
-5874.6
-9280.77
-10058.9
-9095.68
-7216.96
-6250.46
-4860.41
-3427.38
-2066.81
-675.459
193.242
593.571
332.266
241.482
591.65
915.949
1122.23
1261.76
1337.17
1353.01
1327.8
1295.72
1284.23
1277.39
1275.77
1552.79
1522.8
1985.52
2145.43
2174.12
2182.63
2386.98
2487.59
2660.31
96.6567
364.201
548.939
631.273
710.503
750.195
771.521
782.749
772.634
759.516
743.827
728.288
713.13
697.874
681.292
663.535
645.067
626.928
611.18
600.156
596.139
600.958
615.273
643.934
682.987
725.843
774.428
832.913
903.087
985.928
1079.69
1179.01
1277.75
1365.38
1446.51
1547.2
1664.79
1748.61
1720.95
1509.24
1069.1
413.326
-416.676
-1484.18
-3020
-5459.97
-8608.61
-9475.4
-8663.37
-7011.68
-6100.93
-4809.41
-3358.05
-1966.96
-589.795
267.879
666.866
352.361
177.938
522.559
859.512
1085.03
1243.39
1333.12
1359.85
1341.16
1313.54
1306.73