/*--------------------------------*- C++ -*----------------------------------*\
| =========                 |                                                 |
| \\      /  F ield         | OpenFOAM: The Open Source CFD Toolbox           |
|  \\    /   O peration     | Version:  4.1                                   |
|   \\  /    A nd           | Web:      www.OpenFOAM.org                      |
|    \\/     M anipulation  |                                                 |
\*---------------------------------------------------------------------------*/
FoamFile
{
    version     2.0;
    format      ascii;
    class       surfaceScalarField;
    location    "10";
    object      phi;
}
// * * * * * * * * * * * * * * * * * * * * * * * * * * * * * * * * * * * * * //

dimensions      [0 3 -1 0 0 0 0];

internalField   nonuniform List<scalar> 
13220
(
-911.634
2211.54
-1418.31
1806.88
-1892.91
1774.5
-2256.89
1663.88
-2537.55
1580.86
-2738.41
1500.76
-2861.87
1423.36
-2909.06
1347.39
-2880.08
1270.92
-2773.1
1192.92
-2591.11
1118.21
-2333.35
1042.14
-1954.86
921.413
-1307.15
652.491
-7.24702
4.04102
2207.5
-29.2933
1840.21
-153.11
1898.32
-249.821
1760.59
-349.945
1680.99
-435.021
1585.84
-504.65
1492.99
-555.618
1398.36
-588.375
1303.68
-606.831
1211.38
-614.276
1125.65
-597.519
1025.38
-481.235
805.127
-166.271
337.524
-173.516
-112.933
2320.43
-303.792
2031.07
-483.05
2077.58
-586.601
1864.14
-681.724
1776.11
-742.479
1646.59
-779.255
1529.77
-792.892
1411.99
-783.844
1294.63
-753.592
1181.13
-701.251
1073.31
-608.069
932.244
-431.67
628.789
-175.659
81.6169
-349.178
53.5586
2266.85
2.89097
2081.71
-11.0569
2091.5
11.5769
1841.48
33.728
1753.94
74.566
1605.73
129.037
1475.27
197.038
1343.97
274.454
1217.2
358.547
1097.01
447.793
984.056
521.437
858.531
498.347
651.792
242.453
337.346
-106.728
107.674
2159.14
139.261
2050.09
192.269
2038.46
258.932
1774.78
316.196
1696.63
382.713
1539.17
447.42
1410.53
510.549
1280.8
564.62
1163.09
605.672
1055.92
635.306
954.385
638.482
855.318
554.874
735.337
323.598
568.488
216.869
47.4844
2111.61
82.6172
2014.91
115.065
2005.96
149.447
1740.34
174.917
1671.11
213.316
1500.72
249.537
1374.25
303.122
1227.16
383.871
1082.29
478.224
961.521
543.832
888.745
548.447
850.652
464.242
819.488
279.937
752.711
496.804
-21.5015
2133.08
-38.6419
2032.01
-46.563
2013.85
-73.2184
1766.96
-94.7929
1692.65
-112.841
1518.73
-123.691
1385.07
-81.9497
1185.4
43.5116
956.796
224.9
780.073
381.1
732.526
451.554
780.069
401.307
869.631
237.63
916.268
734.435
-33.7906
2166.85
-161.203
2159.41
-233.116
2085.74
-329.092
1862.92
-421.308
1784.86
-515.423
1612.84
-607.055
1476.7
-662.039
1240.37
-653.092
947.844
-569.498
696.489
-411.81
574.825
-204.767
573.113
-26.7308
691.672
36.7846
852.839
771.217
56.2695
2110.58
-124.568
2340.24
-232.28
2193.46
-340.044
1970.67
-449.456
1894.26
-564.167
1727.54
-690.679
1603.2
-838.833
1388.52
-1004.32
1113.32
-1140.06
832.198
-1167.89
602.661
-1018.2
423.283
-680.96
354.305
-265.973
437.679
505.247
176.246
1934.35
73.5818
2442.92
-10.439
2277.5
-73.1281
2033.38
-114.928
1936.08
-161.986
1774.61
-205.647
1646.88
-295.352
1478.23
-452.193
1270.19
-647.079
1027.13
-822.746
778.336
-913.121
513.832
-814.554
255.919
-461.451
84.8249
43.7958
232.519
1701.86
244.999
2430.47
239.368
2283.16
250.526
2022.25
278.45
1908.18
298.774
1754.31
325.73
1619.94
322.719
1481.27
264.731
1328.2
148.198
1143.68
-6.25415
932.845
-183.024
690.545
-317.399
390.278
-300.649
68.0678
-256.848
202.556
1499.34
223.661
2409.39
179.697
2327.15
166.709
2035.28
193.127
1881.81
229.675
1717.79
276.883
1572.77
320.332
1437.84
340.419
1308.15
330.32
1153.83
295.238
967.939
237.011
748.951
156.836
470.716
53.9166
171.364
-202.93
468.441
1030.93
543.305
2334.55
492
2378.48
377.03
2150.27
277.815
1981.04
198.844
1796.78
146.28
1625.34
116.424
1467.71
100.957
1323.63
82.2121
1172.59
47.0283
1003.14
0.782587
795.2
-13.7677
485.3
151.263
6.39615
-51.6659
-1526.31
2557.26
-2241.61
3049.85
-2440.06
2576.93
-2443
2153.22
-2294.78
1832.83
-2108.72
1610.73
-1905.46
1422.1
-1684.69
1246.95
-1449.52
1088.46
-1190.68
913.767
-902.122
714.582
-509.087
402.185
-85.2745
61.5213
205.146
-283.958
153.479
-3523.71
-4758.62
-5134.57
-5101.83
-4705.7
-4333.04
-3903.77
-3494.24
-3222.74
-2841.05
-2668.97
-2233.6
-1959.25
-1489.29
-0.000150892
-4478.09
4478.09
-4478.09
-4478.09
-4478.09
-9183.8
4705.71
-9183.8
-9183.8
-9183.8
-13683.7
4499.9
-13683.7
-13683.7
-17780.4
4096.75
-17780.4
-17780.4
-17780.4
-21282.3
3501.86
-21282.3
-21282.3
-24117.9
2835.56
-24117.9
-24117.9
-24117.9
-26287.1
2169.24
-26287.1
-26287.1
-26287.1
-27681.6
1394.52
-27681.6
-27681.6
-28273.8
592.157
-28273.8
-28273.8
-28273.8
-28058.2
-215.629
-28058.2
-28058.2
-26956.8
-1101.31
-26956.8
-26956.8
-26956.8
-24946.2
-2010.6
-24946.2
-24946.2
-24946.2
-22089.4
-2856.81
-22089.4
-22089.4
-18553.3
-3536.12
-18553.3
-18553.3
-18553.3
-14512.7
-4040.59
-14512.7
-14512.7
-14512.7
-10080.3
-4432.44
-10080.3
-10080.3
-5350.16
-4730.13
-5350.16
-5350.16
-5350.16
-488.078
-4862.08
-488.079
-488.08
4731.81
-5219.89
4731.81
4731.81
4731.81
10160.2
-5428.36
10160.2
10160.2
10160.2
15483.6
-5323.47
15483.6
15483.6
20639.2
-5155.53
20639.2
20639.2
20070.4
19592.2
19461.2
23988.9
-4633.98
23906.9
23787.6
23625.8
23467.6
23327.3
23194.7
23081
22998.4
26151.7
-3235.1
26199.3
26205.5
26134.7
26120.5
26135.2
26136.2
26120.9
26101.7
28104.4
-1981.89
28279.6
28418.1
28486.3
28563
28660.3
28771.8
28876.5
28982.2
29079.8
30480.7
-1321.18
30674.6
30854.4
30986.1
31114.2
31249.4
31388.6
31532
31667.3
32743.4
-955.631
32944.9
33155
33335.7
33513.2
33700.5
33887.2
34075.2
34275.9
34938.6
-474.532
35192.3
35467.3
35704.2
35953.7
36221.5
36487.7
36761.7
37043.3
37395
-72.6203
37774.3
38195.3
38585.9
38984.4
39408.1
39937.7
40481.8
41032.1
41602.7
41073.9
1062.26
41773.4
42594.8
43372
44155.6
44983.6
45908.5
47021
48161.6
47121.7
2037.8
48268.2
49607.9
49607.9
47480.5
2127.48
44775.8
2704.63
44775.8
42626.2
2149.64
42626.2
40822.9
1803.25
38626.6
2196.35
38626.6
36997.4
1629.19
35026.2
1971.15
35026.2
33436.7
1589.5
33436.7
32108.6
1328.11
30604.5
1504.17
30604.5
29472
1132.43
29472
28594.3
877.719
27693.8
900.556
27693.8
27162.9
530.899
26668
494.905
26668
26526
141.981
26526
26628.5
-102.562
26874.4
-245.901
26874.4
27418.5
-544.06
27418.5
28126.1
-707.556
28956.4
-830.378
28956.4
29923.3
-966.847
30943.4
-1020.15
30943.4
32087
-1143.57
32087
33249.5
-1162.5
34412.1
-1162.62
34412.1
35649.5
-1237.34
35649.5
36864.3
-1214.86
38012.7
-1148.37
38012.7
39187
-1174.35
40217.8
-1030.78
40217.8
41282.4
-1064.58
41282.4
42290.4
-1008.05
43115.3
-824.85
43115.3
43991.4
-876.141
43991.4
44829.8
-838.342
45474.2
-644.374
45474.2
46236
-761.828
46787.4
-551.381
46787.4
47483.1
-695.737
47483.1
48230.7
-747.639
48831.4
-600.69
48831.4
49643.4
-811.981
49643.4
50548.4
-904.996
51343.8
-795.383
51343.8
52392.3
-1048.55
53312.6
-920.303
53312.6
54484.5
-1171.82
54484.5
-1356.02
-1682.71
-5569.73
-1524.21
-3918.56
-1462.84
-2660.43
-1399.89
730.425
-1384.53
3388.43
-1380.56
5692.05
-1383.32
7377.06
-1388.95
8708.79
-1394.99
9810.87
-1393.89
10829.1
-1378.19
11733.5
-1345.7
12488.1
-1297.29
13128.9
-1232.73
13682.5
-1151.27
14029.5
-1056.03
13979.8
-953.893
13385.5
-851.197
12187.6
-754.1
10351.3
-665.678
7920.27
-563.725
4822.73
-356.808
-588.707
-235.031
-6431.75
-174.712
-8895.66
-182.324
-11095.9
-195.36
-12724.8
-97.6858
-13988.4
78.9266
-14026.4
68.4227
-14107.2
-300.527
-18087.1
-778.095
-22120.7
-1127.09
-24784.3
-1374.81
-26793.8
-1571.66
-28118.6
-1697.13
-28541
-1664.79
-27921.5
-1521.76
-27095.9
-1379.47
-25901.4
-1134.89
-23475.3
-664.165
-19866.4
-50.4973
-15034.5
556.679
-6659.41
942.578
6828.52
1536.5
14494.8
2415.85
21988
2850.15
25104.3
2431.36
24289.8
1919.66
27206.5
1893.03
39742.4
2080.99
50833.1
2337.88
59121.6
2553.05
64946.5
2695.91
68002.5
3085.44
74373.4
3761.06
83574
4381.64
88299.1
4626.55
82102.2
4419.4
61864.5
3838.56
31867.3
2816.16
7950.04
1942.22
8998.23
1705.47
20146.5
1668.37
21456.9
1659.26
18113.5
1679.09
15100.3
1660.27
12622.9
1702.32
14066.3
1356.23
12327.5
816.668
17750.7
521.492
19077.6
12.088
-27845
127.566
-69060.7
761.363
-68004.3
855.835
-64307
814.234
-62780.7
709.878
-63315.4
692.317
-63754.4
996.637
-65992.5
-64980.5
-1838.7
-5777.78
-1632.89
-4124.37
-1534.03
-2759.28
-1433.93
630.326
-1401.79
3356.28
-1390.33
5680.59
-1389.37
7376.1
-1393.03
8712.46
-1398.01
9815.85
-1395.71
10826.8
-1378.58
11716.4
-1344.79
12454.3
-1295.55
13079.7
-1230.61
13617.5
-1148.85
13947.7
-1053.32
13884.2
-950.723
13282.9
-846.966
12083.9
-747.521
10251.8
-652.46
7825.21
-518.431
4688.7
-262.801
-844.337
-232.138
-6462.41
-208.779
-8919.02
-245.662
-11059
-270.24
-12700.2
-173.398
-14085.3
37.7591
-14237.6
67.4301
-14136.9
-279.638
-17740
-768.196
-21632.1
-1183.43
-24369
-1505.14
-26472.1
-1748.63
-27875.2
-1863.26
-28426.4
-1792.53
-27992.2
-1623.28
-27265.1
-1424.58
-26100.1
-1071.48
-23828.4
-514.223
-20423.6
93.5253
-15642.2
756.257
-7322.14
1181.99
6402.79
1656.86
14020
2442.85
21202
2830.11
24717
2424.54
24695.4
1924.81
27706.2
1899.85
39767.3
2078.32
50654.6
2325.02
58874.9
2535.95
64735.6
2681.17
67857.2
3065.48
73989.1
3732.91
82906.5
4354.52
87677.5
4611.38
81845.3
4416.68
62059.2
3831.27
32452.7
2815.16
8966.15
1934.68
9878.71
1707.23
20374
1671.78
21492.4
1660.34
18124.9
1679.43
15081.2
1666.25
12636.1
1737.55
13995
1449.01
12616
1074.47
18125.3
958.704
19193.4
255.556
-27141.8
80.843
-68886
747.708
-68671.2
831.544
-64390.9
763.568
-62712.8
616.996
-63168.9
592.465
-63729.9
796.78
-66196.8
-65355.6
-1937.11
-6008.05
-1707.32
-4354.17
-1577.76
-2888.84
-1460.65
513.212
-1417.93
3313.57
-1400.36
5663.01
-1396.32
7372.07
-1398.37
8714.5
-1402.14
9819.62
-1398.38
10823.1
-1379.52
11697.5
-1344.13
12418.9
-1293.66
13029.2
-1227.83
13551.7
-1145.27
13865.2
-1048.98
13787.9
-945.478
13179.4
-840.34
11978.7
-738.583
10150.1
-638.059
7724.68
-497.278
4547.92
-270.482
-1071.13
-265.492
-6467.4
-247.789
-8936.72
-286.331
-11020.5
-314.305
-12672.2
-242.547
-14157
-23.6595
-14456.5
45.0036
-14205.5
-283.928
-17411.1
-763.303
-21152.7
-1199.78
-23932.5
-1564.39
-26107.5
-1838.84
-27600.7
-1952.94
-28312.3
-1872.89
-28072.3
-1688.47
-27449.5
-1444.4
-26344.1
-1045.07
-24227.7
-474.308
-20994.4
130.586
-16247.1
912.247
-8103.8
1492.72
5822.32
1858.42
13654.3
2498.27
20562.2
2824.03
24391.2
2436.57
25082.8
1945.62
28197.2
1908.95
39804
2075.73
50487.8
2310.16
58640.5
2515.86
64529.9
2656.06
67717
3028.29
73616.8
3687.6
82247.2
4313.17
87051.9
4584.88
81573.6
4415.34
62228.7
3864.88
33003.1
2861.14
9969.89
1951.31
10788.5
1707.38
20617.9
1674.71
21525
1663.68
18136
1686.77
15058.1
1686.96
12635.9
1805.59
13876.4
1611.49
12810.1
1466.54
18270.2
1568.31
19091.6
563.869
-26137.4
135.219
-68457.3
756.653
-69292.6
830.588
-64464.8
739.129
-62621.3
565.795
-62995.5
539.072
-63703.2
758.491
-66416.2
-65517.4
-2029.72
-6260
-1776.94
-4606.95
-1616.46
-3049.31
-1478.61
375.365
-1429.85
3264.81
-1408.71
5641.87
-1402.87
7366.23
-1403.9
8715.54
-1406.61
9822.33
-1401.35
10817.8
-1380.68
11676.9
-1343.55
12381.8
-1291.62
12977.3
-1224.58
13484.7
-1140.91
13781.5
-1043.66
13690.7
-939.181
13075
-832.956
11872.5
-729.96
10047.1
-628.003
7622.73
-493.854
4413.78
-283.262
-1281.73
-277.639
-6473.03
-272.193
-8942.17
-320.067
-10972.6
-358.537
-12633.7
-316.695
-14198.9
-94.8044
-14678.4
17.4663
-14317.8
-294.475
-17099.2
-772.254
-20675
-1229.93
-23474.9
-1637.95
-25699.4
-1948.85
-27289.8
-2070
-28191.1
-1981.45
-28160.8
-1777.29
-27653.7
-1489.48
-26631.9
-1044.88
-24672.3
-451.938
-21587.3
171.52
-16870.6
1051.55
-8983.84
1800.64
5073.23
2099.91
13355
2577
20085.1
2849.41
24118.8
2499.49
25432.7
2002.89
28693.8
1926.11
39880.8
2072.53
50341.4
2292.59
58420.4
2491.99
64330.5
2624.9
67584.1
2982.15
73259.6
3629.74
81599.6
4256.63
86425
4544.76
81285.5
4412.12
62361.3
3926.03
33489.2
2939.17
10956.7
1982.16
11745.6
1711.9
20888.1
1679.56
21557.4
1672.03
18143.5
1703.66
15026.5
1721.93
12617.7
1897.19
13701.1
1804.41
12902.9
1968.5
18106.1
2298.96
18761.1
947.505
-24785.9
234.652
-67744.5
781.073
-69839
835.925
-64519.6
714.372
-62499.7
511.096
-62792.3
482.387
-63674.4
696.494
-66630.3
-65869.4
-2109.07
-6527.43
-1839.23
-4876.79
-1652.89
-3235.65
-1495
217.474
-1440.59
3210.4
-1416.83
5618.1
-1409.86
7359.26
-1410.15
8715.84
-1411.83
9824
-1404.94
10810.9
-1382.32
11654.2
-1343.27
12342.7
-1289.64
12923.6
-1221.13
13416.2
-1136.08
13696.4
-1037.64
13592.2
-932.091
12969.4
-824.873
11765.3
-721.162
9943.35
-619.271
7520.84
-490.226
4284.73
-285.927
-1486.02
-291.474
-6467.48
-300.003
-8933.64
-353.025
-10919.6
-398.78
-12588
-388.89
-14208.8
-178.651
-14888.6
-25.9256
-14470.5
-316.334
-16808.8
-793.385
-20197.9
-1264.34
-23003.9
-1707.62
-25256.2
-2055.15
-26942.3
-2191.21
-28055.1
-2101.21
-28250.8
-1877.67
-27877.2
-1548.24
-26961.4
-1069.44
-25151.1
-466.85
-22189.9
176.799
-17514.2
1128.98
-9936.02
2065.12
4137.08
2358.37
13061.7
2712.69
19730.8
2957.43
23874.1
2652.52
25737.7
2117.21
29229.1
1960.06
40037.9
2071
50230.5
2272.13
58219.3
2463.38
64139.2
2586.81
67460.7
2926.73
72919.7
3559.4
80967
4184.47
85799.9
4488.68
80981.3
4399.3
62450.7
3997.05
33891.5
3037.25
11916.5
2021.7
12761.1
1718.99
21190.9
1687.5
21588.9
1686.79
18144.2
1730.76
14982.5
1770.87
12577.6
2008.61
13463.4
2026.77
12884.7
2503.98
17628.9
3040.38
18224.7
1393.99
-23139.6
386.628
-66737.1
822.864
-70275.3
851.485
-64548.3
696.472
-62344.7
465.982
-62561.8
436.997
-63645.5
618.881
-66812.2
-66045.9
-2174.25
-6806.22
-1890.49
-5160.55
-1682.05
-3444.09
-1508.95
44.3698
-1450.55
3152
-1425.13
5592.68
-1417.62
7351.75
-1417.42
8715.64
-1418.08
9824.65
-1409.46
10802.3
-1384.73
11629.5
-1343.57
12301.6
-1287.98
12868.1
-1217.72
13345.9
-1131.01
13609.7
-1031.12
13492.3
-924.305
12862.6
-816.026
11657
-711.787
9839.11
-610.421
7419.47
-486.031
4160.34
-295.263
-1676.79
-309.713
-6453.03
-325.304
-8918.05
-379.066
-10865.8
-430.668
-12536.4
-451.08
-14188.4
-270.805
-15068.9
-87.5004
-14653.8
-348.998
-16547.3
-829.111
-19717.8
-1310.72
-22522.3
-1781.55
-24785.3
-2165.29
-26558.5
-2324.79
-27895.6
-2238.89
-28336.7
-1995.46
-28120.7
-1628.78
-27328.1
-1124.63
-25655.3
-517.066
-22797.5
146.582
-18177.9
1131.8
-10921.2
2295.27
2973.62
2657.21
12699.8
2967.23
19420.7
3193.58
23647.8
2907.44
26023.8
2290.81
29845.7
2015.39
40313.3
2073.11
50172.8
2248.93
58043.5
2429.11
63959
2541.09
67348.7
2861.41
72599.3
3476.18
80352.2
4096.69
85179.4
4414.9
80663.1
4373.16
62492.5
4071.21
34193.4
3148.11
12839.6
2068.87
13840.3
1727.53
21532.2
1698.76
21617.6
1708.82
18134.1
1768.25
14923.1
1833.97
12511.8
2134.22
13163.1
2273.58
12745.4
3019.84
16882.7
3734.75
17509.8
1879.37
-21284.2
583.032
-65440.8
881.877
-70574.1
876.127
-64542.5
684.738
-62153.3
430.484
-62307.5
403.945
-63618.9
615.79
-67024.1
-66335.2
-2224.97
-7092.5
-1931.56
-5453.96
-1704.25
-3671.4
-1518.68
-141.198
-1458.98
3092.3
-1433.3
5567
-1426.05
7344.5
-1425.72
8715.32
-1425.43
9824.36
-1415.02
10791.9
-1388.05
11602.5
-1344.59
12258.1
-1286.82
12810.3
-1214.53
13273.6
-1125.87
13521.1
-1024.27
13390.7
-916.005
12754.3
-806.613
11547.6
-702.042
9734.54
-601.758
7319.19
-483.411
4041.99
-308.645
-1851.56
-325.292
-6436.38
-345.823
-8897.51
-399.458
-10812.2
-454.71
-12481.1
-500.105
-14143
-368.27
-15200.7
-169.124
-14853
-392.036
-16324.4
-876.566
-19233.3
-1369.19
-22029.7
-1862.11
-24292.4
-2281.29
-26139.3
-2471.36
-27705.5
-2394.75
-28413.3
-2132.52
-28382.9
-1733.22
-27727.4
-1210.72
-26177.8
-602.284
-23405.9
77.2931
-18857.5
1036.12
-11880.1
2509.63
1500.11
3011.92
12197.5
3369.01
19063.6
3565.09
23451.7
3241.96
26346.9
2508.81
30578.9
2093.78
40728.4
2080.78
50185.8
2223.3
57900.9
2388.29
63794.1
2487.48
67249.5
2786.65
72300.2
3380.12
79758.7
3993
84566.5
4321.66
80334.4
4333.44
62480.7
4137.55
34389.3
3251.95
13725.2
2114.44
14977.9
1736.29
21910.4
1713.49
21640.4
1738.46
18109.2
1815.88
14845.6
1910.49
12417.2
2267.94
12805.7
2534.62
12478.7
3496.92
15920.4
4362.84
16643.9
2385.64
-19307
817.697
-63872.8
957.915
-70714.3
909.81
-64494.4
680.297
-61923.8
407.635
-62034.9
382.777
-63594.1
503.51
-67144.8
-66643.6
-2261.44
-7383.67
-1962.34
-5753.07
-1720.1
-3913.64
-1524.21
-337.086
-1465.69
3033.77
-1441.28
5542.6
-1435.18
7338.39
-1435.16
8715.3
-1434.04
9823.24
-1421.78
10779.6
-1392.45
11573.2
-1346.53
12212.2
-1286.34
12750.1
-1211.75
13199
-1120.87
13430.2
-1017.32
13287.2
-907.432
12644.4
-796.898
11437.1
-692.175
9629.82
-593.404
7220.41
-481.163
3929.75
-320.512
-2012.21
-337.8
-6419.09
-363.24
-8872.07
-415.882
-10759.5
-471.596
-12425.4
-535.714
-14078.9
-466.294
-15270.1
-270.001
-15049.3
-447.265
-16147.1
-933.281
-18747.2
-1439.13
-21523.8
-1952.23
-23779.3
-2406.6
-25685
-2632.95
-27479.1
-2570.43
-28475.9
-2291.65
-28661.7
-1864.65
-28154.4
-1329.67
-26712.8
-723.367
-24012.2
-31.2356
-19549.6
900.388
-12811.7
2590.78
-190.28
3379.03
11409.3
3864.31
18578.4
4027.59
23288.4
3614.84
26759.7
2750.48
31443.2
2196.23
41282.6
2096.73
50285.3
2196.09
57801.6
2339.99
63650.2
2426.03
67163.5
2703.13
72023.1
3271.41
79190.4
3873.1
83964.8
4206.76
80000.7
4277.65
62409.8
4171.74
34495.2
3311.18
14585.8
2141.27
16147.8
1742.73
22308.9
1731.6
21651.6
1775.54
18065.2
1873.11
14748.1
1998.99
12291.4
2405.03
12399.7
2797.48
12086.3
3930.56
14787.3
4920.66
15653.8
2894.61
-17280.9
1083.21
-62061.4
1050.49
-70681.6
952.144
-64396.1
683.664
-61655.3
399.252
-61750.4
379.575
-63574.4
516.969
-67282.2
-66727.3
-2284.99
-7678.46
-1981.97
-6056.09
-1728.8
-4166.81
-1525.75
-540.129
-1470.67
2978.69
-1449.15
5521.07
-1445.13
7334.38
-1445.91
8716.08
-1444.11
9821.45
-1429.97
10765.5
-1398.17
11541.4
-1349.62
12163.7
-1286.79
12687.2
-1209.62
13121.9
-1116.24
13336.8
-1010.5
13181.4
-898.817
12532.8
-787.086
11325.4
-682.296
9525.02
-585.17
7123.29
-478.224
3822.81
-330.524
-2159.91
-348.755
-6400.86
-378.59
-8842.24
-429.562
-10708.6
-483.305
-12371.7
-560.256
-14001.9
-557.738
-15272.6
-385.764
-15221.2
-517.451
-16015.4
-996.805
-18267.9
-1518.35
-21002.3
-2053.08
-23244.6
-2543.54
-25194.5
-2810.41
-27212.3
-2766.47
-28519.8
-2474.81
-28953.3
-2025.27
-28603.9
-1482.59
-27255.4
-880.46
-24614.4
-177.702
-20252.4
773.542
-13762.9
2550.48
-1967.21
3695.52
10264.2
4353.42
17920.5
4503.54
23138.3
3981.72
27281.5
2998.18
32426.8
2323.87
41956.9
2124.5
50484.6
2168.42
57757.7
2283.67
63534.9
2357.5
67089.7
2611.88
71768.7
3150.41
78651.9
3736.96
83378.3
4068.37
79669.3
4196.24
62281.9
4139.85
34551.6
3284.66
15441
2131.32
17301.1
1743.97
22696.2
1752.81
21642.7
1819.66
17998.4
1939.34
14628.4
2097.85
12132.9
2542.13
11955.4
3049.69
11578.7
4316.13
13520.8
5406.81
14563.1
3390.63
-15264.8
1371.71
-60042.5
1158.68
-70468.6
1002.72
-64240.1
695.149
-61347.8
405.137
-61460.4
393.149
-63562.4
540.846
-67429.9
-66934.1
-2297.88
-7976.17
-1989.96
-6364.01
-1728.96
-4427.82
-1523.23
-745.851
-1473.74
2929.19
-1456.91
5504.24
-1456
7333.47
-1458.08
8718.16
-1455.79
9819.16
-1439.76
10749.5
-1405.4
11507.1
-1354.08
12112.3
-1288.37
12621.5
-1208.35
13041.8
-1112.21
13240.6
-1004.02
13073.3
-890.352
12419.1
-777.339
11212.4
-672.48
9420.17
-576.963
7027.77
-474.612
3720.45
-339.863
-2294.66
-358.893
-6381.83
-392.486
-8808.65
-441.991
-10659.1
-493.196
-12320.5
-577.673
-13917.4
-635.011
-15215.3
-509.311
-15346.9
-604.778
-15919.9
-1065.73
-17806.9
-1604.44
-20463.6
-2164.2
-22684.8
-2692.76
-24666
-3003.56
-26901.5
-2982.89
-28540.5
-2683.49
-29252.7
-2216.86
-29070.5
-1670.45
-27801.8
-1073.8
-25211
-361.86
-20964.3
620.93
-14745.7
2490.13
-3836.41
3934.06
8820.28
4764.89
17089.6
4927.08
22976.1
4310.55
27898
3243.04
33494.3
2480.27
42719.7
2169.41
50795.5
2140.84
57786.2
2219.1
63456.7
2280.4
67028.4
2510.76
71538.3
3017.25
78145.4
3584.81
82810.7
3906.58
79347.6
4074.94
62113.5
4014
34612.6
3151.86
16303.1
2075.46
18377.5
1737.86
23033.8
1776.68
21603.9
1870.19
17904.9
2014
14484.6
2205.48
11941.4
2677.48
11483.4
3281.08
10975.1
4646.05
12155.9
5817.59
13391.6
3859.7
-13306.9
1675.19
-57858
1281.18
-70074.6
1061.02
-64019.9
714.728
-61001.5
425.275
-61171
419.585
-63556.7
482.577
-67492.9
-67147.3
-2301.73
-8275.15
-1985.74
-6680.01
-1718.78
-4694.78
-1516.68
-947.944
-1474.69
2887.2
-1464.49
5494.04
-1467.83
7336.81
-1471.78
8722.11
-1469.21
9816.59
-1451.31
10731.6
-1414.31
11470
-1360.07
12058.1
-1291.29
12552.8
-1208.13
12958.7
-1108.95
13141.5
-998.071
12962.4
-882.208
12303.2
-767.798
11097.9
-662.811
9315.18
-568.786
6933.75
-470.45
3622.12
-349.31
-2415.8
-368.886
-6362.26
-405.948
-8771.58
-455.108
-10609.9
-504.966
-12270.6
-592.935
-13829.5
-695.054
-15113.2
-633.089
-15408.9
-708.825
-15844.2
-1139.81
-17376
-1695.18
-19908.2
-2283.82
-22096.2
-2852.92
-24096.9
-3210.86
-26543.5
-3219.02
-28532.3
-2918.71
-29553.1
-2440.79
-29548.4
-1893.82
-28348.8
-1303.36
-25801.5
-583.456
-21684.2
437.212
-15766.4
2390.99
-5790.18
4102.72
7108.54
5078.84
16113.5
5270.17
22784.8
4592.05
28576.2
3489.18
34597.2
2676.19
43532.7
2243.15
51228.5
2114.76
57914.6
2145.04
63426.4
2190.07
66983.3
2396.49
71331.9
2873.06
77668.8
3417.3
82266.5
3723.92
79040.9
3903.91
61933.6
3789.4
34727.1
2925.39
17167.1
1978.69
19324.2
1724.07
23288.5
1802.55
21525.4
1926.31
17781.1
2096.38
14314.5
2320.36
11717.4
2810.75
10993
3485.42
10300.4
4912.86
10728.4
6148.55
12155.9
4290.09
-11448.4
1985.86
-55553.8
1416.35
-69505.1
1126.44
-63730
742
-60617
458.212
-60887.2
460.275
-63558.8
530.807
-67563.4
-67167.9
-2294.76
-8571.92
-1967.31
-7007.45
-1695.82
-4966.28
-1506.26
-1137.49
-1473.38
2854.31
-1471.75
5492.41
-1480.58
7345.65
-1487.07
8728.59
-1484.45
9813.98
-1464.73
10711.8
-1425.02
11430.3
-1367.75
12000.8
-1295.71
12480.7
-1209.13
12872.1
-1106.64
13039
-992.813
12848.5
-874.535
12185
-758.589
10982
-653.364
9209.95
-560.638
6841.02
-465.718
3527.2
-359.409
-2522.11
-379.644
-6342.02
-420.622
-8730.61
-471.196
-10559.3
-522.085
-12219.7
-611.835
-13739.7
-743.088
-14981.9
-751.782
-15400.2
-826.678
-15769.3
-1220.7
-16981.9
-1788.96
-19339.9
-2409.34
-21475.8
-3020.99
-23485.2
-3429.43
-26135.1
-3473.47
-28488.3
-3181.01
-29845.5
-2698.14
-30031.3
-2152.97
-28894
-1568.88
-26385.6
-842.44
-22410.6
217.24
-16826.1
2241.3
-7814.24
4220.79
5129.05
5306.46
15027.8
5537.26
22553.9
4836.19
29277.2
3751.6
35681.7
2931.73
44352.6
2371.41
51788.8
2099.69
58186.4
2059.83
63466.2
2082.69
66960.5
2267.87
71146.7
2718.26
77218.5
3235.22
81749.5
3524.18
78752
3684.44
61773.3
3487.77
34923.7
2642.91
18012
1857.04
20110.1
1704.57
23440.9
1829.91
21400.1
1987.16
17623.9
2185.63
14116
2441.15
11461.9
2942.58
10491.6
3660.89
9582.1
5113.05
9276.27
6397.19
10871.7
4672.83
-9724.03
2296.54
-53177.5
1562.27
-68770.8
1198.25
-63366
776.15
-60194.9
500.655
-60611.7
510.361
-63568.5
573.917
-67627
-67355.8
-2270.63
-8861.87
-1931.01
-7347.07
-1659.02
-5238.26
-1491.52
-1305
-1469.83
2832.62
-1478.61
5501.19
-1494.2
7361.24
-1503.95
8738.34
-1501.61
9811.64
-1480.12
10690.4
-1437.67
11387.9
-1377.26
11940.4
-1301.76
12405.2
-1211.5
12781.8
-1105.43
12932.9
-988.405
12731.5
-867.477
12064
-749.825
10864.3
-644.198
9104.33
-552.535
6749.36
-460.541
3435.2
-370.725
-2611.92
-392.189
-6320.56
-438.259
-8684.54
-492.631
-10504.9
-547.709
-12164.6
-640.174
-13647.2
-790.264
-14831.8
-864.638
-15325.8
-955.944
-15678
-1312.56
-16625.3
-1885.22
-18767.3
-2537.96
-20823
-3192.96
-22830.2
-3655.36
-25672.7
-3743.99
-28399.6
-3470.28
-30119.2
-2989.57
-30512
-2447.98
-29435.6
-1870.21
-26963.3
-1139.27
-23141.6
-46.1486
-17919.2
2003.2
-9863.59
4301.35
2830.9
5461.12
13868.1
5747.27
22267.8
5061.7
29962.8
4045.71
36697.7
3266.48
45131.8
2592.44
52462.9
2123.05
58655.7
1965.72
63623.6
1955.21
66971
2124.15
70977.8
2552.28
76790.3
3039.21
81262.6
3310.58
78480.6
3427.65
61656.2
3145.19
35206.2
2347.66
18809.5
1729.69
20728
1683.06
23487.6
1858.7
21224.4
2052
17430.6
2280.78
13887.3
2566.68
11176
3073.88
9984.36
3809.71
8846.27
5248.89
7837.09
6564.73
9555.91
5002.08
-8161.38
2600.88
-50776.3
1716.86
-67886.8
1275.63
-62924.8
816.02
-59735.3
549.048
-60344.7
565.104
-63584.5
603.842
-67665.7
-67396.3
-2221.27
-9141.21
-1872.89
-7695.45
-1608.9
-5502.25
-1471.46
-1442.44
-1464.13
2825.29
-1485.06
5522.12
-1508.6
7384.78
-1522.38
8752.12
-1520.69
9809.94
-1497.55
10667.2
-1452.34
11342.7
-1388.71
11876.8
-1309.6
12326.1
-1215.39
12687.6
-1105.48
12823
-985
12611
-861.177
11940.2
-741.619
10744.8
-635.378
8998.08
-544.585
6658.57
-455.547
3346.17
-383.595
-2683.87
-407.618
-6296.53
-460.457
-8631.7
-521.714
-10443.7
-584.62
-12101.7
-682.531
-13549.3
-846.778
-14667.6
-975.436
-15197.2
-1096.2
-15557.2
-1420.07
-16301.4
-1985.25
-18202.1
-2667.39
-20140.9
-3364.64
-22133
-3884.09
-25153.2
-4027.52
-28256.2
-3785.59
-30361.2
-3315.23
-30982.4
-2778.91
-29971.9
-2207.48
-27534.8
-1474.93
-23874.1
-360.895
-19033.2
1617.11
-11841.6
4237.59
210.417
5547.71
12557.9
5921.51
21894
5289.08
30595.2
4376.2
37610.6
3677.54
45830.4
2933.83
53206.6
2229.31
59360.3
1878.2
63974.7
1805.16
67044
1962.69
70820.3
2373.89
76379.1
2829.64
80806.9
3084.79
78225.5
3148.72
61592.3
2796.91
35558
2072.91
19533.5
1612.26
21188.7
1663.65
23436.2
1889.38
20998.7
2120.31
17199.6
2380.81
13626.8
2695.82
10861
3205.4
9474.77
3936.87
8114.8
5328.48
6445.48
6657.1
8227.29
5275.3
-6779.57
2893.68
-48394.6
1877.97
-66871.1
1357.72
-62404.5
860.182
-59237.8
598.989
-60083.5
620.169
-63605.7
689.577
-67735.1
-67545.1
-2143.37
-9407.7
-1792.43
-8046.39
-1545.84
-5748.84
-1444.82
-1543.45
-1456.22
2836.69
-1491.13
5557.03
-1523.72
7417.38
-1542.28
8770.68
-1541.68
9809.34
-1517.08
10642.6
-1469.12
11294.7
-1402.21
11809.9
-1319.33
12243.2
-1220.93
12589.2
-1106.94
12709
-982.749
12486.9
-855.78
11813.2
-734.093
10623.1
-626.992
8890.98
-536.99
6568.56
-451.882
3261.06
-397.458
-2738.3
-427.018
-6266.97
-488.861
-8569.86
-560.417
-10372.1
-634.682
-12027.5
-741.257
-13442.8
-917.82
-14491
-1089.81
-15025.2
-1246.64
-15400.4
-1545.67
-16002.4
-2093.14
-17654.6
-2796.78
-19437.3
-3532.35
-21397.4
-4110.95
-24574.6
-4320.29
-28046.9
-4125.15
-30556.3
-3674.8
-31432.7
-3145.91
-30500.8
-2581.32
-28099.4
-1851.1
-24604.3
-730.735
-20153.6
1134.75
-13707.1
3904.79
-2559.62
5578.16
10884.6
6071.68
21400.5
5530.84
31136.1
4734.9
38406.6
4129.63
46435.7
3381.18
53955
2458.4
60283
1832.12
64601
1635.79
67240.3
1778.22
70677.8
2179.09
75978.3
2606.08
80379.9
2847.24
77984.3
2861.69
61577.9
2468.66
35951
1836.84
20165.3
1513.84
21511.7
1649.58
23300.4
1922.56
20725.7
2191.65
16930.5
2484.63
13333.8
2827.45
10518.1
3337.5
8964.71
4048.5
7403.81
5363.86
5130.11
6684.13
6907.02
5492.94
-5588.38
3170.91
-46072.6
2043.54
-65743.7
1443.59
-61804.6
907.091
-58701.3
646.545
-59823
667.419
-63626.6
679.672
-67747.4
-67741.6
-2041.84
-9658.77
-1694.94
-8393.29
-1470.95
-5972.82
-1409.82
-1604.59
-1445.76
2872.64
-1496.81
5608.07
-1539.57
7460.13
-1563.54
8794.65
-1564.5
9810.3
-1538.68
10616.8
-1488.07
11244.1
-1417.83
11739.6
-1331.06
12156.5
-1228.25
12486.4
-1109.93
12590.7
-981.791
12358.7
-851.427
11682.9
-727.37
10499
-619.153
8782.77
-529.964
6479.37
-450.258
3181.35
-412.574
-2775.98
-451.522
-6228.03
-524.992
-8496.39
-609.758
-10287.4
-697.906
-11939.3
-815.864
-13324.8
-1004.09
-14302.8
-1211.71
-14817.6
-1404.73
-15207.4
-1688.72
-15718.4
-2214.81
-17128.5
-2927.68
-18724.4
-3693.65
-20631.4
-4331.61
-23936.7
-4618.04
-27760.4
-4486.35
-30688
-4067.51
-31851.6
-3549.25
-31019.1
-2992.78
-28655.8
-2270.04
-25327.1
-1154.86
-21268.8
651.444
-15513.4
3549.81
-5457.99
5585.16
8849.21
6204.33
20781.3
5788.38
31552
5108.4
39086.5
4575.71
46968.4
3876.07
54654.7
2816.14
61343
1873.88
65543.2
1464.45
67649.8
1565.56
70576.7
1963.08
75580.8
2367.2
79975.8
2596.91
77754.6
2575.9
61598.9
2174.37
36352.6
1644.55
20695.2
1437.34
21718.9
1642.69
23095.1
1958.76
20409.7
2265.51
16623.8
2591
13008.3
2960.31
10148.8
3470.12
8454.91
4150.75
6723.17
5368.67
3912.19
6657.94
5617.76
5657.97
-4588.41
3429.85
-43844.5
2211.63
-64525.5
1532.33
-61125.3
955.193
-58124.2
688.298
-59556.1
705.959
-63644.2
752.246
-67793.7
-67814.2
-1924.73
-9889.58
-1589.7
-8728.32
-1386.88
-6175.65
-1364.31
-1627.16
-1431.84
2940.16
-1501.86
5678.09
-1556.12
7514.39
-1586.1
8824.63
-1589.04
9813.24
-1562.34
10590.1
-1509.21
11191
-1435.65
11666.1
-1344.89
12065.7
-1237.45
12379
-1114.58
12467.8
-982.247
12226.4
-848.242
11548.9
-721.565
10372.4
-611.986
8673.19
-523.686
6391.07
-450.633
3108.3
-430.169
-2796.45
-482.232
-6175.96
-569.635
-8408.98
-668.851
-10188.2
-771.551
-11836.6
-902.825
-13193.5
-1102.94
-14102.7
-1340.41
-14580.1
-1567
-14980.8
-1846.41
-15439
-2354.44
-16620.5
-3064.25
-18014.6
-3848.2
-19847.5
-4542.62
-23242.2
-4916.36
-27386.7
-4865.89
-30738.5
-4492.14
-32225.3
-3989.33
-31521.9
-3443.28
-29201.9
-2733.97
-26036.4
-1634.14
-22368.6
142.125
-17289.6
3162.61
-8478.47
5571.95
6439.87
6319.77
20033.5
6059.43
31812.4
5485.43
39660.5
4986.55
47467.3
4351.19
55290
3263.39
62430.8
2039.11
66767.5
1323.09
68365.8
1323.03
70576.8
1723.24
75180.5
2112.16
79586.8
2331.88
77534.9
2294.99
61635.8
1917.57
36730
1492.31
21120.4
1381.35
21829.8
1643.64
22832.8
1998.35
20054.9
2341.3
16280.8
2698.39
12651.2
3092.8
9754.42
3602.58
7945.13
4248.66
6077.09
5356.15
2804.7
6591.61
4382.3
5775.32
-3772.13
3668.96
-41738.1
2380.52
-63237.1
1623.09
-60367.8
1003
-57504.1
720.567
-59273.7
730.718
-63654.4
815.341
-67878.3
-68006.9
-1795.48
-10094.4
-1484.13
-9039.66
-1297.21
-6362.57
-1305.82
-1618.54
-1412.96
3047.3
-1505.64
5770.77
-1573.25
7582.01
-1609.92
8861.29
-1615.22
9818.54
-1587.96
10562.8
-1532.53
11135.5
-1455.69
11589.2
-1360.86
11970.9
-1248.61
12266.7
-1120.97
12340.2
-984.207
12089.6
-846.321
11411
-716.773
10242.8
-605.618
8562.03
-518.271
6303.73
-452.766
3042.8
-451.41
-2797.8
-519.543
-6107.83
-621.815
-8306.71
-734.051
-10075.9
-849.889
-11720.8
-996.005
-13047.4
-1209.24
-13889.5
-1470.36
-14319
-1728.27
-14722.9
-2014.59
-15152.7
-2512.24
-16122.9
-3211.24
-17315.6
-3998.4
-19060.3
-4742.17
-22498.5
-5211.1
-26917.8
-5259.95
-30689.6
-4947.08
-32538.2
-4466.7
-32002.2
-3934.58
-29734
-3245.12
-26725.8
-2169.67
-23444.1
-417.705
-19041.6
2657.3
-11553.5
5494.21
3602.96
6401.89
19125.8
6338.68