/*--------------------------------*- C++ -*----------------------------------*\
| =========                 |                                                 |
| \\      /  F ield         | OpenFOAM: The Open Source CFD Toolbox           |
|  \\    /   O peration     | Version:  4.1                                   |
|   \\  /    A nd           | Web:      www.OpenFOAM.org                      |
|    \\/     M anipulation  |                                                 |
\*---------------------------------------------------------------------------*/
FoamFile
{
    version     2.0;
    format      ascii;
    class       volVectorField;
    location    "10";
    object      U;
}
// * * * * * * * * * * * * * * * * * * * * * * * * * * * * * * * * * * * * * //

dimensions      [0 1 -1 0 0 0 0];

internalField   nonuniform List<vector> 
6785
(
(1.57328e-13 -0.592903 16.1034)
(1.61047e-13 -6.46889 12.4657)
(-4.84955e-14 -4.70708 12.8115)
(6.83254e-14 -4.16734 12.5859)
(2.36778e-14 -3.54965 12.424)
(-2.18357e-14 -3.07381 12.2091)
(6.40682e-14 -2.68529 11.9662)
(2.53811e-14 -2.40017 11.6862)
(-1.13202e-14 -2.21361 11.3708)
(6.69249e-14 -2.09644 11.0355)
(1.72985e-14 -2.05642 10.6815)
(-2.55792e-14 -2.26649 10.2066)
(6.18404e-14 -2.60968 9.56923)
(-2.48263e-14 -1.70219 9.01578)
(-1.3803e-13 0.86728 6.76643)
(4.07844e-13 -7.33493 26.0872)
(2.24983e-13 -16.544 21.7898)
(-5.08596e-14 -11.6642 22.2243)
(2.50422e-13 -11.8557 20.8447)
(1.67568e-14 -10.9433 19.8519)
(5.25858e-14 -10.233 18.8139)
(1.70648e-13 -9.52262 17.7853)
(9.08322e-15 -8.84039 16.7584)
(1.07523e-13 -8.19072 15.719)
(2.86554e-13 -7.55374 14.6738)
(5.35323e-15 -6.9183 13.7133)
(1.49348e-13 -6.44527 12.8611)
(3.10664e-13 -6.08156 11.4047)
(-9.20703e-14 -3.96028 7.32855)
(1.58917e-13 2.17776 -1.37597)
(2.04833e-13 -10.0732 28.0031)
(2.63817e-13 -17.7519 24.2533)
(-9.07742e-14 -11.9186 24.7761)
(-8.48466e-14 -12.7694 22.6259)
(3.96813e-14 -11.302 21.4816)
(-3.19747e-14 -10.5121 20.062)
(-6.50746e-14 -9.62528 18.7097)
(5.38708e-14 -8.80464 17.3521)
(-5.69217e-14 -8.02085 16.0041)
(-1.35393e-13 -7.3024 14.6953)
(2.23414e-13 -6.63057 13.4349)
(-3.59732e-14 -5.66566 11.6723)
(-3.28129e-13 -3.39972 7.59931)
(1.59695e-13 0.662566 -0.0411425)
(4.90422e-13 1.45516 -4.59911)
(2.77219e-13 -10.8607 26.7196)
(1.52847e-13 -17.5925 23.8447)
(4.42073e-14 -11.6456 24.2126)
(-8.16957e-14 -13.3572 21.3953)
(-1.50964e-13 -11.4545 20.3858)
(1.17286e-13 -10.9287 18.7088)
(-1.11768e-13 -10.0685 17.2529)
(-1.59094e-13 -9.31648 15.7749)
(8.44531e-14 -8.5843 14.322)
(-1.2786e-13 -7.90069 12.9252)
(-1.73045e-13 -7.28943 11.6272)
(1.41275e-13 -6.55163 10.1159)
(-7.36037e-15 -4.95011 7.25466)
(-5.74061e-13 -2.11965 2.72996)
(-5.79703e-14 -0.752618 -2.20497)
(1.97392e-13 -10.9574 25.2974)
(-1.01356e-13 -17.2162 23.8361)
(-7.48834e-14 -11.7693 23.7076)
(-1.71495e-13 -13.4294 20.7383)
(-4.65596e-13 -11.5087 19.7632)
(-6.06543e-14 -11.0208 18.0365)
(-2.02492e-13 -10.1882 16.5309)
(-6.0526e-13 -9.41445 15.0404)
(-1.61035e-13 -8.70423 13.6321)
(-8.69013e-14 -8.05055 12.3512)
(-6.68492e-13 -7.43352 11.1442)
(-5.31418e-13 -6.74431 9.86361)
(-2.7811e-13 -5.75907 8.07612)
(-9.3042e-13 -3.84691 5.51881)
(-9.1471e-13 -1.82258 0.822028)
(2.92059e-13 -11.097 24.526)
(-5.9247e-14 -16.6739 23.5191)
(8.23029e-14 -11.5359 23.3832)
(-1.90509e-13 -13.2744 20.2836)
(-4.01321e-13 -11.007 19.4835)
(1.68573e-13 -10.7225 17.5889)
(-2.5354e-13 -9.71868 16.1371)
(-5.79053e-13 -8.99552 14.667)
(2.18655e-13 -8.36379 13.3799)
(-2.20019e-13 -7.84583 12.203)
(-6.60024e-13 -7.35376 11.0785)
(-2.12129e-13 -6.82272 10.0655)
(-8.78265e-14 -6.28557 9.05328)
(-6.06342e-13 -5.09367 7.72984)
(-1.0671e-12 -3.30657 4.2561)
(5.10557e-13 -11.6491 24.4562)
(6.82877e-15 -15.9594 23.2553)
(3.06169e-13 -11.4828 23.1737)
(-2.26412e-13 -12.9472 20.1711)
(-1.15024e-13 -10.5141 19.3709)
(3.35938e-13 -10.2997 17.35)
(-3.07552e-13 -9.0205 15.8934)
(-1.23307e-13 -8.10095 13.9881)
(3.11176e-13 -7.03914 11.982)
(-2.82487e-13 -6.48888 10.459)
(3.88438e-14 -6.50188 9.95206)
(5.75998e-13 -6.70493 10.0396)
(1.57224e-13 -6.95142 10.2853)
(-5.10448e-13 -6.57992 10.0807)
(2.70729e-13 -4.96748 7.82224)
(3.90712e-13 -12.3748 25.061)
(3.93968e-14 -15.8193 23.9382)
(1.93328e-13 -11.8157 23.5716)
(-2.52377e-13 -12.841 20.9071)
(-1.2037e-14 -10.4721 19.9977)
(8.32893e-14 -10.1359 18.0082)
(-2.54907e-13 -8.57665 16.3971)
(-1.83079e-15 -7.12468 13.7132)
(-1.10183e-13 -5.08457 10.4656)
(-4.41981e-13 -3.69809 7.95525)
(-9.4953e-13 -3.5433 7.39515)
(-1.31095e-12 -4.51556 8.43914)
(-7.72412e-13 -6.03598 10.3203)
(1.26239e-14 -6.94786 11.604)
(7.92584e-13 -5.30814 9.70034)
(3.96773e-13 -12.5634 24.9981)
(8.4208e-14 -16.735 25.955)
(-4.07315e-14 -12.4685 24.6084)
(-2.05646e-13 -13.3997 22.1151)
(-1.54214e-14 -11.0085 21.2324)
(-1.8834e-13 -10.7545 19.2464)
(-1.78845e-13 -9.08676 17.702)
(-9.62933e-14 -7.58286 14.9286)
(-5.27483e-13 -5.15261 11.4086)
(-7.59959e-13 -3.01024 8.09367)
(-2.1842e-12 -1.55431 5.85124)
(-3.43924e-12 -0.992634 4.78265)
(-2.88445e-12 -1.76373 5.60119)
(-1.74889e-12 -3.47684 7.87977)
(-1.31409e-13 -3.42515 7.76729)
(2.10943e-13 -11.9967 23.4396)
(1.19519e-13 -17.5941 27.7845)
(-4.93765e-14 -13.5765 25.7343)
(-3.61971e-13 -14.0505 23.052)
(-7.91745e-14 -11.8837 22.1382)
(-2.40802e-13 -11.7146 20.2549)
(-4.33187e-13 -10.2974 18.9004)
(-1.30946e-13 -9.17192 16.6562)
(-5.31287e-13 -7.15013 13.7367)
(-8.787e-13 -4.95462 10.4531)
(-1.78228e-12 -2.81326 7.31354)
(-3.66592e-12 -0.666317 4.12925)
(-4.84128e-12 1.15918 1.50002)
(-5.32823e-12 1.25768 0.772285)
(-2.97623e-12 -0.171809 1.97778)
(-1.06374e-13 -10.9527 20.802)
(1.73884e-13 -17.6262 28.2738)
(-2.63665e-13 -14.6982 26.4972)
(-3.71884e-13 -14.4115 23.5171)
(-6.63751e-14 -12.7013 22.1654)
(-4.56452e-13 -12.2388 20.3427)
(-3.52316e-13 -11.1825 18.7965)
(-1.15294e-13 -10.3123 17.1042)
(-8.18136e-13 -9.04543 15.1074)
(-6.76063e-13 -7.47458 12.6861)
(-6.20844e-13 -5.6626 9.96868)
(-2.62841e-12 -3.49476 6.81523)
(-3.78396e-12 -0.609225 2.95736)
(-9.1577e-12 2.34729 -1.4737)
(-4.85645e-12 1.13785 -2.81205)
(-9.47596e-14 -10.0196 18.3411)
(2.75727e-13 -17.0462 27.7353)
(-5.25314e-13 -14.685 26.1156)
(-3.49204e-13 -13.9855 23.0508)
(4.10214e-14 -12.5017 21.7763)
(-8.43251e-13 -12.0023 20.0723)
(-3.68873e-13 -10.9949 18.53)
(1.08209e-13 -10.2746 17.0312)
(-9.53173e-13 -9.40714 15.4836)
(-6.90546e-13 -8.32388 13.6276)
(-2.46495e-13 -7.05014 11.4769)
(-1.88997e-12 -5.52213 9.02188)
(-1.80413e-12 -3.6794 5.96478)
(-4.35647e-12 -1.3598 3.01024)
(-4.7239e-12 0.371819 -3.33441)
(-4.43089e-13 -9.41919 16.8762)
(9.58926e-14 -17.4954 28.1163)
(-3.29415e-13 -16.5094 27.7844)
(-5.68303e-13 -14.8369 24.0657)
(2.61513e-14 -12.7932 21.7304)
(-8.48223e-13 -11.7468 19.5988)
(-6.88257e-13 -10.4351 17.7574)
(5.97183e-13 -9.50004 16.1032)
(-9.71978e-13 -8.59796 14.6238)
(-7.24442e-13 -7.56887 12.8707)
(2.68491e-13 -6.28435 10.6729)
(-1.95068e-12 -4.66781 8.0227)
(-1.30938e-12 -2.67098 4.56144)
(-2.19196e-12 0.495289 0.268145)
(-3.84443e-12 -0.823679 -2.27124)
(-3.9454e-13 -0.795986 5.5744)
(-5.76907e-14 -12.0027 24.937)
(-3.90035e-13 -11.4307 26.4076)
(-3.60832e-13 -10.8306 24.9421)
(-2.02811e-13 -9.9316 23.4893)
(-3.38436e-13 -9.28967 21.5797)
(3.07903e-14 -8.44725 19.6531)
(1.22342e-13 -7.73437 17.7426)
(-6.78245e-13 -7.01479 15.9392)
(-4.12447e-13 -6.3717 14.2484)
(-5.06997e-13 -5.78632 12.5719)
(-1.22788e-12 -5.08417 10.5238)
(-6.11812e-13 -3.70991 7.13707)
(-1.35402e-12 -1.25349 2.02513)
(-2.05094e-12 -3.14916 6.4412)
(-5.30651e-13 -37.0009 67.2424)
(-6.83827e-13 -23.5783 52.9241)
(-9.0427e-13 -14.4832 37.6833)
(-9.46895e-13 -8.52551 27.9859)
(-9.27142e-13 -4.80909 20.8691)
(-8.46008e-13 -3.20615 16.8548)
(-8.28527e-13 -1.94114 14.0069)
(-8.30048e-13 -0.999401 11.2624)
(-7.32195e-13 -0.346059 9.5188)
(-6.14921e-13 0.80807 6.80254)
(-5.27976e-13 2.06853 4.43822)
(-3.1607e-13 4.5721 -0.496952)
(-2.34012e-13 5.85264 -4.6148)
(-1.08958e-13 8.72429 -6.02154)
(3.21049e-14 8.36522 -2.99575)
(-2.52084e-15 3.39639 0.287773)
(-2.38526e-14 -6.53244 14.4198)
(-2.46971e-14 -5.84434 10.512)
(-2.26182e-14 -5.83689 11.1739)
(-2.11491e-14 -5.54192 11.4472)
(-2.73844e-14 -11.2576 17.7181)
(-1.87731e-14 -12.0901 11.0301)
(-1.60557e-14 -12.3726 11.9332)
(-1.38946e-14 -12.1281 12.1041)
(-2.99116e-14 -19.7212 18.0469)
(-2.09075e-14 -17.9886 10.7012)
(-1.90459e-14 -17.4822 11.9547)
(-2.32026e-14 -25.4262 16.9699)
(-1.51564e-14 -23.045 9.77728)
(-1.43657e-14 -24.0139 10.7613)
(-1.29833e-14 -22.9489 10.8336)
(-1.51356e-14 -33.1345 15.3077)
(-9.22563e-15 -27.7346 8.31459)
(-9.46239e-15 -27.1528 9.45212)
(-9.32571e-15 -36.5601 12.7073)
(-5.20767e-15 -31.3683 6.82934)
(-4.15482e-15 -32.7793 7.88763)
(-3.17643e-15 -30.6056 8.10648)
(-4.30404e-15 -41.4896 11.1169)
(-1.8478e-15 -34.2561 5.82583)
(-1.16781e-15 -35.7778 6.83444)
(-3.48641e-16 -33.6949 6.99433)
(8.03976e-16 -45.9453 8.79295)
(-1.13041e-15 -36.0875 4.08387)
(9.40313e-16 -35.4487 4.85678)
(1.99782e-15 -45.7174 5.17033)
(2.85309e-15 -37.0299 2.03334)
(4.67583e-15 -38.4427 2.86261)
(5.1909e-15 -35.9197 3.02241)
(8.53725e-15 -48.252 2.53753)
(6.15778e-15 -36.5843 0.0513651)
(6.50384e-15 -35.8092 0.435132)
(8.03073e-15 -45.3579 -1.72968)
(6.08625e-15 -35.6736 -2.53286)
(6.40729e-15 -36.893 -2.1454)
(6.45475e-15 -33.777 -2.18634)
(7.20287e-15 -43.6802 -5.298)
(5.94386e-15 -32.9547 -4.71239)
(6.85793e-15 -34.021 -4.52402)
(8.08943e-15 -31.266 -4.5134)
(1.32965e-14 -40.4893 -8.67286)
(1.20578e-14 -28.9553 -6.68257)
(1.51897e-14 -28.0685 -7.00877)
(2.11055e-14 -33.9759 -12.1379)
(1.67424e-14 -25.0771 -8.7305)
(1.68156e-14 -25.4837 -8.94767)
(1.5336e-14 -22.8329 -8.91377)
(1.62972e-14 -28.1224 -14.5959)
(8.94392e-15 -19.6107 -10.0345)
(8.29875e-15 -19.7083 -10.4114)
(9.43889e-15 -17.4852 -10.4315)
(1.03864e-14 -21.3204 -16.7849)
(9.39084e-15 -13.5083 -11.3709)
(9.99441e-15 -12.1163 -12.2367)
(1.49773e-14 -13.895 -19.4099)
(1.76258e-14 -8.31338 -13.7296)
(2.60224e-14 -7.06667 -14.0573)
(3.91281e-14 -5.27712 -13.9479)
(3.59889e-14 -5.35421 -21.5169)
(5.15042e-14 -2.87389 -15.6807)
(4.21791e-14 1.48828 -14.5755)
(2.89653e-14 2.8418 -24.4384)
(8.5819e-15 4.26746 -17.1659)
(9.58517e-15 6.74075 -17.071)
(9.20766e-15 7.03426 -15.75)
(1.12392e-14 11.9657 -25.6196)
(7.05145e-15 11.7819 -17.5999)
(5.53256e-15 14.53 -17.1377)
(4.25112e-15 14.3896 -15.616)
(-6.3598e-15 20.7343 -24.846)
(-9.59263e-15 19.247 -17.1076)
(-1.17603e-14 21.5173 -15.0454)
(-1.02688e-14 28.1975 -23.7847)
(-1.4283e-14 25.9256 -16.1043)
(-9.56973e-15 25.0698 -14.2348)
(-1.29269e-14 28.9163 -16.4504)
(-2.01233e-14 26.444 -16.1221)
(-3.56556e-14 26.6222 -14.3179)
(-2.91469e-14 31.7048 -19.9905)
(-1.42405e-14 30.6929 -13.1211)
(-3.76576e-14 31.2338 -11.9527)
(-6.40066e-14 31.267 -10.6612)
(-7.89825e-14 31.147 -9.23594)
(-8.75221e-14 31.1637 -7.83305)
(-9.38137e-14 31.081 -6.45648)
(-1.01032e-13 31.165 -5.33048)
(-1.28365e-13 30.7216 -3.37968)
(-6.9655e-14 36.0496 -7.66015)
(-1.10284e-13 34.2332 -2.40426)
(-1.21024e-13 35.1041 -1.17475)
(-1.27044e-13 35.0056 -0.100331)
(-1.39777e-13 34.619 1.58922)
(-1.38111e-13 34.7508 2.69276)
(-1.39567e-13 34.6266 3.66949)
(-1.42419e-13 34.727 4.71586)
(-1.45452e-13 34.1461 5.59483)
(-6.06689e-14 40.301 1.86252)
(-1.4064e-13 37.5305 6.70178)
(-1.33886e-13 38.6445 7.24617)
(-1.28002e-13 38.3473 7.70726)
(-1.20831e-13 38.0776 7.99686)
(-1.1422e-13 38.0597 8.18662)
(-1.28879e-13 38.0964 8.33165)
(-1.40379e-13 37.9565 8.19108)
(-1.38496e-13 38.1849 7.99628)
(-1.41841e-13 37.6787 7.7206)
(1.36638e-14 45.2435 4.47649)
(-8.7332e-14 40.7362 8.50602)
(-8.26396e-14 41.7454 8.43153)
(-7.41921e-14 41.6081 8.24041)
(-6.3921e-14 41.3411 7.93427)
(-4.98674e-14 41.4555 7.58271)
(-5.50933e-14 41.3894 7.32477)
(-5.15536e-14 41.7175 7.01166)
(-5.81231e-14 41.2181 6.63326)
(1.39563e-13 49.5737 3.89718)
(1.088e-14 43.728 7.77667)
(8.60186e-16 44.774 7.89033)
(-1.17735e-14 44.8061 8.06927)
(-1.93337e-14 44.6183 8.00318)
(-2.32827e-14 44.7756 7.81781)
(-2.63136e-14 44.7726 7.70492)
(-2.7108e-14 45.1882 7.46596)
(-3.86878e-14 44.5978 7.5746)
(1.46717e-13 54.1683 5.18893)
(-6.52481e-15 46.7518 9.11396)
(-1.50232e-14 47.8837 9.03265)
(-2.01043e-14 48.1396 8.69314)
(-3.06511e-14 47.9496 8.73652)
(-3.99062e-14 48.1773 8.82387)
(-5.10802e-14 48.2397 8.93442)
(-5.71937e-14 48.7138 9.042)
(-8.9588e-14 48.1388 9.78483)
(9.5619e-14 59.4839 6.61)
(-9.7122e-14 50.3496 12.9872)
(-1.24089e-13 51.7877 13.677)
(-1.5022e-13 52.2361 14.3883)
(-1.72054e-13 52.0326 15.4472)
(-2.03417e-13 52.5533 15.8133)
(-2.1571e-13 52.5101 18.4097)
(-2.33283e-13 52.8776 20.1084)
(-2.45091e-13 53.4234 21.3469)
(-2.7573e-13 52.6235 23.3925)
(-1.32864e-13 67.5882 18.0735)
(-2.77119e-13 55.9567 26.7172)
(-2.89035e-13 57.8558 28.6629)
(-3.09334e-13 58.6662 30.0168)
(-3.3028e-13 58.584 31.3535)
(-3.54161e-13 59.0821 32.5679)
(-3.72848e-13 59.4456 34.3828)
(-3.65819e-13 60.0345 37.447)
(-3.80353e-13 59.7381 41.0729)
(-3.2738e-13 81.0104 31.8351)
(-4.08278e-13 65.1189 42.5177)
(-4.33509e-13 67.9935 46.0395)
(-3.273e-13 68.1066 33.4343)
(-3.91946e-13 64.9247 35.7787)
(-4.69595e-13 70.3507 38.4656)
(-3.18495e-13 51.5687 25.6359)
(-4.43572e-13 72.1825 31.8386)
(-3.26831e-13 51.607 23.2753)
(-4.02358e-13 56.4112 26.3193)
(-4.76529e-13 60.869 28.1438)
(-3.26666e-13 45.4846 19.2157)
(-3.97054e-13 53.9906 21.6428)
(-4.5735e-13 57.7812 22.9789)
(-3.01728e-13 40.0735 15.0747)
(-4.02028e-13 57.0073 18.1654)
(-2.85627e-13 40.7191 12.9371)
(-3.44802e-13 45.2333 14.1872)
(-3.8465e-13 49.2829 14.3937)
(-2.48441e-13 34.6239 9.15213)
(-3.28018e-13 50.2725 10.3434)
(-2.30124e-13 35.7034 7.06895)
(-2.73859e-13 40.5967 7.1286)
(-3.03976e-13 43.277 6.40468)
(-1.99664e-13 32.0894 3.87984)
(-2.35554e-13 39.9865 3.47877)
(-2.6802e-13 43.1269 2.31683)
(-1.72608e-13 29.5802 0.99998)
(-2.32228e-13 44.9846 -0.491275)
(-1.6342e-13 32.3031 -0.921457)
(-1.96515e-13 37.2043 -2.42423)
(-2.28137e-13 42.2754 -4.41347)
(-1.47921e-13 29.699 -3.4045)
(-2.03162e-13 46.3341 -6.16924)
(-1.4482e-13 33.4272 -4.83786)
(-1.7714e-13 39.5137 -7.00573)
(-2.10195e-13 44.0682 -8.93419)
(-1.41616e-13 33.4809 -6.20485)
(-1.72142e-13 43.1429 -8.27359)
(-2.04065e-13 48.5501 -9.87404)
(-1.3341e-13 34.0517 -6.67061)
(-1.82369e-13 53.3548 -9.84556)
(-1.2936e-13 39.3245 -7.13041)
(-1.57194e-13 45.8998 -9.30961)
(-1.79408e-13 53.1699 -10.6541)
(-1.15555e-13 38.3607 -7.05835)
(-1.56419e-13 59.3329 -10.1016)
(-1.10636e-13 43.7493 -7.17284)
(-1.334e-13 51.5104 -9.31069)
(-1.53501e-13 57.4633 -10.322)
(-1.03391e-13 44.2923 -6.71872)
(-1.24209e-13 56.4139 -8.48111)
(-1.4436e-13 62.9968 -9.0536)
(-9.43291e-14 44.7758 -5.88492)
(-1.28199e-13 68.3213 -8.24348)
(-9.15822e-14 50.7592 -5.69315)
(-1.11867e-13 58.555 -7.29055)
(-1.31614e-13 66.7837 -7.5696)
(-8.59189e-14 48.4517 -4.86529)
(-1.16488e-13 73.1298 -6.81383)
(-8.22323e-14 54.0385 -4.65603)
(-9.90872e-14 62.7879 -6.14072)
(-1.11693e-13 69.1142 -6.43496)
(-7.29446e-14 53.0889 -4.07487)
(-8.66546e-14 66.8448 -5.31397)
(-9.32702e-14 73.7532 -5.57464)
(-5.86938e-14 52.3822 -3.68324)
(-7.63386e-14 78.6372 -5.6615)
(-5.16424e-14 58.4238 -4.01572)
(-6.03119e-14 66.9076 -5.56993)
(-6.60031e-14 75.7588 -6.26134)
(-4.05234e-14 55.0257 -4.18501)
(-5.19899e-14 82.3351 -6.54855)
(-3.49839e-14 61.0359 -4.66455)
(-4.1446e-14 70.6477 -6.58291)
(-4.34957e-14 77.8443 -7.62749)
(-2.71448e-14 60.0991 -4.97306)
(-3.27866e-14 75.2902 -6.77649)
(-3.67997e-14 83.7349 -7.798)
(-2.30774e-14 59.7351 -5.12064)
(-3.19413e-14 90.1363 -8.11546)
(-2.20254e-14 66.4732 -5.5838)
(-2.93809e-14 79.763 -8.62211)
(1.32329e-25 7.24116 12.251)
(-5.2112e-26 5.08145 10.2228)
(9.2616e-27 3.57979 10.1092)
(-4.28167e-28 -1.10112 9.39926)
(-1.7427e-29 -4.67972 9.26355)
(-1.47231e-29 -7.75886 9.20017)
(-7.85546e-30 -10.0042 9.20836)
(-3.38028e-30 -11.7747 9.23679)
(-1.25558e-30 -13.2379 9.28362)
(-8.52893e-31 -14.5978 9.31663)
(-1.46951e-30 -15.8151 9.2687)
(-2.65907e-30 -16.8355 9.10716)
(-3.75114e-30 -17.7029 8.83571)
(-4.23712e-30 -18.4558 8.46158)
(-4.08026e-30 -18.9387 7.97451)
(-3.53145e-30 -18.8954 7.37531)
(-2.77214e-30 -18.1261 6.70438)
(-1.86236e-30 -16.5539 6.01312)
(-9.66479e-31 -14.1348 5.33468)
(-3.53473e-31 -10.9345 4.7181)
(-8.53883e-32 -6.91026 4.14731)
(-3.3184e-30 0.032583 3.32913)
(-6.04377e-29 9.05124 1.66973)
(-4.11664e-29 11.7868 1.24527)
(4.22291e-27 14.7667 1.07574)
(3.99909e-26 16.9939 1.37141)
(5.78695e-26 18.5423 1.23199)
(-1.09412e-24 18.4966 0.0740483)
(-9.94286e-24 18.8061 -1.12498)
(7.20549e-22 24.5108 0.19842)
(7.00103e-20 30.029 3.80624)
(2.07763e-19 33.4387 6.57349)
(-1.00183e-18 36.0018 8.45326)
(-7.13339e-18 37.7157 9.87839)
(-2.14686e-17 38.2016 11.0799)
(-4.56117e-17 37.1964 11.5526)
(-8.27837e-17 35.9797 10.647)
(-1.39036e-16 34.4009 9.64545)
(-2.1706e-16 31.0477 8.74884)
(-3.09859e-16 25.9913 6.39242)
(-4.05608e-16 19.4255 2.47135)
(-4.76904e-16 8.03286 -2.04825)
(-8.67853e-17 -8.56395 -5.12681)
(9.35889e-18 -18.9172 -7.36)
(2.70524e-18 -29.1686 -13.0419)
(-5.73446e-17 -32.8058 -19.156)
(-1.21859e-16 -30.9703 -18.9184)
(-6.54111e-17 -35.1433 -13.5433)
(-1.15949e-17 -52.5871 -12.0299)
(-1.38009e-18 -67.6076 -13.1954)
(-1.10309e-18 -78.7655 -14.5537)
(-1.35859e-18 -86.5514 -16.6227)
(-1.52788e-18 -90.6273 -17.4395)
(-1.08828e-18 -99.4087 -18.5002)
(-5.03989e-19 -111.971 -22.6193)
(-1.49093e-19 -118.224 -27.5253)
(1.32953e-20 -109.593 -30.908)
(6.55679e-20 -82.1322 -30.7808)
(6.74316e-20 -41.7461 -28.1478)
(4.7399e-20 -9.49886 -23.0615)
(1.05212e-20 -11.058 -14.4276)
(-1.00018e-21 -26.7187 -11.5152)
(-4.77735e-22 -28.6194 -11.1927)
(-1.17405e-23 -24.1893 -11.063)
(-6.97685e-23 -20.2141 -11.0562)
(2.97184e-21 -16.9067 -11.3413)
(-6.23085e-20 -18.957 -10.7944)
(8.32278e-19 -16.2457 -11.917)
(-7.75107e-18 -23.4243 -6.32064)
(8.89532e-17 -24.5518 -4.26674)
(1.32603e-16 37.3485 -2.78497)
(-2.29104e-15 92.0964 2.58121)
(-7.83315e-15 89.9243 -4.27549)
(-1.52494e-14 85.6363 -5.88824)
(-2.96517e-14 83.7619 -5.50876)
(-4.65047e-14 84.5464 -5.35259)
(-4.79822e-14 85.0321 -4.11308)
(-3.45576e-14 87.676 -5.10927)
(-3.71619e-14 86.2621 -8.58081)
(3.07329e-25 7.57916 13.5971)
(-1.18778e-25 5.33538 11.0043)
(1.9513e-26 3.58803 10.7613)
(-9.89639e-28 -0.708348 9.70648)
(-3.2829e-30 -4.26264 9.41901)
(-1.41191e-29 -7.35741 9.2814)
(-7.3933e-30 -9.61999 9.25869)
(-3.15663e-30 -11.4056 9.27023)
(-1.18729e-30 -12.8841 9.3081)
(-8.70052e-31 -14.2453 9.33373)
(-1.53345e-30 -15.4483 9.27634)
(-2.72774e-30 -16.4495 9.10497)
(-3.79049e-30 -17.3001 8.82614)
(-4.24097e-30 -18.0334 8.44804)
(-4.06232e-30 -18.4866 7.95845)
(-3.50378e-30 -18.407 7.35707)
(-2.73809e-30 -17.5987 6.68397)
(-1.82606e-30 -15.981 5.98775)
(-9.37115e-31 -13.5052 5.29908)
(-3.27497e-31 -10.2241 4.66065)
(-1.08921e-31 -6.00687 4.00555)
(-7.62965e-30 1.32492 2.71573)
(-1.17014e-28 8.36984 1.36217)
(-1.56738e-28 11.665 1.35358)
(8.29374e-27 14.7166 1.44868)
(8.34307e-26 16.9337 1.86699)
(1.28646e-25 18.7015 1.72323)
(-2.34125e-24 18.813 0.587802)
(-2.21734e-23 18.7539 -1.08459)
(4.82958e-22 23.7556 0.167325)
(9.98433e-20 29.0376 3.55728)
(3.38474e-19 32.6951 6.69211)
(-1.46989e-18 35.4683 9.0828)
(-1.09667e-17 37.293 10.9882)
(-3.28982e-17 37.9419 12.3349)
(-6.87037e-17 37.2743 12.5144)
(-1.2173e-16 36.2805 11.3898)
(-1.98611e-16 34.7062 10.2668)
(-3.00188e-16 31.5957 8.73117)
(-4.15764e-16 27.0109 5.57272)
(-5.31746e-16 20.6967 1.29359)
(-6.2153e-16 9.6031 -2.87512)
(-1.43878e-16 -9.27788 -6.87545)
(6.04526e-18 -19.5384 -8.49713)
(5.90389e-18 -29.5612 -13.4685)
(-5.22066e-17 -34.0793 -19.0499)
(-1.19802e-16 -33.3355 -18.8121)
(-6.93176e-17 -37.0021 -13.6196)
(-1.28697e-17 -53.3401 -12.0946)
(-1.33528e-18 -68.0288 -13.2189)
(-1.05099e-18 -79.0242 -14.5078)
(-1.34983e-18 -86.7701 -16.5095)
(-1.52799e-18 -90.8197 -17.3462)
(-1.10202e-18 -99.1275 -18.3959)
(-5.16875e-19 -111.214 -22.4446)
(-1.55582e-19 -117.52 -27.3158)
(1.06856e-20 -109.449 -30.7482)
(6.50938e-20 -82.7505 -30.7229)
(6.8262e-20 -43.0001 -28.166)
(4.72887e-20 -11.3774 -22.9791)
(1.09021e-20 -12.57 -14.4304)
(-9.64408e-22 -26.8903 -11.473)
(-5.42921e-22 -28.5706 -11.2324)
(-2.08674e-23 -24.1009 -11.0764)
(-8.64011e-23 -20.0526 -11.0531)
(3.45638e-21 -16.7446 -11.3573)
(-6.91337e-20 -18.6167 -10.8876)
(8.78811e-19 -16.5234 -12.2805)
(-8.09727e-18 -24.0047 -7.52508)
(8.55586e-17 -26.1184 -6.04159)
(1.49921e-16 36.7073 -6.76172)
(-2.39874e-15 92.2485 3.08143)
(-8.49248e-15 91.2241 -4.16977)
(-1.7104e-14 85.8112 -5.79086)
(-3.34563e-14 83.655 -5.26656)
(-4.85001e-14 84.3077 -4.92493)
(-4.51374e-14 84.978 -3.29466)
(-2.99081e-14 88.1764 -4.61397)
(-4.13325e-14 86.9598 -6.43357)
(5.77037e-25 7.86221 14.3866)
(-2.36081e-25 5.68515 11.5626)
(4.06882e-26 3.73669 11.1342)
(-2.21647e-27 -0.813392 9.93878)
(2.68244e-29 -4.42011 9.55996)
(-1.36808e-29 -7.51063 9.36111)
(-6.87774e-30 -9.77261 9.31263)
(-2.90943e-30 -11.5544 9.31015)
(-1.11462e-30 -13.0254 9.33979)
(-8.94611e-31 -14.3673 9.35724)
(-1.61082e-30 -15.5414 9.2887)
(-2.8085e-30 -16.5123 9.10538)
(-3.83555e-30 -17.3346 8.81677)
(-4.24417e-30 -18.04 8.43208)
(-4.04014e-30 -18.4664 7.93711)
(-3.4702e-30 -18.3685 7.33054)
(-2.69717e-30 -17.5571 6.65247)
(-1.78317e-30 -15.9518 5.9488)
(-9.02964e-31 -13.5072 5.24872)
(-2.91045e-31 -10.2759 4.58966)
(-1.28023e-31 -6.1036 3.88047)
(-1.65078e-29 1.04139 2.48272)
(-2.44643e-28 8.2466 1.62789)
(-4.62057e-28 11.9245 1.61048)
(1.59086e-26 14.7282 1.7313)
(1.70385e-25 16.9097 2.13155)
(2.77605e-25 18.8257 2.04045)
(-5.18381e-24 19.1147 1.1931)
(-4.96475e-23 18.8693 -0.869742)
(2.86717e-22 23.431 0.244507)
(1.28659e-19 28.5303 3.52701)
(4.75294e-19 32.2061 6.66422)
(-1.92441e-18 35.0617 9.32694)
(-1.48347e-17 36.9947 11.5349)
(-4.42635e-17 37.8376 12.9953)
(-9.09694e-17 37.3855 13.0565)
(-1.57635e-16 36.4832 11.9236)
(-2.50487e-16 34.9778 10.6072)
(-3.68739e-16 32.0711 8.66011)
(-4.99636e-16 27.6613 5.30515)
(-6.28166e-16 21.3054 1.01443)
(-7.23085e-16 10.4195 -2.98248)
(-2.87104e-16 -8.06709 -9.03131)
(-2.84362e-17 -18.5916 -10.4341)
(9.25036e-18 -28.0618 -14.2691)
(-4.33231e-17 -33.1055 -19.0058)
(-1.15757e-16 -33.5824 -18.7365)
(-7.37412e-17 -37.5194 -13.8179)
(-1.46659e-17 -53.2049 -12.2102)
(-1.31238e-18 -67.5752 -13.2414)
(-9.7766e-19 -78.4836 -14.4505)
(-1.33722e-18 -86.3118 -16.3685)
(-1.52804e-18 -90.4975 -17.2098)
(-1.11877e-18 -98.4651 -18.1983)
(-5.33025e-19 -110.117 -22.1553)
(-1.63844e-19 -116.492 -27.0006)
(7.35549e-21 -108.972 -30.5054)
(6.44461e-20 -82.9144 -30.6181)
(6.92667e-20 -43.6969 -28.2527)
(4.77223e-20 -12.6372 -23.3385)
(1.14008e-20 -13.8306 -14.6711)
(-9.36091e-22 -27.3475 -11.4556)
(-6.15977e-22 -28.6858 -11.2572)
(-3.26396e-23 -24.1844 -11.0956)
(-1.11559e-22 -20.1074 -11.0741)
(4.13491e-21 -16.8776 -11.4447)
(-7.84151e-20 -18.6276 -11.0787)
(9.45387e-19 -17.0337 -13.0024)
(-8.53872e-18 -24.509 -9.03236)
(7.52651e-17 -25.9016 -9.93329)
(1.70446e-16 35.5238 -10.4919)
(-2.39186e-15 91.6783 2.41696)
(-8.80893e-15 91.9522 -4.23403)
(-1.82563e-14 85.8996 -5.84584)
(-3.56311e-14 83.566 -5.18091)
(-4.88761e-14 84.1215 -4.69032)
(-4.30043e-14 84.9582 -2.84308)
(-2.79744e-14 88.3905 -4.34143)
(-4.57883e-14 87.2271 -5.39597)
(1.08254e-24 8.1827 15.1364)
(-4.58778e-25 6.01323 12.0868)
(8.21173e-26 3.99441 11.4852)
(-4.79599e-27 -0.65145 10.0978)
(9.02467e-29 -4.43024 9.66244)
(-1.38141e-29 -7.57339 9.42418)
(-6.39026e-30 -9.8587 9.36097)
(-2.68105e-30 -11.6497 9.35023)
(-1.0512e-30 -13.1216 9.37392)
(-9.24191e-31 -14.4521 9.3831)
(-1.69008e-30 -15.6059 9.30281)
(-2.88844e-30 -16.5552 9.10697)
(-3.87864e-30 -17.3575 8.80747)
(-4.24572e-30 -18.0428 8.41423)
(-4.01688e-30 -18.4491 7.91162)
(-3.43576e-30 -18.3378 7.29794)
(-2.65567e-30 -17.5242 6.61379)
(-1.74051e-30 -15.927 5.903)
(-8.69135e-31 -13.5004 5.19502)
(-2.35409e-31 -10.2871 4.52592)
(-1.34517e-31 -6.08133 3.8017)
(-3.4455e-29 1.29567 2.45604)
(-4.91666e-28 8.62263 1.79004)
(-1.21827e-27 11.9538 1.71221)
(2.94465e-26 14.6273 1.9271)
(3.42204e-25 16.8499 2.38822)
(6.04988e-25 18.8999 2.37277)
(-1.14075e-23 19.4039 1.84939)
(-1.11234e-22 18.9726 -0.57886)
(5.62358e-23 22.9634 0.323305)
(1.66827e-19 27.8492 3.57697)
(6.6252e-19 31.5862 6.73863)
(-2.50401e-18 34.5325 9.65275)
(-2.00034e-17 36.5922 12.1905)
(-5.952e-17 37.6664 13.8107)
(-1.20606e-16 37.4923 13.807)
(-2.04622e-16 36.7504 12.6238)
(-3.17106e-16 35.3393 11.0977)
(-4.55521e-16 32.6392 8.77662)
(-6.04745e-16 28.4626 5.1945)
(-7.48249e-16 22.1899 0.809927)
(-8.51301e-16 11.7308 -3.1804)
(-5.04108e-16 -6.57173 -10.8723)
(-1.06953e-16 -17.8028 -12.6788)
(1.20736e-17 -26.8396 -15.2497)
(-2.8938e-17 -32.1271 -19.0885)
(-1.08012e-16 -33.5596 -18.9901)
(-7.83028e-17 -37.893 -14.3874)
(-1.68698e-17 -53.0878 -12.4263)
(-1.31978e-18 -67.1717 -13.2654)
(-8.89527e-19 -78.0007 -14.382)
(-1.32185e-18 -85.8832 -16.2064)
(-1.528e-18 -90.1841 -17.0486)
(-1.13591e-18 -97.8938 -17.9444)
(-5.50123e-19 -109.197 -21.7906)
(-1.72757e-19 -115.622 -26.5924)
(3.75128e-21 -108.555 -30.1613)
(6.36919e-20 -83.0446 -30.4351)
(7.02323e-20 -44.3197 -28.3918)
(4.84891e-20 -13.9396 -23.9962)
(1.19116e-20 -14.9866 -15.0588)
(-9.16134e-22 -27.6708 -11.4825)
(-6.86517e-22 -28.7265 -11.2878)
(-4.55139e-23 -24.1955 -11.136)
(-1.46643e-22 -20.0717 -11.1406)
(4.99546e-21 -16.8663 -11.6159)
(-8.96029e-20 -18.4543 -11.3714)
(1.02517e-18 -17.2269 -13.9473)
(-8.84988e-18 -24.4504 -10.6894)
(5.85756e-17 -25.3499 -15.1134)
(1.92557e-16 33.954 -14.6592)
(-2.37981e-15 90.9578 1.26011)
(-9.15638e-15 92.79 -4.41928)
(-1.95715e-14 85.9944 -5.97954)
(-3.80244e-14 83.4205 -5.10559)
(-4.91671e-14 83.8634 -4.43959)
(-4.07381e-14 84.9159 -2.35983)
(-2.61062e-14 88.7046 -4.07529)
(-5.10631e-14 87.6015 -5.72577)
(2.00202e-24 8.52932 15.7595)
(-8.64793e-25 6.34551 12.5511)
(1.594e-25 4.21222 11.8168)
(-1.0029e-26 -0.383158 10.244)
(2.22447e-28 -4.30634 9.75226)
(-1.50998e-29 -7.50042 9.48294)
(-5.93387e-30 -9.81248 9.41087)
(-2.47716e-30 -11.6158 9.39487)
(-9.98656e-31 -13.092 9.41345)
(-9.57825e-31 -14.4137 9.41367)
(-1.76867e-30 -15.5489 9.32069)
(-2.96488e-30 -16.4783 9.11131)
(-3.91826e-30 -17.2631 8.7995)
(-4.24552e-30 -17.9304 8.3959)
(-3.9933e-30 -18.3162 7.88373)
(-3.40163e-30 -18.1875 7.26126)
(-2.61504e-30 -17.3634 6.56986)
(-1.69959e-30 -15.7612 5.85171)
(-8.36106e-31 -13.3329 5.13744)
(-1.40164e-31 -10.1088 4.46359)
(-4.57262e-32 -5.82763 3.73788)
(-6.7782e-29 1.80534 2.43769)
(-9.56849e-28 8.62481 1.86544)
(-2.94575e-27 11.8884 1.84362)
(5.26448e-26 14.5725 2.14667)
(6.74265e-25 16.8116 2.61645)
(1.32568e-24 18.9415 2.67975)
(-2.49387e-23 19.7052 2.5045)
(-2.4931e-22 19.1632 -0.120888)
(-2.15677e-22 22.5795 0.452153)
(2.1596e-19 27.2287 3.72369)
(9.06505e-19 30.9723 6.87951)
(-3.20982e-18 33.9667 9.96928)
(-2.65813e-17 36.1576 12.8033)
(-7.89942e-17 37.5036 14.6186)
(-1.58011e-16 37.6166 14.6207)
(-2.62633e-16 37.0323 13.411)
(-3.97159e-16 35.7489 11.6544)
(-5.57266e-16 33.2598 9.00946)
(-7.25439e-16 29.2564 5.29595)
(-8.83633e-16 23.0169 0.896949)
(-9.9623e-16 12.9419 -3.19846)
(-7.53448e-16 -5.41191 -12.1279)
(-2.19605e-16 -17.4236 -14.8355)
(1.10022e-17 -26.3141 -16.5101)
(-1.07565e-17 -31.769 -19.6248)
(-9.9543e-17 -33.9495 -19.9064)
(-8.42615e-17 -38.5522 -15.5334)
(-1.95525e-17 -53.2623 -12.8287)
(-1.30744e-18 -67.0421 -13.3202)
(-7.81209e-19 -77.7663 -14.3062)
(-1.30468e-18 -85.6617 -16.016)
(-1.52803e-18 -90.0443 -16.8507)
(-1.15276e-18 -97.467 -17.6382)
(-5.67536e-19 -108.395 -21.3537)
(-1.82029e-19 -114.831 -26.0881)
(-9.92943e-24 -108.187 -29.7046)
(6.2854e-20 -83.2147 -30.1472)
(7.10734e-20 -44.9426 -28.5106)
(4.94271e-20 -15.2682 -24.8137)
(1.24381e-20 -16.3163 -15.5441)
(-9.01654e-22 -28.0338 -11.5323)
(-7.55127e-22 -28.7592 -11.3288)
(-5.91303e-23 -24.1914 -11.2059)
(-1.97063e-22 -20.008 -11.2634)
(6.1414e-21 -16.8061 -11.8648)
(-1.03753e-19 -18.1496 -11.7757)
(1.121e-18 -17.2508 -15.0447)
(-8.88128e-18 -23.9932 -12.5755)
(3.95546e-17 -24.7819 -20.4438)
(2.16136e-16 31.8959 -18.991)
(-2.33552e-15 89.7578 -0.465857)
(-9.44063e-15 93.4416 -4.74685)
(-2.08387e-14 86.0492 -6.20246)
(-4.01557e-14 83.2384 -5.08082)
(-4.89763e-14 83.5755 -4.2283)
(-3.86174e-14 84.8788 -1.96561)
(-2.49938e-14 88.9645 -3.85726)
(-5.6966e-14 87.9176 -3.97205)
(3.65013e-24 8.89893 16.2654)
(-1.57533e-24 6.72303 12.934)
(2.96041e-25 4.4694 12.0841)
(-2.01267e-26 -0.160287 10.3666)
(4.88139e-28 -4.21507 9.83204)
(-1.86179e-29 -7.44785 9.54027)
(-5.48933e-30 -9.78168 9.46466)
(-2.29557e-30 -11.5943 9.44593)
(-9.56025e-31 -13.0722 9.46008)
(-9.94963e-31 -14.3821 9.45078)
(-1.84618e-30 -15.4959 9.3442)
(-3.03762e-30 -16.4032 9.12017)
(-3.95441e-30 -17.1686 8.79455)
(-4.24368e-30 -17.8162 8.37879)
(-3.96958e-30 -18.1796 7.85513)
(-3.36802e-30 -18.0322 7.22199)
(-2.57555e-30 -17.1972 6.52177)
(-1.66069e-30 -15.5906 5.79524)
(-8.03071e-31 -13.1641 5.07488)
(3.34548e-32 -9.93786 4.39865)
(3.56429e-31 -5.61132 3.67789)
(-1.27486e-28 2.13501 2.43592)
(-1.80561e-27 8.56535 1.97043)
(-6.6429e-27 11.8917 1.99744)
(9.02816e-26 14.5192 2.32767)
(1.29812e-24 16.7366 2.78438)
(2.90582e-24 18.9257 2.93384)
(-5.38138e-23 19.9646 3.07933)
(-5.6051e-22 19.3881 0.526221)
(-5.51884e-22 22.2076 0.639989)
(2.79402e-19 26.5873 3.9533)
(1.21959e-18 30.3356 7.1314)
(-4.06638e-18 33.3545 10.335)
(-3.48545e-17 35.6688 13.4232)
(-1.03586e-16 37.3068 15.4702)
(-2.04825e-16 37.7332 15.5553)
(-3.33871e-16 37.3435 14.3161)
(-4.93202e-16 36.2151 12.3257)
(-6.76788e-16 33.9161 9.41889)
(-8.64637e-16 30.0617 5.62695)
(-1.0372e-15 23.8937 1.23398)
(-1.16031e-15 14.1785 -3.02053)
(-1.02638e-15 -4.42659 -12.8125)
(-3.66278e-16 -17.1286 -16.854)
(-1.72598e-17 -26.0127 -18.4474)
(-4.32239e-18 -31.5873 -21.0666)
(-9.72326e-17 -34.4423 -21.6204)
(-9.34059e-17 -39.3513 -17.2407)
(-2.28648e-17 -53.5792 -13.4637)
(-1.20605e-18 -66.9695 -13.4263)
(-6.35791e-19 -77.5566 -14.2262)
(-1.28599e-18 -85.4532 -15.7939)
(-1.52859e-18 -89.9195 -16.604)
(-1.16915e-18 -97.0511 -17.2814)
(-5.85009e-19 -107.577 -20.8388)
(-1.91555e-19 -114.008 -25.4882)
(-3.88436e-21 -107.779 -29.1331)
(6.19492e-20 -83.3151 -29.737)
(7.18278e-20 -45.4241 -28.5761)
(5.03799e-20 -16.5172 -25.7253)
(1.29402e-20 -17.7214 -16.1105)
(-8.93508e-22 -28.469 -11.5961)
(-8.23456e-22 -28.8041 -11.3783)
(-7.33552e-23 -24.1901 -11.3106)
(-2.71906e-22 -19.9441 -11.4489)
(7.76945e-21 -16.7414 -12.1877)