/*--------------------------------*- C++ -*----------------------------------*\
| =========                 |                                                 |
| \\      /  F ield         | OpenFOAM: The Open Source CFD Toolbox           |
|  \\    /   O peration     | Version:  4.1                                   |
|   \\  /    A nd           | Web:      www.OpenFOAM.org                      |
|    \\/     M anipulation  |                                                 |
\*---------------------------------------------------------------------------*/
FoamFile
{
    version     2.0;
    format      ascii;
    class       surfaceScalarField;
    location    "10";
    object      phi;
}
// * * * * * * * * * * * * * * * * * * * * * * * * * * * * * * * * * * * * * //

dimensions      [0 3 -1 0 0 0 0];

internalField   nonuniform List<scalar> 
13220
(
-906.838
2206.74
-1504.65
1898.02
-1985.1
1780.36
-2354.91
1669.71
-2630.24
1575.53
-2818.67
1488.33
-2923.47
1404.7
-2944.43
1321.17
-2880.25
1235.72
-2727.8
1147.45
-2482.42
1054.82
-2127.41
944.896
-1626.85
799.343
-955.991
629.346
343.909
423.58
1783.18
466.676
1854.94
450.494
1796.55
411.058
1709.17
378.62
1607.99
352.506
1514.46
333.249
1423.98
321.546
1332.89
314.117
1243.16
304.803
1156.78
285.458
1074.18
242.348
988.029
165.849
875.867
88.5408
706.682
432.451
181.153
1602.04
21.0216
2015.08
-139.958
1957.55
-258.535
1827.76
-362.767
1712.24
-459.784
1611.5
-546.847
1511.06
-624.356
1410.42
-690.49
1309.32
-742.796
1209.11
-776.998
1108.4
-774.377
985.446
-684.561
786.103
-432.699
454.883
-0.247411
215.886
1386.16
135.966
2095.02
1.95954
2091.57
-93.42
1923.16
-169.519
1788.35
-229.531
1671.53
-269.391
1550.94
-289.31
1430.36
-291.277
1311.3
-275.782
1193.64
-241.604
1074.24
-183.983
927.846
-101.077
703.226
-9.74979
363.593
-9.99663
282.461
1103.71
348.963
2028.52
326.047
2114.5
305.576
1943.64
296.158
1797.78
292.629
1675.07
292.696
1550.88
296.668
1426.39
303.335
1304.65
310.768
1186.22
318.336
1066.68
320.344
925.871
297.087
726.518
215.985
444.734
205.988
248.814
854.903
359.148
1918.2
370.128
2103.52
350.872
1962.9
335.78
1812.88
324.819
1686.04
313.44
1562.26
299.37
1440.47
283.504
1320.51
265.835
1203.88
244.984
1087.53
219.032
951.788
177.738
767.775
109.093
513.341
315.081
131.339
723.568
214.578
1834.96
239.345
2078.76
216.989
1985.26
193.589
1836.28
173.841
1705.78
155.217
1580.89
137.075
1458.61
119.133
1338.45
102.778
1220.24
88.0552
1102.24
75.333
964.54
61.3331
781.801
44.5933
530.106
359.674
36.8607
686.705
87.2814
1784.54
127.353
2038.68
117.172
1995.44
101.788
1851.66
89.8956
1717.67
78.0582
1592.71
67.1628
1469.49
57.539
1348.07
48.2864
1229.48
40.3601
1110.17
36.4853
968.367
33.0017
785.237
28.5732
534.489
388.247
14.7326
671.969
54.7339
1744.53
99.361
1994.05
99.413
1995.38
89.7841
1861.28
81.7157
1725.73
74.2945
1600.14
66.2516
1477.54
58.6912
1355.63
51.4811
1236.69
43.9196
1117.72
40.8746
971.443
38.6677
787.471
29.4196
543.762
417.666
35.2232
636.735
82.5393
1697.21
122.317
1954.27
123.719
1993.98
113.515
1871.48
102.334
1736.91
92.133
1610.33
82.5124
1487.15
72.2982
1365.83
62.556
1246.42
53.3492
1126.93
48.2168
976.529
43.9834
791.659
30.4844
557.218
448.151
57.9621
578.756
114.113
1641.05
149.019
1919.35
149.884
1993.1
137.289
1884.06
123.683
1750.5
109.9
1624.09
96.7852
1500.25
84.0247
1378.58
71.0869
1259.34
59.2404
1138.75
52.8409
982.925
46.5521
797.935
29.374
574.384
477.524
60.4168
518.319
118.458
1582.99
144.319
1893.47
141.536
1995.87
123.152
1902.42
104.531
1769.1
89.0885
1639.52
74.5251
1514.79
61.3511
1391.73
49.5894
1271.08
38.3362
1149.99
33.6365
987.582
30.9538
800.576
20.4074
584.891
497.931
57.1274
461.173
116.92
1523.19
151.606
1858.77
160.619
1986.84
156.043
1906.99
141.52
1783.62
122.781
1658.24
102.58
1534.98
80.8831
1413.42
61.2816
1290.67
47.1281
1164.14
40.6857
994.006
36.2142
805.028
13.4515
607.635
511.383
-56.7251
517.887
-85.2384
1551.7
-115.114
1888.64
-161.165
2032.89
-203.964
1949.78
-230.969
1810.62
-237.108
1664.38
-232.116
1529.99
-220.041
1401.34
-209.102
1279.73
-185.628
1140.66
-149.471
957.855
-102.906
758.472
-64.9758
569.714
446.408
-87.4383
234.659
529.861
734.336
745.646
660.86
511.654
369.274
240.622
157.586
85.2381
39.2317
-5.89395
-30.6974
0.00125423
281.001
-280.998
281.003
281.005
281.007
423.127
-142.118
423.129
423.131
423.133
515.193
-92.0584
515.195
515.197
554.762
-39.5638
554.764
554.766
554.768
576.031
-21.261
576.033
576.034
563.105
12.9314
563.106
563.108
563.11
568.352
-5.24017
568.353
568.355
568.356
589.26
-20.9021
589.262
589.263
616.129
-26.8646
616.131
616.132
616.134
660.629
-44.4931
660.631
660.632
686.927
-26.2938
686.929
686.93
686.931
722.504
-35.5705
722.505
722.507
722.508
760.198
-37.6882
760.199
760.202
802.19
-41.9877
802.192
802.193
802.196
783.072
19.1244
783.075
783.076
783.079
695.891
87.1886
695.895
695.895
552.943
142.956
552.944
552.948
552.948
278.803
274.149
278.805
278.809
-149.21
428.02
-149.205
-149.204
-149.199
-750.622
601.422
-750.617
-750.617
-750.612
-1644.6
893.981
-1644.59
-1644.6
-2848.04
1203.44
-2848.04
-2848.04
-2780.27
-2702.37
-2628.18
-4161.42
1613.54
-4071.44
-3975
-3867.94
-3758.66
-3647.59
-3531.78
-3400.18
-3256.83
-5244.14
2136.63
-5083.91
-4930.61
-4777.3
-4596.97
-4414.17
-4228.25
-4034.53
-3839.65
-6295.01
2668.27
-6065.98
-5838.42
-5609.88
-5380.67
-5144.47
-4896.2
-4645.01
-4385.92
-4123.82
-6956.64
3092.89
-6673.22
-6388.05
-6100.25
-5811.99
-5524.52
-5223.84
-4909.68
-4590.34
-7527.12
3245.56
-7211.04
-6886.1
-6547.89
-6207.85
-5867.96
-5528.5
-5183.85
-4815.82
-7367.99
2900.19
-7015.53
-6660.74
-6306.59
-5939.92
-5569.37
-5201.83
-4835.36
-4469.24
-6000.23
1871.66
-5656.6
-5309.92
-4965.59
-4625.07
-4290.15
-3971.29
-3658.93
-3356.37
-3057.52
-3184.93
405.166
-2935.23
-2694.32
-2460.87
-2230.79
-2003.97
-1812.64
-1696.03
-1566.33
-1258.91
-189.909
-1169.37
-1069.5
-1069.5
-995.59
-73.9097
-919.797
-75.791
-919.795
-900.525
-19.2684
-900.523
-932.596
32.0748
-1001.75
69.1551
-1001.75
-1113.15
111.408
-1244.42
131.263
-1244.42
-1400.95
156.532
-1400.95
-1584.86
183.909
-1766.87
182.018
-1766.87
-1963.09
196.213
-1963.09
-2172.54
209.453
-2365.23
192.686
-2365.23
-2581.49
216.263
-2771.04
189.547
-2771.04
-2962.07
191.033
-2962.07
-3166.55
204.474
-3330.77
164.222
-3330.77
-3486.49
155.721
-3486.49
-3641.49
154.999
-3751.69
110.198
-3751.69
-3877.68
125.987
-3951.65
73.9726
-3951.65
-4013.96
62.3036
-4013.96
-4082.19
68.2264
-4094.52
12.3276
-4094.52
-4086.21
-8.30743
-4086.21
-4065.45
-20.7566
-3996.55
-68.9005
-3996.55
-3923.81
-72.7447
-3801.92
-121.89
-3801.92
-3649.75
-152.168
-3649.75
-3477.27
-172.487
-3260.21
-217.055
-3260.21
-3001.87
-258.341
-3001.87
-2705.69
-296.181
-2373.56
-332.131
-2373.56
-1997
-376.559
-1582.49
-414.52
-1582.49
-1107.8
-474.688
-1107.8
-561.043
-546.762
25.9356
-586.982
25.9322
698.997
-673.066
698.995
1392.64
-693.649
2226.63
-833.987
2226.63
3073.14
-846.511
4062.36
-989.226
4062.36
5147.51
-1085.15
5147.51
-1183.21
-1435.91
56.9872
-1438.68
56.8466
-1440.99
60.6077
-1443.5
64.1366
-1446.08
68.9624
-1448.8
74.7594
-1451.67
81.7506
-1454.71
90.0339
-1457.96
99.7686
-1461.45
111.134
-1465.22
124.305
-1469.31
139.483
-1473.75
156.89
-1478.62
176.926
-1483.97
199.857
-1489.87
226.1
-1496.4
256.102
-1503.64
290.357
-1511.71
329.455
-1520.71
374.096
-1530.79
425.102
-1542.1
483.584
-1554.8
550.538
-1569.09
627.269
-1585.19
715.295
-1603.34
816.376
-1623.8
932.612
-1646.87
1066.44
-1672.83
1220.65
-1701.97
1398.52
-1734.57
1603.85
-1770.81
1840.93
-1810.78
2114.58
-1854.33
2430.15
-1900.97
2793.21
-1949.73
3209.29
-1998.94
3683.31
-2046.08
4218.82
-2087.64
4816.91
-2119.14
5475.21
-2135.41
6187.16
-2131.28
6942.11
-2102.53
7726.85
-2047.3
8528.55
-1967.2
9338.55
-1867.82
10155.7
-1757.79
10987.2
-1646.29
11846.7
-1539.59
12746.1
-1438.03
13676.9
-1334.81
14574.9
-1217.98
15269.2
-1075.41
15419.1
-901.874
14441.6
-776.439
11096.1
-1423.18
-1298.26
-2707.65
-7674.28
-3115.62
-5267.81
-3008.43
-4199.43
-2690.18
-3525.01
-2274.99
-3160.17
-1850.1
-2879.35
-1521.7
-2816.44
-1328.8
-3088.48
-1180.5
-3430.21
-977.227
-3460.28
-716.605
-3072.44
-470.264
-2507.05
-287.467
-2022.48
-164.862
-1322.26
120.074
2251.26
190.74
-1001.48
406.627
-2178.8
856.904
1334.13
1136.21
4359.51
1289.26
5370.19
1344.13
4885.94
1386.87
3130.72
312.796
-1454.25
59.3069
-1457.05
59.6502
-1459.62
63.1813
-1462.34
66.8556
-1465.14
71.7627
-1468.08
77.6945
-1471.16
84.8347
-1474.43
93.2961
-1477.9
103.241
-1481.61
114.846
-1485.61
128.3
-1489.93
143.807
-1494.62
161.579
-1499.74
182.051
-1505.35
205.464
-1511.51
232.256
-1518.29
262.883
-1525.79
297.857
-1534.11
337.778
-1543.39
383.374
-1553.74
435.455
-1565.31
495.151
-1578.26
563.49
-1592.79
641.793
-1609.1
731.606
-1627.43
834.709
-1648.03
953.215
-1671.17
1089.57
-1697.1
1246.58
-1726.1
1427.52
-1758.38
1636.13
-1794.08
1876.63
-1833.2
2153.7
-1875.5
2472.45
-1920.39
2838.1
-1966.78
3255.67
-2012.88
3729.41
-2056.09
4262.04
-2092.91
4853.73
-2118.98
5501.28
-2129.46
6197.65
-2119.72
6932.37
-2086.27
7693.4
-2028
8470.28
-1947.06
9257.61
-1849.09
10057.7
-1742.3
10880.4
-1635.35
11739.8
-1534.51
12645.2
-1441.13
13583.5
-1350.76
14484.5
-1255.52
15174
-1151.58
15315.1
-1033.36
14323.4
-685.803
10748.6
-1175.34
-808.724
-2722.9
-6126.72
-3190.84
-4799.87
-3198.89
-4191.39
-2982.42
-3741.48
-2624.02
-3518.58
-2210.68
-3292.69
-1841.44
-3185.67
-1571.62
-3358.31
-1354.7
-3647.13
-1120.18
-3694.8
-851.387
-3341.23
-586.082
-2772.36
-376.564
-2232
-227.975
-1470.85
179.005
1844.28
302.917
-1125.39
362.304
-2238.18
770.962
925.464
1143.79
3986.67
1303.12
5210.86
1333.45
4855.61
1312.81
3151.36
540.459
-1477.9
61.7301
-1480.79
62.54
-1483.53
65.9281
-1486.4
69.7224
-1489.36
74.7254
-1492.46
80.7959
-1495.72
88.0959
-1499.17
96.7416
-1502.83
106.903
-1506.74
118.757
-1510.95
132.508
-1515.5
148.353
-1520.43
166.514
-1525.81
187.431
-1531.69
211.346
-1538.14
238.701
-1545.23
269.972
-1553.05
305.68
-1561.71
346.439
-1571.34
392.997
-1582.04
446.158
-1593.96
507.069
-1607.25
576.788
-1622.11
656.651
-1638.73
748.227
-1657.34
853.314
-1678.16
974.036
-1701.44
1112.84
-1727.41
1272.55
-1756.29
1456.4
-1788.26
1668.09
-1823.38
1911.75
-1861.57
2191.89
-1902.48
2513.37
-1945.41
2881.03
-1989.12
3299.38
-2031.72
3772.01
-2070.52
4300.83
-2102
4885.21
-2121.94
5521.23
-2125.84
6201.54
-2109.58
6916.1
-2070.41
7654.23
-2007.99
8407.86
-1925.09
9174.71
-1827.53
9960.14
-1723.23
10776.1
-1620.26
11636.8
-1524.41
12549.4
-1437.04
13496.2
-1354.61
14402.1
-1271.4
15090.8
-1186.82
15230.5
-1081.41
14218
-747.756
10414.9
-1261.23
-295.254
-2713.13
-4674.81
-3218.87
-4294.12
-3304.59
-4105.68
-3150.1
-3895.96
-2831.53
-3837.15
-2425.99
-3698.23
-2027.8
-3583.86
-1711.03
-3675.07
-1461.21
-3896.96
-1215.91
-3940.1
-945.428
-3611.71
-675.598
-3042.18
-454.646
-2452.95
-255.929
-1669.56
171.797
1416.56
378.367
-1331.96
325.307
-2185.12
650.266
600.505
1091.89
3545.05
1278.81
5023.93
1304.02
4830.4
1229.77
3225.61
781.006
-1504.95
64.2442
-1507.89
65.4796
-1510.75
68.7908
-1513.72
72.6861
-1516.79
77.7938
-1519.99
84.0049
-1523.37
91.4753
-1526.95
100.321
-1530.76
110.714
-1534.84
122.834
-1539.22
136.885
-1543.93
153.062
-1549.05
171.631
-1554.6
192.989
-1560.67
217.418
-1567.32
245.346
-1574.62
277.275
-1582.67
313.73
-1591.57
355.34
-1601.44
402.865
-1612.41
457.121
-1624.6
519.261
-1638.17
590.364
-1653.31
671.783
-1670.18
765.102
-1689.01
872.14
-1710
995.027
-1733.37
1136.21
-1759.33
1298.51
-1788.05
1485.12
-1819.64
1699.68
-1854.1
1946.21
-1891.24
2229.03
-1930.62
2552.75
-1971.4
2921.81
-2012.21
3340.2
-2051.05
3810.85
-2085.16
4334.94
-2111.03
4911.08
-2124.62
5534.82
-2121.77
6198.69
-2098.92
6893.25
-2054.06
7609.38
-1987.59
8341.39
-1902.8
9089.92
-1805.68
9863.01
-1703.8
10674.3
-1604.65
11537.6
-1513.47
12458.2
-1431.51
13414.2
-1355.89
14326.5
-1282.7
15017.6
-1213.27
15161.1
-1115.57
14120.2
-812.234
10111.6
-1358.61
251.116
-2705.64
-3327.78
-3246.07
-3753.69
-3403.04
-3948.71
-3316.08
-3982.92
-3048.31
-4104.92
-2663.72
-4082.82
-2247.82
-3999.76
-1886
-4036.9
-1593.31
-4189.64
-1324.74
-4208.67
-1045.59
-3890.86
-769.999
-3317.78
-535.565
-2687.39
-295.809
-1909.32
165.065
955.679
414.6
-1581.49
285.253
-2055.78
518.261
367.491
1016.34
3046.97
1238.94
4801.33
1265.35
4803.99
1157.65
3333.31
1092.14
-1534.63
66.8106
-1537.62
68.4652
-1540.58
71.7476
-1543.63
75.7351
-1546.79
80.9528
-1550.09
87.3057
-1553.56
94.951
-1557.25
104.005
-1561.17
114.642
-1565.38
127.041
-1569.89
141.39
-1574.73
157.905
-1579.99
176.89
-1585.69
198.695
-1591.92
223.642
-1598.73
252.154
-1606.19
284.742
-1614.41
321.946
-1623.48
364.414
-1633.52
412.903
-1644.66
468.261
-1657.03
531.633
-1670.79
604.116
-1686.08
687.08
-1703.1
782.123
-1722.04
891.074
-1743.08
1016.07
-1766.42
1159.56
-1792.23
1324.32
-1820.64
1513.53
-1851.7
1730.73
-1885.32
1979.83
-1921.23
2264.95
-1958.88
2590.39
-1997.29
2960.22
-2034.98
3377.89
-2069.84
3845.71
-2099.04
4364.15
-2119.15
4931.19
-2126.3
5541.97
-2116.72
6189.1
-2087.43
6863.96
-2037.13
7559.08
-1966.91
8271.16
-1880.52
9003.53
-1784.01
9766.51
-1684.62
10574.9
-1589.24
11442.2
-1502.58
12371.5
-1425.78
13337.4
-1356.49
14257.2
-1292.51
14953.6
-1236.15
15104.7
-1144.6
14028.7
-879.052
9846.03
-1448.45
820.519
-2693.78
-2082.45
-3254.77
-3192.7
-3474.33
-3729.15
-3451.88
-4005.37
-3239.68
-4317.12
-2887.88
-4434.62
-2469.52
-4418.12
-2073.37
-4433.05
-1739.27
-4523.74
-1442.23
-4505.71
-1147.59
-4185.5
-861.239
-3604.13
-610.084
-2938.54
-342.28
-2177.12
183.188
430.213
418.101
-1816.4
249.307
-1886.98
396.36
220.438
924.373
2518.95
1184.56
4541.14
1218.36
4770.19
1096.47
3455.19
1354.63
-1566.62
69.3837
-1569.64
71.4917
-1572.68
74.7824
-1575.8
78.8571
-1579.03
84.1875
-1582.41
90.6813
-1585.96
98.5011
-1589.72
107.765
-1593.72
118.644
-1598
131.319
-1602.58
145.975
-1607.53
162.85
-1612.9
182.257
-1618.72
204.52
-1625.07
229.991
-1632.02
259.098
-1639.62
292.35
-1647.98
330.307
-1657.2
373.633
-1667.38
423.082
-1678.66
479.536
-1691.15
544.128
-1705.02
617.976
-1720.4
702.463
-1737.47
799.195
-1756.41
910.012
-1777.39
1037.05
-1800.57
1182.73
-1826.08
1349.83
-1854.01
1541.46
-1884.34
1761.06
-1916.9
2012.4
-1951.36
2299.4
-1987.01
2626.05
-2022.78
2995.99
-2057.08
3412.18
-2087.69
3876.32
-2111.79
4388.24
-2125.99
4945.39
-2126.66
5542.65
-2110.45
6172.89
-2074.97
6828.47
-2019.57
7503.68
-1945.98
8197.57
-1858.31
8915.87
-1762.62
9670.81
-1665.76
10478
-1574.08
11350.6
-1491.78
12289.2
-1419.86
13265.5
-1356.53
14193.9
-1301.16
14898.2
-1256.22
15059.8
-1170.26
13942.7
-944.952
9620.73
-1512.46
1388.03
-2661.89
-933.028
-3246.71
-2607.89
-3519.52
-3456.33
-3558.4
-3966.49
-3405.62
-4469.9
-3096.67
-4743.57
-2689.83
-4824.95
-2270.59
-4852.29
-1897.61
-4896.72
-1567.9
-4835.43
-1253.18
-4500.22
-951.972
-3905.33
-681.036
-3209.48
-415.054
-2443.1
230.626
-215.47
385.519
-1971.3
219.571
-1721.03
309.611
130.392
823.409
2005.15
1116.39
4248.16
1162.76
4723.82
1028.57
3589.39
1689.54
-1600.63
71.9858
-1603.69
74.5489
-1606.78
77.8757
-1609.96
82.0345
-1613.25
87.4771
-1616.68
94.1113
-1620.28
102.106
-1624.09
111.578
-1628.15
122.699
-1632.48
135.65
-1637.13
150.625
-1642.15
167.875
-1647.6
187.703
-1653.51
210.433
-1659.96
236.434
-1667
266.144
-1674.72
300.067
-1683.19
338.78
-1692.52
382.967
-1702.81
433.37
-1714.19
490.912
-1726.77
556.708
-1740.69
631.899
-1756.1
717.875
-1773.16
816.25
-1792.01
928.868
-1812.82
1057.86
-1835.71
1205.63
-1860.78
1374.9
-1888.06
1568.73
-1917.46
1790.46
-1948.75
2043.69
-1981.49
2332.14
-2014.88
2659.44
-2047.73
3028.84
-2078.35
3442.8
-2104.46
3902.44
-2123.24
4407.02
-2131.41
4953.56
-2125.61
5536.85
-2102.92
6150.2
-2061.52
6787.07
-2001.42
7443.58
-1924.85
8121
-1836.24
8827.25
-1741.54
9576.11
-1647.25
10383.7
-1559.15
11262.5
-1480.98
12211.1
-1413.65
13198.2
-1355.88
14136.1
-1308.49
14850.8
-1273.35
15024.7
-1192.77
13862.1
-1005.86
9433.82
-1533.5
1915.67
-2584.14
117.617
-3217.3
-1974.73
-3534.79
-3138.84
-3631.17
-3870.11
-3540.54
-4560.53
-3283.74
-5000.37
-2902.66
-5206.04
-2473.6
-5281.35
-2066.78
-5303.54
-1701.1
-5201.1
-1361.88
-4839.44
-1044.67
-4222.54
-754.685
-3499.46
-529.18
-2668.61
265.013
-1009.66
308.358
-2014.64
192.866
-1605.54
265.042
58.2176
720.063
1550.13
1036.3
3931.92
1099.04
4661.08
965.583
3722.84
1982.06
-1636.48
74.6856
-1639.56
77.6357
-1642.7
81.0127
-1645.92
85.2535
-1649.25
90.8058
-1652.72
97.5805
-1656.36
105.751
-1660.22
115.434
-1664.32
126.8
-1668.7
140.03
-1673.4
155.33
-1678.49
172.957
-1683.99
193.206
-1689.97
216.409
-1696.48
242.943
-1703.59
273.256
-1711.38
307.854
-1719.92
347.325
-1729.33
392.372
-1739.68
443.724
-1751.11
502.342
-1763.73
569.323
-1777.66
645.828
-1793.03
733.253
-1810
833.213
-1828.69
947.555
-1849.22
1078.39
-1871.71
1228.11
-1896.18
1399.38
-1922.64
1595.18
-1950.92
1818.74
-1980.73
2073.5
-2011.5
2362.91
-2042.36
2690.3
-2072.01
3058.49
-2098.68
3469.46
-2120.05
3923.81
-2133.32
4420.29
-2135.38
4955.61
-2123.15
5524.63
-2094.17
6121.21
-2047.18
6740.08
-1982.76
7379.17
-1903.63
8041.86
-1814.37
8738
-1720.84
9482.58
-1629.11
10292
-1544.44
11177.8
-1470.17
12136.8
-1407.11
13135.1
-1354.5
14083.5
-1314.43
14810.8
-1287.47
14997.7
-1212.57
13787.2
-1059.21
9280.46
-1546.28
2402.74
-2456.81
1028.14
-3165.21
-1266.33
-3517.78
-2786.27
-3666.67
-3721.23
-3639.46
-4587.74
-3442.93
-5196.9
-3101.67
-5547.29
-2678.16
-5704.86
-2246.18
-5735.52
-1843.55
-5603.73
-1474.19
-5208.8
-1138.58
-4558.15
-835.53
-3802.51
-571.222
-2932.92
80.4337
-1661.32
193.567
-2127.77
164.84
-1576.81
248.979
-25.9276
619.144
1179.96
946.75
3604.31
1028.02
4579.81
898.32
3852.54
2293.4
-1674.07
77.5483
-1677.2
80.7603
-1680.37
84.1851
-1683.62
88.5064
-1686.98
94.1642
-1690.48
101.079
-1694.15
109.426
-1698.04
119.32
-1702.17
130.932
-1706.59
144.445
-1711.33
160.071
-1716.44
178.072
-1721.98
198.744
-1727.99
222.421
-1734.54
249.49
-1741.69
280.405
-1749.51
315.677
-1758.09
355.905
-1767.52
401.806
-1777.9
454.096
-1789.33
513.774
-1801.92
581.916
-1815.79
659.699
-1831.06
748.524
-1847.85
850.004
-1866.28
965.981
-1886.43
1098.55
-1908.38
1250.05
-1932.12
1423.13
-1957.58
1620.65
-1984.56
1845.72
-2012.65
2101.59
-2041.22
2391.48
-2069.3
2718.37
-2095.49
3084.68
-2117.95
3491.92
-2134.36
3940.22
-2141.98
4427.91
-2137.88
4951.51
-2119.3
5506.05
-2084.24
6086.15
-2032
6687.84
-1963.69
7310.86
-1882.37
7960.55
-1792.77
8648.39
-1700.52
9390.33
-1611.34
10202.8
-1529.96
11096.4
-1459.33
12066.2
-1400.18
13076
-1352.31
14035.6
-1318.8
14777.3
-1298.45
14977.4
-1229.61
13718.4
-1109.25
9160.09
-1633.02
2926.51
-2357.71
1752.84
-3085.81
-538.228
-3466.28
-2405.8
-3661.65
-3525.86
-3697.37
-4552.02
-3567.43
-5326.83
-3279.06
-5835.67
-2877.76
-6106.16
-2433.5
-6179.78
-1997.55
-6039.68
-1592.6
-5613.76
-1230.27
-4920.48
-916.322
-4116.46
-624.384
-3224.85
-101.6
-2184.1
93.3371
-2322.71
157.09
-1640.56
264.297
-133.131
524.258
920.004
850.123
3278.45
950.731
4479.2
827.411
3975.86
2574.04
-1713.34
80.6002
-1716.51
83.9286
-1719.71
87.3843
-1722.99
91.7851
-1726.37
97.5433
-1729.89
104.597
-1733.58
113.117
-1737.48
123.221
-1741.63
135.078
-1746.05
148.873
-1750.81
164.825
-1755.94
183.198
-1761.48
204.291
-1767.5
228.443
-1774.06
256.045
-1781.21
287.557
-1789.03
323.498
-1797.6
364.476
-1807.02
411.22
-1817.35
464.433
-1828.73
525.149
-1841.23
594.419
-1854.97
673.436
-1870.05
763.604
-1886.57
866.527
-1904.63
984.036
-1924.28
1118.2
-1945.56
1271.33
-1968.41
1445.98
-1992.71
1644.94
-2018.17
1871.18
-2044.33
2127.75
-2070.46
2417.61
-2095.49
2743.4
-2117.97
3107.16
-2136.01
3509.96
-2147.27
3951.48
-2149.13
4429.76
-2138.86
4941.24
-2114.06
5481.26
-2073.18
6045.27
-2016.05
6630.71
-1944.24
7239.05
-1861.12
7877.43
-1771.43
8558.7
-1680.61
9299.51
-1593.92
10116.1
-1515.66
11018.2
-1448.43
11998.9
-1392.82
13020.3
-1349.2
13992
-1321.41
14749.5
-1306.13
14962.1
-1243.28
13655.6
-1164.46
9081.28
-1713.89
3475.94
-2295.55
2334.5
-2973.23
139.457
-3379.71
-1999.33
-3614.08
-3291.5
-3710.25
-4455.85
-3650.98
-5386.11
-3426.6
-6060.04
-3064.05
-6468.71
-2623.47
-6620.36
-2163.2
-6499.95
-1721.77
-6055.18
-1325.47
-5316.79
-990.868
-4451.06
-679.979
-3535.74
-228.532
-2635.55
11.1555
-2562.39
190.808
-1820.21
339.542
-281.872
436.869
822.672
749
2966.31
868.053
4360.15
757.722
4086.19
2857.08
-1754.2
83.8263
-1757.41
87.1391
-1760.63
90.6004
-1763.92
95.0798
-1767.31
100.933
-1770.84
108.123
-1774.54
116.813
-1778.44
127.123
-1782.58
139.221
-1787
153.296
-1791.75
169.572
-1796.86
188.313
-1802.4
209.823
-1808.4
234.445
-1814.93
262.575
-1822.05
294.678
-1829.83
331.279
-1838.35
372.997
-1847.7
420.564
-1857.94
474.68
-1869.19
536.401
-1881.54
606.76
-1895.06
686.96
-1909.86
778.401
-1926.01
882.68
-1943.58
1001.61
-1962.6
1137.22
-1983.05
1291.78
-2004.85
1467.77
-2027.79
1667.89
-2051.54
1894.93
-2075.54
2151.76
-2098.99
2441.05
-2120.74
2765.15
-2139.28
3125.7
-2152.67
3523.35
-2158.64
3957.44
-2154.66
4425.79
-2138.26
4924.84
-2107.41
5450.41
-2061.01
5998.87
-1999.37
6569.07
-1924.48
7164.16
-1839.92
7792.86
-1750.4
8469.18
-1661.09
9210.2
-1576.86
10031.9
-1501.54
10942.8
-1437.41
11934.8
-1384.95
12967.9
-1345.08
13952.1
-1322.08
14726.5
-1310.3
14950.3
-1253.43
13598.7
-1218.99
9046.83
-1752.22
4009.17
-2253.02
2835.3
-2826.39
712.824
-3258.44
-1567.27
-3523.35
-3026.59
-3675.59
-4303.61
-3688.44
-5373.25
-3536.72
-6211.76
-3228.22
-6777.21
-2808.7
-7039.88
-2337.17
-6971.48
-1864.11
-6528.24
-1430.54
-5750.35
-1065.23
-4816.37
-735.381
-3865.59
-332.55
-3038.37
-80.5974
-2814.34
124.302
-2025.11
289.594
-447.159
358.278
753.988
648.063
2676.53
781.602
4226.61
693.166
4174.63
3135.72
-1796.54
87.1813
-1799.78
90.383
-1803
93.8224
-1806.3
98.3792
-1809.69
104.322
-1813.21
111.645
-1816.9
120.5
-1820.79
131.011
-1824.91
143.345
-1829.31
157.696
-1834.03
174.289
-1839.11
193.393
-1844.6
215.314
-1850.55
240.399
-1857.03
269.049
-1864.08
301.733
-1871.78
338.98
-1880.21
381.421
-1889.43
429.782
-1899.52
484.776
-1910.59
547.463
-1922.69
618.861
-1935.91
700.18
-1950.33
792.816
-1965.99
898.349
-1982.95
1018.57
-2001.2
1155.46
-2020.67
1311.25
-2041.23
1488.33
-2062.63
1689.28
-2084.45
1916.75
-2106.07
2173.37
-2126.6
2461.58
-2144.83
2783.38
-2159.2
3140.07
-2167.77
3531.92
-2168.32
3957.99
-2158.47
4415.94
-2136.03
4902.4
-2099.34
5413.71
-2047.74
5947.28
-1982.01
6503.33
-1904.45
7086.6
-1818.8
7707.21
-1729.68
8380.06
-1641.97
9122.48
-1560.12
9950.04
-1487.55
10870.3
-1426.23
11873.5
-1376.52
12918.2
-1339.84
13915.4
-1320.67
14707.3
-1310.93
14940.5
-1259.75
13547.5
-1267.04
9054.12
-1768.8
4510.93
-2218.6
3285.1
-2663.08
1157.31
-3104.36
-1126
-3390.84
-2740.11
-3592.86
-4101.59
-3676.27
-5289.84
-3602.88
-6285.15
-3361.79
-7018.3
-2981.05
-7420.62
-2513.87
-7438.66
-2017.81
-7024.3
-1547.47
-6220.69
-1145.87
-5217.98
-797.59
-4213.87
-433.256
-3402.71
-185.546
-3062.05
-2.30105
-2208.36
148.419
-597.883
282.342
620.059
551.727
2407.14
694.007
4084.33
627.861
4240.77
3387.02
-1840.24
90.5999
-1843.5
93.6447
-1846.71
97.0378
-1850
101.67
-1853.38
107.698
-1856.88
115.148
-1860.55
124.163
-1864.4
134.869
-1868.49
147.434
-1872.85
162.053
-1877.52
178.957
-1882.54
198.415
-1887.96
220.736
-1893.84
246.275
-1900.22
275.434
-1907.17
308.683
-1914.75
346.559
-1923.03
389.699
-1932.06
438.819
-1941.95
494.662
-1952.75
558.264
-1964.53
630.642
-1977.36
713.007
-1991.28
806.744
-2006.35
913.416
-2022.56
1034.78
-2039.88
1172.78
-2058.21
1329.58
-2077.35
1507.48
-2097
1708.93
-2116.68
1936.43
-2135.69
2192.38
-2153.07
2478.96
-2167.55
2797.87
-2177.56
3150.07
-2181.15
3535.52
-2176.19
3953.03
-2160.5
4400.25
-2132.15
4874.05
-2089.87
5371.43
-2033.44
5890.85
-1964.03
6433.92
-1884.22
7006.8
-1797.82
7620.81
-1709.31
8291.55
-1623.24
9036.42
-1543.7
9870.5
-1473.7
10800.3
-1414.83
11814.6
-1367.47
12870.8
-1333.4
13881.4
-1317.09
14691
-1308.13
14931.6
-1262.03
13501.4
-1302.61
9094.7
-1765.07
4973.39
-2160.06
3680.09
-2504.22
1501.47
-2923.78
-706.436
-3220.33
-2443.55
-3464.13
-3857.8
-3613.01
-5140.96
-3619.99
-6278.17
-3456.96
-7181.33
-3132.18
-7745.39
-2686.79
-7884.05
-2179.47
-7531.63
-1676.08
-6724.07
-1235.45
-5658.61
-865.265
-4584.05
-524.829
-3743.14
-281.575
-3305.31
-86.6963
-2403.23
54.5414
-739.116
211.809
462.792
461.375
2157.58
606.972
3938.73
560.528
4287.22
3615.42
-1885.18
94.0081
-1888.44
96.9023
-1891.63
100.231
-1894.9
104.937
-1898.24
111.044
-1901.71
118.618
-1905.33
127.785
-1909.15
138.68
-1913.18
151.468
-1917.47
166.347
-1922.07
183.551
-1927
203.352
-1932.33
226.062
-1938.09
252.039
-1944.35
281.689
-1951.15
315.484
-1958.56
353.965
-1966.63
397.773
-1975.43
447.615
-1985.03
504.266
-1995.5
568.725
-2006.87
642.015
-2019.2
725.341
-2032.53
820.074
-2046.87
927.756
-2062.2
1050.11
-2078.44
1189.03
-2095.46
1346.59
-2113
1525.02
-2130.7
1726.63
-2148.01
1953.74
-2164.18
2208.55
-2178.19
2492.97
-2188.73
2808.41
-2194.18
3155.52
-2192.68
3534.01
-2182.17
3942.53
-2160.7
4378.77
-2126.62
4839.97
-2079.05
5323.86
-2018.18
5829.98
-1945.52
6361.26
-1863.87
6925.14
-1777.03
7533.97
-1689.31
8203.83
-1604.95
8952.05
-1527.61
9793.16
-1459.95
10732.6
-1403.19
11757.8
-1357.75
12825.4
-1325.68
13849.3
-1311.25
14676.6
-1301.97
14922.3
-1259.84
13459.3
-1321.55
9156.41
-1735.28
5387.11
-2074.08
4018.9
-2348.64
1776.03
-2724.65
-330.429
-3018.64
-2149.55
-3294.5
-3581.94
-3500.04
-4935.42
-3585.03
-6193.18
-3506.94
-7259.43
-3253.58
-7998.74
-2848.64
-8288.99
-2345.06
-8035.21
-1815.91
-7253.22
-1335.69
-6138.83
-937.056
-4982.69
-603.73
-4076.47
-366.92
-3542.12
-164.279
-2605.87
-21.3522
-882.045
158.23
283.205
377.191
1938.61
522.035
3793.89
496.649
4312.6
3815.89
-1931.23
97.334
-1934.46
100.129
-1937.61
103.384
-1940.83
108.16
-1944.13
114.34
-1947.54
122.032
-1951.1
131.347
-1954.85
142.421
-1958.8
155.424
-1963.01
170.555
-1967.5
188.047
-1972.33
208.176
-1977.53
231.259
-1983.14
257.657
-1989.23
287.777
-1995.84
322.093
-2003.02
361.15
-2010.84
405.587
-2019.33
456.11
-2028.58
513.515
-2038.62
578.766
-2049.5
652.891
-2061.24
737.083
-2073.86
832.695
-2087.35
941.245
-2101.65
1064.41
-2116.66
1204.03
-2132.19
1362.11
-2147.94
1540.77
-2163.48
1742.18
-2178.22
1968.48
-2191.34
2221.67
-2201.77
2503.4
-2208.17
2814.81
-2208.93
3156.28
-2202.24
3527.32
-2186.2
3926.48
-2159.05
4351.62
-2119.47
4800.4
-2066.96
5271.34
-2002.06
5765.09
-1926.59
6285.78
-1843.48
6842.04
-1756.5
7446.99
-1669.74
8117.07
-1587.09
8869.41
-1511.84
9717.9
-1446.29
10667.1
-1391.3
11702.9
-1347.33
12781.4
-1316.63
13818.6
-1303.08
14663
-1292.46
14911.7
-1252.83
13419.7
-1324.16
9227.73
-1683.71
5746.67
-1969.89
4305.07
-2199.69
2005.83
-2516.2
-13.9205
-2796.13
-1869.62
-3092.4
-3285.67
-3342.32
-4685.49
-3497.94
-6037.56
-3506.81
-7250.56
-3337.1
-8168.45
-2991.11
-8634.97
-2509.01
-8517.31
-1965.2
-7797.04
-1447.97
-6656.06
-1015.36
-5415.29
-675.651
-4416.18
-443.64
-3774.13
-243.594
-2805.92
-81.841
-1043.79
121.412
79.9525
298.533
1761.49
440.132
3652.29
428.786
4323.95
3986.33
-1978.21
100.517
-1981.38
103.295
-1984.47
106.475
-1987.63
111.316
-1990.85
117.566
-1994.19
125.37
-1997.66
134.823
-2001.31
146.069
-2005.17
159.277
-2009.26
174.647
-2013.63
192.414
-2018.31
212.856
-2023.34
236.294
-2028.77
263.09
-2034.65
293.655
-2041.02
328.461
-2047.93
368.057
-2055.42
413.08
-2063.55
464.236
-2072.37
522.331
-2081.9
588.302
-2092.19
663.176
-2103.23
748.128
-2115.03
844.492
-2127.54
953.753
-2140.67
1077.55
-2154.29
1217.65
-2168.15
1375.98
-2181.93
1554.54
-2195.13
1755.38
-2207.09
1980.45
-2216.96
2231.53
-2223.62
2510.06
-2225.71
2816.91
-2221.67
3152.24
-2209.76
3515.4
-2188.23
3904.95
-2155.57
4318.96
-2110.78
4755.61
-2053.69
5214.25
-1985.2
5696.6
-1907.35
6207.93
-1823.17
6757.86
-1736.32
7360.14
-1650.64
8031.4
-1569.71
8788.47
-1496.4
9644.6
-1432.7
10603.4
-1379.13
11649.3
-1336.16
12738.4
-1306.18
13788.6
-1292.5
14649.3
-1279.53
14898.7
-1240.82
13381
-1312.33
9299.24
-1615.27
6049.61
-1853.12
4542.92
-2055.87
2208.58
-2301.34
231.555
-2565.88
-1605.08
-2869.25
-2982.3
-3148.56
-4406.19
-3362.27
-5823.86
-3454.33
-7158.5
-3375.88
-8246.91
-3105.63
-8905.22
-2664.3
-8958.64
-2120.27
-8341.07
-1572.1
-7204.22
-1102.71
-5884.69
-745.956
-4772.93
-514.899
-4005.18
-332.004
-2988.81
-132.043
-1243.76
94.5102
-146.609
227.088
1628.91
362.306
3517.07
368.135
4318.12
4137.41
-2025.94
103.518
-2029.02
106.369
-2032.02
109.481
-2035.09
114.382
-2038.22
120.695
-2041.45
128.604
-2044.82
138.188
-2048.35
149.597
-2052.07
162.999
-2056.01
178.595
-2060.22
196.62
-2064.72
217.358
-2069.56
241.129
-2074.77
268.299
-2080.39
299.279
-2086.47
334.541
-2093.05
374.634
-2100.16
420.192
-2107.85
471.926
-2116.15
530.637
-2125.1
597.248
-2134.7
672.772
-2144.94
758.369
-2155.79
855.345
-2167.19
965.151
-2179.01
1089.37
-2191.08
1229.72
-2203.11
1388.01
-2214.72
1566.16
-2225.38
1766.04
-2234.38
1989.45
-2240.81
2237.96
-2243.54
2512.78
-2241.21
2814.58
-2232.3
3143.33
-2215.16
3498.27
-2188.25
3878.04
-2150.3
4281
-2100.62
4705.93
-2039.37
5153
-1967.73
5624.96
-1887.93
6128.13
-1803.03
6672.95
-1716.54
7273.65
-1632.05
7946.9
-1552.8
8709.22
-1481.3
9573.1
-1419.17
10541.2
-1366.66
11596.8
-1324.23
12696
-1294.29
13758.7
-1279.48
14634.5
-1263.12
14882.3
-1223.57
13341.4
-1288.79
9364.46
-1536.72
6297.55
-1730.76
4736.96
-1908.36
2386.19
-2088.09
411.287
-2341.92
-1351.26
-2639
-2685.21
-2930.94
-4114.25
-3185.52
-5569.28
-3350.68
-6993.33
-3365.22
-8232.36
-3184.16
-9086.28
-2803.23
-9339.56
-2276.33
-8867.97
-1706.56
-7774
-1199.94
-6391.31
-817.508
-5155.36
-580.217
-4242.47
-406.468
-3162.56
-89.988
-1560.23
133.502
-370.096
162.142
1600.27
288.736
3390.48
308.229
4298.62
4273.15
-2074.22
106.315
-2077.17
109.322
-2080.06
112.374
-2083.01
117.331
-2086.02
123.703
-2089.12
131.709
-2092.35
141.416
-2095.73
152.977
-2099.29
166.56
-2103.06
182.366
-2107.07
200.633
-2111.36
221.643
-2115.95
245.724
-2120.89
273.237
-2126.21
304.597
-2131.95
340.275
-2138.13
380.818
-2144.8
426.858
-2151.98
479.105
-2159.69
538.353
-2167.96
605.512
-2176.77
681.581
-2186.09
767.695
-2195.88
865.131
-2206.03
975.302
-2216.4
1099.74
-2226.75
1240.07
-2236.79
1398.05
-2246.06
1575.43
-2254
1773.98
-2259.86
1995.31
-2262.7