/*--------------------------------*- C++ -*----------------------------------*\
| =========                 |                                                 |
| \\      /  F ield         | OpenFOAM: The Open Source CFD Toolbox           |
|  \\    /   O peration     | Version:  4.1                                   |
|   \\  /    A nd           | Web:      www.OpenFOAM.org                      |
|    \\/     M anipulation  |                                                 |
\*---------------------------------------------------------------------------*/
FoamFile
{
    version     2.0;
    format      ascii;
    class       volVectorField;
    location    "10";
    object      U;
}
// * * * * * * * * * * * * * * * * * * * * * * * * * * * * * * * * * * * * * //

dimensions      [0 1 -1 0 0 0 0];

internalField   nonuniform List<vector> 
6785
(
(1.99754e-14 0.684596 15.7418)
(6.26329e-15 -5.1303 12.0537)
(-2.60031e-15 -4.29251 12.1841)
(5.20266e-15 -3.72378 12.0221)
(1.42098e-15 -3.11934 11.901)
(-7.40348e-16 -2.6665 11.7153)
(2.20607e-16 -2.31766 11.4881)
(5.77928e-16 -2.07349 11.2168)
(2.59858e-17 -1.90801 10.9138)
(2.22936e-15 -1.81727 10.5843)
(4.78039e-16 -1.9225 10.165)
(-1.28613e-15 -2.37188 9.5601)
(8.88706e-16 -2.68986 8.96981)
(-1.09787e-16 -1.33564 8.92616)
(-1.95483e-15 1.73303 7.64152)
(1.16943e-14 -5.6379 22.1817)
(2.27579e-14 -14.7671 21.3399)
(2.014e-15 -13.2426 20.4984)
(7.54936e-15 -11.8215 19.622)
(4.80906e-15 -11.2269 18.5971)
(-1.63784e-16 -10.7093 17.6048)
(6.87545e-15 -10.1209 16.6522)
(2.24053e-15 -9.54489 15.6955)
(1.72758e-16 -8.97915 14.7276)
(6.02715e-15 -8.37639 13.7517)
(2.49766e-15 -7.75133 12.7738)
(-5.20483e-16 -7.27681 11.7831)
(3.97553e-15 -7.01213 10.6938)
(-1.2123e-15 -5.7842 8.97402)
(-2.58957e-15 -1.73323 4.85346)
(1.82281e-14 -7.896 22.187)
(2.39172e-14 -16.7498 24.7016)
(2.45496e-15 -13.8116 23.9907)
(1.94459e-15 -12.4977 22.6552)
(6.87116e-15 -11.8332 21.2612)
(4.61442e-16 -10.9892 20.0207)
(7.3496e-15 -10.1076 18.7902)
(-2.31498e-15 -9.26124 17.5388)
(-1.28962e-15 -8.43711 16.2754)
(3.3757e-15 -7.62045 15.0228)
(1.79886e-15 -6.79735 13.8037)
(1.32725e-15 -5.96894 12.4328)
(7.89392e-16 -4.99169 10.3272)
(-9.13639e-15 -3.27609 6.8915)
(-3.97147e-15 -0.662859 2.40022)
(2.08573e-14 -8.14307 17.987)
(1.96327e-14 -16.3387 24.4549)
(4.76975e-15 -13.4363 23.9539)
(1.91211e-15 -12.5308 22.1187)
(-3.85111e-15 -11.7973 20.6141)
(1.89728e-15 -10.8466 19.2822)
(2.13526e-15 -9.96787 17.922)
(-1.70076e-15 -9.13844 16.5573)
(1.5293e-15 -8.34574 15.2041)
(-2.60191e-15 -7.59685 13.876)
(-2.81641e-15 -6.83658 12.5329)
(5.15681e-15 -5.87552 10.8645)
(4.4309e-15 -4.38777 8.19953)
(-3.09158e-15 -2.24627 3.97866)
(2.18546e-14 0.0122799 -1.35097)
(1.43762e-14 -7.32297 13.9177)
(1.34326e-14 -15.3604 23.7139)
(6.94028e-15 -13.9044 24.0465)
(1.15829e-15 -13.0906 21.9524)
(-5.68198e-15 -12.2992 20.3348)
(3.38997e-15 -11.3797 18.9614)
(1.6681e-15 -10.5632 17.552)
(-1.1024e-15 -9.77027 16.1492)
(1.154e-14 -8.98482 14.7763)
(-3.56412e-15 -8.22722 13.4377)
(-8.52087e-15 -7.46181 12.0843)
(-9.77578e-16 -6.5179 10.4508)
(-2.88262e-15 -5.04794 8.04763)
(-1.85549e-14 -3.17446 4.57307)
(-2.06339e-14 -1.17911 1.48286)
(1.39159e-14 -6.12321 10.8697)
(1.61877e-14 -14.1696 22.679)
(8.59605e-15 -14.3395 24.3341)
(1.10499e-15 -13.5262 22.4679)
(-2.88852e-16 -12.5723 20.7483)
(5.73147e-15 -11.6377 19.3226)
(-9.77761e-15 -10.8168 17.9001)
(6.84462e-16 -9.99784 16.4887)
(1.27528e-15 -9.17182 15.106)
(-4.04832e-15 -8.36591 13.7563)
(-5.00923e-15 -7.55886 12.4013)
(7.6164e-16 -6.63418 10.8198)
(-1.16429e-14 -5.24051 8.63937)
(-7.97128e-15 -3.66911 5.60308)
(-4.85867e-15 -1.44748 3.03463)
(2.11134e-14 -5.11976 8.83832)
(1.93886e-14 -13.0061 21.5847)
(1.18955e-14 -14.2994 24.2373)
(2.83613e-15 -13.5812 22.8793)
(1.40883e-15 -12.5398 21.1359)
(5.2519e-15 -11.6022 19.6451)
(-1.30909e-15 -10.772 18.2087)
(-1.21076e-15 -9.93337 16.7934)
(4.17397e-15 -9.09415 15.4008)
(-4.23391e-15 -8.28081 14.0384)
(-2.48447e-15 -7.47013 12.6759)
(4.63255e-15 -6.578 11.0968)
(-8.0523e-15 -5.18887 8.98964)
(-9.74742e-15 -3.93258 6.09459)
(6.6713e-15 -1.52479 3.98194)
(1.47613e-14 -4.64488 8.03947)
(1.85294e-14 -12.2097 20.8477)
(1.36335e-14 -14.0432 23.8088)
(4.47676e-15 -13.4653 23.0216)
(-5.77843e-16 -12.4675 21.3214)
(3.22597e-15 -11.5576 19.7834)
(-6.12288e-16 -10.7285 18.3372)
(-1.12423e-15 -9.88985 16.9193)
(3.74281e-15 -9.0596 15.5199)
(-2.81509e-15 -8.25653 14.1504)
(-3.12721e-15 -7.44995 12.781)
(5.04099e-15 -6.57515 11.171)
(-3.39758e-16 -5.10265 9.064)
(-1.16411e-14 -4.07032 6.15571)
(1.72282e-15 -1.53892 4.35169)
(1.19111e-14 -4.52188 7.87547)
(1.79505e-14 -11.7342 20.3627)
(1.90109e-14 -13.8038 23.2592)
(4.83634e-15 -13.3768 23.0306)
(1.14243e-16 -12.492 21.4168)
(1.34793e-14 -11.5989 19.8591)
(1.04776e-15 -10.7618 18.4112)
(-1.12178e-15 -9.92446 16.9932)
(1.7192e-14 -9.10032 15.5911)
(-8.88061e-16 -8.30124 14.2196)
(-2.68497e-15 -7.48824 12.846)
(-6.25096e-16 -6.62041 11.1885)
(-2.90053e-16 -5.03355 9.07005)
(-1.06212e-14 -4.21428 6.20269)
(-9.44644e-15 -1.60993 4.64452)
(1.33207e-15 -4.44252 7.62647)
(1.68215e-14 -11.3717 19.8836)
(1.21371e-14 -13.6245 22.7506)
(2.81545e-15 -13.3514 23.0066)
(1.80635e-15 -12.5922 21.5141)
(6.65251e-17 -11.6931 19.9539)
(-3.54231e-15 -10.8383 18.5038)
(-1.41118e-15 -9.9985 17.0853)
(-2.35834e-15 -9.17313 15.6828)
(-3.37296e-16 -8.37151 14.3106)
(-2.09044e-15 -7.5437 12.9337)
(-7.62417e-15 -6.67976 11.2219)
(-8.79007e-15 -4.98638 9.09471)
(-6.36525e-15 -4.37475 6.33292)
(-9.89e-15 -1.73506 4.98382)
(-4.57852e-15 -4.23833 7.05158)
(1.65079e-14 -10.9694 19.2769)
(3.0609e-15 -13.4593 22.3284)
(3.88547e-15 -13.3567 22.9988)
(2.51147e-15 -12.7217 21.6645)
(-1.01691e-14 -11.8123 20.1103)
(-1.19231e-15 -10.938 18.6483)
(2.72215e-16 -10.093 17.2234)
(2.29964e-15 -9.26159 15.8179)
(1.11916e-14 -8.45517 14.4403)
(4.01195e-16 -7.60622 13.0579)
(-2.57293e-15 -6.74614 11.2918)
(-1.17333e-14 -4.96637 9.15636)
(-4.12678e-15 -4.53358 6.50381)
(-3.0607e-14 -1.86346 5.33182)
(2.84255e-16 -3.9304 6.30098)
(1.68615e-14 -10.5027 18.5902)
(-1.76293e-15 -13.2478 21.9508)
(8.3321e-16 -13.301 22.9674)
(2.5712e-15 -12.7733 21.7914)
(-3.1774e-15 -11.8549 20.2598)
(-3.24908e-15 -10.9714 18.7928)
(1.93351e-15 -10.1263 17.3645)
(-1.07693e-14 -9.29246 15.9585)
(-7.35355e-15 -8.48614 14.5735)
(-1.67247e-15 -7.61894 13.1758)
(-1.57255e-14 -6.75176 11.3409)
(-9.42716e-15 -4.90518 9.20049)
(-3.29058e-14 -4.67221 6.69118)
(-4.03421e-14 -1.9806 5.63699)
(-6.74564e-15 -3.67869 5.68563)
(1.28696e-14 -10.0938 17.927)
(4.53297e-15 -13.1086 21.7243)
(-5.85138e-15 -13.376 23.0709)
(4.68673e-15 -12.9704 22.0788)
(-1.09145e-14 -12.0523 20.5383)
(-9.77269e-15 -11.1311 19.0101)
(8.29835e-15 -10.2528 17.5436)
(-1.27963e-14 -9.38431 16.1079)
(-8.04204e-15 -8.55592 14.6988)
(1.2141e-15 -7.64059 13.285)
(-2.10917e-14 -6.77834 11.3708)
(-1.19002e-14 -4.80692 9.1862)
(-2.22345e-14 -4.6881 6.69596)
(-2.62791e-14 -1.99008 5.75522)
(-1.86976e-14 -3.16108 4.73)
(8.44883e-15 -9.34925 17.1661)
(-3.81041e-16 -12.3823 21.109)
(3.36733e-15 -12.6238 22.7295)
(2.83907e-15 -12.3019 21.8721)
(-1.0589e-14 -11.4332 20.5495)
(-5.28172e-15 -10.6213 19.1849)
(4.55228e-15 -9.82653 17.791)
(-1.39999e-14 -9.01883 16.3966)
(-4.50113e-15 -8.21717 14.9594)
(-4.84222e-15 -7.32963 13.4387)
(-2.72798e-14 -6.36618 11.4063)
(-1.19529e-14 -4.68653 9.22464)
(-2.62892e-14 -4.70447 7.13637)
(-2.88016e-14 -1.99439 5.90676)
(-2.13952e-14 -6.43739 10.326)
(7.37293e-15 -11.7881 19.7367)
(3.37416e-15 -14.5808 23.1367)
(1.09461e-15 -15.0831 24.3546)
(1.10573e-15 -14.534 23.1506)
(-6.40158e-15 -13.1746 21.0545)
(-4.62304e-15 -11.7121 18.8872)
(1.50362e-15 -10.3317 17.0568)
(-1.20489e-14 -9.09743 15.3488)
(-6.21215e-15 -8.01457 13.8341)
(-9.86463e-15 -6.83835 12.1272)
(-2.34788e-14 -5.61342 9.76045)
(-1.42046e-14 -3.45101 7.34863)
(-3.31469e-14 -3.28651 4.84638)
(-1.79564e-14 -0.669484 3.12431)
(-1.31567e-15 0.0131394 -1.0222)
(-2.30593e-15 0.167001 -1.8709)
(-1.46143e-15 0.271372 -1.04564)
(-1.32085e-15 0.398597 -0.814225)
(-1.31205e-15 0.337739 -0.680679)
(-2.16869e-15 0.628953 -1.03503)
(-1.52421e-15 0.544091 -0.651871)
(-1.04284e-15 0.615971 -0.45323)
(9.60235e-16 0.501541 -0.342814)
(7.45727e-16 0.737066 -0.512258)
(7.18225e-15 0.705449 -0.474304)
(8.90849e-15 0.752755 -0.356882)
(1.31591e-14 0.777272 -0.310357)
(9.17276e-15 0.659504 -0.353228)
(8.1614e-15 0.834662 -0.272962)
(7.24447e-15 0.657305 -0.198683)
(7.39541e-15 0.81915 -0.177264)
(7.71761e-15 0.736163 -0.354722)
(7.28934e-15 0.912547 -0.286103)
(8.2181e-15 0.789327 -0.176177)
(5.10638e-15 0.576587 -0.371263)
(4.1254e-15 0.811953 -0.325613)
(5.49272e-15 0.574399 -0.253524)
(7.04232e-15 0.948275 -0.224949)
(4.87602e-15 0.624813 -0.396306)
(3.87498e-15 0.955037 -0.351259)
(2.62869e-15 0.607623 -0.289619)
(1.86525e-15 0.873191 -0.345743)
(1.44119e-15 0.627201 -0.46143)
(1.52581e-15 0.900492 -0.352536)
(2.36175e-15 0.979594 -0.41566)
(-1.88945e-16 0.641834 -0.448035)
(1.82144e-16 0.924964 -0.355542)
(-1.19175e-15 0.655985 -0.237916)
(-1.90665e-15 1.05568 -0.357088)
(-9.84555e-16 0.781719 -0.348094)
(-6.85005e-16 1.03226 -0.207093)
(-5.9902e-16 1.03231 -0.270298)
(-2.47093e-16 0.756768 -0.251675)
(-2.45776e-16 1.01355 -0.106498)
(1.4018e-15 0.746071 0.0598596)
(2.16302e-15 1.20837 -0.0238362)
(1.48451e-15 0.825976 -0.0295659)
(1.10468e-15 1.16311 0.133952)
(8.6538e-16 0.866447 0.30711)
(9.24291e-16 1.123 0.199703)
(-1.1778e-15 0.880495 0.183708)
(-1.2643e-15 1.07593 0.404068)
(-1.85807e-15 1.31347 0.338191)
(1.1527e-15 0.97505 0.322636)
(1.20708e-15 1.16703 0.537685)
(1.04025e-15 0.93762 0.804166)
(1.13186e-15 1.31574 0.757119)
(1.07864e-15 0.94757 0.639337)
(1.12994e-15 1.15548 0.847255)
(1.8994e-15 0.91022 1.12473)
(3.04503e-15 1.10329 0.880509)
(3.15232e-15 0.808104 0.844051)
(1.01088e-15 0.929577 1.23724)
(1.14544e-15 1.0097 0.84441)
(1.64087e-15 0.702293 1.38478)
(2.50076e-15 0.790274 1.65632)
(5.77969e-15 0.545577 2.02345)
(1.24404e-14 0.607197 1.45887)
(2.4262e-15 0.396025 2.34057)
(-1.98951e-15 0.382385 2.3377)
(-7.51611e-15 0.00742064 1.96227)
(-9.95442e-15 -0.0456057 2.38992)
(-1.09437e-14 -0.217667 2.16867)
(-1.1165e-14 -0.280177 1.91869)
(-1.71204e-14 -0.612973 2.55478)
(-1.59933e-14 -0.906349 2.57329)
(-1.71957e-14 -1.05233 2.57413)
(-1.84111e-14 -1.15354 2.63021)
(-1.75404e-14 -1.85805 4.20763)
(-1.67856e-14 -2.18793 3.7048)
(-1.89748e-14 -2.38418 3.92296)
(-2.71833e-14 -3.51492 6.02475)
(-2.01214e-14 -3.57988 5.02879)
(-2.14587e-14 -3.6724 5.43199)
(-2.64167e-14 -4.06502 6.58567)
(-2.52995e-14 -4.10286 6.68406)
(-2.51891e-14 -4.34726 6.919)
(-3.06681e-14 -4.85284 8.89539)
(-2.67304e-14 -4.65425 8.43592)
(-2.76219e-14 -4.97913 8.87561)
(-2.70026e-14 -4.96844 9.07716)
(-2.57706e-14 -5.0167 9.27528)
(-2.46022e-14 -5.05462 9.49513)
(-2.31319e-14 -5.09153 9.74534)
(-2.06489e-14 -5.20032 10.1254)
(-1.81301e-14 -5.42627 10.5699)
(-1.72802e-14 -5.73929 12.3713)
(-1.67054e-14 -5.79308 11.9919)
(-1.59142e-14 -5.96134 12.2942)
(-1.53919e-14 -5.90928 12.5295)
(-1.59807e-14 -6.13714 13.0597)
(-1.52396e-14 -6.0637 13.1681)
(-1.467e-14 -6.1139 13.4076)
(-1.40327e-14 -6.18255 13.6424)
(-1.33642e-14 -6.3821 13.9223)
(-7.95032e-15 -6.49577 16.1061)
(-7.73612e-15 -6.80084 15.6933)
(-7.32415e-15 -6.90954 15.9542)
(-7.06172e-15 -6.93057 16.1336)
(-6.63983e-15 -6.96537 16.3676)
(-6.04885e-15 -7.01716 16.6907)
(-5.48228e-15 -7.09474 17.043)
(-5.35463e-15 -7.06812 17.2214)
(-5.08233e-15 -7.13491 17.4788)
(-4.899e-15 -7.31276 17.7561)
(-5.50185e-15 -7.24886 19.6365)
(-7.04966e-15 -7.69052 19.1768)
(-6.64228e-15 -7.75422 19.4508)
(-6.48943e-15 -7.7956 19.649)
(-6.27871e-15 -7.85987 19.8967)
(-5.91124e-15 -7.88322 20.1812)
(-4.40605e-15 -7.93942 20.6199)
(-4.28357e-15 -7.9512 20.9115)
(-4.51892e-15 -8.09513 21.1628)
(-6.75004e-15 -7.70775 22.3186)
(-5.94492e-15 -8.19512 21.5896)
(-6.29124e-15 -8.21411 21.984)
(-6.45426e-15 -8.30316 22.2778)
(-6.29689e-15 -8.30502 22.4103)
(-6.25139e-15 -8.35204 22.6055)
(-6.14501e-15 -8.31422 22.8074)
(-6.15516e-15 -8.24448 23.0641)
(-6.39037e-15 -8.37979 23.5308)
(-5.11694e-15 -7.07834 22.6461)
(-4.53731e-15 -7.95152 22.1254)
(-4.30383e-15 -7.82311 22.1598)
(-4.02334e-15 -7.85039 22.1649)
(-3.1276e-15 -7.90617 22.3249)
(-2.89469e-15 -7.87708 22.2596)
(-2.85407e-15 -7.78255 22.1024)
(-2.7672e-15 -7.63503 21.9251)
(-2.713e-15 -7.37567 21.6617)
(-3.39199e-15 -5.87726 18.2576)
(-2.52393e-15 -6.29623 18.8562)
(-2.47636e-15 -6.01595 18.3757)
(-2.42698e-15 -6.07587 17.9985)
(-2.4044e-15 -6.03617 17.5272)
(-2.34118e-15 -6.02088 16.9793)
(-1.80999e-15 -5.92198 16.2449)
(-2.3466e-15 -5.88092 15.7579)
(-2.67721e-15 -5.65339 15.1192)
(-3.1871e-15 -5.18599 14.3883)
(-6.89632e-15 -2.7882 8.69174)
(-4.72904e-15 -3.69082 11.4228)
(-5.60684e-15 -3.03505 10.2834)
(-6.62104e-15 -3.0638 9.7413)
(-7.74637e-15 -2.83844 8.94643)
(-9.33917e-15 -2.83958 7.97264)
(-1.22696e-14 -2.82342 6.42705)
(-1.47124e-14 -2.45071 4.89369)
(-1.33861e-14 -2.05655 4.54912)
(-9.49007e-15 -1.60309 1.05641)
(-1.22608e-14 -2.12646 2.48003)
(-1.11032e-14 -1.31585 1.30134)
(-4.91509e-15 -0.501196 -1.68844)
(-1.12414e-14 -1.97438 -0.613418)
(-1.19728e-14 -1.19749 -0.637995)
(-8.9115e-15 -1.13326 -0.296414)
(-2.27395e-15 -1.54369 -0.402974)
(-5.00544e-15 -1.01312 -0.149932)
(-6.27279e-16 -1.55814 -0.144165)
(-4.74843e-15 -1.49177 0.0390935)
(-3.21514e-15 -1.21753 0.04443)
(-5.04827e-15 -1.68377 0.256761)
(-3.73751e-15 -1.74594 0.282073)
(-3.13802e-15 -1.62953 0.200499)
(-4.49141e-15 -2.26353 0.469408)
(-3.40012e-15 -1.68042 0.283725)
(-4.8051e-15 -2.40669 0.649403)
(-2.45471e-15 -2.50078 0.553707)
(-3.01568e-15 -2.29272 0.397093)
(-4.64572e-15 -3.14106 0.726728)
(-1.15513e-15 -2.38451 0.459748)
(-2.45311e-15 -3.48219 0.875228)
(-2.01486e-15 -3.45226 0.722837)
(-1.78735e-15 -2.76782 0.535671)
(-3.32703e-15 -3.90545 0.924633)
(-3.05815e-15 -3.92541 0.7557)
(-6.46106e-16 -3.50161 0.590821)
(-1.52694e-15 -4.74176 0.896128)
(-1.09928e-15 -3.31712 0.605271)
(-1.50526e-15 -4.84888 0.980449)
(-4.07188e-16 -4.70771 0.77417)
(-5.23651e-16 -4.20185 0.623368)
(-6.99478e-16 -5.64833 0.876062)
(-4.16643e-16 -4.00437 0.625688)
(-1.23435e-15 -5.83392 0.909653)
(-1.06112e-15 -5.38427 0.704743)
(6.01228e-16 -4.20589 0.555833)
(3.59048e-16 -5.92546 0.738817)
(-2.73388e-15 -5.6214 0.531214)
(1.84713e-16 -4.86016 0.44615)
(4.05355e-16 -6.54156 0.541521)
(6.5973e-16 -4.35316 0.365687)
(1.18283e-15 -6.36849 0.463448)
(1.72705e-15 -5.8579 0.24214)
(6.83825e-16 -5.07934 0.19688)
(1.00291e-15 -6.76775 0.201357)
(4.34174e-17 -4.61169 0.114438)
(6.55531e-16 -6.64367 0.0769448)
(3.26372e-15 -5.86563 -0.0946043)
(9.12073e-16 -4.52674 -0.1202)
(1.25753e-15 -6.20872 -0.276169)
(1.14078e-15 -5.62438 -0.415775)
(8.3034e-16 -4.75328 -0.360848)
(-1.53831e-15 -6.18883 -0.55466)
(6.13045e-16 -4.0757 -0.479965)
(1.2788e-15 -5.6796 -0.775307)
(3.95343e-15 -4.92242 -0.851582)
(1.01894e-15 -4.11257 -0.744652)
(4.96475e-15 -5.20464 -1.06547)
(1.65289e-15 -3.42148 -0.860351)
(2.50774e-15 -4.61777 -1.33825)
(1.63181e-15 -3.75873 -1.32335)
(5.54101e-16 -2.66008 -1.19812)
(-1.74336e-17 -3.33302 -1.81543)
(1.44901e-15 -2.6052 -1.82061)
(2.37578e-15 -1.73257 -1.71537)
(2.02502e-15 -2.1128 -2.47989)
(-1.81622e-15 -0.789582 -2.16153)
(-2.46966e-15 -1.07343 -3.295)
(-3.50637e-15 -0.65266 -3.16218)
(-2.76172e-15 0.580679 -1.86735)
(-8.75447e-16 0.802597 -3.48596)
(1.14444e-16 1.52832 -2.44796)
(-1.34845e-16 1.96085 -3.24697)
(1.99578e-15 2.88166 -4.42231)
(-1.2885e-15 2.89047 -2.91124)
(1.06391e-15 4.05419 -3.84733)
(8.59151e-16 5.75672 -5.28803)
(1.58275e-16 4.86329 -3.40601)
(-6.40158e-16 7.77831 -5.57109)
(2.58588e-16 6.56737 -3.91166)
(2.84423e-16 9.2513 -6.08207)
(1.03278e-15 -0.0718451 9.55994)
(1.03448e-15 -0.0744953 9.58473)
(1.03531e-15 -0.078813 9.59806)
(1.03637e-15 -0.0835865 9.61497)
(1.03739e-15 -0.0901033 9.63168)
(1.03844e-15 -0.0978981 9.64937)
(1.03952e-15 -0.107259 9.66793)
(1.04062e-15 -0.118284 9.68759)
(1.04175e-15 -0.131168 9.70853)
(1.04292e-15 -0.146194 9.73093)
(1.04413e-15 -0.16363 9.75505)
(1.04538e-15 -0.183735 9.78115)
(1.04667e-15 -0.20688 9.8095)
(1.048e-15 -0.233514 9.84046)
(1.04937e-15 -0.264017 9.87441)
(1.05076e-15 -0.298887 9.91177)
(1.05216e-15 -0.338695 9.95304)
(1.05354e-15 -0.383988 9.99878)
(1.05486e-15 -0.435457 10.0496)
(1.05608e-15 -0.494024 10.1063)
(1.05712e-15 -0.560899 10.1697)
(1.05786e-15 -0.637594 10.2407)
(1.05817e-15 -0.725355 10.3205)
(1.05785e-15 -0.825794 10.4101)
(1.05663e-15 -0.940882 10.511)
(1.05415e-15 -1.0729 10.6248)
(1.04994e-15 -1.2246 10.753)
(1.04338e-15 -1.39917 10.8976)
(1.03366e-15 -1.60026 11.0606)
(1.01979e-15 -1.83207 11.2438)
(1.00053e-15 -2.09971 11.4492)
(9.7441e-16 -2.40879 11.6785)
(9.39746e-16 -2.76569 11.9326)
(8.94752e-16 -3.17762 12.2115)
(8.37702e-16 -3.65215 12.5133)
(7.67214e-16 -4.19686 12.8335)
(6.82655e-16 -4.81875 13.1636)
(5.8463e-16 -5.52304 13.4899)
(4.75509e-16 -6.31178 13.7924)
(3.59855e-16 -7.18231 14.0442)
(2.44541e-16 -8.12616 14.2126)
(1.38264e-16 -9.12897 14.2615)
(5.04644e-17 -10.1724 14.1575)
(-1.05121e-17 -11.2381 13.8782)
(-3.96154e-17 -12.3136 13.4209)
(-3.68476e-17 -13.3966 12.8098)
(-7.77632e-18 -14.4978 12.0952)
(3.77984e-17 -15.6381 11.3421)
(8.87133e-17 -16.8388 10.608)
(1.35304e-16 -18.0989 9.91917)
(1.703e-16 -19.3487 9.25331)
(1.86847e-16 -20.3854 8.54139)
(1.75049e-16 -20.7945 7.69189)
(1.2182e-16 -19.8817 6.63364)
(1.92042e-17 -16.19 5.3128)
(-5.13089e-16 -1.01875 4.88691)
(-3.19722e-15 13.8177 15.1991)
(-2.77812e-15 9.13103 20.5145)
(-2.27493e-15 6.57141 20.8127)
(-1.75791e-15 5.12888 19.1786)
(-1.14241e-15 4.25647 16.6107)
(-5.2857e-16 3.61925 13.6488)
(-4.78607e-17 3.45439 10.9622)
(1.90053e-16 3.91216 9.3125)
(3.01143e-16 4.53833 8.42957)
(4.55928e-16 4.64476 7.34277)
(6.63152e-16 4.09379 5.68517)
(8.41057e-16 3.27283 3.83134)
(9.40169e-16 2.70715 2.43395)
(9.79275e-16 1.68481 1.48437)
(1.01282e-15 -3.56447 0.0833912)
(9.97798e-16 1.20282 -1.39239)
(1.06376e-15 3.14288 -0.986478)
(5.24328e-16 -2.5786 -4.50937)
(2.76027e-16 -6.26877 -6.91356)
(1.73206e-16 -7.23622 -8.19609)
(6.53106e-17 -6.29141 -8.97397)
(-6.1734e-18 -3.71433 -8.92375)
(-9.12559e-17 1.04958 -9.87825)
(1.03757e-15 -0.0781693 9.68033)
(1.03924e-15 -0.0808125 9.70702)
(1.04006e-15 -0.0848678 9.72147)
(1.0411e-15 -0.0897649 9.73986)
(1.04209e-15 -0.0963448 9.75794)
(1.0431e-15 -0.104432 9.77708)
(1.04412e-15 -0.114136 9.79708)
(1.04516e-15 -0.125589 9.8182)
(1.04621e-15 -0.138981 9.84059)
(1.04728e-15 -0.154602 9.86445)
(1.04836e-15 -0.172698 9.89003)
(1.04946e-15 -0.193646 9.91762)
(1.05056e-15 -0.217679 9.94756)
(1.05166e-15 -0.245148 9.98015)
(1.05274e-15 -0.276544 10.0158)
(1.0538e-15 -0.312425 10.0548)
(1.0548e-15 -0.353338 10.0978)
(1.0557e-15 -0.399917 10.1452)
(1.05646e-15 -0.452991 10.1978)
(1.05701e-15 -0.513525 10.2562)
(1.05726e-15 -0.582666 10.3214)
(1.05709e-15 -0.661895 10.3942)
(1.05632e-15 -0.752544 10.4756)
(1.05474e-15 -0.856334 10.5669)
(1.05206e-15 -0.97529 10.6693)
(1.04789e-15 -1.11179 10.7845)
(1.04174e-15 -1.26868 10.9139)
(1.03296e-15 -1.44922 11.0593)
(1.02075e-15 -1.6571 11.2226)
(1.0041e-15 -1.89671 11.4056)
(9.81809e-16 -2.17306 11.6098)
(9.52456e-16 -2.49182 11.8367)
(9.14467e-16 -2.85935 12.0869)
(8.66213e-16 -3.28267 12.3597)
(8.06188e-16 -3.76905 12.6527)
(7.33295e-16 -4.32558 12.9605)
(6.47223e-16 -4.95853 13.2739)
(5.48929e-16 -5.67225 13.5785)
(4.41088e-16 -6.4678 13.8539)
(3.28451e-16 -7.3417 14.0736)
(2.17851e-16 -8.28517 14.2059)
(1.17681e-16 -9.28439 14.2173)
(3.67525e-17 -10.3227 14.0783)
(-1.74587e-17 -11.3843 13.771)
(-4.08069e-17 -12.4595 13.2975)
(-3.40114e-17 -13.5476 12.6844)
(-2.88142e-18 -14.6587 11.9815)
(4.30532e-17 -15.8099 11.2503)
(9.32314e-17 -17.0151 10.5453)
(1.38587e-16 -18.2605 9.89254)
(1.72166e-16 -19.4572 9.27533)
(1.8707e-16 -20.3745 8.63692)
(1.73272e-16 -20.5577 7.91254)
(1.2044e-16 -19.2259 7.0557)
(5.11704e-18 -14.4353 5.53655)
(-8.43183e-16 2.87207 4.52142)
(-3.38525e-15 8.97781 15.3429)
(-2.99514e-15 7.60876 20.5858)
(-2.66603e-15 6.61192 21.5641)
(-2.25951e-15 5.66384 20.8053)
(-1.71286e-15 5.08103 18.7615)
(-1.11234e-15 4.56687 16.0519)
(-5.61182e-16 4.32015 13.3055)
(-1.85719e-16 4.54048 11.2212)
(5.36656e-17 4.9385 9.77711)
(2.9061e-16 4.99471 8.33338)
(5.50595e-16 4.49833 6.58165)
(7.64855e-16 3.66056 4.68507)
(8.89285e-16 2.74622 3.09449)
(9.61256e-16 1.14836 1.86859)
(1.01263e-15 -2.96489 0.10671)
(9.63812e-16 0.314686 -1.93751)
(1.00764e-15 2.91346 -1.50727)
(6.25522e-16 -1.31908 -3.67467)
(3.08891e-16 -5.53146 -6.63468)
(1.86486e-16 -7.01164 -8.16919)
(8.38098e-17 -6.39899 -8.91926)
(1.86799e-17 -3.9981 -8.72465)
(-1.07413e-16 0.0717251 -9.18857)
(1.04296e-15 -0.0804187 9.83701)
(1.04449e-15 -0.0832821 9.865)
(1.04521e-15 -0.0870498 9.88034)
(1.04613e-15 -0.091919 9.89975)
(1.047e-15 -0.0984312 9.91882)
(1.04787e-15 -0.106634 9.93902)
(1.04875e-15 -0.116583 9.96016)
(1.04962e-15 -0.128419 9.98247)
(1.05049e-15 -0.14235 10.0061)
(1.05136e-15 -0.158668 10.0312)
(1.05221e-15 -0.177721 10.0581)
(1.05305e-15 -0.199622 10.0871)
(1.05385e-15 -0.224357 10.1187)
(1.05462e-15 -0.252821 10.1529)
(1.05532e-15 -0.285205 10.1903)
(1.05593e-15 -0.322153 10.2312)
(1.0564e-15 -0.364224 10.2762)
(1.05671e-15 -0.412215 10.3257)
(1.05676e-15 -0.466958 10.3805)
(1.05649e-15 -0.529471 10.4412)
(1.05578e-15 -0.600896 10.5087)
(1.05448e-15 -0.682699 10.5837)
(1.0524e-15 -0.776221 10.6675)
(1.04929e-15 -0.883175 10.7611)
(1.04483e-15 -1.00557 10.8657)
(1.0386e-15 -1.14581 10.9828)
(1.03008e-15 -1.30676 11.1138)
(1.01861e-15 -1.49172 11.2605)
(1.00337e-15 -1.70449 11.4244)
(9.83373e-16 -1.9494 11.6072)
(9.57434e-16 -2.23133 11.8101)
(9.24225e-16 -2.55582 12.0342)
(8.82305e-16 -2.92897 12.2795)
(8.30248e-16 -3.35737 12.5448)
(7.66828e-16 -3.84773 12.8269)
(6.9129e-16 -4.40632 13.1196)
(6.03715e-16 -5.03841 13.4127)
(5.05469e-16 -5.74706 13.6911)
(3.99573e-16 -6.53199 13.9341)
(2.90958e-16 -7.38851 14.1154)
(1.86369e-16 -8.30721 14.2047)
(9.37799e-17 -9.27467 14.1714)
(2.12151e-17 -10.2761 13.9903)
(-2.48979e-17 -11.2993 13.6489)
(-4.14904e-17 -12.3391 13.1543)
(-3.00657e-17 -13.4 12.5361)
(3.33456e-18 -14.4956 11.8438)
(4.95478e-17 -15.6433 11.1354)
(9.87432e-17 -16.8536 10.4609)
(1.42552e-16 -18.1053 9.8436)
(1.74366e-16 -19.3001 9.26965)
(1.87192e-16 -20.2015 8.69071)
(1.70979e-16 -20.3575 8.06201)
(1.18146e-16 -18.9688 7.34455)
(-2.37166e-17 -13.7409 5.8938)
(-1.15785e-15 2.52646 5.31742)
(-3.44578e-15 7.76214 15.6683)
(-3.11139e-15 7.14593 20.5018)
(-2.88317e-15 6.51719 21.9577)
(-2.55522e-15 5.86812 21.6918)
(-2.07656e-15 5.4695 20.0072)
(-1.51354e-15 5.03713 17.4847)
(-9.43974e-16 4.7574 14.6831)
(-4.93093e-16 4.88394 12.3014)
(-1.72113e-16 5.23664 10.553)
(1.23316e-16 5.31346 8.978)
(4.32945e-16 4.8552 7.20283)
(6.90623e-16 4.08364 5.29614)
(8.43358e-16 3.21638 3.61076)
(9.36183e-16 1.61098 2.17518)
(1.01275e-15 -2.63601 0.150208)
(9.4877e-16 0.503591 -2.06045)
(9.7051e-16 3.04665 -1.88436)
(7.42049e-16 -0.344738 -2.68629)
(3.61944e-16 -4.8127 -6.08805)
(2.05942e-16 -6.66111 -7.97119)
(1.05709e-16 -6.25514 -8.75323)
(3.83917e-17 -3.94453 -8.4895)
(-2.94602e-17 -0.139124 -8.06891)
(1.04808e-15 -0.0836835 10.0166)
(1.04934e-15 -0.0865085 10.0456)
(1.04989e-15 -0.0904263 10.0615)
(1.05061e-15 -0.095365 10.0816)
(1.05127e-15 -0.101858 10.1013)
(1.05193e-15 -0.109909 10.1222)
(1.05256e-15 -0.11974 10.1441)
(1.05318e-15 -0.131523 10.1672)
(1.05378e-15 -0.145574 10.1917)
(1.05434e-15 -0.1622 10.2178)
(1.05487e-15 -0.181744 10.2458)
(1.05534e-15 -0.204187 10.276)
(1.05574e-15 -0.22971 10.3086)
(1.05606e-15 -0.259011 10.344)
(1.05625e-15 -0.292198 10.3827)
(1.0563e-15 -0.329757 10.4249)
(1.05614e-15 -0.372427 10.4713)
(1.05572e-15 -0.421042 10.5223)
(1.05495e-15 -0.476535 10.5786)
(1.05374e-15 -0.540043 10.6409)
(1.05196e-15 -0.61273 10.7099)
(1.04942e-15 -0.696122 10.7868)
(1.04593e-15 -0.791628 10.8723)
(1.0412e-15 -0.900965 10.9677)
(1.03488e-15 -1.02605 11.0741)
(1.02653e-15 -1.1692 11.1928)
(1.01561e-15 -1.33317 11.3252)
(1.00143e-15 -1.52124 11.4728)
(9.83174e-16 -1.73729 11.6371)
(9.59862e-16 -1.98569 11.8193)
(9.30368e-16 -2.27127 12.0205)
(8.93444e-16 -2.59943 12.2412)
(8.47796e-16 -2.97604 12.481)
(7.92209e-16 -3.40728 12.738)
(7.25732e-16 -3.89933 13.008)
(6.47955e-16 -4.45775 13.2841)
(5.59343e-16 -5.08686 13.5552)
(4.61651e-16 -5.78881 13.8056)
(3.58206e-16 -6.56226 14.0142)
(2.54073e-16 -7.40176 14.1552)
(1.5587e-16 -8.29762 14.2)
(7.10898e-17 -9.23716 14.1211)
(6.94289e-18 -10.2073 13.8976)
(-3.11861e-17 -11.1987 13.5224)
(-4.12606e-17 -12.2097 13.0074)
(-2.54889e-17 -13.248 12.3849)
(9.92942e-18 -14.3294 11.7036)
(5.6242e-17 -15.4718 11.0179)
(1.04348e-16 -16.6833 10.373)
(1.46546e-16 -17.9377 9.78947)
(1.76514e-16 -19.1307 9.25505)
(1.87137e-16 -20.0225 8.7287)
(1.68528e-16 -20.1656 8.1842)
(1.15473e-16 -18.721 7.57493)
(-6.32112e-17 -13.1621 6.20465)
(-1.43236e-15 1.87772 6.25034)
(-3.53067e-15 6.08683 15.815)
(-3.22961e-15 6.23368 20.4919)
(-3.09898e-15 6.31219 22.3206)
(-2.85604e-15 6.04829 22.5463)
(-2.45446e-15 5.91704 21.2815)
(-1.94148e-15 5.6477 19.0294)
(-1.37046e-15 5.38964 16.2576)
(-8.57836e-16 5.40234 13.6316)
(-4.51427e-16 5.62071 11.5426)
(-8.32143e-17 5.63916 9.73815)
(2.87185e-16 5.18924 7.88175)
(5.97101e-16 4.45912 5.95724)
(7.8453e-16 3.62634 4.18242)
(8.99318e-16 2.13013 2.51417)
(1.01274e-15 -2.04511 0.20414)
(9.37834e-16 1.51511 -2.01341)
(9.53901e-16 3.19548 -1.99219)
(8.51862e-16 0.648015 -1.72384)
(4.28223e-16 -3.96179 -5.36274)
(2.31024e-16 -6.24578 -7.64942)
(1.2728e-16 -6.11684 -8.52754)
(4.47177e-17 -3.9943 -8.2227)
(-1.70324e-16 -0.444341 -7.5205)
(1.05207e-15 -0.0881708 10.214)
(1.05297e-15 -0.0911151 10.2436)
(1.05331e-15 -0.0953259 10.26)
(1.05378e-15 -0.100536 10.2807)
(1.05417e-15 -0.107262 10.301)
(1.05455e-15 -0.115448 10.3225)
(1.05488e-15 -0.125269 10.345)
(1.05518e-15 -0.13695 10.3688)
(1.05543e-15 -0.150872 10.394)
(1.05561e-15 -0.167392 10.4209)
(1.05573e-15 -0.186739 10.4497)
(1.05576e-15 -0.209261 10.4807)
(1.05568e-15 -0.235487 10.5142)
(1.05545e-15 -0.265564 10.5506)
(1.05505e-15 -0.2998 10.5902)
(1.05443e-15 -0.338523 10.6336)
(1.05353e-15 -0.382364 10.681)
(1.05228e-15 -0.432 10.7332)
(1.05058e-15 -0.488394 10.7906)
(1.04832e-15 -0.552714 10.854)
(1.04535e-15 -0.626221 10.9242)
(1.04148e-15 -0.710581 11.0021)
(1.03646e-15 -0.807381 11.0888)
(1.03002e-15 -0.918484 11.1853)
(1.02177e-15 -1.04587 11.2927)
(1.01125e-15 -1.19179 11.4122)
(9.97904e-16 -1.35889 11.5452)
(9.81039e-16 -1.55033 11.6929)
(9.59839e-16 -1.76987 11.8566)
(9.33354e-16 -2.02185 12.0373)
(9.00515e-16 -2.31101 12.2359)
(8.60173e-16 -2.64262 12.4521)
(8.11184e-16 -3.02235 12.6852)
(7.52545e-16 -3.45612 12.9324)
(6.83575e-16 -3.94958 13.189)
(6.04186e-16 -4.50766 13.4471)
(5.15198e-16 -5.13381 13.6946)
(4.18707e-16 -5.82934 13.9154)
(3.18286e-16 -6.59214 14.0883)
(2.19079e-16 -7.41617 14.1881)
(1.27502e-16 -8.29172 14.1881)
(5.05351e-17 -9.20697 14.064)
(-5.4272e-18 -10.1507 13.7996)
(-3.59924e-17 -11.1161 13.3927)
(-4.00555e-17 -12.1045 12.8596)
(-2.04115e-17 -13.1261 12.2348)
(1.66746e-17 -14.1985 11.5657)
(6.28917e-17 -15.3396 10.9029)
(1.09837e-16 -16.5554 10.2873)
(1.50407e-16 -17.8153 9.73648)
(1.78515e-16 -19.0104 9.23965)
(1.86892e-16 -19.8985 8.76301)
(1.66136e-16 -20.0361 8.29811)
(1.12902e-16 -18.5267 7.77998)
(-1.11722e-16 -12.6766 6.50413)
(-1.67754e-15 1.10474 7.16054)
(-3.59278e-15 4.55416 15.8859)
(-3.32155e-15 5.49196 20.4294)
(-3.27639e-15 6.03201 22.5456)
(-3.11674e-15 6.12199 23.2063)
(-2.7996e-15 6.25457 22.3653)
(-2.35285e-15 6.1703 20.4388)
(-1.80495e-15 5.98375 17.7919)
(-1.25535e-15 5.9384 15.0194)
(-7.73718e-16 6.04926 12.6278)
(-3.2958e-16 6.00639 10.5749)
(1.0889e-16 5.5498 8.59757)
(4.80467e-16 4.8258 6.61793)
(7.10982e-16 4.01388 4.74581)
(8.50625e-16 2.6858 2.82322)
(1.01249e-15 -1.16049 0.197072)
(9.11376e-16 2.4575 -1.90207)
(9.34459e-16 3.21315 -1.90959)
(9.44247e-16 1.52987 -0.902216)
(5.02362e-16 -3.05519 -4.52656)
(2.61928e-16 -5.78907 -7.21207)
(1.4873e-16 -5.98009 -8.23952)
(6.28586e-17 -4.07124 -7.93196)
(2.60589e-16 -0.901085 -6.89162)
(1.05429e-15 -0.0916758 10.4267)
(1.05476e-15 -0.0949726 10.4569)
(1.05485e-15 -0.099616 10.4737)
(1.05501e-15 -0.105316 10.4949)
(1.05509e-15 -0.112613 10.5157)
(1.05513e-15 -0.12135 10.5378)
(1.05512e-15 -0.131639 10.5608)
(1.05504e-15 -0.143656 10.5851)
(1.05489e-15 -0.157721 10.6107)
(1.05464e-15 -0.174189 10.6381)
(1.05429e-15 -0.193369 10.6673)
(1.05381e-15 -0.21577 10.6989)
(1.05317e-15 -0.241926 10.733)
(1.05234e-15 -0.27219 10.7701)
(1.05127e-15 -0.306996 10.8106)
(1.04991e-15 -0.346768 10.8548)
(1.04819e-15 -0.391968 10.9032)
(1.04602e-15 -0.443189 10.9564)
(1.0433e-15 -0.501226 11.0148)
(1.0399e-15 -0.567085 11.0792)
(1.03565e-15 -0.641987 11.1503)
(1.03035e-15 -0.727602 11.2291)
(1.02373e-15 -0.82564 11.3164)
(1.0155e-15 -0.938129 11.4135)
(1.00526e-15 -1.06724 11.5213)
(9.92537e-16 -1.21535 11.641)
(9.76756e-16 -1.38518 11.7738)
(9.57236e-16 -1.57986 11.9207)
(9.33175e-16 -1.80301 12.0829)
(9.03665e-16 -2.05876 12.2611)
(8.67705e-16 -2.35174 12.4557)
(8.24258e-16 -2.68702 12.6662)
(7.7234e-16 -3.07001 12.891)
(7.11156e-16 -3.5063 13.1268)
(6.40287e-16 -4.00104 13.3682)
(5.59941e-16 -4.55855 13.6062)
(4.71277e-16 -5.18146 13.8284)
(3.7667e-16 -5.87017 14.0179)
(2.79879e-16 -6.62191 14.1537)
(1.86054e-16 -7.4302 14.2116)
(1.01344e-16 -8.28539 14.167)
(3.21771e-17 -9.17654 13.9989)
(-1.58643e-17 -10.0944 13.6956)
(-3.93199e-17 -11.0349 13.2599)
(-3.79057e-17 -12.0024 12.7116)
(-1.48796e-17 -13.0098 12.0866)
(2.3521e-17 -14.0763 11.4309)
(6.94526e-17 -15.2202 10.791)
(1.15172e-16 -16.4452 10.2037)
(1.54108e-16 -17.7163 9.6842)
(1.80343e-16 -18.9198 9.22305)
(1.86456e-16 -19.8125 8.79411)
(1.63951e-16 -19.954 8.40518)
(1.10358e-16 -18.3789 7.96347)
(-1.69278e-16 -12.2995 6.7984)
(-1.89692e-15 0.249672 7.98512)
(-3.6389e-15 3.2475 15.7768)
(-3.3893e-15 4.71165 20.2955)
(-3.41515e-15 5.68069 22.632)
(-3.33589e-15 6.10943 23.6763)
(-3.1082e-15 6.51423 23.2619)
(-2.74141e-15 6.64184 21.7072)
(-2.23963e-15 6.57129 19.2686)
(-1.67934e-15 6.50872 16.4444)
(-1.13837e-15 6.52442 13.7987)
(-6.19921e-16 6.40616 11.4833)
(-1.08652e-16 5.92732 9.34935)
(3.32718e-16 5.1859 7.28981)