/*--------------------------------*- C++ -*----------------------------------*\
| =========                 |                                                 |
| \\      /  F ield         | OpenFOAM: The Open Source CFD Toolbox           |
|  \\    /   O peration     | Version:  4.1                                   |
|   \\  /    A nd           | Web:      www.OpenFOAM.org                      |
|    \\/     M anipulation  |                                                 |
\*---------------------------------------------------------------------------*/
FoamFile
{
    version     2.0;
    format      ascii;
    class       surfaceScalarField;
    location    "8";
    object      phi;
}
// * * * * * * * * * * * * * * * * * * * * * * * * * * * * * * * * * * * * * //

dimensions      [0 3 -1 0 0 0 0];

internalField   nonuniform List<scalar> 
13220
(
-827.82
2127.72
-1290.33
1762.72
-1753.57
1763.14
-2098
1644.33
-2374.7
1576.9
-2573.44
1498.64
-2698.57
1425.02
-2748.8
1350.43
-2725.57
1276.67
-2628.61
1202.94
-2458.95
1130.54
-2202.17
1043.13
-1781.18
878.905
-1063.37
582.393
236.533
-132.84
2260.56
-312.429
1942.31
-537.911
1988.62
-704.392
1810.81
-864.635
1737.15
-984.001
1618.01
-1075.58
1516.6
-1135.21
1410.06
-1169.65
1311.12
-1182.28
1215.57
-1166.73
1114.99
-1099.85
976.238
-925.586
704.646
-559.026
215.836
-322.492
-100.362
2360.93
-255.231
2097.18
-367.279
2100.67
-410.283
1853.82
-445.549
1772.42
-432.435
1604.9
-396.885
1481.06
-335.39
1348.57
-259.312
1235.04
-171.822
1128.09
-71.9675
1015.14
33.2034
871.076
104.901
632.962
92.9518
227.805
-229.541
42.1205
2318.81
39.4369
2099.86
61.2455
2078.86
100.4
1814.66
136.665
1736.15
190.301
1551.26
244.239
1427.12
319.434
1273.38
436.897
1117.58
608.784
956.199
788.952
834.973
901.766
758.258
860.789
673.936
555.027
533.56
325.487
-16.98
2335.79
-54.5359
2137.42
-78.4765
2102.8
-125.554
1861.74
-174.115
1784.71
-234.493
1611.64
-309.629
1502.25
-362.511
1326.26
-331.521
1086.59
-171.871
796.547
74.4347
588.663
311.95
520.743
422.358
563.526
301.456
654.461
626.942
-47.0641
2382.85
-205.207
2295.56
-312.425
2210.02
-440.494
1989.81
-573.817
1918.03
-719.348
1757.17
-881.324
1664.23
-1047.07
1492
-1194.94
1234.46
-1275.7
877.307
-1234.39
547.35
-1018.1
304.452
-646.813
192.229
-254.72
262.359
372.222
115.734
2267.11
-45.4947
2456.79
-121.105
2285.63
-181.453
2050.15
-229.03
1965.61
-275.928
1804.07
-315.601
1703.9
-372.702
1549.1
-485.54
1347.29
-670.226
1061.99
-874.876
751.999
-1002.29
431.864
-930.404
120.34
-595.062
-72.9858
-222.84
276.343
1990.77
236.197
2496.93
240.802
2281.02
283.231
2007.72
357.08
1891.76
431.548
1729.6
525.762
1609.68
609.671
1465.19
647.524
1309.44
586.972
1122.54
429.738
909.234
190.768
670.833
-70.3601
381.465
-155.395
12.0452
-378.235
253.946
1736.82
294.951
2455.92
329.262
2246.71
391.886
1945.1
479.464
1804.18
564.599
1644.46
659.774
1514.51
750.074
1374.89
823.463
1236.05
853.069
1092.94
822.591
939.711
720.212
773.209
530.847
570.826
220.184
322.702
-158.051
140.9
1595.92
199.441
2397.38
238.941
2207.21
287.103
1896.94
350.648
1740.63
407.722
1587.39
462.289
1459.94
508.642
1328.54
542.951
1201.74
558.782
1077.11
547.788
950.705
498.622
822.376
395.72
673.73
224.886
493.539
66.8356
43.9749
1551.95
117.554
2323.8
179.11
2145.65
235.136
1840.91
299.444
1676.33
358.125
1528.7
408.446
1409.62
450.373
1286.61
484.763
1167.35
509.664
1052.2
516.33
944.04
486.18
852.525
392.524
767.385
221.179
664.883
288.015
-29.8631
1581.81
58.3987
2235.54
170.228
2033.82
246.51
1764.63
310.441
1612.4
382.793
1456.35
461.629
1330.78
545.799
1202.44
628.537
1084.61
697.906
982.836
725.607
916.338
679.279
898.855
531.325
915.341
297.87
898.339
585.885
6.87844
1574.93
3.10023
2239.32
37.6222
1999.3
108.647
1693.61
194.347
1526.7
300.802
1349.9
429.169
1202.42
572.812
1058.8
709.251
948.176
806.658
885.429
820.425
902.571
722.082
997.198
515.298
1122.13
254.748
1158.89
840.633
331.35
1243.58
410.371
2160.3
238.024
2171.65
-17.8291
1949.46
-260.819
1769.69
-472.177
1561.26
-614.499
1344.74
-684.431
1128.73
-675.378
939.123
-588.812
798.864
-437.83
751.59
-288.359
847.727
-185.71
1019.48
-112.143
1085.32
728.49
676.265
1679.67
2226.63
2383.81
2360.11
2165.15
1769.6
1302.61
777.24
303.842
-64.66
-217.635
-181.616
-26.1728
-3.98088e-05
-60.0795
60.0795
-60.0795
-60.0796
-60.0796
144.386
-204.466
144.386
144.386
144.386
309.881
-165.495
309.881
309.881
434.957
-125.076
434.957
434.957
434.957
524.484
-89.5276
524.484
524.484
585.206
-60.722
585.206
585.206
585.206
627.189
-41.9827
627.189
627.189
627.189
651.967
-24.778
651.967
651.967
656.709
-4.74189
656.709
656.709
656.709
643.684
13.0247
643.684
643.684
610.681
33.0035
610.681
610.681
610.681
562.809
47.8713
562.809
562.809
562.809
518.404
44.4055
518.404
518.404
547.866
-29.4617
547.866
547.866
547.866
497.515
50.3502
497.515
497.515
497.515
306.661
190.855
306.661
306.661
41.0236
265.637
41.0236
41.0236
41.0236
-304.952
345.975
-304.952
-304.952
-1151.56
846.609
-1151.56
-1151.56
-1151.56
-2479.7
1328.14
-2479.7
-2479.7
-2479.7
-4222.94
1743.24
-4222.94
-4222.94
-6270.85
2047.91
-6270.85
-6270.85
-6145.34
-6020.52
-5889.64
-7988.72
2240.39
-7854.97
-7697.76
-7525.58
-7353.17
-7178.2
-6999.02
-6822.14
-6649.38
-8940.12
2472.89
-8752.82
-8562.96
-8368.84
-8185.82
-8000.23
-7810.3
-7621.18
-7432.6
-10010.8
2767.17
-9801.92
-9589.38
-9373.86
-9158.01
-8933.51
-8692.85
-8449.49
-8205.44
-7962.85
-10570
2834.39
-10298.3
-10024.6
-9749.49
-9474.28
-9199.24
-8903.75
-8597.01
-8291.26
-10505.4
2500.38
-10206.6
-9897.3
-9569.2
-9241.36
-8913.7
-8588.65
-8265.26
-7918.59
-9443.1
1850.73
-9114.2
-8789.4
-8467.1
-8131.19
-7790.87
-7453.35
-7116.1
-6781.93
-7670.38
1221.18
-7330.84
-6992.88
-6656.05
-6322.49
-5994.6
-5667.56
-5348.4
-5039.39
-4744.11
-4641.56
187.613
-4390.41
-4162.09
-3941.45
-3729.86
-3524.5
-3357.46
-3258.34
-3155.03
-2781.85
-254.571
-2681.68
-2580.93
-2580.93
-2425.39
-155.54
-2272.25
-153.139
-2272.25
-2152.32
-119.931
-2152.32
-2061.53
-90.788
-1988.2
-73.3242
-1988.2
-1934.18
-54.0194
-1891.1
-43.0835
-1891.1
-1859.52
-31.5808
-1859.52
-1842.91
-16.6069
-1828.92
-13.9968
-1828.92
-1823.39
-5.53102
-1823.39
-1832.13
8.74139
-1836.88
4.74864
-1836.88
-1856.91
20.0315
-1871.63
14.721
-1871.63
-1895.22
23.5938
-1895.22
-1929.89
34.6721
-1952.42
22.523
-1952.42
-1979.38
26.9679
-1979.38
-2013.5
34.1157
-2030.52
17.0163
-2030.52
-2057.71
27.1924
-2069.65
11.9404
-2069.65
-2084.53
14.8779
-2084.53
-2104.33
19.8039
-2107.02
2.68401
-2107.02
-2109.28
2.26243
-2109.28
-2113.01
3.7281
-2098.06
-14.9477
-2098.06
-2085.93
-12.128
-2059.05
-26.8791
-2059.05
-2028.93
-30.1248
-2028.93
-1997.8
-31.1222
-1954.3
-43.5037
-1954.3
-1906.55
-47.753
-1906.55
-1857.86
-48.6854
-1798.55
-59.31
-1798.55
-1736.75
-61.8062
-1667.94
-68.8018
-1667.94
-1593.67
-74.2699
-1593.67
-1516.07
-77.6035
-1433.86
-82.2121
-1433.86
-1344.81
-89.0524
-1344.81
-1251.16
-93.6461
-1154.78
-96.3752
-1154.78
-1048.9
-105.884
-943.984
-104.917
-943.984
-831.281
-112.703
-831.281
-120.361
-29.8505
-140.069
-29.7732
-175.62
-29.9289
-198.167
-30.1406
-220.349
-30.4692
-241.926
-30.8718
-262.47
-31.3646
-282.651
-31.9352
-302.314
-32.5877
-321.717
-33.3181
-340.871
-34.127
-359.896
-35.0131
-378.837
-35.9761
-397.77
-37.0157
-416.744
-38.1319
-435.816
-39.3247
-455.033
-40.5945
-474.44
-41.9418
-494.082
-43.3672
-513.999
-44.8716
-534.229
-46.4559
-554.808
-48.1209
-575.766
-49.8674
-597.132
-51.6961
-618.927
-53.6071
-641.166
-55.6002
-663.854
-57.6745
-686.987
-59.8283
-710.548
-62.0587
-734.503
-64.3621
-758.809
-66.7338
-783.405
-69.168
-808.222
-71.6583
-833.185
-74.198
-858.225
-76.7803
-883.28
-79.3985
-908.312
-82.0461
-933.309
-84.7168
-958.291
-87.4041
-983.303
-90.1009
-1008.42
-92.7991
-1033.71
-95.4894
-1059.29
-98.1614
-1085.25
-100.803
-1111.72
-103.396
-1138.87
-105.916
-1166.85
-108.32
-1195.77
-110.543
-1225.54
-112.492
-1255.84
-114.041
-1286.08
-115.029
-1315.44
-115.253
-1342.84
-114.462
-1366.93
-112.35
-1386.07
-108.553
-1398.15
-102.642
-1400.34
-94.1338
-1388.74
-82.5251
-1357.92
-67.3639
-1300.18
-48.368
-1204.01
-25.5751
-1052.15
-0.0646887
-813.959
31.181
-395.537
49.0917
410.393
53.199
846.726
56.1235
1242.97
58.6213
1598.82
60.4357
1932.47
60.9703
2215.79
60.8541
2455.28
58.1828
2603.74
55.1746
2735.92
48.5443
2750.06
47.0367
2903.41
38.9437
2776.26
46.6976
3151.24
47.1907
2763.39
59.021
3475.28
4337.42
-32.4881
-140.383
-32.3226
-175.785
-32.4453
-198.044
-32.6367
-220.158
-32.9629
-241.599
-33.3727
-262.06
-33.8825
-282.141
-34.4777
-301.718
-35.1621
-321.033
-35.9307
-340.102
-36.7839
-359.042
-37.7199
-377.901
-38.7384
-396.751
-39.8386
-415.644
-41.0206
-434.634
-42.2841
-453.769
-43.6297
-473.095
-45.0575
-492.654
-46.5683
-512.488
-48.1628
-532.635
-49.8417
-553.129
-51.6056
-574.002
-53.4552
-595.282
-55.3906
-616.991
-57.4114
-639.145
-59.5168
-661.749
-61.7049
-684.799
-63.9729
-708.279
-66.3171
-732.159
-68.7325
-756.393
-71.2134
-780.924
-73.7532
-805.682
-76.3452
-830.593
-78.9827
-855.587
-81.6596
-880.603
-84.3705
-905.601
-87.1104
-930.569
-89.8745
-955.527
-92.6577
-980.52
-95.4538
-1005.62
-98.2555
-1030.91
-101.054
-1056.49
-103.84
-1082.46
-106.603
-1108.96
-109.325
-1136.15
-111.975
-1164.2
-114.502
-1193.24
-116.826
-1223.21
-118.835
-1253.83
-120.385
-1284.53
-121.295
-1314.53
-121.341
-1342.79
-120.252
-1368.02
-117.698
-1388.63
-113.279
-1402.57
-106.526
-1407.09
-96.9081
-1398.36
-83.87
-1370.95
-66.9209
-1317.13
-45.7577
-1225.17
-20.3761
-1077.54
7.54355
-841.878
42.2099
-430.203
57.9371
394.666
57.4293
847.234
58.5427
1241.86
60.1246
1597.24
61.0103
1931.58
60.8211
2215.98
60.1493
2455.96
57.1544
2606.74
53.9262
2739.14
47.3872
2756.6
45.812
2904.98
38.0658
2784.01
45.5883
3143.72
46.362
2762.62
58.4993
3463.14
4283.22
-33.9101
-140.748
-33.7134
-175.982
-33.8157
-197.942
-33.9982
-219.975
-34.3229
-241.275
-34.7375
-261.645
-35.2569
-281.622
-35.8661
-301.109
-36.5682
-320.331
-37.3581
-339.313
-38.2359
-358.164
-39.1995
-376.937
-40.2485
-395.702
-41.3822
-414.51
-42.6004
-433.416
-43.9029
-452.466
-45.29
-471.708
-46.7621
-491.182
-48.3198
-510.931
-49.9636
-530.991
-51.6943
-551.398
-53.5124
-572.184
-55.4182
-593.376
-57.4117
-614.998
-59.4923
-637.064
-61.6585
-659.582
-63.908
-682.55
-66.2376
-705.95
-68.6426
-729.754
-71.1178
-753.918
-73.6566
-778.385
-76.2523
-803.086
-78.8982
-827.947
-81.5879
-852.897
-84.3157
-877.875
-87.0772
-902.839
-89.8683
-927.778
-92.6853
-952.71
-95.5235
-977.682
-98.3772
-1002.77
-101.239
-1028.05
-104.101
-1053.63
-106.956
-1079.61
-109.791
-1106.12
-112.59
-1133.35
-115.32
-1161.47
-117.922
-1190.64
-120.308
-1220.83
-122.355
-1251.78
-123.911
-1282.98
-124.784
-1313.66
-124.744
-1342.83
-123.509
-1369.25
-120.735
-1391.4
-116.006
-1407.3
-108.828
-1414.27
-98.6416
-1408.55
-84.8606
-1384.73
-66.9662
-1335.03
-44.6278
-1247.51
-17.8147
-1104.35
11.5176
-871.21
49.2138
-467.9
68.8554
375.025
65.2675
850.822
62.7201
1244.4
62.5389
1597.42
62.1217
1932
60.7788
2217.32
59.2694
2457.47
55.7202
2610.29
52.1847
2742.68
45.5929
2763.19
44.0478
2906.53
36.4928
2791.56
43.9595
3136.26
44.7889
2761.79
57.881
3450.05
4236.18
-35.5789
-141.161
-35.3534
-176.207
-35.4379
-197.858
-35.6133
-219.8
-35.939
-240.949
-36.3613
-261.223
-36.894
-281.089
-37.5214
-300.482
-38.2462
-319.606
-39.0629
-338.496
-39.9712
-357.256
-40.969
-375.94
-42.0558
-394.616
-43.2305
-413.336
-44.493
-432.153
-45.8431
-451.116
-47.281
-470.27
-48.807
-489.656
-50.4217
-509.316
-52.1256
-529.287
-53.9194
-549.604
-55.8034
-570.3
-57.7777
-591.402
-59.8422
-612.933
-61.9957
-634.911
-64.2364
-657.342
-66.5615
-680.224
-68.9669
-703.544
-71.4475
-727.274
-73.9969
-751.369
-76.6083
-775.774
-79.2743
-800.42
-81.988
-825.234
-84.7432
-850.142
-87.535
-875.083
-90.3596
-900.015
-93.2141
-924.924
-96.0957
-949.828
-99.0008
-974.777
-101.924
-999.844
-104.859
-1025.12
-107.797
-1050.69
-110.732
-1076.67
-113.655
-1103.2
-116.547
-1130.46
-119.373
-1158.65
-122.069
-1187.94
-124.535
-1218.36
-126.639
-1249.68
-128.216
-1281.4
-129.065
-1312.81
-128.943
-1342.95
-127.558
-1370.64
-124.551
-1394.41
-119.485
-1412.36
-111.839
-1421.91
-101.02
-1419.37
-86.4063
-1399.35
-67.4419
-1353.99
-43.7507
-1271.2
-15.2777
-1132.82
16.0224
-902.511
55.409
-507.286
79.8292
350.604
75.9378
854.713
68.8741
1251.47
65.9356
1600.36
63.7812
1934.15
60.924
2220.18
58.2668
2460.12
53.9687
2614.58
49.9772
2746.67
43.3071
2769.86
41.726
2908.11
34.4602
2798.83
41.8524
3128.86
42.7265
2760.91
55.0564
3437.72
4185.35
-37.1702
-141.606
-36.9272
-176.45
-36.9973
-197.787
-37.1687
-219.628
-37.4971
-240.621
-37.9285
-260.792
-38.4754
-280.542
-39.1216
-299.835
-39.8695
-318.858
-40.713
-337.652
-41.6519
-356.317
-42.6837
-374.908
-43.8078
-393.491
-45.023
-412.12
-46.3293
-430.847
-47.7262
-449.719
-49.214
-468.782
-50.7929
-488.077
-52.4636
-507.646
-54.2264
-527.524
-56.0819
-547.749
-58.0304
-568.351
-60.072
-589.36
-62.2059
-610.8
-64.4309
-632.686
-66.7447
-655.028
-69.1439
-677.825
-71.6238
-701.065
-74.1784
-724.719
-76.8008
-748.746
-79.4835
-773.091
-82.2186
-797.685
-84.9991
-822.453
-87.8189
-847.322
-90.6737
-872.228
-93.5606
-897.128
-96.4779
-922.006
-99.4239
-946.882
-102.396
-971.805
-105.388
-996.851
-108.396
-1022.11
-111.411
-1047.67
-114.427
-1073.65
-117.437
-1100.19
-120.423
-1127.47
-123.349
-1155.72
-126.143
-1185.15
-128.696
-1215.81
-130.865
-1247.51
-132.476
-1279.79
-133.316
-1311.97
-133.135
-1343.13
-131.629
-1372.15
-128.426
-1397.61
-123.072
-1417.72
-115.02
-1429.97
-103.647
-1430.74
-88.2956
-1414.7
-68.3767
-1373.91
-43.4605
-1296.12
-13.4544
-1162.83
19.8792
-935.844
61.7666
-549.174
92.0983
320.273
88.9437
857.868
77.5744
1262.84
70.7212
1607.21
66.1451
1938.73
61.3609
2224.96
57.2001
2464.28
51.8965
2619.89
47.2929
2751.28
40.4578
2776.7
38.8379
2909.73
31.8591
2805.81
39.2807
3121.44
40.1342
2760.06
52.9924
3424.86
4141.97
-38.759
-142.074
-38.5057
-176.703
-38.5652
-197.728
-38.7355
-219.458
-39.0688
-240.287
-39.511
-260.349
-40.0737
-279.98
-40.7404
-299.169
-41.5127
-318.086
-42.3846
-336.78
-43.3555
-355.346
-44.4227
-373.841
-45.5855
-392.329
-46.8428
-410.863
-48.1942
-429.496
-49.6394
-448.274
-51.1786
-467.243
-52.8121
-486.444
-54.5402
-505.917
-56.3636
-525.701
-58.2826
-545.83
-60.2975
-566.337
-62.408
-587.25
-64.6134
-608.594
-66.912
-630.387
-69.301
-652.639
-71.7766
-675.35
-74.3333
-698.508
-76.9646
-722.088
-79.6627
-746.048
-82.4193
-770.334
-85.2262
-794.878
-88.0761
-819.603
-90.9632
-844.435
-93.8836
-869.308
-96.8355
-894.176
-99.8182
-919.024
-102.831
-943.869
-105.872
-968.764
-108.937
-993.786
-112.02
-1019.03
-115.114
-1044.58
-118.215
-1070.55
-121.316
-1097.09
-124.402
-1124.38
-127.434
-1152.69
-130.334
-1182.25
-132.985
-1213.16
-135.232
-1245.26
-136.891
-1278.13
-137.74
-1311.12
-137.52
-1343.35
-135.917
-1373.75
-132.55
-1400.98
-126.945
-1423.32
-118.536
-1438.38
-106.669
-1442.61
-90.658
-1430.71
-69.8848
-1394.68
-43.8628
-1322.14
-12.4512
-1194.24
22.9688
-971.264
67.9401
-594.145
104.661
283.552
103.291
859.238
89.0206
1277.11
77.3431
1618.89
69.3725
1946.7
62.1933
2232.14
56.1643
2470.31
49.5711
2626.48
44.1818
2756.67
37.0744
2783.8
35.3993
2911.4
28.693
2812.51
36.2387
3113.9
37.0056
2759.29
49.0463
3412.82
4097.37
-40.331
-142.557
-40.0741
-176.96
-40.1265
-197.676
-40.2987
-219.286
-40.6387
-239.947
-41.0936
-259.894
-41.6735
-279.4
-42.3619
-298.48
-43.16
-317.288
-44.0614
-335.879
-45.0654
-354.342
-46.1691
-372.737
-47.3717
-391.126
-48.6721
-409.563
-50.0696
-428.098
-51.5642
-446.78
-53.1558
-465.651
-54.8447
-484.755
-56.6314
-504.131
-58.5164
-523.816
-60.5
-543.846
-62.5823
-564.254
-64.763
-585.069
-67.0412
-606.316
-69.4147
-628.014
-71.8804
-650.173
-74.434
-672.796
-77.0692
-695.873
-79.7789
-719.378
-82.5544
-743.273
-85.3869
-767.502
-88.2675
-791.997
-91.1887
-816.682
-94.1448
-841.479
-97.1327
-866.32
-100.151
-891.157
-103.201
-915.974
-106.283
-940.787
-109.396
-965.652
-112.535
-990.646
-115.696
-1015.86
-118.872
-1041.4
-122.06
-1067.37
-125.256
-1093.89
-128.446
-1121.19
-131.59
-1149.55
-134.605
-1179.24
-137.363
-1210.4
-139.701
-1242.92
-141.423
-1276.41
-142.299
-1310.24
-142.062
-1343.59
-140.391
-1375.42
-136.894
-1404.48
-131.086
-1429.13
-122.38
-1447.08
-110.106
-1454.88
-93.5555
-1447.26
-72.0929
-1416.15
-45.1794
-1349.05
-12.6128
-1226.81
24.7955
-1008.67
73.0974
-642.447
116.856
239.794
118.191
857.902
102.941
1292.36
86.2261
1635.6
73.7065
1959.22
63.5165
2242.33
55.2454
2478.58
47.0605
2634.67
40.691
2763.03
33.198
2791.3
31.4309
2913.17
24.9943
2818.95
32.7361
3106.15
33.4406
2758.59
44.8235
3401.44
4053.14
-41.8917
-143.046
-41.6365
-177.215
-41.6854
-197.627
-41.8622
-219.109
-42.2109
-239.599
-42.6803
-259.425
-43.279
-278.801
-43.9906
-297.769
-44.8157
-316.463
-45.748
-334.947
-46.7863
-353.304
-47.9278
-371.595
-49.1714
-389.882
-50.5159
-408.218
-51.9608
-426.653
-53.5058
-445.235
-55.151
-464.006
-56.8966
-483.009
-58.7431
-502.284
-60.6909
-521.868
-62.7404
-541.797
-64.8916
-562.103
-67.1439
-582.817
-69.4963
-603.964
-71.9464
-625.563
-74.4906
-647.629
-77.1239
-670.163
-79.8397
-693.157
-82.6298
-716.588
-85.4849
-740.418
-88.3954
-764.591
-91.352
-789.041
-94.3467
-813.687
-97.374
-838.452
-100.431
-863.263
-103.519
-888.07
-106.638
-912.854
-109.791
-937.634
-112.978
-962.465
-116.195
-987.429
-119.436
-1012.62
-122.697
-1038.14
-125.975
-1064.09
-129.269
-1090.6
-132.568
-1117.89
-135.832
-1146.28
-138.97
-1176.1
-141.848
-1207.53
-144.29
-1240.48
-146.091
-1274.61
-147.013
-1309.32
-146.783
-1343.82
-145.073
-1377.13
-141.486
-1408.06
-135.53
-1435.09
-126.608
-1456
-114.042
-1467.45
-97.1249
-1464.18
-75.2157
-1438.06
-47.7313
-1376.54
-14.3863
-1260.15
24.7601
-1047.82
76.1766
-693.863
128.487
187.483
133.169
853.22
118.736
1306.79
97.6446
1656.7
79.5282
1977.33
65.4593
2256.4
54.5205
2489.52
44.4228
2644.76
36.8563
2770.6
28.8504
2799.3
26.9477
2915.07
20.7723
2825.12
28.8079
3098.12
29.4446
2757.95
42.2599
3388.62
4013.19
-43.442
-143.537
-43.1932
-177.464
-43.2418
-197.578
-43.4259
-218.925
-43.7855
-239.239
-44.2711
-258.94
-44.8901
-278.182
-45.6264
-297.032
-46.48
-315.609
-47.4444
-333.982
-48.5183
-352.23
-49.6987
-370.415
-50.9845
-388.597
-52.3744
-406.828
-53.8679
-425.16
-55.4645
-443.638
-57.1645
-462.306
-58.968
-481.206
-60.8755
-500.377
-62.8874
-519.856
-65.0041
-539.68
-67.2254
-559.882
-69.5509
-580.491
-71.9791
-601.535
-74.5074
-623.035
-77.1318
-645.004
-79.8469
-667.448
-82.6452
-690.359
-85.5179
-713.715
-88.4549
-737.481
-91.4458
-761.601
-94.4805
-786.006
-97.5509
-810.617
-100.652
-835.351
-103.781
-860.134
-106.939
-884.911
-110.13
-909.663
-113.357
-934.408
-116.62
-959.202
-119.916
-984.133
-123.241
-1009.3
-126.589
-1034.79
-129.96
-1060.72
-133.357
-1087.2
-136.77
-1114.48
-140.16
-1142.89
-143.433
-1172.82
-146.442
-1204.52
-149.003
-1237.92
-150.901
-1272.71
-151.889
-1308.33
-151.691
-1344.02
-149.977
-1378.84
-146.347
-1411.69
-140.312
-1441.12
-131.284
-1465.03
-118.597
-1480.13
-101.567
-1481.21
-79.5684
-1460.05
-51.9758
-1404.13
-18.3797
-1293.75
22.0696
-1088.27
75.3808
-747.174
139.369
123.495
147.818
844.771
135.681
1318.93
111.584
1680.79
87.2906
2001.63
68.2343
2275.46
54.0716
2503.69
41.7196
2657.11
32.718
2779.6
24.0549
2807.97
21.9664
2917.16
16.0348
2831.06
24.4509
3089.7
25.0149
2757.39
36.6578
3376.98
3972.24
-44.9836
-144.022
-44.7451
-177.703
-44.7969
-197.526
-44.9908
-218.731
-45.3633
-238.866
-45.8669
-258.436
-46.5079
-277.541
-47.2703
-296.27
-48.1537
-314.726
-49.1516
-332.984
-50.2624
-351.119
-51.483
-369.194
-52.8122
-387.267
-54.2488
-405.392
-55.792
-423.617
-57.4415
-441.988
-59.1975
-460.55
-61.0602
-479.343
-63.03
-498.407
-65.1074
-517.779
-67.2926
-537.495
-69.5857
-557.589
-71.9858
-578.091
-74.4914
-599.03
-77.0997
-620.427
-79.8063
-642.298
-82.6051
-664.649
-85.4881
-687.476
-88.4457
-710.758
-91.467
-734.459
-94.5406
-758.527
-97.656
-782.891
-100.805
-807.468
-103.981
-832.175
-107.184
-856.931
-110.416
-881.68
-113.68
-906.399
-116.983
-931.105
-120.325
-955.86
-123.704
-980.753
-127.115
-1005.89
-130.554
-1031.35
-134.021
-1057.25
-137.523
-1083.7
-141.056
-1110.95
-144.581
-1139.37
-147.999
-1169.41
-151.152
-1201.36
-153.848
-1235.22
-155.861
-1270.7
-156.938
-1307.25
-156.8
-1344.16
-155.12
-1380.52
-151.509
-1415.3
-145.493
-1447.14
-136.518
-1474.01
-123.963
-1492.69
-107.195
-1497.98
-85.6142
-1481.64
-58.5352
-1431.21
-25.3561
-1326.93
15.8384
-1129.46
69.5546
-800.891
146.88
46.1693
161.642
830.009
153.151
1327.42
127.718
1706.23
97.3786
2031.97
72.1718
2300.67
54.007
2521.85
39.0136
2672.11
28.3213
2790.29
18.8408
2817.45
16.5076
2919.5
10.7969
2836.77
19.6719
3080.83
20.2436
2756.82
31.1677
3366.05
3929.14
-46.5182
-144.499
-46.2934
-177.927
-46.3513
-197.468
-46.5576
-218.525
-46.9451
-238.479
-47.4685
-257.913
-48.133
-276.877
-48.9231
-295.48
-49.8378
-313.811
-50.8705
-331.952
-52.0195
-349.971
-53.2816
-367.932
-54.6556
-385.893
-56.14
-403.907
-57.7343
-422.022
-59.438
-440.285
-61.2513
-458.737
-63.1744
-477.42
-65.2079
-496.373
-67.3521
-515.635
-69.6074
-535.24
-71.9737
-555.222
-74.4501
-575.615
-77.035
-596.445
-79.7251
-617.737
-82.5159
-639.507
-85.4006
-661.764
-88.3706
-684.505
-91.4156
-707.713
-94.5236
-731.351
-97.6825
-755.368
-100.881
-779.692
-104.11
-804.239
-107.365
-828.92
-110.644
-853.652
-113.951
-878.373
-117.292
-903.058
-120.673
-927.724
-124.097
-952.436
-127.562
-977.289
-131.062
-1002.39
-134.594
-1027.82
-138.16
-1053.68
-141.772
-1080.09
-145.431
-1107.29
-149.1
-1135.7
-152.673
-1165.83
-155.986
-1198.05
-158.833
-1232.37
-160.981
-1268.55
-162.172
-1306.06
-162.127
-1344.2
-160.531
-1382.12
-157.02
-1418.82
-151.169
-1452.99
-142.489
-1482.69
-130.444
-1504.73
-114.477
-1513.94
-93.9962
-1502.12
-68.1998
-1457.01
-36.1848
-1358.94
5.19162
-1170.84
60.0208
-855.72
146.587
-40.3967
174.139
802.458
170.704
1330.85
145.515
1731.42
109.966
2067.52
77.7019
2332.93
54.5011
2545.05
36.3703
2690.24
23.7127
2802.95
13.2394
2827.92
10.5941
2922.14
5.07796
2842.28
14.531
3071.37
15.1374
2756.21
28.1655
3353.03
3888.51
-48.0471
-144.962
-47.839
-178.136
-47.9061
-197.401
-48.1272
-218.304
-48.5316
-238.074
-49.0766
-257.368
-49.7664
-276.187
-50.5857
-294.661
-51.5331
-312.864
-52.6021
-330.883
-53.7906
-348.782
-55.0956
-366.627
-56.5157
-384.473
-58.0493
-402.374
-59.6959
-420.376
-61.4552
-438.525
-63.3271
-456.865
-65.3121
-475.435
-67.4106
-494.275
-69.6232
-513.422
-71.9501
-532.913
-74.3912
-552.781
-76.9456
-573.06
-79.6115
-593.779
-82.3854
-614.963
-85.2625
-636.63
-88.2354
-658.791
-91.2949
-681.446
-94.4298
-704.578
-97.6272
-728.154
-100.874
-752.121
-104.159
-776.408
-107.471
-800.927
-110.806
-825.585
-114.164
-850.294
-117.549
-874.988
-120.968
-899.638
-124.43
-924.262
-127.939
-948.928
-131.492
-973.735
-135.085
-998.794
-138.714
-1024.19
-142.383
-1050.01
-146.109
-1076.36
-149.9
-1103.5
-153.721
-1131.88
-157.463
-1162.09
-160.95
-1194.56
-163.967
-1229.36
-166.271
-1266.24
-167.603
-1304.73
-167.693
-1344.11
-166.25
-1383.56
-162.966
-1422.1
-157.502
-1458.45
-149.486
-1490.7
-138.507
-1515.71
-124.08
-1528.37
-105.554
-1520.64
-81.8913
-1480.67
-51.7241
-1389.11
-10.6598
-1211.9
45.3711
-911.751
141.241
-136.266
184.983
758.716
188.073
1327.76
164.398
1755.09
124.941
2106.97
85.2629
2372.61
55.8343
2574.48
33.8736
2712.2
18.9398
2817.89
7.28437
2839.58
4.25275
2925.17
-1.10397
2847.64
9.01538
3061.25
9.62252
2755.6
20.9785
3341.67
3847.68
-49.5719
-145.409
-49.383
-178.325
-49.4621
-197.322
-49.7003
-218.066
-50.1238
-237.651
-50.6923
-256.799
-51.4089
-275.47
-52.259
-293.81
-53.2406
-311.882
-54.3473
-329.776
-55.5769
-347.552
-56.9262
-365.278
-58.3936
-383.006
-59.9779
-400.789
-61.6782
-418.676
-63.4943
-436.709
-65.4263
-454.933
-67.4746
-473.387
-69.6397
-492.11
-71.9221
-511.14
-74.3222
-530.513
-76.8398
-550.264
-79.474
-570.426
-82.2228
-591.03
-85.0827
-612.103
-88.0483
-633.664
-91.1118
-655.728
-94.2634
-678.294
-97.4909
-701.35
-100.781
-724.864
-104.118
-748.783
-107.492
-773.035
-110.89
-797.529
-114.308
-822.166
-117.747
-846.855
-121.212
-871.523
-124.713
-896.137
-128.259
-920.716
-131.855
-945.331
-135.501
-970.089
-139.19
-995.105
-142.918
-1020.47
-146.693
-1046.24
-150.538
-1072.52
-154.467
-1099.57
-158.451
-1127.89
-162.375
-1158.17
-166.053
-1190.89
-169.259
-1226.15
-171.744
-1263.76
-173.251
-1303.22
-173.531
-1343.83
-172.348
-1384.74
-169.488
-1424.96
-164.76
-1463.18
-157.966
-1497.5
-148.832
-1524.85
-136.892
-1540.31
-121.293
-1536.24
-100.57
-1501.39
-72.6809
-1417
-32.1927
-1252.39
24.8779
-968.821
131.454
-242.843
193.755
696.415
205.023
1316.5
183.879
1776.23
141.934
2148.92
95.1656
2419.38
58.3964
2611.25
31.657
2738.94
14.0518
2835.49
1.01014
2852.62
-2.51324
2928.7
-7.72684
2852.85
3.18871
3050.34
3.85824
2754.93
16.7401
3328.79
3805.11
-51.0939
-145.837
-50.9266
-178.492
-51.0204
-197.228
-51.2779
-217.808
-51.7225
-237.206
-52.3163
-256.205
-53.0616
-274.725
-53.944
-292.928
-54.9614
-310.865
-56.1073
-328.63
-57.3793
-346.28
-58.7743
-363.883
-60.2907
-381.489
-61.9269
-399.153
-63.6824
-416.92
-65.5568
-434.835
-67.5504
-452.939
-69.6634
-471.274
-71.8966
-489.877
-74.2505
-508.786
-76.7254
-528.038
-79.3213
-547.668
-82.0372
-567.71
-84.871
-588.196
-87.819
-609.155
-90.8754
-630.608
-94.0322
-652.571
-97.2785
-675.048
-100.602
-698.027
-103.987
-721.479
-107.418
-745.351
-110.883
-769.57
-114.37
-794.041
-117.875
-818.662
-121.397
-843.332
-124.945
-867.975
-128.53
-892.552
-132.162
-917.084
-135.85
-941.644
-139.591
-966.348
-143.38
-991.316
-147.211
-1016.64
-151.096
-1042.35
-155.063
-1068.55
-159.138
-1095.49
-163.295
-1123.74
-167.416
-1154.05
-171.302
-1187
-174.72
-1222.73
-177.415
-1261.06
-179.143
-1301.5
-179.7
-1343.27
-178.946
-1385.5
-176.83
-1427.08
-173.379
-1466.63
-168.612
-1502.26
-162.355
-1531.1
-154.01
-1548.65
-142.291
-1547.96
-125.078
-1518.6
-99.4829
-1442.59
-59.4179
-1292.46
-0.957063
-1027.28
117.051
-360.85
199.925
613.54
221.213
1295.21
203.614
1793.83
160.437
2192.1
107.481
2472.33
62.6296
2656.1
29.9393
2771.63
9.10887
2856.32
-5.53474
2867.26
-9.68495
2932.85
-14.7509
2857.92
-2.94089
3038.53
-2.26411
2754.26
9.70788
3316.82
3766.13
-52.6145
-146.243
-52.4708
-178.636
-52.582
-197.117
-52.8611
-217.529
-53.3288
-236.739
-53.9498
-255.584
-54.7254
-273.949
-55.6418
-292.012
-56.6965
-309.81
-57.8832
-327.443
-59.1992
-344.964
-60.6414
-362.441
-62.2081
-379.923
-63.8978
-397.463
-65.7099
-415.108
-67.6442
-432.901
-69.7008
-450.883
-71.8802
-469.094
-74.183
-487.574
-76.61
-506.359
-79.1616
-525.486
-81.8376
-544.992
-84.6372
-564.911
-87.5581
-585.276
-90.5965
-606.116
-93.7463
-627.458
-96.9989
-649.319
-100.343
-671.704
-103.765
-694.606
-107.248
-717.996
-110.777
-741.822
-114.337
-766.01
-117.916
-790.462
-121.509
-815.069
-125.118
-839.723
-128.752
-864.341
-132.423
-888.881
-136.145
-913.361
-139.927
-937.862
-143.768
-962.507
-147.66
-987.424
-151.599
-1012.7
-155.596
-1038.36
-159.691
-1064.46
-163.918
-1091.27
-168.261
-1119.39
-172.594
-1149.71
-176.709
-1182.89
-180.363
-1219.08
-183.306
-1258.12
-185.325
-1299.48
-186.301
-1342.3
-186.257
-1385.54
-185.396
-1427.94
-184.032
-1467.99
-182.39
-1503.91
-180.257
-1533.24
-176.636
-1552.27
-169.518
-1555.08
-155.929
-1532.19
-132.094
-1466.43
-91.7693
-1332.78
-30.7236
-1088.33
98.373
-489.947
203.111
508.802
236.162
1262.16
223.37
1806.63
179.944
2235.52
122.008
2530.27
68.9199
2709.19
29.0442
2811.5
4.20601
2881.16
-12.3072
2883.77
-17.2368
2937.78
-22.1219
2862.8
-9.40993
3025.82
-8.65923
2753.51
3.0975
3305.06
3721.48
-54.1351
-146.625
-54.017
-178.754
-54.148
-196.986
-54.4508
-217.226
-54.9436
-236.246
-55.5936
-254.934
-56.4013
-273.142
-57.3535
-291.059
-58.4472
-308.717
-59.6762
-326.214
-61.0377
-343.603
-62.5286
-360.95
-64.1472
-378.304
-65.8919
-395.719
-67.7622
-413.238
-69.7579
-430.905
-71.8791
-448.762
-74.1265
-466.847
-76.5007
-485.199
-79.0026
-503.857
-81.6326
-522.856
-84.3907
-542.234
-87.276
-562.025
-90.2863
-582.265
-93.4176
-602.985
-96.6634
-624.212
-100.015
-645.967
-103.46
-668.259
-106.983
-691.082
-110.568
-714.41
-114.198
-738.193
-117.856
-762.352
-121.53
-786.788
-125.215
-811.384
-128.914
-836.025
-132.635
-860.619
-136.396
-885.12
-140.212
-909.546
-144.092
-933.981
-148.037
-958.562
-152.037
-983.424
-156.086
-1008.65
-160.2
-1034.24
-164.426
-1060.23
-168.814
-1086.88
-173.354
-1114.85
-177.917
-1145.15
-182.283
-1178.52
-186.206
-1215.16
-189.453
-1254.88
-191.878
-1297.05
-193.514
-1340.66
-194.648
-1384.41
-195.832
-1426.75
-197.7
-1466.13
-200.562
-1501.04
-203.875
-1529.92
-205.889
-1550.26
-203.597
-1557.37
-193.104
-1542.68
-169.916
-1489.62
-128.178
-1374.52
-63.2036
-1153.3
77.0331
-630.184
203.882
381.953
249.356
1216.68
242.952
1813.03
200.055
2278.42
138.335
2591.99
77.4832
2770.04
29.3791
2859.61
-0.497622
2911.04
-19.2619
2902.54
-25.1359
2943.65
-29.806
2867.47
-16.1896
3012.2
-15.2903
2752.61
0.0160523
3289.75
3677.99
-55.6569
-146.981
-55.5663
-178.844
-55.7195
-196.833
-56.048
-216.898
-56.5681
-235.726
-57.249
-254.253
-58.0906
-272.3
-59.0802
-290.07
-60.2145
-307.582
-61.4875
-324.941
-62.8962
-342.194
-64.4374
-359.408
-66.1094
-376.632
-67.9108
-393.917
-69.8409
-411.307
-71.8996
-428.846
-74.0871
-446.574
-76.4041
-464.53
-78.8515
-482.752
-81.4301
-501.278
-84.1405
-520.146
-86.9827
-539.391
-89.956
-559.052
-93.058
-579.163
-96.2846
-599.759
-99.6292
-620.868
-103.082
-642.514
-106.631
-664.71
-110.26
-687.453
-113.951
-710.72
-117.685
-734.459
-121.444
-758.593
-125.217
-783.015
-128.997
-807.604
-132.788
-832.234
-136.601
-856.806
-140.454
-881.267
-144.366
-905.634
-148.349
-929.999
-152.402
-954.509
-156.514
-979.312
-160.679
-1004.48
-164.914
-1030.01
-169.276
-1055.87
-173.832
-1082.32
-178.583
-1110.1
-183.395
-1140.34
-188.039
-1173.88
-192.277
-1210.92
-195.918
-1251.23
-198.951
-1294.02
-201.659
-1337.95
-204.72
-1381.35
-209.111
-1422.36
-215.705
-1459.53
-224.604
-1492.15
-234.502
-1520.03
-242.521
-1542.24
-244.545
-1555.35
-235.912
-1551.32
-211.762
-1513.77
-167.066
-1419.22
-96.7557
-1223.61
54.9433
-781.883
204.138
232.758
260.306
1160.51