/*--------------------------------*- C++ -*----------------------------------*\
| =========                 |                                                 |
| \\      /  F ield         | OpenFOAM: The Open Source CFD Toolbox           |
|  \\    /   O peration     | Version:  4.1                                   |
|   \\  /    A nd           | Web:      www.OpenFOAM.org                      |
|    \\/     M anipulation  |                                                 |
\*---------------------------------------------------------------------------*/
FoamFile
{
    version     2.0;
    format      ascii;
    class       volScalarField;
    location    "6";
    object      p;
}
// * * * * * * * * * * * * * * * * * * * * * * * * * * * * * * * * * * * * * //

dimensions      [0 2 -2 0 0 0 0];

internalField   nonuniform List<scalar> 
225
(
3.1313e+10
3.65997e+10
4.29272e+10
4.45866e+10
4.30548e+10
4.15431e+10
4.13147e+10
4.17313e+10
4.19338e+10
4.1723e+10
4.07178e+10
4.03828e+10
4.14797e+10
4.37695e+10
4.40863e+10
5.22799e+10
4.57716e+10
4.07834e+10
3.89613e+10
3.8518e+10
3.83082e+10
3.78761e+10
3.78026e+10
3.77802e+10
3.82918e+10
3.95602e+10
4.03102e+10
4.01125e+10
3.89973e+10
3.64901e+10
4.0754e+10
4.00815e+10
4.02237e+10
4.07446e+10
4.04044e+10
3.94148e+10
3.90329e+10
3.99718e+10
4.08138e+10
4.06877e+10
3.99147e+10
3.87908e+10
3.88501e+10
4.00493e+10
4.04994e+10
4.59305e+10
4.60654e+10
4.58351e+10
4.5677e+10
4.53116e+10
4.46385e+10
4.33918e+10
4.19437e+10
4.10414e+10
4.08019e+10
4.0681e+10
4.0716e+10
4.07597e+10
4.06122e+10
4.03167e+10
4.58432e+10
4.52921e+10
4.44638e+10
4.39554e+10
4.40263e+10
4.45132e+10
4.46655e+10
4.41525e+10
4.38316e+10
4.40473e+10
4.43133e+10
4.46055e+10
4.51486e+10
4.53038e+10
4.50565e+10
4.42652e+10
4.44193e+10
4.46934e+10
4.47468e+10
4.45767e+10
4.44306e+10
4.4488e+10
4.44719e+10
4.45307e+10
4.45935e+10
4.4431e+10
4.36723e+10
4.27768e+10
4.18408e+10
4.15235e+10
4.70071e+10
4.68715e+10
4.70222e+10
4.72247e+10
4.69919e+10
4.60924e+10
4.51863e+10
4.47259e+10
4.45177e+10
4.44303e+10
4.38922e+10
4.32537e+10
4.32871e+10
4.34568e+10
4.33416e+10
4.59308e+10
4.59549e+10
4.62613e+10
4.69656e+10
4.79156e+10
4.85982e+10
4.83858e+10
4.77316e+10
4.72579e+10
4.71589e+10
4.72732e+10
4.76841e+10
4.8028e+10
4.81037e+10
4.79219e+10
4.75792e+10
4.74147e+10
4.70763e+10
4.65861e+10
4.61632e+10
4.60883e+10
4.62279e+10
4.60041e+10
4.53544e+10
4.49778e+10
4.49936e+10
4.53677e+10
4.57499e+10
4.58979e+10
4.57888e+10
4.94136e+10
4.94732e+10
4.95701e+10
4.96391e+10
4.95373e+10
4.93673e+10
4.91796e+10
4.89754e+10
4.8815e+10
4.84445e+10
4.79749e+10
4.77462e+10
4.79697e+10
4.83888e+10
4.86482e+10
4.85792e+10
4.86026e+10
4.86914e+10
4.85792e+10
4.84316e+10
4.82837e+10
4.81176e+10
4.80038e+10
4.79844e+10
4.82576e+10
4.87638e+10
4.90196e+10
4.90573e+10
4.91419e+10
4.90074e+10
4.96516e+10
4.95279e+10
4.93482e+10
4.90354e+10
4.87709e+10
4.84664e+10
4.80789e+10
4.78145e+10
4.76559e+10
4.75224e+10
4.74864e+10
4.75379e+10
4.75405e+10
4.73958e+10
4.69933e+10
5.01298e+10
4.96949e+10
4.92558e+10
4.89802e+10
4.88119e+10
4.86749e+10
4.85775e+10
4.85298e+10
4.85228e+10
4.86071e+10
4.88355e+10
4.90303e+10
4.89604e+10
4.86738e+10
4.80419e+10
4.93677e+10
4.8401e+10
4.7278e+10
4.63076e+10
4.58795e+10
4.57587e+10
4.56208e+10
4.54306e+10
4.52708e+10
4.54356e+10
4.55973e+10
4.53297e+10
4.43402e+10
4.30942e+10
4.15123e+10
2.69849e+10
3.06093e+10
2.60751e+10
2.27318e+10
2.31621e+10
2.40009e+10
2.37303e+10
2.30974e+10
2.259e+10
2.14203e+10
2.00213e+10
1.82013e+10
1.60011e+10
1.41772e+10
1.35937e+10
)
;

boundaryField
{
    inletFace
    {
        type            zeroGradient;
    }
    inlet
    {
        type            zeroGradient;
    }
    inletWalls
    {
        type            zeroGradient;
    }
    outletInlet
    {
        type            fixedValue;
        value           uniform 0;
    }
}


// ************************************************************************* //
