/*--------------------------------*- C++ -*----------------------------------*\
| =========                 |                                                 |
| \\      /  F ield         | OpenFOAM: The Open Source CFD Toolbox           |
|  \\    /   O peration     | Version:  4.1                                   |
|   \\  /    A nd           | Web:      www.OpenFOAM.org                      |
|    \\/     M anipulation  |                                                 |
\*---------------------------------------------------------------------------*/
FoamFile
{
    version     2.0;
    format      ascii;
    class       surfaceScalarField;
    location    "6";
    object      phi;
}
// * * * * * * * * * * * * * * * * * * * * * * * * * * * * * * * * * * * * * //

dimensions      [0 3 -1 0 0 0 0];

internalField   nonuniform List<scalar> 
420
(
4.50552e+06
-4.50254e+06
1.46849e+07
-1.01767e+07
2.01563e+07
-5.4696e+06
1.76143e+07
2.54375e+06
1.22452e+07
5.37066e+06
8.81709e+06
3.42959e+06
6.66524e+06
2.15327e+06
3.76978e+06
2.89689e+06
415990
3.35518e+06
-1.69998e+06
2.11742e+06
-2.80593e+06
1.10737e+06
-4.00385e+06
1.19948e+06
-6.60021e+06
2.59876e+06
-1.56165e+07
9.02375e+06
-1.56152e+07
1.9001e+06
-6.40129e+06
1.13661e+06
-9.41208e+06
312581
-4.64479e+06
888898
1.96824e+06
1.0724e+06
5.18768e+06
-620662
5.12317e+06
-3.56435e+06
5.09725e+06
-6.30412e+06
5.63697e+06
-7.29886e+06
4.35012e+06
-7.57865e+06
2.39739e+06
-7.99085e+06
1.51974e+06
-7.51083e+06
719329
-5.94224e+06
1.03006e+06
3.49801e+06
-416535
-1.2117e+07
6.54296e+06
-1.29437e+07
-541068
-2.32767e+06
-4.47859e+06
-706809
-2.57764e+06
67811.3
1.133e+06
1.47767e+06
2.06134e+06
4.19529e+06
1.47923e+06
5.67989e+06
-101727
7.21828e+06
-1.73877e+06
5.98769e+06
-924375
1.58388e+06
941515
-345444
1.91187e+06
-249182
2.80131e+06
142761
3.73781e+06
-1.34965e+06
-8.37924e+06
-1.43104e+07
1.36724e+06
-2.47e+07
8.06231e+06
-3.23441e+07
6.93754e+06
-3.74803e+07
5.20419e+06
-3.76211e+07
1.61856e+06
-2.20406e+07
-1.13851e+07
-1.32542e+07
-3.10631e+06
-8.97811e+06
2.94238e+06
-7.54257e+06
4.5524e+06
-6.89688e+06
938293
-6.70326e+06
-538781
-6.71078e+06
-242057
-5.97039e+06
-598031
-3.81208e+06
-3.50871e+06
-1.21913e+07
2.17109e+07
-2.0343e+07
3.18025e+07
-2.02871e+06
3.86435e+07
97362.9
4.34546e+07
394193
4.50991e+07
-24008.3
3.52904e+07
-1.57459e+06
2.48014e+07
7.38341e+06
1.7706e+07
1.0038e+07
1.16398e+07
1.06187e+07
3.73804e+06
8.84025e+06
-1.78096e+06
4.98017e+06
343696
-2.36604e+06
8.27793e+06
-8.53165e+06
1.27451e+07
-7.97504e+06
553745
1.61283e+07
-3.64708e+07
1.88349e+07
-4.73512e+06
1.72118e+07
1.72061e+06
1.29973e+07
4.60887e+06
8.13245e+06
4.84089e+06
2.41926e+06
4.13874e+06
5.13149e+06
4.67117e+06
1.00914e+07
5.07818e+06
1.4136e+07
6.57409e+06
1.71893e+07
5.78672e+06
2.21351e+07
34338.6
2.30317e+07
-3.26407e+06
1.79277e+07
-3.42884e+06
5.95798e+06
3.99417e+06
6.51173e+06
-4.53708e+07
8.90005e+06
-5.76344e+07
7.52849e+06
-6.22032e+07
6.28928e+06
-6.4111e+07
6.51663e+06
-6.46384e+07
5.36818e+06
-6.0869e+07
369149
-4.59573e+07
-1.02405e+07
-3.40281e+07
-6.8513e+06
-2.58467e+07
-1.60726e+06
-2.18735e+07
1.81346e+06
-2.14422e+07
-397047
-2.18956e+07
-2.80992e+06
-2.06436e+07
-4.67987e+06
-9.90193e+06
-6.74643e+06
-3.3902e+06
3.7917e+06
5.10821e+06
5.52034e+06
5.79972e+06
7.83161e+06
3.97787e+06
1.26025e+07
1.74551e+06
1.82661e+07
-295784
2.23686e+07
-3.7338e+06
2.4383e+07
-1.22556e+07
2.97359e+07
-1.22045e+07
3.60019e+07
-7.87343e+06
3.67514e+07
1.06352e+06
3.29775e+07
3.37695e+06
2.7846e+07
2.32015e+06
2.15253e+07
1.63964e+06
1.30678e+07
1.7099e+06
9.67762e+06
4.80772e+06
300190
7.06838e+06
3.53878e+06
7.99514e+06
3.05082e+06
8.86268e+06
877710
8.13055e+06
436110
3.01118e+06
1.38536e+06
-1.18567e+07
2.61206e+06
-2.4455e+07
393575
-3.14356e+07
-893153
-3.20921e+07
1.72004e+06
-3.05709e+07
1.85543e+06
-2.75627e+07
-687373
-2.01205e+07
-5.80223e+06
-1.57012e+07
-2.7091e+06
-6.02365e+06
2.32644e+06
-2.0269e+06
3.34203e+06
2.52271e+06
3.34655e+06
3.04601e+06
2.02867e+06
2.1953e+06
-3585.1
2.46815e+06
-1.47568e+06
2.85726e+06
-2.2715e+06
3.40771e+06
-3.89572e+06
2.01764e+06
-4.40512e+06
-384045
-1.75897e+06
-926528
1.71513e+06
-1.61901e+06
4.11548e+06
-3.08976e+06
3.24739e+06
-4.93605e+06
3.41479e+06
-2.87851e+06
-2.60885e+06
-3.74642e+06
1.71806e+06
-2.26481e+06
1.04033e+06
-328732
1.10943e+06
1.21811e+06
647984
3.04518e+06
640696
5.29845e+06
603625
8.22326e+06
482642
1.00999e+07
140711
1.00778e+07
-362148
9.78273e+06
-631629
9.28227e+06
-1.11884e+06
7.9536e+06
-1.76089e+06
3.97121e+06
-953645
2.8756e+06
-1.7829e+06
266726
7.57735e+06
-5.86006e+06
1.34728e+07
-4.85557e+06
1.82846e+07
-3.70287e+06
2.27582e+07
-3.82601e+06
2.63314e+07
-2.93288e+06
2.95037e+07
-2.569e+06
3.17187e+07
-1.73281e+06
3.13798e+07
479140
2.90412e+07
1.97605e+06
2.51771e+07
3.23181e+06
2.01225e+07
3.93538e+06
1.62611e+07
2.09921e+06
1.32996e+07
2.00662e+06
6.64256e+06
4.87298e+06
6.90929e+06
1.46494e+06
-7.32577e+06
1.53654e+06
-4.92765e+06
4.14923e+06
-6.31605e+06
8.61415e+06
-8.29143e+06
1.38379e+07
-8.15744e+06
1.88856e+07
-7.61771e+06
2.36582e+07
-6.50663e+06
3.05109e+07
-6.37437e+06
3.34591e+07
-972849
3.02091e+07
6.48133e+06
2.41348e+07
1.0009e+07
1.70339e+07
9.19959e+06
9.79157e+06
9.24858e+06
3.25117e+06
1.14131e+07
1.01605e+07
-1.05839e+07
3.25803e+06
-2.06044e+07
5.09275e+06
-2.61815e+07
-739061
-2.33887e+07
-1.10843e+07
-1.89862e+07
-1.256e+07
-1.60959e+07
-1.05082e+07
-1.45747e+07
-8.02812e+06
-1.13291e+07
-9.62015e+06
-7.57327e+06
-4.72886e+06
-3.31742e+06
2.22542e+06
2.28081e+06
4.41082e+06
890579
1.05898e+07
-2.04611e+06
1.21854e+07
-1.88894e+06
1.1256e+07
8.27154e+06
1.28866e+06
3.60501e+06
-1.28518e+07
-1.5647e+07
-1.62059e+07
-1.74382e+07
-2.13949e+07
-3.16241e+07
-3.9112e+07
-4.11395e+07
-2.70987e+07
-1.85212e+07
-1.35517e+07
-8.87979e+06
)
;

boundaryField
{
    inletFace
    {
        type            calculated;
        value           nonuniform List<scalar> 
450
(
-1.43577e-05
-2.45396e-05
-2.46392e-05
-2.44153e-05
-2.5692e-05
-2.59559e-05
-2.56172e-05
-1.98737e-05
-1.31506e-05
-1.21966e-05
-1.17736e-05
-8.20184e-06
9.89437e-07
9.02981e-06
-7.44338e-06
-2.25871e-05
-2.03636e-05
-2.44441e-05
-2.44307e-05
-2.36269e-05
-2.38523e-05
-2.26414e-05
-2.36335e-05
-2.64167e-05
-2.88099e-05
-2.75339e-05
-2.41574e-05
-1.86315e-05
-1.80371e-05
-2.00378e-05
-1.64275e-05
-2.39909e-05
-2.51814e-05
-2.53619e-05
-2.55678e-05
-2.55745e-05
-2.5615e-05
-2.59113e-05
-2.66316e-05
-2.8263e-05
-2.96212e-05
-3.00619e-05
-2.92883e-05
-3.04106e-05
-3.05748e-05
-3.25501e-05
-3.02707e-05
-2.83912e-05
-2.7595e-05
-2.73791e-05
-2.69637e-05
-2.65697e-05
-2.69805e-05
-2.76095e-05
-2.79397e-05
-2.82368e-05
-2.86114e-05
-2.86906e-05
-3.00503e-05
-1.9359e-05
-2.88288e-05
-3.00931e-05
-2.96649e-05
-2.96639e-05
-2.9728e-05
-2.94365e-05
-2.86147e-05
-2.81427e-05
-2.80205e-05
-2.79631e-05
-2.79264e-05
-2.779e-05
-2.77655e-05
-2.72059e-05
-3.02707e-05
-2.83351e-05
-2.96341e-05
-2.95921e-05
-2.95487e-05
-2.96737e-05
-2.95412e-05
-2.94022e-05
-2.9375e-05
-2.93273e-05
-2.92419e-05
-2.91894e-05
-2.82399e-05
-2.74335e-05
-2.66833e-05
-2.56351e-05
-2.84529e-05
-3.04174e-05
-2.9304e-05
-2.9402e-05
-2.99525e-05
-2.9993e-05
-3.01247e-05
-3.02073e-05
-3.02809e-05
-3.05904e-05
-3.07106e-05
-3.09699e-05
-3.17211e-05
-3.15435e-05
-1.97462e-05
-2.12902e-05
-3.03244e-05
-2.97124e-05
-2.74643e-05
-2.83769e-05
-2.93841e-05
-3.00095e-05
-2.8785e-05
-2.83512e-05
-2.89962e-05
-2.89121e-05
-2.86556e-05
-2.7593e-05
-2.75241e-05
-2.54101e-05
-1.16193e-05
-2.64528e-05
-2.62394e-05
-2.64296e-05
-2.6632e-05
-2.67713e-05
-2.70159e-05
-2.7128e-05
-2.72463e-05
-2.72126e-05
-2.71773e-05
-2.70531e-05
-2.59769e-05
-2.46724e-05
-1.4314e-05
-2.64019e-05
-2.77089e-05
-2.73202e-05
-2.76257e-05
-2.75934e-05
-2.75263e-05
-2.75725e-05
-2.77709e-05
-2.81249e-05
-2.86107e-05
-2.90261e-05
-2.91688e-05
-2.96658e-05
-3.11605e-05
-1.34361e-05
-1.27589e-05
-2.72088e-05
-2.92622e-05
-2.90637e-05
-2.93144e-05
-2.95033e-05
-2.93318e-05
-2.91732e-05
-2.92016e-05
-2.92237e-05
-2.92662e-05
-2.93308e-05
-2.92096e-05
-2.89785e-05
-2.928e-05
-2.35394e-05
-3.79614e-05
-3.7e-05
-3.61516e-05
-3.57718e-05
-3.53187e-05
-3.47641e-05
-3.43688e-05
-3.41479e-05
-3.37545e-05
-3.33888e-05
-3.26014e-05
-3.11027e-05
-3.0636e-05
-2.53742e-05
-3.42872e-05
-3.74158e-05
-3.81021e-05
-3.8456e-05
-3.86365e-05
-3.84579e-05
-3.81002e-05
-3.75595e-05
-3.7482e-05
-3.67492e-05
-3.55338e-05
-3.24222e-05
-3.07855e-05
-3.01132e-05
-1.90253e-05
-3.55278e-05
-3.93908e-05
-3.69637e-05
-3.76716e-05
-3.80707e-05
-3.81671e-05
-3.81264e-05
-3.80179e-05
-3.79735e-05
-3.81497e-05
-3.81052e-05
-3.74048e-05
-3.64367e-05
-3.41791e-05
-2.47245e-05
-2.82842e-05
-3.76322e-05
-3.49415e-05
-3.60958e-05
-3.75617e-05
-3.80604e-05
-3.81231e-05
-3.80379e-05
-3.8087e-05
-3.82515e-05
-3.83414e-05
-3.82719e-05
-3.81376e-05
-3.77115e-05
-3.12386e-05
1.43577e-05
2.45396e-05
2.46392e-05
2.44153e-05
2.5692e-05
2.59559e-05
2.56172e-05
1.98737e-05
1.31506e-05
1.21966e-05
1.17736e-05
8.20184e-06
-9.89437e-07
-9.02981e-06
7.44338e-06
2.25871e-05
2.03636e-05
2.44441e-05
2.44307e-05
2.36269e-05
2.38523e-05
2.26414e-05
2.36335e-05
2.64167e-05
2.88099e-05
2.75339e-05
2.41574e-05
1.86315e-05
1.80371e-05
2.00378e-05
1.64275e-05
2.39909e-05
2.51814e-05
2.53619e-05
2.55678e-05
2.55745e-05
2.5615e-05
2.59113e-05
2.66316e-05
2.8263e-05
2.96212e-05
3.00619e-05
2.92883e-05
3.04106e-05
3.05748e-05
3.25501e-05
3.02707e-05
2.83912e-05
2.7595e-05
2.73791e-05
2.69637e-05
2.65697e-05
2.69805e-05
2.76095e-05
2.79397e-05
2.82368e-05
2.86114e-05
2.86906e-05
3.00503e-05
1.9359e-05
2.88288e-05
3.00931e-05
2.96649e-05
2.96639e-05
2.9728e-05
2.94365e-05
2.86147e-05
2.81427e-05
2.80205e-05
2.79631e-05
2.79264e-05
2.779e-05
2.77655e-05
2.72059e-05
3.02707e-05
2.83351e-05
2.96341e-05
2.95921e-05
2.95487e-05
2.96737e-05
2.95412e-05
2.94022e-05
2.9375e-05
2.93273e-05
2.92419e-05
2.91894e-05
2.82399e-05
2.74335e-05
2.66833e-05
2.56351e-05
2.84529e-05
3.04174e-05
2.9304e-05
2.9402e-05
2.99525e-05
2.9993e-05
3.01247e-05
3.02073e-05
3.02809e-05
3.05904e-05
3.07106e-05
3.09699e-05
3.17211e-05
3.15435e-05
1.97462e-05
2.12902e-05
3.03244e-05
2.97124e-05
2.74643e-05
2.83769e-05
2.93841e-05
3.00095e-05
2.8785e-05
2.83512e-05
2.89962e-05
2.89121e-05
2.86556e-05
2.7593e-05
2.75241e-05
2.54101e-05
1.16193e-05
2.64528e-05
2.62394e-05
2.64296e-05
2.6632e-05
2.67713e-05
2.70159e-05
2.7128e-05
2.72463e-05
2.72126e-05
2.71773e-05
2.70531e-05
2.59769e-05
2.46724e-05
1.4314e-05
2.64019e-05
2.77089e-05
2.73202e-05
2.76257e-05
2.75934e-05
2.75263e-05
2.75725e-05
2.77709e-05
2.81249e-05
2.86107e-05
2.90261e-05
2.91688e-05
2.96658e-05
3.11605e-05
1.34361e-05
1.27589e-05
2.72088e-05
2.92622e-05
2.90637e-05
2.93144e-05
2.95033e-05
2.93318e-05
2.91732e-05
2.92016e-05
2.92237e-05
2.92662e-05
2.93308e-05
2.92096e-05
2.89785e-05
2.928e-05
2.35394e-05
3.79614e-05
3.7e-05
3.61516e-05
3.57718e-05
3.53187e-05
3.47641e-05
3.43688e-05
3.41479e-05
3.37545e-05
3.33888e-05
3.26014e-05
3.11027e-05
3.0636e-05
2.53742e-05
3.42872e-05
3.74158e-05
3.81021e-05
3.8456e-05
3.86365e-05
3.84579e-05
3.81002e-05
3.75595e-05
3.7482e-05
3.67492e-05
3.55338e-05
3.24222e-05
3.07855e-05
3.01132e-05
1.90253e-05
3.55278e-05
3.93908e-05
3.69637e-05
3.76716e-05
3.80707e-05
3.81671e-05
3.81264e-05
3.80179e-05
3.79735e-05
3.81497e-05
3.81052e-05
3.74048e-05
3.64367e-05
3.41791e-05
2.47245e-05
2.82842e-05
3.76322e-05
3.49415e-05
3.60958e-05
3.75617e-05
3.80604e-05
3.81231e-05
3.80379e-05
3.8087e-05
3.82515e-05
3.83414e-05
3.82719e-05
3.81376e-05
3.77115e-05
3.12386e-05
)
;
    }
    inlet
    {
        type            calculated;
        value           nonuniform List<scalar> 
15
(
-1299.9
-1300.2
-1299.9
-1299.9
-1300.2
-1299.9
-1299.9
-1300.2
-1299.9
-1299.9
-1300.2
-1299.9
-1299.9
-1300.2
-1299.9
)
;
    }
    inletWalls
    {
        type            calculated;
        value           uniform 0;
    }
    outletInlet
    {
        type            calculated;
        value           nonuniform List<scalar> 
15
(
-608245
6.58517e+06
7.21695e+06
2.01306e+06
-9.62938e+06
4.25328e+06
2.75922e+06
609093
-4.07138e+06
-9.27593e+06
-1.2001e+07
-8.28908e+06
1.57179e+07
2.77749e+06
1.97116e+06
)
;
    }
}


// ************************************************************************* //
