/*--------------------------------*- C++ -*----------------------------------*\
| =========                 |                                                 |
| \\      /  F ield         | OpenFOAM: The Open Source CFD Toolbox           |
|  \\    /   O peration     | Version:  4.1                                   |
|   \\  /    A nd           | Web:      www.OpenFOAM.org                      |
|    \\/     M anipulation  |                                                 |
\*---------------------------------------------------------------------------*/
FoamFile
{
    version     2.0;
    format      ascii;
    class       volVectorField;
    location    "6";
    object      U;
}
// * * * * * * * * * * * * * * * * * * * * * * * * * * * * * * * * * * * * * //

dimensions      [0 1 -1 0 0 0 0];

internalField   nonuniform List<vector> 
225
(
(9.88372e-08 113552 -8950.43)
(1.67928e-07 -54135.4 -91236)
(1.70903e-07 -30020 -60899.5)
(1.68859e-07 -6656.67 -19296.8)
(1.77731e-07 10688.4 -7901.45)
(1.79798e-07 -7743.08 -18844.2)
(1.7726e-07 -8212.29 -24100.5)
(1.37478e-07 -11291.8 -11129.2)
(9.11542e-08 -10595.7 11241.4)
(8.42971e-08 -5301.6 12953.2)
(8.13146e-08 -3931.73 3731.24)
(5.70493e-08 -2020.61 -1889.89)
(-7.32237e-09 -1609.5 -13284.4)
(-6.44959e-08 16532.7 80651.6)
(6.35119e-08 -249699 -52361.5)
(1.55772e-07 333159 -88322.6)
(1.4099e-07 -30411.4 -166371)
(1.69222e-07 -18010.6 -87204.4)
(1.68781e-07 -17440.6 2955.25)
(1.63583e-07 -39433 48080)
(1.65125e-07 -46667.4 38399)
(1.56534e-07 -39351.2 35154.4)
(1.63629e-07 -24450.8 48641.5)
(1.82877e-07 -22524.9 44942.9)
(1.99226e-07 -23868.6 24773.2)
(1.90634e-07 -9063.3 18129.2)
(1.67237e-07 -10243.1 17683.2)
(1.28581e-07 -27735 22629.3)
(1.24882e-07 -20714.9 37946.7)
(1.38718e-07 -27173.8 -108258)
(1.1474e-07 11287 -98873.6)
(1.66085e-07 17290.1 -63759)
(1.74346e-07 -3488.62 -60123)
(1.76361e-07 -19850 -49400.3)
(1.77001e-07 -25975.5 -39818.9)
(1.77068e-07 -33934.9 -16536.7)
(1.78005e-07 -41306.7 -7229.82)
(1.79379e-07 -30210.9 4809.18)
(1.84387e-07 -14458.1 2365.76)
(1.9632e-07 -16251.8 -9120.74)
(2.05062e-07 -16525 -12375.7)
(2.08137e-07 -18737.8 -16166.7)
(2.03523e-07 -26290.8 -11876.2)
(2.10527e-07 -28363.1 -21362.5)
(2.11688e-07 2751.4 -47094.8)
(2.24171e-07 -14276.1 -131635)
(2.09914e-07 -7715.69 -5724.28)
(1.96623e-07 -17559.5 18998.7)
(1.91059e-07 -9610.99 37390.4)
(1.89668e-07 -12327.3 64423.9)
(1.86521e-07 -28357 90119.2)
(1.8396e-07 -50029.5 86224.6)
(1.87028e-07 -50659.7 86739.2)
(1.91023e-07 -35029.7 64670.6)
(1.93445e-07 -23147.5 -5148.74)
(1.95815e-07 -15258.8 -21662.3)
(1.97869e-07 -19141.6 -10556.5)
(1.98645e-07 -15079.6 -20509)
(2.08782e-07 -2859.38 -56584.7)
(1.33341e-07 -1515.73 -197900)
(2.0054e-07 -19098 -58953.5)
(2.09665e-07 -27007.7 -45653.3)
(2.03475e-07 -65322.4 -81598.5)
(2.06499e-07 -79841.2 -136809)
(2.07206e-07 -77650.3 -227091)
(2.06709e-07 -143891 -442625)
(1.99428e-07 -69336.1 -164884)
(1.93908e-07 -55241.4 -52145)
(1.93893e-07 -50693.2 -1931.24)
(1.93851e-07 -42060.9 -5995.9)
(1.93543e-07 -27749.6 -15439.5)
(1.92656e-07 -24949.6 -27974.7)
(1.92512e-07 -27799.2 -38702.2)
(1.88623e-07 -17580.6 -66203.6)
(2.10085e-07 4209.01 -67393.9)
(1.95507e-07 -12282.4 -732716)
(2.04227e-07 -17049.2 -185933)
(2.0454e-07 -12800.3 -90548.1)
(2.04562e-07 -22726.7 -46920.3)
(2.05097e-07 -43094.5 -29165.2)
(2.04263e-07 -41723.7 -20168.7)
(2.03548e-07 -39250.8 -9931.34)
(2.02917e-07 -50852.5 -19885.3)
(2.02676e-07 -52426.5 -22741.5)
(2.02438e-07 -32958.8 -29339.6)
(2.00881e-07 -57978.9 -112924)
(1.97818e-07 -95389.6 -191266)
(1.89919e-07 -68896.6 -270333)
(1.83229e-07 -55880.8 -200134)
(1.7675e-07 33380.9 33327.5)
(1.96341e-07 55756.5 20958.6)
(2.10985e-07 37616.8 -438.355)
(2.02452e-07 48404.2 40608.5)
(2.0357e-07 28331.8 78550.4)
(2.07414e-07 8537.99 92068.6)
(2.07472e-07 13694.8 80538.5)
(2.08574e-07 7347.94 74705)
(2.09168e-07 -10111 68598.8)
(2.09905e-07 -23893.6 74404)
(2.11798e-07 -18462.2 62312.4)
(2.12411e-07 -19862 23139.4)
(2.13954e-07 -11349.8 18187.9)
(2.19627e-07 -11322.5 -16689.8)
(2.18814e-07 -22282.4 76.7931)
(1.35971e-07 5196.05 -44351.8)
(1.47411e-07 35458.2 78975.1)
(2.0995e-07 -92096.5 -28077.7)
(2.06482e-07 -58772.9 -44077.3)
(1.89144e-07 -46144.4 -59278.3)
(1.96466e-07 -77535.8 -84015.1)
(2.04829e-07 -101140 -147588)
(2.0458e-07 -94474.4 -359239)
(1.99292e-07 -73994.3 -274606)
(1.97114e-07 -99522.1 -175954)
(2.00731e-07 -66235.2 -83681.7)
(2.00172e-07 -72786.3 -85746.5)
(1.98906e-07 -87926.2 -122486)
(1.90349e-07 -55722.2 -121205)
(1.90563e-07 -62537.8 -170450)
(1.76107e-07 4697.58 30948)
(8.04389e-08 4902.95 -4701.77)
(1.8313e-07 -35196.2 17317.2)
(1.81505e-07 -46814.9 14831.2)
(1.82969e-07 -46411 -14583.3)
(1.8437e-07 -42509.6 -41960.4)
(1.85126e-07 -36862.9 -46543)
(1.87028e-07 -20086.6 -35446.2)
(1.87804e-07 -21319.6 -63007.2)
(1.89677e-07 555.608 -90569.3)
(1.8839e-07 22092.6 -50805.3)
(1.88145e-07 13748.2 -34142.8)
(1.87852e-07 -689.849 -54257.2)
(1.79835e-07 -3085.57 -55064.5)
(1.70804e-07 -11357.7 -3257.93)
(9.94794e-08 -2945.38 67529.8)
(1.83684e-07 -5557.08 -30027.7)
(1.91825e-07 -33329.5 -4128.31)
(1.89694e-07 -31138.6 84.2152)
(1.91609e-07 -28358.8 -5780.88)
(1.91026e-07 -27135.8 12153.6)
(1.90475e-07 -34464.9 28357.2)
(1.91138e-07 -32743.4 47787.9)
(1.92255e-07 -26985.8 26830.6)
(1.94608e-07 -8109.15 -20476.7)
(1.98448e-07 6096.95 -35569.4)
(2.00944e-07 6419.17 -58666.7)
(2.02968e-07 5230.39 -106513)
(2.06764e-07 -15468.1 -207875)
(2.1572e-07 -8721.08 -136756)
(9.25069e-08 13801.6 -184010)
(8.82222e-08 -1906.71 -34157.6)
(1.88657e-07 -17778.8 4257.49)
(2.0351e-07 -12551 15038.9)
(2.01198e-07 -16944.4 9122.61)
(2.03543e-07 -17434 5304.69)
(2.04845e-07 -18992.6 1697.55)
(2.03055e-07 -21813 783.008)
(2.01716e-07 -22161.9 -856.016)
(2.02249e-07 -22100 -7775.07)
(2.02023e-07 -21096.7 -11448.9)
(2.02691e-07 -16807.7 -16376.7)
(2.02808e-07 -15761 -24445.2)
(2.02208e-07 -12402.4 -22871.9)
(2.00175e-07 -21322.5 -44316.1)
(2.03861e-07 17909.1 -29944.6)
(1.62961e-07 -6580.99 -33151.4)
(2.62156e-07 -5794.93 -47622.6)
(2.57241e-07 -14487.9 -40000.6)
(2.50273e-07 -20077.9 -36108.7)
(2.47292e-07 -25106.9 -29452.1)
(2.4441e-07 -31762.2 -23860.5)
(2.40668e-07 -40225.5 -23229.1)
(2.37165e-07 -42396.5 -25533.5)
(2.36323e-07 -39150.1 -26491.2)
(2.33679e-07 -35023.5 -26260.5)
(2.31147e-07 -30076 -26931.1)
(2.255e-07 -26956.3 -25010.9)
(2.14776e-07 -28352.9 -6558.69)
(2.1271e-07 -36721.2 -5652.97)
(1.75118e-07 2155.9 39190.1)
(2.38275e-07 -4664.08 -115618)
(2.59683e-07 -5981.76 -79741.7)
(2.63288e-07 7609.14 -66160.1)
(2.66673e-07 -549.005 -93286.6)
(2.67476e-07 -4003.11 -98627.8)
(2.66239e-07 -35999.1 -117631)
(2.65586e-07 -87907.1 -128524)
(2.59258e-07 -94847.8 -67016.6)
(2.60763e-07 -107603 -32223.4)
(2.54439e-07 -96142.9 -3577.19)
(2.44845e-07 -68076.6 2828.2)
(2.25827e-07 -52462.5 -22644.7)
(2.13149e-07 -60406.6 14028.7)
(2.07729e-07 -57529.8 89360.8)
(1.32261e-07 -16221.3 100648)
(2.45646e-07 989.338 -17967.8)
(2.72908e-07 12152.1 -31305)
(2.56035e-07 58018.9 -81486.5)
(2.6055e-07 58189.4 -108669)
(2.63797e-07 58637.6 -121614)
(2.64218e-07 28726.9 -107949)
(2.63443e-07 -11225 -100332)
(2.6429e-07 -77727.7 -207614)
(2.62878e-07 -95406.5 -127228)
(2.63567e-07 -95278.4 1532.89)
(2.64228e-07 -112108 63078.1)
(2.58941e-07 -112001 95105.9)
(2.51876e-07 -113664 81898.4)
(2.37074e-07 -117890 55329.3)
(1.7116e-07 -53800.1 29166.2)
(1.95823e-07 -66229.7 12762.8)
(2.6047e-07 -215263 -11944.3)
(2.41955e-07 -29429.3 97257.7)
(2.49887e-07 62761.8 -122667)
(2.60029e-07 94143.8 -151302)
(2.63522e-07 85390 -125336)
(2.63922e-07 59752.2 -74012.1)
(2.63332e-07 34255.9 -20689.3)
(2.63701e-07 19635.6 9284.99)
(2.6481e-07 -647.207 31536.3)
(2.65414e-07 -60544.4 -78939.5)
(2.64998e-07 -117903 37554.4)
(2.64022e-07 -157655 100383)
(2.61056e-07 -204304 107861)
(2.16305e-07 -137982 77867)
)
;

boundaryField
{
    inletFace
    {
        type            zeroGradient;
    }
    inlet
    {
        type            fixedValue;
        value           uniform (0 8.7 15);
    }
    inletWalls
    {
        type            noSlip;
    }
    outletInlet
    {
        type            zeroGradient;
    }
}


// ************************************************************************* //
