/*--------------------------------*- C++ -*----------------------------------*\
| =========                 |                                                 |
| \\      /  F ield         | OpenFOAM: The Open Source CFD Toolbox           |
|  \\    /   O peration     | Version:  4.1                                   |
|   \\  /    A nd           | Web:      www.OpenFOAM.org                      |
|    \\/     M anipulation  |                                                 |
\*---------------------------------------------------------------------------*/
FoamFile
{
    version     2.0;
    format      ascii;
    class       volScalarField;
    location    "19";
    object      p;
}
// * * * * * * * * * * * * * * * * * * * * * * * * * * * * * * * * * * * * * //

dimensions      [0 2 -2 0 0 0 0];

internalField   nonuniform List<scalar> 
6785
(
590.483
516.189
467.744
416.016
369.55
325.402
284.108
245.139
208.325
173.363
139.387
106.718
78.2016
46.7304
8.00524
1.93187
-15.5343
-7.34059
-13.172
-13.6952
-16.0131
-17.2527
-18.1434
-18.2368
-17.3813
-15.5134
-12.8972
-8.72001
-2.96928
-0.241885
10.476
6.13132
16.0588
12.8344
16.9634
17.3607
19.0391
19.9655
20.9095
21.7095
22.5923
23.4026
23.9147
24.3938
25.2611
42.8211
39.2961
42.492
37.217
38.044
35.0178
33.8929
31.9166
30.4011
28.8785
27.7601
27.0564
26.2222
24.8681
23.5893
9.59624
5.4237
6.50355
2.21989
2.90794
-0.0288101
-0.747155
-2.65452
-4.02199
-5.59114
-6.8762
-7.76682
-8.7957
-9.81614
-9.3747
-8.1923
-10.8809
-8.89484
-11.6703
-9.91607
-11.7752
-11.2899
-12.0514
-12.2242
-12.4826
-12.3427
-11.651
-10.4208
-9.40676
-7.51296
6.55304
6.22362
8.97756
7.87021
10.4884
10.2738
11.9093
12.6759
13.8396
14.9297
16.1261
17.2942
18.7692
19.8809
22.09
26.5265
27.2661
29.6676
29.2267
31.5911
31.8543
33.3991
34.3453
35.5077
36.6187
37.7729
38.8559
40.0738
40.9805
42.2262
41.4372
42.3725
44.2091
43.8598
45.6938
45.8393
46.9799
47.651
48.4806
49.2879
50.1076
50.8831
51.7801
52.4498
53.4787
54.8106
55.9433
57.2506
57.1803
58.6916
58.8147
59.7582
59.9939
60.3115
60.4536
60.6364
61.0328
61.6662
62.2213
62.874
65.819
65.9743
66.6424
66.084
66.7566
66.2616
66.4384
66.0744
65.9002
65.5813
65.2458
64.8824
64.45
64.4331
63.9532
65.6346
63.6899
63.3502
61.8226
61.7811
60.5291
59.9563
58.5797
57.1094
55.0571
52.8476
50.8209
49.5948
49.1478
47.1754
51.0313
46.8738
44.6729
41.7263
39.4362
36.5068
34.145
31.6701
29.6952
27.9664
26.6849
25.8211
25.3084
24.4433
22.3641
21.8176
20.6078
19.374
17.0829
14.924
12.4838
10.6002
8.79663
7.32587
5.96641
4.75536
3.68776
2.91181
2.08172
1.4439
52.7676
51.4227
48.806
42.8229
34.9219
27.4675
21.232
15.7174
11.406
8.61625
6.61863
5.5674
5.40286
5.40682
4.89354
14.3911
15.6613
16.1764
16.5639
17.9368
20.1951
20.9
20.797
21.088
21.95
23.1658
23.0829
24.0714
25.4219
25.0722
25.4505
26.771
27.6003
26.454
27.5155
28.3492
27.2931
27.3356
28.8301
29.2053
27.8922
27.8558
29.2122
29.9713
28.2299
29.2299
30.1972
28.9513
28.7661
29.8709
30.7434
29.3182
29.9564
30.9682
30.0735
29.8745
30.6221
31.2146
30.4809
30.3215
30.8917
31.1218
30.382
30.7926
31.0018
30.5842
30.5014
30.9053
31.3589
31.1209
31.0434
31.2572
32.12
32.0028
31.9319
32.8837
32.8609
32.7443
32.6052
33.0979
33.2105
34.2948
33.3047
31.9029
33.1167
34.8705
27.3536
23.9916
27.145
29.9905
7.2673
16.4961
21.8166
-21.7172
-10.7488
-5.7539
-7.60538
-3.73314
-9.41577
-9.31725
-3.49047
-3.42152
-2.63743
-2.52308
-1.64538
1.06773
4.71323
5.48018
-0.757353
0.975401
4.8033
8.45486
9.01261
10.7324
11.9909
13.6143
17.9729
16.1848
19.0538
20.1562
22.6759
26.4271
28.8756
30.3681
32.2361
31.2825
38.3179
38.1055
40.096
41.084
41.9275
44.0018
47.2186
48.6315
44.8721
50.1914
52.9453
55.1096
55.8503
55.0475
54.1137
53.4273
54.5912
49.8917
57.6299
58.923
54.6233
54.027
52.6647
49.5577
47.2848
44.3298
36.3523
43.9137
48.69
42.1628
38.9386
34.2773
28.5878
23.7586
21.0839
17.1042
12.0354
12.3475
14.1894
9.40411
8.87087
7.80189
5.82137
0.0291339
-1.7523
0.74474
-6.23516
4.14562
2.23739
1.40941
6.84293
4.40526
6.54023
6.87448
7.90416
9.44335
9.0395
9.73101
10.1348
10.2497
10.4528
10.4814
10.5787
10.4927
10.5995
10.4312
10.0863
10.0326
9.66892
9.85517
9.36807
8.616
9.30115
8.47153
7.84473
7.88427
7.25255
8.25521
7.15113
6.4946
6.62002
5.99993
7.1046
6.20354
5.01748
6.60779
5.58937
4.75352
5.14016
4.41935
6.03545
4.81502
3.96089
4.45385
3.65762
5.47967
4.44533
2.67465
5.18264
4.12017
2.56239
3.49163
2.41339
4.5095
3.42268
1.94534
2.83672
1.79281
3.79021
2.86702
0.871746
3.49785
2.46908
0.878419
1.78223
0.74839
2.88073
1.84286
0.606141
1.28451
0.400825
2.43903
1.35077
-0.365531
2.08827
0.513215
-0.505731
-0.342024
-0.997553
-0.00828598
0.0392588
0.0280555
0.0432326
0.0477657
0.0579961
0.0659143
0.0733605
0.0773974
0.0775372
0.073253
0.0653803
0.0551768
0.044053
0.0330288
0.0226607
0.0131248
0.00443235
-0.00340285
-0.0102766
-0.0160429
-0.0207041
-0.0246142
-0.0284544
-0.0327943
-0.0377959
-0.0470251
-0.0810601
-0.140396
-0.0943891
-0.495263
-0.446577
-0.456095
-0.59996
-0.746848
-0.880779
-0.990994
-1.06879
-1.10734
-1.10198
-1.0586
-0.982953
-0.882512
-0.764524
-0.631463
-0.489247
-0.34312
-0.197551
-0.0562615
0.0787616
0.204417
0.321015
0.426772
0.524349
0.617016
0.701997
0.779382
0.839237
0.89503
0.900681
0.840427
0.735646
0.602694
0.45337
0.314303
0.21682
0.163389
0.157057
0.11539
0.0778544
0.0180898
-0.000508063
-0.0132565
0.00441685
-0.00151155
0.0279925
0.126638
-0.285701
0.200942
-0.0364118
0.0926756
0.0496589
0.0770723
0.0677437
0.068734
0.061075
0.0550857
0.0490771
0.0462421
0.0464638
0.0496006
0.0542638
0.0589746
0.0622036
0.0627077
0.0594964
0.0518905
0.0396312
0.0231073
0.00334454
-0.0185698
-0.0423066
-0.0684604
-0.0975971
-0.128807
-0.161939
-0.217834
-0.303309
-0.180685
-0.750401
-0.641498
-0.691812
-0.962299
-1.22449
-1.46574
-1.66198
-1.79194
-1.84647
-1.82113
-1.72695
-1.57325
-1.37003
-1.1291
-0.85981
-0.573741
-0.280559
0.0109155
0.294053
0.563382
0.815222
1.0476
1.25977
1.45647
1.63432
1.79018
1.91257
2.00128
2.02933
1.95813
1.77615
1.51129
1.22177
0.914835
0.637703
0.445679
0.337824
0.31035
0.225688
0.152244
0.04127
0.00637057
-0.0111065
0.0127811
-0.0905513
0.0427871
0.251634
-0.76601
0.491163
-0.0608598
0.160347
0.092358
0.144016
0.135725
0.146929
0.144146
0.143381
0.13948
0.136279
0.132963
0.130009
0.126644
0.122166
0.115488
0.105513
0.0911682
0.0717043
0.0470264
0.018055
-0.0134708
-0.0461236
-0.0800737
-0.117056
-0.158552
-0.203503
-0.252142
-0.337002
-0.493844
-0.354128
-0.728183
-0.652464
-0.731938
-1.05465
-1.36138
-1.64399
-1.87126
-2.01939
-2.07879
-2.04446
-1.92928
-1.74298
-1.49681
-1.20544
-0.880612
-0.535861
-0.182786
0.168135
0.508888
0.832913
1.13601
1.41599
1.67213
1.90854
2.11995
2.30307
2.44254
2.53647
2.54623
2.43852
2.20298
1.86945
1.50795
1.13008
0.792174
0.558056
0.422833
0.374295
0.269546
0.180308
0.0566055
0.0160745
-0.00352193
0.0193557
-0.0872645
0.096324
0.437115
-1.07654
0.670703
-0.0914301
0.21979
0.122726
0.192104
0.177552
0.189317
0.18141
0.176618
0.168681
0.163585
0.160487
0.159762
0.159661
0.158402
0.153782
0.143816
0.126795
0.101673
0.0685005
0.0288856
-0.0144418
-0.0594115
-0.106392
-0.157882
-0.215893
-0.278919
-0.345425
-0.447375
-0.644607
-0.559731
-0.69819
-0.786673
-0.863568
-1.24503
-1.61944
-1.96143
-2.23377
-2.41025
-2.47943
-2.43541
-2.29389
-2.06595
-1.76534
-1.41058
-1.01578
-0.597084
-0.168685
0.256822
0.669537
1.06175
1.42817
1.76662
2.07599
2.36019
2.61356
2.83235
2.99894
3.10737
3.11457
2.98377
2.70212
2.30222
1.86276
1.40333
0.991769
0.703805
0.533006
0.459635
0.328791
0.217754
0.0741821
0.024605
-0.000363119
0.0238451
-0.103205
0.14673
0.581567
-1.22798
0.853648
-0.125457
0.27939
0.152543
0.239852
0.221013
0.236487
0.228295
0.225116
0.218427
0.214955
0.21297
0.212668
0.211943
0.208847
0.200927
0.185935
0.161906
0.127722
0.0837724
0.0325167
-0.0223126
-0.0782677
-0.136318
-0.199952
-0.271717
-0.349801
-0.431787
-0.548515
-0.771772
-0.75076
-0.609338
-0.932542
-1.00277
-1.4523
-1.90803
-2.3194
-2.64569
-2.85704
-2.93888
-2.88491
-2.71427
-2.43957
-2.07716
-1.64952
-1.17392
-0.66966
-0.153881
0.358291
0.854823
1.32646
1.7668
2.17334
2.5448
2.88536
3.18825
3.44935
3.64767
3.7756
3.7803
3.62198
3.2857
2.80676
2.27653
1.72174
1.22303
0.870076
0.656251
0.555495
0.395662
0.260051
0.0928535
0.0328121
0.00342777
0.0288928
-0.0985563
0.211895
0.727969
-1.1083
1.08328
-0.164701
0.334924
0.176187
0.278718
0.25421
0.271466
0.261611
0.258758
0.252552
0.250634
0.250661
0.252626
0.253839
0.251798
0.243418
0.22589
0.196826
0.155017
0.10132
0.0392741
-0.026269
-0.092627
-0.161563
-0.237495
-0.323306
-0.416931
-0.515037
-0.643876
-0.871503
-0.901751
-0.553513
-1.05986
-1.13371
-1.64344
-2.1788
-2.65474
-3.03005
-3.2726
-3.36407
-3.29845
-3.09858
-2.77821
-2.35614
-1.85869
-1.30606
-0.720497
-0.121923
0.472188
1.04781
1.59424
2.10412
2.57461
3.00445
3.39805
3.74755
4.04862
4.2769
4.4236
4.42538
4.24035
3.85161
3.29666
2.67859
2.0314
1.44805
1.03136
0.774395
0.644406
0.456626
0.297571
0.110691
0.0413401
0.00914929
0.0349073
-0.0909248
0.283402
0.858589
-0.81393
1.28373
-0.208083
0.386467
0.195186
0.311286
0.281923
0.30189
0.292507
0.292369
0.289053
0.290555
0.2937
0.298211
0.300951
0.29908
0.289103
0.267817
0.232534
0.182099
0.118062
0.0452708
-0.0303533
-0.106304
-0.185471
-0.273115
-0.372237
-0.480636
-0.594657
-0.73593
-0.959823
-1.0283
-0.613548
-1.1301
-1.28327
-1.83868
-2.45693
-2.99754
-3.41999
-3.69245
-3.79182
-3.71286
-3.48263
-3.1158
-2.63384
-2.06693
-1.43804
-0.772283
-0.0923296
0.582083
1.23497
1.85426
2.43165
2.96408
3.45032
3.89507
4.28974
4.62989
4.88827
5.05466
5.05628
4.84848
4.41195
3.78561
3.08231
2.34426
1.67672
1.19545
0.893679
0.731801
0.515526
0.332686
0.128446
0.0503788
0.0164305
0.0430186
-0.0737371
0.360653
0.983016
-0.485518
1.44638
-0.254127
0.431417
0.208455
0.336022
0.302599
0.325519
0.317547
0.32081
0.321019
0.326435
0.333223
0.340885
0.345856
0.344894
0.333993
0.309465
0.268286
0.209444
0.135448
0.0526894
-0.032019
-0.116861
-0.206036
-0.305368
-0.417742
-0.540969
-0.671478
-0.826632
-1.04695
-1.14638
-0.780191
-1.0873
-1.46001
-2.04019
-2.74639
-3.35489
-3.82463
-4.12745
-4.23405
-4.14058
-3.87868
-3.46381
-2.92041
-2.28251
-1.57591
-0.828616
-0.0660749
0.689683
1.42068
2.1135
2.75883
3.35346
3.89624
4.3923
4.83252
5.21251
5.50236
5.69054
5.6948
5.46719
4.98554
4.28939
3.50027
2.6694
1.91472
1.36544
1.0158
0.819314
0.57359
0.366322
0.146296
0.0601488
0.0258934
0.0543356
-0.0488103
0.439154
1.10084
0.0293807
1.52372
-0.299364
0.467449
0.216467
0.353644
0.317914
0.344744
0.33984
0.347849
0.35281
0.363054
0.374132
0.385324
0.392678
0.392579
0.38054
0.3524
0.304859
0.237243
0.15337
0.0613383
-0.031604
-0.124943
-0.224158
-0.335239
-0.460811
-0.598856
-0.746247
-0.916861
-1.13745
-1.25638
-0.971174
-0.978082
-1.66633
-2.249
-3.04339
-3.7232
-4.23932
-4.57187
-4.68411
-4.57443
-4.27938
-3.81496
-3.2088
-2.49887
-1.71374
-0.884306
-0.0387922
0.798498
1.6076
2.37374
3.08667
3.74302
4.34186
4.88883
5.37452
5.79467
6.11705
6.32883
6.33811
6.09325
5.56886
4.80438
3.92887
3.00331
2.15875
1.53839
1.13824
0.904717
0.629005
0.39728
0.163811
0.0708875
0.0383109
0.0701279
-0.0145269
0.517608
1.19261
0.383979
1.55144
-0.338967
0.491632
0.219592
0.364488
0.328593
0.360129
0.359562
0.373088
0.383445
0.398952
0.414696
0.42975
0.439802
0.440824
0.427792
0.396019
0.341961
0.265539
0.172286
0.0719836
-0.0284325
-0.130216
-0.239747
-0.362791
-0.501726
-0.654885
-0.819729
-1.00718
-1.23253
-1.36327
-1.14638
-0.939227
-1.87302
-2.47286
-3.3488
-4.10429
-4.66583
-5.0271
-5.14277
-5.01474
-4.68479
-4.16907
-3.4987
-2.71565
-1.85125
-0.939241
-0.0106007
0.908119
1.79499
2.63391
3.41371
4.13094
4.78499
5.38213
5.91288
6.37333
6.72919
6.96633
6.98316
6.72397
6.15968
5.32892
4.3667
3.34467
2.40749
1.71301
1.25987
0.987047
0.680895
0.424984
0.180707
0.0828275
0.0542196
0.091386
0.0288938
0.594344
1.28865
0.851096
1.63015
-0.367234
0.501539
0.218824
0.369561
0.336021
0.373047
0.37804
0.397807
0.41421
0.43545
0.456256
0.47548
0.488449
0.490688
0.476583
0.440888
0.379923
0.294591
0.192566
0.0849287
-0.0226436
-0.133223
-0.253467
-0.388718
-0.541286
-0.710008
-0.89299
-1.09869
-1.33383
-1.47966
-1.33085
-1.06182
-2.00524
-2.7227
-3.66486
-4.50041
-5.10714
-5.49632
-5.61303
-5.46426
-5.09737
-4.52834
-3.79201
-2.93444
-1.98969
-0.994367
0.0178474
1.01816
1.9827
2.89407
3.74018
4.5176
5.2261
5.87276
6.4483
6.9493
7.33981
7.60427
7.63141
7.36098
6.7597
5.8646
4.81496
3.69396
2.66063
1.88846
1.37971
1.06553
0.728561
0.449028
0.196667
0.096111
0.0740061
0.118788
0.0813024
0.669468
1.37597
1.30517
1.71845
-0.379033
0.495732
0.215347
0.369914
0.341309
0.38436
0.395868
0.422335
0.445221
0.472515
0.498695
0.522367
0.538487
0.542063
0.526809
0.486874
0.418622
0.324486
0.214549
0.100326
-0.0145692
-0.13449
-0.265777
-0.413454
-0.58002
-0.764941
-0.966966
-1.19247
-1.44227
-1.61108
-1.53796
-1.3145
-2.01831
-3.01136
-3.99527
-4.91226
-5.56498
-5.9813
-6.0964
-5.92413
-5.51797
-4.89334
-4.0891
-3.15538
-2.12902
-1.04948
0.0468817
1.12905
2.17123
3.15474
4.06663
4.90352
5.66572
6.36125
6.98131
7.52316
7.94959
8.24345
8.28373
8.00524
7.3698
6.41221
5.27394
4.05076
2.91702
2.06311
1.49615
1.13883
0.770851
0.468717
0.211234
0.110767
0.0978844
0.152642
0.142102
0.744488
1.44859
1.6082
1.82622
-0.371217
0.474432
0.210502
0.36673
0.345544
0.394941
0.413753
0.447272
0.477036
0.5107
0.542577
0.570982
0.590461
0.595413
0.578777
0.534075
0.458068
0.355411
0.238451
0.117872
-0.00494927
-0.134706
-0.277211
-0.437505
-0.618503
-0.820387
-1.04254
-1.28958
-1.55829
-1.75645
-1.75558
-1.60022
-1.96879
-3.34908
-4.34666
-5.33986
-6.04106
-6.48382
-6.59437
-6.39553
-5.94731
-5.26451
-4.39015
-3.37845
-2.26908
-1.10431
0.0768165
1.24111
2.36089
3.41619
4.39324
5.28881
6.10387
6.84752
7.51175
8.09475
8.55843
8.88381
8.94018
8.65692
7.99014
6.97189
5.74343
4.41424
3.17511
2.23507
1.60738
1.2054
0.806455
0.483236
0.223885
0.126725
0.125901
0.192983
0.210649
0.821155
1.52108
1.92587
1.94554
-0.343615
0.439615
0.205522
0.361118
0.349576
0.405427
0.432167
0.472988
0.509966
0.55029
0.588177
0.621587
0.644599
0.650875
0.632442
0.582249
0.498071
0.387436
0.264119
0.136812
0.00537615
-0.134413
-0.288133
-0.461215
-0.657133
-0.876841
-1.12036
-1.39086
-1.68237
-1.91461
-1.97952
-1.88558
-1.98734
-3.72812
-4.72746
-5.78298
-6.537
-7.00589
-7.10875
-6.88002
-6.38659
-5.64262
-4.69568
-3.60398
-2.41002
-1.15886
0.107779
1.35454
2.5519
3.67865
4.72022
5.67361
6.54059
7.33153
8.03955
8.66396
9.16627
9.5254
9.6009
9.3163
8.62102
7.54396
6.22334
4.78352
3.43324
2.40225
1.71143
1.26361
0.833954
0.491691
0.234045
0.143822
0.157968
0.239659
0.286262
0.902152
1.5794
2.14405
2.07352
-0.299044
0.394658
0.201405
0.354096
0.354093
0.416369
0.45156
0.499899
0.544422
0.59171
0.635928
0.674602
0.70125
0.708621
0.687679
0.631049
0.538442
0.420494
0.290923
0.156111
0.0156908
-0.133968
-0.298795
-0.484843
-0.696213
-0.934672
-1.20089
-1.49694
-1.81501
-2.08572
-2.21564
-2.19616
-2.18023
-4.10417
-5.14535
-6.24192
-7.05392
-7.54948
-7.64128
-7.37922
-6.83705
-6.02856
-5.00623
-3.83225
-2.55193
-1.21308
0.139931
1.46959
2.74455
3.94239
5.04781
6.05812
6.97601
7.81332
8.56469
9.23078
9.77313
10.1683
10.2661
9.98374
9.26275
8.12876
6.7135
5.15754
3.68946
2.56227
1.8061
1.31158
0.851747
0.493051
0.241073
0.161805
0.193894
0.292429
0.368258
0.984981
1.63871
2.41381
2.18296
-0.242409
0.343589
0.198825
0.346553
0.359614
0.428218
0.472319
0.52838
0.580783
0.635344
0.68621
0.730362
0.760615
0.768572
0.744031
0.679903
0.578905
0.454128
0.317758
0.174793
0.0255994
-0.133502
-0.309297
-0.508509
-0.735896
-0.994071
-1.28437
-1.60812
-1.95649
-2.27006
-2.4695
-2.55437
-2.56765
-4.40304
-5.60623
-6.71873
-7.59249
-8.11636
-8.19365
-7.89468
-7.29998
-6.42323
-5.32231
-4.06351
-2.6949
-1.26688
0.173479
1.58652
2.93915
4.20774
5.37628
6.44251
7.41021
8.2929
9.08709
9.79508
10.3789
10.8125
10.9358
10.6595
9.91553
8.72651
7.21357
5.53496
3.94142
2.71239
1.88892
1.34719
0.858041
0.48615
0.244264
0.180352
0.233401
0.351032
0.455727
1.06842
1.69276
2.63003
2.33202
-0.179351
0.290303
0.198154
0.339261
0.366556
0.441389
0.494824
0.558829
0.619459
0.681613
0.739418
0.789172
0.822774
0.830388
0.800747
0.728165
0.619058
0.487378
0.343378
0.192284
0.0350607
-0.132971
-0.31962
-0.532224
-0.776222
-1.05509
-1.37086
-1.72443
-2.10664
-2.46721
-2.7409
-2.94738
-3.0727
-4.58437
-6.12421
-7.21994
-8.15313
-8.70803
-8.76744
-8.42797
-7.7767
-6.82763
-5.64454
-4.29806
-2.83899
-1.32018
0.208621
1.70562
3.13602
4.475
5.70589
6.82698
7.84327
8.77022
9.60661
10.3567
10.9835
11.4579
11.6101
11.3437
10.5795
9.33734
7.72306
5.91406
4.18635
2.84947
1.95712
1.36808
0.850845
0.46969
0.242855
0.199081
0.276143
0.415243
0.547894
1.15428
1.7482
2.77544
2.49918
-0.114997
0.237992
0.199531
0.332886
0.375261
0.456277
0.519452
0.591647
0.660858
0.730915
0.795893
0.851207
0.887533
0.893316
0.856795
0.775163
0.658149
0.518884
0.36688
0.208562
0.0442984
-0.132204
-0.329642
-0.555901
-0.817121
-1.11764
-1.46023
-1.84567
-2.26504
-2.6763
-3.02733
-3.35379
-3.60513
-4.68107
-6.71536
-7.75434
-8.73624
-9.32565
-9.3641
-8.98058
-8.26853
-7.24283
-5.97362
-4.53623
-2.9843
-1.37291
0.245559
1.82718
3.33549
4.74449
6.03694
7.21172
8.27526
9.24522
10.1231
10.9154
11.5867
12.1044
12.2889
12.0366
11.2546
9.96134
8.24128
6.29272
4.42089
2.96983
2.00758
1.37155
0.827933
0.442232
0.236027
0.217563
0.321712
0.484897
0.64404
1.24374
1.81222
2.93273
2.64534
-0.0531879
0.188919
0.20296
0.328011
0.386039
0.473274
0.546584
0.627239
0.705379
0.783617
0.855888
0.916438
0.954313
0.956174
0.911049
0.820174
0.694962
0.547378
0.388082
0.224051
0.0536806
-0.130948
-0.339171
-0.579384
-0.858442
-1.18156
-1.55224
-1.97148
-2.4311
-2.8964
-3.32637
-3.75936
-4.10753
-4.78594
-7.39244
-8.33429
-9.34212
-9.97033
-9.98485
-9.55385
-8.77676
-7.6699
-6.3103
-4.77843
-3.13095
-1.42498
0.284509
1.95151
3.53792
5.01658
6.36971
7.59692
8.70625
9.71784
10.6364
11.471
12.1881
12.7517
12.972
12.7381
11.9408
10.5985
8.76733
6.66818
4.64095
3.06912
2.03667
1.35448
0.786808
0.402184
0.222909
0.235329
0.36964
0.559913
0.743518
1.33793
1.88774
3.04815
2.83666
0.00373375
0.144456
0.208389
0.325152
0.399183
0.492773
0.576596
0.665995
0.753386
0.840009
0.919491
0.984505
1.02203
1.01745
0.962466
0.862219
0.728041
0.57229
0.407543
0.239399
0.0636218
-0.128912
-0.34798
-0.602476
-0.89998
-1.24657
-1.64656
-2.10143
-2.60415
-3.1267
-3.63689
-4.16405
-4.58322
-5.02559
-8.16803
-8.96885
-9.97161
-10.6429
-10.6309
-10.1489
-9.30258
-8.10992
-6.65536
-5.02511
-3.27909
-1.47631
0.325695
2.07892
3.74368
5.29162
6.70452
7.9828
9.13631
10.188
11.1462
12.0231
12.7874
13.3994
13.6593
13.4481
12.6379
11.2487
9.29996
7.03683
4.84139
3.14401
2.04076
1.31334
0.724663
0.347798
0.202581
0.25189
0.419385
0.639673
0.845627
1.4375
1.97768
3.13868
3.0241
0.0547297
0.105299
0.215777
0.324771
0.414976
0.515153
0.609843
0.708269
0.805175
0.900253
0.986536
1.05458
1.08907
1.07559
1.01009
0.899959
0.75633
0.594079
0.426255
0.255268
0.0745243
-0.12581
-0.355842
-0.62497
-0.941507
-1.3124
-1.74285
-2.23505
-2.78361
-3.36654
-3.95911
-4.57969
-5.09733
-5.51138
-8.99421
-9.66202
-10.6257
-11.3451
-11.3036
-10.7665
-9.847
-8.56388
-7.00956
-5.27677
-3.42892
-1.52684
0.369348
2.20975
3.95316
5.57003
7.04171
8.36957
9.56549
10.6555
11.6523
12.5714
13.3843
14.0473
14.3505
14.167
13.3458
11.9117
9.83751
7.39389
5.02004
3.19325
2.01694
1.24438
0.638387
0.277161
0.174081
0.266743
0.470397
0.722768
0.94962
1.54243
2.08092
3.24598
3.25177
0.0996685
0.0717119
0.225112
0.327277
0.43369
0.54077
0.646641
0.754351
0.860939
0.96432
1.05648
1.12524
1.1535
1.12928
1.05285
0.932022
0.77985
0.614022
0.445265
0.272223
0.0867358
-0.12139
-0.362552
-0.646667
-0.98279
-1.37877
-1.84074
-2.37195
-2.96892
-3.61536
-4.2934
-5.01626
-5.69278
-6.28965
-9.78757
-10.4114
-11.309
-12.0782
-12.0046
-11.4075
-10.4108
-9.03271
-7.37366
-5.53392
-3.58068
-1.57652
0.415705
2.34435
4.16679
5.85222
7.38165
8.75749
9.99387
11.1204
12.1544
13.1155
13.978
14.6948
15.0453
14.8951
14.0651
12.5872
10.3777
7.72928
5.18003
3.21767
1.96271
1.14352
0.524477
0.188168
0.136409
0.279393
0.522244
0.807599
1.05491
1.65252
2.19764
3.34739
3.45581
0.13891
0.0437494
0.236423
0.33303
0.455568
0.569934
0.687244
0.804442
0.920721
1.03189
1.12823
1.1945
1.21344
1.1775
1.0894
0.95779
0.799869
0.633669
0.465418
0.290688
0.100521
-0.115462
-0.367946
-0.667387
-1.0236
-1.44538
-1.93991
-2.51173
-3.15962
-3.87261
-4.63962
-5.47604
-6.35897
-7.2805
-10.4728
-11.2188
-12.0246
-12.8445
-12.7365
-12.0726
-10.9943
-9.51713
-7.74831
-5.79706
-3.73462
-1.62534
0.465003
2.48309
4.38501
6.13865
7.72472
9.14681
10.4215
11.5824
12.6523
13.655
14.5682
15.3414
15.7432
15.6328
14.7961
13.275
10.9179
8.03714
5.32535
3.21875
1.87515
1.00601
0.378871
0.0784816
0.0885341
0.289367
0.574661
0.892898
1.16114
1.76712
2.32793
3.48574
3.68008
0.172973
0.0214044
0.249757
0.342332
0.480815
0.602893
0.731828
0.858624
0.984359
1.10225
1.2001
1.26008
1.26749
1.21917
1.11864
0.978051
0.818393
0.65433
0.487278
0.310943
0.116051
-0.107895
-0.371891
-0.686964
-1.06373
-1.51196
-2.04006
-2.65406
-3.35527
-4.1378
-4.99742
-5.95776
-7.07013
-8.37107
-11.0322
-12.0698
-12.7831
-13.6461
-13.5021
-12.763
-11.5981
-10.0176
-8.13405
-6.06661
-3.89098
-1.67329
0.517477
2.62636
4.60827
6.42979
8.07136
9.53781
10.8485
12.0415
13.1455
14.1893
15.1542
15.9865
16.4439
16.3801
15.5391
13.9747
11.4469
8.32697
5.45716
3.19609
1.75025
0.825939
0.196731
-0.0545297
0.029398
0.296246
0.627555
0.978035
1.26815
1.88512
2.4678
3.62564
3.94356
0.202324
0.00468988
0.265163
0.355424
0.509583
0.639817
0.780467
0.916826
1.05139
1.1741
1.26978
1.31996
1.31467
1.25311
1.14051
0.994912
0.837378
0.676855
0.511156
0.333129
0.133413
-0.0986029
-0.374271
-0.705223
-1.10292
-1.57822
-2.14087
-2.7986
-3.55545
-4.41041
-5.3662
-6.45787
-7.79788
-9.44641
-11.4472
-12.9823
-13.5938
-14.4835
-14.3044
-13.4801
-12.2224
-10.5344
-8.53123
-6.34294
-4.04999
-1.72037
0.573363
2.77457
4.83707
6.72616
8.42201
9.9308
11.275
12.4974
13.6337
14.7179
15.7351
16.6295
17.1468
17.1368
16.2941
14.687
11.9373
8.6168
5.57564
3.14596
1.58244
0.59623
-0.0276839
-0.213864
-0.0420829
0.299694
0.680964
1.06304
1.37585
2.00555
2.61595
3.76664
4.1761
0.227278
-0.00633831
0.282673
0.372475
0.541957
0.680791
0.833123
0.978768
1.12094
1.24549
1.33479
1.37279
1.35405
1.27852
1.15662
1.01096
0.858192
0.701656
0.537166
0.357286
0.152651
-0.0875083
-0.374948
-0.721961
-1.14092
-1.64387
-2.24201
-2.94499
-3.75969
-4.68985
-5.74502
-6.97183
-8.51515
-10.4146
-11.8187
-13.9598
-14.466
-15.3588
-15.1455
-14.2262
-12.8681
-11.0677
-8.93999
-6.62628
-4.21181
-1.76654
0.632911
2.92815
5.07194
7.02829
8.77715
10.3261
11.701
12.9501
14.1166
15.2403
16.3103
17.2694
17.8511
17.9028
17.0613
15.4179
12.3761
8.90739
5.67746
3.06173
1.36406
0.308341
-0.30117
-0.402955
-0.127013
0.2995
0.735013
1.14814
1.48398
2.12739
2.77026
3.92773
4.41964
0.247987
-0.0115956
0.302285
0.393581
0.577956
0.725801
0.889607
1.04388
1.19156
1.31393
1.3931
1.41778
1.38459
1.29595
1.16979
1.02834
0.88151
0.728837
0.565292
0.383406
0.173805
-0.0745001
-0.373735
-0.736917
-1.17742
-1.70855
-2.34312
-3.09281
-3.96746
-4.97534
-6.13259
-7.49475
-9.20605
-11.2543
-12.2631
-15.0091
-15.4187
-16.2695
-16.0271
-15.0031
-13.5361
-11.6177
-9.36028
-6.91671
-4.37651
-1.81174
0.696391
3.08757
5.31347
7.33678
9.13731
10.7241
12.1266
13.3994
14.5937
15.7559
16.8789
17.9053
18.5563
18.6776
17.8409
16.1644
12.7879
9.1818
5.75583
2.93777
1.08753
-0.0471103
-0.631695
-0.625799
-0.226526
0.2956
0.789911
1.23335
1.59206
2.24964
2.9278
4.0845
4.69896
0.264477
-0.0109995
0.323959
0.418766
0.617523
0.774724
0.949542
1.11118
1.26113
1.37685
1.44355
1.45413
1.40579
1.30774
1.18298
1.04826
0.907505
0.758332
0.595468
0.411498
0.196971
-0.0593971
-0.37037
-0.749762
-1.21202
-1.77184
-2.44374
-3.24155
-4.17806
-5.26589
-6.52715
-8.02203
-9.86512
-11.9604
-12.8435
-16.162
-16.4418
-17.2166
-16.9489
-15.8128
-14.2278
-12.1848
-9.79196
-7.21409
-4.54407
-1.85585
0.764111
3.25334
5.5623
7.65228
9.50305
11.1252
12.5521
13.8451
15.0646
16.2639
17.44
18.5364
19.2614
19.461
18.6339
16.88
13.2241
9.43457
5.8049
2.77121
0.747325
-0.478745
-1.02802
-0.886993
-0.3418
0.288094
0.846005
1.31838
1.69952
2.37156
3.08612
4.23658
4.94028
0.276703
-0.00450242
0.34761
0.447974
0.660522
0.827304
1.01228
1.17911
1.32703
1.43232
1.4856
1.4809
1.41876
1.31725
1.19827
1.07113
0.936081
0.790014
0.627665
0.441641
0.222332
-0.0419241
-0.364502
-0.760087
-1.24429
-1.83328
-2.54336
-3.3906
-4.39068
-5.56023
-6.92639
-8.54975
-10.5009
-12.6399
-13.6158
-17.3544
-17.548
-18.1953
-17.9099
-16.6565
-14.9445
-12.7697
-10.235
-7.51817
-4.71431
-1.89867
0.836422
3.42601
5.81914
7.97553
9.875
11.5299
12.9776
14.287
15.5288
16.7639
17.9925
19.1614
19.9657
20.2521
19.4494
17.4904
13.7083
9.66705
5.82243
2.5599
0.338969
-0.994212
-1.49965
-1.19186
-0.47408
0.277272
0.903835
1.40279
1.80578
2.49264
3.24349
4.3914
5.23712
0.2846
0.00788241
0.37311
0.481075
0.706729
0.883111
1.07676
1.24547
1.3867
1.47951
1.51851
1.49782
1.42643
1.32756
1.21662
1.0969
0.967059
0.823805
0.661945
0.474027
0.250183
-0.0217066
-0.355695
-0.767414
-1.27372
-1.89232
-2.64138
-3.53922
-4.6043
-5.85674
-7.32739
-9.07307
-11.1199
-13.3679
-14.6676
-18.5433
-18.7084
-19.2038
-18.9073
-17.5347
-15.6873
-13.3733
-10.6894
-7.82862
-4.88691
-1.93991
0.913726
3.6062
6.08479
8.30736
10.2539
11.9385
13.4033
14.7251
15.9859
17.2549
18.5356
19.7792
20.6682
21.0495
20.3196
17.9762
14.201
9.87442
5.80733
2.30091
-0.141364
-1.60011
-2.05647
-1.54646
-0.624718
0.263642
0.964192
1.48603
1.90986
2.61262
3.39882
4.53439
5.48251
0.288116
0.0260665
0.400288
0.517854
0.755809
0.941462
1.14139
1.30757
1.43848
1.51806
1.54136
1.50649
1.43253
1.34058
1.23818
1.12537
1.0003
0.85974
0.698504
0.508971
0.280924
0.0017186
-0.343443
-0.771205
-1.29974
-1.94835
-2.73713
-3.68659
-4.8177
-6.15344
-7.72652
-9.58614
-11.7199
-14.1174
-15.8817
-19.5986
-19.8917
-20.2398
-19.9371
-18.4471
-16.4567
-13.9962
-11.1556
-8.14518
-5.06144
-1.97918
0.996487
3.79456
6.3601
8.64872
10.6405
12.3517
13.8293
15.1592
16.4354
17.7364
19.068
20.3884
21.3682
21.8495
21.3011
18.3933
14.647
10.056
5.75993
1.99165
-0.696971
-2.30334
-2.70828
-1.95754
-0.795189
0.24799
1.0282
1.56738
2.00898
2.73118
3.5526
4.68946
5.75639
0.287223
0.0498845
0.428931
0.558012
0.807284
1.00129
1.2039
1.36301
1.48185
1.54728
1.55405
1.51031
1.44014
1.357
1.26278
1.15634
1.03581
0.898012
0.737678
0.546901
0.315044
0.0288789
-0.327192
-0.770887
-1.32174
-2.00074
-2.82987
-3.83173
-5.02947
-6.44789
-8.11946
-10.0824
-12.2956
-14.8605
-17.1389
-20.4498
-21.0853
-21.3006
-20.9948
-19.392
-17.2523
-14.6387
-11.6338
-8.46768
-5.23742
-2.01598
1.08523
3.99178
6.64602
9.00068
11.0358
12.77
14.2559
15.589
16.8767
18.2075
19.5888
20.9873
22.065
22.6408
22.3727
18.8468
15.0523
10.2179
5.68103
1.6297
-1.33138
-3.11194
-3.46427
-2.43195
-0.987093
0.23141
1.09738
1.64617
2.09888
2.84768
3.70514
4.83967
6.05278
0.281904
0.0791044
0.458784
0.601152
0.860447
1.06099
1.26168
1.41043
1.51668
1.56614
1.55859
1.51327
1.45091
1.3768
1.29018
1.18975
1.07374
0.938966
0.779916
0.588327
0.353086
0.0603354
-0.306371
-0.765876
-1.33914
-2.04882
-2.9188
-3.97358
-5.23793
-6.73725
-8.50125
-10.5549
-12.8402
-15.5681
-18.3316
-21.0801
-22.2578
-22.3891
-22.0756
-20.3668
-18.0731
-15.3005
-12.1241
-8.79605
-5.41442
-2.04974
1.18057
4.19862
6.94351
9.36442
11.441
13.1944
14.6834
16.0143
17.3094
18.6675
20.0968
21.5741
22.7582
23.4064
23.3951
19.4136
15.4375
10.363
5.56988
1.21318
-2.04825
-4.03393
-4.33316
-2.97605
-1.20189
0.215384
1.1738
1.72218
2.1763
2.96214
3.85774
4.9874
6.32093
0.272119
0.113447
0.489543
0.646741
0.914243
1.11834
1.31248
1.44968
1.54218
1.57469
1.55881
1.51835
1.4653
1.39973
1.32027
1.22573
1.11445
0.983067
0.825747
0.633803
0.395611
0.0966478
-0.280421
-0.755605
-1.35132
-2.09192
-3.00309
-4.11096
-5.44118
-7.01818
-8.86644
-10.9971
-13.3481
-16.2122
-19.3462
-21.465
-23.4251
-23.5112
-23.1753
-21.368
-18.9173
-15.9806
-12.6264
-9.13021
-5.59205
-2.07988
1.28315
4.41584
7.2536
9.74119
11.8573
13.6257
15.1122
16.4351
17.7327
19.1157
20.591
22.1464
23.4485
24.135
24.2053
20.0589
15.7922
10.4894
5.42696
0.742585
-2.84945
-5.0742
-5.3231
-3.59576
-1.44075
0.201896
1.26029
1.79552
2.23958
3.0752
4.01192
5.1458
6.59672
0.257762
0.152606
0.520844
0.694048
0.967097
1.17085
1.35533
1.48077
1.55719
1.57529
1.55885
1.52696
1.48318
1.42564
1.35311
1.2646
1.1584
1.03085
0.875726
0.683881
0.443157
0.13834
-0.248829
-0.739557
-1.35773
-2.1294
-3.0819
-4.2426
-5.63704
-7.28695
-9.20941
-11.4036
-13.8145
-16.7752
-20.133
-21.7044
-24.6175
-24.6809
-24.2917
-22.3915
-19.7821
-16.6771
-13.1399
-9.46994
-5.76996
-2.10581
1.39367
4.64427
7.57732
10.1323
12.2862
14.0651
15.5428
16.8511
18.146
19.5513
21.0706
22.7016
24.1387
24.8367
24.7235
20.6955
16.098
10.596
5.25423
0.220183
-3.73421
-6.23303
-6.43986
-4.2958
-1.70423
0.193532
1.3606
1.86639
2.28672
3.18759
4.16932
5.30127
6.87881
0.238602
0.196268
0.552225
0.74202
1.01687
1.21652
1.39043
1.50276
1.56182
1.57212
1.56156
1.53935
1.50433
1.45451
1.38897
1.30682
1.20614
1.08288
0.930392
0.739073
0.496208
0.185865
-0.211156
-0.717286
-1.3579
-2.16066
-3.15439
-4.3671
-5.82308
-7.5395
-9.52502
-11.7713
-14.2386
-17.255
-20.697
-21.9794
-25.8646
-25.9103
-25.4235
-23.4332
-20.6646
-17.3876
-13.6632
-9.81469
-5.9478
-2.12697
1.51285
4.88476
7.91575
10.5391
12.7291
14.5139
15.9759
17.2623
18.5488
19.9734
21.5346
23.237
24.8363
25.5948
25.0373
21.2283
16.3598
10.6839
5.05441
-0.35046
-4.69952
-7.50727
-7.68574
-5.07861
-1.99169
0.193781
1.47974
1.93498
2.31421
3.29936
4.33234
5.45416
7.15419
0.214215
0.244117
0.583062
0.789136
1.06122
1.25476
1.41789
1.51426
1.55871
1.56942
1.56811
1.55536
1.52871
1.48657
1.42829
1.35293
1.2582
1.13966
0.990223
0.799813
0.555153
0.239582
-0.167061
-0.688444
-1.35141
-2.18517
-3.21971
-4.48297
-5.99664
-7.77186
-9.80951
-12.0998
-14.6233
-17.6733
-21.1386
-22.4936
-27.1376
-27.2149
-26.5734
-24.4906
-21.5621
-18.109
-14.1945
-10.1635
-6.12504
-2.14283
1.64142
5.13819
8.26996
10.963
13.1876
14.9734
16.4122
17.6685
18.9403
20.3811
21.9824
23.7493
25.5461
26.547
25.2765
21.67
16.6018
10.7557
4.8303
-0.965164
-5.74141