/*--------------------------------*- C++ -*----------------------------------*\
| =========                 |                                                 |
| \\      /  F ield         | OpenFOAM: The Open Source CFD Toolbox           |
|  \\    /   O peration     | Version:  4.1                                   |
|   \\  /    A nd           | Web:      www.OpenFOAM.org                      |
|    \\/     M anipulation  |                                                 |
\*---------------------------------------------------------------------------*/
FoamFile
{
    version     2.0;
    format      ascii;
    class       surfaceScalarField;
    location    "1";
    object      phi;
}
// * * * * * * * * * * * * * * * * * * * * * * * * * * * * * * * * * * * * * //

dimensions      [0 3 -1 0 0 0 0];

internalField   nonuniform List<scalar> 
13220
(
-896.272
2196.46
-1385.81
1790.01
-1842.96
1757.28
-2188.23
1645.41
-2449.42
1561.59
-2629.46
1480.14
-2730.57
1401.18
-2753.52
1323.31
-2699.54
1246.06
-2572.72
1173.23
-2381.03
1108.62
-2105.57
1024.63
-1666.86
861.417
-948.857
582.496
351.054
-4.30561
2201.27
-47.2411
1833.54
-188.128
1898.69
-306.021
1763.88
-431.247
1687.3
-545.547
1594.96
-648.656
1504.7
-740.159
1415.22
-824.699
1330.92
-894.358
1243.19
-885.374
1099.82
-675.876
815.531
-260.191
446.41
23.8565
299.682
374.983
-169.829
2371.54
-405.861
2070.03
-629.371
2122.62
-783.357
1918.33
-931.545
1835.96
-1046.09
1709.97
-1140.95
1600.04
-1219.43
1494.18
-1285.6
1397.58
-1330.36
1288.66
-1309.4
1079.48
-1141.57
649.266
-825.525
133.002
-432.599
-89.2741
-57.5847
29.9931
2342.07
-85.8771
2186.5
-133.519
2170.87
-143.693
1929.21
-156.639
1849.57
-145.368
1699.54
-118.424
1573.9
-73.1762
1449.82
-8.69594
1334.05
66.2615
1214.53
103.462
1042.86
17.6047
736.87
-172.905
327.17
-207.455
-50.5875
-264.97
195.043
2147.52
138.027
2244.08
164.785
2144.64
210.195
1884.45
259.433
1800.92
315.722
1643.85
378.743
1511.4
446.686
1382.25
523.287
1257.79
603.076
1135.28
649.696
996.26
582.001
806.465
364.803
547.068
63.7561
254.891
-201.291
203.718
1944.31
175.827
2272.55
175.254
2145.74
182.052
1878.29
206.385
1776.99
228.789
1622.03
251.886
1488.59
272.94
1361.71
296.111
1234.77
322.606
1108.74
340.777
978.112
314.435
831.449
222.493
637.16
93.4459
378.719
-107.674
144.764
1800.06
179.798
2237.98
188.872
2137.07
188.908
1878.7
214.887
1751.43
235.034
1602.23
251.37
1472.66
262.379
1350.88
268.365
1229.09
271.509
1106.23
268.863
981.025
249.227
853.31
194.722
694.432
111.334
469.853
3.50434
71.9042
1728.49
166.331
2143.92
222.629
2081.05
255.682
1845.9
303.192
1703.96
343.592
1561.99
372.641
1443.47
391.545
1332.16
398.265
1222.31
391.721
1112.23
372.839
999.89
334.681
888.676
268.454
757.634
163.285
569.365
166.878
10.3246
1718.45
120.039
2034.43
211.664
1989.62
280.012
1777.78
340.417
1643.92
390.488
1512.07
425.881
1408.41
446.199
1311.82
450.893
1217.87
439.823
1123.93
409.46
1030.43
362.459
938.447
288.556
834.315
179.91
682.134
346.71
-21.598
1739.85
55.9735
1956.72
158.293
1887.15
246.418
1689.55
310.207
1579.9
364.121
1458.13
400.359
1371.95
423.069
1289.2
428.61
1212.08
418.741
1133.04
390.985
1058.07
341.354
984.8
264.875
907.514
162.43
780.239
509.141
-16.6549
1755.88
-3.72063
1943.09
81.2574
1801.32
167.873
1602.03
227.098
1519.76
281.744
1402.48
317.262
1335.53
339.708
1265.66
347.18
1203.77
341.646
1137.85
317.999
1080.68
281.884
1021.54
216.836
972.659
143.623
853.471
652.712
14.2855
1740.58
-23.0524
1979.45
18.4067
1758.67
87.7902
1531.35
146.52
1459.55
203.189
1344.46
243.407
1293.79
269.99
1237.96
280.758
1191.61
281.607
1135.49
263.976
1097.47
235.308
1047.16
178.386
1026.58
127.7
900.699
780.404
43.0433
1696.61
12.6998
2008.82
22.6689
1747.57
63.7625
1489.04
110.051
1412.1
151.516
1301.85
181.404
1262.92
200.896
1217.48
207.831
1183.88
208.979
1133.62
195.577
1110.21
179.056
1063.47
134.64
1070.52
108.374
926.394
888.765
144.562
1551.34
64.9929
2087.77
-27.4075
1839.21
-63.2553
1524.11
-19.7169
1367.71
42.5848
1238.8
110.401
1194.34
163.315
1164.03
192.877
1153.69
204.902
1121.01
195.949
1118.83
176.363
1082.1
127.536
1118.47
108.548
944.457
997.326
648.83
1050.53
1085.54
1064.65
1065.1
1040.55
1019.24
969.124
914.982
822.984
730.9
605.834
497.582
282.263
0.0026895
23.391
-23.3852
23.3949
23.3979
23.4018
42.9979
-19.5926
43.0019
43.0047
43.0087
59.7818
-16.7684
59.7864
59.7903
68.9466
-9.1522
68.9503
68.9539
68.9577
68.1874
0.774358
68.1916
68.1953
57.7636
10.4358
57.7673
57.7708
57.7747
42.8231
14.9556
42.8268
42.8302
42.834
26.2321
16.6071
26.2365
26.2409
8.77802
17.4672
8.78191
8.78623
8.79008
-9.42125
18.2164
-9.41709
-9.41229
-22.2813
12.8731
-22.2768
-22.273
-22.2685
-18.3378
-3.92622
-18.3333
-18.3297
-18.3251
14.3343
-32.6533
14.3394
14.3449
88.3247
-73.9751
88.3304
88.334
88.3403
190.465
-102.121
190.471
190.475
190.483
269.027
-78.5403
269.036
269.038
281.529
-12.4804
281.531
281.544
281.542
184.669
96.8927
184.669
184.691
-120.55
305.231
-120.523
-120.526
-120.5
-866.483
745.971
-866.452
-866.46
-866.416
-2355.67
1489.22
-2355.6
-2355.68
-4419.01
2063.38
-4419.11
-4419.09
-4169.07
-3924.19
-3678.37
-5466.1
2022.72
-5236.14
-5016.1
-4798.22
-4580.99
-4364.99
-4147.72
-3923.09
-3686.05
-5498.81
2045.44
-5270.87
-5044.66
-4819.4
-4597.13
-4372.61
-4147.69
-3920.14
-3688.4
-5629.75
2172.08
-5402.98
-5176.15
-4949.88
-4723.95
-4498.53
-4273.76
-4048.65
-3820.93
-3589.08
-5615.47
2255.12
-5390.05
-5163.46
-4936.22
-4709.15
-4482.9
-4257.33
-4029.41
-3797.66
-5940.22
2371.97
-5714.79
-5488.55
-5261
-5033.28
-4805.8
-4578.65
-4348.63
-4108.46
-6305.06
2435.62
-6070.08
-5835.08
-5599.2
-5352.27
-5099.99
-4846.93
-4589.65
-4327.23
-6431.3
2374.06
-6148.83
-5862.98
-5573.74
-5280.57
-4981.87
-4643.39
-4302.39
-3958.34
-3616.12
-5178.77
1894.57
-4842.65
-4503.15
-4174.56
-3859.72
-3562.9
-3311.95
-3131.64
-2971.87
-2563.7
-240.445
-2401.11
-2244.54
-2244.56
-2242.52
-2.10387
-2207.15
-35.3501
-2207.15
-2167.45
-39.6732
-2167.45
-2130.17
-37.2539
-2074.01
-56.155
-2073.99
-2017.08
-56.9027
-1950.99
-66.0664
-1950.98
-1886.43
-64.5351
-1886.43
-1826.24
-60.1752
-1760.65
-65.5909
-1760.64
-1700.76
-59.8659
-1700.76
-1646.99
-53.7599
-1582.65
-64.334
-1582.64
-1523.34
-59.2962
-1454.59
-68.7391
-1454.59
-1385.89
-68.6913
-1385.89
-1320.32
-65.5623
-1247.6
-72.7131
-1247.6
-1178.71
-68.8811
-1178.71
-1116.31
-62.3946
-1047.62
-68.6893
-1047.62
-983.827
-63.7858
-914.737
-69.089
-914.736
-849.066
-65.6699
-849.063
-786.477
-62.5855
-718.197
-68.2773
-718.196
-653.395
-64.7969
-653.395
-591.053
-62.3385
-521.072
-69.9802
-521.07
-454.241
-66.827
-380.087
-74.1501
-380.086
-315.21
-64.8703
-315.209
-264.164
-51.0396
-211.625
-52.5396
-211.621
-169.627
-41.9949
-169.622
-137.32
-32.3015
-104.077
-33.2351
-104.079
-77.1448
-26.9264
-52.6165
-24.5306
-52.612
-34.1071
-18.5071
-34.0998
-21.2983
-12.8039
-10.1573
-11.1312
-10.1596
-3.2219
-6.92841
-3.22552
3.47723
-6.6958
8.93864
-5.46811
8.94652
16.5038
-7.56275
18.671
-2.15495
18.6696
15.3665
3.30615
15.3675
13.3242
-13.71
-116.794
-15.3533
-243.989
-16.6437
-348.844
-17.9221
-449.11
-18.8943
-549.527
-19.7261
-645.068
-21.0499
-746.976
-22.2927
-843.403
-23.5702
-942.577
-25.292
-1060.35
-26.2187
-1165.33
-25.5267
-1263.13
-26.5461
-1383.91
-29.711
-1537.68
-33.0578
-1628.39
-34.8165
-1702.25
-36.8941
-1862.2
-42.4932
-2036.45
-47.4778
-2146.61
-52.1641
-2260.16
-57.4163
-2344.68
-60.2801
-2336.89
-63.2419
-2404.25
-65.0738
-2466.74
-65.973
-2523.39
-66.7632
-2626.84
-66.396
-2674.49
-67.5058
-2801.35
-68.5788
-2910.97
-64.6457
-2839.12
-55.0495
-2643.96
-40.1255
-2422.9
-19.1074
-2175.62
6.66841
-1821.61
15.1256
-1383.13
23.2701
-874.214
196.57
-1406.5
282.716
-2117.83
-2.21202
-5163.99
100.906
4103.25
126.506
7218.17
136.504
11462.5
115.339
16345.5
66.8788
20325
-35.3829
22509.3
-294.793
24641.3
-349.694
24816.7
-475.743
18950.4
-739.889
12729.1
-686.047
1863.88
-505.259
-3753.55
-254.405
-6560.83
5.84367
-8447.86
215.312
-8860.16
353.354
-8526.75
427.692
-7711.22
451.714
-6645.45
440.584
-5524
408.948
-4482.05
367.85
-3590.04
324.368
-2886.74
283.237
-2417.46
247.471
-2213.67
217.027
-2256.51
196.341
-2487.2
179.393
-2812.48
155.683
-2975.42
136.063
-2959.81
116.501
-2954.66
83.0009
-2902.07
91.9236
-2578.95
49.1505
-2744.1
-108.177
-3669.55
-104.656
-1882.76
45.4072
-842.116
111.816
3043.14
34.9657
1029.56
-23.725
-472.559
-1256.61
-19.6657
-115.778
-21.3863
-242.268
-22.7808
-347.449
-24.2471
-447.644
-25.4076
-548.367
-26.3932
-644.082
-27.9666
-745.402
-29.5924
-841.777
-31.3002
-940.868
-33.5051
-1058.15
-34.8156
-1164.02
-34.15
-1263.8
-35.1932
-1382.86
-38.9659
-1533.91
-42.8344
-1624.52
-45.3701
-1699.71
-48.5568
-1859.01
-54.5181
-2030.48
-60.5612
-2140.57
-66.1423
-2254.57
-72.287
-2338.54
-75.713
-2333.46
-79.4146
-2400.55
-81.7366
-2464.41
-82.5817
-2522.55
-82.9859
-2626.44
-81.5706
-2675.91
-81.7432
-2801.18
-81.7372
-2910.97
-75.9272
-2844.93
-63.6159
-2656.27
-45.5237
-2440.99
-21.379
-2199.77
7.3221
-1850.31
8.81006
-1384.62
36.874
-902.277
261.629
-1631.26
444.239
-2300.44
-187.553
-4532.2
37.4065
3878.29
97.8378
7157.74
149.794
11410.5
159.785
16335.5
98.453
20386.3
-13.2059
22621
-273.295
24901.4
-389.366
24932.8
-577.744
19138.8
-717.093
12868.4
-740.555
1887.34
-617.129
-3876.98
-301.776
-6876.18
13.6792
-8763.31
266.355
-9112.83
433.362
-8693.76
522.772
-7800.63
551.232
-6673.91
537.087
-5509.86
497.769
-4442.74
446.647
-3538.92
392.592
-2832.68
341.695
-2366.56
298.362
-2170.34
263.482
-2221.63
242.562
-2466.28
225.72
-2795.64
201.178
-2950.88
183.488
-2942.12
162.82
-2933.99
120.905
-2860.15
118.145
-2576.19
81.1962
-2707.15
-69.0579
-3519.3
-94.8552
-1856.96
37.9855
-974.966
129.307
2951.82
28.9694
1129.89
-12.2105
-431.393
-1265.52
-25.6751
-115.439
-26.6137
-241.33
-27.7028
-346.36
-29.044
-446.303
-30.2062
-547.205
-31.2265
-643.062
-32.86
-743.769
-34.6302
-840.007
-36.5248
-938.974
-38.9967
-1055.67
-40.6782
-1162.34
-40.2631
-1264.21
-41.2318
-1381.89
-45.2662
-1529.88
-49.3395
-1620.45
-52.0964
-1696.95
-56.1216
-1854.99
-62.3209
-2024.29
-68.8454
-2134.05
-75.0285
-2248.39
-81.5931
-2331.97
-85.162
-2329.89
-89.2057
-2396.5
-91.799
-2461.82
-92.4932
-2521.86
-92.7051
-2626.23
-90.4298
-2678.18
-89.709
-2801.9
-88.8082
-2911.87
-81.7254
-2852.01
-67.8674
-2670.12
-48.227
-2460.64
-23.1221
-2224.87
6.39945
-1879.84
9.03602
-1387.26
68.5027
-961.745
319.332
-1882.09
645.982
-2627.09
-87.6101
-3798.61
39.7612
3750.92
138.831
7058.67
220.999
11328.3
222.463
16334.1
135.561
20473.2
0.0555433
22756.5
-281.17
25182.7
-425.037
25076.7
-698.753
19412.5
-893.12
13062.8
-862.134
1856.35
-665.045
-4074.07
-323.202
-7218.03
24.4655
-9110.98
298.554
-9386.92
478.552
-8873.76
573.821
-7895.9
602.982
-6703.08
586.071
-5492.95
541.828
-4398.49
484.612
-3481.7
424.21
-2772.28
367.676
-2310.02
320.606
-2123.26
285.264
-2186.28
267.519
-2448.53
253.882
-2782
232.008
-2929
216.332
-2926.44
190.523
-2908.18
141.321
-2810.95
128.291
-2563.16
96.2371
-2675.09
-39.0745
-3383.98
-76.8805
-1819.15
40.1342
-1091.97
152.253
2839.7
84.2923
1197.85
13.0531
-360.146
-1254.62
-31.4973
-115.541
-31.936
-240.891
-32.8411
-345.455
-34.1193
-445.025
-35.3324
-545.991
-36.4524
-641.942
-38.216
-742.005
-40.1377
-838.085
-42.2385
-936.873
-44.9924
-1052.92
-47.029
-1160.3
-47.0151
-1264.22
-48.0879
-1380.82
-52.2956
-1525.67
-56.5513
-1616.19
-59.5019
-1694
-64.3818
-1850.11
-71.2089
-2017.46
-78.3314
-2126.92
-85.3913
-2241.33
-92.511
-2324.85
-96.3806
-2326.02
-100.895
-2391.99
-103.815
-2458.9
-104.478
-2521.19
-104.635
-2626.07
-101.733
-2681.08
-100.265
-2803.37
-98.398
-2913.74
-89.8401
-2860.57
-74.251
-2685.71
-52.7621
-2482.12
-25.9207
-2251.71
5.50749
-1911.26
14.2554
-1396.01
106.558
-1054.05
376.148
-2151.68
779.111
-3030.05
142.385
-3161.88
163.861
3729.45
283.912
6938.62
384.659
11227.6
353.692
16365
218.765
20608.1
15.6563
22959.6
-323.94
25522.2
-505.463
25258.2
-915.406
19822.5
-1179.05
13326.4
-1035.2
1712.5
-737.239
-4372.02
-350.835
-7604.43
38.2022
-9500.02
340.1
-9688.82
536.596
-9070.25
639.345
-7998.65
669.401
-6733.13
649.027
-5472.58
598.721
-4348.19
534.142
-3417.12
466.114
-2704.25
402.864
-2246.78
351.335
-2071.74
315.552
-2150.5
301.769
-2434.75
293.567
-2773.8
276.081
-2911.52
260.295
-2910.66
225.108
-2872.99
164.718
-2750.56
143.353
-2541.8
113.868
-2645.61
-17.3789
-3252.74
-60.6736
-1775.86
49.1361
-1201.79
174.731
2714.1
134.893
1237.69
38.3163
-263.582
-1223.87
-37.1885
-115.994
-37.2487
-240.831
-37.9789
-344.725
-39.1806
-443.823
-40.427
-544.745
-41.6116
-640.758
-43.4935
-740.123
-45.5559
-836.023
-47.8628
-934.567
-50.8879
-1049.9
-53.1546
-1158.03
-53.6223
-1263.76
-55.0413
-1379.4
-59.3734
-1521.34
-63.5782
-1611.99
-66.7048
-1690.88
-72.2912
-1844.52
-79.8212
-2009.93
-87.4393
-2119.31
-95.4565
-2233.32
-103.23
-2317.08
-107.553
-2321.7
-112.577
-2386.97
-115.901
-2455.58
-116.671
-2520.42
-116.779
-2625.96
-113.414
-2684.45
-111.16
-2805.62
-108.101
-2916.8
-97.9501
-2870.72
-80.7145
-2702.95
-57.5662
-2505.27
-29.0156
-2280.26
3.84275
-1944.12
20.9643
-1413.13
138.708
-1171.79
412.928
-2425.9
830.62
-3447.75
417.93
-2749.19
410.541
3736.84
521.193
6827.97
639.637
11109.1
566.171
16438.5
359.716
20814.6
39.7228
23279.6
-405.271
25967.2
-654.098
25507
-1225.69
20394.1
-1517.3
13618
-1209.26
1404.46
-820.122
-4761.17
-375.411
-8049.14
55.5216
-9930.95
384.682
-10018
596.605
-9282.18
705.789
-8107.83
735.844
-6763.19
711.321
-5448.05
654.465
-4291.33
582.264
-3344.92
506.567
-2628.55
436.818
-2177.02
381.345
-2016.26
346.564
-2115.72
338.964
-2427.15
340.767
-2775.6
330.854
-2901.6
310.672
-2890.47
261.222
-2823.54
188.564
-2677.9
159.169
-2512.4
131.399
-2617.84
8.54214
-3129.88
-31.8348
-1735.48
57.3123
-1290.92
190.062
2581.35
168.104
1259.65
62.8091
-158.277
-1166.53
-42.7841
-116.757
-42.5162
-241.099
-43.0803
-344.161
-44.2283
-442.675
-45.5083
-543.465
-46.7046
-639.561
-48.638
-738.19
-50.8014
-833.86
-53.3154
-932.053
-56.6549
-1046.56
-59.1184
-1155.57
-60.0079
-1262.87
-61.9167
-1377.49
-66.4924
-1516.76
-70.5312
-1607.95
-73.865
-1687.54
-79.9922
-1838.39
-88.2025
-2001.72
-96.1887
-2111.32
-105.172
-2224.33
-113.829
-2308.42
-118.854
-2316.67
-124.46
-2381.36
-128.328
-2451.71
-129.412
-2519.34
-129.502
-2625.87
-125.778
-2688.17
-122.703
-2808.7
-118.354
-2921.15
-106.638
-2882.43
-87.8436
-2721.74
-63.1556
-2529.96
-32.8833
-2310.54
1.01613
-1978.02
28.5905
-1440.7
158.999
-1302.2
431.906
-2698.81
780.124
-3795.97
599.013
-2568.08
710.624
3625.23
820.792
6717.8
952.017
10977.9
837.407
16553.1
542.58
21109.4
70.0432
23752.1
-511.691
26549
-864.857
25860.2
-1591.29
21120.5
-1867.16
13893.9
-1380.01
917.306
-910.104
-5231.07
-397.216
-8562.03
77.8251
-10406
434.651
-10374.8
661.631
-9509.16
776.516
-8222.72
805.648
-6792.32
776.046
-5418.45
711.834
-4227.12
631.442
-3264.53
547.818
-2544.93
471.557
-2100.76
412.42
-1957.12
380.174
-2083.47
381.768
-2428.75
398.074
-2791.91
397.295
-2900.83
366.239
-2859.42
297.263
-2754.57
212.834
-2593.47
176.709
-2476.28
148.664
-2589.8
32.96
-3014.18
4.29094
-1706.82
63.5642
-1350.2
196.398
2448.51
187.536
1268.5
82.7475
-53.5
-1090.48
-48.2633
-117.787
-47.7304
-241.632
-48.166
-343.725
-49.3003
-441.541
-50.6489
-542.117
-51.874
-638.337
-53.7777
-736.286
-55.9533
-831.685
-58.6321
-929.374
-62.2648
-1042.92
-65.0161
-1152.82
-66.3185
-1261.57
-68.6526
-1375.16
-73.4972
-1511.92
-77.3909
-1604.06
-81.0337
-1683.9
-87.6536
-1831.77
-96.3773
-1993
-104.573
-2103.13
-114.383
-2214.52
-124.114
-2298.69
-130.105
-2310.68
-136.454
-2375.01
-141
-2447.16
-142.551
-2517.79
-142.725
-2625.7
-138.681
-2692.22
-134.685
-2812.7
-128.952
-2926.88
-115.791
-2895.6
-95.5574
-2741.98
-69.474
-2556.05
-37.6232
-2342.39
-2.99018
-2012.65
35.6878
-1479.38
168.758
-1435.27
434.828
-2964.88
677.365
-4038.5
662.459
-2553.17
1012.28
3275.41
1178.85
6551.22
1297.78
10859
1139.96
16710.9
748.263
21501.1
106.714
24393.7
-628.541
27284.2
-1117.77
26349.4
-1980.2
21982.9
-2208.08
14121.8
-1532.57
241.795
-1002.7
-5760.94
-414.949
-9149.78
106.084
-10927
490.537
-10759.3
731.839
-9750.46
851.364
-8342.24
878.395
-6819.35
842.694
-5382.75
770.343
-4154.76
681.262
-3175.45
589.566
-2453.23
506.806
-2018
444.332
-1894.65
416.687
-2055.83
431.655
-2443.71
464.3
-2824.55
470.871
-2907.39
423.67
-2812.21
332.176
-2663.07
238.022
-2499.32
195.94
-2434.19
164.888
-2558.74
53.3474
-2902.63
29.8464
-1683.31
64.25
-1384.6
194.125
2318.64
195.941
1266.69
97.2446
45.2125
-1000.16
-53.6609
-119.024
-52.9397
-242.353
-53.2735
-343.391
-54.3897
-440.425
-55.8356
-540.671
-57.1802
-636.992
-59.0529
-734.413
-61.1812
-829.556
-63.9749
-926.58
-67.8035
-1039.1
-70.8867
-1149.73
-72.6658
-1259.79
-75.3219
-1372.5
-80.3726
-1506.87
-84.1678
-1600.26
-88.1334
-1679.93
-95.2622
-1824.64
-104.337
-1983.92
-112.584
-2094.88
-123.021
-2204.08
-133.988
-2287.72
-141.176
-2303.5
-148.553
-2367.64
-153.977
-2441.74
-156.087
-2515.68
-156.472
-2625.31
-152.106
-2696.58
-147.091
-2817.71
-139.959
-2934.01
-125.521
-2910.03
-103.964
-2763.54
-76.6094
-2583.4
-43.4137
-2375.58
-8.11851
-2047.95
40.9321
-1528.43
171.129
-1565.47
421.659
-3215.41
616.739
-4233.58
696.867
-2633.3
1264.48
2707.8
1561.33
6254.37
1665.77
10754.6
1460.85
16915.8
970.573
21991.4
151.27
25213
-749.872
28185.4
-1395.48
26995
-2378.5
22965.9
-2531.7
14275
-1666.9
-623.008
-1095.39
-6332.45
-427.231
-9817.94
141.439
-11495.7
553.219
-11171
807.765
-10005
930.525
-8465
954.092
-6842.92
911.246
-5339.9
830.02
-4073.54
731.817
-3077.25
631.902
-2353.32
542.568
-1928.67
477.155
-1829.24
457.023
-2035.7
490.139
-2476.83
536.937
-2871.35
545.143
-2915.6
480.565
-2747.64
367.883
-2550.39
265.803
-2397.24
217.648
-2386.04
180.902
-2522
70.1206
-2791.86
43.5406
-1656.74
62.1571
-1403.22
188.301
2192.49
194.262
1260.73
106.643
132.819
-904.654
-58.99
-120.395
-58.1622
-243.181
-58.3945
-343.159
-59.4577
-439.362
-60.9982
-539.131
-62.5213
-635.469
-64.4394
-732.496
-66.5508
-827.446
-69.4451
-923.687
-73.4015
-1035.14
-76.7666
-1146.37
-79.0388
-1257.52
-81.9838
-1369.56
-87.2111
-1501.64
-90.9949
-1596.48
-95.1978
-1675.73
-102.836
-1817.01
-112.17
-1974.59
-120.309
-2086.74
-131.12
-2193.27
-143.391
-2275.46
-151.953
-2294.93
-160.683
-2358.91
-167.3
-2435.12
-170.126
-2512.85
-170.805
-2624.64
-166.106
-2701.28
-160.085
-2823.73
-151.634
-2942.47
-135.994
-2925.67
-113.175
-2786.35
-84.6609
-2611.91
-50.38
-2409.86
-14.33
-2084
43.7248
-1586.49
166.034
-1687.78
397.042
-3446.41
593.197
-4429.74
693.68
-2733.78
1393.81
2007.66
1910.18
5738.01
2054.14
10610.6
1801.21
17168.8
1209.25
22583.3
196.844
26225.4
-877.988
29260.2
-1688.47
27805.5
-2785.22
24062.7
-2842.19
14332
-1836.89
-1628.31
-1183.32
-6986.02
-432.569
-10568.7
185.03
-12113.3
623.563
-11609.6
889.932
-10271.4
1014.24
-8589.31
1032.9
-6861.57
981.816
-5288.82
890.954
-3982.67
783.208
-2969.5
674.833
-2244.94
578.713
-1832.55
511.08
-1761.6
502.801
-2027.41
558.029
-2532.05
613.315
-2926.63
613.788
-2916.07
533.338
-2667.18
406.19
-2423.24
298.077
-2289.12
242.816
-2330.77
197.347
-2476.53
85.5018
-2680.01
57.3108
-1628.54
61.6494
-1407.55
183.949
2070.2
187.98
1256.7
113.412
207.408
-804.042
-64.2176
-121.852
-63.3493
-244.049
-63.498
-343.01
-64.5089
-438.351
-66.1301
-537.509
-67.8265
-633.773
-69.8762
-730.446
-72.0441
-825.277
-75.003
-920.727
-79.068
-1031.07
-82.6844
-1142.75
-85.3918
-1254.81
-88.5677
-1366.38
-93.9825
-1496.23
-97.9651
-1592.5
-102.353
-1671.34
-110.46
-1808.9
-120.095
-1964.95
-128.009
-2078.83
-138.859
-2182.42
-152.341
-2261.97
-162.331
-2284.94
-172.628
-2348.61
-180.763
-2426.99
-184.574
-2509.04
-185.663
-2623.55
-180.705
-2706.24
-173.84
-2830.6
-164.266
-2952.04
-147.392
-2942.55
-123.317
-2810.43
-93.735
-2641.5
-58.5871
-2445.01
-21.5767
-2121.01
43.4639
-1651.53
153.9
-1798.21
364.154
-3656.67
535.405
-4600.99
561.64
-2760.02
1348.13
1221.17
2212.78
4873.37
2481.73
10341.6
2169.93
17480.6
1455.8
23297.5
228.305
27452.9
-1017.39
30505.9
-1995.46
28783.6
-3203.33
25270.6
-3149.76
14278.4
-2014.94
-2763.13
-1261.01
-7739.95
-429.38
-11400.3
238.013
-12780.7
702.414
-12074
978.866
-10547.8
1102.88
-8713.32
1115.15
-6873.84
1054.57
-5228.25
953.188
-3881.29
835.437
-2851.75
718.227
-2127.73
614.944
-1729.26
546.661
-1693.32
556.233
-2036.99
634.485
-2610.3
688.723
-2980.87
668.997
-2896.35
573.528
-2571.72
444.011
-2293.73
335.737
-2180.85
272.331
-2267.37
214.301
-2418.5
99.7821
-2565.49
69.4619
-1598.22
61.2565
-1399.35
182.474
1948.98
190.062
1249.11
123.266
274.191
-699.293
-69.3176
-123.372
-68.4329
-244.934
-68.5414
-342.902
-69.5309
-437.362
-71.22
-535.821
-73.0907
-631.903
-75.343
-728.194
-77.6381
-822.983
-80.5938
-917.772
-84.7325
-1026.94
-88.6222
-1138.86
-91.733
-1251.7
-95.0336
-1363.08
-100.56
-1490.7
-104.976
-1588.08
-109.662
-1666.66
-118.179
-1800.38
-128.253
-1954.88
-135.944
-2071.14
-146.432
-2171.94
-160.848
-2247.56
-172.185
-2273.61
-184.081
-2336.71
-193.888
-2417.18
-198.942
-2503.99
-200.686
-2621.8
-195.725
-2711.2
-188.285
-2838.04
-177.887
-2962.44
-159.796
-2960.64
-134.471
-2835.76
-103.913
-2672.06
-68.0728
-2480.85
-29.8342
-2159.25
39.64
-1721
136.999
-1895.58
322.541
-3842.21
472.773
-4751.22
344.72
-2631.97
1109.01
456.876
2440.31
3542.07
2939.73
9842.22
2572.6
17847.7
1700.42
24169.6
240.303
28913
-1166.25
31912.5
-2319.07
29936.4
-3632.39
26583.9
-3468.62
14114.6
-2178.74
-4053.01
-1326.17
-8592.52
-416.138
-12310.4
301.49
-13498.3
790.51
-12563
1075.02
-10832.3
1196.8
-8835.1
1201.09
-6878.13
1129.58
-5156.73
1016.69
-3768.4
888.412
-2723.47
761.874
-2001.19
650.89
-1618.28
585.258
-1627.68
619.064
-2070.79
714.975
-2706.21
753.389
-3019.28
701.438
-2844.39
593.465
-2463.74
477.636
-2177.89
379.25
-2082.46
306.685
-2194.8
231.565
-2343.38
112.833
-2446.76
80.2361
-1565.62
63.3533
-1382.46
183.471
1828.86
194.481
1238.1
132.869
335.821
-590.95
-74.3188
-124.938
-73.4099
-245.843
-73.4962
-342.816
-74.4728
-436.385
-76.2307
-534.063
-78.2986
-629.834
-80.7691
-725.723
-83.2505
-820.501
-86.1987
-914.824
-90.3896
-1022.75
-94.5879
-1134.67
-98.1235
-1248.16
-101.512
-1359.69
-106.962
-1485.25
-111.851
-1583.19
-117.066
-1661.44
-125.947
-1791.5
-136.563
-1944.26
-144.187
-2063.51
-153.984
-2162.14
-168.904
-2232.64
-181.443
-2261.07
-194.878
-2323.28
-206.361
-2405.7
-212.783
-2497.57
-215.488
-2619.1
-210.908
-2715.78
-203.21
-2845.73
-192.318
-2973.33
-173.185
-2979.77
-146.666
-2862.27
-115.243
-2703.48
-78.8382
-2517.26
-39.0808
-2199.01
32.1848
-1792.27
116.81
-1980.2
276.053
-4001.45
428.261
-4903.43
-37.5538
-2166.15
495.355
-76.0327
2491.88
1545.55
3360.84
8973.25
2997.59
18211
1947.83
25219.4
248.541
30612.3
-1315.25
33476.2
-2664.11
31285.2
-4081.54
28001.3
-3835.9
13869
-2363.42
-5525.49
-1376.5
-9579.44
-391.33
-13295.5
376.464
-14266.1
888.513
-13075
1178.85
-11122.7
1296.32
-8952.58
1290.78
-6872.58
1206.79
-5072.74
1081.45
-3643.07
942.079
-2584.09
805.578
-1864.69
686.377
-1499.08
629.461
-1570.77
690.846
-2132.17
789.661
-2805.03
794.36
-3023.98
706.165
-2756.2
595.396
-2352.97
507.872
-2090.37
428.065
-2002.66
344.954
-2111.7
248.377
-2246.8
124.812
-2323.2
90.561
-1531.37
67.482
-1359.38
186.305
1710.03
197.159
1227.25
141.063
391.909
-476.824
-79.2429
-126.522
-78.3054
-246.781
-78.368
-342.753
-79.3271
-435.426
-81.1563
-532.234
-83.4088
-627.582
-86.0472
-723.086
-88.7474
-817.802
-91.7854
-911.786
-96.0895
-1018.44
-100.619
-1130.14
-104.575
-1244.21
-108.141
-1356.13
-113.371
-1480.02
-118.504
-1578.06
-124.359
-1655.59
-133.596
-1782.26
-144.721
-1933.14
-152.545
-2055.69
-161.593
-2153.09
-176.545
-2217.69
-190.113
-2247.5
-205.024
-2308.37
-218.211
-2392.51
-226.065
-2489.71
-229.981
-2615.18
-226.173
-2719.59
-218.544
-2853.36
-207.42
-2984.45
-187.51
-2999.68
-159.912
-2889.87
-127.766
-2735.62
-90.8936
-2554.13
-49.3682
-2240.53
21.2047
-1862.84
94.1155
-2053.11
229.704
-4137.04
361.169
-5034.9
-142.197
-1662.79
-25.247
-192.984
2305.07
-784.775
3707.19
7571.14
3443.52
18474.6
2216.23
26446.7
276.506
32552
-1455.06
35207.8
-3035.65
32865.8
-4564.34
29530
-4265.04
13569.7
-2576
-7214.54
-1413.88
-10741.6
-352.97
-14356.4
463.95
-15083
997.164
-13608.3
1290.96
-11416.5
1401.78
-9063.4
1384.17
-6854.98
1286.18
-4974.74
1147.55
-3504.44
996.458
-2433
849.115
-1717.35
721.901
-1371.86
682.357
-1531.22
767.677
-2217.49
846.241
-2883.59
803.567
-2981.3
687.612
-2640.24
588.348
-2253.7
534.927
-2036.95
476.52
-1944.24
382.238
-2017.41
262.539
-2127.1
135.572
-2196.23
100.934
-1496.73
73.7421
-1332.18
190.598
1593.18
198.566
1219.28
147.862
442.628
-362.19
-84.06
-128.108
-83.1016
-247.739
-83.1588
-342.696
-84.1166
-434.468
-85.9843
-530.366
-88.3568
-625.21
-91.1432
-720.299
-94.0947
-814.85
-97.3392
-908.542
-101.854
-1013.93
-106.716
-1125.27
-111.034
-1239.89
-114.88
-1352.28
-119.923
-1474.98
-124.998
-1572.99
-131.332
-1649.26
-140.924
-1772.67
-152.413
-1921.65
-160.69
-2047.41
-169.268
-2144.51
-183.937
-2203.02
-198.305
-2233.13
-214.583
-2292.09
-229.543
-2377.55
-238.947
-2480.31
-244.255
-2609.88
-241.558
-2722.29
-234.341
-2860.58
-223.198
-2995.6
-202.742
-3020.14
-174.239
-2918.38
-141.534
-2768.33
-104.286
-2591.38
-60.7988
-2284.02
7.07083
-1930.71
70.2911
-2116.33
182.504
-4249.26
306.662
-5159.05
191.72
-1547.84
309.538
-310.802
2311.06
-2786.3
4029.36
5852.83
3909.92
18594.1
2518.64
27838
336.499
34734.2
-1584.39
37128.7
-3428.17
34709.6
-5069.24
31171.1
-4722.9
13223.3
-2795.88
-9141.55
-1441.99
-12095.4
-298.683
-15499.7
565.183
-15946.9
1117.36
-14160.4
1412.01
-11711.1
1513.49
-9164.87
1481.38
-6822.88
1367.87
-4861.24
1215.06
-3351.62
1051.51
-2269.45
892.044
-1557.88
759.246
-1239.06
745.032
-1517.01
842.403
-2314.86
878.242
-2919.43
786.211
-2889.28
658.615
-2512.65
579.476
-2174.57
552.131
-2009.6
509.263
-1901.38
405.553
-1913.7
269.372
-1990.92
144.909
-2071.77
112.019
-1463.84
82.4011
-1302.57
196.227
1479.35
198.82
1216.69
152.507
488.936
-241.997
-88.71
-129.698
-87.7375
-248.712
-87.8206
-342.613
-88.8034
-433.486
-90.686
-528.484
-93.1391
-622.757
-96.1111
-717.328
-99.371
-811.591
-102.889
-905.024
-107.648
-1009.17
-112.823
-1120.1
-117.462
-1235.25
-121.617
-1348.13
-126.613
-1469.98
-131.508
-1568.09
-138.001
-1642.76
-147.902
-1762.77
-159.567
-1909.99
-168.366
-2038.61
-176.907
-2135.97
-191.255
-2188.67
-206.164
-2218.22
-223.63
-2274.62
-240.347
-2360.84
-251.426
-2469.23
-258.281
-2603.02
-256.974
-2723.6
-250.527
-2867.03
-239.628
-3006.5
-218.864
-3040.9
-189.694
-2947.55
-156.618
-2801.41
-119.096
-2628.9
-73.5886
-2329.53
-9.45767
-1994.85
46.8756
-2172.67
130.337
-4332.72
226.201
-5254.92
282.496
-1604.14
852.972
-881.279
2749.1
-4682.42
4429.35
4172.58
4408.84
18614.6
2864.6
29382.2
426.281
37172.5
-1697.98
39253
-3808.86
36820.5
-5561.46
32923.7
-5175.32
12837.2
-3004.18
-11312.7
-1461.75
-13637.9
-226.112
-16735.4
681.662
-16854.7
1250.02
-14728.8
1542.52
-12003.6
1631.76
-9254.11
1582.82
-6773.93
1452.19
-4730.6
1283.99
-3183.42
1107.02
-2092.48
933.702
-1384.55
801.58
-1106.93
814.999
-1530.42
906.534
-2406.39
889.757
-2902.65
759.839
-2759.35
636.086
-2388.89
575.08
-2113.56
552.784
-1987.3
507.634
-1856.23
398.048
-1804.11
264.885
-1857.76
153.813
-1960.69
124.852
-1434.88
93.7979
-1271.51
203.024
1370.13
201.48
1218.23
162.658
527.772
-121.321
-93.1726
-131.307
-92.1873
-249.697
-92.3144
-342.486
-93.3305
-432.47
-95.2715
-526.543
-97.8402
-620.188
-101.019
-714.149
-104.644
-807.966
-108.477
-901.191
-113.436
-1004.21
-118.901
-1114.63
-123.895
-1230.26
-128.374
-1343.65
-133.469
-1464.89
-138.243
-1563.32
-144.602
-1636.41
-154.705
-1752.67
-166.371
-1898.32
-175.498
-2029.49
-184.321
-2127.15
-198.507
-2174.48
-213.71
-2203.02
-232.149
-2256.18
-250.497
-2342.49
-263.304
-2456.42
-271.863
-2594.46
-272.214
-2723.25
-266.89
-2872.35
-256.569
-3016.82
-235.852
-3061.62
-206.318
-2977.08
-173.105
-2834.62
-135.461
-2666.55
-87.9642
-2377.03
-26.7358
-2056.07
25.2822
-2224.68
72.6498
-4380.09
140.87
-5323.14
341.643
-1804.91
1168.58
-1708.22
3125.61
-6639.45
4903.01
2395.18
4977.57
18540
3257.54
31102.2
532.882
39897.1
-1803.77
41589.6
-4160.9
39177.6
-6019.89
34782.7
-5608.36
12425.7
-3188.44
-13732.6
-1471.84
-15354.5
-133.191
-18074
815.005
-17802.9
1395.97
-15309.8
1682.78
-12290.4
1756.84
-9328.18
1688.96
-6706.05
1539.39
-4581.03
1354.24
-2998.27
1162.48
-1900.73
973.77
-1195.84
851.601
-984.766
888.09
-1566.91
954.054
-2472.35
888.595
-2837.19
740.303
-2611.06
629.833
-2278.42
579.537
-2063.26
543.769
-1951.54
476.585
-1789.04
363.704
-1691.24
254.832
-1748.89
164.834
-1870.69
140.535
-1410.58
108.319
-1239.29
210.858
1267.58
206.963
1222.13
170.199
564.531
-3.67636
-97.5129
-132.93
-96.5315
-250.679
-96.7006
-342.317
-97.7206
-431.45
-99.7728
-524.491
-102.504
-617.457
-105.846
-710.807
-109.85
-803.962
-114.058
-896.984
-119.192
-999.076
-124.942
-1108.89
-130.384
-1224.82
-135.278
-1338.76
-140.619
-1459.55
-145.38
-1558.56
-151.388
-1630.4
-161.486
-1742.57
-173.042
-1886.76
-182.158
-2020.37
-191.341
-2117.97
-205.562
-2160.26
-220.822
-2187.76
-239.982
-2237.03
-259.772
-2322.7
-274.325
-2441.87
-284.747
-2584.04
-287.036
-2720.96
-283.213
-2876.18
-273.848
-3026.18
-253.65
-3081.82
-224.127
-3006.61
-191.065
-2867.68
-153.515
-2704.1
-104.101
-2426.44
-43.4504
-2116.73
6.48114
-2274.62
11.1678
-4384.77
50.5124
-5362.48
405.408
-2159.81
1290.72
-2593.53
3244.13
-8592.86
5266.64
372.667
5580.56
18226.1
3686.14
32996.6
640.583
42942.7
-1925.86
44156.1
-4528.29
41780
-6476.41
36730.8
-6022.45
11971.7
-3348.01
-16407.1
-1468.98
-17233.5
-18.2524
-19524.8
966.845
-18788
1556.05
-15899
1833.06
-12567.4
1888.81
-9383.93
1799.82
-6617.06
1629.31
-4410.52
1425.51
-2794.47
1217.2
-1692.42
1013.53
-992.17
908.93
-880.158
959.631
-1617.61
985.419
-2498.14
880.103
-2731.87
730.597
-2461.55
634.214
-2182.03
587.783
-2016.83
540.69
-1904.44
453.599
-1701.95
337.783
-1575.42
253.023
-1664.13
179.471
-1797.14
159.692
-1390.79
126.352
-1205.95
219.449
1174.49
213.19
1228.39
166.589
611.147
111.891
-101.819
-134.544
-100.887
-251.611
-101.111
-342.093
-102.104
-430.457
-104.26
-522.336
-107.147
-614.569
-110.548
-707.407
-114.835
-799.675
-119.455
-892.365
-124.833
-993.698