/*--------------------------------*- C++ -*----------------------------------*\
| =========                 |                                                 |
| \\      /  F ield         | OpenFOAM: The Open Source CFD Toolbox           |
|  \\    /   O peration     | Version:  4.1                                   |
|   \\  /    A nd           | Web:      www.OpenFOAM.org                      |
|    \\/     M anipulation  |                                                 |
\*---------------------------------------------------------------------------*/
FoamFile
{
    version     2.0;
    format      ascii;
    class       volSymmTensorField;
    location    "1";
    object      R;
}
// * * * * * * * * * * * * * * * * * * * * * * * * * * * * * * * * * * * * * //

dimensions      [0 2 -2 0 0 0 0];

internalField   nonuniform List<symmTensor> 
6785
(
(0.439465 2.60958e-17 3.19285e-17 0.320057 0.050865 0.588659)
(0.00238639 -4.23037e-22 8.04986e-22 0.00237786 1.62934e-06 0.00239153)
(0.00243412 -1.86631e-22 -1.65951e-22 0.00243575 9.95407e-07 0.00243369)
(0.00242442 4.61304e-23 6.87633e-22 0.00242522 7.83301e-07 0.00242392)
(0.00242708 -3.47308e-22 1.74544e-22 0.00242788 7.47519e-07 0.00242671)
(0.00242599 -1.89309e-22 -1.16699e-22 0.00242658 6.84681e-07 0.00242568)
(0.00242564 9.79429e-23 6.55479e-22 0.00242609 6.28781e-07 0.00242542)
(0.00242504 6.48031e-23 3.52915e-22 0.00242534 5.713e-07 0.00242493)
(0.0024238 -2.31508e-22 4.31463e-23 0.00242398 5.25846e-07 0.00242381)
(0.00242222 -1.04357e-22 5.83326e-22 0.00242227 5.00773e-07 0.00242235)
(0.00242049 -4.09458e-24 3.35331e-22 0.00242017 4.51471e-07 0.00242069)
(0.0024199 -4.45769e-22 1.51022e-23 0.00241899 3.41988e-07 0.0024201)
(0.00243209 7.31917e-22 1.19654e-21 0.00243182 2.43497e-07 0.00243251)
(0.00361516 -3.16892e-20 -4.23045e-21 0.00346348 -0.000100245 0.00357014)
(0.637091 -3.74271e-17 -2.94436e-19 0.45119 -0.104678 0.600643)
(0.523364 -1.25861e-17 -6.24227e-17 0.21786 -0.0118286 0.879854)
(0.00369481 4.68175e-20 -5.43821e-21 0.00268896 -8.61931e-05 0.00447043)
(0.0012948 -5.06084e-20 -2.32373e-20 0.00140323 9.34291e-06 0.00125542)
(0.00102643 2.05818e-21 3.15829e-21 0.00104566 -2.32604e-06 0.000987732)
(0.000906839 1.59574e-20 1.23357e-20 0.000925135 -2.76369e-07 0.000878347)
(0.000870778 -2.13472e-20 -1.02215e-20 0.00088669 -5.98702e-07 0.000845171)
(0.00086923 8.17814e-22 9.9167e-22 0.000885503 -7.75521e-07 0.000844986)
(0.000857655 1.15945e-20 8.72569e-21 0.000873123 -1.04176e-06 0.000834848)
(0.000848056 -2.0035e-20 -1.05021e-20 0.000863533 -1.24081e-06 0.000826614)
(0.000837763 5.99208e-21 2.17822e-21 0.000853396 -1.24641e-06 0.000818017)
(0.000795512 7.6301e-21 6.02985e-21 0.00080765 -2.35674e-06 0.000778139)
(0.000837287 -2.78985e-20 -1.81459e-20 0.000844559 -9.53195e-06 0.000815062)
(0.00168424 -1.11319e-19 -2.23937e-19 0.00170198 -9.29279e-05 0.00159947)
(0.0197411 -1.65517e-17 -1.98617e-17 0.0189507 -0.00237371 0.0186424)
(0.226548 -7.2813e-16 -7.00269e-16 0.148519 -0.0913951 0.219546)
(0.625088 -1.75318e-18 -7.69517e-17 0.208179 -0.102159 1.12681)
(0.0109773 -1.43821e-18 -3.42456e-18 0.00551043 -0.00156447 0.0158342)
(0.00508792 1.91504e-18 9.65772e-20 0.00908237 -3.00181e-05 0.0046234)
(0.00106611 -8.63404e-20 -1.6244e-19 0.0011589 -6.52327e-05 0.000944635)
(0.000922294 -1.67792e-19 -3.54297e-20 0.00106164 -3.48655e-05 0.000829345)
(0.000938839 3.19958e-19 4.74845e-20 0.00109763 -4.89663e-05 0.000844315)
(0.000975632 -9.32079e-21 -1.32461e-19 0.00115277 -5.30334e-05 0.000877417)
(0.000990569 -1.49798e-19 -5.73816e-20 0.0011767 -6.01362e-05 0.000891089)
(0.00103442 4.44433e-19 1.10694e-20 0.00124773 -8.28329e-05 0.000930878)
(0.00111891 -8.46221e-20 -2.20721e-19 0.00138196 -0.000180852 0.00101202)
(0.00119245 -1.13579e-19 -1.0095e-19 0.00147183 -0.00057481 0.00110876)
(0.00223769 1.61754e-18 -5.04299e-19 0.00282441 -0.00236884 0.00226066)
(0.00964067 -3.3384e-18 -2.16312e-18 0.0135568 -0.0126793 0.0108682)
(0.0513177 -5.49542e-17 -4.83935e-17 0.0777177 -0.050042 0.0627373)
(0.0798629 -1.51341e-15 -1.35457e-15 0.122213 -0.00909426 0.102909)
(0.70194 3.355e-17 2.38392e-16 0.230044 -0.186513 1.27558)
(0.031639 -6.94073e-18 -5.15691e-17 0.0146748 -0.00918539 0.0516964)
(0.0144499 1.89844e-17 1.69993e-18 0.0271579 -0.00190657 0.0143957)
(0.0025967 3.7654e-18 -9.79467e-19 0.00371788 -0.000666461 0.0024411)
(0.00139251 -1.59355e-18 -7.08599e-19 0.00180519 -0.000137416 0.00130178)
(0.00128175 6.80901e-19 -1.6673e-19 0.00168538 -0.000237938 0.00118104)
(0.00133668 1.99652e-18 -1.64553e-19 0.00179152 -0.000235212 0.00122015)
(0.00140274 -9.7913e-19 -4.83213e-19 0.00191521 -0.000273301 0.0012752)
(0.00149127 8.16047e-19 -2.66207e-19 0.00206488 -0.000306622 0.00136039)
(0.0016702 3.04327e-18 -5.14717e-19 0.0024114 -0.000415647 0.00151808)
(0.00179336 -9.62617e-19 -7.3551e-19 0.00264602 -0.000729069 0.00164826)
(0.00244037 1.21229e-18 -7.16805e-19 0.00366697 -0.00152215 0.00234893)
(0.00573091 1.26646e-17 -4.51015e-18 0.008162 -0.00428325 0.00626333)
(0.0290226 1.69413e-17 -4.39494e-17 0.0406569 -0.0224094 0.0353011)
(0.0506879 -1.99095e-15 -6.39223e-16 0.0774447 0.0248195 0.04324)
(0.760873 6.34782e-17 8.49786e-16 0.256132 -0.249814 1.38099)
(0.0295912 -1.21359e-17 -4.04427e-17 0.0189687 -0.0185403 0.0447659)
(0.027719 -7.72525e-17 6.63713e-18 0.0556543 -0.0102367 0.0270054)
(0.00423142 4.10284e-18 8.59676e-19 0.00639403 -0.00244488 0.00425704)
(0.00210839 1.29981e-18 -1.06097e-18 0.00294602 -0.000590959 0.00210764)
(0.00175803 2.58565e-19 -1.03066e-18 0.00242242 -0.000597583 0.00173167)
(0.00178143 1.51776e-18 -1.14354e-19 0.00249772 -0.000582119 0.00173002)
(0.00189025 -1.55168e-18 7.31017e-20 0.00271851 -0.00063364 0.00182583)
(0.00198679 -8.99309e-19 -4.73547e-20 0.00289011 -0.000739562 0.00189787)
(0.00221462 3.75138e-18 1.26161e-19 0.00336579 -0.000922679 0.00208969)
(0.00234071 -2.31441e-19 3.88005e-19 0.00363382 -0.00120838 0.00218411)
(0.00290671 -2.57026e-18 5.72919e-19 0.00478154 -0.00194955 0.00269187)
(0.00473551 1.02635e-17 -2.45295e-18 0.00733257 -0.00373847 0.00490289)
(0.0222566 1.59621e-17 1.12896e-17 0.0346973 -0.0161439 0.0202651)
(0.0598038 -1.79691e-16 -2.05274e-17 0.0842976 -0.0191543 0.0491185)
(0.818417 7.9071e-17 1.46386e-15 0.283776 -0.29395 1.48779)
(0.0363957 9.94094e-18 -7.56324e-19 0.0384861 -0.0217554 0.0472609)
(0.0458011 -5.95213e-16 1.48058e-16 0.0985608 -0.0237481 0.042611)
(0.0041028 -3.21443e-17 1.58836e-17 0.00537964 -0.00433088 0.00511897)
(0.00256625 5.42764e-18 3.79295e-18 0.00374863 -0.00130086 0.00269789)
(0.00211274 -7.03146e-19 1.36104e-18 0.00292014 -0.00101931 0.00216942)
(0.00216322 -7.71565e-18 2.44752e-18 0.00306175 -0.00101702 0.00219188)
(0.00227692 -1.29165e-17 4.99925e-18 0.00328681 -0.00102049 0.00227595)
(0.00236954 -6.70123e-18 5.14306e-18 0.0034823 -0.00111821 0.00231854)
(0.00261676 -2.49812e-19 4.7521e-18 0.00402301 -0.00134479 0.00250785)
(0.00264383 -8.37049e-18 6.97538e-18 0.00402175 -0.00150212 0.00249446)
(0.00346952 -5.0616e-18 7.32481e-18 0.0060719 -0.00238011 0.00311082)
(0.00453168 -2.39988e-18 7.19448e-18 0.00723072 -0.00357638 0.00443222)
(0.0208228 -3.93566e-17 5.47301e-17 0.0294389 -0.0132162 0.0149341)
(0.0916809 -7.74452e-17 5.49802e-18 0.123288 -0.0365166 0.0791115)
(0.90865 2.81071e-17 1.04747e-15 0.322631 -0.329248 1.64922)
(0.0492253 8.10143e-17 9.53829e-17 0.0605645 -0.0190644 0.0553802)
(0.0604933 -1.28799e-15 5.47971e-16 0.130774 -0.0354346 0.0554682)
(0.0057239 -4.64981e-17 3.48679e-17 0.006622 -0.00642214 0.00943774)
(0.00315862 1.34459e-18 1.43783e-17 0.00481081 -0.00217329 0.00344929)
(0.00246182 8.30309e-20 8.02198e-18 0.00341248 -0.00138398 0.0025867)
(0.00244679 -2.06763e-17 8.41683e-18 0.00341042 -0.00133344 0.00251485)
(0.00252641 -4.03121e-17 1.33849e-17 0.00354924 -0.00128782 0.00254476)
(0.00260372 -1.3509e-17 1.35942e-17 0.00372331 -0.00134627 0.00255486)
(0.00285434 -2.9025e-19 1.25618e-17 0.00430991 -0.00155871 0.00272055)
(0.0027357 -2.5536e-17 1.60404e-17 0.00394397 -0.00158051 0.00255715)
(0.00436582 1.18535e-17 1.92863e-17 0.00797876 -0.00289387 0.00405989)
(0.00475629 3.57912e-18 1.61153e-17 0.00728659 -0.00354237 0.00471621)
(0.0210816 -2.08356e-17 9.86587e-17 0.0235032 -0.0114771 0.0170779)
(0.130333 8.16024e-16 -1.40167e-17 0.163108 -0.0627156 0.124208)
(0.974752 -7.71655e-17 -4.38431e-16 0.352381 -0.355425 1.75672)
(0.0824449 -1.39822e-16 2.1009e-16 0.074192 -0.0208194 0.105605)
(0.0658371 -1.37476e-15 6.93778e-16 0.137438 -0.0428959 0.0608848)
(0.0116666 -1.51994e-16 1.30515e-16 0.0161255 -0.00928957 0.0169119)
(0.00469487 -5.26888e-17 2.32895e-17 0.00711526 -0.00326054 0.00562531)
(0.00307884 1.02016e-17 1.46081e-17 0.00438973 -0.00184661 0.0033122)
(0.00275846 -2.48703e-17 1.36665e-17 0.0038006 -0.00155798 0.00283647)
(0.00274306 -7.50328e-17 1.88984e-17 0.00378286 -0.00144097 0.0027348)
(0.00276728 -1.47794e-17 1.72216e-17 0.00383792 -0.00146355 0.00267621)
(0.00302899 5.11689e-18 1.77176e-17 0.0044769 -0.00164608 0.0028428)
(0.00271436 -4.03515e-17 2.1979e-17 0.00363364 -0.00154136 0.00248176)
(0.00613571 9.67876e-17 4.81448e-17 0.0116081 -0.00374926 0.00648943)
(0.00511963 3.78013e-17 2.38054e-17 0.00741524 -0.00371448 0.00523166)
(0.022287 1.03465e-16 1.35316e-16 0.0183457 -0.0112572 0.0189767)
(0.17634 2.41871e-15 -2.67324e-16 0.20689 -0.092493 0.180755)
(1.01394 -1.02679e-16 -1.60516e-15 0.370476 -0.372391 1.8094)
(0.103251 -4.6332e-16 -1.3295e-17 0.0780652 -0.0270553 0.140147)
(0.0665299 -8.68819e-16 4.40523e-16 0.131943 -0.0487324 0.062714)
(0.0174457 -3.73496e-16 3.45771e-16 0.0267912 -0.0122975 0.0207651)
(0.0071341 -1.69975e-16 3.86632e-17 0.0107002 -0.00440235 0.00839315)
(0.00410995 3.14762e-17 1.48631e-17 0.00601266 -0.00248061 0.00444992)
(0.00321472 -2.64748e-17 1.07247e-17 0.00446699 -0.00181864 0.00328675)
(0.00298045 -9.87522e-17 1.35e-17 0.00404616 -0.00157033 0.00292394)
(0.00291424 -7.79078e-18 1.18157e-17 0.00392452 -0.00153988 0.00276329)
(0.00319548 -2.2553e-18 1.23344e-17 0.0046454 -0.00169985 0.00295276)
(0.00270769 -4.30468e-17 1.92258e-17 0.00336957 -0.00148608 0.0024101)
(0.00915294 2.71031e-16 1.057e-16 0.0174825 -0.00504977 0.0110291)
(0.00642281 6.86127e-17 2.3788e-17 0.00815049 -0.00423684 0.00665136)
(0.0392918 3.13893e-16 3.67002e-16 0.0172297 -0.00769617 0.0467036)
(0.225637 3.9514e-15 -7.90517e-16 0.251645 -0.125765 0.242425)
(1.0305 9.38961e-19 -1.47831e-15 0.378141 -0.386822 1.82093)
(0.107093 -5.14174e-16 -2.90134e-16 0.0747628 -0.0312833 0.147912)
(0.0659373 -3.08213e-16 1.18965e-16 0.126479 -0.054948 0.0624878)
(0.019476 -3.93453e-16 3.08833e-16 0.0304966 -0.0137801 0.0208331)
(0.00878582 -2.67118e-16 6.22346e-17 0.0129976 -0.00496394 0.00972403)
(0.00515856 4.45523e-17 6.18826e-18 0.00759191 -0.00318527 0.0054671)
(0.00374013 -3.38596e-17 -3.60704e-18 0.00522887 -0.00208575 0.00377412)
(0.00324902 -1.11706e-16 -1.45432e-18 0.00436079 -0.00168409 0.00313509)
(0.00309405 3.8731e-18 1.10881e-18 0.0040865 -0.00160162 0.00287613)
(0.00337303 -2.9193e-17 -5.81899e-18 0.00483307 -0.00172585 0.00309075)
(0.00269751 -3.46815e-17 1.10051e-17 0.00311364 -0.0014919 0.00236139)
(0.0136244 5.3069e-16 2.04671e-16 0.0258946 -0.00680075 0.0178816)
(0.00830141 4.88372e-17 -1.14319e-17 0.0088059 -0.00470681 0.00975967)
(0.0731579 5.84851e-16 6.41232e-16 0.0194701 0.00350532 0.123995)
(0.282705 4.84935e-15 -1.33945e-15 0.303589 -0.164069 0.315088)
(1.03115 1.14888e-16 -1.7771e-16 0.378477 -0.395114 1.80735)
(0.100423 -3.258e-16 -2.95632e-16 0.0674582 -0.0340548 0.138655)
(0.0653153 1.70073e-16 -1.13395e-16 0.124311 -0.0590711 0.0610987)
(0.0185154 -2.86353e-16 1.89587e-16 0.0288067 -0.0145223 0.0184722)
(0.00913994 -2.62735e-16 6.33383e-17 0.0132803 -0.00490922 0.00957869)
(0.00584601 4.14427e-17 -1.72576e-18 0.0085402 -0.00382065 0.00603834)
(0.00420699 -5.03284e-17 -1.74869e-17 0.00585119 -0.0023046 0.00419122)
(0.00352275 -1.1264e-16 -1.58704e-17 0.00466726 -0.0017576 0.00336422)
(0.00328009 1.49451e-17 -9.03813e-18 0.00424471 -0.00164611 0.00301595)
(0.00359598 -7.18748e-17 -2.85441e-17 0.00512337 -0.00171907 0.00330367)
(0.00268874 -2.76518e-17 2.29848e-18 0.00288883 -0.00169648 0.00235643)
(0.0191634 7.55794e-16 3.09437e-16 0.0359592 -0.00851609 0.0262703)
(0.00988295 -2.6992e-18 -1.04901e-16 0.00920974 -0.00476314 0.0134161)
(0.116717 7.78307e-16 -3.2799e-16 0.0308259 0.0132519 0.238659)
(0.343777 4.64837e-15 -1.71551e-15 0.36157 -0.204696 0.393078)
(1.01959 1.71826e-16 1.29557e-15 0.373716 -0.396427 1.77569)
(0.0884159 -9.19072e-17 -1.03313e-16 0.0581281 -0.0349645 0.120706)
(0.0649164 4.60703e-16 -1.6333e-16 0.12563 -0.0595981 0.0591118)
(0.0154525 -1.82565e-16 1.14757e-16 0.0234631 -0.01384 0.0146291)
(0.00836619 -2.04774e-16 5.36913e-17 0.0118529 -0.00484435 0.00841874)
(0.00601639 3.3598e-17 3.0632e-18 0.00863941 -0.0042515 0.0060812)
(0.00449082 -7.01052e-17 -2.07667e-17 0.00613096 -0.0024866 0.00441832)
(0.00375684 -1.03456e-16 -1.92791e-17 0.00489003 -0.00177894 0.00355498)
(0.00343062 1.93296e-17 -9.3343e-18 0.00431196 -0.00165779 0.00313497)
(0.00381047 -1.10155e-16 -4.40967e-17 0.00538386 -0.00166744 0.00353011)
(0.00271767 -1.35537e-17 2.2332e-18 0.00276379 -0.00215858 0.00240947)
(0.0256985 9.37825e-16 4.41027e-16 0.0482903 -0.00903152 0.0358305)
(0.00918855 1.46668e-17 -1.73173e-16 0.00853358 -0.004619 0.0135908)
(0.151694 8.42052e-16 -2.22666e-15 0.0499328 0.0109546 0.340993)
(0.406131 3.60704e-15 -1.77211e-15 0.425585 -0.251295 0.469855)
(1.00412 1.20329e-16 1.92149e-15 0.366677 -0.392065 1.74091)
(0.082214 4.77918e-17 5.15218e-17 0.0526729 -0.0352978 0.11123)
(0.0661127 2.83151e-16 1.82834e-18 0.129475 -0.0584077 0.0592747)
(0.0126552 -1.40181e-16 8.55228e-17 0.0191954 -0.0116098 0.0113752)
(0.00745117 -1.39463e-16 4.46651e-17 0.0104426 -0.00463539 0.00721279)
(0.00601634 2.43891e-17 1.88345e-17 0.00862895 -0.00439573 0.00594215)
(0.00464857 -9.30131e-17 -1.48698e-17 0.0062826 -0.00259828 0.00449546)
(0.00394669 -9.78913e-17 -1.36219e-17 0.00508585 -0.0017504 0.00371503)
(0.00360389 2.43936e-17 1.5849e-18 0.00445032 -0.00164365 0.00330211)
(0.00409538 -1.27302e-16 -4.49043e-17 0.0057983 -0.00153038 0.00391227)
(0.00261336 -8.16419e-18 5.39403e-18 0.00240575 -0.00246461 0.00237654)
(0.032717 8.83771e-16 5.3238e-16 0.0580197 -0.00741232 0.0468986)
(0.00617553 1.30892e-17 -1.2535e-16 0.00576616 -0.00463122 0.00941696)
(0.155025 5.08579e-16 -2.21441e-15 0.0680872 -0.00579965 0.352151)
(0.471445 2.67583e-15 -1.66952e-15 0.499337 -0.305872 0.542073)
(0.98081 3.55317e-18 1.62416e-15 0.358257 -0.388199 1.69705)
(0.0675879 3.77642e-17 1.03568e-16 0.0427535 -0.0341951 0.0903918)
(0.0605976 -3.31942e-16 2.08194e-16 0.117453 -0.0524623 0.0567126)
(0.00686309 -8.0808e-17 5.42302e-17 0.00903879 -0.00629064 0.00614737)
(0.00609726 -9.26283e-17 2.90198e-17 0.00846289 -0.00406882 0.00589879)
(0.0056594 -1.28838e-17 3.66739e-17 0.00792339 -0.0042877 0.0055325)
(0.00467881 -8.57082e-17 9.6688e-18 0.00621957 -0.00272273 0.00446163)
(0.0040743 -1.06666e-16 -7.0025e-18 0.00523945 -0.0017255 0.00375362)
(0.00374903 1.86757e-18 1.62324e-17 0.00457734 -0.00160282 0.0034053)
(0.00433989 -6.50902e-17 -5.24251e-18 0.00621529 -0.00134727 0.00413458)
(0.00252531 -8.43026e-18 9.69889e-18 0.00217954 -0.00188915 0.00229534)
(0.0331124 3.11207e-16 3.13398e-16 0.0607631 -0.00374316 0.0428477)
(0.00573724 -4.56476e-18 -1.05719e-17 0.00574955 -0.00412327 0.00883899)
(0.179087 3.28834e-17 8.21414e-16 0.0825273 -0.0152841 0.389605)
(0.537663 2.68254e-15 -1.759e-15 0.573974 -0.355281 0.608746)
(0.949422 -7.33183e-17 9.19432e-16 0.34921 -0.379992 1.61665)
(0.190015 -6.4333e-16 2.9522e-16 0.111162 -0.101694 0.26989)
(0.0814634 -2.2727e-15 6.48605e-16 0.152719 -0.078344 0.0781139)
(0.0152245 -5.02566e-16 2.1873e-16 0.0242727 -0.0242682 0.0134654)
(0.00794114 -3.26057e-16 7.92216e-17 0.0128027 -0.0140088 0.00727585)
(0.00638741 -2.44187e-16 4.15688e-17 0.00982551 -0.00887688 0.00555313)
(0.00575388 1.16079e-17 3.16032e-17 0.00844783 -0.00533662 0.00429555)
(0.00484165 -1.09193e-16 -4.12471e-18 0.00691576 -0.00301653 0.00408004)
(0.00419224 -9.2782e-17 3.30089e-18 0.00563439 -0.00201919 0.00363549)
(0.00480418 8.48524e-17 5.22515e-17 0.00711365 -0.0013344 0.00467039)
(0.00389283 -2.14712e-17 1.64879e-18 0.00397515 -0.00145157 0.00427109)
(0.0289514 -6.38305e-16 -4.60584e-16 0.045412 -0.00206274 0.0415526)
(0.0210632 -3.1661e-17 1.26906e-16 0.0111566 -0.00491239 0.0391538)
(0.216186 1.10453e-15 3.12235e-15 0.148808 -0.0223865 0.351774)
(0.578807 3.32566e-15 -2.1606e-15 0.611829 -0.408427 0.647552)
(0.662292 -1.43125e-19 5.50155e-21 0.697776 -3.89511e-05 0.542695)
(0.588245 -7.46856e-19 1.87791e-20 0.611571 -0.000248729 0.441247)
(0.585994 -9.6584e-19 1.66514e-20 0.60373 -0.000217314 0.41524)
(0.572707 -1.33347e-18 2.76417e-20 0.587284 -0.00028189 0.393174)
(0.558545 -1.73433e-18 4.28712e-20 0.570654 -0.000317277 0.371771)
(0.5132 -3.26406e-18 1.28909e-19 0.520997 -0.000548686 0.323634)
(0.522915 -3.0606e-18 1.20724e-19 0.528807 -3.78787e-05 0.318519)
(0.517123 -3.69899e-18 1.80006e-19 0.521869 -0.000324279 0.309317)
(0.50926 -3.88984e-18 3.26799e-19 0.51313 -0.000449734 0.298943)
(0.474915 -6.37431e-18 1.24789e-18 0.476985 -0.000948783 0.269597)
(0.490713 -5.44734e-18 6.23248e-19 0.49247 -0.000427093 0.274055)
(0.488255 -6.19286e-18 7.54119e-19 0.489666 -0.000487068 0.270165)
(0.46313 -1.10007e-17 1.60891e-18 0.463595 -0.00098398 0.251588)
(0.484945 -1.14299e-17 1.53018e-18 0.4855 -0.000471883 0.26333)
(0.485795 -1.47332e-17 1.90721e-18 0.486214 -0.000498105 0.263364)
(0.483408 -2.20914e-17 2.49781e-18 0.48373 -0.000530032 0.260601)
(0.458069 -5.62024e-17 5.62732e-18 0.457827 -0.00110114 0.243345)
(0.478763 -2.37088e-17 -3.74522e-18 0.478849 -0.000471142 0.25515)
(0.478806 -1.51713e-17 -3.90415e-18 0.478873 -0.000481182 0.254952)
(0.458072 -9.58552e-18 -4.4743e-18 0.45782 -0.00117707 0.242211)
(0.482899 1.41423e-18 -3.08461e-18 0.482934 -0.000396014 0.258182)
(0.485521 8.36051e-18 -3.02153e-18 0.48558 -0.00039606 0.26039)
(0.484696 2.01602e-17 -2.79498e-18 0.484801 -0.000429806 0.259416)
(0.462666 5.24476e-17 6.41963e-18 0.462936 -0.00149053 0.245269)
(0.485289 4.51695e-17 4.67863e-18 0.485538 -0.00033865 0.259408)
(0.486747 5.1734e-17 4.91801e-18 0.487053 -0.000332414 0.260554)
(0.484678 4.89383e-17 4.82267e-18 0.485063 -0.000345442 0.258436)
(0.461242 5.64917e-17 -1.43474e-17 0.462133 -0.00184024 0.242849)
(0.480618 3.6284e-17 -2.31481e-18 0.481251 -6.80139e-05 0.254067)
(0.480589 3.23757e-17 -2.36685e-18 0.481305 -3.00108e-05 0.253838)
(0.461872 3.55528e-17 -4.59901e-18 0.463322 -0.00201604 0.242369)
(0.484072 1.42491e-17 3.81194e-18 0.485066 0.000355586 0.256404)
(0.48617 6.57535e-18 3.58455e-18 0.487259 0.000415438 0.258122)
(0.484904 -8.18065e-19 3.25661e-18 0.486158 0.000385537 0.256679)
(0.465616 -1.4244e-17 -5.99238e-18 0.467978 -0.00221537 0.2441)
(0.484439 -1.27513e-17 -4.08072e-18 0.486314 0.000885712 0.255239)
(0.485391 -1.48804e-17 -4.31813e-18 0.487495 0.000908377 0.255807)
(0.471926 -2.29719e-17 -6.65388e-18 0.475441 -0.00221197 0.248028)
(0.492829 -1.84701e-17 -5.36216e-18 0.495732 0.00155552 0.26151)
(0.495718 -1.96304e-17 -6.01255e-18 0.49893 0.00166529 0.263866)
(0.495545 -1.46351e-17 -6.55751e-18 0.499313 0.00164336 0.263115)
(0.482281 -1.01356e-17 -1.64762e-18 0.488232 -0.0019623 0.254405)
(0.499353 -6.04664e-18 -2.45368e-18 0.504903 0.00231721 0.264646)
(0.500898 -4.59292e-18 -3.76898e-18 0.507101 0.00234209 0.265664)
(0.499473 -2.57077e-18 -5.2465e-18 0.506735 0.00212029 0.263582)
(0.486301 2.50603e-19 -1.15345e-17 0.496794 -0.00248614 0.254269)
(0.498548 1.27395e-18 -6.1461e-18 0.509039 0.00209818 0.260786)
(0.49813 4.89724e-18 -9.33348e-18 0.509777 0.00173911 0.260314)
(0.48752 2.10354e-17 -1.75724e-17 0.502715 -0.00462313 0.254427)
(0.496939 3.54589e-17 -2.13853e-17 0.51163 2.6098e-05 0.260697)
(0.494933 1.88024e-17 -2.35216e-17 0.510779 -0.00132075 0.260227)
(0.488479 1.25265e-17 -2.77009e-17 0.506069 -0.00350335 0.256056)
(0.468772 2.04278e-17 -4.71703e-17 0.490725 -0.0152463 0.245354)
(0.465468 1.74112e-17 -4.45335e-17 0.486736 -0.00930747 0.244705)
(0.456074 4.22562e-17 -5.22576e-17 0.47865 -0.0125728 0.240681)
(0.440599 7.54709e-17 -6.49185e-17 0.464964 -0.0163881 0.232764)
(0.408246 1.53178e-16 -1.04175e-16 0.436605 -0.0364898 0.217916)
(0.389848 1.62822e-16 -1.02564e-16 0.416486 -0.0252315 0.21186)
(0.372275 2.07376e-16 -1.29052e-16 0.399749 -0.0302721 0.20555)
(0.338725 3.50769e-16 -2.14584e-16 0.368654 -0.0582807 0.19406)
(0.316519 3.63096e-16 -2.13123e-16 0.343195 -0.0415059 0.189161)
(0.297831 4.39847e-16 -2.56411e-16 0.324639 -0.0480989 0.184396)
(0.274146 5.50228e-16 -3.15641e-16 0.301336 -0.0539631 0.177603)
(0.24129 8.12912e-16 -4.64603e-16 0.269875 -0.0905917 0.169905)
(0.219125 7.93279e-16 -4.52903e-16 0.243362 -0.0662961 0.169322)
(0.205322 9.25581e-16 -5.32396e-16 0.229221 -0.0747623 0.169236)
(0.189572 1.24995e-15 -7.26171e-16 0.213889 -0.116207 0.171197)
(0.179062 1.17651e-15 -6.90704e-16 0.198808 -0.0902586 0.178231)
(0.173944 1.32942e-15 -7.82872e-16 0.193153 -0.100983 0.183151)
(0.170568 1.48298e-15 -8.73686e-16 0.189535 -0.108672 0.189439)
(0.16986 1.81672e-15 -1.07614e-15 0.188937 -0.147057 0.198782)
(0.169061 1.65429e-15 -9.80486e-16 0.183542 -0.119531 0.211466)
(0.171363 1.85126e-15 -1.07026e-15 0.185177 -0.130915 0.219897)
(0.176301 2.0136e-15 -1.12977e-15 0.191357 -0.136508 0.225155)
(0.181854 2.33538e-15 -1.29153e-15 0.196468 -0.163305 0.234998)
(0.185782 2.11132e-15 -1.165e-15 0.197357 -0.137823 0.246107)
(0.190114 2.25617e-15 -1.07328e-15 0.200556 -0.14495 0.254789)
(0.194849 2.48085e-15 -1.04824e-15 0.202782 -0.161013 0.265198)
(0.19919 2.21894e-15 -8.40214e-16 0.204042 -0.138811 0.275772)
(0.204909 2.26565e-15 -7.6677e-16 0.211905 -0.146204 0.275657)
(0.209547 2.15938e-15 -5.93517e-16 0.214422 -0.140263 0.281903)
(0.184899 1.64341e-15 5.64986e-17 0.184877 -0.104039 0.241291)
(0.161755 1.22304e-15 5.04451e-16 0.157898 -0.0808109 0.216868)
(0.12934 8.83108e-16 8.7782e-16 0.117137 -0.0485947 0.183353)
(0.113561 8.95134e-16 1.12366e-15 0.106942 -0.0358437 0.157945)
(0.0846147 6.57781e-16 1.35615e-15 0.0714728 -0.0161497 0.125173)
(0.0684781 5.10547e-16 1.30281e-15 0.0533037 -0.00941174 0.105364)
(0.0601792 4.62305e-16 1.07531e-15 0.0470506 -0.0076124 0.0930312)
(0.0505809 3.79592e-16 8.22721e-16 0.0397362 -0.00609014 0.0785728)
(0.0388019 2.32563e-16 5.38807e-16 0.0302406 -0.00447375 0.0606685)
(0.0248065 4.9848e-17 1.99781e-16 0.0194411 -0.00254181 0.0389411)
(0.0144814 -7.14793e-17 -7.20155e-17 0.0127291 -0.00101644 0.022373)
(0.0141154 -6.45593e-17 -1.06007e-16 0.0136408 -0.000760064 0.021329)
(0.0151263 -6.32063e-17 -1.26244e-16 0.0157756 -0.000773717 0.022705)
(0.0145967 -8.87341e-17 -1.49838e-16 0.0161692 -0.000888595 0.0212608)
(0.014168 -1.34864e-16 -1.80047e-16 0.0168841 -0.00121953 0.0200126)
(0.0137499 -2.09458e-16 -2.19274e-16 0.0176792 -0.00158888 0.0188399)
(0.0127801 -2.22171e-16 -1.95643e-16 0.0161615 -0.00194436 0.0174976)
(0.0116989 -2.17953e-16 -1.6429e-16 0.0145112 -0.00201527 0.0159936)
(0.0103655 -1.9846e-16 -1.23552e-16 0.012535 -0.00203408 0.0139827)
(0.008616 -1.38987e-16 -7.34138e-17 0.00971057 -0.00206996 0.0113667)
(0.0068112 -4.26587e-17 -1.46562e-17 0.00695402 -0.00224986 0.00869993)
(0.0068445 2.28352e-17 -7.47377e-18 0.00729136 -0.00230471 0.0083658)
(0.00651388 3.3527e-17 -5.67778e-18 0.00695955 -0.00246966 0.00756597)
(0.00636791 4.45237e-17 -3.29847e-18 0.00695141 -0.00267308 0.00709243)
(0.00641364 4.9046e-17 4.14914e-19 0.00714021 -0.0028816 0.00708171)
(0.00651184 4.67985e-17 5.1607e-18 0.00745716 -0.00312049 0.00716478)
(0.00657053 3.55877e-17 7.51468e-18 0.00766767 -0.00338053 0.0072389)
(0.00655457 2.10615e-17 2.37245e-18 0.00766372 -0.00361255 0.00724352)
(0.00647154 1.24473e-17 -5.37303e-18 0.00746533 -0.00383801 0.00717887)
(0.00633478 -3.13767e-18 -1.38347e-17 0.00697021 -0.00408494 0.00713979)
(0.00649475 -2.05438e-17 -2.44085e-17 0.00720463 -0.00440163 0.00744658)
(0.00675582 -5.7956e-17 -2.01811e-17 0.00808461 -0.00474923 0.00720439)
(0.00650331 -7.17731e-17 -1.39431e-17 0.00775183 -0.00499896 0.00664171)
(0.00646157 -8.61795e-17 -7.22322e-18 0.00778436 -0.00526516 0.00649149)
(0.00658192 -8.32335e-17 -4.26331e-18 0.00801991 -0.00551008 0.00672612)
(0.00675121 -5.52517e-17 -9.00292e-18 0.00835256 -0.00577523 0.00702418)
(0.00691072 8.1532e-18 -2.42626e-17 0.0086023 -0.00609523 0.00731076)
(0.00706101 6.96681e-17 -3.9397e-17 0.00879088 -0.00643384 0.00757036)
(0.00696401 9.8405e-17 -4.43262e-17 0.00823477 -0.00676137 0.00760439)
(0.00716136 1.29856e-16 -4.80944e-17 0.00844542 -0.00714395 0.00795739)
(0.00780843 1.61292e-16 -4.48859e-17 0.010243 -0.00800629 0.0077553)
(0.00775889 1.56605e-16 -4.28204e-17 0.0102522 -0.00842853 0.00733038)
(0.00798504 1.31597e-16 -4.3144e-17 0.0106667 -0.00884045 0.00747215)
(0.00838598 1.11548e-16 -5.09005e-17 0.0112857 -0.00916703 0.00811295)
(0.00879037 9.52782e-17 -5.69803e-17 0.011905 -0.00951276 0.00877901)
(0.00913549 5.1139e-17 -5.35178e-17 0.0122587 -0.00991569 0.00937809)
(0.00949779 -3.10208e-17 -3.81802e-17 0.0125588 -0.0103742 0.00993907)
(0.00969742 -1.62482e-16 -9.59764e-18 0.0121045 -0.0108193 0.0103884)
(0.0103717 -2.06653e-16 4.99808e-18 0.0126311 -0.0110894 0.0113272)
(0.0124848 -2.6742e-16 1.31157e-17 0.0162043 -0.0138252 0.0129104)
(0.0133561 -2.96859e-16 2.5642e-17 0.0171839 -0.0143947 0.0137381)
(0.0147612 -2.95341e-16 3.04328e-17 0.0188457 -0.0149891 0.0154347)
(0.0167464 -2.19799e-16 3.14626e-18 0.0212177 -0.0155916 0.0180111)
(0.0192551 -1.49998e-16 -2.90712e-17 0.0241263 -0.0160621 0.021171)
(0.0222655 -1.75674e-16 -2.11586e-17 0.0272563 -0.0165399 0.0248923)
(0.026328 -2.45327e-16 4.27488e-18 0.0314913 -0.0170365 0.0297831)
(0.0312837 -3.37705e-16 3.66888e-17 0.0356775 -0.0172848 0.0358082)
(0.0389868 -4.7372e-16 8.23551e-17 0.0432855 -0.0175295 0.0451388)
(0.0575268 -9.38971e-16 2.06743e-16 0.064503 -0.0247369 0.0674965)
(0.0661784 -1.06053e-15 2.44597e-16 0.073031 -0.0251042 0.0785345)
(0.0766568 -1.23252e-15 3.04261e-16 0.0832056 -0.0250836 0.092033)
(0.0896925 -1.48303e-15 3.94024e-16 0.0961803 -0.0244988 0.108824)
(0.105804 -1.865e-15 5.33254e-16 0.111721 -0.0226969 0.129995)
(0.125659 -2.44192e-15 7.03848e-16 0.131327 -0.0177999 0.15587)
(0.143945 -2.69174e-15 8.17202e-16 0.141847 -0.00831558 0.182011)
(0.165906 -2.66207e-15 8.71086e-16 0.150486 0.00165587 0.215379)
(0.191427 -2.54564e-15 8.47265e-16 0.154642 0.0153974 0.254612)
(0.2248 -2.22115e-15 7.36599e-16 0.152963 0.0303059 0.306136)
(0.281691 -1.74472e-15 4.61063e-16 0.181038 0.046812 0.384468)
(0.300092 -1.48234e-15 3.14035e-16 0.18828 0.0594122 0.411687)
(0.317926 -1.22608e-15 1.52182e-16 0.191602 0.0738052 0.443044)
(0.347172 -1.08611e-15 3.39137e-17 0.211551 0.0869436 0.496118)
(0.379666 -7.98338e-16 -1.70347e-16 0.231013 0.0943096 0.555695)
(0.404824 -5.74972e-16 -3.65405e-16 0.224516 0.0866794 0.602905)
(0.410173 -6.42979e-16 -4.91401e-16 0.225029 0.0670559 0.606389)
(0.346856 -8.15491e-16 -5.96365e-16 0.200195 0.0448318 0.495374)
(0.24125 -9.32542e-16 -7.10485e-16 0.148798 0.0331262 0.314537)
(0.225817 -8.48108e-16 -5.02844e-16 0.153555 -0.0200899 0.280277)
(0.173077 -5.87008e-16 -3.22967e-16 0.133713 -0.00390345 0.19181)
(0.106971 -2.02707e-16 -4.45986e-17 0.0980028 0.00561483 0.0673102)
(0.100852 -7.6473e-17 5.17004e-18 0.0925669 0.00580841 0.0611503)
(0.0950838 -5.59602e-17 1.40965e-17 0.0868023 0.00624093 0.0599944)
(0.0955746 -3.60989e-17 1.4481e-17 0.0879462 0.00713127 0.0597774)
(0.0919162 -3.71767e-17 1.35498e-17 0.0838909 0.00639563 0.0589816)
(0.0987919 -2.5597e-17 8.1999e-18 0.0945825 0.00738591 0.0527921)
(0.0966472 -2.59171e-17 5.96511e-18 0.093477 0.00646129 0.050767)
(0.103198 -1.98023e-17 5.17855e-18 0.0986392 0.00708027 0.0527306)
(0.111564 -1.50626e-17 5.51504e-18 0.106712 0.00832588 0.0559524)
(0.108396 -1.4998e-17 4.81668e-18 0.103347 0.00531912 0.0544439)
(0.113596 -1.31309e-17 5.29455e-18 0.107244 0.00526647 0.0561866)
(0.120886 -1.24517e-17 5.84879e-18 0.114462 0.00622983 0.059056)
(0.11638 -1.47077e-17 5.88854e-18 0.109801 0.00492433 0.0570184)
(0.124106 -1.64497e-17 6.29868e-18 0.118657 0.00574124 0.0582148)
(0.11971 -1.91245e-17 5.27595e-18 0.115121 0.00435188 0.0559512)
(0.124519 -2.03786e-17 5.89907e-18 0.119068 0.00473939 0.0574003)
(0.132625 -2.04349e-17 6.84991e-18 0.127395 0.00598672 0.0602405)
(0.127052 -2.27e-17 6.06153e-18 0.121873 0.00474312 0.0575699)
(0.135236 -1.98649e-17 6.57234e-18 0.131676 0.00584804 0.0582121)
(0.12983 -2.07069e-17 6.57814e-18 0.12725 0.0045398 0.0555151)
(0.134002 -1.90529e-17 7.12459e-18 0.130855 0.00523026 0.0565603)
(0.142266 -1.71467e-17 7.73553e-18 0.139406 0.0067723 0.0594635)
(0.136161 -2.26835e-17 7.17126e-18 0.133126 0.00410015 0.0571134)
(0.139545 -2.17663e-17 7.32689e-18 0.135491 0.00403621 0.0581782)
(0.147281 -1.73737e-17 7.81073e-18 0.143285 0.0051308 0.0608895)
(0.140691 -1.78957e-17 7.69946e-18 0.136448 0.00377039 0.0584981)
(0.148051 -1.43877e-17 8.22475e-18 0.144808 0.00466201 0.0597469)
(0.141722 -1.46444e-17 6.74762e-18 0.13933 0.00320106 0.0570412)
(0.144151 -7.815e-18 7.15816e-18 0.141232 0.00340313 0.0575844)
(0.151339 2.96159e-19 7.02292e-18 0.14864 0.0046732 0.0599976)
(0.144278 4.21747e-18 8.03496e-18 0.141368 0.00348668 0.0575441)
(0.15126 7.86071e-18 7.65316e-18 0.149128 0.00477937 0.0591093)
(0.144568 9.98007e-18 7.24607e-18 0.143193 0.00374512 0.0564839)
(0.14666 1.38726e-17 7.14466e-18 0.144804 0.00457175 0.0570421)
(0.153998 1.76135e-17 7.72582e-18 0.152397 0.0066539 0.0595707)
(0.146986 1.96036e-17 5.08374e-18 0.145149 0.00340809 0.0571315)
(0.148568 1.94476e-17 4.39065e-18 0.145848 0.00275201 0.0577026)
(0.155481 1.83408e-17 4.40005e-18 0.15288 0.00366128 0.0601579)
(0.148339 2.26052e-17 3.8895e-18 0.145258 0.0024061 0.0578274)
(0.155146 1.84474e-17 3.26638e-18 0.15283 0.00340481 0.059439)
(0.14859 2.15658e-17 4.71003e-18 0.146851 0.00226381 0.0568907)
(0.15006 1.19991e-17 5.07115e-18 0.147936 0.00220239 0.0572464)
(0.156633 -3.86438e-18 6.42762e-18 0.154819 0.00328499 0.0594708)