/*--------------------------------*- C++ -*----------------------------------*\
| =========                 |                                                 |
| \\      /  F ield         | OpenFOAM: The Open Source CFD Toolbox           |
|  \\    /   O peration     | Version:  4.1                                   |
|   \\  /    A nd           | Web:      www.OpenFOAM.org                      |
|    \\/     M anipulation  |                                                 |
\*---------------------------------------------------------------------------*/
FoamFile
{
    version     2.0;
    format      ascii;
    class       volVectorField;
    location    "1";
    object      U;
}
// * * * * * * * * * * * * * * * * * * * * * * * * * * * * * * * * * * * * * //

dimensions      [0 1 -1 0 0 0 0];

internalField   nonuniform List<vector> 
6785
(
(1.06312e-14 -0.60206 16.0701)
(1.03044e-14 -6.53021 12.433)
(-2.3189e-15 -4.77594 12.7693)
(3.0688e-15 -4.26002 12.5421)
(8.88175e-16 -3.66489 12.3714)
(5.34374e-16 -3.2109 12.1465)
(1.82443e-15 -2.84127 11.891)
(4.88098e-16 -2.57463 11.5926)
(6.35168e-16 -2.41291 11.2514)
(1.11525e-15 -2.32466 10.8975)
(2.46466e-17 -2.30304 10.5703)
(7.13856e-18 -2.55014 10.1657)
(-8.59119e-16 -3.04789 9.51978)
(-1.69044e-15 -2.30354 8.88142)
(5.69933e-16 1.08694 7.34591)
(1.92601e-14 -7.37151 25.9957)
(1.52087e-14 -16.5827 21.693)
(-2.03801e-15 -11.6657 22.1432)
(6.45674e-15 -11.8687 20.7647)
(1.00984e-15 -10.9258 19.7835)
(2.19233e-15 -10.1856 18.7455)
(4.17613e-15 -9.42744 17.7119)
(1.01191e-15 -8.68553 16.6741)
(2.21436e-15 -7.97919 15.6547)
(1.60609e-15 -7.33511 14.7595)
(-6.158e-17 -6.81692 14.0339)
(1.86613e-15 -6.59057 13.0252)
(4.27775e-16 -6.58918 11.0553)
(3.75633e-16 -6.04502 8.59428)
(-4.40959e-16 -3.48853 6.05766)
(2.85827e-14 -10.387 28.1801)
(1.37591e-14 -17.645 24.4421)
(-7.12119e-16 -12.0408 25.0435)
(1.05533e-14 -12.7861 22.9483)
(9.11546e-16 -11.2861 21.8335)
(1.03729e-15 -10.4391 20.4587)
(5.61798e-15 -9.51644 19.1551)
(-1.84377e-16 -8.66966 17.9066)
(-7.81209e-16 -7.86279 16.7464)
(1.64663e-15 -6.9595 15.3799)
(1.25717e-15 -5.45469 12.6449)
(1.46325e-14 -2.63007 7.07365)
(3.29273e-14 0.793746 0.58493)
(2.26334e-14 1.28278 -0.667956)
(3.9529e-15 -0.953242 1.82402)
(2.03481e-14 -11.5457 27.6676)
(1.4643e-14 -17.7753 24.4923)
(-1.5568e-15 -12.0461 24.9158)
(4.48887e-15 -13.7228 22.2408)
(2.5122e-15 -11.7221 21.3046)
(-1.69092e-15 -11.2545 19.6455)
(-6.33389e-17 -10.3694 18.2846)
(-5.58651e-16 -9.67915 16.929)
(-6.07409e-15 -9.02059 15.7049)
(-5.16596e-15 -8.32208 14.4076)
(-2.22508e-15 -7.13686 12.2064)
(-6.60786e-16 -4.7465 7.78584)
(1.38404e-14 -1.20614 1.95426)
(1.98172e-14 3.0434 -3.12883)
(3.25013e-15 2.08335 -4.36829)
(1.31512e-14 -11.6309 25.9794)
(9.27578e-15 -18.0837 25.5379)
(-4.60509e-16 -12.5306 24.7717)
(-1.02937e-15 -14.1055 21.86)
(-3.32623e-15 -12.0584 20.9657)
(-5.13486e-15 -11.6674 19.1834)
(-6.39868e-15 -10.8215 17.7069)
(-7.57374e-15 -10.0654 16.2407)
(-1.04299e-14 -9.34429 14.8502)
(-1.03313e-14 -8.63804 13.4786)
(-8.6303e-15 -7.74963 11.8189)
(-8.0842e-15 -6.29972 9.28903)
(-1.34245e-15 -4.2351 5.85221)
(3.76058e-15 -1.62186 2.49214)
(1.3492e-14 -0.0990316 -1.50603)
(6.7616e-15 -11.143 23.6148)
(-7.18891e-16 -17.9977 26.3485)
(-8.29933e-15 -13.1226 24.8592)
(-5.28672e-15 -13.8869 21.7727)
(-1.14502e-14 -11.9601 20.7368)
(-1.5281e-14 -11.4529 18.9373)
(-1.27477e-14 -10.5629 17.3919)
(-1.43199e-14 -9.66839 15.8812)
(-1.41275e-14 -8.82624 14.3948)
(-8.91415e-15 -8.02185 12.9301)
(-8.85316e-15 -7.18397 11.3886)
(-7.52695e-15 -6.10188 9.55707)
(1.01721e-15 -4.71683 7.08156)
(-2.45699e-16 -2.80253 3.97825)
(3.7905e-15 -0.808651 -1.45403)
(1.30607e-14 -10.5648 21.4708)
(1.15519e-15 -17.4065 26.3279)
(-9.54802e-15 -13.6079 24.9156)
(-4.13682e-15 -13.6014 21.808)
(-5.95721e-15 -11.9139 20.4693)
(-7.14596e-15 -11.2922 18.718)
(-3.90563e-15 -10.4359 17.1827)
(-1.29421e-15 -9.53799 15.7126)
(4.66085e-15 -8.6973 14.2458)
(9.38814e-15 -7.88696 12.7878)
(1.04416e-14 -7.09033 11.3043)
(1.70426e-14 -6.14299 9.75745)
(2.33528e-14 -5.09279 7.80813)
(2.59279e-14 -3.70253 5.12495)
(3.01647e-14 -1.7284 0.145707)
(3.10136e-14 -10.3056 20.2189)
(2.0411e-14 -16.4571 25.499)
(5.31743e-15 -13.7257 24.5526)
(3.08772e-15 -13.341 21.6582)
(1.14711e-14 -11.9131 20.0592)
(2.2667e-14 -11.2489 18.39)
(2.35268e-14 -10.4809 16.9477)
(2.63386e-14 -9.68592 15.5951)
(3.37051e-14 -8.9361 14.2543)
(3.15216e-14 -8.19713 12.9179)
(3.23536e-14 -7.47479 11.5615)
(4.43835e-14 -6.59999 10.2042)
(4.49232e-14 -5.68165 8.59923)
(4.43704e-14 -4.60667 6.34437)
(7.52401e-14 -2.4467 1.83291)
(3.46281e-14 -10.4886 19.8654)
(5.01025e-14 -15.3691 24.2168)
(2.14157e-14 -13.3609 23.6812)
(1.09713e-14 -12.9636 21.0937)
(2.65003e-14 -11.7193 19.4672)
(4.36198e-14 -11.106 17.9134)
(4.55062e-14 -10.4169 16.6233)
(4.46366e-14 -9.74037 15.4302)
(3.74247e-14 -9.09792 14.2677)
(2.56108e-14 -8.46231 13.1121)
(2.90628e-14 -7.8378 11.9475)
(3.46169e-14 -7.05038 10.7915)
(3.49092e-14 -6.24364 9.47794)
(3.83871e-14 -5.40839 7.6398)
(6.43809e-14 -3.23328 3.62881)
(2.24259e-14 -10.9269 20.0643)
(6.81434e-14 -14.4485 23.0384)
(2.01434e-14 -12.6416 22.5162)
(6.69735e-15 -12.4662 20.1827)
(2.0748e-14 -11.283 18.7728)
(3.12111e-14 -10.8277 17.3459)
(3.62917e-14 -10.1886 16.2419)
(2.90718e-14 -9.62537 15.214)
(-1.94711e-15 -9.08307 14.2378)
(-2.08369e-14 -8.56432 13.2672)
(-1.50447e-14 -8.04374 12.3126)
(-2.27629e-14 -7.36208 11.3698)
(-1.69767e-14 -6.69895 10.3498)
(-5.43255e-15 -6.04161 8.8539)
(1.48646e-14 -3.97992 5.44467)
(-3.80203e-15 -11.3413 20.3962)
(5.3606e-14 -13.9769 22.4699)
(-3.41751e-15 -11.8243 21.3577)
(-2.54121e-14 -11.9248 19.1359)
(-1.9496e-14 -10.6556 18.0743)
(-1.88751e-14 -10.4596 16.7304)
(-1.45994e-14 -9.82484 15.8409)
(-2.56052e-14 -9.37951 14.9648)
(-7.65115e-14 -8.91642 14.1676)
(-1.01404e-13 -8.52408 13.3556)
(-9.16877e-14 -8.07862 12.603)
(-1.13854e-13 -7.51941 11.8418)
(-1.03392e-13 -7.03229 11.1305)
(-8.97028e-14 -6.49687 9.82987)
(-4.93913e-14 -4.69184 7.11288)
(-2.6367e-14 -11.5158 20.3876)
(1.64363e-14 -14.0371 22.6825)
(-4.54091e-14 -11.2419 20.5246)
(-6.82647e-14 -11.4027 18.1587)
(-8.04462e-14 -9.98018 17.3703)
(-9.84331e-14 -10.0446 16.0527)
(-8.10073e-14 -9.40873 15.3724)
(-9.43229e-14 -9.08444 14.6333)
(-1.62512e-13 -8.6807 14.006)
(-1.79631e-13 -8.42573 13.3202)
(-1.71636e-13 -8.01166 12.7587)
(-2.11856e-13 -7.59307 12.1239)
(-1.83503e-13 -7.25524 11.737)
(-1.95794e-13 -6.72952 10.4049)
(-1.16865e-13 -5.32289 8.51247)
(-2.66455e-14 -11.4563 20.1012)
(-1.27724e-14 -14.3416 23.3199)
(-7.07065e-14 -11.2522 20.4232)
(-8.61651e-14 -11.0313 17.5845)
(-1.20936e-13 -9.47928 16.7231)
(-1.60506e-13 -9.61614 15.446)
(-1.30993e-13 -9.03327 14.9371)
(-1.4218e-13 -8.81055 14.3581)
(-2.15931e-13 -8.45229 13.9213)
(-2.22362e-13 -8.36646 13.3445)
(-2.25631e-13 -7.90695 12.9944)
(-2.62796e-13 -7.73212 12.43)
(-2.22828e-13 -7.4246 12.3783)
(-2.73868e-13 -7.0083 10.9108)
(-1.6223e-13 -5.9454 10.0017)
(-6.02803e-15 -11.2967 19.1553)
(-3.35066e-14 -14.1901 23.1782)
(-7.12664e-14 -11.0671 20.0144)
(-8.52537e-14 -10.4433 16.9022)
(-1.45274e-13 -8.84723 15.9873)
(-1.83879e-13 -9.07282 14.7768)
(-1.38833e-13 -8.57853 14.386)
(-1.44081e-13 -8.46142 13.8794)
(-2.07342e-13 -8.12931 13.5269)
(-2.02874e-13 -8.16863 12.975)
(-2.22779e-13 -7.67874 12.7662)
(-2.42648e-13 -7.63586 12.2095)
(-2.05559e-13 -7.37563 12.4558)
(-2.69634e-13 -6.8707 10.6692)
(-1.8278e-13 -6.26531 10.6461)
(2.43771e-14 -10.2945 17.5669)
(2.1653e-14 -16.4603 25.4568)
(3.05907e-14 -14.7064 22.7624)
(7.54822e-14 -12.7062 18.5933)
(3.76043e-14 -10.7258 15.916)
(-3.11107e-14 -9.97535 14.2633)
(-2.85033e-14 -9.56662 13.6277)
(-5.22792e-14 -9.4765 13.4961)
(-1.12243e-13 -9.23648 13.6456)
(-1.09083e-13 -9.46457 13.5383)
(-1.37002e-13 -8.982 13.7297)
(-1.42861e-13 -9.17847 13.4587)
(-1.03862e-13 -8.77059 14.1577)
(-1.92487e-13 -8.31638 12.2047)
(-1.63129e-13 -7.7047 13.548)
(1.04641e-19 0.00175083 0.0113592)
(1.33474e-18 0.0134388 0.14454)
(2.02231e-19 0.0335122 0.0233248)
(1.74729e-19 0.0316155 0.00995382)
(5.77575e-19 0.0300124 0.0214644)
(3.88856e-18 0.0540107 0.15116)
(1.21854e-17 0.0558568 0.0270413)
(4.01585e-17 0.0583188 0.0117193)
(1.72862e-16 0.0532669 0.0222221)
(5.60516e-16 0.0915662 0.153341)
(2.49766e-16 0.0744424 0.0340232)
(8.2049e-17 0.0798578 0.0286321)
(2.54966e-17 0.107756 0.157935)
(1.56981e-17 0.089939 0.0272615)
(1.02597e-17 0.0949949 0.0108614)
(5.38147e-18 0.0891693 0.0216118)
(-9.50938e-17 0.131677 0.151062)
(2.09755e-15 0.0817497 0.0300535)
(2.86463e-16 0.0918303 0.0260376)
(-6.36904e-18 0.115648 0.144581)
(-3.76943e-17 0.0745239 0.0205565)
(-3.87567e-17 0.0779818 0.00810491)
(1.97356e-15 0.0758883 0.0198468)
(1.919e-16 0.0977393 0.128086)
(-6.54001e-17 0.0543619 0.017425)
(-2.08484e-16 0.055744 0.00832151)
(-4.37091e-15 0.0572842 0.0212657)
(-7.33466e-16 0.101229 0.114521)
(-1.91033e-15 0.0183584 0.0206806)
(-8.72212e-17 0.0379235 0.025956)
(-6.23069e-16 0.058298 0.0992663)
(-1.87527e-15 0.0148024 0.0112032)
(-2.5862e-16 0.00661676 0.00848853)
(-1.95445e-15 0.0171174 0.0274488)
(1.39694e-16 0.0813029 0.0706499)
(5.48152e-17 -0.0364698 0.0166035)
(5.99437e-17 -0.00687699 0.0321148)
(1.4335e-16 0.0299163 0.028549)
(2.73946e-16 -0.0197568 -0.00306691)
(7.30433e-16 -0.0372734 0.012069)
(1.58993e-15 -0.0210971 0.0345706)
(-4.96147e-16 0.00938447 -0.0500356)
(-1.53429e-16 -0.0087814 -0.0152786)
(-2.57613e-16 -0.0350154 0.0232136)
(-5.50779e-16 -0.0141727 0.04531)
(-9.94157e-16 0.171971 -0.141475)
(5.74887e-17 -0.027974 -0.0054064)
(1.26522e-15 0.0283944 0.00821929)
(9.39257e-16 0.151605 -0.327363)
(2.84557e-16 0.159088 -0.0434712)
(-7.66566e-17 0.109722 0.0520056)
(6.85327e-16 0.118953 -0.0044158)
(1.20552e-15 0.26948 -0.560321)
(1.02037e-15 0.320839 -0.0107157)
(7.6935e-16 0.237334 0.152815)
(-4.63909e-16 0.248814 0.0378072)
(-1.94233e-15 0.698281 -0.744625)
(-5.33601e-16 0.314476 -0.053167)
(-5.0028e-16 0.359905 -0.127578)
(-1.16002e-15 0.40204 -0.914154)
(-1.1942e-15 0.522104 0.0999208)
(-1.60383e-15 0.349535 0.253649)
(-1.84574e-15 0.387015 -0.164982)
(-2.79228e-15 0.72088 -1.22513)
(-1.46051e-15 0.240483 -0.151104)
(-1.31143e-15 0.257398 -0.370995)
(-7.23305e-16 0.0567444 -0.725576)
(-3.81875e-16 0.0617704 0.587711)
(1.47315e-15 -0.194359 0.642487)
(5.77112e-15 -0.153681 0.537076)
(1.15828e-14 -0.546238 1.93868)
(4.20121e-15 -0.900032 3.11029)
(-2.48666e-16 -1.24845 3.66671)
(-1.13926e-14 -1.33713 4.35173)
(-4.83228e-14 -2.37079 8.1119)
(-6.09482e-14 -2.98434 7.93168)
(-7.63492e-14 -3.28781 8.87583)
(-1.16413e-13 -4.98208 13.7444)
(-8.67325e-14 -5.23255 11.6602)
(-8.7292e-14 -5.60489 13.0136)
(-1.109e-13 -6.53825 16.3944)
(-1.05565e-13 -6.20344 15.4966)
(-1.07197e-13 -6.34731 15.3824)
(-1.03588e-13 -5.95765 14.4194)
(-1.09506e-13 -6.0626 14.3975)
(-1.18972e-13 -6.03324 13.7986)
(-1.22289e-13 -6.10221 13.8763)
(-1.26287e-13 -6.1064 13.9328)
(-1.29898e-13 -6.13406 13.9861)
(-1.35046e-13 -6.12342 14.076)
(-1.38623e-13 -6.11309 14.2306)
(-1.42566e-13 -6.14608 14.3409)
(-1.82332e-13 -5.7627 13.8343)
(-1.62849e-13 -6.12615 13.8436)
(-1.58273e-13 -6.06276 13.6923)
(-1.40856e-13 -6.07008 13.7342)
(-1.27916e-13 -6.09123 13.7755)
(-1.10447e-13 -6.07121 14.0213)
(-9.62016e-14 -6.07694 14.1476)
(-8.96077e-14 -6.01586 14.2538)
(-9.04855e-14 -6.08681 14.2861)
(-1.01437e-13 -5.70187 14.4462)
(-1.06913e-13 -6.19924 14.2793)
(-1.13294e-13 -6.13492 14.2421)
(-1.16599e-13 -6.18034 14.2331)
(-1.18709e-13 -6.16782 14.216)
(-1.17813e-13 -6.18205 14.2057)
(-1.15309e-13 -6.21069 14.23)
(-1.15893e-13 -6.16753 14.2922)
(-1.11774e-13 -6.1334 14.314)
(-1.04429e-13 -6.2244 14.3228)
(-1.01103e-13 -5.88785 14.5778)
(-8.33772e-14 -6.39601 14.37)
(-6.83579e-14 -6.35516 14.4271)
(-6.62665e-14 -6.38563 14.4932)
(-7.17956e-14 -6.40346 14.5308)
(-8.15908e-14 -6.41875 14.5488)
(-8.85239e-14 -6.40398 14.5345)
(-9.84041e-14 -6.35673 14.5484)
(-1.12472e-13 -6.47481 14.562)
(-1.78979e-13 -6.24175 14.9999)
(-1.73037e-13 -6.72021 14.599)
(-1.85375e-13 -6.71487 14.631)
(-1.8598e-13 -6.73904 14.6758)
(-1.86946e-13 -6.76832 14.7158)
(-1.76567e-13 -6.79744 14.7648)
(-1.60337e-13 -6.77846 14.8247)
(-1.45891e-13 -6.73028 14.8983)
(-1.40508e-13 -6.87711 15.0484)
(-1.83516e-13 -6.56984 15.5285)
(-1.59852e-13 -7.09515 15.034)
(-1.6716e-13 -7.09477 15.1015)
(-1.81702e-13 -7.08779 15.1924)
(-1.88817e-13 -7.14055 15.4513)
(-2.00273e-13 -7.15085 15.6502)
(-2.15293e-13 -7.13539 15.8509)
(-2.316e-13 -7.11264 16.113)
(-2.46175e-13 -7.16979 16.3798)
(-3.15372e-13 -6.43241 16.7588)
(-2.45176e-13 -7.04703 16.633)
(-2.33471e-13 -6.94339 16.9134)
(-2.07599e-13 -6.94253 17.2329)
(-1.77694e-13 -6.9006 17.6422)
(-1.47913e-13 -6.81211 18.1838)
(-1.2958e-13 -6.96621 19.2194)
(-1.09444e-13 -6.83275 19.3325)
(-9.39979e-14 -6.89375 19.6289)
(-8.86538e-14 -6.84538 19.6408)
(-1.04756e-13 -4.45411 17.0567)
(-7.57632e-14 -5.62047 17.2276)
(-7.08852e-14 -5.3546 16.5839)
(-6.47129e-14 -5.32022 15.4111)
(-5.63424e-14 -5.16929 13.7725)
(-4.456e-14 -5.08461 11.5364)
(-2.66257e-14 -4.91427 8.50235)
(-7.14364e-15 -4.5393 5.395)
(6.39596e-15 -4.4464 3.71437)
(1.24942e-14 -2.40202 -1.07705)
(1.09725e-14 -3.08539 3.38138)
(6.83339e-15 -3.06075 2.45784)
(-1.57778e-14 -1.63751 -1.50157)
(-3.68029e-15 -4.00393 -0.379162)
(-1.84407e-15 -2.72698 -0.455898)
(-1.98853e-15 -2.73821 -0.00663338)
(-1.15743e-15 -3.61712 -0.202276)
(-1.00989e-15 -2.38903 -0.0531528)
(-9.31602e-16 -3.37596 -0.235376)
(-7.32822e-16 -3.02768 -0.189401)
(-1.2228e-15 -2.40975 -0.107244)
(-1.78355e-15 -3.09379 -0.280121)
(-1.51894e-15 -2.7273 -0.182566)
(-1.1709e-15 -2.3715 -0.0617717)
(-1.53021e-15 -3.23022 -0.174088)
(-8.46316e-16 -2.10415 -0.0783622)
(-5.72081e-16 -2.88464 -0.190574)
(-8.81604e-16 -2.43749 -0.110212)
(-8.33684e-16 -2.13794 -0.0241767)
(-1.1513e-15 -2.89742 -0.104976)
(-1.13197e-15 -1.88149 -0.0422425)
(-1.78903e-15 -2.62846 -0.128888)
(-1.58644e-15 -2.29852 -0.119896)
(-1.31243e-15 -1.84032 -0.0755131)
(-1.75216e-15 -2.34605 -0.172846)
(-9.89476e-16 -2.05094 -0.140445)
(-9.57953e-16 -1.75598 -0.0806411)
(-1.35269e-15 -2.38656 -0.170884)
(-1.06973e-15 -1.53844 -0.11049)
(-1.40791e-15 -2.08827 -0.190398)
(-1.85749e-15 -1.74229 -0.143694)
(-1.67108e-15 -1.50257 -0.0843727)
(-2.05551e-15 -2.03215 -0.151814)
(-1.31344e-15 -1.29378 -0.0960595)
(-1.49396e-15 -1.77675 -0.158132)
(-4.50862e-16 -1.52275 -0.134346)
(-4.67339e-17 -1.21556 -0.105628)
(2.74281e-16 -1.51478 -0.178772)
(6.13901e-16 -1.29051 -0.137322)
(-3.04961e-17 -1.08841 -0.0921062)
(-6.2206e-16 -1.48638 -0.152431)
(-1.06046e-15 -0.931614 -0.111585)
(-1.85599e-15 -1.24126 -0.173616)
(-1.84223e-15 -0.989608 -0.12708)
(-9.95677e-16 -0.844346 -0.082811)
(-7.45473e-16 -1.15386 -0.12929)
(-3.75966e-16 -0.695221 -0.0929174)
(-1.3227e-16 -0.927464 -0.151568)
(4.86301e-16 -0.737419 -0.126894)
(-2.72588e-16 -0.592252 -0.0986021)
(-1.4216e-15 -0.67956 -0.169663)
(-2.96531e-15 -0.507646 -0.136276)
(-3.4782e-15 -0.406167 -0.0893457)
(-4.95712e-15 -0.578613 -0.118443)
(-3.20706e-15 -0.309294 -0.0813075)
(-2.71899e-15 -0.403157 -0.0898884)
(-9.18958e-16 -0.264312 -0.0395601)
(-7.45913e-16 -0.209083 -0.0481102)
(-3.22088e-16 -0.363519 0.00773761)
(5.44546e-17 -0.146052 -0.0207832)
(2.00353e-16 -0.219541 0.0575095)
(1.50497e-15 -0.141473 0.0708012)
(2.12203e-15 -0.116172 0.00698638)
(3.53268e-15 -0.123371 0.104433)
(1.45272e-15 -0.0855266 0.111607)
(-8.07525e-16 -0.0298307 0.0259971)
(-2.20761e-15 -0.173337 0.144613)
(-2.01663e-15 -0.0219929 0.0573537)
(-1.45453e-15 -0.0905218 0.178977)
(1.00446e-16 -0.030099 0.13982)
(3.89642e-16 -0.0061238 0.0415939)
(1.06422e-15 -0.142612 0.120061)
(2.3219e-15 -0.00698732 0.0388247)
(4.63865e-15 -0.0700387 0.0415018)
(3.78028e-15 0.00219666 -0.0549289)
(2.14201e-15 -0.0229828 -0.0258189)
(2.89746e-15 -0.0334787 -0.166404)
(2.15661e-15 0.016065 -0.196712)
(1.74052e-15 0.0439137 -0.0560054)
(1.05542e-15 -0.296283 -0.142252)
(3.31541e-16 0.187206 0.0147745)
(1.31003e-15 -0.00623887 -0.00989038)
(-5.52782e-64 0.153354 0.0839476)
(-2.91584e-63 0.31872 0.096839)
(-1.29459e-62 0.454277 0.10644)
(-5.26291e-62 0.584168 0.114)
(-1.95621e-61 0.714065 0.123587)
(-6.58653e-61 0.838386 0.127187)
(-2.07945e-60 0.971714 0.134496)
(-6.11908e-60 1.0977 0.145149)
(-1.64022e-59 1.2274 0.150931)
(-2.98672e-59 1.38178 0.162021)
(8.98484e-59 1.51696 0.173734)
(1.61423e-57 1.64342 0.175292)
(1.05412e-56 1.8037 0.163546)
(-3.61479e-56 2.00794 0.188846)
(-2.29117e-54 2.12698 0.206555)
(-3.84822e-53 2.21944 0.232977)
(-4.06634e-52 2.43438 0.230883)
(-2.56244e-51 2.66165 0.257913)
(2.68081e-51 2.81064 0.308925)
(2.89186e-49 2.95922 0.322754)
(3.91995e-48 3.06984 0.372055)
(3.14061e-47 3.05651 0.393207)
(1.48648e-46 3.14468 0.409959)
(1.21412e-47 3.22434 0.432576)
(-7.68273e-45 3.29621 0.433912)
(-8.94231e-44 3.43054 0.444963)
(-6.46785e-43 3.4892 0.44424)
(-3.00686e-42 3.65821 0.439844)
(-4.38975e-42 3.79903 0.458718)
(6.59154e-41 3.69266 0.455298)
(7.07104e-40 3.41825 0.406756)
(4.08316e-39 3.10892 0.327434)
(1.60292e-38 2.76383 0.208883)
(4.0557e-38 2.27825 0.048591)
(1.11928e-38 1.71966 -0.137799)
(-2.30827e-37 1.2184 -0.0225128)
(-2.92217e-36 1.9928 -0.198152)
(-3.9482e-36 3.44918 -2.48)
(-2.33613e-36 10.6466 -0.072669)
(-1.20424e-37 -5.81074 -0.59581)
(6.99774e-37 -10.0067 -0.775774)
(8.52792e-35 -15.6353 -0.939726)
(2.67511e-33 -22.0035 -0.887774)
(3.60276e-32 -27.0326 -0.605313)
(5.60526e-34 -29.7233 -0.281061)
(6.0691e-33 -32.3434 0.764778)
(1.4216e-31 -32.6217 3.2035)
(1.80317e-31 -24.8846 1.44672)
(-5.56031e-32 -17.0299 4.75056)
(7.87708e-33 -2.50954 5.23681)
(-4.35443e-32 5.73597 4.00649)
(9.33106e-33 8.58782 2.54184)
(5.20356e-35 10.8706 0.783824)
(2.62743e-35 11.4289 -0.86707)
(2.28781e-34 11.0241 -2.01461)
(1.67018e-33 9.977 -2.70147)
(8.79499e-33 8.58512 -3.00221)
(4.34398e-32 7.10642 -3.0177)
(2.0815e-31 5.72656 -2.84977)
(8.93205e-31 4.54998 -2.59185)
(3.78806e-30 3.63951 -2.298)
(1.61876e-29 3.06159 -2.00977)
(6.26835e-29 2.85265 -1.74989)
(2.41207e-28 2.97335 -1.53576)
(9.01724e-28 3.3217 -1.34835)
(3.05481e-27 3.78656 -1.26218)
(8.896e-27 4.03777 -1.12514)
(2.37138e-26 4.02416 -0.947966)
(-9.09905e-26 4.03304 -0.863046)
(-1.22525e-24 3.97622 -0.693651)
(8.98881e-24 3.52271 -0.401258)
(2.23267e-22 3.79221 -0.835188)
(-1.6659e-22 4.9148 0.126712)
(-4.93982e-21 2.64774 1.39354)
(1.7048e-21 1.93412 -0.0286972)
(4.77252e-20 -4.06602 -0.475652)
(-3.81117e-19 -0.860258 -0.933022)
(-5.18368e-18 0.813243 0.266195)
(1.8343e-16 1.80731 0.150732)
(-1.11126e-63 0.147431 0.12213)
(-6.18153e-63 0.311302 0.135723)
(-2.76738e-62 0.448022 0.145807)
(-1.12962e-61 0.578778 0.154185)
(-4.21305e-61 0.710695 0.165607)
(-1.41991e-60 0.836539 0.170168)
(-4.48469e-60 0.970612 0.17845)
(-1.32138e-59 1.098 0.191786)
(-3.56586e-59 1.22902 0.199804)
(-6.77487e-59 1.3854 0.214414)
(1.65679e-58 1.52515 0.228683)
(3.34566e-57 1.65621 0.233926)
(2.36016e-56 1.81594 0.21799)
(-3.94266e-56 2.01979 0.247715)
(-4.27709e-54 2.14136 0.270343)
(-7.59014e-53 2.23763 0.297122)
(-8.3543e-52 2.45347 0.307078)
(-5.62368e-51 2.6842 0.33418)
(-5.16842e-52 2.83145 0.392787)
(5.38633e-49 2.98203 0.411368)
(7.78278e-48 3.09112 0.468578)
(6.49335e-47 3.07651 0.492944)
(3.27727e-46 3.16161 0.514461)
(2.65191e-46 3.24115 0.541829)
(-1.41301e-44 3.31164 0.543802)
(-1.76316e-43 3.44742 0.555171)
(-1.32085e-42 3.50686 0.547712)
(-6.41178e-42 3.67428 0.536634)
(-1.16364e-41 3.81864 0.549361)
(1.20045e-40 3.71808 0.537718)
(1.40135e-39 3.44767 0.472726)
(8.34892e-39 3.13868 0.373392)
(3.34257e-38 2.79499 0.234893)
(8.54215e-38 2.29885 0.0543491)
(2.39971e-38 1.66612 -0.154251)
(-5.33324e-37 1.08309 0.161392)
(-6.38101e-36 2.25395 -0.400394)
(-8.88787e-36 3.35924 -3.21501)
(-5.16531e-36 7.43021 -0.00443488)
(-1.05422e-37 -5.22742 0.102572)
(5.85714e-37 -9.33993 -0.516849)
(8.19319e-35 -15.1006 -0.977496)
(2.64387e-33 -21.7726 -1.12179)
(3.61618e-32 -27.1652 -0.791699)
(5.67295e-34 -30.0412 -0.411381)
(6.74622e-33 -33.001 0.661982)
(1.43507e-31 -33.0883 3.20887)
(1.7727e-31 -25.3786 1.80079)
(-5.4444e-32 -16.9622 5.22802)
(-3.97075e-33 -1.31601 5.32073)
(-9.67396e-32 5.83745 4.9212)
(1.86034e-32 9.1582 2.93182)
(1.16124e-34 11.452 0.899302)
(2.9523e-35 11.8869 -1.09784)
(3.68669e-34 11.3297 -2.48263)
(2.87133e-33 10.1459 -3.30796)
(1.52486e-32 8.64618 -3.66467)
(7.56176e-32 7.09173 -3.67597)
(3.62506e-31 5.66689 -3.46455)
(1.54718e-30 4.46862 -3.13993)
(6.55858e-30 3.55107 -2.77167)
(2.80772e-29 2.97567 -2.41225)
(1.0863e-28 2.7758 -2.09384)
(4.1844e-28 2.90581 -1.84281)
(1.56163e-27 3.27591 -1.6416)
(5.24982e-27 3.74958 -1.57064)
(1.45545e-26 3.98819 -1.42437)
(4.60588e-26 3.98667 -1.25002)
(-5.77114e-26 3.99268 -1.188)
(-2.06856e-24 3.91844 -0.987712)
(7.18891e-24 3.54111 -0.598896)
(3.40329e-22 3.72361 -1.00058)
(1.70144e-22 4.81762 -0.1751)
(-6.7693e-21 2.579 1.22327)
(-3.76055e-21 1.60814 0.0692278)
(4.81483e-20 -3.986 -0.542515)
(-2.41558e-19 -1.66194 -0.97742)
(-4.06247e-19 0.566115 0.114788)
(1.64393e-16 1.69957 0.195735)
(-2.84321e-63 0.15061 0.164774)
(-1.49587e-62 0.314535 0.170771)
(-6.46569e-62 0.451306 0.178097)
(-2.57766e-61 0.581497 0.1852)
(-9.45272e-61 0.713166 0.196522)
(-3.14732e-60 0.838761 0.201484)
(-9.82725e-60 0.971415 0.209837)
(-2.87986e-59 1.098 0.224132)
(-7.77437e-59 1.22841 0.233045)
(-1.52724e-58 1.38307 0.24938)
(3.02333e-58 1.52338 0.265328)
(7.03364e-57 1.65659 0.274549)
(5.50143e-56 1.8137 0.257726)
(3.75904e-56 2.01171 0.286758)
(-7.2289e-54 2.13302 0.315201)
(-1.4209e-52 2.23121 0.337151)
(-1.66664e-51 2.44469 0.356317)
(-1.2326e-50 2.67167 0.385001)
(-1.99298e-50 2.81801 0.445237)
(8.9173e-49 2.96944 0.468236)
(1.45102e-47 3.07805 0.528883)
(1.29295e-46 3.06897 0.554349)
(7.13489e-46 3.15465 0.577262)
(1.26057e-45 3.23699 0.607691)
(-2.26198e-44 3.31086 0.608977)
(-3.21997e-43 3.44793 0.621214)
(-2.54572e-42 3.51117 0.608871)
(-1.30764e-41 3.67615 0.592051)
(-2.96934e-41 3.82034 0.598629)
(1.88953e-40 3.72935 0.580202)
(2.55545e-39 3.47133 0.505038)
(1.59158e-38 3.17382 0.394388)
(6.53263e-38 2.84102 0.248854)
(1.69025e-37 2.35552 0.0619465)
(5.05647e-38 1.70003 -0.152993)
(-1.13519e-36 1.21303 0.225289)
(-1.2875e-35 2.54416 -0.733012)
(-1.91139e-35 3.60885 -3.55346)
(-1.18576e-35 4.92835 -2.08532)
(-1.22306e-37 -4.76239 0.302113)
(4.44173e-38 -9.10023 -0.610777)
(6.62025e-35 -14.8305 -1.40439)
(2.50142e-33 -21.5178 -1.62698)
(3.58401e-32 -26.9263 -1.0397)
(5.83866e-34 -29.7962 -0.591665)
(7.78997e-33 -32.9601 0.697895)
(1.41786e-31 -32.9187 3.27902)
(1.67477e-31 -25.2806 2.14347)
(-5.05902e-32 -17.0117 6.33693)
(-3.03014e-32 -1.46772 6.54835)
(-1.91614e-31 5.84423 5.31155)
(3.35183e-32 9.48366 3.10428)
(2.23968e-34 11.8179 0.911191)
(5.30489e-36 12.1839 -1.26701)
(4.93387e-34 11.5262 -2.75996)
(4.24779e-33 10.2483 -3.64147)
(2.27651e-32 8.67472 -4.01354)
(1.13214e-31 7.06833 -4.01124)
(5.42539e-31 5.6121 -3.76873)
(2.29644e-30 4.3985 -3.40145)
(9.71382e-30 3.47689 -2.98689)
(4.17508e-29 2.90614 -2.58431)
(1.61807e-28 2.71799 -2.23436)
(6.25721e-28 2.86192 -1.97109)
(2.33605e-27 3.25316 -1.78354)
(7.83656e-27 3.73326 -1.74631)
(2.05224e-26 3.96179 -1.61472)
(6.95098e-26 3.97046 -1.46442)
(3.17852e-26 3.96972 -1.40649)
(-2.66877e-24 3.87167 -1.1364)
(1.56671e-24 3.53466 -0.70951)
(4.31687e-22 3.68603 -1.03808)
(6.43936e-22 4.70179 -0.331622)
(-8.60824e-21 2.49221 0.952668)
(-1.13291e-20 1.36738 0.0936548)
(4.64839e-20 -3.85577 -0.621349)
(-1.76107e-20 -1.72145 -1.27963)
(5.43928e-18 0.4783 -0.228721)
(1.08138e-16 1.63181 0.172144)
(-7.2499e-63 0.149346 0.204921)
(-3.61109e-62 0.311693 0.205722)
(-1.50843e-61 0.447171 0.211543)
(-5.87483e-61 0.57628 0.217794)
(-2.11848e-60 0.707687 0.229388)
(-6.97136e-60 0.832994 0.235003)
(-2.15313e-59 0.96456 0.244055)
(-6.27458e-59 1.0906 0.259556)
(-1.69625e-58 1.2206 0.269308)
(-3.47067e-58 1.37402 0.28752)
(4.87252e-58 1.51494 0.305326)
(1.42827e-56 1.65086 0.317994)
(1.23028e-55 1.80643 0.303154)
(3.13492e-55 1.9993 0.330346)
(-1.13312e-53 2.11938 0.36471)
(-2.56094e-52 2.22011 0.382524)
(-3.22641e-51 2.43013 0.408261)
(-2.61195e-50 2.65431 0.442388)
(-7.64238e-50 2.79952 0.505051)
(1.36772e-48 2.95125 0.533759)
(2.62067e-47 3.05865 0.599691)
(2.5144e-46 3.05362 0.627236)
(1.51059e-45 3.13779 0.651893)
(3.91124e-45 3.22162 0.686909)
(-3.3278e-44 3.29811 0.687153)
(-5.72644e-43 3.43488 0.701343)
(-4.82253e-42 3.50177 0.685764)
(-2.62484e-41 3.66418 0.664039)
(-7.07926e-41 3.80798 0.665395)
(2.7636e-40 3.72471 0.638935)
(4.59114e-39 3.4748 0.552508)
(3.0104e-38 3.18397 0.429327)
(1.27001e-37 2.85666 0.273774)
(3.33052e-37 2.37304 0.0722454)
(1.06539e-37 1.67212 -0.151516)
(-2.41265e-36 1.25528 0.217209)
(-2.59945e-35 2.81802 -1.13958)
(-4.17022e-35 3.91934 -3.79633)
(-2.6643e-35 4.184 -3.98985)
(-9.39164e-37 -4.4732 -0.554204)
(-6.88354e-37 -8.9161 -1.38833)
(3.2497e-35 -14.616 -2.49558)
(2.11305e-33 -21.3501 -2.67613)
(3.46129e-32 -26.8107 -1.6427)
(1.72969e-33 -29.7252 -1.0169)
(8.50282e-33 -33.0627 0.950465)
(1.35433e-31 -32.8998 3.57298)
(1.48537e-31 -25.4345 2.89203)
(-4.80758e-32 -17.1353 8.28704)
(-8.84916e-32 -1.34282 8.23334)
(-3.79881e-31 6.16767 5.90945)
(5.9588e-32 9.96924 3.37171)
(4.44343e-34 12.3235 0.930889)
(-6.47584e-35 12.58 -1.48174)
(6.33575e-34 11.7867 -3.11396)
(6.27161e-33 10.3867 -4.06854)
(3.40556e-32 8.71789 -4.46105)
(1.70228e-31 7.04493 -4.443)
(8.16454e-31 5.54885 -4.16255)
(3.42655e-30 4.3157 -3.74444)
(1.44585e-29 3.38863 -3.27477)
(6.24368e-29 2.82325 -2.82061)
(2.4247e-28 2.64939 -2.4332)
(9.40829e-28 2.81138 -2.15425)
(3.5051e-27 3.22987 -1.98365)
(1.17187e-26 3.71654 -1.98751)
(2.91944e-26 3.93063 -1.89429)
(9.94112e-26 3.94813 -1.76535)
(1.6163e-25 3.93142 -1.68598)
(-3.1419e-24 3.79718 -1.31493)
(-6.29675e-24 3.50502 -0.834465)
(5.21484e-22 3.62986 -1.12735)
(1.31823e-21 4.46343 -0.471792)
(-1.01848e-20 2.40698 0.765778)
(-1.97353e-20 1.5129 0.0528553)
(4.11673e-20 -3.73281 -0.700699)
(-5.86519e-20 -1.67075 -1.56734)
(8.75183e-18 0.4002 -0.511123)
(4.77001e-17 1.63069 0.0805091)
(-1.82283e-62 0.149887 0.243607)
(-8.66449e-62 0.311654 0.240363)
(-3.50667e-61 0.4468 0.245079)
(-1.33541e-60 0.575812 0.250322)
(-4.73757e-60 0.707737 0.26217)
(-1.54174e-59 0.833446 0.268179)
(-4.71256e-59 0.964638 0.277809)
(-1.36534e-58 1.09102 0.29447)
(-3.69855e-58 1.22108 0.304969)
(-7.91226e-58 1.37413 0.325127)
(6.08736e-58 1.51631 0.344584)
(2.78012e-56 1.65499 0.35914)
(2.63364e-55 1.80992 0.349148)
(1.07455e-54 1.99993 0.375044)
(-1.58057e-53 2.11889 0.413038)
(-4.40283e-52 2.22265 0.427428)
(-6.02418e-51 2.42891 0.457364)
(-5.33066e-50 2.65266 0.498546)
(-2.18369e-49 2.79699 0.562244)
(1.84419e-48 2.94927 0.596994)
(4.5402e-47 3.05747 0.668668)
(4.75039e-46 3.05747 0.699581)
(3.10512e-45 3.14075 0.726133)
(1.0334e-44 3.22705 0.766358)
(-4.18555e-44 3.30742 0.766434)
(-9.83074e-43 3.44397 0.782436)
(-8.93825e-42 3.51565 0.764891)
(-5.17263e-41 3.67608 0.738696)
(-1.60886e-40 3.82051 0.733739)
(3.51497e-40 3.74562 0.697359)
(8.07771e-39 3.50389 0.599645)
(5.63213e-38 3.21961 0.465259)
(2.45134e-37 2.89733 0.300585)
(6.52591e-37 2.41525 0.0826331)
(2.22894e-37 1.67792 -0.138558)
(-5.18473e-36 1.37981 0.16552)
(-5.28344e-35 3.14463 -1.47762)
(-9.21311e-35 4.415 -3.90837)
(-5.95381e-35 3.51698 -5.04955)
(-4.28389e-36 -4.43492 -2.53175)
(-7.31522e-37 -8.79485 -2.78745)
(-1.44342e-35 -14.5466 -4.20283)
(2.06795e-33 -21.5014 -4.32633)
(1.97786e-32 -27.1124 -2.72873)
(3.26197e-34 -30.1394 -1.73599)
(1.02279e-32 -33.6513 1.3955)
(1.33913e-31 -33.1845 4.17724)
(1.31539e-31 -26.1274 4.2841)
(-5.82326e-32 -17.5019 10.8381)
(-2.19026e-31 -0.869712 9.90714)
(-7.48153e-31 6.5654 6.65758)
(1.03855e-31 10.4917 3.63473)
(8.86343e-34 12.857 0.928622)
(-2.29146e-34 12.9945 -1.71923)
(7.47926e-34 12.0553 -3.48401)
(9.1359e-33 10.5255 -4.50499)
(5.05184e-32 8.75589 -4.91104)
(2.54346e-31 7.0131 -4.87225)
(1.22262e-30 5.47513 -4.5498)
(5.08524e-30 4.22167 -4.0783)
(2.13869e-29 3.2895 -3.5525)
(9.29112e-29 2.73163 -3.04694)
(3.61835e-28 2.57616 -2.62488)
(1.40834e-27 2.76301 -2.33482)
(5.22081e-27 3.21496 -2.19549)
(1.73624e-26 3.71059 -2.25656)
(4.1521e-26 3.90707 -2.24784)
(1.36585e-25 3.9246 -2.13395)
(3.24495e-25 3.88038 -1.98182)
(-3.34429e-24 3.71437 -1.49738)
(-1.50908e-23 3.47319 -0.964661)
(5.88378e-22 3.59483 -1.21757)
(2.1104e-21 4.31887 -0.618214)
(-1.06948e-20 2.31726 0.519949)
(-3.17749e-20 1.68503 -0.0425353)
(3.13291e-20 -3.56993 -0.762569)
(-3.14396e-19 -1.6856 -1.72436)
(7.10489e-18 0.210138 -0.763182)
(2.62635e-17 1.53035 -0.0207727)
(-4.52554e-62 0.150959 0.281487)
(-2.06507e-61 0.312184 0.274633)
(-8.11545e-61 0.446206 0.278404)
(-3.02428e-60 0.574411 0.282673)
(-1.05636e-59 0.706071 0.295)
(-3.40163e-59 0.831646 0.301165)
(-1.02949e-58 0.961595 0.310923)
(-2.96476e-58 1.08746 0.328291)
(-8.0486e-58 1.21698 0.339481)
(-1.7998e-57 1.36878 0.361619)
(2.43594e-58 1.51231 0.383392)
(5.15119e-56 1.65307 0.398546)
(5.38652e-55 1.80584 0.393723)
(2.89975e-54 1.99238 0.420642)
(-1.78015e-53 2.11118 0.460477)
(-7.15041e-52 2.21708 0.472769)
(-1.07944e-50 2.41889 0.505032)
(-1.04422e-49 2.63984 0.553643)
(-5.40392e-49 2.78405 0.617395)
(1.90486e-48 2.93532 0.657446)
(7.46427e-47 3.04465 0.735997)
(8.67635e-46 3.05124 0.772496)
(6.18221e-45 3.1341 0.801531)
(2.482e-44 3.22339 0.847536)
(-3.50815e-44 3.30814 0.848927)
(-1.61336e-42 3.44487 0.867164)
(-1.61431e-41 3.52167 0.848421)
(-9.98338e-41 3.67972 0.817894)
(-3.51304e-40 3.82412 0.805873)
(3.16913e-40 3.75866 0.759272)
(1.38587e-38 3.52643 0.650632)
(1.04053e-37 3.25016 0.506034)
(4.69366e-37 2.93456 0.332515)
(1.27148e-36 2.45563 0.09643)
(4.60762e-37 1.69707 -0.112159)
(-1.11855e-35 1.54274 0.0768316)
(-1.07699e-34 3.48436 -1.64664)
(-2.03521e-34 4.942 -3.98569)
(-1.34122e-34 3.32926 -4.6579)
(-1.3152e-35 -4.45849 -4.75054)
(-6.14238e-37 -8.71457 -4.67272)
(1.15527e-34 -14.5017 -6.28039)
(-3.77497e-33 -21.794 -6.38725)
(9.24989e-32 -27.6279 -4.20065)
(7.71664e-33 -30.8391 -2.62866)
(1.44005e-32 -34.4906 1.92085)
(1.59897e-31 -33.6605 5.06253)
(1.35194e-31 -27.1331 6.22588)
(-1.01852e-31 -17.977 13.5978)
(-5.2276e-31 -0.381174 11.4854)
(-1.4564e-30 7.10961 7.51662)
(1.76535e-31 11.1099 3.89787)
(1.74827e-33 13.4526 0.899733)
(-5.70076e-34 13.4493 -1.99207)