/*--------------------------------*- C++ -*----------------------------------*\
| =========                 |                                                 |
| \\      /  F ield         | OpenFOAM: The Open Source CFD Toolbox           |
|  \\    /   O peration     | Version:  4.1                                   |
|   \\  /    A nd           | Web:      www.OpenFOAM.org                      |
|    \\/     M anipulation  |                                                 |
\*---------------------------------------------------------------------------*/
FoamFile
{
    version     2.0;
    format      ascii;
    class       volScalarField;
    location    "18";
    object      nut;
}
// * * * * * * * * * * * * * * * * * * * * * * * * * * * * * * * * * * * * * //

dimensions      [0 2 -1 0 0 0 0];

internalField   nonuniform List<scalar> 
6785
(
0.270693
1.04983e-08
9.79935e-09
9.79928e-09
9.80059e-09
9.7984e-09
9.79962e-09
9.8006e-09
9.79842e-09
9.79967e-09
9.80055e-09
9.79756e-09
9.82344e-09
4.46976e-08
0.303881
0.307292
1.07459e-05
5.61276e-11
5.2425e-11
4.99471e-11
4.73806e-11
4.49042e-11
4.24011e-11
3.98272e-11
3.7298e-11
3.49603e-11
3.65536e-11
4.25558e-08
0.000271874
0.170803
0.34126
0.000912058
6.892e-12
9.96966e-12
3.67961e-08
1.42956e-06
8.68304e-06
2.34285e-05
4.84383e-05
9.85767e-05
0.000190116
0.000330218
0.000557366
0.00409792
0.0770859
0.377571
0.00318606
3.5547e-08
4.36053e-09
7.38692e-07
1.97167e-05
0.000225584
0.00127107
0.0050163
0.0142759
0.0175901
0.00719792
0.00341376
0.00356996
0.0564749
0.413687
0.00364781
3.87716e-07
7.53698e-07
3.14704e-05
0.000295771
0.00289513
0.0172714
0.0841151
0.270944
0.331877
0.121831
0.0816369
0.0228281
0.0834018
0.448984
0.016617
5.71199e-05
6.13177e-06
8.30671e-05
0.00096682
0.00371405
0.00774625
0.00938872
0.0225116
0.174462
0.615759
0.217405
0.106508
0.0891186
0.476875
0.100534
0.0100554
0.0765812
3.73424e-05
0.000158693
0.000524961
0.00107157
0.00159785
0.00290245
0.0139986
0.0345126
0.0165285
0.0195448
0.0671076
0.494251
0.192849
0.0753181
0.0211374
0.000637441
0.000143906
0.000322081
0.000709624
0.00101773
0.00140031
0.00215875
0.00350203
0.00953298
0.0109887
0.0432298
0.501289
0.182189
0.174107
0.302344
0.00673954
0.000552674
0.000415199
0.000897339
0.00125946
0.00137652
0.00116782
0.00101402
0.00144368
0.0182681
0.0413487
0.501151
0.158077
0.0770186
0.0645879
0.0272915
0.00258843
0.000831125
0.00152006
0.00200508
0.00192729
0.00135666
0.00108622
0.00139161
0.00283984
0.0382521
0.498226
0.148046
0.0688718
0.060713
0.050953
0.0101649
0.00241183
0.00231884
0.00285368
0.00273966
0.00179233
0.00134571
0.00149425
0.00225188
0.0406004
0.495434
0.131421
0.0666755
0.0490651
0.046714
0.0212992
0.0068911
0.00457732
0.00418362
0.00357813
0.0026788
0.00177639
0.00154738
0.00203383
0.0477579
0.496629
0.123067
0.0762086
0.0372786
0.0707049
0.0692152
0.0530451
0.0309411
0.0113052
0.00749377
0.00419645
0.00268284
0.0016156
0.00276464
0.0621341
0.489216
0.184979
0.120393
0.0659561
0.00922014
0.00504669
0.0108442
0.00689797
0.0168696
0.00382032
0.000696
0.00206738
0.00299535
0.0169322
0.0902509
0.483278
0.659953
0.347773
0.508148
0.597554
1.09802
0.83763
1.10897
3.69022
14.2175
10.5652
1.28807e-25
1.22387e-24
0.0716533
0.102134
2.97563
5.42186
2.94905
2.93052
2.92382
5.31386
2.89576
2.87837
2.87192
5.22103
2.85417
2.84139
5.14299
2.80414
2.78438
2.7734
5.02414
2.74589
2.72985
4.92765
2.68555
2.66309
2.64668
4.77525
2.60131
2.57798
2.55976
4.61279
2.5112
2.48827
4.46874
2.42889
2.40474
2.38416
4.29135
2.33046
2.30785
4.15154
2.24765
2.22339
2.20211
3.97202
2.14633
2.12405
2.10519
3.81784
2.06432
2.04947
3.74835
2.02706
2.01745
2.01312
3.74448
1.99495
1.96824
1.94466
3.5702
1.88082
1.85235
3.35745
1.74947
1.71076
1.6778
2.98769
1.57328
1.54878
2.7556
1.52602
1.5331
1.54691
2.80666
1.58139
1.58892
1.59829
2.86747
1.60854
1.61353
2.88337
1.61447
1.61761
0.743499
0.747319
0.759833
0.768179
0.675058
0.685612
0.698995
0.704158
0.723921
0.732328
0.742507
0.754114
0.710351
0.648697
0.654213
0.677148
0.686192
0.712465
0.733934
0.75884
0.782483
0.728705
0.669105
0.666726
0.668202
0.65435
0.645323
0.62473
0.606956
0.586068
0.561534
0.43335
0.414488
0.405949
0.384456
0.359288
0.333539
0.306389
0.285318
0.269387
0.244134
0.242931
0.232277
0.230622
0.231028
0.244476
0.263399
0.258035
0.267231
0.27141
0.26626
0.266824
0.272273
0.262184
0.277581
0.282368
0.30314
0.304584
0.309735
0.31272
0.302625
0.313561
0.312811
0.316816
0.32278
0.31875
0.311614
0.302799
0.299703
0.282464
0.282706
0.272978
0.251495
0.240837
0.227454
0.228826
0.17451
0.245809
0.211815
0.340695
0.991733
1.60629
1.49864
0.856783
1.385
0.804872
1.31016
1.24735
0.733903
1.19642
1.15575
0.690165
1.1249
0.677053
1.10848
1.08664
0.65823
1.0758
0.65441
1.07346
1.06206
0.649294
1.06288
1.0556
0.647844
1.06119
0.652516
1.07199
1.07116
0.661245
1.08361
0.669605
1.10024
1.10223
0.682035
1.11856
1.12103
0.693657
1.13629
0.703354
1.15501
1.1587
0.717394
1.17435
0.727463
1.19369
1.19768
0.742024
1.21683
1.22117
0.756548
1.23614
0.766382
1.25509
1.25886
0.780166
1.27248
0.789234
1.29027
1.29304
0.801615
1.30844
1.31034
0.812248
1.32079
0.819375
1.33587
1.33645
0.828532
1.34503
0.834484
1.35863
1.35767
0.841929
1.36681
1.36517
0.846394
1.37136
0.850864
1.3832
2.25732
2.15747
2.13313
1.97281
1.85208
1.76349
1.72429
1.71721
1.73053
1.77843
1.98731
2.63501
3.47645
4.24357
4.79993
4.98808
4.88517
4.90735
5.30895
5.7139
6.86915
9.39058
12.2343
13.7626
13.5577
12.5936
11.5335
10.249
10.7346
10.9894
10.6379
10.1615
10.1089
10.1953
10.3997
10.8354
11.6341
12.9814
14.4658
15.6952
16.4557
16.9519
17.4976
18.3758
19.6247
21.2294
22.9942
24.5252
25.7024
26.6472
27.4346
28.083
28.597
28.9838
29.2549
29.4235
29.5062
29.5263
29.5141
29.4909
29.5734
29.6175
29.8146
30.6081
31.7018
32.7878
33.8302
33.9816
32.9474
31.207
28.9533
26.4524
22.7515
20.1675
14.8246
8.00503
3.82831
2.93043
1.90702
2.25536
2.14663
2.0956
1.92454
1.79994
1.722
1.69661
1.70069
1.73014
1.79543
2.01263
2.66524
3.52304
4.29252
4.82945
4.99512
4.877
4.8739
5.22899
5.61434
6.77564
9.37828
12.2864
13.8427
13.5982
12.6928
11.6599
10.3213
10.7047
10.912
10.5604
10.1251
10.0835
10.1642
10.3555
10.7883
11.5826
12.9474
14.4584
15.7144
16.496
17.0148
17.596
18.5101
19.7754
21.3579
23.063
24.515
25.7034
26.6369
27.4129
28.0483
28.5482
28.9191
29.1718
29.3192
29.3784
29.3736
29.3376
29.296
29.3653
29.3924
29.5958
30.4196
31.5629
32.6946
33.7883
33.9755
32.9687
31.2422
29.0732
26.5565
22.734
20.1632
15.2603
8.32671
3.70859
2.90773
1.95328
2.3317
2.21143
2.13287
1.94176
1.79708
1.70813
1.67784
1.68327
1.73054
1.82117
2.04998
2.70245
3.57798
4.3642
4.90322
5.05717
4.91953
4.89266
5.21962
5.57817
6.71485
9.29149
12.283
13.8992
13.7498
12.9
11.8369
10.3425
10.7359
10.9547
10.5558
10.1398
10.0852
10.1425
10.3143
10.7434
11.5295
12.893
14.4117
15.6846
16.4876
17.0103
17.6208
18.5705
19.8543
21.4188
23.0721
24.4996
25.6656
26.5995
27.3688
27.9953
28.4852
28.8445
29.0833
29.2145
29.255
29.2297
29.1747
29.1211
29.1849
29.1916
29.3992
30.2544
31.4509
32.6231
33.7703
33.9906
33.0098
31.301
29.1943
26.6994
22.7722
20.2703
15.2663
8.29978
3.9551
2.98218
1.98817
2.43264
2.30533
2.19339
1.97182
1.79798
1.6926
1.65497
1.65628
1.71863
1.83728
2.08783
2.75208
3.6568
4.46984
5.01537
5.15721
4.99872
4.94572
5.23648
5.56786
6.68101
9.27986
12.297
13.9643
13.894
13.1331
12.0146
10.4463
10.7476
11.0218
10.574
10.1827
10.1173
10.1482
10.3029
10.7348
11.52
12.8683
14.3863
15.6786
16.4946
17.0208
17.6466
18.6199
19.9198
21.4765
23.1018
24.5285
25.6945
26.6334
27.3989
28.0198
28.5035
28.8554
29.0852
29.2049
29.2309
29.1884
29.1165
29.0541
29.1143
29.094
29.2976
30.1777
31.4277
32.6395
33.8494
34.1037
33.138
31.434
29.355
26.8566
22.8534
20.3813
15.2378
8.25024
4.40168
3.06335
2.02138
2.53502
2.40659
2.26799
2.01787
1.81373
1.68564
1.63342
1.62591
1.69909
1.84453
2.11862
2.79763
3.73421
4.58137
5.14216
5.27473
5.09239
5.01495
5.27526
5.56731
6.64951
9.26096
12.2844
14.0079
14.0561
13.3787
12.1768
10.5656
10.7747
11.11
10.6144
10.2393
10.1581
10.1632
10.3059
10.7474
11.5405
12.8681
14.3806
15.6864
16.5097
17.0399
17.6792
18.675
19.9925
21.5484
23.1621
24.6037
25.7843
26.7305
27.498
28.1196
28.604
28.956
29.1843
29.2998
29.3181
29.2635
29.1787
29.1129
29.1729
29.1213
29.3128
30.2108
31.5149
32.7689
34.0512
34.337
33.3651
31.6403
29.5598
27.0518
23.0119
20.5666
15.1398
8.17166
4.95566
3.13059
2.06312
2.63072
2.51232
2.35366
2.07642
1.84173
1.68796
1.61613
1.59434
1.66993
1.84066
2.14301
2.84285
3.81327
4.6989
5.27993
5.40481
5.19677
5.0953
5.32475
5.57554
6.62489
9.19568
12.2517
14.0342
14.1939
13.6125
12.3205
10.7343
10.8027
11.185
10.6559
10.3005
10.1998
10.1842
10.3215
10.7801
11.5885
12.8923
14.397
15.7112
16.5423
17.0721
17.7229
18.7398
20.0774
21.6424
23.2619
24.7284
25.9301
26.8896
27.6664
28.2954
28.7869
29.1454
29.3779
29.4942
29.5081
29.4431
29.3451
29.2788
29.3379
29.2487
29.4161
30.325
31.6877
32.996
34.3664
34.6848
33.6848
31.9114
29.8032
27.2772
23.243
20.8031
15.0008
8.15761
5.43067
3.23816
2.10306
2.71966
2.61073
2.4449
2.14546
1.88248
1.70154
1.60547
1.56443
1.63474
1.82535
2.15481
2.87967
3.88621
4.81577
5.42448
5.54541
5.30983
5.18544
5.38552
5.58793
6.59661
9.14857
12.187
14.0328
14.3054
13.8206
12.4721
10.9265
10.8839
11.242
10.6855
10.3549
10.2321
10.2047
10.344
10.8261
11.6556
12.9351
14.4316
15.7489
16.5858
17.1149
17.7771
18.8154
20.1761
21.7579
23.3948
24.8939
26.1271
27.1062
27.8988
28.5414
29.0459
29.416
29.657
29.7769
29.7879
29.7124
29.5987
29.5349
29.5899
29.4556
29.5839
30.4982
31.9318
33.3144
34.7955
35.1494
34.0983
32.2464
30.0821
27.5258
23.5318
21.0629
14.8512
8.10886
5.78595
3.31369
2.15291
2.8194
2.69217
2.53762
2.22267
1.93509
1.7278
1.60512
1.5402
1.597
1.80236
2.15489
2.90694
3.95126
4.92976
5.57365
5.69584
5.43201
5.2853
5.45498
5.60408
6.5624
9.06739
12.0934
14.0046
14.39
13.9801
12.632
11.1491
11.0309
11.2761
10.6905
10.3888
10.2479
10.2227
10.3725
10.8832
11.7382
12.9938
14.4835
15.799
16.641
17.1701
17.8442
18.9047
20.2912
21.8972
23.5619
25.1009
26.3729
27.3771
28.191
28.8523
29.374
29.7589
30.0104
30.1344
30.1418
30.054
29.9203
29.8622
29.905
29.7159
29.7864
30.7031
32.2277
33.7096
35.3287
35.7222
34.5992
32.6354
30.3904
27.7971
23.8673
21.3136
14.701
8.05835
6.0405
3.392
2.18778
2.93442
2.76014
2.62574
2.30478
1.99762
1.76571
1.61576
1.52384
1.5608
1.7728
2.14986
2.91939
4.00353
5.03658
5.72461
5.85573
5.56414
5.39557
5.53317
5.6223
6.52006
8.98771
11.9717
13.9466
14.4405
14.1089
12.7778
11.3974
11.2335
11.2992
10.6588
10.3849
10.2404
10.2363
10.4061
10.9491
11.8325
13.0656
14.5503
15.8567
16.7048
17.2366
17.9245
19.0085
20.4237
22.0594
23.7594
25.3429
26.6634
27.6972
28.537
29.221
29.763
30.1647
30.4272
30.5544
30.5563
30.4547
30.2978
30.2457
30.2648
30.0096
30.0015
30.9219
32.564
34.1714
35.9573
36.3954
35.1841
33.0726
30.7239
28.0869
24.2368
21.4999
14.5115
8.00834
6.21576
3.48775
2.22723
3.07346
2.84304
2.7013
2.38768
2.06801
1.81406
1.63785
1.5175
1.52975
1.73514
2.13961
2.92797
4.03959
5.13223
5.87421
6.0244
5.70724
5.51655
5.61921
5.64193
6.46872
8.88462
11.8239
13.8535
14.4658
14.198
12.8949
11.6634
11.4826
11.3164
10.5877
10.3285
10.2054
10.2459
10.4462
11.023
11.9365
13.1497
14.6281
15.9231
16.777
17.3145
18.0184
19.1276
20.5739
22.2441
23.9856
25.618
26.9904
28.0626
28.9318
29.6414
30.2055
30.6246
30.8973
31.0257
31.0199
30.904
30.7239
30.6719
30.6521
30.3183
30.212
31.1421
32.9302
34.6855
36.6654
37.1559
35.8458
33.5453
31.0767
28.3905
24.6203
21.6229
14.3374
7.96577
6.33652
3.57982
2.26949
3.24515
2.94947
2.75151
2.4653
2.14334
1.87052
1.66996
1.52147
1.5061
1.69502
2.1204
2.93408
4.07885
5.2121
6.01878
6.20093
5.86195
5.64784
5.71228
5.66281
6.40712
8.73093
11.6575
13.7283
14.4633
14.2201
12.9866
11.9304
11.7593
11.329
10.4799
10.2157
10.1423
10.2535
10.4951
11.1055
12.049
13.2453
14.7146
15.9966
16.8556
17.4032
18.126
19.2619
20.7414
22.4502
24.2376
25.9219
27.3496
28.4688
29.3703
30.1074
30.6946
31.1309
31.4124
31.5396
31.524
31.3948
31.1949
31.1309
31.0516
30.6278
30.4088
31.3582
33.3173
35.2343
37.4463
38.002
36.576
34.0406
31.4432
28.7002
24.9921
21.6761
14.1898
7.92892
6.41823
3.67604
2.30337
3.46423
3.09199
2.81407
2.52802
2.2197
1.93269
1.71042
1.53555
1.49128
1.65669
2.09553
2.93364
4.11843
5.29701
6.15428
6.38386
6.02836
5.7878
5.81005
5.68644
6.33733
8.58875
11.4665
13.5677
14.4325
14.1761
13.0511
12.176
12.0383
11.3905
10.3682
10.0588
10.0561
10.2632
10.5562
11.1982
12.1695
13.3515
14.8082
16.077
16.9406
17.5022
18.2468
19.4109
20.9254
22.6762
24.5133
26.2523
27.7386
28.9127
29.8482
30.6139
31.2245
31.6772
31.9657
32.089
32.0624
31.9227
31.7093
31.6138
31.4501
30.9288
30.5908
31.5676
33.7134
35.796
38.268
38.8898
37.3596
34.551
31.8165
29.0067
25.3473
21.6702
14.0574
7.89606
6.4715
3.78285
2.3468
3.67104
3.29704
2.90066
2.5712
2.29086
1.99741
1.75684
1.55854
1.48561
1.62359
2.06496
2.92689
4.15733
5.38506
6.2813
6.57134
6.20572
5.93356
5.90853
5.7141
6.26102
8.43682
11.2576
13.3977
14.3385
14.085
13.0817
12.3868
12.2934
11.4986
10.3328
9.93756
9.95795
10.2814
10.6333
11.3033
12.2981
13.4675
14.9075
16.1634
17.0312
17.6106
18.3802
19.5741
21.1252
22.9208
24.8102
26.6061
28.154
29.3916
30.3618
31.1565
31.7904
32.2586
32.552
32.669
32.631
32.4854
32.2656
32.1118
31.8371
31.2176
30.7625
31.7681
34.1044
36.349
39.0348
39.7713
38.1775
35.069
32.1882
29.299
25.6737
21.6109
13.9344
7.87129
6.50962
3.89217
2.37834
3.88607
3.5217
3.03317
2.6346
2.34699
2.06053
1.80671
1.58865
1.48873
1.59722
2.02935
2.91435
4.19513
5.47604
6.4164
6.76043
6.3924
6.08143
6.00205
5.7488
6.19099
8.27827
11.0264
13.2154
14.1861
13.9607
13.1161
12.6487
12.5825
11.6454
10.3833
9.89421
9.90486
10.3152
10.7299
11.4233
12.435
13.5925
15.0116
16.2552
17.127
17.7278
18.5256
19.7509
21.34
23.1825
25.1262
26.981
28.5924
29.8953
30.9077
31.7316
32.3884
32.8709
33.1671
33.276
33.2279
33.082
32.8605
32.6161
32.2073
31.4972
30.9312
31.9558
34.4764
36.8763
39.8193
40.6941
38.9895
35.5821
32.547
29.5652
25.9531
21.4993
13.8158
7.85515
6.53374
3.99817
2.42235
4.04233
3.77804
3.21937
2.72609
2.38147
2.1159
1.85692
1.6237
1.49975
1.57833
1.98904
2.89777
4.23118
5.57012
6.5565
6.94605
6.58589
6.22778
6.0853
5.79388
6.13531
8.11953
10.7978
13.0197
13.9892
13.8166
13.1732
12.9501
12.8854
11.8109
10.508
9.92819
9.91398
10.3688
10.8484
11.5607
12.5806
13.7261
15.1198
16.3519
17.2274
17.8528
18.6823
19.9407
21.5689
23.46
25.4592
27.3745
29.051
30.42
31.4833
32.3363
33.0155
33.5111
33.8082
33.9079
33.8529
33.7122
33.4864
33.1196
32.5619
31.7759
31.1048
32.126
34.8191
37.38
40.6054
41.6359
39.7998
36.082
32.8784
29.7935
26.1682
21.3362
13.6981
7.84486
6.55891
4.13136
2.46126
4.10612
4.01526
3.40536
2.87457
2.43936
2.15453
1.90353
1.66123
1.51721
1.56718
1.95275
2.87978
4.26563
5.66697
6.70212
7.12253
6.78298
6.36985
6.17006
5.85073
6.10087
7.97116
10.5734
12.8152
13.764
13.6632
13.2554
13.2747
13.1803
11.9705
10.6804
10.015
9.97776
10.4449
10.9901
11.7174
12.7352
13.8679
15.2313
16.4529
17.332
17.9849
18.8495
20.143
21.8113
23.7518
25.8073
27.7845
29.5275
30.964
32.0872
32.9685
33.6693
34.1769
34.4732
34.5641
34.5075
34.3762
34.1287
33.6188
32.9092
32.0652
31.2895
32.2753
35.128
37.8331
41.3852
42.5863
40.5886
36.5614
33.1621
29.9719
26.2997
21.1242
13.5789
7.83965
6.57781
4.2445
2.48514
4.07027
4.15849
3.63102
3.03827
2.5317
2.17725
1.94119
1.69856
1.5393
1.56323
1.92363
2.86284
4.29869
5.76664
6.85337
7.28311
6.97991
6.50614
6.25059
5.91698
6.09157
7.84151
10.3622
12.609
13.5259
13.5065
13.3575
13.6004
13.4471
12.1166
10.8582
10.1175
10.0741
10.5459
11.1557
11.8947
12.8995
14.0177
15.3459
16.5578
17.4405
18.1234
19.0267
20.3571
22.0662
24.0565
26.1688
28.2089
30.0195
31.5247
32.7143
33.6267
34.3482
34.8665
35.1609
35.245
35.1942
35.0738
34.7779
34.1053
33.2627
32.3771
31.4892
32.4029
35.4045
38.2205
42.1578
43.5356
41.3395
37.0069
33.368
30.0909
26.3468
20.8663
13.4567
7.83865
6.59344
4.35511
2.53006
3.94271
4.1673
3.79807
3.21705
2.66223
2.22256
1.96317
1.73261
1.5639
1.56549
1.90252
2.84873
4.33127
5.86951
7.01069
7.45212
7.17298
6.63634
6.32333
5.98835
6.10759
7.73734
10.1755
12.41
13.287
13.3492
13.471
13.9058
13.6867
12.3016
11.0264
10.2322
10.1809
10.6764
11.3451
12.0933
13.0745
14.175
15.4637
16.6664
17.5527
18.2678
19.213
20.5822
22.3326
24.3725
26.542
28.6458
30.525
32.0999
33.3554
34.3094
35.051
35.579
35.871
35.9523
35.9162
35.8036
35.4273
34.5748
33.6364
32.7222
31.7067
32.5115
35.6543
38.6125
42.9261
44.4727
42.0355
37.4161
33.4931
30.1175
26.3006
20.576
13.3313
7.84031
6.6104
4.49837
2.56066
3.74244
4.03731
3.86092
3.38137
2.78757
2.29771
1.97183
1.75994
1.58861
1.57258
1.88958
2.83899
4.36456
5.97635
7.17413
7.62859
7.35632
6.76115
6.38608
6.05988
6.14579
7.66324
10.0238
12.2296
13.0557
13.1925
13.5865
14.1774
13.8956
12.5136
11.231
10.3798
10.3249
10.8417
11.558
12.3129
13.2611
14.3392
15.5855
16.7783
17.6686
18.4179
19.4077
20.8174
22.6092
24.6985
26.9252
29.0935
31.0421
32.6877
34.0104
35.0163
35.7768
36.3136
36.6038
36.6886
36.676
36.5616
36.0706
35.033
34.0452
33.1085
31.9447
32.6064
35.8842
39.0134
43.6922
45.3821
42.6566
37.7733
33.5171
30.0753
26.1421
20.2845
13.2043
7.85181
6.61254
4.59703
2.59237
3.49651
3.79605
3.8036
3.478
2.92226
2.39576
1.99827
1.77653
1.61073
1.58286
1.88455
2.83502
4.40011
6.08829
7.34326
7.812
7.52375
6.882
6.4384
6.12757
6.20106
7.62129
9.91544
12.0796
12.8401
13.037
13.6956
14.406
14.0714
12.7273
11.4613
10.5606
10.5142
11.0439
11.7936
12.5524
13.4601
14.5092
15.7128
16.8935
17.7884
18.5732
19.61
21.0614
22.8948
25.0329
27.317
29.5502
31.5692
33.2866
34.6781
35.748
36.5254
37.0701
37.3603
37.4571
37.4751
37.342
36.7044
35.494
34.5016
33.5414
32.2065
32.6941
36.1006
39.4331
44.4588
46.2415
43.1777
38.0744
33.4821
29.9506
25.8741
19.9899
13.0774
7.87168
6.59804
4.71777
2.61652
3.23423
3.49143
3.63284
3.4902
3.03791
2.48262
2.04449
1.77723
1.62725
1.59448
1.88678
2.83811
4.4403
6.20676
7.51705
8.0018
7.66869
7.00065
6.48137
6.18943
6.26819
7.61079
9.85641
11.9702
12.6467
12.8837
13.7926
14.5923
14.2176
12.9177
11.6903
10.7619
10.7441
11.2812
12.0509
12.8098
13.672
14.6853
15.8456
17.0118
17.9121
18.7337
19.819
21.313
23.1878
25.3743
27.7156
30.0144
32.1046
33.8949
35.3563
36.489
37.2962
37.8486
38.1424
38.2612
38.3129
38.1375
37.3303
35.9767
35.0143
34.0246
32.4963
32.7812
36.3124
39.8814
45.2314
47.0378
43.579
38.2951
33.377
29.72
25.4997
19.6885
12.9528
7.89626
6.57038
4.8094
2.62782
2.98245
3.17495
3.37959
3.41012
3.10621
2.57307
2.11474
1.78899
1.63514
1.6054
1.89517
2.84941
4.48806
6.3334
7.69418
8.19706
7.82189
7.11936
6.5168
6.24552
6.34338
7.62838
9.84511
11.9082
12.4782
12.7401
13.8703
14.755
14.3398
13.0703
11.8915
10.9677
11.0017
11.5491
12.3286
13.0833
13.8968
14.8676
15.9838
17.1325
18.0399
18.8992
20.0336
21.5706
23.4867
25.7212
28.1198
30.4846
32.6468
34.5111
36.0439
37.2408
38.0894
38.6497
38.9529
39.1043
39.1868
38.9408
37.956
36.5017
35.5883
34.5602
32.8192
32.8733
36.5277
40.3704
46.0168
47.7486
43.837
38.3967
33.1787
29.3675
25.0147
19.3785
12.8286
7.92305
6.53559
4.90614
2.62601
2.77005
2.89905
3.09243
3.24322
3.11086
2.66585
2.17879
1.81467
1.6294
1.61332
1.90835
2.86994
4.54685
6.46968
7.87311
8.3959
7.98157
7.23762
6.54716
6.29722
6.42475
7.6724
9.88184
11.8944
12.3319
12.6153
13.9246
14.9106
14.4478
13.1862
12.0512
11.1655
11.2719
11.841
12.6255
13.3707
14.134
15.0561
16.1274
17.2559
18.172
19.0695
20.253
21.8326
23.7897
26.072
28.528
30.9592
33.1944
35.1339
36.7396
38.0035
38.906
39.4748
39.7951
39.989
40.0926
39.7471
38.5942
37.0877
36.2255
35.1502
33.1806
32.9752
36.7509
40.9139
46.8215
48.3331
43.9129
38.3286
32.883
28.8714
24.4451
19.0613
12.7039
7.94997
6.49534
5.0017
2.6475
2.60398
2.68812
2.83043
3.01906
3.04492
2.73234
2.23521
1.85987
1.62346
1.61625
1.92475
2.90065
4.62115
6.61678
8.05228
8.59584
8.14748
7.35411
6.59309
6.34645
6.51176
7.74085
9.96394
11.9252
12.2163
12.5039
13.9559
15.0639
14.5642
13.2761
12.1812
11.3436
11.5437
12.151
12.9405
13.6709
14.3825
15.2521
16.2761
17.382
18.3086
19.2444
20.476
22.0973
24.0953
26.4251
28.9386
31.437
33.7461
35.762
37.4423
38.7752
39.7391
40.3252
40.6727
40.917
41.0248
40.5554
39.2613
37.7497
36.9262
35.7967
33.5864
33.0901
36.9822
41.5191
47.6489
48.7234
43.7557
38.0054
32.4866
28.1932
23.8499
18.7387
12.5774
7.97523
6.45269
5.09588
2.63387
2.46885
2.52703
2.62192
2.78673
2.91304
2.75306
2.30181
1.90776
1.63019
1.61104
1.9426
2.94235
4.71499
6.77681
8.2304
8.79381
8.31952
7.46593
6.65714
6.39339
6.60444
7.83209
10.0892
11.9956
12.1318
12.4128
13.9672
15.215
14.7048
13.3686
12.2898
11.5064
11.8148
12.4753
13.2729
13.9842
14.6439
15.4517
16.4293
17.5104
18.4499
19.4235
20.7012
22.363
24.4017
26.7791
29.3504
31.9164
34.3004
36.3941
38.1506
39.5542
40.5796
41.2027
41.5898
41.8891
41.9785
41.369
39.9751
38.4981
37.6902
36.502
34.0422
33.2203
37.2173
42.2119
48.4957
48.82
43.2339
37.4255
31.8699
27.337
23.2379
18.4014
12.4475
7.99733
6.40947
5.1842
2.6118
2.36398
2.40778
2.45608
2.58867
2.74245
2.71749
2.35799
1.9447
1.6472
1.60073
1.96031
2.99654
4.83247
6.95156
8.40647
8.9866
8.49724
7.56835
6.74204
6.43494
6.70278
7.94491
10.2567
12.0996
12.075
12.3447
13.9623
15.3607
14.872
13.525
12.3881
11.667
12.0918
12.8138
13.6228
14.3131
14.9098
15.6477
16.5835
17.6412
18.5957
19.6065
20.9275
22.6279
24.7071
27.1324
29.7619
32.3962
34.8561
37.0289
38.8632
40.3389
41.4282
42.1103
42.5499
42.9052
42.9506
42.1953
40.7523
39.3394
38.5175
37.269
34.5531
33.3675
37.4558
42.9987
49.3462
48.4988
42.1796
36.5633
31.0228
26.3325
22.6114
18.007
12.3136
8.01476
6.36541
5.27003
2.62839
2.28138
2.31863
2.33803
2.42249
2.56204
2.62612
2.39553
1.97727
1.6804
1.59916
1.97601
3.06573
4.97738
7.14207
8.5795
9.17103
8.67993
7.6773
6.85215
6.48185
6.80789
8.09623
10.4673
12.2297
12.0417
12.2959
13.9464
15.4965
15.0587
13.7352
12.4843
11.8412
12.3859
13.1699
13.9963
14.6384
15.1691
15.8515
16.7437
17.7749
18.7457
19.7927
21.1533
22.8903
25.0099
27.4835
30.1716
32.8749
35.4119
37.6652
39.5787
41.1277
42.2834
43.0447
43.5556
43.9645
43.9398
43.0449
41.6069
40.2768
39.4095
38.1007
35.1236
33.5326
37.8819
43.9706
50.1804
47.6384
40.4018
35.3287
29.9295
25.242
21.9791
17.5721
12.1785
8.02481
6.32186
5.35212
2.61048
2.21333
2.24791
2.25329
2.28595
2.40692
2.5071
2.3963
2.01235
1.70914
1.60468
2.00069
3.15498
5.15257
7.35014
8.74711
9.34409
8.8662
7.79527
6.98721
6.56171
6.93373
8.2954
10.7206
12.3769
12.0273
12.2602
13.9254
15.6198
15.256
13.9793
12.6425
12.0432
12.7094
13.549
14.3784
14.9659
15.441
16.0613
16.9077
17.9128
18.8992
19.9816
21.3771
23.1485
25.3086
27.831
30.5782
33.3514
35.9666
38.3019
40.296
41.9191
43.1419
43.9826
44.5926
45.0443
44.9492
43.9298
42.5489
41.3115
40.3688
38.9997
35.7574
33.8298
38.531
45.3241
50.9659
46.1718
37.8328
33.6125
28.5931
24.1572
21.3535
17.1072
11.9944
8.02657
6.27848
5.4308
2.60711
2.15389
2.18715
2.18794
2.18587
2.26924
2.37163
2.35199
2.03663
1.72715
1.61988
2.0374
3.26749
5.35966
7.57823
8.90591
9.50329
9.05433
7.9219
7.14551
6.67325
7.0942
8.5441
11.0138
12.5313
12.0273
12.2308
13.9061
15.7313
15.4578
14.2344
12.8636
12.2753
13.0716
13.9629
14.7647
15.3129
15.7218
16.2762
17.0757
18.0562
19.0548
20.1719
21.5973
23.4011
25.6015
28.1733
30.9804
33.8244
36.5189
38.9378
41.0139
42.712
44.0028
44.9232
45.6254
46.1122
45.9501
44.8617
43.584
42.4436
41.3997
39.9686
36.4513
34.2738
39.3912
46.9363
51.7498
44.1708
35.0576
31.6677
27.1098
23.1027
20.7461
16.623
11.7676
8.02083
6.23761
5.50286
2.61033
2.09892
2.13057
2.13299
2.11304
2.15069
2.24321
2.27266
2.04991
1.73824
1.64753
2.08513
3.40475
5.60135
7.82543
9.05501
9.64706
9.24239
8.05721
7.3242
6.81671
7.29138
8.8417
11.3424
12.6877
12.0333
12.211
13.8956
15.8351
15.6624
14.4799
13.1401
12.5801
13.4795
14.4061
15.1816
15.6751
16.0102
16.4955
17.2488
18.2059
19.212
20.3626
21.8124
23.6464
25.8874
28.5091
31.3768
34.2925
37.0678
39.5717
41.7314
43.5053
44.8658
45.8678
46.6571
47.1722
46.9507
45.8506
44.7139
43.6716
42.5084
41.0103
37.2014
34.8549
40.4387
48.7991
52.8112
42.1668
32.5717
29.7352
25.5935
22.1116
20.1676
16.1314
11.5124
8.00861
6.19919
5.56718
2.61779
2.04578
2.07418
2.08264
2.05507
2.05602
2.12603
2.17273
2.0354
1.75127
1.67093
2.14604
3.57138
5.87977
8.08892
9.19365
9.77389
9.42817
8.20051
7.51821
6.99115
7.52584
9.1874
11.7008
12.8399
12.0391
12.2027
13.8997
15.9368
15.8724
14.7306
13.4638
12.9647
13.9345
14.8656
15.6247
16.0516
16.3054
16.7185
17.4271
18.3607
19.3717
20.5521
22.0209
23.8832
26.1649
28.8372
31.7662
34.7546
37.6121
40.2028
42.4474
44.2983
45.7311
46.8173
47.6908
48.23
47.9634
46.905
45.9372
44.9918
43.7032
42.1271
38.0453
35.5621
41.6445
50.7848
54.1124
40.4326
30.6245
27.967
24.1702
21.225
19.6167
15.6451
11.2428
7.991
6.163
5.62564
2.67188
1.99301
2.01739
2.03258
2.00297
1.98427
2.0239
2.06688
1.99323
1.75232
1.68903
2.22724
3.7725
6.19703
8.3645
9.32152
9.88309
9.6094
8.35095
7.72065
7.19465
7.79715
9.58044
12.0822
12.9826
12.0398
12.2062
13.9221
16.0424
16.0917
14.9925
13.8243
13.4253
14.4488
15.3775
16.0956
16.4418
16.6066
16.9437
17.6102
18.521
19.5335
20.7383
22.2212
24.1103
26.4327
29.1563
32.1473
35.2095
38.1506
40.8297
43.1609
45.0905
46.5988
47.7727
48.7285
49.2901
48.9984
48.031
47.2504
46.397
44.985
43.3278
39.0204
36.3863
42.9743
52.7717
55.433
39.2083
29.0479
26.4191
22.8736
20.4718
19.1046
15.1763
10.9724
7.96899
6.12861
5.67841
2.6965
1.93997
1.96145
1.98137
1.95322
1.92813
1.93152
1.96022
1.9284
1.74602
1.70993
2.31324
4.0175
6.55657
8.64589
9.4389
9.97496
9.78384
8.50744
7.92264
7.42456
8.10389
10.0201
12.4804
13.1124
12.0328
12.2217
13.9651
16.1566
16.3249
15.2655
14.2086
13.9558
15.0064
15.9323
16.5945
16.8452
16.9128
17.1713
17.797
18.6876
19.6963
20.9194
22.4117
24.3264
26.6899
29.4653
32.519
35.6559
38.6822
41.4516
43.8712
45.8814
47.4692
48.7341
49.7717
50.3563
50.0643
49.2325
48.6494
47.8814
46.351
44.624
40.1291
37.3207
44.3775
54.9193
56.6518
38.2721
27.54
25.054
21.7104
19.8737
18.6449
14.7332
10.7148
7.94341
6.09562
5.72564
2.75644
1.88649
1.90684
1.92823
1.90348
1.87634
1.85421
1.8705
1.85454
1.7291
1.73428
2.41135
4.26861
6.95318
8.92338
9.54736
10.0504
9.9495
8.66877
8.11336
7.67771
8.44287
10.4962
12.8911
13.2284
12.0168
12.2502
14.0296
16.2963
16.5669
15.5486
14.602
14.5476
15.6143
16.5292
17.1208
17.2607
17.2229
17.4026
17.9876
18.8584
19.8589
21.0928
22.5909
24.5306
26.9354
29.763
32.88
36.0928
39.2058
42.0675
44.5772
46.6706
48.3423
49.7019
50.8214
51.4322
51.1682
50.5114
50.1305
49.4401
47.804
46.0128
41.3697
38.3561
45.7979
56.6893
57.6123
37.5298
26.1129
23.8288
20.6936
19.4543
18.2509
14.3315
10.4834
7.91398
6.06392
5.76949
2.83078
1.83257
1.85179
1.87485
1.85285
1.82776
1.79072
1.78403
1.7776
1.69697
1.75464
2.5402
4.58824
7.38973
9.18717
9.65106
10.1115
10.1043
8.83374
8.27763
7.95304
8.81284
11.004
13.3061
13.3303
11.9924
12.2936
14.1163
16.4703
16.8172
15.8418
14.9858
15.1889
16.2864
17.1665
17.6737
17.6873
17.5356
17.6375
18.1814
19.0305
20.0199
21.2562
22.7574
24.722
27.1683
30.0486
33.2294
36.5188
39.7201
42.6761
45.2782
47.4576
49.218
50.6762
51.8786
52.5211
52.3158
51.8675
51.6906
51.0658
49.3518
47.4887
42.741
39.484
47.1968
58.1845
58.4595
37.0118
24.8386
22.6814
19.8543
19.2365
17.9399
13.9897
10.2986
7.87849
6.03363
5.81254
2.90322
1.77837
1.79656
1.82107
1.80101
1.78212
1.73639
1.7007
1.70345
1.65345
1.78468
2.7005
4.94803
7.86604
9.42751
9.74738
10.1604
10.2467
9.00089
8.44866
8.25665
9.20935
11.5363
13.7198
13.4179
11.9608
12.355
14.2294
16.6822
17.0751
16.1466
15.3342
15.8706
16.9937
17.8409
18.2512
18.1232
17.849
17.8757
18.3774
19.2001
20.1779
21.4072
22.9098
24.8998
27.3878
30.321
33.5659
36.9329
40.2241
43.2765
45.9734
48.2421
50.0962
51.6567
52.944
53.626
53.5111
53.2992
53.3273
52.769
50.9906
49.0436
44.2418
40.6965
48.5342
59.3111
59.3942
36.7703
23.7396
21.5284
19.2401
19.2387
17.733
13.7299
10.1764
7.83432
6.00554
5.85542
2.99141
1.72425
1.74148
1.76753
1.74941
1.73641
1.68352
1.63491
1.63299
1.60594
1.82082
2.90342
5.38608
8.36568
9.64828
9.83419
10.2002
10.3756
9.16807
8.62399
8.5804
9.63129
12.0865
14.1247
13.4904
11.9241
12.4383
14.3761
16.9332
17.3389
16.4659
15.7022
16.5622
17.7205
18.5506
18.8513
18.5665
18.1606
18.1158
18.574
19.3629
20.3303
21.5433
23.047
25.063
27.5932
30.5795
33.8886
37.3339
40.7167
43.8677
46.6618
49.0236
50.9764
52.6435
54.018
54.7496
54.7568
54.8033
55.0373
54.5531
52.7275
50.6939
45.8712
41.9862
49.7799
60.1314
60.299
36.927
22.84
20.4156
18.903
19.4497
17.6486
13.5785
10.1261
7.78571
5.9808
5.90102
3.07729
1.67067
1.68702
1.71429
1.69971
1.68879
1.63126
1.57755
1.55848
1.55192
1.86883
3.14878
5.8719
8.8729
9.84495
9.9126
10.2348
10.4904
9.33311
8.80229
8.9201
10.0756
12.6475
14.5126
13.5465
11.8851
12.5488
14.5622
17.2263
17.6066
16.8001
16.1111
17.2267
18.4774
19.2955
19.4718
19.0145
18.4706
18.3562
18.7687
19.5153
20.4732
21.6619
23.1676
25.2108
27.7836
30.8231
34.1964
37.7207
41.1965
44.4484
47.3425
49.8015
51.8582
53.6363
55.1014
55.8945
56.054
56.3752
56.8162
56.418
54.5677
52.4531
47.6272
43.3468
50.9093
60.7997
61.2196
37.6163
22.1588
19.3893
18.8332
19.7191
17.6553
13.5623
10.1357
7.73437
5.96044
5.94921
3.14434
1.61812
1.63374
1.66111
1.65451
1.63592
1.57978
1.52482
1.4938
1.50963
1.94196
3.45337
6.41579
9.36094
10.0193
9.98464
10.2615
10.5893
9.49413
8.98202
9.26939
10.5385
13.2122
14.8764
13.5851
11.8476
12.6924
14.7934
17.5646
17.8764
17.149
16.5779
17.9369
19.2738
20.0754
20.1098
19.4646
18.779
18.5939
18.9582
19.6564
20.5987
21.7604
23.2704
25.3421
27.9582
31.051
34.4885
38.092
41.6625
45.0175
48.0147
50.5753
52.7413
54.6352
56.1945
57.0629
57.4026
58.0096
58.6583
58.3614
56.5122
54.32
49.5066
44.7731
51.8967
61.3279
62.1075
38.9087
21.7648
18.4959
18.9953
20.0083
17.7089
13.6744
10.1523
7.69042
5.94563
6.00678
3.2568
1.56699
1.58198
1.60812
1.60055
1.585
1.52896
1.47886
1.43891
1.47708
2.03815
3.83597
6.99226
9.82342
10.1621
10.0522
10.283
10.6678
9.64945
9.16156
9.61915
11.0162
13.7741
15.21
13.6071
11.8173
12.8761
15.0763
17.9509
18.1468
17.5113
17.1186
18.6819
20.1075
20.8872
20.7625
19.9133
19.0825
18.8248
19.1381
19.7857
20.6983
21.8364
23.3537
25.4551
28.1156
31.2624
34.7638
38.447
42.1133
45.5739
48.6774
51.3442
53.6251
55.6399
57.298
58.2567
58.8014
59.7002
60.5575
60.3796
58.562