/*--------------------------------*- C++ -*----------------------------------*\
| =========                 |                                                 |
| \\      /  F ield         | OpenFOAM: The Open Source CFD Toolbox           |
|  \\    /   O peration     | Version:  4.1                                   |
|   \\  /    A nd           | Web:      www.OpenFOAM.org                      |
|    \\/     M anipulation  |                                                 |
\*---------------------------------------------------------------------------*/
FoamFile
{
    version     2.0;
    format      ascii;
    class       volScalarField;
    location    "18";
    object      p;
}
// * * * * * * * * * * * * * * * * * * * * * * * * * * * * * * * * * * * * * //

dimensions      [0 2 -2 0 0 0 0];

internalField   nonuniform List<scalar> 
6785
(
2863.29
2796.88
2745.93
2695.96
2649.71
2606.24
2565.43
2527.01
2490.82
2456.4
2423.28
2392.77
2364.94
2331.32
2297.06
2314.8
2297.08
2300.81
2296.09
2292.96
2289.61
2286.72
2284.44
2282.98
2282.47
2282.84
2284.3
2287.67
2291.72
2293.06
2272.25
2266.7
2276.64
2275.53
2279.05
2281.16
2283.56
2285.74
2287.77
2289.62
2291.22
2292.41
2293.29
2294.56
2296.29
2326.9
2324.89
2330.03
2326.4
2327.45
2326.2
2325.58
2324.77
2324.09
2323.52
2323.07
2322.65
2322.04
2321.74
2323.11
2331.08
2329.25
2332.21
2329.25
2331.06
2330.4
2330.99
2331.32
2331.9
2332.44
2332.91
2333.19
2333.28
2333.41
2333.9
2321.56
2319.57
2321.61
2319.2
2320.93
2319.99
2320.53
2320.42
2320.51
2320.39
2320.22
2319.89
2319.09
2318.13
2317.56
2309.14
2307.32
2308.45
2306.03
2306.86
2305.16
2304.84
2303.77
2302.9
2301.93
2301.12
2300.46
2299.62
2299.1
2299.54
2301.14
2300.18
2301.27
2299.33
2300.19
2298.86
2298.76
2298.1
2297.61
2297.15
2296.87
2296.85
2297.04
2297.5
2298.61
2303.95
2304.18
2305.51
2304.45
2305.69
2305.26
2305.77
2305.94
2306.22
2306.53
2306.92
2307.36
2307.95
2308.47
2309.52
2312.34
2313.35
2314.65
2314.22
2315.54
2315.57
2316.32
2316.82
2317.38
2317.96
2318.57
2319.15
2319.82
2320.34
2321.07
2321.67
2323
2324.04
2323.81
2324.97
2325.06
2325.72
2326.16
2326.64
2327.14
2327.66
2328.16
2328.74
2329.17
2329.84
2330.17
2331.6
2332.37
2332.24
2333.22
2333.29
2333.88
2334.24
2334.67
2335.11
2335.58
2336.04
2336.58
2337
2337.67
2343.36
2344.21
2344.35
2344.11
2344.66
2344.35
2344.51
2344.34
2344.24
2344.12
2344.08
2344.19
2344.49
2344.79
2345.22
2346.1
2347.33
2346.65
2345.54
2344.93
2343.95
2343.66
2343.25
2343.17
2343.09
2343.16
2343.34
2343.48
2343.5
2343.23
2380.26
2377.88
2372.06
2365.77
2360.32
2354.85
2350.26
2346.2
2342.52
2339.25
2336.42
2333.94
2332.42
2331.72
2331.49
2381.51
2381.42
2381.54
2381.53
2381.59
2381.46
2381.63
2381.62
2381.7
2381.64
2381.69
2381.76
2381.69
2381.8
2381.82
2381.92
2381.94
2381.92
2382.06
2382.03
2382.11
2382.18
2382.3
2382.31
2382.38
2382.48
2382.61
2382.65
2382.67
2382.85
2382.81
2382.9
2383.02
2383.15
2383.16
2383.19
2383.34
2383.34
2383.34
2383.45
2383.57
2383.56
2383.53
2383.61
2383.73
2383.69
2383.65
2383.7
2383.84
2383.86
2383.93
2384.15
2384.2
2384.53
2384.65
2384.93
2385.03
2385.45
2385.61
2385.78
2386.28
2386.39
2386.73
2386.62
2387.24
2387.35
2387.46
2387.86
2387.73
2388.48
2388.14
2385.38
2384.34
2386.08
2383.79
2373.1
2378.61
2373.94
2347.03
2357.11
2364.1
2364.47
2365.59
2356.68
2355.22
2359.32
2359.66
2360.54
2360.91
2360.66
2360.3
2360.94
2358.06
2347.31
2346.66
2345.94
2345.45
2344.38
2343.29
2342.12
2343.01
2339.48
2330.55
2329.77
2327.9
2327.36
2328.39
2327.98
2326.39
2325.78
2325.69
2318.86
2317.11
2316.41
2315.47
2314.33
2314.81
2315.96
2316.18
2314.78
2299.7
2309.3
2311.57
2312.67
2312
2311.18
2310.69
2313.19
2313.43
2300.57
2312.71
2311.66
2313.4
2314.72
2314.7
2315.14
2315.85
2313.91
2303.42
2322.82
2322.15
2323.19
2323.61
2324.36
2325.17
2326.5
2328.22
2327.33
2313.62
2333.58
2333.11
2335.63
2338.7
2338.76
2333.04
2333.16
2338.07
2325.04
2342.69
2336.31
2333.47
2352.46
2317.33
2334.02
2325.74
2353.76
2371.14
2360.2
2390.01
2401.96
2407.94
2421.75
2418.2
2425.96
2413.19
2414.5
2398.49
2365.74
2362.58
2329.75
2354.85
2318.75
2252.67
2317.41
2276.2
2221.25
2239.63
2212.44
2292.39
2245.79
2195.3
2222.6
2205.5
2283.94
2251.65
2195.74
2279.66
2259.02
2225.41
2248.39
2243.41
2291.94
2275.06
2256.17
2271.71
2270.47
2295.45
2287.47
2275.98
2296.17
2282.43
2281.41
2269.37
2259.48
2271.76
2249.49
2226.75
2235.34
2223.57
2265.36
2282.46
2259.89
2337.42
2375.31
2372.28
2413.7
2400.76
2548.65
2645.46
2471.14
2893.82
3010.04
1831.11
2688.85
3564.17
406.944
-55.7289
-2458.87
-2052.15
3086.76
0.00729636
0.0151615
0.0259634
0.0370457
0.0487529
0.0613269
0.0748061
0.0891758
0.104031
0.119327
0.135093
0.150881
0.168343
0.191079
0.221507
0.260996
0.309362
0.36365
0.423913
0.49092
0.552985
0.607638
0.685471
0.820958
0.974726
1.07692
1.15751
1.21428
1.28537
1.40185
1.43839
1.43599
1.516
1.65154
1.78248
1.92041
2.10243
2.32992
2.61256
2.95926
3.36333
3.81104
4.2952
4.8222
5.38713
5.98051
6.61131
7.29409
8.04546
8.89186
9.8678
10.9731
12.0927
13.0083
13.5683
13.7749
13.6302
12.9898
11.5566
8.93173
4.91378
1.37093
1.85155
3.0101
4.36716
5.42257
5.46465
4.99628
4.92774
6.06808
8.56676
13.3177
22.2788
40.1314
75.3801
147.307
282.358
400.366
545.557
0.0253647
0.0529467
0.086743
0.121723
0.158632
0.198127
0.240427
0.285577
0.33246
0.380827
0.431211
0.484535
0.544687
0.62021
0.717045
0.837569
0.980909
1.1407
1.31916
1.5178
1.71735
1.91666
2.16251
2.49146
2.83738
3.18253
3.48938
3.43612
3.28695
3.4347
3.66222
3.92967
4.27812
4.64627
5.05011
5.50901
6.03501
6.66081
7.41692
8.3162
9.34124
10.4597
11.6468
12.9266
14.3296
15.8894
17.6479
19.6036
21.712
23.8879
26.055
28.2243
30.4875
32.8788
35.3196
37.6029
39.2235
39.2815
36.5167
29.559
18.1676
7.70116
6.85478
8.02306
10.0448
11.7098
12.6378
13.0699
12.8212
12.9597
13.555
14.6538
15.5563
16.1167
13.6759
10.2242
1.66045
-83.8387
1546.01
0.042658
0.0908829
0.146923
0.206245
0.268745
0.335515
0.406991
0.483182
0.562352
0.644179
0.730227
0.824336
0.932196
1.0658
1.23377
1.43877
1.67981
1.94991
2.2554
2.59629
2.94924
3.3194
3.76983
4.35291
4.95741
5.51153
5.97348
5.94442
5.86441
6.1883
6.56614
6.97813
7.53385
8.16386
8.85797
9.64472
10.5751
11.7073
13.0731
14.6847
16.5031
18.4784
20.5886
22.8909
25.4365
28.2701
31.4366
34.9056
38.6006
42.395
46.2172
50.1491
54.3277
58.6598
62.8252
66.3976
68.6025
68.0659
62.7739
50.4069
30.3036
11.1475
8.94465
13.3022
18.1195
20.2944
20.9659
21.5187
22.1413
24.0747
26.7964
30.8174
35.5418
41.6078
46.5521
59.5332
100.882
113.675
2689.55
0.0603651
0.130464
0.208532
0.292318
0.38038
0.474391
0.575054
0.682337
0.794082
0.909769
1.03148
1.16547
1.31973
1.50978
1.74689
2.03437
2.37108
2.74824
3.17526
3.65289
4.15386
4.68698
5.32588
6.12828
6.95422
7.72694
8.35854
8.32972
8.2693
8.67167
9.18359
9.7814
10.5664
11.4428
12.419
13.5362
14.8514
16.4437
18.3516
20.592
23.1133
25.8501
28.7768
31.9711
35.5061
39.4492
43.8632
48.7115
53.8803
59.1696
64.453
69.842
75.5748
81.6175
87.5934
92.879
96.3144
95.9305
88.9131
72.0918
44.6386
18.1393
14.1176
19.6898
25.6993
28.3852
29.2824
30.3755
31.855
35.536
41.3379
50.5364
63.923
85.5323
119.71
194.394
384.342
639.881
3011.46
0.0778962
0.170839
0.270606
0.379021
0.492746
0.614022
0.743926
0.882343
1.02685
1.1767
1.33437
1.5086
1.7101
1.9575
2.26424
2.63411
3.066
3.54968
4.09782
4.71214
5.36245
6.06195
6.89222
7.91621
8.9638
9.93682
10.6946
10.6846
10.714
11.2191
11.8824
12.661
13.6563
14.7714
16.028
17.4729
19.1772
21.2383
23.6956
26.5714
29.8005
33.3048
37.0593
41.1642
45.7117
50.785
56.4578
62.6894
69.333
76.1292
82.9128
89.8363
97.2221
105.05
112.844
119.779
124.365
124.115
115.49
94.5388
60.2297
26.5646
20.2069
26.8613
34.3133
37.5885
38.4077
39.8946
42.3876
47.63
55.8714
69.061
88.986
122.197
178.953
300.753
596.737
993.251
2674.43
0.0955474
0.212229
0.333594
0.466807
0.606261
0.75478
0.91392
1.08348
1.26087
1.44517
1.63899
1.85343
2.1021
2.40678
2.78278
3.23432
3.76041
4.34927
5.01644
5.7652
6.56319
7.42671
8.44223
9.67439
10.9287
12.0923
12.9549
12.9839
13.1082
13.7096
14.5202
15.4816
16.6811
18.0284
19.563
21.3361
23.4256
25.9413
28.9253
32.4069
36.3107
40.5476
45.0929
50.0649
55.5737
61.7201
68.5945
76.1611
84.2404
92.5083
100.748
109.139
118.095
127.653
137.294
146.016
151.991
152.206
142.413
117.925
77.524
37.1943
28.039
35.0354
43.3413
47.1833
48.0758
50.1143
53.8793
60.9759
71.9702
89.3003
115.651
159.923
237.992
400.329
771.385
1287.28
2542.16
0.11305
0.254268
0.397171
0.555376
0.720718
0.896524
1.0849
1.28559
1.49591
1.71487
1.94502
2.19979
2.49587
2.85818
3.30356
3.8364
4.45593
5.14907
5.93403
6.81572
7.76051
8.7869
9.98482
11.4181
12.8691
14.2047
15.1397
15.2359
15.4608
16.1838
17.1515
18.2955
19.6897
21.2641
23.0747
25.1745
27.6477
30.6121
34.1124
38.1851
42.7451
47.6949
53.0118
58.8315
65.2806
72.4771
80.5275
89.4036
98.8951
108.617
118.302
128.154
138.678
149.976
161.492
172.061
179.541
180.436
169.823
142.321
96.4778
49.7928
37.3164
44.2132
53.1746
57.6127
58.5539
61.1379
66.3286
75.4485
89.5592
111.697
145.814
203.84
308.596
518.723
964.671
1574.7
2230.74
0.130472
0.296879
0.461367
0.644792
0.836225
1.0394
1.25702
1.48878
1.73201
1.98575
2.25231
2.54742
2.89096
3.31115
3.82594
4.43971
5.15194
5.94846
6.84979
7.86246
8.95233
10.1392
11.5142
13.1385
14.7733
16.262
17.2458
17.4347
17.7625
18.6233
19.7526
21.0761
22.6581
24.4562
26.5414
28.9678
31.8224
35.226
39.2277
43.8706
49.0625
54.699
60.7605
67.3977
74.7534
82.9629
92.1523
102.304
113.179
124.331
135.441
146.731
158.796
171.82
185.238
197.744
206.906
208.766
197.756
167.825
117.231
64.5501
48.2418
54.4983
63.7113
68.6767
69.7788
73.0217
79.8037
91.0737
108.484
135.83
178.76
252.832
388.497
649.572
1156.95
1825.03
2079.23
0.147734
0.339859
0.526019
0.73492
0.95271
1.18341
1.4303
1.69309
1.96914
2.25769
2.56066
2.89599
3.287
3.76543
4.34989
5.04439
5.84865
6.74783
7.76423
8.90584
10.1387
11.4837
13.0305
14.8366
16.6429
18.2627
19.2764
19.5746
20.0178
21.0303
22.3258
23.8271
25.5921
27.6123
29.9713
32.7239
35.9574
39.792
44.2825
49.4772
55.2791
61.5781
68.3596
75.7882
84.0218
93.2136
103.51
114.907
127.138
139.699
152.22
164.936
178.532
193.282
208.629
223.149
234.15
237.249
226.267
194.505
139.86
81.5448
60.8922
65.9938
75.1128
80.5107
81.8546
85.8164
94.3344
107.931
128.911
161.981
214.859
307.074
476.08
785.734
1335.52
2040.32
1996.78
0.164903
0.383159
0.591043
0.825711
1.07017
1.32861
1.60484
1.89862
2.20737
2.53059
2.86995
3.24526
3.68355
4.22056
4.87509
5.65027
6.54599
7.54721
8.67733
9.9455
11.3188
12.8187
14.5311
16.5091
18.4745
20.2032
21.2378
21.6533
22.2287
23.4001
24.8621
26.5388
28.4849
30.7274
33.3599
36.4388
40.0486
44.3055
49.2716
54.9984
61.3875
68.3238
75.7994
83.991
93.0713
103.212
114.582
127.19
140.748
154.697
168.614
182.744
197.859
214.332
231.635
248.246
261.253
265.886
255.389
222.426
164.461
100.935
75.4648
78.8372
87.439
93.0802
94.7832
99.5704
109.953
126.088
151.036
190.643
255.082
367.988
572.166
926.513
1502.9
2221.99
2057.4
0.182068
0.426774
0.656304
0.917046
1.18853
1.47497
1.78071
2.10546
2.44679
2.80441
3.18004
3.595
4.08029
4.6761
5.40128
6.25731
7.24404
8.34677
9.58922
10.9813
12.4918
14.1423
16.0144
18.1542
20.267
22.0821
23.1358
23.672
24.3969
25.7303
27.3559
29.2064
31.3349
33.8016
36.7084
40.1136
44.0968
48.7674
54.1963
60.4361
67.3898
74.9386
83.0825
92.0094
101.906
112.963
125.372
139.158
154.013
169.325
184.625
200.162
216.79
234.989
254.269
273.046
288.222
294.686
285.143
251.636
191.115
122.875
92.181
93.211
100.859
106.486
108.626
114.363
126.73
145.681
175.128
222.343
300.307
436.582
676.829
1070.4
1651.83
2314.93
2270.52
0.19943
0.470825
0.721747
1.0088
1.30774
1.62249
1.95794
2.31372
2.68751
3.07917
3.49079
3.94502
4.47704
5.13177
5.92809
6.86539
7.94285
9.14665
10.4999
12.0128
13.6566
15.4531
17.4783
19.7697
22.019
23.8986
24.9731
25.6341
26.5235
28.0187
29.8017
31.8239
34.1384
36.8334
40.0156
43.7472
48.1008
53.1766
59.0549
65.7885
73.2842
81.4205
90.2066
99.8405
110.522
122.461
135.875
150.802
166.92
183.572
200.241
217.179
235.318
255.244
276.525
297.536
315.042
323.642
315.541
282.167
219.895
147.532
111.317
109.343
115.558
120.833
123.433
130.301
144.8
166.946
201.603
257.756
351.412
513.409
788.984
1213.59
1780
2313.59
2410.85
0.21724
0.515543
0.7874
1.10084
1.42768
1.77111
2.13655
2.52348
2.92965
3.35495
3.80208
4.29508
4.87356
5.58741
6.45521
7.47443
8.64247
9.94689
11.4092
13.0397
14.8122
16.7496
18.9205
21.354
23.7285
25.6531
26.7522
27.5435
28.609
30.2645
32.1977
34.3894
36.8938
39.8226
43.282
47.3399
52.0603
57.5326
63.847
71.0556
79.0707
87.7694
97.1716
107.484
118.919
131.706
146.088
162.117
179.463
197.426
215.449
233.786
253.437
275.096
298.398
321.709
341.702
352.74
346.58
314.034
250.855
175.065
133.176
127.52
131.805
136.348
139.364
147.552
164.391
190.24
231.022
297.704
409.309
598.751
907.06
1351.85
1891.22
2280.78
2428.23
0.235808
0.561238
0.853393
1.19313
1.54821
1.92076
2.31654
2.73482
3.17332
3.63185
4.11381
4.64494
5.26962
6.04286
6.98248
8.08431
9.34291
10.7475
12.3169
14.0617
15.9578
18.0304
20.3387
22.9055
25.3933
27.3467
28.4766
29.4044
30.6542
32.467
34.5448
36.904
39.6013
42.7693
46.5079
50.8917
55.9749
61.835
68.5719
76.2366
84.7483
93.9846
103.976
114.939
127.095
140.696
156.006
173.097
191.629
210.873
230.234
249.967
271.135
294.536
319.881
345.553
368.183
381.962
378.245
347.236
284.029
205.619
158.084
148.082
149.917
153.321
156.678
166.374
185.846
216.045
264.076
343.081
474.806
692.509
1029.25
1481.62
1983.52
2257.03
2419.15
0.255272
0.608207
0.919962
1.28574
1.66919
2.07134
2.49786
2.94778
3.41865
3.90999
4.42586
4.99439
5.66495
6.49792
7.50986
8.69482
10.0441
11.5481
13.2226
15.0784
17.0924
19.2938
21.7309
24.4227
27.0115
28.9816
30.1504
31.2209
32.6596
34.6253
36.8454
39.371
42.2634
45.6741
49.694
54.4029
59.8443
66.0834
73.2288
81.3308
90.3165
100.065
110.621
122.204
135.05
149.427
165.626
183.734
203.409
223.898
244.576
265.705
288.4
313.556
340.966
369.057
394.467
411.282
410.51
381.748
319.426
239.311
186.365
171.425
170.28
172.132
175.739
187.14
209.625
244.971
301.564
394.789
548.479
794.067
1153.37
1600.8
2057.51
2250.01
2389.66
0.275399
0.656661
0.987402
1.37886
1.79061
2.2227
2.68047
3.16236
3.66572
4.18948
4.73821
5.34324
6.05925
6.95241
8.03726
9.3056
10.7459
12.3486
14.1257
16.0894
18.2155
20.538
23.0951
25.9037
28.5824
30.5604
31.7778
32.9961
34.6248
36.7382
39.1019
41.7935
44.8828
48.5379
52.8414
57.874
63.6683
70.2774
77.8169
86.3377
95.7749
106.011
117.103
129.279
142.782
157.899
174.943
194.02
214.79
236.482
258.456
280.979
305.214
332.144
361.645
392.209
420.533
440.67
443.332
417.525
357.026
276.224
218.325
197.985
193.339
193.229
196.992
210.333
236.306
277.738
344.347
453.651
630.583
902.327
1276.97
1707.57
2114.38
2264.52
2362.35
0.295735
0.706559
1.05602
1.47276
1.91261
2.37471
2.86426
3.37859
3.91465
4.47048
5.05093
5.69135
6.45222
7.4061
8.56459
9.91621
11.4482
13.1484
15.0258
17.0942
19.3262
21.7616
24.4293
27.3466
30.1058
32.0849
33.3615
34.7315
36.5482
38.8048
41.3157
44.1733
47.4612
51.3618
55.951
61.3057
67.4469
74.4166
82.3358
91.2567
101.123
111.822
123.424
136.163
150.29
166.108
183.953
203.949
225.759
248.609
271.852
295.766
321.558
350.288
381.909
414.999
446.364
470.091
476.655
454.5
396.78
316.397
254.234
228.215
219.59
217.143
220.97
236.542
266.567
315.141
393.286
520.321
720.985
1015.76
1397.58
1801.25
2155.05
2295.59
2338.73
0.315847
0.757518
1.12595
1.56769
2.03541
2.52738
3.04908
3.59643
4.16553
4.75311
5.3641
6.03856
6.84352
7.85877
9.09171
10.5264
12.1504
13.9469
15.9219
18.0918
20.4234
22.9627
25.7315
28.7496
31.5816
33.5573
34.9044
36.4275
38.4282
40.8254
43.4876
46.5119
49.9996
54.147
59.024
64.6985
71.18
78.5007
86.7846
96.0874
106.36
117.497
129.583
142.856
157.573
174.053
192.653
213.513
236.306
260.261
284.741
310.042
337.414
367.976
401.754
437.422
471.942
499.505
510.408
492.583
438.608
359.822
294.302
262.559
249.558
244.462
248.283
266.444
301.159
358
449.163
595.189
819.117
1132.53
1513.05
1881.15
2178.03
2356.32
2328.93
0.33541
0.808955
1.19702
1.66379
2.15916
2.68086
3.23483
3.81585
4.41843
5.03751
5.6778
6.3847
7.2328
8.31018
9.61847
11.136
12.8521
14.7432
16.8129
19.0806
21.5055
24.1393
26.9995
30.111
33.0099
34.9813
36.4085
38.0836
40.2634
42.8014
45.619
48.8108
52.4993
56.8953
62.0615
68.0532
74.8679
82.5297
91.163
100.829
111.485
123.037
135.58
149.356
164.631
181.733
201.039
222.706
246.42
271.422
297.102
323.787
352.763
385.198
421.174
459.472
497.25
528.868
544.507
531.666
482.399
406.435
338.66
301.408
283.76
275.809
279.598
300.77
340.862
407.091
512.589
678.302
923.997
1250.66
1621.31
1946.19
2183.02
2425.66
2313.62
0.354175
0.860302
1.26876
1.76096
2.28399
2.83533
3.42151
4.0368
4.67343
5.3238
5.99209
6.72958
7.61966
8.76009
10.1447
11.7449
13.5524
15.5365
17.6973
20.0588
22.5702
25.2893
28.2318
31.43
34.391
36.3609
37.8753
39.699
42.0525
44.7335
47.7115
51.072
54.9625
59.6087
65.0647
71.3706
78.5106
86.5031
95.4705
105.481
116.498
128.44
141.414
155.665
171.462
189.147
209.109
231.524
256.092
282.08
308.92
336.982
367.59
401.945
440.169
481.149
522.274
558.131
578.858
571.622
528.013
456.117
387.348
345.07
322.666
311.804
315.609
340.264
386.424
463.071
583.92
769.32
1034.28
1368.14
1720.93
1999.16
2173.76
2413.03
2286.17
0.371941
0.911112
1.34073
1.85886
2.40992
2.99082
3.60926
4.25919
4.93058
5.61211
6.30699
7.07298
8.00369
9.20826
10.6702
12.3526
14.2502
16.3253
18.5729
21.0236
23.6147
26.4104
29.4265
32.7065
35.725
37.6992
39.3053
41.2728
43.7947
46.6218
49.7658
53.2967
57.3916
62.2892
68.0345
74.6511
82.1085
90.4207
99.7069
110.044
121.4
133.707
147.085
161.783
178.068
196.293
216.861
239.962
265.316
292.227
320.181
349.614
381.885
418.214
458.74
502.453
547
587.238
613.354
612.309
575.278
508.69
440.303
393.729
366.643
352.986
356.99
385.625
438.493
526.39
663.183
867.511
1148.36
1483.05
1810.52
2040.29
2163.52
2357.58
2264.46
0.38854
0.961081
1.41253
1.95709
2.53674
3.14733
3.79824
4.48305
5.18993
5.90252
6.62251
7.41459
8.38445
9.65443
11.1947
12.9587
14.9443
17.1081
19.4373
21.972
24.6358
27.5002
30.5824
33.9415
37.0124
38.9976
40.6986
42.8046
45.4894
48.4656
51.7812
55.4852
59.7882
64.9381
70.9719
77.8953
85.6619
94.2824
103.872
114.516
126.189
138.837
152.594
167.708
184.448
203.172
224.295
248.02
274.091
301.858
330.883
361.679
395.645
434.006
476.891
523.388
571.409
616.127
647.88
653.569
623.993
563.919
497.355
447.43
415.911
399.746
404.338
437.438
497.538
597.233
750.047
971.793
1264.49
1593.61
1889.28
2070.31
2160.6
2307.06
2245.15
0.403832
1.01003
1.48394
2.05534
2.66415
3.30485
3.98847
4.70852
5.45143
6.1951
6.93858
7.75407
8.76145
10.0983
11.7176
13.5622
15.6334
17.8826
20.2874
22.9005
25.63
28.5565
31.6985
35.1368
38.2544
40.2578
42.0551
44.2945
47.1367
50.2636
53.756
57.637
62.1527
67.5565
73.8775
81.1036
89.1709
98.088
107.965
118.898
130.865
143.832
157.941
173.442
190.603
209.786
231.412
255.7
282.42
310.978
341.03
373.184
408.88
449.329
494.631
543.955
595.479
644.731
682.318
695.238
673.931
621.517
558.234
506.063
470.525
452.296
458.103
496.11
563.788
675.47
843.821
1080.8
1380.82
1698.27
1957.39
2091.61
2161.46
2266.36
2228.02
0.417707
1.05787
1.55487
2.1534
2.79184
3.46328
4.17984
4.93575
5.71514
6.48989
7.25506
8.09097
9.13417
10.5395
12.2385
14.1618
16.3156
18.6459
21.1198
23.8055
26.5942
29.5777
32.7748
36.2955
39.4522
41.4813
43.3751
45.7433
48.7373
52.0151
55.6885
59.751
64.4851
70.1448
76.7519
84.2765
92.636
101.838
111.987
123.188
135.429
148.69
163.127
178.986
196.534
216.135
238.216
263.006
290.308
319.597
350.637
384.146
421.608
464.198
511.968
564.151
619.183
672.976
716.544
737.137
724.84
681.151
622.574
569.368
530.364
510.662
518.541
561.821
637.191
760.652
943.487
1192.95
1495.55
1795.78
2015.43
2106.66
2162.07
2231.93
2212.97
0.430076
1.10453
1.62532
2.2512
2.91956
3.62232
4.37226
5.16473
5.98114
6.78683
7.5717
8.42471
9.502
10.9775
12.7562
14.7559
16.9884
19.3942
21.931
24.6833
27.5258
30.5629
33.8121
37.4204
40.6067
42.6686
44.6586
47.152
50.2927
53.7202
57.5777
61.8259
66.7845
72.7032
79.5956
87.4144
96.0577
105.531
115.936
127.387
139.88
153.413
168.151
184.339
202.243
222.223
244.71
269.946
297.769
327.735
359.731
394.596
433.858
478.635
528.914
583.97
642.481
700.783
750.434
779.082
776.449
742.447
689.927
636.948
595.155
574.694
585.674
634.498
717.401
852.021
1047.77
1306.56
1607.01
1885.27
2064.15
2117.3
2161.28
2204.9
2200.09
0.440858
1.14996
1.69536
2.3488
3.04711
3.78162
4.56554
5.39528
6.24956
7.08581
7.88803
8.75452
9.86428
11.4116
13.2694
15.3418
17.6483
20.1234
22.7172
25.5306
28.4229
31.512
34.8124
38.5133
41.7184
43.8203
45.9059
48.5221
51.805
55.381
59.4228
63.8613
69.0506
75.2319
82.4095
90.5181
99.4359
109.167
119.812
131.494
144.217
158.001
173.015
189.504
207.731
228.053
250.901
276.53
304.82
335.417
368.348
404.576
445.667
492.668
545.477
603.398
665.328
728.068
783.865
820.882
828.469
805.001
759.773
708.277
664.478
644.083
659.286
713.812
803.808
948.559
1155.22
1419.95
1713.71
1966.28
2104.58
2125.05
2159.13
2184.57
2185.79
0.449961
1.19407
1.76504
2.44632
3.17439
3.94081
4.75937
5.62705
6.52046
7.38656
8.20319
9.07936
10.2203
11.8409
13.7762
15.9166
18.2916
20.8294
23.4753
26.3451
29.2848
32.426
35.7801
39.5754
42.7882
44.9365
47.1173
49.8547
53.2765
57.0003
61.2239
65.8574
71.2839
77.7313
85.1944
93.5876
102.771
112.746
123.615
135.508
148.443
162.454
177.72
194.482
213.001
233.63
256.797
282.771
311.483
342.678
376.53
414.135
457.081
506.325
561.664
622.41
687.663
754.743
816.712
862.343
880.603
868.385
831.535
782.713
737.778
718.371
738.931
799.197
895.591
1049.06
1264.3
1531.45
1814.45
2038.71
2137.98
2131.16
2154.89
2168.82
2170.84
0.457261
1.23672
1.8344
2.5438
3.3014
4.0996
4.95323
5.85972
6.7936
7.68834
8.5156
9.39787
10.5695
12.2644
14.2744
16.4772
18.9144
21.5087
24.2027
27.1256
30.1123
33.3071
36.7207
40.6066
43.8161
46.017
48.293
51.1511
54.7093
58.5806
62.9826
67.8155
73.4854
80.2023
87.9508
96.623
106.062
116.269
127.344
139.43
152.555
166.772
182.266
199.274
218.057
238.959
262.407
288.686
317.783
349.554
384.327
423.324
468.143
519.632
577.472
640.971
709.418
780.717
848.848
903.267
932.547
932.155
904.593
859.527
814.398
796.965
823.96
889.886
991.77
1152.23
1373.44
1639.56
1908.31
2102.8
2165.61
2136.52
2148.87
2157.14
2157.4
0.462595
1.27771
1.90343
2.64131
3.42808
4.2577
5.14646
6.09277
7.06808
7.98907
8.82226
9.70818
10.9113
12.6809
14.7615
17.0209
19.514
22.1591
24.8985
27.8725
30.9071
34.1579
37.6388
41.6059
44.8021
47.0616
49.4334
52.4124
56.1054
60.1236
64.7017
69.7373
75.6568
82.646
90.679
99.6252
109.31
119.734
130.999
143.259
156.555
170.957
186.654
203.882
222.9
244.047
267.742
294.293
323.748
356.084
391.788
432.196
478.894
532.606
592.886
659.03
730.517
805.894
880.152
943.46
983.998
995.867
978.314
937.949
893.635
879.178
913.544
984.923
1091.21
1256.71
1481.13
1742.95
1994.69
2159.02
2188.68
2141.83
2142.64
2148.2
2146.19
0.465751
1.31675
1.97207
2.73882
3.55432
4.41482
5.33832
6.3254
7.34171
8.28385
9.11782
10.0073
11.2455
13.09
15.2361
17.5464
20.0892
22.7803
25.5633
28.5874
31.6718
34.9811
38.5372
42.5721
45.7457
48.0695
50.5388
53.6397
57.4665
61.6308
66.3842
71.6253
77.8004
85.0639
93.38
102.596
112.516
123.141
134.579
146.994
160.442
175.008
190.885
208.309
227.537
248.899
272.814
299.609
329.407
362.31
398.96
440.796
489.364
545.25
607.878
676.526
750.874
830.18
910.499
982.73
1034.67
1059.08
1052.07
1017.2
974.772
964.253
1006.67
1083.16
1192.61
1361.1
1585.97
1840.51
2073.23
2208.04
2208.4
2147.36
2136.61
2141.52
2136.18
0.466463
1.35346
2.04027
2.83625
3.67985
4.57058
5.5281
6.55599
7.60917
8.56264
9.39347
10.2895
11.5719
13.4924
15.6978
18.0543
20.6409
23.3737
26.1993
29.2726
32.4092
35.7799
39.4169
43.5036
46.6463
49.04
51.6095
54.8339
58.7942
63.1035
68.033
73.483
79.9184
87.4569
96.0556
105.535
115.68
126.492
138.085
150.637
164.217
178.927
194.961
212.557
231.97
253.524
277.635
304.656
334.788
368.268
405.885
449.158
499.571
557.555
622.407
693.389
770.402
853.479
939.773
1020.9
1084.27
1121.39
1125.25
1096.5
1057.1
1051.39
1102.16
1183.29
1294.52
1463.96
1686.64
1931.38
2143.88
2250.69
2225.76
2153.33
2132.5
2137.3
2129.65
0.464409
1.38739
2.1079
2.93342
3.80437
4.72453
5.71478
6.78059
7.85863
8.80935
9.63505
10.5449
11.8924
13.8897
16.148
18.5471
21.1721
23.9421
26.8095
29.9309
33.122
36.5567
40.277
44.3982
47.5034
49.9727
52.6457
55.9959
60.0901
64.5433
69.651
75.314
82.013
89.8266
98.7072
108.445
118.803
129.784
141.514
154.185
167.88
182.714
198.884
216.628
236.205
257.93
282.218
309.453
339.92
373.991
412.595
457.305
509.518
569.498
636.424
709.549
789.017
875.702
967.859
1057.79
1132.57
1182.39
1197.29
1175.12
1139.94
1139.8
1198.75
1283.88
1395.5
1563.89
1782.04
2014.93
2206.76
2287.8
2241.66
2159.95
2130.41
2134.87
2127.22
0.459206
1.41795
2.17483
3.03008
3.92745
4.87598
5.89623
6.98985
8.06879
9.0058
9.82125
10.7696
12.2111
14.2837
16.5894
19.0282
21.6864
24.4891
27.3969
30.5648
33.8124
37.313
41.1156
45.253
48.3164
50.8669
53.6478
57.1267
61.3557
65.9521
71.2407
77.1217
84.0859
92.1751
101.337
111.327
121.884
133.018
144.868
157.641
171.431
186.37
202.654
220.526
240.246
262.125
286.575
314.018
344.827
379.507
419.113
465.248
519.193
581.046
649.87
724.931
806.639
896.762
994.652
1093.26
1179.33
1241.75
1267.64
1252.3
1222.5
1228.67
1295.16
1383.55
1494.19
1659.64
1871.22
2090.79
2262.21
2320.26
2256.82
2167.3
2130.51
2135.02
2129.32
0.450407
1.44442
2.24087
3.12601
4.04861
5.02366
6.06681
7.16467
8.21602
9.13385
9.94139
10.978
12.5297
14.6758
17.0254
19.501
22.1875
25.0181
27.964
31.1764
34.4819
38.0487
41.9298
46.065
49.0846
51.7224
54.616
58.2271
62.5925
67.3317
72.8044
78.9092
86.1391
94.504
103.945
114.181
124.924
136.194
148.146
161.002
174.871
189.897
206.275
224.253
244.099
266.117
290.721
318.369
349.529
384.835
425.452
472.983
528.573
592.154
662.688
739.468
823.199
916.584
1020.06
1127.18
1224.36
1299.18
1335.88
1327.4
1303.95
1317.14
1390.21
1481
1589.4
1750.15
1953.5
2158.77
2310.67
2348.88
2271.8
2175.42
2133.04
2137.03
2134.88
0.4375
1.4659
2.30585
3.22101
4.1671
5.16401
6.21259
7.27883
8.29271
9.18196
10.0275
11.1857
12.8484
15.069
17.4596
19.9682
22.6781
25.5316
28.5124
31.7668
35.1309
38.7633
42.7161
46.8311
49.8079
52.5392
55.5507
59.2984
63.8017
68.6838
74.3439
80.6797
88.1745
96.8151
106.534
117.009
127.923
139.311
151.347
164.27
178.2
193.294
209.746
227.814
247.77
269.914
294.665
322.522
354.044
389.992
431.618
480.499
537.629
602.775
674.818
753.096
838.635
935.1
1043.98
1159.41
1267.49
1354.41
1401.64
1400.02
1383.54
1404.27
1482.77
1575.08
1680.08
1834.58
2028.4
2218.9
2352.68
2374.4
2287.1
2184.04
2136.87
2139.11
2142.4
0.419919
1.48142
2.36974
3.31484
4.28062
5.28658
6.30858
7.32362
8.30235
9.17881
10.12
11.3968
13.1722
15.4665
17.8944
20.4313
23.1602
26.0314
29.0432
32.3367
35.7594
39.456
43.4712
47.5488
50.486
53.3179
56.4527
60.3418
64.9843
70.0096
75.8606
82.4362
90.1939
99.1095
109.106
119.811
130.88
142.369
154.471
167.444
181.419
196.564
213.072
231.213
251.264
273.525
298.42
326.491
358.387
394.986
437.608
487.778
546.326
612.865
686.208
765.764
852.9
952.257
1066.36
1189.86
1308.59
1407.26
1464.66
1469.92
1460.77
1489.19
1571.87
1664.74
1765.37
1912.33
2095.68
2271.34
2388.81
2397.44
2303.18
2193.3
2140.9
2141.7
2151.55
0.397075
1.48997
2.43261
3.40623
4.3811
5.36782
6.33848
7.31279
8.25944
9.18166
10.2289
11.6173
13.5072
15.8701
18.3309
20.8912
23.6345
26.5184
29.5566
32.8863
36.3667
40.1251
44.191
48.2155
51.1195
54.0593
57.3231
61.3587
66.1412
71.3106
77.3567
84.1812
92.1979
101.388
111.659
122.586
133.795
145.366
157.518
170.524
184.529
199.708
216.255
234.452
254.587
276.957
301.996
330.286
362.568
399.821
443.415
494.798
554.63
622.381
696.814
777.429
865.961
968.013
1087.12
1218.45
1347.54
1457.54
1524.68
1536.98
1535.33
1571.16
1656.66
1749.09
1844.57
1983.03
2155.26
2316.41
2419.61
2418.49
2320.29
2203.63
2145.86
2145.22
2163.62
0.368412
1.49078
2.49373
3.48852
4.44715
5.38482
6.31555
7.25653
8.20977
9.21025
10.3504
11.8546
13.8555
16.2798
18.7688
21.3482
24.1016
26.9928
30.0527
33.415
36.9515
40.7687
44.872
48.8293
51.7092
54.7651
58.1636
62.3505
67.2733
72.5885
78.8356
85.9163
94.1877
103.653
114.196
125.334
136.666
148.303
160.489
173.512
187.53
202.728
219.297
237.538
257.745
280.219
305.401
333.918
366.593
404.498
449.028
501.538
562.51
631.288
706.6
788.065
877.795
982.342
1106.23
1245.13
1384.27
1505.14
1581.5
1601.08
1607
1649.6
1736.47
1827.4
1917.16
2046.47
2207.26
2354.5
2445.64
2437.91
2338.49
2215.44
2152
2149.73
2178.68
0.333502
1.48275
2.54656
3.54063
4.45383
5.34912
6.25189
7.18537
8.18288
9.25393
10.4855
12.1104
14.2166
16.6946
19.2078
21.8024
24.5615
27.4544
30.5311
33.9222
37.5122
41.384
45.5102
49.3886
52.2561
55.4377
58.9765
63.3192
68.3817
73.8453
80.3016
87.644
96.1649
105.903
116.714
128.054
139.492
151.179
163.382
176.406
190.425
205.625
222.203
240.474
260.744
283.317
308.644
337.395
370.468
409.014
454.434
507.975
569.942
639.562
715.547
797.655
888.397
995.23
1123.63
1269.86
1418.76
1550
1634.96
1662.15
1675.58
1724.05
1810.77
1899.1
1982.8
2102.65
2251.94
2386.1
2467.39
2455.97
2357.42
2228.65
2158.5
2155.3
2194.77
0.289233
1.45623
2.56917
3.53664
4.41033
5.27988
6.17126
7.12918
8.17333
9.30744
10.638
12.3841
14.5893
17.1131
19.6473
22.254
25.0139
27.9027
30.9913
34.4067
38.0467
41.9681
46.1021
49.8925
52.7621
56.0798
59.7647
64.2669
69.4676
75.0835
81.7597
89.3674
98.1308
108.14
119.215
130.745
142.272
153.993
166.198
179.209
193.214
208.403
224.975
243.266
263.591
286.258
311.733
340.723
374.196
413.365
459.623
514.093
576.905
647.187
723.643
806.199
897.767
1006.67
1139.32
1292.6
1450.98
1592.11
1684.92
1720.1
1740.93
1794.14
1879.23
1963.79
2041.3
2151.71
2289.66
2411.69
2485.29
2472.86
2376.3
2242.36
2164.58
2160.75
2209.95
0.234909
1.39772
2.54396
3.48375
4.34048
5.20034
6.10149
7.0895
8.1722
9.37319
10.8092
12.676
14.9721
17.5338
20.0868
22.7029
25.4588
28.3376
31.4327
34.8669
38.5522
42.5173
46.6443
50.3406
53.2297
56.6949
60.5315
65.1959
70.5323
76.3063
83.2157
91.0888
100.086
110.362
121.695
133.404
145.004
156.744
168.936
181.921
195.899
211.063
227.62
245.919
266.291
289.051
314.675
343.908
377.778
417.546
464.583
519.877
583.388