/*--------------------------------*- C++ -*----------------------------------*\
| =========                 |                                                 |
| \\      /  F ield         | OpenFOAM: The Open Source CFD Toolbox           |
|  \\    /   O peration     | Version:  4.1                                   |
|   \\  /    A nd           | Web:      www.OpenFOAM.org                      |
|    \\/     M anipulation  |                                                 |
\*---------------------------------------------------------------------------*/
FoamFile
{
    version     2.0;
    format      ascii;
    class       volVectorField;
    location    "18";
    object      U;
}
// * * * * * * * * * * * * * * * * * * * * * * * * * * * * * * * * * * * * * //

dimensions      [0 1 -1 0 0 0 0];

internalField   nonuniform List<vector> 
6785
(
(5.8349e-14 -0.835447 16.1453)
(4.30994e-14 -6.69472 12.5204)
(-1.10165e-14 -4.77796 12.9138)
(2.57003e-14 -4.28358 12.6593)
(7.78761e-15 -3.65951 12.4877)
(9.45721e-16 -3.18321 12.2583)
(1.88761e-14 -2.78721 11.996)
(5.07799e-15 -2.48754 11.6877)
(1.40577e-15 -2.28863 11.336)
(1.95313e-14 -2.17504 10.9687)
(2.75961e-15 -2.14333 10.6183)
(-6.7316e-15 -2.36812 10.1989)
(1.63741e-14 -2.85843 9.60383)
(-3.2077e-15 -2.1899 9.08596)
(-3.41168e-14 0.772288 7.19089)
(1.1576e-13 -7.69846 26.2608)
(7.37799e-14 -16.6076 21.9159)
(-6.3758e-15 -11.5426 22.3954)
(7.44158e-14 -11.9231 20.9287)
(5.66851e-15 -10.9125 19.9482)
(2.3465e-14 -10.2246 18.8906)
(8.02199e-14 -9.51146 17.8411)
(2.67146e-15 -8.8282 16.7789)
(3.10162e-14 -8.17169 15.6917)
(8.0648e-14 -7.52844 14.5818)
(1.02138e-15 -6.86562 13.5157)
(4.21035e-14 -6.24823 12.4826)
(1.17785e-13 -5.52301 10.7259)
(-4.20413e-14 -3.26664 6.32423)
(-3.90427e-14 0.778579 -1.32849)
(3.97543e-14 -10.3083 27.8721)
(7.49518e-14 -17.6626 24.0598)
(-1.59552e-14 -11.7483 24.5836)
(-1.52176e-15 -12.8502 22.2994)
(1.26148e-14 -11.2356 21.1959)
(5.53954e-15 -10.5441 19.704)
(-1.02931e-14 -9.66069 18.3097)
(1.22516e-14 -8.88496 16.9047)
(2.02729e-15 -8.17815 15.5741)
(-2.68515e-14 -7.57633 14.3507)
(4.40284e-15 -7.03306 13.2191)
(1.57911e-14 -6.38462 11.968)
(-9.35826e-14 -4.93873 9.40498)
(-6.8009e-15 -1.38681 2.83403)
(-6.35534e-14 -0.0631404 -4.25941)
(8.25109e-14 -11.2166 26.729)
(2.62297e-14 -17.2072 23.4087)
(1.72189e-14 -11.5366 23.8671)
(-1.44227e-14 -13.2646 20.9783)
(-2.67656e-14 -11.2003 19.9834)
(4.02391e-14 -10.7592 18.1732)
(-2.89401e-14 -9.7913 16.6528)
(-4.24718e-14 -9.02111 15.0728)
(5.16975e-14 -8.2932 13.6197)
(-3.07222e-14 -7.74107 12.373)
(-5.113e-14 -7.37187 11.3512)
(7.68872e-14 -7.01472 10.2661)
(1.26156e-16 -6.24357 8.6435)
(-1.67045e-13 -4.42648 5.54447)
(-7.61904e-14 -3.25888 2.03368)
(5.97998e-14 -11.905 26.4202)
(-4.59255e-14 -16.6989 23.4402)
(-1.83323e-14 -11.628 23.8101)
(-5.39101e-14 -13.3307 20.8136)
(-9.87182e-14 -10.9332 19.9225)
(-1.2128e-14 -10.5851 17.9699)
(-8.29538e-14 -9.38467 16.4966)
(-1.12476e-13 -8.48429 14.8607)
(-4.78011e-14 -7.37869 13.0874)
(-1.83868e-13 -6.14012 10.8818)
(-3.2238e-13 -5.12399 8.72681)
(-1.74145e-13 -5.077 7.82172)
(-2.35778e-13 -5.46566 7.80843)
(-5.49463e-13 -5.31754 7.45484)
(-3.24934e-13 -4.94101 6.6638)
(1.05381e-13 -12.5574 26.7598)
(-4.22944e-14 -16.7245 24.4757)
(3.51838e-15 -11.958 24.4882)
(-6.94337e-14 -13.4718 21.6552)
(-8.39928e-14 -10.891 20.8455)
(5.77398e-15 -10.6459 18.8771)
(-1.032e-13 -9.26177 17.5737)
(-7.65325e-14 -8.34098 15.9281)
(-7.28159e-14 -6.83761 13.766)
(-2.61912e-13 -4.6942 10.3132)
(-1.947e-13 -2.3002 6.31155)
(1.49788e-13 -0.997705 3.88544)
(2.89513e-13 -1.67229 4.50023)
(1.21786e-13 -3.65164 7.19645)
(-4.53549e-14 -3.95498 7.71046)
(1.59812e-13 -12.6808 26.2144)
(2.07665e-14 -17.4375 26.2251)
(7.26902e-14 -12.5501 25.2593)
(-6.55975e-14 -14.0555 22.4724)
(-2.94091e-14 -11.4255 21.7622)
(8.76749e-14 -11.4239 19.7502)
(-9.59978e-14 -10.0202 18.5699)
(-4.37445e-14 -9.29926 16.9986)
(3.46163e-14 -7.98977 15.0978)
(-2.05879e-13 -6.02087 11.9512)
(-8.89766e-14 -3.30883 7.69799)
(1.80825e-13 -0.500663 3.42521)
(-9.89707e-14 1.77993 0.292265)
(-3.31015e-13 1.48216 0.160736)
(-3.38069e-14 -0.481608 2.14298)
(1.1446e-13 -12.177 24.299)
(2.81517e-14 -17.7973 27.398)
(7.44585e-14 -13.4021 25.5773)
(-4.49803e-14 -14.2528 22.6946)
(-5.65068e-14 -12.1171 21.7971)
(7.96406e-14 -11.9721 19.8956)
(-3.66852e-14 -10.8437 18.6052)
(-5.55362e-14 -10.1733 17.1039)
(2.91584e-14 -9.26293 15.515)
(-7.16808e-14 -8.01864 13.3759)
(-7.73918e-14 -6.24817 10.5264)
(2.47893e-14 -3.96346 7.1135)
(-3.19395e-14 -0.867314 3.01586)
(-7.18926e-13 2.63988 -1.60185)
(-1.16428e-12 1.08227 -3.18488)
(1.07489e-13 -11.4213 21.9411)
(4.53002e-14 -17.5099 27.5303)
(1.0144e-14 -13.8636 25.4289)
(-1.9319e-14 -13.9786 22.3534)
(-5.64263e-14 -12.2275 21.2115)
(-2.45227e-14 -11.871 19.4134)
(9.35614e-15 -10.8994 18.0086)
(-3.19264e-14 -10.1723 16.5)
(-7.10983e-14 -9.38771 14.9869)
(-2.56247e-14 -8.47399 13.3064)
(-1.73199e-14 -7.35238 11.314)
(-1.10168e-13 -5.88761 8.97531)
(-3.15631e-14 -4.03452 6.00842)
(-5.53282e-14 -1.31143 2.48412)
(-7.85605e-13 0.186575 -2.40761)
(5.68707e-14 -10.7927 20.0942)
(4.63693e-14 -16.9019 27.1355)
(1.06727e-14 -13.9253 25.1005)
(-6.27361e-14 -13.5494 21.9218)
(-6.54751e-14 -11.9602 20.5988)
(-4.88241e-14 -11.4734 18.8663)
(-7.45275e-14 -10.5365 17.4258)
(-3.15381e-14 -9.75342 15.9114)
(-1.28679e-13 -8.9593 14.421)
(-9.71342e-14 -8.11412 12.9052)
(-1.84482e-14 -7.20389 11.2527)
(-1.18874e-13 -6.07669 9.41883)
(-1.83238e-13 -4.77042 7.12554)
(1.54517e-14 -2.71157 4.23615)
(-4.27022e-13 -0.568408 -1.3425)
(-5.01804e-14 -10.4357 19.0562)
(7.17037e-14 -16.2701 26.5934)
(-9.26846e-14 -13.8768 24.7603)
(-7.84227e-14 -13.2117 21.612)
(-4.1296e-14 -11.7366 20.145)
(-1.9566e-13 -11.1822 18.4879)
(-9.66007e-14 -10.3 17.0676)
(-2.74911e-15 -9.52055 15.6065)
(-2.17646e-13 -8.74173 14.1793)
(-1.53846e-13 -7.93482 12.7692)
(1.24655e-14 -7.11241 11.2969)
(-2.71823e-13 -6.14101 9.73696)
(-2.20224e-13 -5.08807 7.85137)
(-2.97256e-13 -3.42189 5.55975)
(-1.1039e-12 -1.09528 0.180063)
(-3.02346e-14 -10.3241 18.5123)
(1.18441e-13 -15.4945 25.6072)
(-1.54918e-13 -13.6884 24.1722)
(-8.87118e-14 -12.8975 21.1039)
(4.27097e-15 -11.4779 19.5105)
(-2.66082e-13 -10.8981 17.9245)
(-1.35815e-13 -10.0974 16.591)
(5.41791e-14 -9.38415 15.2512)
(-1.79972e-13 -8.66778 13.9358)
(-1.97007e-13 -7.9354 12.6476)
(-2.71918e-14 -7.21287 11.3558)
(-2.42261e-13 -6.41227 10.0689)
(-1.66023e-13 -5.59747 8.6061)
(-3.10898e-13 -4.28208 6.92724)
(-7.11668e-13 -2.07731 2.19982)
(-9.45745e-14 -10.5895 18.6098)
(9.34027e-14 -14.915 24.7121)
(-1.4672e-13 -13.2717 23.3761)
(-1.51526e-13 -12.7791 20.8076)
(1.49301e-14 -11.4805 19.3419)
(-2.34368e-13 -10.9785 17.7452)
(-2.22952e-13 -10.2538 16.4682)
(1.94614e-13 -9.67364 15.1882)
(-6.3928e-14 -9.08628 13.9379)
(-2.16221e-13 -8.4926 12.7342)
(-3.354e-14 -7.8898 11.5975)
(-2.05845e-13 -7.24517 10.5979)
(-2.01143e-13 -6.57319 9.67558)
(-1.55892e-13 -5.56068 8.6469)
(-5.72104e-13 -3.62721 5.1156)
(-1.82996e-13 -9.85939 16.3249)
(3.54363e-14 -14.9912 24.2255)
(-1.88618e-13 -12.9065 22.113)
(-2.03668e-13 -11.6175 18.6949)
(-2.07405e-14 -10.0458 17.3116)
(-2.50642e-13 -9.5241 15.728)
(-1.26617e-13 -8.44115 14.438)
(3.54268e-14 -7.85698 13.1118)
(-3.03563e-13 -7.30569 12.1879)
(-3.32079e-13 -7.02866 11.6252)
(-2.29694e-13 -7.06897 11.6959)
(-2.40923e-13 -7.34663 12.1324)
(-1.20045e-13 -7.40238 12.2656)
(-1.55179e-13 -6.9752 11.7521)
(-5.08952e-13 -4.93792 8.50486)
(-2.28215e-13 -7.41971 13.0662)
(-9.60527e-14 -15.4779 24.4121)
(-1.37134e-13 -17.062 25.9795)
(-1.85238e-13 -16.6886 24.0363)
(-1.3712e-13 -15.3182 21.9074)
(-1.78433e-13 -14.1043 19.707)
(-1.35149e-13 -12.4849 17.4686)
(-1.58156e-13 -10.8961 15.169)
(-3.48109e-13 -9.41458 13.3869)
(-4.19832e-13 -8.23833 11.9516)
(-5.10187e-13 -6.88541 10.4053)
(-4.76215e-13 -5.74 8.92938)
(-2.94637e-13 -5.83106 9.4771)
(-4.01561e-13 -5.83222 9.64242)
(-4.19642e-13 -3.11067 5.21)
(-2.38149e-15 0.0165497 -0.0947211)
(-1.00334e-14 -0.0551193 0.0126688)
(-7.80594e-15 -0.0501844 -0.153169)
(-7.11084e-15 -0.0538677 -0.176966)
(-5.90144e-15 -0.0186063 -0.108141)
(-6.92239e-15 -0.136037 0.0187829)
(3.90698e-15 -0.155917 -0.213192)
(2.79946e-14 -0.147882 -0.240988)
(1.15432e-13 -0.11905 -0.156607)
(4.31275e-13 -0.188804 0.0275739)
(7.93842e-14 -0.264703 -0.148288)
(3.73296e-14 -0.206893 -0.0148041)
(2.36653e-14 -0.372508 0.146398)
(1.34591e-14 -0.313427 -0.154869)
(1.20696e-14 -0.330369 -0.0840645)
(1.51668e-14 -0.298896 0.0881805)
(4.07933e-14 -0.405579 0.261058)
(4.22757e-14 -0.373771 -0.0344061)
(5.89833e-15 -0.354266 0.0997545)
(4.44564e-15 -0.456012 0.192551)
(1.15926e-14 -0.370719 -0.114855)
(2.21228e-14 -0.395481 -0.0697213)
(4.17139e-14 -0.355555 0.0430633)
(-1.03623e-14 -0.468559 0.0799474)
(-1.11784e-14 -0.331118 -0.152032)
(-3.05064e-14 -0.362862 -0.1363)
(-7.34839e-14 -0.314857 -0.0628886)
(-2.58937e-14 -0.397375 -0.0776671)
(-5.39327e-14 -0.264056 -0.186141)
(-2.41468e-14 -0.257259 -0.127353)
(-3.07372e-14 -0.287204 -0.227856)
(-6.09531e-14 -0.161751 -0.261459)
(-3.64245e-14 -0.174918 -0.239167)
(-6.47243e-14 -0.131992 -0.192371)
(-3.8549e-14 -0.169759 -0.353232)
(-2.67553e-14 -0.0338959 -0.320361)
(-2.25579e-14 -0.016262 -0.258725)
(-2.46051e-14 -0.0132288 -0.50225)
(-1.70473e-14 0.0991233 -0.378095)
(-1.7578e-14 0.123236 -0.343872)
(1.22945e-14 0.137865 -0.281049)
(-4.34428e-15 0.194577 -0.611105)
(-5.22274e-15 0.275032 -0.423295)
(-4.73183e-15 0.313375 -0.387455)
(-5.1232e-15 0.322236 -0.314811)
(-5.35024e-15 0.388882 -0.698568)
(-2.77883e-14 0.461554 -0.515047)
(-1.90949e-14 0.510881 -0.428533)
(-1.87709e-14 0.524621 -0.546486)
(5.78644e-15 0.515048 -0.41841)
(-3.628e-15 0.583677 -0.40939)
(-7.10042e-15 0.575655 -0.369705)
(-9.34486e-15 0.603278 -0.348021)
(-4.59766e-15 0.497998 -0.288412)
(-8.25231e-15 0.557372 -0.288478)
(1.5666e-14 0.554539 -0.262438)
(2.48399e-14 0.52806 -0.194393)
(1.86725e-14 0.393018 -0.295271)
(-4.77835e-15 0.485999 -0.28337)
(-1.16096e-15 0.290434 -0.317381)
(-8.57548e-16 0.163109 -0.561138)
(1.46041e-15 0.238067 -0.689711)
(-1.41323e-14 0.292657 -0.54662)
(1.60286e-13 0.154153 -1.52616)
(1.023e-13 -0.282576 -1.5186)
(5.54336e-14 0.0463572 -0.879709)
(-2.87731e-14 -0.558368 1.64525)
(-4.9111e-14 -1.01789 3.39515)
(-3.10721e-14 -1.17923 3.12624)
(-4.02927e-14 -1.2416 3.35571)
(-6.94807e-14 -2.36776 6.36127)
(-6.44715e-14 -2.92552 6.11446)
(-6.84661e-14 -3.32663 6.19547)
(-7.08223e-14 -3.41538 6.46333)
(-9.44074e-14 -5.62204 10.2855)
(-6.3728e-14 -5.73221 8.4018)
(-6.80783e-14 -5.91115 8.79794)
(-9.11425e-14 -8.79126 12.9069)
(-6.88299e-14 -8.56524 9.81256)
(-7.86877e-14 -8.91251 10.4458)
(-1.2728e-13 -9.68094 12.4327)
(-1.12392e-13 -9.54699 12.349)
(-1.15271e-13 -9.7515 12.6911)
(-6.80827e-14 -11.2332 15.3394)
(-1.326e-13 -10.655 13.4881)
(-1.56199e-13 -10.922 14.1536)
(-1.60548e-13 -10.8814 14.285)
(-1.59188e-13 -10.9468 14.4431)
(-1.59717e-13 -10.977 14.6434)
(-1.56339e-13 -11.0518 14.8809)
(-1.45706e-13 -11.1179 15.1126)
(-1.30117e-13 -11.1694 15.3259)
(-7.39966e-14 -12.2105 17.315)
(-1.25903e-13 -11.9135 15.7958)
(-1.19739e-13 -12.0517 16.0808)
(-1.19996e-13 -12.0664 16.1791)
(-1.41751e-13 -12.147 16.2274)
(-1.4608e-13 -12.1837 16.1832)
(-1.45891e-13 -12.2875 16.2461)
(-1.42283e-13 -12.3484 16.2839)
(-1.31417e-13 -12.3811 16.3996)
(-2.0835e-14 -13.3731 18.2968)
(-8.42136e-14 -13.029 16.7397)
(-7.63689e-14 -13.1308 16.8385)
(-7.42345e-14 -13.181 16.8114)
(-7.08235e-14 -13.2388 16.8448)
(-6.42439e-14 -13.2777 16.9406)
(-6.01069e-14 -13.3665 17.0372)
(-6.988e-14 -13.3775 16.9375)
(-7.63206e-14 -13.4364 16.9105)
(-8.05427e-14 -13.4388 16.901)
(-1.85044e-14 -13.9684 17.8164)
(-7.77935e-14 -13.8314 16.8032)
(-8.22096e-14 -13.8506 16.8425)
(-8.8551e-14 -13.8853 16.8504)
(-9.33202e-14 -13.9266 16.9001)
(-9.46111e-14 -13.9307 16.9824)
(-7.90765e-14 -14.0021 17.2128)
(-7.4797e-14 -13.9862 17.2843)
(-7.44242e-14 -14.0091 17.3314)
(-4.81882e-14 -14.0461 17.5013)
(-7.48963e-14 -14.0828 17.0117)
(-6.97893e-14 -14.0245 17.3423)
(-6.55137e-14 -14.0721 17.616)
(-6.87341e-14 -14.0111 17.6364)
(-7.07434e-14 -14.0492 17.7125)
(-7.35456e-14 -14.0471 17.7413)
(-7.74334e-14 -13.979 17.7952)
(-8.59541e-14 -14.0879 18.0681)
(-6.15947e-14 -13.1685 16.6025)
(-7.18751e-14 -13.6966 16.8919)
(-7.34108e-14 -13.5724 16.8051)
(-7.3409e-14 -13.5563 16.7988)
(-6.94925e-14 -13.5332 16.9397)
(-6.72372e-14 -13.4857 16.859)
(-6.57502e-14 -13.4105 16.7241)
(-6.35645e-14 -13.3358 16.5974)
(-6.0945e-14 -13.3114 16.4217)
(-3.59796e-14 -12.0917 14.2324)
(-5.28382e-14 -12.6777 15.3301)
(-5.11413e-14 -12.4503 15.0661)
(-5.13485e-14 -12.4383 14.945)
(-5.18193e-14 -12.3207 14.7083)
(-5.30887e-14 -12.2443 14.4584)
(-5.13979e-14 -12.1529 14.3278)
(-5.69806e-14 -12.0045 13.7827)
(-6.05261e-14 -11.8171 13.2023)
(-6.38475e-14 -11.6835 12.4723)
(-4.85991e-14 -9.97049 7.74993)
(-6.58515e-14 -10.8742 9.45915)
(-6.29223e-14 -10.5515 8.44938)
(-6.11167e-14 -10.5343 7.99127)
(-5.86186e-14 -10.2554 7.3599)
(-5.56441e-14 -10.1712 6.76144)
(-5.77443e-14 -10.0187 5.66348)
(-6.3102e-14 -9.65404 4.65972)
(-5.89809e-14 -9.70096 4.97411)
(-2.32305e-14 -9.72385 2.80132)
(-3.99688e-14 -9.40479 3.27249)
(-3.47403e-14 -9.62502 3.09952)
(7.2525e-15 -7.2823 0.330636)
(-1.53798e-14 -11.5978 1.73572)
(-2.30494e-14 -10.4664 -0.723158)
(-2.02392e-14 -8.94069 -1.25655)
(-1.92775e-14 -11.5979 -2.09706)
(-1.15814e-14 -7.62897 -2.60215)
(-2.53064e-14 -9.65164 -4.30621)
(-1.25078e-14 -7.95614 -5.67319)
(2.77049e-15 -5.58324 -5.4428)
(1.09343e-15 -5.48204 -8.78019)
(2.48298e-15 -3.75022 -9.42571)
(3.95522e-15 -1.75439 -8.577)
(5.69619e-15 0.405054 -12.2044)
(8.363e-15 1.5148 -8.44317)
(2.56209e-15 3.88508 -10.7089)
(-6.24411e-15 6.57012 -12.1243)
(-1.13051e-16 6.22355 -7.79983)
(-5.76181e-15 10.6936 -9.96403)
(-2.82087e-15 9.25363 -6.83856)
(2.5055e-15 11.787 -7.82693)
(6.67403e-15 13.9829 -7.57862)
(4.37283e-15 11.68 -4.77446)
(7.64897e-15 15.0589 -5.2515)
(8.146e-15 16.9895 -4.67363)
(2.04964e-15 12.7033 -2.92941)
(3.13257e-15 18.8817 -3.23269)
(2.95168e-15 14.3766 -2.13401)
(1.42817e-16 16.6071 -2.21562)
(-3.85174e-16 18.2302 -1.36092)
(-6.21221e-16 13.4202 -0.820146)
(-1.85981e-16 19.4505 -0.448651)
(-2.65063e-16 14.3524 -0.210552)
(1.90641e-15 16.4201 0.062158)
(-2.36354e-15 16.9027 1.05926)
(-3.61851e-15 12.8019 0.816919)
(-2.42156e-15 15.8819 1.32318)
(-7.25143e-15 15.8532 2.43596)
(-5.85021e-15 11.1289 1.5895)
(-8.05478e-15 15.6117 2.62767)
(-5.82556e-15 11.1573 1.89908)
(-8.72318e-15 12.3639 2.56273)
(-1.86264e-16 12.09 3.57251)
(4.3174e-15 8.56015 2.29954)
(-7.33245e-15 11.709 3.43977)
(-3.33222e-15 8.12702 2.44211)
(-1.97493e-15 8.87679 3.1455)
(-1.22778e-14 8.32036 3.82755)
(-1.05061e-14 6.11891 2.5467)
(-1.27962e-14 7.0435 3.2923)
(-1.58369e-14 7.97398 2.539)
(-1.02589e-14 5.5947 2.53912)
(-1.26399e-14 8.90318 -1.86883)
(-4.65349e-15 7.52155 -1.80292)
(-1.99892e-14 9.14596 -4.3054)
(-4.10498e-14 10.7755 -7.32516)
(-2.92639e-14 8.62634 -5.15968)
(-4.39422e-14 12.0918 -8.36057)
(-3.46708e-14 9.43888 -6.38639)
(-4.19139e-14 10.9129 -8.954)
(-5.17447e-14 9.42702 -13.4196)
(-3.49773e-14 6.79841 -9.72705)
(-6.57364e-14 8.46962 -14.741)
(-6.35447e-14 6.07686 -22.0361)
(-3.84963e-14 -0.56099 -15.3908)
(-7.30079e-14 10.4477 -25.6428)
(-6.13486e-14 -5.22906 -9.43986)
(-5.87256e-14 4.1511 -11.2219)
(3.86994e-14 -14.4909 9.35045)
(6.56704e-14 -16.8227 15.3672)
(1.01481e-13 -28.7878 24.6129)
(1.08695e-13 -27.1677 26.999)
(1.81255e-13 -43.0633 45.3746)
(2.14621e-13 -65.4767 54.7928)
(1.89845e-13 -56.9112 50.254)
(3.01326e-13 -83.9712 80.1782)
(3.0701e-13 -103.037 83.8503)
(2.61555e-13 -98.704 73.4661)
(3.78331e-13 -150.044 106.385)
(3.00043e-13 -122.703 86.4031)
(4.7599e-13 -173.695 137.981)
(7.37591e-38 0.601462 -2.311)
(-1.89909e-39 0.638299 -2.3296)
(6.90693e-37 0.70912 -2.35354)
(-4.10486e-36 0.809572 -2.38004)
(2.66729e-35 0.934298 -2.40803)
(-1.57609e-34 1.07947 -2.43693)
(8.9755e-34 1.24174 -2.46654)
(-4.9383e-33 1.41874 -2.49723)
(2.64393e-32 1.60783 -2.52968)
(-1.38072e-31 1.80633 -2.56409)
(7.0394e-31 2.01134 -2.59924)
(-3.51522e-30 2.21508 -2.63356)
(1.73095e-29 2.41545 -2.66608)
(-8.34432e-29 2.62194 -2.69529)
(3.87709e-28 2.84936 -2.71986)
(-1.70933e-27 3.11365 -2.73844)
(7.04202e-27 3.42596 -2.74952)
(-2.67248e-26 3.78109 -2.75126)
(9.15158e-26 4.16718 -2.741)
(-2.67606e-25 4.59215 -2.71741)
(5.53032e-25 5.03996 -2.68381)
(3.2194e-26 5.47932 -2.65392)
(-8.02012e-24 5.98146 -2.62667)
(5.26186e-23 6.6317 -2.56646)
(-2.25873e-22 7.31922 -2.38756)
(7.2112e-22 8.04433 -2.14177)
(-1.44615e-21 8.75519 -2.00669)
(-1.80713e-20 8.94013 -1.72316)
(-3.22391e-20 8.43651 -1.03865)
(-5.54912e-20 7.8353 -0.107793)
(-1.07314e-19 7.62365 0.688932)
(-1.53331e-19 7.76873 1.10557)
(-1.10015e-19 8.06654 1.40785)
(1.84419e-21 8.3939 1.79475)
(-2.60243e-19 8.764 2.20896)
(-1.18216e-18 9.18246 2.57669)
(-5.22781e-20 9.60822 2.96856)
(8.72091e-18 10.0293 3.40727)
(1.28079e-17 10.4999 3.90792)
(-4.85285e-17 11.0574 4.49091)
(-2.0676e-16 11.6897 5.17064)
(-2.039e-16 12.3541 5.95366)
(5.19028e-16 13.0224 6.84704)
(2.02914e-15 13.7083 7.86275)
(3.0785e-15 14.4618 8.99769)
(1.80397e-15 15.3649 10.2168)
(-2.44829e-15 16.5025 11.4723)
(-8.46853e-15 17.9045 12.7296)
(-1.42606e-14 19.5158 13.9765)
(-1.80984e-14 21.2086 15.2365)
(-1.87646e-14 22.8241 16.5818)
(-1.61327e-14 24.2587 18.1104)
(-1.19477e-14 25.5708 19.8547)
(-8.54585e-15 26.9682 21.6925)
(-5.95966e-15 28.6198 23.3927)
(-1.68817e-15 30.4916 24.7658)
(6.46893e-15 32.3704 25.7345)
(1.86871e-14 33.9574 26.2962)
(3.3712e-14 34.8279 26.4917)
(4.89e-14 34.1451 26.3924)
(5.92394e-14 30.311 26.0109)
(5.87234e-14 21.9624 25.1116)
(4.90294e-14 11.944 23.5515)
(4.40474e-14 6.83915 22.6401)
(4.78965e-14 5.92663 23.4573)
(5.30883e-14 4.49837 25.0816)
(5.75007e-14 2.35359 26.8287)
(6.08379e-14 0.313701 28.1586)
(6.35115e-14 -1.66976 29.1622)
(6.82769e-14 -3.88599 30.8857)
(7.61978e-14 -6.66749 33.6702)
(8.81097e-14 -10.4088 37.742)
(1.05833e-13 -15.719 43.6112)
(1.31824e-13 -23.5484 51.9236)
(1.69763e-13 -35.432 63.6244)
(2.24698e-13 -53.5712 80.0023)
(3.02635e-13 -80.9292 102.707)
(4.05958e-13 -119.058 132.559)
(5.09884e-13 -160.374 160.386)
(7.68058e-38 0.604096 -2.36669)
(8.75423e-39 0.643699 -2.38236)
(7.43797e-37 0.715624 -2.40218)
(-4.51883e-36 0.81642 -2.42391)
(2.98787e-35 0.941276 -2.44693)
(-1.77377e-34 1.08654 -2.47087)
(1.01004e-33 1.249 -2.49607)
(-5.54202e-33 1.42641 -2.52332)
(2.95624e-32 1.61607 -2.55333)
(-1.53901e-31 1.81496 -2.58588)
(7.82685e-31 2.0198 -2.61931)
(-3.89698e-30 2.22254 -2.65183)
(1.91449e-29 2.42133 -2.68195)
(-9.23058e-29 2.62588 -2.70736)
(4.30141e-28 2.85114 -2.72648)
(-1.90688e-27 3.11314 -2.73798)
(7.92221e-27 3.42294 -2.74099)
(-3.04439e-26 3.77483 -2.73425)
(1.06233e-25 4.15682 -2.71563)
(-3.20072e-25 4.57807 -2.68463)
(7.03695e-25 5.02414 -2.64417)
(-1.77156e-25 5.46269 -2.60483)
(-9.28327e-24 5.95883 -2.56378)
(6.76516e-23 6.58562 -2.48799)
(-3.29947e-22 7.24519 -2.28581)
(1.2984e-21 7.97719 -2.01842)
(-3.8629e-21 8.67917 -1.81804)
(-3.1908e-20 8.77395 -1.33041)
(-5.35289e-20 8.16984 -0.377339)
(-9.02658e-20 7.55947 0.654686)
(-1.56943e-19 7.43394 1.2923)
(-1.86157e-19 7.65361 1.52467)
(-8.90851e-20 7.95179 1.77265)
(2.28139e-20 8.26053 2.14763)
(-3.79618e-19 8.63307 2.5279)
(-1.34248e-18 9.05353 2.88078)
(6.18707e-19 9.46695 3.27691)
(1.07978e-17 9.86972 3.72458)
(1.17101e-17 10.3165 4.23784)
(-6.36176e-17 10.8452 4.83634)
(-2.30064e-16 11.4458 5.53527)
(-1.76678e-16 12.0766 6.34384)
(6.71343e-16 12.7084 7.26987)
(2.25453e-15 13.3559 8.32323)
(3.14516e-15 14.0765 9.49571)
(1.4972e-15 14.9589 10.7487)
(-3.10209e-15 16.0882 12.0365)
(-9.24812e-15 17.4899 13.3324)
(-1.49287e-14 19.1003 14.6298)
(-1.84311e-14 20.7789 15.9524)
(-1.85244e-14 22.355 17.366)
(-1.52e-14 23.7302 18.9513)
(-1.04515e-14 24.9955 20.7153)
(-6.73155e-15 26.3986 22.5294)
(-3.99281e-15 28.1192 24.1973)
(3.5005e-16 30.1014 25.5774)
(8.61445e-15 32.1046 26.6075)
(2.12002e-14 33.8128 27.2643)
(3.69247e-14 34.79 27.5594)
(5.28193e-14 34.2043 27.5456)
(6.33636e-14 30.5055 27.2357)
(6.24575e-14 22.3631 26.4117)
(5.22385e-14 12.3907 24.8959)
(4.64761e-14 6.90591 23.8106)
(4.92027e-14 5.60272 24.1463)
(5.3057e-14 4.04867 25.116)
(5.64007e-14 1.92232 26.3714)
(6.03303e-14 -0.0513377 27.8995)
(6.46196e-14 -2.10673 29.4995)
(7.04267e-14 -4.55605 31.5932)
(7.91894e-14 -7.64411 34.6515)
(9.20373e-14 -11.7868 38.9999)
(1.10828e-13 -17.6473 45.1571)
(1.38084e-13 -26.2315 53.779)
(1.77643e-13 -39.1603 65.8637)
(2.34914e-13 -58.7427 82.8677)
(3.16818e-13 -87.8612 106.925)
(4.24067e-13 -126.619 138.187)
(5.08987e-13 -161.228 156.669)
(8.16688e-38 0.60544 -2.39124)
(1.21495e-38 0.646553 -2.40542)
(8.10444e-37 0.719008 -2.42326)
(-4.93789e-36 0.820177 -2.44259)
(3.26293e-35 0.94539 -2.46316)
(-1.92876e-34 1.09101 -2.4848)
(1.09253e-33 1.25393 -2.50814)
(-5.96081e-33 1.43192 -2.53411)
(3.16224e-32 1.62212 -2.56318)
(-1.63932e-31 1.82134 -2.59491)
(8.31742e-31 2.02628 -2.62746)
(-4.13684e-30 2.22915 -2.65887)
(2.02992e-29 2.42783 -2.68733)
(-9.7781e-29 2.63184 -2.71022)
(4.55619e-28 2.85619 -2.72598)
(-2.02212e-27 3.11691 -2.73353)
(8.42817e-27 3.42516 -2.73236)
(-3.26014e-26 3.77531 -2.72131)
(1.15051e-25 4.15568 -2.69847)
(-3.53164e-25 4.57551 -2.66361)
(8.0634e-25 5.02128 -2.61841)
(-3.40804e-25 5.46041 -2.57105)
(-1.01901e-23 5.95419 -2.51815)
(7.98959e-23 6.56814 -2.42826)
(-4.25378e-22 7.21204 -2.20746)
(1.92025e-21 7.93932 -1.92007)
(-7.42136e-21 8.60916 -1.65128)
(-4.74171e-20 8.63089 -1.00808)
(-7.58927e-20 7.99697 0.0754256)
(-1.24583e-19 7.44846 1.03864)
(-1.92783e-19 7.40384 1.50197)
(-1.90095e-19 7.64215 1.67928)
(-5.65366e-20 7.91626 1.95909)
(2.10491e-20 8.21482 2.34148)
(-4.92595e-19 8.58988 2.70982)
(-1.39305e-18 9.00656 3.06472)
(1.33668e-18 9.41162 3.46801)
(1.22556e-17 9.80592 3.92555)
(9.37348e-18 10.2419 4.45047)
(-7.7041e-17 10.7571 5.06112)
(-2.43507e-16 11.3415 5.77339)
(-1.4106e-16 11.9542 6.59881)
(7.9548e-16 12.5667 7.54586)
(2.39755e-15 13.1959 8.62291)
(3.13262e-15 13.903 9.81871)
(1.21204e-15 14.779 11.0937)
(-3.60043e-15 15.9067 12.4044)
(-9.79404e-15 17.3073 13.7274)
(-1.53584e-14 18.9136 15.0594)
(-1.85799e-14 20.5807 16.4236)
(-1.82474e-14 22.1355 17.8795)
(-1.44982e-14 23.4871 19.492)
(-9.51312e-15 24.7424 21.2529)
(-5.7664e-15 26.1588 23.0388)
(-3.09255e-15 27.9113 24.6842)
(1.20738e-15 29.9347 26.074)
(9.58347e-15 31.9848 27.1481)
(2.25617e-14 33.7436 27.8693)
(3.88893e-14 34.769 28.2351)
(5.52802e-14 34.2262 28.289)
(6.58907e-14 30.5801 28.0364)
(6.46279e-14 22.5087 27.2494)
(5.40923e-14 12.5441 25.7537)
(4.85361e-14 6.96217 24.7233)
(5.16981e-14 5.56532 25.1168)
(5.5571e-14 3.93722 26.067)
(5.8541e-14 1.71661 27.1808)
(6.21579e-14 -0.347581 28.5677)
(6.67566e-14 -2.47666 30.2528)
(7.34259e-14 -5.07044 32.6253)
(8.30728e-14 -8.40069 35.9475)
(9.69924e-14 -12.8836 40.5909)
(1.17017e-13 -19.2154 47.0592)
(1.4577e-13 -28.4539 56.0277)
(1.87459e-13 -42.3282 68.6474)
(2.48441e-13 -63.2974 86.8066)
(3.3606e-13 -93.9607 112.946)
(4.42499e-13 -131.892 143.999)
(4.92342e-13 -154.106 148.925)
(8.62412e-38 0.607222 -2.42159)
(2.02549e-38 0.649719 -2.43417)
(8.64287e-37 0.722779 -2.44999)
(-5.30722e-36 0.82418 -2.46679)
(3.52743e-35 0.94956 -2.48474)
(-2.08421e-34 1.09544 -2.50394)
(1.17763e-33 1.25881 -2.52526)
(-6.4016e-33 1.43741 -2.54963)
(3.3822e-32 1.6282 -2.57734)
(-1.74725e-31 1.82779 -2.60797)
(8.84566e-31 2.03265 -2.63953)
(-4.39416e-30 2.23491 -2.66975)
(2.15375e-29 2.43239 -2.69641)
(-1.03696e-28 2.63479 -2.71654)
(4.83573e-28 2.85732 -2.72869)
(-2.15151e-27 3.11616 -2.73198)
(9.01049e-27 3.42245 -2.72622)
(-3.51392e-26 3.77026 -2.71045)
(1.25649e-25 4.14796 -2.68299)
(-3.94135e-25 4.56528 -2.64372)
(9.40415e-25 5.00933 -2.59305)
(-6.06206e-25 5.44689 -2.53685)
(-1.09277e-23 5.93533 -2.47084)
(9.32684e-23 6.5307 -2.36397)
(-5.38307e-22 7.15305 -2.11964)
(2.71583e-21 7.87405 -1.80574)
(-1.30021e-20 8.50394 -1.45388)
(-6.82697e-20 8.43966 -0.646882)
(-1.04669e-19 7.78004 0.525667)
(-1.65027e-19 7.30211 1.38111)
(-2.26288e-19 7.33191 1.71229)
(-1.847e-19 7.58242 1.87636)
(-2.26578e-20 7.83698 2.18351)
(9.56167e-21 8.12875 2.56089)
(-6.1618e-19 8.50666 2.91555)
(-1.41826e-18 8.9195 3.27027)
(2.1491e-18 9.31333 3.67915)
(1.36947e-17 9.69384 4.14573)
(6.50312e-18 10.1126 4.68175)
(-9.11538e-17 10.6069 5.30471)
(-2.55888e-16 11.1677 6.03132)
(-1.01339e-16 11.7546 6.8751)
(9.23989e-16 12.3394 7.84472)
(2.53993e-15 12.941 8.94674)
(3.11293e-15 13.6257 10.1672)
(9.15928e-16 14.488 11.4662)
(-4.11349e-15 15.6093 12.8032)
(-1.03598e-14 17.0071 14.1592)
(-1.58053e-14 18.609 15.5337)
(-1.87294e-14 20.2634 16.9482)
(-1.79461e-14 21.7926 18.4532)
(-1.37488e-14 23.1124 20.0967)
(-8.50959e-15 24.3488 21.8562)
(-4.72562e-15 25.7761 23.6168)
(-2.1082e-15 27.57 25.2448)
(2.1714e-15 29.6549 26.6529)
(1.07082e-14 31.7783 27.7842)
(2.41506e-14 33.615 28.5886)
(4.11577e-14 34.714 29.0485)
(5.81056e-14 34.2405 29.1956)
(6.88341e-14 30.6891 29.022)
(6.72729e-14 22.7595 28.2697)
(5.64016e-14 12.8406 26.7363)
(5.07713e-14 7.03466 25.6512)
(5.40117e-14 5.38733 26.0269)
(5.78579e-14 3.68024 26.9687)
(6.07821e-14 1.44211 28.074)
(6.44777e-14 -0.662128 29.4763)
(6.94946e-14 -2.90011 31.2787)
(7.68597e-14 -5.65114 33.8613)
(8.73517e-14 -9.18772 37.4257)
(1.02284e-13 -13.9597 42.344)
(1.23519e-13 -20.693 49.1154)
(1.53887e-13 -30.5172 58.4922)
(1.98292e-13 -45.3066 71.9274)
(2.63994e-13 -67.6274 91.7551)
(3.5608e-13 -99.2466 119.625)
(4.54482e-13 -134.513 147.852)
(4.75438e-13 -146.601 142.975)
(9.01388e-38 0.608609 -2.44856)
(3.10397e-38 0.652177 -2.4596)
(9.06195e-37 0.725673 -2.47369)
(-5.61695e-36 0.827295 -2.48827)
(3.76307e-35 0.95295 -2.5041)
(-2.22571e-34 1.09922 -2.52146)
(1.25586e-33 1.26316 -2.54123)
(-6.80876e-33 1.44244 -2.56421)
(3.58549e-32 1.63389 -2.59066)
(-1.84676e-31 1.83388 -2.62029)
(9.33205e-31 2.0387 -2.65096)
(-4.63165e-30 2.24049 -2.68005)
(2.26825e-29 2.43697 -2.70487)
(-1.09165e-28 2.63794 -2.7223)
(5.09487e-28 2.85881 -2.73108)
(-2.27254e-27 3.11587 -2.73058)
(9.5647e-27 3.42029 -2.7208)
(-3.76151e-26 3.76596 -2.70091)
(1.36338e-25 4.14143 -2.66952)
(-4.37438e-25 4.55652 -2.62631)
(1.09309e-24 4.99874 -2.57008)
(-9.74676e-25 5.43446 -2.50449)
(-1.12519e-23 5.91763 -2.42424)
(1.05855e-22 6.49537 -2.29783)
(-6.58558e-22 7.09703 -2.02759)
(3.65242e-21 7.80334 -1.68242)
(-2.12775e-20 8.37702 -1.23679)
(-9.45557e-20 8.23221 -0.283927)
(-1.39467e-19 7.58477 0.903467)
(-2.0849e-19 7.20169 1.62126)
(-2.51457e-19 7.29455 1.86182)
(-1.66269e-19 7.53935 2.04908)
(1.21754e-20 7.77243 2.38806)
(-1.42577e-20 8.06132 2.76018)
(-7.45489e-19 8.44101 3.10698)
(-1.39591e-18 8.84726 3.46496)
(3.04771e-18 9.22964 3.88023)
(1.49733e-17 9.59776 4.35615)
(2.93326e-18 10.0015 4.90312)
(-1.05431e-16 10.4774 5.53801)
(-2.65267e-16 11.0166 6.27836)
(-5.64817e-17 11.5795 7.1396)
(1.04996e-15 12.1391 8.13038)
(2.6634e-15 12.7166 9.25538)
(3.06802e-15 13.3828 10.4985)
(6.11357e-16 14.2343 11.8205)
(-4.60878e-15 15.3499 13.1846)
(-1.08913e-14 16.7431 14.5754)
(-1.62107e-14 18.3379 15.9951)
(-1.88343e-14 19.9789 17.4624)
(-1.76146e-14 21.4868 19.0168)
(-1.30162e-14 22.7852 20.6882)
(-7.59221e-15 24.0145 22.4416)
(-3.8379e-15 25.4564 24.1752)
(-1.32692e-15 27.2817 25.7888)
(2.91506e-15 29.4091 27.2204)
(1.1643e-14 31.5855 28.415)
(2.561e-14 33.4837 29.3104)
(4.33422e-14 34.645 29.8756)
(6.08568e-14 34.2338 30.1301)
(7.17213e-14 30.7712 30.0476)
(6.99457e-14 22.9731 29.33)
(5.87909e-14 13.0951 27.7385)
(5.30372e-14 7.10794 26.5818)
(5.63999e-14 5.28042 26.9702)
(6.03785e-14 3.50216 27.9493)
(6.33881e-14 1.20205 29.0758)
(6.71948e-14 -0.990555 30.5182)
(7.25895e-14 -3.35833 32.4523)
(8.05619e-14 -6.29518 35.2164)
(9.18267e-14 -10.0717 38.9993)
(1.0771e-13 -15.1647 44.1678)
(1.30154e-13 -22.3467 51.2531)
(1.62411e-13 -32.8583 61.1793)
(2.10258e-13 -48.7463 75.7904)
(2.81118e-13 -72.5116 97.551)
(3.75451e-13 -104.56 126.218)
(4.61098e-13 -136.059 149.379)
(4.45775e-13 -138.917 132.436)
(9.25142e-38 0.610074 -2.47449)
(4.45301e-38 0.65451 -2.48409)
(9.32233e-37 0.728406 -2.49672)
(-5.84926e-36 0.830235 -2.50941)
(3.9604e-35 0.95616 -2.52349)
(-2.34944e-34 1.10284 -2.53938)
(1.32583e-33 1.26734 -2.55777)
(-7.1789e-33 1.44729 -2.57937)
(3.77217e-32 1.63943 -2.60453)
(-1.93862e-31 1.83987 -2.63318)
(9.78252e-31 2.04461 -2.663)
(-4.85292e-30 2.24575 -2.69096)
(2.37569e-29 2.44093 -2.71392)
(-1.14333e-28 2.64018 -2.72864)
(5.34197e-28 2.85919 -2.73421)
(-2.38974e-27 3.11435 -2.73025)
(1.01132e-26 3.41683 -2.71683)
(-4.01294e-26 3.7603 -2.69322)
(1.47531e-25 4.13337 -2.65835)
(-4.84745e-25 4.54589 -2.61137)
(1.27169e-24 4.98554 -2.54933)
(-1.48429e-24 5.41829 -2.47379)
(-1.09389e-23 5.89459 -2.37814)
(1.16278e-22 6.45259 -2.22971)
(-7.77336e-22 7.03147 -1.93082)
(4.67702e-21 7.717 -1.54895)
(-3.29647e-20 8.22616 -1.00467)
(-1.26461e-19 8.01199 0.0609351)
(-1.79931e-19 7.40165 1.19823)
(-2.52104e-19 7.11408 1.78765)
(-2.65377e-19 7.2504 1.98886)
(-1.3723e-19 7.48072 2.22283)
(4.37733e-20 7.69799 2.58798)
(-5.01421e-20 7.98796 2.95224)
(-8.77012e-19 8.36863 3.29435)
(-1.32661e-18 8.76761 3.65631)
(4.01683e-18 9.13787 4.07772)
(1.60803e-17 9.4924 4.56271)
(-1.25496e-18 9.8798 5.12016)
(-1.19716e-16 10.336 5.76661)
(-2.71912e-16 10.8519 6.5204)
(-7.61229e-18 11.3893 7.39862)
(1.17296e-15 11.9218 8.40964)
(2.77123e-15 12.4736 9.55635)
(3.00405e-15 13.1196 10.8212)
(3.00675e-16 13.9582 12.1664)
(-5.09331e-15 15.066 13.559)
(-1.14028e-14 16.4527 14.9877)
(-1.659e-14 18.0392 16.4564)
(-1.89095e-14 19.6667 17.9804)
(-1.72658e-14 21.1553 19.5866)
(-1.23048e-14 22.436 21.2858)
(-6.74554e-15 23.661 23.0324)
(-3.05868e-15 25.1167 24.7406)
(-6.67605e-16 26.9701 26.3436)
(3.55523e-15 29.1368 27.8031)
(1.25232e-14 31.3651 29.0664)
(2.70707e-14 33.3255 30.0615)
(4.55589e-14 34.5511 30.7445)
(6.36467e-14 34.207 31.1217)
(7.46662e-14 30.8455 31.1449)
(7.27594e-14 23.2035 30.4678)
(6.13633e-14 13.3867 28.7993)
(5.53639e-14 7.19063 27.5243)
(5.87675e-14 5.13001 27.91)
(6.29199e-14 3.2702 28.9548)
(6.60728e-14 0.931409 30.1404)
(7.00684e-14 -1.33745 31.6454)
(7.58848e-14 -3.84258 33.7128)
(8.44163e-14 -6.9682 36.641)
(9.63994e-14 -10.9924 40.6189)
(1.13198e-13 -16.427 46.0283)