/*--------------------------------*- C++ -*----------------------------------*\
| =========                 |                                                 |
| \\      /  F ield         | OpenFOAM: The Open Source CFD Toolbox           |
|  \\    /   O peration     | Version:  4.1                                   |
|   \\  /    A nd           | Web:      www.OpenFOAM.org                      |
|    \\/     M anipulation  |                                                 |
\*---------------------------------------------------------------------------*/
FoamFile
{
    version     2.0;
    format      ascii;
    class       surfaceScalarField;
    location    "5";
    object      phi;
}
// * * * * * * * * * * * * * * * * * * * * * * * * * * * * * * * * * * * * * //

dimensions      [0 3 -1 0 0 0 0];

internalField   nonuniform List<scalar> 
13220
(
-798.834
2098.73
-1253.46
1754.83
-1718.51
1764.95
-2062.4
1643.79
-2345.31
1583.11
-2550.76
1505.35
-2686.79
1435.92
-2752.85
1366.26
-2753.19
1300.24
-2685.73
1232.44
-2537.91
1152.38
-2270.9
1032.89
-1796.64
825.639
-1023.14
526.709
276.757
-216.7
2315.43
-482.783
2020.91
-774.06
2056.23
-1005.7
1875.42
-1228.24
1805.65
-1405.25
1682.37
-1554.72
1585.39
-1668.35
1479.89
-1752.24
1384.13
-1801.18
1281.38
-1789.19
1140.39
-1652.04
895.732
-1281.91
455.512
-609.503
-145.699
-332.746
-119.891
2435.32
-310.602
2211.62
-437.106
2182.73
-506.883
1945.2
-562.4
1861.17
-575.806
1695.77
-565.83
1575.42
-526.408
1440.47
-460.846
1318.57
-372.394
1192.93
-271.011
1039
-174.699
799.422
-96.4977
377.312
-64.4833
-177.713
-397.23
109.074
2326.25
98.9796
2221.71
149.321
2132.39
220.753
1873.76
298.235
1783.69
392.187
1601.82
496.063
1471.54
607.837
1328.7
723.513
1202.89
837.078
1079.36
929.777
946.302
943.744
785.451
762.415
558.635
256.535
328.157
-140.695
114.175
2212.07
158.871
2177.02
230.432
2060.82
308.348
1795.84
384.699
1707.33
474.421
1512.09
559.998
1385.96
652.241
1236.45
740.915
1114.21
819.004
1001.27
863.728
901.576
836.553
812.623
677.04
718.142
396.692
608.494
255.997
25.1258
2186.94
68.9562
2133.18
106.264
2023.51
123.805
1778.3
138.985
1692.15
151.566
1499.51
187.727
1349.79
294.629
1129.55
473.096
935.744
679.731
794.632
830.028
751.277
847.116
795.533
688.491
876.766
402.999
893.984
658.996
-105.303
2292.24
-182.152
2210.03
-259.596
2100.95
-384.02
1902.72
-512.578
1820.71
-666.504
1653.43
-785.259
1468.55
-819.722
1164.01
-749.436
865.457
-587.084
632.278
-351.333
515.525
-91.6649
535.856
93.3507
691.742
124.935
862.39
783.931
-44.9052
2337.15
-272.589
2437.71
-439.066
2267.43
-617.537
2081.19
-800.556
2003.73
-1004.14
1857.01
-1226.31
1690.72
-1462.6
1400.3
-1684.45
1087.3
-1834.39
782.226
-1824.87
506
-1568.4
279.395
-1055.55
178.897
-440.753
247.604
343.179
248.038
2089.11
84.2409
2601.51
-39.5764
2391.25
-108.027
2149.64
-141.008
2036.71
-171.457
1887.46
-225.006
1744.27
-348.018
1523.32
-532.236
1271.52
-749.213
999.201
-958.61
715.398
-1085.98
406.757
-1002.2
95.1104
-636.605
-118.002
-293.426
419.816
1669.3
461.159
2560.17
447.063
2405.35
495.842
2100.87
603.944
1928.61
722.537
1768.87
836.884
1629.92
894.489
1465.71
878.736
1287.27
784.487
1093.45
614.329
885.556
363.013
658.084
71.1591
386.983
-93.065
46.2445
-386.491
302.473
1366.82
400.574
2462.07
445.716
2360.2
516.633
2029.95
617.481
1827.76
722.114
1664.24
822.683
1529.35
900.958
1387.44
943.98
1244.25
940.048
1097.38
882.609
942.997
762.737
777.952
568.545
581.171
285.662
329.123
-100.829
147.783
1219.04
216.034
2393.82
259.887
2316.35
306.92
1982.92
355.174
1779.51
401.09
1618.32
443.17
1487.28
477.494
1353.12
498.12
1223.63
499.229
1096.28
473.009
969.219
416.796
834.172
323.71
674.267
201.364
451.493
100.535
128.429
1090.62
200.862
2321.39
223.712
2293.5
267.656
1938.98
309.123
1738.04
330.918
1596.53
337.871
1480.33
340.383
1350.61
334.309
1229.7
321.14
1109.45
295.757
994.603
255.94
873.989
198.951
731.257
129.6
520.846
230.135
239.735
850.884
379.877
2181.24
301.405
2371.98
149.458
2090.93
57.1411
1830.36
15.9623
1637.71
4.7077
1491.58
3.101
1352.21
5.67866
1227.13
9.20969
1105.92
12.6995
991.114
13.379
873.313
2.9425
741.697
-21.2786
545.073
208.856
367.335
1240.79
1844.81
2034.55
1940.5
1853.93
1799.55
1744.54
1663.69
1543.05
1369.97
1147.67
870.177
491.139
-1.45893e-05
-27.8452
27.8452
-27.8452
-27.8452
-27.8452
183.597
-211.442
183.597
183.597
183.597
376.202
-192.606
376.202
376.202
537.509
-161.307
537.509
537.509
537.509
643.996
-106.487
643.996
643.996
704.516
-60.5198
704.516
704.516
704.516
731.147
-26.6315
731.147
731.147
731.147
734.507
-3.35947
734.507
734.507
719.905
14.6017
719.905
719.905
719.905
690.93
28.9752
690.93
690.93
649.976
40.9538
649.976
649.976
649.976
608.577
41.3989
608.577
608.577
608.577
570.476
38.101
570.476
570.476
534.591
35.8848
534.591
534.591
534.591
503.599
30.9922
503.599
503.599
503.599
542.451
-38.8517
542.451
542.451
549.445
-6.99449
549.445
549.445
549.445
363.451
185.994
363.451
363.451
65.5473
297.904
65.5471
65.5471
65.5469
-780.017
845.564
-780.017
-780.017
-780.017
-2390.59
1610.58
-2390.59
-2390.59
-4473.17
2082.57
-4473.17
-4473.17
-4342.31
-4214.12
-4081.59
-6259.14
2305.15
-6122.58
-5960.52
-5786.07
-5612.17
-5438.63
-5266.36
-5088.86
-4898.67
-7143.55
2431.82
-6949.13
-6755.06
-6561.61
-6355.62
-6149.74
-5944.43
-5739.39
-5533.2
-7815.23
2493.9
-7596.18
-7377.41
-7158.78
-6940.28
-6717.91
-6488.08
-6258.91
-6028.79
-5797.19
-8062.27
2495.02
-7818.82
-7574.19
-7329.02
-7083.52
-6837.3
-6580.99
-6318.29
-6053.52
-8284.27
2494.73
-8020.09
-7747.7
-7463.6
-7177.04
-6886.85
-6593.57
-6295.26
-5973.86
-8175.59
2519.52
-7855.72
-7530.27
-7200.69
-6848.94
-6486.25
-6122.15
-5755.97
-5391.31
-7171.14
2138.25
-6801.46
-6439.3
-6084.5
-5738.33
-5401.08
-5053.92
-4714.8
-4381.38
-4056.44
-4341.73
610.088
-4061.31
-3802.43
-3550.92
-3308.92
-3076.28
-2895.62
-2806.17
-2714.83
-2647.33
29.5171
-2564.05
-2483.66
-2483.66
-2526.54
42.8826
-2538.3
11.7564
-2538.3
-2558.33
20.0382
-2558.33
-2585.94
27.609
-2599.16
13.2209
-2599.16
-2618.82
19.6565
-2621.53
2.70935
-2621.53
-2620.6
-0.925331
-2620.6
-2619.73
-0.869557
-2599.17
-20.5652
-2599.17
-2575.55
-23.6213
-2575.55
-2552.58
-22.9716
-2509.2
-43.3772
-2509.2
-2470.33
-38.8674
-2416.18
-54.1547
-2416.18
-2362.91
-53.2677
-2362.91
-2314.47
-48.4405
-2252.36
-62.1105
-2252.36
-2189.14
-63.2233
-2189.14
-2128.31
-60.8264
-2055.41
-72.8987
-2055.41
-1988.2
-67.2101
-1912.72
-75.4779
-1912.72
-1838.76
-73.9578
-1838.76
-1769.8
-68.965
-1695.09
-74.7141
-1695.09
-1622.56
-72.5227
-1622.56
-1557.95
-64.608
-1491.83
-66.125
-1491.83
-1435.26
-56.5679
-1385.29
-49.9746
-1385.29
-1352.8
-32.4884
-1352.8
-1338.63
-14.1683
-1320.9
-17.7255
-1320.9
-1303.8
-17.1056
-1303.8
-1283.52
-20.2794
-1243.34
-40.1748
-1243.34
-1198.25
-45.0939
-1138.32
-59.9307
-1138.32
-1073
-65.3163
-1073
-1007.94
-65.0611
-934.193
-73.7499
-934.193
-854.937
-79.2564
-854.937
-772.919
-82.0177
-679.155
-93.7637
-679.155
-564.873
-114.283
-446.878
-117.994
-446.878
-321.905
-124.974
-321.905
-140.066
-5.1187
-26.1474
-5.04868
-36.3491
-5.04879
-43.533
-5.05815
-50.2632
-5.09648
-56.9798
-5.15112
-63.3971
-5.22763
-69.8051
-5.32242
-76.1232
-5.43727
-82.4621
-5.57104
-88.8153
-5.72433
-95.2355
-5.8968
-101.736
-6.0887
-108.351
-6.29998
-115.098
-6.53084
-122.002
-6.78143
-129.084
-7.05202
-136.365
-7.3429
-143.864
-7.65445
-151.603
-7.98711
-159.6
-8.34139
-167.874
-8.71787
-176.446
-9.11721
-185.335
-9.54014
-194.56
-9.98745
-204.141
-10.46
-214.098
-10.9588
-224.451
-11.4848
-235.221
-12.0391
-246.428
-12.6229
-258.094
-13.2374
-270.24
-13.884
-282.889
-14.5639
-296.064
-15.2788
-309.787
-16.03
-324.081
-16.8191
-338.973
-17.6478
-354.484
-18.5175
-370.641
-19.43
-387.468
-20.3868
-404.988
-21.3892
-423.227
-22.4385
-442.205
-23.5356
-461.943
-24.6809
-482.456
-25.8743
-503.757
-27.1145
-525.846
-28.3991
-548.718
-29.724
-572.349
-31.0825
-596.698
-32.4654
-621.699
-33.8594
-647.253
-35.2468
-673.224
-36.6041
-699.432
-37.9012
-725.648
-39.1004
-751.59
-40.1551
-776.927
-41.0084
-801.281
-41.5912
-824.232
-41.82
-845.331
-41.5911
-864.066
-40.7765
-879.867
-39.2111
-891.957
-36.6898
-899.337
-32.9456
-900.35
-27.6767
-892.808
-20.5141
-872.712
-11.1989
-835.652
0.463569
-772.025
13.9185
-674.287
28.1099
-521.417
40.8911
-278.745
48.2952
201.596
45.4265
502.343
45.4456
858.335
37.9991
1112.1
47.6199
1530.25
35.6934
1541.04
88.431
2269.4
2499.24
-5.89096
-26.2706
-5.78982
-36.4502
-5.77966
-43.5432
-5.78378
-50.2591
-5.82323
-56.9404
-5.88259
-63.3378
-5.96755
-69.7201
-6.07375
-76.017
-6.20293
-82.3329
-6.35369
-88.6646
-6.52658
-95.0626
-6.72112
-101.542
-6.93754
-108.134
-7.17574
-114.86
-7.43591
-121.742
-7.71817
-128.802
-8.0228
-136.06
-8.35009
-143.537
-8.70044
-151.252
-9.07432
-159.226
-9.47226
-167.476
-9.8949
-176.024
-10.3429
-184.887
-10.8171
-194.086
-11.3183
-203.64
-11.8475
-213.569
-12.4056
-223.893
-12.9938
-234.633
-13.6132
-245.809
-14.2651
-257.442
-14.9507
-269.555
-15.6716
-282.169
-16.429
-295.306
-17.2246
-308.991
-18.06
-323.246
-18.9366
-338.096
-19.8563
-353.565
-20.8206
-369.677
-21.831
-386.457
-22.8892
-403.93
-23.9963
-422.12
-25.1534
-441.048
-26.3612
-460.735
-27.6194
-481.198
-28.9274
-502.449
-30.2828
-524.491
-31.6819
-547.319
-33.1189
-570.912
-34.5848
-595.232
-36.0675
-620.216
-37.5501
-645.77
-39.0106
-671.763
-40.4206
-698.022
-41.7447
-724.324
-42.9394
-750.395
-43.9524
-775.914
-44.7213
-800.512
-45.1718
-823.782
-45.2147
-845.288
-44.7391
-864.542
-43.6062
-881
-41.6334
-893.93
-38.5898
-902.381
-34.17
-904.77
-28.0265
-898.952
-19.736
-881.003
-9.00803
-846.38
4.34014
-785.373
19.7468
-689.693
35.8462
-537.516
50.3818
-293.281
56.8877
195.091
50.4887
508.742
48.3204
860.503
39.9791
1120.44
47.9839
1522.24
35.5441
1553.48
85.5271
2219.42
2459.79
-6.31107
-26.4104
-6.19899
-36.5623
-6.18254
-43.5597
-6.18445
-50.2572
-6.22451
-56.9003
-6.28681
-63.2755
-6.37659
-69.6303
-6.48933
-75.9042
-6.62661
-82.1957
-6.78695
-88.5042
-6.97082
-94.8787
-7.17771
-101.335
-7.4078
-107.904
-7.66099
-114.606
-7.93743
-121.466
-8.23726
-128.502
-8.56073
-135.737
-8.90815
-143.19
-9.27994
-150.881
-9.67655
-158.829
-10.0986
-167.054
-10.5466
-175.576
-11.0214
-184.412
-11.5238
-193.584
-12.0546
-203.109
-12.6148
-213.009
-13.2055
-223.303
-13.8278
-234.011
-14.4828
-245.154
-15.172
-256.753
-15.8965
-268.83
-16.658
-281.407
-17.4577
-294.507
-18.2974
-308.151
-19.1786
-322.365
-20.103
-337.172
-21.0722
-352.595
-22.0879
-368.661
-23.1517
-385.393
-24.2649
-402.817
-25.4288
-420.956
-26.6444
-439.832
-27.9119
-459.468
-29.2311
-479.879
-30.6007
-501.079
-32.0179
-523.074
-33.4781
-545.858
-34.9745
-569.416
-36.4969
-593.71
-38.0314
-618.682
-39.5591
-644.242
-41.0557
-670.267
-42.4902
-696.587
-43.8243
-722.989
-45.0117
-749.208
-45.9974
-774.928
-46.717
-799.792
-47.0941
-823.405
-47.0372
-845.345
-46.4324
-865.146
-45.1356
-882.297
-42.9551
-896.11
-39.6449
-905.691
-34.8776
-909.537
-28.2766
-905.552
-19.3867
-889.893
-7.88795
-857.878
6.40517
-799.667
22.9701
-706.258
40.2557
-554.802
57.5092
-310.534
66.8269
185.773
58.4413
517.127
52.9879
865.956
42.6466
1130.78
48.468
1516.42
34.7047
1567.25
81.064
2173.06
2422.86
-6.79423
-26.5648
-6.67293
-36.6836
-6.65145
-43.5811
-6.652
-50.2566
-6.69372
-56.8586
-6.76011
-63.2091
-6.85613
-69.5343
-6.97703
-75.7833
-7.12427
-82.0484
-7.29627
-88.3322
-7.49344
-94.6815
-7.71522
-101.113
-7.96175
-107.658
-8.23291
-114.335
-8.52885
-121.17
-8.84968
-128.181
-9.19568
-135.391
-9.56715
-142.818
-9.96451
-150.483
-10.3883
-158.405
-10.839
-166.604
-11.3173
-175.097
-11.8241
-183.906
-12.3601
-193.048
-12.9262
-202.543
-13.5235
-212.412
-14.153
-222.673
-14.816
-233.348
-15.5136
-244.456
-16.2472
-256.019
-17.0182
-268.059
-17.8281
-280.597
-18.6784
-293.656
-19.5708
-307.259
-20.5069
-321.429
-21.4884
-336.19
-22.5169
-351.567
-23.5942
-367.584
-24.7218
-384.266
-25.901
-401.638
-27.1332
-419.724
-28.419
-438.547
-29.7585
-458.128
-31.1513
-478.486
-32.5955
-499.635
-34.0877
-521.581
-35.6226
-544.324
-37.1921
-567.846
-38.7846
-592.117
-40.3843
-617.082
-41.97
-642.656
-43.5148
-668.722
-44.9846
-695.118
-46.3376
-721.636
-47.5244
-748.021
-48.4867
-773.966
-49.157
-799.122
-49.4564
-823.105
-49.2911
-845.51
-48.5437
-865.894
-47.0643
-883.776
-44.6515
-898.523
-41.0425
-909.3
-35.885
-914.694
-28.7677
-912.67
-19.1932
-899.467
-6.80068
-870.271
8.61884
-815.086
26.5795
-724.219
45.4504
-573.673
64.5266
-329.61
77.2776
173.022
68.8051
525.6
59.4397
875.322
46.1949
1144.03
49.0918
1513.53
33.8151
1582.52
74.9222
2131.95
2383.5
-7.25173
-26.7287
-7.12553
-36.8098
-7.10028
-43.6064
-7.10049
-50.2564
-7.14437
-56.8147
-7.21524
-63.1382
-7.31767
-69.4319
-7.44685
-75.6541
-7.60404
-81.8912
-7.78761
-88.1487
-7.99791
-94.4712
-8.23433
-100.877
-8.49699
-107.395
-8.78574
-114.046
-9.10073
-120.855
-9.44206
-127.84
-9.81001
-135.023
-10.2049
-142.423
-10.6271
-150.061
-11.0773
-157.955
-11.5559
-166.125
-12.0637
-174.59
-12.6014
-183.368
-13.17
-192.479
-13.7704
-201.943
-14.4036
-211.779
-15.0708
-222.006
-15.7731
-232.645
-16.512
-243.717
-17.2886
-255.243
-18.1047
-267.243
-18.9615
-279.74
-19.8608
-292.757
-20.8042
-306.315
-21.7934
-320.44
-22.8302
-335.153
-23.9161
-350.481
-25.053
-366.447
-26.2424
-383.077
-27.4856
-400.395
-28.7838
-418.425
-30.1375
-437.193
-31.5469
-456.719
-33.011
-477.022
-34.5275
-498.118
-36.0925
-520.016
-37.7
-542.716
-39.3406
-566.206
-41.0014
-590.457
-42.6649
-615.419
-44.3077
-641.014
-45.9003
-667.129
-47.4055
-693.612
-48.7787
-720.263
-49.9671
-746.833
-50.9093
-773.023
-51.5356
-798.495
-51.7649
-822.876
-51.5014
-845.774
-50.6254
-866.77
-48.9823
-885.419
-46.3621
-901.143
-42.4867
-913.176
-36.9793
-920.202
-29.3934
-920.256
-19.1865
-909.674
-5.94825
-883.509
10.5702
-831.604
29.9324
-743.581
50.4808
-594.221
71.761
-350.891
88.7781
156.005
81.2123
533.166
68.0372
888.497
50.8436
1161.22
50.2201
1514.15
32.7706
1599.97
70.3451
2094.38
2360.08
-7.70405
-26.8989
-7.57564
-36.9382
-7.54796
-43.6341
-7.54883
-50.2556
-7.59554
-56.768
-7.67146
-63.0623
-7.78081
-69.3225
-7.9187
-75.5163
-8.08627
-81.7237
-8.28184
-87.9531
-8.50566
-94.2474
-8.75712
-100.625
-9.03629
-107.116
-9.34303
-113.74
-9.67744
-120.52
-10.0397
-127.477
-10.4299
-134.632
-10.8486
-142.005
-11.2962
-149.613
-11.7731
-157.478
-12.28
-165.618
-12.8177
-174.052
-13.3868
-182.799
-13.9885
-191.878
-14.6236
-201.308
-15.2932
-211.109
-15.9985
-221.301
-16.7408
-231.903
-17.5214
-242.937
-18.3418
-254.422
-19.2034
-266.382
-20.1078
-278.836
-21.0567
-291.808
-22.0518
-305.32
-23.0949
-319.397
-24.1876
-334.061
-25.3318
-349.337
-26.5291
-365.25
-27.7811
-381.825
-29.0892
-399.086
-30.4544
-417.06
-31.8772
-435.77
-33.3575
-455.238
-34.894
-475.486
-36.4842
-496.528
-38.1236
-518.377
-39.8052
-541.035
-41.5187
-564.492
-43.25
-588.725
-44.9796
-613.689
-46.6822
-639.311
-48.3256
-665.486
-49.8697
-692.068
-51.2668
-718.866
-52.4609
-745.639
-53.3878
-772.096
-53.9753
-797.908
-54.1405
-822.711
-53.7863
-846.128
-52.791
-867.765
-50.9965
-887.214
-48.1848
-903.955
-44.0635
-917.297
-38.2312
-926.034
-30.2039
-928.283
-19.3895
-920.489
-5.31793
-897.581
12.317
-849.239
33.1379
-764.402
55.5147
-616.598
79.3282
-374.704
100.72
134.613
94.8797
539.006
78.8255
904.551
56.9647
1183.08
52.074
1519.04
32.0741
1619.97
65.1879
2061.27
2343.25
-8.14776
-27.0727
-8.01954
-37.0664
-7.99061
-43.663
-7.99307
-50.2531
-8.04324
-56.7179
-8.12472
-62.9808
-8.24141
-69.2058
-8.3884
-75.3693
-8.56667
-81.5454
-8.77453
-87.7453
-9.01215
-94.0098
-9.27891
-100.359
-9.57483
-106.82
-9.89977
-113.415
-10.2538
-120.166
-10.6371
-127.094
-11.0499
-134.22
-11.4926
-141.562
-11.9656
-149.14
-12.4694
-156.974
-13.0048
-165.083
-13.5725
-173.484
-14.1733
-182.198
-14.8081
-191.243
-15.4781
-200.638
-16.1842
-210.403
-16.9279
-220.557
-17.7103
-231.121
-18.5328
-242.114
-19.3969
-253.558
-20.3043
-265.474
-21.2564
-277.884
-22.2551
-290.809
-23.3021
-304.273
-24.3991
-318.3
-25.548
-332.912
-26.7506
-348.134
-28.0085
-363.992
-29.3234
-380.51
-30.6967
-397.713
-32.1292
-415.628
-33.6214
-434.278
-35.173
-453.687
-36.7825
-473.876
-38.4469
-494.864
-40.1613
-516.663
-41.918
-539.278
-43.7056
-562.705
-45.5086
-586.922
-47.306
-611.891
-49.0704
-637.547
-50.7668
-663.789
-52.3527
-690.482
-53.777
-717.442
-54.9806
-744.435
-55.8967
-771.18
-56.4506
-797.354
-56.5581
-822.603
-56.1212
-846.565
-55.0173
-868.869
-53.0854
-889.146
-50.101
-906.939
-45.758
-921.64
-39.631
-932.161
-31.1967
-936.717
-19.8087
-931.877
-4.92747
-912.462
13.8271
-867.994
36.1457
-786.721
60.4732
-640.925
87.0346
-401.265
112.827
108.82
109.25
542.583
91.6993
922.102
65.0332
1209.75
55.0005
1529.07
32.0979
1642.87
61.1607
2032.2
2325.16
-8.58453
-27.2476
-8.45832
-37.1926
-8.42929
-43.692
-8.43423
-50.2482
-8.48847
-56.6636
-8.57604
-62.8932
-8.7005
-69.0814
-8.85698
-75.2128
-9.04632
-81.356
-9.26679
-87.5248
-9.51853
-93.7581
-9.80087
-100.076
-10.1138
-106.507
-10.4572
-113.071
-10.8312
-119.792
-11.2358
-126.69
-11.6714
-133.784
-12.1382
-141.095
-12.6369
-148.642
-13.1679
-156.443
-13.732
-164.519
-14.3299
-172.886
-14.9625
-181.565
-15.6308
-190.574
-16.3358
-199.933
-17.0788
-209.66
-17.8609
-219.775
-18.6836
-230.298
-19.5483
-241.249
-20.4566
-252.65
-21.4099
-264.521
-22.4101
-276.884
-23.4588
-289.761
-24.5579
-303.174
-25.7093
-317.148
-26.9147
-331.706
-28.176
-346.873
-29.495
-362.673
-30.8732
-379.131
-32.312
-396.274
-33.8123
-414.127
-35.3744
-432.716
-36.998
-452.063
-38.6812
-472.193
-40.4207
-493.124
-42.2111
-514.872
-44.0439
-537.445
-45.907
-560.841
-47.7835
-585.046
-49.6507
-610.024
-51.4791
-635.718
-53.2315
-662.037
-54.8624
-688.851
-56.3176
-715.987
-57.535
-743.218
-58.445
-770.27
-58.9709
-796.828
-59.0275
-822.547
-58.5164
-847.076
-57.3146
-870.071
-55.2598
-891.201
-52.1222
-910.077
-47.5827
-926.18
-41.1925
-938.551
-32.3872
-945.523
-20.4612
-943.803
-4.79542
-928.128
15.0805
-887.87
38.9359
-810.576
65.3373
-667.327
94.6845
-430.613
125.142
78.3625
124.082
543.643
106.4
939.784
75.4515
1240.7
59.4597
1545.07
33.0053
1669.33
59.0312
2006.18
2310.44
-9.0148
-27.4219
-8.8921
-37.3153
-8.86401
-43.7201
-8.87227
-50.2399
-8.93119
-56.6047
-9.02536
-62.7991
-9.15802
-68.9487
-9.32438
-75.0464
-9.52514
-81.1553
-9.75856
-87.2914
-10.0247
-93.4919
-10.3229
-99.778
-10.6532
-106.177
-11.0153
-112.709
-11.4094
-119.398
-11.8356
-126.263
-12.2942
-133.325
-12.7855
-140.604
-13.3101
-148.117
-13.8685
-155.885
-14.4615
-163.926
-15.0898
-172.258
-15.7544
-180.901
-16.4564
-189.873
-17.1967
-199.192
-17.9767
-208.88
-18.7976
-218.954
-19.6609
-229.435
-20.568
-240.342
-21.5205
-251.697
-22.5201
-263.521
-23.5686
-275.835
-24.6677
-288.661
-25.8192
-302.023
-27.0252
-315.942
-28.2875
-330.444
-29.6079
-345.552
-30.9883
-361.292
-32.4302
-377.689
-33.935
-394.77
-35.5036
-412.559
-37.1362
-431.083
-38.8323
-450.367
-40.5899
-470.435
-42.4054
-491.309
-44.2728
-513.005
-46.183
-535.535
-48.123
-558.901
-50.0746
-583.094
-52.0137
-608.085
-53.9087
-633.823
-55.72
-660.226
-57.3992
-687.172
-58.8892
-714.497
-60.1248
-741.982
-61.0338
-769.361
-61.5375
-796.324
-61.55
-822.534
-60.9731
-847.653
-59.6848
-871.359
-57.522
-893.364
-54.2512
-913.348
-49.542
-930.889
-42.9221
-945.171
-33.7845
-954.66
-21.36
-956.227
-4.93908
-944.549
16.0543
-908.863
41.481
-836.003
70.0708
-695.917
101.927
-462.469
137.678
42.6113
139.253
542.069
122.498
956.538
88.3195
1274.88
65.8806
1567.5
35.0908
1700.12
54.7576
1986.51
2300.14
-9.43919
-27.5939
-9.32118
-37.4333
-9.29502
-43.7463
-9.30738
-50.2275
-9.37156
-56.5405
-9.47284
-62.6978
-9.61414
-68.8074
-9.79077
-74.8698
-10.0033
-80.9427
-10.25
-87.0446
-10.5309
-93.211
-10.8453
-99.4636
-11.1931
-105.829
-11.5743
-112.328
-11.9888
-118.984
-12.4368
-125.815
-12.9186
-132.844
-13.4346
-140.088
-13.9853
-147.567
-14.5713
-155.299
-15.1934
-163.304
-15.8525
-171.599
-16.5494
-180.204
-17.2852
-189.137
-18.0611
-198.417
-18.8783
-208.063
-19.7383
-218.094
-20.6424
-228.531
-21.5922
-239.393
-22.5893
-250.7
-23.6354
-262.475
-24.7325
-274.738
-25.8822
-287.512
-27.0865
-300.818
-28.3475
-314.681
-29.667
-329.125
-31.0469
-344.172
-32.4891
-359.85
-33.9951
-376.183
-35.5664
-393.198
-37.2038
-410.921
-38.9075
-429.379
-40.6769
-448.598
-42.5096
-468.603
-44.402
-489.416
-46.3475
-511.059
-48.3364
-533.546
-50.3548
-556.883
-52.3835
-581.065
-54.3967
-606.072
-56.3609
-631.859
-58.2343
-658.352
-59.9655
-685.441
-61.4944
-712.968
-62.7529
-740.724
-63.666
-768.448
-64.1536
-795.837
-64.129
-822.559
-63.4952
-848.287
-62.1317
-872.723
-59.8764
-895.619
-56.4935
-916.731
-51.6423
-935.74
-44.8284
-951.985
-35.4002
-964.088
-22.5204
-969.107
-5.37831
-961.691
16.723
-930.965
43.7509
-863.031
74.6435
-726.809
109.031
-496.857
149.6
2.04298
154.707
536.961
139.53
971.716
103.327
1311.08
74.5628
1596.27
38.9458
1735.74
51.819
1973.64
2286.64
-9.85819
-27.7625
-9.74585
-37.5457
-9.72253
-43.7696
-9.73972
-50.2104
-9.80974
-56.4705
-9.91863
-62.5889
-10.069
-68.6571
-10.2563
-74.6825
-10.481
-80.7181
-10.7413
-86.7843
-11.0372
-92.9151
-11.3681
-99.1328
-11.7338
-105.463
-12.1342
-111.928
-12.5694
-118.548
-13.0394
-125.345
-13.5448
-132.338
-14.0857
-139.547
-14.6628
-146.989
-15.2767
-154.685
-15.9282
-162.652
-16.6182
-170.909
-17.3476
-179.474
-18.1175
-188.367
-18.9292
-197.605
-19.784
-207.208
-20.6832
-217.195
-21.6284
-227.585
-22.6211
-238.4
-23.6631
-249.658
-24.7562
-261.382
-25.9021
-273.592
-27.1028
-286.311
-28.3603
-299.561
-29.6765
-313.365
-31.0536
-327.747
-32.4934
-342.733
-33.9978
-358.346
-35.5685
-374.613
-37.2068
-391.56
-38.9136
-409.215
-40.689
-427.604
-42.5323
-446.755
-44.4411
-466.694
-46.4112
-487.446
-48.436
-509.035
-50.505
-531.477
-52.6035
-554.784
-54.7112
-578.958
-56.8009
-603.982
-58.8373
-629.823
-60.776
-656.414
-62.5631
-683.654
-64.1354
-711.395
-65.4216
-739.437
-66.3444
-767.525
-66.8218
-795.359
-66.7674
-822.613
-66.0856
-848.969
-64.6586
-874.15
-62.3266
-897.951
-58.8532
-920.204
-53.8893
-940.704
-46.9189
-958.955
-37.2451
-973.762
-23.9574
-982.395
-6.13342
-979.515
17.0593
-954.157
45.7118
-891.683
79.0194
-760.117
116.326
-534.163
160.526
-42.1572
170.474
527.014
157.156
985.033
119.87
1348.37
85.4996
1630.64
44.9566
1776.28
51.6791
1966.92
2278.39
-10.2723
-27.9266
-10.1664
-37.6516
-10.1467
-43.7892
-10.1694
-50.1877
-10.2459
-56.394
-10.3629
-62.4719
-10.5227
-68.4972
-10.7211
-74.4842
-10.9582
-80.4809
-11.2325
-86.51
-11.5438
-92.6038
-11.8915
-98.7851
-12.2754
-105.079
-12.6953
-111.508
-13.1514
-118.092
-13.6439
-124.853
-14.1729
-131.809
-14.739
-138.981
-15.3428
-146.386
-15.9848
-154.043
-16.666
-161.971
-17.3871
-170.188
-18.1493
-178.712
-18.9537
-187.562
-19.8014
-196.757
-20.694
-206.315
-21.6328
-216.256
-22.6193
-226.599
-23.6553
-237.364
-24.7425
-248.571
-25.8827
-260.242
-27.0778
-272.397
-28.3298
-285.059
-29.6408
-298.25
-31.0128
-311.993
-32.4478
-326.312
-33.948
-341.232
-35.5151
-356.779
-37.1509
-372.977
-38.8567
-389.854
-40.6335
-407.438
-42.4813
-425.756
-44.3993
-444.837
-46.385
-464.708
-48.434
-485.397
-50.5392
-506.929
-52.6898
-529.326
-54.8702
-552.604
-57.0591
-576.769
-59.2278
-601.814
-61.3394
-627.711
-63.347
-654.406
-65.194
-681.807
-66.8143
-709.775
-68.1334
-738.118
-69.0715
-766.587
-69.5452
-794.886
-69.4683
-822.69
-68.7474
-849.689
-67.2687
-875.628
-64.8762
-900.343
-61.3346
-923.746
-56.2884
-945.75
-49.2014
-966.042
-39.3304
-983.633
-25.6868
-996.038
-7.22619
-997.975
17.0335
-978.417
47.3269
-921.976
83.1469
-795.937
123.534
-574.551
171.437
-90.0599
186.656
511.795
175.22
996.469
137.306
1386.28
98.2381
1669.71
52.9185
1821.6
48.1126
1971.72
2281.41
-10.6818
-28.0854
-10.5831
-37.7503
-10.5679
-43.8044
-10.5967
-50.1588
-10.6801
-56.3107
-10.8057
-62.3464
-10.9755
-68.3274
-11.1853
-74.2743
-11.4353
-80.2309
-11.7239
-86.2214
-12.0509
-92.2768
-12.4157
-98.4204
-12.818
-104.677
-13.2578
-111.068
-13.7352
-117.615
-14.2502
-124.338
-14.8033
-131.256
-15.3949
-138.389
-16.0255
-145.755
-16.696
-153.373
-17.407
-161.26
-18.1596
-169.435
-18.9548
-177.917
-19.7939
-186.723
-20.678
-195.873
-21.6086
-205.385
-22.5872
-215.277
-23.6155
-225.571
-24.695
-236.284
-25.8277
-247.439
-27.0154
-259.054
-28.2601
-271.152
-29.5639
-283.755
-30.9287
-296.885
-32.3568
-310.565
-33.8503
-324.819
-35.4112
-339.672
-37.0415
-355.148
-38.7429
-371.275
-40.5169
-388.08
-42.3643
-405.59
-44.2852
-423.835
-46.2787
-442.843
-48.3423
-462.644
-50.4712
-483.268
-52.6582
-504.742
-54.8918
-527.093
-57.156
-550.34
-59.4283
-574.497
-61.6788
-599.563
-63.8687
-625.521
-65.949
-652.326
-67.8603
-679.896
-69.5334
-708.102
-70.8909
-736.761
-71.8501
-765.628
-72.3265
-794.409
-72.2346
-822.782
-71.4838
-850.44
-69.9653
-877.147
-67.5286
-902.78
-63.9417
-927.333
-58.8448
-950.847
-51.6833
-973.204
-41.6671
-993.649
-27.7249
-1009.98
-8.67951
-1017.02
16.6136
-1003.71
48.5561
-953.919
86.9687
-834.349
130.539
-618.121
182.423
-141.943
203.35
490.867
193.708
1006.11
155.168
1424.82
112.145
1712.73
62.4074
1871.34
46.3798
1987.75
2287.61
-11.0873
-28.2381
-10.9962
-37.8414
-10.9862
-43.8145
-11.0218
-50.1232
-11.1126
-56.2198
-11.2473
-62.2118
-11.4274
-68.1472
-11.6491
-74.0527
-11.9124
-79.9676
-12.2156
-85.9182
-12.5587
-91.9337
-12.9408
-98.0383
-13.3619
-104.256
-13.8219
-110.608
-14.3207
-117.116
-14.8587
-123.8
-15.4361
-130.679
-16.0534
-137.772
-16.7112
-145.097
-17.4103
-152.673
-18.1515
-160.519
-18.9359
-168.651
-19.7644
-177.088
-20.6384
-185.849
-21.5592
-194.952
-22.5282
-204.416
-23.547
-214.259
-24.6173
-224.5
-25.7407
-235.161
-26.9193
-246.26
-28.1548
-257.819
-29.4495
-269.858
-30.8053
-282.399
-32.2244
-295.466
-33.7091
-309.08
-35.2614
-323.267
-36.8836
-338.049
-38.5776
-353.454
-40.3452
-369.508
-42.1879
-386.238
-44.1066
-403.672
-46.1014
-421.84
-48.1713
-440.773
-50.3137
-460.502
-52.5238
-481.058
-54.7938
-502.472
-57.1122
-524.774
-59.4621
-547.99
-61.8202
-572.138
-64.1554
-597.228
-66.427
-623.25
-68.584
-650.169
-70.5641
-677.915
-72.2952
-706.371
-73.6966
-735.359
-74.6831
-764.642
-75.1689
-793.923
-75.0694
-822.881
-74.2978
-851.212
-72.7516
-878.693
-70.2872
-905.244
-66.6782
-930.941
-61.5635
-955.962
-54.3719
-980.396
-44.2663
-1003.75
-30.0885
-1024.16
-10.5176
-1036.59
15.7656
-1029.99
49.3563
-987.51
90.4241
-875.417
137.275
-664.972
193.471
-198.139
220.623
463.715
212.672
1014.06
173.226
1464.27
126.574
1759.38
72.5532
1925.36
40.4194
2019.88
2307.75
-11.489
-28.3841
-11.406
-37.9245
-11.4018
-43.8186
-11.4447
-50.0803
-11.5436
-56.1209
-11.6877
-62.0677
-11.8787
-67.9563
-12.1126
-73.8188
-12.3895
-79.6907
-12.7078
-85.5999
-13.0672
-91.5743
-13.4671
-97.6384
-13.9073
-103.816
-14.3877
-110.128
-14.9084
-116.595
-15.4695
-123.239
-16.0715
-130.077
-16.7149
-137.128
-17.4002
-144.412
-18.1282
-151.945
-18.8999
-159.747
-19.7163
-167.835
-20.5784
-176.226
-21.4877
-184.94
-22.4454
-193.994
-23.4531
-203.408
-24.5124
-213.199
-25.625
-223.388
-26.7928
-233.993
-28.0175
-245.035
-29.3013
-256.535
-30.6463
-268.513
-32.0546
-280.991
-33.5285
-293.992
-35.0701
-307.539
-36.6818
-321.655
-38.3658
-336.365
-40.124
-351.696
-41.9585
-367.673
-43.8706
-384.325
-45.8613
-401.681
-47.9307
-419.771
-50.0779
-438.626
-52.3001
-458.28
-54.5926
-478.766
-56.9472
-500.118
-59.352
-522.37
-61.7897
-545.552
-64.2361
-569.692
-66.659
-594.805
-69.0159
-620.893
-71.2537
-647.931
-73.3076
-675.862
-75.102
-704.577
-76.5532
-733.908
-77.5733
-763.621
-78.0753
-793.421
-77.9759
-822.981
-77.1927
-851.995
-75.6305
-880.255
-73.155
-907.72
-69.5478
-934.549
-64.4491
-961.06
-57.2739
-987.571
-47.1392
-1013.89
-32.7946
-1038.5
-12.766
-1056.62
14.4527
-1057.21
49.6812
-1022.74
93.4485
-919.185
143.684
-715.207
204.582
-259.037
238.507
429.79
232.158
1020.41
191.425
1505
141.123
1809.68
83.285
1983.19
36.1109
2067.06
2326.76
-11.8872
-28.5229
-11.8127
-37.999
-11.815
-43.8164
-11.8658
-50.0295
-11.9732
-56.0134
-12.1273
-61.9136
-12.3295
-67.7541
-12.5761
-73.5722
-12.867
-79.3998
-13.2006
-85.2662
-13.5767
-91.1982
-13.9947
-97.2204
-14.4543
-103.356
-14.9555
-109.626
-15.4983
-116.053
-16.083
-122.654
-16.7099
-129.45
-17.3795
-136.459
-18.0926
-143.699
-18.8499
-151.188
-19.6523
-158.945
-20.501
-166.986
-21.3972
-175.33
-22.342
-183.995
-23.337
-192.999
-24.3838
-202.361
-25.4839
-212.099
-26.6392
-222.232
-27.8516
-232.781
-29.1229
-243.764
-30.4554
-255.202
-31.8511
-267.117
-33.3124
-279.53
-34.8414
-292.463
-36.4406
-305.94
-38.1121
-319.983
-39.8584
-334.619
-41.6815
-349.873
-43.5834
-365.772
-45.5655
-382.343
-47.629
-399.618
-49.7739
-417.626
-51.9994
-436.401
-54.3026
-455.977
-56.6786
-476.39
-59.1193
-497.677
-61.6124
-519.877
-64.1401
-543.025
-66.6775
-567.155
-69.1911
-592.291
-71.6372
-618.447
-73.9603
-645.608
-76.0929
-673.729
-77.9563
-702.713
-79.4635
-732.401
-80.5238
-762.561
-81.0489
-792.896
-80.9572
-823.073
-80.1714
-852.781
-78.6051
-881.822
-76.1351
-910.19
-72.5536
-938.13
-67.5057
-966.108
-60.3962
-994.68
-50.2968
-1023.99
-35.8611
-1052.94
-15.4517
-1077.03
12.6358
-1085.3
49.4802
-1059.58
95.972
-965.676
149.72
-768.956
215.779
-325.096
257.054
388.516
252.21
1025.26
209.798
1547.41
155.69
1863.79
95.0184
2043.87
38.8198
2123.26
2347.85
-12.2823
-28.6542
-12.2167
-38.0646
-12.226
-43.807
-12.2852
-49.9703
-12.4016
-55.897
-12.5662
-61.749
-12.78
-67.5402
-13.0396
-73.3126
-13.3449
-79.0945
-13.6943
-84.9168
-14.0875
-90.805
-14.5239
-96.7841
-15.0033
-102.877
-15.5255
-109.104
-16.0908
-115.487
-16.6993
-122.046
-17.3514
-128.798
-18.0476
-135.762
-18.7888
-142.958
-19.5756
-150.401
-20.4092
-158.111
-21.2905
-166.105
-22.2209
-174.4
-23.2017
-183.014
-24.2344
-191.967
-25.3205
-201.275
-26.4618
-210.958
-27.6602
-221.034
-28.9176
-231.523
-30.236
-242.445
-31.6175
-253.821
-33.0645
-265.67
-34.5791
-278.015
-36.1638
-290.878
-37.821
-304.282
-39.553
-318.251
-41.3621
-332.81
-43.2507
-347.984
-45.2207
-363.802
-47.2736
-380.29
-49.4106
-397.481
-51.632
-415.404
-53.9366
-434.096
-56.322
-453.591
-58.783
-473.929
-61.3114
-495.149
-63.8946
-517.293
-66.5145
-540.405
-69.1456
-564.523
-71.7534
-589.684
-74.2925
-615.907
-76.7056
-643.195
-78.9223
-671.512
-80.8607
-700.775
-82.4303