/*--------------------------------*- C++ -*----------------------------------*\
| =========                 |                                                 |
| \\      /  F ield         | OpenFOAM: The Open Source CFD Toolbox           |
|  \\    /   O peration     | Version:  4.1                                   |
|   \\  /    A nd           | Web:      www.OpenFOAM.org                      |
|    \\/     M anipulation  |                                                 |
\*---------------------------------------------------------------------------*/
FoamFile
{
    version     2.0;
    format      ascii;
    class       volScalarField;
    location    "1";
    object      p;
}
// * * * * * * * * * * * * * * * * * * * * * * * * * * * * * * * * * * * * * //

dimensions      [0 2 -2 0 0 0 0];

internalField   nonuniform List<scalar> 
6785
(
479.241
400.96
353.97
300.704
254.161
209.396
167.789
128.47
91.4326
56.5114
23.0768
-9.49217
-38.0314
-67.5834
-107.989
-136.806
-154.419
-144.335
-151.342
-150.485
-152.645
-152.95
-153.077
-152.231
-150.592
-147.931
-144.561
-140.354
-134.463
-129.472
-111.001
-113.694
-103.881
-107.32
-102.37
-102.446
-100.539
-99.7286
-98.7298
-97.8789
-97.0791
-96.2357
-95.3676
-95.1988
-91.1574
-61.9851
-62.3365
-57.5997
-61.915
-58.4687
-60.0232
-59.2985
-59.2166
-58.8404
-58.232
-57.3488
-56.2575
-54.5907
-53.5802
-50.8184
-52.509
-52.2581
-49.2363
-51.3729
-48.2925
-48.4664
-47.0693
-45.9547
-44.7089
-43.386
-41.8808
-40.4649
-38.9312
-37.6779
-36.0065
-41.3999
-41.944
-39.228
-41.0298
-38.536
-38.8538
-37.9347
-37.3941
-36.813
-36.3413
-35.7667
-35.4009
-35.0316
-34.9288
-34.3934
-34.5385
-36.3981
-33.6245
-35.7643
-33.9386
-34.4945
-34.0362
-33.9211
-33.725
-33.6526
-33.433
-33.4029
-33.2708
-33.3819
-33.082
-32.9672
-34.9727
-32.2466
-34.2979
-32.9816
-33.435
-33.1546
-33.1356
-33.0214
-33.0151
-32.8644
-32.8691
-32.7759
-32.8607
-32.5922
-31.3829
-32.8366
-30.5494
-32.3267
-31.3831
-31.7988
-31.628
-31.6883
-31.6604
-31.6921
-31.6517
-31.6541
-31.6803
-31.737
-31.5375
-31.2583
-32.1907
-30.4444
-31.9283
-31.1564
-31.6024
-31.4452
-31.5509
-31.5776
-31.582
-31.6562
-31.5795
-31.7373
-31.7372
-31.6061
-29.8437
-30.6234
-29.3478
-30.6905
-30.0403
-30.5835
-30.4682
-30.6506
-30.7788
-30.7769
-31.0261
-30.8835
-31.2327
-31.1834
-31.1984
-32.5437
-33.1663
-32.2106
-33.3437
-32.6988
-33.2287
-33.0448
-33.1781
-33.2813
-33.136
-33.4301
-33.0714
-33.4866
-33.2461
-33.2468
-30.8383
-31.391
-30.7088
-31.6683
-31.0584
-31.54
-31.262
-31.3182
-31.3531
-31.0354
-31.3291
-30.7409
-31.1563
-30.7904
-30.6489
-38.1231
-38.9466
-38.3669
-39.0815
-38.3375
-38.4345
-37.7705
-37.2382
-36.6615
-35.5227
-35.1003
-33.5862
-33.1149
-31.9938
-30.6812
-45.3385
-42.4352
-38.988
-37.2131
-33.1747
-30.505
-26.4757
-22.9394
-19.6372
-15.9397
-13.4098
-10.2285
-8.82912
-6.41958
-6.07658
2.35065
2.39362
2.41255
2.40704
2.40838
2.39567
2.40853
2.41096
2.41609
2.40365
2.33963
2.35674
2.48967
2.49895
2.50559
2.54305
2.63414
2.5979
2.61655
2.61898
2.58756
2.65038
2.68996
2.66886
2.70351
2.75791
2.81058
2.77118
2.81404
2.93341
2.86438
2.88671
2.97148
3.08389
3.01011
3.03457
3.26116
3.17025
3.14847
3.2673
3.49991
3.44078
3.3523
3.50332
3.78931
3.63139
3.50719
4.0359
3.83008
3.56227
3.72834
4.26066
4.11302
3.60202
3.80161
4.46786
4.10611
3.32712
4.52692
4.07988
2.86012
3.00362
4.20472
3.6421
1.60221
3.73163
3.04433
0.153959
0.000706638
2.09192
1.86042
-2.87539
-3.22004
-0.362296
-1.04488
-8.78046
-3.89852
-3.64711
-17.2578
-10.6796
-6.30808
-6.30047
-6.83828
-17.3538
-5.09558
-3.4772
-3.62939
-4.16119
-4.68373
-5.34588
-5.8827
-7.67898
-11.6184
-7.79109
-8.31723
-8.42826
-8.87895
-9.34795
-9.82648
-9.86149
-11.3867
-15.7147
-12.48
-12.905
-13.0701
-13.6201
-14.1853
-14.9334
-15.5904
-16.2296
-17.7483
-22.0784
-20.4313
-20.9523
-21.3432
-22.0788
-22.8635
-23.7016
-24.629
-26.3674
-32.0884
-29.786
-30.1746
-30.5003
-31.1673
-31.9141
-32.7484
-33.6054
-35.3695
-42.2982
-39.2898
-39.466
-39.4915
-39.8943
-40.4495
-41.1633
-42.059
-43.6948
-50.3932
-46.8957
-46.6733
-46.536
-46.7435
-47.0243
-47.7802
-48.4334
-49.4373
-51.1138
-57.7484
-52.1241
-51.7609
-51.905
-52.457
-53.1178
-54.255
-54.6108
-55.5089
-60.2109
-51.9553
-52.1354
-52.7046
-50.236
-53.1587
-47.1587
-46.6028
-41.4753
-37.2359
-35.5224
-30.8514
-27.3066
-24.4877
-22.5258
-21.1395
-20.6875
-20.4873
-20.1423
-19.8607
-19.1095
-18.8023
-18.2383
-17.2878
-17.2923
-16.8092
-14.6016
-15.5523
-14.8002
-13.7372
-13.9515
-10.655
-12.517
-12.3937
-11.0681
-11.8028
-7.74362
-9.67432
-11.7399
-5.95133
-8.82599
-9.77912
-7.90365
-9.507
-3.99469
-7.28469
-8.43017
-6.54412
-8.22713
-2.68543
-5.44009
-8.71977
-1.50846
-5.14623
-6.77951
-4.61474
-6.69252
-0.408783
-4.19385
-5.74874
-3.70362
-5.6829
0.329292
-2.75362
-6.41751
1.25577
-2.6904
-4.54424
-2.31843
-4.57858
1.97682
-2.06395
-3.77232
-1.71787
-3.85371
2.35186
-0.950708
-4.89011
3.07866
-1.24953
-3.16685
-1.26793
-3.17035
7.5373e-07
2.18012e-06
4.06881e-06
6.09805e-06
8.51076e-06
1.11728e-05
1.41852e-05
1.75106e-05
2.12129e-05
2.52974e-05
2.98174e-05
3.4808e-05
4.03233e-05
4.64195e-05
5.31623e-05
6.0625e-05
6.88903e-05
7.8051e-05
8.82105e-05
9.9485e-05
0.000112004
0.000125911
0.000141367
0.000158552
0.000177666
0.000198931
0.000222595
0.000248935
0.000278258
0.000310907
0.000347264
0.000387752
0.000432845
0.000483066
0.000539
0.000601296
0.000670674
0.000747932
0.000833958
0.00092973
0.00103634
0.00115497
0.00128695
0.00143372
0.00159687
0.00177813
0.00197936
0.00220258
0.00244994
0.00272369
0.00302616
0.0033597
0.00372658
0.00412883
0.00456807
0.00504515
0.00555971
0.00610955
0.00668963
0.00729071
0.00789746
0.00848566
0.00901842
0.00944087
0.00967315
0.0096011
0.00906485
0.00784519
0.00565256
0.00209114
-0.00318066
-0.0110726
-0.0211096
-0.0355809
-0.0515886
-0.0722833
-0.0926353
-0.147464
-0.128002
2.239e-06
6.53273e-06
1.22396e-05
1.83678e-05
2.56189e-05
3.36223e-05
4.26623e-05
5.26408e-05
6.37434e-05
7.59902e-05
8.95397e-05
0.000104498
0.000121028
0.000139298
0.000159505
0.000181868
0.000206636
0.000234086
0.000264528
0.00029831
0.000335818
0.000377484
0.000423789
0.000475271
0.000532527
0.000596222
0.000667099
0.000745983
0.000833794
0.000931556
0.00104041
0.00116161
0.00129659
0.00144689
0.00161427
0.00180066
0.00200819
0.00223927
0.00249651
0.00278284
0.00310148
0.00345599
0.00385028
0.00428863
0.00477576
0.00531676
0.00591717
0.00658294
0.00732038
0.00813615
0.00903708
0.01003
0.0111216
0.0123177
0.013623
0.0150397
0.0165665
0.0181967
0.0199149
0.0216936
0.0234869
0.025223
0.0267925
0.0280333
0.0287094
0.0284841
0.0268859
0.0232681
0.0167747
0.00623647
-0.00937379
-0.0327381
-0.0625516
-0.10548
-0.153365
-0.213768
-0.276763
-0.332694
-0.351626
3.62109e-06
1.07185e-05
2.03329e-05
3.06084e-05
4.2751e-05
5.61397e-05
7.12529e-05
8.79291e-05
0.000106478
0.000126935
0.000149565
0.000174545
0.000202149
0.000232656
0.000266397
0.000303737
0.000345092
0.000390924
0.000441753
0.000498155
0.00056078
0.000630346
0.000707657
0.00079361
0.000889203
0.000995546
0.00111388
0.00124558
0.00139218
0.00155539
0.00173711
0.00193946
0.00216478
0.0024157
0.00269511
0.00300625
0.0033527
0.00373842
0.00416782
0.00464577
0.00517764
0.00576936
0.00642747
0.00715912
0.00797214
0.00887507
0.00987712
0.0109882
0.0122189
0.0135803
0.0150837
0.0167407
0.0185622
0.0205581
0.022736
0.0250999
0.0276476
0.0303676
0.0332347
0.0362027
0.0391954
0.0420929
0.0447131
0.0467856
0.0479169
0.0475453
0.0448839
0.038853
0.0280211
0.0104382
-0.0156328
-0.0546359
-0.104491
-0.176208
-0.256318
-0.357755
-0.463429
-0.555075
-0.637894
4.99442e-06
1.4919e-05
2.84463e-05
4.28891e-05
5.99304e-05
7.87143e-05
9.99029e-05
0.000123279
0.000149271
0.000177936
0.00020964
0.000244636
0.000283304
0.000326039
0.000373302
0.000425607
0.000483534
0.000547733
0.000618929
0.000697933
0.00078565
0.00088309
0.000991379
0.00111177
0.00124566
0.00139461
0.00156034
0.00174479
0.00195011
0.00217869
0.00243319
0.00271657
0.00303212
0.0033835
0.00377477
0.00421046
0.00469557
0.00523565
0.00583687
0.00650603
0.00725066
0.00807904
0.00900031
0.0100245
0.0111625
0.0124263
0.0138287
0.0153836
0.0171058
0.0190108
0.0211144
0.0234326
0.0259809
0.028773
0.0318196
0.0351261
0.0386895
0.0424941
0.0465045
0.0506565
0.054844
0.0589
0.0625709
0.0654799
0.0670789
0.0665846
0.0628991
0.0545148
0.0394282
0.0149145
-0.0214905
-0.0759672
-0.14579
-0.246157
-0.358695
-0.501175
-0.65072
-0.793511
-0.959336
6.32878e-06
1.90861e-05
3.65556e-05
5.51938e-05
7.71557e-05
0.000101355
0.000128634
0.000158724
0.000192172
0.000229055
0.000269844
0.000314865
0.000364608
0.000419581
0.000480376
0.000547657
0.000622169
0.000704747
0.000796325
0.000897946
0.00101077
0.00113611
0.00127539
0.00143024
0.00160245
0.00179403
0.00200719
0.00224443
0.0025085
0.00280248
0.00312979
0.00349423
0.00390003
0.0043519
0.00485507
0.00541532
0.00603911
0.00673357
0.00750661
0.00836697
0.00932432
0.0103893
0.0115737
0.0128902
0.0143531
0.0159775
0.0177801
0.0197786
0.0219919
0.0244399
0.0271431
0.0301219
0.0333962
0.0369836
0.0408979
0.045146
0.0497244
0.0546129
0.0597663
0.0651029
0.0704872
0.075706
0.080435
0.0841929
0.0862788
0.0856902
0.0810211
0.0703382
0.0510656
0.0197048
-0.0269587
-0.0968252
-0.186652
-0.315701
-0.461034
-0.645218
-0.838939
-0.99998
-1.17399
7.64973e-06
2.32654e-05
4.46855e-05
6.75391e-05
9.44326e-05
0.000124059
0.000157435
0.000194243
0.000235148
0.000280249
0.00033012
0.000385163
0.000445976
0.000513181
0.000587503
0.000669752
0.00076084
0.000861789
0.000973739
0.00109797
0.00123589
0.0013891
0.00155937
0.00174866
0.00195918
0.00219336
0.00245392
0.00274391
0.0030667
0.00342604
0.0038261
0.00427155
0.00476754
0.00531983
0.00593478
0.0066195
0.00738185
0.00823053
0.00917521
0.0102266
0.0113964
0.0126977
0.0141448
0.0157534
0.0175407
0.0195252
0.0217273
0.0241686
0.0268722
0.0298624
0.0331641
0.0368024
0.0408015
0.0451829
0.0499636
0.0551522
0.0607447
0.0667166
0.0730138
0.0795372
0.0861229
0.0925126
0.0983135
0.102942
0.105547
0.104912
0.0993264
0.0864362
0.0630949
0.025032
-0.0317403
-0.116828
-0.226625
-0.384308
-0.562825
-0.789267
-1.02922
-1.26991
-1.47412
8.95575e-06
2.74572e-05
5.28378e-05
7.99262e-05
0.000111762
0.000146826
0.000186303
0.000229834
0.000278195
0.000331512
0.00039046
0.00045552
0.000527395
0.000606822
0.00069466
0.000791865
0.000899517
0.00101882
0.00115113
0.00129794
0.00146094
0.00164201
0.00184323
0.00206694
0.00231572
0.00259246
0.00290039
0.00324308
0.00362452
0.00404915
0.00452189
0.00504825
0.00563433
0.0062869
0.00701351
0.00782252
0.00872322
0.0097259
0.010842
0.012084
0.0134659
0.0150032
0.0167125
0.0186126
0.0207235
0.0230674
0.0256681
0.0285512
0.031744
0.035275
0.0391737
0.0434698
0.0481918
0.0533653
0.0590103
0.0651375
0.0717421
0.0787963
0.0862367
0.0939481
0.101739
0.109307
0.116193
0.121714
0.124873
0.124242
0.117812
0.102813
0.0755293
0.0309208
-0.035799
-0.135933
-0.265673
-0.451967
-0.664132
-0.933074
-1.22037
-1.47084
-1.72219
1.02551e-05
3.16754e-05
6.10213e-05
9.2361e-05
0.000129146
0.000169655
0.000215234
0.000265487
0.000321299
0.000382825
0.000450842
0.000525905
0.000608828
0.000700463
0.000801798
0.00091394
0.00103813
0.00117577
0.0013284
0.00149777
0.00168582
0.0018947
0.00212684
0.00238491
0.0026719
0.00299116
0.00334638
0.0037417
0.00418171
0.00467153
0.00521685
0.005824
0.00650002
0.00725272
0.0080908
0.0090239
0.0100627
0.0112191
0.0125062
0.0139386
0.0155323
0.0173049
0.019276
0.0214669
0.0239008
0.0266033
0.0296017
0.0329256
0.0366064
0.040677
0.0451715
0.0501239
0.0555673
0.0615313
0.0680393
0.0751037
0.08272
0.0908566
0.099442
0.108345
0.117348
0.126108
0.1341
0.140544
0.144303
0.143743
0.136561
0.11958
0.0885165
0.0375611
-0.038896
-0.153848
-0.303469
-0.518332
-0.764665
-1.07719
-1.41308
-1.69727
-1.97968
1.15507e-05
3.59251e-05
6.92401e-05
0.000104846
0.000146586
0.000192545
0.000244224
0.000301195
0.000364449
0.000434175
0.000511246
0.000596297
0.00069025
0.00079407
0.000908879
0.00103593
0.00117663
0.00133257
0.00150549
0.00169738
0.00191043
0.00214708
0.00241007
0.00270245
0.00302759
0.00338928
0.00379171
0.00423955
0.00473803
0.00529292
0.00591068
0.00659846
0.00736424
0.00821687
0.00916619
0.0102231
0.0113997
0.0127095
0.0141673
0.0157896
0.0175945
0.019602
0.0218341
0.0243151
0.0270713
0.0301313
0.0335264
0.03729
0.0414574
0.0460662
0.0511548
0.0567619
0.062925
0.0696778
0.0770472
0.0850477
0.0936748
0.102894
0.112627
0.122727
0.132951
0.142916
0.152037
0.159441
0.163852
0.163439
0.155613
0.136793
0.102135
0.0450612
-0.0408886
-0.170395
-0.339809
-0.583186
-0.864247
-1.22113
-1.60805
-1.96826
-2.26917
1.28463e-05
4.02117e-05
7.74978e-05
0.000117384
0.00016408
0.000215491
0.000273265
0.000336947
0.000407632
0.000485541
0.000571647
0.000666664
0.000771621
0.000887598
0.00101585
0.00115777
0.00131495
0.00148914
0.00168231
0.00189666
0.00213464
0.002399
0.00269278
0.00301938
0.00338258
0.00378659
0.00423611
0.00473636
0.00529315
0.00591295
0.00660296
0.00737116
0.00822647
0.00917876
0.010239
0.0114194
0.0127335
0.0141962
0.0158242
0.0176358
0.0196512
0.0218928
0.0243852
0.0271553
0.0302326
0.0336491
0.0374396
0.0416412
0.0462937
0.0514388
0.0571195
0.0633791
0.0702596
0.077799
0.0860274
0.0949621
0.104599
0.114901
0.125782
0.137082
0.148537
0.159723
0.169997
0.178398
0.18352
0.183337
0.174983
0.154484
0.116438
0.0535008
-0.0416631
-0.185424
-0.374514
-0.646345
-0.962699
-1.36459
-1.80487
-2.17897
-2.55492
1.41449e-05
4.45386e-05
8.57978e-05
0.000129976
0.000181628
0.000238491
0.000302354
0.000372737
0.000450837
0.000536912
0.00063203
0.000736987
0.000852918
0.000981019
0.00112267
0.00127943
0.00145304
0.00164543
0.00185879
0.00209554
0.0023584
0.00265039
0.00297487
0.0033356
0.00373675
0.00418298
0.00467946
0.00523197
0.00584692
0.00653145
0.00729351
0.00814191
0.0090865
0.0101382
0.011309
0.0126126
0.0140637
0.0156789
0.0174765
0.0194768
0.0217022
0.0241772
0.0269291
0.0299874
0.0333848
0.0371566
0.0413411
0.0459795
0.0511155
0.0567953
0.0630664
0.0699768
0.077573
0.0858972
0.0949835
0.104851
0.115498
0.126884
0.138918
0.151427
0.164124
0.176551
0.188011
0.197457
0.203357
0.203503
0.19476
0.172768
0.131575
0.0630736
-0.0409747
-0.198632
-0.407234
-0.707433
-1.05963
-1.5079
-2.00383
-2.4115
-2.90628
1.54485e-05
4.89078e-05
9.41414e-05
0.000142622
0.000199229
0.000261541
0.000331482
0.000408551
0.000494047
0.000588264
0.000692367
0.000807232
0.000934101
0.00107429
0.0012293
0.00140084
0.00159082
0.00180135
0.00203483
0.00229391
0.00258156
0.00290109
0.00325617
0.00365091
0.00408989
0.00457819
0.00512149
0.00572608
0.00639899
0.00714802
0.00798187
0.0089102
0.00994374
0.0110944
0.0123755
0.0138017
0.0153893
0.0171564
0.0191231
0.0213114
0.0237459
0.0264534
0.0294636
0.032809
0.0365252
0.0406508
0.0452278
0.050301
0.0559186
0.0621309
0.06899
0.0765486
0.0848579
0.0939644
0.103906
0.114705
0.12636
0.138831
0.152019
0.165743
0.179694
0.193382
0.206057
0.216595
0.223346
0.223923
0.214934
0.191646
0.147565
0.0738204
-0.0387508
-0.209909
-0.437823
-0.766291
-1.15487
-1.65093
-2.20431
-2.67495
-3.28894
1.67592e-05
5.33208e-05
0.00010253
0.000155321
0.00021688
0.000284637
0.000360642
0.000444383
0.000537251
0.000639584
0.00075264
0.000877377
0.00101514
0.00116737
0.00133569
0.00152196
0.00172824
0.00195686
0.00221038
0.00249171
0.00280406
0.00315101
0.00353658
0.00396522
0.00444189
0.00497211
0.00556203
0.00621851
0.00694916
0.00776247
0.00866785
0.00967579
0.0107979
0.0120473
0.0134381
0.0149865
0.0167101
0.0186286
0.0207636
0.0231391
0.0257818
0.0287209
0.0319884
0.0356197
0.0396534
0.0441314
0.0490992
0.0546056
0.0607027
0.0674455
0.0748905
0.0830951
0.0921152
0.102002
0.112797
0.124527
0.13719
0.150747
0.165095
0.180041
0.19526
0.210233
0.224161
0.235846
0.243527
0.244652
0.235581
0.211219
0.16454
0.085918
-0.0347613
-0.218961
-0.465927
-0.822527
-1.24799
-1.79349
-2.40555
-2.90796
-3.56696
1.80783e-05
5.77779e-05
0.000110964
0.000168074
0.000234579
0.000307772
0.000389826
0.000480219
0.000580434
0.000690852
0.000812824
0.000947393
0.00109601
0.00126022
0.0014418
0.00164273
0.00186525
0.00211186
0.00238535
0.00268882
0.00302576
0.00340004
0.00381597
0.00427835
0.00479254
0.0053645
0.00600087
0.00670901
0.00749716
0.00837445
0.00935105
0.0104383
0.0116486
0.0129962
0.0144963
0.0161664
0.0180253
0.0200944
0.022397
0.0249589
0.0278089
0.0309783
0.034502
0.0384178
0.0427675
0.0475961
0.0529529
0.0588904
0.0654649
0.0727357
0.080764
0.089612
0.0993402
0.110005
0.121651
0.134309
0.147981
0.162624
0.178135
0.194313
0.210815
0.227096
0.242313
0.255203
0.263899
0.265693
0.256712
0.231513
0.182549
0.0994438
-0.0288875
-0.225619
-0.49132
-0.875881
-1.33868
-1.93553
-2.60872
-3.21162
-3.93481
1.94072e-05
6.22793e-05
0.000119443
0.000180878
0.000252322
0.000330942
0.000419027
0.000516048
0.00062358
0.00074205
0.000872898
0.00101725
0.00117667
0.00135281
0.00154757
0.0017631
0.00200178
0.0022663
0.00255966
0.00288518
0.00324659
0.00364806
0.0040942
0.00459018
0.00514172
0.00575522
0.0064378
0.00719737
0.00804274
0.00898372
0.0100312
0.0111973
0.0124955
0.0139407
0.0155497
0.0173408
0.0193344
0.0215533
0.0240226
0.0267701
0.0298262
0.033225
0.0370034
0.0412024
0.0458663
0.0510439
0.0567877
0.0631541
0.0702037
0.078
0.086609
0.0960976
0.106531
0.117971
0.130466
0.144051
0.15873
0.174463
0.191142
0.208559
0.22636
0.243975
0.260523
0.274679
0.284481
0.287077
0.278372
0.252592
0.201683
0.114529
-0.0209472
-0.229633
-0.513684
-0.925985
-1.42649
-2.07627
-2.8123
-3.45082
-4.24451
2.07468e-05
6.68242e-05
0.000127966
0.000193731
0.000270105
0.00035414
0.000448235
0.00055186
0.000666676
0.000793158
0.000932838
0.00108693
0.00125709
0.00144509
0.00165297
0.00188302
0.00213778
0.00242011
0.00273323
0.00308068
0.00346644
0.00389496
0.00437116
0.00490055
0.00548925
0.00614408
0.00687263
0.00768336
0.00858565
0.00958998
0.010708
0.0119525
0.0133381
0.0148805
0.0165977
0.0185091
0.0206368
0.0230047
0.0256399
0.0285717
0.031833
0.0354597
0.0394916
0.043972
0.0489486
0.0544731
0.0606018
0.0673949
0.074917
0.0832362
0.092423
0.102549
0.113685
0.125897
0.139239
0.15375
0.169435
0.186258
0.20411
0.222777
0.241894
0.26087
0.278791
0.294277
0.305281
0.308817
0.300584
0.274496
0.222008
0.131274
-0.0107895
-0.230788
-0.532727
-0.972493
-1.51101
-2.21622
-3.01661
-3.71914
-4.56388
2.20977e-05
7.14119e-05
0.000136533
0.00020663
0.000287925
0.000377361
0.000477441
0.000587641
0.000709704
0.000844157
0.00099262
0.00115639
0.00133723
0.00153703
0.00175795
0.00200243
0.00227317
0.00257323
0.00290598
0.00327524
0.00368522
0.00414062
0.00464671
0.00520933
0.00583497
0.0065309
0.00730516
0.00816675
0.00912565
0.010193
0.011381
0.0127036
0.014176
0.0158151
0.0176398
0.019671
0.0219318
0.0244479
0.0272479
0.0303631
0.0338282
0.0376816
0.0419653
0.0467256
0.0520129
0.0578824
0.0643937
0.071611
0.079603
0.0884421
0.0982037
0.108964
0.1208
0.133781
0.147967
0.163401
0.180093
0.198008
0.217037
0.236964
0.257414
0.277779
0.297118
0.314002
0.326309
0.330931
0.323379
0.297273
0.243596
0.149788
0.00174695
-0.22885
-0.548125
-1.01501
-1.59173
-2.35466
-3.22197
-4.03907
-4.92875
2.34604e-05
7.60413e-05
0.000145143
0.000219574
0.000305776
0.000400596
0.000506636
0.000623378
0.00075265
0.000895027
0.00105222
0.00122561
0.00141706
0.00162859
0.00186247
0.00212129
0.00240791
0.00272557
0.00307785
0.00346877
0.00390281
0.00438495
0.00492074
0.00551637
0.00617873
0.0069155
0.0077352
0.00864734
0.00966248
0.0107924
0.0120501
0.0134503
0.0150089
0.0167441
0.0186756
0.0208257
0.0232189
0.0258823
0.028846
0.0321434
0.0358111
0.0398896
0.0444236
0.0494619
0.055058
0.0612702
0.0681617
0.0758006
0.0842596
0.0936157
0.103949
0.115341
0.127872
0.141619
0.156647
0.173002
0.190701
0.209709
0.22992
0.251117
0.272917
0.294702
0.315505
0.333857
0.347571
0.353431
0.346778
0.320959
0.266509
0.170171
0.0168173
-0.223587
-0.559551
-1.05313
-1.66811
-2.49095
-3.42785
-4.30325
-5.29012
2.48353e-05
8.0711e-05
0.000153792
0.000232557
0.000323653
0.000423838
0.00053581
0.000659061
0.000795497
0.000945749
0.00111161
0.00129456
0.00149656
0.00171972
0.00196648
0.00223953
0.00254193
0.00287707
0.00324875
0.00366119
0.00411913
0.00462781
0.00519311
0.00582154
0.00652038
0.00729771
0.00816254
0.00912489
0.0101959
0.011388
0.012715
0.0141921
0.0158365
0.017667
0.0197047
0.0219729
0.0244975
0.0273072
0.0304336
0.0339118
0.0377807
0.0420829
0.0468654
0.0521798
0.0580826
0.0646352
0.0719043
0.079962
0.088885
0.0987548
0.109656
0.121676
0.1349
0.14941
0.165276
0.18255
0.201254
0.221357
0.242756
0.265233
0.288403
0.311637
0.333951
0.353844
0.369072
0.376329
0.370803
0.345591
0.290807
0.19252
0.0345746
-0.214763
-0.56666
-1.08642
-1.73952
-2.62523
-3.63351
-4.59274
-5.70215
2.62225e-05
8.54194e-05
0.00016248
0.000245578
0.000341551
0.000447081
0.000564953
0.000694673
0.000838229
0.000996302
0.00117078
0.00136321
0.00157567
0.00181039
0.00206993
0.00235712
0.00267518
0.00302768
0.0034186
0.00385241
0.00433407
0.00486911
0.0054637
0.0061247
0.00685974
0.00767735
0.00858699
0.0095992
0.0107257
0.0119795
0.0133752
0.0149288
0.0166582
0.0185835
0.0207266
0.0231121
0.0257671
0.0287219
0.0320098
0.0356676
0.0397362
0.0442603
0.0492896
0.0548781
0.0610853
0.0679758
0.07562
0.0840935
0.0934774
0.103858
0.115324
0.127967
0.14188
0.157149
0.17385
0.192042
0.21175
0.23295
0.255541
0.279308
0.303866
0.328581
0.352454
0.373961
0.390816
0.399632
0.395469
0.371199
0.316544
0.216927
0.0551679
-0.202143
-0.569097
-1.11441
-1.80532
-2.75687
-3.8378
-4.92121
-6.15934
2.7622e-05
9.0165e-05
0.000171204
0.000258631
0.000359465
0.000470315
0.000594053
0.000730203
0.000880827
0.00104667
0.00122969
0.00143153
0.00165438
0.00190057
0.00217277
0.002474
0.00280759
0.00317731
0.00358733
0.00404234
0.00454754
0.00510874
0.00573239
0.0064257
0.00719669
0.00805426
0.00900836
0.01007
0.0112516
0.0125667
0.0140305
0.01566
0.0174739
0.0194931
0.0217407
0.0242426
0.0270271
0.0301259
0.033574
0.03741
0.0416767
0.0464211
0.0516951
0.0575556
0.0640649
0.0712908
0.0793071
0.0881934
0.0980348
0.108922
0.120949
0.134212
0.14881
0.164834
0.182368
0.201474
0.222185
0.244483
0.268272
0.29334
0.319304
0.34553
0.371012
0.394209
0.412803
0.423347
0.420789
0.397809
0.343768
0.243474
0.0787408
-0.185493
-0.566496
-1.1366
-1.86477
-2.88541
-4.03966
-5.22235
-6.49824
2.90339e-05
9.4946e-05
0.000179961
0.000271712
0.000377388
0.000493532
0.0006231
0.000765636
0.000923276
0.00109682
0.00128832
0.0014995
0.00173264
0.0019902
0.00227497
0.00259011
0.0029391
0.0033259
0.00375487
0.0042309
0.00475945
0.00534658
0.00599906
0.00672442
0.00753105
0.00842826
0.00942646
0.0105372
0.0117733
0.0131492
0.0146806
0.0163853
0.018283
0.0203954
0.0227468
0.025364
0.0282769
0.0315186
0.0351255
0.0391382
0.0436014
0.0485642
0.054081
0.0602112
0.0670201
0.0745787
0.0829642
0.0922599
0.102555
0.113945
0.126529
0.140409
0.155687
0.172463
0.190825
0.210843
0.232556
0.255952
0.280943
0.307323
0.334713
0.362481
0.389621
0.414585
0.435032
0.447474
0.446771
0.42544
0.372518
0.272241
0.105431
-0.16458
-0.558481
-1.15247
-1.91713
-3.01027
-4.23918
-5.60456
-6.93117
3.0458e-05
9.97605e-05
0.00018875
0.000284818
0.000395314
0.000516724
0.000652083
0.000800957
0.000965557
0.00114674
0.00134664
0.00156708
0.00181042
0.00207925
0.00237648
0.0027054
0.00306967
0.00347338
0.00392113
0.004418
0.00496969
0.00558254
0.00626359
0.00702072
0.00786268
0.00879919
0.00984111
0.0110005
0.0122907
0.0137268
0.0153253
0.0171046
0.0190852
0.02129
0.0237442
0.0264758
0.029516
0.0328992
0.0366637
0.0408515
0.0455094
0.0506888
0.0564462
0.0628438
0.0699497
0.077838
0.0865896
0.0962915
0.107037
0.118926
0.132063
0.146554
0.162509
0.180032
0.199218
0.220145
0.242859
0.267355
0.293552
0.321253
0.350087
0.379428
0.408276
0.435082
0.4575
0.472013
0.473421
0.454107
0.402829
0.303294
0.135367
-0.139174
-0.544667
-1.16145
-1.96152
-3.13014
-4.43506
-5.92411
-7.33537
3.18939e-05
0.000104607
0.000197566
0.000297942
0.000413236
0.000539882
0.00068099
0.000836153
0.00100765
0.00119641
0.00140464
0.00163424
0.00188769
0.00216768
0.00247725
0.00281982
0.00319921
0.0036197
0.00408604
0.00460356
0.00517818
0.00581649
0.00652586
0.00731447
0.00819142
0.00916687
0.0102521
0.0114597
0.0128036
0.0142993
0.0159642
0.0178174
0.0198803
0.0221766
0.0247326
0.0275775
0.0307438
0.0342673
0.0381877
0.0425491
0.0474
0.0527938
0.0587897
0.0654522
0.0728523
0.0810675
0.0901819
0.100286
0.111479
0.123863
0.137547
0.152646
0.169273
0.187538
0.207545
0.229378
0.25309
0.278686
0.306094
0.335126
0.365422
0.396367
0.426971
0.455697
0.480201
0.49696
0.500736
0.483818
0.434727
0.336694
0.168669
-0.109054
-0.524667
-1.16295
-1.99708
-3.24496
-4.62545
-6.27656
-7.72879
3.33415e-05
0.000109483
0.000206407
0.000311082
0.000431148
0.000562996
0.000709808
0.000871208
0.00104954
0.0012458
0.00146227
0.00170095
0.00196442
0.00225545
0.00257724
0.00293333
0.00332769
0.00376477
0.00424953
0.00478749
0.00538481
0.00604835
0.00678575
0.00760552
0.00851714
0.00953114
0.0106593
0.0119146
0.0133115
0.0148664
0.016597
0.0185234
0.0206677
0.0230546
0.0257115
0.0286687
0.0319598
0.0356222
0.0396971
0.0442303
0.0492722
0.0548785
0.0611104
0.0680353
0.0757269
0.0842658
0.0937396
0.104243
0.115878
0.128752
0.142981
0.158682
0.175976
0.194979
0.215802
0.238537
0.263245
0.289942
0.318564
0.348936
0.380711
0.41329
0.445699
0.47642
0.503128
0.522307
0.528712
0.514574
0.468227
0.372489
0.205447
-0.0740047
-0.498086
-1.15634
-2.02284
-3.35335
-4.81003
-6.69718
-8.18745
3.48003e-05
0.000114386
0.00021527
0.000324231
0.000449043
0.000586058
0.000738527
0.000906107
0.00109121
0.00129489
0.00151953
0.00176719
0.00204055
0.00234252
0.0026764
0.00304586
0.00345504
0.00390855
0.00441153
0.00496971
0.0055895
0.006278
0.00704314
0.00789376
0.00883968
0.00989184
0.0110624
0.0123649
0.0138145
0.0154278
0.0172235
0.0192223
0.0214473
0.0239239
0.0266805
0.0297487
0.0331634
0.0369632
0.0411911
0.0458943
0.0511253
0.0569418
0.0634074
0.070592
0.0785721
0.0874315
0.0972611
0.108159
0.120233
0.133593
0.148361
0.16466
0.182615
0.202352
0.223986
0.247619
0.273321
0.301117
0.330957
0.362678
0.39595
0.430191
0.464453
0.497244
0.526268
0.548043
0.55734
0.546371
0.503339
0.410716
0.245796
-0.0338247
-0.464536
-1.14097
-2.03775
-3.45388
-4.98764
-7.06212
-8.63206
3.62699e-05
0.000119316
0.000224152
0.000337384
0.000466912
0.000609056
0.000767132
0.000940834
0.00113264
0.00134367
0.00157638
0.00183292
0.00211608
0.00242886
0.00277468
0.00315737
0.0035812
0.00405095
0.00457195
0.00515014
0.00579214
0.00650533
0.00729792
0.00817905
0.0091589
0.0102488
0.0114614
0.0128106
0.0143121
0.0159833
0.0178434
0.0199138
0.0222185
0.0247838
0.0276392
0.0308173
0.0343542
0.03829
0.042669
0.0475405
0.0529585
0.058983
0.0656797
0.0731212
0.0813868
0.0905633
0.100745
0.112034
0.124541
0.138384
0.153686
0.170577
0.189189
0.209653
0.232094
0.256621
0.283314
0.312209
0.343269
0.376346
0.41113
0.447062
0.483223
0.518156
0.549611
0.574154
0.586603
0.579195
0.540058
0.451398
0.289796
0.0116742
-0.42363
-1.11615
-2.04072
-3.54586
-5.15488
-7.45528
-9.04934
3.77499e-05
0.000124269
0.000233048
0.000350535
0.000484749
0.000631981
0.000795613
0.000975374
0.00117381
0.0013921
0.00163279
0.00189811
0.00219095
0.00251441
0.00287204
0.0032678
0.00370611
0.00419192
0.00473073
0.0053287
0.00599266
0.00673025
0.00754997
0.00846126
0.00947466
0.0106019
0.0118559
0.0132514
0.0148043
0.0165326
0.0184564
0.0205977
0.0229811
0.0256342
0.0285872
0.0318738
0.0355315
0.0396017
0.0441303
0.049168
0.054771
0.061001
0.0679264
0.0756219
0.0841698
0.0936599
0.10419
0.115866
0.128803
0.143122
0.158952
0.17643
0.195693
0.21688
0.240122
0.265538
0.293219
0.323211
0.355493
0.389935
0.426245
0.463895
0.501998
0.539145
0.573141
0.600621
0.616481
0.613026
0.578373
0.494545
0.337511
0.0626616
-0.374995
-1.08121
-2.03061
-3.62763
-5.31034
-7.90056
-9.53078
3.92397e-05
0.000129244
0.000241956
0.000363681
0.000502546
0.000654823
0.000823955
0.00100971
0.0012147
0.00144017
0.00168874
0.00196273
0.00226513
0.00259914
0.00296844
0.00337711
0.00382972
0.00433139
0.0048878
0.00550529
0.00619096
0.00695266
0.00779918
0.00874027
0.0097868
0.0109509
0.012246
0.013687
0.0152907
0.0170756
0.0190622
0.0212735
0.0237348
0.0264745
0.0295239
0.0329179
0.036695
0.040898
0.0455743
0.0507763
0.056562
0.0629952
0.0701464
0.078093
0.0869199
0.0967199
0.107594
0.119653
0.133014
0.147805
0.164159
0.182218
0.202127
0.22403
0.248068
0.274368
0.303032
0.33412
0.367625
0.403437
0.441288
0.48068
0.520768
0.560196
0.59684
0.627423
0.64695
0.647836
0.618259
0.54015
0.388985
0.119285
-0.318273
-1.03541
-2.00626
-3.6976
-5.45265
-8.312
-9.96176
4.07388e-05
0.000134239
0.000250872
0.000376813
0.000520295
0.000677571
0.000852145
0.00104383
0.0012553
0.00148786
0.0017442
0.00202676
0.00233859
0.00268302
0.00306383
0.00348525
0.00395198
0.0044693
0.00504307
0.00567986
0.00638694
0.00717245
0.00804543
0.00901594
0.0100952
0.0112957
0.0126313
0.0141174
0.0157712
0.0176119
0.0196606
0.021941
0.0244792
0.0273045
0.0304491
0.033949
0.037844
0.0421781
0.0470003
0.0523646
0.0583307
0.0649646
0.0723388
0.0805334
0.0896359
0.0997422
0.110957
0.123394
0.137175
0.152432
0.169304
0.187938
0.208486
0.231099
0.255927
0.283105
0.312749
0.34493
0.379659
0.416846
0.45625
0.497407
0.53952
0.581294
0.620688
0.654535
0.677976
0.68359
0.659678
0.588189
0.444237
0.181666
-0.253129
-0.978027
-1.96643
-3.75393
-5.57923
-8.82207
-10.4571
4.22466e-05
0.000139251
0.000259792
0.000389928
0.000537988
0.000700215
0.00088017
0.00107771
0.00129557
0.00153513
0.00179916
0.00209016
0.00241129
0.002766
0.00315817
0.00359215
0.00407282
0.00460558
0.0051965
0.00585231
0.00658053
0.00738953
0.00828862
0.00928817
0.0103997
0.0116361
0.0130117
0.0145423
0.0162456
0.0181413
0.0202513
0.0225999
0.025214
0.0281237
0.0313624
0.0349668
0.0389781
0.0434417
0.0484078
0.0539322
0.0600764
0.0669083
0.0745028
0.0829421
0.0923166
0.102725
0.114276
0.127086
0.141282
0.157
0.174385
0.193588
0.214769
0.238085
0.263696
0.291748
0.322366
0.355637
0.391589
0.430155
0.471122
0.514067
0.558241
0.602422
0.644664
0.681928
0.709525
0.720242
0.702582
0.638621
0.503263
0.249895
-0.179259
-0.908325
-1.90986
-3.79384
-5.69035
-9.27181
-10.9485
4.37625e-05
0.000144279
0.000268711
0.000403018
0.000555617