/*--------------------------------*- C++ -*----------------------------------*\
| =========                 |                                                 |
| \\      /  F ield         | OpenFOAM: The Open Source CFD Toolbox           |
|  \\    /   O peration     | Version:  4.1                                   |
|   \\  /    A nd           | Web:      www.OpenFOAM.org                      |
|    \\/     M anipulation  |                                                 |
\*---------------------------------------------------------------------------*/
FoamFile
{
    version     2.0;
    format      ascii;
    class       surfaceScalarField;
    location    "1";
    object      phi;
}
// * * * * * * * * * * * * * * * * * * * * * * * * * * * * * * * * * * * * * //

dimensions      [0 3 -1 0 0 0 0];

internalField   nonuniform List<scalar> 
13220
(
-808.068
2107.95
-1246.02
1738.14
-1705.29
1759.16
-2035.01
1629.61
-2302.65
1567.83
-2490.3
1487.54
-2607.84
1417.43
-2651.16
1343.51
-2620.15
1268.88
-2509.83
1189.57
-2321.58
1111.95
-2063.35
1041.65
-1695.42
931.957
-1057.06
661.807
242.844
-145.156
2253.09
-328.529
1921.49
-561.273
1991.88
-715.072
1783.38
-871.287
1724.02
-977.632
1593.87
-1059.54
1499.33
-1105.68
1389.63
-1120.53
1283.71
-1103.51
1172.54
-1054.86
1063.29
-972.345
959.12
-849.021
808.616
-614.097
426.851
-371.256
25.3172
2227.75
-92.9231
2039.71
-128.457
2027.4
-118.437
1773.34
-106.07
1711.63
-72.4336
1560.2
-28.3304
1455.19
23.9876
1337.28
81.4794
1226.19
139.977
1113.99
199.446
1003.78
262.175
896.316
300.308
770.376
193.44
533.532
-177.816
133.576
2094.16
185.481
1987.79
338.158
1874.7
476.138
1635.34
613.205
1574.55
719.645
1453.74
811.676
1363.14
877.713
1271.23
918.193
1185.69
925.869
1106.3
901.056
1028.57
838.941
958.437
734.71
874.613
503.968
764.279
326.152
13.458
2080.69
93.8704
1907.36
267.116
1701.45
422.718
1479.73
558.551
1438.7
653.984
1358.3
716.922
1300.2
745.803
1242.34
744.113
1187.37
707.828
1142.58
641.233
1095.17
540.438
1059.2
408.892
1006.14
224.301
948.834
550.454
7.66951
2073.02
6.71825
1908.31
118.887
1589.27
254.529
1344.08
368.046
1325.18
446.37
1279.97
494.471
1252.1
514.024
1222.79
509.818
1191.58
481.741
1170.67
433.009
1143.91
362.121
1130.14
270.473
1097.84
144.129
1075.25
694.582
127.934
1945.08
99.3376
1936.9
137.909
1550.7
218.056
1263.94
296.111
1247.13
345.723
1230.37
374.159
1223.67
383.518
1213.44
375.793
1199.31
352.947
1193.52
317.334
1179.53
267.512
1179.94
202.202
1163.13
116.683
1160.75
811.266
196.728
1748.36
248.977
1884.66
268.155
1531.53
286.231
1245.87
310.974
1222.4
321.916
1219.44
322.416
1223.18
313.341
1222.52
295.436
1217.23
269.527
1219.45
236.042
1213.03
197.061
1218.97
146.088
1214.14
93.4393
1213.45
904.705
172.814
1575.55
301.234
1756.25
344.249
1488.52
335.52
1254.6
320.442
1237.49
303.882
1236
285.456
1241.61
263.863
1244.12
238.549
1242.55
211.959
1246.04
179.865
1245.12
148.739
1250.07
108.805
1254.06
80.1408
1242.09
984.846
118.626
1456.94
257.061
1617.82
309.937
1435.66
298.057
1266.49
271.401
1264.15
247.706
1259.7
224.527
1264.8
202.68
1265.97
178.575
1266.66
156.769
1267.86
131.362
1270.53
110.628
1270.84
81.5512
1283.17
71.6164
1252.06
1056.46
81.3977
1375.55
192.353
1506.88
235.855
1392.17
225.837
1276.53
202.916
1287.09
184.485
1278.15
165.428
1283.87
148.762
1282.66
131.193
1284.25
116.294
1282.77
98.0713
1288.77
87.9352
1280.98
68.9453
1302.17
67.3865
1253.63
1123.85
69.5313
1306.04
136.337
1440.09
162.319
1366.21
157.183
1281.69
142.124
1302.17
130.712
1289.59
117.931
1296.67
105.717
1294.89
92.2918
1297.69
82.7329
1292.35
68.1583
1303.36
61.9283
1287.24
45.8661
1318.26
55.9473
1243.58
1179.8
60.8833
1245.17
83.5678
1417.42
83.5439
1366.25
59.9515
1305.29
36.7783
1325.36
17.0455
1309.33
-0.574399
1314.31
-9.39356
1303.72
-17.067
1305.38
-15.223
1290.51
-12.1744
1300.32
3.31094
1271.77
19.1207
1302.46
37.1387
1225.57
1216.94
15.9927
1229.2
-13.802
1447.23
-47.8884
1400.35
-62.1349
1319.55
-70.9337
1334.17
-71.1696
1309.58
-64.3004
1307.45
-63.5153
1302.94
-56.5636
1298.43
-53.6166
1287.57
-46.9582
1293.67
-43.4273
1268.25
-54.2201
1313.26
-94.4288
1265.79
1122.51
41.3298
14.3326
-40.8821
-173.921
-286.198
-423.342
-556.695
-649.533
-719.428
-726.958
-669.436
-584.31
-427.263
-283.199
-0.000207726
-13.2814
13.2812
-13.2816
-13.2818
-13.2819
-31.1876
17.9058
-31.1879
-31.188
-31.1882
-64.6349
33.4467
-64.635
-64.635
-114.545
49.9099
-114.545
-114.545
-114.545
-179.449
64.9042
-179.449
-179.449
-240.204
60.755
-240.204
-240.204
-240.204
-306.655
66.4511
-306.655
-306.656
-306.656
-398.35
91.6941
-398.35
-398.35
-478.468
80.1187
-478.468
-478.469
-478.469
-580.583
102.114
-580.583
-580.583
-679.877
99.2942
-679.877
-679.877
-679.877
-794.232
114.355
-794.232
-794.232
-794.232
-943.414
149.182
-943.414
-943.414
-1101.05
157.633
-1101.05
-1101.05
-1101.05
-1290.47
189.421
-1290.47
-1290.47
-1290.47
-1531.4
240.93
-1531.4
-1531.4
-1803.14
271.741
-1803.14
-1803.14
-1803.14
-2132.44
329.302
-2132.44
-2132.44
-2505.54
373.1
-2505.54
-2505.54
-2505.54
-2946.86
441.319
-2946.86
-2946.86
-2946.86
-3411.85
464.99
-3411.85
-3411.85
-4101.12
689.263
-4101.11
-4101.11
-3951.5
-3802.56
-3649.97
-4373.33
888.184
-4211.07
-4016.21
-3807.92
-3596.19
-3382.59
-3169.55
-2958.81
-2750.22
-3806.77
1271.38
-3593.81
-3370.86
-3143.8
-2917.31
-2687.02
-2460.73
-2243.11
-2031.58
-3241.71
1425.92
-3023.91
-2792.18
-2554.05
-2310.21
-2063.38
-1815.9
-1569.37
-1325.52
-1085.56
-2738.07
1889.74
-2496.92
-2241.49
-1982.84
-1721.2
-1457.77
-1193.29
-930.166
-670.443
-2649.42
2232.98
-2387.66
-2112.39
-1839.2
-1567
-1296.71
-1028.57
-762.818
-497.738
-2752.87
2520.99
-2479.31
-2199.93
-1925.52
-1651.44
-1378.46
-1108.13
-840.361
-572.09
-3000.6
2702.47
-2724.28
-2450.3
-2177.43
-1906.83
-1638.63
-1361.93
-1087.71
-815.802
-546.341
-2639.17
2364.53
-2360.61
-2080.93
-1801.03
-1522.23
-1247.6
-991.422
-763.148
-538.772
-1953.3
1633.19
-1732.75
-1515.75
-1515.75
-2054.78
539.03
-2204.66
149.887
-2204.66
-2147.91
-56.7542
-2147.91
-1912.03
-235.882
-1621.23
-290.798
-1621.23
-1219.4
-401.831
-847.245
-372.152
-847.245
-485.444
-361.802
-485.444
-135.529
-349.915
236.179
-371.708
236.179
539.592
-303.413
539.591
806.071
-266.48
1068.8
-262.729
1068.8
1289.39
-220.59
1480.05
-190.663
1480.05
1650.98
-170.927
1650.98
1816.27
-165.287
1934.84
-118.577
1934.84
2048.31
-113.465
2048.31
2163.9
-115.594
2221.14
-57.2337
2221.14
2305.36
-84.2219
2326.14
-20.7822
2326.14
2368.22
-42.0831
2368.22
2435.77
-67.5415
2454.53
-18.7649
2454.53
2485.59
-31.0601
2485.59
2537.48
-51.8896
2538.7
-1.22226
2538.7
2573.48
-34.7772
2554.77
18.7069
2554.77
2560.71
-5.93863
2560.71
2598.86
-38.1491
2597.11
1.75317
2597.11
2608.16
-11.0517
2608.16
2643.1
-34.9425
2633.42
9.68446
2633.42
2656.78
-23.3611
2631.05
25.7266
2631.05
2629.8
1.2494
2629.8
2662.46
-32.6595
2658.84
3.62327
2658.84
2668.81
-9.97017
2668.81
2704.83
-36.0258
2698.73
6.10533
2698.73
2728.8
-30.0687
2711.28
17.5134
2711.28
2723.93
-12.6459
2723.93
-52.8975
-0.331641
-2.15215
-0.312874
-3.75914
-0.303534
-5.10004
-0.296361
-6.29589
-0.292511
-7.48753
-0.290535
-8.63094
-0.290775
-9.7714
-0.29279
-10.9014
-0.296605
-12.0381
-0.302078
-13.1848
-0.309172
-14.3502
-0.317834
-15.5403
-0.328036
-16.7615
-0.339761
-18.02
-0.353002
-19.322
-0.367766
-20.6736
-0.384068
-22.081
-0.401936
-23.5503
-0.421407
-25.0881
-0.442529
-26.7009
-0.465361
-28.3955
-0.489971
-30.1792
-0.516442
-32.0593
-0.544866
-34.0437
-0.575346
-36.1407
-0.608
-38.3591
-0.642957
-40.7083
-0.680364
-43.1984
-0.72038
-45.84
-0.763182
-48.6447
-0.808963
-51.6251
-0.857938
-54.7944
-0.910342
-58.1672
-0.966431
-61.7594
-1.02649
-65.5879
-1.09082
-69.6714
-1.15978
-74.03
-1.23372
-78.6859
-1.31305
-83.6631
-1.39822
-88.9879
-1.48971
-94.6889
-1.58804
-100.798
-1.6938
-107.348
-1.80761
-114.378
-1.93014
-121.929
-2.06213
-130.045
-2.20436
-138.775
-2.35767
-148.174
-2.52298
-158.298
-2.70121
-169.212
-2.89338
-180.985
-3.10048
-193.69
-3.32357
-207.407
-3.56364
-222.223
-3.82162
-238.229
-4.09833
-255.519
-4.39432
-274.194
-4.70982
-294.354
-5.04447
-316.1
-5.39711
-339.526
-5.76541
-364.716
-6.14538
-391.734
-6.53073
-420.611
-6.912
-451.329
-7.27558
-483.796
-7.60237
-517.815
-7.8665
-553.045
-8.03395
-588.941
-8.06219
-624.693
-7.89874
-659.135
-7.49273
-690.784
-6.77209
-717.168
-5.74412
-737.084
-4.28268
-743.817
-2.69598
-743.148
-0.229093
-713.737
1.02002
-691.992
26.26
-614.707
-676.704
-0.479968
-2.17499
-0.453013
-3.78609
-0.439721
-5.11333
-0.429882
-6.30573
-0.424578
-7.49283
-0.422049
-8.63347
-0.422629
-9.77082
-0.425758
-10.8982
-0.431452
-12.0324
-0.439521
-13.1767
-0.449912
-14.3398
-0.462553
-15.5276
-0.477405
-16.7467
-0.494444
-18.003
-0.513661
-19.3028
-0.535065
-20.6522
-0.558678
-22.0573
-0.584538
-23.5244
-0.612696
-25.0599
-0.643221
-26.6704
-0.676193
-28.3626
-0.711709
-30.1437
-0.749883
-32.0211
-0.790841
-34.0027
-0.834731
-36.0968
-0.881713
-38.3121
-0.93197
-40.658
-0.985701
-43.1446
-1.04313
-45.7826
-1.1045
-48.5834
-1.17007
-51.5595
-1.24016
-54.7243
-1.31507
-58.0923
-1.39516
-61.6793
-1.48082
-65.5022
-1.57247
-69.5797
-1.67059
-73.9319
-1.77566
-78.5809
-1.88826
-83.5505
-2.00898
-88.8672
-2.13848
-94.5594
-2.27748
-100.659
-2.42676
-107.199
-2.58716
-114.218
-2.75959
-121.756
-2.94503
-129.859
-3.14454
-138.576
-3.35925
-147.959
-3.59033
-158.067
-3.83905
-168.963
-4.10668
-180.717
-4.39454
-193.402
-4.70392
-207.098
-5.03604
-221.891
-5.39201
-237.873
-5.77265
-255.138
-6.17842
-273.788
-6.60916
-293.923
-7.06382
-315.645
-7.54003
-339.05
-8.03359
-364.223
-8.5377
-391.23
-9.042
-420.107
-9.53131
-450.839
-9.98409
-483.343
-10.3707
-517.429
-10.6512
-552.765
-10.7742
-588.818
-10.6761
-624.791
-10.2803
-659.531
-9.51405
-691.55
-8.28101
-718.401
-6.60087
-738.764
-4.33103
-746.087
-1.94155
-745.537
1.18079
-716.86
2.74781
-693.559
0.192421
-612.152
-689.157
-0.564907
-2.20146
-0.53444
-3.81656
-0.519102
-5.12867
-0.50802
-6.31681
-0.502048
-7.49881
-0.499396
-8.63612
-0.500311
-9.7699
-0.504222
-10.8943
-0.511118
-12.0255
-0.520796
-13.167
-0.533194
-14.3274
-0.548232
-15.5126
-0.565865
-16.729
-0.586066
-17.9828
-0.608826
-19.2801
-0.634156
-20.6269
-0.66208
-22.0294
-0.692644
-23.4939
-0.725906
-25.0267
-0.761946
-26.6343
-0.800857
-28.3237
-0.842751
-30.1018
-0.887758
-31.9761
-0.936026
-33.9544
-0.987723
-36.0451
-1.04303
-38.2568
-1.10217
-40.5989
-1.16536
-43.0814
-1.23286
-45.7151
-1.30495
-48.5113
-1.38193
-51.4825
-1.46416
-54.6421
-1.55198
-58.0045
-1.64582
-61.5855
-1.74611
-65.402
-1.85334
-69.4725
-1.96803
-73.8172
-2.09077
-78.4581
-2.22219
-83.4191
-2.36296
-88.7264
-2.51385
-94.4085
-2.67565
-100.497
-2.84925
-107.025
-3.0356
-114.032
-3.23574
-121.556
-3.45076
-129.644
-3.68185
-138.345
-3.93027
-147.711
-4.19733
-157.8
-4.48443
-168.676
-4.79297
-180.408
-5.12439
-193.07
-5.48007
-206.742
-5.8613
-221.51
-6.26919
-237.465
-6.7045
-254.703
-7.16751
-273.325
-7.65771
-293.433
-8.17347
-315.129
-8.71157
-338.512
-9.26646
-363.668
-9.82946
-390.667
-10.3875
-419.549
-10.9217
-450.305
-11.4054
-482.859
-11.8022
-517.032
-12.0636
-552.503
-12.1272
-588.754
-11.9166
-625.002
-11.3409
-660.107
-10.3133
-692.577
-8.72848
-719.986
-6.60577
-740.887
-3.82004
-748.872
-0.90166
-748.456
2.79073
-720.552
4.94771
-695.716
5.75633
-612.961
-665.888
-0.656812
-2.23051
-0.624103
-3.84927
-0.607239
-5.14554
-0.595161
-6.32889
-0.588725
-7.50524
-0.586122
-8.63873
-0.587565
-9.76846
-0.592474
-10.8894
-0.600824
-12.0172
-0.612404
-13.1555
-0.627144
-14.3127
-0.644958
-15.4948
-0.665798
-16.7082
-0.689636
-17.959
-0.716464
-19.2532
-0.746294
-20.5971
-0.779157
-21.9965
-0.815107
-23.4579
-0.854213
-24.9876
-0.896567
-26.592
-0.942277
-28.2779
-0.991475
-30.0526
-1.04431
-31.9233
-1.10096
-33.8978
-1.1616
-35.9844
-1.22647
-38.1919
-1.2958
-40.5296
-1.36986
-43.0074
-1.44894
-45.636
-1.53337
-48.4268
-1.6235
-51.3924
-1.71972
-54.5459
-1.82246
-57.9018
-1.93218
-61.4757
-2.0494
-65.2847
-2.17467
-69.3472
-2.3086
-73.6833
-2.45186
-78.3149
-2.60516
-83.2658
-2.7693
-88.5623
-2.94512
-94.2327
-3.13357
-100.308
-3.33564
-106.823
-3.55243
-113.815
-3.78512
-121.324
-4.03495
-129.395
-4.30327
-138.076
-4.59152
-147.422
-4.90119
-157.49
-5.23385
-168.344
-5.59108
-180.051
-5.97447
-192.687
-6.38558
-206.331
-6.82579
-221.07
-7.29629
-236.994
-7.79782
-254.202
-8.33053
-272.792
-8.89363
-292.87
-9.48495
-314.538
-10.1004
-337.896
-10.7331
-363.035
-11.3725
-390.028
-12.0026
-418.919
-12.6006
-449.707
-13.1345
-482.325
-13.5606
-516.606
-13.8208
-552.243
-13.8408
-588.734
-13.5295
-625.313
-12.7795
-660.857
-11.4872
-693.87
-9.53402
-721.939
-6.93639
-743.485
-3.58271
-752.226
-0.0694036
-751.969
4.18089
-724.802
6.81101
-698.346
21.4146
-627.564
-674.542
-0.743747
-2.26119
-0.709827
-3.88319
-0.691894
-5.16347
-0.679149
-6.34164
-0.672477
-7.51191
-0.670092
-8.64111
-0.672184
-9.76637
-0.678175
-10.8834
-0.688032
-12.0073
-0.701542
-13.142
-0.718629
-14.2956
-0.739205
-15.4742
-0.763221
-16.6842
-0.790646
-17.9315
-0.821476
-19.2224
-0.855727
-20.5628
-0.893436
-21.9588
-0.934662
-23.4167
-0.979489
-24.9427
-1.02802
-26.5434
-1.08038
-28.2256
-1.13671
-29.9962
-1.19719
-31.8628
-1.26201
-33.833
-1.3314
-35.9151
-1.40559
-38.1177
-1.48486
-40.4503
-1.56952
-42.9227
-1.65988
-45.5456
-1.75633
-48.3304
-1.85926
-51.2894
-1.96911
-54.436
-2.08637
-57.7845
-2.21155
-61.3506
-2.34523
-65.1511
-2.48804
-69.2044
-2.64067
-73.5307
-2.80386
-78.1517
-2.97842
-83.0913
-3.16524
-88.3755
-3.36527
-94.0327
-3.57957
-100.094
-3.80925
-106.594
-4.05555
-113.568
-4.31976
-121.059
-4.6033
-129.111
-4.90768
-137.772
-5.23447
-147.095
-5.58535
-157.139
-5.96205
-167.967
-6.36633
-179.647
-6.79993
-192.253
-7.26455
-205.866
-7.76169
-220.573
-8.29258
-236.463
-8.85797
-253.636
-9.45787
-272.192
-10.0912
-292.237
-10.7553
-313.874
-11.4453
-337.206
-12.1529
-362.327
-12.8658
-389.315
-13.5653
-418.219
-14.2248
-449.048
-14.807
-481.743
-15.2612
-516.152
-15.5203
-551.984
-15.4978
-588.757
-15.0885
-625.723
-14.1685
-661.777
-12.6167
-695.422
-10.3014
-724.254
-7.2335
-746.552
-3.31608
-756.143
0.796594
-756.082
5.56344
-729.569
8.16894
-700.951
7.02664
-626.422
-661.41
-0.828221
-2.29281
-0.79384
-3.91757
-0.77525
-5.18206
-0.762133
-6.35475
-0.755441
-7.51861
-0.75344
-8.64311
-0.756311
-9.7635
-0.763493
-10.8762
-0.774947
-11.9958
-0.790464
-13.1264
-0.809965
-14.2761
-0.833362
-15.4508
-0.860604
-16.6569
-0.891664
-17.9005
-0.92654
-19.1875
-0.96525
-20.5241
-1.00784
-21.9162
-1.05438
-23.3702
-1.10496
-24.8921
-1.1597
-26.4887
-1.21874
-28.1666
-1.28224
-29.9327
-1.3504
-31.7946
-1.42343
-33.7599
-1.50158
-35.8369
-1.58513
-38.0342
-1.67438
-40.3611
-1.76967
-42.8274
-1.87136
-45.4439
-1.97987
-48.2219
-2.09565
-51.1737
-2.21917
-54.3125
-2.35099
-57.6527
-2.49168
-61.2099
-2.64189
-65.0008
-2.8023
-69.044
-2.97369
-73.3593
-3.15688
-77.9685
-3.35278
-82.8954
-3.56236
-88.1659
-3.78669
-93.8083
-4.02693
-99.8538
-4.28433
-106.336
-4.56023
-113.293
-4.85611
-120.764
-5.1735
-128.794
-5.51407
-137.431
-5.87957
-146.73
-6.27184
-156.747
-6.69279
-167.546
-7.14434
-179.195
-7.62842
-191.769
-8.14685
-205.348
-8.70126
-220.018
-9.29295
-235.872
-9.92268
-253.006
-10.5903
-271.525
-11.2946
-291.532
-12.0324
-313.136
-12.7978
-336.441
-13.5818
-361.543
-14.3698
-388.527
-15.1408
-417.448
-15.8644
-448.324
-16.4984
-481.109
-16.985
-515.665
-17.2479
-551.721
-17.1891
-588.815
-16.6886
-626.223
-15.6058
-662.86
-13.8012
-697.226
-11.128
-726.927
-7.5889
-750.092
-3.10135
-760.631
1.63233
-760.815
6.93777
-734.875
9.92212
-703.936
26.9661
-643.466
-670.469
-0.910351
-2.32486
-0.876057
-3.95187
-0.857131
-5.20099
-0.843895
-6.36799
-0.83737
-7.52513
-0.835903
-8.64458
-0.839675
-9.75972
-0.848145
-10.8678
-0.861278
-11.9827
-0.87887
-13.1088
-0.900841
-14.2541
-0.927106
-15.4246
-0.957616
-16.6264
-0.992345
-17.8657
-1.03129
-19.1486
-1.07449
-20.4809
-1.12198
-21.8688
-1.17385
-23.3183
-1.2302
-24.8358
-1.29116
-26.4277
-1.35688
-28.1008
-1.42756
-29.8621
-1.5034
-31.7188
-1.58465
-33.6787
-1.67157
-35.75
-1.76448
-37.9413
-1.8637
-40.2618
-1.96962
-42.7215
-2.08263
-45.3309
-2.2032
-48.1013
-2.33181
-51.0451
-2.469
-54.1753
-2.61537
-57.5063
-2.77156
-61.0537
-2.93828
-64.8341
-3.11628
-68.866
-3.30642
-73.1692
-3.50959
-77.7653
-3.7268
-82.6782
-3.95912
-87.9336
-4.20772
-93.5597
-4.47388
-99.5876
-4.75897
-106.051
-5.06446
-112.987
-5.39196
-120.436
-5.74316
-128.442
-6.1199
-137.055
-6.52407
-146.326
-6.95771
-156.314
-7.42288
-167.081
-7.92169
-178.697
-8.45622
-191.235
-9.02846
-204.776
-9.64017
-219.406
-10.2927
-235.219
-10.9869
-252.312
-11.7225
-270.789
-12.498
-290.757
-13.3097
-312.324
-14.1514
-335.599
-15.0124
-360.682
-15.8768
-387.662
-16.7209
-416.604
-17.511
-447.534
-18.1996
-480.42
-18.7225
-515.142
-18.9944
-551.449
-18.9054
-588.904
-18.321
-626.807
-17.0832
-664.098
-15.0329
-699.277
-12.0067
-729.953
-7.99599
-754.102
-2.93066
-765.696
2.44317
-766.189
8.15761
-740.589
11.0775
-706.856
5.16231
-637.551
-675.277
-0.990469
-2.35696
-0.956646
-3.98569
-0.937655
-5.21998
-0.924521
-6.38112
-0.918336
-7.53132
-0.917541
-8.64537
-0.922326
-9.75494
-0.932179
-10.8579
-0.947071
-11.9678
-0.966804
-13.0891
-0.991303
-14.2296
-1.02048
-15.3954
-1.0543
-16.5926
-1.09274
-17.8273
-1.13579
-19.1055
-1.18349
-20.4332
-1.23591
-21.8163
-1.29313
-23.2611
-1.35526
-24.7737
-1.42245
-26.3605
-1.49487
-28.0284
-1.57273
-29.7842
-1.65626
-31.6353
-1.74572
-33.5892
-1.84142
-35.6543
-1.94368
-37.839
-2.05288
-40.1526
-2.16942
-42.605
-2.29375
-45.2066
-2.42637
-47.9687
-2.56781
-50.9036
-2.71866
-54.0244
-2.87957
-57.3454
-3.05125
-60.882
-3.23445
-64.6509
-3.43003
-68.6704
-3.63889
-72.9603
-3.86203
-77.5422
-4.10053
-82.4397
-4.35556
-87.6785
-4.62841
-93.2869
-4.92045
-99.2956
-5.23318
-105.738
-5.56822
-112.652
-5.9273
-120.077
-6.31227
-128.058
-6.72511
-136.642
-7.16791
-145.883
-7.64285
-155.839
-8.15219
-166.572
-8.6982
-178.15
-9.28315
-190.65
-9.90917
-204.15
-10.5782
-218.737
-11.2916
-234.506
-12.0503
-251.554
-12.8539
-269.985
-13.7009
-289.91
-14.587
-311.438
-15.5054
-334.681
-16.4444
-359.743
-17.3864
-386.72
-18.3054
-415.685
-19.1642
-446.675
-19.9107
-479.674
-20.4742
-514.579
-20.7604
-551.163
-20.648
-589.017
-19.9876
-627.468
-18.6032
-665.482
-16.3152
-701.565
-12.9416
-733.327
-8.4585
-758.585
-2.80456
-771.35
3.24227
-772.236
9.61403
-746.961
12.6628
-709.904
9.59799
-634.486
-662.056
-1.06883
-2.38881
-1.03576
-4.01876
-1.01692
-5.23881
-1.00408
-6.39396
-0.998391
-7.53701
-0.998396
-8.64537
-1.0043
-9.74903
-1.01563
-10.8466
-1.03235
-11.9511
-1.0543
-13.0672
-1.08138
-14.2026
-1.11353
-15.3632
-1.1507
-16.5554
-1.19287
-17.7851
-1.24006
-19.0583
-1.2923
-20.3809
-1.34967
-21.759
-1.41225
-23.1985
-1.48019
-24.7057
-1.55362
-26.2871
-1.63276
-27.9493
-1.71781
-29.6992
-1.80904
-31.544
-1.90673
-33.4915
-2.0112
-35.5498
-2.12283
-37.7274
-2.24201
-40.0335
-2.36918
-42.4778
-2.50483
-45.0709
-2.6495
-47.824
-2.80377
-50.7493
-2.96828
-53.8599
-3.14374
-57.17
-3.3309
-60.6948
-3.53059
-64.4512
-3.74374
-68.4573
-3.97132
-72.7327
-4.21442
-77.2991
-4.4742
-82.1799
-4.75194
-87.4008
-5.04902
-92.9898
-5.36693
-98.9777
-5.70731
-105.398
-6.07188
-112.287
-6.46252
-119.686
-6.88125
-127.639
-7.3302
-136.193
-7.81161
-145.402
-8.32785
-155.322
-8.88135
-166.018
-9.47458
-177.557
-10.11
-190.014
-10.7898
-203.47
-11.5162
-218.011
-12.2906
-233.731
-13.114
-250.73
-13.986
-269.113
-14.9047
-288.991
-15.8659
-310.477
-16.8617
-333.685
-17.8798
-358.725
-18.9009
-385.699
-19.8968
-414.689
-20.8272
-445.745
-21.6355
-478.866
-22.2444
-513.97
-22.5512
-550.856
-22.423
-589.145
-21.6955
-628.195
-20.1743
-667.003
-17.6578
-704.081
-13.9428
-737.042
-8.98677
-763.541
-2.73324
-777.604
4.02112
-778.99
10.9509
-753.891
14.6179
-713.571
23.6556
-643.524
-671.06
-1.14564
-2.42021
-1.11351
-4.0509
-1.09501
-5.25731
-1.08263
-6.40634
-1.07757
-7.54207
-1.07849
-8.64445
-1.08562
-9.74191
-1.09851
-10.8337
-1.11714
-11.9325
-1.14136
-13.043
-1.17108
-14.1728
-1.20624
-15.3281
-1.24681
-16.5149
-1.29276
-17.7392
-1.34412
-19.007
-1.40093
-20.3241
-1.46326
-21.6966
-1.53124
-23.1305
-1.60499
-24.632
-1.68469
-26.2074
-1.77055
-27.8634
-1.86281
-29.6069
-1.96174
-31.4451
-2.06767
-33.3856
-2.18093
-35.4365
-2.30193
-37.6064
-2.43109
-39.9043
-2.56889
-42.34
-2.71586
-44.9239
-2.87258
-47.6673
-3.03968
-50.5822
-3.21785
-53.6818
-3.40784
-56.98
-3.61047
-60.4922
-3.82665
-64.235
-4.05736
-68.2266
-4.30365
-72.4864
-4.56669
-77.036
-4.84773
-81.8988
-5.14816
-87.1004
-5.46945
-92.6685
-5.81321
-98.6339
-6.18119
-105.03
-6.57526
-111.893
-6.99744
-119.264
-7.44989
-127.186
-7.93489
-135.708
-8.45488
-144.882
-9.01238
-154.765
-9.61001
-165.42
-10.2504
-176.917
-10.9362
-189.329
-11.6699
-202.736
-12.4536
-217.227
-13.2891
-232.896
-14.1773
-249.842
-15.1178
-268.173
-16.1087
-288
-17.1454
-309.44
-18.2195
-332.611
-19.3176
-357.627
-20.4194
-384.598
-21.4943
-413.614
-22.4992
-444.74
-23.3731
-477.992
-24.0326
-513.31
-24.3667
-550.522
-24.2309
-589.281
-23.446
-628.98
-21.7986
-668.65
-19.0636
-706.816
-15.0143
-741.091
-9.58518
-768.971
-2.7181
-784.471
4.78136
-786.49
12.2422
-761.352
16.8557
-718.185
2.84856
-629.517
-666.962
-1.22108
-2.45101
-1.19001
-4.08196
-1.17201
-5.27531
-1.16023
-6.41812
-1.15593
-7.54637
-1.15788
-8.6425
-1.16631
-9.73347
-1.18084
-10.8192
-1.20146
-11.9118
-1.22801
-13.0164
-1.26043
-14.1404
-1.29866
-15.2898
-1.34266
-16.4709
-1.39243
-17.6894
-1.44799
-18.9514
-1.5094
-20.2627
-1.57673
-21.6293
-1.65012
-23.0571
-1.72971
-24.5524
-1.8157
-26.1214
-1.9083
-27.7708
-2.00778
-29.5074
-2.11443
-31.3384
-2.2286
-33.2715
-2.35066
-35.3145
-2.48103
-37.476
-2.62018
-39.7652
-2.76862
-42.1916
-2.92692
-44.7656
-3.09569
-47.4985
-3.27562
-50.4023
-3.46745
-53.4899
-3.67197
-56.7754
-3.89009
-60.2741
-4.12275
-64.0024
-4.37101
-67.9783
-4.636
-72.2214
-4.91898
-76.7531
-5.22128
-81.5965
-5.54438
-86.7773
-5.88987
-92.323
-6.25947
-98.2643
-6.65505
-104.634
-7.0786
-111.47
-7.5323
-118.81
-8.01844
-126.7
-8.53949
-135.187
-9.09803
-144.323
-9.69677
-154.166
-10.3385
-164.779
-11.0261
-176.229
-11.7623
-188.592
-12.5499
-201.949
-13.391
-216.386
-14.2877
-231.999
-15.2409
-248.889
-16.2503
-267.164
-17.3137
-286.937
-18.4264
-308.328
-19.5796
-331.458
-20.7591
-356.448
-21.9432
-383.414
-23.0996
-412.458
-24.1822
-443.658
-25.1259
-477.048
-25.8418
-512.594
-26.2104
-550.154
-26.0762
-589.415
-25.2446
-629.812
-23.4827
-670.412
-20.5407
-709.758
-16.1651
-745.467
-10.2632
-774.872
-2.76665
-791.967
5.51805
-794.775
13.8309
-769.664
19.7022
-724.056
11.891
-621.705
-629.344
-1.29527
-2.48108
-1.26537
-4.11187
-1.24798
-5.2927
-1.23693
-6.42917
-1.2335
-7.54981
-1.23657
-8.63943
-1.24641
-9.72363
-1.26266
-10.8029
-1.28533
-11.8892
-1.31428
-12.9875
-1.34946
-14.1052
-1.3908
-15.2485
-1.43828
-16.4234
-1.4919
-17.6358
-1.5517
-18.8916
-1.61773
-20.1967
-1.69009
-21.5569
-1.76892
-22.9783
-1.85437
-24.4669
-1.94666
-26.0291
-2.04602
-27.6715
-2.15273
-29.4007
-2.26712
-31.2241
-2.38954
-33.149
-2.52041
-35.1836
-2.66016
-37.3363
-2.80931
-39.616
-2.9684
-42.0325
-3.13803
-44.596
-3.31886
-47.3177
-3.51163
-50.2096
-3.71711
-53.2844
-3.93617
-56.5564
-4.16976
-60.0405
-4.4189
-63.7532
-4.68471
-67.7125
-4.9684
-71.9377
-5.27131
-76.4502
-5.59486
-81.273
-5.94062
-86.4315
-6.3103
-91.9534
-6.70571
-97.8689
-7.12886
-104.211
-7.58188
-111.017
-8.06706
-118.325
-8.58688
-126.18
-9.14393
-134.63
-9.741
-143.726
-10.381
-153.526
-11.0668
-164.093
-11.8016
-175.495
-12.5882
-187.806
-13.4296
-201.107
-14.3283
-215.488
-15.2862
-231.041
-16.3045
-247.871
-17.383
-266.085
-18.5195
-285.8
-19.7089
-307.138
-20.9421
-330.224
-22.2042
-355.186
-23.4723
-382.145
-24.7126
-411.217
-25.8762
-442.494
-26.8945
-476.03
-27.6728
-511.816
-28.0837
-549.743
-27.9608
-589.538
-27.0941
-630.679
-25.2306
-672.276
-22.0943
-712.894
-17.4018
-750.16
-11.0284
-781.246
-2.88757
-800.108
6.21774
-803.88
15.434
-778.881
22.2402
-730.862
29.5321
-628.997
-623.173
-1.36835
-2.51035
-1.33966
-4.14055
-1.323
-5.30936
-1.31279
-6.43938
-1.31032
-7.55229
-1.31461
-8.63514
-1.32594
-9.7123
-1.34399
-10.7849
-1.36878
-11.8644
-1.40019
-12.9561
-1.43817
-14.0673
-1.48267
-15.204
-1.53368
-16.3724
-1.5912
-17.5783
-1.65527
-18.8276
-1.72596
-20.126
-1.80338
-21.4795
-1.88766
-22.894
-1.979
-24.3756
-2.07761
-25.9305
-2.18374
-27.5653
-2.29771
-29.2867
-2.41985
-31.1019
-2.55054
-33.0183
-2.69022
-35.0439
-2.83938
-37.1871
-2.99853
-39.4569
-3.16827
-41.8627
-3.34924
-44.415
-3.54214
-47.1248
-3.74775
-50.0039
-3.96689
-53.0653
-4.2005
-56.3228
-4.44957
-59.7914
-4.71519
-63.4876
-4.99855
-67.4291
-5.30094
-71.6353
-5.62376
-76.1273
-5.96856
-80.9282
-6.33698
-86.0631
-6.73082
-91.5595
-7.15205
-97.4477
-7.60275
-103.761
-8.08521
-110.534
-8.60187
-117.809
-9.15533
-125.627
-9.74838
-134.037
-10.3839
-143.09
-11.0651
-152.845
-11.795
-163.363
-12.5769
-174.713
-13.414
-186.969
-14.3093
-200.212
-15.2656
-214.531
-16.2849
-230.022
-17.3686
-246.787
-18.5165
-264.937
-19.7264
-284.59
-20.9931
-305.872
-22.3072
-328.91
-23.6532
-353.839
-25.0074
-380.791
-26.3342
-409.891
-27.5826
-441.246
-28.6802
-474.932
-29.5273
-510.969
-29.989
-549.281
-29.8879
-589.639
-28.9988
-631.568
-27.0479
-674.227
-23.7313
-716.211
-18.7327
-755.158
-11.8902
-788.088
-3.09048
-808.908
6.87567
-813.846
17.0337
-789.039
24.4805
-738.309
18.7126
-623.229
-594.776
-1.44041
-2.53878
-1.41298
-4.16799
-1.39713
-5.32521
-1.38784
-6.44866
-1.38643
-7.5537
-1.39202
-8.62955
-1.40492
-9.6994
-1.42484
-10.765
-1.45182
-11.8374
-1.48575
-12.9221
-1.52659
-14.0264
-1.57431
-15.1563
-1.62889
-16.3178
-1.69034
-17.5168
-1.75872
-18.7592
-1.8341
-20.0506
-1.9166
-21.397
-2.00638
-22.8042
-2.10363
-24.2784
-2.20858
-25.8256
-2.32151
-27.4524
-2.44275
-29.1655
-2.57265
-30.972
-2.71163
-32.8794
-2.86014
-34.8954
-3.01871
-37.0285
-3.18788
-39.2877
-3.36829
-41.6823
-3.56061
-44.2227
-3.76558
-46.9198
-3.98404
-49.7855
-4.21685
-52.8325
-4.465
-56.0746
-4.72955
-59.5269
-5.01166
-63.2055
-5.31256
-67.1282
-5.63365
-71.3143
-5.9764
-75.7846
-6.34243
-80.5622
-6.7335
-85.672
-7.15151
-91.1415
-7.59852
-97.0007
-8.07677
-103.282
-8.58866
-110.022
-9.13676
-117.261
-9.72385
-125.04
-10.3529
-133.408
-11.0269
-142.416
-11.7493
-152.123
-12.5232
-162.589
-13.3523
-173.884
-14.2398
-186.081
-15.1891
-199.263
-16.203
-213.517
-17.2838
-228.941
-18.4331
-245.638
-19.6506
-263.72
-20.9344
-283.307
-22.2792
-304.527
-23.6752
-327.514
-25.1066
-352.408
-26.5487
-379.349
-27.9649
-408.474
-29.3017
-439.909
-30.4839
-473.75
-31.4067
-510.046
-31.928
-548.76
-31.86
-589.707
-30.9622
-632.466
-28.9393
-676.249
-25.4583
-719.692
-20.1662
-760.45
-12.8585
-795.396
-3.38629
-818.38
7.48488
-824.717
18.6809
-800.235
27.1699
-746.798
40.9347
-636.994
-588.784
-1.51155
-2.56631
-1.48538
-4.19415
-1.47042
-5.34018
-1.46214
-6.45694
-1.46187
-7.55397
-1.46884
-8.62257
-1.48338
-9.68486
-1.50524
-10.7431
-1.53448
-11.8082
-1.57099
-12.8856
-1.61475
-13.9827
-1.66573
-15.1053
-1.72392
-16.2596
-1.78936
-17.4514
-1.86208
-18.6864
-1.94219
-19.9705
-2.0298
-21.3094
-2.1251
-22.709
-2.22828
-24.1752
-2.3396
-25.7143
-2.45935
-27.3326
-2.58788
-29.037
-2.72556
-30.8343
-2.87284
-32.7321
-3.03021
-34.7381
-3.1982
-36.8606
-3.37741
-39.1085
-3.56849
-41.4912
-3.77217
-44.019
-3.98923
-46.7028
-4.22054
-49.5542
-4.46704
-52.586
-4.72974
-55.8119
-5.00978
-59.2468
-5.30837
-62.9069
-5.62683
-66.8098
-5.96661
-70.9745
-6.32928
-75.4219
-6.71655
-80.1749
-7.13026
-85.2583
-7.57243
-90.6993
-8.04523
-96.5279
-8.55101
-102.777
-9.09231
-109.481
-9.67185
-116.681
-10.2925
-124.419
-10.9575
-132.743
-11.67
-141.704
-12.4335
-151.359
-13.2516
-161.771
-14.1278
-173.007
-15.0658
-185.143
-16.069
-198.26
-17.1406
-212.446
-18.2831
-227.799
-19.4981
-244.423
-20.7857
-262.432
-22.1439
-281.949
-23.5673
-303.103
-25.0463
-326.035
-26.5646
-350.89
-28.0968
-377.817
-29.6051
-406.966
-31.0344
-438.479
-32.3065
-472.478
-33.3123
-509.04
-33.9028
-548.169
-33.88
-589.73
-32.9881
-633.358
-30.9101
-678.327
-27.2821
-723.32
-21.7111
-766.021
-13.9438
-803.163
-3.78633
-828.538
8.03324
-836.537
20.2036
-812.405
29.5221
-756.117
22.1068
-629.579
-577.729
-1.58183
-2.59293
-1.55694
-4.21904
-1.54292
-5.3542
-1.53573
-6.46413
-1.53667
-7.55303
-1.5451
-8.61414
-1.56135
-9.6686
-1.58523
-10.7192
-1.61678
-11.7766
-1.65593
-12.8465
-1.70266
-13.9359
-1.75695
-15.051
-1.81881
-16.1977
-1.88826
-17.3819
-1.96537
-18.6093
-2.05024
-19.8857
-2.143
-21.2166
-2.24385
-22.6081
-2.35299
-24.066
-2.4707
-25.5965
-2.5973
-27.206
-2.73313
-28.9011
-2.87862
-30.6888
-3.03423
-32.5765
-3.20046
-34.5718
-3.37789
-36.6831
-3.56715
-38.9192
-3.76892
-41.2895
-3.98398
-43.804
-4.21314
-46.4736
-4.45732
-49.31
-4.7175
-52.3258
-4.99477
-55.5346
-5.29031
-58.9513
-5.60539
-62.5919
-5.94141
-66.4737
-6.2999
-70.616
-6.68249
-75.0393
-7.09099
-79.7664
-7.52734
-84.8219
-7.99366
-90.233
-8.49224
-96.0293
-9.02554
-102.243
-9.59624
-108.91
-10.2072
-116.07
-10.8615
-123.765
-11.5624
-132.042
-12.3133
-140.953
-13.118
-150.555
-13.9801
-160.909
-14.9034
-172.084
-15.8919
-184.155
-16.9492
-197.202
-18.0785
-211.316
-19.2828
-226.594
-20.5638
-243.142
-21.9218
-261.074
-23.3548
-280.516
-24.8578
-301.6
-26.4208
-324.472
-28.0274
-349.283
-29.6518
-376.192
-31.2553
-405.363
-32.7813
-436.953
-34.149
-471.11
-35.2454
-507.944
-35.9151
-547.499
-35.9503
-589.695
-35.0801
-634.228
-32.9654
-680.442
-29.2099
-727.075
-23.3768
-771.854
-15.1577
-811.382
-4.30271
-839.393
8.51821
-849.358
21.9573
-825.844
32.3697
-766.529
28.6592
-625.868
-547.317
-1.65132
-2.61863
-1.6277
-4.24266
-1.61469
-5.36721
-1.60864
-6.47018
-1.61086
-7.5508
-1.62082
-8.60418
-1.63886
-9.65056
-1.66481
-10.6933
-1.69874
-11.7427
-1.74059
-12.8046
-1.79035
-13.8862
-1.84801
-14.9933
-1.91357
-16.1322
-1.98709
-17.3084
-2.06862
-18.5278
-2.15829
-19.796
-2.25623
-21.1187
-2.36265
-22.5017
-2.47779
-23.9509
-2.60192
-25.4724
-2.73538
-27.0726
-2.87855
-28.758
-3.03187
-30.5355
-3.19582
-32.4125
-3.37094
-34.3967
-3.55783
-36.4962
-3.75715
-38.7199
-3.96964
-41.077
-4.19608
-43.5775
-4.43736
-46.2323
-4.69442
-49.0529
-4.96831
-52.0519
-5.26016