/*--------------------------------*- C++ -*----------------------------------*\
| =========                 |                                                 |
| \\      /  F ield         | OpenFOAM: The Open Source CFD Toolbox           |
|  \\    /   O peration     | Version:  4.1                                   |
|   \\  /    A nd           | Web:      www.OpenFOAM.org                      |
|    \\/     M anipulation  |                                                 |
\*---------------------------------------------------------------------------*/
FoamFile
{
    version     2.0;
    format      ascii;
    class       volSymmTensorField;
    location    "1";
    object      turbulenceProperties:R;
}
// * * * * * * * * * * * * * * * * * * * * * * * * * * * * * * * * * * * * * //

dimensions      [0 2 -2 0 0 0 0];

internalField   nonuniform List<symmTensor> 
6785
(
(0.753313 6.78447e-20 4.3824e-20 0.753189 0.000166691 0.753498)
(0.753354 -5.75948e-20 -1.49408e-20 0.75332 6.64248e-06 0.753326)
(0.753325 -2.62238e-20 -2.13618e-20 0.75336 3.82496e-05 0.753315)
(0.753334 1.57673e-20 1.11269e-20 0.753344 2.64262e-05 0.753322)
(0.753331 -2.49918e-20 -3.69395e-21 0.753346 2.69305e-05 0.753322)
(0.753332 3.63926e-21 -7.18279e-21 0.753343 2.40266e-05 0.753325)
(0.753332 5.23568e-21 1.12256e-20 0.753341 2.22948e-05 0.753326)
(0.753332 -1.2183e-20 -2.96835e-22 0.753339 2.02628e-05 0.753328)
(0.753333 8.31283e-23 -5.52781e-21 0.753337 1.82949e-05 0.75333)
(0.753333 -1.62983e-23 9.77366e-21 0.753335 1.6653e-05 0.753333)
(0.753332 -1.04493e-21 6.64934e-21 0.753332 1.60276e-05 0.753335)
(0.753334 5.09583e-21 -3.10068e-21 0.753327 1.36413e-05 0.753339)
(0.753334 4.85257e-21 8.32459e-21 0.753326 1.04356e-05 0.75334)
(0.753319 1.10405e-20 1.40709e-20 0.753356 1.31063e-05 0.753325)
(0.753346 -9.24884e-21 -9.79506e-21 0.753388 -7.77367e-05 0.753266)
(0.753329 1.32907e-19 5.15147e-20 0.753006 0.000218463 0.753664)
(0.753352 -9.07445e-20 -5.90797e-20 0.753338 -1.84406e-05 0.75331)
(0.753325 -4.9574e-20 -2.83789e-20 0.753377 1.20682e-05 0.753298)
(0.753341 -1.30747e-21 5.21678e-21 0.75335 -8.04222e-06 0.753308)
(0.753333 -4.31357e-21 -3.84934e-21 0.753361 6.5174e-07 0.753306)
(0.753336 1.80754e-20 7.04947e-21 0.753353 -3.38724e-06 0.75331)
(0.753335 -2.52367e-20 -1.83746e-20 0.753354 -2.55116e-06 0.753311)
(0.753335 7.56177e-21 1.22796e-21 0.753352 -4.00991e-06 0.753313)
(0.753335 1.41046e-20 2.94737e-21 0.753352 -4.85929e-06 0.753313)
(0.753335 -3.18628e-20 -2.31572e-20 0.753351 -5.94076e-06 0.753315)
(0.753334 1.22238e-20 1.14869e-21 0.753349 -6.31337e-06 0.753317)
(0.753334 9.2809e-21 6.65581e-22 0.753353 -1.01712e-05 0.753313)
(0.753335 -4.05974e-20 -2.90652e-20 0.753378 -2.88881e-05 0.753287)
(0.753336 -7.8428e-21 -9.84784e-21 0.753411 -5.69382e-05 0.753253)
(0.753331 3.45062e-20 2.43783e-20 0.753339 -1.84439e-05 0.75333)
(0.753329 4.82274e-19 1.85443e-19 0.752978 0.000210436 0.753693)
(0.753339 -3.87923e-19 -2.35525e-19 0.753342 -1.68397e-05 0.753319)
(0.753324 3.71595e-20 2.13266e-20 0.753368 -1.78434e-06 0.753308)
(0.753339 5.52878e-20 -2.90302e-20 0.753345 -2.01547e-05 0.753316)
(0.753328 -1.19445e-19 -7.8059e-20 0.753359 -6.37412e-06 0.753313)
(0.753335 1.02502e-19 5.56692e-20 0.753349 -1.40545e-05 0.753316)
(0.753332 1.77934e-20 -3.47975e-20 0.753353 -9.5902e-06 0.753316)
(0.753333 -8.24674e-20 -5.72073e-20 0.75335 -1.14803e-05 0.753317)
(0.753333 9.35689e-20 5.14098e-20 0.753351 -1.08185e-05 0.753316)
(0.753333 1.99769e-20 -2.82045e-20 0.753351 -1.1069e-05 0.753316)
(0.753333 -8.25537e-20 -5.65939e-20 0.753351 -1.08712e-05 0.753316)
(0.753333 7.4633e-20 4.23214e-20 0.753352 -1.22867e-05 0.753315)
(0.753331 1.68486e-20 -1.68012e-20 0.753375 -1.86831e-05 0.753295)
(0.753341 -1.38115e-19 -8.997e-20 0.753422 -6.12963e-05 0.753237)
(0.753328 -1.69294e-20 -1.21759e-20 0.753346 1.29229e-05 0.753326)
(0.753332 5.22428e-19 4.00189e-19 0.752994 0.000193267 0.753673)
(0.753337 -3.15804e-19 -2.5353e-19 0.753338 -1.32943e-05 0.753326)
(0.753328 -1.05352e-19 -5.506e-20 0.753365 -1.25694e-05 0.753308)
(0.753338 9.36564e-20 7.32603e-20 0.753344 -2.23542e-05 0.753318)
(0.75333 -6.76401e-20 -5.4743e-20 0.753352 -8.58867e-06 0.753318)
(0.753335 2.20142e-20 1.97642e-20 0.753346 -1.46471e-05 0.753319)
(0.753333 2.4794e-20 2.45331e-20 0.753348 -1.0351e-05 0.753319)
(0.753333 -6.36401e-20 -4.67768e-20 0.753348 -1.05616e-05 0.753319)
(0.753333 2.75068e-20 3.81592e-20 0.753348 -9.27913e-06 0.753319)
(0.753333 2.00195e-20 2.78683e-20 0.753349 -8.45856e-06 0.753318)
(0.753333 -6.41495e-20 -3.544e-20 0.753349 -7.39143e-06 0.753317)
(0.753334 1.76182e-20 3.56555e-20 0.75335 -7.57681e-06 0.753316)
(0.753332 4.91441e-20 4.68277e-20 0.753359 -8.2325e-06 0.753309)
(0.753336 -6.60918e-20 -3.70834e-20 0.753386 -2.63926e-05 0.753278)
(0.753331 -7.78331e-20 -5.01536e-20 0.753423 -2.79299e-05 0.753246)
(0.753333 9.601e-20 2.17056e-19 0.75301 0.000187367 0.753657)
(0.753335 3.39349e-19 1.6999e-19 0.753349 -1.70578e-05 0.753316)
(0.75333 -3.86784e-19 -2.44159e-19 0.753365 -1.80289e-05 0.753305)
(0.753337 -8.38873e-20 -2.13836e-20 0.753343 -1.99258e-05 0.75332)
(0.753331 2.28602e-20 4.66209e-20 0.753346 -7.97257e-06 0.753323)
(0.753335 9.49031e-20 7.5244e-20 0.753342 -1.16044e-05 0.753324)
(0.753333 -6.08948e-20 -1.89606e-20 0.753344 -8.23811e-06 0.753323)
(0.753333 -8.46693e-20 -2.19905e-20 0.753344 -7.81058e-06 0.753323)
(0.753333 5.99906e-20 7.12482e-20 0.753344 -6.42741e-06 0.753323)
(0.753333 -4.45646e-20 -2.47979e-21 0.753344 -5.48338e-06 0.753322)
(0.753333 -6.25752e-20 1.95966e-21 0.753345 -4.24063e-06 0.753322)
(0.753333 8.2276e-20 7.80761e-20 0.753346 -4.14751e-06 0.75332)
(0.753333 3.75926e-20 4.84587e-20 0.753351 -4.35831e-06 0.753316)
(0.753335 5.75353e-20 6.97203e-20 0.753378 -2.07035e-05 0.753288)
(0.753333 2.8274e-20 2.21983e-20 0.75345 -5.68988e-05 0.753218)
(0.753333 -8.80763e-19 -3.73986e-19 0.753011 0.000186688 0.753656)
(0.753335 1.01913e-18 6.95341e-19 0.753368 -2.42718e-05 0.753296)
(0.75333 -3.36217e-19 -1.43736e-19 0.753375 -2.18225e-05 0.753295)
(0.753337 -3.40245e-19 -1.68228e-19 0.753342 -1.77213e-05 0.753322)
(0.753331 -5.10642e-20 4.43303e-20 0.753341 -4.70949e-06 0.753328)
(0.753335 2.32223e-19 2.14639e-19 0.753336 -7.95301e-06 0.753329)
(0.753333 -8.94466e-20 -1.99256e-20 0.753339 -4.9441e-06 0.753328)
(0.753333 -2.00636e-19 -5.05182e-20 0.753339 -4.87731e-06 0.753327)
(0.753333 1.33853e-19 1.5324e-19 0.75334 -3.65677e-06 0.753327)
(0.753333 -7.41692e-20 -1.04605e-20 0.75334 -3.04613e-06 0.753327)
(0.753333 -1.32311e-19 -5.96315e-21 0.75334 -1.95053e-06 0.753327)
(0.753333 1.83406e-19 1.75894e-19 0.753341 -1.98614e-06 0.753326)
(0.753333 -5.79161e-21 2.82759e-20 0.753344 -1.72139e-06 0.753323)
(0.753334 1.13442e-19 1.33381e-19 0.753372 -1.80346e-05 0.753294)
(0.753334 3.623e-19 2.42955e-19 0.753472 -7.40503e-05 0.753194)
(0.753332 -1.54967e-18 -9.58204e-19 0.753009 0.000184149 0.753659)
(0.753336 1.00162e-18 6.5528e-19 0.753369 -2.44259e-05 0.753295)
(0.75333 1.13355e-19 1.05041e-19 0.753392 -2.76301e-05 0.753278)
(0.753337 -3.67512e-19 -2.15753e-19 0.753346 -1.78531e-05 0.753317)
(0.753331 -2.06488e-19 -9.19899e-20 0.753338 -1.45009e-06 0.753331)
(0.753334 3.19709e-19 2.16564e-19 0.753333 -4.14087e-06 0.753333)
(0.753333 -5.06278e-20 -1.88025e-20 0.753336 -1.87068e-06 0.753331)
(0.753333 -2.7186e-19 -1.25244e-19 0.753336 -2.32774e-06 0.753331)
(0.753333 2.1949e-19 1.54868e-19 0.753336 -1.46205e-06 0.75333)
(0.753333 -8.97208e-20 -4.77363e-20 0.753336 -1.28927e-06 0.75333)
(0.753333 -1.98823e-19 -7.83708e-20 0.753337 -4.34985e-07 0.75333)
(0.753333 2.86746e-19 1.88952e-19 0.753337 -6.24971e-07 0.753329)
(0.753333 -7.3962e-20 -3.51562e-20 0.753339 4.4428e-08 0.753328)
(0.753334 8.17892e-20 7.60745e-20 0.753366 -1.61413e-05 0.7533)
(0.753333 7.2143e-19 4.28028e-19 0.75349 -8.55157e-05 0.753177)
(0.753332 -7.13849e-19 -6.69059e-19 0.753022 0.000173988 0.753646)
(0.753336 3.20953e-19 9.29055e-20 0.753351 -1.78529e-05 0.753313)
(0.75333 1.28599e-19 1.45166e-20 0.753396 -2.93495e-05 0.753274)
(0.753336 -3.47359e-19 -2.35934e-19 0.753353 -1.80249e-05 0.75331)
(0.753332 -2.16247e-19 -1.6353e-19 0.753338 -7.10209e-08 0.75333)
(0.753334 2.96569e-19 1.10982e-19 0.753332 -1.18386e-06 0.753334)
(0.753333 -1.08825e-19 -8.56458e-20 0.753334 1.40307e-07 0.753333)
(0.753333 -1.66952e-19 -1.23022e-19 0.753334 -5.50962e-07 0.753332)
(0.753333 2.77655e-19 8.41456e-20 0.753335 -3.44784e-08 0.753332)
(0.753333 -2.22196e-19 -1.58516e-19 0.753335 -1.32432e-07 0.753332)
(0.753333 -1.42451e-19 -1.07941e-19 0.753335 4.71012e-07 0.753332)
(0.753333 3.36348e-19 1.24153e-19 0.753335 3.34887e-07 0.753332)
(0.753333 -2.63646e-19 -1.73865e-19 0.753336 8.17779e-07 0.753331)
(0.753334 1.30114e-19 7.42638e-20 0.753361 -1.45289e-05 0.753305)
(0.753333 7.12012e-19 3.56103e-19 0.753503 -9.39751e-05 0.753164)
(0.753332 9.97965e-19 3.44611e-19 0.753047 0.000160083 0.753621)
(0.753336 -4.39042e-19 -3.93021e-19 0.753334 -1.12406e-05 0.75333)
(0.753331 -3.03653e-19 -2.70497e-19 0.753385 -2.54231e-05 0.753285)
(0.753336 -4.48924e-19 -3.01065e-19 0.753353 -1.55714e-05 0.753312)
(0.753332 -9.01691e-20 -1.11751e-19 0.753339 3.4155e-07 0.753329)
(0.753334 2.14741e-19 3.2807e-20 0.753332 -3.08068e-08 0.753334)
(0.753333 -2.29193e-19 -1.68877e-19 0.753334 8.61815e-07 0.753333)
(0.753333 6.23686e-20 -1.81586e-20 0.753334 2.03954e-07 0.753333)
(0.753333 2.63436e-19 4.59746e-20 0.753334 4.93035e-07 0.753332)
(0.753333 -3.97714e-19 -2.73336e-19 0.753334 4.11386e-07 0.753332)
(0.753333 3.21459e-20 -4.16614e-20 0.753334 6.90561e-07 0.753332)
(0.753333 2.71558e-19 5.62296e-20 0.753334 8.75687e-07 0.753333)
(0.753333 -5.24887e-19 -3.38552e-19 0.753336 5.5734e-07 0.753331)
(0.753334 3.3894e-19 1.63946e-19 0.753357 -1.30237e-05 0.753309)
(0.753333 2.9606e-19 8.20213e-20 0.753513 -0.000100363 0.753154)
(0.753332 2.14805e-18 1.15316e-18 0.753073 0.000146831 0.753594)
(0.753335 -9.17744e-19 -5.76642e-19 0.753328 -6.91637e-06 0.753337)
(0.753331 -6.22709e-19 -3.87245e-19 0.75337 -1.87642e-05 0.753299)
(0.753335 -4.27982e-19 -2.7528e-19 0.753347 -1.13595e-05 0.753318)
(0.753332 1.78714e-21 -4.16319e-20 0.753338 8.88003e-07 0.75333)
(0.753334 1.21999e-19 2.76641e-20 0.753333 8.14621e-09 0.753333)
(0.753333 -2.21423e-19 -1.59358e-19 0.753334 9.55638e-07 0.753333)
(0.753333 2.06146e-19 7.27128e-20 0.753334 3.76568e-07 0.753333)
(0.753333 1.94915e-19 6.65976e-20 0.753334 5.0053e-07 0.753333)
(0.753333 -4.03593e-19 -2.7911e-19 0.753334 6.5028e-07 0.753333)
(0.753333 1.3361e-19 2.20852e-20 0.753334 4.57199e-07 0.753333)
(0.753333 1.47557e-19 3.88901e-20 0.753333 1.15858e-06 0.753333)
(0.753333 -6.19754e-19 -4.00935e-19 0.753335 -2.1909e-07 0.753331)
(0.753333 4.21584e-19 1.96284e-19 0.753354 -1.12941e-05 0.753313)
(0.753334 -9.18848e-20 -6.83835e-20 0.753519 -0.000104652 0.753147)
(0.753332 1.87724e-18 1.23241e-18 0.753091 0.000137903 0.753577)
(0.753335 -8.35267e-19 -3.97135e-19 0.753326 -4.01187e-06 0.753339)
(0.753331 -5.40774e-19 -3.04263e-19 0.753359 -1.25175e-05 0.75331)
(0.753335 -2.44587e-19 -1.1207e-19 0.753341 -7.72851e-06 0.753324)
(0.753332 2.06847e-20 1.07424e-20 0.753337 1.20101e-06 0.753331)
(0.753334 3.55367e-20 3.72254e-21 0.753333 -4.25749e-07 0.753333)
(0.753333 -1.00983e-19 -3.54775e-20 0.753334 7.12149e-07 0.753333)
(0.753333 1.89632e-19 1.03645e-19 0.753334 2.0131e-07 0.753333)
(0.753333 1.0259e-19 5.24919e-20 0.753334 1.32114e-07 0.753333)
(0.753333 -2.45699e-19 -1.27115e-19 0.753334 6.51675e-07 0.753333)
(0.753334 9.6151e-20 4.13449e-20 0.753333 -1.07552e-07 0.753333)
(0.753333 1.97947e-20 3.81247e-21 0.753333 1.25106e-06 0.753334)
(0.753334 -4.16663e-19 -2.29555e-19 0.753336 -1.29432e-06 0.753331)
(0.753333 2.58478e-19 6.55841e-20 0.75335 -9.19532e-06 0.753317)
(0.753334 -1.41511e-19 -1.18804e-20 0.753526 -0.000108785 0.753141)
(0.753333 3.46641e-19 4.97794e-19 0.753107 0.000129196 0.75356)
(0.753335 -7.99681e-20 8.90296e-20 0.753325 -1.15696e-06 0.75334)
(0.753332 -2.40389e-19 -7.72662e-20 0.75335 -7.49594e-06 0.753318)
(0.753335 4.81259e-20 7.0439e-20 0.753337 -5.03393e-06 0.753328)
(0.753332 -2.19893e-20 7.14515e-22 0.753336 1.41196e-06 0.753332)
(0.753334 -8.18284e-20 5.63031e-22 0.753333 -7.14662e-07 0.753333)
(0.753333 9.80004e-20 8.96953e-20 0.753334 5.81562e-07 0.753333)
(0.753333 3.35006e-20 3.84735e-20 0.753334 1.34061e-07 0.753333)
(0.753334 -4.77395e-20 3.86287e-20 0.753334 -1.23149e-07 0.753333)
(0.753333 5.64482e-20 7.47307e-20 0.753334 7.75615e-07 0.753333)
(0.753334 -2.2078e-20 -1.37669e-20 0.753333 -6.27866e-07 0.753333)
(0.753333 -1.30817e-19 -1.30941e-20 0.753334 1.42119e-06 0.753333)
(0.753334 -4.61858e-20 1.76029e-20 0.753335 -1.78333e-06 0.753331)
(0.753333 -5.71338e-20 -5.32886e-20 0.753346 -6.79857e-06 0.753321)
(0.753334 1.57816e-19 1.94487e-19 0.753529 -0.00011109 0.753138)
(0.753333 -1.36895e-18 -5.67443e-19 0.753112 0.000126351 0.753556)
(0.753334 8.26159e-19 5.61143e-19 0.753323 2.25044e-06 0.753342)
(0.753332 6.8795e-20 1.17652e-19 0.753347 -5.35885e-06 0.753321)
(0.753335 3.77519e-19 2.30146e-19 0.753335 -3.52713e-06 0.75333)
(0.753332 -1.1614e-19 -6.79811e-20 0.753336 1.62299e-06 0.753332)
(0.753334 -2.14243e-19 -5.9791e-20 0.753333 -8.60906e-07 0.753333)
(0.753333 3.25708e-19 2.15698e-19 0.753334 6.04659e-07 0.753333)
(0.753333 -1.56075e-19 -6.48731e-20 0.753333 -6.08503e-08 0.753333)
(0.753334 -1.87403e-19 -5.2409e-20 0.753333 -7.0481e-07 0.753333)
(0.753333 3.537e-19 2.47345e-19 0.753334 5.55807e-07 0.753333)
(0.753334 -1.6158e-19 -8.32967e-20 0.753332 -1.56472e-06 0.753334)
(0.753332 -2.58887e-19 -8.34625e-20 0.753333 1.17871e-06 0.753335)
(0.753334 2.3862e-19 1.63958e-19 0.753336 -4.10844e-06 0.75333)
(0.753333 -2.98103e-19 -1.33859e-19 0.753343 -6.03237e-06 0.753324)
(0.753333 5.83308e-19 3.99712e-19 0.753533 -0.000114566 0.753133)
(0.753333 -2.26482e-18 -1.14614e-18 0.753124 0.000121573 0.753543)
(0.753335 1.29777e-18 7.96066e-19 0.75332 6.57202e-06 0.753346)
(0.753332 2.2864e-19 1.34229e-19 0.753345 -2.37516e-06 0.753323)
(0.753335 5.7579e-19 3.31704e-19 0.753334 -2.51982e-06 0.753331)
(0.753332 -2.49949e-19 -1.45787e-19 0.753336 6.12655e-07 0.753331)
(0.753334 -3.90056e-19 -2.03704e-19 0.753334 -1.83062e-06 0.753332)
(0.753333 6.38317e-19 3.76802e-19 0.753335 -1.19121e-06 0.753331)
(0.753333 -1.73049e-19 -1.20437e-19 0.753335 -1.56778e-06 0.753331)
(0.753334 -4.33813e-19 -2.41063e-19 0.753334 -2.23695e-06 0.753332)
(0.753333 5.69237e-19 3.40029e-19 0.753336 -8.43651e-07 0.753331)
(0.753335 -2.79131e-19 -1.53014e-19 0.753334 -3.06795e-06 0.753332)
(0.753333 -3.44035e-19 -1.78322e-19 0.753336 -3.88025e-07 0.753331)
(0.753334 3.31579e-19 2.06355e-19 0.753336 -2.12853e-06 0.75333)
(0.753334 -4.20219e-19 -2.02614e-19 0.753338 -1.68575e-06 0.753328)
(0.753334 9.345e-19 5.56614e-19 0.753524 -0.000113673 0.753142)
(0.753334 -3.12899e-18 -1.87677e-18 0.753107 0.000123553 0.753559)
(0.753333 1.96184e-18 1.12934e-18 0.753319 2.43918e-06 0.753348)
(0.753332 4.30751e-19 2.2437e-19 0.753351 -1.10016e-05 0.753317)
(0.753335 4.77572e-19 2.55275e-19 0.753342 -1.05148e-05 0.753323)
(0.753332 -2.05511e-19 -1.1133e-19 0.753341 -3.58294e-06 0.753327)
(0.753334 -1.24562e-19 -1.19904e-19 0.753339 -6.55591e-06 0.753327)
(0.753333 5.63655e-19 2.85115e-19 0.753338 -3.48909e-06 0.753329)
(0.753333 -2.35717e-19 -1.36978e-19 0.753336 -3.97743e-06 0.753331)
(0.753334 -2.7304e-19 -2.12094e-19 0.753335 -5.01709e-06 0.753331)
(0.753333 2.8188e-19 1.21897e-19 0.753334 -3.74129e-06 0.753334)
(0.753334 -3.08747e-19 -1.75366e-19 0.75333 -5.68058e-06 0.753336)
(0.753332 -1.51858e-19 -1.54017e-19 0.753328 -1.73458e-06 0.75334)
(0.753334 4.54873e-21 -3.40669e-20 0.753323 -4.30777e-06 0.753343)
(0.753332 -3.85895e-19 -2.67374e-19 0.753356 -1.92407e-05 0.753311)
(0.753334 1.09418e-18 5.57194e-19 0.753519 -0.000118867 0.753147)
(0.753381 -1.08144e-20 -6.72108e-22 0.753264 5.09386e-05 0.753355)
(0.753322 -9.63645e-21 -3.12661e-22 0.753352 5.61588e-05 0.753327)
(0.753338 3.96802e-21 -3.26753e-21 0.753324 7.48304e-06 0.753339)
(0.753335 1.38333e-20 -2.61794e-21 0.753329 -1.18127e-05 0.753337)
(0.753333 6.70776e-21 -1.63335e-21 0.753334 -1.26275e-05 0.753332)
(0.753333 8.79982e-22 -7.89998e-22 0.753335 -2.21452e-06 0.753333)
(0.753334 1.73462e-21 -1.57373e-21 0.753333 8.02412e-06 0.753332)
(0.753335 -5.64097e-20 -3.86259e-21 0.753329 4.11409e-06 0.753335)
(0.753335 -1.63362e-19 -2.05866e-20 0.75333 -4.86807e-06 0.753334)
(0.753332 -9.43961e-20 -6.62479e-21 0.753338 -2.20489e-06 0.753331)
(0.753339 4.11449e-20 -3.7369e-20 0.753323 5.54747e-06 0.753338)
(0.753338 8.54997e-20 -2.99769e-20 0.753325 -1.17186e-06 0.753337)
(0.753332 9.04964e-20 -3.57291e-21 0.753337 8.27368e-07 0.753331)
(0.753335 8.60634e-20 -9.79146e-21 0.753331 5.61608e-06 0.753334)
(0.753334 7.52528e-21 -2.63077e-21 0.753333 -2.71613e-06 0.753333)
(0.753334 -3.18884e-20 -5.15376e-21 0.753334 -6.88983e-06 0.753332)
(0.753333 -1.39323e-20 -3.22679e-21 0.753335 -3.57399e-07 0.753332)
(0.753335 3.16063e-20 -7.82125e-21 0.753332 1.36115e-06 0.753333)
(0.753333 1.48847e-20 -5.23487e-21 0.753336 -3.14928e-06 0.753331)
(0.753333 -7.99549e-21 -7.39078e-22 0.753335 1.84096e-06 0.753332)
(0.753334 8.67805e-21 -7.54661e-21 0.753332 6.01452e-07 0.753334)
(0.753333 5.44514e-20 -5.79284e-21 0.753335 -6.39466e-06 0.753332)
(0.753333 8.59207e-20 2.64893e-21 0.753335 -2.88914e-06 0.753331)
(0.753333 3.51298e-20 6.35753e-22 0.753335 1.95392e-06 0.753332)
(0.753334 1.49602e-21 9.98212e-21 0.753334 1.86991e-07 0.753333)
(0.753333 -1.5482e-20 9.49119e-21 0.753335 -6.78574e-06 0.753332)
(0.753333 -8.77977e-21 8.14466e-21 0.753337 -4.17299e-06 0.75333)
(0.753333 -2.53499e-21 7.12049e-23 0.753335 5.98205e-07 0.753332)
(0.753334 -1.68492e-20 7.88672e-21 0.753333 2.62122e-06 0.753332)
(0.753332 -2.16064e-20 5.84474e-21 0.753337 1.73584e-07 0.75333)
(0.753333 -2.14487e-20 1.67857e-21 0.753335 9.60368e-07 0.753332)
(0.753334 -2.79714e-20 1.29655e-21 0.753334 -1.19385e-06 0.753332)
(0.753334 -2.20792e-20 -1.66613e-21 0.753335 -3.26645e-06 0.753332)
(0.753333 -1.47391e-20 -3.65243e-21 0.753337 2.69279e-07 0.75333)
(0.753333 -5.94614e-21 1.59329e-21 0.753335 6.92327e-07 0.753331)
(0.753335 -1.97127e-21 -4.64514e-21 0.753333 2.64875e-06 0.753333)
(0.753332 4.21056e-21 -4.57069e-21 0.753337 2.37263e-07 0.75333)
(0.753333 1.68914e-20 -3.82387e-22 0.753335 5.84824e-07 0.753331)
(0.753334 2.93172e-20 -1.45538e-21 0.753334 7.84227e-07 0.753332)
(0.753334 1.92642e-20 1.65501e-21 0.753334 -2.60132e-07 0.753332)
(0.753333 5.56244e-21 2.96636e-21 0.753336 2.1903e-06 0.753331)
(0.753333 -3.80094e-21 -1.2524e-23 0.753336 7.00283e-08 0.753331)
(0.753334 -2.53409e-20 2.3251e-21 0.753334 1.34662e-07 0.753332)
(0.753334 -3.95389e-20 -9.71488e-22 0.753335 -1.84115e-06 0.753331)
(0.753333 -2.86104e-20 -4.36357e-21 0.753338 1.0111e-06 0.75333)
(0.753333 1.91598e-21 -8.82289e-22 0.753337 6.92078e-07 0.75333)
(0.753335 2.07501e-20 -2.9893e-21 0.753332 4.69368e-06 0.753333)
(0.753332 8.72131e-21 -1.27258e-21 0.753339 7.86922e-07 0.753329)
(0.753333 -3.94779e-21 1.97722e-22 0.753337 2.15033e-07 0.75333)
(0.753334 -9.93282e-21 -1.85105e-21 0.753335 2.916e-06 0.753331)
(0.753334 3.01006e-22 -2.80277e-21 0.753334 1.58579e-06 0.753332)
(0.753333 1.57564e-20 -1.57424e-21 0.753338 2.47407e-06 0.75333)
(0.753333 1.43293e-20 -5.5859e-22 0.753337 -7.03803e-07 0.753329)
(0.753334 1.3015e-20 1.58169e-21 0.753335 2.14236e-06 0.753331)
(0.753334 -1.09929e-20 1.98168e-21 0.753335 2.06749e-08 0.75333)
(0.753332 -3.40439e-20 -9.33106e-22 0.75334 2.00086e-06 0.753328)
(0.753333 -2.02992e-20 -1.0035e-21 0.753339 5.76408e-07 0.753328)
(0.753337 -2.9364e-20 -5.43787e-21 0.753331 6.76004e-06 0.753333)
(0.753331 -3.38408e-20 -9.2798e-21 0.753342 -5.7697e-07 0.753327)
(0.753333 6.3199e-21 -2.6005e-21 0.753339 -1.04244e-06 0.753328)
(0.753334 5.47398e-20 -8.45095e-21 0.753337 5.02887e-06 0.753329)
(0.753335 6.60507e-20 -2.04621e-21 0.753336 2.37268e-06 0.753329)
(0.753332 3.94511e-20 2.97583e-21 0.753342 2.94099e-06 0.753326)
(0.753333 -2.15461e-22 4.89178e-22 0.753341 3.68644e-07 0.753327)
(0.753338 -1.15245e-20 2.1754e-21 0.75333 9.18064e-06 0.753332)
(0.753331 -5.66173e-21 1.20489e-21 0.753345 -1.24628e-06 0.753324)
(0.753333 1.64515e-21 -6.03963e-22 0.753341 -1.01591e-06 0.753326)
(0.753334 1.60609e-20 5.97151e-22 0.753339 1.07667e-05 0.753327)
(0.753335 2.02216e-20 2.75227e-21 0.753337 6.04625e-06 0.753328)
(0.753332 1.28349e-20 4.44843e-21 0.753343 1.91703e-06 0.753324)
(0.753333 -4.87393e-21 1.73409e-21 0.753342 -1.61642e-06 0.753325)
(0.753335 -2.54627e-20 3.38033e-21 0.75334 1.49174e-05 0.753326)
(0.753335 -2.631e-20 5.29134e-22 0.753337 1.15247e-05 0.753327)
(0.753332 -1.69695e-20 -1.49827e-21 0.753344 7.69672e-06 0.753323)
(0.753332 -6.73373e-21 -6.12309e-22 0.753344 -1.05044e-06 0.753324)
(0.753341 -3.33197e-20 -3.15386e-21 0.753327 5.51086e-06 0.753332)
(0.753331 -6.30595e-20 -8.64546e-21 0.753351 -2.01377e-05 0.753318)
(0.753332 -2.61269e-20 -3.22399e-21 0.753347 -1.47288e-05 0.753322)
(0.753342 4.43833e-20 -1.62525e-20 0.753336 -1.28584e-05 0.753323)
(0.753331 4.98741e-19 7.75414e-22 0.753367 -9.57034e-05 0.753302)
(0.753332 5.6885e-19 -9.49491e-20 0.753326 -5.65098e-05 0.753343)
(0.753336 2.84014e-19 -9.30041e-20 0.753312 1.59468e-05 0.753351)
(0.753328 -8.24489e-21 -1.11752e-19 0.753331 -6.36919e-06 0.753341)
(0.753334 -2.26391e-20 -4.40653e-20 0.753322 -2.53114e-05 0.753344)
(0.753329 1.06691e-19 -1.19639e-19 0.753316 -0.000127451 0.753355)
(0.753333 -8.75523e-20 -8.60004e-20 0.753307 -0.000135692 0.75336)
(0.753334 -3.42741e-20 -8.04596e-20 0.753315 -5.78201e-05 0.753351)
(0.753334 -1.9364e-20 -8.19461e-20 0.753319 -4.07312e-05 0.753347)
(0.753333 -6.11389e-20 -8.32087e-20 0.753322 -1.06035e-05 0.753345)
(0.753335 -2.51549e-19 -9.30761e-20 0.753316 2.73925e-05 0.753349)
(0.753331 -4.82139e-19 -9.76595e-20 0.753319 4.68596e-05 0.753349)
(0.753335 -3.49424e-19 -6.80758e-20 0.75331 3.52138e-05 0.753355)
(0.753333 -5.2757e-20 -7.0952e-21 0.753322 -1.30523e-05 0.753345)
(0.753329 -1.12627e-19 -4.17707e-20 0.753315 -9.34885e-05 0.753356)
(0.753335 -7.63962e-20 -4.51372e-20 0.753307 -0.000100911 0.753358)
(0.753333 5.4353e-19 -6.6353e-20 0.753321 -6.73975e-05 0.753347)
(0.753334 5.53458e-19 -1.04186e-19 0.753324 -6.09931e-05 0.753342)
(0.753333 2.7846e-19 -8.64059e-20 0.753328 -2.55432e-06 0.75334)
(0.753336 4.74315e-19 -7.21002e-20 0.753316 8.41281e-05 0.753348)
(0.75333 4.73926e-19 -5.80393e-20 0.753321 0.000104442 0.753349)
(0.753335 7.20431e-20 -7.55928e-20 0.753311 5.33015e-05 0.753353)
(0.753334 -1.18925e-19 -2.93973e-20 0.753322 -1.4043e-05 0.753344)
(0.753329 -2.37637e-20 -9.54982e-21 0.753315 -0.0001235 0.753356)
(0.753335 -9.69324e-20 -5.91496e-21 0.753305 -0.00014492 0.75336)
(0.753333 -1.22789e-19 -7.65677e-21 0.753324 -8.56201e-05 0.753343)
(0.753334 -5.63376e-20 -1.22396e-20 0.753327 -6.36339e-05 0.753339)
(0.753333 4.69436e-20 -1.89909e-20 0.753332 -3.82648e-05 0.753335)
(0.753334 1.91937e-20 -3.00507e-20 0.753331 -9.41847e-06 0.753335)
(0.753335 -7.07274e-20 -3.34848e-20 0.753325 2.53693e-05 0.75334)
(0.75333 -9.32058e-20 -3.72012e-20 0.75333 4.74508e-05 0.753339)
(0.753336 -1.26075e-19 -4.32382e-20 0.753318 3.1528e-05 0.753346)
(0.753333 1.45364e-21 -4.81699e-21 0.753325 -8.92655e-06 0.753342)
(0.753329 2.45902e-19 -8.69615e-20 0.753326 -0.000115279 0.753345)
(0.753335 3.94751e-19 -8.58753e-20 0.753318 -0.000122186 0.753347)
(0.753333 3.71444e-19 -7.40761e-20 0.753334 -4.90484e-05 0.753333)
(0.753334 -4.35855e-20 -6.42816e-20 0.753334 -3.91855e-05 0.753332)
(0.753334 -1.11019e-18 -9.17643e-20 0.753336 -2.10537e-05 0.75333)
(0.753336 -1.27886e-18 -6.37085e-20 0.753329 4.57003e-06 0.753334)
(0.75333 -2.86561e-19 -8.37478e-21 0.753338 3.11609e-05 0.753332)
(0.753338 1.50443e-19 1.82999e-20 0.753322 2.14439e-05 0.75334)
(0.753333 5.80961e-20 2.36096e-20 0.753327 -9.28952e-06 0.75334)
(0.75333 1.62641e-19 1.9856e-21 0.753328 -0.000111949 0.753341)
(0.753335 4.53399e-19 -2.25667e-20 0.753324 -9.46605e-05 0.75334)
(0.753333 1.72779e-19 -3.41126e-20 0.753341 8.52098e-06 0.753326)
(0.753334 -8.60245e-20 -2.4578e-20 0.753338 1.89964e-05 0.753328)
(0.753334 1.61116e-19 -2.28905e-20 0.753337 2.6514e-05 0.753329)
(0.753338 7.29763e-19 6.05179e-21 0.753327 2.84872e-05 0.753335)
(0.75333 1.95869e-18 1.05171e-19 0.753342 2.095e-05 0.753329)
(0.753338 1.03693e-18 7.94854e-21 0.753327 -9.45212e-06 0.753334)
(0.753333 -2.52045e-19 -7.02395e-20 0.753332 -1.86209e-05 0.753335)
(0.75333 4.20205e-19 -1.10493e-19 0.753339 -5.28082e-05 0.75333)
(0.753335 5.29992e-19 -1.06292e-19 0.753335 -1.1897e-05 0.75333)
(0.753333 -3.05782e-19 -6.66709e-20 0.753344 4.44768e-05 0.753322)
(0.753334 -6.92093e-19 -6.528e-21 0.753338 2.28922e-05 0.753328)
(0.753334 -1.86718e-19 8.21216e-21 0.753336 2.53017e-05 0.75333)
(0.753336 1.82874e-20 7.61851e-21 0.753328 3.39537e-05 0.753335)
(0.753331 1.37112e-20 8.37812e-21 0.753339 1.73574e-05 0.75333)
(0.753341 1.05907e-19 1.60658e-20 0.753324 -2.62635e-05 0.753335)
(0.753333 1.31661e-19 -1.66005e-20 0.753337 -2.20814e-05 0.75333)
(0.753331 1.50706e-19 -3.97468e-20 0.753348 1.17401e-05 0.753321)
(0.753334 1.2444e-19 -3.40636e-20 0.753341 2.30422e-05 0.753324)
(0.753333 5.34314e-21 -2.59776e-20 0.753341 2.26263e-05 0.753325)
(0.753334 -3.06188e-20 -2.46993e-20 0.753337 2.69564e-05 0.753328)
(0.753333 4.97373e-19 -1.8975e-20 0.753339 1.3785e-05 0.753328)
(0.753336 6.79122e-19 -4.90897e-20 0.753328 1.89302e-05 0.753336)
(0.753336 3.69394e-19 -4.17015e-20 0.753325 3.66881e-05 0.75334)
(0.753332 4.63226e-19 -2.29937e-20 0.753331 3.25774e-05 0.753338)
(0.753341 4.27274e-19 -1.33284e-20 0.753315 4.7181e-06 0.753344)
(0.753333 3.47537e-19 -3.62056e-20 0.753331 -1.95746e-05 0.753337)
(0.75333 7.64618e-19 -8.87703e-20 0.753339 -1.67496e-05 0.753331)
(0.753334 3.63681e-19 -6.83335e-20 0.753332 -6.45029e-06 0.753334)
(0.753334 2.47655e-20 -4.38104e-20 0.753332 6.46518e-07 0.753334)
(0.753335 1.48261e-18 -3.54636e-20 0.75333 3.64328e-05 0.753336)
(0.753331 6.06042e-18 1.34264e-19 0.75333 0.000112454 0.753339)
(0.753342 1.03936e-17 3.86907e-19 0.753298 0.000179737 0.75336)
(0.753329 5.0264e-18 7.29762e-20 0.753325 0.000124804 0.753346)
(0.753333 -1.24707e-18 -2.90564e-19 0.753323 3.7784e-05 0.753344)
(0.753334 -2.86401e-19 -2.98958e-19 0.753322 -5.47837e-06 0.753344)
(0.753323 -2.10029e-18 -9.30274e-20 0.753352 6.66652e-06 0.753325)
(0.753334 -6.77387e-18 6.3298e-20 0.753346 0.000210341 0.75332)
(0.753335 -4.07628e-18 8.84106e-20 0.753358 0.000206501 0.753307)
(0.753331 1.86859e-19 1.99708e-20 0.753348 2.08131e-05 0.753322)
(0.753336 1.43101e-20 -9.80897e-21 0.753332 9.7518e-06 0.753331)
(0.753328 2.53711e-20 -7.92023e-21 0.753336 1.42159e-05 0.753336)
(0.753335 5.85169e-21 -7.58617e-21 0.753331 3.15945e-06 0.753334)
(0.753332 3.32161e-21 -4.32954e-21 0.753323 1.40847e-05 0.753345)
(0.753332 4.34802e-21 -3.88344e-21 0.753333 4.19201e-06 0.753335)
(0.753335 1.78488e-20 -1.74196e-21 0.753326 -5.85406e-06 0.753339)
(0.753332 1.04482e-20 2.77102e-21 0.753323 1.27594e-05 0.753345)
(0.753333 -4.05374e-22 -1.09079e-23 0.753328 5.22597e-06 0.753339)
(0.753334 -3.2935e-21 2.79114e-22 0.753326 -7.82853e-06 0.75334)
(0.753333 -5.12857e-21 1.97671e-21 0.753322 2.91789e-06 0.753345)
(0.753333 -5.36907e-21 5.36537e-23 0.753328 -1.65929e-06 0.753339)
(0.753332 -1.00963e-20 -1.03158e-21 0.753326 5.86436e-08 0.753342)
(0.753334 -2.45478e-21 7.75514e-22 0.753326 6.25659e-06 0.75334)
(0.753333 5.74344e-21 -4.01683e-22 0.753327 -6.31089e-06 0.75334)
(0.753333 5.67052e-21 -1.47243e-22 0.753325 -7.42128e-06 0.753342)
(0.753333 2.7808e-21 5.54343e-22 0.753328 -2.10816e-06 0.753339)
(0.753333 5.57176e-21 1.75298e-21 0.753328 -5.73894e-06 0.753339)
(0.753333 4.78649e-22 2.21435e-22 0.753328 2.10832e-06 0.753338)
(0.753333 -3.38166e-21 1.92026e-22 0.753329 -3.67274e-06 0.753338)
(0.753333 -3.65921e-21 7.18617e-22 0.75333 -8.27308e-06 0.753337)
(0.753334 -1.7925e-21 -3.1623e-24 0.753328 6.05678e-07 0.753338)
(0.753332 -1.95054e-21 3.03045e-22 0.753331 -2.742e-06 0.753336)
(0.753334 1.59256e-22 -4.80332e-22 0.753328 -7.06291e-06 0.753337)
(0.753333 1.03773e-21 -7.0459e-23 0.75333 -8.94817e-07 0.753337)
(0.753332 -1.14333e-21 -2.2377e-22 0.753334 -6.48886e-06 0.753334)
(0.753335 -3.57116e-21 -3.41017e-23 0.753327 5.85589e-07 0.753338)
(0.753332 2.86441e-21 -3.17664e-22 0.753334 -2.29198e-06 0.753334)
(0.753335 1.38067e-20 6.16351e-22 0.753329 -8.65288e-06 0.753336)
(0.753334 8.57866e-21 5.97545e-22 0.753331 -1.56928e-06 0.753336)
(0.753332 4.4708e-21 4.82427e-21 0.753336 -7.87958e-06 0.753333)
(0.753335 -1.1464e-21 5.26159e-22 0.753328 -3.77202e-07 0.753337)
(0.753332 -9.73105e-21 5.7082e-22 0.753335 -2.06617e-06 0.753333)
(0.753333 -6.60816e-21 1.42801e-21 0.753333 -9.23416e-06 0.753334)
(0.753335 2.08497e-21 5.1699e-23 0.753327 -1.28415e-06 0.753337)
(0.753331 1.51914e-21 2.08692e-22 0.753337 -1.84581e-06 0.753332)
(0.753335 3.78858e-21 2.33767e-21 0.75333 -8.11983e-06 0.753335)
(0.753334 2.46321e-21 4.5929e-22 0.753331 -1.22776e-06 0.753335)
(0.753331 1.25513e-21 3.57086e-21 0.753338 -7.93583e-06 0.753331)
(0.753335 2.23411e-21 4.81529e-22 0.753328 -6.56353e-07 0.753337)
(0.753331 -3.70966e-21 5.78472e-22 0.753337 -2.13228e-06 0.753332)
(0.753335 -1.14969e-20 2.58478e-21 0.75333 -9.62145e-06 0.753335)
(0.753334 -1.07416e-20 -3.91706e-23 0.753332 -2.08561e-06 0.753334)
(0.753331 -8.78217e-21 -2.14382e-21 0.753338 -8.93659e-06 0.753331)
(0.753335 2.72874e-21 -3.58485e-22 0.753328 -1.22569e-06 0.753336)
(0.753331 7.82125e-21 -1.57348e-22 0.753337 -2.18236e-06 0.753332)
(0.753333 1.2076e-20 2.21686e-21 0.753334 -9.85723e-06 0.753333)
(0.753336 7.79341e-21 6.34649e-22 0.753327 -1.97238e-06 0.753337)
(0.753331 -1.76559e-21 9.81736e-22 0.753339 -2.04684e-06 0.753331)
(0.753335 -4.101e-21 4.74091e-21 0.753331 -8.57882e-06 0.753334)
(0.753334 -1.09193e-21 7.00182e-22 0.753332 -1.60886e-06 0.753334)
(0.75333 -1.1037e-20 2.72107e-21 0.753339 -8.46771e-06 0.753331)
(0.753336 -1.25778e-20 -2.07882e-22 0.753328 -1.09784e-06 0.753336)
(0.753331 -8.99031e-21 -4.00509e-22 0.753338 -2.35711e-06 0.753331)