/*--------------------------------*- C++ -*----------------------------------*\
| =========                 |                                                 |
| \\      /  F ield         | OpenFOAM: The Open Source CFD Toolbox           |
|  \\    /   O peration     | Version:  4.1                                   |
|   \\  /    A nd           | Web:      www.OpenFOAM.org                      |
|    \\/     M anipulation  |                                                 |
\*---------------------------------------------------------------------------*/
FoamFile
{
    version     2.0;
    format      ascii;
    class       surfaceScalarField;
    location    "19";
    object      phi;
}
// * * * * * * * * * * * * * * * * * * * * * * * * * * * * * * * * * * * * * //

dimensions      [0 3 -1 0 0 0 0];

internalField   nonuniform List<scalar> 
13220
(
-891.728
2191.61
-1388.04
1796.5
-1848.37
1760.2
-2199.85
1651.37
-2467.56
1567.9
-2654.86
1487.19
-2763.08
1408.11
-2791.55
1328.66
-2738.59
1246.93
-2601.77
1163.07
-2383.27
1081.7
-2078.44
995.048
-1646.04
867.483
-1024.77
678.903
275.133
42.0196
2149.55
28.4061
1810.07
-58.784
1847.35
-111.378
1703.92
-165.177
1621.66
-200.361
1522.33
-216.289
1423.99
-209.573
1321.9
-181.867
1219.18
-140.561
1121.73
-98.898
1040
-79.9612
976.062
-104.631
892.1
-112.268
686.439
162.856
-115.625
2265.15
-295.478
1989.89
-474.612
2026.46
-593.662
1822.94
-703.356
1731.31
-780.056
1599
-834.768
1478.67
-867.21
1354.31
-865.68
1217.62
-793.16
1049.14
-614.358
861.143
-373.745
735.304
-190.888
709.023
-94.3209
589.375
68.535
-67.0312
2332.16
-179.202
2102.04
-273.982
2121.21
-338.305
1887.23
-406.863
1799.85
-454.808
1646.91
-497.491
1521.32
-530.5
1387.28
-540.476
1227.55
-466.805
975.443
-230.133
624.404
109.614
395.563
367.405
451.219
409.663
547.096
478.196
2.61181
2329.54
-92.7689
2197.41
-151.732
2180.17
-204.653
1940.14
-272.875
1868.05
-335.664
1709.68
-410.007
1595.65
-492.467
1469.74
-588.472
1323.54
-691.38
1078.33
-743.474
676.523
-653.987
305.958
-388.507
185.645
-101.566
260.028
376.633
90.7782
2238.76
-1.47633
2289.66
-29.3784
2208.07
-54.4338
1965.19
-81.1184
1894.74
-107.634
1736.2
-134.226
1622.25
-163.973
1499.49
-208.653
1368.24
-309.017
1178.74
-499.077
866.588
-681.357
488.434
-660.823
165.305
-437.851
37.2893
-61.2199
158.272
2080.49
117.699
2330.24
128.782
2196.99
147.262
1946.72
177.479
1864.53
203.594
1710.1
236.374
1589.48
271.6
1464.27
300.926
1338.92
288.213
1191.45
167.994
986.829
-59.5046
715.826
-268.552
374.12
-201.042
-30.4619
-262.258
168.594
1911.9
170.884
2327.96
199.72
2168.16
237.946
1908.51
285.8
1816.7
332.267
1663.64
381.318
1540.45
433.718
1411.88
485.966
1286.68
520.574
1156.87
505.137
1002.25
411.79
809.319
238.022
548.107
-0.671454
208.557
-262.93
137.039
1774.88
150.389
2314.62
170.093
2148.47
198.115
1880.5
230.061
1784.76
260.796
1632.92
290.641
1510.61
321.436
1381.1
353.353
1254.78
379.24
1130.98
384.057
997.461
350.08
843.236
261.961
636.185
110.588
359.859
-152.335
102.597
1672.3
119.556
2297.68
126.875
2141.17
138.493
1868.9
160.08
1763.19
178.192
1614.83
196.444
1492.38
210.905
1366.66
223.251
1242.45
235.796
1118.47
242.718
990.554
232.75
853.31
193.624
675.437
114.531
439.382
-37.8019
75.72
1596.6
122.361
2251.05
145.452
2118.1
161.428
1852.94
186.689
1737.95
212.933
1588.6
240.544
1464.78
263.56
1343.66
269.256
1236.77
265.474
1122.27
257.756
998.302
242.508
868.561
205.979
711.994
128.453
517.004
90.6544
64.5802
1532.04
88.8133
2226.84
91.8344
2115.1
96.963
1847.83
117.304
1717.63
129.725
1576.19
149.059
1445.47
191.713
1301.02
219.644
1208.86
214.59
1127.35
179.237
1033.67
123.878
923.982
65.0988
770.844
10.0083
572.256
100.663
280.422
1251.63
427.445
2079.82
524.784
2017.77
552.868
1819.76
575.77
1694.74
621.01
1530.96
705.089
1361.4
805.616
1200.5
897.687
1116.8
960.46
1064.59
955.855
1038.28
806.323
1073.52
500.334
1076.84
220.653
851.958
321.317
-1388.5
2640.14
-2273.99
2965.31
-2838.7
2582.48
-3290.57
2271.64
-3461.28
1865.46
-3321.78
1391.47
-2862.74
902.353
-2295.96
633.728
-1833.21
654.049
-1542.7
774.079
-1370.3
865.874
-1195.07
898.299
-935.776
817.547
-458.517
374.704
-137.201
-2732.08
-3554.48
-3601.71
-3533.51
-3522.99
-3834.59
-4222.59
-4622.42
-4897.55
-4729.41
-4309.82
-3305.15
-2347.99
-1321.16
-0.000208818
-1368.25
1368.24
-1368.25
-1368.25
-1368.25
-2837.7
1469.46
-2837.71
-2837.71
-2837.71
-4245.65
1407.94
-4245.65
-4245.65
-5522.17
1276.52
-5522.17
-5522.17
-5522.17
-6617.52
1095.34
-6617.52
-6617.52
-7542.97
925.453
-7542.97
-7542.97
-7542.97
-8336.52
793.549
-8336.52
-8336.52
-8336.52
-8994.2
657.68
-8994.2
-8994.2
-9570.14
575.943
-9570.14
-9570.14
-9570.14
-9979
408.852
-9979
-9979
-10054
74.9659
-10054
-10054
-10054
-9545.49
-508.475
-9545.49
-9545.49
-9545.49
-8281.59
-1263.9
-8281.59
-8281.59
-6211.13
-2070.46
-6211.13
-6211.13
-6211.13
-3554.76
-2656.36
-3554.76
-3554.76
-3554.76
-421.236
-3133.53
-421.237
-421.236
3297.06
-3718.3
3297.06
3297.06
3297.06
7389.42
-4092.36
7389.42
7389.42
11679.6
-4290.14
11679.6
11679.6
11679.6
16041.9
-4362.35
16041.9
16041.9
16041.9
20388
-4346.06
20388
20388
24740.1
-4352.13
24740.1
24740.1
24054.5
23476.5
23388.6
27546.6
-4219.6
27429.9
27354.8
27245.6
27111.9
26974.8
26837
26721.7
26659.2
30255.2
-3620.05
30278.6
30284
30213.2
30164.9
30141.3
30123.4
30098
30088.5
32710.5
-2585.81
32822.3
32921.8
32981.5
33064
33160.7
33250.9
33349.6
33469.9
33604.8
34699.1
-968.184
34882.8
35059.1
35208.4
35376.1
35561.5
35746.9
35936
36115.1
36239
14.4053
36484.3
36737.9
36980.8
37222.7
37465.9
37698.5
37935.2
38259.1
38661.6
-116.874
39016.1
39369.7
39652.6
39988.7
40367.6
40726.6
41070.2
41400.1
42753.3
-1014.67
43199.5
43666.7
44044
44414.5
44811.7
45276.1
45742.4
46216.5
46714.8
48107.7
-894.429
48758
49508.2
50171.9
50842.5
51571.5
52383.7
53342.3
54313.1
54684.3
485.234
55732.2
56965.5
56965.5
56390.6
574.908
55210.8
1179.79
55210.8
54452.3
758.494
54452.3
53889.9
562.403
52720.8
1169.11
52720.8
51993.3
727.573
50640.3
1352.91
50640.3
49522.9
1117.45
49522.9
48548.9
974.019
47065.3
1483.59
47065.3
45845.2
1220.08
45845.2
44779.9
1065.33
43303.7
1476.18
43303.7
42207.7
1095.95
40716.5
1491.24
40716.5
39494.9
1221.62
39494.9
38456.7
1038.16
37187.6
1269.13
37187.6
36286.8
900.785
36286.8
35678.6
608.191
35118.2
560.4
35118.2
35016.5
101.677
35018
-1.48832
35018
35380.1
-362.045
35380.1
35870.8
-490.768
36415.3
-544.481
36415.3
37089.7
-674.385
37089.7
37734.6
-644.87
38387.8
-653.181
38387.8
39041.1
-653.379
39652.2
-611.106
39652.2
40309.1
-656.875
40309.1
40917.6
-608.473
41444.2
-526.58
41444.2
42005.9
-561.698
42005.9
42504.7
-498.805
42813.9
-309.207
42813.9
43154.4
-340.514
43165.1
-10.7464
43165.1
43133.6
31.5289
43133.6
42999.7
133.883
42426.5
573.193
42426.5
41852.1
574.409
41852.1
41215.4
636.72
40166.2
1049.2
40166.2
39295.2
871.003
38075.5
1219.72
38075.5
37047
1028.5
37047
845.807
-4615.78
-20267.1
-4544.58
-21796.5
-4468.63
-22442.7
-4381.16
-23189.3
-4284.36
-23731.2
-4180.33
-24092.4
-4071.86
-24161.2
-3964.94
-23820.4
-3866.3
-22854.7
-3773.14
-21023.4
-3566.44
-17818
-2883.67
-10467.7
-1928.37
6431.26
-1623.95
16409.3
-1208.15
23334.8
-840.664
29058.3
-579.698
33940
-259.531
39138.9
72.4052
43665.8
391.203
47448.3
674.837
50389.9
963.548
53302.2
1241.19
55407.4
1472.56
56144.3
1690.91
56386.6
1899
56162.2
2020.23
53471.1
2047.98
49649.2
1733.28
38191.9
1181.93
23227.6
663.118
13394.6
107.222
7876.2
-109.594
27636.8
-107.766
38586.9
-43.7784
39580.2
47.1558
39057.8
150.954
38886.9
294.155
42947.6
473.622
47745
643.939
43069.2
784.157
30694.4
923.604
19397.8
704.252
3478.31
-125.234
-22764.9
-957.72
-37797.2
291.046
-32469.3
2336.02
3274.87
2515.91
26082
2358.57
23165.2
2260.13
12827.4
2094.75
5122.14
2434.18
298.085
3793.44
-12094.1
5327.95
-23733.9
5574.03
-26852.9
4529.72
-27295
4217.79
18794.1
4521.65
74283.6
4506.46
84264.5
4344.48
76884.5
4149.11
64287.4
3992.12
51525.2
3903.68
40559.7
3881.55
31573
3910.23
24160.4
3970.14
17833.2
4041.35
12254.4
4121.04
7044.23
4220.47
2061.47
4168.25
-2770.4
3844.62
-8338.84
3627.57
-11858.4
2378.51
-18227.1
-1118.92
-66370.3
-3366.25
-102517
-3365.58
-93266.4
-2827.41
-83423.4
-1905.06
-74286.8
-63724
-4585.2
-20305.2
-4513.9
-21867.8
-4438.26
-22518.4
-4351.16
-23276.4
-4256.13
-23826.2
-4156.62
-24191.9
-4057.92
-24259.9
-3968.43
-23909.9
-3895.12
-22928
-3832.69
-21085.8
-3665.97
-17984.7
-2921.21
-11212.5
-1584.22
5094.27
-1527.52
16352.6
-1180.56
22987.9
-820.937
28698.7
-575.119
33694.2
-271.863
38835.6
57.1482
43336.8
371.361
47134.1
651.986
50109.3
940.12
53014
1218.03
55129.5
1450.68
55911.7
1671.01
56166.3
1881.52
55951.7
2008.21
53344.4
2043.36
49614
1739.04
38496.2
1187.67
23779
672.406
13909.9
80.9445
8467.66
-110.141
27827.8
-108.37
38585.1
-42.4446
39514.2
49.9547
38965.4
157.01
38779.8
304.377
42800.3
490.985
47558.4
660.979
42899.2
811.54
30543.8
994.053
19215.3
835.552
3636.81
34.0345
-21963.4
-873.421
-36889.8
-41.1785
-33301.5
2374.82
858.87
2625.66
25831.1
2399.38
23391.5
2293.35
12933.4
2112.56
5302.93
2621.14
-210.492
4198.74
-13671.7
5563.16
-25098.3
5666.19
-26956
4561.95
-26190.7
4191.19
19164.9
4560.07
73914.7
4525.09
84299.5
4350.65
77059
4150.51
64487.5
3990.01
51685.7
3898.78
40651
3873.97
31597.8
3899.6
24134.8
3954.96
17777.9
4022.31
12187
4097.13
6969.41
4148.31
2010.29
4037.24
-2659.32
3733.82
-8035.42
3661.34
-11785.9
2646.91
-17212.7
-1218.8
-62504.6
-3914.17
-99821.8
-3781.01
-93399.6
-3010.67
-84193.8
-1956.33
-75341.2
-64651.8
-4569.46
-20343.1
-4499.45
-21937.8
-4424.15
-22593.7
-4337.51
-23363.1
-4244.05
-23919.6
-4148.53
-24287.4
-4058.17
-24350.3
-3982.59
-23985.5
-3927.25
-22983.3
-3882.02
-21131.1
-3742.73
-18124
-3037.14
-11918.1
-1492.54
3549.67
-1320.13
16180.2
-1090.63
22758.4
-802.01
28410.1
-563.311
33455.5
-277.645
38550
36.6764
43022.5
345.282
46825.5
621.901
49832.6
907.193
52728.7
1185.14
54851.5
1419.38
55677.4
1641.61
55944.1
1855.75
55737.6
1989.58
53210.6
2033.34
49570.3
1742.34
38787.2
1194.36
24327
669.294
14434.9
73.191
9063.77
-116.367
28017.4
-109.51
38578.2
-41.8913
39446.6
53.3227
38870.2
163.931
38669.2
316.797
42647.4
509.582
47365.6
684.952
42723.8
840.845
30387.9
1057.9
18998.2
943.444
3751.27
164.085
-21184.1
-710.142
-36015.5
-229.235
-33782.4
2360.78
-1731.15
2747
25444.9
2490.24
23648.3
2368.55
13055.1
2183.25
5488.24
2793.95
-821.2
4419.15
-15296.9
5627.99
-26307.1
5714.55
-27042.5
4670.49
-25146.7
4197.75
19637.6
4574.57
73537.9
4544.26
84329.8
4359.33
77243.9
4153.53
64693.3
3988.87
51850.4
3893.61
40746.2
3864.86
31626.6
3885.96
24113.7
3934.98
17728.8
3998.36
12123.6
4063.46
6904.32
4095.97
1977.78
3984.78
-2548.14
3683.88
-7734.52
3615.9
-11717.9
2767.61
-16364.4
-1133.76
-58603.2
-4046.89
-96908.7
-3879.44
-93567
-2966.76
-85106.4
-1804.6
-76503.3
-65236.7
-4553.76
-20381.1
-4484.78
-22006.8
-4409.98
-22668.5
-4324.25
-23448.8
-4233.23
-24010.7
-4143.27
-24377.4
-4063.71
-24429.9
-4005.13
-24044.1
-3970.54
-23017.9
-3943.69
-21157.9
-3830.93
-18236.8
-3197.03
-12552
-1543.97
1896.61
-1125.17
15761.4
-948.198
22581.4
-769.553
28231.4
-552.797
33238.7
-279.57
38276.7
15.4376
42727.5
314.9
46526
587.372
49560.2
869.004
52447.1
1146.13
54574.4
1382.1
55441.5
1606.43
55719.7
1823.94
55520.1
1965.57
53069
2018.45
49517.4
1745.5
39060.2
1205.24
24867.2
671.282
14968.9
67.8518
9667.2
-123.526
28208.8
-112.391
38567.1
-42.1143
39376.3
56.3882
38771.7
170.969
38554.7
329.549
42488.8
528.603
47166.5
710.551
42541.9
872.845
30225.6
1092.28
18778.8
1029.39
3814.17
316.064
-20470.7
-527.831
-35171.6
-459.021
-33851.2
2374.87
-4565.04
2849.39
24970.4
2595.75
23901.9
2453.19
13197.7
2253.38
5688.04
2973.51
-1541.33
4636.63
-16960
5697.78
-27368.3
5714.97
-27059.7
4714.56
-24146.3
4222.25
20129.9
4577.29
73182.9
4554.48
84352.6
4368.15
77430.2
4158.62
64902.9
3990.01
52019
3889.93
40846.3
3855.96
31660.5
3870.75
24098.9
3912.71
17686.9
3970.1
12066.2
4021.6
6852.82
4028.21
1971.17
3907.82
-2427.75
3618.51
-7445.21
3582.91
-11682.3
2945.11
-15726.6
-994.809
-54663.3
-4203.28
-93700.2
-4041.5
-93728.8
-2973.41
-86174.5
-1672.97
-77803.8
-66038.7
-4541.26
-20418.5
-4473.63
-22074.4
-4399.62
-22742.5
-4315.22
-23533.2
-4227.38
-24098.5
-4144.22
-24460.5
-4077.16
-24496.9
-4037.06
-24084.2
-4023
-23032
-4010.31
-21170.6
-3910.75
-18336.3
-3335.51
-13127.2
-1654.55
215.652
-996.656
15103.5
-783.343
22368.1
-704.586
28152.7
-540.022
33074.2
-280.618
38017.3
-5.26385
42452.1
280.162
46240.6
547.092
49293.2
824.447
52169.8
1099.91
54299
1337.39
55204
1564.05
55493.1
1784.9
55299.2
1934.41
52919.5
1997.8
49454
1745.61
39312.4
1216.17
25396.7
676.452
15508.6
62.3218
10281.3
-131.258
28402.4
-116.48
38552.3
-42.841
39302.7
59.448
38669.4
178.532
38435.6
343.258
42324.1
549.226
46960.6
738.896
42352.2
909.208
30055.3
1128.16
18559.8
1108.54
3833.79
476.575
-19838.8
-302.379
-34392.7
-555.333
-33598.3
2317.03
-7437.4
2925.12
24362.3
2702.04
24125
2529.88
13369.8
2332.48
5885.44
3165.57
-2374.42
4816.84
-18611.3
5723.08
-28274.5
5687.23
-27023.9
4743.79
-23202.9
4244.93
20628.8
4575.7
72852.1
4559.01
84369.3
4376.41
77612.8
4164.72
65114.6
3992.3
52191.4
3886.88
40951.7
3846.64
31700.8
3853.78
24091.8
3888.76
17651.9
3938.96
12016
3975.18
6816.6
3957.9
1988.45
3834.96
-2304.81
3556.58
-7166.83
3526.92
-11652.7
3121.89
-15321.6
-745.091
-50796.3
-4251.24
-90194.1
-4163.97
-93816.1
-2957.67
-87380.8
-1526.9
-79234.5
-66516.4
-4531.62
-20455.1
-4465.42
-22140.6
-4392.4
-22815.5
-4309.83
-23615.8
-4226.03
-24182.3
-4151.08
-24535.5
-4098.29
-24549.7
-4077.89
-24104.6
-4083.28
-23026.6
-4079.83
-21174.1
-3981.59
-18434.6
-3440.82
-13668
-1770.99
-1454.18
-917.611
14250.1
-618.226
22068.7
-597.785
28132.2
-512.744
32989.1
-283.588
37788.2
-25.2775
42193.8
242.372
45972.9
500.715
49034.9
772.989
51897.5
1046.15
54025.8
1284.68
54965.4
1513.8
55263.9
1738.32
55074.7
1895.82
52762
1971.02
49378.8
1741.5
39541.9
1225.23
25912.9
681.461
16052.4
55.8649
10906.9
-140.486
28598.7
-121.792
38533.6
-44.0942
39225
62.5711
38562.8
186.684
38311.5
358.043
42152.7
571.727
46746.9
770.434
42153.5
950.136
29875.6
1177.2
18332.8
1200.49
3810.5
643.373
-19281.6
-43.9443
-33705.4
-221.382
-33420.9
2121.94
-9780.72
2980.11
23504.1
2806.6
24298.5
2595.08
13581.3
2415.27
6065.25
3359.03
-3318.18
4960.19
-20212.5
5714.91
-29029.2
5644.45
-26953.4
4770.32
-22328.7
4258.41
21140.7
4567.23
72543.3
4559.15
84377.4
4383.85
77788.1
4171.55
65326.9
3995.6
52367.3
3884.57
41062.7
3837.17
31748.2
3836.16
24092.8
3864.49
17623.6
3906.61
11973.9
3926.88
6796.33
3889.45
2025.88
3768.44
-2183.8
3500.06
-6898.45
3459.43
-11612
3304.27
-15166.4
-392.037
-47100
-4209.34
-86376.8
-4285.37
-93740.1
-2966.43
-88699.8
-1355.12
-80845.8
-67234.8
-4524.97
-20490.9
-4460.34
-22205.3
-4388.63
-22887.2
-4308.46
-23695.9
-4229.66
-24261.1
-4164.36
-24600.8
-4127.42
-24586.7
-4127.19
-24104.8
-4149.53
-23004.3
-4148.63
-21175
-4040.34
-18542.9
-3519.05
-14189.3
-1873.71
-3099.51
-859.787
13236.2
-476.139
21685
-457.462
28113.5
-457.739
32989.4
-286.284
37616.7
-46.3921
41953.9
202.973
45723.6
449.182
48788.7
714.939
51631.7
985.227
53755.5
1224.25
54726.4
1455.81
55032.4
1684.32
54846.2
1849.99
52596.3
1937.87
49290.9
1733.03
39746.7
1232.63
26413.3
685.509
16599.5
48.3249
11544.1
-151.622
28798.7
-128.523
38510.5
-46.0069
39142.5
65.618
38451.1
195.208
38181.9
373.528
41974.4
595.6
46524.8
804.314
41944.8
994.631
29685.3
1236.69
18090.7
1302.83
3744.36
814.905
-18793.7
231.528
-33122
127.067
-33316.4
2097.78
-11751.4
3033.31
22568.6
2911.13
24420.7
2658.34
13834.1
2508.6
6214.99
3548.35
-4357.93
5061.99
-21726.1
5665.9
-29633.1
5569.93
-26857.4
4780.06
-21538.9
4261.59
21659.1
4549.31
72255.6
4554.78
84371.9
4390.47
77952.4
4179.32
65538
4000.29
52546.4
3883.37
41179.7
3828.04
31803.5
3818.95
24101.9
3840.65
17601.8
3873.5
11941.1
3878.29
6791.53
3823.55
2080.62
3707.04
-2067.29
3448.36
-6639.76
3377.54
-11541.2
3475.31
-15264.2
66.8537
-43691.5
-4050.22
-82259.7
-4392.76
-93397.5
-3005.9
-90086.6
-1289.49
-82562.3
-67949.8
-4521.43
-20525.7
-4458.49
-22268.2
-4388.43
-22957.3
-4311.3
-23773.1
-4238.55
-24333.9
-4184.37
-24655
-4164.58
-24606.4
-4184.2
-24085.2
-4219.64
-22968.8
-4213.27
-21181.3
-4083.09
-18673.1
-3571.45
-14700.9
-1980.71
-4690.26
-828.768
12084.2
-362.587
21218.9
-301.727
28052.7
-368.322
33056
-279.231
37527.6
-69.7964
41744.5
161.882
45491.9
393.529
48557
650.69
51374.6
917.23
53489
1156.16
54487.5
1389.99
54798.5
1622.71
54613.5
1796.66
52422.4
1897.84
49189.7
1719.41
39925.1
1238.37
26894.4
688.691
17149.2
39.366
12193.4
-164.68
29002.7
-136.764
38482.6
-48.6907
39054.4
68.4361
38334
203.881
38046.4
389.351
41788.9
620.345
46293.8
839.631
41725.5
1041.69
29483.2
1302.34
17830.1
1411.6
3635.1
990.863
-18373
511.818
-32642.9
487.478
-33292.1
2182.17
-13446.1
3096.02
21654.8
3018.01
24498.7
2733.9
14118.2
2617.77
6331.11
3721.37
-5461.53
5120.52
-23125.2
5575.01
-30087.6
5455.47
-26737.9
4759.37
-20842.8
4251.31
22167.2
4521.83
71985
4546.47
84347.3
4396.6
78102.3
4188.24
65746.4
4006.53
52728.1
3883.38
41302.8
3819.69
31867.2
3802.9
24118.7
3817.63
17587.1
3840.1
11918.6
3830.42
6801.21
3761.96
2149.07
3652.61
-1957.95
3403.02
-6390.17
3283.48
-11421.7
3613.06
-15593.8
616.122
-40694.6
-3750.83
-77892.8
-4475.19
-92673.2
-3074.8
-91487
-1192.67
-84444.4
-68569.3
-4521.04
-20559.3
-4459.96
-22329.3
-4391.99
-23025.2
-4318.63
-23846.4
-4253.04
-24399.5
-4211.39
-24696.6
-4209.69
-24608.1
-4247.87
-24047
-4291.29
-22925.4
-4270.98
-21201.6
-4108.43
-18835.6
-3592.68
-15216.7
-2053.19
-6229.74
-779.056
10810.1
-268.545
20708.4
-148.699
27932.8
-247.871
33155.2
-249.952
37529.7
-92.4082
41586.9
117.934
45281.5
334.097
48340.9
580.653
51128
842.127
53227.5
1080.24
54249.4
1316.1
54562.7
1553.14
54376.4
1735.42
52240.1
1850.37
49074.8
1699.54
40076
1242.05
27351.9
690.868
17700.4
28.4064
12855.9
-179.771
29210.9
-146.583
38449.4
-52.2559
38960.1
70.8832
38210.9
212.485
37904.8
405.214
41596.2
645.554
46053.5
875.728
41495.3
1090.45
29268.5
1372.87
17547.6
1524.82
3483.15
1171.81
-18020
790.111
-32261.2
840.204
-33342.2
2304.56
-14910.5
3167.41
20791.9
3123.29
24542.8
2823.33
14418.2
2740.29
6414.15
3869.1
-6590.35
5134.9
-24391
5438.73
-30391.5
5292.74
-26591.9
4699.33
-20249.4
4223.08
22643.5
4485.22
71722.9
4535.29
84297.2
4402.76
78234.8
4198.51
65950.6
4014.39
52912.2
3884.75
41432.5
3812.7
31939.2
3788.65
24142.7
3795.79
17580
3807.17
11907.2
3784.52
6823.86
3705.73
2227.86
3605.13
-1857.34
3364.11
-6149.15
3182.4
-11240
3701.99
-16113.3
1232.03
-38224.6
-3290.06
-73370.7
-4508.81
-91454.4
-3167.85
-92828
-1144.43
-86467.8
-69579.9
-4523.88
-20591.7
-4464.86
-22388.3
-4399.47
-23090.6
-4330.68
-23915.2
-4273.44
-24456.7
-4245.66
-24724.4
-4262.46
-24591.3
-4316.86
-23992.6
-4362.02
-22880.2
-4319.15
-21244.5
-4115.62
-19039.1
-3589.99
-15742.3
-2103.75
-7715.98
-700.265
9406.63
-188.826
20196.9
-8.52759
27752.5
-107.616
33254.3
-189.998
37612.1
-106.105
41503
71.1181
45104.3
270.4
48141.6
505.182
50893.2
760.055
52972.6
996.427
54013
1233.93
54325.2
1475.34
54135
1666
52049.4
1794.98
48945.8
1672.63
40198.3
1243.35
27781.1
691.782
18251.9
14.8395
13532.8
-197.141
29422.9
-158.086
38410.4
-56.8291
38858.8
72.8039
38081.2
220.78
37756.8
420.816
41396.2
670.79
45803.5
912.036
41254.1
1139.99
29040.6
1447.19
17240.4
1641.21
3289.13
1354.16
-17732.9
1061.73
-31968.8
1164.14
-33444.6
2429.61
-16175.9
3241.18
19980.3
3216.49
24567.5
2911.84
14722.8
2866.65
6459.34
3987.75
-7711.45
5106.39
-25509.7
5257.4
-30542.5
5076.9
-26411.4
4592.47
-19764.9
4172.46
23063.5
4439.61
71455.7
4522.29
84214.5
4409.64
78347.5
4210.59
66149.7
4024.09
53098.7
3887.81
41568.7
3807.74
32019.3
3776.66
24173.8
3775.48
17581.2
3775.57
11907.2
3741.82
6857.61
3655.96
2313.72
3565.01
-1766.39
3332.06
-5916.2
3082.62
-10990.5
3743.09
-16773.8
1890.1
-36371.7
-2657.99
-68822.6
-4459.84
-89652.6
-3274.34
-94013.5
-1219.96
-88522.2
-70768.3
-4530
-20622.6
-4473.29
-22445
-4411.05
-23152.9
-4347.71
-23978.5
-4300.06
-24504.3
-4287.32
-24737.1
-4322.45
-24556.2
-4389.65
-23925.4
-4429.5
-22840.4
-4355.78
-21318.2
-4103.93
-19291
-3565.72
-16280.5
-2169.42
-9112.28
-610.744
7847.95
-104.18
19690.4
115.116
27533.2
37.2527
33332.1
-99.7908
37749.1
-100.936
41504.2
24.6861
44978.7
201.866
47964.4
424.282
50670.8
671.261
52725.6
904.762
53779.5
1143.39
54086.6
1389.13
53889.3
1588.2
51850.3
1731.31
48802.7
1638.27
40291.3
1241.68
28177.7
691.216
18802.4
-1.94436
14226
-217.051
29638
-171.371
38364.7
-62.5362
38750
74.0405
37944.7
228.529
37602.4
435.866
41188.8
695.618
45543.7
948.08
41001.6
1189.41
28799.2
1523.12
16906.7
1758.48
3053.77
1534.83
-17509.3
1322.36
-31756.3
1460.27
-33582.5
2547.63
-17263.3
3309.14
19218.8
3286.48
24590.2
2985.04
15024.3
2991.61
6452.77
4079.51
-8799.35
5043.22
-26473.4
5041.29
-30540.6
4808.45
-26178.5
4435.6
-19392.1
4095.73
23403.3
4384.9
71166.6
4508.44
84091
4418.09
78437.8
4225.09
66342.7
4036.05
53287.7
3893.04
41711.7
3805.44
32106.9
3767.3
24211.9
3757.11
17591.3
3746.22
11918
3703.43
6900.4
3613.42
2403.73
3532.24
-1685.21
3306.87
-5690.83
2993.16
-10676.8
3742.22
-17522.9
2561.7
-35191.1
-1853.06
-64407.8
-4287.49
-87218.1
-3370.6
-94930.4
-1263.33
-90629.5
-72042.4
-4539.45
-20652.1
-4485.37
-22499.1
-4426.91
-23211.3
-4369.97
-24035.5
-4333.16
-24541.1
-4336.44
-24733.9
-4389
-24503.6
-4464.62
-23849.8
-4491.69
-22813.3
-4380
-21429.9
-4075.27
-19595.7
-3515
-16840.8
-2192.47
-10434.8
-438.303
6093.79
-13.4825
19265.5
224.702
27295.1
173.673
33383.2
11.6671
37911.1
-70.0338
41585.9
-14.7181
44923.4
129.22
47820.5
337.592
50462.4
575.851
52487.4
805.388
53550
1044.44
53847.5
1294.32
53639.4
1501.8
51642.9
1659.13
48645.4
1596.25
40354.2
1235.33
28538.7
688.775
19348.9
-22.2368
14937
-239.694
29855.4
-186.502
38311.5
-69.4812
38633
74.4553
37800.7
235.53
37441.3
450.118
40974.2
719.684
45274.2
983.564
40737.8
1238.04
28544.8
1598.27
16546.5
1874.11
2777.94
1711.76
-17346.9
1568.9
-31613.5
1724.49
-33738.1
2650.63
-18189.4
3365
18504.5
3330.54
24624.6
3043.46
15311.4
3117.82
6378.41
4151.09
-9832.62
4956.24
-27278.5
4798.84
-30383.2
4489.39
-25869.1
4229.41
-19132.1
3990.78
23642
4321.06
70836.3
4494.67
83917.4
4429.11
78503.4
4242.81
66529
4050.92
53479.6
3901.13
41861.5
3806.37
32201.7
3760.88
24257.4
3741.19
17611
3720.02
11939.2
3670.24
6950.17
3578.58
2495.4
3506.55
-1613.19
3288.14
-5472.42
2921.39
-10310.1
3707.08
-18308.6
3209.69
-34693.7
-886.87
-60311.3
-3946.59
-84158.4
-3431.97
-95445
-1344.94
-92716.5
-73727.8
-4552.28
-20680
-4501.21
-22550.2
-4447.22
-23265.3
-4397.72
-24085
-4373
-24565.9
-4392.96
-24713.9
-4461.34
-24435.3
-4540.13
-23771
-4546.97
-22806.5
-4391.74
-21585.2
-4032.71
-19954.7
-3448.8
-17424.7
-2223.21
-11660.4
-276.899
4147.48
93.9827
18894.7
331.455
27057.6
296.601
33418
131.655
38076.1
-13.0091
41730.5
-39.2904
44949.7
55.5823
47725.6
244.901
50273.1
473.628
52258.7
698.413
53325.2
937.105
53608.8
1190.77
53385.7
1406.62
51427
1578.31
48473.7
1546.22
40386.3
1221.85
28863
684.174
19886.6
-45.5273
15666.7
-265.268
30075.2
-203.532
38249.8
-77.7382
38507.2
73.9407
37649
241.622
37273.6
463.377
40752.5
742.719
44994.8
1018.36
40462.1
1285.5
28277.6
1670.87
16161.1
1986.07
2462.74
1883.29
-17244.1
1799.66
-31529.9
1958.16
-33896.6
2735.98
-18967.3
3404.93
17835.5
3357.35
24672.2
3100.1
15568.6
3249.27
6229.24
4208.69
-10792
4851.73
-27921.6
4534.3
-30065.7
4129.87
-25464.7
3977.6
-18979.8
3857.22
23762.4
4248.42
70445.1
4481.89
83683.9
4443.85
78541.4
4264.63
66708.2
4069.48
53674.8
3912.86
42018.2
3811.04
32303.5
3757.73
24310.7
3728.31
17640.5
3697.8
11969.7
3642.86
7005.11
3551.5
2586.76
3487.32
-1549.01
3274.84
-5259.93
2872.01
-9907.23
3646.67
-19083.2
3786.43
-34833.5
206.137
-56731
-3394.98
-80557.3
-3428.41
-95411.5
-1452.52
-94692.4
-75489.6
-4568.53
-20705.9
-4520.91
-22597.8
-4472.16
-23314.1
-4431.18
-24126
-4419.78
-24577.3
-4456.75
-24676.9
-4538.6
-24353.4
-4614.73
-23694.9
-4594.37
-22826.8
-4391.73
-21787.8
-3978.57
-20367.9
-3368.66
-18034.6
-2261.01
-12768.1
-237.296
2123.77
233.599
18423.8
444.271
26846.9
408.415
33453.9
249.277
38235.2
64.3239
41915.5
-43.2636
45057.3
-13.6171
47696
147.013
50112.5
364.203
52041.5
583.789
53105.6
821.467
53371.1
1078.43
53128.8
1302.52
51202.9
1488.79
48287.4
1487.54
40387.6
1199.4
29151.2
676.481
20409.5
-70.4383
16413.6
-293.893
30298.6
-222.497
38178.4
-87.3536
38372
72.4154
37489.3
246.677
37099.3
475.483
40523.7
764.509
44705.8
1052.43
40174.2
1331.67
27998.4
1739.84
15753
2092.95
2109.63
2048.2
-17199.4
2013.72
-31495.4
2163.66
-34046.5
2804.85
-19608.5
3427.99
17212.4
3379.97
24720.2
3167.8
15780.8
3384.98
6012.07
4256.91
-11664
4735.08
-28399.7
4255.33
-29586
3744.84
-24954.2
3684.31
-18919.3
3695.11
23751.6
4167.8
69972.4
4471.04
83380.7
4463.49
78549
4291.53
66880.2
4092.59
53873.7
3929
42181.7
3819.89
32412.6
3758.21
24372.4
3719.07
17679.6
3680.3
12008.5
3621.58
7063.83
3531.84
2676.5
3473.47
-1490.64
3265.21
-5051.67
2846.46
-9488.48
3572.55
-19809.3
4238.05
-35499
1359.1
-53852
-2606.71
-76591.5
-3322.92
-94695.3
-1514.08
-96501.2
-77502.5
-4588.28
-20729.9
-4544.57
-22641.5
-4501.9
-23356.8
-4470.59
-24157.3
-4473.67
-24574.2
-4527.59
-24623
-4619.87
-24261.1
-4687.26
-23627.5
-4633.7
-22880.4
-4381.74
-22039.7
-3916.29
-20833.3
-3271.58
-18679.3
-2232.17
-13807.5
-197.161
88.7615
376.625
17850
573.14
26650.4
515.663
33511.4
358.346
38392.5
152.684
42121.2
-25.166
45235.1
-72.0226
47742.8
46.3914
49994.1
247.399
51840.5
461.26
52891.7
697.542
53134.9
957.308
52869
1189.43
50970.8
1390.5
48086.3
1419.49
40358.6
1167.38
29403.3
663.744
20913.2
-95.9471
17173.3
-325.473
30528.1
-243.415
38096.3
-98.3512
38227
69.8157
37321.1
250.586
36918.6
486.283
40288
784.864
44407.2
1085.73
39873.3
1376.56
27707.6
1804.77
15324.7
2193.83
1720.57
2205.59
-17211.2
2211.01
-31500.8
2340.76
-34176.3
2855.18
-20122.9
3435.13
16632.4
3407.08
24748.3
3249.9
15938
3519.27
5742.7
4298.54
-12443.3
4612.45
-28713.7
3977.52
-28951
3348.56
-24325.2
3351.83
-18922.6
3504.2
23599.2
4080.06
69396.5
4462.85
82997.9
4489.07
78522.7
4324.5
67044.7
4121.13
54077.1
3950.24
42352.6
3833.29
32529.5
3762.64
24443
3714.01
17728.2
3668
12054.5
3606.31
7125.52
3518.78
2764.03
3463.41
-1435.27
3256.84
-4845.1
2843.06
-9074.71
3499.22
-20465.5
4535.24
-36535
2487.06
-51803.9
-1590.35
-72514.1
-3083.21
-93202.5
-1631.84
-97952.6
-79696
-4611.56
-20751.5
-4572.32
-22680.7
-4536.62
-23392.5
-4516.18
-24177.7
-4534.79
-24555.6
-4605.17
-24552.6
-4704.3
-24162
-4757
-23574.8
-4665.59
-22971.8
-4364.39
-22340.9
-3850.69
-21347
-3168.15
-19361.8
-2154.43
-14821.2
-114.609
-1951.06
560.459
17174.9
719.751
26491.1
623.044
33608.1
457.147
38558.4
242.659
42335.7
11.8069
45466
-114.382
47869
-52.8323
49932.5
123.789
51663.8
330.486
52685
565.208
52900.1
827.44
52606.8
1067.32
50730.9
1283.46
47870.2
1341.8
40300.2
1125.85
29619.2
644.009
21395
-122.632
17940
-359.557
30765.1
-266.275
38003
-110.736
38071.4
66.0872
37144.3
253.241
36731.4
495.613
40045.6
803.589
44099.3
1118.15
39558.8
1420.31
27405.4
1865.76
14879.3
2288.32
1298.01
2354.99
-17277.8
2391.54
-31537.3
2491.2
-34275.9
2887.13
-20518.8
3428.22
16091.3
3439.74
24736.8
3341.29
16036.4
3646.41
5437.58
4335.07
-13131.9
4490.58
-28869.2
3722.87
-28183.3
2953.61
-23556
2975.14
-18944.1
3284.81
23289.5
3985.4
68696
4457.51
82525.8
4521.21
78459
4364.38
67201.6
4155.92
54285.6
3977.16
42531.4
3851.56
32655.1
3771.34
24523.3
3713.46
17786.1
3660.96
12107
3596.53
7189.96
3510.97
2849.6
3454.95
-1379.25
3246.9
-4637.05
2857.72
-8685.53
3441.09
-21048.8
4688.77
-37782.7
3507.98
-50623.1
-402.451
-68603.6
-2672.61
-90932.3
-1641.96
-98983.2
-81864.5
-4638.44
-20770.5
-4604.26
-22714.9
-4576.49
-23420.2
-4568.17
-24186.1
-4603.23
-24520.5
-4689.13
-24466.7
-4791.19
-24059.9
-4823.79
-23542.2
-4691.55
-23104.1
-4343.01
-22689.5
-3786.29
-21903.8
-3065.94
-20082.2
-2058.51
-15828.6
-26.2974
-3983.28
776.782
16371.8
879.747
26388.1
735.458
33752.4
548.21
38745.7
327.44
42556.4
61.1828
45732.2
-138.189
48068.4
-145.633
49940
-4.89574
51523.1
191.337
52488.8
424.177
52667.3
688.794
52342.2
936.205
50483.5
1167.69
47638.7
1254.96
40213
1074.97
29799.2
615.864
21854.1
-152.268
18708.1
-395.587
31008.4
-291.005
37898.4
-124.494
37904.9
61.1792
36958.6
254.528
36538.1
503.288
39796.9
820.474
43782.1
1149.5
39229.7
1463.02
27091.9
1922.92
14419.4
2376.4
844.531
2496.12
-17397.5
2555.58
-31596.8
2614.76
-34335.1
2899.61
-20803.7
3409.54
15581.4
3474.47
24671.8
3434.57
16076.3
3763.53
5108.63
4367.23
-13735.6
4375.69
-28877.6
3508.71
-27316.4
2565.13
-22612.4
2544.68
-18923.6
3038.76
22795.4
3883.37
67851.3
4454.28
81954.9
4559.81
78353.5
4411.55
67349.8
4197.55
54499.6
4010.15
42718.8
3874.88
32790.4
3784.43
24613.7
3717.42
17853.1
3658.69
12165.7
3591.14
7257.52
3506.42
2934.31
3445.4
-1318.23
3232.64
-4424.28
2885.11
-8338
3407.75
-21571.5
4723.73
-39098.7
4339.8
-50239.1
861.385
-65125.2
-2076.37
-87994.6
-1605.16
-99454.4
-84078.2
-4668.97
-20786.6
-4640.5
-22743.4
-4621.71
-23439
-4626.8
-24181
-4679.04
-24468.2
-4779.12
-24366.7
-4880.04
-23959
-4888.03
-23534.2
-4713.9
-23278.2
-4321.67
-23081.7
-3728.35
-22497.1
-2972.76
-20837.8
-1956.01
-16845.4
20.2476
-5959.54
970.341
15421.7
1065.17
26293.3
858.517
33959
635.927
38968.3
403.59
42788.8
115.333
46020.5
-144.447
48328.2
-227.322
50022.8
-135.621
51431.4
44.1995
52309
274.126
52437.4
541.222
52075.1
796.083
50228.7
1043.34
47391.4
1159.8
40096.5
1014.86
29944.2
578.55
22290.4
-186.829
19473.5
-433.428
31255
-317.49
37782.5
-139.575
37727
55.047
36764
254.322
36338.8
509.099
39542.1
835.291
43455.9
1179.53
38885.5
1504.9
26766.5
1976.03
13948.3
2458.32
362.242
2629.04
-17568.3
2704.42
-31672.2
2713.89
-34344.6
2894.09
-20983.8
3381.81
15093.7
3507.21
24546.4
3523.54
16060
3869.66
4762.51
4395.6
-14261.6
4272.24
-28754.3
3339.37
-26383.5
2188.35
-21461.3
2067.38
-18802.7
2771.76
22091
3774.71
66848.4
4451.96
81277.6
4603.92
78201.6
4465.8
67487.9
4246.16
54719.2
4049.31
42915.7
3903.26
32936.5
3801.8
24715.2
3725.45
17929.5
3660.14
12231
3588.43
7329.23
3502.61
3020.13
3431.97
-1247.58
3211.92
-4204.23
2919.88
-8045.96
3402.04
-22053.6
4671.5
-40368.2
4915.64
-50483.3