/*--------------------------------*- C++ -*----------------------------------*\
| =========                 |                                                 |
| \\      /  F ield         | OpenFOAM: The Open Source CFD Toolbox           |
|  \\    /   O peration     | Version:  4.1                                   |
|   \\  /    A nd           | Web:      www.OpenFOAM.org                      |
|    \\/     M anipulation  |                                                 |
\*---------------------------------------------------------------------------*/
FoamFile
{
    version     2.0;
    format      ascii;
    class       volVectorField;
    location    "19";
    object      U;
}
// * * * * * * * * * * * * * * * * * * * * * * * * * * * * * * * * * * * * * //

dimensions      [0 1 -1 0 0 0 0];

internalField   nonuniform List<vector> 
6785
(
(1.65825e-13 -0.577793 16.0601)
(1.65123e-13 -6.45937 12.3805)
(-4.41824e-14 -4.71915 12.7282)
(6.55382e-14 -4.19129 12.4946)
(2.04924e-14 -3.58898 12.3248)
(-2.07011e-14 -3.12498 12.1019)
(2.74865e-14 -2.74602 11.8437)
(1.49575e-14 -2.46596 11.5289)
(-2.38674e-14 -2.28161 11.1461)
(5.92075e-14 -2.16155 10.7198)
(-1.93084e-15 -2.11389 10.2959)
(-4.96849e-14 -2.37024 9.80213)
(6.40148e-14 -2.94623 9.17214)
(-1.69729e-15 -2.22727 8.85495)
(-1.33744e-13 1.03312 7.53675)
(3.7035e-13 -7.20338 25.6886)
(2.48778e-13 -16.5012 21.6514)
(-5.00904e-14 -11.666 21.9244)
(2.73094e-13 -11.8741 20.5429)
(1.37668e-14 -11.0215 19.53)
(1.07929e-14 -10.3693 18.4792)
(2.77407e-13 -9.71405 17.4235)
(8.89639e-15 -9.07799 16.3541)
(4.85984e-14 -8.49098 15.2829)
(3.26211e-13 -7.9718 14.2605)
(4.33856e-14 -7.43016 13.3301)
(8.26687e-14 -6.84571 12.3925)
(5.16784e-13 -6.48799 11.0543)
(-1.02946e-14 -5.28295 8.51827)
(-1.53935e-13 -1.1192 2.66199)
(1.19814e-13 -9.91789 27.2254)
(2.58035e-13 -17.4886 23.8723)
(-8.16207e-14 -11.7124 24.214)
(1.24054e-15 -12.5065 22.0735)
(2.53065e-14 -11.0018 20.9211)
(-4.2277e-14 -10.1833 19.4673)
(-4.42451e-14 -9.2437 18.0642)
(3.40182e-14 -8.36008 16.6389)
(-3.86281e-14 -7.51775 15.2177)
(-1.233e-13 -6.78816 13.86)
(9.77816e-15 -6.31047 12.7249)
(-6.39769e-14 -6.16601 11.9117)
(-8.31368e-14 -6.08536 10.9213)
(3.76921e-15 -5.01477 7.98787)
(-4.04069e-13 -0.818553 0.337202)
(2.95103e-13 -11.2377 26.6015)
(1.4218e-13 -16.9247 23.6657)
(3.37746e-15 -11.6253 23.958)
(-3.99093e-14 -12.8326 21.3525)
(-6.23641e-14 -10.9482 20.2601)
(3.77883e-14 -10.2827 18.5745)
(-1.12476e-13 -9.26807 17.1065)
(-3.77522e-14 -8.36627 15.5727)
(-2.59703e-14 -7.2914 13.7866)
(-3.47901e-13 -5.85807 11.2466)
(-4.24707e-13 -4.34848 8.14653)
(-2.56548e-13 -3.9602 6.46119)
(-5.15276e-13 -4.90147 7.24644)
(-6.19402e-13 -5.29867 7.41069)
(2.12926e-13 -3.53418 4.91772)
(2.02022e-13 -12.0423 26.9164)
(-1.13816e-13 -17.082 24.4932)
(-1.95809e-14 -12.0126 24.6436)
(-1.76607e-13 -13.5739 21.8746)
(-3.0181e-13 -11.2854 20.9784)
(-3.41761e-14 -10.875 19.1657)
(-2.81581e-13 -9.72562 17.7956)
(-3.81601e-13 -8.83578 16.2918)
(-1.61096e-13 -7.6155 14.4492)
(-7.44252e-13 -5.61527 11.2291)
(-1.27905e-12 -2.60516 6.21573)
(-9.40925e-13 -0.198759 2.45181)
(-1.16412e-13 -0.510923 2.83614)
(4.15566e-13 -2.21794 4.97659)
(6.17122e-13 -2.51646 5.64474)
(2.90377e-13 -12.2914 26.5359)
(-1.02266e-13 -17.595 25.8969)
(1.17308e-13 -12.5483 25.3497)
(-2.04022e-13 -14.1496 22.5532)
(-2.73412e-13 -11.7442 21.778)
(8.12517e-14 -11.5286 19.9136)
(-2.86388e-13 -10.3728 18.6154)
(-3.35249e-13 -9.58236 17.1717)
(6.01691e-14 -8.55843 15.5745)
(-5.99561e-13 -6.92302 12.9954)
(-1.00627e-12 -4.06667 8.47178)
(-6.05171e-13 -0.471203 3.2896)
(4.20763e-13 2.21464 -0.238893)
(1.13817e-12 2.13829 -1.06473)
(7.6837e-15 0.26133 0.4895)
(5.12358e-13 -12.0211 24.9611)
(3.75838e-15 -17.7647 26.7539)
(2.48079e-13 -13.1182 25.4319)
(-1.83025e-13 -14.2196 22.6008)
(-2.00435e-13 -12.1516 21.7147)
(2.98193e-13 -11.8689 19.9047)
(-1.72091e-13 -10.871 18.5448)
(-2.76586e-13 -10.1292 17.1082)
(2.85935e-13 -9.3289 15.6467)
(-2.06586e-13 -8.26395 13.7997)
(-5.54509e-13 -6.58405 11.0184)
(-1.60908e-13 -4.09101 7.2683)
(-1.71673e-13 -0.771407 2.81782)
(-3.43212e-12 2.77578 -1.96563)
(-3.34562e-12 1.04224 -3.31878)
(3.55479e-13 -11.4881 22.9443)
(9.64702e-14 -17.5365 26.9222)
(2.71739e-13 -13.4128 25.1624)
(-1.3547e-13 -13.9753 22.2218)
(-2.51368e-13 -12.1734 21.2038)
(2.14985e-13 -11.7932 19.4385)
(9.91723e-15 -10.8642 18.0233)
(-2.4657e-13 -10.1164 16.5676)
(1.56024e-13 -9.37698 15.1307)
(3.76462e-14 -8.53888 13.5868)
(-2.77619e-13 -7.47297 11.6617)
(-1.61027e-13 -5.94226 9.17436)
(-9.45742e-14 -3.8625 5.84846)
(-8.51476e-13 -1.05603 1.88053)
(-5.04545e-12 0.474618 -2.80926)
(3.73185e-13 -10.9508 21.1979)
(1.31813e-13 -17.159 26.8275)
(6.35561e-14 -13.4882 24.9116)
(-9.16214e-14 -13.6621 21.8575)
(-2.51729e-13 -11.9404 20.7718)
(-8.59524e-16 -11.5221 19.0162)
(8.50521e-14 -10.555 17.5931)
(-2.1206e-13 -9.7746 16.1044)
(-2.5853e-13 -9.00815 14.6703)
(1.31487e-13 -8.21039 13.2347)
(-1.17864e-13 -7.34531 11.6322)
(-5.12696e-13 -6.1961 9.72158)
(-4.39385e-14 -4.71698 7.13419)
(-1.79491e-13 -2.43573 3.7238)
(-4.02791e-12 0.0350874 -2.03596)
(1.61328e-13 -10.4674 19.7613)
(1.37243e-13 -16.6991 26.5803)
(5.95528e-14 -13.4693 24.68)
(-2.34496e-13 -13.3438 21.5524)
(-2.60508e-13 -11.6484 20.4181)
(-8.83926e-14 -11.2285 18.6812)
(-9.77594e-14 -10.229 17.281)
(-2.64414e-13 -9.43051 15.7715)
(-3.62582e-13 -8.61319 14.2982)
(-1.7012e-13 -7.79071 12.8761)
(-1.32244e-13 -6.97915 11.3905)
(-5.63885e-13 -5.97617 9.74382)
(-5.6465e-13 -4.77776 7.5491)
(4.64839e-14 -2.77358 4.57051)
(-3.09109e-12 -0.189608 -1.47099)
(-8.81787e-14 -10.1888 18.9432)
(2.28495e-13 -16.3872 26.5187)
(-2.33786e-13 -13.7352 24.8043)
(-3.18716e-13 -13.2873 21.66)
(-1.57467e-13 -11.7047 20.3432)
(-5.15378e-13 -11.18 18.6315)
(-3.06119e-13 -10.2463 17.2028)
(-1.15517e-13 -9.53138 15.8115)
(-7.66865e-13 -8.7399 14.4179)
(-5.31654e-13 -7.89268 12.983)
(-1.54331e-14 -7.05958 11.5106)
(-1.03853e-12 -6.10445 9.97884)
(-8.58387e-13 -5.07456 8.07194)
(-1.01043e-12 -3.35365 5.59732)
(-4.15621e-12 -1.10816 0.698374)
(-4.94152e-14 -9.67733 17.4865)
(3.59309e-13 -15.3866 25.1591)
(-5.5381e-13 -13.1995 23.799)
(-2.57384e-13 -12.6568 20.792)
(-7.03206e-14 -11.1353 19.4638)
(-9.10778e-13 -10.5904 17.7767)
(-3.81144e-13 -9.66021 16.4004)
(2.39485e-13 -8.98264 15.0162)
(-7.04886e-13 -8.3871 13.9209)
(-5.30479e-13 -7.68514 12.7016)
(1.08299e-13 -6.87767 11.3244)
(-9.50299e-13 -5.9274 9.86824)
(-4.49477e-13 -4.95487 8.14364)
(-1.53902e-12 -3.51208 6.06332)
(-3.50631e-12 -1.24122 0.494822)
(-2.6797e-13 -10.9524 19.4281)
(2.66254e-13 -16.8157 27.2112)
(-4.09624e-13 -15.2473 25.9243)
(-4.7351e-13 -14.3454 22.7643)
(1.09088e-13 -12.7823 21.0249)
(-5.91026e-13 -12.1687 19.294)
(-2.05043e-13 -11.0054 17.4992)
(5.3063e-13 -10.1247 15.5108)
(-8.73517e-13 -9.64905 14.4782)
(-1.19269e-12 -9.38817 13.7935)
(-3.36311e-13 -9.02855 12.979)
(-9.1419e-13 -8.37175 11.9029)
(-7.24532e-13 -7.12986 10.1194)
(-5.9257e-13 -5.11743 7.72658)
(-2.50405e-12 -2.86846 3.47141)
(-3.80529e-13 -2.19535 7.61389)
(-1.99632e-13 -9.27559 19.4112)
(-6.48778e-13 -7.05633 19.3607)
(-6.973e-13 -6.0163 18.0349)
(-1.01998e-12 -4.63719 17.0078)
(-1.53895e-12 -3.73706 15.1819)
(-1.63679e-12 -2.99966 13.2399)
(-1.62127e-12 -2.88617 11.5158)
(-1.50822e-12 -3.22748 10.6093)
(-1.18359e-12 -3.633 10.2088)
(-9.52399e-13 -4.13255 10.6036)
(-8.92225e-13 -5.48567 12.5894)
(-9.9436e-13 -7.08286 14.5024)
(-1.33378e-12 -6.00173 12.0339)
(-1.39091e-12 -2.10665 6.22272)
(-4.32161e-13 -38.9048 65.9054)
(-6.40876e-13 -26.6378 57.1115)
(-9.94273e-13 -21.0015 45.9609)
(-1.41689e-12 -17.1344 39.3485)
(-1.9341e-12 -11.9397 29.6469)
(-2.01221e-12 -6.10207 19.7329)
(-1.53835e-12 0.523383 9.74099)
(-7.35151e-13 4.06815 4.49397)
(-4.01711e-13 3.90661 5.98268)
(-5.90704e-13 2.26428 8.88714)
(-6.18849e-13 0.80766 11.1271)
(-5.20575e-13 -0.189328 10.4987)
(-5.14657e-13 -1.35591 7.77526)
(-2.32139e-13 3.47224 2.09974)
(1.71268e-13 10.1201 -0.447663)
(7.26208e-15 0.689988 0.522082)
(9.02728e-14 -1.91685 4.713)
(9.99897e-14 -1.772 2.31224)
(1.05895e-13 -1.7859 3.36163)
(8.9127e-14 -1.77375 3.72312)
(7.43324e-14 -3.47284 5.6311)
(4.08269e-14 -3.7109 3.1335)
(2.66204e-14 -3.82438 3.60793)
(1.16637e-14 -3.81015 3.69444)
(2.17334e-14 -5.98519 5.33086)
(-1.31178e-14 -5.55178 2.7862)
(-1.261e-14 -5.48728 3.11137)
(-1.59566e-14 -7.77153 4.22582)
(-1.16755e-14 -7.21566 1.98486)
(-1.1332e-14 -7.42161 2.16415)
(-9.08896e-15 -7.13919 2.06449)
(-6.49807e-15 -10.0085 2.86894)
(-4.83995e-15 -8.65879 0.865305)
(-8.52727e-15 -8.47839 1.01777)
(-9.16944e-15 -11.2088 1.36006)
(-9.33531e-15 -10.0034 -0.139254)
(-1.04643e-14 -10.1972 -0.0119754)
(-1.12906e-14 -9.55467 -0.057621)
(-1.80835e-14 -12.7422 0.162297)
(-1.20462e-14 -11.0662 -1.02621)
(-1.12976e-14 -11.2154 -0.896369)
(-1.0056e-14 -10.5716 -0.957111)
(-7.69311e-15 -14.2247 -1.16125)
(-6.29178e-15 -11.813 -2.1515)
(-2.77411e-15 -11.4612 -2.11316)
(-2.74585e-15 -14.7968 -2.62406)
(-1.79378e-15 -12.853 -3.13119)
(1.1887e-15 -12.8818 -3.07348)
(1.03846e-15 -12.0785 -3.12341)
(6.63673e-15 -15.9761 -3.92806)
(2.9801e-15 -13.2007 -4.20698)
(3.03758e-15 -12.8022 -4.28046)
(3.5425e-15 -15.9876 -5.59194)
(1.21689e-15 -13.6745 -5.09537)
(8.59414e-16 -13.679 -4.983)
(3.36994e-16 -12.7178 -4.97122)
(-2.78549e-15 -15.549 -6.98964)
(-1.28509e-15 -12.9923 -6.30016)
(-5.18485e-17 -12.9204 -6.21244)
(1.82056e-15 -11.9361 -6.19574)
(5.5437e-15 -13.9784 -9.18139)
(5.0223e-15 -11.321 -8.02098)
(8.40238e-15 -10.4487 -8.40762)
(7.49348e-15 -10.9943 -12.5969)
(4.77936e-15 -9.24716 -10.0556)
(1.22424e-15 -8.6253 -9.85587)
(5.75952e-15 -7.47486 -9.64725)
(1.32311e-14 -6.65244 -14.7938)
(2.43926e-14 -5.92079 -12.3238)
(3.84329e-14 -4.21419 -12.5966)
(4.38408e-14 -3.81058 -12.0973)
(-1.98138e-15 -0.0860157 -17.3073)
(-4.98682e-15 -2.16237 -13.5188)
(-1.57777e-14 -0.443054 -13.0249)
(-1.49409e-15 4.89068 -20.6626)
(1.63633e-15 3.08722 -15.1186)
(2.87566e-15 4.71717 -15.4368)
(2.00136e-15 4.81732 -14.7519)
(2.73718e-14 9.83702 -23.0849)
(2.24946e-14 8.86085 -17.01)
(1.86227e-14 10.1595 -15.6777)
(2.06965e-14 16.2005 -24.3854)
(1.09443e-14 13.3265 -17.4732)
(1.07375e-14 16.1575 -17.3097)
(1.04568e-14 15.849 -16.1544)
(1.31779e-14 23.1138 -24.9388)
(9.63645e-15 19.2599 -17.799)
(9.36733e-15 22.5346 -17.4841)
(9.64102e-15 22.0249 -16.2618)
(1.12024e-14 29.8652 -24.8829)
(1.76694e-15 25.5534 -18.0463)
(2.72436e-15 27.7691 -16.3539)
(7.09257e-15 35.8493 -24.8496)
(1.75156e-15 31.2836 -18.0285)
(2.81435e-15 29.919 -16.3566)
(1.75124e-14 34.6853 -19.3732)
(1.12172e-14 31.7511 -19.5891)
(-7.26871e-16 32.2332 -18.4849)
(-1.50174e-14 37.2762 -23.3743)
(2.14661e-14 35.0063 -18.007)
(-1.65101e-14 35.5217 -17.0326)
(-4.60771e-14 35.8642 -16.1783)
(-4.96411e-14 36.0107 -15.544)
(-4.4516e-14 36.1104 -15.0223)
(-3.44806e-14 36.2207 -14.4984)
(-2.91867e-14 36.4223 -14.02)
(-4.14158e-14 36.3332 -12.6546)
(7.14538e-14 42.6703 -18.5824)
(-8.85894e-15 38.6432 -12.5312)
(-2.28261e-15 39.9623 -11.7929)
(-3.01869e-15 39.9703 -10.9879)
(6.61634e-15 39.9413 -10.0348)
(1.16184e-14 40.0961 -9.26185)
(1.48874e-14 40.2527 -8.32771)
(1.92034e-14 40.5879 -7.15254)
(3.91414e-15 40.3131 -4.96999)
(7.76102e-14 46.1309 -9.55371)
(-4.33428e-14 42.7649 -2.79681)
(-5.63318e-14 44.0707 -1.29172)
(-6.9579e-14 44.0282 0.282996)
(-9.16352e-14 43.9517 1.90699)
(-1.09701e-13 44.0606 3.42289)
(-1.14065e-13 44.2224 4.54699)
(-1.3595e-13 43.985 5.8269)
(-1.65191e-13 44.1808 7.08735)
(-1.98272e-13 43.668 8.63018)
(-1.34112e-13 50.4669 6.38999)
(-2.08125e-13 46.599 10.64)
(-2.32627e-13 47.4325 11.6765)
(-2.5319e-13 47.2763 12.7041)
(-2.73296e-13 46.967 13.6795)
(-2.52704e-13 47.112 14.2356)
(-3.12107e-13 46.9226 14.7835)
(-3.73402e-13 47.1115 15.4491)
(-4.07539e-13 46.3877 15.9698)
(-2.44985e-13 54.1526 14.8076)
(-3.34051e-13 49.081 16.4036)
(-3.73114e-13 50.0516 16.3078)
(-4.67058e-13 49.7669 16.9995)
(-4.63149e-13 49.5931 17.0616)
(-4.39556e-13 49.6894 16.8431)
(-4.06661e-13 49.3646 16.5805)
(-3.9557e-13 50.0151 15.6543)
(-4.05034e-13 48.7589 16.6742)
(-4.0903e-14 60.3249 12.0609)
(-3.52031e-13 52.3307 15.3391)
(-3.47906e-13 53.3536 14.6609)
(-3.44675e-13 53.5016 13.5115)
(-3.07076e-13 53.1131 13.1298)
(-2.71466e-13 53.4841 12.4015)
(-2.58937e-13 53.7461 11.1615)
(-2.5183e-13 54.3581 9.62697)
(-2.67956e-13 53.9335 8.49989)
(-1.88598e-14 66.751 0.151806)
(-2.3258e-13 56.771 6.59278)
(-2.51874e-13 58.6814 6.06081)
(-2.67849e-13 59.1096 5.52941)
(-2.83933e-13 59.0279 5.36465)
(-3.1078e-13 59.5705 5.15144)
(-2.84643e-13 59.9563 6.39913)
(-3.08304e-13 60.3608 7.40894)
(-3.35415e-13 61.1256 8.24609)
(-3.75937e-13 60.5957 10.7217)
(-2.66539e-13 75.5552 1.18776)
(-4.05325e-13 64.2634 13.0303)
(-4.19089e-13 66.6317 15.564)
(-4.41484e-13 67.4385 17.7029)
(-4.61577e-13 67.4115 19.7847)
(-4.79514e-13 68.0332 21.719)
(-4.87838e-13 68.4741 23.9636)
(-4.81856e-13 69.1764 26.7371)
(-4.92894e-13 68.9179 30.3082)
(-4.61225e-13 89.0198 18.9463)
(-5.10233e-13 74.1644 30.8978)
(-5.27407e-13 77.8008 34.3661)
(-4.1523e-13 75.9606 23.7908)
(-4.97095e-13 76.4567 24.5817)
(-5.93685e-13 85.6986 27.3607)
(-4.02331e-13 63.267 18.677)
(-5.56562e-13 90.879 23.6067)
(-4.105e-13 66.4308 17.8636)
(-5.05556e-13 73.9876 20.3043)
(-5.96298e-13 81.6704 23.4087)
(-4.13785e-13 62.1196 16.7381)
(-5.00344e-13 74.9128 19.2951)
(-5.838e-13 82.1908 22.5475)
(-3.89533e-13 57.7952 15.3506)
(-5.25946e-13 83.1866 19.7741)
(-3.80877e-13 60.5918 14.7934)
(-4.62877e-13 67.5734 17.0482)
(-5.34337e-13 75.1031 19.9114)
(-3.53821e-13 53.522 13.4273)
(-4.75786e-13 77.2974 17.3337)
(-3.40986e-13 55.7291 12.8786)
(-4.12568e-13 62.8824 14.8073)
(-4.71283e-13 67.6861 17.2119)
(-3.17813e-13 50.5285 11.9974)
(-3.79544e-13 61.9803 13.9217)
(-4.32008e-13 66.4982 16.1423)
(-2.82469e-13 46.0245 10.659)
(-3.71152e-13 67.1606 13.4567)
(-2.60574e-13 48.1554 9.63769)
(-3.1017e-13 54.3001 10.8738)
(-3.40205e-13 59.5046 11.7325)
(-2.17015e-13 41.7829 7.41342)
(-2.77604e-13 61.8169 8.1939)
(-1.89912e-13 44.0349 5.17226)
(-2.19273e-13 50.6166 4.56929)
(-2.34731e-13 54.4608 2.39465)
(-1.51682e-13 40.5082 0.402519)
(-1.75838e-13 51.4991 -1.69825)
(-1.96575e-13 55.963 -5.0091)
(-1.25591e-13 38.406 -4.54208)
(-1.69094e-13 59.7966 -8.71549)
(-1.18529e-13 43.2393 -7.38301)
(-1.45203e-13 50.5271 -10.5425)
(-1.70527e-13 56.7841 -13.4019)
(-1.1099e-13 40.1282 -9.59406)
(-1.58016e-13 62.7828 -14.0057)
(-1.11807e-13 45.4737 -10.5467)
(-1.38991e-13 53.8698 -13.5825)
(-1.66431e-13 58.5495 -15.4988)
(-1.10635e-13 44.2144 -10.6059)
(-1.35465e-13 57.3707 -13.0677)
(-1.57377e-13 62.4763 -14.242)
(-1.00034e-13 43.6239 -9.54916)
(-1.35126e-13 67.4255 -12.818)
(-9.21852e-14 49.4825 -9.05958)
(-1.11355e-13 57.4486 -11.1103)
(-1.24973e-13 64.4148 -11.421)
(-7.65854e-14 46.2407 -7.39845)
(-1.00575e-13 70.4036 -9.4252)
(-6.53879e-14 51.5676 -6.22331)
(-7.64663e-14 60.044 -7.44903)
(-7.83082e-14 65.4563 -6.51811)
(-4.48794e-14 49.7982 -3.54801)
(-5.12755e-14 62.8872 -3.78138)
(-4.61079e-14 68.7014 -1.65676)
(-2.37309e-14 48.3553 -0.464401)
(-2.73225e-14 72.2078 0.54756)
(-1.39533e-14 52.9273 1.2772)
(-1.45849e-14 60.3495 1.9796)
(-1.11664e-14 66.8487 4.56522)
(-4.45829e-15 47.9196 3.46085)
(-4.15342e-15 70.49 5.26437)
(1.54241e-16 51.1683 4.25501)
(4.11861e-16 58.5194 5.07929)
(4.15385e-15 62.3655 6.78717)
(4.75122e-15 46.7322 4.73963)
(5.47341e-15 58.2327 5.50599)
(6.79796e-15 61.5771 6.60694)
(5.13749e-15 42.8521 4.11271)
(6.22935e-15 62.806 4.64752)
(4.72342e-15 45.1718 3.17046)
(6.05946e-15 52.4227 2.31219)
(3.02847e-18 26.9806 31.0153)
(1.68912e-19 28.9836 30.5304)
(-3.45689e-19 29.8405 30.0629)
(7.6436e-19 30.8249 29.5197)
(1.38106e-19 31.5385 28.8962)
(-2.51664e-18 32.0141 28.2291)
(-1.25216e-17 32.1029 27.5092)
(-3.68433e-17 31.6516 26.7827)
(-8.55902e-17 30.3722 26.0832)
(-1.68435e-16 27.93 25.4651)
(-2.90235e-16 23.5207 24.8463)
(-4.32595e-16 13.0299 22.6841)
(-4.92894e-16 -9.68756 15.0476)
(-4.61911e-16 -20.8005 11.7837)
(-4.28118e-16 -30.7198 9.72272)
(-3.92913e-16 -38.4337 6.35261)
(-3.48761e-16 -44.8562 4.87015)
(-2.99296e-16 -51.9474 2.86451)
(-2.48277e-16 -58.1171 0.578924)
(-1.97126e-16 -63.225 -1.5437)
(-1.49351e-16 -67.1981 -3.67619)
(-1.08253e-16 -71.1682 -5.32221)
(-7.13462e-17 -74.0301 -7.52445)
(-3.99544e-17 -75.0281 -9.02711)
(-2.18787e-17 -75.3929 -10.606)
(-2.7879e-17 -75.1249 -11.9355)
(-7.30794e-17 -71.4882 -13.3868)
(-1.59826e-16 -66.3252 -13.5427)
(-3.32718e-16 -50.7384 -13.7679)
(-1.89088e-16 -30.6766 -9.33496)
(-2.62453e-15 -17.8638 -6.42655)
(-4.07156e-15 -10.688 -2.34036)
(-3.77794e-15 -37.0326 0.816338)
(-3.86572e-15 -51.7158 0.674168)
(-4.28717e-15 -53.0986 0.754692)
(-4.95264e-15 -52.4248 -0.170503)
(-5.49294e-15 -52.2018 -0.461488)
(-5.59212e-15 -57.609 -1.55104)
(-5.14416e-15 -63.9828 -2.37084)
(-4.28348e-15 -57.6682 -3.9335)
(-3.07369e-15 -41.0974 -4.66236)
(-1.95166e-15 -25.9031 -5.76384)
(-1.72288e-15 -3.34703 -6.54422)
(-1.49768e-15 31.6487 -2.82602)
(-8.62055e-16 51.5565 4.41877)
(-4.55706e-16 42.0815 8.66565)
(-3.4854e-17 -8.28401 -13.3119)
(-6.03401e-17 -35.2901 -17.2747)
(-9.58348e-17 -30.5711 -16.2149)
(-1.03062e-16 -16.8208 -15.3111)
(-1.025e-16 -6.57865 -14.8584)
(-1.01718e-16 -0.648501 -13.1012)
(-1.04822e-16 14.4909 -19.4139)
(-9.11012e-17 29.9001 -31.0849)
(-6.50103e-17 35.5858 -39.98)
(-4.70034e-17 37.6697 -34.1762)
(-1.01603e-17 -25.2804 -26.4322)
(9.28638e-19 -99.7319 -29.7387)
(2.86731e-19 -112.291 -30.4783)
(6.51123e-20 -102.267 -29.6391)
(7.60395e-20 -85.4301 -28.2903)
(7.8515e-20 -68.4569 -27.031)
(7.89711e-20 -53.916 -26.1979)
(8.03778e-20 -42.0094 -25.8511)
(6.6937e-20 -32.1842 -25.9028)
(2.57767e-19 -23.7862 -26.2338)
(3.46578e-19 -16.3698 -26.7024)
(-1.79111e-18 -9.44725 -27.1822)
(1.63248e-19 -2.8638 -27.7719)
(-1.87009e-18 3.74552 -28.4904)
(7.75115e-18 11.4769 -27.1012)
(-1.23548e-16 16.0538 -24.1061)
(1.42706e-15 25.6825 -24.2805)
(-1.68059e-14 92.6146 -7.47216)
(-1.02894e-13 139.35 22.3773)
(-1.06918e-13 124.334 22.5498)
(-7.18946e-14 110.596 22.3158)
(-4.2639e-14 97.993 15.3808)
(-1.78831e-14 83.7427 9.83633)
(1.59647e-18 27.0544 30.8193)
(-1.34315e-18 29.1276 30.3222)
(-1.13981e-19 29.9961 29.8618)
(9.44725e-19 31.0055 29.3172)
(3.10964e-19 31.7399 28.6997)
(-3.55317e-18 32.2322 28.0505)
(-1.67785e-17 32.3321 27.3731)
(-4.80607e-17 31.8803 26.7341)
(-1.08999e-16 30.588 26.1794)
(-2.08859e-16 28.1373 25.7521)
(-3.48738e-16 23.9318 25.3509)
(-5.054e-16 14.4556 23.4626)
(-5.5667e-16 -9.25924 13.9022)
(-4.65129e-16 -22.6375 10.1535)
(-4.24846e-16 -31.7161 9.42202)
(-3.92201e-16 -39.1162 6.30377)
(-3.48204e-16 -45.6204 4.74621)
(-2.98947e-16 -52.5212 2.8688)
(-2.48204e-16 -58.4783 0.676805)
(-1.9726e-16 -63.4501 -1.42655)
(-1.49621e-16 -67.3278 -3.53749)
(-1.0859e-16 -71.147 -5.17021)
(-7.17376e-17 -73.8964 -7.36144)
(-4.03214e-17 -74.8435 -8.876)
(-2.20197e-17 -75.1225 -10.4635)
(-2.74882e-17 -74.7844 -11.8059)
(-7.17433e-17 -71.1971 -13.275)
(-1.57131e-16 -66.1159 -13.4853)
(-3.29367e-16 -50.9825 -13.7322)
(-1.79985e-16 -31.0191 -9.41796)
(-2.52446e-15 -17.5861 -6.44192)
(-4.05139e-15 -9.95957 -2.25633)
(-3.77886e-15 -36.583 0.867517)
(-3.86617e-15 -51.2059 0.66611)
(-4.28782e-15 -52.5049 0.753901)
(-4.95261e-15 -51.7967 -0.183204)
(-5.4924e-15 -51.5665 -0.489572)
(-5.5926e-15 -56.9941 -1.60354)
(-5.14741e-15 -63.4178 -2.46218)
(-4.29154e-15 -57.2322 -4.03711)
(-3.09107e-15 -40.7556 -4.80805)
(-1.97497e-15 -25.717 -5.89312)
(-1.72765e-15 -4.64599 -7.50167)
(-1.60464e-15 29.724 -3.2768)
(-9.65746e-16 49.8123 2.69911)
(-5.53779e-16 44.4037 9.38781)
(-5.5168e-17 0.23113 -11.2736)
(-5.39348e-17 -34.0554 -18.1009)
(-9.3567e-17 -30.9659 -16.8407)
(-1.03097e-16 -17.1944 -15.4615)
(-1.0287e-16 -6.90852 -15.1595)
(-1.03387e-16 0.138968 -12.9818)
(-1.04459e-16 17.4039 -22.173)
(-8.63069e-17 32.951 -33.7066)
(-5.77313e-17 35.9937 -40.4769)
(-4.07016e-17 35.3639 -34.8275)
(-1.16745e-17 -24.2241 -26.1921)
(7.91389e-19 -98.518 -29.8464)
(3.72364e-19 -112.394 -30.7096)
(6.98414e-20 -102.687 -29.7047)
(7.38334e-20 -85.917 -28.3128)
(7.84089e-20 -68.8772 -27.0299)
(7.89717e-20 -54.208 -26.1742)
(8.04685e-20 -42.1775 -25.8101)
(6.50978e-20 -32.2563 -25.8432)
(2.40676e-19 -23.7932 -26.1519)
(3.92737e-19 -16.3363 -26.5828)
(-1.51776e-18 -9.36132 -27.0465)
(-1.49479e-19 -2.65376 -27.5959)
(-1.29521e-18 3.66635 -27.7021)
(9.72493e-18 10.8529 -26.1501)
(-1.63365e-16 15.6872 -23.5724)
(1.80014e-15 23.329 -25.3805)
(-1.8281e-14 85.3268 -9.71619)
(-1.17604e-13 134.627 25.8981)
(-1.2532e-13 124.38 26.2783)
(-8.86775e-14 111.747 24.1443)
(-5.78269e-14 99.8497 15.9809)
(-2.78437e-14 85.9144 9.91744)
(6.60264e-19 27.0973 30.7125)
(-1.0349e-18 29.2027 30.2224)
(4.12413e-19 30.0744 29.7682)
(1.23572e-18 31.0945 29.2241)
(2.45395e-19 31.8341 28.612)
(-4.83017e-18 32.3262 27.9783)
(-2.09477e-17 32.4169 27.3387)
(-5.805e-17 31.9437 26.773)
(-1.28327e-16 30.6215 26.33)
(-2.39596e-16 28.1506 26.0277)
(-3.88824e-16 24.0505 25.7268)
(-5.5163e-16 15.2694 24.0933)
(-6.16261e-16 -7.07897 14.6599)
(-4.89546e-16 -22.0393 8.3213)
(-4.21715e-16 -30.842 8.35778)
(-3.90153e-16 -38.2598 6.24005)
(-3.4776e-16 -44.9541 4.59943)
(-2.98514e-16 -51.8243 2.81547)
(-2.4809e-16 -57.7737 0.797729)
(-1.97415e-16 -62.7945 -1.26294)
(-1.49947e-16 -66.7613 -3.3532)
(-1.08999e-16 -70.6014 -4.95977)
(-7.22136e-17 -73.3931 -7.13165)
(-4.07704e-17 -74.4387 -8.66256)
(-2.21981e-17 -74.7633 -10.2601)
(-2.70244e-17 -74.4603 -11.6187)
(-7.01351e-17 -71.0223 -13.1144)
(-1.5387e-16 -66.1008 -13.399)
(-3.25373e-16 -51.5132 -13.6824)
(-1.70066e-16 -32.0182 -9.50401)
(-2.41816e-15 -18.7224 -6.44826)
(-4.02887e-15 -11.3941 -2.20001)
(-3.77994e-15 -37.0664 0.928991)
(-3.86672e-15 -51.3152 0.674501)
(-4.28862e-15 -52.5126 0.761078)
(-4.95256e-15 -51.7614 -0.195647)
(-5.49172e-15 -51.5063 -0.520639)
(-5.5932e-15 -56.8524 -1.6634)
(-5.15153e-15 -63.192 -2.57225)
(-4.30176e-15 -57.008 -4.16895)
(-3.11311e-15 -40.5488 -5.00127)
(-2.0045e-15 -25.415 -6.06405)
(-1.743e-15 -4.73046 -8.25977)
(-1.66304e-15 28.952 -3.71719)
(-1.031e-15 48.7848 1.37951)
(-6.09418e-16 44.8857 8.54881)
(-8.38057e-17 4.04908 -8.81599)
(-4.75165e-17 -33.6779 -19.096)
(-9.02052e-17 -31.2668 -17.6954)
(-1.02902e-16 -17.297 -15.8651)
(-1.03221e-16 -7.16622 -15.6645)
(-1.04915e-16 0.740022 -13.5049)
(-1.03683e-16 19.217 -23.9489)
(-8.30979e-17 34.203 -34.8236)
(-5.3977e-17 36.0196 -40.2201)
(-3.71452e-17 34.368 -35.8636)
(-1.30296e-17 -25.832 -26.3325)
(5.89256e-19 -98.1734 -29.9154)
(4.73706e-19 -112.41 -30.8728)
(7.94156e-20 -102.892 -29.7844)
(7.08703e-20 -86.1435 -28.3453)
(7.81059e-20 -69.0403 -27.0365)
(7.89812e-20 -54.2722 -26.1528)
(8.06227e-20 -42.1492 -25.7626)
(6.28593e-20 -32.1599 -25.7695)
(2.22589e-19 -23.6613 -26.0442)
(4.1388e-19 -16.1958 -26.4249)
(-1.16487e-18 -9.23324 -26.8846)
(-6.91145e-20 -2.67074 -27.3085)
(-9.41035e-19 3.46512 -27.2822)
(1.46097e-17 10.5507 -25.8907)
(-2.08803e-16 15.7231 -23.1288)
(2.04238e-15 22.473 -25.2429)
(-1.75432e-14 81.0035 -11.4357)
(-1.23769e-13 131.384 26.4627)
(-1.36958e-13 124.667 27.4965)
(-1.01786e-13 112.822 24.2416)
(-7.14612e-14 101.161 15.2938)
(-3.80452e-14 86.5349 8.98313)
(1.74681e-19 27.1508 30.6064)
(-9.15811e-19 29.3019 30.1218)
(7.87539e-19 30.1826 29.673)
(1.37809e-18 31.2192 29.1316)
(3.58065e-20 31.9688 28.5287)
(-6.46775e-18 32.4635 27.9185)
(-2.61034e-17 32.5462 27.3298)
(-7.01786e-17 32.0514 26.8569)
(-1.51269e-16 30.7016 26.5474)
(-2.75047e-16 28.2206 26.3862)
(-4.33297e-16 24.2506 26.1821)
(-5.99694e-16 16.3121 24.8042)
(-6.78393e-16 -3.9602 16.2559)
(-5.35346e-16 -21.2295 7.21448)
(-4.28615e-16 -30.0649 6.80516)
(-3.86364e-16 -37.5713 5.92565)
(-3.47053e-16 -44.3382 4.50104)
(-2.98253e-16 -51.1623 2.73085)
(-2.47944e-16 -57.108 0.904026)
(-1.97557e-16 -62.1782 -1.07404)
(-1.50274e-16 -66.2309 -3.1407)
(-1.09415e-16 -70.0988 -4.71706)
(-7.26989e-17 -72.9361 -6.86276)
(-4.12313e-17 -74.0747 -8.40869)
(-2.23887e-17 -74.4471 -10.0172)
(-2.65651e-17 -74.1799 -11.3916)
(-6.85127e-17 -70.8686 -12.9149)
(-1.50554e-16 -66.0817 -13.2763)
(-3.21377e-16 -51.941 -13.6152)
(-1.60993e-16 -32.8708 -9.60333)
(-2.32257e-15 -19.7239 -6.48833)
(-4.00706e-15 -12.6417 -2.18469)
(-3.781e-15 -37.5442 0.994819)
(-3.86732e-15 -51.4607 0.69792)
(-4.28946e-15 -52.5745 0.775334)
(-4.9525e-15 -51.7851 -0.205686)
(-5.49097e-15 -51.5056 -0.551492)
(-5.59384e-15 -56.7724 -1.72404)
(-5.15596e-15 -63.0277 -2.68391)
(-4.31275e-15 -56.8398 -4.30658)
(-3.13681e-15 -40.3889 -5.20962)
(-2.03562e-15 -25.1422 -6.26525)
(-1.76369e-15 -4.77797 -8.61244)
(-1.72845e-15 27.8212 -4.28769)
(-1.10567e-15 47.5688 -0.0715115)
(-6.66321e-16 45.4643 7.50788)
(-1.25285e-16 8.11265 -6.05736)
(-4.26035e-17 -33.2908 -19.8647)
(-8.62846e-17 -31.6238 -18.5486)
(-1.02398e-16 -17.4439 -16.4354)
(-1.03456e-16 -7.4098 -16.1326)
(-1.06326e-16 1.63089 -14.058)
(-1.02465e-16 21.5469 -25.7429)
(-7.93185e-17 35.8784 -35.9319)
(-4.95111e-17 36.1279 -40.037)
(-3.27275e-17 32.8091 -36.0922)
(-1.38181e-17 -26.7548 -26.6276)
(3.43736e-19 -97.8297 -29.9388)
(5.69267e-19 -112.438 -30.931)
(9.3542e-20 -103.1 -29.8551)
(6.77667e-20 -86.377 -28.3883)
(7.75757e-20 -69.2266 -27.0594)
(7.89889e-20 -54.3779 -26.1454)
(8.08839e-20 -42.1763 -25.7212)
(6.00215e-20 -32.1284 -25.6928)
(2.12048e-19 -23.5991 -25.9186)
(3.85524e-19 -16.1182 -26.2543)
(-8.22137e-19 -9.16369 -26.6768)
(-5.1613e-21 -2.61214 -26.9639)
(-1.08327e-18 3.33247 -26.715)
(1.92069e-17 10.1017 -25.4452)
(-2.5152e-16 15.5777 -22.6813)
(2.23451e-15 21.2922 -25.2851)
(-1.60565e-14 75.4593 -13.6866)
(-1.29578e-13 127.186 26.8482)
(-1.49813e-13 124.878 29.1778)
(-1.16679e-13 114.147 24.7283)
(-8.7474e-14 102.846 14.8854)
(-5.09916e-14 87.5654 7.15308)
(-2.54582e-19 27.2004 30.519)
(-5.3481e-19 29.3907 30.0445)
(1.16147e-18 30.2789 29.6019)
(1.51656e-18 31.3292 29.0657)
(-3.02e-19 32.0841 28.4755)
(-8.51954e-18 32.5744 27.8949)
(-3.22699e-17 32.6387 27.3675)
(-8.41565e-17 32.1109 26.9997)
(-1.76612e-16 30.7262 26.8311)
(-3.12178e-16 28.2384 26.8006)
(-4.76586e-16 24.3867 26.6469)
(-6.41341e-16 17.1497 25.4077)
(-7.30716e-16 -1.27898 17.7319)
(-5.95679e-16 -20.2943 7.00638)
(-4.51728e-16 -29.7739 5.30363)
(-3.83941e-16 -37.4711 5.19562)
(-3.4496e-16 -44.1463 4.36382)
(-2.98187e-16 -50.8528 2.66644)
(-2.4785e-16 -56.7731 0.980082)
(-1.97674e-16 -61.8341 -0.866967)
(-1.50582e-16 -65.9139 -2.89098)
(-1.0982e-16 -69.7651 -4.43454)
(-7.31734e-17 -72.6022 -6.54855)
(-4.16849e-17 -73.7878 -8.1048)
(-2.25842e-17 -74.1707 -9.72552)
(-2.613e-17 -73.907 -11.1162)
(-6.69424e-17 -70.685 -12.6676)
(-1.47312e-16 -66.0052 -13.105)
(-3.1753e-16 -52.2678 -13.5158)
(-1.52956e-16 -33.5313 -9.69319)
(-2.23896e-15 -20.359 -6.54371)
(-3.98656e-15 -13.3443 -2.1861)
(-3.78198e-15 -37.7724 1.06477)
(-3.86795e-15 -51.4349 0.731392)
(-4.29033e-15 -52.4744 0.794732)
(-4.95242e-15 -51.648 -0.214165)
(-5.4902e-15 -51.347 -0.584406)
(-5.59449e-15 -56.5577 -1.79014)
(-5.16057e-15 -62.7619 -2.80261)
(-4.32421e-15 -56.5981 -4.45729)
(-3.16153e-15 -40.1714 -5.4393)
(-2.06776e-15 -24.8519 -6.50667)
(-1.7867e-15 -4.84753 -8.88223)
(-1.78892e-15 26.9537 -4.95703)
(-1.17872e-15 46.4629 -1.53305)
(-7.14808e-16 45.3672 5.97126)
(-1.99746e-16 13.1295 -3.67649)
(-4.02577e-17 -32.5265 -20.3625)
(-8.20689e-17 -31.9773 -19.3093)
(-1.01628e-16 -17.6635 -17.0889)
(-1.03562e-16 -7.67145 -16.4262)
(-1.07465e-16 2.64125 -14.9121)
(-1.00869e-16 23.7284 -27.3779)
(-7.54731e-17 37.1289 -36.7114)
(-4.52717e-17 36.0792 -39.592)
(-2.84429e-17 31.5887 -36.175)
(-1.40719e-17 -27.1695 -26.9149)
(8.18498e-20 -97.3438 -29.9417)
(6.48886e-19 -112.472 -30.9295)
(1.10777e-19 -103.356 -29.9151)
(6.49634e-20 -86.6704 -28.4369)
(7.68579e-20 -69.4678 -27.0913)
(7.89823e-20 -54.5284 -26.1445)
(8.12677e-20 -42.2381 -25.6817)
(5.63532e-20 -32.1248 -25.6084)
(2.11603e-19 -23.5574 -25.7773)
(3.19437e-19 -16.0527 -26.0773)
(-5.54817e-19 -9.10513 -26.4383)
(4.36207e-20 -2.63321 -26.5862)
(-1.52563e-18 3.15897 -26.1461)
(2.39423e-17 9.75312 -25.0566)
(-2.87808e-16 15.5816 -22.2254)
(2.31735e-15 20.6625 -25.0181)
(-1.33263e-14 70.2977 -16.2747)
(-1.32258e-13 122.751 26.1222)
(-1.61272e-13 125.09 30.5168)
(-1.31539e-13 115.678 25.0309)
(-1.04687e-13 104.653 14.3803)
(-6.61665e-14 88.3691 6.23053)
(-3.82831e-19 27.2501 30.4496)
(-1.09331e-19 29.4807 29.9868)
(1.45352e-18 30.3781 29.5504)
(1.58222e-18 31.4419 29.022)
(-8.15279e-19 32.2004 28.4485)
(-1.10644e-17 32.6821 27.9051)
(-3.95934e-17 32.7213 27.4502)
(-1.00162e-16 32.1541 27.1999)
(-2.04405e-16 30.7347 27.176)
(-3.50721e-16 28.2528 27.2584)
(-5.18305e-16 24.5308 27.1089)
(-6.76584e-16 17.9416 25.9029)
(-7.71103e-16 1.16981 18.8971)
(-6.60627e-16 -19.267 7.16818)
(-4.9207e-16 -29.5247 4.10395)
(-3.8908e-16 -37.5528 4.12159)
(-3.41514e-16 -44.0678 4.00697)
(-2.97722e-16 -50.5854 2.64437)
(-2.47939e-16 -56.4828 1.03982)
(-1.97792e-16 -61.5228 -0.655937)
(-1.50862e-16 -65.6085 -2.60413)
(-1.10203e-16 -69.4336 -4.10726)
(-7.36295e-17 -72.262 -6.1868)
(-4.2124e-17 -73.4872 -7.7478)
(-2.27807e-17 -73.8757 -9.38046)
(-2.57244e-17 -73.612 -10.7892)
(-6.5445e-17 -70.4761 -12.371)
(-1.44183e-16 -65.9048 -12.8846)
(-3.1387e-16 -52.5788 -13.3816)
(-1.4588e-16 -34.1982 -9.76146)
(-2.16605e-15 -21.0124 -6.59775)
(-3.96758e-15 -14.0712 -2.18645)
(-3.78285e-15 -37.9808 1.14386)
(-3.86861e-15 -51.3767 0.776139)
(-4.29124e-15 -52.3388 0.819612)
(-4.95235e-15 -51.4741 -0.220974)
(-5.48939e-15 -51.151 -0.619617)
(-5.59516e-15 -56.3052 -1.86223)
(-5.16535e-15 -62.4608 -2.92975)
(-4.3361e-15 -56.3246 -4.62532)
(-3.18718e-15 -39.9289 -5.69246)
(-2.10131e-15 -24.5498 -6.78809)
(-1.81106e-15 -4.86878 -9.26781)
(-1.84697e-15 26.1264 -5.7309)
(-1.251e-15 45.4519 -2.97969)
(-7.57076e-16 44.9844 4.03132)
(-2.6804e-16 14.1765 -3.7324)
(-4.02793e-17 -31.6324 -20.6969)
(-7.742e-17 -32.2943 -19.948)
(-1.00615e-16 -17.927 -17.8044)
(-1.03626e-16 -7.93102 -16.5206)
(-1.08327e-16 3.8054 -15.9977)
(-9.89801e-17 25.9332 -28.8045)
(-7.15314e-17 38.2558 -37.2159)
(-4.10305e-17 36.0071 -38.9815)
(-2.4119e-17 30.321 -36.2224)
(-1.38724e-17 -27.8068 -27.1631)
(-1.72078e-19 -96.8927 -29.893)
(7.07066e-19 -112.491 -30.8818)
(1.28932e-19 -103.601 -29.962)
(6.26994e-20 -86.9595 -28.4882)
(7.60257e-20 -69.7038 -27.1304)
(7.89621e-20 -54.6738 -26.1499)
(8.17263e-20 -42.2958 -25.6457)