/*--------------------------------*- C++ -*----------------------------------*\
| =========                 |                                                 |
| \\      /  F ield         | OpenFOAM: The Open Source CFD Toolbox           |
|  \\    /   O peration     | Version:  4.1                                   |
|   \\  /    A nd           | Web:      www.OpenFOAM.org                      |
|    \\/     M anipulation  |                                                 |
\*---------------------------------------------------------------------------*/
FoamFile
{
    version     2.0;
    format      ascii;
    class       surfaceScalarField;
    location    "22";
    object      phi;
}
// * * * * * * * * * * * * * * * * * * * * * * * * * * * * * * * * * * * * * //

dimensions      [0 3 -1 0 0 0 0];

internalField   nonuniform List<scalar> 
420
(
-948.73
2248.63
-1562.79
1914.25
-2045.42
1782.53
-2415.8
1670.28
-2690.4
1574.8
-2875.79
1485.29
-2976.36
1400.46
-2994.19
1318.04
-2929
1234.7
-2776.78
1147.69
-2531.2
1054.61
-2174.58
943.283
-1674.17
799.486
-1033.31
659.343
266.587
384.813
1863.81
459.056
1840
462.785
1778.8
437.725
1695.33
423.072
1589.44
412.38
1495.97
400.166
1412.67
391.323
1326.87
390.321
1235.69
392.789
1145.21
385.193
1062.2
345.576
982.889
258.854
886.195
154.474
763.71
421.06
46.7546
1817.05
-40.3217
1927.07
-174.768
1913.23
-252.762
1773.31
-320.935
1657.6
-392.771
1567.8
-454.537
1474.42
-499.335
1371.66
-531.62
1267.97
-554.084
1167.66
-566.597
1074.7
-563.003
979.259
-511.794
834.946
-290.479
542.353
130.581
220.086
1596.96
234.896
1912.26
120.412
2027.72
28.4516
1865.27
-36.2241
1722.28
-74.1561
1605.72
-86.5198
1486.78
-87.796
1372.93
-83.9735
1264.14
-80.7383
1164.42
-68.1186
1062.08
-35.5364
946.688
1.64276
797.776
36.3176
507.687
166.899
496.402
1100.56
1228.22
1180.45
1526.81
1729.13
1481.6
1910.49
1348.87
1855.01
1230.71
1723.89
1130.91
1586.59
1031.88
1471.97
928.551
1367.47
824.908
1268.07
728.171
1158.82
629.856
1044.99
505.878
921.751
278.802
734.76
445.702
376.558
724.016
1198.44
358.58
1750.05
1177.53
1901.12
1759.42
1778.75
1977.39
1564.88
1937.77
1366.26
1785.21
1180.58
1657.65
1005.45
1542.61
847.251
1426.28
694.476
1311.61
544.669
1194.84
400.146
1066.32
207.931
927.023
653.633
-273.293
997.353
262.779
-177.445
693.352
746.973
848.9
1603.89
802.977
2023.33
666.883
2073.88
537.804
1914.3
417.391
1778.08
317.292
1642.73
237.653
1505.93
155.182
1394.09
72.5028
1277.54
-2.94473
1141.79
-53.1478
977.248
600.485
-110.561
1107.97
-65.5928
-222.344
-55.4566
736.867
-131.57
1680.02
-199.012
2090.78
-238.128
2113.01
-275.665
1951.85
-316.743
1819.17
-332.733
1658.73
-349.297
1522.51
-399.106
1443.91
-484.285
1362.73
-594.304
1251.82
-605.826
988.779
-5.3397
92.4109
1015.58
-398.652
268.751
-416.664
754.894
-395.94
1659.31
-362.522
2057.38
-302.974
2053.47
-253.131
1902.02
-217.95
1783.99
-183.94
1624.73
-161.824
1500.4
-148.608
1430.7
-123.161
1337.31
-38.3504
1167.04
-54.1688
1004.64
-59.5088
435.053
580.549
129.762
574.065
264.36
620.31
459.362
1464.31
543.797
1972.95
541.52
2055.75
520.886
1922.66
517.698
1787.19
514.338
1628.09
537.54
1477.2
610.751
1357.5
716.164
1231.88
875.571
1007.62
757.703
1122.49
698.195
517.697
62.8425
380.905
710.845
374.284
626.921
553.922
1284.67
660.48
1866.38
658.24
2057.99
598.933
1981.96
561.827
1824.29
538.99
1650.92
534.872
1481.32
550.58
1341.78
546.476
1236
499.514
1054.59
310.804
1311.21
1009
-16.0159
78.8414
-7.38224
702.192
34.0249
585.496
112.889
1205.79
143.467
1835.79
157.239
2044.2
169.213
1969.98
170.259
1823.24
188.495
1632.68
200.575
1469.22
181.589
1360.76
117.139
1300.41
20.9734
1150.72
-77.6831
1409.84
931.315
-93.6291
172.436
46.0033
562.518
92.079
539.39
192.077
1105.78
271.878
1755.98
339.191
1976.88
376.286
1932.87
340.402
1859.11
283.666
1689.41
229.93
1522.95
179.61
1411.07
109.683
1370.34
4.76047
1255.64
-71.333
1485.93
859.982
-158.004
330.407
154.635
249.843
328.999
365.001
559.422
875.342
806.358
1509.04
911.754
1871.48
876.1
1968.52
780.328
1954.88
631.169
1838.56
466.675
1687.44
323.956
1553.78
211.709
1482.57
103.912
1363.42
52.6008
1537.23
912.583
186.255
567.763
609.988
732.552
896.746
930.667
855.233
727.566
575.979
430.038
289.746
163.361
36.9927
-17.744
)
;

boundaryField
{
    inletFace
    {
        type            calculated;
        value           nonuniform List<scalar> 
450
(
-6.37475e-11
5.74412e-11
9.04601e-12
2.69352e-12
5.05581e-13
7.7769e-13
2.46082e-12
5.36685e-12
1.0379e-11
1.97981e-11
3.53037e-11
4.80844e-11
4.79194e-11
3.10207e-12
-1.80447e-10
4.02778e-10
-3.04519e-10
-9.8926e-11
-3.17214e-11
-5.30517e-12
3.10472e-12
4.39935e-12
6.14084e-12
1.15216e-11
3.57283e-11
-4.16885e-11
-1.65577e-10
-5.0192e-10
-7.62851e-10
2.06939e-09
-1.91775e-09
2.10862e-09
-6.4169e-11
7.74258e-11
2.03171e-12
-7.25775e-12
-5.31791e-13
9.15285e-12
1.73673e-11
-8.36576e-12
-1.62488e-10
-3.78502e-10
-4.78948e-10
2.16442e-10
2.45821e-09
-6.06222e-09
5.67044e-09
2.2082e-12
-4.22588e-10
-4.73911e-11
3.844e-11
3.12471e-11
2.10046e-11
1.62521e-11
-4.17096e-11
-2.3125e-10
-4.50318e-10
-4.57668e-10
-9.18877e-11
3.64683e-09
-1.08077e-08
5.66615e-09
4.32594e-09
1.43001e-09
1.20945e-10
-1.54711e-10
-9.96966e-11
-2.04042e-11
1.60829e-11
-1.19967e-11
-1.53475e-10
-3.69258e-10
-4.77025e-10
-5.73356e-10
1.97652e-09
-2.20101e-08
-2.48618e-10
3.62859e-09
3.02618e-09
1.52685e-09
4.53585e-10
6.4602e-12
-6.91952e-11
-2.87201e-11
-4.30851e-12
-7.10835e-11
-2.4708e-10
-4.0634e-10
-4.83477e-10
7.5187e-10
-1.68661e-08
4.75039e-08
1.93484e-08
6.71929e-09
2.5315e-09
9.28802e-10
1.92346e-10
-5.45113e-11
-5.66849e-11
-1.06097e-11
-3.37547e-11
-1.83281e-10
-3.83809e-10
-4.74916e-10
4.05679e-10
-1.32387e-08
7.52696e-08
2.54301e-08
7.88981e-09
2.73388e-09
9.71747e-10
1.98968e-10
-5.67531e-11
-5.20851e-11
-7.10027e-12
-5.68679e-11
-2.30345e-10
-3.52687e-10
-1.64359e-10
2.30005e-10
-2.26486e-08
3.93514e-08
2.28005e-08
5.68956e-09
2.2701e-09
8.50808e-10
1.51289e-10
-5.68737e-11
-3.31605e-11
-6.26173e-12
-9.40646e-11
-2.70292e-10
-3.20094e-10
-6.65481e-11
1.01006e-10
-2.50812e-08
-1.17154e-09
2.20546e-08
9.23597e-09
2.76684e-09
8.81575e-10
2.30435e-10
-8.51262e-12
-1.5097e-11
9.8143e-12
-6.80399e-11
-2.24824e-10
-3.1185e-10
-1.49507e-10
-7.60205e-11
-1.51058e-08
-1.70541e-08
6.37292e-09
1.0585e-08
4.99945e-09
1.59825e-09
3.81217e-10
2.30923e-11
-2.40363e-11
4.43252e-12
-3.62244e-11
-1.58283e-10
-2.72433e-10
-1.96941e-10
-1.42963e-10
-1.11285e-08
-1.91377e-08
2.07107e-09
1.04987e-08
5.87487e-09
1.99152e-09
4.98396e-10
4.31231e-11
-3.42053e-11
-5.35138e-12
-2.4473e-11
-1.27462e-10
-2.50094e-10
-1.98149e-10
-1.62736e-10
-1.02385e-08
-1.82854e-08
-1.23737e-09
9.99461e-09
6.55196e-09
2.19999e-09
4.8582e-10
7.1769e-11
-5.1795e-12
3.92286e-13
-1.86191e-11
-1.1086e-10
-2.35071e-10
-1.99604e-10
-1.47558e-10
-1.27885e-08
-1.76131e-08
-7.7806e-09
6.57937e-09
8.64559e-09
4.52978e-09
1.2353e-09
2.99739e-12
-1.53541e-10
-5.30867e-11
-1.0938e-11
-8.61443e-11
-2.1652e-10
-2.03459e-10
-1.40154e-10
-7.29376e-09
-1.11629e-08
-1.21547e-08
-5.07636e-09
3.37071e-09
5.44337e-09
3.47573e-09
1.23339e-09
1.41921e-10
-8.85832e-11
-4.8517e-11
-6.77033e-11
-1.87212e-10
-2.02199e-10
-1.25658e-10
6.37475e-11
-5.74412e-11
-9.04601e-12
-2.69352e-12
-5.05581e-13
-7.7769e-13
-2.46082e-12
-5.36685e-12
-1.0379e-11
-1.97981e-11
-3.53037e-11
-4.80844e-11
-4.79194e-11
-3.10207e-12
1.80447e-10
-4.02778e-10
3.04519e-10
9.8926e-11
3.17214e-11
5.30517e-12
-3.10472e-12
-4.39935e-12
-6.14084e-12
-1.15216e-11
-3.57283e-11
4.16885e-11
1.65577e-10
5.0192e-10
7.62851e-10
-2.06939e-09
1.91775e-09
-2.10862e-09
6.4169e-11
-7.74258e-11
-2.03171e-12
7.25775e-12
5.31791e-13
-9.15285e-12
-1.73673e-11
8.36576e-12
1.62488e-10
3.78502e-10
4.78948e-10
-2.16442e-10
-2.45821e-09
6.06222e-09
-5.67044e-09
-2.2082e-12
4.22588e-10
4.73911e-11
-3.844e-11
-3.12471e-11
-2.10046e-11
-1.62521e-11
4.17096e-11
2.3125e-10
4.50318e-10
4.57668e-10
9.18877e-11
-3.64683e-09
1.08077e-08
-5.66615e-09
-4.32594e-09
-1.43001e-09
-1.20945e-10
1.54711e-10
9.96966e-11
2.04042e-11
-1.60829e-11
1.19967e-11
1.53475e-10
3.69258e-10
4.77025e-10
5.73356e-10
-1.97652e-09
2.20101e-08
2.48618e-10
-3.62859e-09
-3.02618e-09
-1.52685e-09
-4.53585e-10
-6.4602e-12
6.91952e-11
2.87201e-11
4.30851e-12
7.10835e-11
2.4708e-10
4.0634e-10
4.83477e-10
-7.5187e-10
1.68661e-08
-4.75039e-08
-1.93484e-08
-6.71929e-09
-2.5315e-09
-9.28802e-10
-1.92346e-10
5.45113e-11
5.66849e-11
1.06097e-11
3.37547e-11
1.83281e-10
3.83809e-10
4.74916e-10
-4.05679e-10
1.32387e-08
-7.52696e-08
-2.54301e-08
-7.88981e-09
-2.73388e-09
-9.71747e-10
-1.98968e-10
5.67531e-11
5.20851e-11
7.10027e-12
5.68679e-11
2.30345e-10
3.52687e-10
1.64359e-10
-2.30005e-10
2.26486e-08
-3.93514e-08
-2.28005e-08
-5.68956e-09
-2.2701e-09
-8.50808e-10
-1.51289e-10
5.68737e-11
3.31605e-11
6.26173e-12
9.40646e-11
2.70292e-10
3.20094e-10
6.65481e-11
-1.01006e-10
2.50812e-08
1.17154e-09
-2.20546e-08
-9.23597e-09
-2.76684e-09
-8.81575e-10
-2.30435e-10
8.51262e-12
1.5097e-11
-9.8143e-12
6.80399e-11
2.24824e-10
3.1185e-10
1.49507e-10
7.60205e-11
1.51058e-08
1.70541e-08
-6.37292e-09
-1.0585e-08
-4.99945e-09
-1.59825e-09
-3.81217e-10
-2.30923e-11
2.40363e-11
-4.43252e-12
3.62244e-11
1.58283e-10
2.72433e-10
1.96941e-10
1.42963e-10
1.11285e-08
1.91377e-08
-2.07107e-09
-1.04987e-08
-5.87487e-09
-1.99152e-09
-4.98396e-10
-4.31231e-11
3.42053e-11
5.35138e-12
2.4473e-11
1.27462e-10
2.50094e-10
1.98149e-10
1.62736e-10
1.02385e-08
1.82854e-08
1.23737e-09
-9.99461e-09
-6.55196e-09
-2.19999e-09
-4.8582e-10
-7.1769e-11
5.1795e-12
-3.92286e-13
1.86191e-11
1.1086e-10
2.35071e-10
1.99604e-10
1.47558e-10
1.27885e-08
1.76131e-08
7.7806e-09
-6.57937e-09
-8.64559e-09
-4.52978e-09
-1.2353e-09
-2.99739e-12
1.53541e-10
5.30867e-11
1.0938e-11
8.61443e-11
2.1652e-10
2.03459e-10
1.40154e-10
7.29376e-09
1.11629e-08
1.21547e-08
5.07636e-09
-3.37071e-09
-5.44337e-09
-3.47573e-09
-1.23339e-09
-1.41921e-10
8.85832e-11
4.8517e-11
6.77033e-11
1.87212e-10
2.02199e-10
1.25658e-10
)
;
    }
    inlet
    {
        type            calculated;
        value           nonuniform List<scalar> 
15
(
-1299.9
-1300.2
-1299.9
-1299.9
-1300.2
-1299.9
-1299.9
-1300.2
-1299.9
-1299.9
-1300.2
-1299.9
-1299.9
-1300.2
-1299.9
)
;
    }
    inletWalls
    {
        type            calculated;
        value           uniform 0;
    }
    outletInlet
    {
        type            calculated;
        value           nonuniform List<scalar> 
15
(
894.839
1591.98
1489.82
1608.97
1694.08
1833.38
1990.16
2082.55
2043.96
1837.56
1344.85
752.787
322.791
-131.657
144.159
)
;
    }
}


// ************************************************************************* //
