/*--------------------------------*- C++ -*----------------------------------*\
| =========                 |                                                 |
| \\      /  F ield         | OpenFOAM: The Open Source CFD Toolbox           |
|  \\    /   O peration     | Version:  4.1                                   |
|   \\  /    A nd           | Web:      www.OpenFOAM.org                      |
|    \\/     M anipulation  |                                                 |
\*---------------------------------------------------------------------------*/
FoamFile
{
    version     2.0;
    format      ascii;
    class       volVectorField;
    location    "22";
    object      U;
}
// * * * * * * * * * * * * * * * * * * * * * * * * * * * * * * * * * * * * * //

dimensions      [0 1 -1 0 0 0 0];

internalField   nonuniform List<vector> 
225
(
(4.52279e-13 0.873693 15.8407)
(-3.84437e-13 -4.95264 12.002)
(-6.64433e-14 -4.18066 12.1594)
(-1.27028e-14 -3.61702 11.9961)
(-1.89288e-15 -3.0167 11.8788)
(-6.92118e-15 -2.57166 11.7015)
(-1.55358e-14 -2.23337 11.4802)
(-3.56579e-14 -1.99384 11.2132)
(-7.33706e-14 -1.82675 10.9175)
(-1.36287e-13 -1.74685 10.5934)
(-2.43565e-13 -1.89194 10.1688)
(-3.338e-13 -2.35394 9.57388)
(-3.31813e-13 -2.54031 9.05643)
(-2.08105e-14 -1.04771 8.99917)
(1.24809e-12 1.523 7.11141)
(-2.78697e-12 -5.23865 22.4498)
(2.10837e-12 -14.63 21.2824)
(6.84845e-13 -13.2258 20.3116)
(2.13691e-13 -11.7518 19.4111)
(3.67309e-14 -11.1392 18.4134)
(-2.14934e-14 -10.6768 17.4456)
(-2.95928e-14 -10.1416 16.4945)
(-4.25167e-14 -9.57107 15.5308)
(-7.97616e-14 -8.98616 14.5632)
(-2.4633e-13 -8.39069 13.5965)
(2.88634e-13 -7.81048 12.6338)
(1.14625e-12 -7.3672 11.6195)
(3.46936e-12 -7.02218 10.4008)
(5.28168e-12 -5.49796 9.08769)
(-1.4326e-11 -2.42699 3.81541)
(1.32756e-11 -7.77077 23.8286)
(-1.45985e-11 -16.5725 24.4078)
(4.44282e-13 -13.8462 23.6897)
(-5.34795e-13 -12.3868 22.5354)
(-1.40652e-14 -11.7687 21.1074)
(5.02499e-14 -11.014 19.8258)
(2.42263e-15 -10.1629 18.6035)
(-6.33635e-14 -9.33084 17.3556)
(-1.20245e-13 -8.54538 16.0836)
(5.65372e-14 -7.77674 14.8343)
(1.12918e-12 -7.01741 13.6431)
(2.6206e-12 -6.31574 12.3929)
(3.30794e-12 -5.58645 10.683)
(-1.49771e-12 -4.09191 8.01251)
(-1.70197e-11 -1.21753 3.02729)
(4.19745e-11 -8.10079 21.3062)
(-3.92572e-11 -16.9698 23.1856)
(-1.45534e-14 -13.0057 23.4486)
(2.92587e-12 -12.0896 21.1274)
(3.26269e-13 -11.6417 19.7045)
(-2.65167e-13 -10.7556 18.6333)
(-2.16345e-13 -9.8537 17.4138)
(-1.47534e-13 -9.08178 16.0839)
(-1.1137e-13 -8.38444 14.7386)
(2.88784e-13 -7.72472 13.4076)
(1.59825e-12 -7.01291 12.2281)
(3.11899e-12 -6.18962 11.0563)
(3.16875e-12 -5.07284 9.25198)
(6.31108e-13 -3.81381 5.34165)
(-2.52415e-11 -0.408578 1.76341)
(7.48175e-11 -5.71978 16.9844)
(-3.92368e-11 -15.9922 21.7765)
(-2.99481e-11 -15.9899 23.7718)
(-9.89997e-12 -14.7985 22.2128)
(-8.43338e-13 -13.6103 20.1048)
(1.07533e-12 -12.4813 18.328)
(6.89583e-13 -11.5498 16.95)
(1.3937e-13 -10.7736 15.8044)
(-1.12024e-13 -9.97878 14.5787)
(8.22979e-14 -8.99496 13.4545)
(1.06092e-12 -8.1238 12.2216)
(2.55439e-12 -7.37363 10.8668)
(3.3012e-12 -6.18147 9.44505)
(3.98008e-12 -4.6421 6.87883)
(-1.36857e-11 -2.12021 3.19308)
(1.52375e-10 -0.726953 6.35385)
(1.72198e-12 -6.73501 4.43959)
(-2.51221e-11 -10.9266 15.4206)
(-2.09499e-11 -14.3149 21.19)
(-1.05697e-11 -15.4418 22.051)
(-3.13752e-12 -14.7266 20.8823)
(-4.24535e-14 -13.3567 19.2001)
(4.79588e-13 -12.1393 17.7508)
(2.02873e-13 -11.1461 16.5124)
(2.98273e-14 -10.1464 15.3094)
(4.92881e-13 -9.16444 14.0567)
(1.70803e-12 -8.34649 12.7003)
(2.81304e-12 -7.31717 11.3363)
(3.34837e-12 -5.67748 9.588)
(-5.20301e-12 -3.40189 5.84703)
(1.16776e-10 0.706528 10.009)
(-3.28867e-10 -3.18212 0.348853)
(-1.33946e-10 -6.52526 10.2992)
(-4.65222e-11 -11.6748 18.7686)
(-1.75251e-11 -14.569 23.1392)
(-6.4297e-12 -14.9482 23.5268)
(-1.33174e-12 -13.703 21.7504)
(3.75951e-13 -12.1821 20.1486)
(3.9678e-13 -11.2206 18.5905)
(7.34585e-14 -10.3909 17.0933)
(2.34173e-13 -9.50827 15.8158)
(1.26995e-12 -8.59038 14.5819)
(2.65737e-12 -7.86212 13.119)
(3.28702e-12 -6.83858 11.5024)
(-2.80926e-12 -4.18676 8.24838)
(9.16473e-11 1.73383 12.5603)
(-5.21127e-10 -2.87927 -5.01969)
(-1.76044e-10 -3.00779 7.13835)
(-5.46186e-11 -10.6239 18.5258)
(-1.89279e-11 -13.6477 23.8732)
(-6.72717e-12 -14.067 24.7437)
(-1.37739e-12 -13.0718 22.8312)
(3.92929e-13 -11.7058 21.1194)
(3.60469e-13 -10.8259 19.4836)
(4.91529e-14 -10.0654 17.9188)
(3.93723e-13 -9.17918 16.7225)
(1.59449e-12 -8.38022 15.4803)
(2.44153e-12 -7.55367 13.9625)
(1.13794e-12 -5.8388 11.5584)
(-1.5927e-12 -2.15174 5.7429)
(1.56793e-10 2.5053 13.6341)
(-2.72425e-10 -6.38546 1.69115)
(-1.57863e-10 -5.36061 10.5912)
(-3.93881e-11 -11.0373 20.5407)
(-1.57157e-11 -13.364 24.5579)
(-5.89078e-12 -13.8995 24.1528)
(-1.04736e-12 -12.7737 22.3317)
(3.9373e-13 -11.4673 21.024)
(2.29418e-13 -10.7976 19.1121)
(4.33492e-14 -10.0183 17.6269)
(6.51198e-13 -9.23614 16.7267)
(1.87132e-12 -8.62169 15.5152)
(2.21598e-12 -7.62227 13.9484)
(4.60705e-13 -3.95539 10.403)
(-7.01147e-13 -2.77613 -6.29933)
(1.73653e-10 1.77059 10.7113)
(8.11042e-12 -5.87339 6.40471)
(-1.52678e-10 -6.47687 7.82898)
(-6.39475e-11 -10.8226 18.5204)
(-1.91545e-11 -13.9662 23.5237)
(-6.10319e-12 -14.5853 23.6908)
(-1.59595e-12 -13.4398 21.9178)
(5.89318e-14 -12.1904 20.4377)
(1.02465e-13 -11.3663 18.5063)
(-6.85477e-14 -10.4636 16.8095)
(4.71032e-13 -9.69016 15.8218)
(1.55601e-12 -9.00848 14.7568)
(2.1585e-12 -9.19808 12.6012)
(1.03502e-12 -6.4429 13.0259)
(5.25164e-13 -7.02619 6.95103)
(1.04574e-10 -0.611736 3.06739)
(1.18074e-10 -3.86197 6.49869)
(-4.41146e-11 -4.78829 6.33678)
(-7.32721e-11 -9.02397 14.9701)
(-3.46101e-11 -13.1338 21.6489)
(-1.10686e-11 -14.5467 23.4189)
(-2.64181e-12 -13.8223 22.175)
(-1.59546e-13 -12.5917 20.4799)
(1.64229e-13 -11.535 18.5807)
(-3.06849e-14 -10.4487 16.7953)
(2.55373e-13 -9.72062 15.5018)
(1.0975e-12 -8.98967 14.4931)
(1.88144e-12 -9.44738 12.1932)
(1.36574e-12 -7.69134 14.4959)
(9.88321e-13 -8.15613 11.2902)
(7.70413e-11 -4.13142 -0.862516)
(1.32499e-10 -2.696 9.01956)
(-1.43417e-11 -4.93155 7.11953)
(-7.26813e-11 -7.90903 14.0105)
(-4.06706e-11 -12.4879 20.8432)
(-1.37861e-11 -14.1061 23.5324)
(-3.45033e-12 -13.484 22.889)
(-2.93799e-13 -12.4868 20.9187)
(2.36397e-13 -11.3947 19.0326)
(3.7047e-14 -10.436 17.2333)
(1.69423e-13 -9.91698 15.7594)
(8.81423e-13 -9.05572 14.8052)
(1.73202e-12 -9.13833 12.8767)
(1.37121e-12 -7.64602 15.8362)
(1.13042e-12 -8.2948 11.2026)
(7.08824e-11 -4.98078 0.855984)
(1.26587e-10 0.0808782 7.2733)
(8.56724e-12 -4.91977 6.39731)
(-6.92004e-11 -10.0568 13.9628)
(-4.53585e-11 -11.7196 21.4929)
(-1.52303e-11 -14.0766 23.2757)
(-3.36383e-12 -14.3072 22.3235)
(-4.94371e-13 -12.6476 21.4659)
(3.5661e-14 -11.9196 19.5658)
(-2.71606e-15 -10.9535 17.8391)
(1.29138e-13 -10.0874 16.5129)
(7.6721e-13 -9.02976 15.6206)
(1.62755e-12 -9.17009 13.8065)
(1.3821e-12 -7.85872 16.6221)
(1.02113e-12 -7.5568 10.1893)
(8.85269e-11 -3.5466 5.20918)
(1.21942e-10 -2.33959 6.85822)
(5.3861e-11 -4.78993 7.11076)
(-4.55447e-11 -9.23014 12.6062)
(-5.98578e-11 -11.9649 19.9615)
(-3.13582e-11 -14.4384 23.1299)
(-8.55146e-12 -15.0449 22.8651)
(-2.08948e-14 -13.7435 21.8914)
(1.06291e-12 -12.7241 20.0617)
(3.6768e-13 -11.5018 18.2892)
(7.55252e-14 -10.4584 16.8328)
(5.96348e-13 -9.18007 15.9693)
(1.49942e-12 -9.15524 14.3531)
(1.40816e-12 -8.07203 16.8831)
(9.70242e-13 -7.16732 9.92053)
(5.04933e-11 -0.604095 1.52622)
(7.72793e-11 -1.95281 -1.72971)
(8.4156e-11 -0.874052 2.93359)
(3.51431e-11 -5.31982 7.72874)
(-2.33352e-11 -9.64752 14.8056)
(-3.7688e-11 -13.0095 20.6865)
(-2.40621e-11 -14.9927 23.2548)
(-8.53866e-12 -14.7243 23.6768)
(-9.82539e-13 -13.7284 22.5193)
(6.13251e-13 -12.607 20.6692)
(3.35684e-13 -11.5219 18.8777)
(4.68971e-13 -10.0614 17.6568)
(1.29604e-12 -9.75279 16.0317)
(1.39968e-12 -8.60046 17.5807)
(8.70211e-13 -6.9249 10.1206)
)
;

boundaryField
{
    inletFace
    {
        type            zeroGradient;
    }
    inlet
    {
        type            fixedValue;
        value           uniform (0 8.7 15);
    }
    inletWalls
    {
        type            noSlip;
    }
    outletInlet
    {
        type            zeroGradient;
    }
}


// ************************************************************************* //
