/*--------------------------------*- C++ -*----------------------------------*\
| =========                 |                                                 |
| \\      /  F ield         | OpenFOAM: The Open Source CFD Toolbox           |
|  \\    /   O peration     | Version:  4.1                                   |
|   \\  /    A nd           | Web:      www.OpenFOAM.org                      |
|    \\/     M anipulation  |                                                 |
\*---------------------------------------------------------------------------*/
FoamFile
{
    version     2.0;
    format      ascii;
    class       volScalarField;
    location    "22";
    object      p;
}
// * * * * * * * * * * * * * * * * * * * * * * * * * * * * * * * * * * * * * //

dimensions      [0 2 -2 0 0 0 0];

internalField   nonuniform List<scalar> 
6785
(
12048.4
11982
11931.1
11881.1
11834.9
11791.4
11750.7
11712.3
11676.1
11641.7
11608.6
11578.1
11550.3
11516.7
11482.4
11500.5
11482.8
11486.5
11481.8
11478.7
11475.4
11472.6
11470.3
11468.9
11468.4
11468.7
11470.2
11473.6
11477.6
11479
11458.4
11452.8
11462.8
11461.7
11465.2
11467.4
11469.8
11472
11474
11475.8
11477.4
11478.6
11479.5
11480.8
11482.4
11512.8
11510.7
11515.8
11512.1
11513
11511.7
11511
11510.1
11509.4
11508.7
11508.2
11507.7
11507.1
11506.7
11507.8
11515.1
11513
11515.9
11512.8
11514.5
11513.7
11514.2
11514.5
11514.9
11515.4
11515.8
11516
11516
11516
11516.2
11503.4
11501.3
11503.3
11500.8
11502.5
11501.4
11501.9
11501.7
11501.7
11501.6
11501.4
11501.1
11500.3
11499.4
11499
11491.3
11489.6
11490.8
11488.4
11489.3
11487.7
11487.4
11486.4
11485.6
11484.7
11484
11483.4
11482.8
11482.5
11483.2
11485.7
11484.9
11486.2
11484.4
11485.3
11484.2
11484.2
11483.7
11483.3
11483
11482.8
11482.8
11483.1
11483.6
11484.7
11490.3
11490.7
11492.1
11491.1
11492.5
11492.1
11492.7
11493
11493.4
11493.8
11494.3
11494.8
11495.4
11495.9
11496.9
11499
11500.1
11501.4
11501
11502.3
11502.3
11503.1
11503.6
11504.2
11504.7
11505.3
11505.9
11506.6
11507.1
11507.8
11508
11509.4
11510.4
11510.2
11511.3
11511.4
11512.1
11512.5
11513
11513.5
11514
11514.5
11515.1
11515.5
11516.2
11516.2
11517.7
11518.5
11518.5
11519.5
11519.6
11520.3
11520.7
11521.1
11521.6
11522.1
11522.6
11523.1
11523.6
11524.2
11528.2
11529.2
11529.6
11529.4
11530
11529.8
11530
11529.9
11529.9
11529.9
11529.9
11530.1
11530.6
11531
11531.6
11529.1
11531
11531.1
11530.9
11531.4
11531.2
11531.7
11531.8
11532.1
11532.3
11532.5
11532.8
11533.1
11533.4
11533
11564.2
11557.9
11550.5
11543.4
11537.1
11530.8
11525.7
11521.6
11518
11515.6
11514.1
11513
11513.1
11514.7
11517.4
11629.9
11629.9
11629.9
11629.9
11629.9
11629.9
11629.9
11629.9
11630
11630
11630
11630
11630
11630
11630
11630.1
11630.2
11630.1
11630.2
11630.2
11630.2
11630.3
11630.3
11630.3
11630.4
11630.5
11630.6
11630.6
11630.6
11630.8
11630.7
11630.8
11630.9
11631.1
11631.1
11631.1
11631.3
11631.3
11631.3
11631.4
11631.6
11631.6
11631.6
11631.7
11631.8
11631.8
11631.7
11631.8
11631.9
11631.8
11631.9
11632
11632.1
11632.2
11632.4
11632.6
11632.6
11633
11633.2
11633.3
11633.7
11633.9
11634.2
11634.2
11634.6
11634.7
11634.9
11634.9
11634.8
11635.2
11634.8
11632.6
11631.9
11632.8
11630.8
11623.4
11626.5
11621
11603.2
11609.9
11613.2
11612.3
11610.8
11613.1
11595.7
11597.8
11597.4
11597.7
11597.3
11596.9
11596.7
11595.8
11596.3
11577.6
11576.2
11574
11572.2
11570.2
11568.1
11566
11564.7
11560.2
11543.3
11541.3
11538.3
11536.6
11536.4
11534.7
11532.1
11530.6
11528.8
11518.7
11509.7
11507.8
11505.7
11503.3
11502.7
11503
11502.6
11499.9
11478.2
11483.3
11484.8
11485.1
11483.4
11481.5
11480.1
11482.7
11482.1
11458
11469.1
11466.9
11468
11468.7
11467.7
11467.2
11467.5
11464.7
11440.2
11462.4
11460.5
11460.5
11459.7
11460.7
11461
11460.9
11462.1
11459.5
11427.2
11459
11457
11458.1
11459.7
11458.3
11451.1
11451.1
11455.4
11420.2
11452.6
11440.6
11432.7
11455.5
11381.6
11392.9
11353.2
11402.2
11420.9
11327.8
11394.7
11426.3
11371.3
11405.5
11399.6
11446.5
11483.2
11470.8
11507.1
11520.9
11554.9
11582.4
11607.1
11624.5
11628.8
11665
11673.6
11649.5
11663.5
11641
11675.4
11641.6
11591.2
11604.3
11565.5
11638.6
11589.2
11495.9
11616.3
11565.2
11493.2
11530.8
11503.6
11618.3
11561.1
11499.9
11540
11526.5
11617.5
11572.4
11513.2
11614.3
11507.5
11456.2
11412
11339.3
11444
11336.1
11216.2
11288.9
11251.1
11506.2
11619.8
11544.3
11971
12177.2
12150.5
12496.6
12501.3
13278
13829.6
12771.1
15342.6
16120.1
8929.97
14199.1
19570.3
814.592
-1756.15
-15768.7
-12988.8
18083.5
0.22643
0.459936
0.716047
0.913048
1.11936
1.30793
1.51866
1.7477
2.00159
2.26553
2.52818
2.7975
3.11141
3.50195
3.97751
4.52259
5.08951
5.61717
6.06175
6.37413
6.58332
6.88158
7.44718
8.27989
9.24194
10.2426
11.2881
12.2825
13.3403
14.6209
16.0415
17.5148
19.0723
20.6851
22.3159
23.9543
25.6328
27.4233
29.3856
31.5173
33.7714
36.0808
38.3711
40.5644
42.5137
43.9814
44.6362
43.9978
41.3707
35.545
24.4565
7.64699
-4.19103
-0.773962
3.84786
8.88956
10.3286
11.1779
12.5648
13.7722
14.5519
14.6775
14.0661
12.8837
12.6563
14.3984
17.8892
23.4303
31.9227
45.1253
66.394
101.885
162.919
273.567
477.614
875.834
1593
2129.59
2688.7
0.661907
1.27125
1.91875
2.46375
3.10804
3.77755
4.52457
5.27679
6.03344
6.78764
7.56451
8.40212
9.35426
10.4577
11.7135
13.0556
14.3338
15.4528
16.4771
17.4416
18.3676
19.4917
21.0953
23.2283
25.6882
28.3174
31.1437
33.9112
36.8286
40.0772
43.4782
46.8312
50.2748
53.8028
57.4064
61.1236
65.0557
69.3536
74.1582
79.5024
85.242
91.1079
96.8086
102.13
106.779
110.329
112.176
111.307
106.053
93.8273
71.7609
41.312
20.8496
22.4043
21.9156
29.558
32.9129
34.2833
35.9719
37.2975
38.5062
39.2066
38.6726
36.6197
35.3418
36.5378
39.4923
43.9691
49.3981
55.5911
62.5738
70.0475
76.0636
77.666
57.3149
22.6964
-91.8178
-787.401
8239.11
1.04527
2.06841
3.20917
4.15117
5.24323
6.34895
7.57221
8.81539
10.088
11.3706
12.6923
14.1203
15.7495
17.6462
19.8114
22.1351
24.3838
26.4016
28.2463
29.9172
31.5045
33.5057
36.3856
40.1213
44.3197
48.7708
53.5245
58.1441
63.164
68.7668
74.6428
80.5137
86.6162
92.8964
99.3233
105.96
112.986
120.679
129.231
138.652
148.676
158.891
168.875
178.302
186.65
193.131
196.596
195.189
185.996
164.426
124.796
68.0488
25.6436
27.2181
34.6896
50.6517
56.7013
59.1191
62.638
65.1696
66.8848
67.2752
65.659
62.6316
62.0491
65.8887
72.7501
82.595
94.8059
109.466
127.305
149.064
173.732
201.306
215.617
267.673
422.044
269.169
14849.3
1.38321
2.78834
4.38656
5.71593
7.26458
8.83526
10.5656
12.3197
14.1118
15.9173
17.7809
19.7971
22.0901
24.7432
27.7557
30.9757
34.0845
36.873
39.4343
41.7991
44.1003
46.9764
51.0108
56.1634
61.9529
68.1332
74.7363
81.1769
88.219
96.012
104.129
112.24
120.652
129.297
138.152
147.321
157.056
167.729
179.585
192.652
206.569
220.766
234.669
247.823
259.515
268.669
273.709
272.114
259.927
231.013
178.034
102.284
43.6816
42.8378
52.4084
72.6135
81.4986
84.9787
89.6099
92.8266
95.0072
95.4135
93.0263
89.2817
89.4843
96.1607
107.815
124.828
147.126
176.082
215.012
269.279
345.817
461.913
636.533
1023.63
1989.78
3198.1
16654.4
1.6781
3.45282
5.52287
7.25758
9.27894
11.32
13.5523
15.8111
18.1218
20.4544
22.8644
25.4708
28.4289
31.8417
35.7058
39.8266
43.8047
47.383
50.6859
53.7671
56.8002
60.569
65.7688
72.3379
79.7141
87.621
96.0477
104.306
113.388
123.401
133.767
144.148
154.908
165.968
177.319
189.103
201.645
215.397
230.644
247.42
265.263
283.46
301.303
318.231
333.353
345.31
352.097
350.532
335.649
299.838
234.077
139.517
63.2145
58.1193
70.5992
95.36
107.649
112.497
118.584
122.75
125.401
125.636
122.327
118.136
119.362
128.638
144.588
167.883
198.778
239.55
295.366
374.828
490.355
671.804
968.141
1605.75
3138.64
5114.13
14561.2
1.94169
4.06492
6.60545
8.75154
11.2532
13.7713
16.5099
19.2772
22.1092
24.9711
27.93
31.1274
34.7466
38.9081
43.6047
48.5982
53.4109
57.7432
61.7621
65.5607
69.3457
74.0086
80.3337
88.2541
97.1655
106.765
116.966
127.036
138.131
150.325
162.862
175.428
188.427
201.787
215.525
229.824
245.077
261.796
280.301
300.645
322.271
344.328
365.982
386.575
405.055
419.815
428.467
427.238
410.243
368.592
291.909
181.195
88.583
77.6603
91.4662
119.228
135.033
141.416
148.85
153.904
157.053
157.173
152.993
148.738
151.666
164.123
185.039
215.3
255.419
308.419
380.994
484.361
635.507
875.842
1283.49
2133.35
4058.66
6683.76
13705.8
2.1807
4.63137
7.65063
10.2177
13.2075
16.206
19.4499
22.7246
26.0775
29.4704
32.9801
36.7692
41.0473
45.9526
51.4723
57.3218
62.9485
68.0186
72.7482
77.2716
81.8239
87.3856
94.8199
104.06
114.478
125.745
137.677
149.551
162.645
177
191.663
206.368
221.55
237.161
253.253
270.047
287.996
307.659
329.382
353.233
378.561
404.387
429.766
453.958
475.78
493.401
504.082
503.504
484.933
438.323
352.074
226.806
118.148
99.7062
114.182
144.265
163.807
171.985
180.908
186.98
190.668
190.656
185.607
181.483
186.457
202.458
228.936
267.036
317.63
384.6
476.379
607.355
800.714
1113.09
1659.15
2760.19
5076.07
8206.89
11819.4
2.40418
5.1583
8.66503
11.6587
15.1401
18.6199
22.3684
26.1506
30.0248
33.9501
38.0125
42.3938
47.3279
52.9704
59.3005
65.9843
72.3984
78.1831
83.6111
88.8611
94.1913
100.652
109.17
119.693
131.583
144.487
158.109
171.779
186.855
203.332
220.063
236.847
254.137
271.93
290.32
309.563
330.165
352.711
377.574
404.832
433.748
463.221
492.215
519.922
545.052
565.582
578.46
578.874
559.319
508.72
414.416
276.494
152.581
125.138
139.286
170.689
193.956
204.153
214.623
221.792
226.074
225.963
220.195
216.558
224.02
243.927
276.408
322.908
384.696
466.567
578.858
739.748
980.476
1376.18
2082.24
3451.67
6083.59
9521.2
10831.2
2.61955
5.65226
9.65729
13.0811
17.0557
21.0166
25.2685
29.5575
33.9521
38.4104
43.0268
48.0002
53.5874
59.9618
67.0907
74.5881
81.7641
88.2434
94.3608
100.339
106.454
113.813
123.395
135.172
148.506
163.015
178.29
193.744
210.79
229.341
248.087
266.895
286.225
306.147
326.794
348.456
371.68
397.064
425.002
455.575
487.968
520.97
553.468
584.61
613.02
636.519
651.779
653.539
633.598
579.97
479.04
330.194
191.739
153.849
166.73
198.633
225.554
238.018
250.169
258.584
263.536
263.343
257.007
254.168
264.542
288.798
327.823
383.345
457.002
554.505
688.254
880.917
1173.55
1661.94
2540.02
4165.84
7010.75
10633.9
10202.2
2.8332
6.12085
10.633
14.4883
18.9551
23.3964
28.1505
32.9453
37.8591
42.8504
48.0224
53.5875
59.8242
66.9247
74.8407
83.1292
91.0404
98.1941
104.991
111.695
118.599
126.853
137.48
150.482
165.235
181.315
198.203
215.436
234.437
255.003
275.707
296.48
317.786
339.785
362.649
386.699
412.509
440.678
471.616
505.4
541.148
577.549
613.436
647.928
679.592
706.123
723.954
727.425
707.714
652.027
545.911
387.902
235.829
186.22
196.752
228.307
258.632
273.586
287.542
297.36
303.081
302.849
296.207
294.534
308.211
337.265
383.393
448.605
534.893
648.963
805.646
1033.15
1384.33
1977.07
3036.69
4899.76
7870.15
11530.5
10375.4
3.04998
6.57253
11.5957
15.8824
20.8395
25.7607
31.0157
36.3149
41.7462
47.2698
52.9992
59.1556
66.038
73.858
82.5487
91.6053
100.225
108.034
115.503
122.928
130.621
139.764
151.418
165.622
181.772
199.383
217.85
236.854
257.794
280.31
302.912
325.592
348.818
372.848
397.896
424.305
452.667
483.566
517.428
554.316
593.29
632.958
672.115
709.873
744.768
774.396
794.994
800.547
781.683
724.907
615.016
449.583
284.947
222.519
229.51
259.925
293.264
310.908
326.812
338.218
344.821
344.579
337.958
337.868
355.204
389.517
443.282
518.813
618.479
750.187
931.812
1198.45
1616.73
2326.77
3573.59
5646.5
8625.2
11957.5
11581.1
3.27252
7.01643
12.548
17.264
22.7096
28.1099
33.8646
39.6666
45.6134
51.6688
57.9571
64.7045
72.2292
80.7612
90.2122
100.013
109.313
117.762
125.893
134.034
142.512
152.537
165.202
180.586
198.113
217.209
237.221
257.989
280.85
305.251
329.686
354.216
379.309
405.332
432.533
461.275
492.151
525.722
562.423
602.298
644.365
687.16
729.467
770.407
808.509
841.304
864.866
872.871
855.472
798.571
686.303
515.189
339.232
263.138
265.254
293.75
329.543
350.016
367.998
381.172
388.777
388.561
382.365
384.357
405.667
445.709
507.639
594.11
707.935
858.586
1067.78
1378.95
1874
2713.31
4145.4
6387.3
9268.41
11877.6
12412.6
3.50059
7.46195
13.4927
18.633
24.5655
30.4447
36.6976
43.0005
49.4611
56.0478
62.8962
70.2346
78.3983
87.6341
97.8286
108.348
118.303
127.375
136.16
145.007
154.266
165.165
178.826
195.371
214.254
234.785
256.313
278.834
303.595
329.82
356.025
382.345
409.258
437.239
466.563
497.611
530.961
567.142
606.591
649.333
694.352
740.131
785.465
829.504
870.793
906.826
933.547
944.371
929.047
872.973
759.701
584.647
398.786
308.48
304.272
330.085
367.613
390.972
411.142
426.249
434.972
434.826
429.476
434.105
459.712
505.959
576.588
674.663
803.588
974.925
1215.16
1577.47
2159.73
3137.82
4744.61
7101.16
9819.09
11603.6
12452.6
3.73134
7.91751
14.4324
19.9902
26.4066
32.7652
39.5144
46.3164
53.2893
60.4073
67.8168
75.7462
84.5458
94.4765
105.396
116.608
127.189
136.87
146.301
155.846
165.875
177.642
192.282
209.975
230.186
252.106
275.12
299.386
326.022
354.011
381.927
409.979
438.663
468.57
499.99
533.316
569.097
607.817
649.916
695.397
743.222
791.841
840.079
887.136
931.592
970.932
1001
1015.01
1002.36
948.041
835.113
657.86
463.689
358.981
346.93
369.278
407.677
433.862
456.287
473.455
483.41
483.427
479.334
487.164
517.433
570.369
650.271
760.721
905.966
1100.34
1376.1
1797.33
2477.36
3600.02
5362.85
7769.99
10266.3
11381.8
12332.3
3.95924
8.38958
15.3691
21.3377
28.2319
35.0711
42.3145
49.6139
57.0982
64.7483
72.7194
81.2401
90.6724
101.288
112.911
124.787
135.968
146.247
156.313
166.547
177.338
189.963
205.566
224.395
245.903
269.168
293.644
319.649
348.128
377.818
407.392
437.119
467.529
499.329
532.816
568.392
606.553
647.74
692.384
740.468
790.949
842.26
893.282
943.277
990.882
1033.6
1067.2
1084.73
1075.34
1023.69
912.423
734.7
533.971
415.07
393.67
411.724
450.017
478.825
503.52
522.825
534.107
534.447
532.031
543.598
578.927
639.068
728.907
852.7
1015.89
1236.38
1553.17
2041.97
2829.46
4097.36
5989.86
8383.59
10616.6
11261.4
12121.6
4.17651
8.88124
16.3034
22.6783
30.0419
37.3611
45.097
52.8925
60.888
69.0717
77.6052
86.7176
96.7787
108.067
120.373
132.88
144.637
155.501
166.196
177.107
188.649
202.122
218.676
238.63
261.401
285.971
311.888
339.622
369.902
401.232
432.417
463.765
495.858
529.517
565.046
602.838
643.327
686.9
733.975
784.524
837.506
891.362
945.047
997.903
1048.64
1094.79
1132.11
1153.5
1147.92
1099.82
991.488
815.006
609.614
477.148
445.011
457.871
495.006
526.073
552.987
574.44
587.108
587.994
587.697
603.512
644.329
712.265
812.864
951.262
1134.54
1385.04
1749.32
2314.73
3217.39
4625.01
6613.92
8934.65
10880.6
11250.7
11942.3
4.37538
9.38996
17.2349
24.014
31.8382
39.6335
47.8606
56.1514
64.6591
73.3787
82.4758
92.1803
102.865
114.814
127.777
140.882
153.191
164.631
175.946
187.525
199.808
214.117
231.609
252.677
276.678
302.515
329.852
359.301
391.334
424.244
456.999
489.914
523.65
559.136
596.682
636.655
679.412
725.282
774.67
827.539
882.865
939.119
995.35
1050.99
1104.84
1154.49
1195.68
1221.25
1220.02
1176.3
1072.15
898.586
690.534
545.563
501.536
508.23
543.115
575.909
604.916
628.458
642.523
644.234
646.519
667.076
713.869
790.31
902.726
1057.38
1263.49
1548.73
1967.74
2618.51
3640.96
5176.18
7223.1
9418.67
11067.9
11329.4
11797.1
4.55029
9.90834
18.1615
25.3455
33.6217
41.888
50.6034
59.3899
68.4116
77.6705
87.3333
97.6299
108.933
121.527
135.121
148.788
161.628
173.635
185.562
197.799
210.812
225.945
244.363
266.536
291.735
318.803
347.538
378.677
412.41
446.847
481.127
515.559
550.903
588.187
627.725
669.842
714.8
762.873
814.446
869.487
927
985.508
1044.17
1102.53
1159.47
1212.67
1257.88
1287.92
1291.55
1253.02
1154.22
985.217
776.586
620.58
563.87
563.377
594.917
628.745
659.631
685.137
700.555
703.432
708.785
734.568
787.917
873.754
999.357
1172.39
1404.74
1730.21
2211.6
2955.39
4098.18
5742.53
7806.57
9834.82
11185.7
11500.8
11702.7
4.69853
10.4273
19.0778
26.672
35.3922
44.1246
53.3234
62.6073
72.1459
81.9488
92.1801
103.068
114.983
128.206
142.4
156.595
169.945
182.51
195.043
207.928
221.66
237.606
256.941
280.207
306.573
334.834
364.945
397.74
433.117
469.037
504.797
540.696
577.616
616.675
658.178
702.394
749.481
799.655
853.281
910.344
969.887
1030.51
1091.49
1152.49
1212.51
1269.3
1318.67
1353.45
1362.41
1329.82
1237.5
1074.64
867.558
702.364
632.636
623.952
651.08
685.114
717.57
744.845
761.514
765.971
774.923
806.417
867.033
963.387
1103.94
1297.98
1560.64
1932.41
2483.8
3326.3
4585.25
6314.75
8354.81
10181.1
11233.3
11787
11651.1
4.82002
10.9394
19.9778
27.9903
37.1482
46.343
56.0198
65.8027
75.8627
86.2151
97.0186
108.498
121.016
134.849
149.613
164.299
178.14
191.257
204.385
217.908
232.351
249.098
269.343
293.691
321.194
350.611
382.069
416.476
453.443
490.807
528.004
565.324
603.788
644.6
688.041
734.308
783.444
835.61
891.153
950.086
1011.5
1074.1
1137.3
1200.88
1263.94
1324.35
1378.01
1417.77
1432.5
1406.55
1321.78
1166.58
963.17
790.961
708.415
690.649
712.36
745.674
779.295
808.079
825.834
832.345
845.526
883.24
952.008
1060.29
1217.99
1436.24
1733.81
2158.29
2786.61
3730.75
5096.67
6883.27
8860.01
10461.1
11213.3
11984.7
11572.2
4.91669
11.4399
20.8558
29.2957
38.8878
48.5415
58.6925
68.9747
79.5623
90.471
101.851
113.921
127.032
141.456
156.756
171.898
186.209
199.874
213.586
227.739
242.883
260.422
281.572
306.993
335.599
366.133
398.905
434.872
473.376
512.148
550.739
589.436
629.42
671.964
717.312
765.576
816.676
870.72
928.039
988.688
1051.83
1116.27
1181.59
1247.68
1313.76
1377.82
1435.85
1480.82
1501.71
1483.05
1406.81
1260.71
1063.08
886.285
791.694
764.191
779.582
811.21
845.499
875.486
894.122
903.162
921.317
965.873
1043.89
1165.83
1343.38
1589.55
1927.05
2410.54
3121.4
4166.67
5625.56
7438.79
9316.74
10686.8
11156.3
11873.2
11464.5
4.99183
11.9277
21.7082
30.5831
40.6081
50.7183
61.3415
72.1233
83.2453
94.7181
106.68
119.34
133.035
148.027
163.826
179.388
194.153
208.361
222.645
237.417
253.254
271.577
293.631
320.115
349.791
381.401
415.447
452.916
492.906
533.052
572.996
613.03
654.512
698.768
745.988
796.19
849.163
904.963
963.916
1026.13
1090.85
1157.01
1224.35
1292.88
1361.96
1429.68
1492.17
1542.54
1569.93
1559.16
1492.36
1356.7
1166.89
988.121
882.827
845.284
853.614
882.613
917.016
947.883
967.205
979.212
1003.18
1055.39
1143.98
1281.69
1482.27
1760.49
2143.12
2691.37
3488.37
4630.45
6164.15
7972.77
9720.6
10860.4
11115.4
11683
11388.7
5.04962
12.4048
22.5339
31.8487
42.3057
52.8727
63.966
75.2493
86.9117
98.9583
111.509
124.758
139.024
154.563
170.824
186.769
201.974
216.719
231.558
246.943
263.463
282.563
305.525
333.062
363.77
396.414
431.689
470.597
512.024
553.506
594.763
636.099
679.061
725.009
774.065
826.141
880.889
938.32
998.764
1062.39
1128.55
1196.32
1265.58
1336.5
1408.53
1479.91
1546.93
1602.85
1637.07
1634.7
1578.16
1454.18
1274.15
1096.13
981.994
934.569
935.337
960.865
994.807
1026.23
1046.1
1061.52
1092.21
1153.12
1253.88
1409.82
1637.06
1951.77
2384.52
3002.19
3886.38
5117.07
6704.11
8477.6
10070.6
10988.7
11110.7
11536.5
11338.2
5.09424
12.8744
23.3351
33.0903
43.9778
55.0033
66.5651
78.3542
90.5622
103.193
116.339
130.177
145.003
161.064
177.746
194.041
209.674
224.947
240.327
256.314
273.509
293.382
317.254
345.835
377.537
411.173
447.622
487.907
530.719
573.501
616.034
658.638
703.064
750.684
801.538
855.417
911.837
970.768
1032.56
1097.46
1164.92
1234.19
1305.3
1378.53
1453.47
1528.51
1600.09
1661.69
1703
1709.5
1663.95
1552.79
1384.37
1209.83
1089.18
1032.57
1025.6
1046.99
1079.94
1111.64
1131.99
1151.32
1189.75
1260.61
1375.39
1552.4
1810.29
2165.97
2653.3
3343.47
4312.91
5620.38
7237.04
8946.97
10369
11082.8
11127.8
11427.4
11314
5.12902
13.3396
24.1152
34.3081
45.6226
57.1085
69.1388
81.439
94.1985
107.424
121.174
135.6
150.975
167.533
184.594
201.205
217.255
233.046
248.95
265.53
283.391
304.032
328.825
358.438
391.091
425.674
463.241
504.841
548.985
593.028
636.799
680.641
726.516
775.79
828.399
884.005
941.988
1002.29
1065.29
1131.32
1199.96
1270.63
1343.5
1418.98
1496.79
1575.46
1651.62
1719.01
1767.62
1783.39
1749.47
1652.13
1497.01
1328.67
1204.18
1139.62
1125.14
1142.02
1173.55
1205.29
1226.17
1249.98
1297.33
1379.58
1510.51
1711.71
2004.46
2405.42
2950.79
3714.52
4764.13
6133.38
7754.9
9376.25
10619.3
11151.4
11156.5
11351.5
11310.6
5.15637
13.8025
24.8779
35.5041
47.2393
59.1866
71.6879
84.5041
97.8231
111.651
126.015
141.031
156.941
173.97
191.367
208.264
224.722
241.016
257.429
274.588
293.107
314.514
340.238
370.871
404.43
439.916
478.539
521.39
566.815
612.082
657.052
702.105
749.416
800.321
854.641
911.893
971.325
1032.86
1096.93
1163.96
1233.67
1305.64
1380.21
1457.87
1538.48
1620.75
1701.51
1774.75
1830.84
1856.19
1834.45
1751.81
1611.52
1451.99
1326.56
1255.84
1234.55
1246.88
1276.77
1308.44
1329.99
1359
1416.61
1511.94
1661.35
1890.05
2221.89
2671.95
3277.47
4113.44
5235.09
6648.65
8250.43
9762.54
10825.5
11200.8
11196.4
11305.7
11323
5.17805
14.2641
25.6259
36.6804
48.8284
61.2367
74.213
87.5502
101.439
115.879
130.867
146.473
162.906
180.377
198.065
215.221
232.076
248.856
265.764
283.487
302.656
324.831
351.499
383.135
417.551
453.892
493.51
537.551
584.205
630.658
676.786
723.026
771.76
824.274
880.257
939.064
999.826
1062.46
1127.47
1195.39
1266.06
1339.26
1415.44
1495.22
1578.57
1664.4
1749.73
1828.86
1892.55
1927.74
1918.62
1851.41
1727.31
1579.04
1455.74
1381.09
1354.2
1362.36
1390.66
1422.33
1444.87
1479.93
1549.32
1659.58
1829.97
2089.55
2464.49
2966.67
3632.85
4537.19
5719.93
7158.68
8717.49
10104.8
10993.1
11235.5
11238.1
11281.4
11344
5.19506
14.7247
26.3612
37.8387
50.3917
63.2589
76.7146
90.5789
105.047
120.108
135.731
151.929
168.872
186.755
204.689
222.08
239.323
256.568
273.958
292.228
312.04
334.986
362.611
395.227
430.451
467.598
508.15
553.318
601.151
648.752
695.996
743.405
793.55
847.645
905.235
965.503
1027.47
1091.07
1156.89
1225.58
1297.14
1371.48
1449.22
1531.03
1617.07
1706.39
1796.26
1881.29
1952.66
1997.87
2001.71
1950.55
1843.8
1709.05
1590.94
1514.99
1484.18
1489.02
1516.1
1548.06
1572.14
1614.28
1697.17
1824.37
2018.26
2311.98
2733.57
3289.87
4015.45
4981.75
6212.21
7656.27
9151.25
10403.4
11127.1
11258.3
11274.3
11271.1
11359.3
5.20785
15.1839
27.0846
38.9801
51.931
65.2541
79.1926
93.5923
108.649
124.342
140.612
157.405
174.842
193.105
211.239
228.845
246.465
264.155
282.011
300.812
321.259
344.983
373.576
407.145
443.124
481.025
522.452
568.688
617.651
666.357
714.677
763.239
814.783
870.43
929.565
991.193
1054.25
1118.69
1185.2
1254.57
1326.91
1402.35
1481.56
1565.35
1653.99
1746.74
1841.11
1932.01
2011.1
2066.44
2083.48
2048.82
1960.4
1841.19
1731.26
1656.89
1624.27
1627.09
1653.73
1686.54
1712.98
1763.45
1861.7
2007.93
2227.81
2558.56
3029.61
3640.81
4422.68
5442.22
6705.23
8134.84
9548.31
10660.1
11233.4
11275.5
11280.8
11256.7
11361
5.21645
15.6408
27.7961
40.1054
53.4475
67.2243
81.6477
96.5924
112.246
128.585
145.515
162.904
180.818
199.424
217.715
235.521
253.504
271.617
289.925
309.24
330.317
354.826
384.397
418.886
455.563
494.165
536.411
583.658
633.703
683.468
732.827
782.528
835.462
892.622
953.235
1016.12
1080.14
1145.29
1212.39
1282.34
1355.41
1431.87
1512.5
1598.19
1689.36
1785.46
1884.25
1980.99
2067.77
2133.31
2163.68
2145.83
2076.52
1974.61
1875.71
1805.91
1773.93
1776.49
1803.82
1838.33
1868.3
1928.6
2044.18
2211.57
2459.74
2829.87
3352.15
4017.62
4850.78
5912.99
7192.28
8588.7
9906.61
10877.7
11318.7
11292.6
11247
11243.8
11365.2
5.22073
16.0941
28.4953
41.2147
54.9427
69.172
84.0815
99.5808
115.84
132.84
150.445
168.429
186.801
205.713
224.118
242.11
260.442
278.955
297.702
317.515
339.215
364.519
395.073
430.443
467.761
507.012
550.024
598.226
649.305
700.081
750.445
801.271
855.582
914.213
976.233
1040.27
1105.12
1170.87
1238.46
1308.92
1382.66
1460.09
1542.08
1629.58
1723.2
1822.57
1925.7
2028.19
2122.63
2198.33
2242.08
2241.23
2191.59
2108.46
2023.18
1960.96
1932.34
1936.75
1966.27
2003.61
2038.67
2110.58
2245.53
2436.16
2714.59
3125.7
3699.68
4417.28
5294.98
6387.89
7666.95
9013.22
10225.4
11059.4
11385.9
11317.1
11233
11248
11373.7
5.22045
16.5424
29.1817
42.3079
56.4184
71.0999
86.4967
102.559
119.434
137.109
155.405
173.985
192.792
211.967
230.446
248.616
267.281
286.172
305.341
325.636
347.956
374.065
405.605
441.809
479.708
519.555
563.287
612.392
664.459
716.196
767.528
819.467
875.14
935.195
998.549
1063.63
1129.19
1195.43
1263.42
1334.32
1408.68
1487.03
1570.31
1659.56
1755.55
1858.09
1965.46
2073.62
2175.61
2261.39
2318.47
2334.66
2305.05
2241.91
2172.54
2120.79
2098.36
2107.05
2140.59
2182.1
2224.16
2309.83
2466.15
2681.98
2992.24
3445.05
4069.73
4835.78
5749.79
6860.52
8123.36
9404.95
10505.2
11209.4
11439.6
11348.7
11241.8
11259.6
11385.6
5.21541
16.9842
29.8544
43.3847
57.876
73.0107
88.8969
105.529
123.031
141.396
160.402
179.575
198.789
218.182
236.7
255.041
274.02
293.267
312.843
333.603
356.54
383.464
415.987
452.978
491.397
531.79
576.196
626.157
679.164
731.813
784.077
837.113
894.127
955.558
1020.17
1086.18
1152.33
1218.95
1287.27
1358.57
1433.51
1512.74
1597.24
1688.17
1786.43
1892.04
2003.55
2117.25
2226.67
2322.4
2392.66
2425.79
2416.4
2374.14
2322.66
2284.06
2270.66
2286.23
2325.84
2373.06
2424.34
2526.27
2705.91
2948.71
3291.84
3786.06
4458.97
5268.35
6209.4
7324.66
8556.43
9761.54
10747.2
11331.9
11483.6
11380.5
11259.2
11275.3
11400
5.2055
17.4179
30.5127
44.4449
59.3172
74.9077
91.2868
108.495
126.634
145.705
165.44
185.199
204.79
224.353
242.878
261.386
280.659
300.241
320.206
341.418
364.968
392.719
426.216
463.939
502.817
543.708
588.748
639.522
693.424
746.933
800.093
854.206
912.536
975.292
1041.08
1107.91
1174.54
1241.45
1310.03
1381.68
1457.17
1537.24
1622.92
1715.44
1815.88
1924.46
2039.98
2159.09
2275.78
2381.25
2464.48
2514.34
2525.15
2504.39
2472.41
2449.36
2447.71
2472.85
2520.77
2575.37
2638.3
2759.24
2964.06
3235.35
3611.78
4146.11
4863.4
5709.74
6667.96
7774.54
8962.05
10081.8
10953.7
11431.2
11520.7
11410
11278.3
11287.1
11407.2
5.19064
17.8418
31.1559
45.4885
60.7435
76.7946
93.6711
111.461
130.247
150.039
170.523
190.86
210.791
230.472
248.979
267.651
287.197
307.093
327.428
349.079
373.239
401.828
436.285
474.682
513.961
555.306
600.942
652.492
707.24
761.556
815.573
870.743
930.354
994.381
1061.27
1128.81
1195.81
1262.92
1331.72
1403.7
1479.71
1560.57
1647.36
1741.41
1843.94
1955.38
2074.79
2199.14
2322.9
2437.89
2533.77
2600.05
2630.86
2631.94
2620.71
2615.26
2627.88
2665.22
2723.77
2787.59
2864.7
3007.53
3239.28
3540.24
3949.8
4521.91
5278.47
6154.45
7119.77
8205.13
9337.12
10365.7
11127.4
11510.9
11553.4
11435.6
11297
11293.2
11404.5
5.17083
18.2543
31.7831
46.5155
62.1567
78.6751
96.0547
114.433
133.874
154.405
175.657
196.555
216.783
236.533
255.003
273.835
293.633
313.823
334.506
356.586
381.354
410.789
446.184
485.196
524.821
566.578
612.778
665.071
720.614
775.681
830.52
886.72
947.569
1012.81
1080.71
1148.87
1216.14
1283.39
1352.36
1424.64
1501.15
1582.78
1670.63
1766.13
1870.66
1984.84
2107.99
2237.42
2368.04
2492.25
2600.43
2682.68
2733.15
2756.16
2766.54
2780.37
2809.48
2861.49
2932.99
3008
3101.91
3269.45
3529.7
3861.13
4303
4909.67
5699.27
6596.93
7559.49
8612.22
9679.6
10613.9
11271.4
11574.8
11583.6
11464.2
11318.8
11301.8
11398.9
5.14614
18.6537
32.3937
47.5262
63.5588
80.5529
98.443
117.416
137.519
158.808
180.847
202.283
222.758
242.525
260.947
279.935
299.964
320.427
341.441
363.94
389.309
419.596
455.902
495.47
535.387
577.522
624.258
677.265
733.549
789.307
844.936
902.135
964.164
1030.57
1099.41
1168.08
1235.52
1302.86
1371.98
1444.54
1521.54
1603.9
1692.75
1789.63
1896.07
2012.87
2139.62
2273.94
2411.17
2544.28
2664.33
2762.05
2831.68
2876.45
2908.98
2943.36
2990.84
3059.73
3146.37
3234.65
3348.02
3542.93
3832.97
4195.26
4667.99
5305.23
6120.72
7031.75
7982.32
8992.52
9988.45
10827.9
11388.9
11625.3
11611.6
11504.3
11345.2
11307.7
11390.3
5.11669
19.0384
32.9873
48.5208
64.9516
82.4313
100.842
120.416
141.189
163.255
186.097
208.038
228.705
248.439
266.81
285.95
306.187
326.906
348.232
371.139
397.101
428.245
465.426
505.488
545.654
588.138
635.387
689.081
746.047
802.433
858.823
916.984
980.126
1047.63
1117.33
1186.43
1253.97
1321.35
1390.6
1463.44
1540.9
1623.97
1713.78
1811.97
1920.22
2039.53
2169.72
2308.74
2452.32
2593.97
2725.42
2838
2926.16
2992.33
3047.19
3103
3170.36
3258
3361.75
3465.46
3600.93
3825.57
4146.38
4539.47
5041.05
5704.25
6537.87
7453.82
8384.11
9343.71
10263.6
11010
11483.3
11665.2
11636.4
11543.3
11367.2
11306.4
11367.4
5.08267
19.4069
33.5632
49.4999
66.3369
84.3137
103.256
123.439
144.89
167.752
191.411
213.814
234.611
254.265
272.588
291.876
312.301
333.258
354.879
378.18
404.726
436.725
474.74
515.237
555.615
598.426
646.171
700.526
758.11
815.059
872.187
931.263
995.442
1063.99
1134.48
1203.92
1271.5
1338.89
1408.26
1481.36
1559.29
1643.03
1733.75
1833.19
1943.16
2064.85
2198.34
2341.84
2491.49
2641.3
2783.62
2910.4
3016.38
3103.37
3180.45
3258.2
3346.55
3454.44
3576.98
3698.28
3858.4
4114.77
4466.93
4890.34
5418.26
6102.35
6946.06
7858.54
8761.48
9664.35
10505.6
11162.6
11557.8
11696.6
11657.6
11574.1
11384.5
11299.4
11336.3
5.0443
19.7578
34.1211
50.4636
67.7163
86.2036
105.69
126.493
148.63
172.307
196.791
219.598
240.462
259.993
278.278
297.708
318.302
339.48
361.379
385.06
412.178
445.027
483.826
524.701
565.265
608.391
656.617
711.608
769.744
827.187
885.033
944.972
1010.1
1079.62
1150.84
1220.54
1288.12
1355.5
1424.98
1498.35
1576.73
1661.11
1752.7
1853.33
1964.94
2088.89
2225.5
2373.28
2528.7
2686.28
2838.92
2979.18
3102.15
3209.23
3308.15
3408
3518.08
3647.32
3789.99
3931.05
4118.2
4407.78
4791.48
5244.31
5795.66
6495.33
7341.13
8241.97
9111.8
9953.84
10716
11288.8
11615.3
11721.1
11679.8
11602
11406.4
11290.9
11304.2
5.00185
20.0899
34.6608
51.4124
69.0918
88.1043
108.149
129.582
152.415
176.93
202.237
225.378
246.244
265.612
283.877
303.443
324.188
345.572
367.733
391.774
419.452
453.138
492.664
533.863
574.6
618.037
666.735
722.334
780.951
838.823
897.369
958.107
1024.08
1094.52
1166.39
1236.32
1303.84
1371.2
1440.8
1514.43
1593.26
1678.26
1770.68
1872.44
1985.6
2111.69
2251.27
2403.09
2563.99
2728.91
2891.29
3044.3
3183.37
3309.67
3429.81
3551.59
3683.8
3835.09
3998.84
4161.8
4378.13
4701.82
5116.85
5597.82
6169.44
6879.31
7719.49
8600.95
9433.19
10212.3
10896.6
11391.3
11658.3
11738.9