/*--------------------------------*- C++ -*----------------------------------*\
| =========                 |                                                 |
| \\      /  F ield         | OpenFOAM: The Open Source CFD Toolbox           |
|  \\    /   O peration     | Version:  4.1                                   |
|   \\  /    A nd           | Web:      www.OpenFOAM.org                      |
|    \\/     M anipulation  |                                                 |
\*---------------------------------------------------------------------------*/
FoamFile
{
    version     2.0;
    format      ascii;
    class       surfaceScalarField;
    location    "22";
    object      phi;
}
// * * * * * * * * * * * * * * * * * * * * * * * * * * * * * * * * * * * * * //

dimensions      [0 3 -1 0 0 0 0];

internalField   nonuniform List<scalar> 
13220
(
-892.814
2192.79
-1384.12
1791.57
-1851.56
1767.39
-2207.28
1655.68
-2482.52
1575.49
-2678.89
1496.31
-2798.15
1419.2
-2840.22
1342.31
-2804.13
1263.85
-2687.09
1182.9
-2491.33
1104.46
-2216.05
1024.68
-1815.8
899.716
-1156.92
641.395
142.986
-15.5461
2208.43
-61.6002
1837.73
-194.06
1899.96
-289.063
1750.79
-385.602
1672.13
-460.599
1571.41
-515.426
1474.13
-547.145
1374.11
-560.064
1276.85
-562.525
1185.43
-560.085
1102.07
-554.385
1019.05
-512.049
857.463
-296.774
426.337
-153.768
-107.492
2315.97
-274.147
2004.44
-427.318
2053.18
-506.641
1830.16
-576.859
1742.42
-606.56
1601.16
-608.982
1476.62
-583.307
1348.51
-533.214
1226.83
-466.542
1118.9
-391.828
1027.49
-302.737
930.243
-198.466
753.723
-88.1963
317.325
-241.975
5.78627
2310.16
-28.3439
2038.55
-47.8809
2072.69
-36.5832
1818.85
-28.6756
1734.49
1.62252
1570.86
38.938
1439.3
89.3803
1298.06
162.832
1153.4
291.292
990.37
489.113
829.694
699.234
719.878
802.323
650.418
597.77
521.57
355.792
1.55627
2308.53
-46.0821
2086.1
-71.8847
2098.41
-101.472
1848.34
-141.36
1774.28
-176.148
1605.54
-224.326
1487.37
-273.588
1347.22
-298.56
1178.27
-235.714
927.404
-45.6099
639.397
202.633
471.454
363.446
489.344
281.43
603.32
637.216
9.8408
2298.6
-125.124
2220.97
-199.211
2172.4
-281.405
1930.43
-374.269
1867.04
-465.422
1696.59
-570.112
1591.96
-681.309
1458.31
-795.717
1292.57
-889.489
1021.05
-917.976
667.799
-806.409
359.669
-530.891
213.567
-217.421
289.492
419.79
113.515
2185.01
-8.14417
2342.56
-52.4599
2216.64
-92.4137
1970.3
-125.219
1899.77
-161.053
1732.34
-193.5
1624.32
-228.73
1493.47
-285.446
1349.22
-399.682
1135.17
-576.926
844.995
-739.723
522.163
-737.2
210.703
-477.956
29.8177
-58.1648
193.534
1991.46
155.465
2380.6
163.736
2208.34
185.213
1948.8
226.721
1858.24
260.72
1698.32
304.955
1580.08
349.295
1449.11
382.433
1316.06
360.217
1157.38
247.348
957.842
49.2616
720.353
-167.421
427.589
-200.078
62.7092
-258.248
179.665
1811.8
198.677
2361.59
225.562
2181.46
264.784
1909.58
320.215
1802.81
369.153
1649.38
423.854
1525.37
478.475
1394.49
530.175
1264.36
559.313
1128.21
542.475
974.685
463.289
799.39
311.272
579.417
72.1226
301.538
-186.116
115.677
1696.16
157.2
2320.1
184.606
2154.09
213.828
1880.38
256.993
1759.68
292.955
1613.45
329.022
1489.34
362.615
1360.92
391.337
1235.67
409.398
1110.21
406.828
977.283
372.427
833.955
294.008
658.049
156.112
440.051
-29.9986
58.4527
1637.76
121.463
2257.13
163.028
2112.58
197.492
1845.96
241.272
1715.96
278.98
1575.78
310.825
1457.54
335.25
1336.53
352.386
1218.57
360.121
1102.52
353.732
983.71
325.115
862.624
261.921
721.331
148.427
553.8
118.429
13.0858
1624.71
97.3523
2172.89
154.253
2055.72
196.745
1803.5
241.603
1671.14
284.824
1532.58
322.345
1420.06
353.603
1305.3
379.14
1193.06
396.281
1085.39
397.145
982.87
372.68
887.096
305.921
788.103
187.448
672.303
305.879
11.6857
1613.04
89.2614
2095.31
204.413
1940.58
295.204
1712.71
371.924
1594.43
457.469
1447.04
549.957
1327.57
645.666
1209.59
726.999
1111.73
773.378
1039.04
754.298
1001.94
654.868
986.617
481.284
961.772
255.308
898.406
561.184
99.4359
1513.6
21.538
2173.18
-61.8208
2023.93
-152.898
1803.75
-221.872
1663.38
-264.447
1489.58
-258.681
1321.78
-205.713
1156.58
-147.29
1053.28
-93.4893
985.176
-26.7504
935.173
29.7593
929.954
-16.3294
1007.68
-15.0756
896.915
546.105
294.061
822.522
1049.78
1106.3
1047.53
897.67
667.841
404.893
121.81
-119.462
-306.45
-379.178
-338.009
-192.646
-0.00382784
-64.3768
64.3672
-64.3812
-64.3864
-64.3909
-111.701
47.3043
-111.705
-111.711
-111.714
-171.538
59.8175
-171.542
-171.547
-222.216
50.6646
-222.222
-222.226
-222.232
-242.047
19.8107
-242.054
-242.058
-233.632
-8.43347
-233.635
-233.642
-233.646
-211.437
-22.2165
-211.441
-211.448
-211.452
-183.64
-27.8194
-183.645
-183.653
-159.81
-23.8474
-159.819
-159.822
-159.832
-119.092
-40.7441
-119.104
-119.107
-48.4456
-70.6728
-48.4491
-48.4601
-48.4638
36.8937
-85.3701
36.8906
36.8782
36.8757
173.566
-136.704
173.563
173.549
285.756
-112.209
285.742
285.74
285.725
311.549
-25.8259
311.533
311.531
311.512
248.793
62.7166
248.771
248.772
164.167
84.581
164.166
164.143
164.146
-37.0906
201.204
-37.0949
-37.1267
-769.118
732.002
-769.149
-769.143
-769.171
-1951.48
1182.33
-1951.51
-1951.5
-1951.53
-3611.11
1659.61
-3611.15
-3611.09
-5631.27
2020.15
-5631.22
-5631.23
-5578.99
-5515.16
-5451.44
-7732.36
2348.28
-7648.68
-7532.51
-7394.95
-7255.86
-7113.19
-6968.71
-6814.59
-6643.39
-9112.09
2643.59
-8924.66
-8735.91
-8545.36
-8358.58
-8171.13
-7982.74
-7794.37
-7604.88
-10284.4
2874.72
-10074.4
-9862.63
-9649.96
-9436.49
-9216.86
-8986.58
-8755.99
-8524.26
-8291.03
-11039.7
2975.12
-10791.3
-10540.9
-10289.6
-10038.4
-9787.75
-9526.83
-9258.66
-8987.03
-11621.8
2896.84
-11356.9
-11082.5
-10791.4
-10498.8
-10205.8
-9915.95
-9626.84
-9310.93
-11697.1
2694.99
-11392.4
-11087.8
-10785
-10467.3
-10143.4
-9821.74
-9499.3
-9174.13
-11242.5
2396.67
-10915.3
-10587.2
-10260
-9934.68
-9611.83
-9267.31
-8927.9
-8591
-8254.7
-9726.58
1808.84
-9412.26
-9097.18
-8788.91
-8483.9
-8176.94
-7896.85
-7674.6
-7444.02
-8518.47
1315.5
-8303.74
-8083.66
-8083.67
-9322.14
1238.48
-10101
778.839
-10101
-10704.2
603.227
-10704.2
-11116
411.724
-11051.2
-64.7536
-11051.2
-10827.6
-223.61
-10125.7
-701.892
-10125.7
-9235.59
-890.16
-9235.59
-8250.22
-985.382
-6928.58
-1321.65
-6928.58
-5272.27
-1656.32
-5272.27
-3398.07
-1874.21
-1506.15
-1891.93
-1506.16
740.252
-2246.42
3119.93
-2379.68
3119.92
5342.86
-2222.94
5342.86
7302.98
-1960.12
9083.67
-1780.69
9083.66
10535.6
-1451.91
10535.6
11666.8
-1131.27
12467.1
-800.213
12467.1
13053.8
-586.788
13354.8
-300.949
13354.8
13481.6
-126.793
13481.6
13420.1
61.4264
13020.8
399.324
13020.8
12544.2
476.597
12544.2
12103.3
440.924
11672.6
430.727
11672.6
11974.8
-302.276
14001.6
-2026.73
14001.6
16250.6
-2249.07
16250.6
17586.3
-1335.66
18123.1
-536.831
18123.1
17564
559.158
17564
15647.2
1916.79
12897.2
2749.96
12897.2
8647.87
4249.33
3697.03
4950.84
3697.03
-3602.6
7299.64
-3602.6
-16277.3
12674.7
-34828.7
18551.5
-34828.7
-58371.4
23542.7
-58371.4
-88064.2
29692.8
-121049
32985.2
-121049
-160898
39848.8
-202076
41177.6
-202076
-248717
46640.9
-248717
53843.7
-533.752
-2972.26
-558.438
-4054.99
-600.008
-4722.98
-635.722
-5390.23
-656.347
-6075.89
-659.581
-6765.35
-653.735
-7453.89
-648.284
-8106.07
-648.941
-8709.79
-656.004
-9263.36
-666.363
-9775.85
-677.643
-10264.9
-691.488
-10774
-712.672
-11345.3
-747.34
-11990.4
-803.215
-12665.3
-887.68
-13270
-999.061
-13751.5
-1122.04
-14168.3
-1236.26
-14573.3
-1332.59
-14964.6
-1419.67
-15390.5
-1512.72
-15942.5
-1620.36
-16670.5
-1742.45
-17564.1
-1875.9
-18582.4
-2017.01
-19669.7
-2161.17
-20745.8
-2312.2
-21763.3
-2481.18
-22734.3
-2676.08
-23629.8
-2902.27
-24439.6
-3162.38
-25189.8
-3455.06
-25899.2
-3775.68
-26590.7
-4118.15
-27304.2
-4476.84
-28090.5
-4848.64
-28998.3
-5232.13
-30070.8
-5626.09
-31327.6
-6030.38
-32761.2
-6446.66
-34345.9
-6877.33
-36048.1
-7322.87
-37828.6
-7779.27
-39640.6
-8236.34
-41438.2
-8677.27
-43187.8
-9080.12
-44855.5
-9419.35
-46327.7
-9655.05
-47159.8
-9693.43
-46070.9
-9368.46
-40743.5
-8643.08
-30012.4
-7925.09
-18621.8
-7629.94
-13956.9
-7590.81
-13921.2
-7553.88
-13112.4
-7542.07
-11294.5
-7617.2
-9501.59
-7776.46
-7742.3
-7993.96
-5907.6
-8230.99
-4045.42
-8453.61
-2187.7
-8662.43
-367.838
-8914.5
1423.15
-9277.81
3341.75
-9785.61
5575.95
-10470.4
8297.05
-11379.2
11726.4
-12573.6
16151.1
-14137.8
21991
-16189.1
29887.7
-18894.8
40833.4
-22501.4
56385.5
-27376.5
79062.3
-34052.2
112676
-43037.3
162461
-52981.3
230021
295310
-626.384
-2968.01
-654.963
-4026.41
-693.988
-4683.96
-719.114
-5365.11
-725.142
-6069.87
-716.432
-6774.06
-704.89
-7465.43
-698.688
-8112.28
-700.445
-8708.04
-708.805
-9255
-720.946
-9763.71
-735.074
-10250.8
-752.715
-10756.3
-778.245
-11319.7
-818.295
-11950.3
-882.095
-12601.5
-977.196
-13174.9
-1098.55
-13630.2
-1227.24
-14039.6
-1343.89
-14456.7
-1442.38
-14866.1
-1531.48
-15301.4
-1624.64
-15849.3
-1730.55
-16564.6
-1851.07
-17443.6
-1984.71
-18448.8
-2128.25
-19526.2
-2277.11
-20596.9
-2434.38
-21606
-2611.21
-22557.4
-2815.95
-23425
-3053.62
-24201.9
-3325.67
-24917.7
-3629.09
-25595.8
-3957.68
-26262.1
-4304.32
-26957.6
-4662.98
-27731.8
-5030.86
-28630.4
-5408.14
-29693.5
-5796.28
-30939.4
-6198.14
-32359.4
-6617.75
-33926.3
-7058.67
-35607.1
-7521.16
-37366.1
-7999.6
-39162.2
-8481.05
-40956.7
-8945.53
-42723.3
-9368.3
-44432.7
-9722.34
-45973.6
-9969.52
-46912.6
-10025.2
-46015.2
-9736.32
-41032.4
-9050.85
-30697.8
-8334.78
-19337.9
-8017.51
-14274.2
-7965.24
-13973.5
-7921.27
-13156.4
-7884.05
-11331.7
-7904.56
-9481.08
-7983.35
-7663.51
-8117.69
-5773.26
-8303.49
-3859.62
-8525.5
-1965.7
-8776.11
-117.223
-9083.63
1730.67
-9493.74
3751.86
-10042.4
6124.65
-10768.4
9023.01
-11720.9
12678.9
-12963.7
17393.9
-14583.4
23610.7
-16699.7
32004
-19482.2
43615.9
-23183.5
60086.8
-28210.6
84089.4
-35216.6
119681
-44615.7
171860
-53631.4
239037
288320
-681.273
-2963.08
-709.06
-3998.62
-740.433
-4652.58
-755.285
-5350.26
-753.156
-6071.99
-741.568
-6785.65
-731.181
-7475.81
-727.158
-8116.3
-730.211
-8704.98
-738.915
-9246.3
-751.243
-9751.38
-766.063
-10236
-785.135
-10737.3
-812.929
-11291.9
-856.609
-11906.7
-926.05
-12532.1
-1027.81
-13073.1
-1154.05
-13503.9
-1284.58
-13909.1
-1402.04
-14339.2
-1502.35
-14765.8
-1593.59
-15210.1
-1687.55
-15755.4
-1792.79
-16459.4
-1912.43
-17323.9
-2045.95
-18315.3
-2190.5
-19381.6
-2342.17
-20445.2
-2503.66
-21444.5
-2685.61
-22375.5
-2896.35
-23214.3
-3140.56
-23957.7
-3418.89
-24639.4
-3727.33
-25287.3
-4058.94
-25930.5
-4406.43
-26610.1
-4764.15
-27374.1
-5129.92
-28264.6
-5504.96
-29318.4
-5892.24
-30552.2
-6296.02
-31955.6
-6721.14
-33501.1
-7171.16
-35157.1
-7645.66
-36891.6
-8137.8
-38670
-8633.1
-40461.4
-9110.17
-42246.2
-9543.57
-43999.3
-9906.28
-45610.9
-10161.3
-46657.6
-10227.8
-45948.8
-9958.32
-41301.8
-9294.45
-31361.7
-8580.21
-20052.2
-8253.52
-14600.8
-8198.13
-14028.9
-8160.95
-13193.6
-8132.2
-11360.5
-8159.87
-9453.42
-8241.8
-7581.58
-8369.53
-5645.52
-8540.95
-3688.21
-8753.86
-1752.79
-9011.51
140.428
-9344.66
2063.82
-9790.87
4198.07
-10379.3
6713.04
-11149.4
9793.14
-12151.3
13680.8
-13450.6
18693.1
-15135.5
25295.7
-17326.4
34194.9
-20195
46484.5
-24018.1
63909.8
-29306.2
89377.5
-36865.8
127241
-46590.3
181585
-53242.8
245689
276255
-743.207
-2957.59
-769.026
-3972.8
-791.611
-4630
-796.489
-5345.38
-787.425
-6081.06
-773.704
-6799.37
-764.238
-7485.28
-761.794
-8118.74
-765.866
-8700.91
-774.971
-9237.2
-787.544
-9738.81
-802.99
-10220.6
-823.44
-10716.8
-853.692
-11261.7
-901.648
-11858.7
-977.792
-12455.9
-1087.26
-12963.6
-1219.07
-13372.1
-1351.85
-13776.3
-1470.33
-14220.7
-1572.33
-14663.8
-1665.34
-15117.1
-1759.79
-15660.9
-1864.25
-16354.9
-1983.05
-17205.1
-2116.7
-18181.6
-2262.71
-19235.6
-2417.77
-20290.2
-2584.26
-21278.1
-2772.33
-22187.4
-2990.22
-22996.4
-3242.07
-23705.9
-3527.66
-24353.8
-3841.87
-24973.1
-4176.92
-25595.5
-4525.37
-26261.7
-4882.07
-27017.4
-5245.64
-27901.1
-5618.59
-28945.5
-6005.51
-30165.3
-6412.14
-31548.9
-6844.12
-33069.2
-7304.98
-34696.3
-7793.56
-36403
-8301.73
-38161.9
-8813.47
-39949.7
-9306.07
-41753.6
-9753.48
-43551.9
-10129
-45235.4
-10397
-46389.6
-10479.7
-45866.1
-10232.1
-41549.4
-9584.87
-32008.9
-8862.52
-20774.5
-8520.86
-14942.5
-8464.64
-14085.1
-8434.32
-13223.9
-8407.12
-11387.7
-8430.8
-9429.74
-8508.79
-7503.58
-8635.47
-5518.84
-8808.65
-3515.02
-9027.09
-1534.35
-9297.93
411.27
-9654.34
2420.23
-10131.4
4675.14
-10756.5
7338.11
-11569.7
10606.4
-12621.9
14733
-13979.9
20051.1
-15732.1
27047.8
-17998.2
36461
-20961
49447.3
-24959.3
67908.1
-30644.8
95062.9
-38804.5
135401
-48408
191188
-52685.4
249967
263418
-801.753
-2952.43
-823.168
-3951.39
-835.321
-4617.84
-830.975
-5349.72
-817.224
-6094.81
-803.446
-6813.15
-795.96
-7492.76
-795.449
-8119.25
-800.682
-8695.68
-810.183
-9227.7
-822.718
-9726.27
-838.266
-10205
-859.555
-10695.5
-892.007
-11229.2
-944.425
-11806.3
-1027.64
-12372.7
-1144.7
-12846.6
-1281.27
-13235.5
-1415.52
-13642.1
-1534.71
-14101.5
-1638.29
-14560.2
-1732.95
-15022.5
-1827.9
-15566
-1931.74
-16251.1
-2049.91
-17087
-2183.79
-18047.7
-2331.34
-19088.1
-2489.91
-20131.6
-2661.66
-21106.3
-2856.14
-21992.9
-3081.23
-22771.3
-3340.44
-23446.7
-3632.65
-24061.6
-3951.75
-24654
-4289.31
-25257.9
-4637.98
-25913
-4993.38
-26662
-5355.18
-27539.3
-5727.19
-28573.5
-6115.49
-29777
-6526.95
-31137.5
-6967.6
-32628.5
-7440.59
-34223.3
-7943.81
-35899.8
-8467.83
-37637.8
-8995.34
-39422.2
-9502.8
-41246.2
-9964.2
-43090.5
-10353.6
-44846
-10636.6
-46106.6
-10737.7
-45765
-10512.5
-41774.6
-9879.94
-32641.5
-9145.14
-21509.3
-8783.49
-15304.2
-8726.35
-14142.3
-8707.06
-13243.2
-8687.79
-11406.9
-8713.95
-9403.57
-8792.5
-7425.04
-8920.56
-5390.78
-9097.54
-3338.04
-9324.04
-1307.86
-9611.01
698.242
-9991.42
2800.63
-10497.7
5181.41
-11158.1
7998.54
-12013.8
11462
-13116.2
15835.4
-14532.2
21467.1
-16348.6
28864.3
-18688.5
38801
-21766.4
52525.1
-26021.7
72163.4
-32221.3
101263
-40883.6
144063
-49825
200130
-51048.1
251190
245355
-857.986
-2948.97
-872.833
-3936.54
-874.299
-4616.38
-862.556
-5361.47
-846.414
-6110.95
-833.835
-6825.73
-828.488
-7498.11
-829.759
-8117.98
-836.16
-8689.28
-846.097
-9217.76
-858.453
-9713.92
-873.767
-10189.7
-895.536
-10673.8
-930.084
-11194.7
-987.276
-11749.1
-1078
-12282
-1202.57
-12722
-1343.34
-13094.8
-1478.64
-13506.8
-1598.44
-13981.7
-1703.48
-14455.1
-1799.59
-14926.3
-1894.94
-15470.6
-1998.27
-16147.8
-2115.96
-16969.3
-2250.26
-17913.4
-2399.57
-18938.8
-2561.86
-19969.3
-2739.25
-20928.9
-2940.55
-21791.6
-3173.09
-22538.7
-3439.63
-23180.1
-3738.12
-23763.1
-4061.6
-24330.6
-4401.14
-24918.4
-4749.68
-25564.4
-5103.86
-26307.8
-5464.52
-27178.6
-5836.82
-28201.2
-6228.1
-29385.7
-6646.1
-30719.5
-7096.95
-32177.7
-7583.18
-33737
-8101.6
-35381.4
-8641.56
-37097.9
-9184.72
-38879
-9707.15
-40723.8
-10183.3
-42614.4
-10588.3
-44441
-10889.2
-45805.7
-11011.8
-45642.5
-10810.7
-41975.6
-10191.1
-33261.1
-9438.42
-22262
-9050.19
-15692.4
-8990.58
-14201.9
-8983.9
-13249.8
-8974.78
-11416
-9005.8
-9372.56
-9087.4
-7343.43
-9219.4
-5258.78
-9402.79
-3154.65
-9639.86
-1070.79
-9944.52
1002.91
-10348.8
3204.87
-10883.5
5716.12
-11578.6
8693.68
-12476
12359.4
-13627
16986.4
-15097.2
22937.2
-16972.9
30740
-19391.2
41219.3
-22626.2
55760.1
-27234.5
76771.8
-33999.5
108028
-42910.9
152975
-50620.1
207839
-48788.3
249358
226260
-910.437
-2948.65
-917.063
-3929.92
-908.604
-4624.84
-891.657
-5378.41
-875.014
-6127.59
-864.318
-6836.42
-861.062
-7501.37
-864.072
-8114.97
-871.748
-8681.6
-882.153
-9207.35
-894.165
-9701.91
-908.935
-10174.9
-930.888
-10651.8
-967.505
-11158.1
-1029.82
-11686.8
-1128.4
-12183.4
-1260.28
-12590.1
-1404.58
-12950.5
-1540.46
-13370.9
-1660.77
-13861.4
-1767.15
-14348.8
-1864.53
-14829
-1960.24
-15374.9
-2063.14
-16044.9
-2180.52
-16851.9
-2315.42
-17778.5
-2466.75
-18787.4
-2633
-19803.1
-2816.35
-20745.6
-3024.85
-21583.1
-3265.03
-22298.6
-3538.75
-22906.4
-3843.07
-23458.8
-4170.31
-24003.3
-4511.3
-24577.4
-4859.48
-25216.3
-5212.66
-25954.6
-5572.99
-26818.3
-5946.91
-27827.2
-6342.85
-28989.7
-6769.09
-30293.2
-7231.57
-31715.2
-7731.94
-33236.7
-8265.87
-34847.5
-8821.58
-36542.2
-9380.01
-38320.6
-9917.28
-40186.5
-10408.7
-42123
-10830.7
-44018.9
-11151.7
-45484.7
-11298.5
-45495.7
-11123.8
-42150.3
-10518.1
-33866.8
-9744.63
-23035.5
-9322.54
-16114.5
-9256.21
-14268.2
-9262.72
-13243.3
-9266.53
-11412.2
-9305.41
-9333.68
-9392.48
-7256.36
-9530.4
-5120.87
-9722.23
-2962.81
-9971.61
-821.417
-10294.8
1326.06
-10723
3633.06
-11286.1
6279.25
-12015.6
9423.22
-12953.4
13297.2
-14150
18183
-15669.2
24456.5
-17602.6
32673.5
-20118.9
43735.5
-23575.5
59216.7
-28625.9
81822.2
-35924.1
115326
-44755.5
161806
-50797.6
213881
-45806.2
244367
203996
-958.407
-2952.94
-955.899
-3932.42
-939.225
-4641.51
-919.358
-5398.28
-903.602
-6143.35
-895.027
-6845
-893.727
-7502.67
-898.493
-8110.21
-907.524
-8672.57
-918.335
-9196.54
-929.795
-9690.45
-943.739
-10161
-965.664
-10629.9
-1004.43
-11119.3
-1072.29
-11618.9
-1179.04
-12076.7
-1317.91
-12451.3
-1465.05
-12803.3
-1601.15
-13234.8
-1721.91
-13740.7
-1829.5
-14241.2
-1927.96
-14730.5
-2023.94
-15279
-2126.49
-15942.3
-2243.73
-16734.7
-2379.48
-17642.8
-2533.13
-18633.8
-2703.6
-19632.6
-2893.21
-20556
-3109.25
-21367.1
-3357.2
-22050.6
-3637.93
-22625.7
-3947.62
-23149.1
-4278.07
-23672.9
-4620.08
-24235.4
-4967.82
-24868.5
-5320.42
-25602
-5681.42
-26457.3
-6058.41
-27450.3
-6460.66
-28587.5
-6896.73
-29857.2
-7372.05
-31239.9
-7887.25
-32721.5
-8436.78
-34297.9
-9007.9
-35971
-9581.16
-37747.3
-10133.1
-39634.5
-10640.4
-41615.7
-11080.9
-43578.4
-11424.2
-45141.5
-11598
-45321.9
-11452.6
-42295.6
-10863
-34456.4
-10067.2
-23831.4
-9603.52
-16578.1
-9524.27
-14347.5
-9542.89
-13224.7
-9561.55
-11393.6
-9611.4
-9283.83
-9707.17
-7160.6
-9853.63
-4974.4
-10055.6
-2760.81
-10317.9
-559.121
-10659.5
1667.68
-11111.7
4085.23
-11703.2
6870.71
-12466.2
10186.3
-13441.9
14272.9
-14679.6
19420.6
-16244.3
26021.1
-18242.9
34672.1
-20895.4
46388
-24651.5
62972.7
-30201.2
87371.9
-37912.6
123037
-46289.8
170183
-50307.7
217899
-42291.9
236351
180256
-1001.44
-2963.04
-989.715
-3944.15
-967.154
-4664.07
-946.38
-5419.06
-932.325
-6157.4
-925.834
-6851.49
-926.426
-7502.07
-933.046
-8103.59
-943.444
-8662.17
-954.488
-9185.5
-965.124
-9679.81
-977.975
-10148.1
-999.74
-10608.1
-1040.86
-11078.2
-1114.76
-11545
-1229.93
-11961.5
-1375.37
-12305.8
-1524.68
-12654
-1660.69
-13098.8
-1781.85
-13619.5
-1890.53
-14132.5
-1989.87
-14631.2
-2086.06
-15182.8
-2188.33
-15840
-2305.59
-16617.4
-2442.46
-17505.9
-2598.8
-18477.4
-2773.79
-19457.6
-2969.91
-20359.8
-3193.73
-21143.3
-3449.55
-21794.8
-3737.09
-22338.1
-4051.66
-22834.5
-4384.77
-23339.8
-4727.49
-23892.7
-5074.88
-24521.1
-5427.52
-25249.4
-5790.3
-26094.5
-6171.84
-27068.7
-6582.02
-28177.3
-7029.33
-29409.9
-7518.5
-30750.7
-8048.96
-32191
-8613.96
-33732.9
-9200
-35385
-9787.6
-37159.7
-10354.2
-39067.9
-10877.8
-41092.1
-11338
-43118.2
-11705.7
-44773.8
-11909.2
-45118.4
-11796.5
-42408.3
-11226.9
-35026
-10409.4
-24648.9
-9897.05
-17090.5
-9796.67
-14447.8
-9824.47
-13196.9
-9858.96
-11359.1
-9922.49
-9220.3
-10030.1
-7052.97
-10187.6
-4816.9
-10401.2
-2547.23
-10676.7
-283.594
-11036.7
2027.61
-11512.6
4561.16
-12131.6
7489.67
-12926.1
10980.8
-13936.2
15283
-15211
20695.5
-16822.8
27632.9
-18907.3
36756.7
-21751.1
49231.8
-25881.7
67103.4
-31935.6
93425.7
-39863.4
130965
-47419.6
177739
-49203.9
219683
-38348.2
225495
154582
-1039.58
-2979.79
-1019.29
-3964.45
-993.373
-4689.98
-973.211
-5439.22
-961.195
-6169.42
-956.685
-6856
-959.243
-7499.52
-967.84
-8094.99
-979.505
-8650.5
-990.498
-9174.51
-999.985
-9670.32
-1011.48
-10136.6
-1033.03
-10586.6
-1076.84
-11034.4
-1157.35
-11464.5
-1281.14
-11837.7
-1432.62
-12154.3
-1583.45
-12503.2
-1719.12
-12963.1
-1840.66
-13498
-1950.31
-14022.8
-2050.34
-14531.1
-2146.66
-15086.4
-2248.72
-15738
-2366.18
-16499.9
-2504.47
-17367.6
-2663.88
-18318
-2843.73
-19277.8
-3046.57
-20157
-3278.31
-20911.5
-3542.03
-21531.1
-3836.12
-22044
-4155.11
-22515.5
-4490.4
-23004.5
-4833.63
-23549.4
-5180.94
-24173.8
-5534.37
-24896
-5900.14
-25728.7
-6287.74
-26681.1
-6707.37
-27757.7
-7167.18
-28950
-7670.96
-30246.9
-8216.85
-31645.1
-8796.99
-33152.8
-9397.34
-34784.7
-9998.76
-36558.3
-10579.9
-38486.8
-11120.4
-40551.5
-11601.6
-42637
-11995.5
-44379.9
-12231.3
-44882.6
-12155.1
-42484.4
-11610.6
-35570.4
-10774.6
-25485
-10207.4
-17657.7
-10076.2
-14579.1
-10108.2
-13164.8
-10158.1
-11309.2
-10237.1
-9141.33
-10359.2
-6930.84
-10530
-4646.13
-10756.3
-2320.85
-11045.2
5.31069
-11423.2
2405.53
-11922.2
5060.22
-12567.1
8134.55
-13390.3
11804
-14431.2
16324
-15742.5
22006.7
-17411.8
29302.3
-19617.6
38962.5
-22716.9
52331
-27276.6
71663.1
-33777.9
99927
-41674.2
138861
-48090.2
184155
-47553.7
219147
-34179.8
212121
127702
-1073.27
-3003.51
-1045.61
-3992.11
-1018.69
-4716.91
-1000.08
-5457.83
-990.136
-6179.37
-987.58
-6858.56
-992.307
-7494.79
-1002.96
-8084.34
-1015.67
-8637.79
-1026.24
-9163.94
-1034.22
-9662.35
-1044.1
-10126.8
-1065.47
-10565.2
-1112.44
-10987.4
-1200.2
-11376.7
-1332.71
-11705.2
-1489.61
-11997.4
-1641.34
-12351.5
-1776.51
-12828
-1898.39
-13376.1
-2008.88
-13912.4
-2109.44
-14430.6
-2205.83
-14990.1
-2307.75
-15636
-2425.59
-16382.1
-2565.6
-17227.6
-2728.49
-18155.1
-2913.56
-19092.7
-3123.31
-19947.3
-3363
-20671.8
-3634.53
-21259.6
-3934.93
-21743.6
-4257.89
-22192.6
-4594.96
-22667.4
-4938.64
-23205.7
-5286.27
-23826.2
-5641.39
-24540.8
-6011.44
-25358.7
-6406.57
-26286
-6837.04
-27327.2
-7310.4
-28476.7
-7829.3
-29728
-8390.54
-31083.9
-8985.29
-32558.1
-9599.25
-34170.7
-10214
-35943.6
-10809.5
-37891.2
-11367.6
-39993.5
-11870.9
-42133.6
-12292.8
-43958
-12563.4
-44612
-12527.5
-42520.3
-12014.5
-36083.4
-11165.5
-26334
-10539.3
-18283.9
-10366.6
-14751.8
-10395.8
-13135.6
-10458.7
-11246.4
-10553.2
-9046.84
-10691.2
-6792.84
-10876.7
-4460.65
-11116.4
-2081.07
-11419.2
308.019
-11815.1
2801.51
-12336.2
5581.31
-13004.9
8803.26
-13854.1
12653.2
-14924.6
17394.4
-16277.6
23359.7
-18026.5
31051.2
-20401
41337
-23818.1
55748.1
-28826.6
76671.6
-35659.7
106760
-43252.4
146454
-48254.5
189157
-45348.6
216241
-30029
196802
102624
-1103.21
-3034
-1069.76
-4025.56
-1043.67
-4743.01
-1027.02
-5474.47
-1019.06
-6187.32
-1018.59
-6859.03
-1025.75
-7487.62
-1038.46
-8071.62
-1051.89
-8624.37
-1061.6
-9154.22
-1067.69
-9656.26
-1075.74
-10118.7
-1097.06
-10543.9
-1147.77
-10936.7
-1243.47
-11281
-1384.67
-11564
-1546.28
-11835.8
-1698.34
-12199.4
-1832.89
-12693.4
-1955.13
-13253.9
-2066.33
-13801.2
-2167.27
-14329.6
-2263.67
-14893.7
-2365.55
-15534.2
-2483.95
-16263.7
-2625.99
-17085.6
-2792.76
-17988.4
-2983.44
-18902
-3200.25
-19730.4
-3447.85
-20424.2
-3726.98
-20980.4
-4033.38
-21437.2
-4359.92
-21866
-4698.48
-22328.8
-5042.65
-22861.6
-5391.17
-23477.7
-5748.98
-24183
-6124.64
-24983
-6528.72
-25881.9
-6971.28
-26884.6
-7459.01
-27989
-7993.25
-29193.8
-8569.53
-30507.6
-9178.18
-31949.4
-9804.97
-33543.9
-10432.5
-35316.1
-11042.5
-37281.2
-11618.6
-39417.4
-12145.2
-41607
-12596.7
-43506.5
-12904.4
-44304.4
-12912.8
-42511.8
-12438.5
-36557.8
-11584.3
-27188.1
-10897.6
-18970.6
-10672.3
-14977.1
-10689.7
-13118.2
-10761.1
-11175
-10869.2
-8938.7
-11022.7
-6639.4
-11222.8
-4260.53
-11475.8
-1828.03
-11793.6
625.83
-12208.5
3216.35
-12750.2
6123.03
-13441
9494.02
-14315
13527.2
-15418.1
18497.5
-16826.6
24768.3
-18688.1
32912.6
-21284.8
43933.7
-25068.1
59531.4
-30502.1
82105.6
-37503.6
113762
-44515.5
153466
-47876.2
192518
-42631.3
210996
-25948.8
180119
80924.5
-1130.23
-3070.4
-1092.78
-4063.01
-1068.63
-4767.16
-1053.92
-5489.18
-1047.94
-6193.3
-1049.83
-6857.14
-1059.69
-7477.76
-1074.34
-8056.98
-1088.06
-8610.65
-1096.46
-9145.82
-1100.3
-9652.42
-1106.37
-10112.6
-1127.86
-10522.4
-1183.01
-10881.6
-1287.32
-11176.7
-1437.06
-11414.3
-1602.55
-11670.3
-1754.43
-12047.5
-1888.34
-12559.5
-2010.91
-13131.3
-2122.71
-13689.4
-2223.92
-14228.4
-2320.32
-14797.3
-2422.25
-15432.2
-2541.42
-16144.5
-2685.76
-16941.2
-2856.79
-17817.3
-3053.46
-18705.3
-3277.54
-19506.4
-3532.91
-20168.9
-3819.35
-20694
-4131.38
-21125.2
-4461.17
-21536.3
-4801.01
-21989
-5145.86
-22516.7
-5495.94
-23127.6
-5857.53
-23821.4
-6240.13
-24600.4
-6654.5
-25467.6
-7110.22
-26428.9
-7612.88
-27486.3
-8162.44
-28644.2
-8753.19
-29916.9
-9374.9
-31327.7
-10013.7
-32905.1
-10653.5
-34676.3
-11278
-36656.7
-11872.7
-38822.8
-12423.6
-41056.1
-12906.2
-43023.9
-13253.1
-43957.5
-13309.8
-42455.1
-12881.7
-36986
-12032.6
-28037.2
-11287.1
-19716.1
-10998.8
-15265.3
-10993.3
-13123.8
-11066.8
-11101.5
-11184.6
-8820.83
-11351.3
-6472.72
-11565.1
-4046.72
-11831.6
-1561.51
-12165.9
960.085
-12599.8
3650.21
-13161
6684.25
-13873.4
10206.4
-14774.5
14428.3
-15919.3
19642.3
-17406.2
26255.2
-19421.5
34927.9
-22291.8
46804
-26465
63704.6
-32256.4
87897
-39228.7
120734
-45395.3
159632
-46955.5
194078
-39538.5
203579
-21981.9
162563
61692.6
-1155.16
-3111.25
-1115.55
-4102.62
-1093.7
-4789.01
-1080.67
-5502.21
-1076.77
-6197.21
-1081.41
-6852.5
-1094.16
-7465.01
-1110.53
-8040.61
-1124.1
-8597.08
-1130.72
-9139.2
-1131.96
-9651.18
-1135.97
-10108.6
-1158.01
-10500.3
-1218.39
-10821.2
-1331.93
-11063.2
-1489.88
-11256.3
-1658.34
-11501.9
-1809.61
-11896.3
-1942.9
-12426.2
-2065.8
-13008.4
-2178.09
-13577.1
-2279.49
-14127
-2375.89
-14700.8
-2478.01
-15330.1
-2598.17
-16024.4
-2745.08
-16794.3
-2920.72
-17641.7
-3123.74
-18502.3
-3355.27
-19274.8
-3618.3
-19905.8
-3911.65
-20400.6
-4228.89
-20808
-4561.6
-21203.5
-4902.63
-21648
-5248.48
-22170.9
-5600.9
-22775.2
-5967.42
-23454.9
-6358.27
-24209.6
-6784.16
-25041.7
-7253.92
-25959.1
-7771.82
-26968.4
-8336.39
-28079.6
-8940.85
-29312.4
-9574.65
-30693.9
-10224.7
-32255.1
-10876.3
-34024.7
-11515.3
-36017.7
-12129.1
-38209
-12705.2
-40480
-13220.2
-42508.9
-13608.3
-43569.4
-13717
-42346.4
-13343
-37360
-12510.9
-28869.3
-11711.9
-20515.1
-11352
-15625.2
-11311.5
-13164.3
-11378.8
-11034.2
-11501.1
-8698.57
-11677.7
-6296.05
-11904.1
-3820.36
-12184.2
-1281.35
-12535
1310.85
-12987.4
4102.55
-13568.1
7265.01
-14304.2
10942.5
-15239
15363
-16441.7
20845
-18037.5
27851.1
-20250.9
37141.3
-23435.2
49988.2
-27990.5
68260
-34030.3
93936.8
-40756.8
127460
-45844
164720
-45523.1
193758
-36173.1
194229
-18217.5
144607
45391.8
-1178.86
-3154.68
-1138.79
-4142.69
-1118.9
-4808.91
-1107.2
-5513.91
-1105.63
-6198.78
-1113.44
-6844.69
-1129.16
-7449.29
-1146.95
-8022.82
-1159.89
-8584.14
-1164.26
-9134.82
-1162.64
-9652.81
-1164.63
-10106.6
-1187.71
-10477.3
-1254.18
-10754.7
-1377.46
-10939.9
-1543.06
-11090.7
-1713.54
-11331.4
-1863.83
-11746
-1996.59
-12293.4
-2119.82
-12885.1
-2232.52
-13464.4
-2334.05
-14025.5
-2430.5
-14604.4
-2532.97
-15227.7
-2654.35
-15903
-2804.13
-16644.6
-2984.7
-17461.1
-3194.41
-18292.6
-3433.56
-19035.7
-3704.1
-19635.3
-4003.95
-20100.8
-4325.92
-20486
-4661.24
-20868.2
-5003.48
-21305.7
-5350.73
-21823.6
-5706.38
-22419.5
-6079.01
-23082.3
-6479.39
-23809.2
-6917.88
-24603.2
-7402.31
-25474.7
-7935.5
-26435.2
-8514.53
-27500.6
-9131.72
-28695.2
-9776.57
-30049
-10436.9
-31594.7
-11100
-33361.6
-11753.6
-35364.2
-12386.9
-37575.7
-12989
-39877.9
-13537.5
-41960.4
-13968.6
-43138.2
-14132.8
-42182.2
-13820.6
-37672.2
-13018.9
-29671
-12175.8
-21358.2
-11738.5
-16062.5
-11650.8
-13252
-11702.7
-10982.3
-11823.1
-8578.12
-12005.8
-6113.37
-12242.7
-3583.45
-12535.4
-988.693
-12901.8
1677.32
-13372.7
4573.43
-13974.9
7867.16
-14740
11707.6
-15720.2
16343.3
-17003.3
22128.1
-18743.4
29591.2
-21196.2
39594
-24716.1
53508.1
-29611.3
73155.2
-35757.2
100083
-42018
133721
-45836.7
168538
-43638
191559
-32660
183251
-14668.1
126615
31282.8
-1202.15
-3198.74
-1162.88
-4181.96
-1144.18
-4827.6
-1133.55
-5524.53
-1134.63
-6197.7
-1145.95
-6833.36
-1164.64
-7430.6
-1183.5
-8003.95
-1195.32
-8572.33
-1197.03
-9133.12
-1192.32
-9657.51
-1192.45
-10106.5
-1217.22
-10452.5
-1290.7
-10681.2
-1424.05
-10806.6
-1596.54
-10918.2
-1768.02
-11159.9
-1917.07
-11596.9
-2049.43
-12161.1
-2172.98
-12761.6
-2285.99
-13351.3
-2387.64
-13923.9
-2484.23
-14507.8
-2587.25
-15124.6
-2710.15
-15780.1
-2863.07
-16491.6
-3048.89
-17275.3
-3265.59
-18075.9
-3512.47
-18788.8
-3790.36
-19357.4
-4096.31
-19794.8
-4422.53
-20159.8
-4760.17
-20530.6
-5103.7
-20962.2
-5452.89
-21474.4
-5812.71
-22059.7
-6192.65
-22702.4
-6603.73
-23398.1
-7055.75
-24151.2
-7555.27
-24975.2
-8103.52
-25887
-8696.19
-26907.9
-9325.01
-28066.4
-9979.79
-29394.3
-10649.7
-30924.8
-11323.8
-32687.5
-11992
-34696
-12645.3
-36922.3
-13274.1
-39249.2
-13857.1
-41377.4
-14332.7
-42662.7
-14555.3
-41959.6
-14312.4
-37915.1
-13555.3
-30428.1
-12681.3
-22232.2
-12165
-16578.7
-12019
-13398.1
-12045.8
-10955.5
-12157.8
-8466.09
-12341.7
-5929.52
-12585.9
-3339.25
-12888.9
-685.638
-13270.4
2058.76
-13761.1
5064.16
-14388.8
8494.92
-15191.8
12510.6
-16234.3
17385.8
-17625
23518.7
-19545.2
31511.4
-22269
42317.8
-26122
57361.1
-31281.4
78314.6
-37368.3
106170
-42955.5
139308
-45371.7
170955
-41374.2
187561
-29102.8
170980
-11385.1
108898
19360.9
-1225.57
-3241.79
-1187.81
-4219.72
-1169.48
-4845.94
-1159.88
-5534.13
-1163.88
-6193.7
-1178.93
-6818.31
-1200.47
-7409.07
-1220.03
-7984.39
-1230.27
-8562.09
-1228.95
-9134.44
-1221.06
-9665.39
-1219.62
-10107.9
-1246.88
-10425.2
-1328.28
-10599.8
-1471.79
-10663
-1650.15
-10739.9
-1821.63
-10988.4
-1969.26
-11449.3
-2101.41
-12028.9
-2225.27
-12637.7
-2338.52
-13238.1
-2440.28
-13822.1
-2537.12
-14411
-2640.95
-15020.8
-2765.7
-15655.3
-2922.08
-16335.3
-3113.41
-17084
-3337.35
-17852
-3592.03
-18534.1
-3877.1
-19072.4
-4188.75
-19483.2
-4518.75
-19829.8
-4858.49
-20190.8
-5203.48
-20617.2
-5555.23
-21122.7
-5920.22
-21694.7
-6308.65
-22313.9
-6731.52
-22975.2
-7197.8
-23684.9
-7712.57
-24460.4
-8275.37
-25324.2
-8880.67
-26302.7
-9519.85
-27427.2
-10183.4
-28730.7
-10862.1
-30246.1
-11546.8
-32002.7
-12229.6
-34013.2
-12903.3
-36248.7
-13559.3
-38593.2
-14177.5
-40759.1
-14698.9
-42141.3
-14982.6
-41675.9
-14815.6
-38082.1
-14117.6
-31126.1
-13229.5
-23120.3
-12637.8
-17170.5
-12424.6
-13611.3
-12416.9
-10963.2
-12513.5
-8369.45
-12693
-5750.04
-12940.5
-3091.72
-13251.7
-374.443
-13648.1
2455.14
-14161.6
5577.63
-14821.6