/*--------------------------------*- C++ -*----------------------------------*\
| =========                 |                                                 |
| \\      /  F ield         | OpenFOAM: The Open Source CFD Toolbox           |
|  \\    /   O peration     | Version:  4.1                                   |
|   \\  /    A nd           | Web:      www.OpenFOAM.org                      |
|    \\/     M anipulation  |                                                 |
\*---------------------------------------------------------------------------*/
FoamFile
{
    version     2.0;
    format      ascii;
    class       volVectorField;
    location    "22";
    object      U;
}
// * * * * * * * * * * * * * * * * * * * * * * * * * * * * * * * * * * * * * //

dimensions      [0 1 -1 0 0 0 0];

internalField   nonuniform List<vector> 
6785
(
(2.25251e-13 -0.834206 16.1417)
(2.18935e-13 -6.69327 12.5164)
(-5.22519e-14 -4.77759 12.9092)
(9.70107e-14 -4.28369 12.6547)
(2.88759e-14 -3.66041 12.483)
(-4.48754e-15 -3.18468 12.2537)
(7.37044e-14 -2.78897 11.9911)
(1.90353e-14 -2.48885 11.681)
(-1.56198e-14 -2.28849 11.3249)
(5.81514e-14 -2.17279 10.9513)
(1.08233e-14 -2.13953 10.5958)
(-3.07001e-14 -2.36608 10.1745)
(6.54279e-14 -2.86586 9.58166)
(-1.16436e-14 -2.20482 9.08079)
(-1.35724e-13 0.776272 7.21932)
(5.48105e-13 -7.68486 26.2503)
(3.04588e-13 -16.6096 21.8994)
(-3.18742e-14 -11.5379 22.3821)
(3.01145e-13 -11.9252 20.914)
(2.51899e-14 -10.917 19.9335)
(8.6226e-14 -10.2331 18.8754)
(3.22313e-13 -9.52357 17.8248)
(3.51532e-14 -8.84413 16.7611)
(1.46274e-13 -8.19272 15.6745)
(3.47887e-13 -7.55565 14.5666)
(4.67001e-15 -6.89289 13.4972)
(1.74607e-13 -6.26769 12.4575)
(3.68234e-13 -5.5504 10.724)
(-1.63956e-13 -3.34156 6.4253)
(-2.09765e-13 0.657639 -1.12448)
(2.23575e-13 -10.2941 27.8355)
(3.55356e-13 -17.6456 24.0304)
(-8.07473e-14 -11.731 24.5521)
(-7.44516e-14 -12.8319 22.2668)
(-9.41767e-15 -11.2143 21.1625)
(-1.19582e-14 -10.5207 19.6671)
(-1.66719e-13 -9.6328 18.2682)
(-1.08783e-14 -8.85272 16.8585)
(1.42436e-14 -8.14653 15.5305)
(-1.54717e-13 -7.55932 14.3273)
(1.64547e-13 -7.04219 13.2312)
(4.07982e-14 -6.42653 12.0292)
(-2.95313e-13 -5.07275 9.59404)
(-3.33559e-14 -1.67117 3.22512)
(-5.25181e-13 -0.14342 -4.17381)
(3.96792e-13 -11.2458 26.7162)
(8.40267e-14 -17.1626 23.4174)
(1.15411e-13 -11.5451 23.853)
(-9.40316e-14 -13.2243 20.985)
(-2.18048e-13 -11.1702 19.9779)
(1.4277e-13 -10.7108 18.1698)
(-2.17102e-13 -9.73327 16.6466)
(-3.15194e-13 -8.94886 15.0622)
(3.99672e-13 -8.20017 13.5827)
(-2.00586e-13 -7.62732 12.2943)
(-3.8081e-13 -7.25233 11.2456)
(4.30964e-13 -6.92656 10.18)
(7.30347e-14 -6.2265 8.63992)
(-1.06736e-12 -4.54699 5.68169)
(-8.90552e-13 -3.44414 2.3681)
(2.96706e-13 -11.9803 26.5205)
(-3.11285e-13 -16.7023 23.5443)
(-3.64397e-14 -11.6853 23.8918)
(-2.568e-13 -13.3301 20.9347)
(-5.91052e-13 -10.9502 20.0319)
(-1.43617e-13 -10.5824 18.0966)
(-4.40362e-13 -9.37739 16.6376)
(-6.39331e-13 -8.46529 15.0115)
(-1.37787e-13 -7.30982 13.1908)
(-9.43734e-13 -5.93195 10.7965)
(-1.615e-12 -4.68841 8.30594)
(-1.03528e-12 -4.55418 7.23205)
(-1.1623e-12 -5.18241 7.50281)
(-2.52398e-12 -5.29562 7.47851)
(-1.68941e-12 -5.03498 7.03626)
(4.29959e-13 -12.6 26.8311)
(-2.58659e-13 -16.8512 24.7052)
(1.04464e-13 -12.0385 24.6341)
(-3.44254e-13 -13.5737 21.8133)
(-4.75566e-13 -10.983 21.0164)
(1.42198e-13 -10.7625 19.0511)
(-4.18826e-13 -9.38131 17.7669)
(-4.44392e-13 -8.48957 16.1512)
(-1.90469e-13 -7.02377 14.0549)
(-1.21986e-12 -4.87684 10.6217)
(-1.19105e-12 -2.31868 6.40674)
(3.86983e-13 -0.641674 3.48669)
(1.42869e-12 -0.886041 3.54627)
(1.03531e-12 -2.82604 6.15447)
(1.76408e-13 -3.51769 7.15082)
(7.65273e-13 -12.6474 26.1015)
(2.01964e-14 -17.5414 26.4102)
(3.34514e-13 -12.6677 25.3433)
(-2.90143e-13 -14.1353 22.5446)
(-2.5194e-13 -11.5458 21.8301)
(4.45365e-13 -11.551 19.8257)
(-3.48122e-13 -10.1781 18.6428)
(-1.9854e-13 -9.48442 17.1018)
(2.24294e-13 -8.26752 15.3085)
(-9.42009e-13 -6.43901 12.3698)
(-6.04771e-13 -3.82822 8.28597)
(6.0975e-13 -0.935402 3.92042)
(-1.51e-13 1.79529 0.229832)
(-1.25788e-12 2.20563 -1.00007)
(-5.06581e-13 0.146971 0.70446)
(5.23056e-13 -12.102 24.0764)
(1.10333e-13 -17.7903 27.4067)
(2.8787e-13 -13.4582 25.5474)
(-1.91384e-13 -14.2343 22.6396)
(-2.95449e-13 -12.1587 21.7122)
(3.15212e-13 -11.983 19.8241)
(-1.24656e-13 -10.8888 18.5105)
(-2.64363e-13 -10.2158 17.0151)
(1.3196e-13 -9.35349 15.4645)
(-2.3596e-13 -8.2071 13.4524)
(-3.60189e-13 -6.5916 10.7991)
(6.64231e-16 -4.46888 7.58943)
(-7.63275e-14 -1.71095 3.76684)
(-2.0538e-12 1.83208 -0.627883)
(-5.56754e-12 0.952763 -3.33667)
(4.46547e-13 -11.3632 21.7743)
(1.80501e-13 -17.4416 27.4467)
(9.88202e-15 -13.8328 25.3427)
(-8.10589e-14 -13.9111 22.2528)
(-2.55156e-13 -12.1776 21.0995)
(-1.9343e-13 -11.8035 19.3059)
(-3.63444e-14 -10.8356 17.8919)
(-1.80418e-13 -10.0983 16.3822)
(-2.60122e-13 -9.3187 14.8793)
(-1.33632e-14 -8.42971 13.2431)
(-3.82489e-14 -7.36404 11.3289)
(-6.60468e-13 -5.97583 9.09707)
(-2.36444e-13 -4.26668 6.28213)
(-1.92885e-13 -1.63863 2.8401)
(-3.33536e-12 0.0448364 -2.24745)
(1.23192e-13 -10.7761 20.0487)
(1.61438e-13 -16.8308 27.047)
(-1.15381e-13 -13.8696 25.0174)
(-3.59581e-13 -13.4858 21.8412)
(-2.96911e-13 -11.898 20.5224)
(-2.81531e-13 -11.4076 18.7937)
(-3.3132e-13 -10.4668 17.3539)
(-1.97209e-13 -9.6794 15.8418)
(-4.08486e-13 -8.88404 14.3597)
(-5.37138e-13 -8.0453 12.8651)
(-1.12421e-13 -7.15416 11.2477)
(-7.27218e-13 -6.05655 9.46329)
(-1.07138e-12 -4.80342 7.24245)
(1.09641e-14 -2.7993 4.41948)
(-1.90476e-12 -0.586626 -1.22234)
(-3.96349e-13 -10.4501 19.1)
(2.09302e-13 -16.207 26.4972)
(-6.35389e-13 -13.8246 24.6907)
(-4.54464e-13 -13.1777 21.5598)
(-1.08532e-13 -11.7038 20.091)
(-9.4538e-13 -11.1454 18.4367)
(-5.61254e-13 -10.2652 17.0189)
(-6.69574e-14 -9.48608 15.5653)
(-1.19322e-12 -8.70862 14.1472)
(-8.27123e-13 -7.90492 12.7489)
(1.36848e-13 -7.08948 11.2929)
(-1.30238e-12 -6.13136 9.75782)
(-1.15975e-12 -5.10411 7.91374)
(-1.81499e-12 -3.47049 5.68267)
(-4.95827e-12 -1.13081 0.323282)
(-3.71418e-13 -10.357 18.6226)
(4.18148e-13 -15.4471 25.5536)
(-1.03494e-12 -13.5395 24.0266)
(-4.68728e-13 -12.7967 20.9926)
(7.75597e-14 -11.3861 19.4756)
(-1.33482e-12 -10.8385 17.898)
(-7.15602e-13 -10.0397 16.5836)
(3.32546e-13 -9.34435 15.2598)
(-9.4442e-13 -8.64552 13.9599)
(-1.05938e-12 -7.92901 12.6802)
(-1.39079e-13 -7.22266 11.4024)
(-1.24911e-12 -6.44784 10.1446)
(-8.39355e-13 -5.6594 8.72506)
(-1.707e-12 -4.37664 7.093)
(-3.94238e-12 -2.18797 2.40697)
(-5.20117e-13 -10.7421 19.0642)
(2.78022e-13 -14.8852 24.7247)
(-8.67277e-13 -13.3574 23.5569)
(-8.34697e-13 -12.8093 20.7747)
(1.43386e-13 -11.4204 19.2292)
(-1.22064e-12 -10.9423 17.6137)
(-1.00928e-12 -10.1931 16.3268)
(1.21508e-12 -9.60707 14.9891)
(-3.4565e-13 -9.00213 13.6964)
(-1.17468e-12 -8.41342 12.4889)
(-3.43228e-13 -7.82876 11.3943)
(-1.0526e-12 -7.20603 10.4573)
(-9.96444e-13 -6.54667 9.60628)
(-9.09049e-13 -5.5189 8.60357)
(-3.24973e-12 -3.63312 5.05874)
(-9.28489e-13 -10.5786 17.8255)
(1.4378e-13 -14.0793 23.4681)
(-1.15907e-12 -11.7145 21.0915)
(-9.55524e-13 -11.1202 18.6888)
(-2.11655e-13 -9.66066 17.5778)
(-1.11844e-12 -9.02305 15.8534)
(-6.39784e-13 -7.95073 14.4737)
(-4.05265e-13 -7.40573 13.1822)
(-1.87148e-12 -6.94286 12.3077)
(-1.84787e-12 -6.80539 11.9246)
(-1.26964e-12 -7.03912 12.223)
(-1.11825e-12 -7.45939 12.831)
(-7.4291e-13 -7.59591 13.0718)
(-1.28773e-12 -7.31756 12.6318)
(-2.81639e-12 -4.86115 8.58498)
(-1.1722e-12 -10.3239 19.2584)
(-2.95847e-13 -17.2045 27.9048)
(-8.34592e-13 -16.7029 26.6315)
(-9.62715e-13 -15.619 23.831)
(-7.1272e-13 -13.9775 21.5302)
(-8.48052e-13 -12.5758 19.0771)
(-7.07814e-13 -10.6022 16.3894)
(-1.41793e-12 -8.76294 13.657)
(-2.40174e-12 -7.176 11.9141)
(-2.39315e-12 -6.0656 10.5)
(-2.75273e-12 -4.68398 8.86938)
(-2.19397e-12 -3.9469 7.65586)
(-1.63363e-12 -4.43368 8.57817)
(-1.94428e-12 -3.24677 5.98104)
(-1.36698e-12 -1.16364 0.152832)
(-2.78296e-15 0.0330936 -0.123745)
(-8.67438e-15 -0.112578 0.149416)
(9.9258e-16 -0.0767326 -0.0255654)
(1.46933e-14 -0.0982175 0.000930773)
(5.67327e-14 -0.0717216 0.0455423)
(2.54616e-13 -0.157687 -0.064675)
(3.22675e-13 -0.150425 -0.0599469)
(5.16874e-13 -0.149095 0.0930533)
(8.38899e-13 -0.160999 0.214444)
(1.41054e-12 -0.203435 0.308403)
(7.96248e-15 -0.224755 0.242389)
(4.80576e-14 -0.235928 0.335871)
(6.55759e-14 -0.299848 0.440237)
(5.5387e-14 -0.26588 0.318787)
(7.05564e-14 -0.308459 0.364462)
(9.04884e-14 -0.306144 0.312342)
(1.57522e-13 -0.355162 0.321898)
(1.43332e-13 -0.309859 0.208886)
(-1.44269e-15 -0.32629 0.228338)
(-1.08328e-15 -0.363496 0.164753)
(-2.91462e-15 -0.290596 0.0893258)
(4.83654e-15 -0.326928 0.0790148)
(2.94762e-14 -0.294808 0.0109703)
(-2.21618e-13 -0.378015 -0.0399969)
(-1.83051e-13 -0.265287 -0.0370053)
(-2.40424e-13 -0.301878 -0.0730444)
(-2.94355e-13 -0.249432 -0.169303)
(1.77838e-14 -0.316728 -0.246019)
(-2.79823e-13 -0.251461 -0.189715)
(-1.32121e-13 -0.222582 -0.174695)
(-3.0888e-13 -0.309753 -0.218395)
(-3.55077e-13 -0.216975 -0.255688)
(-1.71879e-13 -0.227915 -0.240177)
(-2.62898e-13 -0.181473 -0.221414)
(4.43435e-14 -0.242805 -0.205612)
(-8.7644e-15 -0.174225 -0.289382)
(-1.62885e-15 -0.132452 -0.156389)
(2.20958e-14 -0.236664 -0.197713)
(1.6467e-14 -0.0816032 -0.473927)
(7.84067e-14 -0.0837772 -0.402405)
(4.23179e-13 -0.0345018 -0.185468)
(1.55849e-13 -0.108566 -0.0821456)
(3.6648e-14 0.044902 -0.341034)
(1.517e-14 0.0403955 -0.495235)
(1.0676e-14 0.0957456 -0.467781)
(9.59557e-14 0.0876123 -0.488775)
(-2.12242e-13 0.233722 -0.213225)
(-1.72452e-13 0.242923 -0.239111)
(-1.78877e-13 0.285768 -0.336681)
(9.44399e-14 0.363786 -0.169924)
(9.48737e-14 0.392828 -0.176072)
(7.30322e-14 0.386091 -0.197683)
(9.00231e-14 0.424194 -0.151398)
(5.48511e-14 0.390406 -0.149497)
(-1.26971e-14 0.435397 -0.167306)
(1.53134e-13 0.424244 -0.13873)
(2.72898e-13 0.386371 -0.119431)
(2.34575e-13 0.295335 -0.389347)
(2.92069e-14 0.383831 -0.317971)
(-3.24685e-14 0.2167 -0.391039)
(-5.7158e-14 0.138551 -0.75727)
(-4.90519e-14 0.244758 -0.807227)
(-3.31458e-14 0.266215 -0.711992)
(7.50146e-13 0.219876 -0.777176)
(-1.82358e-14 -0.0607378 1.26232)
(-5.73355e-14 -0.0319107 1.54386)
(-1.73203e-13 -0.523731 2.85929)
(-1.90536e-13 -0.797751 3.42784)
(-1.16528e-13 -1.01556 3.23379)
(-1.3146e-13 -1.09959 3.21276)
(-2.32978e-13 -2.01789 5.47249)
(-2.33719e-13 -2.34538 4.96834)
(-2.67493e-13 -2.70894 5.07131)
(-2.98007e-13 -2.79446 5.28503)
(-4.63877e-13 -4.54613 8.43815)
(-3.09299e-13 -4.60721 6.887)
(-3.42114e-13 -4.81874 7.23835)
(-4.6162e-13 -7.14019 10.5977)
(-3.04776e-13 -7.02661 7.96377)
(-2.56848e-13 -7.30907 8.27468)
(-3.2828e-13 -7.91318 9.38821)
(-2.758e-13 -7.89985 9.49405)
(-3.08402e-13 -8.21603 9.82766)
(-2.84446e-13 -9.48879 13.1501)
(-4.80126e-13 -9.24157 11.0422)
(-6.82935e-13 -9.55991 11.8284)
(-6.93198e-13 -9.54825 11.9023)
(-6.70919e-13 -9.6432 12.0372)
(-6.71381e-13 -9.69828 12.2119)
(-6.67934e-13 -9.78424 12.4426)
(-6.79746e-13 -9.87088 12.8399)
(-6.74531e-13 -10.0463 13.3258)
(-3.47486e-13 -10.8329 15.4278)
(-6.40891e-13 -10.7809 14.059)
(-6.24211e-13 -10.9395 14.3954)
(-6.48161e-13 -10.9623 14.5484)
(-7.57465e-13 -11.0172 14.6051)
(-7.90792e-13 -11.0753 14.5888)
(-8.06697e-13 -11.1726 14.6957)
(-8.00844e-13 -11.234 14.7778)
(-7.49673e-13 -11.3227 14.9626)
(-2.20088e-13 -12.2308 17.4395)
(-5.34163e-13 -12.1492 15.8946)
(-4.93188e-13 -12.259 16.1166)
(-4.70813e-13 -12.3121 16.2008)
(-4.3671e-13 -12.3765 16.3674)
(-3.84937e-13 -12.4243 16.6136)
(-3.49244e-13 -12.5325 16.8669)
(-3.82354e-13 -12.5575 16.9029)
(-3.99917e-13 -12.6331 17.0079)
(-4.12043e-13 -12.692 17.1177)
(-4.52101e-14 -13.2476 18.8503)
(-4.14639e-13 -13.3278 17.6058)
(-4.43272e-13 -13.3638 17.7614)
(-4.87631e-13 -13.4184 17.8029)
(-5.23974e-13 -13.4846 17.8908)
(-5.45171e-13 -13.5129 17.9816)
(-4.86707e-13 -13.6089 18.1932)
(-4.80597e-13 -13.6018 18.2163)
(-4.92276e-13 -13.6648 18.2195)
(-2.82945e-13 -13.7929 18.9704)
(-4.65984e-13 -14.0109 18.0538)
(-4.10339e-13 -13.9682 18.3644)
(-3.40374e-13 -14.0435 18.6087)
(-3.5867e-13 -13.9928 18.576)
(-3.6271e-13 -14.0556 18.6075)
(-3.74287e-13 -14.0703 18.5952)
(-3.91194e-13 -13.9935 18.6194)
(-4.18594e-13 -14.1473 18.9337)
(-3.20594e-13 -13.3032 17.9902)
(-3.64942e-13 -14.0724 17.9182)
(-3.74972e-13 -13.9334 17.8714)
(-3.77052e-13 -13.933 17.882)
(-3.68663e-13 -13.9211 18.0771)
(-3.65479e-13 -13.8875 18.0354)
(-3.64601e-13 -13.8256 17.9316)
(-3.62364e-13 -13.7509 17.835)
(-3.56887e-13 -13.7346 17.6963)
(-2.40582e-13 -12.6975 16.1808)
(-2.93578e-13 -13.4975 16.8337)
(-2.77837e-13 -13.2307 16.658)
(-2.71125e-13 -13.2508 16.5841)
(-2.64331e-13 -13.1429 16.4347)
(-2.62472e-13 -13.05 16.3016)
(-2.58721e-13 -13.0246 16.3949)
(-2.8173e-13 -12.8438 15.8638)
(-2.97179e-13 -12.675 15.4252)
(-3.15053e-13 -12.5552 14.8398)
(-2.19487e-13 -10.9181 11.0854)
(-3.06644e-13 -12.117 12.5959)
(-2.93639e-13 -11.7255 11.9541)
(-3.01968e-13 -11.6971 11.5585)
(-3.03606e-13 -11.4128 11.0316)
(-3.06506e-13 -11.321 10.4647)
(-3.41972e-13 -11.1623 9.46074)
(-3.8577e-13 -10.7721 8.52134)
(-3.49007e-13 -10.7557 8.61078)
(-1.39584e-13 -10.3216 5.97027)
(-2.44656e-13 -10.7719 6.4889)
(-2.0842e-13 -10.8898 5.86029)
(1.93126e-14 -8.13106 1.21067)
(-1.60467e-13 -13.8418 4.45661)
(-1.30179e-13 -13.8504 1.82956)
(-1.04338e-13 -12.4664 0.887297)
(-1.34041e-13 -17.2481 0.999127)
(-1.06093e-13 -12.1236 -0.200189)
(-1.59963e-13 -16.9096 -0.387704)
(-9.31298e-14 -16.5039 -1.97332)
(-5.50393e-14 -12.9891 -2.0631)
(-8.88412e-14 -16.4898 -3.31956)
(-7.57862e-14 -15.0223 -4.1511)
(-6.25308e-14 -12.6138 -3.64464)
(-8.11662e-14 -15.8145 -5.21664)
(-5.89592e-14 -10.6254 -4.19043)
(-1.28008e-13 -13.1558 -6.40855)
(-9.51334e-14 -10.8425 -6.44042)
(-6.25581e-14 -8.76505 -5.42963)
(-3.60577e-14 -9.48654 -7.44038)
(-1.95862e-14 -6.24637 -5.35891)
(-3.83746e-14 -5.49094 -8.17844)
(-1.29353e-14 -3.55745 -7.01481)
(1.551e-15 -2.65327 -6.33526)
(-5.4579e-14 1.53955 -11.373)
(-1.05402e-13 3.05855 -13.0069)
(-1.59043e-13 2.45418 -8.27364)
(-1.52836e-13 7.79374 -11.3728)
(-8.80136e-14 6.67523 -7.96528)
(-1.26104e-13 9.27607 -9.5421)
(-1.11586e-13 12.7233 -10.0156)
(-7.58459e-14 10.1611 -6.38103)
(-9.40756e-14 16.5649 -7.96476)
(-6.57477e-14 13.1015 -5.45568)
(-6.40479e-14 16.1161 -6.20165)
(-9.83826e-14 18.3208 -5.60569)
(-6.66698e-14 14.6467 -3.49431)
(-6.48764e-14 18.7911 -3.67295)
(-7.64911e-14 20.6694 -2.53133)
(-6.17545e-14 15.0283 -1.56124)
(-7.58285e-14 22.3367 -1.06505)
(-5.56952e-14 16.6006 -0.586365)
(-7.6366e-14 19.0963 -0.0870833)
(-5.18367e-14 20.3846 1.80492)
(-2.41117e-14 14.7865 1.28505)
(-6.66572e-14 21.2625 2.82594)
(-4.93208e-14 15.3489 2.1795)
(-5.1899e-14 17.3185 3.1885)
(-9.56128e-14 17.9344 4.66803)
(-6.47445e-14 13.7858 3.2528)
(-6.89138e-14 16.1364 4.83215)
(-9.30653e-14 20.6836 -2.57291)
(-6.30452e-14 16.0224 -1.38639)
(-9.13946e-14 24.4573 -8.65081)
(-4.75766e-14 20.202 -6.68047)
(-8.44007e-14 23.9495 -10.6415)
(-1.08134e-13 26.8247 -15.5305)
(-7.67834e-14 20.9994 -10.6141)
(-1.14889e-13 28.951 -16.9818)
(-8.5627e-14 22.1544 -12.8113)
(-9.69376e-14 24.9948 -18.249)
(-1.2034e-13 21.2113 -29.0354)
(-7.96692e-14 14.5243 -20.8674)
(-1.56793e-13 17.7524 -33.7601)
(-1.88108e-13 12.9401 -54.1352)
(-1.12624e-13 -3.44284 -38.9572)
(-2.24958e-13 16.9289 -58.868)
(-1.14458e-13 -12.3105 -19.2684)
(-1.09926e-13 3.14519 -20.106)
(1.09564e-13 -39.1583 25.1181)
(1.68526e-13 -44.1464 37.8617)
(2.61439e-13 -74.7026 60.8951)
(2.75709e-13 -68.9772 65.6647)
(4.56536e-13 -109.153 110.437)
(5.38098e-13 -162.369 132.27)
(4.764e-13 -140.853 121.165)
(7.53708e-13 -207.352 193.311)
(7.69316e-13 -252.688 201.738)
(6.55318e-13 -241.646 176.732)
(9.46265e-13 -366.717 255.927)
(7.5057e-13 -299.145 207.761)
(1.19134e-12 -422.82 331.946)
(-1.23648e-29 3.96434 3.53886)
(-1.21494e-28 5.43336 3.57948)
(-3.60316e-28 6.34365 3.86582)
(-1.93796e-28 7.22538 4.13461)
(3.30777e-27 8.12085 4.34146)
(1.53939e-26 9.01933 4.40987)
(2.17019e-26 9.92692 4.38432)
(-1.00569e-25 10.7973 4.33196)
(-6.43414e-25 11.6096 4.3116)
(-1.08176e-24 12.3551 4.34078)
(4.25785e-24 13.0424 4.40585)
(2.82603e-23 13.6958 4.47897)
(4.61107e-23 14.3777 4.55622)
(-1.69377e-22 15.148 4.6635)
(-1.05466e-21 16.0238 4.8386)
(-1.59298e-21 16.9484 5.12565)
(5.0623e-21 17.7881 5.58361)
(2.94399e-20 18.4617 6.25197)
(5.94754e-20 19.0309 7.06878)
(3.55715e-20 19.5606 7.89184)
(-1.06265e-19 20.0617 8.59197)
(-3.55829e-19 20.6195 9.17604)
(-6.38537e-19 21.363 9.75276)
(-8.81904e-19 22.3505 10.4164)
(-8.64541e-19 23.558 11.1881)
(2.19271e-19 24.9285 12.0444)
(2.64181e-18 26.3866 12.9673)
(8.28869e-19 27.8243 13.9262)
(-1.9488e-17 29.189 14.8895)
(-5.84791e-17 30.5043 15.9396)
(-3.95957e-17 31.7282 17.1425)
(2.20124e-16 32.8443 18.5384)
(8.28386e-16 33.884 20.1583)
(1.41366e-15 34.8678 22.0066)
(9.24807e-16 35.8223 24.0608)
(-1.8245e-15 36.799 26.2816)
(-7.12768e-15 37.8662 28.627)
(-1.39323e-14 39.0918 31.0642)
(-2.0488e-14 40.5355 33.5842)
(-2.53985e-14 42.2237 36.1773)
(-2.81902e-14 44.1476 38.837)
(-2.90013e-14 46.2751 41.5678)
(-2.77485e-14 48.5625 44.3875)
(-2.34674e-14 50.9554 47.3101)
(-1.42793e-14 53.3858 50.328)
(1.92292e-15 55.7854 53.3956)
(2.62592e-14 58.1016 56.4223)
(5.77618e-14 60.2831 59.2748)
(9.31842e-14 62.1746 61.7937)
(1.27643e-13 63.1679 63.798)
(1.54553e-13 61.4939 64.9381)
(1.64742e-13 53.9735 64.3156)
(1.51185e-13 39.1777 60.6)
(1.25385e-13 23.9726 54.6257)
(1.14506e-13 18.2569 51.043)
(1.18081e-13 18.5098 50.6846)
(1.20697e-13 17.4411 50.5328)
(1.20832e-13 15.0401 50.1862)
(1.21918e-13 12.746 50.3737)
(1.24675e-13 10.4929 51.1886)
(1.28554e-13 8.11149 52.4972)
(1.33035e-13 5.65345 54.0889)
(1.37407e-13 3.16645 55.6581)
(1.41314e-13 0.735277 57.0605)
(1.45237e-13 -1.59824 58.4398)
(1.51008e-13 -4.03525 60.4182)
(1.59484e-13 -6.85883 63.2852)
(1.71164e-13 -10.2962 67.1894)
(1.86977e-13 -14.627 72.4158)
(2.08098e-13 -20.2185 79.3078)
(2.3619e-13 -27.6061 88.3413)
(2.73586e-13 -37.6094 100.165)
(3.23641e-13 -51.4968 115.693)
(3.91329e-13 -71.2598 136.242)
(4.8421e-13 -100.12 163.785)
(6.1348e-13 -142.969 201.238)
(7.93992e-13 -206.788 252.732)
(1.03448e-12 -295.685 321.114)
(1.27985e-12 -392.595 386.032)
(-1.79542e-29 3.96006 4.14176)
(-1.58889e-28 5.38237 4.21529)
(-4.32534e-28 6.25773 4.51645)
(-1.27943e-28 7.15412 4.73718)
(4.14603e-27 8.08252 4.84987)
(1.75446e-26 9.01653 4.81821)
(1.98409e-26 9.94069 4.73341)
(-1.36632e-25 10.8081 4.6648)
(-7.63234e-25 11.6065 4.65076)
(-1.04635e-24 12.3384 4.68833)
(6.03102e-24 13.0182 4.76224)
(3.43391e-23 13.6686 4.85023)
(4.63414e-23 14.3441 4.95052)
(-2.35927e-22 15.0985 5.08532)
(-1.26653e-21 15.946 5.29077)
(-1.60534e-21 16.8263 5.61923)
(6.82943e-21 17.6062 6.14169)
(3.50875e-20 18.224 6.88764)
(6.86555e-20 18.7699 7.75962)
(4.67e-20 19.3181 8.60337)
(-9.06823e-20 19.8552 9.31523)
(-3.34931e-19 20.43 9.91665)
(-6.27245e-19 21.1596 10.5028)
(-8.94183e-19 22.1168 11.1584)
(-8.0582e-19 23.295 11.915)
(5.9024e-19 24.6422 12.7655)
(3.00747e-18 26.0846 13.6965)
(-1.17135e-18 27.5163 14.6801)
(-2.69746e-17 28.8662 15.6812)
(-6.53936e-17 30.1442 16.7766)
(-1.52967e-17 31.3144 18.0389)
(3.21374e-16 32.3658 19.507)
(9.97663e-16 33.3352 21.2077)
(1.50209e-15 34.2519 23.1344)
(6.7676e-16 35.1491 25.2533)
(-2.56781e-15 36.0813 27.5156)
(-8.24875e-15 37.1154 29.8752)
(-1.51115e-14 38.3141 32.2977)
(-2.14725e-14 39.7332 34.7801)
(-2.61785e-14 41.3987 37.3279)
(-2.89246e-14 43.2996 39.9552)
(-2.97972e-14 45.4 42.6861)
(-2.84852e-14 47.655 45.5503)
(-2.37505e-14 50.0142 48.5652)
(-1.3515e-14 52.4195 51.7169)
(4.33239e-15 54.8157 54.9446)
(3.06326e-14 57.1642 58.1363)
(6.39145e-14 59.4249 61.1377)
(1.00444e-13 61.4496 63.7735)
(1.3516e-13 62.6578 65.8589)
(1.61752e-13 61.3876 67.0723)
(1.71709e-13 54.6117 66.6093)
(1.58432e-13 40.6691 63.2088)
(1.32487e-13 25.4919 57.4484)
(1.20295e-13 18.8785 53.6942)
(1.23521e-13 18.5797 53.1876)
(1.26699e-13 17.507 53.0232)
(1.26992e-13 15.0707 52.5952)
(1.27546e-13 12.6126 52.5248)
(1.2918e-13 10.2016 52.8698)
(1.31563e-13 7.70432 53.5742)
(1.34792e-13 5.19229 54.6606)
(1.38752e-13 2.70874 56.0524)
(1.43164e-13 0.274645 57.6257)
(1.48153e-13 -2.14637 59.3918)
(1.54939e-13 -4.77589 61.7207)
(1.64255e-13 -7.84808 64.8612)
(1.76811e-13 -11.5926 69.0365)
(1.93567e-13 -16.3126 74.5413)
(2.15753e-13 -22.3996 81.7364)
(2.45091e-13 -30.4285 91.1117)
(2.8399e-13 -41.2761 103.332)
(3.35912e-13 -56.298 119.329)
(4.05948e-13 -77.623 140.428)
(5.01972e-13 -108.69 168.69)
(6.36209e-13 -154.71 207.44)
(8.26142e-13 -222.62 262.047)
(1.07707e-12 -313.235 333.978)
(1.27723e-12 -394.617 376.906)
(-2.19125e-29 3.95366 4.50029)
(-1.73037e-28 5.34986 4.59128)
(-4.27096e-28 6.22325 4.86041)
(1.36991e-30 7.1416 5.01295)
(4.42553e-27 8.09219 5.05572)
(1.69005e-26 9.03715 4.98577)
(1.27442e-26 9.95761 4.90059)
(-1.63059e-25 10.8152 4.84791)
(-7.87594e-25 11.6045 4.84694)
(-7.84277e-25 12.33 4.88883)
(7.46332e-24 13.0059 4.96309)
(3.67889e-23 13.6538 5.05323)
(3.88943e-23 14.3253 5.16053)
(-2.88198e-22 15.0714 5.30731)
(-1.36166e-21 15.903 5.53087)
(-1.42562e-21 16.7561 5.88957)
(8.1461e-21 17.5013 6.45711)
(3.82392e-20 18.0937 7.24692)
(7.38295e-20 18.6374 8.14027)
(5.66713e-20 19.2016 8.98736)
(-7.01093e-20 19.7579 9.70687)
(-3.0545e-19 20.344 10.3247)
(-6.04889e-19 21.0734 10.9225)
(-8.77713e-19 22.0204 11.5769)
(-6.97256e-19 23.1834 12.326)
(9.05144e-19 24.5148 13.1724)
(3.01256e-18 25.9441 14.1057)
(-3.33727e-18 27.367 15.101)
(-3.23177e-17 28.7067 16.1275)
(-6.61062e-17 29.963 17.2536)
(1.2234e-17 31.1024 18.5535)
(3.99464e-16 32.1183 20.0642)
(1.09663e-15 33.0525 21.8094)
(1.50663e-15 33.9389 23.7754)
(4.48347e-16 34.8139 25.922)
(-3.05708e-15 35.7323 28.1968)
(-8.8645e-15 36.7593 30.5552)
(-1.56636e-14 37.9536 32.9663)
(-2.18631e-14 39.3664 35.4319)
(-2.64455e-14 41.0212 37.9667)
(-2.91551e-14 42.9051 40.5955)
(-3.00059e-14 44.9819 43.3506)
(-2.85442e-14 47.2085 46.2641)
(-2.33885e-14 49.5397 49.3511)
(-1.23816e-14 51.9247 52.591)
(6.52846e-15 54.3168 55.9132)
(3.39508e-14 56.6846 59.1952)
(6.8093e-14 58.992 62.2744)
(1.05e-13 61.0915 64.974)
(1.39619e-13 62.4114 67.1118)
(1.65889e-13 61.3312 68.3794)
(1.75667e-13 54.8864 68.012)
(1.62523e-13 41.3219 64.7727)
(1.36515e-13 26.1767 59.1162)
(1.23826e-13 19.2043 55.2925)
(1.27021e-13 18.6575 54.7304)
(1.30517e-13 17.5653 54.5939)
(1.31131e-13 15.1279 54.2217)
(1.3195e-13 12.6343 54.2052)
(1.33813e-13 10.1864 54.5937)
(1.36283e-13 7.63922 55.2962)
(1.39344e-13 5.05485 56.2968)
(1.43057e-13 2.49804 57.5842)
(1.4745e-13 0.00159216 59.1416)
(1.52802e-13 -2.51886 61.0139)
(1.60328e-13 -5.29823 63.5771)
(1.70471e-13 -8.57103 66.966)
(1.83985e-13 -12.5743 71.4216)
(2.0183e-13 -17.6258 77.2352)
(2.25282e-13 -24.139 84.7806)
(2.56132e-13 -32.7219 94.559)
(2.9686e-13 -44.2995 107.246)
(3.51013e-13 -60.3001 123.772)
(4.23845e-13 -82.9758 145.488)
(5.2406e-13 -116.027 174.767)
(6.66428e-13 -165.094 215.991)
(8.70244e-13 -236.596 275.489)
(1.12058e-12 -325.416 347.31)
(1.23551e-12 -377.255 358.178)
(-2.36424e-29 3.94713 4.90727)
(-1.69451e-28 5.31224 5.01239)
(-3.70802e-28 6.18228 5.23761)
(1.71501e-28 7.12321 5.31842)
(4.39705e-27 8.09533 5.29887)
(1.45767e-26 9.05146 5.19929)
(1.60386e-27 9.96982 5.1151)
(-1.88775e-25 10.8193 5.07395)
(-7.66471e-25 11.5994 5.08251)
(-3.5604e-25 12.3173 5.12854)
(9.05398e-24 12.988 5.20403)
(3.82466e-23 13.6321 5.29619)
(2.6854e-23 14.2971 5.40975)
(-3.46479e-22 15.0301 5.56858)
(-1.43885e-21 15.8379 5.81278)
(-1.14667e-21 16.6532 6.2078)
(9.67139e-21 17.3518 6.82855)
(4.16767e-20 17.9097 7.6682)
(7.96496e-20 18.4475 8.58587)
(6.85809e-20 19.03 9.43856)
(-4.55343e-20 19.6101 10.1662)
(-2.70348e-19 20.2084 10.7983)
(-5.75267e-19 20.9334 11.4052)
(-8.4541e-19 21.8641 12.0569)
(-5.52473e-19 23.0065 12.7983)
(1.25166e-18 24.3181 13.6413)
(2.90171e-18 25.7318 14.5795)
(-5.97129e-18 27.1443 15.5899)
(-3.81411e-17 28.4692 16.6462)
(-6.53508e-17 29.6958 17.8091)
(4.65101e-17 30.7937 19.1541)
(4.90216e-16 31.7614 20.7151)
(1.20668e-15 32.6464 22.5118)
(1.50628e-15 33.4895 24.5231)
(1.88622e-16 34.3311 26.7014)
(-3.60092e-15 35.2263 28.9904)
(-9.54314e-15 36.2376 31.3475)
(-1.62701e-14 37.419 33.7462)
(-2.22899e-14 38.8169 36.1947)
(-2.67305e-14 40.4525 38.7185)
(-2.93906e-14 42.3113 41.3535)
(-3.02073e-14 44.3564 44.1405)
(-2.8568e-14 46.5466 47.1137)
(-2.29277e-14 48.8422 50.2856)
(-1.10423e-14 51.2017 53.6285)
(9.06681e-15 53.5892 57.0616)
(3.77452e-14 55.9834 60.4519)
(7.28499e-14 58.3537 63.6298)
(1.1019e-13 60.5547 66.4178)
(1.44732e-13 62.029 68.6386)
(1.70697e-13 61.2194 69.9976)
(1.80371e-13 55.2613 69.7585)
(1.67509e-13 42.2843 66.6805)
(1.41472e-13 27.2395 61.0705)
(1.28003e-13 19.6979 57.1017)
(1.30949e-13 18.7316 56.48)
(1.34816e-13 17.6061 56.3997)
(1.35769e-13 15.1562 56.0625)
(1.36695e-13 12.5706 56.0293)
(1.38575e-13 10.0325 56.3824)
(1.41079e-13 7.41742 57.0671)
(1.44214e-13 4.77932 58.0713)
(1.48009e-13 2.17292 59.3809)
(1.52537e-13 -0.380283 60.9906)
(1.58256e-13 -2.99058 62.9836)
(1.66405e-13 -5.90777 65.7356)
(1.773e-13 -9.35259 69.3475)
(1.91731e-13 -13.5789 74.0692)
(2.10657e-13 -18.9168 80.1919)
(2.35406e-13 -25.8001 88.0996)
(2.67807e-13 -34.8643 98.2989)
(3.10386e-13 -47.0728 111.461)
(3.66761e-13 -63.9197 128.517)
(4.42612e-13 -87.8141 150.962)
(5.48325e-13 -122.821 181.858)
(7.01389e-13 -174.938 226.784)
(9.16511e-13 -248.75 290.522)
(1.14863e-12 -331.409 356.135)
(1.19331e-12 -359.17 343.929)
(-2.06615e-29 3.93918 5.2982)
(-1.34103e-28 5.28034 5.404)
(-2.32789e-28 6.16013 5.56642)
(3.90421e-28 7.1251 5.57266)
(3.81174e-27 8.1132 5.50369)
(9.49095e-27 9.0718 5.39163)
(-1.51506e-26 9.98212 5.31895)
(-2.07673e-25 10.8216 5.29288)
(-6.59575e-25 11.5935 5.31208)
(3.15984e-25 12.3052 5.36302)
(1.06448e-23 12.9717 5.43892)
(3.7414e-23 13.6118 5.53016)
(7.68681e-24 14.2697 5.64595)
(-4.06221e-22 14.9892 5.81368)
(-1.46153e-21 15.7726 6.0782)
(-7.01743e-22 16.5494 6.51238)
(1.13147e-20 17.204 7.18844)
(4.4741e-20 17.7349 8.0741)
(8.47936e-20 18.2746 9.00921)
(8.11412e-20 18.8768 9.86404)
(-1.73785e-20 19.4779 10.5992)
(-2.28868e-19 20.0882 11.2447)
(-5.35424e-19 20.8128 11.86)
(-7.89005e-19 21.7318 12.5098)
(-3.61412e-19 22.8557 13.245)
(1.60514e-18 24.1471 14.0857)
(2.57241e-18 25.5433 15.0293)
(-9.08439e-18 26.9423 16.0553)
(-4.37648e-17 28.2511 17.1424)
(-6.13407e-17 29.4487 18.3445)
(8.83789e-17 30.5072 19.7359)
(5.87154e-16 31.4306 21.3466)
(1.30874e-15 32.2724 23.1917)
(1.47884e-15 33.08 25.2429)
(-9.67838e-17 33.897 27.4465)
(-4.13181e-15 34.7774 29.7437)
(-1.01499e-14 35.7804 32.0954)
(-1.67608e-14 36.9545 34.4821)
(-2.25875e-14 38.3408 36.919)
(-2.68885e-14 39.9572 39.4419)
(-2.94907e-14 41.7879 42.0962)
(-3.02402e-14 43.7968 44.9284)
(-2.83691e-14 45.9462 47.9721)
(-2.21859e-14 48.2031 51.2353)
(-9.38732e-15 50.5355 54.6821)
(1.18977e-14 52.918 58.2227)
(4.17325e-14 55.3377 61.7159)
(7.76437e-14 57.7675 64.9891)
(1.15263e-13 60.0623 67.8684)
(1.49638e-13 61.6752 70.1832)
(1.753e-13 61.102 71.6503)
(1.84962e-13 55.5644 71.5518)
(1.72516e-13 43.1037 68.6315)
(1.46528e-13 28.1685 63.0454)
(1.3219e-13 20.1444 58.8913)
(1.34769e-13 18.8076 58.1879)
(1.39003e-13 17.6425 58.1825)
(1.40379e-13 15.1945 57.9182)
(1.41542e-13 12.5544 57.9152)
(1.43542e-13 9.95318 58.2721)
(1.46143e-13 7.27432 58.9598)
(1.49371e-13 4.56948 59.9797)
(1.53275e-13 1.89484 61.3269)
(1.57997e-13 -0.742207 63.0053)
(1.64148e-13 -3.48479 65.1423)
(1.72872e-13 -6.57409 68.0708)
(1.84481e-13 -10.2244 71.8955)
(1.99789e-13 -14.7074 76.8757)
(2.19784e-13 -20.3676 83.3061)
(2.4582e-13 -27.6599 91.5759)
(2.79739e-13 -37.2469 102.186)
(3.24086e-13 -50.1334 115.795)
(3.82665e-13 -67.9081 133.389)
(4.62089e-13 -93.2313 156.833)
(5.75045e-13 -130.625 190.16)
(7.402e-13 -186.067 239.519)
(9.61662e-13 -261.022 305.476)
(1.16389e-12 -334.918 359.545)
(1.1195e-12 -340.638 318.647)
(-1.01142e-29 3.93297 5.68293)
(-5.50364e-29 5.25546 5.77086)
(5.91122e-30 6.15051 5.86012)
(6.48522e-28 7.1357 5.7989)
(2.47575e-27 8.13303 5.69781)
(9.45658e-28 9.08907 5.58655)
(-3.81126e-26 9.99033 5.52887)
(-2.14102e-25 10.8209 5.51649)
(-4.39919e-25 11.5857 5.54573)
(1.27176e-24 12.2922 5.60226)
(1.21349e-23 12.9549 5.67842)
(3.36616e-23 13.591 5.76701)
(-1.97457e-23 14.2408 5.88228)
(-4.66395e-22 14.9442 6.05685)
(-1.41937e-21 15.6992 6.3424)
(-6.34066e-23 16.4328 6.81921)
(1.31313e-20 17.0419 7.55281)
(4.75359e-20 17.5484 8.48143)
(8.92433e-20 18.0929 9.42948)
(9.34663e-20 18.7155 10.2852)
(1.18142e-20 19.337 11.0278)
(-1.84501e-19 19.9591 11.6852)
(-4.87137e-19 20.6837 12.3077)
(-7.07052e-19 21.5912 12.9557)
(-1.25782e-19 22.6958 13.6858)
(1.94739e-18 23.9656 14.5252)
(1.99567e-18 25.3429 15.4756)
(-1.26478e-17 26.7259 16.5186)
(-4.89986e-17 28.0158 17.6382)
(-5.37565e-17 29.1822 18.8828)
(1.38017e-16 30.1991 20.3229)
(6.90409e-16 31.0765 21.9843)
(1.40455e-15 31.8745 23.8764)
(1.4296e-15 32.6468 25.9644)
(-4.0194e-16 33.4401 28.1895)
(-4.65338e-15 34.3065 30.4916)
(-1.07074e-14 35.3007 32.8368)
(-1.71751e-14 36.4658 35.2135)
(-2.28007e-14 37.8372 37.6451)
(-2.69595e-14 39.4299 40.177)
(-2.94901e-14 41.2272 42.8622)
(-3.01405e-14 43.1947 45.7508)
(-2.79893e-14 45.2988 48.8743)
(-2.12077e-14 47.5139 52.2343)
(-7.45481e-15 49.8179 55.787)
(1.50046e-14 52.1959 59.4343)
(4.59362e-14 54.643 63.0295)
(8.25545e-14 57.1349 66.4004)
(1.20358e-13 59.526 69.379)
(1.54517e-13 61.2807 71.8031)
(1.79898e-13 60.9501 73.3994)
(1.89638e-13 55.8514 73.4607)
(1.77743e-13 43.9511 70.7027)
(1.51899e-13 29.1773 65.118)
(1.36595e-13 20.6527 60.7255)
(1.38626e-13 18.8854 59.9069)
(1.43184e-13 17.6577 59.9852)
(1.4501e-13 15.2104 59.8089)
(1.46455e-13 12.5086 59.8507)
(1.4861e-13 9.83459 60.2282)
(1.51339e-13 7.08814 60.9356)
(1.54701e-13 4.31811 61.9884)
(1.58768e-13 1.57822 63.391)
(1.6372e-13 -1.13826 65.1531)
(1.70331e-13 -4.00556 67.4396)
(1.79604e-13 -7.26613 70.5379)
(1.9191e-13 -11.1286 74.5715)
(2.0809e-13 -15.8809 79.8057)
(2.29137e-13 -21.8809 86.5381)
(2.56417e-13 -29.6029 95.1546)
(2.91767e-13 -39.7358 106.141)
(3.37796e-13 -53.3384 120.165)
(3.98769e-13 -72.148 138.391)
(4.82797e-13 -99.1747 163.3)
(6.04815e-13 -139.355 199.867)
(7.81633e-13 -198.014 253.522)
(1.00137e-12 -272.505 318.508)
(1.16089e-12 -334.844 356.766)
(1.03605e-12 -314.819 292.713)