/*--------------------------------*- C++ -*----------------------------------*\
| =========                 |                                                 |
| \\      /  F ield         | OpenFOAM: The Open Source CFD Toolbox           |
|  \\    /   O peration     | Version:  4.1                                   |
|   \\  /    A nd           | Web:      www.OpenFOAM.org                      |
|    \\/     M anipulation  |                                                 |
\*---------------------------------------------------------------------------*/
FoamFile
{
    version     2.0;
    format      ascii;
    class       volScalarField;
    location    "21";
    object      p;
}
// * * * * * * * * * * * * * * * * * * * * * * * * * * * * * * * * * * * * * //

dimensions      [0 2 -2 0 0 0 0];

internalField   nonuniform List<scalar> 
6785
(
542.694
489.297
437.465
389.054
344.163
302.146
262.791
225.788
190.693
157.329
126.387
98.2486
69.2198
34.3011
5.14895
76.2607
53.9995
48.2408
44.5305
39.0564
33.3488
28.1958
23.807
20.323
17.8642
16.6728
17.1744
19.2708
21.1423
21.4025
-26.5208
-33.1641
-27.3974
-23.2505
-20.16
-16.5648
-12.6786
-8.74137
-4.83711
-1.12139
2.22398
5.29091
8.36755
11.0202
12.2543
19.6151
17.1968
21.7891
22.1131
22.1665
22.3814
22.2921
21.9145
21.3327
20.5733
19.6163
18.5067
17.5961
17.4435
17.7539
36.0513
33.7177
35.2708
33.1722
31.7526
30.5084
29.0978
27.7152
26.457
25.3654
24.4638
23.7508
23.2727
23.2396
23.4844
26.8387
24.8134
25.7848
24.5635
24.358
24.3401
24.2503
24.2816
24.4353
24.6771
24.9948
25.3564
25.6752
25.9316
26.1063
23.3997
22.2397
23.3182
22.9901
23.3708
23.76
24.0542
24.4003
24.7527
25.0739
25.3602
25.6114
25.7875
25.8672
25.8821
25.1307
24.566
25.4047
25.1636
25.3483
25.4499
25.463
25.4983
25.5138
25.5008
25.4698
25.4356
25.3972
25.3484
25.2982
25.5486
25.2121
25.6897
25.3865
25.4009
25.3479
25.2514
25.1844
25.1112
25.0349
24.9617
24.8968
24.8404
24.7875
24.7313
24.3497
24.128
24.4116
24.1794
24.1981
24.1648
24.1111
24.0816
24.0455
24.0085
23.9721
23.9339
23.8933
23.8456
23.7789
23.3115
23.1635
23.344
23.1814
23.1983
23.1622
23.1107
23.0724
23.0233
22.9705
22.9152
22.8566
22.794
22.7267
22.638
22.4011
22.3399
22.4343
22.2535
22.2014
22.1104
22.013
21.9224
21.8217
21.7191
21.6154
21.5104
21.4107
21.3209
21.2159
23.3653
23.2364
23.0672
22.6771
22.4035
22.0945
21.7728
21.462
21.1589
20.874
20.6091
20.3695
20.1587
19.9908
19.838
20.7771
21.2598
21.6438
21.4784
21.1098
20.6576
20.2269
19.8298
19.4401
19.0502
18.6605
18.2709
17.8933
17.5455
17.2015
38.5258
38.1231
37.3032
34.7415
31.135
27.5047
24.1475
21.1512
18.4334
16.1197
14.1411
12.4949
11.199
10.2486
9.48742
40.7512
39.6736
40.4941
39.6987
39.1781
37.8387
38.3228
36.8479
35.7528
34.2681
34.4876
32.0763
29.1396
30.0288
27.7349
25.824
25.0825
25.9744
22.6463
20.337
22.5703
20.2443
18.2859
19.0765
21.049
18.0416
16.0519
17.5401
20.227
17.0665
15.6211
19.2568
17.6313
15.9968
17.1235
20.3461
18.2843
17.5189
21.2512
20.5279
19.6747
20.9574
24.0842
23.3357
22.7987
24.1528
26.9075
26.3199
26.2185
28.5637
28.5287
28.3345
28.9237
30.6398
30.4983
30.359
30.8698
32.6503
32.7297
32.7358
34.5722
34.8521
34.735
34.6434
35.6383
35.7185
35.4393
35.5958
35.3625
35.9662
36.4521
33.6538
32.8403
33.2603
30.5977
25.3672
27.8853
21.5979
3.77199
9.80802
14.012
14.5076
15.4068
11.01
13.9089
17.525
18.5407
18.9435
18.965
19.6407
21.555
23.2665
24.5933
19.3416
20.0004
21.8811
23.3901
23.5447
23.7579
23.8279
24.2419
27.5433
24.5732
24.774
24.6336
25.2497
26.5247
27.2464
27.2485
26.8535
26.4487
30.8327
29.1892
28.9804
28.3685
27.9685
28.7797
29.6997
28.8686
27.2045
29.7653
31.4058
31.9319
31.7266
30.6798
29.7459
28.8941
28.1428
27.3161
33.0282
32.9206
30.8481
29.9952
29.0987
27.7242
25.7725
22.8745
20.8106
25.8888
28.8595
26.1559
24.1993
21.4892
17.9737
15.3122
13.4129
11.4166
10.6991
9.52533
13.7379
12.0698
11.9703
11.5772
9.70594
6.79278
6.04823
7.15441
2.52378
8.94743
7.83476
6.56336
8.26501
8.31997
9.03268
9.46202
9.95277
10.1684
10.1152
10.2909
10.1757
10.1822
10.2564
10.0696
10.0705
9.86039
9.98762
9.84043
9.44407
9.41658
9.27099
9.56917
9.24239
8.62212
9.10758
8.91908
8.42624
8.49457
8.46363
9.03766
8.30404
7.48179
7.65863
7.8308
8.61855
7.72829
6.47672
7.50198
7.12244
6.31601
6.39477
6.4183
7.50015
6.33653
5.07075
5.2703
5.52633
6.83722
5.64917
3.95232
5.4495
4.94115
3.89055
3.99355
4.05156
5.61845
4.22329
2.68932
2.90263
3.19954
4.93125
3.57338
1.58079
3.42228
2.80607
1.58759
1.67578
1.73541
3.6252
2.05175
0.312613
0.469639
0.730614
2.71462
1.16301
-1.08714
0.946697
0.103873
-1.33294
-1.4277
-1.20758
-0.000623936
-0.0110871
-0.0191083
-0.0331762
-0.0600196
-0.0980856
-0.130578
-0.144381
-0.148912
-0.105507
-0.107179
-0.0478193
-0.0171127
0.039065
0.104132
0.0250032
0.00134596
0.0310616
0.0129646
0.16377
0.294203
0.265754
0.235559
0.235136
0.183814
0.0825946
-0.0642529
-0.175397
-0.166315
-0.0941939
0.0491848
0.0222483
0.0636885
0.10343
-0.00146928
0.268557
0.241043
0.180129
0.154548
0.270993
0.0172978
-0.00883052
0.0286912
0.0528246
0.0653087
0.0804462
0.0839002
0.0766389
0.0911337
0.068394
0.0378359
0.0453022
0.0402279
0.0621485
0.0305669
0.0855512
0.188516
0.208757
0.584655
0.435336
0.164875
0.0533093
-0.450558
-0.266844
-0.147765
-0.17859
-0.113811
-0.0940523
-0.0264349
0.112571
0.33907
0.638559
0.80001
0.906271
1.0609
0.963483
0.786431
0.206543
0.138951
0.00200707
-0.0151826
-0.0290229
-0.0474904
-0.0769642
-0.119647
-0.153669
-0.157858
-0.137281
-0.102096
-0.118261
-0.0745468
-0.0371224
0.0349155
0.122377
0.05462
0.0223042
0.0615411
0.0314223
0.34713
0.384324
0.417715
0.364284
0.307546
0.194563
0.0348657
-0.154532
-0.29763
-0.2979
-0.20167
0.0500418
0.0898356
0.00429692
0.194092
0.0388128
0.359077
0.31478
0.22634
0.187356
0.307798
-0.0103197
-0.0612736
-0.00826806
0.0334176
0.0547448
0.0902213
0.102172
0.11264
0.134905
0.135485
0.112563
0.129075
0.112625
0.161155
0.0804199
0.501015
0.119299
0.0954248
0.59119
0.386612
0.0787519
-0.0494947
-0.828718
-0.582437
-0.402724
-0.416842
-0.370021
-0.302201
-0.167001
0.0571085
0.454178
0.963963
1.2228
1.36879
1.43059
1.24819
1.00747
0.449681
0.437782
0.00289392
-0.0162615
-0.0294853
-0.0459456
-0.0700589
-0.101936
-0.121722
-0.115496
-0.0960997
-0.0783526
-0.110753
-0.102691
-0.0577378
0.0194997
0.10246
0.0586895
0.0292995
0.0746086
0.0534269
0.394839
0.417777
0.488032
0.426903
0.340639
0.20308
0.00612822
-0.203707
-0.360515
-0.381477
-0.277794
0.0180479
0.0748715
-0.0772008
0.173243
0.0592056
0.372048
0.327339
0.235205
0.191896
0.299863
-0.00693666
-0.0685303
-0.0220918
0.0193264
0.049319
0.0934332
0.114409
0.132155
0.172322
0.196133
0.191279
0.211021
0.181822
0.256626
0.141012
0.660831
0.151167
0.0849424
0.616834
0.372572
0.0580063
-0.0307245
-0.85805
-0.766706
-0.646195
-0.651615
-0.612704
-0.500056
-0.299024
0.0158128
0.556735
1.2088
1.4533
1.5821
1.59496
1.36977
1.06121
0.650106
0.722705
0.00212194
-0.0161642
-0.026323
-0.0381158
-0.0546351
-0.0747583
-0.0830089
-0.0719174
-0.0623859
-0.0602592
-0.098869
-0.117319
-0.0742462
0.00694764
0.0877186
0.0653034
0.0365486
0.0827377
0.0692423
0.387866
0.463522
0.557665
0.503954
0.406275
0.242964
0.0104788
-0.214863
-0.381778
-0.429212
-0.332687
-0.0257767
0.0263295
-0.143406
0.143999
0.0581708
0.365146
0.340344
0.239518
0.203412
0.3036
0.0252085
-0.0431914
-0.00406062
0.0334347
0.068925
0.117081
0.145527
0.167571
0.21827
0.260836
0.263877
0.285319
0.247299
0.34253
0.1985
0.710919
0.224097
0.121847
0.663451
0.387626
0.0765038
0.00826586
-0.790401
-0.890267
-0.873912
-0.88748
-0.845932
-0.692447
-0.421698
-0.021015
0.657209
1.49193
1.71383
1.81769
1.77939
1.52303
1.13942
0.841317
0.974551
0.0011905
-0.0148528
-0.0222181
-0.029601
-0.0391491
-0.0502217
-0.0529023
-0.0441045
-0.0428121
-0.0519611
-0.0912304
-0.123858
-0.0844745
-0.00339842
0.0788787
0.0721825
0.041011
0.0854571
0.079698
0.373947
0.50705
0.61265
0.582953
0.480808
0.292686
0.0330167
-0.204287
-0.375005
-0.450088
-0.371375
-0.0721589
-0.0234933
-0.199542
0.12324
0.0500905
0.337644
0.343019
0.241103
0.209436
0.306515
0.0615586
-0.00956168
0.0241718
0.0608793
0.0978312
0.14802
0.182501
0.206963
0.262637
0.315731
0.327488
0.351642
0.307184
0.418981
0.254398
0.761005
0.312081
0.186829
0.716755
0.418181
0.116184
0.0355079
-0.744463
-0.977391
-1.07588
-1.11098
-1.05805
-0.867657
-0.536157
-0.0534011
0.744263
1.70531
1.9623
2.04656
1.95398
1.67723
1.24003
1.00482
1.25687
0.000468942
-0.0128252
-0.0180128
-0.0217309
-0.0257276
-0.0299381
-0.0299442
-0.0270025
-0.0324832
-0.0495507
-0.0864097
-0.125532
-0.0904325
-0.0115515
0.0723304
0.0752596
0.0384334
0.0841824
0.0849038
0.362567
0.548721
0.654568
0.651867
0.547085
0.342364
0.069662
-0.17562
-0.347206
-0.450483
-0.397969
-0.11811
-0.0712178
-0.250908
0.0965892
0.0342076
0.291859
0.329882
0.235656
0.207786
0.303585
0.096257
0.0269332
0.0574443
0.0951073
0.131994
0.182421
0.221328
0.247782
0.305496
0.366295
0.38667
0.414388
0.365784
0.490843
0.311642
0.83006
0.405835
0.260869
0.769034
0.457069
0.169124
0.0568526
-0.71734
-1.04253
-1.26122
-1.32467
-1.25384
-1.02934
-0.640211
-0.0798424
0.824238
1.89649
2.19059
2.2528
2.10847
1.82419
1.36643
1.1755
1.4799
-0.000363691
-0.0107181
-0.0140084
-0.0143901
-0.0138327
-0.0124954
-0.010529
-0.0135585
-0.0255094
-0.0482287
-0.0831769
-0.125509
-0.09414
-0.017754
0.0657111
0.0743031
0.0308188
0.0816426
0.0859229
0.350942
0.593358
0.687285
0.708094
0.601491
0.388127
0.113089
-0.135839
-0.307734
-0.439215
-0.419669
-0.164728
-0.118942
-0.298447
0.0584661
0.00727715
0.233299
0.302872
0.222302
0.199271
0.294806
0.125517
0.0618131
0.0915573
0.130682
0.167942
0.217516
0.259031
0.287812
0.345815
0.411565
0.439141
0.471043
0.41972
0.555185
0.36766
0.898703
0.497246
0.330015
0.822921
0.506465
0.233236
0.0802154
-0.70135
-1.09024
-1.42474
-1.52149
-1.42582
-1.17169
-0.731248
-0.0984846
0.896676
2.06393
2.39716
2.43702
2.24665
1.96207
1.50342
1.34758
1.70599
-0.00145443
-0.0087301
-0.0100906
-0.00713886
-0.00242356
0.00367489
0.00772165
0.000286475
-0.017752
-0.0457096
-0.0808969
-0.126376
-0.0976395
-0.0226938
0.0584147
0.0704162
0.0212389
0.0793603
0.083729
0.33718
0.640968
0.717404
0.757899
0.649722
0.434215
0.16138
-0.087712
-0.261946
-0.421002
-0.440303
-0.214005
-0.17231
-0.347342
0.00769046
-0.0359856
0.163519
0.262715
0.201557
0.185485
0.281556
0.148812
0.0941338
0.125489
0.166946
0.205766
0.254484
0.297253
0.328817
0.386078
0.454694
0.488461
0.525753
0.47363
0.617096
0.423732
0.961132
0.586218
0.39376
0.874929
0.561108
0.303764
0.104367
-0.693813
-1.13272
-1.56899
-1.70308
-1.57807
-1.2973
-0.809216
-0.108468
0.964409
2.22464
2.59225
2.61077
2.38364
2.0977
1.65244
1.5207
1.97619
-0.00267167
-0.00680582
-0.00610511
0.000273819
0.00905846
0.0195477
0.0263239
0.0167743
-0.00698571
-0.0417729
-0.0790551
-0.129139
-0.101791
-0.0274719
0.0502922
0.0635188
0.0120913
0.0769085
0.078774
0.321137
0.684715
0.747101
0.804237
0.693926
0.481014
0.211449
-0.0383386
-0.217942
-0.402416
-0.463178
-0.266951
-0.233792
-0.400071
-0.053175
-0.0956932
0.0845503
0.211567
0.176416
0.167805
0.264341
0.165074
0.121924
0.156555
0.201253
0.242497
0.291079
0.334327
0.368698
0.425088
0.494913
0.533071
0.576301
0.524709
0.673897
0.476863
1.01749
0.670328
0.455027
0.927052
0.621506
0.378716
0.132049
-0.686397
-1.16544
-1.68845
-1.86519
-1.70775
-1.40349
-0.874644
-0.113418
1.02484
2.37303
2.77392
2.77047
2.51367
2.22334
1.80145
1.69888
2.18864
-0.00380749
-0.00478967
-0.00176238
0.00820202
0.0210902
0.0359647
0.0465287
0.0369958
0.00736691
-0.0367653
-0.0771822
-0.133272
-0.106239
-0.0322985
0.0412229
0.0547137
0.00497202
0.075108
0.0712264
0.306425
0.72381
0.78047
0.850017
0.736411
0.528377
0.263097
0.0100749
-0.175866
-0.384539
-0.487481
-0.327012
-0.302514
-0.459686
-0.125596
-0.171217
-0.00364657
0.15007
0.14692
0.147782
0.244685
0.176065
0.146113
0.185725
0.234711
0.27892
0.328401
0.372202
0.409122
0.464785
0.535334
0.576838
0.626744
0.577336
0.730222
0.529491
1.07198
0.749018
0.517493
0.978237
0.684202
0.456585
0.16234
-0.680372
-1.19123
-1.78677
-2.00798
-1.82025
-1.49319
-0.929096
-0.121952
1.0793
2.50988
2.94754
2.92185
2.64166
2.34359
1.95301
1.89018
2.40451
-0.00473573
-0.00253987
0.00309793
0.0168309
0.033927
0.0533726
0.0686171
0.0605831
0.0246271
-0.0302513
-0.0758061
-0.137995
-0.110613
-0.0371964
0.030863
0.0443299
0.000521134
0.0749131
0.0618771
0.293913
0.758267
0.815982
0.893546
0.778762
0.573755
0.31293
0.0534331
-0.13717
-0.371669
-0.513993
-0.394949
-0.378913
-0.526986
-0.209535
-0.25809
-0.0978631
0.0818604
0.113849
0.126767
0.223702
0.182284
0.166337
0.212054
0.265773
0.313237
0.36418
0.408959
0.44817
0.503477
0.573973
0.617792
0.674527
0.628537
0.783777
0.579413
1.12119
0.818591
0.580669
1.02977
0.75069
0.535933
0.197251
-0.672277
-1.2066
-1.86102
-2.12782
-1.9143
-1.56527
-0.974311
-0.136627
1.13045
2.63368
3.1095
3.06213
2.76476
2.45552
2.09924
2.07804
2.62241
-0.00540869
3.3127e-05
0.0085945
0.026283
0.0477713
0.072001
0.0923469
0.0866159
0.0440558
-0.0206614
-0.0733407
-0.141593
-0.11436
-0.0421843
0.0192966
0.0331314
-0.00234896
0.0761028
0.0524432
0.285866
0.793427
0.852533
0.935084
0.82338
0.618481
0.361437
0.0938433
-0.100717
-0.365286
-0.543749
-0.468736
-0.461625
-0.603639
-0.306266
-0.355847
-0.198804
0.00729618
0.0757094
0.104371
0.202477
0.185967
0.184658
0.237182
0.296044
0.34727
0.400115
0.446317
0.487836
0.543054
0.613467
0.658982
0.722524
0.682024
0.839804
0.629934
1.16729
0.881517
0.646002
1.08164
0.819431
0.617457
0.237411
-0.661153
-1.21546
-1.91497
-2.2247
-1.99123
-1.6219
-1.01335
-0.14457
1.18352
2.7477
3.26331
3.19713
2.88953
2.57174
2.2518
2.27628
2.82335
-0.00577044
0.0029945
0.0147002
0.0364488
0.0624454
0.0915102
0.116817
0.113418
0.0645037
-0.00751136
-0.0688715
-0.143233
-0.117203
-0.047287
0.00739501
0.0212466
-0.0046542
0.0770424
0.0428385
0.280765
0.82798
0.886019
0.973779
0.870749
0.663818
0.40993
0.13159
-0.0691302
-0.368104
-0.578437
-0.547106
-0.551082
-0.689411
-0.413336
-0.461578
-0.303971
-0.0721057
0.0322556
0.0806582
0.181576
0.1871
0.200691
0.26017
0.324212
0.379536
0.434586
0.48245
0.526433
0.581623
0.651742
0.698871
0.7682
0.734294
0.89554
0.679166
1.20964
0.938174
0.710569
1.13477
0.89174
0.699164
0.28328
-0.64157
-1.21667
-1.94804
-2.29703
-2.04928
-1.66387
-1.04854
-0.13919
1.23966
2.84937
3.40561
3.32451
3.01023
2.68864
2.41192
2.46488
3.06866
-0.00578853
0.00633128
0.0214067
0.0472567
0.077853
0.111806
0.141418
0.140003
0.0857172
0.00918551
-0.0610968
-0.142395
-0.118809
-0.0521775
-0.00438146
0.00965339
-0.00757543
0.0775958
0.0332466
0.277337
0.861403
0.916929
1.01053
0.92117
0.712034
0.460709
0.170106
-0.0418659
-0.378297
-0.619343
-0.631161
-0.64966
-0.785837
-0.531556
-0.575946
-0.414813
-0.15782
-0.01698
0.0551733
0.16101
0.186759
0.215848
0.282466
0.352002
0.411882
0.469519
0.519372
0.565998
0.621329
0.691385
0.740327
0.814546
0.788356
0.954604
0.731
1.25386
0.993613
0.777139
1.18807
0.96697
0.783236
0.336528
-0.612661
-1.21364
-1.96296
-2.34402
-2.08855
-1.69321
-1.07667
-0.125454
1.29923
2.942
3.53895
3.44833
3.13084
2.81343
2.57883
2.66612
3.27176
-0.0054509
0.0100535
0.0286306
0.0585351
0.0937094
0.132479
0.165691
0.166039
0.107249
0.0281001
-0.0508896
-0.139262
-0.119175
-0.0567244
-0.0159459
-0.0019245
-0.0116883
0.0785947
0.024265
0.273326
0.891195
0.945371
1.04475
0.973508
0.763194
0.51351
0.210038
-0.0220998
-0.395505
-0.666085
-0.719427
-0.758822
-0.89116
-0.658807
-0.695742
-0.528727
-0.248398
-0.0710464
0.0271827
0.139931
0.184334
0.229078
0.3031
0.378191
0.442856
0.503279
0.555503
0.604754
0.660259
0.730274
0.781294
0.859093
0.840971
1.01371
0.783387
1.30008
1.04818
0.843135
1.24165
1.0462
0.867053
0.394849
-0.574869
-1.20528
-1.95947
-2.36516
-2.10925
-1.70934
-1.09328
-0.106118
1.36168
3.02354
3.66046
3.56573
3.24817
2.93772
2.74173
2.86963
3.48788
-0.00478643
0.0141141
0.0363471
0.0702683
0.110037
0.153571
0.190313
0.192193
0.129901
0.0476103
-0.0420778
-0.133881
-0.11796
-0.060578
-0.0267253
-0.0132463
-0.0161474
0.0804152
0.0172442
0.269549
0.91828
0.972439
1.07656
1.02607
0.817159
0.56861
0.25316
-0.0113765
-0.421302
-0.719368
-0.811658
-0.878504
-1.00713
-0.796379
-0.8225
-0.647865
-0.34478
-0.13078
-0.00451764
0.117977
0.181155
0.241428
0.323732
0.404666
0.474423
0.53792
0.593008
0.644803
0.700587
0.770881
0.823828
0.905343
0.895872
1.07655
0.83978
1.35323
1.10611
0.913583
1.29897
1.12987
0.954376
0.459129
-0.52989
-1.19056
-1.93872
-2.35987
-2.10931
-1.70877
-1.09588
-0.0793043
1.42624
3.09377
3.77133
3.67924
3.36607
3.06488
2.90614
3.0713
3.75191
-0.00378166
0.0184975
0.044443
0.0823037
0.12657
0.174879
0.21537
0.218192
0.153163
0.0647321
-0.0378357
-0.127914
-0.115356
-0.0637816
-0.0366154
-0.0237825
-0.0199854
0.082078
0.0117586
0.264349
0.940672
0.997909
1.1049
1.07793
0.87346
0.62412
0.299205
-0.0105372
-0.458106
-0.780247
-0.907625
-1.00425
-1.13124
-0.941441
-0.952865
-0.770006
-0.445198
-0.195771
-0.0394572
0.0950646
0.176675
0.251928
0.343313
0.430169
0.505113
0.571897
0.629993
0.684168
0.740239
0.81099
0.865655
0.951504
0.950003
1.13883
0.896392
1.41173
1.16638
0.987818
1.36086
1.21865
1.04155
0.524618
-0.478684
-1.16842
-1.90108
-2.33095
-2.08961
-1.69232
-1.08735
-0.046871
1.49006
3.15153
3.86857
3.78534
3.48084
3.18832
3.07125
3.28313
3.97193
-0.00248136
0.0231363
0.0529088
0.0947185
0.143513
0.196488
0.240711
0.243933
0.176845
0.0801494
-0.0364518
-0.122275
-0.111505
-0.0662215
-0.0452656
-0.0331519
-0.0229591
0.0831108
0.0065286
0.25667
0.958821
1.02237
1.12985
1.1277
0.930668
0.679808
0.347537
-0.0212738
-0.507587
-0.851308
-1.01139
-1.13533
-1.26478
-1.09476
-1.08873
-0.896572
-0.549992
-0.265807
-0.0771095
0.07176
0.172161
0.262526
0.363551
0.456598
0.536951
0.607365
0.668491
0.724932
0.781441
0.853007
0.90934
1.00072
1.00658
1.20319
0.956256
1.47854
1.23235
1.07113
1.42883
1.31388
1.13376
0.595353
-0.420226
-1.13677
-1.84591
-2.27857
-2.04852
-1.65843
-1.06612
-0.00802748
1.5504
3.20167
3.95172
3.88602
3.59456
3.31168
3.24202
3.50816
4.19976
-0.0008869
0.0279888
0.0616036
0.107439
0.160479
0.218096
0.265686
0.269013
0.201092
0.0935538
-0.0373035
-0.117072
-0.106975
-0.0681415
-0.0527552
-0.0415438
-0.0251888
0.0842678
0.00123905
0.244955
0.970712
1.04565
1.15251
1.17422
0.986724
0.737507
0.394354
-0.0468056
-0.569192
-0.930061
-1.12253
-1.26979
-1.40458
-1.25221
-1.22877
-1.02477
-0.656749
-0.339338
-0.117521
0.0478996
0.166764
0.272598
0.383458
0.482519
0.568264
0.64239
0.70652
0.765044
0.822067
0.894798
0.95314
1.04979
1.06224
1.26576
1.01648
1.54925
1.302
1.15818
1.50077
1.41461
1.22658
0.667165
-0.355722
-1.0961
-1.77463
-2.20573
-1.98961
-1.60991
-1.03351
0.0350685
1.60375
3.24658
4.01537
3.98005
3.70249
3.4298
3.41039
3.73122
4.43548
0.000985295
0.0330339
0.0706502
0.120724
0.177614
0.24014
0.290415
0.29358
0.226418
0.104678
-0.039242
-0.111191
-0.101983
-0.0694329
-0.0591665
-0.0489555
-0.0266837
0.0857159
-0.00396436
0.229528
0.97781
1.06707
1.17335
1.21677
1.0403
0.799157
0.43809
-0.0880254
-0.642471
-1.01735
-1.24247
-1.41076
-1.55138
-1.41366
-1.37395
-1.15585
-0.765867
-0.41621
-0.161098
0.0237149
0.162019
0.283988
0.404953
0.510273
0.601148
0.679072
0.746404
0.806786
0.864602
0.938904
0.999862
1.10124
1.12047
1.33004
1.08114
1.62494
1.37873
1.25334
1.58093
1.52313
1.32752
0.747433
-0.28177
-1.04383
-1.68588
-2.11344
-1.909
-1.54386
-0.985917
0.0842853
1.64848
3.28082
4.0557
4.07253
3.80948
3.54801
3.58279
3.9625
4.66088
0.00314579
0.0383259
0.0800244
0.13441
0.195079
0.262391
0.315248
0.317031
0.251384
0.113679
-0.040805
-0.105201
-0.09711
-0.0704378
-0.0649112
-0.0552941
-0.027529
0.0879129
-0.00944781
0.211817
0.979687
1.08655
1.19427
1.25595
1.09198
0.864789
0.473985
-0.143083
-0.724347
-1.11207
-1.36849
-1.55754
-1.70086
-1.57404
-1.52093
-1.28714
-0.875553
-0.495158
-0.207722
-0.00100096
0.157099
0.295324
0.426559
0.53854
0.634023
0.715557
0.786177
0.848061
0.907022
0.983041
1.04691
1.15187
1.17774
1.39203
1.14603
1.70093
1.46035
1.35352
1.66596
1.63714
1.43105
0.831166
-0.200088
-0.981642
-1.58369
-2.00581
-1.81387
-1.46903
-0.926431
0.138073
1.687
3.2876
4.08591
4.16284
3.91584
3.66653
3.75413
4.18266
4.92548
0.00564479
0.0438941
0.0896244
0.148407
0.21349
0.284857
0.34071
0.339407
0.275138
0.122455
-0.0405645
-0.0989264
-0.0923431
-0.0713038
-0.0701387
-0.0604198
-0.0282306
0.0905309
-0.0160527
0.1932
0.977278
1.10289
1.21414
1.29033
1.14094
0.931206
0.490868
-0.211408
-0.815351
-1.21703
-1.50144
-1.71051
-1.85242
-1.73326
-1.66959
-1.419
-0.985911
-0.575219
-0.25584
-0.0256945
0.153403
0.308347
0.450311
0.56927
0.669637
0.754519
0.828151
0.891454
0.952064
1.0297
1.09666
1.20425
1.23647
1.45494
1.2135
1.7796
1.55077
1.4625
1.75962
1.75887
1.54533
0.927265
-0.103908
-0.905799
-1.46806
-1.88132
-1.70698
-1.38413
-0.8527
0.199268
1.72594
3.26239
4.12295
4.2556
4.02434
3.79305
3.93168
4.41219
5.15707
0.00845761
0.0496415
0.0991287
0.162236
0.232502
0.307776
0.366153
0.360366
0.297043
0.131644
-0.0394477
-0.0927661
-0.0878957
-0.072158
-0.0745734
-0.0637028
-0.028814
0.0937454
-0.0233375
0.175298
0.969352
1.11553
1.23134
1.3202
1.18748
0.990632
0.476721
-0.29099
-0.913912
-1.32979
-1.63824
-1.86529
-2.00296
-1.88827
-1.81575
-1.54786
-1.09447
-0.654929
-0.304539
-0.0505693
0.149896
0.321686
0.474715
0.600565
0.706231
0.794296
0.870242
0.935056
0.997499
1.07635
1.1462
1.25543
1.29308
1.51494
1.27842
1.85813
1.64765
1.57456
1.85714
1.88523
1.6633
1.02909
0.00664367
-0.820347
-1.34958
-1.74878
-1.60037
-1.29222
-0.768651
0.267577
1.76037
3.23763
4.16069
4.34489
4.1322
3.92683
4.10998
4.64068
5.3962
0.0115231
0.0555801
0.108756
0.175909
0.251564
0.331003
0.391042
0.380618
0.318226
0.140871
-0.0372553
-0.0860638
-0.0834399
-0.0723563
-0.0773982
-0.0646893
-0.0294153
0.0968495
-0.0297658
0.159419
0.955889
1.12125
1.24394
1.34327
1.22787
1.03252
0.431878
-0.380862
-1.02078
-1.45073
-1.77974
-2.02035
-2.15227
-2.0394
-1.95776
-1.67262
-1.20046
-0.733443
-0.352935
-0.0746765
0.148249
0.337321
0.501835
0.634853
0.74577
0.837214
0.915248
0.981712
1.04589
1.12545
1.19812
1.30816
1.35115
1.57545
1.34519
1.94295
1.75544
1.69422
1.96366
2.02083
1.79411
1.14626
0.137971
-0.718821
-1.22853
-1.60839
-1.48578
-1.18624
-0.67209
0.34626
1.79416
3.23233
4.19824
4.4301
4.24089
4.07155
4.29457
4.8628
5.67555
0.0147494
0.0616694
0.118653
0.189759
0.270229
0.353432
0.414519
0.4002
0.336221
0.146675
-0.033793
-0.0790566
-0.0790762
-0.0717133
-0.0782833
-0.0635671
-0.0292864
0.0999004
-0.0345747
0.147796
0.936097
1.11952
1.24867
1.36112
1.26185
1.04819
0.362434
-0.477817
-1.13151
-1.57585
-1.92304
-2.17154
-2.29463
-2.18259
-2.09144
-1.78986
-1.30202
-0.80977
-0.400862
-0.0977604
0.147277
0.353353
0.529559
0.669943
0.785963
0.880838
0.960965
1.02897
1.09457
1.17427
1.24933
1.35967
1.40744
1.63319
1.41033
2.0324
1.8712
1.81815
2.07371
2.16194
1.92846
1.27028
0.276891
-0.604938
-1.10694
-1.46548
-1.36707
-1.07721
-0.570874
0.432192
1.83195
3.24221
4.23642
4.50691
4.34656
4.2227
4.4792
5.08412
5.91693
0.0181292
0.0677702
0.128795
0.203854
0.288516
0.374856
0.436377
0.419932
0.347126
0.146715
-0.0283139
-0.0717789
-0.0747785
-0.0701414
-0.0775329
-0.0613955
-0.0285226
0.102298
-0.0386859
0.140518
0.90942
1.10843
1.2369
1.3715
1.2976
1.03722
0.274267
-0.58159
-1.24564
-1.70449
-2.06629
-2.31637
-2.4267
-2.31549
-2.2148
-1.89839
-1.39841
-0.883187
-0.446702
-0.11849
0.148234
0.371586
0.560023
0.708142
0.82936
0.927683
1.00999
1.07941
1.14616
1.2255
1.30263
1.41233
1.46563
1.69199
1.47869
2.12982
1.99884
1.95655
2.19509
2.3148
2.07586
1.41079
0.426659
-0.472762
-0.973931
-1.31062
-1.23715
-0.965793
-0.464252
0.526198
1.87809
3.26405
4.28045
4.57791
4.44978
4.38004
4.66884
5.31062
6.15622
0.021604
0.0737312
0.139028
0.217771
0.306371
0.395443
0.45586
0.437682
0.350259
0.14254
-0.0210751
-0.0647224
-0.0706772
-0.068111
-0.0756105
-0.0583409
-0.0265775
0.104616
-0.0418888
0.140206
0.876976
1.08861
1.21303
1.37777
1.33732
1.00256
0.17569
-0.688595
-1.36025
-1.83248
-2.20416
-2.4497
-2.54437
-2.43415
-2.3243
-1.99567
-1.48816
-0.952725
-0.490097
-0.138029
0.149171
0.390073
0.591065
0.746947
0.873378
0.97522
1.05966
1.13037
1.19795
1.27651
1.35508
1.46329
1.52196
1.74749
1.54483
2.23102
2.134
2.10823
2.32321
2.47354
2.22482
1.55418
0.577502
-0.332102
-0.833877
-1.14992
-1.10715
-0.857595
-0.36079
0.623898
1.93115
3.29518
4.32783
4.64069
4.54827
4.53716
4.85639
5.52863
6.39761
0.02518
0.0796239
0.149258
0.231305
0.323895
0.414746
0.472189
0.453187
0.350104
0.138015
-0.0125096
-0.0578877
-0.0663971
-0.0657705
-0.0725109
-0.0545373
-0.0236295
0.105864
-0.0440416
0.148712
0.842096
1.05939
1.17997
1.38078
1.36911
0.941163
0.0711397
-0.798732
-1.47646
-1.95915
-2.33332
-2.56862
-2.64626
-2.53669
-2.41699
-2.07984
-1.5701
-1.01687
-0.53024
-0.155497
0.152096
0.410998
0.624916
0.788757
0.920532
1.02603
1.11264
1.18477
1.25277
1.33037
1.40961
1.51635
1.58
1.80375
1.61228
2.33375
2.28005
2.27907
2.46758
2.64633
2.38359
1.70635
0.734188
-0.173608
-0.681996
-0.977611
-0.967881
-0.737791
-0.252895
0.726104
1.99765
3.33673
4.37723
4.69788
4.64443
4.69367
5.04664
5.75005
6.62712
0.0288787
0.0856361
0.159511
0.244684
0.34094
0.432046
0.485329
0.466273
0.347961
0.134912
-0.00349403
-0.0513014
-0.062071
-0.0631433
-0.0682278
-0.0499945
-0.0193988
0.105918
-0.0442652
0.168767
0.80985
1.02668
1.14322
1.38703
1.37359
0.851507
-0.0386969
-0.909215
-1.59144
-2.08053
-2.44945
-2.66923
-2.73051
-2.62126
-2.49065
-2.14973
-1.64331
-1.07539
-0.567748
-0.171592
0.155767
0.432502
0.659132
0.830836
0.96808
1.07733
1.16605
1.23987
1.30772
1.38446
1.46331
1.56893
1.63573
1.85643
1.67628
2.4298
2.43257
2.46326
2.6227
2.82324
2.5358
1.84664
0.875959
-0.00598457
-0.532004
-0.807557
-0.823081
-0.608055
-0.133071
0.829121
2.07197
3.38308
4.42299
4.74944
4.73584
4.84391
5.23218
5.95709
6.8755
0.0326142
0.0916904
0.169685
0.257847
0.356819
0.447038
0.497029
0.47575
0.341889
0.134134
0.00583612
-0.0451515
-0.0579387
-0.0598667
-0.0629772
-0.0451696
-0.0148986
0.103845
-0.0431817
0.197157
0.783598
0.991229
1.10201
1.39013
1.35
0.733888
-0.158551
-1.02154
-1.70547
-2.19491
-2.55015
-2.75016
-2.7974
-2.68647
-2.54397
-2.20418
-1.70649
-1.12736
-0.601359
-0.184687
0.162664
0.456917
0.695862
0.875631
1.01858
1.13184
1.22267
1.29844
1.36559
1.44172
1.51931
1.62395
1.69267
1.90824
1.74111
2.51824
2.59609
2.6703
2.79546
3.01168
2.69236
1.96908
0.99751
0.17896
-0.378529
-0.639804
-0.663482
-0.458926
0.0138348
0.944589
2.1572
3.43618
4.465
4.79951
4.82257
4.98951
5.41791
6.16934
7.09741
0.0365247
0.0976151
0.179671
0.270615
0.370959
0.459041
0.50681
0.479443
0.333886
0.134449
0.0145234
-0.0396234
-0.0541465
-0.0560174
-0.0570711
-0.0397872
-0.00994837
0.100756
-0.039304
0.233514
0.767004
0.959778
1.05728
1.38193
1.29587
0.594011
-0.289568
-1.1338
-1.81461
-2.29836
-2.63306
-2.81052
-2.84781
-2.73237
-2.57835
-2.24406
-1.75956
-1.17333
-0.631883
-0.195687
0.17121
0.481827
0.732493
0.920328
1.06916
1.18665
1.27962
1.35724
1.42346
1.49899
1.57453
1.67804
1.74677
1.95548
1.79824
2.58982
2.76712
2.8982
2.97677
3.20135
2.84077
2.06137
1.09448
0.354149
-0.233592
-0.489913
-0.503748
-0.298484
0.185015
1.07745
2.25088
3.49065
4.49819
4.84481
4.90265
5.12746
5.59754
6.37767
7.30929
0.0404423
0.103033
0.188969
0.282065
0.382366
0.467538
0.514187
0.478688
0.327284
0.135525
0.0216933
-0.0342749
-0.0501808
-0.0517921
-0.0506017
-0.0340983
-0.00419266
0.0968663
-0.0322648
0.275042
0.760979
0.931727
1.00266
1.35631
1.20764
0.436038
-0.432179
-1.2475
-1.91818
-2.39077
-2.69863
-2.85208
-2.88367
-2.75988
-2.5949
-2.26969
-1.80172
-1.21233
-0.658075
-0.202532
0.183626
0.50945
0.771368
0.967497
1.12246
1.2445
1.33987
1.41916
1.48442
1.55912
1.63195
1.73425
1.80157
2.00309
1.85002
2.64278
2.95139
3.15604
3.1774
3.40642
2.99195
2.14705
1.19692
0.515561
-0.0893196
-0.344594
-0.341035
-0.119296
0.38195
1.23451
2.3599
3.55058
4.52305
4.88594
4.97844
5.26189
5.77599
6.58067
7.53978
0.0433777
0.107886
0.197168
0.291365
0.390299
0.472836
0.517949
0.473293
0.321861
0.137556
0.0273568
-0.0290629
-0.0460254
-0.0474726
-0.0435465
-0.0276533
0.0042198
0.0941715
-0.0207179
0.323277
0.766904
0.915235
0.942753
1.30743
1.08545
0.267784
-0.579919
-1.35911
-2.01286
-2.46988
-2.7475
-2.87839
-2.90707
-2.7736
-2.59881
-2.28477
-1.83472
-1.24548
-0.680958
-0.206316
0.197702
0.537128
0.809799
1.01427
1.17558
1.30235
1.4004
1.48096
1.54551
1.61879
1.68842
1.78897
1.85318
2.04915
1.89292
2.67788
3.14656
3.43457
3.39
3.61821
3.13013
2.22658
1.30765
0.644239
0.0450803
-0.207382
-0.182303
0.0720633
0.595934
1.41149
2.48186
3.61376
4.53987
4.92117
5.05039
5.39259
5.946
6.77848
7.73479
0.0461078
0.111837
0.203402
0.297273
0.39395
0.475167
0.518071
0.465839
0.317231
0.139358
0.0316376
-0.0244622
-0.0418722
-0.0433194
-0.0363675
-0.0202901
0.0145663
0.0938124
-0.00309234
0.379693
0.787814
0.909739
0.880668
1.23541
0.932377
0.0921306
-0.730931
-1.46922
-2.09964
-2.53598
-2.78251
-2.89657
-2.91739
-2.77573
-2.59248
-2.29131
-1.85836
-1.27213
-0.698393
-0.205002
0.215255
0.567064
0.850105
1.06315
1.23118
1.36282
1.46402
1.54555
1.60965
1.68087
1.74691
1.84506
1.90499
2.0969
1.93494
2.70626
3.36018
3.73785
3.62958
3.85164
3.27019
2.3087
1.43506
0.755384
0.176781
-0.0744883
-0.0146528
0.28506
0.834019
1.61265
2.62077
3.68416
4.55535
4.95328
5.12145
5.52265
6.11062
6.97494
7.90933
0.0492314
0.114616
0.207041
0.299274
0.393886
0.474743
0.514883
0.458262
0.313157
0.140069
0.0349597
-0.020547
-0.0378334
-0.0393823
-0.0293128
-0.0112967
0.0260077
0.0982026
0.024302
0.450217
0.831171
0.925907
0.829431
1.13699
0.757254
-0.0855375
-0.877582
-1.57287
-2.17656
-2.58838
-2.80576
-2.90796
-2.9138
-2.76779
-2.58015
-2.29359
-1.8746
-1.29384
-0.711187
-0.200548
0.233609
0.596553
0.889558
1.11132
1.28641
1.42288
1.5275
1.60969
1.67359
1.74224
1.80431
1.89922
1.95313
2.14063
1.97321
2.72954
3.59154
4.0576
3.89076
4.08901
3.39777
2.37263
1.54184
0.844656
0.277951
0.0263485
0.14771
0.516645
1.09455
1.83203
2.77003
3.75792
4.5723
4.98254
5.18895
5.64631
6.26293
7.15179
8.0544
0.0519832
0.115442
0.207444
0.297728
0.39189
0.473257
0.510551
0.451701
0.309302
0.14035
0.038017
-0.0168361
-0.0340878
-0.0356234
-0.0225224
-0.000798452
0.0370241
0.106963
0.0641558
0.538185
0.904636