/*--------------------------------*- C++ -*----------------------------------*\
| =========                 |                                                 |
| \\      /  F ield         | OpenFOAM: The Open Source CFD Toolbox           |
|  \\    /   O peration     | Version:  4.1                                   |
|   \\  /    A nd           | Web:      www.OpenFOAM.org                      |
|    \\/     M anipulation  |                                                 |
\*---------------------------------------------------------------------------*/
FoamFile
{
    version     2.0;
    format      ascii;
    class       surfaceScalarField;
    location    "21";
    object      phi;
}
// * * * * * * * * * * * * * * * * * * * * * * * * * * * * * * * * * * * * * //

dimensions      [0 3 -1 0 0 0 0];

internalField   nonuniform List<scalar> 
13220
(
-949.88
2249.78
-1573.95
1924.27
-2054
1779.94
-2424.23
1670.13
-2699.85
1575.82
-2888.37
1488.42
-2993.05
1404.58
-3013.85
1321
-2949.61
1235.66
-2797.23
1147.52
-2551.17
1054.13
-2193.01
941.734
-1687.18
794.061
-1012.68
625.693
287.221
373.339
1876.43
442.737
1854.84
437.3
1785.37
406.685
1700.71
380.577
1601.92
359.888
1509.07
345.292
1419.16
337.529
1328.73
333.482
1239.68
326.949
1154.02
309.622
1071.44
267.467
983.839
191.415
870.064
111.424
705.638
398.646
33.6102
1842.8
-97.397
1985.81
-253.616
1941.58
-371.144
1818.21
-473.191
1703.97
-567.557
1603.41
-651.767
1503.37
-725.825
1402.77
-788.092
1301.96
-837.311
1203.25
-868.238
1102.37
-856.069
971.746
-740.325
754.395
-434.273
399.665
-35.6278
28.8927
1813.92
-100.562
2115.25
-225.429
2066.47
-304.367
1897.13
-367.982
1767.61
-416.778
1652.19
-445.998
1532.63
-456.782
1413.54
-451.577
1296.77
-429.879
1181.53
-386.917
1059.43
-311.658
896.394
-192.796
635.42
-48.4469
255.201
-84.0746
169.916
1644.03
146.483
2138.66
124.097
2088.9
123.222
1897.98
127.369
1763.51
136.22
1643.3
149.562
1519.31
167.003
1396.04
187.352
1276.41
208.49
1160.34
229.349
1038.45
244.088
881.756
233.192
646.319
155.344
333.045
71.2645
223.839
1420.24
245.186
2117.31
235.834
2098.35
237.085
1896.7
241.557
1759.11
245.492
1639.31
247.815
1517.02
246.484
1397.28
242.414
1280.44
235.15
1167.44
222.602
1050.97
199.982
903.917
156.502
689.255
78.2722
410.756
149.538
205.101
1215.19
240.929
2081.43
216.16
2123.15
193.722
1919.06
179.54
1773.29
166.027
1652.72
152.227
1530.77
137.911
1411.47
122.894
1295.35
108.559
1181.71
94.0348
1065.24
76.9908
921.265
52.9736
713.461
19.5499
444.337
169.08
175.757
1039.47
228.124
2028.96
205.769
2145.6
176.205
1948.49
157.833
1791.67
143.31
1667.05
128.338
1545.65
113.909
1425.68
100.739
1308.36
87.9084
1194.21
76.1628
1076.93
62.2136
934.33
42.4304
732.254
16.3825
469.486
185.467
153.751
885.719
223.2
1959.33
210.519
2158.28
182.355
1976.48
164.3
1809.78
151.039
1680.14
138.227
1558.46
124.338
1439.39
111.079
1321.55
98.3791
1206.9
84.6773
1090.37
69.9888
949.716
49.5979
753.222
22.1284
497.46
207.583
131.757
753.816
211.624
1879.04
208.418
2161.56
180.068
2004.46
161.296
1828.59
146.778
1694.29
133.285
1571.97
119.58
1452.76
105.606
1335.41
91.8359
1220.17
78.8529
1103.36
62.4748
964.667
41.7453
772.448
16.8065
521.028
224.393
109.974
643.465
194.873
1793.28
201.808
2154.47
175.145
2030.31
156.134
1847.4
142.87
1706.74
129.552
1585.01
115.437
1466.08
101.666
1348.77
87.1002
1234.29
72.177
1117.43
57.791
979.898
38.9431
791.746
16.7254
543.613
241.092
98.2009
544.868
185.382
1704.9
201.252
2138.67
173.912
2056.57
147.557
1873.57
128.802
1724.4
114.459
1598.91
100.207
1479.39
87.7972
1360.62
76.0816
1244.83
65.2785
1128.01
50.8429
991.464
31.7952
807.68
9.60458
562.918
250.67
91.245
455.524
221.846
1574.74
266.578
2095.15
262.024
2061.32
260.51
1875.77
261.348
1723.6
256.397
1603.93
244.535
1491.28
225.808
1378.85
203.044
1267.01
176.644
1153.54
143.651
1022.66
102.834
845.765
52.4013
610.642
303.011
122.308
336.609
223.344
1473.38
257.606
2062.67
202.423
2115.7
128.875
1950.15
73.5507
1777.33
45.8042
1631.36
33.4723
1500.97
32.959
1377.58
37.3765
1259.93
43.7588
1144.27
45.9923
1017.27
31.1183
853.913
8.39925
626.716
311.132
-211.902
215.147
793.853
1245.45
1475.64
1585.69
1569.23
1504.3
1371.06
1218.43
1037.83
830.319
593.943
298.375
-6.23699
905.062
-926.605
896.361
879.111
879.68
1690.35
-817.641
1692.67
1689.53
1693.18
2367.13
-676.118
2369.31
2368.48
2892.59
-522.289
2893.59
2894.88
2895.61
3271.39
-375.346
3272.52
3272.28
3518.61
-245.631
3518.11
3518.27
3517.57
3642.2
-124.393
3641.17
3641.72
3640.45
3655.54
-16.1846
3653.35
3653.26
3579.4
71.9681
3579.85
3577.29
3578.37
3389.8
186.052
3389.67
3386.76
3118.64
268.533
3115.19
3114.66
3112.09
2742.72
369.289
2739.48
2739.06
2736.43
2360.92
374.695
2357.91
2357.64
2015.41
340.003
2014.61
2012.22
2012.04
1635.64
374.603
1634.58
1632.71
1631.97
1166.61
463.988
1164.88
1163.99
589.463
572.984
587.639
585.31
585.542
-36.0165
615.425
-41.2885
-47.6063
-1057.79
1013.69
-1059.49
-1056.49
-1057.69
-2625.55
1569.99
-2625.37
-2623.35
-2624.12
-4578.66
1956.17
-4579.54
-4576.94
-6806.92
2229
-6803.93
-6804.38
-6694.24
-6577.92
-6452.85
-8751.25
2419.37
-8633.56
-8486.17
-8312.28
-8135.77
-7958.33
-7785.57
-7606.37
-7406.98
-9770.87
2561.75
-9559.21
-9352.25
-9147.44
-8920.07
-8690.07
-8458.17
-8225.89
-7995.97
-10342.7
2580.73
-10093
-9842.47
-9592.09
-9342.76
-9088.28
-8821.72
-8553.03
-8281.76
-8014.1
-10211.4
2453.86
-9930.38
-9647
-9363.63
-9081.25
-8801.6
-8506.69
-8203.79
-7903.77
-9757.48
2138.26
-9467.82
-9172.69
-8864.42
-8556.46
-8247.81
-7940.36
-7632.81
-7311.38
-8664.76
1663.17
-8353.57
-8044.31
-7736.54
-7416.48
-7089.69
-6764.43
-6440.77
-6126.59
-6810.11
995.669
-6494.37
-6180.73
-5869.58
-5560.55
-5256.48
-4966.09
-4682.42
-4405.77
-4141.33
-3856.72
-15.2649
-3633.47
-3431.92
-3235.46
-3042.53
-2843.77
-2677.85
-2575.96
-2483.14
-1958.5
-423.727
-1875.64
-1788
-1791.2
-1424.61
-373.593
-1072.81
-355.396
-1081.18
-745.606
-339.078
-754.868
-443.403
-317.846
-182.47
-273.222
-185.285
71.0861
-277.051
271.969
-211.755
240.798
414.03
-171.684
391.614
577.413
-180.144
695.537
-132.898
700.704
781.638
-94.2421
790.029
861.154
-81.7389
925.445
-53.0304
919.31
1001.01
-71.696
1016.97
-21.186
1026.78
1040.51
-15.7275
1050.53
1064.75
-13.3663
1090.37
-14.6569
1090.57
1125.51
-25.8377
1128.5
1165.7
-28.342
1198.21
-29.1647
1205.12
1247.55
-38.6164
1291.76
-37.9527
1293.92
1342.5
-43.6158
1344.71
1395.21
-45.1753
1440.17
-41.9519
1443.53
1496.92
-50.5688
1499.82
1550.15
-47.3515
1593.69
-41.3168
1595.74
1647.36
-49.5937
1693.07
-43.1653
1694.27
1743.62
-46.8123
1744.44
1794.35
-47.8283
1835.2
-40.4837
1836.1
1886.4
-50.2159
1887.59
1936.71
-48.8186
1978.41
-40.0612
1978.34
2031.39
-51.7952
2073.85
-42.7686
2074.35
2122.67
-48.7678
2123.41
2175.43
-52.4846
2218.17
-41.7728
2217.69
2272.52
-54.0136
2271.87
2328.62
-56.2989
2372.82
-44.9819
2372.85
2432.07
-59.81
2481.42
-49.505
2481.1
2539.8
-58.8571
2539.75
-71.7262
-28.8979
123.988
-38.593
192.342
-52.6062
327.002
-61.7405
496.723
-64.4958
680.357
-58.3798
891.568
-45.4729
1080.6
-28.2407
1202.07
-5.68489
1159.61
-1.15684
716.845
-2.92274
429.032
14.3302
539.463
14.2198
502.504
46.4048
414.614
70.2815
77.651
79.2298
-110.264
79.0487
-182.482
55.9599
-266.777
17.5374
-374.575
31.8722
2698.11
21.2128
2213.71
-25.3495
-500.252
-64.2996
-736.375
-48.433
742.384
-45.0352
723.935
-50.1632
596.596
-30.4481
700.271
6.40588
778.527
19.036
704.444
-0.502698
773.266
46.3212
943.306
103.215
468.429
171.263
128.282
218.811
-208.373
203.885
-504.111
133.136
-684.978
101.223
-171.223
91.3605
121.722
68.6332
-123.034
79.3748
593.057
113.545
745.473
127.258
678.749
129.976
556.07
130.673
434.016
130.549
340.276
129.765
215.396
132.462
84.6348
125.038
-303.794
111.991
-535.094
95.3819
-541.039
66.5267
-810.428
35.0319
-916.358
22.7666
-999.936
-10.2477
-1125.55
3.69631
-1374.72
43.2985
5280.9
37.1449
6180.47
7.31219
2473.96
-20.4249
1175.79
-40.5219
1457.69
-39.404
1970.3
-25.7591
2775.71
-49.7059
1566.36
-100.919
1527.19
-129.34
2001.03
-138.329
1912.84
-87.722
1694.01
-81.5904
-81.9908
-92.8781
-881.281
-102.565
-1396.71
-110.89
-1831.28
-131.96
-1760.64
-122.043
-624.873
-116.072
165.846
-91.0522
555.254
-79.1849
-303.801
30.4458
-950.596
96.1156
-1871.78
-2380.17
-28.7245
126.94
-38.9165
202.716
-51.0571
339.643
-59.2242
505.519
-62.1588
683.767
-56.7755
886.672
-44.5886
1068.91
-28.6245
1186.61
-11.3846
1142.96
-0.735627
707.123
6.72468
423.645
11.1605
536.642
11.0037
504.332
48.3324
378.777
71.4118
55.7087
76.0453
-113.361
72.577
-176.544
53.5147
-243.9
9.57481
-326.823
28.1832
2679.91
24.3814
2218.33
-26.7353
-446.928
-76.1992
-678.578
-56.8301
725.028
-44.6176
714.97
-39.2696
595.163
-15.1447
680.85
18.0715
749.651
21.3353
705.949
2.60845
797.195
64.3235
885.267
125.063
409.91
191.673
63.5236
230.314
-245.289
198.195
-470.363
108.047
-590.307
93.6468
-150.826
97.2092
124.261
45.1402
-63.1842
84.2258
558.323
114.123
720.407
128.395
669.858
131.792
558.883
132.074
440.983
135.456
345.105
138.276
222.604
149.289
84.9956
127.552
-267.89
106.329
-499.18
82.9928
-513.728
52.7784
-775.264
25.1684
-885.337
16.7791
-988.032
-6.51744
-1098.6
1.54158
-1382.14
31.2029
5251.29
29.3249
6183.94
-1.90206
2507.81
-17.0968
1192.84
-32.7387
1474.54
-40.9526
1981.05
-25.074
2761.11
-14.3146
1558.16
-71.7655
1585.68
-127.816
2051.1
-129.62
1910.79
-87.858
1630.41
-82.1015
-94.1432
-91.4549
-876.418
-103.115
-1388.21
-116.621
-1820.01
-148.437
-1730.74
-154.979
-621.951
-151.077
155.832
-89.1608
489.482
-65.5382
-336.047
92.2285
-1115.29
87.2453
-1867.3
-2352.11
-27.0841
131.283
-38.1259
213.66
-50.083
351.58
-57.6911
513.189
-60.2993
686.331
-55.0468
881.432
-43.3161
1057.29
-27.9883
1171.46
-11.1049
1126.14
-1.92059
697.934
3.7826
418.411
6.56016
534.113
10.7083
500.451
48.091
339.694
71.0984
31.967
75.7857
-118.725
71.1168
-173.528
51.4583
-229.504
8.72118
-286.971
26.3954
2662.24
18.2218
2226.29
-19.3496
-415.969
-66.4887
-654.955
-53.3477
710.527
-37.9413
699.296
-28.7121
585.617
-6.29624
658.842
19.398
724.12
18.1035
708.16
10.3298
806.192
75.9434
816.071
140.093
344.668
202.538
0.60678
236.776
-279.964
207.777
-441.936
123.766
-510.583
104.657
-130.171
104.081
126.526
53.5546
-12.0828
87.1223
525.698
113.918
694.777
126.753
658.162
129.75
557.101
129.651
442.381
132.722
343.342
135.415
221.373
142.007
78.8058
115.527
-249.125
94.6256
-495.252
70.5001
-494.152
45.6043
-756.721
23.2396
-867.115
15.9883
-984.568
-1.79211
-1084.18
0.604084
-1385.47
30.4826
5220.89
27.4909
6187.91
-6.3192
2542.98
-17.359
1204.62
-29.96
1487.79
-36.2217
1988.69
-13.0157
2738.29
-11.5984
1558.98
-79.8671
1656.7
-124.903
2094.52
-117.75
1904.38
-86.8804
1632.18
-80.4967
-89.5128
-88.54
-860.597
-105.218
-1366.67
-120.106
-1801.93
-135.814
-1712.76
-151.946
-601.681
-149.473
153.171
-75.6606
414.911
7.0331
-420.225
127.705
-1232.22
94.6572
-1833.27
-2306.42
-26.5152
137.351
-38.1587
225.541
-49.9993
363.896
-57.0583
520.819
-59.1843
688.888
-53.8044
876.494
-42.2172
1046.14
-26.9623
1156.65
-10.0545
1109.78
-3.50215
692.183
1.29203
415.444
2.91702
534.002
10.2795
495.208
48.7334
302.45
71.8228
10.2972
76.8598
-121.659
71.2328
-164.911
49.1698
-204.063
9.33988
-242.765
23.5144
2648.4
12.225
2237.67
-6.86585
-398.236
-57.8435
-608.262
-47.3387
699.994
-30.8335
684.773
-20.5555
578.059
-1.36492
643.473
20.666
705.814
17.3087
715.691
19.6129
809.461
89.6375
749.425
156.017
281.113
216.114
-56.8846
241.552
-302.864
211.103
-408.762
138.175
-432.286
114.64
-100.919
110.959
135.249
62.7409
41.7976
89.4836
503.046
113.531
675.151
125.21
651.272
127.604
560.081
126.73
449.404
128.913
348.075
130.769
227.797
134.428
84.2496
105.179
-209.952
84.3668
-462.789
64.5034
-470.816
41.0004
-729.172
21.4235
-844.595
14.5914
-974.44
1.17224
-1067
0.74847
-1384.44
30.7013
5190.92
27.3597
6192.62
-7.94364
2580.25
-16.1545
1213.78
-25.7494
1497.88
-29.4043
1994.38
-14.2652
2723.96
-25.4442
1571.56
-87.4282
1719.16
-119.587
2121.37
-109.179
1891.46
-86.0826
1596.97
-77.6826
-101.411
-83.8261
-856.931
-104.243
-1348.23
-128.437
-1779.44
-139.555
-1703.27
-143.695
-601.019
-137.962
141.132
-58.68
331.602
57.1082
-546.079
123.434
-1304.53
90.055
-1800.4
-2276.4
-26.3497
144.842
-38.6633
237.705
-50.3466
375.461
-56.8393
527.261
-58.4305
690.33
-52.8377
870.815
-41.247
1034.58
-25.8907
1141.39
-9.05608
1092.88
-3.43634
686.337
-1.00471
413.096
-2.24385
535.232
8.88384
483.863
49.9617
259.897
73.3352
-13.9148
78.6384
-127.868
73.0013
-161.506
47.6251
-184.984
9.55848
-208.922
20.5391
2637.3
8.54497
2249.12
2.9275
-401.454
-50.6789
-583.489
-40.4696
687.548
-23.9879
666.94
-13.6532
566.139
3.20053
625.773
21.9289
686.077
17.4549
720.037
30.2919
796.734
105.656
670.339
174.47
210.835
230.776
-114.031
250.037
-322.726
219.224
-378.725
151.626
-369.975
124.494
-73.3802
117.668
142.539
71.6214
86.8964
91.4028
483.363
112.873
653.958
123.648
640.61
125.605
558.094
124.132
450.681
125.197
346.568
126.027
226.281
126.895
80.9903
98.7043
-191.035
78.035
-460.857
59.1292
-456.612
37.3241
-714.174
20.3828
-832.043
14.0275
-971.994
3.52223
-1059.93
0.690275
-1382.88
31.1284
5159.8
27.517
6196.99
-9.16344
2617.77
-15.2721
1219.96
-22.5658
1505.29
-24.8759
1997.5
-18.8751
2717.92
-38.3965
1592.79
-89.3182
1772.89
-111.834
2143.3
-99.2602
1881.61
-80.8308
1610.54
-73.538
-97.355
-78.8446
-843.612
-100.598
-1321.49
-130.237
-1746.49
-143.158
-1688.13
-138.27
-601.105
-123.31
127.273
-42.934
251.326
74.6715
-663.454
109.284
-1332.52
92.6478
-1782.65
-2227.97
-26.6001
153.785
-39.5936
250.843
-50.9806
387.193
-56.8714
533.592
-57.8813
691.671
-52.011
865.314
-40.3112
1023.26
-24.7279
1126.21
-7.77417
1076.45
-2.71315
681.979
-6.62221
418.516
-12.9436
542.964
5.48422
468.531
51.9969
214.469
75.6695
-35.8863
81.5
-131.099
76.3917
-152.905
48.5009
-154.647
7.62438
-162.54
17.6554
2627.72
6.35951
2259.74
12.8929
-415.186
-43.9746
-546.146
-33.1848
674.753
-17.1625
651.174
-6.75513
556.638
8.36737
612.939
23.3819
673.493
19.2018
727.676
42.7951
778.724
123.911
591.688
194.823
142.916
245.973
-162.168
260.694
-334.211
233.329
-347.154
167.617
-298.216
134.619
-34.3483
124.171
157.777
80.0032
135.696
93.2041
473.988
112.098
639.031
122.112
634.699
123.839
560.812
121.988
457.505
122.072
352.012
122.089
232.763
121.181
88.6699
93.8919
-157.325
71.7716
-429.758
55.6919
-436.996
35.3185
-690.478
20.3245
-814.387
13.8177
-962.322
5.69505
-1047.97
0.377314
-1376.98
31.8316
5128.3
27.9505
6202.18
-10.0778
2657.59
-14.535
1225.21
-19.7357
1510.91
-20.529
2000.46
-19.7111
2718.01
-47.4655
1621.91
-89.3022
1815.62
-102.262
2151.87
-90.9939
1869.4
-75.0285
1589.62
-67.7439
-105.863
-73.1178
-839.058
-96.0377
-1299.56
-130.173
-1713.74
-144.557
-1675.23
-131.375
-617.679
-107.645
97.068
-28.7489
168.106
84.6893
-788.785
101.232
-1352.4
90.3607
-1772.37
-2193.96
-27.3888
163.822
-40.9577
264.212
-51.8694
397.925
-57.1164
538.717
-57.5086
691.844
-51.3123
858.963
-39.4202
1011.34
-23.4627
1110.29
-6.25062
1059.07
-1.23356
676.55
-11.8729
428.993
-23.3628
554.199
3.04848
441.269
55.8811
160.305
78.7909
-59.8505
84.8948
-138.558
79.6781
-151.036
52.8951
-134.418
7.00861
-122.599
14.9932
2619.41
5.23322
2268.66
16.9345
-437.79
-35.3274
-522.832
-25.5103
662.66
-10.001
633.879
0.140838
544.298
13.3281
598.253
25.5225
659.657
25.3769
727.009
59.7964
742.778
145.144
502.749
216.38
69.7872
262.041
-209.158
271.926
-345.067
248.174
-324.859
184.455
-240.196
145.895
3.44409
130.708
172.424
88.4865
176.004
95.2569
466.496
111.283
622.497
120.457
624.819
122.026
558.296
119.852
458.439
118.936
351.27
118.015
231.551
115.311
87.2073
91.2098
-142.97
66.9594
-425.243
53.0414
-428.037
34.2027
-678.44
20.6711
-805.345
14.0463
-959.581
7.24361
-1044.6
0.0286484
-1371.41
32.7438
5094.78
28.6567
6206.91
-10.7474
2697.56
-13.7799
1227.9
-16.9653
1513.9
-16.1809
2000.13
-18.6158
2720.19
-52.8984
1657.83
-85.9387
1851.84
-90.2012
2156.32
-78.1401
1861.5
-62.4463
1604.22
-59.9933
-97.565
-66.3702
-825.063
-89.9938
-1271.15
-127.696
-1672.78
-142.707
-1658.11
-121.72
-633.263
-90.6421
68.2321
-13.4083
91.7756
93.6358
-894.322
100.065
-1352.34
84.191
-1755.24
-2162.78
-28.81
174.931
-42.7605
278.219
-53.0118
408.407
-57.5695
543.602
-57.3103
691.831
-50.7393
852.701
-38.582
999.523
-22.1068
1094.19
-4.40991
1041.86
0.959564
671.818
-11.0011
442.213
-15.7448
560.358
16.8027
411.328
63.3127
114.862
82.8354
-77.5314
88.9372
-141.715
81.4645
-140.036
56.146
-107.461
7.90826
-69.6785
12.637
2615.28
5.59243
2274.73
17.3826
-465.99
-26.6186
-508.037
-17.6857
650.372
-2.381
617.309
6.94172
534.184
17.6314
588.302
30.259
647.952
40.7294
719.046
84.7875
703.51
170.21
418.896
238.992
3.74818
278.993
-246.201
283.884
-346.459
263.213
-298.978
202.862
-174.941
158.994
52.9752
137.249
198.726
96.4969
220.734
97.6312
468.837
110.473
613.146
118.7
620.021
120.222
560.326
117.863
464.664
116.157
357.186
114.53
238.049
110.718
95.7518
89.2656
-117.553
62.4372
-391.847
52.4118
-414.243
34.6774
-658.109
21.8697
-790.193
14.4997
-949.293
8.79675
-1035.2
-0.295088
-1361.91
33.7937
5060.58
29.589
6212.36
-11.2052
2740
-12.9837
1230.24
-14.2932
1515.42
-11.8066
1999.84
-16.0791
2725.44
-54.6232
1697.69
-79.6231
1878.12
-76.7237
2149.73
-65.953
1851.16
-48.538
1586.86
-50.5839
-95.0398
-58.6649
-816.512
-82.4551
-1247.54
-123.818
-1632.57
-142.759
-1640.54
-112.509
-666.29
-73.2832
22.9799
2.75707
11.621
100.639
-1004.01
99.7969
-1351.82
89.6174
-1745.43
-2114.69
-30.8935
186.712
-44.9535
292.054
-54.3861
417.622
-58.2144
547.259
-57.2764
690.622
-50.2882
845.505
-37.7879
986.954
-20.6615
1077.05
-2.29156
1023.27
2.80811
666.208
-7.98874
452.777
-2.53118
554.56
33.8747
373.437
71.1794
76.365
86.8126
-94.3838
93.1792
-149.865
81.763
-132.996
57.7508
-89.511
8.89109
-26.8678
10.4898
2613.2
6.92478
2277.2
11.4885
-485.29
-18.5227
-499.538
-9.76299
639.46
5.65907
599.864
14.2014
523.088
23.2045
577.391
37.6202
631.405
59.8355
695.286
114.444
645.439
198.308
331.576
262.223
-62.452
296.5
-282.313
296.57
-347.972
276.717
-281.489
221.202
-125.004
174.048
98.2384
144.697
226.63
104.483
258.391
100.435
471.504
109.786
602.706
116.833
611.713
118.273
557.345
115.819
465.217
113.373
357.19
110.945
237.422
106.028
95.485
87.4869
-108.71
59.8334
-383.626
51.3814
-411.107
35.0468
-648.495
22.9842
-782.752
15.2248
-945.407
9.7643
-1033.21
-0.607629
-1353.54
34.9668
5024.1
30.7093
6217.17
-11.4769
2782.54
-12.1896
1230.3
-11.6611
1514.44
-7.36505
1995.74
-12.2163
2729.9
-53.5049
1740.57
-71.221
1899.34
-61.8588
2141.06
-48.4488
1842.73
-27.2266
1594.69
-39.0987
-73.0505
-49.7555
-798.692
-73.0549
-1219.63
-117.87
-1584.54
-139.737
-1616.67
-102.107
-697.677
-55.3491
-20.0707
25.0136
-66.9315
108.494
-1080.48
101.667
-1339.13
87.3717
-1729.42
-2078.31
-33.6478
199.01
-47.5079
305.912
-55.9899
426.253
-59.0511
550.562
-57.4109
689.162
-49.9574
838.311
-37.035
974.325
-19.1535
1059.51
-0.0100357
1004.6
5.08934
661.731
-4.8206
463.817
7.44005
543.792
45.9241
336.581
77.5138
46.0125
90.3275
-105.158
97.0634
-153.414
82.2478
-115.386
59.5917
-65.88
9.2424
26.4244
8.47946
2614.64
10.4956
2274.09
8.08577
-517.397
-13.5815
-506.089
-1.91368
623.295
13.9793
581.356
22.4486
512.388
31.3981
567.784
47.0793
615.193
77.3813
666.191
143.344
581.865
227.135
248.99
285.16
-118.004
313.662
-308.038
310.384
-341.085
290.531
-256.166
239.227
-69.934
190.174
152.177
153.149
267.892
112.199
302.979
103.598
483.378
109.335
600.207
114.953
609.141
116.272
559.039
113.864
470.794
110.928
363.457
107.946
244.184
102.439
104.409
85.7674
-89.3271
57.2541
-350.337
52.0439
-401.539
36.538
-630.823
24.8786
-768.893
16.1217
-933.84
10.8174
-1024.33
-0.957603
-1341.44
36.2251
4986.78
31.9816
6222.61
-11.5715
2827.63
-11.4004
1230.48
-9.11691
1512.17
-2.87668
1991.75
-6.90593
2734.96
-50.1081
1784.93
-61.6011
1912.32
-46.8908
2123.05
-34.5226
1831.48
-10.1658
1572.9
-26.418
-55.4029
-39.8683
-783.985
-61.8735
-1197.3
-109.477
-1537.97
-138.821
-1588.74
-93.6991
-744.583
-38.5422
-80.4602
48.2382
-157.564
108.352
-1152.44
101.081
-1330.14
82.3593
-1710.52
-2044.05
-37.0195
211.413
-50.3576
319.031
-57.7963
433.483
-60.0616
552.654
-57.7065
686.525
-49.7462
830.121
-36.3142
960.802
-17.5734
1040.72
2.33529
984.412
8.34389
655.131
-0.49391
472.42
16.1899
526.62
55.5196
295.723
83.1548
17.2006
93.5843
-117.023
99.6934
-161.742
82.7097
-102.687
61.4507
-50.0078
9.67497
72.9397
6.35643
2617.41
14.1053
2264.84
7.65722
-526.916
-12.6532
-495.689
5.83797
603.345
22.7337
562.811
31.5772
501.226
40.4046
557.206
57.1873
596.196
95.1278
626.143
171.184
502.128
254.832
162.174
307.407
-173.071
330.469
-333.269
324.73
-337.313
303.863
-238.634
255.867
-27.2905
206.495
198.977
162.907
309.354
120.119
342.794
107.219
494.364
109.289
596.573
113.165
603.594
114.167
556.111
111.814
470.871
108.474
363.944
104.891
244.282
98.7478
105.033
83.5095
-83.2282
56.2311
-340.536
51.5125
-402.756
37.5339
-623.149
26.6718
-762.706
17.3181
-928.244
11.3082
-1021.7
-1.34814
-1331.14
37.5491
4946.89
33.4005
6227.27
-11.5154
2872.75
-10.6337
1228.64
-6.57001
1507.39
1.60241
1983.51
-0.266774
2736.3
-44.6722
1830.9
-50.7623
1922.17
-30.7043
2103.85
-15.9258
1822
10.5831
1571.99
-12.0313
-23.8794
-28.8829
-760.684
-49.9016
-1171.98
-99.3234
-1485.52
-133.01
-1553.1
-84.6398
-786.344
-24.6425
-135.388
70.13
-249.121
91.8861
-1159.19
99.2126
-1332.7
83.6758
-1693.04
-2001.4
-40.9452
223.729
-53.4672
331.518
-59.7997
439.906
-61.2477
554.277
-58.168
683.566
-49.6526
821.815
-35.627
947.022
-15.9532
1021.34
4.77107
964.15
12.0447
648.449
4.44905
481.008
24.7763
507.804
64.1569
257.594
88.4237
-5.64214
96.6395
-123.107
101.465
-163.549
82.983
-82.4188
62.9824
-29.6887
9.21625
128.542
3.96198
2623.34
13.4208
2254.4
3.28607
-554.124
-14.9348
-498.193
13.2986
569.759
31.8253
540.733
41.3767
488.521
50.1312
546.748
68.8898
575.817
116.433
578.482
200.185
418.994
281.698
81.6246
329.106
-218.363
347.008
-348.792
339.034
-325.921
316.312
-210.979
270.591
21.1159
222.066
251.376
173.587
361.375
128.169
391.367
111.193
514.289
109.684
601.041
111.589
604.421
112.121
558.195
109.864
475.794
106.342
370.148
102.427
251.177
96.056
113.906
81.876
-67.115
55.1973
-310.653
52.7632
-395.531
39.5039
-608.117
29.2345
-750.473
18.8199
-915.183
12.0736
-1011.6
-1.829
-1317.06
38.8962
4905.99
34.9529
6232.36
-11.3333
2920.45
-9.89312
1227.34
-4.06059
1501.34
6.11963
1975.59
7.07844
2736.4
-38.0343
1876.98
-39.7808
1925.56
-15.0664
2076.05
0.131627
1808.26
27.0049
1548.78
3.40868
1.63572
-16.5155
-739.144
-37.6137
-1150.28
-88.3561
-1435.69
-128.956
-1514
-78.2229
-837.53
-13.1938
-205.204
64.5184
-330.634
54.3181
-1155.78
93.9455
-1369.9
77.5117
-1675.73
-1974.55
-45.3218
235.616
-56.7772
342.764
-61.9737
444.902
-62.5927
554.72
-58.7863
679.47
-49.6758
812.459
-34.9716
932.214
-14.3082
1000.61
7.37712
942.175
15.9196
639.281
9.7316
487.051
33.4952
483.338
72.3957
217.333
93.4979
-27.9183
99.544
-130.829
102.279
-169.483
82.8742
-67.1606
63.2218
-15.031
7.45243
179.726
1.28366
2628.92
9.25028
2245.22
-6.21706
-542.306
-17.9882
-487.561
20.5499
530.416
41.1676
518.997
51.975
475.832
62.8138
534.461
86.1754
550.229
143.51
518.431
230.886
328.404
308.162
1.42408
350.3
-263.136
363.383
-364.338
352.879
-317.917
326.941
-189.79
283.085
59.7063
236.492
294.95
185.106
410.101
136.805
436.355
115.642
533.079
110.593
604.147
110.359
602.7
110.175
556.227
107.901
475.609
104.227
370.787
99.9704
251.791
93.2971
115.045
79.8532
-62.1735
54.9491
-301.698
52.295
-399.616
40.3632
-602.063
31.1483
-746.059
20.4819
-908.193
12.3967
-1006.82
-2.38291
-1304.95
40.2537
4862.3
36.6463
6236.43
-11.039
2968.22
-9.20185
1224.31
-1.51358
1492.73
10.6779
1963.18
14.6707
2731.81
-30.6809
1923.89
-28.8579
1927.76
0.920718
2047.27
21.2284
1793.29
48.301
1544.7
20.4286
37.2938
-2.55987
-710.454
-24.4586
-1124.36
-75.5582
-1381.64
-119.524
-1467.99
-71.1799
-879.091
-2.15701
-267.239
75.5902
-402.923
73.7225
-1136.95
90.2935
-1381.99
80.203
-1663.17
-1932.04
-50.0615
246.906
-60.2612
352.908
-64.314
449.001
-64.0996
554.625
-59.5649
675.009
-49.8142
802.881
-34.3455
916.962
-12.6585
979.187
10.0854
919.969
19.6883
630.351
14.7148
493.111
41.9395
458.129
80.3006
180.392
98.1514
-43.9799
102.257
-132.537
102.157
-166.464
82.1566
-45.9919
62.3297
4.66039
4.8507
238.452
-1.45643
2635.92
8.11142
2234.87
-14.8291
-548.164
-19.091
-497.668
27.4047
477.486
50.6722
491.438
63.481
459.169
78.5306
516.998
109.191
517.083
175.959
450.506
262.758
241.603
333.781
-68.7742
370.503
-298.027
378.985
-370.802
366.238
-301.871
336.452
-155.864
293.909
104.248
249.442
342.514
197.018
465.395
146.068
490.016
120.579
561.246
112.034
615.501
109.6
607.76
108.522
559.799
106.159
480.467
102.464
376.898
98.1073
258.779
91.4767
123.805
78.9191
-47.8701
55.0735
-275.373
53.6865
-392.818
41.982
-588.608
33.5718
-735.806
22.2542
-894.233
13.0216
-994.325
-3.08269
-1288.71
41.5928
4817.43
38.4588
6240.67
-10.6375
3018.68
-8.56681
1222.32
0.982802
1482.85
15.269
1951.28
23.4506
2724.79
-21.379
1969.56
-17.7024
1925.86
16.5183
2010.11
39.9347
1771.31
66.0676
1522.89
38.3267
67.089
12.5939
-683.143
-9.95103
-1101.21
-60.5251
-1331.87
-110.635
-1419.54
-66.7003
-922.497
7.12857
-344.974
80.3673
-479.059
77.5446
-1135.93
85.8799
-1387.47
77.1592
-1652.55
-1901.77
-55.0595
257.344
-63.871
361.532
-66.7969
451.758
-65.7524
553.429
-60.4908
669.474
-50.0629
792.212
-33.7286
900.523
-10.9491
956.323
12.8414
895.855
21.5342
620.992
16.6283
497.812
49.1601
424.353
87.9164
140.32
102.331
-59.6572
104.961
-137.217
100.895
-166.596
80.9423
-29.8457
60.8775
20.329
2.25112
293.352
-4.27737
2641.91
6.53501
2223.1
-21.744
-516.341
-19.5115
-496.812
33.6602
424.268
60.1495
464.549
76.0626
442.022
95.5312
496.605
134.245
476.196
209.652
372.793
294.48
154.12
358.198
-135.133
389.251
-331.68
393.374
-377.46
378.597
-290.049
344.535
-127.436
302.96
140.813
260.65
381.707
209.011
514.186
156.274
539.375
126.399
588.474
114.233
625.442
109.45
610.357
107.236
559.682
104.601
480.527
100.834
377.555
96.3447
259.625
89.6341
125.165
77.585
-43.6243
55.4856
-267.337
53.2449
-398.266
42.5216
-583.27
35.1942
-733.339
23.9601
-886.553
13.1531
-986.647
-3.87093
-1274.65
42.9143
4769.54
40.3931
6243.64
-10.1206
3069.2
-8.00569
1218.76
3.51417
1470.15
19.8802
1934.51
33.4738
2710.52
-9.71008
2014.25
-6.09549
1926.31
32.9367
1971.99
63.2007
1746.2
88.7568
1517.95
57.7191
104.739
28.8793
-649.31
5.47899
-1074.06
-43.4245
-1280.22
-97.8137
-1363.08
-61.3454
-952.737
15.8223
-413.72
88.6667
-544.496
86.9321
-1120.45
82.2999
-1378.86
70.564
-1638.3
-1878.81
-60.242
266.815
-67.5912
368.816
-69.4222
453.6
-67.556
551.64
-61.5623
663.52
-50.4124
781.208
-33.1271
883.439
-9.22219
932.666
15.8065
871.48
23.2355
614.372
20.1222
502.412
58.0038
389.06
95.1542
104.948
105.792
-68.1907
107.829
-136.585
98.746
-155.158
79.4084
-9.79478
58.9661
40.2586
-0.39583
353.61
-7.10892
2649.29
4.83258
2210.67
-27.7815
-508.648
-18.067
-516.214
39.1525
359.585
69.6983
429.541
88.864
418.533
112.198
470.698
160.345
424.588
241.765
290.483
323.94
71.7977
380.66
-191.158
406.249
-355.724
406.171
-375.772
389.666
-270.435
351.927
-86.7907
310.198
183.931
269.717
424.582
220.285
565.79
167.119
594.708
133.239
624.621
117.31
643.917
109.996
620.132
106.506
565.531
103.508
485.881
99.7043
383.58
95.2459
266.474
88.7317
133.573
77.5313
-30.7708
56.6476
-244.533
54.9601
-390.825
43.7996
-570.375
37.0778
-725.002
25.6115
-872.497
13.6485
-971.571
-4.7889
-1256.16
44.2016
4720.32
42.4217
6246.47
-9.50991
3122.42
-7.54218
1216.8
5.95547
1456.18
24.5337
1918.43
43.9146
2692.4
3.7767
2055.12
6.66436
1925.3
49.1871
1926.65
84.7226
1712.17
109.406
1498.29
77.9803
138.182
46.4969
-616.497
21.9564
-1049.05
-24.7599
-1234.15
-84.8536
-1304.69
-56.7111
-979.672
22.8788
-494.225
96.3762
-618.481
95.2539
-1118.18
83.3067
-1363.22
74.5438
-1626.41
-1841.81
-65.526
275.144
-71.387
374.507
-72.1709
454.243
-69.4951
548.838
-62.7641
656.542
-50.8526
769.072
-32.5523
865.051
-7.49608
907.535
18.4424
845.211
27.109
605.026
33.2442
496.119
73.2093
347.373
102.087
74.7187
108.753
-76.3208
110.088
-140.373
96.2833
-145.981
77.5472
5.34653
56.6658
57.1527
-3.07354
410.244
-9.96948
2655.71
3.16327
2196.82
-32.9057
-465.987
-17.382
-527.011
43.6687
299.18
78.8955
394.896
101.228
395.676
129.44
442.428
190.035
362.355
273.566
205.643
350.721
-7.44573
400.847
-243.637
421.174
-378.574
417.112
-374.295
398.427
-255.144
358.005
-52.1708
315.646
221.419
276.595
460.415
230.202
609.182
178.154
643.331
141.173
658.735
121.492
661.141
111.452
627.795
106.439
568.078
102.886
486.793
98.9194
384.43
94.3636
267.466
87.8949
134.936
77.1448
-27.1803
57.7882
-237.739
55.0605
-396.849
44.0502
-564.366
37.6909
-723.594
26.8615
-865.188
13.7066
-961.458
-5.71929
-1240
45.4601
4667.98
44.5551
6247.8
-8.77467
3175.66
-7.17673
1213.52
8.40062
1439.19
29.19
1897.11
53.9148
2666.93
18.0221
2092.51
20.5607
1926.95
66.2788
1881.98
110.172
1673.42
134.84
1493.97
99.2638
179.66
65.1868
-577.821
39.3603
-1019.52
-5.01924
-1186.96
-69.8548
-1237.55
-52.997
-990.84
28.3317
-562.306
106.472
-685.869
108.234
-1108
89.8699
-1340.71
73.213
-1606.89
-1813.2
-70.865
282.271
-75.2556
378.824
-75.0479
454.019
-71.5778
545.411
-64.1015
649.091
-51.3761
756.49
-32.0265
845.918
-5.87238
881.674
20.7115
819.435
31.7216
595.032
46.7809
483.241
85.4104
311.366
106.946
55.4472
110.473
-77.3573
111.409
-138.546
94.0584
-127.128
75.4026
24.3648
54.0468
77.6924
-5.82658
470.785
-12.7998
2663.34
0.822596
2182.75
-38.2657
-451.36
-15.2819
-556.977
47.1937
228.073
87.5412
350.129
113.076
365.675
150.074
402.686
222.321
287.336
304.032
123.425
374.711
-78.1538
418.489
-286.711
433.726
-392.395
425.744
-364.965
404.656
-231.168
362.388
-8.10518
319.445
265.316
281.36
500.392
238.211
653.989
188.577
694.715
149.781
699.468
126.747
686.532
113.928
643.007
107.166
577.206
102.907
493.452
98.7565
390.836
94.2113
274.433
88.0165
143.099
78.0825
-15.3919
59.8365
-217.704
57.469
-388.42
45.7208
-550.611
38.87
-715.22
28.0499
-851.696
14.2861
-944.605
-6.70493
-1218.94
46.6732
4614.35
46.767
6248.69
-7.93399
3231.59
-6.92483
1212.51
10.7272
1421.01
33.8369
1876.68
63.6165
2638.58
32.9916
2123.9