/*--------------------------------*- C++ -*----------------------------------*\
| =========                 |                                                 |
| \\      /  F ield         | OpenFOAM: The Open Source CFD Toolbox           |
|  \\    /   O peration     | Version:  4.1                                   |
|   \\  /    A nd           | Web:      www.OpenFOAM.org                      |
|    \\/     M anipulation  |                                                 |
\*---------------------------------------------------------------------------*/
FoamFile
{
    version     2.0;
    format      ascii;
    class       volVectorField;
    location    "21";
    object      U;
}
// * * * * * * * * * * * * * * * * * * * * * * * * * * * * * * * * * * * * * //

dimensions      [0 1 -1 0 0 0 0];

internalField   nonuniform List<vector> 
6785
(
(1.10958e-14 0.85219 15.7946)
(9.03764e-15 -4.89458 12.1215)
(-1.79549e-15 -4.19551 12.1321)
(4.80159e-15 -3.60119 11.9966)
(1.84905e-16 -3.00469 11.8778)
(-2.45129e-16 -2.5532 11.6992)
(1.94419e-15 -2.20882 11.4769)
(4.064e-16 -1.96604 11.2116)
(-7.78716e-16 -1.79856 10.916)
(1.11659e-15 -1.71239 10.5882)
(1.25691e-16 -1.83746 10.1561)
(-5.5899e-16 -2.28568 9.53765)
(6.37449e-16 -2.51303 8.96382)
(3.87047e-17 -1.06551 8.91362)
(-3.59692e-16 1.76573 7.47089)
(2.10813e-14 -5.35017 22.4929)
(1.71199e-14 -14.6049 21.3938)
(5.64315e-16 -13.2708 20.341)
(6.31124e-15 -11.7697 19.5065)
(2.10573e-15 -11.1561 18.5042)
(-9.16335e-17 -10.6595 17.5173)
(1.42818e-15 -10.0901 16.5713)
(1.59139e-15 -9.52501 15.6234)
(-8.86512e-16 -8.96545 14.6637)
(2.09011e-15 -8.36732 13.6944)
(9.62643e-16 -7.75711 12.7177)
(-5.55218e-16 -7.30336 11.7192)
(2.07711e-15 -7.01701 10.624)
(5.70035e-16 -5.73082 9.16066)
(-2.69931e-16 -2.3049 4.58289)
(1.70239e-14 -7.71569 23.9798)
(1.62394e-14 -16.773 24.6727)
(1.23537e-15 -13.7365 23.937)
(4.26706e-15 -12.3061 22.6246)
(4.4887e-15 -11.6447 21.2411)
(7.60239e-16 -10.814 20.001)
(1.84765e-15 -9.9402 18.7735)
(1.39421e-15 -9.10006 17.5244)
(-4.6647e-16 -8.28332 16.2652)
(6.82321e-16 -7.47518 15.0259)
(8.37986e-16 -6.66753 13.8173)
(-5.86375e-16 -5.84161 12.4297)
(8.92047e-16 -4.814 10.275)
(1.1825e-15 -3.12644 6.68429)
(-2.17004e-16 -0.832209 1.68965)
(1.7884e-14 -8.5024 22.0451)
(1.43904e-14 -16.6213 24.3319)
(3.80968e-15 -12.9301 23.7966)
(3.53155e-15 -12.1537 21.9981)
(1.62679e-15 -11.4202 20.5023)
(2.15595e-15 -10.4938 19.1717)
(2.62964e-15 -9.6341 17.8162)
(-1.21206e-17 -8.82386 16.4585)
(2.59714e-15 -8.05394 15.1225)
(3.25103e-16 -7.32414 13.8159)
(4.17983e-16 -6.55301 12.4391)
(-2.19096e-15 -5.49176 10.5833)
(-1.10385e-15 -3.78642 7.50967)
(-1.3035e-15 -1.49446 2.76663)
(-1.52604e-15 0.152693 -1.7739)
(1.58711e-14 -8.47546 19.7451)
(1.09944e-14 -16.3603 24.3119)
(1.67197e-15 -13.0997 23.6595)
(3.49472e-15 -12.6282 21.5358)
(-4.17391e-16 -11.8569 20.024)
(1.43644e-15 -10.9579 18.6629)
(1.46976e-15 -10.1703 17.2579)
(-3.80616e-15 -9.40334 15.8703)
(4.50312e-16 -8.65313 14.5228)
(-2.20587e-15 -7.93108 13.2128)
(-1.91893e-15 -7.16648 11.8287)
(-6.70098e-16 -6.11713 9.99648)
(-5.36328e-16 -4.42571 7.15681)
(-7.97912e-15 -2.30699 3.28908)
(-1.01795e-14 -0.788807 0.318348)
(1.49174e-14 -8.01969 17.546)
(1.61813e-14 -16.0191 24.5264)
(4.86806e-15 -13.646 24.0455)
(8.33083e-16 -12.9954 21.7642)
(1.44096e-15 -12.1278 20.2144)
(1.80325e-15 -11.2263 18.8457)
(-1.03242e-15 -10.4407 17.433)
(9.91713e-16 -9.65073 16.0423)
(8.98814e-16 -8.8623 14.6923)
(-2.13535e-15 -8.09525 13.3808)
(5.96838e-16 -7.29958 12.0166)
(-1.10465e-15 -6.28741 10.2823)
(-8.87604e-16 -4.73619 7.72254)
(-2.00172e-15 -2.75838 4.37274)
(-1.61207e-15 -0.950865 1.29708)
(1.46468e-14 -7.331 15.2343)
(1.46479e-14 -15.4887 24.3494)
(7.56547e-15 -14.0289 24.4216)
(2.87048e-15 -13.1309 22.0673)
(1.32558e-15 -12.148 20.4384)
(4.8209e-15 -11.2391 19.0531)
(1.83886e-15 -10.4394 17.6426)
(-2.04507e-15 -9.6233 16.2567)
(2.96945e-15 -8.81353 14.9059)
(7.87266e-16 -8.03052 13.5912)
(-3.95979e-15 -7.22716 12.2367)
(4.30767e-16 -6.24412 10.5501)
(-1.58142e-15 -4.79296 8.11095)
(-2.65425e-15 -2.91984 4.95075)
(3.70901e-15 -1.01529 1.80138)
(1.14321e-14 -6.53799 12.9844)
(1.68025e-14 -14.8378 23.7952)
(6.03001e-15 -14.2779 24.6688)
(4.94692e-15 -13.2463 22.3233)
(1.86748e-15 -12.1759 20.5806)
(1.61764e-15 -11.274 19.164)
(1.66241e-15 -10.4735 17.7569)
(1.32883e-15 -9.65195 16.3754)
(2.13006e-15 -8.84384 15.0238)
(6.87272e-16 -8.06422 13.7071)
(6.97031e-16 -7.26448 12.3586)
(3.8514e-15 -6.29756 10.7036)
(-2.6178e-15 -4.90276 8.33898)
(-3.78451e-15 -3.09517 5.27499)
(3.13839e-15 -1.1287 2.05049)
(1.00549e-14 -5.73492 11.0183)
(1.63046e-14 -14.1489 23.0327)
(7.62076e-15 -14.469 24.8457)
(3.58964e-15 -13.4203 22.6262)
(1.65063e-15 -12.2739 20.757)
(6.99727e-16 -11.3686 19.2958)
(2.26248e-15 -10.5671 17.8925)
(1.02658e-15 -9.74538 16.5143)
(-7.27591e-16 -8.93902 15.1606)
(7.56495e-16 -8.15941 13.8405)
(9.0811e-16 -7.35922 12.4941)
(-1.06725e-15 -6.40172 10.8653)
(3.61591e-15 -5.05012 8.57109)
(-1.49938e-15 -3.29461 5.58937)
(-4.25068e-15 -1.25915 2.27991)
(7.44177e-15 -4.98165 9.36423)
(1.52491e-14 -13.4472 22.144)
(8.91236e-15 -14.5797 24.9367)
(2.9249e-15 -13.6047 22.9601)
(1.67197e-15 -12.3872 20.9736)
(-4.33099e-16 -11.4607 19.4545)
(3.96342e-16 -10.653 18.0519)
(4.59658e-16 -9.83135 16.6768)
(5.91605e-16 -9.02512 15.3213)
(-3.3129e-15 -8.24298 13.998)
(-1.49982e-16 -7.44306 12.6517)
(3.0117e-16 -6.494 11.0416)
(-2.12776e-15 -5.17333 8.80131)
(1.53775e-15 -3.45435 5.87515)
(-1.77956e-15 -1.3525 2.48627)
(2.69952e-15 -4.33892 8.03569)
(1.32001e-14 -12.7744 21.2228)
(8.15663e-15 -14.6141 24.9395)
(2.68076e-15 -13.7887 23.3034)
(3.76175e-15 -12.5238 21.2331)
(-5.79608e-16 -11.5686 19.6451)
(-1.90596e-15 -10.7522 18.2345)
(-1.29756e-15 -9.93095 16.8592)
(-2.31304e-15 -9.12352 15.5001)
(-2.78684e-15 -8.33715 14.1714)
(1.75687e-15 -7.53431 12.8223)
(-2.94375e-15 -6.59292 11.2275)
(-6.42321e-15 -5.30492 9.03824)
(2.34302e-16 -3.62539 6.16601)
(-9.17374e-15 -1.45751 2.70374)
(2.39083e-15 -3.71156 6.73166)
(1.5052e-14 -12.0494 20.1417)
(5.81453e-15 -14.5382 24.7672)
(3.74275e-15 -13.9108 23.5274)
(4.01575e-15 -12.6005 21.3869)
(-2.88719e-15 -11.6019 19.7288)
(1.06629e-15 -10.7788 18.3229)
(2.49991e-15 -9.9663 16.9631)
(-6.25291e-15 -9.16867 15.6163)
(2.81857e-16 -8.39056 14.2973)
(1.9273e-15 -7.59822 12.9568)
(-6.25881e-15 -6.66908 11.3774)
(-1.0798e-15 -5.39874 9.21949)
(-1.06507e-14 -3.73567 6.36812)
(-7.94006e-15 -1.50993 2.82876)
(-1.88741e-16 -3.36995 6.16309)
(1.379e-14 -11.5178 19.31)
(9.86747e-15 -14.5754 24.6669)
(3.8873e-15 -14.2904 24.0031)
(2.62614e-15 -13.0482 21.9081)
(-1.78512e-15 -12.018 20.1314)
(-3.18372e-16 -11.1639 18.638)
(4.86901e-15 -10.3326 17.2287)
(-1.4009e-15 -9.5077 15.8401)
(-1.16037e-15 -8.69513 14.4863)
(1.35668e-15 -7.87056 13.1255)
(-4.27585e-15 -6.92564 11.565)
(-2.66194e-15 -5.67194 9.49392)
(-6.7001e-15 -4.01815 6.72253)
(-9.42541e-15 -1.68708 3.09069)
(7.98246e-16 -1.94468 2.68092)
(1.12399e-14 -9.97095 16.5283)
(9.22925e-15 -13.8831 23.3622)
(4.13456e-15 -13.8518 23.3096)
(2.24776e-15 -12.4722 21.1455)
(-1.26893e-15 -11.3797 19.4275)
(-2.27425e-16 -10.6306 18.2093)
(4.8461e-15 -9.94103 17.0661)
(-1.16171e-15 -9.26 15.9039)
(-4.56851e-16 -8.58731 14.7298)
(9.28513e-16 -7.89538 13.5132)
(-3.27223e-15 -7.07802 12.0842)
(-1.58954e-15 -5.93869 10.1159)
(-6.2405e-15 -4.43532 7.52086)
(-6.58811e-15 -2.17791 4.21)
(-5.82626e-16 -4.70242 9.26784)
(1.13682e-14 -11.3228 19.0323)
(1.12683e-14 -15.3834 25.1625)
(6.1112e-15 -16.7423 26.0651)
(2.54694e-15 -16.2141 24.2837)
(3.45783e-16 -15.0821 21.8291)
(-5.38866e-16 -13.8223 19.5429)
(4.38305e-16 -12.6018 17.5711)
(-6.24913e-16 -11.4058 15.743)
(-9.27993e-16 -10.2348 14.0847)
(-1.76398e-15 -9.08645 12.5198)
(-1.47879e-15 -7.8693 10.88)
(-2.22267e-15 -6.45059 9.0091)
(-5.91156e-15 -4.50011 6.23501)
(-5.82806e-15 -0.988584 1.93345)
(-1.16992e-16 0.665825 -3.44472)
(-3.579e-16 1.20309 -5.4902)
(-3.14712e-16 0.752769 -3.69854)
(-3.60123e-16 1.27601 -3.60176)
(-3.44897e-16 1.66151 -3.36369)
(-4.71299e-16 3.07487 -4.74861)
(-3.45279e-16 1.96445 -3.13901)
(-3.3425e-16 2.52124 -3.06713)
(-3.21572e-16 2.64296 -2.88513)
(-2.61073e-16 4.42313 -4.07732)
(-8.5013e-17 3.00021 -2.57661)
(-5.35459e-17 3.21954 -2.38565)
(-1.28197e-16 5.29456 -3.40455)
(-9.07979e-17 3.60096 -2.02693)
(-9.44137e-17 3.98911 -1.99004)
(-6.67911e-17 4.01434 -1.89295)
(-1.93022e-16 5.45353 -2.75557)
(-9.57696e-17 4.161 -1.57798)
(-6.97604e-17 4.28377 -1.46309)
(-1.85661e-16 5.9483 -2.12726)
(-8.28783e-17 4.45003 -1.13357)
(-1.07484e-16 4.73393 -1.11636)
(-1.05672e-16 4.70765 -1.07602)
(-1.93295e-16 6.07651 -1.62031)
(-8.56188e-17 4.59466 -0.813102)
(-7.38867e-17 4.91972 -0.792333)
(-7.92473e-17 4.8925 -0.760859)
(-1.92127e-16 6.02159 -1.18816)
(-1.24715e-16 4.68354 -0.562169)
(-1.04247e-16 4.71704 -0.505662)
(-2.15517e-16 5.99648 -0.740838)
(-1.41579e-16 4.59919 -0.281485)
(-1.35345e-16 4.72995 -0.269175)
(-3.94281e-16 4.7329 -0.272417)
(-2.14842e-16 5.37128 -0.332646)
(-1.1377e-16 4.33762 -0.0745136)
(-1.00491e-16 4.36953 -0.0827897)
(-1.68944e-16 4.98394 0.0961243)
(-8.00287e-17 4.02474 0.150783)
(-1.65962e-16 4.06078 0.152062)
(-1.0438e-16 4.09026 0.0981717)
(6.42222e-17 4.38889 0.444537)
(3.29701e-19 3.50165 0.302633)
(5.98032e-20 3.58289 0.29847)
(-3.91684e-18 3.59665 0.230475)
(1.61063e-17 3.96294 0.696717)
(3.65971e-16 3.02237 0.468995)
(-3.57496e-17 3.01782 0.380507)
(-4.70254e-17 3.60974 0.964692)
(-4.51628e-16 2.62792 0.648703)
(1.11332e-17 2.6698 0.641514)
(1.00987e-17 2.61441 0.55559)
(2.6231e-17 3.02392 1.17457)
(5.53706e-17 2.10116 0.766275)
(5.65231e-18 2.13956 0.750924)
(3.87046e-17 2.11219 0.663081)
(1.5209e-16 2.22445 1.21475)
(8.19799e-17 1.47867 0.692957)
(-1.48352e-15 1.43763 0.597892)
(6.29123e-17 1.41496 0.826898)
(2.37098e-17 0.722871 0.151865)
(-1.8689e-17 0.663135 0.108599)
(-6.10903e-17 0.723154 0.104233)
(1.20963e-15 1.42139 -1.12043)
(1.43475e-16 -0.513921 -0.463515)
(-3.004e-16 0.0516962 -0.0801188)
(-1.10428e-15 0.149573 1.44293)
(-8.61147e-16 -1.43602 3.23897)
(-7.27882e-16 -1.35282 3.21006)
(-7.7529e-16 -1.34386 3.39954)
(-8.18798e-16 -2.62714 6.33028)
(-5.19402e-16 -3.28967 6.01079)
(-5.74768e-16 -3.49931 6.13238)
(-5.68268e-16 -3.66674 6.32492)
(-3.73469e-16 -6.22662 9.92408)
(-1.35961e-16 -5.76342 8.10098)
(-1.88468e-16 -6.0234 8.57535)
(1.12324e-16 -9.36022 12.6126)
(7.74899e-17 -8.4381 9.76405)
(8.96146e-18 -8.77604 10.4661)
(-3.31307e-16 -9.63871 12.1906)
(-2.51813e-16 -9.51154 12.125)
(-1.90147e-16 -9.68622 12.4139)
(9.41461e-16 -11.8145 15.2438)
(2.5697e-16 -10.3857 13.4778)
(1.54897e-16 -10.7729 14.171)
(1.30036e-16 -10.7512 14.3309)
(2.00889e-16 -10.8329 14.4632)
(2.63914e-16 -10.9257 14.6156)
(3.58058e-16 -11.0049 14.7949)
(5.98936e-16 -11.0906 15.1118)
(9.2293e-16 -11.2188 15.4968)
(2.32725e-15 -12.1769 16.9815)
(1.2818e-15 -11.5454 15.9245)
(1.38306e-15 -11.7092 16.1639)
(1.41731e-15 -11.6872 16.2881)
(1.56063e-15 -11.8567 16.6539)
(1.61178e-15 -11.8314 16.6895)
(1.67539e-15 -11.9128 16.8338)
(1.73889e-15 -11.9687 16.9593)
(1.81831e-15 -12.0354 17.115)
(2.56338e-15 -12.4883 18.2508)
(2.46998e-15 -12.0731 17.4365)
(2.55707e-15 -12.1794 17.615)
(2.61304e-15 -12.214 17.6874)
(2.68815e-15 -12.2578 17.8087)
(2.77658e-15 -12.3029 17.9962)
(2.86224e-15 -12.3772 18.2069)
(2.92479e-15 -12.3788 18.2596)
(3.01937e-15 -12.4474 18.3639)
(3.13714e-15 -12.5027 18.4547)
(4.23073e-15 -12.2347 18.6605)
(3.3477e-15 -12.1389 18.3365)
(3.48441e-15 -12.1701 18.424)
(3.51212e-15 -12.201 18.4589)
(3.56731e-15 -12.2354 18.517)
(3.60485e-15 -12.2238 18.5945)
(3.69332e-15 -12.2773 18.8162)
(3.80784e-15 -12.3019 18.8669)
(3.90718e-15 -12.3381 18.8357)
(4.72148e-15 -11.2654 17.6926)
(3.99057e-15 -11.4962 18.0019)
(4.1215e-15 -11.4475 18.0944)
(4.12748e-15 -11.4829 18.2117)
(4.18521e-15 -11.4227 18.1082)
(4.25971e-15 -11.4172 18.0636)
(4.33685e-15 -11.3884 18.002)
(4.43481e-15 -11.3728 17.9744)
(4.83303e-15 -11.4445 18.1436)
(4.3163e-15 -9.23932 15.207)
(4.85073e-15 -10.1171 16.7245)
(4.97419e-15 -9.93568 16.4377)
(5.08615e-15 -9.90049 16.3424)
(5.19015e-15 -9.85413 16.3724)
(5.13546e-15 -9.74496 16.1631)
(5.11405e-15 -9.63724 15.852)
(5.12331e-15 -9.59346 15.5242)
(5.13425e-15 -9.48075 15.1081)
(4.74679e-15 -6.49198 10.9277)
(5.65005e-15 -7.89326 13.7712)
(5.47702e-15 -7.52265 13.0538)
(5.39124e-15 -7.46139 12.674)
(5.28647e-15 -7.31019 12.1378)
(5.25268e-15 -7.22597 11.5559)
(5.62661e-15 -6.93739 10.8275)
(5.15488e-15 -6.87219 10.3055)
(4.87561e-15 -6.68542 9.62959)
(4.5175e-15 -6.41468 8.87145)
(2.23433e-15 -2.799 3.14765)
(3.83678e-15 -4.88488 6.91278)
(3.34716e-15 -4.29478 5.69446)
(3.13308e-15 -4.32127 5.30604)
(2.76994e-15 -4.09132 4.62108)
(2.32985e-15 -4.03971 3.82664)
(1.38289e-15 -3.87211 2.49686)
(3.57775e-16 -3.47951 1.13849)
(4.61772e-16 -3.31506 0.94408)
(-4.16566e-16 -2.8594 -1.66398)
(5.22659e-16 -2.78701 0.261466)
(4.28201e-16 -2.50306 -0.479584)
(3.31018e-16 -1.41108 -2.59434)
(5.24593e-16 -2.74256 -2.16452)
(-1.98224e-16 -1.60164 -1.98674)
(-1.31404e-16 -1.35742 -1.6073)
(-1.59674e-15 -1.36124 -2.00872)
(2.00981e-17 -0.782656 -1.55329)
(-2.29725e-15 -0.813955 -1.98728)
(3.091e-15 -0.37643 -1.67526)
(7.04091e-16 -0.192091 -1.52087)
(5.91798e-16 0.0162078 -1.78402)
(5.59931e-16 0.130135 -1.35657)
(5.41768e-16 0.486346 -1.34033)
(5.7176e-16 0.560306 -1.17873)
(3.92511e-16 0.601164 -1.25526)
(4.43724e-15 0.969686 -1.15634)
(-1.71225e-16 1.078 -1.2027)
(2.21649e-15 0.664001 -0.988675)
(-5.94285e-15 1.77176 -0.437196)
(-2.86888e-15 0.945014 -0.395402)
(-1.03637e-15 1.47204 -0.164808)
(-7.80869e-16 1.59805 -0.152677)
(-5.46049e-16 0.941499 -0.204493)
(4.34677e-16 1.57938 -0.171652)
(6.59614e-16 1.94321 0.192669)
(-1.95327e-15 1.07026 0.191237)
(-7.03111e-16 1.95621 0.521948)
(-1.10823e-15 1.31316 0.475073)
(-4.15313e-15 1.66808 0.692922)
(-3.16376e-16 1.72599 0.516376)
(-3.7851e-16 1.16419 0.567949)
(-3.02267e-16 1.94488 0.542517)
(-3.39461e-16 1.46058 0.533615)
(-2.34979e-17 1.70776 0.505178)
(-2.70209e-16 1.83561 0.315863)
(-3.02558e-16 1.28249 0.438565)
(-1.25996e-16 1.88912 0.37656)
(-1.20389e-15 2.20737 0.213199)
(-9.22766e-16 1.42587 0.344238)
(-5.61418e-16 2.21458 0.205875)
(-4.86827e-16 1.68445 0.27889)
(-5.52498e-16 2.00497 0.184001)
(-2.87183e-16 2.21936 0.0630242)
(-5.67036e-17 1.56406 0.216697)
(4.48927e-16 2.44446 0.0715355)
(-3.65966e-16 1.91336 0.1585)
(-2.03623e-17 2.18175 0.0520823)
(-1.56282e-16 2.42183 -0.0317869)
(-2.31456e-16 1.76403 0.114411)
(-2.44412e-16 2.38904 0.0219125)
(-1.78601e-16 2.79646 -0.0454341)
(-2.24506e-16 1.87936 0.0838936)
(-5.18001e-17 2.81849 -0.0355978)
(5.11735e-17 2.17403 0.04823)
(6.6536e-17 2.52556 -0.0460752)
(-4.02218e-16 2.85365 -0.101851)
(-2.70884e-16 2.01138 0.030996)
(-5.52815e-16 3.07072 -0.0892323)
(-2.62769e-16 2.37994 -0.00178112)
(-2.57045e-16 2.71234 -0.102285)
(-2.43378e-16 3.03429 -0.148052)
(-1.54438e-16 2.22368 -0.0196808)
(-4.57785e-16 2.91561 -0.104021)
(-5.24607e-16 3.4022 -0.142116)
(-8.00056e-18 2.31013 -0.0352592)
(-1.11722e-16 3.45623 -0.137871)
(1.8288e-17 2.62867 -0.0613085)
(5.404e-17 3.05713 -0.149304)
(2.28026e-17 3.47866 -0.188405)
(-1.61835e-17 2.44843 -0.0769821)
(-2.91423e-17 3.73074 -0.18449)
(-1.09444e-18 2.83817 -0.103246)
(-9.76402e-17 3.26999 -0.19934)
(1.22748e-17 3.65812 -0.245657)
(2.54548e-17 2.6992 -0.129206)
(1.3336e-16 3.47996 -0.208366)
(4.47525e-17 4.02931 -0.259018)
(2.46025e-17 2.78332 -0.15869)
(3.68424e-17 4.14474 -0.273654)
(1.85158e-17 3.11377 -0.191107)
(3.80398e-17 3.75679 -0.325669)
(-9.1062e-16 -0.1606 0.187726)
(-9.11723e-16 -0.228575 0.199946)
(-9.11334e-16 -0.403222 0.313566)
(-9.10985e-16 -0.632747 0.387649)
(-9.10102e-16 -0.878232 0.435876)
(-9.08415e-16 -1.1642 0.424825)
(-9.05929e-16 -1.4211 0.353939)
(-9.03292e-16 -1.58729 0.25205)
(-9.01653e-16 -1.53155 0.125619)
(-9.00966e-16 -0.911484 -0.0533432)
(-9.00879e-16 -0.491639 0.0755048)
(-9.00881e-16 -0.719541 -0.0429267)
(-9.00871e-16 -0.664152 -0.144551)
(-9.0084e-16 -0.585037 -0.131793)
(-9.00928e-16 -0.109817 -0.400064)
(-9.01101e-16 0.169979 -0.535405)
(-9.01177e-16 0.269924 -0.522554)
(-9.0125e-16 0.378016 -0.547723)
(-9.00986e-16 0.5576 -0.125841)
(-9.06756e-16 -3.62532 -0.166497)
(-8.63169e-16 -2.97434 -0.260605)
(-8.05361e-16 0.694671 0.0284756)
(-7.80646e-16 1.00613 0.376223)
(-7.81089e-16 -1.08923 0.364129)
(-7.72572e-16 -1.0425 0.281517)
(-7.65255e-16 -0.84346 0.318668)
(-7.78627e-16 -0.951333 0.354147)
(-7.81178e-16 -1.03678 0.0554622)
(-7.81141e-16 -0.903724 -0.142908)
(-7.81975e-16 -0.983771 -0.110644)
(-7.79629e-16 -1.316 0.0060472)
(-7.86146e-16 -0.653927 -0.49918)
(-7.98301e-16 -0.230383 -0.895546)
(-8.00998e-16 0.254087 -1.38407)
(-7.81881e-16 0.731651 -1.52809)
(-7.85375e-16 0.971062 -1.11207)
(-8.40678e-16 0.0712755 -0.752098)
(-8.47028e-16 -0.290351 -0.591861)
(-8.46418e-16 -0.0277266 -0.604681)
(-8.45539e-16 -0.912933 -0.350125)
(-8.44251e-16 -1.05279 -0.683514)
(-8.42292e-16 -0.93326 -0.836593)
(-8.40549e-16 -0.772646 -0.863601)
(-8.40057e-16 -0.622455 -0.86941)
(-8.40847e-16 -0.509985 -0.872144)
(-8.4208e-16 -0.363318 -0.869729)
(-8.42985e-16 -0.220094 -0.861222)
(-8.43269e-16 0.245481 -0.873951)
(-8.43286e-16 0.734733 -0.80074)
(-8.43045e-16 0.72035 -0.718727)
(-8.42822e-16 1.10023 -0.550114)
(-8.40569e-16 1.24827 -0.338481)
(-8.36081e-16 1.34633 -0.118736)
(-8.26542e-16 1.53703 -0.198839)
(-8.56168e-16 1.82568 0.297757)
(-5.1475e-16 -7.08654 -0.30153)
(-3.35109e-16 -8.24365 -0.276548)
(-2.27248e-16 -3.29333 -0.213495)
(-1.05701e-16 -1.67648 0.0980317)
(-9.06517e-17 -2.01467 0.184905)
(-1.02968e-16 -2.66162 0.360625)
(-1.00196e-16 -3.73073 0.157474)
(-7.85608e-17 -2.00028 0.20502)
(-5.58158e-17 -1.94269 0.441839)
(-1.69195e-17 -2.62766 0.902869)
(3.47865e-17 -2.52853 0.825799)
(1.40288e-16 -2.33282 0.837755)
(1.69273e-16 0.110141 0.51798)
(2.10284e-16 1.19627 0.556192)
(2.11746e-16 1.89285 0.694335)
(1.81954e-16 2.47957 0.687294)
(1.50119e-16 2.39586 0.76534)
(1.354e-16 0.785659 0.917237)
(1.44146e-16 -0.571471 0.797051)
(2.94993e-16 -1.07135 0.737923)
(2.76131e-16 -0.167041 0.479898)
(-5.31172e-17 0.368207 0.535588)
(9.07351e-18 2.45553 -0.836791)
(1.86e-16 3.19837 -0.55311)
(-9.10737e-16 -0.171084 0.17291)
(-9.11706e-16 -0.27611 0.204669)
(-9.11313e-16 -0.457734 0.30897)
(-9.10938e-16 -0.682818 0.374307)
(-9.10015e-16 -0.928989 0.419619)
(-9.08304e-16 -1.20904 0.411399)
(-9.05833e-16 -1.45893 0.345545)
(-9.03247e-16 -1.61987 0.250196)
(-9.0164e-16 -1.56812 0.141245)
(-9.00965e-16 -0.994677 -0.0269416)
(-9.0088e-16 -0.633466 0.0293032)
(-9.0088e-16 -0.721371 -0.0568408)
(-9.0087e-16 -0.670275 -0.0896747)
(-9.00849e-16 -0.525817 -0.157944)
(-9.00946e-16 -0.101493 -0.415193)
(-9.01125e-16 0.126608 -0.533607)
(-9.01212e-16 0.222678 -0.482443)
(-9.01266e-16 0.35142 -0.511139)
(-9.01059e-16 0.453799 -0.0803899)
(-9.06811e-16 -3.57995 -0.145357)
(-8.63831e-16 -2.92368 -0.261826)
(-8.0573e-16 0.676064 0.0192165)
(-7.80164e-16 0.917245 0.442849)
(-7.80709e-16 -0.899309 0.415959)
(-7.72077e-16 -0.889406 0.309739)
(-7.65661e-16 -0.732684 0.282432)
(-7.78783e-16 -0.898809 0.261714)
(-7.81102e-16 -1.02307 -0.0401351)
(-7.81205e-16 -0.951445 -0.182692)
(-7.82063e-16 -1.0572 -0.0847635)
(-7.80816e-16 -1.20595 -0.0924973)
(-7.85172e-16 -0.602275 -0.630886)
(-7.95278e-16 -0.120062 -1.0698)
(-8.00729e-16 0.289077 -1.48208)
(-7.82098e-16 0.612847 -1.58149)
(-7.79257e-16 0.895934 -0.952127)
(-8.30198e-16 0.377507 -0.652264)
(-8.44557e-16 -0.052603 -0.606123)
(-8.45917e-16 0.334067 -0.494376)
(-8.45573e-16 -0.672253 -0.335286)
(-8.44387e-16 -0.940549 -0.686795)
(-8.4253e-16 -0.866473 -0.843966)
(-8.40761e-16 -0.696425 -0.874899)
(-8.40062e-16 -0.522695 -0.880321)
(-8.40609e-16 -0.385339 -0.891633)
(-8.41714e-16 -0.20128 -0.912436)
(-8.42647e-16 0.00571284 -0.942923)
(-8.43018e-16 0.571734 -0.952087)
(-8.43128e-16 0.673431 -0.79392)
(-8.42955e-16 0.744595 -0.663054)
(-8.42573e-16 1.05357 -0.444616)
(-8.39749e-16 1.19454 -0.257701)
(-8.34654e-16 1.32132 -0.0537173)
(-8.24299e-16 1.47189 -0.205078)
(-8.55692e-16 1.83727 0.299425)
(-5.15365e-16 -7.02015 -0.261521)
(-3.35582e-16 -8.23096 -0.224213)
(-2.27402e-16 -3.28433 -0.15457)
(-1.05433e-16 -1.44658 0.126253)
(-9.0836e-17 -1.85912 0.144898)
(-1.03059e-16 -2.58593 0.341615)
(-1.00144e-16 -3.66734 0.178985)
(-7.89188e-17 -2.1145 0.0488759)
(-5.51902e-17 -2.07842 0.227994)
(-1.47263e-17 -2.69862 0.819743)
(3.96133e-17 -2.57291 0.826764)
(1.383e-16 -2.12338 0.779604)
(1.77237e-16 0.127059 0.515185)
(2.23363e-16 1.17018 0.544968)
(2.28902e-16 1.84925 0.707295)
(1.99018e-16 2.41841 0.705864)
(1.66763e-16 2.3216 0.769996)
(1.62067e-16 0.949097 1.19737)
(1.75892e-16 0.0808387 0.998089)
(3.01004e-16 -0.457381 0.826182)
(2.39034e-16 0.900865 0.459117)
(-3.81478e-17 1.99776 0.040488)
(1.47397e-17 2.48041 -0.842357)
(1.96016e-16 3.15442 -0.428086)
(-9.10855e-16 -0.171196 0.153805)
(-9.11683e-16 -0.28288 0.199827)
(-9.11285e-16 -0.467654 0.304419)
(-9.10878e-16 -0.686104 0.366049)
(-9.09908e-16 -0.921148 0.407356)
(-9.08169e-16 -1.18748 0.39832)
(-9.05719e-16 -1.42668 0.335185)
(-9.03194e-16 -1.58063 0.243463)
(-9.01628e-16 -1.51982 0.140486)
(-9.00964e-16 -0.948144 -0.0284384)
(-9.00878e-16 -0.586095 0.0409054)
(-9.00881e-16 -0.714206 -0.0232534)
(-9.00871e-16 -0.66919 -0.0631912)
(-9.00855e-16 -0.480529 -0.167356)
(-9.00956e-16 -0.0595983 -0.41667)
(-9.01136e-16 0.150042 -0.530016)
(-9.01233e-16 0.233936 -0.479412)
(-9.01285e-16 0.313066 -0.481806)
(-9.01061e-16 0.401072 -0.0869256)
(-9.06868e-16 -3.55497 -0.133274)
(-8.64477e-16 -2.95943 -0.252226)
(-8.05011e-16 0.486614 0.0601365)
(-7.79766e-16 0.834919 0.33593)
(-7.80301e-16 -0.947935 0.397212)
(-7.71633e-16 -0.939353 0.279251)
(-7.65912e-16 -0.792316 0.220177)
(-7.7881e-16 -0.90558 0.181804)
(-7.81071e-16 -0.999666 -0.0824492)
(-7.81429e-16 -0.958193 -0.149712)
(-7.81773e-16 -1.07527 -0.0796444)
(-7.80127e-16 -1.13531 -0.172731)
(-7.85974e-16 -0.50832 -0.725367)
(-7.95186e-16 -0.0496786 -1.17449)
(-8.02286e-16 0.352122 -1.52449)
(-7.89827e-16 0.611525 -1.63583)
(-7.80435e-16 0.702568 -1.04513)
(-8.22064e-16 0.21909 -0.725142)
(-8.41803e-16 -0.145612 -0.692428)
(-8.45173e-16 0.0611677 -0.534708)
(-8.4556e-16 -0.711658 -0.376332)
(-8.44538e-16 -0.95054 -0.689797)
(-8.42822e-16 -0.898434 -0.834456)
(-8.41042e-16 -0.754253 -0.861955)
(-8.40124e-16 -0.595306 -0.865443)
(-8.40399e-16 -0.464225 -0.874207)
(-8.41353e-16 -0.298631 -0.893026)
(-8.42304e-16 -0.111557 -0.917277)
(-8.42775e-16 0.328021 -0.883815)
(-8.42943e-16 0.621897 -0.725318)
(-8.42793e-16 0.619206 -0.564264)
(-8.42242e-16 1.01414 -0.371572)
(-8.38994e-16 1.16989 -0.234619)
(-8.33529e-16 1.31451 -0.0414699)
(-8.22802e-16 1.45528 -0.224462)
(-8.54937e-16 1.84586 0.282557)
(-5.16339e-16 -6.97401 -0.251193)
(-3.36221e-16 -8.25029 -0.222913)
(-2.27645e-16 -3.37466 -0.130482)
(-1.0523e-16 -1.59652 0.15605)
(-9.09739e-17 -1.9769 0.124207)
(-1.03127e-16 -2.65344 0.323509)
(-1.00094e-16 -3.67533 0.132543)
(-7.85268e-17 -2.12223 -0.0702187)
(-5.32098e-17 -2.1843 0.322963)
(-1.15709e-17 -2.7709 0.822097)
(4.42341e-17 -2.53837 0.783521)
(1.3231e-16 -2.18751 0.729571)
(1.79205e-16 0.123297 0.504515)
(2.31071e-16 1.16087 0.518495)
(2.41591e-16 1.84283 0.711164)
(2.12529e-16 2.4168 0.753352)
(1.78874e-16 2.2418 0.710061)
(1.83002e-16 0.711917 1.09439)
(2.05866e-16 -0.153352 1.04993)
(3.05093e-16 -0.553212 0.792094)
(2.13695e-16 0.551729 0.292253)
(3.6165e-17 1.68671 -0.590961)
(3.03728e-17 2.46975 -0.868394)
(2.04213e-16 3.10655 -0.42283)
(-9.10959e-16 -0.178117 0.14197)
(-9.11656e-16 -0.29286 0.200378)
(-9.11255e-16 -0.477427 0.305616)
(-9.1081e-16 -0.689927 0.36396)
(-9.09792e-16 -0.917215 0.400748)
(-9.08029e-16 -1.17181 0.38934)
(-9.05604e-16 -1.40125 0.327168)
(-9.03142e-16 -1.55002 0.2369)
(-9.01616e-16 -1.48713 0.135607)
(-9.00964e-16 -0.921473 -0.0365314)
(-9.00876e-16 -0.549303 0.0649128)
(-9.00882e-16 -0.71593 -0.0120645)
(-9.0087e-16 -0.666598 -0.0250345)
(-9.00863e-16 -0.428162 -0.184698)
(-9.00969e-16 -0.0279042 -0.423274)
(-9.01151e-16 0.161369 -0.535185)
(-9.01255e-16 0.223154 -0.48689)
(-9.01307e-16 0.286844 -0.460625)
(-9.0106e-16 0.349111 -0.0975309)
(-9.06915e-16 -3.53763 -0.11888)
(-8.65037e-16 -2.97814 -0.236323)
(-8.0424e-16 0.551302 0.0860376)
(-7.7933e-16 0.854504 0.221775)
(-7.79934e-16 -0.948263 0.361442)
(-7.71293e-16 -0.930126 0.236253)
(-7.66063e-16 -0.784503 0.162006)
(-7.78765e-16 -0.875023 0.128823)
(-7.81178e-16 -0.959584 -0.09914)
(-7.81525e-16 -0.955965 -0.144457)
(-7.80777e-16 -1.08374 -0.0752207)
(-7.78787e-16 -1.04355 -0.271596)
(-7.86438e-16 -0.417852 -0.832158)
(-7.95762e-16 0.0387529 -1.27937)
(-8.02463e-16 0.392466 -1.60044)
(-7.95039e-16 0.563318 -1.6352)
(-7.81534e-16 0.618213 -1.11567)
(-8.14606e-16 0.154044 -0.794027)
(-8.38901e-16 -0.172204 -0.766339)
(-8.44372e-16 -0.0255142 -0.586812)
(-8.45493e-16 -0.688811 -0.418131)
(-8.44673e-16 -0.91782 -0.689826)
(-8.43127e-16 -0.878964 -0.825436)
(-8.41369e-16 -0.75235 -0.848935)
(-8.40261e-16 -0.60273 -0.848811)
(-8.40263e-16 -0.468908 -0.851686)
(-8.41042e-16 -0.307948 -0.863989)
(-8.4197e-16 -0.117473 -0.879286)
(-8.42513e-16 0.302026 -0.823004)
(-8.42736e-16 0.654765 -0.654435)
(-8.42602e-16 0.662236 -0.510274)
(-8.41862e-16 0.996455 -0.329381)
(-8.38178e-16 1.14119 -0.218152)
(-8.32332e-16 1.30602 -0.0268057)
(-8.21317e-16 1.43263 -0.235659)
(-8.5409e-16 1.84662 0.271779)
(-5.17532e-16 -6.93985 -0.248958)
(-3.36932e-16 -8.25496 -0.231881)
(-2.27961e-16 -3.41891 -0.119765)
(-1.05111e-16 -1.61947 0.170248)
(-9.10728e-17 -1.99712 0.0941178)
(-1.03167e-16 -2.66049 0.294188)
(-9.98966e-17 -3.64081 0.0724776)
(-7.6965e-17 -2.08465 0.000804625)
(-5.02793e-17 -2.26148 0.441241)
(-8.46775e-18 -2.81505 0.801358)
(4.69389e-17 -2.52981 0.736949)
(1.25322e-16 -2.12161 0.703024)
(1.80599e-16 0.131598 0.489492)
(2.38848e-16 1.14475 0.485048)
(2.55174e-16 1.80833 0.692213)
(2.26711e-16 2.39084 0.777854)
(1.90693e-16 2.32357 0.755359)
(2.00515e-16 0.814602 1.05808)
(2.30625e-16 -0.218973 1.01188)
(3.06663e-16 -0.510228 0.710658)
(1.96059e-16 0.623722 0.111512)
(1.02296e-16 1.77724 -0.808475)
(4.5547e-17 2.43027 -0.862468)
(2.12886e-16 3.05525 -0.433434)
(-9.1105e-16 -0.188218 0.132649)
(-9.11627e-16 -0.30902 0.204544)
(-9.1122e-16 -0.492902 0.309598)
(-9.10736e-16 -0.698638 0.364601)
(-9.09671e-16 -0.919194 0.39682)
(-9.07887e-16 -1.16404 0.382656)
(-9.05489e-16 -1.38557 0.320685)
(-9.03091e-16 -1.5298 0.230702)
(-9.01605e-16 -1.46613 0.129711)
(-9.00967e-16 -0.915801 -0.042877)
(-9.00874e-16 -0.547812 0.0699095)
(-9.00883e-16 -0.713208 0.00657527)
(-9.00867e-16 -0.657225 0.0290136)
(-9.00871e-16 -0.375029 -0.204907)
(-9.00983e-16 0.00276739 -0.434377)
(-9.01166e-16 0.165178 -0.545291)
(-9.0128e-16 0.213167 -0.501564)
(-9.01332e-16 0.257743 -0.456831)
(-9.01062e-16 0.291024 -0.0992098)
(-9.06952e-16 -3.52295 -0.104737)
(-8.65511e-16 -2.99253 -0.222017)
(-8.03371e-16 0.527748 0.101081)
(-7.78869e-16 0.786738 0.132443)
(-7.79622e-16 -0.92728 0.323543)
(-7.71044e-16 -0.903118 0.188945)
(-7.66169e-16 -0.767553 0.109851)
(-7.78739e-16 -0.851473 0.085966)
(-7.81254e-16 -0.933979 -0.11941)
(-7.81391e-16 -0.96355 -0.138477)
(-7.79478e-16 -1.07817 -0.0844616)
(-7.77319e-16 -0.946562 -0.376259)
(-7.86478e-16 -0.327618 -0.962238)
(-7.96643e-16 0.116294 -1.39355)
(-8.02779e-16 0.417816 -1.68269)
(-7.98416e-16 0.524319 -1.67849)
(-7.82982e-16 0.536683 -1.19376)
(-8.07354e-16 0.121661 -0.860077)
(-8.35652e-16 -0.178818 -0.832025)
(-8.43614e-16 -0.0828298 -0.642235)
(-8.4541e-16 -0.655327 -0.456829)
(-8.44788e-16 -0.885994 -0.68714)
(-8.43411e-16 -0.862143 -0.815893)
(-8.41704e-16 -0.747511 -0.836843)
(-8.4045e-16 -0.603264 -0.83367)
(-8.40196e-16 -0.46593 -0.83067)
(-8.40782e-16 -0.306389 -0.835209)
(-8.41654e-16 -0.114892 -0.841111)
(-8.42248e-16 0.25384 -0.773998)
(-8.42515e-16 0.59535 -0.612422)
(-8.42395e-16 0.613485 -0.470006)
(-8.41444e-16 0.959577 -0.291504)
(-8.37342e-16 1.11687 -0.207873)
(-8.31143e-16 1.29666 -0.0190678)
(-8.19881e-16 1.41661 -0.246064)
(-8.53141e-16 1.84527 0.264825)
(-5.18897e-16 -6.90164 -0.247155)
(-3.37697e-16 -8.25973 -0.242468)
(-2.28334e-16 -3.46507 -0.111699)
(-1.05034e-16 -1.62234 0.182768)
(-9.115e-17 -2.00258 0.0684388)
(-1.03198e-16 -2.66171 0.272855)
(-9.96672e-17 -3.62385 0.0365372)
(-7.53023e-17 -2.10282 0.100394)
(-4.68508e-17 -2.33025 0.506755)
(-5.85293e-18 -2.84894 0.760414)
(4.87696e-17 -2.5156 0.685172)
(1.174e-16 -2.1501 0.642641)
(1.81049e-16 0.133204 0.464802)
(2.46062e-16 1.13447 0.447414)
(2.69095e-16 1.78092 0.668102)
(2.41975e-16 2.35002 0.767866)
(2.02619e-16 2.24175 0.761447)
(2.14869e-16 0.805898 1.05814)
(2.50044e-16 -0.183806 0.957998)
(3.0605e-16 -0.387834 0.615857)
(1.80047e-16 0.802814 -0.0439506)
(1.1296e-16 1.75806 -0.760581)
(6.06711e-17 2.38527 -0.835813)
(2.21395e-16 3.00146 -0.39427)
(-9.11132e-16 -0.199051 0.126316)
(-9.11595e-16 -0.325695 0.212366)
(-9.11181e-16 -0.508451 0.315501)
(-9.10654e-16 -0.707152 0.366968)
(-9.09545e-16 -0.92107 0.39451)
(-9.07744e-16 -1.15687 0.377271)
(-9.05377e-16 -1.37112 0.314829)
(-9.03043e-16 -1.51081 0.224294)
(-9.01597e-16 -1.44534 0.122468)
(-9.00971e-16 -0.911345 -0.0513004)
(-9.00872e-16 -0.552111 0.070346)
(-9.0088e-16 -0.72003 0.07063)
(-9.00862e-16 -0.647663 0.112009)
(-9.00881e-16 -0.319068 -0.229155)
(-9.01001e-16 0.0322968 -0.450058)
(-9.01182e-16 0.172433 -0.56141)
(-9.01308e-16 0.20607 -0.52469)
(-9.01361e-16 0.227638 -0.474298)
(-9.01062e-16 0.251688 -0.0887519)
(-9.06981e-16 -3.50925 -0.0902924)
(-8.659e-16 -3.00682 -0.208223)
(-8.02359e-16 0.535771 0.103875)
(-7.78392e-16 0.767379 0.0485427)
(-7.79372e-16 -0.906621 0.283622)
(-7.70895e-16 -0.878014 0.139181)
(-7.66224e-16 -0.750431 0.0593225)
(-7.7862e-16 -0.829096 0.0405182)
(-7.81243e-16 -0.909733 -0.142524)
(-7.81142e-16 -0.970706 -0.134018)
(-7.77793e-16 -1.05935 -0.11386)
(-7.75792e-16 -0.844142 -0.4905)
(-7.86276e-16 -0.237811 -1.10677)
(-7.97435e-16 0.184581 -1.51822)
(-8.03203e-16 0.438165 -1.76358)
(-8.01247e-16 0.481707 -1.75017)
(-7.85809e-16 0.454073 -1.31472)
(-8.00577e-16 0.0754827 -0.93273)
(-8.31686e-16 -0.194423 -0.88798)
(-8.42764e-16 -0.144555 -0.697919)
(-8.45327e-16 -0.634245 -0.494421)