/*--------------------------------*- C++ -*----------------------------------*\
| =========                 |                                                 |
| \\      /  F ield         | OpenFOAM: The Open Source CFD Toolbox           |
|  \\    /   O peration     | Version:  4.1                                   |
|   \\  /    A nd           | Web:      www.OpenFOAM.org                      |
|    \\/     M anipulation  |                                                 |
\*---------------------------------------------------------------------------*/
FoamFile
{
    version     2.0;
    format      ascii;
    class       volVectorField;
    location    "10";
    object      U;
}
// * * * * * * * * * * * * * * * * * * * * * * * * * * * * * * * * * * * * * //

dimensions      [0 1 -1 0 0 0 0];

internalField   nonuniform List<vector> 
6785
(
(-5.10575e+54 -3.18348e+53 8.89647e+53)
(-9.72517e+54 1.3926e+53 1.99684e+53)
(-1.1158e+55 5.21378e+53 -4.6295e+53)
(-1.14544e+55 4.54258e+53 -7.78817e+53)
(-1.23376e+55 3.32558e+53 -8.14309e+53)
(-1.31693e+55 1.58046e+53 -8.30429e+53)
(-1.38621e+55 9.35678e+51 -7.83229e+53)
(-1.44623e+55 -1.28646e+53 -7.59212e+53)
(-1.43512e+55 -2.65449e+53 -6.2765e+53)
(-1.3535e+55 -3.02368e+53 -4.31186e+53)
(-1.25621e+55 -3.57168e+53 -2.19367e+53)
(-1.14117e+55 -4.37292e+53 8.31824e+50)
(-9.91972e+54 -4.74711e+53 2.85689e+53)
(-8.02949e+54 -6.02848e+53 6.13456e+53)
(-4.55511e+54 -8.2353e+53 1.40478e+54)
(-6.99239e+54 -9.34133e+53 1.8591e+54)
(-1.34878e+55 -5.6492e+53 9.12821e+53)
(-1.10097e+55 1.01516e+54 -1.82185e+54)
(-1.30292e+55 1.11535e+54 -2.21785e+54)
(-1.51901e+55 9.28216e+53 -1.90789e+54)
(-1.68022e+55 7.29444e+53 -1.52548e+54)
(-1.80502e+55 5.37518e+53 -1.15624e+54)
(-1.84089e+55 4.95937e+53 -8.73363e+53)
(-2.01481e+55 -5.03451e+53 9.64255e+53)
(-1.80837e+55 -5.40162e+53 1.27904e+54)
(-1.37063e+55 -3.65219e+53 1.09325e+54)
(-1.07085e+55 -3.59166e+53 1.1965e+54)
(-9.03547e+54 -3.93737e+53 1.2603e+54)
(-6.66536e+54 -3.68105e+53 1.12032e+54)
(-3.24193e+54 -2.64489e+53 6.41619e+53)
(-7.87679e+54 -8.78228e+53 1.61832e+54)
(-1.60816e+55 1.77886e+53 -3.23239e+53)
(-1.15463e+55 1.10598e+54 -1.76973e+54)
(-1.58062e+55 1.01904e+54 -1.3496e+54)
(-1.7753e+55 8.50668e+53 -7.45958e+53)
(-1.84293e+55 6.68191e+53 -1.94324e+53)
(-1.88131e+55 4.50434e+53 3.31042e+53)
(-1.88301e+55 2.56484e+53 8.40582e+53)
(-1.78659e+55 3.91632e+52 1.17345e+54)
(-1.52791e+55 -8.93272e+52 1.20954e+54)
(-1.20084e+55 -8.70322e+52 1.0254e+54)
(-9.6936e+54 -1.41167e+52 6.94819e+53)
(-8.38761e+54 1.66614e+53 9.396e+52)
(-6.88214e+54 4.54071e+53 -6.30587e+53)
(-3.96326e+54 6.3158e+53 -1.24442e+54)
(-1.65006e+55 -1.31244e+54 2.35518e+54)
(-1.77293e+55 -4.25258e+53 8.06097e+53)
(-1.23839e+55 3.3796e+53 3.40501e+52)
(-1.47012e+55 3.39008e+53 3.492e+53)
(-1.4189e+55 4.63693e+53 4.38268e+53)
(-1.3517e+55 6.48641e+53 2.27766e+53)
(-1.36527e+55 7.47086e+53 2.14989e+52)
(-1.42445e+55 7.11587e+53 -9.2388e+52)
(-1.45381e+55 6.65586e+53 -2.15119e+53)
(-1.44737e+55 7.14673e+53 -4.30246e+53)
(-1.43256e+55 8.29605e+53 -7.12783e+53)
(-1.38066e+55 9.35815e+53 -1.06923e+54)
(-1.17431e+55 9.4659e+53 -1.30206e+54)
(-8.47793e+54 7.42497e+53 -1.20888e+54)
(-3.31387e+54 5.22622e+52 6.42726e+52)
(-1.81098e+55 -1.26792e+54 2.09529e+54)
(-2.23266e+55 -1.4362e+54 2.23182e+54)
(-1.62412e+55 -1.01277e+54 1.73629e+54)
(-1.34067e+55 -8.00895e+53 1.43637e+54)
(-1.14809e+55 -5.09069e+53 9.36494e+53)
(-9.63512e+54 -6.34746e+52 8.50685e+52)
(-9.52843e+54 3.38476e+53 -6.74942e+53)
(-1.22729e+55 4.42551e+53 -9.35119e+53)
(-1.44656e+55 1.06219e+53 -4.37858e+53)
(-1.42681e+55 -2.18946e+53 2.22802e+53)
(-1.95433e+55 7.11233e+52 -6.92539e+52)
(-2.07822e+55 8.23926e+53 -1.13083e+54)
(-1.66013e+55 1.237e+54 -1.83e+54)
(-1.06743e+55 1.47032e+54 -2.18589e+54)
(-3.94542e+54 1.0179e+54 -1.68506e+54)
(-9.44796e+54 -5.77652e+53 8.54034e+53)
(-1.46544e+55 -1.11193e+54 1.49454e+54)
(-1.39555e+55 -1.25841e+54 1.37795e+54)
(-1.17613e+55 -1.16411e+54 9.06572e+53)
(-1.03758e+55 -9.77532e+53 2.81541e+53)
(-9.99029e+54 -8.53721e+53 -1.15714e+53)
(-9.08846e+54 -6.63522e+53 -3.56965e+53)
(-1.05295e+55 -3.18361e+53 -6.29012e+53)
(-1.52315e+55 -4.36158e+53 -8.68062e+52)
(-1.51593e+55 -9.38603e+53 1.10541e+54)
(-1.87655e+55 -1.03188e+54 1.36953e+54)
(-2.1438e+55 -3.33044e+53 2.96032e+53)
(-1.82756e+55 4.09494e+53 -1.00749e+54)
(-1.19457e+55 9.01534e+53 -1.64181e+54)
(-5.44886e+54 1.00375e+54 -1.85105e+54)
(-1.04354e+54 1.37505e+53 -2.79527e+53)
(-2.07399e+54 3.58783e+53 -1.00957e+54)
(-3.54087e+54 3.06649e+53 -1.3015e+54)
(-4.58819e+54 2.0099e+53 -1.37464e+54)
(-9.45996e+54 1.94988e+53 -1.44614e+54)
(-1.82703e+55 -3.63176e+53 -3.59174e+53)
(-2.08408e+55 -1.05954e+54 1.04499e+54)
(-1.92456e+55 -1.30412e+54 1.84986e+54)
(-1.78235e+55 -1.3534e+54 2.28695e+54)
(-1.79611e+55 -1.09689e+54 2.07847e+54)
(-2.08133e+55 -4.52325e+53 7.88989e+53)
(-1.8478e+55 3.2866e+53 -5.83381e+53)
(-1.35732e+55 5.82588e+53 -1.18312e+54)
(-8.24365e+54 7.70066e+53 -1.30847e+54)
(-4.11356e+54 7.58821e+53 -1.38329e+54)
(-1.00673e+54 6.70965e+53 -1.50706e+54)
(-2.69754e+54 1.04161e+54 -1.91043e+54)
(-7.90489e+54 6.75226e+53 -1.38025e+54)
(-1.47344e+55 2.51465e+53 -5.51693e+53)
(-1.9932e+55 -2.41031e+53 4.34869e+53)
(-2.26086e+55 -6.76371e+53 1.37956e+54)
(-2.28495e+55 -1.15132e+54 2.20397e+54)
(-2.126e+55 -1.41219e+54 2.6392e+54)
(-1.97968e+55 -1.40071e+54 2.50166e+54)
(-1.98203e+55 -9.34407e+53 1.5375e+54)
(-1.87783e+55 -3.82614e+53 3.7546e+53)
(-1.53568e+55 8.89111e+52 -4.02677e+53)
(-1.11607e+55 3.57541e+53 -8.81923e+53)
(-7.30377e+54 6.46704e+53 -1.14033e+54)
(-4.22179e+54 6.66836e+53 -1.41484e+54)
(-1.19062e+54 5.42412e+53 -1.07842e+54)
(-2.50765e+54 7.01818e+53 -8.58898e+53)
(-5.03642e+54 6.70754e+53 -7.19414e+53)
(-8.47444e+54 5.37458e+53 -3.75387e+53)
(-1.20631e+55 2.42469e+53 9.797e+52)
(-1.48343e+55 -1.31775e+53 6.38325e+53)
(-1.61825e+55 -5.03719e+53 1.06253e+54)
(-1.64333e+55 -7.81058e+53 1.28165e+54)
(-1.59152e+55 -8.38201e+53 1.08841e+54)
(-1.46813e+55 -6.5917e+53 5.5157e+53)
(-1.24163e+55 -4.23678e+53 5.5449e+52)
(-9.80413e+54 -2.14307e+53 -2.65067e+53)
(-7.38217e+54 -6.51791e+52 -4.25882e+53)
(-5.39174e+54 7.56664e+52 -4.69669e+53)
(-3.85386e+54 9.67836e+52 -4.29332e+53)
(-5.39793e+53 1.20132e+53 -2.53006e+53)
(1.90028e+53 2.07424e+53 -3.31682e+53)
(1.15742e+53 2.28065e+53 -3.37852e+53)
(-5.07767e+53 2.42218e+53 -3.14192e+53)
(-1.49527e+54 1.88883e+53 -2.38886e+53)
(-3.10138e+54 8.88964e+52 -1.29541e+53)
(-4.50209e+54 -6.13133e+52 -3.94328e+51)
(-5.54808e+54 -2.20457e+53 1.06294e+53)
(-5.88221e+54 -3.21527e+53 1.26621e+53)
(-5.46436e+54 -3.59494e+53 1.02124e+53)
(-4.71632e+54 -3.58938e+53 1.06624e+53)
(-3.98862e+54 -3.50903e+53 1.55134e+53)
(-3.34455e+54 -3.12552e+53 2.28516e+53)
(-2.84221e+54 -2.89792e+53 2.94197e+53)
(-3.33295e+54 -3.83383e+53 6.76984e+53)
(-9.12102e+53 1.67495e+53 -3.43134e+53)
(-1.36616e+54 2.25119e+53 -4.17614e+53)
(-1.56639e+54 1.92827e+53 -3.88935e+53)
(-1.67376e+54 1.765e+53 -3.33846e+53)
(-1.71217e+54 1.76608e+53 -3.04982e+53)
(-1.65358e+54 1.83266e+53 -2.86817e+53)
(-1.56376e+54 1.74662e+53 -2.46088e+53)
(-1.6396e+54 1.16463e+53 -1.25943e+53)
(-1.75634e+54 3.35602e+52 4.07586e+52)
(-1.77542e+54 -5.05646e+52 2.22587e+53)
(-1.98478e+54 -1.46899e+53 4.42238e+53)
(-2.26014e+54 -2.45788e+53 6.60694e+53)
(-2.5588e+54 -3.37019e+53 8.52402e+53)
(-2.6741e+54 -3.98963e+53 9.196e+53)
(-1.87501e+54 -2.70807e+53 5.99861e+53)
(-1.19926e+54 1.40303e+53 -1.90864e+53)
(-1.38089e+54 1.67051e+53 -1.3522e+53)
(-1.57985e+54 1.68956e+53 -5.78621e+52)
(-1.73031e+54 1.49844e+53 4.2937e+52)
(-1.7944e+54 1.25866e+53 1.29566e+53)
(-1.79628e+54 1.03204e+53 2.08168e+53)
(-1.7466e+54 7.79836e+52 2.84699e+53)
(-1.67744e+54 4.60155e+52 3.60624e+53)
(-1.66813e+54 9.78224e+49 4.45924e+53)
(-1.74017e+54 -5.48101e+52 5.31325e+53)
(-1.86328e+54 -1.04485e+53 5.85004e+53)
(-1.93606e+54 -1.12069e+53 5.46914e+53)
(-1.82185e+54 -7.59981e+51 2.96935e+53)
(-1.35635e+54 2.87699e+53 -3.36699e+53)
(-5.87511e+53 6.04707e+53 -1.0001e+54)
(-1.05752e+54 -1.51736e+53 5.33269e+53)
(-1.04863e+54 -2.43228e+53 3.06944e+53)
(-9.453e+53 -1.381e+53 1.95703e+53)
(-8.39675e+53 -1.35011e+53 5.10482e+52)
(-7.77342e+53 -1.43202e+53 -4.73362e+52)
(-7.5005e+53 -1.79744e+53 -9.92488e+52)
(-7.45014e+53 -2.37939e+53 -1.16815e+53)
(-7.52815e+53 -3.07825e+53 -1.0974e+53)
(-7.72497e+53 -3.8082e+53 -8.21464e+52)
(-8.10913e+53 -4.37464e+53 -5.67239e+52)
(-8.75938e+53 -4.74904e+53 -3.78783e+52)
(-9.7367e+53 -4.84539e+53 -2.62061e+52)
(-1.07514e+54 -4.36692e+53 -4.27433e+52)
(-1.1948e+54 -3.08843e+53 -1.20071e+53)
(-1.19249e+54 1.00987e+53 -4.41536e+53)
(-7.41933e+53 5.77357e+53 -2.63901e+53)
(-5.88198e+53 9.67496e+52 -9.97326e+53)
(-5.05777e+53 3.9725e+52 -8.82617e+53)
(-4.70698e+53 1.03036e+53 -8.40031e+53)
(-4.56929e+53 3.86693e+52 -7.96424e+53)
(-4.50435e+53 -2.24761e+52 -7.45995e+53)
(-4.47725e+53 -1.44903e+53 -6.1354e+53)
(-4.458e+53 -2.57304e+53 -4.10892e+53)
(-4.44288e+53 -4.21023e+53 -1.20914e+53)
(-4.40697e+53 -6.11573e+53 2.90245e+53)
(-4.41834e+53 -8.81684e+53 7.96134e+53)
(-4.60318e+53 -1.18237e+54 1.34799e+54)
(-5.07653e+53 -1.50374e+54 1.92974e+54)
(-6.49256e+53 -1.84769e+54 2.84861e+54)
(-1.25225e+54 -2.67298e+54 3.97305e+54)
(-5.63192e+53 -1.95561e+54 3.09689e+54)
(-3.70572e+53 2.69193e+54 -8.17761e+53)
(-4.01944e+53 2.42271e+54 -9.93947e+53)
(-3.98206e+53 2.96975e+54 -1.41514e+54)
(-4.05936e+53 3.09509e+54 -1.3732e+54)
(-4.10527e+53 3.3177e+54 -1.51669e+54)
(-4.19005e+53 3.33022e+54 -1.50108e+54)
(-4.24993e+53 3.46036e+54 -1.48208e+54)
(-4.35294e+53 3.36498e+54 -1.52613e+54)
(-4.45256e+53 3.28623e+54 -1.40614e+54)
(-4.56251e+53 3.15142e+54 -1.5527e+54)
(-4.75329e+53 2.76968e+54 -1.45736e+54)
(-4.89081e+53 2.84732e+54 -1.49487e+54)
(-4.83999e+53 3.52661e+54 -9.11253e+53)
(-3.31719e+53 5.26944e+54 5.63356e+53)
(-6.26388e+52 7.89297e+55 7.74552e+54)
(-7.72969e+52 -4.38534e+54 -1.05014e+55)
(-7.39903e+52 1.25894e+54 -1.66558e+55)
(-7.46237e+52 9.12771e+54 -5.37213e+54)
(-7.65645e+52 4.44551e+54 -5.56599e+54)
(-1.0603e+53 -1.72368e+54 -7.54967e+54)
(-6.95664e+52 -7.07365e+53 -6.25567e+54)
(-7.2046e+52 2.33544e+54 -6.99964e+54)
(-7.42485e+52 6.05257e+54 -7.33747e+54)
(-1.05824e+53 4.67873e+54 -8.6562e+54)
(-6.70206e+52 -9.11051e+53 -7.70743e+54)
(-7.2088e+52 6.19832e+54 -8.56746e+54)
(-1.03562e+53 4.3817e+54 -9.33905e+54)
(-7.57771e+52 3.15154e+54 -9.50613e+54)
(-7.51898e+52 4.14234e+54 -9.19752e+54)
(-7.13288e+52 4.46914e+54 -8.60576e+54)
(-1.02875e+53 8.06681e+54 -1.05948e+55)
(-7.67641e+52 5.43831e+54 -9.2064e+54)
(-7.13767e+52 5.79364e+54 -8.59162e+54)
(-1.03611e+53 1.03703e+55 -1.07426e+55)
(-7.57313e+52 7.07931e+54 -8.65258e+54)
(-7.51855e+52 8.0584e+54 -8.5069e+54)
(-7.12468e+52 8.08674e+54 -8.13328e+54)
(-1.03738e+53 1.29995e+55 -1.02267e+55)
(-7.58382e+52 9.25268e+54 -7.98232e+54)
(-7.52832e+52 1.01905e+55 -7.84551e+54)
(-7.14036e+52 1.01588e+55 -7.52126e+54)
(-1.03438e+53 1.52182e+55 -9.41685e+54)
(-7.70879e+52 1.14295e+55 -7.29247e+54)
(-7.16625e+52 1.13473e+55 -6.92012e+54)
(-1.04254e+53 1.71324e+55 -8.5753e+54)
(-7.60944e+52 1.25933e+55 -6.54095e+54)
(-7.5541e+52 1.34587e+55 -6.44822e+54)
(-7.16447e+52 1.32732e+55 -6.21528e+54)
(-1.03889e+53 1.87892e+55 -7.67954e+54)
(-7.73628e+52 1.4376e+55 -5.87249e+54)
(-7.19101e+52 1.40845e+55 -5.61005e+54)
(-1.04695e+53 2.03375e+55 -6.83263e+54)
(-7.635e+52 1.51508e+55 -5.19723e+54)
(-7.58189e+52 1.59559e+55 -5.13908e+54)
(-7.18417e+52 1.56053e+55 -4.97314e+54)
(-1.0484e+53 2.17232e+55 -6.05147e+54)
(-7.64863e+52 1.63034e+55 -4.59917e+54)
(-7.59426e+52 1.70603e+55 -4.53115e+54)
(-7.20251e+52 1.6676e+55 -4.38183e+54)
(-1.04532e+53 2.26753e+55 -5.29725e+54)
(-7.77747e+52 1.75218e+55 -4.05363e+54)
(-7.22875e+52 1.6998e+55 -3.8928e+54)
(-1.05317e+53 2.37174e+55 -4.59592e+54)
(-7.67418e+52 1.78184e+55 -3.53264e+54)
(-7.62147e+52 1.85313e+55 -3.4909e+54)
(-7.22186e+52 1.80186e+55 -3.38822e+54)
(-1.0545e+53 2.44883e+55 -4.0119e+54)
(-7.68825e+52 1.8481e+55 -3.08756e+54)
(-7.63419e+52 1.91528e+55 -3.03423e+54)
(-7.24066e+52 1.86292e+55 -2.94021e+54)
(-1.05133e+53 2.48836e+55 -3.46955e+54)
(-7.81874e+52 1.92819e+55 -2.68577e+54)
(-7.26704e+52 1.86164e+55 -2.5913e+54)
(-1.05903e+53 2.55541e+55 -2.94992e+54)
(-7.7148e+52 1.92633e+55 -2.31638e+54)
(-7.66054e+52 1.98965e+55 -2.28455e+54)
(-7.26584e+52 1.9313e+55 -2.22197e+54)
(-1.05505e+53 2.5636e+55 -2.55634e+54)
(-7.84563e+52 1.98782e+55 -2.00987e+54)
(-7.29232e+52 1.91563e+55 -1.95499e+54)
(-1.06271e+53 2.61383e+55 -2.15942e+54)
(-7.74094e+52 1.97234e+55 -1.73217e+54)
(-7.68855e+52 2.03347e+55 -1.71925e+54)
(-7.28628e+52 1.96775e+55 -1.67725e+54)
(-1.06397e+53 2.63109e+55 -1.89811e+54)
(-7.75612e+52 1.99295e+55 -1.51886e+54)
(-7.70239e+52 2.05129e+55 -1.49266e+54)
(-7.30582e+52 1.98691e+55 -1.44844e+54)
(-1.06108e+53 2.62256e+55 -1.67238e+54)
(-7.87999e+52 2.03474e+55 -1.33782e+54)
(-7.36198e+52 1.96378e+55 -1.2998e+54)
(-1.03887e+53 2.60816e+55 -1.44059e+54)
(-8.44682e+52 2.062e+55 -1.1789e+54)
(-5.52624e+52 1.8524e+55 -1.14224e+54)
(-1.23471e+53 2.20121e+55 -1.28284e+54)
(-1.28232e+53 2.12218e+55 -1.34989e+54)
(-1.30771e+53 2.07273e+55 -1.43178e+54)
(-9.35403e+52 2.06232e+55 -1.0141e+54)
(-1.24801e+53 1.96681e+55 -1.10571e+54)
(-1.37522e+53 1.96894e+55 -1.23462e+54)
(-1.46519e+53 1.97385e+55 -1.32562e+54)
(-1.48e+53 1.98049e+55 -1.34054e+54)
(-1.48099e+53 1.98524e+55 -1.33844e+54)
(-1.4854e+53 1.98579e+55 -1.33632e+54)
(-1.47329e+53 1.9947e+55 -1.31486e+54)
(-1.51527e+53 1.97444e+55 -1.41895e+54)
(-8.62775e+52 2.18071e+55 -4.34314e+53)
(-1.46975e+53 1.93761e+55 -9.91028e+53)
(-1.4849e+53 1.93137e+55 -1.01302e+54)
(-1.49289e+53 1.93272e+55 -1.01971e+54)
(-1.47291e+53 1.93301e+55 -1.01629e+54)
(-1.46747e+53 1.93456e+55 -1.00979e+54)
(-1.4699e+53 1.933e+55 -1.00962e+54)
(-1.45712e+53 1.93928e+55 -9.79497e+53)
(-1.49383e+53 1.9228e+55 -1.03319e+54)
(-8.83595e+52 2.10527e+55 2.80634e+52)
(-1.42993e+53 1.87724e+55 -6.19208e+53)
(-1.4457e+53 1.87105e+55 -6.44374e+53)
(-1.44717e+53 1.87139e+55 -6.50526e+53)
(-1.44717e+53 1.8717e+55 -6.51135e+53)
(-1.445e+53 1.8714e+55 -6.46701e+53)
(-1.43235e+53 1.87286e+55 -6.26314e+53)
(-1.43368e+53 1.87055e+55 -6.23751e+53)
(-1.42186e+53 1.87598e+55 -5.91573e+53)
(-1.45644e+53 1.86005e+55 -6.47759e+53)
(-8.89058e+52 2.03281e+55 4.63564e+53)
(-1.41025e+53 1.81091e+55 -2.56048e+53)
(-1.42566e+53 1.80511e+55 -2.82046e+53)
(-1.42781e+53 1.80563e+55 -2.8696e+53)
(-1.42745e+53 1.80567e+55 -2.85863e+53)
(-1.42852e+53 1.80608e+55 -2.80499e+53)
(-1.42412e+53 1.80441e+55 -2.77811e+53)
(-1.40742e+53 1.80967e+55 -2.43155e+53)
(-1.43981e+53 1.7941e+55 -3.03596e+53)
(-8.99783e+52 1.95949e+55 8.76866e+53)
(-1.41079e+53 1.74262e+55 9.47752e+52)
(-1.42503e+53 1.73666e+55 6.55234e+52)
(-1.42169e+53 1.7363e+55 5.85512e+52)
(-1.42143e+53 1.73644e+55 5.84282e+52)
(-1.4207e+53 1.73713e+55 6.43316e+52)
(-1.42308e+53 1.73489e+55 6.32763e+52)
(-1.41644e+53 1.73999e+55 9.47601e+52)
(-1.43776e+53 1.72452e+55 2.93777e+52)
(-9.20555e+52 1.88868e+55 1.26541e+54)
(-1.41117e+53 1.67272e+55 4.15761e+53)
(-1.42599e+53 1.66641e+55 3.86295e+53)
(-1.42906e+53 1.6671e+55 3.75831e+53)
(-1.4268e+53 1.66584e+55 3.85236e+53)
(-1.42414e+53 1.66612e+55 3.98785e+53)
(-1.42794e+53 1.66449e+55 3.97859e+53)
(-1.41896e+53 1.66977e+55 4.29286e+53)
(-1.45151e+53 1.65454e+55 3.62497e+53)
(-9.48003e+52 1.82105e+55 1.61393e+54)
(-1.42088e+53 1.60247e+55 7.24955e+53)
(-1.43579e+53 1.59704e+55 6.92739e+53)
(-1.43857e+53 1.59774e+55 6.8265e+53)
(-1.44045e+53 1.59715e+55 6.86646e+53)
(-1.43963e+53 1.59947e+55 6.6918e+53)
(-1.44637e+53 1.59568e+55 7.30633e+53)
(-1.45326e+53 1.596e+55 7.39881e+53)
(-1.44646e+53 1.6036e+55 7.74129e+53)
(-1.48064e+53 1.5889e+55 7.15517e+53)
(-9.91356e+52 1.76903e+55 1.89038e+54)
(-1.44208e+53 1.54398e+55 1.04662e+54)
(-1.44324e+53 1.5402e+55 1.02527e+54)
(-1.44379e+53 1.54257e+55 1.01748e+54)
(-1.44976e+53 1.54354e+55 1.0227e+54)
(-1.44075e+53 1.54955e+55 1.00736e+54)
(-1.47883e+53 1.5502e+55 1.0754e+54)
(-1.66861e+53 1.54268e+55 1.48406e+54)
(-1.78153e+53 1.52689e+55 1.58803e+54)
(-1.02918e+53 1.91152e+55 2.02773e+54)
(-1.76177e+53 1.55171e+55 1.82386e+54)
(-1.89136e+53 1.56208e+55 1.89e+54)
(-1.11898e+53 1.43958e+55 1.31892e+54)
(-1.23113e+53 1.69813e+55 1.53651e+54)
(-1.40136e+53 1.81977e+55 1.83772e+54)
(-9.24187e+52 1.24099e+55 1.16171e+54)
(-1.26645e+53 1.71472e+55 1.56866e+54)
(-9.1788e+52 1.25371e+55 1.11797e+54)
(-1.13072e+53 1.4803e+55 1.25286e+54)
(-1.31584e+53 1.58678e+55 1.41071e+54)
(-8.95157e+52 1.12189e+55 9.5341e+53)
(-1.0945e+53 1.35215e+55 1.08286e+54)
(-1.29175e+53 1.51408e+55 1.43428e+54)
(-8.55156e+52 1.03201e+55 9.38408e+53)
(-1.18345e+53 1.47199e+55 1.48881e+54)
(-8.57271e+52 1.07364e+55 1.08731e+54)
(-1.05796e+53 1.28585e+55 1.4724e+54)
(-1.24819e+53 1.42556e+55 2.40163e+54)
(-8.2528e+52 9.66509e+54 1.48969e+54)
(-1.14146e+53 1.37761e+55 2.59953e+54)
(-8.25432e+52 1.00012e+55 1.81901e+54)
(-1.01964e+53 1.18957e+55 2.55929e+54)
(-1.21234e+53 1.35965e+55 2.84225e+54)
(-8.26195e+52 9.64323e+54 2.05183e+54)
(-1.01169e+53 1.16167e+55 2.03618e+54)
(-1.22387e+53 1.65396e+55 -1.95708e+54)
(-8.07551e+52 1.09958e+55 -5.28807e+53)
(-1.14169e+53 1.90745e+55 -6.9334e+54)
(-8.32036e+52 1.50555e+55 -5.18611e+54)
(-1.01158e+53 1.90546e+55 -9.33784e+54)
(-1.20066e+53 2.33307e+55 -1.34889e+55)
(-7.9431e+52 1.73843e+55 -8.95309e+54)
(-1.10074e+53 2.52283e+55 -1.37646e+55)
(-7.98262e+52 1.98888e+55 -9.87104e+54)
(-9.82822e+52 2.40583e+55 -1.30354e+55)
(-1.16965e+53 2.65126e+55 -1.64436e+55)
(-7.9766e+52 2.0222e+55 -1.12734e+55)
(-9.7878e+52 2.4573e+55 -1.45244e+55)
(-1.15194e+53 2.59226e+55 -1.75091e+55)
(-7.63739e+52 1.92849e+55 -1.22562e+55)
(-1.03845e+53 2.48757e+55 -1.65986e+55)
(-7.49468e+52 1.9405e+55 -1.28259e+55)
(-9.18299e+52 2.24852e+55 -1.59224e+55)
(-1.00922e+53 2.16238e+55 -1.78427e+55)
(-6.6839e+52 1.51151e+55 -1.39078e+55)
(-8.35332e+52 1.87832e+55 -1.74668e+55)
(-5.91661e+52 1.25904e+55 -1.51275e+55)
(-6.8576e+52 1.76475e+55 -1.96007e+55)
(-1.97466e+52 3.19383e+55 -2.90286e+55)
(3.62639e+52 -2.03004e+55 -1.79452e+55)
(2.46681e+52 2.50432e+55 -1.807e+55)
(-5.3212e+51 -7.85764e+54 -1.11817e+54)
(-1.27518e+52 -1.18542e+55 3.39082e+54)
(-2.04516e+52 -1.85822e+55 8.09208e+54)
(-2.30023e+52 -1.96827e+55 1.02909e+55)
(-3.76375e+52 -3.2116e+55 1.92584e+55)
(-4.45689e+52 -4.65893e+55 2.46785e+55)
(-3.93288e+52 -4.30078e+55 2.23343e+55)
(-5.69699e+52 -6.46925e+55 3.33222e+55)
(-4.66241e+52 -5.31883e+55 2.78572e+55)
(-7.25419e+52 -8.31544e+55 4.43452e+55)
(-7.08871e+52 -9.14123e+55 4.41899e+55)
(-5.98222e+52 -7.94407e+55 3.80268e+55)
(-9.04175e+52 -1.19089e+56 5.77408e+55)
(-8.46741e+52 -1.25271e+56 5.50739e+55)
(-7.00937e+52 -1.10505e+56 4.72302e+55)
(-9.83157e+52 -1.56957e+56 6.59967e+55)
(-7.48384e+52 -1.21669e+56 5.1743e+55)
(-1.13629e+53 -1.82216e+56 7.79891e+55)
(-1.02624e+53 -1.80944e+56 7.14495e+55)
(-8.4355e+52 -1.58401e+56 6.10783e+55)
(-1.17252e+53 -2.21459e+56 8.39678e+55)
(-8.80913e+52 -1.68454e+56 6.53653e+55)
(-1.32741e+53 -2.4938e+56 9.73731e+55)
(-1.17934e+53 -2.38473e+56 8.78335e+55)
(-9.7295e+52 -2.0355e+56 7.49227e+55)
(-1.42762e+53 -2.90936e+56 1.08109e+56)
(-1.26136e+53 -2.78986e+56 9.79626e+55)
(-1.03212e+53 -2.40816e+56 8.44e+55)
(-1.421e+53 -3.3546e+56 1.14317e+56)
(-1.06259e+53 -2.41343e+56 8.87649e+55)
(-1.64238e+53 -3.32277e+56 1.38465e+56)
(9.65987e+51 -2.83435e+53 1.18679e+54)
(9.77123e+51 -8.24054e+53 9.00083e+53)
(9.83477e+51 -5.65189e+53 1.13395e+54)
(9.97432e+51 -6.75982e+53 1.10357e+54)
(9.44706e+51 2.05961e+53 9.82401e+53)
(8.3773e+51 3.71642e+53 8.81112e+53)
(8.569e+51 -1.15598e+53 5.92618e+53)
(8.76277e+51 -6.66214e+53 6.46899e+53)
(8.95581e+51 -3.65924e+53 1.1139e+54)
(9.2353e+51 -7.00229e+53 9.26747e+53)
(9.48568e+51 -1.24497e+54 3.71184e+53)
(9.6337e+51 -6.79659e+53 7.25077e+53)
(9.64042e+51 -9.72072e+53 6.97345e+53)
(9.25391e+51 -1.04953e+54 3.9636e+53)
(8.73972e+51 -7.6332e+53 1.5557e+53)
(8.99593e+51 -3.01924e+54 5.24516e+52)
(9.01175e+51 -1.95305e+54 1.10446e+53)
(8.3307e+51 1.65329e+54 -4.94105e+53)
(8.13223e+51 2.12239e+54 -1.52931e+53)
(8.36122e+51 1.71976e+54 3.72793e+52)
(8.70201e+51 1.40438e+54 4.11041e+53)
(9.1287e+51 1.1946e+54 4.51453e+53)
(9.3777e+51 1.09482e+54 4.84885e+53)
(9.85367e+51 9.51755e+53 7.1462e+53)
(9.95369e+51 9.08545e+53 8.48386e+53)
(1.00184e+52 6.4975e+53 8.61551e+53)
(1.02342e+52 2.65715e+53 7.41251e+53)
(1.05422e+52 -1.55589e+53 4.09685e+53)
(1.08966e+52 -3.46968e+53 2.53924e+53)
(1.01363e+52 3.66501e+53 6.05725e+53)
(1.03626e+52 -5.66345e+53 3.00765e+53)
(1.06206e+52 -1.62339e+54 -1.16342e+53)
(1.09084e+52 -4.40038e+53 1.3131e+53)
(1.15113e+52 -7.51049e+53 1.97778e+53)
(1.14813e+52 -9.92e+53 -5.72712e+52)
(1.01391e+52 2.5466e+53 1.42273e+53)
(1.07362e+52 3.09891e+53 -4.07935e+53)
(1.12362e+52 -1.48836e+53 3.11802e+52)
(1.21203e+52 -1.40094e+54 -3.86356e+52)
(1.25147e+52 -1.4759e+53 2.7803e+53)
(1.34823e+52 -9.27482e+53 2.32705e+51)
(1.42173e+52 -3.80866e+53 2.26682e+53)
(1.54548e+52 -4.63899e+53 1.48672e+52)
(1.44137e+52 9.98939e+53 -2.32009e+53)
(1.23083e+52 4.39763e+53 1.72483e+52)
(1.21439e+52 3.05898e+53 2.28738e+52)
(1.29205e+52 -6.46197e+53 -1.44745e+53)
(1.38459e+52 -5.81842e+53 -1.66958e+53)
(1.42802e+52 -4.7944e+53 -1.9062e+53)
(1.60819e+52 -5.43148e+53 -2.80034e+52)
(1.74458e+52 -6.74781e+53 -4.01417e+52)
(1.74955e+52 -6.98615e+53 -5.41943e+52)
(1.75026e+52 -6.07958e+53 -5.09756e+52)
(1.82267e+52 -5.2283e+53 -2.73969e+52)
(1.86055e+52 -5.58813e+53 -2.40155e+52)
(1.78031e+52 -6.33405e+53 -2.8032e+52)
(1.60537e+52 -6.77755e+53 -3.27232e+52)
(1.34793e+52 -6.93333e+53 -3.7539e+52)
(1.14319e+52 -6.95958e+53 -4.05015e+52)
(1.05527e+52 -7.18891e+53 -4.2745e+52)
(9.27915e+51 -7.79545e+53 -4.90452e+52)
(6.65682e+51 -8.63873e+53 -6.03838e+52)
(3.66536e+51 -9.51263e+53 -7.25209e+52)
(1.39045e+51 -1.03809e+54 -8.18432e+52)
(1.89737e+50 -1.13997e+54 -8.8154e+52)
(-1.75981e+50 -1.28142e+54 -9.44238e+52)
(-1.97997e+50 -1.48443e+54 -1.04386e+53)
(-2.10636e+50 -1.7627e+54 -1.20105e+53)
(-2.55031e+50 -2.12708e+54 -1.41512e+53)
(-2.72502e+50 -2.5964e+54 -1.66631e+53)
(-2.5268e+50 -3.1928e+54 -1.9521e+53)
(-2.29482e+50 -3.95956e+54 -2.16699e+53)
(-2.26319e+50 -4.82688e+54 -2.34808e+53)
(-2.17139e+50 -5.8886e+54 -8.176e+52)
(5.58891e+50 -4.61885e+54 2.91103e+53)
(-5.44611e+50 -1.0305e+55 3.24984e+54)
(-1.0764e+52 -4.08868e+55 1.42848e+55)
(-4.11335e+52 -1.15284e+56 4.6639e+55)
(-1.04639e+53 -2.43694e+56 1.10371e+56)
(9.67062e+51 -4.12087e+53 1.1031e+54)
(9.8034e+51 -8.4641e+53 9.17481e+53)
(9.87492e+51 -6.18122e+53 1.18439e+54)
(9.93353e+51 -6.05482e+53 1.1357e+54)
(9.27031e+51 3.15182e+53 9.23664e+53)
(8.39462e+51 3.36807e+53 9.1809e+53)
(8.64523e+51 2.0466e+52 9.74949e+53)
(8.80233e+51 -5.08846e+53 9.05694e+53)
(9.03592e+51 -6.15321e+52 1.29611e+54)
(9.3047e+51 -4.29065e+53 1.02884e+54)
(9.51311e+51 -8.96234e+53 5.03985e+53)
(9.6515e+51 -1.58638e+53 7.794e+53)
(9.60988e+51 -4.90911e+53 6.43744e+53)
(9.22854e+51 -5.13246e+53 2.32299e+53)
(8.75223e+51 -3.12757e+53 1.98167e+52)
(8.99765e+51 -2.84797e+54 3.21707e+52)
(9.02123e+51 -1.6613e+54 -6.55601e+52)
(8.29246e+51 1.59346e+54 -5.09303e+53)
(8.0335e+51 2.03482e+54 -2.22934e+53)
(8.22212e+51 1.68478e+54 -9.65883e+51)
(8.51569e+51 1.36708e+54 3.51319e+53)
(8.86832e+51 1.29866e+54 4.39543e+53)
(9.27848e+51 9.9342e+53 5.50323e+53)
(9.74983e+51 8.87562e+53 7.0353e+53)
(9.85883e+51 8.67208e+53 8.59529e+53)
(9.91531e+51 6.26396e+53 9.0239e+53)
(1.01159e+52 2.54679e+53 7.92504e+53)
(1.04221e+52 -9.08206e+52 4.67444e+53)
(1.07853e+52 -3.63422e+53 2.40295e+53)
(9.99479e+51 2.63781e+53 6.31754e+53)
(1.01971e+52 -7.90186e+53 3.04496e+53)
(1.05285e+52 -1.83788e+54 -7.2721e+52)
(1.09016e+52 -6.02871e+53 4.00564e+52)
(1.14903e+52 -9.05643e+53 1.33155e+53)
(1.14193e+52 -1.03638e+54 8.02169e+51)
(1.00322e+52 -2.13172e+53 -2.31453e+53)
(1.07502e+52 7.0282e+52 -3.71e+53)
(1.12511e+52 -1.8686e+53 3.97685e+53)
(1.21383e+52 -1.27043e+54 7.57144e+52)
(1.26839e+52 1.97508e+53 3.71007e+53)
(1.35436e+52 -6.83638e+53 4.20665e+52)
(1.4359e+52 5.63699e+52 1.06878e+53)
(1.54537e+52 5.66322e+52 -3.35947e+53)
(1.41981e+52 7.02111e+53 -1.78083e+53)
(1.21765e+52 5.15607e+53 -9.93044e+52)
(1.20609e+52 4.58416e+53 1.04105e+53)
(1.28674e+52 -8.20693e+53 -2.58315e+53)
(1.36894e+52 -7.61845e+53 -1.31273e+53)
(1.4239e+52 -6.12547e+53 -1.03622e+53)
(1.60473e+52 -6.16643e+53 6.98974e+52)
(1.74562e+52 -6.97301e+53 3.46002e+52)
(1.74923e+52 -6.8811e+53 -4.82443e+50)
(1.75155e+52 -5.71501e+53 -2.52369e+52)
(1.82428e+52 -4.71658e+53 -3.76362e+52)
(1.86044e+52 -5.14972e+53 -6.15613e+52)
(1.78167e+52 -6.10045e+53 -7.7274e+52)
(1.61046e+52 -6.78457e+53 -8.29554e+52)
(1.35613e+52 -7.17879e+53 -7.91905e+52)
(1.14875e+52 -7.39509e+53 -6.75786e+52)
(1.05728e+52 -7.72557e+53 -5.51106e+52)
(9.31651e+51 -8.35816e+53 -5.11621e+52)
(6.7102e+51 -9.19793e+53 -5.72664e+52)
(3.70773e+51 -1.00679e+54 -6.82604e+52)
(1.41414e+51 -1.09419e+54 -7.97812e+52)
(1.9866e+50 -1.1978e+54 -9.08102e+52)
(-1.75009e+50 -1.34221e+54 -1.03357e+53)
(-1.98731e+50 -1.55009e+54 -1.20475e+53)
(-2.10403e+50 -1.83624e+54 -1.44113e+53)
(-2.54465e+50 -2.21265e+54 -1.7465e+53)
(-2.72481e+50 -2.69928e+54 -2.10229e+53)
(-2.53042e+50 -3.31903e+54 -2.51789e+53)
(-2.29698e+50 -4.11864e+54 -2.82517e+53)
(-2.2632e+50 -5.03122e+54 -3.12792e+53)
(-2.13025e+50 -6.17563e+54 -1.05637e+53)
(6.39072e+50 -5.05353e+54 2.15635e+53)
(-6.61837e+50 -1.18801e+55 2.58149e+54)
(-1.19554e+52 -4.62583e+55 1.41846e+55)
(-4.56465e+52 -1.27757e+56 4.9029e+55)
(-1.10465e+53 -2.59732e+56 1.0762e+56)
(9.62331e+51 -4.81235e+53 1.06815e+54)
(9.83019e+51 -8.95336e+53 9.01467e+53)
(9.9412e+51 -7.1918e+53 1.10529e+54)
(9.89646e+51 -5.83923e+53 1.08739e+54)
(9.04497e+51 1.98423e+53 8.48401e+53)
(8.37746e+51 4.25476e+52 8.03208e+53)
(8.68261e+51 -3.16693e+53 9.90397e+53)
(8.83574e+51 -6.90578e+53 9.75265e+53)
(9.11e+51 -3.50765e+53 1.27515e+54)
(9.36661e+51 -6.49647e+53 1.03711e+54)
(9.54428e+51 -1.01353e+54 6.14618e+53)
(9.66102e+51 -4.71303e+53 8.63574e+53)
(9.56682e+51 -6.49663e+53 6.6882e+53)
(9.1902e+51 -6.16175e+53 2.17503e+53)
(8.76855e+51 -6.33238e+53 4.22347e+52)
(9.00052e+51 -2.87454e+54 5.55418e+52)
(9.02957e+51 -1.68594e+54 -1.11986e+53)
(8.2477e+51 1.5903e+54 -5.16441e+53)
(7.95649e+51 2.01529e+54 -2.66688e+53)
(8.11603e+51 1.65374e+54 -5.06623e+52)
(8.38173e+51 1.34845e+54 3.19813e+53)
(8.7463e+51 1.11165e+54 5.05317e+53)
(9.25052e+51 9.84157e+53 5.99872e+53)
(9.67596e+51 8.83293e+53 7.1977e+53)
(9.7612e+51 8.71677e+53 8.83763e+53)
(9.80192e+51 6.37854e+53 9.34445e+53)
(9.96315e+51 3.29199e+53 8.1936e+53)
(1.02227e+52 9.74674e+52 5.42432e+53)
(1.05723e+52 -2.61813e+53 2.85132e+53)
(9.85233e+51 2.33423e+53 6.13336e+53)
(1.01245e+52 -7.67767e+53 3.00565e+53)
(1.04722e+52 -1.78845e+54 -5.89267e+52)
(1.08626e+52 -6.11944e+53 4.33804e+52)
(1.14941e+52 -9.86709e+53 3.81049e+52)
(1.13687e+52 -9.68687e+53 5.48437e+52)
(9.97048e+51 -2.51573e+53 -2.53335e+53)
(1.07297e+52 -5.12803e+53 -4.36593e+53)
(1.13133e+52 -3.60971e+53 3.26345e+53)
(1.21617e+52 -1.31742e+54 9.27148e+52)
(1.28052e+52 -1.45115e+53 3.8189e+53)
(1.36216e+52 -7.56415e+53 8.40731e+52)
(1.45284e+52 -1.49954e+53 1.27303e+53)
(1.54668e+52 -2.57091e+52 -3.37969e+53)
(1.3617e+52 6.74203e+53 -8.57521e+52)
(1.19316e+52 4.85568e+53 2.86006e+52)
(1.18432e+52 4.35662e+53 1.45391e+53)
(1.27289e+52 -6.61141e+53 -1.91007e+53)
(1.34859e+52 -7.04885e+53 -1.48958e+53)
(1.41178e+52 -6.01445e+53 -1.31956e+53)
(1.59043e+52 -6.06383e+53 5.37649e+52)
(1.74368e+52 -6.97454e+53 4.77683e+52)
(1.74937e+52 -6.96275e+53 2.01057e+52)
(1.75292e+52 -5.85823e+53 -4.27843e+50)
(1.82649e+52 -4.88935e+53 -1.78544e+52)
(1.86007e+52 -5.23721e+53 -5.43328e+52)
(1.78174e+52 -6.07311e+53 -8.05977e+52)
(1.6142e+52 -6.6651e+53 -9.42447e+52)
(1.3639e+52 -6.99439e+53 -9.58238e+52)
(1.15505e+52 -7.1721e+53 -8.64529e+52)
(1.06007e+52 -7.4917e+53 -7.29864e+52)
(9.36998e+51 -8.14179e+53 -6.59241e+52)
(6.79226e+51 -9.01621e+53 -6.87412e+52)
(3.77567e+51 -9.92381e+53 -7.73767e+52)
(1.45206e+51 -1.08289e+54 -8.79661e+52)
(2.12547e+50 -1.18844e+54 -9.97799e+52)
(-1.73534e+50 -1.33342e+54 -1.14816e+53)
(-1.99826e+50 -1.54058e+54 -1.35911e+53)
(-2.10103e+50 -1.82513e+54 -1.64838e+53)
(-2.5366e+50 -2.1994e+54 -2.02151e+53)
(-2.72437e+50 -2.68367e+54 -2.45968e+53)
(-2.53555e+50 -3.30083e+54 -2.98361e+53)
(-2.30014e+50 -4.10116e+54 -3.38055e+53)
(-2.2633e+50 -5.02227e+54 -3.86047e+53)
(-2.11494e+50 -6.22301e+54 -1.55268e+53)
(7.21546e+50 -5.21397e+54 3.04757e+52)
(-7.99924e+50 -1.31538e+55 1.81309e+54)
(-1.3715e+52 -5.1457e+55 1.49081e+55)
(-5.13871e+52 -1.39175e+56 5.30437e+55)
(-1.1439e+53 -2.64337e+56 1.04042e+56)
(9.55083e+51 -4.94358e+53 1.03958e+54)
(9.8299e+51 -8.91669e+53 8.77907e+53)
(9.99181e+51 -7.39235e+53 1.06475e+54)
(9.84621e+51 -5.04217e+53 1.04817e+54)
(8.84185e+51 1.95852e+53 8.17103e+53)
(8.36555e+51 -3.95896e+52 7.56447e+53)
(8.70045e+51 -4.04699e+53 9.8009e+53)
(8.87991e+51 -6.92606e+53 1.00738e+54)
(9.18446e+51 -3.59991e+53 1.23659e+54)
(9.41974e+51 -6.53755e+53 1.01115e+54)
(9.5728e+51 -9.82214e+53 6.75329e+53)
(9.6599e+51 -4.73179e+53 9.05504e+53)
(9.51278e+51 -5.76125e+53 7.0593e+53)
(9.13965e+51 -5.34789e+53 2.1373e+53)
(8.78093e+51 -7.76259e+53 6.52655e+52)
(9.00406e+51 -2.85417e+54 8.60116e+52)
(9.03701e+51 -1.6287e+54 -1.20177e+53)
(8.20378e+51 1.5738e+54 -5.25644e+53)
(7.8768e+51 1.97117e+54 -3.07263e+53)
(8.02903e+51 1.6102e+54 -8.08842e+52)
(8.30481e+51 1.3075e+54 3.15907e+53)
(8.70056e+51 1.13571e+54 5.52329e+53)
(9.2359e+51 9.55832e+53 6.38752e+53)
(9.59272e+51 8.53915e+53 7.59124e+53)
(9.66601e+51 8.65402e+53 9.14109e+53)
(9.69231e+51 6.47571e+53 9.57723e+53)
(9.81354e+51 3.80069e+53 8.5654e+53)
(9.99728e+51 2.02044e+53 6.30195e+53)
(1.00458e+52 -1.42006e+53 4.09854e+53)
(9.73075e+51 2.45834e+53 6.08275e+53)
(1.00495e+52 -7.56142e+53 3.00368e+53)
(1.04032e+52 -1.7405e+54 -2.48904e+52)
(1.08239e+52 -6.25567e+53 5.64941e+52)
(1.15074e+52 -9.86309e+53 2.77187e+52)
(1.13305e+52 -9.30667e+53 6.23789e+52)
(9.96246e+51 -2.84814e+53 -1.77933e+53)
(1.06616e+52 -5.33176e+53 -4.64938e+53)
(1.13602e+52 -4.2133e+53 2.77441e+53)
(1.21805e+52 -1.32483e+54 1.04767e+53)
(1.29002e+52 -2.07108e+53 3.50178e+53)