/*--------------------------------*- C++ -*----------------------------------*\
| =========                 |                                                 |
| \\      /  F ield         | OpenFOAM: The Open Source CFD Toolbox           |
|  \\    /   O peration     | Version:  4.1                                   |
|   \\  /    A nd           | Web:      www.OpenFOAM.org                      |
|    \\/     M anipulation  |                                                 |
\*---------------------------------------------------------------------------*/
FoamFile
{
    version     2.0;
    format      ascii;
    class       volScalarField;
    location    "30";
    object      p;
}
// * * * * * * * * * * * * * * * * * * * * * * * * * * * * * * * * * * * * * //

dimensions      [0 2 -2 0 0 0 0];

internalField   nonuniform List<scalar> 
6785
(
3383.32
3319.09
3267.93
3218.4
3172.45
3129.3
3088.79
3050.66
3014.77
2980.62
2947.9
2917.97
2890.35
2856.4
2822.35
2849.99
2832.17
2834.78
2830.54
2827.08
2823.59
2820.47
2817.98
2816.31
2815.59
2815.78
2817.13
2820.4
2824.18
2825.07
2798.35
2792.87
2802.52
2802.2
2805.63
2808.21
2810.97
2813.58
2816.04
2818.35
2820.38
2821.98
2823.47
2825.38
2826.68
2855.63
2853.71
2858.92
2855.59
2856.32
2855.17
2854.36
2853.39
2852.46
2851.6
2850.87
2850.16
2849.31
2848.85
2849.7
2859.51
2857.7
2860.44
2857.34
2858.62
2857.82
2857.99
2858.05
2858.31
2858.57
2858.77
2858.79
2858.7
2858.82
2859.39
2850
2848.21
2850.32
2848.07
2849.74
2849.11
2849.68
2849.81
2850.02
2850.01
2849.8
2849.33
2848.65
2847.98
2847.53
2840.07
2838.39
2839.64
2837.41
2838.33
2836.94
2836.75
2835.96
2835.3
2834.58
2833.97
2833.36
2832.58
2831.97
2831.84
2829.18
2827.95
2828.8
2826.74
2827.31
2825.85
2825.46
2824.59
2823.84
2823.15
2822.66
2822.36
2822.11
2822.25
2823.02
2825.9
2825.55
2826.53
2825.14
2825.95
2825.13
2825.2
2824.92
2824.74
2824.61
2824.6
2824.72
2824.99
2825.41
2826.25
2829.83
2830.45
2831.6
2830.98
2832.1
2831.96
2832.53
2832.82
2833.2
2833.62
2834.08
2834.55
2835.09
2835.55
2836.27
2839.51
2840.25
2841.03
2840.53
2841.43
2841.22
2841.77
2841.95
2842.28
2842.6
2842.96
2843.34
2843.8
2844.19
2844.63
2836.37
2837.91
2838.81
2838.7
2839.84
2840.05
2840.91
2841.67
2842.43
2843.01
2843.48
2843.88
2844.34
2844.87
2845.67
2864.79
2865.46
2865.92
2865.91
2867.04
2867.26
2867.11
2865.74
2864.07
2862.17
2860.23
2858.81
2858.84
2860.15
2860.86
2810.96
2812.33
2818.85
2823.72
2829.71
2834.53
2839
2842.61
2845.48
2847.01
2846.94
2847.07
2851.77
2857.54
2858.92
2816.69
2832.22
2836.36
2838.46
2838.75
2837.48
2836.29
2835.17
2834.85
2834.59
2837.61
2848.4
2867.23
2884.16
2884.87
3355.78
3355.62
3354.94
3351.23
3350.92
3348.23
3345.32
3338.13
3336.38
3335.48
3330.02
3314.99
3317.12
3310.17
3292.3
3287.84
3298.42
3288.15
3256.32
3268.63
3260.45
3229.61
3221.71
3252.02
3232.46
3190.97
3183.13
3222.86
3207.24
3144.62
3176.39
3171.48
3118.36
3105.62
3166.93
3150.49
3065.93
3112.36
3111.37
3043.5
3026.2
3115.43
3086.39
3000.77
2985.9
3086.77
3068.42
2949.74
3018.78
3027.16
2937.26
2914.84
3040.62
3010.26
2899.19
2881.42
3018.24
3002.49
2853.16
2945.28
2964.6
2855.07
2830.84
2982.12
2972.54
2810.21
2913.04
2939.11
2823.36
2796.34
2967.14
2942.82
2806.35
2786.07
2962.2
2954.9
2784.91
2882
2952.59
2786.54
2888.7
3009.52
3010.34
3001.77
3043.73
3025.55
3003.4
2992.84
2992.29
2995.7
3004.08
3009.5
3123.07
3023.18
2969.95
2955.19
2973.17
2999.74
3000.11
2993.91
2970.6
3010.42
3011.81
2979.71
2958.96
2935.73
2909.26
2887.98
2869.18
2857.95
2830.15
2817.85
2825.48
2781.24
2765.33
2749.56
2727.19
2698.51
2667.76
2632.81
2603.69
2634.37
2582.01
2557.86
2536.96
2517.67
2495.64
2484.48
2449.49
2345.15
2414.38
2345.07
2326.91
2315.13
2279.04
2245.15
2228.42
2196.64
2117.51
2146.66
2029.17
1996.21
1985.46
1955.57
1913.66
1861.75
1833.51
1786.63
1638.1
1706.13
1523.28
1462.95
1441.23
1391.76
1329.87
1267.5
1166.84
911.462
1033.97
776.528
456.847
1044.52
1647.75
1119.6
1028.23
1128.9
1168.9
1571.43
1292.88
1104.29
1541.28
1299.04
1204.79
1250.02
1233.03
1540.04
1290.74
1205.87
1243.68
1216.43
1481.15
1284.65
1110.16
1434.63
1239.1
1131.91
1175.35
1124.18
1412.68
1186.96
1065.77
1123
1057.95
1371.91
1173.86
916.319
1353.96
1132.69
943.018
1037.84
934.204
1388.46
1080.03
855.467
974.377
853.584
1384.28
1072.83
617.818
1367.54
1001.49
655.069
819.048
648.935
1415.08
878.681
478.484
671.935
481.973
1351.52
817.678
60.6974
1260.58
667.816
98.8552
342.772
89.874
1278.9
426.357
-209.39
71.4417
-204.911
1115.08
276.609
-887.712
917.593
-8.89811
-862.372
-593.567
-783.027
-1.29209
-2.58919
-3.11196
-3.85995
-4.27224
-4.26473
-3.36223
-1.15145
2.74676
8.09943
19.6412
27.9819
-0.705261
4.91789
2.64132
3.95722
6.15174
9.93127
11.5307
11.7251
9.01672
3.66112
3.35857
3.24315
2.67986
2.10967
1.33994
0.303351
-0.187547
0.320066
0.16232
-0.0873288
-0.361843
-0.71609
-1.16631
-1.69685
-2.26509
-2.85652
-3.48399
-4.24435
-5.91052
-9.68301
-13.9806
-17.8382
-21.369
-25.093
-33.2277
-39.9438
-41.4525
-39.576
-36.8413
-24.262
0.196882
-4.87191
2.91727
1.08536
5.17125
-5.89741
-11.2319
12.0334
-3.07469
-4.22302
28.637
0.955714
210.928
140.083
30.2245
5.94491
7.81451
15.1345
22.4658
28.4938
30.3594
32.2297
34.3058
35.2829
34.9109
28.2818
21.4476
-1.02198
-1.46761
-0.542648
-0.18135
0.857693
2.27704
4.78417
8.85104
15.2506
23.4424
43.2694
64.4384
4.04962
14.285
8.77348
13.9096
19.9613
28.6185
30.9757
31.3919
24.784
12.167
11.9903
10.6885
8.91776
7.8131
6.42941
4.1342
1.24676
1.39566
0.709573
-0.0884768
-0.904825
-1.8279
-2.93775
-4.33991
-6.07133
-8.09994
-10.3698
-13.0184
-17.3464
-24.7329
-32.8816
-40.3818
-47.4743
-52.8792
-61.8697
-69.792
-73.7823
-71.5693
-64.1725
-37.0527
11.2795
2.24371
14.4247
21.8868
28.7851
-1.21081
-36.5412
29.2634
35.1585
38.1303
79.9964
-25.156
287.203
211.048
56.1225
30.8762
41.8955
57.6162
71.9194
83.4773
87.219
88.9003
88.4226
85.0463
83.3197
81.0461
57.8187
0.0879062
0.7514
3.10302
4.60542
6.83744
9.12037
12.1768
16.2935
22.1484
27.6968
43.2635
71.2726
10.5177
23.1729
15.3685
22.3827
28.552
38.203
40.7879
41.6183
35.398
21.6607
20.6461
18.1353
15.1848
13.2196
11.0959
8.64965
3.48087
2.44128
1.24047
-0.128106
-1.58986
-3.25257
-5.27536
-7.79463
-10.8317
-14.3326
-18.2308
-22.746
-29.2405
-38.3594
-47.6281
-56.0177
-64.3714
-70.3139
-80.1115
-88.9885
-87.3229
-76.1108
-62.0764
-29.0678
28.5897
18.1627
9.94205
26.3202
57.4412
33.4583
-31.5961
29.2666
58.0635
57.1981
101.556
4.21958
210.145
189.779
91.452
78.8066
92.5051
109.465
124.501
136.168
142.616
147.13
149.44
147.309
144.978
139.782
133.616
0.968557
2.27884
5.70535
7.94612
10.9536
13.7368
17.105
21.2173
26.6837
29.834
41.2921
76.2039
17.543
31.51
22.2119
30.0403
35.7488
46.0643
49.1487
50.5657
45.9988
31.6296
29.5096
25.641
21.4578
18.6651
15.6993
12.8344
6.03464
3.41125
1.79565
-0.138277
-2.2664
-4.66337
-7.58621
-11.2287
-15.6245
-20.7018
-26.3646
-32.8622
-41.5129
-52.6068
-63.4988
-73.0243
-82.4835
-89.3862
-101.804
-113.21
-107.342
-87.7679
-67.2202
-26.7063
39.1681
34.7532
12.1856
39.6824
83.3984
48.0816
-24.6917
36.8401
76.8068
79.0706
121.983
22.1719
193.82
186.996
128.613
124.987
140.699
159.029
175.358
188.683
197.18
202.877
205.879
203.166
200.442
195.794
178.4
1.68212
3.53697
8.03932
10.9658
14.7549
18.0917
21.9279
26.3274
31.9977
33.973
43.0565
82.7479
24.4752
39.2487
28.9376
37.6599
43.667
55.3703
59.0496
61.1313
57.7407
41.6825
38.4773
33.2068
27.7331
23.941
20.1758
16.8125
8.89608
4.2316
2.3324
-0.158673
-2.98967
-6.18581
-10.102
-14.9694
-20.819
-27.5631
-35.0814
-43.6368
-54.4761
-67.8132
-80.8811
-92.1261
-102.985
-110.878
-125.938
-139.368
-131.769
-107.203
-81.1368
-30.9613
43.7068
52.0455
17.268
57.2019
114.686
78.4889
-11.2937
49.884
98.0036
95.9961
143.923
33.9679
201.187
198.991
162.714
166.295
185.719
206.796
225.369
240.153
250.52
257.782
262.187
259.693
256.772
253.073
249.595
2.43873
4.89619
10.5577
14.2291
18.8744
22.8253
27.175
31.8618
37.7555
38.7491
45.0947
87.2696
31.963
46.4121
35.465
45.2169
51.781
64.9909
69.1941
71.9801
69.6889
52.0271
47.6343
40.8153
34.0335
29.1244
24.5265
20.655
12.2569
5.01846
2.90487
-0.171769
-3.73815
-7.77346
-12.7346
-18.89
-26.2704
-34.7734
-44.2486
-54.9585
-68.0397
-83.7792
-99.1798
-112.214
-124.368
-132.86
-150.001
-165.172
-155.463
-127.213
-96.8513
-37.9315
44.9641
70.2995
30.4364
80.8241
145.597
104.851
9.11902
66.7926
117.641
110.48
156.198
48.2968
200.362
209.692
196.188
207.483
230.917
254.569
274.96
290.949
302.908
311.31
316.728
314.227
311.192
304.005
296.605
3.23604
6.2844
13.1154
17.5184
23.0054
27.5406
32.3634
37.2564
43.2886
43.3609
46.444
89.4465
39.2955
53.0301
41.9306
52.5644
59.644
74.2247
78.9216
82.4653
81.5652
62.5593
56.8831
48.4601
40.3422
34.2155
28.6866
24.1015
15.8535
5.88068
3.51207
-0.20143
-4.52327
-9.44556
-15.5231
-23.0467
-32.0416
-42.3921
-53.9161
-66.8695
-82.2515
-100.526
-118.368
-133.257
-146.625
-155.513
-174.535
-191.538
-179.423
-148.551
-115.048
-48.191
42.745
87.8914
52.1699
109.713
179.29
136.596
39.6324
89.5224
136.328
123.185
171.574
64.767
200.383
220.237
229.681
248.89
276.16
302.008
323.875
340.864
354.257
363.744
370.246
367.881
365.024
364.486
344.182
4.035
7.62824
15.6208
20.7168
27.0142
32.099
37.3755
42.4496
48.6451
48.1379
47.854
89.7767
46.3767
59.1982
48.3438
59.703
67.343
83.2555
88.4576
92.821
93.5017
73.173
66.1925
56.1363
46.6543
39.2245
32.7286
27.2558
19.5089
7.06382
4.15142
-0.253405
-5.33663
-11.1965
-18.4628
-27.4271
-38.1108
-50.3875
-64.043
-79.3279
-97.079
-118.051
-138.518
-155.479
-170.185
-179.531
-200.473
-218.95
-204.7
-172.673
-137.204
-62.2257
38.8497
103.101
79.4592
140.903
212.377
170.363
79.7409
117.698
154.326
133.997
182.834
80.2025
205.885
233.176
262.708
289.636
320.822
348.812
372.074
389.981
404.651
415.038
422.523
420.219
417.683
417.479
416.504
4.83713
8.94212
18.1037
23.8699
30.9674
36.5887
42.3238
47.5784
53.9795
53.3358
49.7199
88.4095
53.1827
64.9441
54.658
66.6543
74.9789
92.2292
97.9446
103.185
105.518
83.8555
75.5441
63.8295
52.9631
44.1619
36.6253
30.1857
23.0973
8.83828
4.78028
-0.336891
-6.17798
-13.036
-21.5694
-32.0418
-44.4783
-58.7463
-74.6054
-92.3059
-112.519
-136.353
-159.649
-178.929
-195.166
-205.135
-228.066
-247.437
-231.073
-199.003
-162.734
-79.4143
35.8165
112.3
105.239
170.764
244.47
206.883
129.025
149.998
171.335
144.706
194.45
96.9941
215.613
248.318
295.299
329.759
364.961
395.056
419.584
438.264
454.085
465.265
473.715
471.492
469.278
466.871
463.913
5.65268
10.2432
20.5861
27.0061
34.8997
41.0483
47.2484
52.6791
59.2924
58.9688
52.3318
85.703
59.7134
70.3522
60.8753
73.4259
82.5485
101.113
107.342
113.512
117.562
94.5741
84.9111
71.5295
59.2649
49.0558
40.3951
32.9428
26.4597
11.2975
5.32182
-0.453496
-7.05266
-14.9767
-24.8497
-36.8827
-51.12
-67.4312
-85.5626
-105.769
-128.559
-155.42
-181.757
-203.597
-221.568
-232.384
-257.447
-277.232
-258.578
-227.058
-191.098
-99.2041
34.1355
108.897
121.298
195.559
272.873
244.111
185.647
185.026
187.265
155.028
204.972
115.519
229.218
265.272
327.617
369.472
408.676
440.771
466.393
485.731
502.596
514.442
523.815
521.654
519.937
522.379
510.889
6.48402
11.5313
23.0657
30.1209
38.8038
45.4676
52.1378
57.742
64.5483
65.0302
56.231
82.491
66.0686
75.5105
67.0157
80.0339
90.0426
109.873
116.615
123.762
129.601
105.294
94.2721
79.2342
65.5674
53.9221
44.0662
35.5807
29.4365
14.2739
5.73674
-0.569337
-7.96925
-17.0362
-28.3067
-41.9347
-58.0067
-76.409
-96.8906
-119.713
-145.222
-175.262
-204.854
-229.494
-249.41
-261.368
-288.79
-308.621
-287.488
-256.837
-222.374
-121.358
31.9311
92.0371
123.936
212.311
295.786
278.832
245.508
220.81
201.886
165.357
214.746
135.629
246.841
283.991
359.652
408.789
451.937
485.932
512.491
532.386
550.196
562.603
572.873
570.727
569.589
573.087
574.585
7.33129
12.8046
25.5408
33.2119
42.6775
49.8445
56.9928
62.7771
69.7367
71.4923
61.9008
79.7562
72.3962
80.4957
73.0913
86.5001
97.4702
118.511
125.762
133.925
141.597
115.984
103.603
86.9323
71.882
58.7906
47.6737
38.1226
31.8742
17.3835
6.12676
-0.622921
-8.93092
-19.2272
-31.9335
-47.1726
-65.107
-85.6576
-108.589
-134.165
-162.579
-195.93
-228.985
-256.664
-278.726
-292.157
-322.149
-341.737
-317.908
-288.26
-256.364
-145.845
26.1522
72.5255
115.865
219.315
311.25
306.838
302.408
254.861
214.785
175.249
223.222
157.149
267.962
304.337
391.34
447.694
494.72
530.533
557.88
578.244
596.904
609.766
620.907
618.732
618.251
622.754
616.805
8.19608
14.0646
28.0147
36.2831
46.5272
54.1868
61.8238
67.8045
74.85
78.239
69.4535
78.1643
78.7903
85.3751
79.1102
92.844
104.841
127.03
134.782
143.985
153.488
126.604
112.871
94.6044
78.2102
63.6913
51.2655
40.5872
33.7221
20.2244
6.74747
-0.623615
-9.94118
-21.5483
-35.7144
-52.5703
-72.4009
-95.178
-120.686
-149.179
-180.712
-217.505
-254.226
-285.172
-309.551
-324.784
-357.537
-376.561
-349.807
-321.156
-292.357
-172.338
15.5023
58.2575
101.008
216.621
318.423
325.966
350.149
284.729
225.548
184.338
230.144
179.753
291.542
325.967
422.616
486.201
537.036
574.576
602.56
623.315
642.727
655.945
667.938
665.684
665.922
671.571
673.257
9.08052
15.313
30.4904
39.3384
50.3583
58.5006
66.6375
72.8396
79.8739
85.0635
78.6462
78.0635
85.2631
90.1973
85.0769
99.0829
112.158
135.427
143.667
153.914
165.19
137.106
122.038
102.236
84.5532
68.6483
54.886
43.007
35.0732
22.5566
7.7484
-0.699498
-11.0196
-23.9815
-39.6291
-58.1101
-79.8861
-104.99
-133.218
-164.808
-199.691
-240.072
-280.682
-315.105
-341.941
-359.272
-394.93
-413.055
-383.084
-355.374
-329.338
-200.441
0.679698
50.0402
84.047
206.008
317.456
335.946
384.337
308.331
233.757
192.194
235.211
202.719
316.234
348.383
453.404
524.32
578.896
618.063
646.532
667.609
687.665
701.146
713.977
711.624
712.563
715.249
713.717
9.98646
16.551
32.97
42.3802
54.1745
62.7899
71.4369
77.8947
84.7971
91.7109
88.9883
79.5108
91.7795
94.9876
90.9885
105.23
119.424
143.697
152.408
163.685
176.597
147.437
131.068
109.815
90.9111
73.6773
58.5757
45.4273
36.0966
24.3047
8.91728
-1.00829
-12.2466
-26.5236
-43.6606
-63.7891
-87.5759
-115.117
-146.213
-181.083
-219.557
-263.678
-308.439
-346.562
-375.975
-395.65
-434.196
-451.12
-417.492
-390.678
-366.183
-229.694
-16.5986
50.0199
71.4117
191.016
309.455
336.366
402.825
323.885
238.926
198.362
238.21
225
340.381
370.957
483.608
562.05
620.309
660.995
689.798
711.128
731.713
745.37
759.036
756.574
758.373
764.538
751.297
10.9157
17.7792
35.4554
45.4108
57.9793
67.0587
76.2243
82.9807
89.6207
97.9298
99.8649
82.2947
98.2618
99.7457
96.8338
111.296
126.636
151.831
160.991
173.263
187.568
157.542
139.922
117.328
97.2782
78.7798
62.3762
47.8993
36.9829
25.4712
9.87449
-1.64714
-13.8012
-29.2442
-47.8139
-69.6166
-95.488
-125.575
-159.672
-198.003
-240.309
-288.332
-337.556
-379.644
-411.751
-433.888
-475.164
-490.539
-452.698
-426.773
-401.834
-259.661
-34.3002
57.7698
69.7147
177.239
297.558
327.976
405.579
330.102
240.329
202.417
239.046
245.51
362.26
392.978
513.137
599.391
661.283
703.372
732.359
753.87
774.857
788.613
803.118
800.519
803.272
808.482
804.074
11.87
18.9985
37.9486
48.4325
61.7765
71.3111
81.001
88.1065
94.3616
103.511
110.684
86.1505
104.614
104.449
102.595
117.284
133.785
159.813
169.397
182.615
197.937
167.354
148.562
124.765
103.641
83.9429
66.311
50.4755
37.897
26.0532
10.349
-2.64982
-15.8906
-32.3185
-52.1448
-75.6075
-103.631
-136.356
-173.575
-215.548
-261.925
-314.013
-368.051
-414.434
-449.358
-473.944
-517.681
-531.071
-488.435
-463.298
-435.39
-290.003
-51.1678
70.4016
84.0012
171.111
286.364
314.466
393.419
326.663
237.084
203.952
237.726
263.367
380.531
413.748
541.916
636.349
701.828
745.194
774.211
795.823
817.077
830.868
846.229
843.519
847.236
849.427
841.162
12.8512
20.2094
40.4514
51.4473
65.5694
75.5517
85.7675
93.2781
99.0543
108.321
120.962
90.7902
110.736
109.056
108.25
123.195
140.86
167.626
177.603
191.707
207.515
176.801
156.948
132.104
109.983
89.1492
70.375
53.2121
38.9404
26.1197
10.2231
-4.03838
-18.5828
-35.9412
-56.785
-81.7881
-111.994
-147.435
-187.89
-233.697
-284.393
-340.713
-399.939
-451.013
-488.897
-515.906
-561.63
-572.487
-524.522
-499.741
-465.937
-319.92
-66.8117
85.7557
114.308
176.945
279.073
300.146
369.122
314.462
228.574
202.648
234.407
277.906
394.384
432.714
569.921
672.944
741.957
786.462
815.349
836.967
858.348
872.128
888.376
885.591
890.418
893.98
874.863
13.8613
21.4126
42.9654
54.4573
69.3612
79.785
90.5246
98.4989
103.751
112.316
130.349
95.9786
116.531
113.519
113.778
129.027
147.846
175.246
185.59
200.514
216.112
185.823
165.044
139.322
116.29
94.3843
74.5424
56.1303
40.1589
25.9198
9.49114
-5.86916
-21.7855
-40.2301
-61.9146
-88.2314
-120.552
-158.778
-202.587
-252.447
-307.721
-368.488
-433.277
-489.46
-530.512
-559.877
-606.961
-614.605
-560.842
-535.732
-492.682
-347.996
-81.1286
103.174
154.397
196.864
277.546
287.504
337.637
295.684
214.967
198.404
229.446
288.695
403.37
449.537
597.187
709.208
781.689
827.171
855.762
877.274
898.642
912.386
929.567
926.744
932.793
935.06
918.728
14.902
22.6085
45.4922
57.4643
73.1551
84.0157
95.2732
103.769
108.518
115.536
138.607
101.584
121.922
117.8
119.165
134.775
154.723
182.653
193.349
209.032
223.569
194.379
172.829
146.396
122.551
99.643
78.7893
59.2065
41.5859
25.7259
8.31322
-8.22231
-25.4223
-45.2055
-67.7096
-95.0779
-129.286
-170.35
-217.652
-271.811
-331.948
-397.446
-468.162
-529.894
-574.39
-605.892
-653.57
-657.239
-597.249
-570.998
-515.268
-372.488
-94.0764
121.898
198.423
232.542
285.825
278.616
303.686
271.77
196.874
191.37
223.439
295.533
407.432
464.043
623.807
745.186
821.041
867.313
895.431
916.704
937.93
951.641
969.819
967.014
974.4
974.96
949.294
15.975
23.7973
48.0333
60.47
76.9537
88.2492
100.016
109.087
113.433
118.097
145.539
107.473
126.862
121.886
124.406
140.436
161.473
189.825
200.88
217.27
229.915
202.441
180.311
153.317
128.76
104.931
83.1143
62.4223
43.2525
25.6556
6.97282
-11.1667
-29.5178
-50.7479
-74.2159
-102.503
-138.262
-182.137
-233.083
-291.816
-357.132
-427.747
-504.743
-572.503
-620.595
-653.943
-701.335
-700.162
-633.6
-604.941
-533.797
-391.488
-105.543
141.162
243.745
281.61
308.53
277.778
272.345
244.133
174.718
181.89
217.217
298.518
406.976
476.1
649.901
780.928
860.028
906.869
934.325
955.215
976.19
989.898
1009.15
1006.43
1015.28
1014.23
985.25
17.0822
24.9793
50.5901
63.4758
80.7597
92.4907
104.756
114.446
118.579
120.185
150.95
113.515
131.345
125.813
129.512
146.009
168.078
196.744
208.198
225.288
235.389
210.072
187.514
160.089
134.907
110.244
87.5306
65.7898
45.1819
25.7322
5.59524
-14.6966
-34.1582
-56.7456
-81.3104
-110.578
-147.613
-194.131
-248.88
-312.494
-383.347
-459.596
-543.196
-617.462
-669.149
-703.88
-750.119
-743.176
-669.834
-636.86
-548.854
-404.024
-115.102
160.502
288.051
336.822
345.991
289.934
249.182
214.526
148.938
170.435
211.774
298.047
402.42
485.609
675.598
816.475
898.646
945.806
972.403
992.757
1013.4
1027.17
1047.6
1045.03
1055.44
1049.75
1014.09
18.2249
26.1548
53.1637
66.4832
84.5755
96.7455
109.501
119.84
124.044
122.065
154.609
119.619
135.416
129.654
134.513
151.497
174.526
203.401
215.319
233.21
240.329
217.403
194.473
166.736
140.992
115.558
92.0131
69.3051
47.385
26.0239
4.1337
-18.5303
-39.4302
-63.2006
-88.8942
-119.172
-157.485
-206.328
-265.041
-333.872
-410.666
-493.159
-583.665
-664.956
-720.459
-755.888
-799.793
-786.097
-705.879
-666.219
-561.17
-410.466
-122.163
179.495
330.325
392.111
393.593
314.589
237.588
184.003
120.848
157.522
207.976
294.558
393.941
492.616
701.008
851.834
936.862
984.069
1009.61
1029.29
1049.57
1063.5
1085.21
1082.88
1095
1088.33
1039.02
19.4047
27.3239
55.7553
69.4936
88.403
101.019
114.258
125.258
129.915
124.115
156.323
125.69
139.168
133.506
139.446
156.905
180.81
209.793
222.254
241.148
245.053
224.537
201.223
173.301
147.03
120.855
96.487
72.8736
49.8092
26.6217
2.64179
-22.2857
-45.3508
-70.0891
-96.877
-128.136
-167.928
-218.742
-281.559
-355.974
-439.165
-528.554
-626.269
-715.268
-775.183
-810.59
-850.416
-828.867
-741.646
-692.594
-571.742
-412.199
-126.167
198.17
370.955
445.079
446.189
346.966
236.855
152.75
93.1844
143.712
206.108
288.436
381.776
497.36
726.222
886.972
974.611
1021.58
1045.89
1064.78
1084.69
1098.91
1122
1119.98
1133.98
1123.37
1074.05
20.6228
28.4869
58.3657
72.5083
92.2439
105.316
119.039
130.689
136.281
126.955
156.29
131.643
142.723
137.453
144.341
162.248
186.928
215.925
229.006
249.147
249.765
231.522
207.793
179.832
153.062
126.151
100.902
76.3387
52.2454
27.4715
1.28289
-25.9247
-51.7572
-77.4021
-105.192
-137.376
-178.753
-231.483
-298.424
-378.817
-468.921
-565.89
-671.136
-768.638
-833.702
-868.177
-902.006
-871.513
-777.035
-715.857
-580.965
-411.491
-127.533
216.522
410.636
497.393
499.191
381.706
243.686
122.297
68.6411
129.781
205.794
280.215
366.427
500.244
751.329
921.831
1011.8
1058.26
1081.18
1099.21
1118.8
1133.45
1158.04
1156.41
1172.35
1156.27
1100.17
21.8804
29.6441
60.9954
75.5289
96.0994
109.639
123.853
136.116
143.199
131.501
155.259
137.518
146.201
141.556
149.196
167.536
192.887
221.813
235.569
257.164
254.522
238.35
214.217
186.374
159.137
131.501
105.291
79.6294
54.42
28.2736
0.0525258
-29.5781
-58.3367
-85.1732
-113.837
-146.87
-189.837
-244.744
-315.628
-402.416
-500.015
-605.291
-718.409
-825.192
-896.021
-928.53
-954.529
-914.039
-812.035
-736.44
-587.664
-410.328
-127.671
233.934
449.576
549.839
547.568
414.033
254.962
96.9753
49.612
116.68
206.176
270.571
348.534
501.804
776.447
956.353
1048.35
1094.02
1115.43
1132.58
1151.94
1167.17
1193.37
1192.22
1210.24
1191.06
1125.08
23.1785
30.7959
63.6448
78.5569
99.9707
113.992
128.715
141.518
150.633
138.597
154.419
143.451
149.714
145.837
154.009
172.789
198.705
227.492
241.935
265.091
259.3
245.009
220.527
192.952
165.295
136.971
109.758
82.836
56.2595
28.7051
-1.32468
-33.3057
-64.867
-93.3279
-122.77
-156.618
-201.19
-258.591
-333.232
-426.792
-532.539
-646.901
-768.269
-885.114
-962.296
-991.87
-1008.14
-956.474
-846.915
-755.288
-592.497
-410.264
-127.867
249.4
487.591
601.343
591.483
442.44
267.395
78.6433
37.7597
105.413
206.413
260.154
328.802
502.632
801.726
990.494
1084.18
1128.79
1148.64
1164.9
1184.16
1200.14
1228.04
1227.45
1247.64
1223.72
1159.68
24.5176
31.9424
66.3145
81.594
103.859
118.374
133.638
146.868
158.412
148.636
154.793
149.548
153.361
150.283
158.794
178.025
204.395
232.995
248.106
272.797
264.068
251.505
226.762
199.575
171.554
142.6
114.389
86.103
57.9084
28.6932
-3.13293
-37.2531
-71.362
-101.678
-131.961
-166.523
-212.763
-272.976
-351.444
-451.975
-566.592
-690.878
-821.034
-948.505
-1032.67
-1058.38
-1063.06
-998.914
-882.279
-773.155
-596.85
-411.899
-129.482
261.068
524.453
649.812
634.124
469.005
277.002
63.719
31.7003
96.7935
206.051
249.474
308.006
503.305
827.323
1024.22
1119.23
1162.53
1180.8
1196.19
1215.55
1232.41
1262.11
1262.14
1284.57
1255.69
1185.51
25.8984
33.0842
69.005
84.6416
107.764
122.786
138.633
152.139
166.22
161.377
156.813
155.826
157.199
154.856
163.58
183.262
209.97
238.351
254.09
280.174
268.819
257.871
232.96
206.243
177.905
148.383
119.192
89.489
59.5017
28.3375
-5.46063
-41.631
-77.9837
-110.104
-141.345
-176.511
-224.507
-287.76
-370.521
-477.996
-602.27
-737.405
-877.116
-1015.62
-1107.27
-1128.14
-1119.49
-1041.57
-919.002
-790.67
-600.357
-414.841
-133.83
267.145
559.231
694.383
676.589
496.221
281.322
47.3852
28.1896
91.3072
204.909
238.863
286.96
504.378
853.404
1057.51
1153.44
1195.21
1211.91
1226.48
1246.17
1264.03
1295.64
1296.36
1321.09
1287.62
1220.25
27.321
34.2219
71.717
87.7015
111.688
127.227
143.71
157.316
173.649
175.958
160.265
162.213
161.232
159.53
168.403
188.513
215.444
243.589
259.905
287.174
273.574
264.158
239.165
212.962
184.335
154.291
124.122
92.9594
61.0518
27.699
-8.29773
-46.5675
-84.8931
-118.615
-150.756
-186.529
-236.302
-302.786
-390.584
-504.966
-639.671
-786.684
-936.981
-1087.1
-1186.47
-1201.43
-1177.7
-1084.85
-957.929
-808.093
-603.103
-419.385
-141.548
267.552
590.382
734.683
718.69
525.559
279.388
27.5857
25.9066
89.2947
202.979
228.508
266.588
506.394
880.138
1090.35
1186.77
1226.82
1242
1255.85
1276.11
1295.11
1328.69
1330.14
1357.22
1317.66
1244.67
28.7851
35.3562
74.451
90.7759
115.632
131.702
148.873
162.399
180.287
191.042
164.603
168.547
165.427
164.292
173.295
193.789
220.844
248.74
265.579
293.808
278.383
270.418
245.42
219.751
190.839
160.287
129.128
96.4541
62.5157
26.7662
-11.6466
-52.1235
-92.2189
-127.264
-160.056
-196.471
-248.065
-317.973
-411.424
-533.176
-678.898
-838.921
-1001.13
-1163.13
-1270.33
-1278.33
-1237.87
-1129.37
-999.664
-824.502
-605.338
-425.771
-152.823
262.859
616.642
771.549
762.189
557.399
271.094
4.63254
26.5705
91.2153
200.218
218.376
247.974
509.901
907.688
1122.74
1219.19
1257.35
1271.08
1284.4
1305.47
1325.74
1361.29
1363.53
1393.1
1350.17
1274.45
30.2903
36.4879
77.2076
93.868
119.598
136.209
154.123
167.416
185.781
204.968
169.321
174.657
169.74
169.132
178.271
199.097
226.194
253.844
271.146
300.126
283.309
276.701
251.77
226.636
197.432
166.354
134.164
99.9225
63.855
25.5183
-15.5218
-58.341
-100.086
-136.12
-169.214
-206.172
-259.743
-333.219
-432.774
-562.986
-720.024
-894.297
-1069.92
-1243.77
-1358.93
-1359.21
-1300.33
-1175.91
-1044.51
-838.341
-607.149
-434.311
-168.116
253.066
637.473
806.441
809.065
591.373
258.771
-18.5734
33.7587
97.7444
196.437
208.273
232.271
515.431
936.185
1154.69
1250.67
1286.84
1299.24
1312.27
1334.39
1356.02
1393.46
1396.54
1428.68
1381.29
1317.6
31.8355
37.6183
79.9877
96.9813
123.593
140.744
159.449
172.421
189.947
216.147
174.142
180.424
174.132
174.035
183.327
204.438
231.519
258.943
276.645
306.182
288.388
283.048
258.257
233.642
204.146
172.506
139.21
103.325
65.0283
23.9381
-19.9362
-65.2453
-108.61
-145.279
-178.273
-215.513
-271.276
-348.486
-454.515
-594.503
-763.13
-952.979
-1143.55
-1329.45
-1451.66
-1444.12
-1365.4
-1225.29
-1092.11
-847.988
-608.25
-445.261
-187.259
238.744
652.994
840.066
859.418
626.519
246.746
-36.1717
51.4101
109.726
191.377
198.033
220.667
523.592
965.773
1186.26
1281.25
1315.38
1326.65
1339.7
1363.02
1386
1425.17
1429.19
1463.97
1411.75
1344.85
33.4194
38.7486
82.7925
100.12
127.626
145.307
164.838
177.496
192.861
223.613
179.037
185.804
178.569
178.975
188.451
209.812
236.841
264.066
282.101
311.994
293.634
289.482
264.912
240.798
211.014
178.776
144.281
106.643
65.9911
21.999
-24.9107
-72.8573
-117.886
-154.852
-187.297
-224.468
-282.525
-363.71
-476.626
-627.794
-808.547
-1015.12
-1222.24
-1420.2
-1548.2
-1532.71
-1433.27
-1278.28
-1141.29
-852.574
-607.702
-458.559
-209.697
221.699
664.038
872.149
910.993
661.798
241.28
-40.7354
82.521
127.968
184.677
187.584
214.352
535.142
996.635
1217.53
1310.99
1343.16
1353.55
1366.9
1391.45
1415.7
1456.38
1461.47
1499.11
1444.35
1379.81
35.0401
39.8808
85.6229
103.288
131.707
149.906
170.273
182.723
194.862
227.257
184.042
190.799
183.019
183.922
193.624
215.217
242.169
269.227
287.533
317.535
299.066
296.004
271.764
248.128
218.072
185.202
149.418
109.893
66.7263
19.6709
-30.4802
-81.2127
-127.982
-164.932
-196.359
-233.039
-293.32
-378.79
-499.271
-662.912
-856.729
-1080.84
-1306.19
-1515.99
-1649.62
-1625.48
-1503.58
-1335.73
-1189.48
-853.009
-605.42
-473.821
-234.978
205.561
672.264
901.673
961.637
698.099
247.274
-25.9889
127.133
152.515
175.82
176.881
214.358
550.927
1028.91
1248.65
1340.03
1370.39
1380.21
1394.04
1419.71
1445.06
1487.03
1493.38
1534.02
1476.33
1426.67
36.6956
41.0172
88.4801
106.489
135.845
154.55
175.734
188.16
196.475
227.64
189.122
195.429
187.452
188.845
198.831
220.641
247.503
274.422
292.948
322.739
304.702
302.612
278.827
255.649
225.356
191.827
154.666
113.114
67.2498
16.9366
-36.6792
-90.3662
-138.933
-175.608
-205.517
-241.203
-303.58
-393.586
-522.504
-699.87
-908.376
-1150.45
-1395.63
-1617.35
-1755.13
-1721.85
-1575.49
-1399.14
-1232.85
-850.687
-602.346
-489.277
-259.746
195.217
679.781
928.592
1011.73
738.638
265.734
12.6709
181.805
181.927
164.074
165.881
221.357
571.73
1062.64
1279.71
1368.51
1397.31
1406.83
1421.2
1447.79
1474.03
1517.09
1524.91
1568.74
1508.37
1458.84
38.383
42.1605
91.3658
109.729
140.044
159.247
181.206
193.825
198.304
225.615
194.169
199.72
191.847
193.724
204.053
226.073
252.83
279.638
298.341
327.533
310.514
309.345
286.12
263.389
232.896
198.694
160.078
116.35
67.5895
13.7913
-43.5368
-100.386
-150.766
-186.969
-214.784
-248.916
-313.27
-407.931
-546.13
-739.01
-964.847
-1224.82
-1490.66
-1724.62
-1864.15
-1821.1
-1649.51
-1471.55
-1268.83
-845.459
-599.157
-503.746
-277.641
191.445
687.54
953.59
1060.45
783.836
299.595
75.4319
243.029
213.862
148.335
154.503
235.268
598.091
1097.8
1310.79
1396.68
1424.23
1433.58
1448.37
1475.62
1502.54
1546.49
1556.07
1603.23
1541
1512.16
40.0993
43.314
94.2819
113.015
144.311
164.008
186.675
199.689
200.936
222.135
199.059
203.701
196.188
198.546
209.277
231.498
258.138
284.859
303.708
331.88
316.468
316.233
293.674
271.394
240.724
205.84
165.701
119.655
67.7802
10.2361
-51.0853
-111.352
-163.554
-199.073
-224.167
-256.15
-322.308
-421.663
-569.833
-780.028
-1026.87
-1305.54
-1591.16
-1837.6
-1978.01
-1923.66
-1727.7
-1557.22
-1296.88
-836.715
-595.861
-516.009
-285.004
190.041
695.275
978.344
1103.97
829.117
353.757
153.932
306.689
245.206
126.836
142.345
254.566
630.258
1134.28
1342.02
1424.79
1451.35
1460.48
1475.51
1503.11
1530.5
1575.21
1586.85
1637.46
1572.24
1544.3
41.8404
44.4809
97.2304
116.352
148.648
168.847
192.125
205.669
204.84
218.169
203.741
207.413
200.466
203.303
214.49
236.901
263.413
290.074
309.057
335.852
322.56
323.269
301.505
279.713
248.878
213.287
171.577
123.076
67.8603
6.27811
-59.3622
-123.352
-177.42
-211.93
-233.691
-262.906
-330.578
-434.645
-593.258
-821.546
-1092.68
-1395.36
-1697.26
-1955.44
-2096.52
-2029.25
-1812.46
-1658.17
-1316.57
-825.465
-592.72
-521.346
-283.61
188.844
702.975
1006.3
1139.2
869.107
423.963
236.081
365.335
269.419
96.3426
128.029
276.103
668.221
1171.87
1373.56
1453.1
1478.79
1487.49
1502.52
1530.18
1557.86
1603.2
1617.29
1671.62
1606.09
1587
43.6024
45.6648
100.216
119.747
153.058
173.773
197.542
211.634
210.174
214.669
208.255
210.903
204.679
207.996
219.682
242.272
268.651
295.275
314.418
339.612
328.804
330.458
309.616
288.367
257.384
221.056
177.738
126.652
67.8621
1.92589
-68.4056