/*--------------------------------*- C++ -*----------------------------------*\
| =========                 |                                                 |
| \\      /  F ield         | OpenFOAM: The Open Source CFD Toolbox           |
|  \\    /   O peration     | Version:  4.1                                   |
|   \\  /    A nd           | Web:      www.OpenFOAM.org                      |
|    \\/     M anipulation  |                                                 |
\*---------------------------------------------------------------------------*/
FoamFile
{
    version     2.0;
    format      ascii;
    class       volVectorField;
    location    "30";
    object      U;
}
// * * * * * * * * * * * * * * * * * * * * * * * * * * * * * * * * * * * * * //

dimensions      [0 1 -1 0 0 0 0];

internalField   nonuniform List<vector> 
6785
(
(6.81592e-14 -0.576455 16.0822)
(6.43903e-14 -6.44599 12.3978)
(-2.23036e-14 -4.69599 12.7522)
(2.12531e-14 -4.16134 12.5149)
(9.32481e-15 -3.54758 12.3449)
(-1.82415e-14 -3.07413 12.119)
(2.26618e-14 -2.6836 11.8609)
(-1.36141e-15 -2.39243 11.5579)
(-8.33449e-15 -2.20356 11.2135)
(2.31677e-14 -2.09755 10.8559)
(6.58666e-15 -2.08468 10.5043)
(-2.7533e-15 -2.35672 10.0503)
(1.36865e-14 -2.85194 9.43013)
(-4.10521e-15 -2.03434 9.03347)
(-3.3774e-14 0.945068 7.27416)
(1.80498e-13 -7.27862 25.8489)
(1.04687e-13 -16.4884 21.7382)
(-2.6121e-14 -11.6517 22.0586)
(1.30934e-13 -11.8282 20.683)
(1.03947e-14 -10.9632 19.6763)
(7.02132e-16 -10.284 18.6368)
(1.2168e-13 -9.60982 17.599)
(-2.99749e-15 -8.95509 16.5539)
(9.17983e-15 -8.32267 15.4815)
(1.25577e-13 -7.68938 14.372)
(4.09131e-15 -7.00871 13.2803)
(4.63666e-14 -6.40791 12.2624)
(1.74513e-13 -6.01063 10.911)
(-2.79067e-14 -4.43693 7.8128)
(-3.79389e-14 -0.325794 1.13606)
(8.69023e-14 -9.86963 27.4909)
(1.17449e-13 -17.6938 24.0055)
(-3.48141e-14 -11.8014 24.4222)
(1.4551e-14 -12.6946 22.2557)
(-1.12389e-14 -11.2525 21.1162)
(-1.24477e-14 -10.4984 19.689)
(1.35795e-14 -9.64346 18.3181)
(-2.05078e-14 -8.86258 16.9509)
(-1.5178e-14 -8.15379 15.6462)
(-9.49694e-15 -7.53273 14.426)
(3.07497e-14 -6.93741 13.281)
(1.60481e-14 -6.26263 12.1018)
(-4.20534e-14 -5.0697 9.84015)
(-4.76709e-16 -2.06253 3.67507)
(-4.72149e-14 0.975807 -3.99626)
(1.20051e-13 -10.8 26.2342)
(4.78701e-14 -17.2336 23.3222)
(2.74392e-14 -11.5053 23.6979)
(-6.60689e-15 -13.0815 20.912)
(-6.89748e-14 -11.2143 19.8638)
(4.04528e-14 -10.6847 18.1438)
(-3.45518e-14 -9.79062 16.6344)
(-9.44512e-14 -9.03849 15.1031)
(6.1426e-14 -8.36488 13.7056)
(-2.9848e-14 -7.85801 12.5188)
(-1.4221e-13 -7.4632 11.4879)
(9.03906e-14 -7.03299 10.4046)
(2.2091e-14 -6.35755 9.03916)
(-1.84868e-13 -4.77633 6.18621)
(-1.53237e-13 -3.47926 2.42256)
(9.06141e-14 -11.5037 25.8033)
(-6.00072e-14 -16.7354 23.2679)
(-4.06997e-14 -11.5815 23.5655)
(-5.01923e-14 -13.2549 20.6112)
(-1.59207e-13 -11.0174 19.6738)
(-2.12993e-14 -10.6048 17.7845)
(-9.92563e-14 -9.50596 16.2852)
(-1.5505e-13 -8.62015 14.6527)
(-6.34005e-14 -7.59385 12.8639)
(-2.42552e-13 -6.60686 10.8789)
(-4.39981e-13 -6.11054 9.42302)
(-1.9857e-13 -6.14299 8.80488)
(-1.56789e-13 -6.2486 8.6491)
(-5.2712e-13 -5.8369 8.0883)
(-4.83433e-13 -5.10239 6.37615)
(1.25151e-13 -12.2222 26.214)
(-6.73092e-14 -16.5615 24.0312)
(1.39413e-14 -11.8615 24.1408)
(-5.46629e-14 -13.2873 21.3334)
(-1.26964e-13 -10.8433 20.4538)
(1.21229e-14 -10.4737 18.5302)
(-1.32138e-13 -9.15506 17.1412)
(-1.36828e-13 -8.09609 15.3413)
(-1.33011e-13 -6.386 12.716)
(-3.62905e-13 -4.1717 8.98617)
(-1.08755e-13 -2.63821 6.1348)
(2.1523e-13 -3.01602 6.12135)
(1.10262e-13 -4.52005 7.9101)
(-8.15087e-14 -5.66875 9.57218)
(-7.36483e-14 -4.98533 8.68555)
(2.06707e-13 -12.5144 26.1292)
(-8.30639e-15 -17.1343 25.6379)
(7.38394e-14 -12.3151 24.9868)
(-6.00557e-14 -13.7744 22.2657)
(-5.41965e-14 -11.181 21.5021)
(9.62537e-14 -11.0316 19.5272)
(-1.13423e-13 -9.61774 18.272)
(-4.38737e-14 -8.66812 16.4983)
(-1.36105e-14 -6.90478 13.8862)
(-3.10046e-13 -4.30485 9.7548)
(2.94181e-16 -1.59838 5.51141)
(-1.44951e-13 0.0229558 3.02467)
(-8.21553e-13 -0.00909631 2.92599)
(-5.81374e-13 -1.65042 5.06597)
(2.10963e-13 -2.51886 6.10078)
(1.65688e-13 -12.1982 24.762)
(1.28958e-14 -17.7002 27.1282)
(8.68286e-14 -13.1489 25.6013)
(-3.92606e-14 -14.2224 22.8323)
(-6.3669e-14 -11.9278 22.0182)
(1.12763e-13 -11.8067 20.1101)
(-5.98606e-14 -10.5833 18.8586)
(-5.56525e-14 -9.80791 17.2723)
(1.58594e-14 -8.55356 15.2765)
(-1.81788e-13 -6.63522 12.2359)
(-9.49459e-14 -4.02758 8.30312)
(-2.47041e-13 -1.14324 4.18579)
(-1.18695e-12 1.77105 0.230209)
(-1.82921e-12 2.52205 -1.6642)
(-1.15995e-12 0.585772 -0.517895)
(1.63221e-13 -11.5105 22.5654)
(3.88201e-14 -17.6946 27.6511)
(1.89606e-14 -13.884 25.7561)
(-2.34355e-14 -14.2245 22.8284)
(-6.50019e-14 -12.4109 21.7614)
(-9.56988e-15 -12.0877 19.9877)
(-1.011e-14 -11.112 18.627)
(-4.36689e-14 -10.3802 17.1329)
(-7.21964e-14 -9.49977 15.5009)
(-6.89191e-14 -8.31871 13.4498)
(-5.27408e-14 -6.73625 10.8665)
(-2.42692e-13 -4.69404 7.79206)
(-4.69323e-13 -2.07027 4.03281)
(-7.60685e-13 0.979853 0.128684)
(-1.78758e-12 0.636337 -2.96496)
(9.6307e-14 -10.7359 20.297)
(5.24832e-14 -17.222 27.3578)
(1.40279e-14 -14.0601 25.4714)
(-9.21403e-14 -13.884 22.3846)
(-7.14811e-14 -12.2793 21.1442)
(-2.42992e-14 -11.8339 19.4404)
(-7.74553e-14 -10.9117 18.0241)
(-5.26612e-14 -10.143 16.5211)
(-1.09573e-13 -9.34555 15.0076)
(-1.30913e-13 -8.43417 13.3691)
(-5.78056e-14 -7.35536 11.4675)
(-1.67362e-13 -5.96895 9.21976)
(-4.20132e-13 -4.20573 6.31225)
(-1.13372e-13 -1.67352 2.6857)
(-1.89083e-12 -0.129677 -1.86629)
(-3.02253e-14 -10.2644 18.9719)
(7.11068e-14 -16.874 27.2417)
(-1.39258e-13 -14.1473 25.4406)
(-1.07621e-13 -13.6449 22.2415)
(-2.87304e-14 -12.0622 20.9458)
(-2.20452e-13 -11.5492 19.2178)
(-8.85206e-14 -10.5551 17.7657)
(-3.35884e-14 -9.82686 16.3086)
(-3.63572e-13 -9.04898 14.8761)
(-2.10094e-13 -8.18641 13.354)
(6.7792e-14 -7.24927 11.6825)
(-4.35965e-13 -6.10615 9.82362)
(-4.36773e-13 -4.76472 7.50101)
(-5.50111e-13 -2.81269 4.63459)
(-2.99514e-12 0.169891 -1.60042)
(-4.97148e-14 -9.25389 16.5879)
(1.02684e-13 -16.0247 26.2127)
(-2.08931e-13 -13.9857 24.8464)
(-1.16422e-13 -13.1591 21.6088)
(-3.62088e-14 -11.6311 20.0879)
(-3.39283e-13 -10.965 18.3132)
(-1.7629e-13 -9.96246 16.8087)
(8.01259e-14 -9.14115 15.3649)
(-3.11633e-13 -8.3282 14.0111)
(-2.45026e-13 -7.4496 12.5829)
(1.79833e-14 -6.4875 10.9871)
(-4.80497e-13 -5.26309 9.149)
(-3.64771e-13 -3.73701 6.67214)
(-1.22983e-12 -0.877067 1.89519)
(-2.53396e-12 1.74143 -4.91329)
(-1.66413e-13 -9.82216 17.4053)
(1.1898e-13 -16.6187 27.282)
(-1.61539e-13 -15.4424 26.4262)
(-2.23186e-13 -14.4532 23.1988)
(5.28655e-14 -13.1032 21.369)
(-2.14549e-13 -12.6215 19.8477)
(-2.5541e-13 -12.03 18.4456)
(1.12164e-13 -11.6029 16.9875)
(-6.13581e-14 -11.2469 15.7402)
(-2.58891e-13 -10.8985 14.6291)
(-2.08553e-13 -10.481 13.5233)
(-2.86598e-13 -9.76756 12.2786)
(-2.90256e-13 -8.21511 10.2955)
(-4.02018e-13 -5.82369 7.52481)
(-8.15427e-13 -3.54549 3.87087)
(-1.66405e-13 -4.77107 10.3939)
(6.62039e-15 -10.727 20.9254)
(-2.31302e-13 -8.98625 20.3333)
(-2.01905e-13 -7.55969 18.0996)
(-1.62789e-13 -5.91913 16.2007)
(-2.44696e-13 -4.64347 13.7456)
(-1.60409e-13 -3.80437 11.7423)
(-1.17277e-13 -3.97662 10.6638)
(-1.77321e-13 -4.8781 10.2491)
(-2.24143e-13 -5.93844 9.94916)
(-2.54638e-13 -6.85725 10.1826)
(-2.1746e-13 -8.88156 13.3103)
(-2.50008e-13 -10.7958 16.9018)
(-3.48475e-13 -8.42964 13.635)
(-3.91386e-13 -5.65467 7.94453)
(-1.89047e-13 -29.2623 51.3295)
(-2.15533e-13 -24.4259 48.3674)
(-4.36718e-13 -19.7359 40.491)
(-5.8704e-13 -16.1011 34.8054)
(-7.38788e-13 -11.7896 27.645)
(-7.20708e-13 -7.65583 20.4862)
(-5.88105e-13 -3.14341 12.9381)
(-3.9806e-13 1.3685 5.07123)
(-2.11738e-13 5.13164 -1.59814)
(-1.58568e-13 5.31273 -1.89899)
(-2.30577e-13 0.388063 6.39057)
(-3.21065e-13 -4.61832 14.5659)
(-3.88552e-13 -6.84473 16.2331)
(-3.53411e-13 -3.41645 8.82516)
(-7.0809e-14 5.23336 -1.75407)
(-2.50126e-15 0.271529 -0.416215)
(-9.75767e-15 1.08581 -6.0085)
(-8.49145e-15 1.61823 -4.78254)
(-8.51274e-15 2.35085 -4.68959)
(-8.10526e-15 2.45845 -4.21081)
(-1.13769e-14 4.26534 -7.09877)
(-8.49876e-15 3.9885 -4.70705)
(-7.91256e-15 4.77083 -4.60751)
(-9.04334e-15 4.7746 -4.25808)
(-9.70291e-15 6.92161 -6.69756)
(5.06585e-15 6.26789 -4.4896)
(6.05864e-15 6.76721 -4.08477)
(6.02303e-15 9.59036 -6.32061)
(4.84017e-15 7.91993 -4.17028)
(5.4196e-15 8.95888 -4.14197)
(6.20234e-15 8.72832 -3.92319)
(6.30252e-15 11.6449 -5.97705)
(6.6674e-15 9.95666 -4.02628)
(6.57125e-15 10.4778 -3.72095)
(6.93177e-15 14.2527 -5.65438)
(4.9736e-15 11.3318 -3.75748)
(4.17984e-15 12.6313 -3.76214)
(4.94485e-15 12.1659 -3.59306)
(5.22322e-15 16.1705 -5.45609)
(3.32847e-15 12.9543 -3.64314)
(3.56136e-15 14.4285 -3.61973)
(9.82545e-16 13.8991 -3.46582)
(8.28236e-16 17.8713 -5.22312)
(-6.55681e-16 14.768 -3.53059)
(-6.99146e-16 15.3535 -3.26702)
(-4.35617e-16 20.4406 -4.8865)
(-1.32915e-15 15.851 -3.25179)
(-9.55414e-16 17.4319 -3.23832)
(-1.64197e-15 16.8008 -3.10636)
(-1.88617e-15 21.4144 -4.63168)
(-1.40368e-15 17.4689 -3.13447)
(-1.25561e-15 18.0808 -2.92378)
(-1.33479e-15 23.935 -4.2936)
(-1.07181e-15 18.3567 -2.85424)
(-1.30015e-15 20.1386 -2.8614)
(-5.61393e-16 19.3063 -2.75621)
(-4.29196e-16 24.9956 -4.06787)
(-5.76025e-16 19.4663 -2.72974)
(-6.37357e-16 21.4762 -2.70535)
(-7.48613e-16 20.5943 -2.62316)
(-3.3674e-16 25.9489 -3.85059)
(-1.29657e-15 20.9127 -2.60092)
(-1.30033e-15 21.5914 -2.4409)
(-1.47345e-15 28.3857 -3.46704)
(-5.11804e-16 21.5215 -2.30714)
(-3.55844e-16 23.5241 -2.31507)
(-2.70211e-16 22.521 -2.27518)
(3.67153e-16 28.9386 -3.25685)
(2.62724e-16 22.317 -2.19902)
(2.57414e-16 24.569 -2.16907)
(1.03103e-15 23.5209 -2.15052)
(2.25152e-15 29.441 -3.04651)
(2.01058e-15 23.5034 -2.0355)
(1.4333e-15 24.2393 -1.92407)
(2.85991e-15 31.6692 -2.52547)
(2.20198e-15 23.8102 -1.64089)
(2.65128e-15 25.9421 -1.62139)
(2.54708e-15 24.8865 -1.63418)
(8.35544e-15 31.1466 -2.10358)
(6.44009e-15 24.6707 -1.32624)
(7.52471e-15 25.3881 -1.3028)
(1.20217e-14 33.1482 -1.422)
(8.79886e-15 24.7226 -0.818253)
(9.25531e-15 26.9228 -0.822526)
(9.56744e-15 25.7088 -0.90727)
(1.4928e-14 32.8024 -0.875861)
(1.27295e-14 24.8474 -0.451361)
(1.38919e-14 27.2799 -0.420132)
(1.50292e-14 26.0331 -0.558229)
(2.3283e-14 32.4657 -0.370072)
(1.63777e-14 25.306 -0.0025359)
(1.63622e-14 26.1761 -0.124532)
(2.42797e-14 33.0769 0.550465)
(1.7119e-14 25.6822 0.838576)
(3.28432e-14 24.5745 0.242795)
(5.22281e-15 27.2715 0.610197)
(2.64685e-16 25.3816 0.85953)
(-6.51331e-16 25.0014 0.887035)
(4.75522e-14 29.4906 1.52641)
(2.76883e-14 25.2951 1.39735)
(7.6912e-15 25.2984 2.27396)
(-1.79126e-15 25.5236 2.66154)
(4.37042e-15 25.6905 2.15557)
(1.48984e-14 25.7507 1.32413)
(2.15897e-14 25.772 0.506253)
(2.46968e-14 25.9141 0.157926)
(2.6852e-14 25.4502 -0.442963)
(1.07319e-13 31.8004 -2.77127)
(2.34638e-14 25.8207 0.129497)
(1.48689e-14 26.8288 0.164918)
(-3.11341e-16 26.7545 0.774751)
(1.42794e-14 26.9495 -0.0476029)
(1.82837e-14 26.7875 -0.380618)
(7.93112e-16 26.7993 0.101754)
(-4.43515e-14 27.2872 1.84447)
(-7.73839e-14 26.9923 3.07062)
(-6.40611e-14 30.7779 4.93095)
(-9.7884e-14 26.7534 5.509)
(-1.07803e-13 27.0905 5.73807)
(-1.15903e-13 27.1747 5.91402)
(-1.13695e-13 27.1843 5.8745)
(-1.06433e-13 27.3107 5.48848)
(-1.12556e-13 27.4171 5.36894)
(-1.12129e-13 27.1921 5.51922)
(-9.52926e-14 27.3343 5.28775)
(-8.25629e-14 26.8271 4.69425)
(-2.40903e-14 31.1888 6.53499)
(-4.17673e-14 26.4048 5.20884)
(-3.61875e-14 26.6664 4.72832)
(-3.60545e-14 26.637 4.35076)
(-4.10777e-14 26.4467 4.18246)
(-3.81914e-14 26.6089 3.97641)
(-6.53604e-14 26.3957 4.63436)
(-8.86553e-14 26.6256 5.13541)
(-1.11519e-13 26.2354 5.47873)
(-1.1068e-14 31.6172 5.43076)
(-8.07176e-14 26.0899 5.92974)
(-1.02013e-13 26.6936 6.30666)
(-1.4177e-13 26.6896 7.36812)
(-1.54142e-13 26.7347 7.84374)
(-1.52988e-13 26.9049 8.15071)
(-1.42082e-13 26.7849 8.51033)
(-1.3578e-13 27.2707 8.32963)
(-1.49485e-13 26.5491 9.78992)
(5.66278e-15 34.3298 7.46503)
(-1.24377e-13 27.4346 10.2248)
(-1.31309e-13 28.2371 10.4796)
(-1.42345e-13 28.5256 10.5124)
(-1.4537e-13 28.3613 11.2398)
(-1.42347e-13 28.6763 11.8436)
(-1.42615e-13 28.8421 12.1397)
(-1.45062e-13 29.2209 12.2283)
(-1.60387e-13 28.897 12.8633)
(-5.03014e-14 38.0015 8.50432)
(-1.49539e-13 30.079 13.775)
(-1.57803e-13 31.4836 14.256)
(-1.61959e-13 31.7959 14.684)
(-1.63793e-13 31.727 15.1698)
(-1.71873e-13 32.1245 15.3421)
(-1.47445e-13 32.2851 16.5318)
(-1.44744e-13 32.5696 17.1989)
(-1.46488e-13 33.0811 17.5351)
(-1.53765e-13 32.7835 18.6493)
(-9.86785e-14 43.6401 12.4886)
(-1.47059e-13 34.7436 19.2067)
(-1.41178e-13 36.4491 20.33)
(-1.41616e-13 36.9283 21.0976)
(-1.41652e-13 36.9046 21.8187)
(-1.4149e-13 37.3735 22.4587)
(-1.39555e-13 37.6445 23.3013)
(-1.31178e-13 38.195 24.2751)
(-1.3093e-13 38.0531 26.0868)
(-1.0761e-13 51.3137 18.6074)
(-1.33651e-13 40.8249 25.6081)
(-1.45465e-13 43.2693 27.7441)
(-1.10087e-13 42.5135 19.0774)
(-1.32887e-13 40.5226 19.286)
(-1.7036e-13 44.1497 19.5109)
(-1.19215e-13 32.6141 12.7819)
(-1.77891e-13 45.8813 15.2069)
(-1.38604e-13 32.9629 11.1238)
(-1.80973e-13 36.1528 12.1542)
(-2.37519e-13 39.1594 12.8548)
(-1.73242e-13 29.7316 9.02031)
(-2.21944e-13 35.3666 10.0093)
(-2.90679e-13 38.3578 10.9731)
(-2.03149e-13 26.9274 7.49014)
(-3.01399e-13 38.7012 9.27773)
(-2.317e-13 28.0331 7.0608)
(-3.00044e-13 30.9854 7.91157)
(-3.85651e-13 34.8584 8.82512)
(-2.66337e-13 24.9 6.08692)
(-3.88399e-13 36.1448 7.50265)
(-2.93204e-13 26.0651 5.72958)
(-3.715e-13 29.4037 6.28893)
(-4.5721e-13 32.4154 6.83304)
(-3.20636e-13 24.6346 4.89627)
(-3.97046e-13 29.9744 5.27056)
(-4.81153e-13 33.3956 5.59679)
(-3.22475e-13 23.4145 3.79432)
(-4.46072e-13 34.929 4.13443)
(-3.24601e-13 25.3937 3.05585)
(-3.95893e-13 28.7694 2.89677)
(-4.62581e-13 33.2543 2.55848)
(-3.05662e-13 23.745 1.66613)
(-4.11396e-13 35.9064 1.0391)
(-2.94476e-13 26.0768 0.674071)
(-3.53094e-13 30.2895 -0.156771)
(-4.02756e-13 33.9774 -1.1259)
(-2.71432e-13 26.0412 -0.831706)
(-3.21888e-13 32.7384 -1.88833)
(-3.66748e-13 37.0581 -2.9763)
(-2.38436e-13 26.1384 -2.0929)
(-3.16206e-13 40.3808 -3.96791)
(-2.23516e-13 29.7671 -2.9385)
(-2.66191e-13 34.4487 -4.38197)
(-2.99991e-13 40.347 -5.55968)
(-1.93702e-13 29.1518 -3.70566)
(-2.56968e-13 44.9742 -5.91135)
(-1.81462e-13 33.1823 -4.21376)
(-2.15669e-13 39.0186 -5.86303)
(-2.42874e-13 44.0739 -6.93875)
(-1.62665e-13 34.2011 -4.50747)
(-1.92369e-13 43.3242 -6.01447)
(-2.18694e-13 49.18 -6.87135)
(-1.42917e-13 35.1386 -4.44985)
(-1.90453e-13 53.932 -6.71333)
(-1.36172e-13 40.2358 -4.66553)
(-1.63377e-13 46.4828 -6.2568)
(-1.89728e-13 54.1064 -7.06441)
(-1.24728e-13 39.4835 -4.53882)
(-1.67014e-13 60.0364 -6.81586)
(-1.19959e-13 44.6386 -4.71286)
(-1.44482e-13 52.1117 -6.41876)
(-1.65581e-13 58.4249 -7.26292)
(-1.11834e-13 45.4065 -4.62316)
(-1.33706e-13 57.1431 -6.17065)
(-1.52141e-13 64.3196 -6.902)
(-1.00017e-13 46.0999 -4.44876)
(-1.33934e-13 69.7673 -6.85599)
(-9.61289e-14 52.2439 -4.75001)
(-1.14759e-13 59.9956 -6.49878)
(-1.3268e-13 69.2785 -7.38852)
(-8.74717e-14 50.696 -4.74684)
(-1.17192e-13 76.28 -7.35263)
(-8.44497e-14 56.928 -5.07711)
(-1.01497e-13 66.0934 -7.0831)
(-1.14823e-13 73.8709 -8.2208)
(-7.76573e-14 57.4858 -5.23319)
(-9.28579e-14 71.9635 -7.14966)
(-1.07104e-13 81.0839 -8.39417)
(-7.10721e-14 58.1427 -5.41583)
(-9.6099e-14 88.1277 -8.77839)
(-6.82915e-14 65.1918 -5.99904)
(-8.95054e-14 78.7305 -9.52093)
(-4.14811e-16 -25.4557 20.5181)
(-4.55327e-16 -25.9218 20.3153)
(-4.71881e-16 -26.2361 19.931)
(-4.88712e-16 -26.7064 19.4168)
(-4.99955e-16 -27.2092 18.7343)
(-5.06699e-16 -27.6993 17.9175)
(-5.0849e-16 -28.0702 16.9938)
(-5.05284e-16 -28.1818 16.03)
(-4.97261e-16 -27.7372 15.0821)
(-4.84952e-16 -26.0173 14.1583)
(-4.68033e-16 -20.9782 13.0099)
(-4.35195e-16 -8.12532 9.99662)
(-3.64021e-16 7.55579 2.8087)
(-3.54654e-16 5.17026 4.57519)
(-3.52302e-16 -3.58314 4.83813)
(-3.33934e-16 -10.8214 4.23517)
(-3.07011e-16 -15.7895 3.44761)
(-2.74638e-16 -16.9464 2.17972)
(-2.39818e-16 -14.1057 0.739293)
(-2.05723e-16 -14.699 -0.621179)
(-1.74795e-16 -9.10768 -1.91447)
(-1.62076e-16 2.01869 -3.11248)
(-1.5188e-16 8.72794 -4.40691)
(-1.40727e-16 12.0279 -4.94232)
(-1.2656e-16 12.4486 -5.12083)
(-1.09686e-16 11.1546 -5.36096)
(-8.90474e-17 8.78498 -5.96689)
(-6.42259e-17 5.57167 -7.40195)
(-4.53464e-17 2.75501 -8.81122)
(-3.5308e-17 1.66456 -9.66361)
(-2.94554e-17 1.28207 -10.2764)
(-2.58051e-17 1.14382 -10.7823)
(-2.3821e-17 1.12295 -11.2216)
(-2.30021e-17 1.20748 -11.7398)
(-2.28565e-17 1.49593 -12.5785)
(-2.29581e-17 1.96915 -13.798)
(-2.30817e-17 2.34287 -15.1701)
(-2.32684e-17 2.28802 -16.4311)
(-2.36559e-17 1.63099 -17.4421)
(-2.42274e-17 0.302486 -18.1446)
(-2.51711e-17 -1.56611 -18.6502)
(-2.69444e-17 -3.71932 -19.1513)
(-3.38107e-17 -6.13212 -19.522)
(-3.89787e-17 -8.73537 -19.6861)
(-9.0936e-17 -11.5184 -19.8665)
(-1.53864e-16 -14.6425 -19.9692)
(-3.94704e-17 -18.7002 -20.8838)
(-1.24416e-16 -23.7757 -23.4261)
(-6.29934e-16 -27.2727 -25.6461)
(-1.19178e-15 -26.5306 -26.3709)
(-1.55643e-15 -22.41 -26.3518)
(-1.72131e-15 -16.093 -26.2508)
(-1.77271e-15 -9.12076 -26.2472)
(-1.73194e-15 -5.92639 -25.153)
(-1.72567e-15 -1.0194 -27.4657)
(-2.16894e-15 10.0414 -36.1942)
(-2.8817e-15 15.8524 -38.6338)
(-3.49775e-15 13.0668 -36.4214)
(-4.40137e-15 -2.80554 -32.9011)
(-5.30662e-15 -19.5211 -32.3364)
(-5.68328e-15 -23.4122 -34.1391)
(-6.5523e-15 -16.906 -37.5492)
(-7.60732e-15 -2.66553 -41.4666)
(-5.97767e-15 1.15714 -37.8661)
(-7.46804e-16 -36.6109 -29.8937)
(1.56076e-16 -63.523 -28.3798)
(3.39239e-17 -61.3694 -26.8805)
(-3.18176e-18 -49.607 -25.7676)
(-2.21874e-18 -36.7476 -25.3254)
(7.92317e-19 -24.2176 -25.1903)
(-3.47807e-18 -12.0533 -25.1239)
(1.48212e-17 -0.331929 -25.0858)
(-5.96693e-17 12.2307 -24.886)
(1.33576e-16 25.0982 -23.9784)
(2.86991e-16 37.1984 -22.2234)
(-3.34639e-15 46.7291 -19.4705)
(-5.12267e-15 55.1103 -16.355)
(1.16046e-14 68.6922 -14.0964)
(-2.12134e-14 83.7085 -13.5058)
(-4.17096e-16 -25.445 20.507)
(-4.5723e-16 -25.8726 20.2912)
(-4.73362e-16 -26.1526 19.8983)
(-4.89783e-16 -26.5916 19.3731)
(-5.00619e-16 -27.0586 18.6845)
(-5.06982e-16 -27.5167 17.8657)
(-5.0842e-16 -27.86 16.9477)
(-5.04909e-16 -27.949 15.9971)
(-4.96653e-16 -27.4738 15.0711)
(-4.84217e-16 -25.6648 14.2007)
(-4.66461e-16 -20.1173 12.9832)
(-4.2911e-16 -5.90208 9.04807)
(-3.61059e-16 8.10345 2.35672)
(-3.52732e-16 4.92715 4.68342)
(-3.51031e-16 -3.59518 4.81977)
(-3.32972e-16 -10.6134 4.28426)
(-3.06306e-16 -15.4656 3.4866)
(-2.74159e-16 -16.478 2.20385)
(-2.39616e-16 -13.5863 0.743449)
(-2.05878e-16 -14.2026 -0.64419)
(-1.75397e-16 -8.61482 -2.02408)
(-1.63058e-16 2.237 -3.58693)
(-1.53922e-16 8.98011 -4.69226)
(-1.42495e-16 12.1184 -5.19737)
(-1.28804e-16 12.5006 -5.40324)
(-1.12873e-16 11.2613 -5.63244)
(-9.32774e-17 9.07625 -6.0303)
(-6.60272e-17 5.93503 -7.4974)
(-4.45868e-17 2.98544 -9.08011)
(-3.48018e-17 1.83374 -9.93298)
(-2.97947e-17 1.43363 -10.5286)
(-2.67089e-17 1.29022 -11.0821)
(-2.49685e-17 1.28515 -11.6422)
(-2.42339e-17 1.43871 -12.3398)
(-2.4064e-17 1.83671 -13.363)
(-2.40179e-17 2.38886 -14.6945)
(-2.39067e-17 2.76883 -16.103)
(-2.3842e-17 2.66607 -17.3778)
(-2.40138e-17 1.93856 -18.4208)
(-2.4458e-17 0.549564 -19.1975)
(-2.5211e-17 -1.49867 -19.6462)
(-2.6215e-17 -3.84306 -19.8236)
(-3.15606e-17 -6.35254 -19.8447)
(-3.51861e-17 -8.9744 -19.8075)
(-7.89942e-17 -11.7537 -19.8977)
(-1.49006e-16 -14.766 -19.981)
(-5.34498e-17 -18.5198 -20.6923)
(-1.0244e-16 -23.389 -23.0984)
(-5.70145e-16 -27.1377 -25.4698)
(-1.13404e-15 -26.7492 -26.3472)
(-1.51922e-15 -22.8287 -26.3341)
(-1.70225e-15 -16.5884 -26.1617)
(-1.77204e-15 -9.51632 -26.3572)
(-1.72779e-15 -6.03878 -24.7511)
(-1.77429e-15 1.17 -29.7879)
(-2.28281e-15 11.734 -37.6109)
(-3.04153e-15 15.6189 -37.8569)
(-3.80458e-15 11.7989 -34.8929)
(-4.53169e-15 -3.6514 -32.174)
(-5.27328e-15 -19.192 -32.0189)
(-5.67785e-15 -22.714 -33.911)
(-6.45964e-15 -16.0155 -37.2662)
(-5.92497e-15 -2.55213 -39.1341)
(-4.67714e-15 -0.995869 -35.5319)
(-8.89819e-16 -36.6629 -29.7505)
(1.48389e-16 -63.3581 -28.6323)
(4.81521e-17 -61.7029 -27.1504)
(-1.96898e-18 -49.9188 -25.8477)
(-2.94111e-18 -36.9397 -25.304)
(5.72294e-19 -24.3445 -25.1292)
(-3.84868e-18 -12.138 -25.0297)
(2.04539e-17 -0.301589 -24.927)
(-7.86736e-17 12.0962 -24.5656)
(2.11897e-16 24.7066 -23.5543)
(1.22965e-16 36.5147 -21.7762)
(-3.90984e-15 45.8301 -19.0505)
(-4.89531e-15 54.2919 -16.061)
(1.27644e-14 68.0945 -13.9138)
(-2.61782e-14 83.1478 -11.7872)
(-4.19905e-16 -25.4168 20.5037)
(-4.59549e-16 -25.7972 20.2683)
(-4.75162e-16 -26.0404 19.8644)
(-4.91075e-16 -26.4453 19.3247)
(-5.0141e-16 -26.8784 18.6276)
(-5.07302e-16 -27.3116 17.8046)
(-5.08308e-16 -27.6427 16.8913)
(-5.04424e-16 -27.7368 15.9546)
(-4.95896e-16 -27.2784 15.0544)
(-4.83276e-16 -25.4495 14.2262)
(-4.64298e-16 -19.6233 12.863)
(-4.22316e-16 -4.90805 8.11007)
(-3.57739e-16 8.43427 2.42506)
(-3.50954e-16 4.74149 4.75575)
(-3.4941e-16 -3.5728 4.81252)
(-3.31764e-16 -10.4576 4.34819)
(-3.05422e-16 -15.2534 3.54156)
(-2.73559e-16 -16.1982 2.23459)
(-2.39364e-16 -13.3135 0.753614)
(-2.06077e-16 -13.9327 -0.667681)
(-1.76166e-16 -8.32034 -2.14489)
(-1.65032e-16 2.50649 -3.80586)
(-1.55261e-16 9.13927 -4.85817)
(-1.43507e-16 12.1861 -5.37885)
(-1.3014e-16 12.5508 -5.60531)
(-1.14753e-16 11.3044 -5.86847)
(-9.68078e-17 9.2269 -6.16372)
(-7.08686e-17 6.28213 -7.45067)
(-4.7363e-17 3.26371 -9.17007)
(-3.67739e-17 1.98528 -10.1124)
(-3.1526e-17 1.54464 -10.7453)
(-2.82689e-17 1.4001 -11.35)
(-2.63496e-17 1.40644 -11.9836)
(-2.54336e-17 1.59149 -12.7677)
(-2.50616e-17 2.02995 -13.857)
(-2.47885e-17 2.6017 -15.2098)
(-2.44412e-17 2.9699 -16.6164)
(-2.41444e-17 2.8345 -17.8963)
(-2.4099e-17 2.06293 -18.9646)
(-2.43875e-17 0.622022 -19.7941)
(-2.50804e-17 -1.45504 -20.3692)
(-2.60222e-17 -3.79373 -20.67)
(-2.99384e-17 -6.30336 -20.5811)
(-3.13997e-17 -8.90889 -20.2376)
(-6.46599e-17 -11.6722 -20.0405)
(-1.40214e-16 -14.6164 -20.0211)
(-7.0197e-17 -18.1197 -20.4807)
(-8.07878e-17 -22.794 -22.686)
(-4.98522e-16 -26.6775 -25.1933)
(-1.05901e-15 -26.5248 -26.2395)
(-1.46738e-15 -22.6952 -26.2527)
(-1.67731e-15 -16.4635 -26.0874)
(-1.76912e-15 -9.4921 -26.3477)
(-1.70827e-15 -5.49895 -24.6164)
(-1.763e-15 2.18297 -30.8957)
(-2.28482e-15 12.1558 -38.151)
(-3.00303e-15 15.4363 -37.673)
(-3.82269e-15 11.8388 -34.686)
(-4.60369e-15 -3.7764 -31.809)
(-5.23373e-15 -19.072 -31.597)
(-5.74389e-15 -22.18 -33.6811)
(-6.22604e-15 -15.6401 -36.6822)
(-5.00482e-15 -2.68275 -38.0141)
(-3.70602e-15 -1.47068 -34.4257)
(-9.47855e-16 -37.8152 -29.6081)
(1.27533e-16 -63.7856 -28.8189)
(6.28927e-17 -62.019 -27.3685)
(4.42233e-19 -50.0868 -25.9193)
(-3.7817e-18 -36.977 -25.2724)
(2.16013e-19 -24.3331 -25.0514)
(-4.39952e-18 -12.126 -24.9233)
(2.28272e-17 -0.406861 -24.776)
(-8.91622e-17 11.9361 -24.3321)
(2.61364e-16 24.4711 -23.3071)
(-1.05641e-17 36.166 -21.5252)
(-4.2189e-15 45.4039 -18.8276)
(-4.69284e-15 53.9106 -15.9178)
(1.34331e-14 67.7062 -13.7985)
(-2.93245e-14 82.6686 -11.0674)
(-4.22819e-16 -25.3894 20.5084)
(-4.61929e-16 -25.7297 20.2496)
(-4.77e-16 -25.9422 19.8335)
(-4.92383e-16 -26.3194 19.2779)
(-5.02196e-16 -26.7256 18.5711)
(-5.076e-16 -27.1402 17.7422)
(-5.08157e-16 -27.4642 16.8324)
(-5.03892e-16 -27.5667 15.9082)
(-4.95097e-16 -27.125 15.0298)
(-4.82235e-16 -25.2614 14.2156)
(-4.61815e-16 -19.1293 12.6779)
(-4.15797e-16 -3.90382 7.35999)
(-3.55201e-16 8.65278 2.34104)
(-3.49512e-16 4.55921 4.73473)
(-3.47679e-16 -3.55416 4.8159)
(-3.30488e-16 -10.3278 4.40442)
(-3.04483e-16 -15.0782 3.59975)
(-2.72922e-16 -15.9609 2.26809)
(-2.39096e-16 -13.0826 0.771918)
(-2.06287e-16 -13.697 -0.678023)
(-1.76975e-16 -8.02329 -2.2363)
(-1.66742e-16 2.79129 -3.97011)
(-1.56539e-16 9.31931 -5.03063)
(-1.44622e-16 12.26 -5.57393)
(-1.31632e-16 12.6024 -5.82172)
(-1.16765e-16 11.3649 -6.10205)
(-9.97327e-17 9.37105 -6.36248)
(-7.56844e-17 6.57868 -7.43564)
(-5.06321e-17 3.54733 -9.25082)
(-3.91713e-17 2.16036 -10.3082)
(-3.35609e-17 1.68624 -10.9908)
(-3.00483e-17 1.53999 -11.6447)
(-2.78703e-17 1.56426 -12.3452)
(-2.66999e-17 1.79843 -13.2097)
(-2.60993e-17 2.29883 -14.3622)
(-2.56028e-17 2.90577 -15.7469)
(-2.50128e-17 3.2686 -17.1721)
(-2.44539e-17 3.1006 -18.4748)
(-2.41409e-17 2.28543 -19.5785)
(-2.42063e-17 0.801506 -20.4619)
(-2.46742e-17 -1.33102 -21.0839)
(-2.57725e-17 -3.73822 -21.4705)
(-2.93154e-17 -6.31518 -21.4716)
(-2.93284e-17 -8.93897 -20.9941)
(-5.10657e-17 -11.6663 -20.4253)
(-1.277e-16 -14.5387 -20.1549)
(-8.37903e-17 -17.8362 -20.317)
(-6.46291e-17 -22.3173 -22.2609)
(-4.27479e-16 -26.2706 -24.8216)
(-9.76679e-16 -26.3336 -26.0267)
(-1.40999e-15 -22.6086 -26.1335)
(-1.6527e-15 -16.4254 -25.8859)
(-1.75098e-15 -9.50049 -25.8745)
(-1.65636e-15 -4.97853 -24.3994)
(-1.75612e-15 3.84568 -32.2626)
(-2.3027e-15 12.843 -38.7719)
(-3.01149e-15 14.9427 -37.3818)
(-3.84695e-15 10.8942 -34.3288)
(-4.63791e-15 -4.15598 -31.4948)
(-5.22187e-15 -18.8743 -31.184)
(-5.85411e-15 -21.7098 -33.3983)
(-5.93985e-15 -15.2442 -36.1046)
(-4.29905e-15 -3.06799 -37.2091)
(-2.94615e-15 -2.34883 -33.6512)
(-9.23333e-16 -38.3721 -29.443)
(1.00431e-16 -64.0625 -28.9183)
(7.41424e-17 -62.31 -27.5081)
(3.79268e-18 -50.2745 -25.9754)
(-4.47157e-18 -37.0447 -25.2386)
(-2.40005e-19 -24.3553 -24.9686)
(-5.09892e-18 -12.1554 -24.8095)
(2.5449e-17 -0.446634 -24.6032)
(-1.01216e-16 11.7932 -24.0885)
(3.22198e-16 24.1712 -23.0389)
(-1.89074e-16 35.68 -21.2363)
(-4.58989e-15 44.7939 -18.5619)
(-4.42553e-15 53.3664 -15.7352)
(1.42271e-14 67.2326 -13.6823)
(-3.31238e-14 82.0566 -11.7103)
(-4.25739e-16 -25.3626 20.5193)
(-4.64283e-16 -25.6641 20.2351)
(-4.78809e-16 -25.8466 19.8066)
(-4.93658e-16 -26.1974 19.234)
(-5.02947e-16 -26.5773 18.5167)
(-5.07859e-16 -26.9735 17.6813)
(-5.07968e-16 -27.2892 16.7745)
(-5.03328e-16 -27.3964 15.8624)
(-4.94275e-16 -26.9592 15.0018)
(-4.81112e-16 -25.0179 14.1809)
(-4.5912e-16 -18.4862 12.4665)
(-4.0952e-16 -2.67195 6.72863)
(-3.52841e-16 8.73131 2.22904)
(-3.48091e-16 4.36658 4.73651)
(-3.45951e-16 -3.55466 4.81469)
(-3.29193e-16 -10.1947 4.45522)
(-3.03521e-16 -14.8776 3.66444)
(-2.72264e-16 -15.6748 2.30749)
(-2.38816e-16 -12.7902 0.799678)
(-2.06492e-16 -13.3984 -0.674844)
(-1.77789e-16 -7.65627 -2.30447)
(-1.68191e-16 3.02187 -4.15193)
(-1.57634e-16 9.48747 -5.19096)
(-1.45642e-16 12.3398 -5.76211)
(-1.33001e-16 12.6578 -6.03382)
(-1.18672e-16 11.4164 -6.33004)
(-1.02433e-16 9.49378 -6.60128)
(-8.07004e-17 6.85566 -7.45185)
(-5.43256e-17 3.83057 -9.3146)
(-4.17212e-17 2.32655 -10.5001)
(-3.56353e-17 1.82273 -11.233)
(-3.18072e-17 1.67965 -11.9346)
(-2.93387e-17 1.72597 -12.6957)
(-2.79359e-17 2.00315 -13.6232)
(-2.71524e-17 2.55112 -14.8233)
(-2.64547e-17 3.18197 -16.2428)
(-2.56205e-17 3.53576 -17.6984)
(-2.47855e-17 3.33628 -19.0293)
(-2.41789e-17 2.48003 -20.1658)
(-2.3969e-17 0.953563 -21.0964)
(-2.41594e-17 -1.23247 -21.7853)
(-2.51662e-17 -3.69933 -22.2383)
(-2.88519e-17 -6.36801 -22.3523)
(-2.92409e-17 -9.07407 -21.9363)
(-4.01295e-17 -11.803 -21.1082)
(-1.12254e-16 -14.5959 -20.4796)
(-9.39502e-17 -17.6791 -20.2487)
(-5.44269e-17 -21.9058 -21.8479)
(-3.60522e-16 -25.9148 -24.3819)
(-8.92828e-16 -26.2169 -25.7722)
(-1.35288e-15 -22.654 -25.936)
(-1.61587e-15 -16.5633 -25.2018)
(-1.68441e-15 -9.62443 -24.6456)
(-1.56134e-15 -4.3608 -24.192)
(-1.76554e-15 5.35677 -33.9928)
(-2.31715e-15 13.2277 -39.3963)
(-3.00279e-15 14.5295 -37.0926)
(-3.87067e-15 10.5129 -33.9343)
(-4.6688e-15 -4.47843 -31.2055)
(-5.27838e-15 -18.6711 -30.7848)
(-5.9237e-15 -21.2123 -32.9606)
(-5.57685e-15 -14.8962 -35.6483)
(-3.65513e-15 -3.10274 -36.6345)
(-2.31381e-15 -3.16827 -32.94)
(-8.45204e-16 -38.6714 -29.2192)
(7.32055e-17 -64.2053 -28.9579)
(8.08736e-17 -62.6134 -27.5969)
(7.61769e-18 -50.5158 -26.0141)
(-4.85955e-18 -37.1607 -25.1965)
(-7.43693e-19 -24.4112 -24.8741)
(-5.87677e-18 -12.2025 -24.6815)
(2.74919e-17 -0.534501 -24.4179)
(-1.11842e-16 11.6271 -23.8462)
(3.84327e-16 23.8903 -22.7807)
(-4.02297e-16 35.2487 -20.9547)
(-4.94278e-15 44.2703 -18.3081)
(-4.10427e-15 52.9039 -15.5648)
(1.49964e-14 66.7746 -13.5635)
(-3.70219e-14 81.4483 -10.2783)
(-4.28638e-16 -25.3321 20.5363)
(-4.66592e-16 -25.5929 20.2254)
(-4.80573e-16 -25.7444 19.7842)
(-4.94888e-16 -26.068 19.1937)
(-5.03653e-16 -26.421 18.4654)
(-5.08075e-16 -26.799 17.623)
(-5.07741e-16 -27.1072 16.7188)
(-5.02737e-16 -27.2201 15.8184)
(-4.93433e-16 -26.7835 14.9718)
(-4.79909e-16 -24.7415 14.1287)
(-4.56254e-16 -17.7862 12.2417)
(-4.03205e-16 -1.45352 6.16657)
(-3.50588e-16 8.8237 2.16696)
(-3.46748e-16 4.16482 4.72429)
(-3.44284e-16 -3.57295 4.80572)
(-3.279e-16 -10.0616 4.50636)
(-3.02544e-16 -14.667 3.73665)
(-2.7159e-16 -15.37 2.35358)
(-2.38521e-16 -12.4797 0.836589)
(-2.06684e-16 -13.0791 -0.658877)
(-1.78597e-16 -7.26405 -2.35488)
(-1.6939e-16 3.28535 -4.30023)
(-1.5858e-16 9.66518 -5.34263)
(-1.46613e-16 12.4244 -5.94287)
(-1.34299e-16 12.7175 -6.23313)
(-1.20436e-16 11.4735 -6.54251)
(-1.04828e-16 9.5977 -6.85311)
(-8.56409e-17 7.13231 -7.50603)
(-5.84975e-17 4.15202 -9.356)
(-4.42391e-17 2.51537 -10.6845)
(-3.75217e-17 1.97897 -11.4693)
(-3.33651e-17 1.83501 -12.2163)
(-3.06877e-17 1.90252 -13.0281)
(-2.91668e-17 2.22321 -14.0045)
(-2.82658e-17 2.82128 -15.2568)
(-2.73838e-17 3.47877 -16.7323)
(-2.63076e-17 3.82381 -18.2309)
(-2.51943e-17 3.5923 -19.5873)
(-2.4288e-17 2.69679 -20.7478)
(-2.37797e-17 1.13197 -21.718)
(-2.36621e-17 -1.10616 -22.4722)
(-2.43535e-17 -3.63748 -22.9951)
(-2.78787e-17 -6.39371 -23.1918)
(-3.01902e-17 -9.20771 -22.9139)
(-3.30541e-17 -11.9929 -22.0223)
(-9.52696e-17 -14.7315 -21.0629)
(-9.98309e-17 -17.5949 -20.3402)
(-4.91854e-17 -21.52 -21.4691)
(-3.00126e-16 -25.5224 -23.9143)
(-8.13264e-16 -26.0615 -25.5183)
(-1.28775e-15 -22.7619 -25.4382)
(-1.53265e-15 -16.8133 -23.7618)
(-1.55194e-15 -9.60777 -22.9951)
(-1.46208e-15 -3.34895 -24.9179)
(-1.80507e-15 6.87641 -36.151)
(-2.3394e-15 13.3841 -39.8747)
(-2.99111e-15 13.8913 -36.7365)
(-3.8892e-15 9.8549 -33.4701)
(-4.72261e-15 -4.83201 -30.848)
(-5.38634e-15 -18.5054 -30.2973)
(-5.87688e-15 -20.7156 -32.4379)
(-5.10903e-15 -14.5509 -35.4471)