/*--------------------------------*- C++ -*----------------------------------*\
| =========                 |                                                 |
| \\      /  F ield         | OpenFOAM: The Open Source CFD Toolbox           |
|  \\    /   O peration     | Version:  4.1                                   |
|   \\  /    A nd           | Web:      www.OpenFOAM.org                      |
|    \\/     M anipulation  |                                                 |
\*---------------------------------------------------------------------------*/
FoamFile
{
    version     2.0;
    format      ascii;
    class       surfaceScalarField;
    location    "24";
    object      phi;
}
// * * * * * * * * * * * * * * * * * * * * * * * * * * * * * * * * * * * * * //

dimensions      [0 3 -1 0 0 0 0];

internalField   nonuniform List<scalar> 
420
(
-948.717
2248.61
-1563.17
1914.65
-2045.62
1782.35
-2414.69
1668.96
-2688.76
1574.27
-2875.59
1486.73
-2978.38
1402.68
-2997.18
1319
-2931.29
1234.01
-2778.17
1146.78
-2532.97
1054.99
-2177.48
944.408
-1676.86
799.285
-1034.84
658.175
265.059
384.834
1863.77
460.089
1839.38
464.298
1778.12
435.426
1697.82
413.663
1596.01
399.087
1501.29
390.497
1411.26
388.638
1320.84
391.032
1231.6
391.823
1145.97
381.545
1065.26
342.087
983.844
257.634
883.715
154.232
761.554
419.29
50.4697
1813.28
-39.7681
1929.6
-176.791
1915.13
-255.297
1776.3
-319.662
1660.36
-383.277
1564.89
-440.01
1467.97
-487.273
1368.09
-523.606
1267.91
-545.982
1168.32
-555.502
1074.76
-549.316
977.609
-498.552
832.893
-284.072
547.014
135.218
213.28
1599.99
226.462
1916.41
109.553
2032.02
19.7418
1866.1
-34.6268
1714.71
-61.8996
1592.14
-73.2099
1479.26
-79.904
1374.76
-78.7109
1266.69
-70.9314
1160.52
-51.5996
1055.41
-16.933
942.932
17.4089
798.536
47.7837
516.624
183.001
475.261
1124.73
1223.57
1168.1
1559.09
1696.49
1542.06
1883.12
1414.73
1842.04
1285.49
1721.38
1174.6
1590.14
1072.94
1476.42
971.999
1367.63
867.527
1264.99
764.665
1158.27
661.597
1045.97
530.113
929.997
289.394
757.321
472.396
364.807
759.911
1258.6
274.295
1875.64
1079.45
2074.97
1683.79
1968.37
1948.65
1739.3
1950.45
1514.13
1815.31
1310.96
1679.59
1125.66
1552.94
954.973
1435.68
781.712
1331.54
601.793
1225.94
421.155
1110.68
208.619
969.904
681.015
-267.285
1027.2
302.453
-295.442
849.585
532.318
1086.81
1446.57
1079.8
1955.66
937.451
2092.81
779.127
1973.64
629.684
1829.04
501.624
1681.01
394.791
1542.52
289.397
1436.94
184.83
1330.49
90.9515
1204.55
14.6444
1046.21
695.66
-92.4496
1119.64
-57.079
-330.818
66.2207
409.018
46.9723
1465.82
-9.60186
2012.24
-56.7786
2139.99
-99.9406
2016.81
-144.976
1874.08
-172.005
1708.04
-197.403
1567.93
-233.602
1473.15
-271.118
1368.04
-318.263
1251.73
-339.776
1067.75
355.884
87.3071
1032.35
-357.557
114.067
-422.119
473.59
-481.081
1524.78
-476.567
2007.73
-417.655
2081.08
-364.394
1963.55
-328.525
1838.21
-282.233
1661.75
-234.413
1520.11
-193.244
1431.98
-150.647
1325.43
-76.312
1177.38
-129.491
1120.92
226.393
357.441
674.92
-46.4722
517.996
-9.83468
436.963
102.398
1412.56
178.792
1931.34
212.486
2047.39
234.003
1942.03
264.809
1807.41
296.397
1630.17
341.941
1474.57
399.109
1374.81
444.097
1280.46
520.689
1100.81
367.258
1274.36
593.65
489.028
185.907
388.944
618.1
303.783
522.141
527.79
1188.56
669.147
1789.99
695.037
2021.51
654.184
1982.89
618.158
1843.45
573.976
1674.36
532.107
1516.45
503.097
1403.83
458.097
1325.46
408.348
1150.56
270.552
1412.16
864.203
257.989
-72.0666
345.839
530.267
270.181
597.813
356.322
1102.43
393.909
1752.41
401.075
2014.35
385.613
1998.36
331.723
1897.34
277.801
1728.29
224.191
1570.07
178.647
1449.38
130.971
1373.16
76.0074
1205.54
8.17808
1480.01
872.381
-234.739
162.697
-8.56464
304.121
69.9587
519.311
122.372
1050.03
157.996
1716.79
199.654
1972.69
222.625
1975.4
182.419
1937.55
139.543
1771.17
100.031
1609.59
68.8517
1480.57
38.0522
1403.96
-1.02983
1244.63
-32.5328
1511.51
839.848
-124.542
287.265
83.8842
95.721
217.934
385.276
355.152
912.813
503.316
1568.64
536.48
1939.53
486.328
2025.55
420.103
2003.78
338.173
1853.1
258.299
1689.46
189.818
1549.05
127.684
1466.1
50.7252
1321.59
19.7479
1542.49
859.596
106.004
472.505
567.834
615.451
686.581
691.104
630.544
546.863
446.754
351.169
261.176
183.77
89.2917
38.972
)
;

boundaryField
{
    inletFace
    {
        type            calculated;
        value           nonuniform List<scalar> 
450
(
-6.38622e-11
5.74991e-11
9.47866e-12
2.6793e-12
5.96481e-13
4.49151e-13
2.2161e-12
5.4489e-12
1.02543e-11
1.97692e-11
3.53619e-11
4.80512e-11
4.77862e-11
2.95453e-12
-1.80224e-10
4.02922e-10
-3.03335e-10
-1.02359e-10
-3.32561e-11
-6.46205e-12
2.21477e-12
4.0134e-12
6.27202e-12
1.14769e-11
3.54436e-11
-4.18559e-11
-1.65984e-10
-5.02308e-10
-7.62683e-10
2.0761e-09
-1.91755e-09
2.10686e-09
-4.81715e-11
8.46247e-11
8.05791e-12
-5.02064e-12
-4.69945e-13
8.73158e-12
1.71368e-11
-7.77128e-12
-1.61326e-10
-3.78468e-10
-4.84929e-10
2.08097e-10
2.47824e-09
-6.07584e-09
5.65677e-09
-5.97375e-11
-4.53807e-10
-7.39456e-11
2.51124e-11
2.87708e-11
2.241e-11
1.80803e-11
-3.94792e-11
-2.28065e-10
-4.50022e-10
-4.72896e-10
-1.33005e-10
3.51092e-09
-1.0759e-08
5.86109e-09
4.428e-09
1.57052e-09
2.39797e-10
-1.006e-10
-8.97194e-11
-2.50993e-11
1.23824e-11
-1.08889e-11
-1.45348e-10
-3.60537e-10
-4.78574e-10
-6.07355e-10
1.91583e-09
-2.21101e-08
1.85862e-11
3.37218e-09
2.62645e-09
1.34975e-09
4.61168e-10
5.50963e-11
-4.43655e-11
-2.5361e-11
-4.43979e-12
-6.15454e-11
-2.31123e-10
-4.0298e-10
-5.02409e-10
7.49854e-10
-1.53104e-08
5.57358e-08
2.60303e-08
9.14543e-09
2.96668e-09
9.28335e-10
2.14712e-10
-1.98033e-11
-4.71455e-11
-1.40052e-11
-2.8258e-11
-1.62329e-10
-3.57404e-10
-4.90947e-10
4.04791e-10
-1.33471e-08
6.96363e-08
3.78907e-08
1.25396e-08
3.63095e-09
1.08476e-09
2.56739e-10
-1.61805e-11
-4.89797e-11
-1.01156e-11
-3.05569e-11
-1.82133e-10
-3.63852e-10
-2.826e-10
2.64886e-10
-2.28855e-08
3.60707e-08
3.16388e-08
1.00902e-08
3.04949e-09
9.29235e-10
2.02817e-10
-2.28738e-11
-3.40875e-11
-4.19213e-12
-5.50094e-11
-2.20211e-10
-3.56708e-10
-1.74424e-10
2.13359e-10
-2.59483e-08
7.81868e-10
3.31166e-08
1.02035e-08
2.83854e-09
9.17255e-10
2.65576e-10
1.76507e-11
-7.7234e-12
1.23869e-11
-4.39762e-11
-1.90054e-10
-3.2941e-10
-1.94761e-10
-1.2042e-11
-1.78678e-08
-1.83383e-08
1.14476e-08
1.25325e-08
5.00614e-09
1.4e-09
3.29377e-10
4.06076e-11
-7.86829e-12
9.63541e-12
-2.17391e-11
-1.36308e-10
-2.8077e-10
-2.18613e-10
-1.06663e-10
-6.36744e-09
-1.9173e-08
-5.01324e-09
1.01298e-08
7.01888e-09
2.34678e-09
5.08761e-10
4.6421e-11
-1.86486e-11
3.11695e-12
-1.24287e-11
-1.10206e-10
-2.54167e-10
-2.12516e-10
-1.43746e-10
-1.4055e-08
-1.77853e-08
-8.70022e-09
8.43318e-09
7.62651e-09
2.73373e-09
6.00662e-10
8.17861e-11
-1.2077e-11
-1.47733e-12
-1.19399e-11
-1.0239e-10
-2.42079e-10
-2.10057e-10
-1.38261e-10
-1.42749e-08
-1.65522e-08
-1.16042e-08
5.41505e-09
8.92849e-09
4.18572e-09
8.48912e-10
-2.74864e-11
-5.82436e-11
-3.62881e-12
-6.46518e-12
-9.36158e-11
-2.31366e-10
-2.10081e-10
-1.31509e-10
-8.21588e-09
-1.08434e-08
-1.27718e-08
-4.7068e-09
4.89527e-09
5.66994e-09
2.59763e-09
5.31227e-10
-4.51245e-11
-5.26111e-11
-1.53897e-11
-7.37624e-11
-2.04986e-10
-2.09388e-10
-1.22183e-10
6.38622e-11
-5.74991e-11
-9.47866e-12
-2.6793e-12
-5.96481e-13
-4.49151e-13
-2.2161e-12
-5.4489e-12
-1.02543e-11
-1.97692e-11
-3.53619e-11
-4.80512e-11
-4.77862e-11
-2.95453e-12
1.80224e-10
-4.02922e-10
3.03335e-10
1.02359e-10
3.32561e-11
6.46205e-12
-2.21477e-12
-4.0134e-12
-6.27202e-12
-1.14769e-11
-3.54436e-11
4.18559e-11
1.65984e-10
5.02308e-10
7.62683e-10
-2.0761e-09
1.91755e-09
-2.10686e-09
4.81715e-11
-8.46247e-11
-8.05791e-12
5.02064e-12
4.69945e-13
-8.73158e-12
-1.71368e-11
7.77128e-12
1.61326e-10
3.78468e-10
4.84929e-10
-2.08097e-10
-2.47824e-09
6.07584e-09
-5.65677e-09
5.97375e-11
4.53807e-10
7.39456e-11
-2.51124e-11
-2.87708e-11
-2.241e-11
-1.80803e-11
3.94792e-11
2.28065e-10
4.50022e-10
4.72896e-10
1.33005e-10
-3.51092e-09
1.0759e-08
-5.86109e-09
-4.428e-09
-1.57052e-09
-2.39797e-10
1.006e-10
8.97194e-11
2.50993e-11
-1.23824e-11
1.08889e-11
1.45348e-10
3.60537e-10
4.78574e-10
6.07355e-10
-1.91583e-09
2.21101e-08
-1.85862e-11
-3.37218e-09
-2.62645e-09
-1.34975e-09
-4.61168e-10
-5.50963e-11
4.43655e-11
2.5361e-11
4.43979e-12
6.15454e-11
2.31123e-10
4.0298e-10
5.02409e-10
-7.49854e-10
1.53104e-08
-5.57358e-08
-2.60303e-08
-9.14543e-09
-2.96668e-09
-9.28335e-10
-2.14712e-10
1.98033e-11
4.71455e-11
1.40052e-11
2.8258e-11
1.62329e-10
3.57404e-10
4.90947e-10
-4.04791e-10
1.33471e-08
-6.96363e-08
-3.78907e-08
-1.25396e-08
-3.63095e-09
-1.08476e-09
-2.56739e-10
1.61805e-11
4.89797e-11
1.01156e-11
3.05569e-11
1.82133e-10
3.63852e-10
2.826e-10
-2.64886e-10
2.28855e-08
-3.60707e-08
-3.16388e-08
-1.00902e-08
-3.04949e-09
-9.29235e-10
-2.02817e-10
2.28738e-11
3.40875e-11
4.19213e-12
5.50094e-11
2.20211e-10
3.56708e-10
1.74424e-10
-2.13359e-10
2.59483e-08
-7.81868e-10
-3.31166e-08
-1.02035e-08
-2.83854e-09
-9.17255e-10
-2.65576e-10
-1.76507e-11
7.7234e-12
-1.23869e-11
4.39762e-11
1.90054e-10
3.2941e-10
1.94761e-10
1.2042e-11
1.78678e-08
1.83383e-08
-1.14476e-08
-1.25325e-08
-5.00614e-09
-1.4e-09
-3.29377e-10
-4.06076e-11
7.86829e-12
-9.63541e-12
2.17391e-11
1.36308e-10
2.8077e-10
2.18613e-10
1.06663e-10
6.36744e-09
1.9173e-08
5.01324e-09
-1.01298e-08
-7.01888e-09
-2.34678e-09
-5.08761e-10
-4.6421e-11
1.86486e-11
-3.11695e-12
1.24287e-11
1.10206e-10
2.54167e-10
2.12516e-10
1.43746e-10
1.4055e-08
1.77853e-08
8.70022e-09
-8.43318e-09
-7.62651e-09
-2.73373e-09
-6.00662e-10
-8.17861e-11
1.2077e-11
1.47733e-12
1.19399e-11
1.0239e-10
2.42079e-10
2.10057e-10
1.38261e-10
1.42749e-08
1.65522e-08
1.16042e-08
-5.41505e-09
-8.92849e-09
-4.18572e-09
-8.48912e-10
2.74864e-11
5.82436e-11
3.62881e-12
6.46518e-12
9.36158e-11
2.31366e-10
2.10081e-10
1.31509e-10
8.21588e-09
1.08434e-08
1.27718e-08
4.7068e-09
-4.89527e-09
-5.66994e-09
-2.59763e-09
-5.31227e-10
4.51245e-11
5.26111e-11
1.53897e-11
7.37624e-11
2.04986e-10
2.09388e-10
1.22183e-10
)
;
    }
    inlet
    {
        type            calculated;
        value           nonuniform List<scalar> 
15
(
-1299.9
-1300.2
-1299.9
-1299.9
-1300.2
-1299.9
-1299.9
-1300.2
-1299.9
-1299.9
-1300.2
-1299.9
-1299.9
-1300.2
-1299.9
)
;
    }
    inletWalls
    {
        type            calculated;
        value           uniform 0;
    }
    outletInlet
    {
        type            calculated;
        value           nonuniform List<scalar> 
15
(
898.568
1592.79
1416.04
1543.49
1639.03
1785.04
1953.19
2087.45
2086.1
1935
1497.49
865.179
289.914
-270.799
181.246
)
;
    }
}


// ************************************************************************* //
