/*--------------------------------*- C++ -*----------------------------------*\
| =========                 |                                                 |
| \\      /  F ield         | OpenFOAM: The Open Source CFD Toolbox           |
|  \\    /   O peration     | Version:  4.1                                   |
|   \\  /    A nd           | Web:      www.OpenFOAM.org                      |
|    \\/     M anipulation  |                                                 |
\*---------------------------------------------------------------------------*/
FoamFile
{
    version     2.0;
    format      ascii;
    class       volVectorField;
    location    "24";
    object      U;
}
// * * * * * * * * * * * * * * * * * * * * * * * * * * * * * * * * * * * * * //

dimensions      [0 1 -1 0 0 0 0];

internalField   nonuniform List<vector> 
225
(
(4.53074e-13 0.873804 15.8382)
(-3.84839e-13 -4.95033 12.0036)
(-6.94382e-14 -4.18222 12.1624)
(-1.68264e-14 -3.62397 12.0035)
(-2.52143e-15 -3.02362 11.8859)
(-4.64687e-15 -2.57453 11.7042)
(-1.64157e-14 -2.23202 11.4807)
(-3.62271e-14 -1.99133 11.2152)
(-7.25061e-14 -1.82585 10.9215)
(-1.35301e-13 -1.74698 10.5975)
(-2.43968e-13 -1.89046 10.1715)
(-3.33569e-13 -2.3506 9.57515)
(-3.29784e-13 -2.53698 9.05726)
(-1.97896e-14 -1.04504 8.99931)
(1.24654e-12 1.52234 7.10765)
(-2.78797e-12 -5.24041 22.4599)
(2.10017e-12 -14.6458 21.2761)
(7.08614e-13 -13.2495 20.313)
(2.30964e-13 -11.7723 19.4238)
(4.47406e-14 -11.152 18.4143)
(-1.53324e-14 -10.6618 17.4307)
(-2.69154e-14 -10.1025 16.4808)
(-4.3425e-14 -9.54323 15.5272)
(-7.9452e-14 -8.98806 14.5648)
(-2.44359e-13 -8.40497 13.5962)
(2.89794e-13 -7.81285 12.6273)
(1.14908e-12 -7.352 11.6098)
(3.47871e-12 -6.99697 10.3974)
(5.28051e-12 -5.48379 9.08138)
(-1.43724e-11 -2.43909 3.78522)
(1.3274e-11 -7.79051 23.7987)
(-1.45836e-11 -16.5485 24.4471)
(3.33521e-13 -13.8283 23.7156)
(-5.83027e-13 -12.3884 22.5556)
(-5.57834e-14 -11.756 21.1119)
(3.4761e-14 -10.9726 19.822)
(5.79182e-15 -10.1344 18.5908)
(-6.04472e-14 -9.33118 17.3445)
(-1.18648e-13 -8.5566 16.0809)
(5.14939e-14 -7.78174 14.833)
(1.11731e-12 -7.00836 13.637)
(2.62037e-12 -6.29694 12.3852)
(3.34367e-12 -5.58817 10.6715)
(-1.44062e-12 -4.11505 8.00177)
(-1.71584e-11 -1.20463 3.01807)
(4.20689e-11 -8.0683 21.2708)
(-3.91626e-11 -16.9674 23.1669)
(4.06932e-13 -12.9675 23.4355)
(3.14201e-12 -12.0129 21.1246)
(5.10096e-13 -11.509 19.7202)
(-1.72893e-13 -10.688 18.6078)
(-1.992e-13 -9.89409 17.3465)
(-1.5728e-13 -9.14741 16.0227)
(-1.13721e-13 -8.38209 14.7266)
(2.73342e-13 -7.66294 13.4328)
(1.57616e-12 -6.9702 12.2413)
(3.11697e-12 -6.2225 11.0356)
(3.27418e-12 -5.14456 9.26312)
(9.15922e-13 -3.8734 5.46163)
(-2.43e-11 -0.491018 1.89698)
(7.44794e-11 -5.70622 17.0505)
(-4.0581e-11 -15.9523 21.7013)
(-3.06541e-11 -15.9298 23.7142)
(-1.08731e-11 -14.8571 22.1838)
(-1.6617e-12 -13.7505 20.0733)
(6.95891e-13 -12.6377 18.2586)
(6.20523e-13 -11.638 16.873)
(1.66307e-13 -10.7512 15.7675)
(-8.63957e-14 -9.96044 14.5595)
(7.46412e-14 -9.08115 13.4188)
(1.00386e-12 -8.24423 12.2032)
(2.5032e-12 -7.4644 10.8899)
(3.31195e-12 -6.2947 9.50704)
(4.21516e-12 -4.76925 7.01475)
(-1.32777e-11 -2.2427 3.39731)
(1.53067e-10 -1.02972 6.87425)
(-1.27834e-13 -6.77399 4.41992)
(-2.33517e-11 -10.8417 14.9525)
(-1.81826e-11 -14.3662 20.7963)
(-9.34373e-12 -15.7163 21.9328)
(-3.19211e-12 -15.0881 20.9589)
(-3.81425e-13 -13.6552 19.3224)
(3.07671e-13 -12.3576 17.8354)
(1.76778e-13 -11.3558 16.5643)
(3.07361e-14 -10.4129 15.3617)
(4.26818e-13 -9.45496 14.1421)
(1.60194e-12 -8.54244 12.8599)
(2.78978e-12 -7.49949 11.534)
(3.4794e-12 -5.92244 9.85923)
(-5.18781e-12 -3.40445 6.19812)
(1.06005e-10 0.47039 10.2978)
(-3.85851e-10 -2.42923 -0.924732)
(-1.80204e-10 -5.76732 8.5581)
(-6.332e-11 -11.1326 17.361)
(-2.05391e-11 -14.5147 22.4643)
(-6.42504e-12 -15.3619 23.538)
(-1.4866e-12 -14.3063 22.1158)
(1.37419e-13 -12.7236 20.5003)
(3.27106e-13 -11.6559 18.8644)
(9.69672e-14 -10.7765 17.357)
(1.9608e-13 -9.81485 16.1295)
(1.12481e-12 -8.89757 14.8997)
(2.47455e-12 -8.05257 13.4595)
(3.39805e-12 -6.81395 11.748)
(-2.79498e-12 -4.13458 8.48596)
(9.23973e-11 1.55023 12.8834)
(-4.82125e-10 -2.21578 -6.55885)
(-2.62305e-10 -0.260687 3.23582)
(-8.68077e-11 -9.10172 16.0367)
(-2.51388e-11 -13.3139 22.8)
(-7.50963e-12 -14.3941 24.8904)
(-1.77732e-12 -13.628 23.5088)
(1.12025e-13 -12.2086 21.7513)
(3.38859e-13 -11.2456 19.9497)
(7.20454e-14 -10.4584 18.2671)
(2.1156e-13 -9.51121 17.0664)
(1.26061e-12 -8.68908 15.8518)
(2.51628e-12 -8.03093 14.4452)
(1.95657e-12 -6.87132 12.5985)
(-1.83437e-12 -3.42444 7.77808)
(1.58434e-10 2.4827 13.6337)
(-2.49713e-10 -5.12691 0.122165)
(-2.19058e-10 -3.47689 7.40313)
(-6.98535e-11 -9.33954 18.0662)
(-2.11113e-11 -12.783 23.7285)
(-6.43249e-12 -13.8665 24.5617)
(-1.40408e-12 -13.001 23.1584)
(1.58353e-13 -11.7237 21.6569)
(2.35617e-13 -10.9427 19.6037)
(2.90216e-14 -10.1355 18.0073)
(3.80823e-13 -9.44327 16.9728)
(1.52161e-12 -8.89881 15.7101)
(2.46945e-12 -8.18052 14.3139)
(1.20752e-12 -5.66072 11.8344)
(-1.47893e-12 -3.16263 0.0825703)
(1.7966e-10 2.26421 11.1897)
(-5.41278e-12 -4.90975 4.4693)
(-2.29278e-10 -5.09582 5.07106)
(-7.0642e-11 -9.64709 17.8646)
(-1.96509e-11 -13.345 23.1451)
(-6.3504e-12 -14.2813 23.9059)
(-1.83949e-12 -13.4211 22.4766)
(-1.22193e-13 -12.2876 20.9932)
(5.30608e-14 -11.4279 18.935)
(-8.85632e-14 -10.53 17.249)
(3.04442e-13 -9.86338 16.2708)
(1.31753e-12 -9.30461 15.1351)
(2.28001e-12 -9.40806 13.24)
(1.34831e-12 -6.7655 14.4066)
(8.44305e-14 -5.68271 5.51973)
(1.23694e-10 -0.836872 4.59485)
(1.26965e-10 -4.02241 7.05113)
(-7.92536e-11 -4.65927 4.87283)
(-8.67585e-11 -8.79865 14.7177)
(-3.46596e-11 -13.1273 21.4539)
(-9.69352e-12 -14.6666 23.4022)
(-2.28287e-12 -14.0843 22.4666)
(-2.77613e-13 -12.9378 20.932)
(5.2367e-14 -11.8831 18.9886)
(-6.67028e-14 -10.7818 17.187)
(1.55025e-13 -9.96449 15.9516)
(9.40993e-13 -9.06342 14.9781)
(1.94368e-12 -9.33735 12.8343)
(1.50668e-12 -7.70138 15.6795)
(7.36661e-13 -6.88936 9.738)
(4.4081e-11 -2.37522 -1.48003)
(1.32734e-10 -3.21366 6.72457)
(3.47084e-11 -4.56948 6.66773)
(-7.01276e-11 -7.37307 12.4039)
(-4.85905e-11 -12.0944 19.7016)
(-1.62494e-11 -14.1897 23.2156)
(-3.52209e-12 -13.9034 23.2097)
(-3.20307e-13 -12.9815 21.4985)
(1.28334e-13 -11.7735 19.5638)
(-2.15783e-14 -10.5886 17.6978)
(8.60423e-14 -9.75645 16.2744)
(7.6097e-13 -8.69785 15.355)
(1.76077e-12 -9.01836 13.298)
(1.47019e-12 -7.6445 16.5357)
(9.9873e-13 -7.49579 9.90099)
(9.73057e-11 -2.2855 0.948135)
(1.23124e-10 0.914042 5.05857)
(6.02318e-11 -4.15719 6.41995)
(-5.839e-11 -9.19087 12.7078)
(-5.27974e-11 -10.7724 20.5079)
(-1.89253e-11 -13.7903 23.0156)
(-4.15915e-12 -14.296 22.7687)
(-5.68423e-13 -12.6669 22.1927)
(8.31975e-14 -11.8265 20.1641)
(1.02286e-14 -10.7216 18.2836)
(8.31601e-14 -9.93536 16.8166)
(7.083e-13 -8.84657 15.9427)
(1.67608e-12 -9.30834 14.0665)
(1.45471e-12 -7.96952 17.2182)
(9.56347e-13 -7.41853 9.67231)
(9.88215e-11 -1.72444 4.30861)
(1.14597e-10 -2.08564 4.21039)
(8.03296e-11 -4.00061 7.0627)
(-3.74933e-11 -8.85852 12.3364)
(-6.18165e-11 -11.0395 19.6152)
(-2.89764e-11 -13.882 22.8564)
(-5.87643e-12 -14.6599 22.9432)
(1.89974e-13 -13.2906 22.452)
(4.03201e-13 -12.4549 20.5541)
(2.55248e-14 -11.2847 18.7022)
(4.43115e-14 -10.4445 17.2132)
(6.48072e-13 -9.29827 16.3782)
(1.60195e-12 -9.807 14.6476)
(1.45424e-12 -8.36442 17.6563)
(9.10393e-13 -7.47337 9.62446)
(5.68768e-11 0.0486133 1.57007)
(7.50668e-11 -0.921447 -3.39116)
(8.84283e-11 -1.22342 2.17568)
(3.25846e-11 -5.85411 8.84574)
(-3.38895e-11 -10.3513 16.4872)
(-3.92567e-11 -13.6186 21.8165)
(-1.79831e-11 -15.0245 23.7294)
(-3.67777e-12 -14.4751 23.749)
(3.12593e-13 -13.6395 22.2217)
(3.6422e-13 -12.4022 20.3572)
(1.06438e-13 -11.4332 18.6789)
(5.10821e-13 -10.1831 17.6588)
(1.41909e-12 -10.4969 16.1279)
(1.44951e-12 -9.20507 18.1476)
(8.46059e-13 -7.23328 10.2891)
)
;

boundaryField
{
    inletFace
    {
        type            zeroGradient;
    }
    inlet
    {
        type            fixedValue;
        value           uniform (0 8.7 15);
    }
    inletWalls
    {
        type            noSlip;
    }
    outletInlet
    {
        type            zeroGradient;
    }
}


// ************************************************************************* //
