/*--------------------------------*- C++ -*----------------------------------*\
| =========                 |                                                 |
| \\      /  F ield         | OpenFOAM: The Open Source CFD Toolbox           |
|  \\    /   O peration     | Version:  4.1                                   |
|   \\  /    A nd           | Web:      www.OpenFOAM.org                      |
|    \\/     M anipulation  |                                                 |
\*---------------------------------------------------------------------------*/
FoamFile
{
    version     2.0;
    format      ascii;
    class       volVectorField;
    location    "17";
    object      U;
}
// * * * * * * * * * * * * * * * * * * * * * * * * * * * * * * * * * * * * * //

dimensions      [0 1 -1 0 0 0 0];

internalField   nonuniform List<vector> 
6785
(
(1.21782e-14 -2.0325 16.4605)
(1.09339e-14 -7.71 12.9311)
(-2.97657e-15 -5.0738 13.6534)
(3.58847e-15 -4.89807 13.223)
(8.65657e-16 -4.14074 13.0725)
(-1.66633e-16 -3.68073 12.8)
(2.48756e-15 -3.24904 12.517)
(5.63501e-16 -2.9262 12.1968)
(-7.65719e-16 -2.6995 11.8592)
(1.38884e-15 -2.59332 11.5231)
(1.75997e-16 -2.57487 11.2645)
(-5.34142e-16 -2.70207 11.0856)
(6.29338e-16 -3.30533 10.6088)
(-1.19184e-16 -3.34177 9.62882)
(-1.96964e-16 0.0315694 7.55905)
(1.79415e-14 -9.87221 26.9283)
(1.32205e-14 -16.4741 23.1897)
(-2.9885e-15 -11.3141 23.5755)
(4.18375e-15 -12.0557 21.8099)
(8.15544e-16 -10.4574 20.9346)
(8.12034e-16 -9.80169 19.7431)
(1.8632e-15 -8.87262 18.6567)
(2.05507e-16 -8.10261 17.5392)
(-1.11112e-16 -7.35938 16.4609)
(4.8562e-16 -6.68897 15.3934)
(-2.10155e-16 -5.94759 14.1565)
(-5.45716e-16 -4.83316 12.1707)
(-5.22963e-16 -3.0064 8.48305)
(-6.55055e-16 -0.386565 2.88317)
(-5.55714e-16 1.32805 -1.98896)
(2.02548e-14 -12.3856 28.34)
(1.20815e-14 -17.2489 24.9794)
(-2.31844e-15 -12.0126 25.1033)
(4.72609e-15 -13.3575 22.518)
(8.7347e-16 -11.2073 21.525)
(1.51925e-15 -10.841 19.7759)
(2.30466e-15 -9.76593 18.41)
(2.49153e-16 -9.08063 16.9273)
(4.84744e-16 -8.31896 15.5639)
(1.54697e-15 -7.65413 14.2012)
(-3.54972e-17 -6.87776 12.6498)
(-1.23518e-16 -5.57001 10.2453)
(1.68617e-15 -2.99398 5.67824)
(3.85944e-16 4.60659 -5.21554)
(-1.6252e-15 1.76019 -6.41754)
(2.09341e-14 -12.809 27.1922)
(1.25981e-14 -17.1629 24.8944)
(-1.71284e-15 -12.2967 24.4622)
(4.65174e-15 -13.8853 21.464)
(1.18146e-15 -11.5672 20.5)
(1.82147e-15 -11.4279 18.4587)
(2.74641e-15 -10.3463 16.97)
(4.67338e-16 -9.71908 15.3654)
(5.7919e-16 -9.06185 13.9673)
(1.59215e-15 -8.48182 12.6541)
(1.32234e-16 -7.87586 11.2462)
(-3.8978e-16 -6.9467 9.52101)
(4.75797e-16 -5.58608 6.9391)
(-3.61828e-16 -3.05266 3.63366)
(-1.84729e-15 -0.849359 -0.441864)
(2.08871e-14 -12.6717 26.1195)
(1.22144e-14 -16.5891 24.479)
(-2.07805e-15 -12.0355 23.783)
(4.05414e-15 -13.532 20.6257)
(2.1489e-16 -10.9009 19.7539)
(1.46513e-15 -10.9037 17.4447)
(1.72035e-15 -9.46679 16.0127)
(-1.25299e-15 -8.85881 14.3263)
(-1.57887e-16 -8.10517 12.9711)
(1.93888e-17 -7.61407 11.6581)
(-2.2213e-15 -7.19714 10.4414)
(-1.60625e-15 -6.71748 9.32723)
(-5.24414e-16 -6.07163 8.15378)
(-3.61906e-15 -4.79901 6.63965)
(-5.71371e-15 -2.70355 3.35143)
(2.17056e-14 -13.0787 26.0819)
(1.00136e-14 -15.7762 24.342)
(-8.50516e-16 -11.9902 23.6399)
(2.95983e-15 -12.8387 20.8009)
(5.06029e-16 -10.3471 19.872)
(1.80246e-15 -10.1337 17.7607)
(-1.43486e-16 -8.4369 16.2756)
(-5.89098e-17 -7.18137 13.765)
(1.74197e-15 -5.33852 10.8929)
(1.40555e-15 -4.18221 8.41845)
(8.85742e-16 -4.03754 7.62928)
(-1.44747e-16 -4.92379 8.4234)
(-2.29909e-15 -5.9937 9.75599)
(-4.12584e-15 -6.62796 10.3051)
(-3.2424e-15 -4.84029 8.57334)
(2.19733e-14 -14.0807 27.4286)
(7.93912e-15 -16.2146 25.733)
(-5.6661e-16 -12.7338 24.8817)
(2.10557e-15 -13.2654 22.5328)
(1.85497e-16 -11.0418 21.6472)
(7.34064e-16 -10.77 19.8949)
(-1.15907e-15 -9.07055 18.4797)
(-3.53431e-16 -7.45692 15.5619)
(1.39534e-15 -4.72479 11.6911)
(1.97791e-15 -2.26878 7.71414)
(5.91466e-16 -0.384442 4.8044)
(-1.6963e-15 0.214666 3.47207)
(-4.16892e-15 -1.04533 4.66246)
(-5.32133e-15 -3.52991 7.50972)
(-2.59514e-15 -3.67993 7.92078)
(2.10795e-14 -14.1456 26.9308)
(9.79516e-15 -18.0068 28.5304)
(-4.67567e-16 -14.0214 26.4277)
(1.82946e-15 -14.5204 24.0122)
(-1.93529e-16 -12.4496 23.1371)
(4.17368e-16 -12.4201 21.4)
(-1.10093e-15 -10.9919 20.2055)
(-1.04443e-15 -9.93867 17.8114)
(3.59301e-16 -7.65986 14.5873)
(1.62398e-15 -5.23171 10.6807)
(8.72929e-16 -2.63522 6.86302)
(1.21522e-15 -0.115252 2.79447)
(9.90623e-16 2.34152 -1.02175)
(1.36536e-15 2.95799 -2.47813)
(1.71739e-15 0.960358 -0.910919)
(1.89888e-14 -12.7267 23.4254)
(1.36771e-14 -18.6679 29.6737)
(2.27314e-15 -15.2879 27.103)
(1.50088e-15 -14.9383 24.037)
(2.93723e-16 -13.2948 22.6748)
(1.21723e-15 -13.0139 20.8894)
(2.04312e-16 -12.0317 19.5169)
(-2.67723e-16 -11.3055 17.6887)
(5.55827e-16 -10.0857 15.5559)
(8.1692e-16 -8.60483 13.0183)
(7.82559e-16 -6.82864 10.2445)
(2.44337e-15 -4.72889 7.17154)
(1.90431e-15 -2.34068 3.63065)
(2.14799e-15 1.30182 -0.380312)
(2.92872e-15 1.68485 -5.2379)
(1.746e-14 -10.8743 19.4215)
(1.63734e-14 -17.888 28.9626)
(4.77173e-15 -15.4642 26.7749)
(1.73405e-15 -14.3644 23.1838)
(8.76953e-16 -12.838 21.3448)
(1.4707e-15 -12.2505 19.4979)
(1.20516e-15 -11.3522 17.9639)
(7.86513e-16 -10.5872 16.2845)
(1.10179e-15 -9.69866 14.5548)
(9.09146e-16 -8.6873 12.7208)
(1.00168e-15 -7.55494 10.7386)
(1.62835e-15 -6.14674 8.59967)
(7.8151e-16 -4.59065 6.02793)
(2.09439e-15 -2.05319 2.94339)
(-1.42828e-15 0.143673 -2.53663)
(1.59107e-14 -9.69952 17.1699)
(1.76116e-14 -16.9644 28.1141)
(5.70573e-15 -15.1244 26.2457)
(1.63098e-15 -13.6789 22.499)
(1.42566e-15 -12.157 20.4645)
(9.18632e-16 -11.451 18.6378)
(1.13329e-15 -10.5506 17.1135)
(1.51071e-15 -9.75779 15.5343)
(3.66295e-17 -8.93134 13.9935)
(2.80271e-16 -8.07266 12.4759)
(1.51521e-15 -7.20122 10.9141)
(-2.15658e-16 -6.15721 9.28728)
(-7.30082e-16 -5.03633 7.34965)
(-1.84563e-15 -3.24145 4.92922)
(-7.58327e-15 -0.805863 -0.200365)
(1.52769e-14 -9.20304 16.2628)
(1.85716e-14 -16.1868 27.2829)
(5.28448e-15 -14.7759 25.6296)
(1.1904e-15 -13.2224 21.9116)
(2.10539e-15 -11.6657 19.685)
(-1.24832e-16 -10.8944 17.8896)
(1.70516e-16 -10.0358 16.4591)
(1.88753e-15 -9.29004 15.0318)
(-2.57718e-16 -8.53325 13.6597)
(-1.09668e-15 -7.77877 12.3262)
(-2.2488e-17 -7.05518 10.9895)
(-2.20044e-15 -6.24827 9.68274)
(-1.58535e-15 -5.45622 8.26058)
(-4.01057e-15 -4.15833 6.62814)
(-8.51327e-15 -1.67155 1.89689)
(1.41225e-14 -9.46197 16.62)
(1.84627e-14 -15.5666 26.3472)
(4.16703e-15 -14.1585 24.5263)
(7.75535e-17 -12.9356 21.4074)
(3.23868e-15 -11.7043 19.4893)
(-4.31491e-16 -11.1041 17.8184)
(-3.09818e-15 -10.4067 16.4342)
(3.09635e-15 -9.79149 15.0423)
(1.38385e-15 -9.12448 13.6434)
(-2.46738e-15 -8.40697 12.2491)
(-1.53015e-15 -7.68753 10.963)
(-2.9292e-15 -7.02088 9.99785)
(-3.60455e-15 -6.50159 9.38772)
(-4.10424e-15 -5.73843 8.82788)
(-9.72695e-15 -3.52158 5.27182)
(1.08949e-14 -8.916 14.8804)
(1.84602e-14 -15.4579 25.4677)
(2.32227e-15 -13.9682 23.3825)
(-3.48685e-15 -11.6286 19.0485)
(1.5948e-15 -9.67786 16.5081)
(-2.88394e-15 -8.75572 14.8129)
(-1.30274e-15 -7.82784 13.6349)
(3.96927e-15 -7.26111 12.5098)
(6.6116e-17 -6.87882 11.8071)
(-2.57805e-15 -6.86779 11.4888)
(-3.09706e-15 -7.0628 11.5479)
(-4.43545e-15 -7.42996 11.9262)
(-4.57045e-15 -7.7177 12.4569)
(-6.2201e-15 -7.53047 12.415)
(-1.07208e-14 -5.22534 9.0316)
(4.41096e-15 -6.77948 11.9115)
(1.41564e-14 -15.4449 23.8597)
(9.57063e-15 -18.1507 26.4437)
(2.84476e-15 -18.1158 24.9715)
(1.10087e-15 -16.7742 22.8312)
(-8.87396e-16 -15.3259 20.4005)
(-8.29335e-16 -13.399 17.7023)
(9.72485e-16 -11.3237 14.9278)
(8.08388e-16 -9.19087 12.1725)
(-1.29334e-16 -7.2703 9.7271)
(-2.69872e-15 -5.88297 8.27075)
(-4.41636e-15 -5.71809 8.65171)
(-6.16857e-15 -6.57888 10.7976)
(-1.05195e-14 -7.3483 12.0069)
(-1.13497e-14 -4.19116 7.89149)
(-5.90793e-18 15.0959 66.7124)
(-1.79176e-16 0.194802 7.85319)
(-1.17262e-16 -0.741807 -3.64846)
(-9.32029e-17 -0.478961 -2.46141)
(-8.26653e-17 -0.302314 -2.90255)
(-1.13526e-16 0.435804 -3.83512)
(-1.07742e-16 0.105171 -2.61217)
(-8.08061e-17 0.398922 -2.54364)
(-2.34483e-16 0.560498 -2.33249)
(1.28537e-15 1.06486 -3.11796)
(9.84346e-16 0.886034 -2.16508)
(9.4262e-16 1.0811 -1.9621)
(1.04771e-15 1.60357 -2.46591)
(7.9338e-16 1.32081 -1.61928)
(7.65876e-16 1.56097 -1.51962)
(7.02947e-16 1.56977 -1.38229)
(6.86523e-16 2.02369 -1.63365)
(6.10945e-16 1.72574 -1.03333)
(5.45846e-16 1.85806 -0.93637)
(6.12938e-16 2.36132 -1.03608)
(4.19941e-16 1.87667 -0.654387)
(3.38735e-16 2.10465 -0.623927)
(3.96411e-16 2.02725 -0.618045)
(4.81249e-16 2.51376 -0.630996)
(3.15469e-16 1.99146 -0.423326)
(3.02028e-16 2.20649 -0.422894)
(1.12595e-16 2.12667 -0.457476)
(9.7662e-17 2.52675 -0.4184)
(-1.61045e-16 2.03743 -0.306921)
(-2.54016e-16 2.14695 -0.34803)
(-4.12775e-16 2.54331 -0.230101)
(-5.83721e-16 1.93385 -0.210145)
(-6.46293e-16 2.12529 -0.233865)
(-8.25998e-16 2.05612 -0.293756)
(-1.25358e-15 2.35282 -0.14038)
(-1.10285e-15 1.83323 -0.159985)
(-1.12116e-15 1.94239 -0.222043)
(-1.65597e-15 2.21356 -0.0086828)
(-1.35346e-15 1.63291 -0.0906469)
(-1.45844e-15 1.78726 -0.120379)
(-1.33528e-15 1.73767 -0.186698)
(-1.94544e-15 1.93838 0.0390189)
(-1.53786e-15 1.4348 -0.0666707)
(-1.59095e-15 1.57191 -0.0973648)
(-1.58063e-15 1.5331 -0.160776)
(-2.24259e-15 1.70363 0.0562133)
(-1.91241e-15 1.33439 0.0170219)
(-1.81532e-15 1.4171 -0.0454548)
(-2.60133e-15 1.58356 0.211491)
(-1.72394e-15 1.24882 0.157302)
(-1.67659e-15 1.33155 0.136464)
(-1.55939e-15 1.30179 0.0774347)
(-2.04476e-15 1.32749 0.411405)
(-1.39505e-15 0.990945 0.236012)
(-1.32907e-15 1.0399 0.22022)
(-9.22838e-16 1.03541 0.197303)
(-9.52469e-16 0.928385 0.325444)
(-3.28676e-16 0.53289 -0.0444767)
(-5.00299e-16 0.564216 0.0411261)
(-8.60475e-17 0.823947 -0.982554)
(3.48731e-16 -0.253482 -1.30984)
(5.55303e-16 -0.0853568 -1.30187)
(8.43209e-16 0.397795 -1.17253)
(3.542e-16 0.152028 -1.85013)
(-1.83443e-15 -0.939619 0.47018)
(-1.33236e-15 -0.504596 0.445001)
(-1.96231e-15 -1.44376 2.88881)
(-1.51226e-15 -2.05598 3.72956)
(-1.49676e-15 -2.27457 3.74617)
(-1.59198e-15 -2.24735 4.06639)
(-2.11474e-15 -3.77795 7.25549)
(-1.57799e-15 -4.15859 6.44463)
(-1.63316e-15 -4.71875 6.65179)
(-1.58886e-15 -4.65389 6.89965)
(-1.67258e-15 -7.126 10.6988)
(-7.38347e-16 -7.08548 8.42929)
(-5.22601e-16 -7.19891 8.80961)
(1.45643e-16 -10.0629 12.6073)
(4.59039e-16 -9.68255 9.49084)
(4.35566e-16 -10.0697 10.2399)
(-7.47423e-16 -10.798 12.5736)
(-5.95232e-16 -10.6329 12.472)
(-5.6723e-16 -10.7325 12.8089)
(2.01075e-15 -12.2402 14.4741)
(2.21876e-16 -11.305 13.2284)
(2.52578e-16 -11.5261 13.8993)
(2.20106e-16 -11.4358 14.102)
(2.01885e-16 -11.492 14.3172)
(1.53026e-16 -11.4865 14.5801)
(1.64813e-16 -11.5365 14.8482)
(4.59959e-16 -11.5889 15.0423)
(9.01037e-16 -11.5699 15.1935)
(2.43972e-15 -12.522 16.5377)
(1.29282e-15 -11.934 15.6152)
(1.39729e-15 -12.0391 15.9583)
(1.53012e-15 -12.0594 16.0587)
(1.90997e-15 -12.1056 15.8699)
(1.83446e-15 -12.1823 16.0214)
(1.82646e-15 -12.2515 16.1927)
(1.74292e-15 -12.3628 16.415)
(1.70349e-15 -12.3785 16.7242)
(3.23032e-15 -13.2611 18.4286)
(2.65441e-15 -12.5693 17.1038)
(2.71465e-15 -12.7236 17.4022)
(2.70247e-15 -12.7575 17.572)
(2.74511e-15 -12.8527 17.8122)
(2.95624e-15 -12.9151 18.0734)
(3.22165e-15 -13.0287 18.2745)
(3.15251e-15 -13.0657 18.2494)
(3.1055e-15 -13.1983 18.2805)
(3.02864e-15 -13.2178 18.337)
(3.45565e-15 -13.4711 19.321)
(3.06364e-15 -12.9495 18.5476)
(3.16204e-15 -13.0387 18.5972)
(3.23519e-15 -13.0751 18.6129)
(3.32717e-15 -13.1631 18.664)
(3.41756e-15 -13.1725 18.7521)
(3.55534e-15 -13.2774 19.0729)
(3.73055e-15 -13.3033 19.1344)
(3.89783e-15 -13.3678 19.1538)
(4.62148e-15 -12.5472 18.709)
(4.27113e-15 -12.46 18.9948)
(4.46206e-15 -12.4182 19.3819)
(4.45793e-15 -12.4927 19.6934)
(4.6019e-15 -12.4413 19.6215)
(4.70569e-15 -12.4959 19.5653)
(4.77684e-15 -12.4993 19.3816)
(4.7799e-15 -12.4457 19.1846)
(4.71807e-15 -12.6102 19.2351)
(5.55311e-15 -10.3782 16.2601)
(4.93363e-15 -11.0592 17.8002)
(5.07827e-15 -10.9151 17.398)
(5.24417e-15 -10.9307 17.3166)
(5.61505e-15 -10.8877 17.376)
(5.84685e-15 -10.8457 17.2585)
(6.11567e-15 -10.7533 17.1096)
(6.45678e-15 -10.6874 16.9923)
(6.81286e-15 -10.733 16.8076)
(7.88152e-15 -8.04827 13.6797)
(7.54788e-15 -8.94723 16.3018)
(7.60185e-15 -8.65523 15.7576)
(7.45387e-15 -8.70863 15.291)
(7.15943e-15 -8.56643 14.5041)
(6.80641e-15 -8.51694 13.585)
(7.04834e-15 -8.35522 12.6605)
(6.0688e-15 -8.19193 11.4433)
(5.29878e-15 -7.92471 10.0358)
(4.4826e-15 -7.73339 8.61423)
(2.01463e-15 -4.58789 2.08039)
(3.45597e-15 -6.10784 6.13147)
(2.70767e-15 -5.56636 4.53922)
(2.2458e-15 -5.64281 4.15757)
(1.73778e-15 -5.2778 3.47179)
(1.31987e-15 -5.179 2.9076)
(5.05166e-16 -4.98431 1.74448)
(-2.63457e-16 -4.63101 0.669906)
(3.95377e-17 -4.59673 0.973281)
(-7.02015e-16 -3.84875 -1.49076)
(-1.36382e-16 -4.01819 0.517614)
(-7.89802e-17 -3.90774 0.00736748)
(-7.2225e-16 -2.74332 -2.31434)
(-8.02087e-16 -4.4829 -1.6695)
(-8.4452e-16 -3.40534 -1.50009)
(-6.94437e-16 -3.0768 -1.05683)
(-9.2256e-16 -3.8551 -1.47727)
(-6.68575e-16 -2.61419 -0.938292)
(-1.00081e-15 -3.34472 -1.39833)
(-7.47748e-16 -2.98771 -1.07878)
(-6.2345e-16 -2.41605 -0.811045)
(-9.05178e-16 -2.885 -1.19982)
(-8.2088e-16 -2.60344 -0.94458)
(-7.15908e-16 -2.18475 -0.707075)
(-9.9682e-16 -2.84985 -0.998118)
(-7.76893e-16 -1.88882 -0.658795)
(-1.0784e-15 -2.45379 -1.00138)
(-7.01495e-16 -2.10067 -0.801055)
(-6.35567e-16 -1.79573 -0.606499)
(-8.59898e-16 -2.34668 -0.862994)
(-5.27892e-16 -1.52862 -0.576683)
(-8.33233e-16 -2.01901 -0.880989)
(-7.63572e-16 -1.78014 -0.722079)
(-6.76846e-16 -1.41648 -0.554011)
(-1.01e-15 -1.72289 -0.838541)
(-9.25273e-16 -1.5351 -0.68364)
(-6.69442e-16 -1.26565 -0.517798)
(-9.49053e-16 -1.69515 -0.738741)
(-6.86986e-16 -1.06114 -0.495894)
(-9.69251e-16 -1.4353 -0.762149)
(-5.71737e-16 -1.18515 -0.616003)
(-5.49173e-16 -0.991296 -0.466683)
(-7.33035e-16 -1.3441 -0.666254)
(-5.66352e-16 -0.798966 -0.446384)
(-7.62414e-16 -1.12925 -0.688626)
(-6.20155e-16 -0.941722 -0.560945)
(-3.95768e-16 -0.708984 -0.427529)
(-5.979e-16 -0.918258 -0.648687)
(-4.76579e-16 -0.762377 -0.523399)
(-1.31734e-16 -0.59033 -0.390559)
(-2.18718e-16 -0.877133 -0.554445)
(-1.75997e-16 -0.433033 -0.368214)
(-3.82755e-16 -0.716265 -0.570454)
(-4.74467e-16 -0.493712 -0.45941)
(-7.06637e-16 -0.373415 -0.341049)
(-8.41312e-16 -0.635594 -0.485804)
(-4.40614e-16 -0.211189 -0.323418)
(-8.66999e-16 -0.517013 -0.510925)
(-8.16431e-16 -0.309217 -0.428131)
(-2.88318e-17 -0.115408 -0.320407)
(-2.09309e-16 -0.390425 -0.49958)
(-2.64585e-16 -0.144024 -0.422841)
(-4.03353e-16 0.0213573 -0.291443)
(-9.45694e-16 -0.646869 -0.39618)
(-2.83501e-15 0.429719 -0.206357)
(-4.23371e-15 -0.344202 -0.393385)
(-3.92445e-15 -0.5563 -0.466816)
(-1.3854e-15 0.514838 -0.320368)
(-3.19839e-15 -0.347453 -0.394663)
(-2.59463e-15 0.239754 -0.238249)
(-2.04726e-15 0.250215 -0.220734)
(-9.359e-16 0.0379836 -0.276199)
(-6.06891e-18 0.311035 -0.218885)
(-6.22061e-16 0.275081 -0.265054)
(-3.18675e-16 0.149712 -0.325504)
(-3.50216e-16 0.408842 -0.219303)
(4.79437e-16 0.260541 -0.28603)
(1.09398e-15 0.411951 -0.203633)
(2.10333e-15 0.436793 -0.218198)
(2.44339e-15 0.385102 -0.238717)
(1.41967e-15 0.507221 -0.138708)
(1.06651e-15 0.472979 -0.183798)
(1.64769e-16 0.53635 -0.122901)
(-6.81965e-16 0.572812 -0.154206)
(-7.6103e-16 0.569158 -0.227031)
(-3.96704e-16 0.627823 -0.154838)
(-2.04953e-16 0.690285 -0.180914)
(1.08692e-17 0.66579 -0.299956)
(1.09714e-16 0.749223 -0.203173)
(4.02452e-16 0.791139 -0.393082)
(5.22186e-16 0.824504 -0.305054)
(9.06959e-16 0.925273 -0.463322)
(-1.34048e-28 0.816283 1.03867)
(-4.22671e-28 0.918894 1.04218)
(-7.30345e-28 0.97255 1.05118)
(-5.44522e-28 1.03003 1.06118)
(1.62683e-27 1.08195 1.07434)
(7.33341e-27 1.13155 1.08934)
(1.62234e-26 1.17841 1.10656)
(5.68545e-26 1.22351 1.12572)
(4.51085e-25 1.26682 1.14682)
(2.93329e-24 1.30896 1.16983)
(1.31956e-23 1.35022 1.19477)
(3.96126e-23 1.39122 1.22173)
(5.2522e-23 1.43244 1.25079)
(-2.23971e-22 1.47442 1.28207)
(-1.96785e-21 1.51754 1.31568)
(-8.50754e-21 1.56214 1.35173)
(-2.53158e-20 1.60844 1.39029)
(-4.86834e-20 1.65657 1.43142)
(-1.02381e-20 1.70644 1.47516)
(4.01918e-19 1.75771 1.52173)
(2.19066e-18 1.80957 1.57182)
(7.95283e-18 1.86053 1.62747)
(2.33358e-17 1.90813 1.69313)
(5.87872e-17 1.9488 1.77692)
(1.30683e-16 1.97806 1.89091)
(2.60311e-16 1.99118 2.04955)
(4.69359e-16 1.9845 2.26553)
(7.7214e-16 1.95673 2.54455)
(1.16721e-15 1.90997 2.88115)
(1.63247e-15 1.85001 3.25755)
(2.12699e-15 1.78577 3.64592)
(2.59947e-15 1.72753 4.01358)
(2.99991e-15 1.68423 4.33025)
(3.28957e-15 1.66085 4.57519)
(3.44583e-15 1.65742 4.74049)
(3.46191e-15 1.66995 4.8293)
(3.34384e-15 1.69225 4.8509)
(3.10688e-15 1.71746 4.81601)
(2.77258e-15 1.73847 4.73384)
(2.36629e-15 1.74731 4.61091)
(1.91167e-15 1.73613 4.45199)
(1.41136e-15 1.70417 4.26634)
(8.27044e-16 1.65275 4.06959)
(2.12947e-16 1.46802 3.81689)
(1.62693e-16 0.718948 3.24585)
(1.22998e-15 -0.627047 2.39542)
(1.85152e-15 -1.44727 2.16592)
(2.33819e-15 -1.88151 2.00334)
(2.75405e-15 -2.25202 1.83365)
(3.07529e-15 -2.64181 1.66634)
(3.28236e-15 -3.04486 1.49493)
(3.35589e-15 -3.44809 1.31858)
(3.28415e-15 -3.85023 1.1463)
(3.07335e-15 -4.24205 0.968479)
(2.74308e-15 -4.61392 0.790596)
(2.32053e-15 -4.94204 0.600864)
(1.85723e-15 -5.20905 0.416075)
(1.37771e-15 -5.39844 0.23242)
(9.07073e-16 -5.5049 0.0695591)
(4.81894e-16 -5.49948 -0.0788067)
(1.88371e-16 -5.35795 -0.188375)
(4.6403e-17 -5.1726 -0.256612)
(4.67092e-18 -4.98435 -0.297524)
(-9.14636e-19 -4.79686 -0.316682)
(-3.82021e-19 -4.60476 -0.327337)
(-4.27016e-20 -4.38071 -0.331919)
(3.80911e-21 -4.10169 -0.3371)
(1.74192e-21 -3.78923 -0.338779)
(1.60754e-22 -3.39427 -0.347913)
(-3.14836e-23 -2.96686 -0.346162)
(-3.29176e-23 -2.37346 -0.357111)
(1.67755e-23 -1.83337 -0.341715)
(-1.01241e-22 -0.786326 -0.356244)
(1.41254e-21 0.344734 -0.372252)
(-1.05057e-20 1.47448 -0.425246)
(8.25215e-20 1.99307 -0.0695616)
(-2.89655e-19 2.24406 -0.418169)
(7.40373e-19 2.66451 0.219938)
(8.80233e-19 -4.02993 -0.40638)
(-4.26724e-28 0.815927 1.09216)
(-1.18336e-27 0.917057 1.09382)
(-1.49645e-27 0.969606 1.1029)
(9.49915e-28 1.02642 1.11293)
(1.16099e-26 1.07751 1.12653)
(3.71825e-26 1.12646 1.14218)
(9.39164e-26 1.17264 1.16022)
(3.57759e-25 1.21711 1.18038)
(1.99805e-24 1.25979 1.2026)
(9.71273e-24 1.30132 1.22692)
(3.38497e-23 1.34193 1.25335)
(6.67799e-23 1.38227 1.28203)
(-7.77833e-23 1.42279 1.31305)
(-1.36359e-21 1.46404 1.34653)
(-6.9561e-21 1.50639 1.38258)
(-2.35212e-20 1.55019 1.42127)
(-5.43589e-20 1.59568 1.46268)
(-5.39553e-20 1.64298 1.50688)
(2.3732e-19 1.69196 1.55406)
(1.74198e-18 1.74216 1.60493)
(7.01457e-18 1.79243 1.66158)
(2.19084e-17 1.84059 1.72879)
(5.77293e-17 1.88312 1.81567)
(1.32843e-16 1.91519 1.93626)
(2.71781e-16 1.93135 2.10772)
(4.9988e-16 1.92705 2.34513)
(8.33461e-16 1.90038 2.65426)
(1.26906e-15 1.85334 3.02622)
(1.77753e-15 1.79197 3.43715)
(2.30733e-15 1.72556 3.853)
(2.79653e-15 1.66505 4.2371)
(3.18835e-15 1.62058 4.55813)
(3.44329e-15 1.59863 4.79678)
(3.54359e-15 1.60034 4.94839)
(3.49073e-15 1.62195 5.02017)
(3.2998e-15 1.65697 5.02518)
(2.99421e-15 1.69831 4.97668)
(2.60165e-15 1.73935 4.88541)
(2.1507e-15 1.77371 4.75915)
(1.66765e-15 1.79419 4.60302)
(1.17181e-15 1.79254 4.42036)
(6.57889e-16 1.76605 4.21805)
(6.26622e-17 1.72376 4.01451)
(-6.30389e-16 1.59524 3.79316)
(-7.51429e-16 0.945941 3.28849)
(1.02528e-15 -0.578838 2.25361)
(1.9816e-15 -1.46704 2.05825)
(2.39443e-15 -1.87705 1.9866)
(2.78265e-15 -2.24596 1.81201)
(3.09233e-15 -2.6368 1.64369)
(3.28938e-15 -3.03887 1.47692)
(3.35566e-15 -3.44166 1.30505)
(3.27958e-15 -3.8424 1.13724)
(3.06677e-15 -4.23097 0.964225)
(2.7362e-15 -4.5977 0.790334)
(2.31484e-15 -4.92055 0.604112)
(1.85324e-15 -5.18336 0.422078)
(1.37545e-15 -5.37017 0.240512)
(9.06386e-16 -5.47562 0.0788519)
(4.82293e-16 -5.47145 -0.0690301)
(1.89082e-16 -5.33453 -0.179007)
(4.67856e-17 -5.15291 -0.248487)
(4.72145e-18 -4.96663 -0.290959)
(-9.45464e-19 -4.77957 -0.311845)
(-3.96159e-19 -4.58678 -0.324209)
(-4.43986e-20 -4.36165 -0.330434)
(4.12436e-21 -4.08166 -0.337278)
(1.87151e-21 -3.76807 -0.340715)
(1.72768e-22 -3.37317 -0.351839)
(-3.39216e-23 -2.94604 -0.352528)
(-3.38441e-23 -2.35477 -0.36607)
(1.63949e-23 -1.81531 -0.3552)
(-1.09069e-22 -0.764276 -0.374995)
(1.62344e-21 0.321098 -0.406981)
(-1.06943e-20 1.42643 -0.437287)
(7.95119e-20 1.99106 -0.052472)
(-2.77934e-19 2.20084 -0.408238)
(7.18765e-19 2.66009 0.200047)
(-1.03132e-18 -3.92339 -0.396417)
(-9.74986e-28 0.815918 1.12143)
(-2.13998e-27 0.916327 1.12242)
(-9.65459e-28 0.968177 1.13153)
(9.03033e-27 1.02464 1.14165)
(4.07077e-26 1.07529 1.15555)
(1.11935e-25 1.12389 1.17162)
(2.95894e-25 1.16972 1.19016)
(1.14523e-24 1.21388 1.21092)
(5.40616e-24 1.25624 1.23382)
(2.11929e-23 1.29743 1.25891)
(5.44134e-23 1.3377 1.28624)
(2.03945e-23 1.37767 1.31595)
(-6.57489e-22 1.41782 1.34814)
(-4.21087e-21 1.45866 1.38293)
(-1.63936e-20 1.5006 1.4204)
(-4.46063e-20 1.54399 1.46064)
(-7.13371e-20 1.58906 1.50373)
(6.0805e-20 1.63588 1.54983)
(9.96348e-19 1.68427 1.59951)
(4.68577e-18 1.73349 1.6544)
(1.59212e-17 1.78191 1.71857)
(4.45425e-17 1.82656 1.80021)
(1.07481e-16 1.86305 1.91277)
(2.28706e-16 1.886 2.0738)
(4.34714e-16 1.89049 2.30002)
(7.44864e-16 1.8739 2.59945)
(1.15975e-15 1.83734 2.96483)
(1.65395e-15 1.78571 3.37282)
(2.17825e-15 1.72666 3.78974)
(2.67135e-15 1.66924 4.18014)
(3.07531e-15 1.62252 4.51413)
(3.34827e-15 1.59378 4.77225)
(3.46982e-15 1.58666 4.94749)
(3.43939e-15 1.6004 5.0439)
(3.27102e-15 1.6308 5.07219)
(2.98779e-15 1.67194 5.04477)
(2.61746e-15 1.71766 4.97258)
(2.18857e-15 1.76204 4.86413)
(1.72659e-15 1.79914 4.72593)
(1.25028e-15 1.82199 4.56289)
(7.67927e-16 1.82228 4.37859)
(2.6351e-16 1.79594 4.17911)
(-3.3986e-16 1.7518 3.98168)
(-1.11185e-15 1.63982 3.78657)
(-1.44653e-15 1.06487 3.36697)
(5.08048e-16 -0.436727 2.25662)
(2.06306e-15 -1.40626 1.8977)
(2.49543e-15 -1.83589 1.93124)
(2.82276e-15 -2.19159 1.78929)
(3.11209e-15 -2.58258 1.61431)
(3.29809e-15 -2.98497 1.45099)
(3.35514e-15 -3.38798 1.28557)
(3.27355e-15 -3.78936 1.12373)
(3.0583e-15 -4.17848 0.957418)
(2.72741e-15 -4.54544 0.789472)
(2.30757e-15 -4.86937 0.608448)
(1.84811e-15 -5.13488 0.430444)
(1.37249e-15 -5.32621 0.251948)
(9.05386e-16 -5.43768 0.0920567)
(4.82678e-16 -5.44147 -0.0552023)
(1.89897e-16 -5.31538 -0.165696)
(4.72376e-17 -5.14326 -0.236673)
(4.78361e-18 -4.96413 -0.281126)
(-9.81956e-19 -4.78186 -0.304282)
(-4.13345e-19 -4.59182 -0.31897)
(-4.65164e-20 -4.36812 -0.327505)
(4.51334e-21 -4.08902 -0.336708)
(2.03597e-21 -3.77531 -0.342608)
(1.88372e-22 -3.38082 -0.356516)
(-3.7101e-23 -2.95328 -0.360463)
(-3.50753e-23 -2.36317 -0.377337)
(1.59416e-23 -1.82213 -0.370987)
(-1.16758e-22 -0.766972 -0.390178)
(1.72134e-21 0.29921 -0.402911)
(-1.0748e-20 1.40033 -0.441233)
(7.64664e-20 1.9869 -0.0500987)
(-2.66889e-19 2.18749 -0.402077)
(6.59108e-19 2.65615 0.164105)
(-2.19283e-18 -3.86765 -0.376592)
(-1.97638e-27 0.815896 1.15638)
(-2.75115e-27 0.915185 1.15683)
(4.62111e-27 0.966035 1.16602)
(3.59975e-26 1.02196 1.17634)
(1.18504e-25 1.07193 1.19063)
(2.96765e-25 1.12002 1.20724)
(8.034e-25 1.16531 1.22642)
(3.0425e-24 1.20898 1.24793)
(1.23623e-23 1.25085 1.27167)
(3.80245e-23 1.29155 1.29772)
(5.02898e-23 1.3313 1.32613)
(-2.69081e-22 1.37072 1.35709)
(-2.39593e-21 1.4103 1.39068)
(-1.08581e-20 1.45055 1.42704)
(-3.41626e-20 1.49188 1.46623)
(-7.13277e-20 1.53463 1.50836)
(-3.62266e-20 1.57903 1.55356)
(5.02301e-19 1.62508 1.60226)
(2.99638e-18 1.67239 1.65576)
(1.13094e-17 1.71977 1.71746)
(3.39375e-17 1.76478 1.79469)
(8.64728e-17 1.80339 1.90034)
(1.92484e-16 1.83028 2.05258)
(3.80062e-16 1.84003 2.27039)
(6.72434e-16 1.82922 2.56514)
(1.07512e-15 1.79819 2.93206)
(1.56651e-15 1.75134 3.34788)
(2.09843e-15 1.69585 3.77692)
(2.60753e-15 1.63995 4.18164)
(3.03183e-15 1.59178 4.53137)
(3.32483e-15 1.5587 4.80642)
(3.46247e-15 1.54595 4.99887)
(3.44251e-15 1.55526 5.11115)
(3.27936e-15 1.58439 5.15284)
(2.99782e-15 1.62832 5.1364)
(2.62775e-15 1.68092 5.07363)
(2.19977e-15 1.73615 4.97412)
(1.74107e-15 1.78836 4.84529)
(1.27107e-15 1.83191 4.69318)
(7.97822e-16 1.8601 4.52288)
(3.15738e-16 1.86448 4.33858)
(-2.03855e-16 1.83958 4.14614)
(-8.49146e-16 1.79532 3.96168)
(-1.73155e-15 1.70639 3.79539)
(-2.3281e-15 1.21835 3.45874)
(-4.05588e-16 -0.288864 2.3474)
(1.95837e-15 -1.37164 1.75988)
(2.6031e-15 -1.8283 1.82452)
(2.8835e-15 -2.16087 1.75444)
(3.13247e-15 -2.54589 1.58409)
(3.30604e-15 -2.94979 1.41923)
(3.35438e-15 -3.35305 1.26073)
(3.26685e-15 -3.75442 1.10629)
(3.04907e-15 -4.14314 0.947966)
(2.71789e-15 -4.50905 0.787596)
(2.29969e-15 -4.83248 0.613372)
(1.84249e-15 -5.09877 0.440697)
(1.36916e-15 -5.2924 0.266281)
(9.0412e-16 -5.40745 0.108843)
(4.82914e-16 -5.41657 -0.0374358)
(1.90644e-16 -5.29827 -0.148393)
(4.7675e-17 -5.13301 -0.221054)
(4.84717e-18 -4.95895 -0.267885)
(-1.01755e-18 -4.77998 -0.293837)
(-4.30731e-19 -4.5917 -0.311439)
(-4.87351e-20 -4.36882 -0.322895)
(4.9149e-21 -4.09016 -0.335091)
(2.21235e-21 -3.77612 -0.34405)
(2.05662e-22 -3.38178 -0.361403)
(-4.06269e-23 -2.9539 -0.36923)
(-3.64805e-23 -2.36461 -0.390148)
(1.54854e-23 -1.82288 -0.388404)
(-1.24298e-22 -0.765496 -0.406291)
(1.80137e-21 0.315519 -0.41047)
(-1.08267e-20 1.36545 -0.451303)
(7.32816e-20 1.98176 -0.047147)
(-2.47265e-19 2.16643 -0.395088)
(5.39234e-19 2.64921 0.13815)
(-3.08406e-18 -3.83704 -0.35422)
(-3.28141e-27 0.815965 1.19029)
(1.08146e-28 0.914271 1.19051)
(2.67278e-26 0.964155 1.19981)
(1.108e-25 1.01959 1.21042)
(3.02474e-25 1.06892 1.22513)
(7.03636e-25 1.11654 1.24233)
(1.91373e-24 1.16135 1.26218)
(6.8731e-24 1.20458 1.28448)
(2.33049e-23 1.246 1.30908)
(4.65037e-23 1.28624 1.33611)
(-8.24842e-23 1.3255 1.36562)
(-1.27163e-21 1.36441 1.39785)
(-6.79166e-21 1.40345 1.43286)
(-2.44354e-20 1.44315 1.4708)
(-6.14754e-20 1.4839 1.51174)
(-7.8791e-20 1.52606 1.55581)
(1.93848e-19 1.56978 1.60333)
(1.7928e-18 1.61491 1.65531)
(7.73088e-18 1.66066 1.71452)
(2.51395e-17 1.70511 1.78733)
(6.80257e-17 1.7447 1.88582)
(1.59048e-16 1.77431 2.02836)
(3.27328e-16 1.78828 2.23607)
(5.9972e-16 1.78259 2.52411)
(9.86968e-16 1.757 2.89117)
(1.47183e-15 1.71577 3.31458)
(2.00755e-15 1.66616 3.75602)
(2.52897e-15 1.61591 4.17425)
(2.97038e-15 1.57178 4.53656)
(3.28122e-15 1.53941 4.82356)
(3.43433e-15 1.52352 5.02834)
(3.42597e-15 1.52715 5.15349)
(3.27068e-15 1.55053 5.20789)
(2.99454e-15 1.59083 5.20332)
(2.62909e-15 1.64323 5.15157)
(2.20656e-15 1.70218 5.06258)
(1.7556e-15 1.76223 4.94423)
(1.29692e-15 1.81813 4.80301)
(8.39012e-16 1.86437 4.64483)
(3.75247e-16 1.89439 4.47542)
(-1.16209e-16 1.89969 4.29997)
(-6.76671e-16 1.87367 4.12446)
(-1.4002e-15 1.82548 3.96305)
(-2.42515e-15 1.74739 3.83109)
(-3.32146e-15 1.33865 3.57772)
(-1.70829e-15 -0.0850461 2.54699)
(1.61382e-15 -1.31991 1.66606)
(2.63722e-15 -1.83236 1.68675)
(2.96228e-15 -2.14618 1.68808)
(3.16122e-15 -2.51694 1.54955)
(3.3119e-15 -2.92148 1.38409)
(3.35291e-15 -3.32639 1.22993)
(3.25973e-15 -3.72787 1.08433)
(3.03936e-15 -4.11577 0.935475)
(2.70797e-15 -4.47973 0.784289)
(2.29146e-15 -4.80142 0.618615)
(1.83653e-15 -5.06708 0.452782)
(1.36552e-15 -5.26153 0.28363)
(9.02558e-16 -5.37867 0.129466)
(4.82927e-16 -5.3917 -0.0153419)
(1.91254e-16 -5.27998 -0.126626)
(4.80659e-17 -5.12049 -0.201111)
(4.90821e-18 -4.95056 -0.250693)
(-1.04998e-18 -4.7741 -0.280003)
(-4.47326e-19 -4.58698 -0.301177)
(-5.09478e-20 -4.36443 -0.31625)
(5.30853e-21 -4.08583 -0.332175)
(2.39377e-21 -3.7712 -0.344895)
(2.24216e-22 -3.37678 -0.366466)
(-4.43932e-23 -2.94857 -0.378939)
(-3.80422e-23 -2.3601 -0.40482)
(1.50392e-23 -1.81835 -0.408255)
(-1.31877e-22 -0.759821 -0.426982)
(1.86498e-21 0.315322 -0.424847)
(-1.08822e-20 1.33202 -0.462253)
(6.97959e-20 1.97418 -0.0479171)
(-2.22161e-19 2.15289 -0.388335)
(3.89067e-19 2.64109 0.115261)
(-2.39308e-18 -3.80359 -0.32789)
(-3.3962e-27 0.816033 1.22477)
(1.61895e-26 0.913264 1.22497)
(9.31119e-26 0.962096 1.23443)
(2.91562e-25 1.01697 1.24542)
(6.87351e-25 1.06561 1.26061)
(1.48239e-24 1.11271 1.27848)
(3.93777e-24 1.15698 1.29906)
(1.27731e-23 1.19972 1.32221)
(3.14535e-23 1.24065 1.34772)
(-1.07306e-23 1.28038 1.37579)
(-6.33626e-22 1.31909 1.40647)
(-4.03078e-21 1.35743 1.44001)
(-1.64774e-20 1.39587 1.47653)
(-4.81274e-20 1.43495 1.51613)
(-8.82422e-20 1.47507 1.55892)
(1.84525e-20 1.51652 1.60514)
(9.76393e-19 1.55934 1.65555)
(5.05086e-18 1.60307 1.71233)
(1.80491e-17 1.64623 1.78087)
(5.22282e-17 1.68576 1.87217)
(1.28875e-16 1.71685 2.00433)
(2.77545e-16 1.73364 2.20032)
(5.28464e-16 1.73146 2.47949)
(8.98066e-16 1.7094 2.84525)
(1.37446e-15 1.67162 3.2769)
(1.91307e-15 1.62588 3.73362)
(2.44704e-15 1.58031 4.16901)
(2.90653e-15 1.54101 4.5461)
(3.23662e-15 1.51178 4.84442)
(3.40677e-15 1.49558 5.05853)
(3.4115e-15 1.49523 5.19289)
(3.26518e-15 1.51273 5.25703)
(2.99488e-15 1.54788 5.26245)
(2.63376e-15 1.59791 5.22044)
(2.21574e-15 1.65823 5.14089)
(1.771e-15 1.72358 5.03186)
(1.32171e-15 1.78871 4.9001)
(8.77769e-16 1.84841 4.75185)
(4.33164e-16 1.89718 4.59359)
(-3.53674e-17 1.92846 4.43215)
(-5.65494e-16 1.93376 4.27386)
(-1.20788e-15 1.90573 4.12468)
(-2.05436e-15 1.85291 3.99599)
(-3.25227e-15 1.7828 3.9033)
(-4.45521e-15 1.45064 3.72746)
(-3.23803e-15 0.153226 2.80957)
(9.91263e-16 -1.22063 1.62849)
(2.5221e-15 -1.8281 1.54539)
(3.02468e-15 -2.13807 1.5842)
(3.20611e-15 -2.48894 1.49842)
(3.31868e-15 -2.88959 1.34678)
(3.34959e-15 -3.29683 1.19425)
(3.25225e-15 -3.69939 1.05719)
(3.02931e-15 -4.08668 0.919492)
(2.69777e-15 -4.44889 0.778962)
(2.28296e-15 -4.76896 0.623496)
(1.8303e-15 -5.03407 0.466096)
(1.36156e-15 -5.22943 0.30351)
(9.00666e-16 -5.3488 0.153541)
(4.82667e-16 -5.36591 0.0108053)
(1.91684e-16 -5.26104 -0.100537)
(4.8391e-17 -5.10763 -0.176865)
(4.96413e-18 -4.94214 -0.229463)
(-1.07796e-18 -4.76847 -0.262612)
(-4.62542e-19 -4.58274 -0.287981)
(-5.30891e-20 -4.3607 -0.307343)
(5.68212e-21 -4.08228 -0.327729)
(2.57643e-21 -3.76711 -0.344903)
(2.43904e-22 -3.37258 -0.371448)
(-4.83442e-23 -2.944 -0.389311)