/*--------------------------------*- C++ -*----------------------------------*\
| =========                 |                                                 |
| \\      /  F ield         | OpenFOAM: The Open Source CFD Toolbox           |
|  \\    /   O peration     | Version:  4.1                                   |
|   \\  /    A nd           | Web:      www.OpenFOAM.org                      |
|    \\/     M anipulation  |                                                 |
\*---------------------------------------------------------------------------*/
FoamFile
{
    version     2.0;
    format      ascii;
    class       volScalarField;
    location    "16";
    object      p;
}
// * * * * * * * * * * * * * * * * * * * * * * * * * * * * * * * * * * * * * //

dimensions      [0 2 -2 0 0 0 0];

internalField   nonuniform List<scalar> 
6785
(
608.86
530.821
484.122
431.122
384.751
340.128
298.575
259.243
222.013
186.674
152.533
119.197
90.1025
60.0924
19.2844
1.97506
-15.2037
-5.11367
-11.8563
-11.0066
-13.2376
-13.7619
-14.2337
-13.8228
-12.536
-10.0974
-6.96337
-2.57401
3.79991
7.20771
32.1109
28.4773
37.8409
33.6708
37.8941
37.2008
38.4988
38.6158
38.9714
39.1347
39.5303
40.0281
40.3056
40.4479
41.061
50.5667
46.6444
48.8874
43.1372
43.7945
40.0117
38.8003
36.3199
34.6401
32.8749
31.602
30.6498
29.5182
27.5404
25.5859
8.84264
4.45375
5.14115
0.779862
1.2934
-2.11903
-2.91384
-5.33406
-6.96601
-8.93936
-10.4983
-11.601
-12.5599
-13.4879
-12.5544
-5.24208
-7.42661
-5.28086
-7.80023
-5.71236
-7.55464
-6.59891
-7.31554
-7.12761
-7.19354
-6.70948
-5.66731
-3.83195
-2.42107
0.200121
17.5975
18.0175
20.9053
20.2854
23.329
23.4235
25.6474
26.7292
28.4266
29.9215
31.568
33.0938
34.8998
36.1624
38.4948
39.1302
40.2191
42.38
42.1536
44.501
44.7128
46.3609
47.1968
48.3916
49.4304
50.5393
51.5365
52.6836
53.4742
54.634
53.32
54.4571
56.0779
55.9343
57.7161
57.8546
59.0729
59.6909
60.5547
61.3225
62.1263
62.8838
63.8262
64.5174
65.6335
67.9533
69.2768
70.4309
70.5684
71.9734
72.084
72.9798
73.0558
73.2605
73.2841
73.4681
73.9889
74.7947
75.4507
76.1703
79.1774
79.3359
79.827
79.3561
79.8476
79.3457
79.4477
79.0694
78.9275
78.6542
78.3248
77.891
77.2313
77.1087
76.3629
78.7875
76.4937
75.7501
74.0494
73.7519
72.3266
71.47
69.6974
67.6546
64.8874
61.96
59.3132
57.7123
57.3205
54.8916
58.8842
54.1187
51.2697
47.8809
44.9389
41.4476
38.4694
35.5145
33.241
31.485
30.3433
29.6438
29.3637
28.7031
26.3291
23.9056
22.4476
21.2335
19.0262
16.6517
14.0999
12.1248
10.3222
8.85811
7.45577
6.08468
4.70401
3.63995
2.65427
2.02526
51.3874
50.07
48.1485
42.8834
34.7912
27.1294
21.2192
15.8646
11.4555
8.7356
6.64485
5.61523
5.94423
6.60037
7.20215
39.9052
40.2505
40.4493
40.4506
40.5386
40.794
41.3694
41.1929
41.1094
41.007
41.2617
40.8256
40.7036
40.8169
40.2265
40.1001
40.134
40.2339
39.3203
39.6022
39.7471
38.8626
38.7161
39.1262
39.2931
38.3574
38.2217
38.6899
39.0997
37.9826
38.577
38.9029
38.0992
37.9651
38.5221
38.7755
37.9192
38.461
38.5916
38.0819
37.9423
38.3932
38.2921
37.9445
37.8644
38.2673
37.9437
37.4831
37.9614
37.7124
37.4415
37.3833
37.6649
37.7491
37.5854
37.5183
37.6502
38.1174
38.0222
37.9293
38.6338
38.5942
38.4911
38.3825
38.7992
38.8547
39.4354
39.2908
38.2203
39.2096
40.116
35.3365
32.3476
35.1589
38.7879
18.2612
26.3861
33.4913
-7.38839
2.11668
6.8478
4.90495
8.7447
5.69862
3.03634
9.28444
9.29525
10.4801
10.7764
11.9758
14.8934
18.4079
21.3464
13.4338
15.4645
19.41
23.459
24.0154
26.0912
27.5701
29.0456
34.746
31.4475
34.9196
36.1692
38.947
42.9044
45.5269
47.0946
49.4064
47.9013
56.5013
54.4716
56.8619
57.9199
58.9615
61.0531
64.3477
66.2318
61.67
68.3828
69.49
71.9818
72.6379
71.7299
70.5868
69.3736
71.0248
64.9939
73.9924
73.4553
68.2487
67.2189
65.4435
61.596
58.6429
55.8672
46.4017
53.7277
57.9733
50.5445
46.9951
41.8942
35.3091
29.6129
26.7454
22.6468
16.9629
17.1779
17.0706
12.1399
11.8408
10.7063
9.19222
3.61318
1.82303
4.41509
-3.30632
6.07787
4.48158
4.57507
10.1677
4.80706
7.67196
6.61725
8.53431
11.4066
7.14363
9.60976
11.3508
8.53158
9.70583
8.94758
9.83113
11.4667
8.93918
9.88447
9.10571
9.89055
11.1467
8.61004
9.86126
10.7085
8.85515
9.47313
8.82976
9.33597
10.257
8.50125
9.05219
8.42039
8.89607
9.65337
7.84658
8.63639
9.1392
7.79453
8.16105
7.65953
7.94316
8.50068
7.24457
7.5632
7.08794
7.34347
7.77137
6.52002
6.97787
7.21241
6.28289
6.46027
6.08932
6.20372
6.43151
5.59838
5.72598
5.38203
5.46059
5.5608
4.77993
4.95051
4.91214
4.31329
4.31511
4.03529
4.00192
3.92032
3.3893
3.32537
3.03749
3.0188
2.88351
2.21179
2.13547
2.1401
1.44317
1.11192
0.957991
0.492915
0.270377
0.00131545
0.00213186
0.00341882
0.00428515
0.00526717
0.00610472
0.00693714
0.0076905
0.00839632
0.00903349
0.00960785
0.0101154
0.0105598
0.0109463
0.011284
0.0115865
0.0118702
0.0121536
0.0124541
0.0127844
0.0131509
0.0135539
0.0139922
0.0144705
0.0150097
0.01566
0.0165139
0.0177003
0.019342
0.0214673
0.0239436
0.0265569
0.0291236
0.0313912
0.0331539
0.0342442
0.0345454
0.0340678
0.0329311
0.0313672
0.0296588
0.0280654
0.0267835
0.0259794
0.0256923
0.0255142
0.0244167
0.0208557
0.0131462
0.000190198
-0.0169643
-0.0358777
-0.0632233
-0.122766
-0.146818
-0.548904
-0.583749
-0.710298
-0.897479
-0.966024
-0.973789
-0.939421
-0.854188
-0.730783
-0.578639
-0.379427
-0.195312
-0.0035548
0.162345
0.296887
0.410079
0.472065
0.52978
0.530767
0.547793
0.552653
0.498498
0.603432
0.408803
0.00370016
0.00585474
0.00938208
0.0117914
0.0144303
0.0166853
0.0188746
0.0208363
0.0226348
0.0242277
0.0256247
0.0268217
0.0278287
0.0286635
0.0293537
0.0299393
0.0304686
0.030995
0.0315675
0.0322224
0.0329763
0.0338292
0.0347762
0.0358299
0.0370485
0.0385717
0.0406597
0.0436747
0.0479611
0.0535894
0.0601651
0.0670775
0.0738251
0.079714
0.0841951
0.0868271
0.0873116
0.0857124
0.0823938
0.0779775
0.0730258
0.0676129
0.0610499
0.0522006
0.0400427
0.0240078
0.00431465
-0.0182421
-0.0429842
-0.0696288
-0.0974534
-0.127145
-0.158264
-0.197937
-0.303183
-0.685861
-0.861169
-1.08865
-1.43027
-1.60512
-1.69716
-1.72346
-1.60744
-1.39998
-1.12182
-0.740575
-0.383195
-0.00345026
0.314521
0.580646
0.778063
0.908778
0.98922
1.03038
1.04318
1.08215
1.05835
1.12969
1.19273
0.0057813
0.00952315
0.0155693
0.0196949
0.0242304
0.0281071
0.0318838
0.0352762
0.0384
0.0411794
0.0436331
0.0457522
0.0475537
0.0490666
0.0503372
0.0514324
0.052433
0.0534293
0.0545038
0.055718
0.0571002
0.0586502
0.0603591
0.0622472
0.0644112
0.0670857
0.0707108
0.0759025
0.0832507
0.09288
0.104124
0.115954
0.127519
0.137643
0.145393
0.150007
0.150972
0.148384
0.142871
0.135548
0.127532
0.119261
0.11002
0.0983493
0.0827244
0.0618027
0.0348159
0.00140309
-0.0389696
-0.0869311
-0.141848
-0.203939
-0.272602
-0.386531
-0.675754
-0.593497
-1.0022
-1.2631
-1.68213
-1.91473
-2.04963
-2.10794
-1.97347
-1.72318
-1.37925
-0.905729
-0.462967
0.0100214
0.401911
0.732131
0.971232
1.13273
1.22582
1.27441
1.29792
1.31679
1.35051
1.34072
1.68434
0.00773851
0.0130087
0.0214286
0.0272223
0.0335531
0.0389762
0.0442446
0.0489776
0.0533285
0.057197
0.0606069
0.0635475
0.0660423
0.0681323
0.0698821
0.0713854
0.0727558
0.0741198
0.0755933
0.0772621
0.0791656
0.0813019
0.083657
0.0862561
0.0892312
0.0929065
0.0978975
0.105074
0.115274
0.128679
0.144339
0.160814
0.176919
0.191009
0.201792
0.2082
0.209514
0.205864
0.198126
0.187874
0.176684
0.165152
0.152189
0.135622
0.113173
0.0829343
0.0440252
-0.00362735
-0.0601721
-0.126088
-0.201366
-0.287431
-0.380999
-0.532423
-0.936603
-0.468162
-1.26197
-1.53879
-2.05501
-2.35696
-2.53223
-2.61793
-2.45318
-2.1442
-1.71519
-1.12393
-0.572379
0.0179641
0.505307
0.916767
1.21321
1.41331
1.5282
1.58213
1.61967
1.61679
1.69431
1.6298
2.23625
0.0095077
0.0163984
0.0272092
0.0347229
0.0428918
0.0499092
0.056715
0.0628353
0.0684593
0.0734629
0.0778743
0.0816811
0.0849129
0.0876224
0.0898925
0.0918441
0.0936236
0.0953946
0.0973073
0.099473
0.101942
0.104709
0.107754
0.111105
0.114925
0.119626
0.126002
0.135188
0.148296
0.16557
0.185765
0.207019
0.22781
0.246011
0.259966
0.268283
0.27002
0.265319
0.255295
0.241977
0.227431
0.212478
0.195787
0.174684
0.146412
0.108666
0.0602917
0.000869251
-0.0702993
-0.15441
-0.252491
-0.366842
-0.495436
-0.694243
-1.09161
-0.369308
-1.5655
-1.84047
-2.45156
-2.83409
-3.05371
-3.1752
-2.97825
-2.60695
-2.08529
-1.36499
-0.694362
0.0250598
0.616412
1.1169
1.47433
1.71743
1.85381
1.91756
1.96604
1.94836
2.06204
1.94829
2.43043
0.0111452
0.0196843
0.0328151
0.0420552
0.0520356
0.0606395
0.0689633
0.0764561
0.0833339
0.0894536
0.0948458
0.0994975
0.103444
0.106749
0.109515
0.111889
0.114052
0.116204
0.11853
0.121169
0.124179
0.127553
0.13126
0.135327
0.139945
0.145609
0.153289
0.164402
0.180354
0.201465
0.226167
0.252173
0.277627
0.299916
0.317026
0.327231
0.329357
0.323533
0.311089
0.2945
0.276328
0.25761
0.236738
0.210512
0.175728
0.129774
0.0713246
-0.000269742
-0.08609
-0.18792
-0.307886
-0.449264
-0.612167
-0.848304
-1.19121
-0.431143
-1.85995
-2.15485
-2.8318
-3.29629
-3.55568
-3.71433
-3.48233
-3.05065
-2.43725
-1.59141
-0.806432
0.0373425
0.727182
1.31235
1.72655
2.01008
2.16557
2.23789
2.29653
2.26166
2.4102
2.24917
2.83169
0.0126472
0.0228983
0.0383049
0.0492984
0.0610905
0.0712978
0.0811479
0.0900255
0.0981664
0.105412
0.111793
0.117297
0.121963
0.12587
0.129134
0.131933
0.134479
0.137013
0.139756
0.142872
0.146429
0.150416
0.154789
0.159569
0.164969
0.171561
0.180495
0.193485
0.212268
0.237249
0.266514
0.297337
0.327529
0.353977
0.374316
0.386458
0.388971
0.381928
0.366843
0.346646
0.324436
0.301523
0.276058
0.244419
0.20313
0.149404
0.0816866
-0.00115497
-0.100934
-0.22037
-0.36286
-0.532733
-0.733589
-1.00904
-1.3163
-0.762737
-2.15695
-2.51937
-3.22456
-3.77333
-4.06911
-4.26596
-3.99365
-3.49978
-2.7909
-1.81707
-0.916757
0.0523081
0.840313
1.50993
1.98027
2.30374
2.47779
2.55773
2.62599
2.57224
2.75269
2.54607
3.17282
0.0140345
0.0260481
0.0436661
0.0564307
0.0700188
0.0818349
0.0932059
0.103468
0.112868
0.121236
0.1286
0.13495
0.140329
0.144827
0.148579
0.151789
0.154706
0.157609
0.160757
0.16434
0.168438
0.173031
0.178058
0.183531
0.189677
0.197139
0.207249
0.222037
0.243613
0.272482
0.306345
0.34203
0.377013
0.407668
0.431283
0.445374
0.44821
0.439752
0.421671
0.397387
0.370618
0.342999
0.312462
0.275051
0.22714
0.165785
0.0890948
-0.00469889
-0.118257
-0.255329
-0.420637
-0.619684
-0.859458
-1.17447
-1.49495
-1.33726
-2.40914
-2.94005
-3.63545
-4.27206
-4.60195
-4.83971
-4.52118
-3.96238
-3.15263
-2.04633
-1.02775
0.0695721
0.956917
1.71204
2.23845
2.60212
2.79395
2.88173
2.95819
2.88577
3.09399
2.84417
3.46391
0.0153147
0.0291501
0.0489184
0.0634756
0.078848
0.0922829
0.105174
0.116827
0.127487
0.136979
0.145326
0.152522
0.15861
0.163695
0.167928
0.171542
0.174819
0.178082
0.181627
0.185675
0.190312
0.195509
0.201186
0.207339
0.214199
0.222474
0.233676
0.250179
0.274516
0.307314
0.345836
0.386458
0.426316
0.461257
0.488214
0.504258
0.507292
0.497097
0.475502
0.446506
0.414566
0.381699
0.345664
0.302289
0.247906
0.179368
0.0942875
-0.00991979
-0.136944
-0.291752
-0.480511
-0.710081
-0.990328
-1.34851
-1.72795
-1.9888
-2.51095
-3.40877
-4.06246
-4.79105
-5.15154
-5.433
-5.06121
-4.43474
-3.51848
-2.2759
-1.13706
0.0903645
1.07699
1.91764
2.49904
2.9026
3.11083
3.20672
3.28958
3.19872
3.43103
3.14152
3.75584
0.0164991
0.0322134
0.0540659
0.070435
0.0875754
0.102637
0.117045
0.13009
0.142008
0.152624
0.161951
0.169987
0.176779
0.182443
0.187146
0.191151
0.194775
0.198385
0.202318
0.206822
0.211995
0.217794
0.224113
0.230927
0.238463
0.247484
0.259678
0.277796
0.304856
0.341627
0.384877
0.430519
0.475342
0.514648
0.544996
0.562931
0.565905
0.553467
0.527666
0.493236
0.455493
0.416885
0.375052
0.32571
0.265158
0.189925
0.0969611
-0.0172717
-0.15761
-0.330361
-0.543235
-0.804619
-1.12642
-1.53105
-1.98613
-2.49609
-2.49249
-3.94381
-4.51165
-5.33457
-5.72227
-6.05005
-5.61646
-4.91879
-3.88914
-2.50587
-1.24442
0.115097
1.20091
2.12699
2.7622
3.20525
3.42832
3.53267
3.61992
3.51099
3.76422
3.43653
4.07961
0.0175956
0.0352483
0.0591191
0.07732
0.096212
0.112908
0.12883
0.14327
0.156446
0.168185
0.17849
0.187363
0.194853
0.201087
0.206251
0.210633
0.214591
0.218534
0.222843
0.227798
0.233504
0.239903
0.24686
0.254317
0.262491
0.272182
0.285257
0.304877
0.334621
0.375423
0.423485
0.474248
0.524143
0.567893
0.601641
0.621291
0.623756
0.60836
0.577532
0.53693
0.49283
0.448141
0.40043
0.345347
0.279104
0.197758
0.0974565
-0.0264058
-0.179924
-0.370867
-0.608614
-0.903237
-1.26802
-1.72258
-2.25158
-2.82446
-2.52332
-4.56699
-4.99453
-5.90603
-6.31997
-6.69663
-6.19111
-5.41782
-4.26641
-2.73712
-1.35001
0.144036
1.32918
2.3407
3.02847
3.51061
3.74685
3.8603
3.94959
3.82338
4.09415
3.72896
4.3763
0.018612
0.0382623
0.064085
0.0841365
0.104762
0.1231
0.140531
0.156369
0.170801
0.183662
0.194941
0.204648
0.212829
0.219624
0.225235
0.22998
0.234254
0.238515
0.243188
0.248586
0.254822
0.26182
0.269409
0.277493
0.286261
0.29654
0.310371
0.331359
0.363743
0.408648
0.461618
0.517618
0.572694
0.620936
0.657989
0.678979
0.680238
0.660981
0.624268
0.576874
0.526063
0.475196
0.421777
0.361377
0.290024
0.203167
0.0960364
-0.0371231
-0.203755
-0.413194
-0.676594
-1.00585
-1.41527
-1.9237
-2.52533
-3.11042
-2.7581
-5.21069
-5.52442
-6.50581
-6.94954
-7.37789
-6.78835
-5.93415
-4.65112
-2.96975
-1.45352
0.177667
1.46222
2.55902
3.29798
3.81868
4.06616
4.18956
4.27826
4.13596
4.42052
4.02184
4.64688
0.0195547
0.0412627
0.0689711
0.0908922
0.113233
0.133219
0.152155
0.169394
0.185079
0.199062
0.211312
0.221846
0.230711
0.238058
0.244103
0.249195
0.253767
0.258327
0.263351
0.269185
0.275949
0.283546
0.291763
0.300457
0.309776
0.320554
0.334995
0.357201
0.392177
0.441272
0.49926
0.560625
0.620972
0.673677
0.713751
0.735425
0.734519
0.710403
0.667078
0.612552
0.554982
0.498113
0.439374
0.374216
0.29839
0.206624
0.093148
-0.049013
-0.228728
-0.456992
-0.746834
-1.11209
-1.56809
-2.13462
-2.80894
-3.41195
-3.28868
-5.83037
-6.11278
-7.13311
-7.61567
-8.10001
-7.4119
-6.47043
-5.04426
-3.20404
-1.55475
0.216536
1.60086
2.78239
3.57071
4.12938
4.38596
4.52036
4.60557
4.44871
4.7437
4.3112
4.9659
0.0204292
0.0442554
0.0737842
0.0975931
0.121629
0.143271
0.163707
0.182349
0.199285
0.214388
0.227604
0.238961
0.248501
0.256388
0.262853
0.268273
0.273123
0.277964
0.283324
0.289585
0.296876
0.305072
0.313915
0.323203
0.333027
0.344206
0.359097
0.382348
0.419863
0.473251
0.536378
0.603236
0.668889
0.725855
0.768368
0.789737
0.785509
0.755615
0.705304
0.643727
0.579676
0.517209
0.453681
0.384393
0.304742
0.20865
0.0892717
-0.0616378
-0.254438
-0.501866
-0.818913
-1.22146
-1.72603
-2.35439
-3.10085
-3.753
-4.10352
-6.40311
-6.76574
-7.7872
-8.3227
-8.87062
-8.06645
-7.02993
-5.44714
-3.44055
-1.65363
0.261167
1.74609
3.01165
3.84724
4.44261
4.70612
4.85275
4.93129
4.76179
5.06344
4.59995
5.2308
0.0212405
0.0472458
0.0785306
0.104245
0.129956
0.15326
0.175191
0.195238
0.213423
0.229644
0.243822
0.255996
0.266202
0.274618
0.281486
0.287214
0.292321
0.297421
0.3031
0.30978
0.317597
0.326395
0.335862
0.345731
0.356014
0.367491
0.382649
0.406744
0.446743
0.504547
0.572939
0.645388
0.716241
0.776978
0.820957
0.840712
0.831971
0.795741
0.738636
0.670547
0.600541
0.533011
0.465293
0.392522
0.309684
0.209815
0.0849418
-0.0744933
-0.280396
-0.547313
-0.892276
-1.33328
-1.88831
-2.58117
-3.39909
-4.14411
-5.12613
-6.84322
-7.46903
-8.4682
-9.07455
-9.69855
-8.75754
-7.61637
-5.86119
-3.67975
-1.74985
0.312128
1.89846
3.24734
4.12889
4.75862
5.02631
5.18664
5.25515
5.07531
5.37968
4.88654
5.50841
0.0219925
0.0502384
0.0832159
0.110854
0.13822
0.163192
0.186612
0.208066
0.227497
0.244834
0.259969
0.272953
0.283817
0.292748
0.300002
0.306017
0.311355
0.316692
0.322672
0.329762
0.338104
0.347509
0.357602
0.368038
0.378735
0.390398
0.405622
0.43033
0.472752
0.535113
0.608884
0.68693
0.762615
0.826218
0.870265
0.886898
0.872718
0.830272
0.767224
0.693496
0.618166
0.546146
0.474849
0.399234
0.313819
0.210693
0.0807032
-0.0870514
-0.30607
-0.592767
-0.966271
-1.44672
-2.05377
-2.81256
-3.70161
-4.5707
-6.13007
-7.02947
-8.20254
-9.17832
-9.87482
-10.5936
-9.49173
-8.23403
-6.28817
-3.92191
-1.84303
0.370012
2.05851
3.48986
4.41632
5.07767
5.34649
5.52193
5.57689
5.38936
5.69256
5.17028
5.78541
0.0226887
0.0532374
0.0878455
0.117425
0.146426
0.173071
0.197974
0.220836
0.24151
0.259961
0.276048
0.289836
0.301347
0.310779
0.318401
0.32468
0.330223
0.335771
0.342032
0.349523
0.358391
0.368407
0.379131
0.390126
0.401192
0.412925
0.427984
0.453042
0.49782
0.564892
0.644096
0.727546
0.807292
0.87236
0.914702
0.926783
0.906935
0.859267
0.791645
0.713276
0.633227
0.557269
0.482984
0.405145
0.31774
0.211853
0.0771058
-0.0987617
-0.330886
-0.637603
-1.04016
-1.56082
-2.22091
-3.04593
-4.00598
-4.99911
-6.83731
-7.056
-8.97631
-9.91998
-10.7268
-11.5663
-10.2767
-8.88799
-6.73008
-4.16744
-1.93285
0.435427
2.22689
3.73962
4.70965
5.39952
5.66739
5.85855
5.89618
5.70403
6.00185
5.45495
6.03318
0.023332
0.0562465
0.0924241
0.123962
0.154576
0.182901
0.209282
0.233553
0.255468
0.27503
0.292062
0.306647
0.318795
0.328714
0.336683
0.3432
0.34892
0.35465
0.361172
0.369054
0.378448
0.389085
0.400446
0.411995
0.42339
0.435069
0.44971
0.474812
0.521867
0.593793
0.678341
0.766653
0.849168
0.913795
0.952485
0.959159
0.934472
0.883356
0.812751
0.730663
0.646392
0.566993
0.490288
0.410823
0.321998
0.213837
0.0746945
-0.109062
-0.35425
-0.681164
-1.11315
-1.67447
-2.38803
-3.27868
-4.30981
-5.41104
-7.26407
-7.15121
-9.74775
-10.7034
-11.6336
-12.6274
-11.1209
-9.58415
-7.18907
-4.41674
-2.01897
0.509006
2.40422
3.99709
5.00908
5.72406
5.99044
6.19592
6.2128
6.01944
6.30759
5.7365
6.30079
0.0239244
0.0592689
0.096956
0.130468
0.162677
0.192686
0.220539
0.246221
0.269372
0.290042
0.308015
0.323388
0.336162
0.346553
0.354849
0.361576
0.367442
0.373324
0.380084
0.388345
0.398269
0.409536
0.421544
0.433648
0.445335
0.456833
0.47077
0.495565
0.544794
0.621649
0.711175
0.803323
0.886744
0.948596
0.981991
0.98355
0.955933
0.903546
0.831477
0.74639
0.658251
0.575855
0.497275
0.41678
0.327105
0.217167
0.0740084
-0.117388
-0.37557
-0.722807
-1.18446
-1.78659
-2.5534
-3.50857
-4.61165
-5.80955
-7.60724
-7.57157
-10.4488
-11.5573
-12.5961
-13.7878
-12.0342
-10.3294
-7.66772
-4.67025
-2.10104
0.591412
2.59116
4.26271
5.31482
6.05115
6.31649
6.5336
6.52654
6.33555
6.60977
6.01399
6.57178
0.0244677
0.0623077
0.101445
0.136949
0.170731
0.202429
0.231748
0.258842
0.283227
0.305001
0.323909
0.340063
0.35345
0.364297
0.372897
0.379806
0.385783
0.391784
0.398756
0.407386
0.417844
0.429754
0.442425
0.455088
0.467037
0.478226
0.491138
0.51521
0.566453
0.648145
0.741856
0.836269
0.918127
0.974783
1.00231
1.00044
0.972471
0.92097
0.848692
0.761081
0.669284
0.58429
0.504379
0.423465
0.333534
0.222343
0.0755734
-0.1232
-0.394308
-0.76198
-1.25344
-1.89622
-2.71559
-3.73396
-4.91021
-6.19889
-7.96597
-8.44863
-11.057
-12.4987
-13.6172
-15.0592
-13.0272
-11.1316
-8.16923
-4.92859
-2.17867
0.683326
2.78838
4.53692
5.62704
6.38059
6.64509
6.87181
6.83681
6.65236
6.90804
6.29442
6.81213
0.0249632
0.0653656
0.105895
0.143407
0.178742
0.212134
0.242914
0.27142
0.297035
0.319911
0.339746
0.356672
0.370662
0.381948
0.390827
0.397887
0.403938
0.410022
0.417179
0.426167
0.437164
0.449732
0.463084
0.47632
0.48851
0.499262
0.510787
0.533634
0.586598
0.672727
0.769344
0.863827
0.941134
0.99093
1.01368
1.01109
0.985439
0.936676
0.865121
0.775217
0.679841
0.592626
0.511949
0.431267
0.341719
0.229844
0.0798819
-0.12603
-0.410065
-0.798341
-1.31969
-2.0028
-2.87378
-3.95422
-5.20485
-6.58509
-8.3899
-9.60923
-11.3817
-13.517
-14.7077
-16.4543
-14.1113
-11.9996
-8.6975
-5.19255
-2.25148
0.785452
2.99655
4.82018
5.94584
6.71214
6.97579
7.20977
7.1439
6.97036
7.20235
6.56821
7.08015
0.0254115
0.068445
0.110308
0.149845
0.186713
0.221803
0.254038
0.283958
0.310799
0.334772
0.355528
0.373218
0.387798
0.399505
0.40864
0.415816
0.421903
0.42803
0.435342
0.444676
0.456218
0.469463
0.483519
0.49735
0.509773
0.519961
0.529682
0.550663
0.604805
0.694597
0.792338
0.883883
0.953804
0.996843
1.0174
1.0171
0.996105
0.951532
0.881322
0.789129
0.690138
0.601084
0.520256
0.440529
0.352065
0.240108
0.0873463
-0.125574
-0.422713
-0.831924
-1.38332
-2.1064
-3.02814
-4.16997
-5.49641
-6.97384
-8.85538
-10.5545
-11.4374
-14.6254
-15.8745
-17.9859
-15.2992
-12.943
-9.25689
-5.46326
-2.31909
0.89851
3.21638
5.11293
6.2713
7.04552
7.30823
7.54614
7.4505
7.28892
7.49271
6.84268
7.325
0.0258129
0.0715483
0.114687
0.156265
0.194647
0.231438
0.265124
0.296458
0.324522
0.349588
0.371258
0.389702
0.40486
0.416971
0.426334
0.433592
0.439671
0.445798
0.453233
0.4629
0.474996
0.488939
0.503729
0.518185
0.530848
0.540348
0.547765
0.566008
0.620436
0.712851
0.809125
0.894084
0.955298
0.993746
1.01533
1.01999
1.0055
0.966199
0.897691
0.803011
0.700271
0.609788
0.529505
0.451548
0.364936
0.253501
0.0982159
-0.121824
-0.432562
-0.863322
-1.44511
-2.20801
-3.17994
-4.38314
-5.78727
-7.36797
-9.33273
-11.1437
-11.5687
-15.7239
-17.1332
-19.6671
-16.6036
-13.972
-9.85214
-5.74224
-2.38112
1.02324
3.44858
5.41559
6.60347
7.38039
7.64197
7.88033
7.75963
7.60617
7.77896
7.11327
7.56733
0.0261674
0.0746776
0.119034
0.16267
0.202545
0.241043
0.276173
0.308922
0.338206
0.36436
0.386937
0.406126
0.421849
0.434345
0.44391
0.451211
0.457236
0.463316
0.470839
0.480827
0.493485
0.508152
0.523711
0.538834
0.55176
0.560447
0.564911
0.579179
0.632799
0.726456
0.817343
0.89275
0.946494
0.983743
1.0093
1.021
1.0144
0.981152
0.914488
0.816928
0.710218
0.618774
0.53984
0.464576
0.380627
0.270237
0.112448
-0.115241
-0.440549
-0.893869
-1.50669
-2.30951
-3.33145
-4.5966
-6.08108
-7.77183
-9.82904
-11.6879
-12.1908
-16.7293
-18.5521
-21.5065
-18.0373
-15.0975
-10.4883
-6.03141
-2.43727
1.16038
3.69389
5.72861
6.94235
7.71635
7.97648
8.21181
8.07215
7.92154
8.06118
7.3791
7.82924
0.0264745
0.0778349
0.123351
0.16906
0.210409
0.250618
0.287189
0.321353
0.351852
0.379091
0.402567
0.422491
0.438766
0.451627
0.461366
0.468671
0.474591
0.480574
0.488147
0.49844
0.511673
0.527091
0.543461
0.559306
0.572533
0.580248
0.580828
0.589571
0.641431
0.733718
0.814485
0.880014
0.929632
0.969026
1.00079
1.02103
1.02335
0.996725
0.931869
0.830845
0.719858
0.627997
0.551349
0.479803
0.399313
0.290272
0.129535
-0.106947
-0.448395
-0.925745
-1.57051
-2.41351
-3.48552
-4.81371
-6.3818
-8.18911
-10.3551
-12.3331
-13.4648
-17.5444
-20.1589
-23.5189
-19.6143
-16.331
-11.1707
-6.33306
-2.48725
1.3107
3.95304
6.05238
7.28789
8.05292
8.31112
8.53998
8.38768
8.23538
8.33924
7.64779
8.06256
0.0267333
0.081022
0.127639
0.175438
0.218242
0.260165
0.298172
0.333752
0.365464
0.393781
0.418148
0.438797
0.455611
0.46882
0.478702
0.485968
0.49173
0.49756
0.505141
0.515726
0.529547
0.545748
0.562976
0.579604
0.593171
0.599633
0.594966
0.596931
0.645819
0.731951
0.79937
0.857977
0.907302
0.951369
0.990848
1.02069
1.03272
1.01316
0.949925
0.844635
0.728971
0.637336
0.564058
0.497328
0.420959
0.313142
0.148312
-0.0988879
-0.458698
-0.961907
-1.63955
-2.52286
-3.645
-5.03765
-6.69296
-8.62254
-10.9189
-13.108
-14.9575
-17.902
-21.9443
-25.7319
-21.3493
-17.6851
-11.905
-6.64964
-2.53088
1.47497
4.22679
6.38731
7.64002
8.38953
8.64513
8.86432
8.70578
8.54779
8.61306
7.91097
8.30463
0.0269424
0.0842407
0.131898
0.181804
0.226043
0.269685
0.309124
0.346121
0.379041
0.408431
0.433681
0.455046
0.472386
0.485922
0.495918
0.5031
0.508646
0.514261
0.521805
0.532667
0.547091
0.564112
0.582249
0.599722
0.613614
0.618192
0.606748
0.601598
0.644098
0.718628
0.773263
0.829638
0.881644
0.932017
0.980171
1.02039
1.04279
1.03066
0.968709
0.858099
0.737251
0.646602
0.577929
0.517106
0.445194
0.33777
0.16678
-0.0939185
-0.474842
-1.00573
-1.71675
-2.64003
-3.81226
-5.27091
-7.01721
-9.07458
-11.5241
-13.9606
-16.0892
-18.1001
-23.985
-28.163
-23.259
-19.1724
-12.6965
-6.98336
-2.56796
1.65395
4.5159
6.7338
7.99859
8.7255
8.97767
9.1843
9.02583
8.85874
8.88279
8.16612
8.57197
0.0271005
0.0874925
0.136131
0.188159
0.233813
0.279178
0.320045
0.358461
0.392585
0.423043
0.449166
0.471237
0.48909
0.502935
0.513014
0.520064
0.525331
0.530666
0.538122
0.549245
0.56429
0.582168
0.601264
0.619619
0.633587
0.63511
0.616252
0.603348
0.632409
0.693171
0.739406
0.797691
0.854097
0.911773
0.969193
1.02041
1.0538
1.04944
0.988267
0.870973
0.74431
0.655539
0.592839
0.538867
0.471145
0.362292
0.18201
-0.095731
-0.500617
-1.06037
-1.80437
-2.76671
-3.98875
-5.51497
-7.35603
-9.54738
-12.1733
-14.8656
-17.0357
-18.6918
-26.2452
-30.8799
-25.3597
-20.8037
-13.5504
-7.33552
-2.59831
1.84841
4.82113
7.09222
8.36343
9.06002
9.30783
9.49946
9.347
9.16838
9.14829
8.43088
8.80355
0.0272054
0.090779
0.140335
0.194501
0.241553
0.288644
0.330937
0.370771
0.406097
0.437615
0.464603
0.48737
0.505724
0.519858
0.529987
0.536856
0.541777
0.54676
0.554075
0.565442
0.581127
0.599897
0.619988
0.639139
0.652337
0.64964
0.624517
0.60103
0.609609
0.658121
0.700612
0.763883
0.825615
0.891116
0.958206
1.021
1.06602
1.06974
1.00866
0.882937
0.749681
0.663839
0.608564
0.562004
0.497257
0.383923
0.190166
-0.108499
-0.5395
-1.12802
-1.90356
-2.9035
-4.17486
-5.77007
-7.70971
-10.0424
-12.8692
-15.8315
-18.1672
-20.3761
-28.7467
-34.0114
-27.6712
-22.587
-14.4711
-7.70618
-2.62177
2.05916
5.14325
7.46295
8.7343
9.39215
9.63457
9.80933
9.66824
9.47645
9.40933
8.69186
9.05362
0.027255
0.0941016
0.144512
0.200832
0.249262
0.298083
0.3418
0.383054
0.419577
0.452149
0.479992
0.503444
0.522286
0.536691
0.546839
0.553474
0.557977
0.562528
0.569643
0.581236
0.597581
0.617269
0.638336
0.657806
0.668567
0.661918
0.631172
0.587504
0.569115
0.617669
0.659954
0.729167
0.796644
0.870365
0.947449
1.02242
1.07977
1.09191
1.03
0.893624
0.752842
0.671155
0.624724
0.585419
0.521152
0.398925
0.186774
-0.136124
-0.593794
-1.20942
-2.01414
-3.0498
-4.36969
-6.03505
-8.07705
-10.5595
-13.6127
-16.8694
-19.6102
-23.0824
-31.1249
-37.5009
-30.2281
-24.5292
-15.4627
-8.09497
-2.6381
2.28705
5.48301
7.84637
9.1109
9.72079
9.95684
10.1135
9.98838
9.78258
9.66598
8.96166
9.28612
0.0272466
0.0974616
0.14866
0.20715
0.256939
0.307494
0.352632
0.395307
0.433025
0.466643
0.495332
0.519457
0.538776
0.553435
0.563568
0.569914
0.57392
0.577955
0.584804
0.596605
0.613621
0.634229
0.65607
0.674545
0.681078
0.671896
0.632437
0.554772
0.519819
0.572065
0.61717
0.694165
0.767468
0.849722
0.937175
1.02501
1.09545
1.11638
1.05245
0.902623
0.753226
0.677105
0.640704
0.607406
0.539526
0.402713
0.16743
-0.181213
-0.664007
-1.30374
-2.13462
-3.2037
-4.5709
-6.3071
-8.45501
-11.0965
-14.4023
-17.9838
-21.3475
-26.1834
-33.0225
-41.1446
-33.0342
-26.639
-16.5303
-8.50176
-2.64664
2.53306
5.84118
8.24285
9.49286
10.0447
10.2735
10.4115
10.3061
10.0862
9.91795
9.23318
9.50984
0.0271773
0.10086
0.152778
0.213454
0.264582
0.316875
0.363434
0.407532
0.44644
0.481097
0.51062
0.535409
0.555194
0.570087
0.580174
0.586173
0.5896
0.593023
0.599536
0.611518
0.629204
0.650657
0.672553
0.687838
0.68966
0.678149
0.621182
0.50691
0.470488
0.523771
0.574252
0.659035
0.738333
0.829458
0.927688
1.02915
1.11362
1.14376
1.07625
0.909493
0.750256
0.681269
0.655591
0.625531
0.548048
0.390371
0.128964
-0.244257
-0.748738
-1.40866
-2.26223
-3.36192
-4.77451
-6.58141
-8.83821
-11.648
-15.2333
-19.1733
-23.309
-29.275
-34.9396
-45.0878
-36.086
-28.9252
-17.6797
-8.92569
-2.64584
2.79846
6.21861
8.65278
9.87974
10.3625
10.5833
10.7028
10.62
10.3866
10.1653
9.50237
9.76102
0.0270437
0.104298
0.156864
0.219741
0.272189
0.326225
0.374205
0.419727
0.459821
0.495507
0.525854
0.551296
0.571536
0.586649
0.596657
0.60225
0.605006
0.607715
0.613808
0.625935
0.644259
0.666239
0.68655
0.696994
0.696628
0.681264
0.587968
0.457054
0.418852
0.472031
0.531463
0.623943
0.709579
0.80989
0.919385
1.03537
1.13495
1.1748
1.10177
0.91377
0.743344
0.683178
0.668154
0.636382
0.541464
0.357862
0.0705861
-0.323443
-0.844956
-1.52063
-2.39287
-3.51955
-4.97456
-6.85082
-9.21857
-12.2056
-16.0971
-20.431
-25.4554
-32.4286
-37.5282
-49.7176
-39.401
-31.3876
-18.9132
-9.36412
-2.63314
3.08491
6.61626
9.07658
10.271
10.6727
10.8849
10.9867
10.9289
10.6831
10.4078
9.78346
9.97317
0.0268423
0.107777
0.160918
0.226009
0.279759
0.335541
0.384942
0.431891
0.473168
0.509873
0.54103
0.567114
0.587801
0.603119
0.613016
0.618141
0.620129
0.622007
0.627585
0.639801
0.658633
0.680236
0.69679
0.703588
0.706041
0.670522
0.546108
0.406368
0.364644
0.417807
0.488966
0.589153
0.681593
0.791402
0.912732
1.04428
1.16028
1.21047
1.12949
0.914956
0.731884
0.682444
0.676723
0.635062
0.514535
0.30361
-0.00570612
-0.415073
-0.948364
-1.63489
-2.52102
-3.66993
-5.16301
-7.10582
-9.58534
-12.7576
-16.9804
-21.7446
-27.7689
-35.825
-41.382
-55.0793
-42.9787
-34.0112
-20.2256
-9.81239
-2.60511
3.39459
7.0353
9.51478
10.666
10.9735
11.1772
11.2626
11.2314
10.9746
10.6451
10.0602
10.1979
0.026569
0.111298
0.164935
0.232256
0.287287
0.34482
0.395643
0.444022
0.486477
0.524192
0.556146
0.58286
0.603985
0.619495
0.629251
0.633844
0.634958
0.635872
0.640816
0.653022
0.67196
0.691484
0.703392
0.710179
0.714401
0.643229
0.506442
0.352003
0.309808
0.361536
0.447422
0.554991
0.654775
0.774421
0.908276
1.05662
1.19065
1.25203
1.16006
0.912427
0.71529
0.679123
0.678326
0.615177
0.464066
0.229429
-0.0956286
-0.514161
-1.05365
-1.74549
-2.63968
-3.80471
-5.33005
-7.3352
-9.92605
-13.2902
-17.8663
-23.0957
-30.2275
-39.5209
-46.5778
-61.0847
-46.8021
-36.77
-21.6048
-10.2649
-2.55777
3.73033
7.47728
9.96802
11.064
11.263
11.4587
11.5293
11.5267
11.2592
10.88
10.3278
10.4552
0.0262195
0.114861
0.168913
0.238478
0.29477
0.354058
0.406306
0.456118
0.499747
0.538458
0.571196
0.598529
0.620084
0.635776
0.645362
0.649355
0.649477
0.649272
0.653429
0.665415
0.683515
0.699346
0.709574
0.722512
0.707415
0.615353
0.465533
0.294705
0.255162
0.303437
0.407198
0.52178
0.629599
0.759427
0.906639
1.07325
1.22732
1.30104
1.19421
0.905175
0.693519
0.67365
0.667012
0.570698
0.390876
0.140091
-0.193519
-0.614885
-1.1546
-1.84543
-2.74071
-3.91454
-5.46534
-7.52772
-10.2285
-13.7899
-18.7367
-24.4629
-32.8027
-43.5117
-52.9917
-67.6684
-50.8607
-39.6319
-23.0361
-10.7162
-2.48675
4.09573
7.9443
10.4372
11.4642
11.5394
11.728
11.7859
11.8138
11.5353
11.1176
10.6099
10.667
0.0257892
0.118467
0.17285
0.24467