/*--------------------------------*- C++ -*----------------------------------*\
| =========                 |                                                 |
| \\      /  F ield         | OpenFOAM: The Open Source CFD Toolbox           |
|  \\    /   O peration     | Version:  4.1                                   |
|   \\  /    A nd           | Web:      www.OpenFOAM.org                      |
|    \\/     M anipulation  |                                                 |
\*---------------------------------------------------------------------------*/
FoamFile
{
    version     2.0;
    format      ascii;
    class       surfaceScalarField;
    location    "16";
    object      phi;
}
// * * * * * * * * * * * * * * * * * * * * * * * * * * * * * * * * * * * * * //

dimensions      [0 3 -1 0 0 0 0];

internalField   nonuniform List<scalar> 
13220
(
-784.968
2084.87
-1217.13
1732.36
-1660.49
1743.26
-1977.75
1617.16
-2231.49
1553.94
-2404.13
1472.54
-2504.89
1400.66
-2534.04
1329.35
-2498.49
1264.35
-2399.78
1201.19
-2233.59
1134.01
-1987.51
1053.82
-1615.87
928.268
-1003.93
688.254
295.972
-156.937
2241.81
-374.779
1950.2
-610.502
1978.99
-789.92
1796.58
-958.857
1722.88
-1085.96
1599.64
-1187.07
1501.78
-1252
1394.28
-1268.77
1281.12
-1211.22
1143.64
-1067.07
989.86
-861.939
848.687
-631.456
697.785
-333.887
390.688
-37.9153
-165.904
2407.71
-379.563
2163.86
-546.73
2146.15
-676.042
1925.89
-797.614
1844.45
-890.804
1692.83
-977.122
1588.09
-1041.42
1458.58
-1050.29
1289.98
-927.708
1021.07
-626.824
688.978
-214.512
436.38
154.242
329.039
298.811
246.132
260.895
-68.7645
2476.48
-194.987
2290.09
-289.913
2241.08
-378.184
2014.16
-473.406
1939.67
-558.64
1778.06
-653.529
1682.98
-747.216
1552.27
-842.916
1385.69
-906.467
1084.62
-879.317
661.829
-719.018
276.081
-446.736
56.7588
-179.394
-21.2094
81.5014
66.6293
2409.85
-36.7063
2393.42
-66.1922
2270.57
-86.704
2034.68
-101.52
1954.49
-105.839
1782.38
-103.335
1680.48
-95.4392
1544.38
-108.851
1399.1
-193.636
1169.4
-367.751
835.944
-556.683
465.018
-627.325
127.405
-501.869
-146.662
-420.367
210.496
2199.35
168.608
2435.31
207.63
2231.55
267.697
1974.61
345.775
1876.41
427.23
1700.93
527.373
1580.34
634.284
1437.47
734.019
1299.36
767.921
1135.5
672.992
930.874
451.508
686.497
183.953
394.953
-0.437032
37.7216
-420.804
217.656
1981.7
226.64
2426.33
270.023
2188.16
333.064
1911.57
414.114
1795.36
489.452
1625.59
574.028
1495.76
660.022
1351.47
742.426
1216.96
798.468
1079.46
796.998
932.344
714.218
769.281
544.659
564.518
276.646
305.742
-144.159
148.013
1833.68
187.56
2386.78
226.222
2149.5
274.805
1862.99
338.777
1731.39
393.966
1570.4
446.304
1443.43
490.456
1307.32
527.242
1180.17
550.543
1056.16
550.972
931.915
511.53
808.718
408.825
667.219
226.749
487.807
82.5901
72.9739
1760.71
142.984
2316.77
204.27
2088.22
269.853
1797.4
341.499
1659.74
408.046
1503.86
469.866
1381.6
526.415
1250.77
579.38
1127.21
624.878
1010.66
644.378
912.415
610.448
842.651
490.417
787.253
273.599
704.631
356.189
-32.2185
1792.93
63.9731
2220.58
149.487
2002.7
207.982
1738.91
275.412
1592.31
369.705
1409.56
496.858
1254.45
651.169
1096.46
805.781
972.595
926.458
889.984
963.258
875.614
880.643
925.264
666.581
1001.31
362.952
1008.26
719.141
-126.129
1919.06
-136.243
2230.69
-107.95
1974.41
-141.996
1772.95
-171.16
1621.48
-151.561
1389.96
-67.362
1170.25
66.6262
962.47
233.716
805.503
408.462
715.237
543.009
741.065
571.93
896.343
456.202
1117.04
238.016
1226.44
957.156
49.1733
1869.88
-140.77
2420.63
-359.967
2193.6
-575.179
1988.16
-786.47
1832.77
-985.652
1589.14
-1145.57
1330.17
-1262.94
1079.84
-1315.52
858.076
-1271.21
670.924
-1100.01
569.866
-802.046
598.379
-441.416
756.405
-150.912
935.933
806.244
571.133
1298.75
699.682
2292.08
465.619
2427.67
209.661
2244.12
-3.80976
2046.24
-241
1826.33
-507.075
1596.25
-790.182
1362.94
-1069.95
1137.84
-1307.67
908.643
-1427.56
689.752
-1336.92
507.742
-986.347
405.834
-446.064
395.65
360.18
787.891
510.856
1211.27
1868.71
1158.35
2480.59
927.139
2475.33
728.099
2245.28
569.731
1984.7
422.389
1743.59
264.991
1520.34
94.1044
1308.73
-99.6022
1102.35
-301.137
891.287
-470.991
677.594
-530.572
465.413
-379.151
244.227
-18.9713
314.122
1160.14
1955.59
2626.63
3030.64
3194.95
3222.95
3150.1
2946.73
2670.12
2306.9
1838.76
1281.93
642.337
6.3168e-06
-169.614
169.614
-169.614
-169.614
-169.614
315.821
-485.435
315.821
315.821
315.821
699.879
-384.059
699.879
699.879
993.745
-293.866
993.745
993.745
993.745
1205
-211.254
1205
1205
1341.87
-136.876
1341.87
1341.87
1341.87
1410.9
-69.0208
1410.9
1410.9
1410.9
1412.97
-2.07559
1412.97
1412.97
1360.68
52.292
1360.68
1360.68
1360.68
1253.67
107.009
1253.67
1253.67
1108.82
144.845
1108.82
1108.82
1108.82
988.766
120.058
988.766
988.766
988.766
978.105
10.6615
978.105
978.105
910.73
67.3746
910.73
910.73
910.73
745.711
165.02
745.711
745.711
745.711
476.318
269.393
476.318
476.318
183.49
292.828
183.49
183.49
183.49
-237.629
421.119
-237.629
-237.629
-1230.57
992.945
-1230.57
-1230.57
-1230.57
-2709.87
1479.3
-2709.87
-2709.87
-2709.87
-4635.3
1925.43
-4635.3
-4635.3
-6906.86
2271.55
-6906.86
-6906.86
-6788.21
-6672
-6556.45
-8950.77
2504.22
-8826.52
-8675.76
-8509.96
-8344.07
-8177.44
-8011.27
-7838.05
-7647.9
-10083.6
2618.77
-9885.92
-9688.85
-9492.94
-9277.43
-9061.87
-8846.5
-8631.23
-8415.18
-10799.7
2604.9
-10564.5
-10328.5
-10091.4
-9853.68
-9609.2
-9352.36
-9094.07
-8832.36
-8567.98
-10916.5
2603.41
-10635.1
-10351.5
-10067.3
-9783.34
-9499.77
-9202.07
-8896.6
-8591.74
-10550.4
2250.38
-10256
-9953.18
-9634.08
-9314.18
-8992.17
-8669
-8342.9
-7987.89
-9478.08
1833.68
-9138.62
-8802.09
-8468.49
-8117.47
-7762.51
-7414.64
-7071.59
-6735.33
-7284.89
891.295
-6944.79
-6609.53
-6274
-5938.52
-5603.38
-5279.48
-4957.69
-4638.59
-4327.59
-4305.86
292.078
-4062.63
-3856.12
-3657.85
-3470.52
-3293.31
-3165.98
-3133.31
-3099.98
-2749.11
-310.146
-2717.3
-2684.72
-2684.72
-2459.48
-225.236
-2261.01
-198.474
-2261.01
-2094.07
-166.936
-2094.07
-1955.85
-138.222
-1842.03
-113.819
-1842.03
-1742.62
-99.4086
-1659.88
-82.7394
-1659.88
-1585.51
-74.3722
-1585.51
-1521.81
-63.6992
-1466.94
-54.8699
-1466.94
-1415.01
-51.9292
-1415.01
-1369.46
-45.5525
-1327.35
-42.1147
-1327.35
-1287.03
-40.3167
-1250.02
-37.0103
-1250.02
-1213.1
-36.9139
-1213.1
-1179.08
-34.0285
-1146.78
-32.2993
-1146.78
-1113.57
-33.2034
-1113.57
-1082.53
-31.0456
-1051.17
-31.3615
-1051.17
-1019.1
-32.0663
-987.577
-31.5223
-987.577
-954.614
-32.963
-954.614
-922.354
-32.2597
-889.837
-32.5174
-889.837
-855.156
-34.6809
-855.156
-820.392
-34.7643
-784.203
-36.1882
-784.203
-745.4
-38.8035
-706.478
-38.9216
-706.478
-664.927
-41.5512
-664.927
-621.905
-43.0219
-578.675
-43.2299
-578.675
-532.229
-46.4468
-532.229
-483.464
-48.7644
-433.991
-49.4736
-433.991
-379.677
-54.3133
-326.452
-53.2253
-326.452
-270.62
-55.8325
-270.62
-211.823
-58.7963
-154.148
-57.6754
-154.148
-94.7169
-59.4309
-94.7169
-32.5809
-62.136
37.1934
-69.7744
37.1934
95.9918
-58.7983
181.935
-85.9433
181.935
268.485
-86.55
268.485
-74.192
-84.691
-367.32
-84.8578
-430.774
-85.434
-468.07
-86.1611
-505.756
-87.1332
-541.55
-88.2723
-575.246
-89.6009
-607.711
-91.0918
-638.734
-92.746
-668.624
-94.5498
-697.373
-96.498
-725.08
-98.5811
-751.769
-100.793
-777.479
-103.125
-802.238
-105.574
-826.079
-108.134
-849.046
-110.803
-871.196
-113.58
-892.607
-116.464
-913.374
-119.456
-933.603
-122.557
-953.403
-125.769
-972.877
-129.092
-992.114
-132.529
-1011.19
-136.083
-1030.21
-139.767
-1049.3
-143.6
-1068.69
-147.61
-1088.78
-151.831
-1110.11
-156.292
-1133.29
-161.006
-1158.78
-165.968
-1186.71
-171.151
-1216.94
-176.508
-1249.02
-181.975
-1282.27
-187.476
-1315.86
-192.933
-1348.88
-198.285
-1380.54
-203.526
-1410.21
-208.784
-1437.48
-214.451
-1461.97
-221.326
-1483.01
-230.661
-1499.29
-243.962
-1508.97
-262.443
-1510.38
-286.282
-1502.9
-314.092
-1487.39
-342.956
-1465.67
-369.023
-1438.84
-388.381
-1405.08
-398.305
-1359.8
-398.45
-1304.95
-383.827
-1249.49
-321.382
-1103.27
-192.158
-501.097
-97.613
521.327
-60.1326
1118.11
-24.6446
1495.36
6.27544
1860.59
29.5076
2200.52
44.3244
2506.41
51.2308
2782.86
54.2774
3063.06
55.1122
3307.79
54.7235
3502.14
53.9825
3624.65
53.1756
3668.55
52.7461
3637.55
52.0558
3517.72
51.6181
3340.62
49.6193
3058.07
48.3099
2790.77
43.9461
2368.95
43.7628
2258.45
39.4456
1668.76
42.2789
2107.16
50.6832
1499.56
50.933
1678.36
3893.26
-89.9053
-367.665
-89.9309
-430.748
-90.4588
-467.542
-91.1523
-505.062
-92.1212
-540.581
-93.2694
-574.097
-94.6212
-606.359
-96.1437
-637.211
-97.8368
-666.931
-99.6848
-695.525
-101.682
-723.083
-103.817
-749.634
-106.084
-775.212
-108.476
-799.846
-110.988
-823.567
-113.616
-846.417
-116.36
-868.452
-119.219
-889.748
-122.195
-910.398
-125.288
-930.509
-128.501
-950.191
-131.833
-969.545
-135.286
-988.661
-138.862
-1007.62
-142.57
-1026.5
-146.426
-1045.44
-150.458
-1064.66
-154.707
-1084.53
-159.211
-1105.6
-163.995
-1128.5
-169.058
-1153.71
-174.378
-1181.39
-179.909
-1211.4
-185.585
-1243.35
-191.325
-1276.53
-197.039
-1310.14
-202.65
-1343.27
-208.131
-1375.06
-213.605
-1404.74
-219.505
-1431.58
-226.778
-1454.7
-236.994
-1472.79
-252.151
-1484.13
-274.009
-1487.11
-303.073
-1481.32
-337.799
-1468.17
-374.592
-1450.6
-408.721
-1431.54
-435.555
-1412.01
-451.451
-1389.18
-454.551
-1356.7
-446.11
-1313.39
-425.515
-1270.08
-361.365
-1167.42
-200.906
-661.555
-83.4224
403.843
-55.1434
1089.84
-21.8981
1462.12
7.89411
1830.8
30.216
2178.2
44.5555
2492.07
50.8869
2776.53
53.5112
3060.44
54.0362
3307.26
53.3808
3502.8
52.598
3625.44
51.7813
3669.37
51.481
3637.85
50.9614
3518.24
50.7405
3340.84
48.9654
3059.84
47.8618
2791.87
43.6658
2373.15
43.5566
2258.56
39.2306
1673.08
42.0211
2104.37
50.2451
1491.33
50.4369
1678.17
3857.15
-92.7216
-368.089
-92.6954
-430.775
-93.1947
-467.043
-93.8744
-504.382
-94.8426
-539.613
-95.998
-572.942
-97.3639
-604.993
-98.9051
-635.67
-100.621
-665.215
-102.495
-693.651
-104.519
-721.058
-106.685
-747.468
-108.984
-772.913
-111.41
-797.42
-113.959
-821.018
-116.629
-843.748
-119.417
-865.663
-122.326
-886.839
-125.357
-907.367
-128.511
-927.355
-131.789
-946.912
-135.193
-966.142
-138.722
-985.132
-142.38
-1003.96
-146.177
-1022.71
-150.133
-1041.48
-154.285
-1060.51
-158.676
-1080.14
-163.349
-1100.93
-168.322
-1123.53
-173.586
-1148.45
-179.11
-1175.86
-184.834
-1205.68
-190.684
-1237.5
-196.565
-1270.65
-202.384
-1304.32
-208.076
-1337.58
-213.696
-1369.44
-219.581
-1398.85
-226.581
-1424.58
-236.242
-1445.04
-250.715
-1458.32
-272.158
-1462.69
-301.667
-1457.6
-338.23
-1444.75
-378.483
-1427.92
-417.556
-1411.53
-450.513
-1398.58
-473.47
-1389.05
-483.898
-1378.75
-480.766
-1359.83
-465.824
-1328.33
-441.476
-1294.43
-383.912
-1224.98
-219.803
-825.664
-72.8677
256.908
-43.8945
1060.86
-17.9634
1436.18
10.9369
1801.9
31.8635
2157.27
45.3257
2478.6
50.7317
2771.12
52.5514
3058.62
52.5038
3307.31
51.4177
3503.89
50.4658
3626.39
49.6425
3670.19
49.487
3638.01
49.2289
3518.5
49.3263
3340.75
47.8987
3061.27
47.1094
2792.66
43.1945
2377.06
43.1702
2258.58
38.9963
1677.26
41.5146
2101.86
49.8026
1483.05
49.345
1678.63
3820.55
-96.0718
-368.586
-95.9973
-430.849
-96.4725
-466.568
-97.1423
-503.713
-98.1151
-538.64
-99.2839
-571.773
-100.671
-603.606
-102.239
-634.102
-103.986
-663.468
-105.895
-691.743
-107.957
-718.996
-110.163
-745.263
-112.504
-770.571
-114.975
-794.949
-117.572
-818.421
-120.292
-841.027
-123.137
-862.819
-126.107
-883.869
-129.205
-904.27
-132.432
-924.127
-135.791
-943.553
-139.281
-962.652
-142.903
-981.511
-146.66
-1000.2
-150.565
-1018.8
-154.641
-1037.41
-158.933
-1056.21
-163.491
-1075.58
-168.362
-1096.06
-173.56
-1118.33
-179.068
-1142.94
-184.841
-1170.09
-190.808
-1199.71
-196.876
-1231.43
-202.939
-1264.59
-208.899
-1298.36
-214.743
-1331.73
-220.703
-1363.48
-227.504
-1392.05
-236.632
-1415.46
-250.359
-1431.31
-271.262
-1437.42
-301.114
-1432.83
-339.591
-1419.13
-383.652
-1400.69
-428.212
-1383.36
-467.747
-1371.99
-497.807
-1368.52
-515.623
-1371.24
-519.793
-1374.58
-509.957
-1369.67
-488.092
-1350.2
-458.516
-1324.01
-405.562
-1277.94
-253.632
-977.594
-69.9261
73.2021
-27.1896
1018.13
-12.1297
1421.12
15.2687
1774.5
34.6187
2137.92
46.7322
2466.49
50.8266
2767.03
51.4601
3057.98
50.5658
3308.21
48.8584
3505.59
47.6259
3627.62
46.7685
3671.05
46.7771
3638
46.8506
3518.42
47.3622
3340.23
46.3979
3062.24
46.0417
2793.02
42.5133
2380.59
42.6764
2258.42
38.6843
1681.25
41.0104
2099.53
48.8425
1475.21
47.3845
1680.09
3809.14
-99.2945
-369.133
-99.1903
-430.953
-99.6474
-466.111
-100.314
-503.046
-101.295
-537.659
-102.481
-570.587
-103.893
-602.194
-105.49
-632.505
-107.271
-661.687
-109.217
-689.798
-111.319
-716.894
-113.566
-743.016
-115.951
-768.186
-118.469
-792.431
-121.115
-815.775
-123.888
-838.254
-126.79
-859.917
-129.823
-880.836
-132.989
-901.103
-136.293
-920.824
-139.733
-940.113
-143.311
-959.074
-147.027
-977.795
-150.884
-996.346
-154.896
-1014.79
-159.092
-1033.21
-163.522
-1051.78
-168.247
-1070.85
-173.316
-1090.99
-178.741
-1112.91
-184.494
-1137.19
-190.519
-1164.07
-196.728
-1193.5
-203.012
-1225.15
-209.251
-1258.35
-215.374
-1292.24
-221.5
-1325.61
-228.201
-1356.78
-236.826
-1383.43
-249.667
-1402.61
-269.628
-1411.35
-299.146
-1407.9
-338.693
-1393.29
-385.747
-1372.07
-435.146
-1351.29
-480.775
-1337.73
-517.473
-1335.29
-542.036
-1343.96
-553.091
-1360.18
-550.289
-1377.38
-533.735
-1386.22
-505.228
-1378.7
-470.007
-1359.23
-420.894
-1327.05
-295.124
-1103.36
-83.0598
-138.863
-7.8815
942.947
-2.84433
1416.09
20.7926
1750.86
38.6858
2120.03
48.9947
2456.18
51.3347
2764.69
50.3628
3058.95
48.2879
3310.28
45.7297
3508.15
44.0674
3629.28
43.1216
3671.99
43.3031
3637.82
43.7658
3517.96
44.794
3339.21
44.4023
3062.63
44.6173
2792.8
41.566
2383.64
42.052
2257.93
38.258
1685.04
40.4911
2097.3
48.1359
1467.57
46.7419
1681.48
3786.11
-102.544
-369.714
-102.423
-431.075
-102.869
-465.665
-103.538
-502.377
-104.532
-536.664
-105.74
-569.38
-107.18
-600.754
-108.812
-630.873
-110.63
-659.868
-112.617
-687.811
-114.763
-714.748
-117.056
-740.722
-119.49
-765.752
-122.058
-789.863
-124.757
-813.076
-127.587
-835.424
-130.55
-856.954
-133.65
-877.737
-136.889
-897.863
-140.273
-917.441
-143.8
-936.585
-147.47
-955.403
-151.284
-973.981
-155.246
-992.385
-159.369
-1010.67
-163.69
-1028.89
-168.262
-1047.21
-173.158
-1065.96
-178.432
-1085.71
-184.093
-1107.25
-190.103
-1131.18
-196.392
-1157.78
-202.852
-1187.04
-209.357
-1218.64
-215.791
-1251.92
-222.172
-1285.86
-228.906
-1318.87
-237.149
-1348.53
-249.106
-1371.47
-267.879
-1383.84
-296.517
-1382.71
-336.368
-1368.05
-385.642
-1344.01
-439.319
-1318.4
-490.758
-1299.85
-533.971
-1294.52
-565.095
-1304.17
-582.524
-1326.53
-586.143
-1356.56
-576.355
-1387.17
-553.511
-1409.06
-519.018
-1413.2
-478.05
-1400.19
-429.829
-1375.27
-324.563
-1208.63
-99.8663
-363.56
11.247
831.834
11.3499
1415.98
27.7855
1734.43
44.0938
2103.72
52.3183
2447.96
52.4438
2764.56
49.4215
3061.98
45.7867
3313.92
42.1177
3511.82
39.8467
3631.55
38.7324
3673.11
39.0786
3637.47
39.9726
3517.07
41.6076
3337.57
41.8934
3062.34
42.8074
2791.89
40.3326
2386.12
41.2627
2257
37.7174
1688.59
39.9284
2095.09
47.552
1459.94
45.6323
1683.4
3769.6
-105.79
-370.316
-105.664
-431.201
-106.105
-465.223
-106.783
-501.699
-107.796
-535.652
-109.03
-568.146
-110.503
-599.281
-112.172
-629.204
-114.033
-658.007
-116.064
-685.78
-118.258
-712.555
-120.601
-738.379
-123.086
-763.267
-125.708
-787.241
-128.464
-810.32
-131.355
-832.533
-134.383
-853.926
-137.553
-874.567
-140.869
-894.546
-144.336
-913.974
-147.954
-932.968
-151.721
-951.635
-155.638
-970.065
-159.708
-988.316
-163.947
-1006.43
-168.393
-1024.44
-173.112
-1042.49
-178.183
-1060.89
-183.669
-1080.23
-189.574
-1101.34
-195.851
-1124.9
-202.411
-1151.22
-209.126
-1180.33
-215.859
-1211.91
-222.546
-1245.23
-229.433
-1278.97
-237.453
-1310.85
-248.633
-1337.35
-266.136
-1353.97
-293.492
-1356.48
-332.935
-1343.27
-383.586
-1317.4
-440.829
-1286.77
-497.655
-1261.57
-547.201
-1250.31
-584.771
-1256.95
-608.323
-1280.62
-617.745
-1317.11
-613.811
-1360.5
-597.348
-1403.63
-568.802
-1437.61
-529.132
-1452.87
-482.777
-1446.55
-433.111
-1424.94
-342.253
-1299.49
-115.77
-590.043
27.0753
688.989
30.5056
1412.55
37.3013
1727.63
50.8401
2090.18
56.8555
2441.94
54.3165
2767.1
48.7584
3067.54
43.1426
3319.53
38.069
3516.89
34.9916
3634.63
33.6068
3674.49
34.0985
3636.98
35.4555
3515.71
37.7789
3335.25
38.8447
3061.28
40.5825
2790.15
38.788
2387.91
40.2884
2255.5
37.0498
1691.83
39.3143
2092.82
46.9045
1452.35
44.4723
1685.83
3754.64
-109.044
-370.925
-108.923
-431.323
-109.366
-464.78
-110.06
-501.006
-111.095
-534.616
-112.36
-566.88
-113.87
-597.771
-115.582
-627.492
-117.489
-656.1
-119.57
-683.699
-121.814
-710.31
-124.211
-735.983
-126.753
-760.725
-129.433
-784.561
-132.25
-807.503
-135.204
-829.579
-138.301
-850.83
-141.545
-871.323
-144.942
-891.149
-148.497
-910.419
-152.21
-929.255
-156.079
-947.766
-160.103
-966.041
-164.285
-984.133
-168.644
-1002.07
-173.22
-1019.87
-178.087
-1037.63
-183.338
-1055.64
-189.043
-1074.52
-195.203
-1095.18
-201.755
-1118.35
-208.592
-1144.38
-215.564
-1173.36
-222.558
-1204.91
-229.676
-1238.11
-237.624
-1271.02
-248.19
-1300.29
-264.473
-1321.07
-290.333
-1328.11
-328.804
-1318.01
-380.014
-1292.06
-440.012
-1257.4
-501.664
-1225.12
-557.284
-1205.95
-601.206
-1206.39
-630.77
-1227.39
-645.72
-1265.67
-647.015
-1315.81
-635.893
-1371.62
-613.332
-1426.2
-579.799
-1471.14
-535.876
-1496.79
-484.952
-1497.47
-432.451
-1477.44
-351.963
-1379.98
-134.529
-807.477
36.5958
517.864
52.9003
1396.25
50.3204
1730.21
59.1072
2081.39
62.7182
2438.33
57.1044
2772.72
48.4871
3076.15
40.4283
3327.59
33.6211
3523.7
29.5204
3638.73
27.744
3676.27
28.3506
3636.38
30.1943
3513.87
33.2808
3332.16
35.2268
3059.33
37.913
2787.46
36.9024
2388.92
39.1083
2253.3
36.2359
1694.7
38.6406
2090.42
46.2643
1444.73
43.4161
1688.68
3740.39
-112.309
-371.531
-112.201
-431.43
-112.654
-464.327
-113.368
-500.291
-114.432
-533.552
-115.733
-565.579
-117.285
-596.219
-119.043
-625.734
-121
-654.143
-123.135
-681.565
-125.435
-708.009
-127.89
-733.528
-130.491
-758.124
-133.233
-781.819
-136.115
-804.621
-139.137
-826.556
-142.306
-847.661
-145.629
-868.001
-149.111
-887.666
-152.759
-906.772
-156.572
-925.442
-160.548
-943.79
-164.684
-961.905
-168.983
-979.834
-173.464
-997.587
-178.173
-1015.16
-183.192
-1032.61
-188.628
-1050.2
-194.56
-1068.59
-200.983
-1088.76
-207.817
-1111.51
-214.931
-1137.27
-222.175
-1166.11
-229.545
-1197.54
-237.528
-1230.13
-247.638
-1260.91
-262.817
-1285.11
-287.122
-1296.76
-324.258
-1290.97
-375.346
-1266.93
-437.276
-1230.13
-503.068
-1191.61
-564.378
-1163.81
-614.51
-1155.82
-650.005
-1170.89
-670.316
-1207.07
-676.513
-1259.47
-670.111
-1322.21
-652.467
-1389.26
-624.544
-1454.12
-586.788
-1508.9
-539.519
-1544.06
-485.099
-1551.89
-429.36
-1533.18
-356.087
-1453.25
-158.422
-1005.14
38.0509
321.391
75.5827
1358.72
66.7805
1739.01
69.3473
2078.83
70.0263
2437.65
60.944
2781.8
48.7357
3088.36
37.7346
3338.59
28.83
3532.61
23.4676
3644.09
21.1593
3678.58
21.8353
3635.7
24.1812
3511.52
28.096
3328.25
31.0183
3056.41
34.7743
2783.71
34.6502
2389.04
37.7004
2250.25
35.258
1697.14
37.8874
2087.79
45.6759
1436.94
41.9438
1692.41
3723.53
-115.587
-372.123
-115.502
-431.516
-115.97
-463.858
-116.712
-499.549
-117.809
-532.455
-119.152
-564.237
-120.75
-594.621
-122.559
-623.925
-124.571
-652.131
-126.763
-679.372
-129.124
-705.648
-131.641
-731.011
-134.307
-755.459
-137.115
-779.011
-140.065
-801.671
-143.159
-823.462
-146.405
-844.415
-149.81
-864.596
-153.382
-884.094
-157.127
-903.027
-161.045
-921.524
-165.133
-939.703
-169.387
-957.651
-173.808
-975.412
-178.416
-992.979
-183.261
-1010.31
-188.435
-1027.43
-194.061
-1044.57
-200.227
-1062.43
-206.92
-1082.06
-214.037
-1104.4
-221.43
-1129.87
-229.012
-1158.53
-237.078
-1189.48
-246.849
-1220.36
-261.039
-1246.72
-283.796
-1262.35
-319.4
-1261.16
-369.898
-1240.47
-433.061
-1203.76
-502.268
-1160.92
-568.751
-1125.12
-624.845
-1107.72
-666.169
-1114.5
-691.718
-1145.34
-702.578
-1196.21
-700.522
-1261.53
-687.199
-1335.54
-663.878
-1412.58
-631.42
-1486.58
-590.229
-1550.09
-540.463
-1593.82
-483.667
-1608.69
-425.091
-1591.75
-356.753
-1521.59
-191.598
-1170.3
30.673
99.1203
95.0473
1294.34
85.6765
1748.38
82.1268
2082.38
78.9607
2440.82
65.9503
2794.81
49.6368
3104.67
35.1605
3353.07
23.7574
3544.01
16.8711
3650.98
13.8732
3681.57
14.5578
3635.01
17.4131
3508.67
22.2121
3323.45
26.2018
3052.42
31.1452
2778.76
32.0078
2388.18
36.0439
2246.21
34.0975
1699.09
37.0354
2084.85
45.0423
1428.94
40.2791
1697.17
3707.98
-118.882
-372.694
-118.827
-431.571
-119.319
-463.367
-120.094
-498.774
-121.23
-531.319
-122.618
-562.849
-124.268
-592.972
-126.134
-622.059
-128.205
-650.059
-130.46
-677.118
-132.886
-703.222
-135.469
-728.427
-138.203
-752.725
-141.082
-776.132
-144.105
-798.648
-147.275
-820.291
-150.602
-841.089
-154.094
-861.104
-157.76
-880.427
-161.607
-899.18
-165.636
-917.496
-169.841
-935.497
-174.218
-953.274
-178.767
-970.863
-183.507
-988.239
-188.49
-1005.33
-193.823
-1022.1
-199.644
-1038.75
-206.05
-1056.02
-213.014
-1075.1
-220.409
-1097
-228.112
-1122.17
-236.246
-1150.4
-245.743
-1179.98
-259.023
-1207.08
-280.229
-1225.52
-314.156
-1228.42
-363.767
-1211.55
-427.697
-1176.54
-499.718
-1131.74
-570.802
-1089.84
-632.482
-1063.44
-679.448
-1060.75
-710.105
-1083.84
-725.433
-1130.01
-727.417
-1194.23
-718.003
-1270.94
-698.714
-1354.83
-670.641
-1440.66
-634.51
-1522.71
-590.663
-1593.94
-539.175
-1645.31
-481.045
-1666.82
-420.643
-1652.15
-355.648
-1586.58
-228.705
-1297.24
5.92144
-135.506
108.371
1191.89
105.813
1750.94
97.7462
2090.44
89.7547
2448.81
72.2418
2812.32
51.3151
3125.6
32.8011
3371.58
18.4596
3558.35
9.7629
3659.68
5.90272
3685.43
6.52115
3634.4
9.88678
3505.3
15.6183
3317.72
20.7618
3047.27
27.0066
2772.52
28.9525
2386.24
34.1196
2241.04
32.7352
1700.47
36.0774
2081.51
44.338
1420.67
38.8565
1702.66
3693.61
-122.199
-373.234
-122.181
-431.589
-122.702
-462.846
-123.517
-497.959
-124.697
-530.139
-126.137
-561.409
-127.843
-591.266
-129.77
-620.132
-131.906
-647.923
-134.228
-674.796
-136.723
-700.727
-139.378
-725.772
-142.185
-749.918
-145.139
-773.179
-148.239
-795.548
-151.49
-817.039
-154.902
-837.677
-158.485
-857.52
-162.251
-876.662
-166.206
-895.225
-170.35
-913.351
-174.679
-931.168
-179.186
-948.767
-183.868
-966.181
-188.743
-983.364
-193.87
-1000.2
-199.364
-1016.61
-205.383
-1032.73
-212.031
-1049.37
-219.26
-1067.87
-226.939
-1089.32
-235.077
-1114.03
-244.314
-1141.16
-256.72
-1167.58
-276.322
-1187.47
-308.378
-1193.46
-356.832
-1179.97
-421.259
-1147.12
-495.766
-1102.03
-571.014
-1056.49
-637.841
-1023.01
-690.135
-1011.15
-725.696
-1025.19
-745.295
-1064.24
-751.051
-1124.26
-745.19
-1200.09
-729.499
-1286.63
-705.262
-1379.06
-673.37
-1472.55
-634.408
-1561.67
-588.657
-1639.69
-536.186
-1697.78
-477.72
-1725.29
-416.803
-1713.07
-354.022
-1649.36
-248.708
-1402.55
-19.6081
-364.606
114.879
1057.41
126.085
1739.73
115.879
2100.65
102.665
2462.02
80.0035
2834.98
53.8897
3151.71
30.7454
3394.73
12.9902
3576.11
2.17177
3670.5
-2.73526
3690.34
-2.26987
3633.93
1.60149
3501.43
8.30826
3311.01
14.6862
3040.9
22.3428
2764.86
25.4646
2383.11
31.9099
2234.6
31.1528
1701.23
34.9976
2077.66
43.6631
1412.01
36.9141
1709.4
3676.21
-125.541
-373.737
-125.566
-431.563
-126.123
-462.288
-126.984
-497.098
-128.214
-528.909
-129.711
-559.912
-131.479
-589.498
-133.472
-618.139
-135.678
-645.717
-138.072
-672.402
-140.642
-698.158
-143.373
-723.041
-146.258
-747.033
-149.291
-770.146
-152.473
-792.366
-155.81
-813.703
-159.311
-834.175
-162.991
-853.841
-166.861
-872.792
-170.929
-891.157
-175.195
-909.085
-179.654
-926.709
-184.297
-944.125
-189.118
-961.359
-194.135
-978.347
-199.408
-994.932
-205.065
-1010.95
-211.283
-1026.51
-218.165
-1042.49
-225.65
-1060.39
-233.673
-1081.3
-242.625
-1105.08
-254.165
-1129.62
-272.074
-1149.67
-301.967
-1157.58
-348.874
-1146.55
-413.539
-1115.3
-490.464
-1070.2
-569.78
-1022.72
-641.461
-984.814
-698.693
-965.779
-738.821
-971.021
-762.417
-1001.59
-771.674
-1054.98
-769.044
-1126.89
-756.564
-1212.57
-735.718
-1307.48
-707.532
-1407.25
-672.706
-1507.38
-631.699
-1602.68
-584.775
-1686.61
-532.105
-1750.45
-474.395
-1783
-414.55
-1772.91
-354.408
-1709.51
-262.909
-1494.05
-41.7036
-585.812
116.138
899.565
144.989
1710.88
135.628
2110.01
118.004
2479.65
89.5452
2863.44
57.4912
3183.77
29.0778
3423.14
7.4053
3597.78
-5.86982
3683.77
-12.0205
3696.49
-11.8107
3633.72
-7.4453
3497.06
0.278716
3303.29
7.96892
3033.21
17.1424
2755.69
21.5272
2378.73
29.3995
2226.73
29.3321
1701.3
33.789
2073.21
42.905
1402.89
35.2688
1717.04
3662.01
-128.911
-374.195
-128.986
-431.487
-129.586
-461.688
-130.499
-496.185
-131.785
-527.624
-133.345
-558.352
-135.18
-587.664
-137.244
-616.075
-139.525
-643.437
-141.997
-669.93
-144.646
-695.508
-147.458
-720.228
-150.426
-744.066
-153.543
-767.028
-156.812
-789.097
-160.239
-810.276
-163.835
-830.579
-167.616
-850.06
-171.596
-868.812
-175.783
-886.97
-180.178
-904.69
-184.774
-922.113
-189.56
-939.34
-194.527
-956.391
-199.691
-973.184
-205.113
-989.51
-210.934
-1005.13
-217.343
-1020.11
-224.444
-1035.39
-232.198
-1052.63
-240.794
-1072.7
-251.473
-1094.4
-267.596
-1113.5
-294.961
-1122.3
-339.732
-1112.81
-404.181
-1082.1
-483.506
-1035.98
-567.163
-986.541
-643.821
-946.06
-705.748
-922.888
-750
-921.527
-777.171
-943.85
-789.569
-989.194
-789.836
-1054.72
-780.214
-1136.51
-762.36
-1230.42
-737.432
-1332.4
-706.218
-1438.46
-669.256
-1544.34
-626.938
-1644.99
-579.612
-1733.94
-527.703
-1802.36
-472.109
-1838.59
-415.262
-1829.76
-359.231
-1765.54
-279.012
-1574.27
-66.384
-798.44
112.487
720.694
160.695
1662.67
156.1
2114.61
136.128
2499.62
101.263
2898.31
62.2858
3222.75
27.8816
3457.54
1.76416
3623.9
-14.3258
3699.86
-21.9321
3704.1
-22.0914
3633.88
-17.2496
3492.22
-8.47522
3294.51
0.602751
3024.13
11.3974
2744.89
17.1282
2373
26.5769
2217.28
27.2562
1700.62
32.4453
2068.02
42.1128
1393.23
33.1924
1725.96
3646.43
-132.313
-374.603
-132.445
-431.356
-133.094
-461.039
-134.065
-495.213
-135.413
-526.276
-137.041
-556.724
-138.949
-585.756
-141.091
-613.933
-143.452
-641.076
-146.006
-667.375
-148.74
-692.774
-151.64
-717.329
-154.695
-741.01
-157.902
-763.821
-161.263
-785.737
-164.784
-806.755
-168.48
-826.883
-172.367
-846.172
-176.463
-864.717
-180.775
-882.657
-185.306
-900.159
-190.047
-917.373
-194.984
-934.403
-200.105
-951.27
-205.421
-967.867
-210.995
-983.936
-216.972
-999.151
-223.554
-1013.52
-230.858
-1028.09
-238.995
-1044.5
-248.801
-1062.9
-263.095
-1080.11
-287.565
-1089.03
-329.427
-1080.44
-392.866
-1049.37
-474.351
-1000.62
-562.788
-947.541
-645.053
-904.276
-711.902
-879.211
-759.962
-874.828
-790.144
-891.346
-805.154
-928.84
-807.883
-986.464
-800.742
-1061.86
-785.512
-1151.74
-763.444
-1252.49
-735.397
-1360.45
-701.959
-1471.9
-663.573
-1582.72
-620.684
-1687.88
-573.891
-1780.73
-524.038
-1852.22
-472.322
-1890.31
-420.698
-1881.38
-370.641
-1815.59
-300.646
-1644.27
-97.5305
-1001.56
102.974
520.189
172.394
1593.25
176.81
2110.19
157.112
2519.32
115.477
2939.94
68.4976
3269.73
27.2555
3498.79
-3.87513
3655.03
-23.1608
3719.15
-32.4492
3713.39
-33.0998
3634.53
-27.8063
3486.93
-17.9597
3284.66
-7.41557
3013.58
5.1091
2732.37
12.2624
2365.85
23.4337
2206.11
24.9105
1699.14
30.9612
2061.97
41.3118
1382.88
31.1468
1736.13
3631.13
-135.752
-374.954
-135.945
-431.163
-136.651
-460.333
-137.687
-494.178
-139.102
-524.861
-140.805
-555.021
-142.791
-583.77
-145.016
-611.708
-147.463
-638.629
-150.106
-664.732
-152.931
-689.95
-155.922
-714.338
-159.071
-737.861
-162.373
-760.519
-165.83
-782.28
-169.452
-803.133
-173.252
-823.082
-177.252
-842.173
-181.468
-860.5
-185.913
-878.212
-190.588
-895.484
-195.481
-912.479
-200.577
-929.307
-205.861
-945.987
-211.336
-962.392
-217.059
-978.213
-223.177
-993.034
-229.901
-1006.8
-237.441
-1020.54
-246.355
-1035.58
-258.828
-1050.42
-280.129
-1058.81
-318.22
-1050.93
-379.481
-1019.18
-462.432
-966.42
-555.94
-907.112
-644.777
-858.704
-717.406
-831.647
-769.461
-827.156
-802.181
-842.108
-819.089
-874.438
-823.648
-924.281
-818.495
-991.617
-805.489
-1074.86
-785.908
-1171.32
-760.635
-1277.77
-730.282
-1390.8
-695.311
-1506.87
-656.189
-1621.85
-613.604
-1730.47
-568.611
-1825.72
-522.593
-1898.23
-476.947
-1935.95
-432.84
-1925.49
-390.34
-1858.09
-330.016
-1704.59
-140.318
-1191.25
86.7959
293.075
180.629
1499.42
197.249
2093.57
180.341
2536.22
132.281
2988
76.4356
3325.57
27.3438
3547.88
-9.45397
3691.82
-32.34
3742.03
-43.5522
3724.6
-44.823
3635.8
-39.1096
3481.21
-28.174
3273.73
-16.0757
3001.49
-1.72065
2718.01
6.91935
2357.21
19.9636
2193.06
22.2822
1696.82
29.3435
2054.9
40.4647
1371.75
29.6411
1746.95
3617.55
-139.231
-375.242
-139.492
-430.902
-140.26
-459.565
-141.367
-493.072
-142.856
-523.371
-144.64
-553.237
-146.711
-581.699
-149.025
-609.393
-151.563
-636.091
-154.301
-661.994
-157.222
-687.029
-160.311
-711.249
-163.559
-734.613
-166.962
-757.116
-170.521
-778.72
-174.248
-799.407
-178.159
-819.171
-182.276
-838.055
-186.621
-856.156
-191.205
-873.628
-196.031
-890.659
-201.086
-907.424
-206.352
-924.041
-211.807
-940.532
-217.445
-956.754
-223.308
-972.35
-229.534
-986.808
-236.382
-999.952
-244.361
-1012.57
-255.079
-1024.86
-273.081
-1032.42
-306.609
-1025.28
-364.22
-993.324
-447.359
-936.04
-545.78
-867.999
-642.181
-810.71
-721.948
-778.937
-778.888
-774.707
-814.187
-791.858
-832.343
-823.951
-837.879
-868.902
-833.994
-928.166
-822.673
-1002.94
-805.164
-1092.37
-782.295
-1194.19
-754.643
-1305.42
-722.651
-1422.8
-686.777
-1542.75
-647.712
-1660.91
-606.623
-1771.56
-565.213
-1867.13
-525.356
-1938.09
-488.236
-1973.07
-453.576
-1960.15
-419.253
-1892.42
-368.057
-1755.79
-208.314
-1351
54.9121
29.8489
186.052
1368.28
216.368
2063.26
204.615
2547.98
151.598
3041.02
86.4997
3390.67
28.3643
3606.01
-14.9121
3735.1
-41.8318
3768.95
-55.2222
3737.99
-57.2473
3637.83
-51.1514
3475.12
-39.1116
3261.69
-25.3643
2987.74
-9.10803
2701.76
1.08875
2347.01
16.1746
2177.98
19.3603
1693.64
27.5921
2046.67