/*--------------------------------*- C++ -*----------------------------------*\
| =========                 |                                                 |
| \\      /  F ield         | OpenFOAM: The Open Source CFD Toolbox           |
|  \\    /   O peration     | Version:  4.1                                   |
|   \\  /    A nd           | Web:      www.OpenFOAM.org                      |
|    \\/     M anipulation  |                                                 |
\*---------------------------------------------------------------------------*/
FoamFile
{
    version     2.0;
    format      ascii;
    class       volScalarField;
    location    "3";
    object      p;
}
// * * * * * * * * * * * * * * * * * * * * * * * * * * * * * * * * * * * * * //

dimensions      [0 2 -2 0 0 0 0];

internalField   nonuniform List<scalar> 
225
(
4.05857e+11
5.17422e+11
7.48201e+11
7.7093e+11
6.49461e+11
5.86836e+11
5.98691e+11
6.18508e+11
6.27387e+11
6.41556e+11
6.62809e+11
6.95135e+11
7.1948e+11
7.30706e+11
7.24398e+11
8.12696e+11
7.75835e+11
6.38747e+11
5.37536e+11
5.1585e+11
5.27368e+11
5.21973e+11
5.0104e+11
5.02306e+11
5.40542e+11
5.77505e+11
5.82291e+11
5.64222e+11
5.2938e+11
4.91462e+11
7.08137e+11
6.99313e+11
6.89122e+11
6.74681e+11
6.6857e+11
6.68039e+11
6.68026e+11
6.67876e+11
6.63843e+11
6.56032e+11
6.37382e+11
5.98057e+11
6.2099e+11
7.06261e+11
7.20157e+11
6.84101e+11
6.74438e+11
6.74368e+11
6.706e+11
6.66586e+11
6.70356e+11
6.71487e+11
6.62406e+11
6.457e+11
6.46396e+11
6.76167e+11
7.03075e+11
6.65689e+11
5.94572e+11
5.68519e+11
6.82735e+11
6.73182e+11
6.65483e+11
6.63874e+11
6.60289e+11
6.58818e+11
6.56851e+11
6.56706e+11
6.57763e+11
6.4925e+11
6.40669e+11
6.46084e+11
6.41087e+11
6.39824e+11
6.68235e+11
6.80884e+11
6.79788e+11
6.74846e+11
6.64049e+11
6.48701e+11
6.41825e+11
6.3461e+11
6.18877e+11
6.15291e+11
6.2865e+11
6.42821e+11
6.51203e+11
6.5515e+11
6.55177e+11
6.60062e+11
6.84209e+11
6.7925e+11
6.74035e+11
6.64403e+11
6.47987e+11
6.30031e+11
6.15687e+11
6.06348e+11
6.05712e+11
6.18135e+11
6.28406e+11
6.39029e+11
6.5458e+11
6.70951e+11
6.75038e+11
7.00877e+11
6.99038e+11
6.91453e+11
6.85753e+11
6.83682e+11
6.79471e+11
6.73205e+11
6.72045e+11
6.79412e+11
6.90942e+11
7.10044e+11
7.25582e+11
7.30366e+11
7.31188e+11
7.22595e+11
7.07722e+11
7.07563e+11
7.10339e+11
7.07985e+11
7.02226e+11
7.04839e+11
7.13167e+11
7.19958e+11
7.20712e+11
7.15892e+11
7.14303e+11
7.16838e+11
7.21445e+11
7.24484e+11
7.22166e+11
6.9642e+11
6.92645e+11
6.96714e+11
7.03541e+11
7.07761e+11
7.10307e+11
7.0871e+11
7.03616e+11
7.03899e+11
7.0763e+11
7.07737e+11
7.0652e+11
7.07273e+11
7.09059e+11
7.08052e+11
6.54596e+11
6.5049e+11
6.46039e+11
6.38873e+11
6.32961e+11
6.31423e+11
6.2977e+11
6.24571e+11
6.18878e+11
6.1901e+11
6.30682e+11
6.45947e+11
6.46394e+11
6.39894e+11
6.36513e+11
6.20549e+11
6.13223e+11
6.03025e+11
5.90715e+11
5.77035e+11
5.65145e+11
5.54359e+11
5.45791e+11
5.40515e+11
5.33928e+11
5.28817e+11
5.31645e+11
5.38073e+11
5.41581e+11
5.44447e+11
5.9265e+11
5.82504e+11
5.6951e+11
5.5549e+11
5.41071e+11
5.27302e+11
5.13702e+11
4.99962e+11
4.87881e+11
4.8065e+11
4.81839e+11
4.89824e+11
4.95843e+11
4.95509e+11
4.9607e+11
5.81898e+11
5.66011e+11
5.45779e+11
5.23032e+11
5.01559e+11
4.80049e+11
4.59434e+11
4.43494e+11
4.33218e+11
4.26972e+11
4.23328e+11
4.21125e+11
4.18504e+11
4.07737e+11
4.01146e+11
4.10551e+11
3.80077e+11
3.41998e+11
3.04292e+11
2.70974e+11
2.44172e+11
2.20326e+11
2.00646e+11
1.822e+11
1.6249e+11
1.44482e+11
1.28958e+11
1.09452e+11
8.41178e+10
6.12372e+10
)
;

boundaryField
{
    inletFace
    {
        type            zeroGradient;
    }
    inlet
    {
        type            zeroGradient;
    }
    inletWalls
    {
        type            zeroGradient;
    }
    outletInlet
    {
        type            fixedValue;
        value           uniform 0;
    }
}


// ************************************************************************* //
