/*--------------------------------*- C++ -*----------------------------------*\
| =========                 |                                                 |
| \\      /  F ield         | OpenFOAM: The Open Source CFD Toolbox           |
|  \\    /   O peration     | Version:  4.1                                   |
|   \\  /    A nd           | Web:      www.OpenFOAM.org                      |
|    \\/     M anipulation  |                                                 |
\*---------------------------------------------------------------------------*/
FoamFile
{
    version     2.0;
    format      ascii;
    class       surfaceScalarField;
    location    "3";
    object      phi;
}
// * * * * * * * * * * * * * * * * * * * * * * * * * * * * * * * * * * * * * //

dimensions      [0 3 -1 0 0 0 0];

internalField   nonuniform List<scalar> 
420
(
-130571
134521
-1.46337e+07
1.45063e+07
-2.55608e+07
1.09298e+07
3.33487e+07
-5.89069e+07
5.88486e+07
-2.54974e+07
6.95183e+07
-1.06673e+07
7.08832e+07
-1.36259e+06
6.25133e+07
8.37212e+06
4.5744e+07
1.67716e+07
2.61146e+07
1.96324e+07
2.94319e+06
2.31741e+07
-2.21783e+07
2.51259e+07
-2.42986e+07
2.12449e+06
-9.24123e+06
-1.50522e+07
-9.23991e+06
6.6767e+06
-6.5387e+06
3.18155e+07
-1.0628e+07
7.27731e+07
-3.00207e+07
6.36963e+07
-4.9824e+07
3.06656e+07
7.53582e+06
-1.71588e+06
2.17158e+07
-3.30539e+07
2.99764e+07
-5.65889e+07
3.19079e+07
-6.5734e+07
2.59172e+07
-7.0039e+07
2.39378e+07
-5.2787e+07
5.92292e+06
-2.83271e+07
666788
-1.17561e+07
-1.44451e+07
-6.24445e+06
-2.05624e+07
-1.54842e+07
-2.68224e+07
2.02847e+07
-5.65717e+07
1.91222e+07
-1.02479e+08
1.58871e+07
-1.674e+08
1.50986e+07
-1.74408e+08
1.45449e+07
-1.67071e+08
1.43794e+07
-1.50861e+08
1.37683e+07
-1.25833e+08
6.88254e+06
-9.29056e+07
-7.0067e+06
-5.83977e+07
-1.05655e+07
-3.42887e+07
-1.81839e+07
-1.74704e+07
-1.61456e+07
-1.68809e+07
-1.50281e+07
-1.6882e+07
-2.05501e+07
-3.23661e+07
-1.25235e+07
3.28095e+07
-6.14391e+06
1.27436e+07
966303
8.77807e+06
166518
1.58996e+07
1.39267e+06
1.33198e+07
7.58964e+06
8.1835e+06
1.75155e+07
3.8434e+06
2.64221e+07
-2.02309e+06
2.78812e+07
-8.46456e+06
2.80118e+07
-1.06955e+07
5.60939e+06
4.22009e+06
-8.94253e+06
-1.59446e+06
-613382
-2.33575e+07
9.3301e+06
-3.04937e+07
-2.3036e+07
8.06248e+07
-4.7809e+07
1.22391e+08
-2.90176e+07
1.6352e+08
-3.2346e+07
1.89081e+08
-9.65839e+06
2.05545e+08
-3.14133e+06
2.1687e+08
-3.13882e+06
2.23676e+08
-2.95948e+06
2.20039e+08
1.6173e+06
2.01215e+08
1.03662e+07
1.75183e+08
1.53437e+07
1.58955e+08
2.04514e+07
1.36025e+08
2.1341e+07
9.35338e+07
1.91375e+07
4.4463e+07
1.85793e+07
2.14269e+07
-1.22871e+07
-3.5519e+07
-3.40876e+07
-7.21504e+06
-5.70404e+07
-9.39105e+06
-6.28168e+07
-3.88047e+06
-6.89297e+07
2.97274e+06
-7.85099e+07
6.44225e+06
-8.57736e+07
4.30495e+06
-9.0409e+07
6.25349e+06
-9.03423e+07
1.02999e+07
-8.38946e+07
8.89588e+06
-6.97305e+07
6.2877e+06
-5.27192e+07
4.32743e+06
-3.36609e+07
77181.3
-1.81421e+07
3.05785e+06
3.28487e+06
-3.95247e+07
4.00565e+06
-7.85817e+07
3.18419e+07
-1.02733e+08
1.47595e+07
-1.20147e+08
1.35339e+07
-1.29042e+08
1.18668e+07
-1.3144e+08
8.8405e+06
-1.29968e+08
2.83241e+06
-1.23631e+08
-84255.3
-1.10721e+08
-2.6105e+06
-9.55588e+07
-6.2663e+06
-7.97745e+07
-9.49837e+06
-6.35731e+07
-1.18687e+07
-4.85943e+07
-1.48977e+07
-2.72316e+07
-1.82993e+07
-2.39469e+07
-1.75613e+07
2.15653e+07
-2.53986e+07
3.9678e+07
-2.97261e+07
1.90857e+07
-2.97324e+07
1.35393e+07
-2.47683e+07
6.90124e+06
-1.60641e+07
135462
-1.04605e+07
-2.77253e+06
-1.02022e+07
-343138
-7.49824e+06
-5.31523e+06
-6.16094e+06
-7.60517e+06
-4.78097e+06
-1.08782e+07
2.98357e+06
-1.96393e+07
3.79254e+06
-1.57127e+07
4.0118e+06
-1.85274e+07
-1.99351e+07
-620286
2.21832e+07
1.8162e+07
2.08937e+07
2.24106e+07
1.4835e+07
2.72578e+07
8.69039e+06
3.20882e+07
2.06874e+06
3.59188e+07
-3.69774e+06
4.31428e+07
-9.9999e+06
8.07224e+07
-3.79271e+07
1.19913e+08
-4.45112e+07
1.31105e+08
-1.88023e+07
1.33635e+08
-1.3417e+07
1.04516e+08
9.47542e+06
5.55185e+07
3.32808e+07
6.0536e+06
3.09342e+07
-1.38816e+07
-1.41062e+07
3.62866e+07
-1.07292e+07
1.75143e+07
-2.72123e+06
6.82508e+06
6.81656e+06
-849550
1.31419e+07
-4.25913e+06
1.60129e+07
-6.57186e+06
1.78303e+07
-1.18237e+07
1.29645e+07
-3.307e+07
-371045
-3.11823e+07
-1.71075e+07
-2.06974e+06
-4.19367e+07
1.14106e+07
-5.31189e+07
2.06518e+07
-4.03039e+07
2.04599e+07
-2.99448e+07
2.05638e+07
-4.38264e+07
3.96706e+07
-3.38489e+06
7.99034e+07
-2.27191e+07
1.15111e+08
-2.83829e+07
1.45082e+08
-3.08208e+07
1.70837e+08
-3.00146e+07
1.89637e+08
-2.53723e+07
1.97689e+08
-1.98754e+07
1.77116e+08
-1.24977e+07
1.48436e+08
-2.50245e+06
1.40752e+08
5.61405e+06
1.40409e+08
1.17526e+07
1.3709e+08
2.39715e+07
1.21311e+08
3.62394e+07
9.2191e+07
4.96836e+07
4.83646e+07
2.98278e+07
-3.32141e+07
4.78841e+07
-4.07764e+07
6.07147e+07
-4.12144e+07
6.81279e+07
-3.82351e+07
7.22991e+07
-3.41869e+07
7.42541e+07
-2.73286e+07
7.37406e+07
-1.93634e+07
6.81698e+07
-6.9281e+06
6.0577e+07
5.08901e+06
4.98419e+07
1.63476e+07
3.81296e+07
2.34643e+07
2.77554e+07
3.43432e+07
1.86699e+07
4.53228e+07
1.08708e+07
5.74804e+07
5.92354e+07
1.61111e+07
-4.93267e+07
1.37846e+07
-3.84507e+07
9.87774e+06
-3.73087e+07
7.50694e+06
-3.5865e+07
7.14793e+06
-3.38289e+07
1.04194e+07
-3.06009e+07
1.7817e+07
-2.67626e+07
3.36515e+07
-2.27641e+07
5.12041e+07
-1.24648e+07
6.18447e+07
5.70638e+06
6.19063e+07
2.34023e+07
5.43961e+07
4.1853e+07
4.02083e+07
5.95101e+07
1.92592e+07
7.84291e+07
7.84946e+07
-5.89641e+07
9.63701e+06
-9.22932e+07
-5.12164e+06
-1.1584e+08
-1.37619e+07
-1.30555e+08
-2.11498e+07
-1.37795e+08
-2.65891e+07
-1.36964e+08
-3.14321e+07
-1.29419e+08
-3.43078e+07
-1.14829e+08
-3.73541e+07
-8.77786e+07
-3.95147e+07
-4.24573e+07
-3.96149e+07
1.43293e+07
-3.33838e+07
6.57944e+07
-9.61152e+06
8.34043e+07
4.19016e+07
3.50155e+07
1.26819e+08
1.1351e+08
-1.19588e+08
-1.87254e+08
-2.33657e+08
-2.67078e+08
-2.9057e+08
-3.06114e+08
-3.06452e+08
-2.95235e+08
-2.73566e+08
-2.39612e+08
-1.90758e+08
-1.2644e+08
-6.8496e+07
-4.8284e+07
)
;

boundaryField
{
    inletFace
    {
        type            calculated;
        value           nonuniform List<scalar> 
450
(
-5.10999e-05
-7.25463e-05
-7.61913e-05
-7.48743e-05
-7.32937e-05
-7.23014e-05
-7.13898e-05
-6.78889e-05
-6.06913e-05
-4.7634e-05
-2.04571e-05
-3.85586e-05
-5.69285e-05
-5.55434e-05
-4.06394e-05
-8.42803e-05
-8.06664e-05
-7.86679e-05
-7.27191e-05
-6.31157e-05
-6.27438e-05
-6.19029e-05
-5.97887e-05
-5.52145e-05
-5.02554e-05
-4.87581e-05
-6.25306e-05
-6.26002e-05
-6.50758e-05
-6.59078e-05
-6.71527e-05
-6.9043e-05
-6.7388e-05
-6.57956e-05
-6.48941e-05
-6.41872e-05
-6.32138e-05
-6.12782e-05
-5.97491e-05
-5.91083e-05
-5.87188e-05
-5.87584e-05
-5.69589e-05
-6.06878e-05
-5.97687e-05
-3.29115e-05
-4.59977e-05
-5.5187e-05
-5.68637e-05
-5.55057e-05
-5.4609e-05
-5.37871e-05
-5.23497e-05
-5.13471e-05
-5.23752e-05
-5.37901e-05
-5.26135e-05
-4.7182e-05
-6.11696e-05
-6.66641e-05
-3.6767e-05
-4.7803e-05
-4.70118e-05
-4.68282e-05
-4.6205e-05
-4.57602e-05
-4.4962e-05
-4.43304e-05
-4.32857e-05
-4.39021e-05
-4.68782e-05
-4.58343e-05
-4.44087e-05
-5.25125e-05
-6.26078e-05
-4.24223e-05
-4.43036e-05
-4.36085e-05
-4.34868e-05
-4.33591e-05
-4.3094e-05
-4.26882e-05
-4.27294e-05
-4.33008e-05
-4.31525e-05
-4.30322e-05
-4.39887e-05
-4.51524e-05
-4.22778e-05
-3.42013e-05
-4.49879e-05
-4.69125e-05
-4.15936e-05
-4.14583e-05
-4.10637e-05
-4.04646e-05
-4.0027e-05
-3.99041e-05
-4.04087e-05
-4.01818e-05
-3.86216e-05
-3.81886e-05
-3.91812e-05
-4.06167e-05
-2.39862e-05
-3.04439e-05
-4.00582e-05
-3.93364e-05
-3.93478e-05
-3.9323e-05
-3.90328e-05
-3.85251e-05
-3.81491e-05
-3.81963e-05
-3.84469e-05
-3.84936e-05
-3.82525e-05
-3.76255e-05
-3.64138e-05
-3.36729e-05
-1.77039e-05
-3.46306e-05
-3.36926e-05
-3.28976e-05
-3.2729e-05
-3.24766e-05
-3.2233e-05
-3.1975e-05
-3.22902e-05
-3.54063e-05
-3.7712e-05
-3.73106e-05
-3.44244e-05
-2.94465e-05
-2.0139e-05
-3.41043e-05
-3.43169e-05
-3.2475e-05
-3.19543e-05
-3.16214e-05
-3.17224e-05
-3.20969e-05
-3.22519e-05
-3.14332e-05
-3.21221e-05
-3.30207e-05
-3.37302e-05
-3.36013e-05
-2.83321e-05
-8.90892e-06
-1.81266e-05
-2.72145e-05
-3.28632e-05
-3.30433e-05
-3.24975e-05
-3.22314e-05
-3.21157e-05
-3.18324e-05
-3.15719e-05
-3.14069e-05
-3.13975e-05
-3.14248e-05
-3.14432e-05
-3.13927e-05
-3.14696e-05
-3.57881e-05
-3.45944e-05
-3.40585e-05
-3.28832e-05
-3.21512e-05
-3.14725e-05
-3.09442e-05
-3.06408e-05
-3.02318e-05
-3.03327e-05
-3.07299e-05
-3.06627e-05
-3.08408e-05
-3.09636e-05
-3.13412e-05
-3.49884e-05
-3.30375e-05
-3.32307e-05
-3.30965e-05
-3.25445e-05
-3.17375e-05
-3.09834e-05
-3.01993e-05
-3.01321e-05
-2.9355e-05
-2.93098e-05
-2.95787e-05
-3.02158e-05
-3.12981e-05
-3.00034e-05
-3.4119e-05
-3.44022e-05
-3.41928e-05
-3.40718e-05
-3.38721e-05
-3.3572e-05
-3.31506e-05
-3.26041e-05
-3.19496e-05
-3.11315e-05
-3.02951e-05
-2.96057e-05
-2.91644e-05
-3.12397e-05
-3.42628e-05
-3.59015e-05
-3.71556e-05
-3.72805e-05
-3.73731e-05
-3.74088e-05
-3.73203e-05
-3.71944e-05
-3.70301e-05
-3.67331e-05
-3.61341e-05
-3.47986e-05
-3.20171e-05
-2.78884e-05
-2.99786e-05
-2.93127e-05
5.10999e-05
7.25463e-05
7.61913e-05
7.48743e-05
7.32937e-05
7.23014e-05
7.13898e-05
6.78889e-05
6.06913e-05
4.7634e-05
2.04571e-05
3.85586e-05
5.69285e-05
5.55434e-05
4.06394e-05
8.42803e-05
8.06664e-05
7.86679e-05
7.27191e-05
6.31157e-05
6.27438e-05
6.19029e-05
5.97887e-05
5.52145e-05
5.02554e-05
4.87581e-05
6.25306e-05
6.26002e-05
6.50758e-05
6.59078e-05
6.71527e-05
6.9043e-05
6.7388e-05
6.57956e-05
6.48941e-05
6.41872e-05
6.32138e-05
6.12782e-05
5.97491e-05
5.91083e-05
5.87188e-05
5.87584e-05
5.69589e-05
6.06878e-05
5.97687e-05
3.29115e-05
4.59977e-05
5.5187e-05
5.68637e-05
5.55057e-05
5.4609e-05
5.37871e-05
5.23497e-05
5.13471e-05
5.23752e-05
5.37901e-05
5.26135e-05
4.7182e-05
6.11696e-05
6.66641e-05
3.6767e-05
4.7803e-05
4.70118e-05
4.68282e-05
4.6205e-05
4.57602e-05
4.4962e-05
4.43304e-05
4.32857e-05
4.39021e-05
4.68782e-05
4.58343e-05
4.44087e-05
5.25125e-05
6.26078e-05
4.24223e-05
4.43036e-05
4.36085e-05
4.34868e-05
4.33591e-05
4.3094e-05
4.26882e-05
4.27294e-05
4.33008e-05
4.31525e-05
4.30322e-05
4.39887e-05
4.51524e-05
4.22778e-05
3.42013e-05
4.49879e-05
4.69125e-05
4.15936e-05
4.14583e-05
4.10637e-05
4.04646e-05
4.0027e-05
3.99041e-05
4.04087e-05
4.01818e-05
3.86216e-05
3.81886e-05
3.91812e-05
4.06167e-05
2.39862e-05
3.04439e-05
4.00582e-05
3.93364e-05
3.93478e-05
3.9323e-05
3.90328e-05
3.85251e-05
3.81491e-05
3.81963e-05
3.84469e-05
3.84936e-05
3.82525e-05
3.76255e-05
3.64138e-05
3.36729e-05
1.77039e-05
3.46306e-05
3.36926e-05
3.28976e-05
3.2729e-05
3.24766e-05
3.2233e-05
3.1975e-05
3.22902e-05
3.54063e-05
3.7712e-05
3.73106e-05
3.44244e-05
2.94465e-05
2.0139e-05
3.41043e-05
3.43169e-05
3.2475e-05
3.19543e-05
3.16214e-05
3.17224e-05
3.20969e-05
3.22519e-05
3.14332e-05
3.21221e-05
3.30207e-05
3.37302e-05
3.36013e-05
2.83321e-05
8.90892e-06
1.81266e-05
2.72145e-05
3.28632e-05
3.30433e-05
3.24975e-05
3.22314e-05
3.21157e-05
3.18324e-05
3.15719e-05
3.14069e-05
3.13975e-05
3.14248e-05
3.14432e-05
3.13927e-05
3.14696e-05
3.57881e-05
3.45944e-05
3.40585e-05
3.28832e-05
3.21512e-05
3.14725e-05
3.09442e-05
3.06408e-05
3.02318e-05
3.03327e-05
3.07299e-05
3.06627e-05
3.08408e-05
3.09636e-05
3.13412e-05
3.49884e-05
3.30375e-05
3.32307e-05
3.30965e-05
3.25445e-05
3.17375e-05
3.09834e-05
3.01993e-05
3.01321e-05
2.9355e-05
2.93098e-05
2.95787e-05
3.02158e-05
3.12981e-05
3.00034e-05
3.4119e-05
3.44022e-05
3.41928e-05
3.40718e-05
3.38721e-05
3.3572e-05
3.31506e-05
3.26041e-05
3.19496e-05
3.11315e-05
3.02951e-05
2.96057e-05
2.91644e-05
3.12397e-05
3.42628e-05
3.59015e-05
3.71556e-05
3.72805e-05
3.73731e-05
3.74088e-05
3.73203e-05
3.71944e-05
3.70301e-05
3.67331e-05
3.61341e-05
3.47986e-05
3.20171e-05
2.78884e-05
2.99786e-05
2.93127e-05
)
;
    }
    inlet
    {
        type            calculated;
        value           nonuniform List<scalar> 
15
(
-1299.9
-1300.2
-1299.9
-1299.9
-1300.2
-1299.9
-1299.9
-1300.2
-1299.9
-1299.9
-1300.2
-1299.9
-1299.9
-1300.2
-1299.9
)
;
    }
    inletWalls
    {
        type            calculated;
        value           uniform 0;
    }
    outletInlet
    {
        type            calculated;
        value           nonuniform List<scalar> 
15
(
6.52261e+07
1.06609e+08
-1.60412e+07
-7.39295e+07
-8.22377e+07
-7.35687e+07
-6.1183e+07
-4.8571e+07
-3.39679e+07
-1.58866e+07
-3.09341e+06
1.22739e+07
3.26446e+07
6.25472e+07
1.29231e+08
)
;
    }
}


// ************************************************************************* //
