/*--------------------------------*- C++ -*----------------------------------*\
| =========                 |                                                 |
| \\      /  F ield         | OpenFOAM: The Open Source CFD Toolbox           |
|  \\    /   O peration     | Version:  4.1                                   |
|   \\  /    A nd           | Web:      www.OpenFOAM.org                      |
|    \\/     M anipulation  |                                                 |
\*---------------------------------------------------------------------------*/
FoamFile
{
    version     2.0;
    format      ascii;
    class       volVectorField;
    location    "18";
    object      U;
}
// * * * * * * * * * * * * * * * * * * * * * * * * * * * * * * * * * * * * * //

dimensions      [0 1 -1 0 0 0 0];

internalField   nonuniform List<vector> 
6785
(
(1.70728e-14 0.684593 15.7418)
(1.71202e-14 -5.1303 12.0537)
(-2.10953e-15 -4.2925 12.1841)
(4.80303e-15 -3.72376 12.0221)
(1.36801e-15 -3.11932 11.901)
(-1.63268e-16 -2.66647 11.7153)
(4.70217e-16 -2.31762 11.4881)
(1.38946e-16 -2.07345 11.2168)
(-1.77596e-16 -1.90796 10.9139)
(2.06195e-15 -1.81722 10.5843)
(2.63014e-16 -1.92244 10.165)
(-1.23738e-15 -2.37181 9.5601)
(1.58138e-15 -2.68975 8.9698)
(-5.16698e-17 -1.33553 8.92614)
(-2.01077e-15 1.73303 7.64144)
(2.34066e-14 -5.63789 22.1818)
(1.70623e-14 -14.7671 21.3399)
(1.02382e-15 -13.2426 20.4984)
(7.34632e-15 -11.8214 19.622)
(3.47917e-15 -11.2269 18.5971)
(-2.34654e-16 -10.7092 17.6049)
(1.07203e-14 -10.1209 16.6522)
(2.51854e-15 -9.54483 15.6955)
(-1.1919e-16 -8.97909 14.7276)
(5.54303e-15 -8.37634 13.7518)
(1.96477e-15 -7.75127 12.7738)
(-1.02442e-15 -7.27677 11.7831)
(1.10399e-14 -7.01215 10.6939)
(1.35774e-15 -5.78425 8.97415)
(-1.94582e-15 -1.73327 4.85334)
(1.63768e-14 -7.896 22.1871)
(1.75524e-14 -16.7498 24.7015)
(1.65742e-15 -13.8114 23.9906)
(4.70555e-15 -12.4976 22.6551)
(3.85377e-15 -11.833 21.2611)
(-4.94711e-16 -10.989 20.0206)
(-3.01561e-16 -10.1074 18.7901)
(3.53532e-15 -9.26103 17.5387)
(-1.99893e-16 -8.43688 16.2753)
(1.43279e-15 -7.6202 15.0227)
(-3.46842e-15 -6.79708 13.8035)
(-1.28171e-15 -5.96863 12.4326)
(-3.31301e-15 -4.9913 10.3268)
(8.1322e-15 -3.27569 6.89101)
(-6.99066e-16 -0.662709 2.39985)
(1.90304e-14 -8.14304 17.9872)
(1.71852e-14 -16.3386 24.4549)
(-2.26485e-16 -13.436 23.9538)
(4.2801e-15 -12.5306 22.1185)
(6.69178e-15 -11.7971 20.614)
(-3.74988e-15 -10.8464 19.282)
(7.29171e-16 -9.96758 17.9219)
(5.46232e-15 -9.13809 16.5571)
(1.31298e-15 -8.34534 15.2039)
(1.1261e-15 -7.5964 13.8758)
(4.30909e-16 -6.83602 12.5326)
(-3.20546e-16 -5.87468 10.8638)
(-3.37103e-15 -4.38642 8.19797)
(-5.28256e-15 -2.2447 3.97651)
(1.91834e-14 0.0133718 -1.35144)
(1.45095e-14 -7.32276 13.9175)
(1.59235e-14 -15.3603 23.7138)
(4.32638e-15 -13.9044 24.0465)
(2.3338e-15 -13.0906 21.9523)
(3.65142e-15 -12.299 20.3346)
(-1.51592e-15 -11.3795 18.9613)
(-8.7178e-16 -10.5628 17.5518)
(-6.43395e-15 -9.76987 16.149)
(6.17365e-15 -8.98438 14.776)
(5.82303e-16 -8.22672 13.4374)
(6.59934e-15 -7.4612 12.0839)
(-6.53525e-15 -6.51695 10.4499)
(-7.66861e-15 -5.04628 8.04582)
(-5.99274e-15 -3.17218 4.57041)
(-2.34295e-14 -1.17681 1.48098)
(1.03106e-14 -6.12249 10.8686)
(1.75938e-14 -14.1691 22.6784)
(5.00525e-15 -14.3397 24.3342)
(2.50061e-15 -13.5262 22.468)
(-3.11905e-15 -12.5721 20.7483)
(-3.39793e-15 -11.6374 19.3226)
(-8.90103e-16 -10.8164 17.9)
(-4.24312e-15 -9.99747 16.4885)
(9.58669e-15 -9.17143 15.1057)
(3.83578e-16 -8.36547 13.756)
(-5.11785e-15 -7.55832 12.4009)
(-9.9132e-15 -6.63334 10.8191)
(-8.20479e-15 -5.23899 8.63789)
(-1.24961e-14 -3.66686 5.60095)
(-2.8984e-14 -1.44502 3.03282)
(2.17455e-14 -5.11848 8.8368)
(2.24237e-14 -13.0048 21.5835)
(1.04404e-14 -14.2992 24.2376)
(3.99558e-15 -13.581 22.8798)
(-1.37914e-15 -12.5395 21.1361)
(7.72933e-15 -11.6019 19.6451)
(-4.16708e-16 -10.7718 18.2086)
(-1.76414e-15 -9.93317 16.7932)
(9.68535e-15 -9.0939 15.4006)
(-6.78013e-16 -8.28051 14.0382)
(5.23895e-15 -7.46972 12.6756)
(-1.0984e-15 -6.57728 11.0963)
(-6.00069e-15 -5.18744 8.98854)
(-1.45542e-14 -3.93037 6.09294)
(5.25031e-16 -1.52241 3.98059)
(1.28609e-14 -4.6446 8.04133)
(1.98811e-14 -12.2087 20.8484)
(1.60317e-14 -14.0425 23.8096)
(4.85014e-15 -13.4645 23.0221)
(-1.06135e-15 -12.4668 21.3215)
(2.03552e-15 -11.5572 19.7834)
(-2.45382e-16 -10.728 18.3371)
(-1.5933e-15 -9.88928 16.9191)
(-2.56289e-15 -9.05895 15.5197)
(-8.33557e-16 -8.25582 14.1501)
(-8.05583e-15 -7.44913 12.7807)
(1.63884e-15 -6.57401 11.1704)
(-4.64183e-15 -5.10089 9.06277)
(-1.12588e-14 -4.06822 6.15406)
(4.32979e-15 -1.53687 4.35084)
(1.31517e-14 -4.52654 7.88943)
(2.08221e-14 -11.7361 20.3712)
(1.62415e-14 -13.8027 23.2616)
(6.37755e-15 -13.3746 23.0314)
(1.45637e-15 -12.4899 21.4167)
(5.31633e-15 -11.5969 19.8589)
(5.28006e-16 -10.7596 18.4108)
(-1.38357e-15 -9.92212 16.9926)
(-2.35176e-15 -9.09801 15.5902)
(2.40757e-15 -8.29902 14.2185)
(-2.66888e-15 -7.48607 12.8445)
(3.59926e-15 -6.61812 11.1865)
(-4.31481e-15 -5.03085 9.06702)
(-1.10836e-14 -4.2122 6.19916)
(-1.58263e-14 -1.60818 4.64321)
(5.21773e-15 -4.46074 7.67217)
(1.9043e-14 -11.3821 19.9149)
(1.31912e-14 -13.6214 22.7577)
(9.3431e-15 -13.3428 23.0084)
(1.28335e-15 -12.5831 21.5121)
(-1.56698e-15 -11.6841 19.9523)
(2.69405e-15 -10.8297 18.502)
(-1.47704e-15 -9.99025 17.0827)
(-3.63564e-15 -9.16557 15.6795)
(-1.0799e-14 -8.36477 14.3067)
(-6.36287e-15 -7.5377 12.9288)
(1.6887e-15 -6.67395 11.2151)
(-2.32658e-15 -4.9801 9.08617)
(-6.60896e-15 -4.37245 6.32407)
(-1.67462e-14 -1.73282 4.98073)
(1.75298e-15 -4.29343 7.18259)
(1.36359e-14 -11.0048 19.3715)
(7.97119e-15 -13.4556 22.3499)
(6.53216e-16 -13.335 23.0066)
(2.34687e-15 -12.6989 21.6572)
(-2.8126e-15 -11.7892 20.1025)
(-3.86413e-15 -10.9168 18.6391)
(-1.7046e-16 -10.0732 17.2116)
(-4.15375e-16 -9.2433 15.8035)
(-1.64566e-14 -8.43842 14.4235)
(3.56663e-15 -7.59068 13.0382)
(-8.35143e-17 -6.73121 11.2665)
(-1.44772e-14 -4.94939 9.12628)
(-4.24806e-15 -4.52576 6.47215)
(-2.0409e-14 -1.85769 5.31476)
(-3.9955e-15 -4.07165 6.61246)
(2.1467e-14 -10.5957 18.8348)
(8.81955e-15 -13.2349 22.009)
(7.75635e-16 -13.2393 22.9845)
(-7.5385e-16 -12.7073 21.7697)
(-7.64377e-15 -11.7901 20.2398)
(-4.41315e-15 -10.9133 18.7738)
(-2.25998e-15 -10.0722 17.3421)
(-1.90796e-14 -9.24268 15.9337)
(-3.08891e-15 -8.44189 14.5481)
(3.81598e-15 -7.58019 13.1454)
(-2.5092e-14 -6.71406 11.2981)
(-1.15541e-14 -4.86782 9.15366)
(-3.56597e-14 -4.66929 6.6477)
(-3.0715e-14 -1.97403 5.61613)
(-1.65401e-14 -4.0621 6.51167)
(1.80466e-14 -10.3763 18.6199)
(3.51147e-15 -13.1539 21.8707)
(2.05495e-15 -13.2682 23.1437)
(5.30547e-15 -12.8499 22.0051)
(-1.33557e-14 -11.903 20.4532)
(-8.44187e-15 -10.9956 18.9204)
(6.78929e-15 -10.1229 17.4432)
(-2.02068e-14 -9.2582 15.9893)
(-6.01824e-15 -8.43349 14.5559)
(1.20085e-15 -7.5148 13.1154)
(-3.01793e-14 -6.65167 11.147)
(-1.30344e-14 -4.63929 8.93137)
(-2.74501e-14 -4.60608 6.43)
(-2.5988e-14 -1.92191 5.6042)
(-6.65423e-15 -3.8536 6.22075)
(1.1522e-14 -9.71221 18.0509)
(1.86158e-15 -12.3052 21.4834)
(-9.64067e-16 -12.4178 22.8121)
(9.84241e-16 -12.0546 21.88)
(-1.21011e-14 -11.2037 20.5302)
(-4.4834e-15 -10.3936 19.1573)
(5.27689e-16 -9.60285 17.7424)
(-1.51908e-14 -8.8074 16.3499)
(-2.4249e-15 -8.0331 14.9371)
(-6.97012e-15 -7.18923 13.4015)
(-2.70095e-14 -6.22041 11.3294)
(-1.24699e-14 -4.64243 9.14835)
(-3.16521e-14 -4.7323 7.13801)
(-2.5253e-14 -1.93086 5.79565)
(-7.929e-15 -7.13098 13.7486)
(1.13568e-14 -12.7672 22.6096)
(3.02349e-16 -14.8087 24.3628)
(-8.15111e-16 -14.5023 24.9994)
(-2.55213e-15 -13.6323 22.8716)
(-1.04761e-14 -11.9824 20.7249)
(-1.77968e-15 -10.6137 18.5144)
(-2.25149e-15 -9.28175 16.6974)
(-1.13004e-14 -8.0827 14.8517)
(-5.6769e-15 -6.95482 13.0503)
(-1.80964e-14 -5.60929 10.7955)
(-2.3565e-14 -4.05501 8.09312)
(-2.28769e-14 -2.4441 5.59838)
(-3.50252e-14 -1.9744 3.32114)
(-1.12078e-14 -0.317738 1.4599)
(-2.81947e-15 0.116783 -1.44955)
(-3.88658e-15 0.332977 -2.24823)
(-2.80639e-15 0.477759 -1.50109)
(-2.82873e-15 0.680849 -1.46224)
(-2.74669e-15 0.756505 -1.37254)
(-4.00171e-15 1.20266 -2.11881)
(-2.96603e-15 1.12407 -1.41428)
(-2.76339e-15 1.34227 -1.38746)
(-2.16999e-15 1.39046 -1.30816)
(-1.80438e-15 1.95985 -1.96334)
(-1.40864e-15 1.73635 -1.32169)
(-1.39171e-15 1.87902 -1.22262)
(-2.29474e-15 2.6709 -1.77611)
(-1.57104e-15 2.1795 -1.18673)
(-1.49069e-15 2.41095 -1.16798)
(-1.27222e-15 2.40301 -1.11344)
(-1.96281e-15 3.18048 -1.55186)
(-1.00169e-15 2.63912 -1.04861)
(-7.99823e-16 2.74808 -0.985216)
(-1.35322e-15 3.75303 -1.30749)
(-8.86481e-16 2.92938 -0.87773)
(-9.18106e-16 3.17378 -0.863462)
(-5.13658e-16 3.11384 -0.835753)
(-1.08176e-15 4.07405 -1.05219)
(-7.14191e-16 3.17712 -0.709367)
(-6.61763e-16 3.46033 -0.690927)
(-8.93872e-16 3.38505 -0.675942)
(-1.57863e-15 4.29814 -0.788188)
(-1.43033e-15 3.39513 -0.529507)
(-1.35496e-15 3.47636 -0.513999)
(-2.13317e-15 4.61352 -0.501989)
(-1.81065e-15 3.45982 -0.333281)
(-1.7885e-15 3.68983 -0.321452)
(-1.96207e-15 3.59208 -0.334102)
(-3.02502e-15 4.51798 -0.230853)
(-2.22495e-15 3.48037 -0.144628)
(-2.07086e-15 3.54588 -0.167204)
(-3.11489e-15 4.63516 0.0601166)
(-2.21365e-15 3.39104 0.0535762)
(-2.26891e-15 3.60191 0.0580484)
(-1.89788e-15 3.48861 0.0199259)
(-2.80885e-15 4.37058 0.334663)
(-1.97833e-15 3.20004 0.236825)
(-1.9686e-15 3.44973 0.242285)
(-1.88059e-15 3.34223 0.193947)
(-2.67144e-15 4.04295 0.58115)
(-2.26806e-15 2.99288 0.421969)
(-2.12592e-15 3.05298 0.357974)
(-3.21517e-15 3.87791 0.849558)
(-1.90083e-15 2.71413 0.591028)
(-1.86637e-15 2.86779 0.588699)
(-1.77775e-15 2.76232 0.521989)
(-2.59884e-15 3.29988 1.06803)
(-1.78028e-15 2.29361 0.724872)
(-1.84698e-15 2.47246 0.723413)
(-1.3984e-15 2.37785 0.653354)
(-1.98714e-15 2.70962 1.23482)
(-1.21459e-15 1.86023 0.845609)
(-1.5813e-15 1.92534 0.757904)
(-2.21633e-15 2.25833 1.39534)
(-1.51193e-15 1.41173 0.922387)
(-1.43253e-15 1.48936 0.913901)
(-1.51937e-15 1.42396 0.84581)
(7.62258e-16 1.47473 1.47132)
(1.42941e-15 0.840277 0.95957)
(1.36125e-15 0.923558 0.876916)
(1.9107e-15 0.873597 1.47009)
(-6.35969e-16 0.325696 0.925958)
(-6.29632e-16 0.361378 0.927935)
(-7.18993e-16 0.358332 0.921518)
(-2.18253e-15 0.10239 1.63315)
(-3.95806e-15 -0.262571 1.40788)
(-5.33007e-15 -0.267259 1.66128)
(-6.59533e-15 -0.302504 1.90351)
(-4.7186e-15 -0.894856 3.14085)
(-3.86474e-15 -1.04899 2.51019)
(-5.69604e-15 -1.07089 2.67585)
(-9.87174e-15 -1.85953 4.08085)
(-8.43167e-15 -2.01247 3.23734)
(-9.27052e-15 -2.10755 3.50033)
(-1.18968e-14 -2.25197 4.1649)
(-1.18827e-14 -2.34423 4.3765)
(-1.18584e-14 -2.67876 4.64251)
(-1.3078e-14 -3.00484 6.70267)
(-1.72813e-14 -2.94156 6.29341)
(-1.94796e-14 -3.25821 6.75498)
(-1.98509e-14 -3.24713 6.97922)
(-1.94035e-14 -3.30719 7.19173)
(-1.90919e-14 -3.34401 7.428)
(-1.8633e-14 -3.35444 7.6973)
(-1.75517e-14 -3.45925 8.09429)
(-1.61459e-14 -3.74944 8.56434)
(-1.3846e-14 -3.94852 10.5525)
(-1.52961e-14 -4.15331 10.1735)
(-1.48857e-14 -4.35938 10.4991)
(-1.46483e-14 -4.3207 10.7497)
(-1.43661e-14 -4.48995 11.3077)
(-1.41123e-14 -4.43766 11.4389)
(-1.37875e-14 -4.45675 11.6981)
(-1.34119e-14 -4.5225 11.9637)
(-1.2754e-14 -4.76455 12.2828)
(-7.20709e-15 -4.89567 14.7574)
(-7.88398e-15 -5.27907 14.3584)
(-7.22911e-15 -5.40799 14.6356)
(-6.70298e-15 -5.43839 14.8237)
(-6.06464e-15 -5.4701 15.0729)
(-4.81659e-15 -5.5156 15.4372)
(-3.47217e-15 -5.58359 15.8344)
(-3.63499e-15 -5.524 15.9904)
(-3.43912e-15 -5.58389 16.2382)
(-3.31859e-15 -5.80785 16.507)
(-3.04295e-15 -5.62494 18.5633)
(-4.50983e-15 -6.34953 18.1812)
(-4.28372e-15 -6.39015 18.4285)
(-4.11589e-15 -6.43483 18.6002)
(-3.86993e-15 -6.4826 18.8188)
(-3.517e-15 -6.48464 19.0737)
(-2.44879e-15 -6.50981 19.4913)
(-2.20583e-15 -6.51288 19.738)
(-2.28936e-15 -6.71691 19.9369)
(-2.97075e-15 -6.29767 21.3863)
(-3.03793e-15 -7.197 20.7894)
(-3.10019e-15 -7.16446 21.1678)
(-3.21765e-15 -7.23665 21.4515)
(-3.3932e-15 -7.2042 21.5669)
(-3.55305e-15 -7.2393 21.7496)
(-3.76524e-15 -7.20451 21.9428)
(-4.13675e-15 -7.16294 22.198)
(-5.40003e-15 -7.39203 22.6931)
(-2.40684e-15 -6.263 22.843)
(-2.88994e-15 -7.63251 22.3485)
(-2.42442e-15 -7.48124 22.4633)
(-2.01175e-15 -7.48901 22.5531)
(-9.75841e-16 -7.51503 22.8109)
(-6.08466e-16 -7.45768 22.8436)
(-4.89809e-16 -7.37519 22.7935)
(-3.03372e-16 -7.31607 22.7415)
(-1.42795e-16 -7.25333 22.6389)
(1.04234e-15 -5.6779 21.1539)
(1.54011e-15 -7.03447 21.0486)
(1.54931e-15 -6.70068 20.7403)
(1.59671e-15 -6.753 20.4856)
(1.65776e-15 -6.66504 20.1514)
(1.68185e-15 -6.57523 19.757)
(1.74417e-15 -6.48733 19.2332)
(1.68928e-15 -6.37679 18.8087)
(1.73358e-15 -6.23083 18.2421)
(1.73044e-15 -5.89712 17.5592)
(1.53561e-15 -3.43702 12.5654)
(2.34732e-15 -4.9154 13.6878)
(2.28889e-15 -4.27564 12.6206)
(1.70056e-15 -4.31561 11.9079)
(1.11623e-15 -4.07827 10.9393)
(2.67394e-16 -4.04245 9.76975)
(-1.66878e-15 -3.93912 8.02568)
(-3.59364e-15 -3.51861 6.29851)
(-2.79829e-15 -3.12038 5.76328)
(-4.32839e-16 -2.30249 1.78402)
(-2.28967e-15 -2.78697 3.45121)
(-1.5955e-15 -2.10627 1.97418)
(1.00654e-15 -1.08517 -1.8872)
(-1.16813e-16 -2.99052 -0.0271388)
(-3.35443e-17 -2.31059 -0.404842)
(-5.07017e-17 -2.07108 -0.162109)
(7.38979e-17 -2.76627 -0.184408)
(2.13859e-16 -1.90719 -0.0821255)
(2.84265e-16 -2.82412 -0.0461866)
(3.77085e-16 -2.56268 0.00230025)
(3.39861e-16 -2.07576 0.0190857)
(5.19538e-16 -2.97353 0.0863508)
(4.63626e-16 -2.80005 0.0720626)
(3.8592e-16 -2.39287 0.0853781)
(5.18728e-16 -3.29533 0.142849)
(4.73574e-16 -2.24174 0.100093)
(3.06849e-16 -3.35128 0.183872)
(5.50828e-16 -3.10934 0.125287)
(4.24237e-16 -2.69153 0.117858)
(6.42303e-16 -3.67868 0.177765)
(4.89692e-16 -2.52619 0.123789)
(7.57958e-16 -3.77971 0.201242)
(6.41151e-16 -3.44589 0.133777)
(4.98709e-16 -2.69383 0.0989329)
(7.65442e-16 -3.81332 0.155989)
(6.24034e-16 -3.59731 0.0892672)
(5.10339e-16 -3.16236 0.0831441)
(7.10999e-16 -4.27402 0.130778)
(4.80925e-16 -2.83659 0.0811336)
(8.23878e-16 -4.13354 0.1334)
(8.21366e-16 -3.81417 0.0571167)
(5.99399e-16 -3.36252 0.0471785)
(8.48278e-16 -4.53835 0.0862954)
(5.99555e-16 -3.10415 0.0479176)
(9.18828e-16 -4.59692 0.0795217)
(8.19871e-16 -4.19988 0.0134802)
(6.38596e-16 -3.23936 0.000262905)
(9.46457e-16 -4.43487 -0.00178211)
(7.98751e-16 -4.15121 -0.0595203)
(6.47248e-16 -3.69824 -0.039433)
(9.06183e-16 -4.97782 -0.0340894)
(6.45958e-16 -3.31003 -0.0377328)
(9.89473e-16 -4.69438 -0.0514081)
(8.43394e-16 -4.27671 -0.107985)
(6.76934e-16 -3.75755 -0.0869277)
(9.37166e-16 -5.06104 -0.103482)
(6.62222e-16 -3.42679 -0.0919598)
(1.02133e-15 -5.04334 -0.133816)
(8.60278e-16 -4.57364 -0.181975)
(6.77802e-16 -3.52574 -0.154643)
(1.01461e-15 -4.76391 -0.244394)
(8.63384e-16 -4.37942 -0.28431)
(6.88035e-16 -3.85213 -0.225456)
(8.89537e-16 -5.1885 -0.304543)
(5.62846e-16 -3.41841 -0.245726)
(1.25317e-15 -4.828 -0.375982)
(9.34847e-16 -4.30889 -0.417287)
(7.46171e-16 -3.72628 -0.348111)
(1.0135e-15 -5.00563 -0.484034)
(7.27241e-16 -3.31515 -0.388884)
(1.10394e-15 -4.8514 -0.597626)
(9.25564e-16 -4.29681 -0.625268)
(7.57813e-16 -3.27672 -0.532478)
(1.15446e-15 -4.41063 -0.829267)
(9.30801e-16 -3.93797 -0.831374)
(7.86767e-16 -3.36274 -0.683134)
(1.12421e-15 -4.45901 -0.977733)
(7.4704e-16 -2.84973 -0.750837)
(1.18844e-15 -4.00314 -1.1897)
(7.90719e-16 -3.41629 -1.14808)
(7.39794e-16 -2.83113 -0.94955)
(1.05862e-15 -3.70262 -1.37754)
(7.26371e-16 -2.25372 -1.04515)
(1.08662e-15 -3.29335 -1.67467)
(1.23641e-15 -2.68894 -1.58847)
(8.15032e-16 -1.85794 -1.34705)
(4.89177e-16 -2.5434 -2.10526)
(8.62225e-16 -1.95715 -1.96379)
(7.54598e-16 -1.36716 -1.63416)
(1.45279e-15 -1.9845 -2.35925)
(7.24505e-16 -0.477095 -1.8154)
(1.13805e-15 -1.28568 -2.88712)
(-5.4547e-15 -0.166594 4.78065)
(-5.45529e-15 -0.177524 4.79368)
(-5.45569e-15 -0.180426 4.80148)
(-5.45618e-15 -0.184742 4.81108)
(-5.45669e-15 -0.189688 4.82111)
(-5.45725e-15 -0.195759 4.83197)
(-5.45785e-15 -0.203134 4.84372)
(-5.4585e-15 -0.212095 4.85649)
(-5.4592e-15 -0.222851 4.87042)
(-5.45997e-15 -0.235601 4.88566)
(-5.46081e-15 -0.250497 4.90241)
(-5.46173e-15 -0.267886 4.9209)
(-5.46274e-15 -0.288329 4.94138)
(-5.46385e-15 -0.312389 4.96426)
(-5.46507e-15 -0.340331 4.98993)
(-5.46641e-15 -0.372654 5.01888)
(-5.46788e-15 -0.410035 5.0517)
(-5.46949e-15 -0.453153 5.08912)
(-5.47123e-15 -0.502725 5.13211)
(-5.47309e-15 -0.559447 5.18179)
(-5.47503e-15 -0.624111 5.23964)
(-5.47698e-15 -0.698083 5.30731)
(-5.47878e-15 -0.782517 5.38688)
(-5.48021e-15 -0.879089 5.48101)
(-5.48086e-15 -0.989583 5.59306)
(-5.48008e-15 -1.11623 5.72735)
(-5.47682e-15 -1.2621 5.88909)
(-5.46945e-15 -1.43093 6.08489)
(-5.45548e-15 -1.62755 6.32283)
(-5.4312e-15 -1.85823 6.61246)
(-5.39135e-15 -2.13068 6.96486)
(-5.32879e-15 -2.45432 7.39204)
(-5.2345e-15 -2.84004 7.90601)
(-5.09828e-15 -3.2995 8.51706)
(-4.91032e-15 -3.84368 9.23114)
(-4.66431e-15 -4.48035 10.0464)
(-4.36169e-15 -5.21038 10.9489)
(-4.01609e-15 -6.02256 11.9067)
(-3.65566e-15 -6.88717 12.8656)
(-3.32003e-15 -7.75023 13.7481)
(-3.05089e-15 -8.53265 14.4649)
(-2.8802e-15 -9.14448 14.9491)
(-2.82749e-15 -9.52855 15.2188)
(-2.91644e-15 -9.73864 15.4418)
(-3.19884e-15 -10.0025 15.9285)
(-3.74155e-15 -10.642 16.9599)
(-4.55367e-15 -11.8193 18.5381)
(-5.52153e-15 -13.3709 20.3264)
(-6.42376e-15 -14.9029 21.8316)
(-7.01034e-15 -15.9891 22.6077)
(-7.08948e-15 -16.3185 22.3721)
(-6.56287e-15 -15.7512 21.036)
(-5.37866e-15 -14.2104 18.5913)
(-3.47513e-15 -11.4128 14.6316)
(-1.00566e-15 -7.21636 8.10715)
(9.60122e-16 -3.11717 0.170259)
(6.00144e-16 -1.55034 -0.638939)
(2.16783e-16 -0.170652 -4.66256)
(2.25001e-16 0.619639 -7.67414)
(3.50861e-16 0.56361 -8.82189)
(4.81476e-16 0.457147 -9.42356)
(6.36168e-16 0.770888 -9.11292)
(8.36183e-16 1.03242 -7.47773)
(1.0399e-15 1.10358 -5.7617)
(1.22688e-15 1.17992 -4.44457)
(1.48334e-15 1.07958 -2.22609)
(1.65668e-15 1.78872 -0.384013)
(1.69538e-15 -0.29738 0.167544)
(1.68364e-15 -1.09309 0.158512)
(1.6477e-15 -1.47702 -0.221528)
(1.65489e-15 -0.838816 -0.325712)
(1.98377e-15 0.617162 0.464232)
(2.11441e-15 -0.228376 1.15768)
(2.09036e-15 -1.01413 1.09969)
(2.1346e-15 -1.5411 0.992513)
(2.24883e-15 -1.5697 0.819179)
(2.31918e-15 -0.82002 0.583373)
(2.22313e-15 0.265706 0.0845694)
(1.15627e-15 -5.72231 -1.72137)
(-5.45616e-15 -0.176338 4.81024)
(-5.45685e-15 -0.184302 4.82689)
(-5.45732e-15 -0.186377 4.83561)
(-5.45788e-15 -0.190153 4.84703)
(-5.45846e-15 -0.19455 4.85865)
(-5.45909e-15 -0.200305 4.87119)
(-5.45977e-15 -0.207383 4.88463)
(-5.46049e-15 -0.216096 4.8991)
(-5.46127e-15 -0.226615 4.91474)
(-5.46211e-15 -0.239174 4.93171)
(-5.46301e-15 -0.253988 4.95022)
(-5.46399e-15 -0.271722 4.97054)
(-5.46505e-15 -0.292744 4.99303)
(-5.4662e-15 -0.317446 5.01805)
(-5.46745e-15 -0.346366 5.04603)
(-5.4688e-15 -0.380112 5.07742)
(-5.47027e-15 -0.41919 5.1129)
(-5.47183e-15 -0.46419 5.15323)
(-5.47349e-15 -0.515917 5.19944)
(-5.4752e-15 -0.575228 5.25272)
(-5.4769e-15 -0.643103 5.31475)
(-5.47849e-15 -0.721129 5.3871)
(-5.47977e-15 -0.810492 5.47213)
(-5.48043e-15 -0.912866 5.57264)
(-5.47998e-15 -1.03022 5.69219)
(-5.47761e-15 -1.16515 5.83528)
(-5.47211e-15 -1.32098 6.0074)
(-5.4616e-15 -1.50172 6.21538)
(-5.44327e-15 -1.71249 6.46747)
(-5.41307e-15 -1.95996 6.77328)
(-5.36538e-15 -2.25203 7.14379)
(-5.29281e-15 -2.59818 7.59064)
(-5.18635e-15 -3.00896 8.1251)
(-5.03626e-15 -3.49509 8.75631)
(-4.83394e-15 -4.06573 9.48856)
(-4.57517e-15 -4.7256 10.3178)
(-4.26423e-15 -5.471 11.227)
(-3.9178e-15 -6.28434 12.181)
(-3.56603e-15 -7.12813 13.1216)
(-3.24823e-15 -7.94101 13.9691)
(-3.00311e-15 -8.64161 14.6362)
(-2.85915e-15 -9.15099 15.0676)
(-2.83636e-15 -9.44493 15.3062)
(-2.96535e-15 -9.62861 15.5543)
(-3.30391e-15 -9.96412 16.1367)
(-3.90845e-15 -10.7374 17.291)
(-4.76028e-15 -12.0149 18.9325)
(-5.7218e-15 -13.5615 20.6683)
(-6.56742e-15 -14.9826 22.0111)
(-7.06106e-15 -15.8987 22.5621)
(-7.03088e-15 -16.055 22.0984)
(-6.38723e-15 -15.3367 20.5678)
(-5.06669e-15 -13.6033 17.888)
(-3.01702e-15 -10.5083 13.533)
(-5.25804e-16 -6.30515 7.01971)
(1.1176e-15 -3.1176 0.502863)
(2.90737e-16 -1.23662 -1.64459)
(4.82335e-17 0.988704 -7.32396)
(2.4334e-16 1.56262 -9.28073)
(4.38262e-16 1.22183 -9.49382)
(5.74402e-16 0.769751 -9.26471)
(6.84051e-16 0.590296 -8.67121)
(7.94783e-16 0.68074 -7.70743)
(9.67525e-16 0.783977 -6.25346)
(1.1645e-15 0.883026 -4.79724)
(1.44086e-15 0.797891 -2.62617)
(1.63819e-15 1.5319 -0.74434)
(1.69508e-15 0.00615366 0.192605)
(1.68344e-15 -0.981149 0.118949)
(1.64791e-15 -1.39217 -0.222623)
(1.65335e-15 -0.742559 -0.349723)
(1.95889e-15 0.324728 0.284101)
(2.11429e-15 -0.21107 1.03826)
(2.09259e-15 -1.06808 1.0555)
(2.14478e-15 -1.57546 0.969678)
(2.25942e-15 -1.58213 0.797186)
(2.3218e-15 -0.762715 0.540636)
(2.15795e-15 0.706352 0.0833839)
(1.18334e-15 -5.44871 -1.63071)
(-5.45826e-15 -0.177753 4.8578)
(-5.45904e-15 -0.184856 4.87639)
(-5.45957e-15 -0.187233 4.88672)
(-5.46019e-15 -0.191516 4.89987)
(-5.46084e-15 -0.196384 4.91319)
(-5.46154e-15 -0.202731 4.9275)
(-5.46228e-15 -0.210407 4.94279)
(-5.46307e-15 -0.219675 4.95918)
(-5.4639e-15 -0.230678 4.97675)
(-5.4648e-15 -0.243701 4.9957)
(-5.46576e-15 -0.259325 5.01623)
(-5.46678e-15 -0.277916 5.03869)
(-5.46788e-15 -0.299429 5.06356)
(-5.46905e-15 -0.325327 5.09108)
(-5.47031e-15 -0.355691 5.12177)
(-5.47164e-15 -0.391153 5.15612)
(-5.47305e-15 -0.431967 5.19489)
(-5.47451e-15 -0.478786 5.23891)
(-5.476e-15 -0.532402 5.28925)
(-5.47745e-15 -0.593886 5.34717)
(-5.47877e-15 -0.664435 5.41446)
(-5.47979e-15 -0.745698 5.49289)
(-5.48026e-15 -0.838826 5.58499)
(-5.47977e-15 -0.945513 5.69381)
(-5.47768e-15 -1.06798 5.82308)
(-5.47303e-15 -1.20913 5.97752)
(-5.46434e-15 -1.37257 6.16291)
(-5.44942e-15 -1.56262 6.38632)
(-5.42509e-15 -1.78474 6.6561)
(-5.38689e-15 -2.04587 6.98185)
(-5.32882e-15 -2.35417 7.3743)
(-5.24329e-15 -2.71918 7.84448)
(-5.12143e-15 -3.15114 8.40262)
(-4.95428e-15 -3.65996 9.05629)
(-4.73497e-15 -4.25322 9.80755)
(-4.46199e-15 -4.93316 10.6494)
(-4.14312e-15 -5.69238 11.5611)
(-3.79844e-15 -6.50839 12.5029)
(-3.45991e-15 -7.33822 13.4128)
(-3.16576e-15 -8.11654 14.2098)
(-2.95085e-15 -8.76405 14.8128)
(-2.84034e-15 -9.21674 15.1867)
(-2.85654e-15 -9.48266 15.4094)
(-3.03872e-15 -9.70558 15.7186)
(-3.4483e-15 -10.1554 16.4364)
(-4.1243e-15 -11.0635 17.7317)
(-5.01466e-15 -12.4126 19.4279)
(-5.95725e-15 -13.9187 21.0862)
(-6.72542e-15 -15.1904 22.2327)
(-7.10144e-15 -15.8842 22.5171)
(-6.93455e-15 -15.7886 21.777)
(-6.13674e-15 -14.801 19.9823)
(-4.62877e-15 -12.7233 16.9426)
(-2.42917e-15 -9.22757 12.0423)
(-1.74954e-16 -4.9092 5.56889)
(7.35812e-16 -2.00758 1.03138)
(-1.57127e-16 0.353953 -5.13916)
(7.38872e-18 1.84688 -8.99168)
(3.05965e-16 1.863 -9.70787)
(5.01545e-16 1.29394 -9.39744)
(6.15107e-16 0.769489 -8.9743)
(6.97528e-16 0.57626 -8.40444)
(7.97594e-16 0.574919 -7.45669)
(9.49149e-16 0.634515 -6.14705)
(1.13408e-15 0.696167 -4.81384)
(1.40317e-15 0.640016 -2.86487)
(1.6062e-15 1.29925 -1.14471)
(1.69478e-15 -0.125123 0.124077)
(1.68318e-15 -0.986131 0.106361)
(1.64812e-15 -1.37111 -0.203134)
(1.65144e-15 -0.793454 -0.323075)
(1.94755e-15 0.243782 0.176808)
(2.11304e-15 -0.36436 0.91924)
(2.09672e-15 -1.11117 0.996176)
(2.15843e-15 -1.57058 0.929942)
(2.27221e-15 -1.55345 0.76389)
(2.31642e-15 -0.70493 0.469325)
(2.12953e-15 0.789117 -0.0518223)
(1.22252e-15 -5.1751 -1.52084)
(-5.46097e-15 -0.178628 4.92002)
(-5.46179e-15 -0.185483 4.93976)
(-5.46235e-15 -0.188037 4.95144)
(-5.46301e-15 -0.192569 4.96584)
(-5.46369e-15 -0.197634 4.98048)
(-5.46442e-15 -0.204016 4.99619)
(-5.46519e-15 -0.211781 5.01299)
(-5.466e-15 -0.221148 5.03106)
(-5.46686e-15 -0.23235 5.05055)
(-5.46778e-15 -0.245689 5.07163)
(-5.46874e-15 -0.261751 5.09448)
(-5.46976e-15 -0.280644 5.11936)
(-5.47085e-15 -0.302794 5.14669)
(-5.47198e-15 -0.329494 5.17682)
(-5.47318e-15 -0.360695 5.21038)
(-5.47442e-15 -0.396808 5.24798)
(-5.47568e-15 -0.438396 5.29038)
(-5.47694e-15 -0.48614 5.3385)
(-5.47814e-15 -0.540932 5.39344)
(-5.47919e-15 -0.604007 5.4565)
(-5.47995e-15 -0.676551 5.52953)
(-5.4802e-15 -0.760248 5.6148)
(-5.47959e-15 -0.85634 5.71485)
(-5.47761e-15 -0.966654 5.83297)
(-5.47347e-15 -1.09357 5.97305)
(-5.46599e-15 -1.24016 6.14006)
(-5.45343e-15 -1.41027 6.34)
(-5.43327e-15 -1.60861 6.58013)
(-5.40195e-15 -1.84086 6.86885)
(-5.35462e-15 -2.11403 7.21567)
(-5.28497e-15 -2.43644 7.63092)
(-5.18531e-15 -2.81739 8.12485)
(-5.04712e-15 -3.26669 8.70647)
(-4.86254e-15 -3.79325 9.38153)
(-4.6267e-15 -4.40296 10.1496)
(-4.34107e-15 -5.09546 11.0005)
(-4.01699e-15 -5.85976 11.9092)
(-3.67756e-15 -6.66901 12.8315)
(-3.3558e-15 -7.47607 13.7017)
(-3.088e-15 -8.21438 14.4392)
(-2.90508e-15 -8.81127 14.9738)
(-2.83016e-15 -9.22274 15.2958)
(-2.88992e-15 -9.48992 15.5226)
(-3.13211e-15 -9.78382 15.9213)
(-3.61688e-15 -10.3593 16.7918)
(-4.36036e-15 -11.38 18.2196)
(-5.27761e-15 -12.7586 19.9428)
(-6.18694e-15 -14.1905 21.4919)
(-6.86528e-15 -15.3091 22.4158)
(-7.11454e-15 -15.8139 22.4176)
(-6.80044e-15 -15.527 21.3921)
(-5.83129e-15 -14.3291 19.304)
(-4.13527e-15 -11.9604 15.8396)
(-1.87039e-15 -8.18994 10.4244)
(-4.74063e-18 -3.99095 3.84471)
(-3.27391e-16 -1.66847 0.0072549)
(-3.21541e-16 1.46984 -7.36803)
(5.67344e-17 2.39558 -9.71279)
(3.9116e-16 2.03923 -9.61474)
(5.77954e-16 1.30863 -8.9458)
(6.75775e-16 0.698598 -8.34925)
(7.31228e-16 0.43138 -7.80807)
(8.15219e-16 0.40559 -7.01893)
(9.52809e-16 0.462273 -5.88203)
(1.12058e-15 0.503515 -4.7186)
(1.37707e-15 0.462722 -2.96808)
(1.57296e-15 1.0882 -1.43515)
(1.69445e-15 -0.15504 0.0822531)
(1.68288e-15 -0.960684 0.0970849)
(1.64832e-15 -1.33374 -0.185572)
(1.64898e-15 -0.809981 -0.298306)
(1.93716e-15 0.126268 0.0909398)
(2.11099e-15 -0.445811 0.834486)
(2.10333e-15 -1.13485 0.936552)
(2.17409e-15 -1.5417 0.880847)
(2.28029e-15 -1.4794 0.728408)
(2.28885e-15 -0.565407 0.381962)
(2.09917e-15 0.878231 -0.223313)
(1.25832e-15 -4.95132 -1.35563)
(-5.46421e-15 -0.180935 4.99684)
(-5.46502e-15 -0.188004 5.0175)
(-5.46559e-15 -0.190817 5.03023)
(-5.46625e-15 -0.19558 5.04562)
(-5.46693e-15 -0.200792 5.06141)
(-5.46766e-15 -0.207256 5.07836)
(-5.46841e-15 -0.215013 5.09654)
(-5.46921e-15 -0.224386 5.11615)
(-5.47005e-15 -0.235723 5.13741)
(-5.47092e-15 -0.24937 5.16048)
(-5.47184e-15 -0.265522 5.18548)
(-5.4728e-15 -0.284713 5.21256)
(-5.4738e-15 -0.307927 5.24218)
(-5.47482e-15 -0.335353 5.27493)
(-5.47587e-15 -0.367296 5.31142)
(-5.47692e-15 -0.404097 5.35237)
(-5.47793e-15 -0.44652 5.39854)
(-5.47885e-15 -0.495236 5.4509)
(-5.47961e-15 -0.551306 5.51062)
(-5.48006e-15 -0.615983 5.5791)
(-5.48004e-15 -0.690505 5.65835)
(-5.47923e-15 -0.776691 5.75097)
(-5.47721e-15 -0.87595 5.85955)
(-5.47334e-15 -0.990183 5.98763)
(-5.46665e-15 -1.12183 6.13929)
(-5.45574e-15 -1.27415 6.31966)
(-5.43861e-15 -1.45125 6.53493)
(-5.41241e-15 -1.65807 6.79249)
(-5.37321e-15 -1.90053 7.10075)
(-5.31585e-15 -2.1858 7.46898)
(-5.2338e-15 -2.52223 7.907)
(-5.1194e-15 -2.91879 8.42413)
(-4.96477e-15 -3.3846 9.02799)
(-4.76337e-15 -3.92764 9.72233)
(-4.51259e-15 -4.55203 10.5041)
(-4.21697e-15 -5.25478 11.3593)
(-3.89118e-15 -6.02134 12.2589)
(-3.56071e-15 -6.82073 13.1539)
(-3.25874e-15 -7.60268 13.976)
(-3.01892e-15 -8.30145 14.6479)
(-2.86865e-15 -8.85406 15.1143)
(-2.8308e-15 -9.239 15.3967)
(-2.93808e-15 -9.52789 15.652)
(-3.24508e-15 -9.90732 16.1655)
(-3.80501e-15 -10.6025 17.1957)
(-4.60737e-15 -11.708 18.7371)
(-5.53718e-15 -13.0823 20.4537)
(-6.39916e-15 -14.416 21.8603)
(-6.97802e-15 -15.3755 22.5377)
(-7.09486e-15 -15.7033 22.2478)
(-6.62679e-15 -15.2421 20.9344)
(-5.48009e-15 -13.8337 18.5201)
(-3.61604e-15 -11.1723 14.5627)
(-1.33146e-15 -7.18845 8.68839)
(2.60593e-16 -3.12426 2.29362)
(-5.0622e-16 0.34405 -4.3258)
(-2.9231e-16 2.6149 -9.10447)
(1.6332e-16 2.75235 -9.95209)
(4.92352e-16 2.04518 -9.20959)
(6.63767e-16 1.20689 -8.30377)
(7.51069e-16 0.584121 -7.60007)
(7.83609e-16 0.296849 -7.09096)
(8.50559e-16 0.235883 -6.42783)
(9.75256e-16 0.281707 -5.4687)
(1.12191e-15 0.317748 -4.50806)
(1.36288e-15 0.301488 -2.94718)
(1.54585e-15 0.921934 -1.63404)
(1.69406e-15 -0.204334 0.0640993)
(1.68252e-15 -0.944596 0.0902984)
(1.6485e-15 -1.30389 -0.170521)
(1.64617e-15 -0.822335 -0.278324)
(1.94299e-15 0.0274616 0.0715715)
(2.10965e-15 -0.520949 0.775874)
(2.11148e-15 -1.15445 0.879907)
(2.1884e-15 -1.50652 0.830018)
(2.28662e-15 -1.39462 0.680813)
(2.26953e-15 -0.389366 0.267879)
(2.07023e-15 0.913092 -0.371006)
(1.28901e-15 -4.76263 -1.23376)
(-5.46782e-15 -0.183686 5.08986)
(-5.46859e-15 -0.190955 5.11126)
(-5.46913e-15 -0.193954 5.12493)
(-5.46975e-15 -0.198943 5.14124)
(-5.47039e-15 -0.204419 5.15815)
(-5.47106e-15 -0.211121 5.17633)
(-5.47176e-15 -0.219069 5.19584)
(-5.47249e-15 -0.228612 5.21688)
(-5.47325e-15 -0.240129 5.23963)
(-5.47404e-15 -0.254039 5.26425)
(-5.47484e-15 -0.270633 5.29092)
(-5.47567e-15 -0.290544 5.31988)
(-5.4765e-15 -0.314431 5.35171)
(-5.47733e-15 -0.342563 5.38702)
(-5.47813e-15 -0.375344 5.42641)
(-5.47886e-15 -0.413235 5.47071)
(-5.47948e-15 -0.456843 5.52069)
(-5.4799e-15 -0.506921 5.57738)
(-5.48002e-15 -0.564516 5.64204)
(-5.47966e-15 -0.630919 5.7162)
(-5.47857e-15 -0.707648 5.80205)
(-5.47637e-15 -0.79666 5.9023)
(-5.47254e-15 -0.899447 6.01982)
(-5.46628e-15 -1.01797 6.15835)
(-5.45646e-15 -1.15487 6.3221)
(-5.44145e-15 -1.31362 6.51634)
(-5.41896e-15 -1.49844 6.74742)
(-5.38584e-15 -1.71435 7.02279)
(-5.33785e-15 -1.96757 7.35074)
(-5.26958e-15 -2.26542 7.74021)
(-5.17439e-15 -2.61625 8.20038)
(-5.04493e-15 -3.02875 8.73953)
(-4.87414e-15 -3.51134 9.36375)
(-4.65706e-15 -4.07071 10.0746)
(-4.39354e-15 -4.70925 10.8659)
(-4.09115e-15 -5.42129 11.7202)
(-3.7675e-15 -6.18878 12.6037)
(-3.4497e-15 -6.97697 13.4634)
(-3.17017e-15 -7.7334 14.2297)
(-2.95956e-15 -8.39513 14.8319)
(-2.84259e-15 -8.91137 15.2347)
(-2.84381e-15 -9.2842 15.4947)
(-3.00291e-15 -9.6115 15.805)
(-3.37833e-15 -10.0845 16.4543)
(-4.01072e-15 -10.8893 17.6427)
(-4.86097e-15 -12.056 19.2721)
(-5.78815e-15 -13.4015 20.9467)
(-6.58932e-15 -14.6207 22.1791)
(-7.06015e-15 -15.4144 22.5914)
(-7.03899e-15 -15.5628 22.0071)
(-6.40871e-15 -14.9123 20.4023)
(-5.07641e-15 -13.2501 17.622)
(-3.0825e-15 -10.2567 13.1139)
(-1.02918e-15 -6.10984 6.80845)
(-9.61789e-17 -2.26747 1.36129)