/*--------------------------------*- C++ -*----------------------------------*\
| =========                 |                                                 |
| \\      /  F ield         | OpenFOAM: The Open Source CFD Toolbox           |
|  \\    /   O peration     | Version:  4.1                                   |
|   \\  /    A nd           | Web:      www.OpenFOAM.org                      |
|    \\/     M anipulation  |                                                 |
\*---------------------------------------------------------------------------*/
FoamFile
{
    version     2.0;
    format      ascii;
    class       surfaceScalarField;
    location    "5";
    object      phi;
}
// * * * * * * * * * * * * * * * * * * * * * * * * * * * * * * * * * * * * * //

dimensions      [0 3 -1 0 0 0 0];

internalField   nonuniform List<scalar> 
13220
(
-799.119
2099.02
-1253.64
1754.72
-1718.62
1764.88
-2062.45
1643.73
-2345.33
1583.08
-2550.77
1505.34
-2686.83
1435.96
-2753
1366.36
-2753.51
1300.41
-2686.22
1232.61
-2538.4
1152.38
-2270.99
1032.49
-1795.92
824.824
-1022
526.282
277.898
-217.475
2316.49
-483.997
2021.24
-775.673
2056.56
-1007.77
1875.82
-1230.75
1806.06
-1408.23
1682.82
-1558.18
1585.91
-1672.36
1480.54
-1756.85
1384.91
-1806.3
1282.06
-1794.37
1140.45
-1656.17
894.287
-1282.87
451.523
-609.368
-147.219
-331.47
-121.073
2437.56
-312.079
2212.24
-438.901
2183.38
-509.024
1945.94
-564.871
1861.9
-578.582
1696.53
-568.877
1576.2
-529.641
1441.3
-464.192
1319.45
-375.806
1193.67
-274.484
1039.12
-178.166
797.963
-99.3655
372.708
-68.0978
-178.503
-399.568
108.409
2329.15
97.9786
2222.67
148.272
2133.08
219.589
1874.62
297.066
1784.43
390.858
1602.73
494.669
1472.39
606.448
1329.52
722.407
1203.49
836.407
1079.67
929.304
946.225
942.58
784.685
758.771
556.514
254.291
325.973
-145.277
114.823
2214.33
159.361
2178.13
231.38
2061.06
309.861
1796.14
386.884
1707.4
477.089
1512.53
562.99
1386.49
654.73
1237.78
742.381
1115.84
819.255
1002.8
863.166
902.313
835.655
812.192
675.943
716.222
396.151
605.757
250.874
26.9666
2187.36
71.7949
2133.3
110.589
2022.27
130.153
1776.57
147.404
1690.15
162.905
1497.02
202.495
1346.9
312.326
1127.95
491.412
936.752
695.845
798.365
841.803
756.354
854.187
799.812
692.264
878.148
405.365
892.66
656.239
-105.167
2292.52
-177.455
2205.59
-252.516
2097.33
-374.826
1898.88
-501.238
1816.56
-652.243
1648.03
-766.032
1460.68
-793.954
1155.87
-717.78
860.578
-551.319
631.903
-314.572
519.607
-59.4944
544.727
115.27
703.377
134.899
873.024
791.139
-54.0919
2346.62
-281.134
2432.63
-448.349
2264.54
-629.543
2080.08
-815.962
2002.98
-1023.38
1855.44
-1248.26
1685.57
-1484.26
1391.87
-1702.27
1078.58
-1845.83
775.469
-1828.01
501.787
-1562.73
279.451
-1044.56
185.213
-433.157
261.636
357.982
237.766
2108.85
67.8642
2602.53
-57.6059
2390.01
-128.603
2151.08
-165.465
2039.84
-200.574
1890.55
-260.288
1745.28
-389.158
1520.74
-577.124
1266.55
-795.493
993.837
-1003.59
709.889
-1124.57
400.422
-1029.44
90.0767
-648.022
-119.788
-290.04
416.566
1692.29
451.961
2567.14
436.345
2405.63
484.996
2102.43
592.799
1932.04
710.678
1772.67
822.718
1633.24
876.01
1467.45
855.382
1287.18
757.507
1091.71
585.216
882.181
333.144
652.503
45.2697
377.969
-103.877
29.3793
-393.917
302.94
1389.35
399.671
2470.41
445.19
2360.11
517.575
2030.04
620.572
1829.04
727.579
1665.67
830.269
1530.55
909.638
1388.08
952.845
1243.97
948.649
1095.91
890.744
940.087
769.784
773.46
572.866
574.885
281.336
320.907
-112.581
144.94
1244.41
212.674
2402.67
259.206
2313.58
308.574
1980.68
359.005
1778.61
407.194
1617.48
451.441
1486.31
487.455
1352.07
509.15
1222.28
510.621
1094.44
484.13
966.579
426.89
830.707
331.735
670.048
205.763
446.899
93.182
120.867
1123.55
189.327
2334.22
216.218
2286.69
264.929
1931.97
308.477
1735.07
331.97
1593.99
340.622
1477.66
344.763
1347.93
339.929
1227.12
327.54
1106.83
302.444
991.676
262.398
870.754
204.582
727.866
133.312
518.172
226.494
236.648
886.898
370.846
2200.02
289.706
2367.83
140.294
2081.38
51.3753
1823.99
12.6795
1632.68
3.11682
1487.22
2.86957
1348.18
6.52191
1223.46
10.8313
1102.52
14.6856
987.823
15.3337
870.108
4.6414
738.561
-20.0148
542.832
206.479
385.921
1262.74
1859.66
2042.73
1946.42
1859.13
1804.71
1749.38
1667.95
1546.65
1372.74
1149.64
871.366
492.094
-1.75692e-05
-29.1998
29.1998
-29.1999
-29.1999
-29.1999
182.236
-211.436
182.236
182.236
182.236
374.206
-191.971
374.206
374.206
535.135
-160.928
535.135
535.135
535.135
641.357
-106.222
641.357
641.357
701.964
-60.6073
701.964
701.964
701.964
728.67
-26.7057
728.67
728.67
728.67
732.162
-3.49233
732.162
732.162
718.252
13.9103
718.252
718.252
718.252
691.716
26.5359
691.716
691.716
652.308
39.4083
652.308
652.308
652.308
610.621
41.6865
610.621
610.621
610.621
572.58
38.0411
572.58
572.58
536.686
35.8939
536.686
536.686
536.686
505.479
31.2067
505.479
505.479
505.479
544.747
-39.2674
544.747
544.747
551.149
-6.40282
551.149
551.149
551.149
365.253
185.896
365.253
365.253
67.1731
298.08
67.1728
67.1728
67.1727
-776.427
843.599
-776.427
-776.427
-776.427
-2385.54
1609.12
-2385.54
-2385.54
-4465.6
2080.06
-4465.6
-4465.6
-4334.99
-4207.05
-4074.8
-6249.1
2301.63
-6112.81
-5951.1
-5777.03
-5603.51
-5430.35
-5258.45
-5081.34
-4891.59
-7133.67
2428.56
-6939.68
-6746.05
-6553.04
-6347.51
-6142.08
-5937.22
-5732.62
-5526.88
-7806.8
2491.31
-7588.2
-7369.88
-7151.7
-6933.67
-6711.78
-6482.45
-6253.78
-6024.18
-5793.1
-8056.72
2493.03
-7813.8
-7569.74
-7325.13
-7080.23
-6834.61
-6578.95
-6316.95
-6052.89
-8282.28
2492.68
-8018.79
-7747.14
-7463.83
-7178.07
-6888.69
-6596.24
-6298.75
-5978.32
-8181.11
2519.71
-7862.03
-7537.31
-7208.42
-6857.45
-6495.57
-6132.25
-5766.82
-5402.87
-7189.15
2143.94
-6820.07
-6458.47
-6104.17
-5758.49
-5421.69
-5074.04
-4734.5
-4400.63
-4075.16
-4370.15
620.472
-4087.61
-3825.79
-3571.32
-3326.36
-3090.83
-2907.21
-2814.26
-2719.55
-2651.22
32.1216
-2564.82
-2481.57
-2481.57
-2526.08
44.5064
-2538.08
12.0011
-2538.08
-2558.55
20.4692
-2558.55
-2586.55
27.999
-2600.09
13.5477
-2600.09
-2620.1
20.0052
-2623.05
2.95072
-2623.05
-2622.21
-0.844349
-2622.21
-2621.19
-1.01935
-2600.41
-20.7734
-2600.41
-2576.68
-23.7374
-2576.68
-2553.53
-23.1475
-2509.88
-43.6448
-2509.88
-2470.86
-39.0187
-2416.63
-54.2359
-2416.63
-2363.11
-53.5176
-2363.11
-2313.77
-49.3373
-2250.61
-63.1646
-2250.61
-2186.5
-64.1136
-2186.5
-2124.92
-61.5767
-2051.28
-73.6369
-2051.28
-1983.28
-67.9975
-1907.13
-76.1544
-1907.13
-1832.42
-74.7083
-1832.42
-1762.76
-69.6644
-1687.4
-75.3571
-1687.4
-1613.81
-73.5876
-1613.81
-1547.94
-65.8676
-1480.84
-67.1072
-1480.84
-1423.18
-57.6625
-1372.12
-51.0559
-1372.12
-1338.77
-33.348
-1338.77
-1324.19
-14.5771
-1306.44
-17.7524
-1306.44
-1289.62
-16.8248
-1289.62
-1270.43
-19.182
-1231.1
-39.3387
-1231.1
-1186.28
-44.8205
-1125.89
-60.3879
-1125.89
-1059.09
-66.7969
-1059.09
-992.45
-66.6414
-917.44
-75.0099
-917.44
-835.9
-81.54
-835.9
-749.458
-86.442
-653.285
-96.1724
-653.285
-536.811
-116.474
-415.359
-121.451
-415.359
-287.185
-128.174
-287.185
-142.624
-5.10482
-26.0813
-5.03494
-36.2676
-5.03506
-43.442
-5.04443
-50.1629
-5.0827
-56.8703
-5.13725
-63.2791
-5.21364
-69.6786
-5.30826
-75.9886
-5.42291
-82.3195
-5.55644
-88.665
-5.70947
-95.0774
-5.88162
-101.571
-6.07316
-108.178
-6.28405
-114.917
-6.51449
-121.815
-6.76462
-128.889
-7.03471
-136.163
-7.32505
-143.655
-7.63603
-151.387
-7.96808
-159.377
-8.32171
-167.645
-8.69751
-176.21
-9.09613
-185.092
-9.5183
-194.31
-9.96481
-203.885
-10.4366
-213.836
-10.9345
-224.182
-11.4595
-234.946
-12.0129
-246.147
-12.5957
-257.807
-13.2092
-269.947
-13.8547
-282.591
-14.5336
-295.76
-15.2473
-309.478
-15.9973
-323.768
-16.7852
-338.655
-17.6126
-354.162
-18.481
-370.316
-19.3921
-387.139
-20.3475
-404.657
-21.3484
-422.892
-22.3962
-441.869
-23.4917
-461.605
-24.6354
-482.117
-25.827
-503.416
-27.0654
-525.506
-28.3482
-548.377
-29.671
-572.009
-31.0275
-596.359
-32.4083
-621.362
-33.8001
-646.918
-35.1851
-672.893
-36.54
-699.106
-37.8347
-725.328
-39.0315
-751.278
-40.0836
-776.625
-40.9343
-800.992
-41.5145
-823.96
-41.7406
-845.077
-41.5091
-863.834
-40.6918
-879.659
-39.1237
-891.777
-36.5999
-899.189
-32.8535
-900.239
-27.5829
-892.746
-20.4191
-872.716
-11.104
-835.751
0.557333
-772.27
14.0073
-674.765
28.1758
-522.258
40.9382
-280.536
48.3142
198.497
45.4621
499.296
45.3229
855.148
37.8231
1109.4
47.5215
1528.67
34.6354
1530.74
89.678
2287.8
2523.13
-5.87598
-26.2043
-5.77501
-36.3686
-5.76487
-43.4521
-5.76901
-50.1588
-5.8084
-56.831
-5.86768
-63.2198
-5.95251
-69.5938
-6.05854
-75.8825
-6.18752
-82.1906
-6.33803
-88.5145
-6.51062
-94.9048
-6.70484
-101.377
-6.92089
-107.962
-7.15869
-114.68
-7.41841
-121.555
-7.70019
-128.607
-8.0043
-135.859
-8.33104
-143.329
-8.68079
-151.037
-9.05404
-159.003
-9.45132
-167.247
-9.87324
-175.788
-10.3205
-184.645
-10.7939
-193.837
-11.2943
-203.385
-11.8226
-213.307
-12.3799
-223.625
-12.9671
-234.358
-13.5856
-245.528
-14.2365
-257.156
-14.9211
-269.263
-15.6408
-281.871
-16.3972
-295.004
-17.1916
-308.683
-18.0258
-322.934
-18.9012
-337.779
-19.8196
-353.244
-20.7825
-369.353
-21.7916
-386.13
-22.8483
-403.6
-23.954
-421.787
-25.1095
-440.713
-26.3157
-460.399
-27.5723
-480.86
-28.8784
-502.11
-30.232
-524.152
-31.6293
-546.98
-33.0642
-570.574
-34.5281
-594.896
-36.0086
-619.881
-37.489
-645.438
-38.9471
-671.435
-40.3548
-697.698
-41.6764
-724.006
-42.8686
-750.086
-43.879
-775.615
-44.6454
-800.226
-45.0933
-823.512
-45.1335
-845.037
-44.6551
-864.312
-43.5194
-880.795
-41.5439
-893.752
-38.4976
-902.235
-34.0756
-904.661
-27.9306
-898.891
-19.6396
-881.007
-8.91268
-846.478
4.43303
-785.616
19.8325
-690.164
35.9093
-538.335
50.4566
-295.084
56.9603
191.993
50.5257
505.73
48.184
857.49
39.7759
1117.81
47.8294
1520.62
34.4516
1544.12
86.6487
2235.6
2481.61
-6.29548
-26.3439
-6.18359
-36.4804
-6.16717
-43.4685
-6.1691
-50.1569
-6.20911
-56.7909
-6.27133
-63.1576
-6.36098
-69.5041
-6.47355
-75.77
-6.61063
-82.0535
-6.77071
-88.3544
-6.95429
-94.7212
-7.16085
-101.17
-7.39057
-107.732
-7.64334
-114.427
-7.91934
-121.279
-8.21867
-128.308
-8.54162
-135.536
-8.88847
-142.982
-9.25965
-150.666
-9.65563
-158.608
-10.077
-166.826
-10.5243
-175.341
-10.9983
-184.171
-11.4999
-193.335
-12.0299
-202.855
-12.5893
-212.748
-13.1791
-223.035
-13.8004
-233.737
-14.4545
-244.874
-15.1426
-256.468
-15.8661
-268.539
-16.6265
-281.111
-17.4251
-294.205
-18.2637
-307.845
-19.1437
-322.054
-20.0668
-336.856
-21.0348
-352.276
-22.0491
-368.338
-23.1115
-385.067
-24.2233
-402.488
-25.3857
-420.624
-26.5997
-439.499
-27.8657
-459.133
-29.1832
-479.543
-30.551
-500.742
-31.9664
-522.737
-33.4248
-545.522
-34.9192
-569.08
-36.4395
-593.375
-37.9718
-618.349
-39.4973
-643.912
-40.9915
-669.94
-42.4236
-696.266
-43.7552
-722.675
-44.9402
-748.901
-45.9234
-774.632
-46.6404
-799.509
-47.0148
-823.137
-46.9551
-845.096
-46.3476
-864.92
-45.0479
-882.095
-42.8646
-895.936
-39.5517
-905.548
-34.7822
-909.431
-28.1799
-905.493
-19.2897
-889.897
-7.79269
-857.975
6.49711
-799.905
23.0527
-706.72
40.322
-555.604
57.5578
-312.319
66.8629
182.688
58.4514
514.142
52.8249
863.116
42.3966
1128.24
48.2349
1514.78
33.554
1558.8
81.9969
2187.16
2442.15
-6.77793
-26.498
-6.65684
-36.6015
-6.63541
-43.49
-6.63598
-50.1563
-6.67765
-56.7493
-6.74397
-63.0913
-6.83985
-69.4082
-6.96058
-75.6492
-7.1076
-81.9065
-7.27935
-88.1826
-7.47621
-94.5244
-7.69765
-100.949
-7.9438
-107.486
-8.21454
-114.156
-8.51001
-120.983
-8.83035
-127.988
-9.1758
-135.19
-9.5467
-142.611
-9.94345
-150.269
-10.3665
-158.184
-10.8166
-166.376
-11.2942
-174.863
-11.8002
-183.665
-12.3354
-192.8
-12.9007
-202.289
-13.4971
-212.151
-14.1257
-222.407
-14.7877
-233.075
-15.4843
-244.178
-16.2169
-255.735
-16.9869
-267.769
-17.7957
-280.302
-18.6449
-293.356
-19.5361
-306.954
-20.471
-321.119
-21.4512
-335.876
-22.4785
-351.249
-23.5544
-367.262
-24.6806
-383.941
-25.8585
-401.31
-27.0891
-419.394
-28.3734
-438.215
-29.7113
-457.795
-31.1024
-478.152
-32.5448
-499.3
-34.0352
-521.246
-35.5682
-543.989
-37.1357
-567.512
-38.7261
-591.785
-40.3236
-616.751
-41.9071
-642.329
-43.4496
-668.398
-44.9169
-694.799
-46.2676
-721.324
-47.4518
-747.717
-48.4116
-773.672
-49.0793
-798.841
-49.376
-822.841
-49.2079
-845.265
-48.4577
-865.67
-46.9753
-883.577
-44.5596
-898.351
-40.9479
-909.16
-35.7881
-914.591
-28.6696
-912.612
-19.0953
-899.471
-6.7053
-870.365
8.70984
-815.32
26.659
-724.669
45.5126
-574.458
64.556
-331.363
77.2876
169.956
68.7739
522.655
59.2429
872.647
45.8958
1141.59
48.7791
1511.9
32.5923
1574.99
75.8234
2143.93
2401.5
-7.23476
-26.6616
-7.10878
-36.7275
-7.08358
-43.5151
-7.08382
-50.1561
-7.12765
-56.7054
-7.19844
-63.0205
-7.30074
-69.3059
-7.42974
-75.5202
-7.58671
-81.7495
-7.77002
-87.9993
-7.98001
-94.3144
-8.21608
-100.713
-8.47835
-107.224
-8.76667
-113.868
-9.08119
-120.669
-9.42201
-127.647
-9.7894
-134.823
-10.1837
-142.217
-10.6053
-149.848
-11.0548
-157.735
-11.5327
-165.898
-12.0397
-174.356
-12.5767
-183.128
-13.1445
-192.233
-13.744
-201.69
-14.3763
-211.519
-15.0426
-221.74
-15.744
-232.374
-16.4818
-243.44
-17.2575
-254.96
-18.0724
-266.954
-18.9282
-279.446
-19.8264
-292.458
-20.7686
-306.011
-21.7566
-320.131
-22.7921
-334.841
-23.8768
-350.164
-25.0123
-366.127
-26.2003
-382.753
-27.4421
-400.068
-28.7388
-418.097
-30.091
-436.862
-31.4988
-456.387
-32.9611
-476.689
-34.4759
-497.785
-36.0391
-519.683
-37.6446
-542.383
-39.2832
-565.874
-40.9419
-590.126
-42.6032
-615.09
-44.2438
-640.688
-45.834
-666.808
-47.3368
-693.296
-48.7076
-719.953
-49.8934
-746.531
-50.8332
-772.732
-51.4569
-798.218
-51.6834
-822.614
-51.4172
-845.531
-50.5382
-866.549
-48.8921
-885.223
-46.2688
-900.975
-42.3907
-913.038
-36.8811
-920.1
-29.2942
-920.199
-19.0878
-909.678
-5.85286
-883.6
10.6601
-831.833
30.0087
-744.018
50.539
-594.988
71.7784
-352.602
88.7775
152.957
81.1495
530.283
67.8145
885.982
50.5057
1158.89
49.8455
1512.56
31.5195
1593.31
71.1951
2104.25
2376.53
-7.6864
-26.8315
-7.55822
-36.8557
-7.5306
-43.5428
-7.5315
-50.1552
-7.57817
-56.6588
-7.65401
-62.9447
-7.76322
-69.1967
-7.90093
-75.3825
-8.06828
-81.5822
-8.26357
-87.804
-8.48708
-94.0909
-8.73818
-100.461
-9.01696
-106.945
-9.32325
-113.561
-9.65718
-120.335
-10.0189
-127.285
-10.4086
-134.433
-10.8267
-141.798
-11.2736
-149.401
-11.7498
-157.259
-12.256
-165.392
-12.7929
-173.819
-13.3613
-182.559
-13.9621
-191.632
-14.5964
-201.056
-15.2651
-210.85
-15.9695
-221.036
-16.7108
-231.632
-17.4904
-242.66
-18.3097
-254.14
-19.1703
-266.094
-20.0736
-278.543
-21.0214
-291.51
-22.0153
-305.018
-23.0571
-319.089
-24.1486
-333.749
-25.2914
-349.021
-26.4874
-364.931
-27.7381
-381.503
-29.0447
-398.762
-30.4084
-416.733
-31.8297
-435.441
-33.3083
-454.908
-34.8432
-475.155
-36.4316
-496.197
-38.0691
-518.045
-39.7488
-540.704
-41.4603
-564.162
-43.1895
-588.397
-44.9169
-613.363
-46.6172
-638.988
-48.2582
-665.167
-49.7999
-691.754
-51.1946
-718.559
-52.3861
-745.34
-53.3106
-771.808
-53.8954
-797.633
-54.058
-822.452
-53.7009
-845.888
-52.7026
-867.547
-50.905
-887.021
-48.0902
-903.789
-43.966
-917.162
-38.1316
-925.935
-30.1035
-928.227
-19.2899
-920.491
-5.22247
-897.668
12.4058
-849.462
33.2109
-764.823
55.571
-617.348
79.3209
-376.352
100.694
131.584
94.795
536.182
78.5931
902.184
56.6047
1180.88
51.6559
1517.5
30.822
1614.15
65.9466
2069.13
2356.03
-8.12945
-27.0049
-8.00146
-36.9837
-7.9726
-43.5716
-7.9751
-50.1527
-8.02522
-56.6086
-8.10662
-62.8633
-8.22316
-69.0802
-8.36997
-75.2357
-8.54801
-81.4041
-8.75559
-87.5964
-8.99289
-93.8536
-9.25928
-100.195
-9.55479
-106.649
-9.87927
-113.237
-10.2328
-119.981
-10.6156
-126.902
-11.0278
-134.021
-11.4699
-141.356
-11.9422
-148.928
-12.4454
-156.756
-12.98
-164.857
-13.5469
-173.252
-14.1469
-181.959
-14.7809
-190.998
-15.45
-200.387
-16.1552
-210.145
-16.8979
-220.293
-17.6793
-230.851
-18.5008
-241.839
-19.3639
-253.277
-20.2702
-265.188
-21.2213
-277.592
-22.2188
-290.512
-23.2646
-303.972
-24.3604
-317.994
-25.508
-332.601
-26.7093
-347.82
-27.9659
-363.674
-29.2794
-380.189
-30.6512
-397.39
-32.0822
-415.302
-33.5729
-433.951
-35.1228
-453.358
-36.7306
-473.547
-38.3933
-494.534
-40.1059
-516.333
-41.8605
-538.949
-43.6461
-562.377
-45.447
-586.596
-47.2422
-611.568
-49.0042
-637.226
-50.6983
-663.473
-52.2818
-690.171
-53.7036
-717.137
-54.9047
-744.139
-55.8183
-770.894
-56.3696
-797.081
-56.4744
-822.347
-56.0347
-846.328
-54.9277
-868.654
-52.9925
-888.956
-50.005
-906.777
-45.6591
-921.508
-39.5299
-932.064
-31.095
-936.662
-19.7083
-931.878
-4.83192
-912.544
13.9148
-868.208
36.2156
-787.124
60.5265
-641.659
87.0033
-402.829
112.783
105.805
109.15
539.815
91.4704
919.864
64.6652
1207.69
54.553
1527.62
30.806
1637.9
61.7715
2038.16
2336.26
-8.56556
-27.1795
-8.43958
-37.1097
-8.41063
-43.6006
-8.41561
-50.1477
-8.4698
-56.5544
-8.55729
-62.7758
-8.6816
-68.9559
-8.83789
-75.0794
-9.02699
-81.215
-9.24718
-87.3763
-9.49858
-93.6022
-9.78054
-99.9131
-10.0931
-106.337
-10.436
-112.894
-10.8095
-119.608
-11.2135
-126.498
-11.6485
-133.586
-12.1147
-140.89
-12.6127
-148.43
-13.1431
-156.225
-13.7064
-164.294
-14.3035
-172.655
-14.9353
-181.328
-15.6027
-190.33
-16.3068
-199.682
-17.0489
-209.403
-17.8301
-219.512
-18.6518
-230.029
-19.5155
-240.975
-20.4226
-252.37
-21.3749
-264.235
-22.3739
-276.593
-23.4215
-289.465
-24.5194
-302.874
-25.6696
-316.843
-26.8737
-331.397
-28.1337
-346.56
-29.4514
-362.357
-30.8282
-378.812
-32.2655
-395.953
-33.7643
-413.804
-35.3249
-432.39
-36.9468
-451.736
-38.6283
-471.865
-40.3661
-492.796
-42.1546
-514.544
-43.9854
-537.118
-45.8465
-560.516
-47.7208
-584.722
-49.5857
-609.703
-51.4118
-635.4
-53.1618
-661.723
-54.7903
-688.542
-56.243
-715.684
-57.4579
-742.924
-58.3654
-769.987
-58.8887
-796.558
-58.9426
-822.293
-58.4286
-846.842
-57.2237
-869.859
-55.1656
-891.014
-52.0247
-909.918
-47.4822
-926.051
-41.0899
-938.456
-32.284
-945.468
-20.3598
-943.802
-4.69968
-928.204
15.1671
-888.075
39.0033
-810.96
65.3863
-668.042
94.6332
-432.076
125.101
75.337
123.972
540.945
106.181
937.654
75.0859
1238.78
58.9947
1543.71
31.6907
1665.2
59.4184
2010.44
2320.67
-8.99518
-27.3535
-8.8727
-37.2322
-8.8447
-43.6286
-8.853
-50.1394
-8.91187
-56.4956
-9.00595
-62.6817
-9.13846
-68.8233
-9.30462
-74.9133
-9.50514
-81.0145
-9.73827
-87.1431
-10.0041
-93.3364
-10.3019
-99.6153
-10.6317
-106.007
-10.9934
-112.532
-11.387
-119.214
-11.8126
-126.073
-12.2705
-133.128
-12.7612
-140.4
-13.2851
-147.906
-13.8428
-155.668
-14.435
-163.702
-15.0626
-172.028
-15.7264
-180.664
-16.4274
-189.629
-17.1669
-198.943
-17.9459
-208.624
-18.7658
-218.692
-19.6281
-229.167
-20.5342
-240.069
-21.4856
-251.418
-22.4842
-263.237
-23.5315
-275.546
-24.6294
-288.367
-25.7798
-301.723
-26.9845
-315.639
-28.2455
-330.136
-29.5646
-345.241
-30.9436
-360.978
-32.3842
-377.372
-33.8875
-394.449
-35.4546
-412.236
-37.0857
-430.759
-38.7801
-450.042
-40.536
-470.109
-42.3497
-490.983
-44.2152
-512.679
-46.1234
-535.21
-48.0613
-558.578
-50.0108
-582.772
-51.9476
-607.766
-53.8402
-633.507
-55.6491
-659.914
-57.3259
-686.866
-58.8134
-714.197
-60.0465
-741.69
-60.953
-769.08
-61.4541
-796.057
-61.4639
-822.283
-60.8841
-847.421
-59.5926
-871.151
-57.4264
-893.18
-54.1522
-913.192
-49.4399
-930.763
-42.8178
-945.078
-33.6798
-954.606
-21.2575
-956.224
-4.84305
-944.619
16.14
-909.058
41.5462
-836.366
70.115
-696.611
101.836
-463.796
137.642
39.5308
139.131
539.455
122.293
954.493
87.9683
1273.11
65.4131
1566.26
33.7948
1696.82
54.9266
1989.3
2308.96
-9.41892
-27.5252
-9.30114
-37.3499
-9.27507
-43.6546
-9.28746
-50.127
-9.3516
-56.4314
-9.45278
-62.5805
-9.59393
-68.6822
-9.77035
-74.7368
-9.98263
-80.8022
-10.229
-86.8967
-10.5096
-93.0558
-10.8236
-99.3013
-11.171
-105.66
-11.5516
-112.152
-11.9656
-118.8
-12.413
-125.625
-12.8942
-132.647
-13.4095
-139.884
-13.9595
-147.356
-14.5448
-155.082
-15.1662
-163.08
-15.8244
-171.369
-16.5204
-179.968
-17.2554
-188.894
-18.0303
-198.168
-18.8466
-207.808
-19.7056
-217.833
-20.6086
-228.264
-21.5574
-239.12
-22.5534
-250.422
-23.5985
-262.192
-24.6943
-274.45
-25.8429
-287.218
-27.046
-300.52
-28.3057
-314.379
-29.6239
-328.818
-31.0025
-343.862
-32.4434
-359.537
-33.948
-375.867
-35.5179
-392.879
-37.1537
-410.601
-38.8559
-429.057
-40.6236
-448.274
-42.4546
-468.278
-44.3452
-489.092
-46.2887
-510.735
-48.2756
-533.223
-50.292
-556.561
-52.3185
-580.746
-54.3293
-605.755
-56.2912
-631.545
-58.1621
-658.043
-59.8909
-685.137
-61.4174
-712.67
-62.6734
-740.435
-63.584
-768.17
-64.0689
-795.572
-64.0416
-822.31
-63.4048
-848.058
-62.0381
-872.517
-59.7794
-895.439
-56.3929
-916.578
-51.5386
-935.617
-44.7224
-951.894
-35.2939
-964.034
-22.4167
-969.102
-5.28184
-961.753
16.8078
-931.148
43.8143
-863.373
74.6841
-727.481
108.95
-498.062
149.469
-0.988403
154.571
534.353
139.34
969.724
103.003
1309.44
74.1095
1595.16
37.6755
1733.25
51.7417
1975.24
2293.9
-9.83728
-27.6935
-9.72516
-37.4621
-9.70193
-43.6779
-9.71915
-50.1098
-9.78913
-56.3615
-9.89791
-62.4718
-10.0481
-68.532
-10.2352
-74.5498
-10.4596
-80.5778
-10.7196
-86.6367
-11.0152
-92.7603
-11.3456
-98.9708
-11.7109
-105.294
-12.1108
-111.752
-12.5454
-118.366
-13.0149
-125.156
-13.5196
-132.142
-14.0598
-139.344
-14.6362
-146.78
-15.2494
-154.469
-15.9001
-162.43
-16.5892
-170.68
-17.3178
-179.239
-18.0868
-188.125
-18.8976
-197.357
-19.7514
-206.954
-20.6496
-216.935
-21.5937
-227.32
-22.5854
-238.128
-23.6263
-249.382
-24.7182
-261.1
-25.8629
-273.305
-27.0625
-286.019
-28.3187
-299.264
-29.6337
-313.064
-31.0095
-327.442
-32.448
-342.424
-33.951
-358.034
-35.5203
-374.298
-37.1571
-391.243
-38.8624
-408.895
-40.6363
-427.283
-42.4779
-446.433
-44.3849
-466.371
-46.3533
-487.124
-48.3761
-508.713
-50.443
-531.156
-52.5395
-554.465
-54.645
-578.64
-56.7324
-603.668
-58.7663
-629.511
-60.7026
-656.107
-62.4872
-683.352
-64.057
-711.1
-65.3407
-739.151
-66.261
-767.25
-66.7358
-795.097
-66.6787
-822.368
-65.9938
-848.743
-64.5636
-873.948
-62.228
-897.775
-58.7509
-920.055
-53.7838
-940.585
-46.8111
-958.867
-37.1371
-973.708
-23.8523
-982.386
-6.03633
-979.57
17.1435
-954.328
45.7736
-892.003
79.057
-760.764
116.277
-535.282
160.335
-45.0465
170.327
524.361
156.986
983.065
119.584
1346.85
85.0674
1629.67
43.702
1774.62
51.2547
1967.69
2284.77
-10.2507
-27.8573
-10.1451
-37.5677
-10.1255
-43.6974
-10.1482
-50.087
-10.2246
-56.2851
-10.3415
-62.3549
-10.5012
-68.3723
-10.6993
-74.3516
-10.9362
-80.3409
-11.2102
-86.3627
-11.5211
-92.4493
-11.8683
-98.6236
-12.2517
-104.911
-12.6712
-111.332
-13.1267
-117.91
-13.6186
-124.664
-14.147
-131.614
-14.7124
-138.778
-15.3154
-146.177
-15.9567
-153.828
-16.637
-161.749
-17.3573
-169.96
-18.1186
-178.478
-18.922
-187.322
-19.7688
-196.51
-20.6604
-206.062
-21.5982
-215.997
-22.5837
-226.334
-23.6186
-237.094
-24.7046
-248.295
-25.8437
-259.961
-27.0376
-272.111
-28.2885
-284.768
-29.5982
-297.954
-30.9689
-311.693
-32.4027
-326.009
-33.9015
-340.925
-35.4672
-356.468
-37.1016
-372.663
-38.806
-389.538
-40.5812
-407.12
-42.4274
-425.437
-44.3437
-444.516
-46.3277
-464.387
-48.3749
-485.076
-50.4781
-506.609
-52.6266
-529.007
-54.8049
-552.287
-56.9916
-576.454
-59.158
-601.501
-61.2671
-627.402
-63.2722
-654.101
-65.1167
-681.508
-66.7345
-709.483
-68.0511
-737.834
-68.9867
-766.314
-69.4578
-794.626
-69.3781
-822.447
-68.6543
-849.467
-67.1722
-875.43
-64.7761
-900.171
-61.2306
-923.601
-56.181
-945.634
-49.0917
-965.956
-39.2204
-983.579
-25.5803
-996.026
-7.12827
-998.022
17.1171
-978.573
47.3873
-922.273
83.1811
-796.558
123.494
-575.595
171.261
-92.814
186.507
509.115
175.076
994.496
137.061
1384.86
97.8179
1668.92
51.6525
1820.78
47.3112
1972.03
2287.26
-10.6597
-28.0157
-10.5611
-37.6663
-10.546
-43.7126
-10.5749
-50.0582
-10.6582
-56.2017
-10.7836
-62.2294
-10.9533
-68.2027
-11.1629
-74.142
-11.4126
-80.0911
-11.7009
-86.0745
-12.0275
-92.1227
-12.3918
-98.2593
-12.7937
-104.509
-13.2329
-110.893
-13.7097
-117.433
-14.2241
-124.15
-14.7765
-131.061
-15.3674
-138.188
-15.9973
-145.547
-16.6669
-153.158
-17.3771
-161.039
-18.1289
-169.208
-18.9232
-177.684
-19.7613
-186.484
-20.6444
-195.627
-21.5741
-205.133
-22.5517
-215.02
-23.5788
-225.307
-24.6573
-236.015
-25.7889
-247.164
-26.9754
-258.774
-28.2189
-270.867
-29.5214
-283.465
-30.885
-296.591
-32.3118
-310.266
-33.804
-324.516
-35.3636
-339.365
-36.9925
-354.839
-38.6925
-370.963
-40.465
-387.766
-42.3108
-405.274
-44.2302
-423.517
-46.222
-442.525
-48.2838
-462.325
-50.4109
-482.949
-52.5959
-504.424
-54.8275
-526.776
-57.0894
-550.025
-59.3595
-574.184
-61.6077
-599.253
-63.7951
-625.215
-65.8729
-652.024
-67.7817
-679.599
-69.4522
-707.812
-70.8071
-736.479
-71.7639
-765.357
-72.2377
-794.152
-72.143
-822.542
-71.3892
-850.221
-69.8673
-876.951
-67.4269
-902.611
-63.836
-927.192
-58.7355
-950.735
-51.5715
-973.12
-41.5551
-993.596
-27.6167
-1009.96
-8.58053
-1017.06
16.6969
-1003.85
48.6152
-954.191
86.999
-834.942
130.504
-619.1
182.26
-144.57
203.207
488.168
193.595
1004.11
154.963
1423.49
111.719
1712.16
61.107
1871.39
45.0468
1988.09
2292.97
-11.0645
-28.1681
-10.9736
-37.7572
-10.9636
-43.7225
-10.9993
-50.0225
-11.0901
-56.1109
-11.2246
-62.095
-11.4045
-68.0227
-11.626
-73.9206
-11.889
-79.8282
-12.1919
-85.7716
-12.5345
-91.7801
-12.9162
-97.8776
-13.3368
-104.088
-13.7962
-110.434
-14.2945
-116.935
-14.8318
-123.612
-15.4085
-130.485
-16.0251
-137.571
-16.6822
-144.89
-17.3804
-152.46
-18.1208
-160.299
-18.9043
-168.425
-19.7319
-176.856
-20.6049
-185.611
-21.5247
-194.707
-22.4927
-204.165
-23.5104
-214.002
-24.5796
-224.238
-25.7019
-234.893
-26.8793
-245.987
-28.1137
-257.54
-29.4072
-269.574
-30.7618
-282.111
-32.1796
-295.173
-33.663
-308.783
-35.214
-322.965
-36.8348
-337.745
-38.5274
-353.146
-40.2936
-369.197
-42.1349
-385.925
-44.052
-403.357
-46.0452
-421.524
-48.1134
-440.456
-50.254
-460.185
-52.4622
-480.741
-54.7303
-502.156
-57.0466
-524.46
-59.3942
-547.677
-61.7501
-571.828
-64.0828
-596.92
-66.352
-622.945
-68.5064
-649.869
-70.484
-677.621
-72.2125
-706.084
-73.6113
-735.08
-74.5953
-764.373
-75.0786
-793.669
-74.9763
-822.644
-74.2017
-850.995
-72.652
-878.501
-70.1837
-905.079
-66.5707
-930.805
-61.4521
-955.853
-54.2578
-980.315
-44.152
-1003.7
-29.9783
-1024.14
-10.4173
-1036.62
15.8488
-1030.12
49.4144
-987.757
90.4501
-875.978
137.241
-665.891
193.317
-200.645
220.489
460.996
212.593
1012
173.062
1463.02
126.142
1759.08
71.2618
1926.27
38.6978
2020.65
2312.48
-11.4655
-28.3138
-11.3827
-37.84
-11.3786
-43.7266
-11.4216
-49.9796
-11.5204
-56.0121
-11.6644
-61.951
-11.8552
-67.8319
-12.0888
-73.687
-12.3654
-79.5516
-12.6833
-85.4536
-13.0423
-91.4211
-13.4418
-97.4782
-13.8815
-103.649
-14.3613
-109.954
-14.8814
-116.415
-15.4419
-123.052
-16.0431
-129.883
-16.6857
-136.928
-17.3702
-144.206
-18.0975
-151.733
-18.8683
-159.528
-19.6837
-167.609
-20.545
-175.995
-21.4532
-184.702
-22.41
-193.751
-23.4166
-203.158
-24.4748
-212.944
-25.5863
-223.126
-26.7529
-233.726
-27.9765
-244.763
-29.2592
-256.257
-30.6029
-268.23
-32.01
-280.704
-33.4826
-293.7
-35.0229
-307.243
-36.6333
-321.355
-38.3159
-336.062
-40.0727
-351.39
-41.9057
-367.364
-43.8163
-384.014
-45.8054
-401.368
-47.8733
-419.456
-50.0187
-438.311
-52.2392
-457.964
-54.5297
-478.451
-56.8824
-499.804
-59.2851
-522.057
-61.7205
-545.241
-64.1646
-569.384
-66.585
-594.5
-68.9394
-620.591
-71.1746
-647.634
-73.2259
-675.57
-75.0177
-704.292
-76.4664
-733.632
-77.484
-763.356
-77.9835
-793.169
-77.8813
-822.746
-77.095
-851.782
-75.5293
-880.067
-73.0498
-907.559
-69.4383
-934.416
-64.3355
-960.956
-57.1575
-987.493
-47.0225
-1013.84
-32.6822
-1038.48
-12.6641
-1056.64
14.5361
-1057.32
49.7384
-1022.96
93.47
-919.709
143.65
-716.072
204.435
-261.429
238.385
427.046
232.114
1018.27
191.31
1503.83
140.716
1809.68
82.1444
1984.85
34.3518
2068.44
2330.01
-11.8632
-28.4523
-11.7888
-37.9143
-11.7912
-43.7242
-11.842
-49.9288
-11.9494
-55.9047
-12.1033
-61.797
-12.3053
-67.6299
-12.5516
-73.4406
-12.8422
-79.261
-13.1755
-85.1204
-13.5512
-91.0454
-13.9686
-97.0607
-14.4278
-103.19
-14.9283
-109.453
-15.4705
-115.873
-16.0545
-122.468
-16.6807
-129.257
-17.3495
-136.26
-18.0618
-143.493
-18.8182
-150.976
-19.6198
-158.726
-20.4676
-166.762
-21.3627
-175.1
-22.3066
-183.759
-23.3006
-192.757
-24.3462
-202.112
-25.4453
-211.845
-26.5995
-221.972
-27.8107
-232.515
-29.0809
-243.493
-30.4121
-254.926
-31.8066
-266.836
-33.2666
-279.244
-34.7944
-292.173
-36.3922
-305.645
-38.0624
-319.685
-39.8073
-334.317
-41.629
-349.568
-43.5294
-365.464
-45.51
-382.033
-47.5719
-399.306
-49.7152
-417.313
-51.9389
-436.087
-54.2403
-455.663
-56.6145
-476.076
-59.0532
-497.365
-61.5441
-519.566
-64.0695
-542.716
-66.6045
-566.849
-69.1156
-591.989
-71.5591
-618.148
-73.8796
-645.314
-76.0096
-673.44
-77.8704
-702.431
-79.375
-732.127
-80.4328
-762.298
-80.9554
-792.647
-80.861
-822.841
-80.0721
-852.571
-78.5022
-881.637
-76.028
-910.033
-72.4421
-938.002
-67.3899
-966.008
-60.2772
-994.605
-50.1774
-1023.94
-35.7462
-1052.91
-15.3477
-1077.04
12.7198
-1085.38
49.5368
-1059.78
95.9888
-966.161
149.686
-769.769
215.642
-327.385
256.953
385.734
252.205
1023.02
209.748
1546.28
155.365
1864.06
94.2072
2046
37.443
2125.21
2349.7
-12.2576
-28.5833
-12.1922
-37.9798
-12.2016
-43.7148
-12.2607
-49.8696
-12.3771
-55.7883
-12.5415
-61.6326
-12.7551
-67.4163
-13.0145
-73.1813
-13.3194
-78.9561
-13.6684
-84.7714
-14.0612
-90.6526
-14.4971
-96.6249
-14.9759
-102.711
-15.4976
-108.932
-16.0622
-115.308
-16.6699
-121.86
-17.3213
-128.606
-18.0168
-135.564
-18.7571
-142.753
-19.5431
-150.19
-20.3757
-157.894
-21.2561
-165.881
-22.1855
-174.17
-23.1653
-182.779
-24.1969
-191.725
-25.2819
-201.027
-26.4222
-210.704
-27.6194
-220.775
-28.8756
-231.259
-30.1928
-242.176
-31.5731
-253.546
-33.0188
-265.39
-34.5322
-277.73
-36.1156
-290.589
-37.7714
-303.989
-39.502
-317.954
-41.3098
-332.509
-43.197
-347.681
-45.1654
-363.495
-47.2169
-379.982
-49.3523
-397.171
-51.572
-415.093
-53.8749
-433.784
-56.2584
-453.279
-58.7175
-473.617
-61.2438
-494.839
-63.8249
-516.985
-66.4425
-540.099
-69.0712
-564.22
-71.6764
-589.383
-74.2129
-615.611
-76.6233
-642.903
-78.8373
-671.226
-80.7731