/*--------------------------------*- C++ -*----------------------------------*\
| =========                 |                                                 |
| \\      /  F ield         | OpenFOAM: The Open Source CFD Toolbox           |
|  \\    /   O peration     | Version:  4.1                                   |
|   \\  /    A nd           | Web:      www.OpenFOAM.org                      |
|    \\/     M anipulation  |                                                 |
\*---------------------------------------------------------------------------*/
FoamFile
{
    version     2.0;
    format      ascii;
    class       volVectorField;
    location    "5";
    object      U;
}
// * * * * * * * * * * * * * * * * * * * * * * * * * * * * * * * * * * * * * //

dimensions      [0 1 -1 0 0 0 0];

internalField   nonuniform List<vector> 
6785
(
(1.26877e-14 -2.33171 16.5095)
(1.1135e-14 -7.91428 13.0185)
(-2.89292e-15 -5.12305 13.8193)
(3.94417e-15 -5.04689 13.3357)
(8.78193e-16 -4.23831 13.2022)
(-1.28213e-16 -3.79474 12.9208)
(2.51975e-15 -3.35125 12.6447)
(5.78876e-16 -3.02681 12.3319)
(-7.19813e-16 -2.79174 12.0171)
(1.38937e-15 -2.69027 11.7288)
(5.65256e-17 -2.70287 11.5368)
(-2.43588e-16 -2.83823 11.4171)
(5.89267e-16 -3.4273 10.9185)
(-1.54525e-16 -3.6055 9.75185)
(-1.69721e-17 -0.166192 7.63518)
(1.77564e-14 -10.391 27.0403)
(1.28728e-14 -16.3331 23.4872)
(-2.77956e-15 -11.2799 23.8264)
(3.86463e-15 -12.0168 22.0237)
(7.16707e-16 -10.2924 21.1827)
(5.84574e-16 -9.64249 19.9713)
(1.28594e-15 -8.65465 18.9122)
(-6.60851e-17 -7.88154 17.8336)
(-4.81691e-16 -7.12281 16.8089)
(8.6482e-17 -6.3966 15.7117)
(-3.20983e-16 -5.48517 14.2137)
(-6.83799e-16 -4.08917 11.7065)
(-4.84432e-16 -2.09545 7.54075)
(5.33933e-16 0.171256 2.10741)
(2.55536e-16 0.912666 -1.21178)
(1.96815e-14 -13.0085 28.6669)
(1.14898e-14 -17.1625 25.3731)
(-1.98267e-15 -12.2417 25.4056)
(4.84513e-15 -13.503 22.8226)
(3.80988e-16 -11.2752 21.8507)
(1.33382e-15 -10.9721 20.0553)
(2.07652e-15 -9.82173 18.7246)
(-4.23881e-16 -9.18218 17.245)
(2.90842e-16 -8.41705 15.9303)
(2.14343e-15 -7.74616 14.5054)
(-3.48248e-16 -6.75762 12.5892)
(1.54573e-16 -4.95567 9.23818)
(6.63356e-15 -1.31398 2.84132)
(1.06321e-15 4.17451 -6.23243)
(1.88991e-16 2.27785 -6.50412)
(1.9575e-14 -13.4892 27.635)
(1.24479e-14 -17.3266 25.6778)
(-1.66479e-15 -12.7988 24.9579)
(4.39617e-15 -14.1653 22.0433)
(1.42345e-15 -11.9104 21.041)
(1.05227e-15 -11.7902 19.0082)
(2.30108e-15 -10.6809 17.5464)
(9.56709e-16 -10.0503 15.895)
(-5.48269e-17 -9.31039 14.4025)
(1.3468e-15 -8.64094 12.9314)
(8.83623e-16 -7.87742 11.2951)
(-7.27563e-16 -6.68417 9.12309)
(8.01036e-16 -4.80123 5.81808)
(1.86592e-15 -2.22722 2.6265)
(-1.18773e-15 0.431051 -2.515)
(1.94999e-14 -13.1212 26.0881)
(1.34432e-14 -16.9366 25.591)
(-1.1552e-15 -12.7599 24.258)
(3.57717e-15 -13.7545 21.2374)
(1.4606e-15 -11.5762 20.1831)
(6.26791e-16 -11.3848 18.0424)
(1.95612e-15 -10.2276 16.5323)
(3.65709e-16 -9.57658 14.9172)
(-1.58357e-15 -8.87746 13.5222)
(-9.54958e-16 -8.21342 12.1708)
(-7.69314e-16 -7.52514 10.7549)
(-1.53295e-15 -6.62486 9.22994)
(-1.22849e-15 -5.5114 7.33652)
(-1.08459e-15 -3.82772 5.37386)
(-2.98606e-15 -1.13919 0.183394)
(1.99055e-14 -12.7628 25.0689)
(1.3192e-14 -16.0909 24.7556)
(-7.53283e-16 -12.2033 23.3833)
(3.50225e-15 -13.0395 20.2892)
(1.18742e-15 -10.6116 19.3007)
(1.2601e-15 -10.5128 16.9514)
(1.43827e-15 -9.0006 15.5459)
(6.16359e-16 -8.43731 13.7369)
(4.54255e-16 -7.65606 12.3027)
(-5.55684e-17 -7.27068 11.0058)
(-5.76851e-17 -7.00108 10.0716)
(-2.32908e-16 -6.83491 9.48851)
(-1.23823e-15 -6.53435 9.12569)
(-7.55878e-16 -5.78382 8.48645)
(2.90606e-16 -3.50581 5.22049)
(2.04475e-14 -13.2758 25.5069)
(1.05022e-14 -15.2816 24.5591)
(3.38817e-16 -12.148 23.3711)
(2.73994e-15 -12.3927 20.7896)
(7.49889e-16 -10.2372 19.7661)
(1.9243e-15 -9.72216 17.6516)
(3.29764e-15 -7.72882 15.5777)
(6.65695e-15 -6.0535 12.3132)
(6.58372e-15 -4.19124 9.334)
(2.44291e-15 -3.39926 7.45327)
(1.14706e-15 -3.67862 7.45869)
(6.65879e-16 -5.05797 9.10078)
(-1.63531e-15 -6.6367 11.2911)
(-2.1753e-15 -7.63082 12.2535)
(9.89479e-16 -5.53333 10.0431)
(2.01928e-14 -14.5173 27.4281)
(8.24958e-15 -16.1379 26.3578)
(-6.76714e-17 -13.0474 25.0294)
(2.07261e-15 -13.175 23.0396)
(-1.82978e-16 -11.3025 22.1633)
(1.15214e-15 -10.7183 20.3838)
(4.17594e-15 -8.62186 18.1495)
(9.35169e-15 -6.38983 14.3847)
(9.78117e-15 -3.63709 10.5474)
(5.86764e-15 -1.46145 7.15072)
(4.57231e-15 0.252376 4.53985)
(4.5098e-15 0.669448 3.45524)
(3.21423e-15 -0.871727 4.95443)
(2.20849e-15 -3.6301 7.97267)
(1.45965e-15 -3.87467 8.29376)
(1.8353e-14 -14.3846 26.549)
(1.04005e-14 -18.4057 29.6252)
(1.11649e-15 -14.757 27.0527)
(1.77785e-15 -14.744 24.7521)
(-3.69727e-16 -13.0555 23.8376)
(1.48568e-15 -12.8078 22.179)
(2.2174e-15 -11.2228 20.4366)
(6.25783e-15 -9.6296 17.365)
(1.10903e-14 -7.18104 13.8981)
(7.43931e-15 -4.85223 10.2389)
(7.04418e-15 -2.31169 6.50476)
(9.28611e-15 0.220101 2.42171)
(5.11325e-15 2.59944 -1.36565)
(6.63723e-15 3.18863 -2.78107)
(6.21444e-15 1.15318 -1.2484)
(1.6728e-14 -12.3272 21.9508)
(1.38766e-14 -18.8979 30.3106)
(4.10328e-15 -16.2634 28.0011)
(2.74528e-15 -15.3477 24.7815)
(5.54668e-16 -13.8826 23.1276)
(1.79408e-15 -13.4462 21.3644)
(2.103e-15 -12.486 19.7787)
(1.92882e-15 -11.5414 17.6955)
(5.02165e-15 -10.1667 15.3504)
(6.30002e-15 -8.60317 12.7649)
(4.78355e-15 -6.79737 9.982)
(6.27604e-15 -4.66224 6.915)
(7.73839e-15 -2.29631 3.40752)
(4.91702e-15 1.40806 -0.648293)
(3.83259e-16 1.76893 -5.44888)
(1.52899e-14 -9.98293 17.271)
(1.56317e-14 -17.7551 29.0562)
(6.85364e-15 -16.2788 27.6441)
(2.79005e-15 -14.7508 23.9038)
(1.21091e-15 -13.2234 21.6417)
(2.52025e-15 -12.4896 19.7359)
(1.72904e-15 -11.6284 18.1291)
(5.03564e-16 -10.8119 16.4096)
(2.09304e-15 -9.86873 14.6142)
(2.7346e-15 -8.79492 12.7253)
(1.99384e-15 -7.6136 10.7111)
(2.54796e-15 -6.17391 8.55003)
(2.87606e-15 -4.58507 5.97824)
(3.32583e-15 -2.04857 2.84096)
(-1.44763e-15 0.14731 -2.40743)
(1.39088e-14 -8.63535 14.8292)
(1.65122e-14 -16.6998 27.9792)
(6.94863e-15 -15.6546 26.8424)
(2.25339e-15 -13.8777 22.9525)
(1.6654e-15 -12.2945 20.5834)
(2.05572e-15 -11.4728 18.7135)
(1.19399e-15 -10.5642 17.1881)
(5.61604e-16 -9.76404 15.6201)
(1.00642e-15 -8.91102 14.0818)
(1.12439e-15 -8.03461 12.5388)
(6.64415e-16 -7.12201 10.9524)
(3.11268e-17 -6.05292 9.25935)
(7.98133e-16 -4.84019 7.22845)
(8.57833e-16 -2.97061 4.46832)
(-3.50914e-15 -0.657952 -0.206275)
(1.24433e-14 -8.09451 13.9742)
(1.70242e-14 -16.3372 27.4966)
(6.81164e-15 -15.4851 26.5866)
(2.3196e-15 -13.6998 22.7958)
(2.86624e-15 -12.1692 20.4927)
(2.16397e-15 -11.3506 18.6488)
(7.47229e-16 -10.3787 17.1433)
(1.30342e-15 -9.56481 15.6026)
(8.40748e-16 -8.69176 14.1492)
(3.84085e-16 -7.87867 12.7399)
(1.18468e-16 -7.05807 11.3681)
(-1.21022e-15 -6.17547 9.93053)
(-2.87926e-16 -5.14181 8.25279)
(8.2502e-17 -3.65968 5.86326)
(-4.90225e-15 -1.54458 2.34549)
(1.01043e-14 -6.97834 11.7327)
(1.69038e-14 -15.854 26.2839)
(6.28533e-15 -15.461 26.0889)
(-8.35306e-16 -12.9993 21.6935)
(2.20576e-16 -11.211 19.436)
(-2.77731e-16 -10.5732 18.0057)
(-1.15974e-15 -9.64703 16.8362)
(1.00759e-15 -8.96039 15.3847)
(4.42655e-16 -8.08708 14.0464)
(-1.28705e-16 -7.36488 12.6853)
(1.19872e-16 -6.60014 11.3968)
(-7.15202e-16 -5.81817 10.0286)
(7.48501e-16 -4.87312 8.39189)
(5.99984e-16 -3.38691 5.88013)
(-6.28923e-15 -1.25237 2.34145)
(5.69833e-15 -5.21353 9.56193)
(1.65164e-14 -15.6661 24.751)
(1.18631e-14 -18.9504 28.7141)
(7.71487e-15 -18.4153 26.4234)
(9.36817e-15 -16.169 22.7255)
(7.76792e-15 -14.2626 19.7497)
(5.07473e-15 -12.8602 17.5508)
(3.86265e-15 -11.8135 15.8052)
(4.21729e-15 -10.8043 14.2531)
(4.86419e-15 -9.84058 12.8166)
(4.25359e-15 -8.82904 11.4693)
(3.72309e-15 -7.77159 10.1267)
(4.75696e-15 -6.58355 8.75766)
(4.92268e-15 -5.05449 6.82117)
(6.2986e-15 -1.97578 2.89748)
(2.15232e-17 2.46895 9.67617)
(7.27689e-16 -0.580286 1.6109)
(5.07868e-16 -0.0633276 -0.975367)
(4.28006e-16 -0.0974627 -0.738747)
(3.76957e-16 0.0380488 -0.853863)
(4.5435e-16 0.246212 -1.21814)
(3.87343e-16 0.173588 -0.847985)
(4.39304e-16 0.26535 -0.838004)
(5.42486e-16 0.30182 -0.803089)
(5.98905e-16 0.500518 -1.13422)
(5.36202e-16 0.457454 -0.816173)
(6.17009e-16 0.526352 -0.754997)
(8.35531e-16 0.75638 -0.985938)
(7.15902e-16 0.636166 -0.630411)
(7.86255e-16 0.744412 -0.567287)
(8.58787e-16 0.726373 -0.475536)
(1.17067e-15 0.937818 -0.556973)
(1.06105e-15 0.816229 -0.297312)
(1.24581e-15 0.853438 -0.227325)
(2.00885e-15 1.09494 -0.233032)
(1.96823e-15 0.875616 -0.0960744)
(2.26603e-15 0.975061 -0.0708487)
(2.38707e-15 0.908789 -0.0576419)
(3.3457e-15 1.15856 -0.0372079)
(2.51829e-15 0.918131 0.00627035)
(2.37782e-15 1.00938 0.0128164)
(2.11504e-15 0.944553 0.00707827)
(2.62063e-15 1.14859 0.0494992)
(1.77097e-15 0.941898 0.0533254)
(1.40465e-15 0.967304 0.0342053)
(1.50382e-15 1.17691 0.081803)
(6.69524e-16 0.904516 0.0527941)
(2.53906e-16 0.99393 0.0450396)
(-1.34386e-16 0.932013 0.0297375)
(-6.44042e-16 1.10687 0.0888143)
(-7.81158e-16 0.888659 0.0675781)
(-7.82295e-16 0.915689 0.0537627)
(-1.02498e-15 1.08854 0.122993)
(-5.68167e-16 0.822625 0.0694978)
(-3.39585e-16 0.903029 0.0573896)
(-1.02642e-16 0.845418 0.0316363)
(1.35288e-16 1.00953 0.0650355)
(2.65417e-16 0.767444 0.00567777)
(2.63201e-16 0.842009 -0.00758432)
(1.58319e-16 0.798303 -0.0289514)
(1.45385e-17 0.923756 -0.027787)
(-1.39891e-16 0.728886 -0.0665921)
(-2.07865e-16 0.76386 -0.0767732)
(-2.90481e-16 0.884454 -0.0851333)
(-1.29482e-16 0.667271 -0.0973094)
(8.23946e-18 0.738944 -0.0888581)
(1.54209e-16 0.703767 -0.0806409)
(4.34485e-16 0.822175 -0.0949335)
(4.55614e-16 0.632022 -0.103604)
(5.1601e-16 0.69735 -0.101651)
(4.37532e-16 0.665186 -0.0912776)
(8.34108e-16 0.802129 -0.232257)
(5.06462e-16 0.699052 -0.191383)
(4.33817e-16 0.733564 -0.161825)
(6.0402e-16 0.829397 -0.2596)
(5.13206e-16 0.697129 -0.174829)
(6.02237e-16 0.749174 -0.123416)
(7.0625e-16 0.736453 -0.057255)
(1.18336e-15 0.690317 -0.216061)
(1.31106e-15 0.445669 -0.426416)
(1.05763e-15 0.488361 -0.285919)
(2.65276e-15 0.545828 -1.68672)
(2.64845e-15 -0.127454 -1.96414)
(2.15613e-15 0.0241798 -1.79322)
(2.35276e-15 0.231353 -2.11153)
(-2.29727e-15 0.057984 1.54607)
(-6.84232e-15 -0.930794 4.32761)
(-7.78492e-15 -1.09899 4.06803)
(-9.14708e-15 -1.27765 4.40584)
(-1.58265e-14 -2.21931 7.79987)
(-1.45275e-14 -3.09508 7.56321)
(-1.52552e-14 -3.28374 7.87123)
(-2.08714e-14 -4.91765 11.9386)
(-1.55206e-14 -5.37157 9.80815)
(-1.52194e-14 -5.85849 10.3246)
(-1.54853e-14 -6.41147 11.9903)
(-1.40624e-14 -6.35142 11.6738)
(-1.32141e-14 -6.46015 11.8991)
(-1.48045e-14 -7.71666 14.424)
(-1.11573e-14 -7.16244 13.0812)
(-1.05186e-14 -7.37734 13.6354)
(-1.0246e-14 -7.36738 13.6775)
(-1.05903e-14 -7.45064 13.6532)
(-1.14759e-14 -7.51357 13.621)
(-1.2645e-14 -7.58281 13.5919)
(-1.38174e-14 -7.62414 13.6813)
(-1.47742e-14 -7.71716 13.8715)
(-1.89642e-14 -8.13818 15.265)
(-1.52102e-14 -8.20121 14.3575)
(-1.40156e-14 -8.30809 14.4344)
(-1.24323e-14 -8.29653 14.4664)
(-1.11152e-14 -8.41189 14.6591)
(-9.75977e-15 -8.40161 14.5832)
(-8.49103e-15 -8.4732 14.5703)
(-7.39152e-15 -8.47975 14.5394)
(-6.57568e-15 -8.5558 14.5595)
(-7.73777e-15 -8.8749 15.7892)
(-5.72023e-15 -8.96154 14.9907)
(-5.31257e-15 -9.02391 15.0168)
(-5.62485e-15 -9.05026 15.0044)
(-6.276e-15 -9.08825 15.0202)
(-7.26368e-15 -9.10771 15.0936)
(-8.3778e-15 -9.16278 15.1822)
(-9.44046e-15 -9.1601 15.1311)
(-1.00233e-14 -9.16262 15.1481)
(-1.01368e-14 -9.24625 15.1931)
(-1.16362e-14 -9.24381 16.0082)
(-7.63775e-15 -9.5069 15.541)
(-5.02625e-15 -9.51824 15.6477)
(-2.60721e-15 -9.52852 15.7009)
(-5.30994e-16 -9.55051 15.7819)
(1.035e-15 -9.55443 15.8983)
(1.96668e-15 -9.59309 16.1722)
(2.44696e-15 -9.55481 16.3341)
(2.55429e-15 -9.66829 16.4724)
(-1.621e-16 -9.2489 16.7943)
(2.40747e-16 -9.64993 16.6052)
(-4.8142e-16 -9.60755 17.0485)
(-9.97737e-16 -9.62674 17.4078)
(-1.50224e-15 -9.58675 17.6384)
(-1.87994e-15 -9.61478 17.9779)
(-2.17402e-15 -9.62812 18.3704)
(-2.33685e-15 -9.58371 18.8734)
(-2.23228e-15 -9.82741 19.6054)
(-7.09441e-15 -8.46975 19.1687)
(-5.07012e-15 -9.19017 19.5116)
(-6.70507e-15 -9.09912 20.1615)
(-9.12183e-15 -9.07262 20.6749)
(-1.29336e-14 -9.08333 21.4361)
(-1.79738e-14 -9.06724 21.8028)
(-2.32685e-14 -9.03256 21.9971)
(-2.74736e-14 -9.01374 22.0841)
(-2.94017e-14 -9.15638 21.9564)
(-3.01805e-14 -6.75049 19.2647)
(-1.75112e-14 -7.78308 19.7699)
(-6.47616e-15 -7.58857 18.8697)
(4.07156e-15 -7.65077 18.0531)
(1.20125e-14 -7.54878 17.1121)
(1.66747e-14 -7.47272 16.2152)
(1.78774e-14 -7.37354 15.6283)
(1.55317e-14 -7.17216 14.7039)
(1.19778e-14 -6.99374 13.9981)
(8.6564e-15 -6.91155 13.1953)
(3.42057e-15 -3.43991 7.39404)
(5.33213e-15 -5.18269 10.5465)
(4.61426e-15 -4.67404 9.18738)
(4.97361e-15 -4.80706 8.53949)
(4.8791e-15 -4.4683 7.44264)
(4.72739e-15 -4.40339 6.20729)
(3.82156e-15 -4.19968 4.14716)
(2.824e-15 -3.83553 2.32206)
(2.98532e-15 -3.8793 2.46076)
(1.2761e-15 -3.37463 0.196544)
(1.8638e-15 -3.41269 1.57753)
(1.58112e-15 -3.39367 0.888922)
(3.71555e-16 -2.49964 -1.18899)
(1.2929e-15 -4.0689 -0.190139)
(8.39764e-16 -3.42801 -0.362004)
(6.461e-16 -3.14333 -0.167025)
(6.9769e-16 -4.17989 -0.345863)
(4.3668e-16 -2.95582 -0.176032)
(7.52276e-16 -3.88732 -0.290089)
(5.18725e-16 -3.76364 -0.221019)
(4.16424e-16 -3.1317 -0.127003)
(7.33108e-16 -3.84976 -0.224478)
(7.17344e-16 -3.72143 -0.182559)
(6.11417e-16 -3.2095 -0.112492)
(8.32422e-16 -4.33471 -0.214807)
(5.84626e-16 -3.03947 -0.129176)
(7.59148e-16 -3.98584 -0.204137)
(5.32665e-16 -3.64694 -0.207143)
(4.70112e-16 -3.19468 -0.140014)
(6.64054e-16 -4.27053 -0.24397)
(3.62333e-16 -2.97394 -0.158199)
(6.51336e-16 -3.901 -0.240743)
(6.27929e-16 -3.64686 -0.262867)
(5.6215e-16 -3.03138 -0.183915)
(8.48203e-16 -3.67966 -0.296509)
(7.28763e-16 -3.4598 -0.281161)
(4.79217e-16 -2.96172 -0.193259)
(6.53387e-16 -3.9467 -0.292709)
(4.18638e-16 -2.73855 -0.179593)
(4.72756e-16 -3.56821 -0.256407)
(2.3403e-16 -3.17211 -0.250717)
(1.75385e-16 -2.76828 -0.181262)
(2.17212e-16 -3.65819 -0.294969)
(1.9645e-16 -2.52149 -0.198695)
(3.77558e-16 -3.28931 -0.296179)
(4.19333e-16 -2.98892 -0.293338)
(2.64439e-16 -2.48054 -0.209503)
(4.64561e-16 -2.98816 -0.338096)
(3.99554e-16 -2.75113 -0.32622)
(1.80289e-16 -2.33915 -0.246135)
(2.55192e-16 -3.0978 -0.372639)
(1.44409e-16 -2.11514 -0.247585)
(1.54695e-16 -2.75132 -0.364175)
(8.21656e-17 -2.39871 -0.336961)
(3.55959e-17 -2.07424 -0.255252)
(-4.37869e-17 -2.73231 -0.37193)
(-1.91748e-16 -1.84901 -0.242926)
(-1.47461e-16 -2.41902 -0.34209)
(8.82456e-17 -2.17432 -0.314885)
(1.09019e-16 -1.78157 -0.243369)
(4.14225e-16 -2.15655 -0.370206)
(5.01111e-16 -1.98889 -0.320659)
(4.35884e-16 -1.67599 -0.217137)
(6.64558e-16 -2.26548 -0.247512)
(5.97312e-16 -1.53377 -0.128659)
(8.64112e-16 -2.0435 -0.12392)
(6.35523e-16 -1.84522 -0.0966831)
(4.57252e-16 -1.59437 -0.0570012)
(5.41311e-16 -2.17248 -0.0531865)
(2.32017e-16 -1.4753 -0.0291983)
(1.39723e-16 -1.97568 -0.0116592)
(-1.21785e-16 -1.81253 -0.0752511)
(-1.61791e-16 -1.47276 -0.0630168)
(-2.90419e-16 -1.81737 -0.117229)
(-2.79298e-16 -1.64534 -0.179785)
(-1.29743e-16 -1.36901 -0.151516)
(-1.49794e-16 -1.85157 -0.232206)
(-3.09792e-17 -1.1996 -0.166802)
(1.81454e-18 -1.6035 -0.207576)
(7.30442e-17 -1.33543 -0.211243)
(5.32336e-17 -1.11218 -0.171719)
(1.11084e-16 -1.51533 -0.273344)
(1.36457e-16 -0.914512 -0.229003)
(2.34874e-16 -1.26431 -0.31844)
(1.8002e-16 -1.03894 -0.347574)
(7.99068e-17 -0.741414 -0.34179)
(4.19627e-17 -0.954934 -0.594553)
(-7.0064e-17 -0.718127 -0.565909)
(-5.03882e-17 -0.451613 -0.417495)
(-1.25397e-16 -0.889228 -0.60389)
(-1.62782e-16 -0.121475 -0.415923)
(-1.94708e-16 -0.477012 -0.767979)
(3.5934e-75 0.0346545 0.0345901)
(3.8732e-74 0.0482557 0.0334907)
(1.57737e-73 0.0579096 0.0336354)
(-4.06476e-74 0.0668831 0.0335021)
(-4.86447e-72 0.0758615 0.0337547)
(-2.74384e-71 0.0844262 0.0340153)
(-1.21453e-72 0.0929849 0.0344805)
(8.57279e-70 0.10142 0.0350347)
(4.11467e-69 0.109885 0.0357417)
(-9.84797e-69 0.118368 0.0365636)
(-1.71901e-67 0.12694 0.037522)
(-2.29283e-67 0.135621 0.038604)
(5.52869e-66 0.144453 0.0398173)
(2.14679e-65 0.153462 0.041158)
(-2.07906e-64 0.162681 0.0426292)
(-1.63613e-63 0.172137 0.0442305)
(6.63789e-63 0.181858 0.0459642)
(1.19889e-61 0.191872 0.0478317)
(1.14007e-61 0.202205 0.0498354)
(-6.35941e-60 0.212883 0.051978)
(-3.59544e-59 0.223932 0.0542627)
(1.77218e-58 0.235378 0.0566931)
(2.7734e-57 0.247248 0.0592734)
(4.14176e-57 0.259567 0.0620081)
(-1.21644e-55 0.272361 0.0649023)
(-7.93748e-55 0.285658 0.0679616)
(2.15269e-54 0.299485 0.0711921)
(4.8456e-53 0.313868 0.0746004)
(1.27931e-52 0.328836 0.0781933)
(-1.64728e-51 0.344418 0.0819786)
(-1.3493e-50 0.360642 0.0859642)
(1.17824e-50 0.377537 0.0901586)
(6.47545e-49 0.395136 0.0945707)
(2.38759e-48 0.413467 0.0992102)
(-1.69666e-47 0.432564 0.104087)
(-1.72856e-46 0.452458 0.10921)
(-4.38509e-47 0.473182 0.114592)
(6.71024e-45 0.494768 0.120242)
(2.92061e-44 0.51725 0.126171)
(-1.37593e-43 0.540659 0.13239)
(-1.62328e-42 0.565028 0.138909)
(-1.32964e-42 0.590385 0.145736)
(5.16265e-41 0.616757 0.152879)
(2.37565e-40 0.644164 0.160343)
(-8.16837e-40 0.672621 0.168129)
(-1.04437e-38 0.702129 0.176232)
(-1.23148e-38 0.732678 0.184641)
(2.61671e-37 0.764236 0.193335)
(1.25013e-36 0.796744 0.202279)
(-2.72773e-36 0.830111 0.211421)
(-4.11447e-35 0.864201 0.220689)
(-7.15042e-35 0.898828 0.229979)
(7.11745e-34 0.933745 0.239156)
(3.90422e-33 0.968639 0.248044)
(-1.9205e-33 1.00313 0.256419)
(-8.20436e-32 1.03675 0.264001)
(-2.29702e-31 1.06901 0.270447)
(6.63244e-31 1.09931 0.275344)
(5.77874e-30 1.12705 0.278184)
(8.56027e-30 1.15151 0.278359)
(-5.22194e-29 1.17191 0.275096)
(-2.73671e-28 1.18718 0.267461)
(-2.55827e-28 1.19592 0.254187)
(2.10417e-27 1.19586 0.23381)
(9.10014e-27 1.18405 0.204231)
(1.03937e-26 1.15507 0.163546)
(-3.79322e-26 1.10321 0.108709)
(-1.92854e-25 1.01573 0.0393576)
(-3.93006e-25 0.883485 -0.0467323)
(6.07311e-25 0.67913 -0.13998)
(-1.25348e-23 0.356666 -0.237766)
(9.07759e-23 -0.263223 -0.306853)
(-2.62273e-22 -0.651675 -0.336868)
(9.61238e-22 -1.12864 -0.268239)
(-3.77512e-21 -1.45967 -0.337497)
(2.75919e-20 -2.0362 -0.164318)
(-2.10181e-19 -2.01592 -0.473789)
(3.43729e-18 -3.09883 0.016308)
(-1.57922e-17 -3.40863 -1.20863)
(6.00171e-75 0.034877 0.0399567)
(1.81261e-73 0.04844 0.0384358)
(1.04536e-72 0.0579268 0.0385467)
(1.93161e-72 0.0668757 0.0383265)
(-1.81884e-71 0.0757876 0.0385879)
(-1.67146e-70 0.0843148 0.0388589)
(-3.88793e-70 0.0928246 0.0393745)
(3.12315e-69 0.101219 0.0399922)
(2.76189e-68 0.10964 0.040787)
(2.86927e-68 0.118081 0.0417126)
(-7.32512e-67 0.126611 0.0427935)
(-3.42807e-66 0.13525 0.0440141)
(1.29575e-65 0.14404 0.0453829)
(1.3486e-64 0.153006 0.0468949)
(-3.55072e-64 0.162183 0.0485535)
(-6.83478e-63 0.171596 0.0503579)
(8.41639e-63 0.181275 0.0523106)
(4.51722e-61 0.191245 0.0544127)
(1.21676e-60 0.201533 0.056667)
(-2.20091e-59 0.212165 0.0590762)
(-1.72771e-58 0.223168 0.0616436)
(4.13094e-58 0.234566 0.0643732)
(1.13593e-56 0.246387 0.0672693)
(3.31534e-56 0.258655 0.070337)
(-4.19719e-55 0.271397 0.0735815)
(-3.6561e-54 0.28464 0.0770089)
(2.91946e-54 0.29841 0.0806257)
(1.86365e-52 0.312735 0.0844388)
(7.35087e-52 0.327642 0.0884558)
(-5.01112e-51 0.34316 0.0926848)
(-5.53098e-50 0.359318 0.0971341)
(-3.29434e-50 0.376145 0.101813)
(2.19185e-48 0.393672 0.106731)
(1.09804e-47 0.411929 0.111897)
(-4.13153e-47 0.430948 0.117323)
(-6.10888e-46 0.45076 0.123019)
(-9.56296e-46 0.471399 0.128996)
(1.91851e-44 0.492898 0.135264)
(1.12873e-43 0.515288 0.141835)
(-2.42823e-43 0.538603 0.148719)
(-4.9054e-42 0.562874 0.155925)
(-1.05034e-41 0.588132 0.163461)
(1.22966e-40 0.614402 0.171333)
(7.92233e-40 0.641706 0.179542)
(-9.39819e-40 0.670061 0.188087)
(-2.71698e-38 0.699471 0.196958)
(-6.87706e-38 0.729927 0.206135)
(5.17875e-37 0.7614 0.215588)
(3.62655e-36 0.793839 0.225268)
(-9.25974e-37 0.827158 0.235106)
(-9.20959e-35 0.861229 0.245008)
(-2.86801e-34 0.895876 0.254845)
(1.09538e-33 0.930864 0.26445)
(9.67313e-33 0.965895 0.273614)
(9.92645e-33 1.0006 0.282073)
(-1.49752e-31 1.03455 0.289511)
(-6.64294e-31 1.06724 0.295546)
(3.3055e-31 1.09814 0.299729)
(1.14061e-29 1.12664 0.301518)
(3.21467e-29 1.1521 0.300265)
(-4.97148e-29 1.17376 0.295138)
(-5.61836e-28 1.19065 0.285119)
(-1.24676e-27 1.20145 0.268792)
(1.8833e-27 1.20403 0.244503)
(1.81208e-26 1.19552 0.20982)
(4.27766e-26 1.17065 0.162594)
(-2.04735e-27 1.12347 0.0992551)
(-3.13073e-25 1.04111 0.0195907)
(-1.07705e-24 0.912939 -0.0785452)
(-5.34104e-25 0.710429 -0.185882)
(-2.05373e-23 0.387198 -0.295578)
(9.73016e-23 -0.270438 -0.377915)
(-2.52579e-22 -0.680466 -0.379235)
(9.56066e-22 -1.15301 -0.291548)
(-3.81391e-21 -1.49678 -0.353366)
(2.81038e-20 -2.0452 -0.172441)
(-2.16883e-19 -2.06179 -0.470955)
(3.49163e-18 -3.02482 0.0160768)
(-1.51901e-17 -3.3443 -1.16597)
(-2.81121e-74 0.0350122 0.0428474)
(6.15607e-73 0.0485494 0.0411624)
(4.90751e-72 0.0579381 0.0412544)
(1.59345e-71 0.0668699 0.0409888)
(-4.0725e-71 0.0757439 0.0412562)
(-7.27855e-70 0.0842496 0.0415347)
(-2.97283e-69 0.0927321 0.0420793)
(6.29262e-69 0.101104 0.0427336)
(1.25611e-67 0.1095 0.0435783)
(4.1634e-67 0.117919 0.0445624)
(-1.95482e-66 0.126425 0.0457122)
(-2.01634e-65 0.135041 0.0470105)
(-1.42002e-65 0.143808 0.0484661)
(5.01994e-64 0.152751 0.0500736)
(1.01732e-63 0.161905 0.0518364)
(-1.63936e-62 0.171295 0.0537536)
(-2.81213e-62 0.180949 0.0558275)
(1.09976e-60 0.190895 0.0580595)
(5.09326e-60 0.201159 0.0604523)
(-5.34252e-59 0.211767 0.0630086)
(-5.64202e-58 0.222744 0.0657319)
(4.52089e-58 0.234116 0.0686263)
(3.37958e-56 0.24591 0.0716963)
(1.40358e-55 0.258151 0.074947)
(-1.05918e-54 0.270864 0.0783841)
(-1.20576e-53 0.284078 0.0820136)
(-6.34994e-54 0.297817 0.0858423)
(5.32946e-52 0.31211 0.0898775)
(2.76051e-51 0.326985 0.0941268)
(-1.08934e-50 0.342469 0.0985987)
(-1.68022e-49 0.358591 0.103302)
(-2.92302e-49 0.375382 0.108246)
(5.58899e-48 0.39287 0.11344)
(3.58881e-47 0.411087 0.118894)
(-6.44049e-47 0.430065 0.12462)
(-1.63368e-45 0.449834 0.130628)
(-4.37095e-45 0.470429 0.136929)
(4.11918e-44 0.491881 0.143534)
(3.18355e-43 0.514223 0.150454)
(-1.59203e-43 0.537489 0.157699)
(-1.12105e-41 0.561711 0.165278)
(-3.73463e-41 0.586917 0.173198)
(2.12778e-40 0.613136 0.181464)
(1.91502e-39 0.64039 0.190077)
(6.24786e-40 0.668696 0.199032)
(-5.23164e-38 0.698059 0.208315)
(-1.99717e-37 0.728474 0.217903)
(6.98117e-37 0.759914 0.227759)
(7.45961e-36 0.792331 0.237828)
(8.01054e-36 0.825641 0.248031)
(-1.48e-34 0.859724 0.258259)
(-6.68172e-34 0.894409 0.268371)
(9.64539e-34 0.929467 0.278183)
(1.67059e-32 0.964607 0.287466)
(3.57683e-32 0.999469 0.295939)
(-1.88203e-31 1.03363 0.303266)
(-1.22388e-30 1.0666 0.30905)
(-9.1525e-31 1.09785 0.312828)
(1.56111e-29 1.1268 0.314042)
(6.34981e-29 1.15281 0.312031)
(-1.0302e-30 1.17518 0.305937)
(-7.84557e-28 1.19296 0.294699)
(-2.53934e-27 1.20491 0.276818)
(-4.77658e-29 1.20897 0.250528)
(2.42985e-26 1.20231 0.213204)
(8.04704e-26 1.17976 0.16254)
(7.26599e-26 1.1352 0.0946358)
(-3.45239e-25 1.05562 0.00928911)
(-1.71639e-24 0.929609 -0.0956519)
(-2.23619e-24 0.727411 -0.211892)
(-2.96429e-23 0.402466 -0.327385)
(1.14458e-22 -0.250176 -0.442991)
(-2.3536e-22 -0.679763 -0.445428)
(9.45618e-22 -1.146 -0.330303)
(-3.86175e-21 -1.49739 -0.376475)
(2.87424e-20 -2.02243 -0.184265)
(-2.2477e-19 -2.06953 -0.46378)
(3.54619e-18 -2.94282 0.0203542)
(-1.40467e-17 -3.27997 -1.10839)
(-3.49725e-73 0.0352287 0.0461468)
(1.61718e-72 0.0487211 0.044317)
(2.05781e-71 0.0579675 0.0443979)
(9.48088e-71 0.06687 0.0440937)
(1.35884e-71 0.0756864 0.0443729)
(-2.7805e-69 0.0841579 0.044666)
(-1.69042e-68 0.092599 0.0452482)
(-8.47188e-69 0.100936 0.0459494)
(4.88558e-67 0.109295 0.0468554)
(2.78201e-66 0.117679 0.0479112)
(-1.61371e-66 0.12615 0.0491446)
(-9.11311e-65 0.134732 0.0505366)
(-3.33892e-64 0.143463 0.0520968)
(1.19151e-63 0.152372 0.0538189)
(1.12377e-62 0.161491 0.0557066)
(-6.23715e-63 0.170846 0.0577586)
(-1.83523e-61 0.180465 0.0599776)
(1.67417e-60 0.190375 0.0623648)
(1.40792e-59 0.200603 0.0649229)
(-1.1115e-58 0.211173 0.0676548)
(-1.58349e-57 0.222112 0.0705642)
(-6.02398e-58 0.233446 0.0736552)
(9.21192e-56 0.245199 0.0769326)
(4.98413e-55 0.257399 0.0804016)
(-2.38853e-54 0.27007 0.0840683)
(-3.6822e-53 0.283239 0.0879389)
(-6.19986e-53 0.296933 0.0920204)
(1.42161e-51 0.311179 0.0963205)
(9.42588e-51 0.326004 0.100847)
(-1.87037e-50 0.341438 0.105609)
(-4.83301e-49 0.357507 0.110615)
(-1.38334e-48 0.374242 0.115875)
(1.32258e-47 0.391673 0.121399)
(1.10744e-46 0.409831 0.127198)
(-2.85236e-47 0.428746 0.133282)
(-4.18134e-45 0.448451 0.139663)
(-1.61778e-44 0.468978 0.146352)
(7.94837e-44 0.490361 0.15336)
(8.6064e-43 0.512632 0.160698)
(7.64328e-43 0.535823 0.168376)
(-2.43592e-41 0.559969 0.176403)
(-1.15312e-40 0.585098 0.184785)
(2.98552e-40 0.611239 0.193526)
(4.4076e-39 0.638416 0.202624)
(7.41831e-39 0.666646 0.212073)
(-9.25077e-38 0.695939 0.221856)
(-5.11373e-37 0.726289 0.231945)
(5.75187e-37 0.757676 0.242296)
(1.42064e-35 0.790053 0.252845)
(3.35862e-35 0.823346 0.263502)
(-2.04741e-34 0.857439 0.274145)
(-1.37148e-33 0.89217 0.284616)
(-2.47408e-34 0.927322 0.294712)
(2.56598e-32 0.962612 0.304182)
(8.57493e-32 0.997693 0.312722)
(-1.76334e-31 1.03215 0.319974)
(-1.9707e-30 1.06552 0.32552)
(-3.46469e-30 1.09728 0.328879)
(1.80148e-29 1.12688 0.329477)
(1.04837e-28 1.15371 0.326636)
(9.96906e-29 1.17711 0.319467)
(-9.48275e-28 1.19621 0.306866)
(-4.14992e-27 1.20984 0.287245)
(-3.46694e-27 1.21608 0.258711)
(2.85364e-26 1.21216 0.21842)
(1.22913e-25 1.19304 0.163856)
(1.72599e-25 1.15238 0.0907121)
(-3.32104e-25 1.07701 -0.00127829)
(-2.35595e-24 0.954496 -0.114493)
(-4.21698e-24 0.753627 -0.241348)
(-4.19332e-23 0.429406 -0.366278)
(1.38882e-22 -0.233983 -0.499455)
(-2.1755e-22 -0.689461 -0.52698)
(9.28192e-22 -1.15377 -0.385543)
(-3.92335e-21 -1.50981 -0.407208)
(2.9463e-20 -2.01455 -0.199491)
(-2.32895e-19 -2.08626 -0.456532)
(3.58586e-18 -2.88478 0.0267306)
(-1.37553e-17 -3.22527 -1.02862)
(-2.33427e-72 0.0354332 0.049245)
(1.70746e-72 0.0488804 0.0473271)
(7.64139e-71 0.0579974 0.0474021)
(4.76095e-70 0.0668692 0.0470701)
(8.73017e-70 0.0756311 0.0473641)
(-8.99421e-69 0.0840694 0.0476757)
(-8.14589e-68 0.0924712 0.0482969)
(-1.86465e-67 0.100775 0.0490459)
(1.57454e-66 0.1091 0.0500136)
(1.44356e-65 0.11745 0.0511408)
(2.40955e-65 0.125889 0.0524567)
(-3.33027e-64 0.134437 0.0539413)
(-2.29347e-63 0.143136 0.0556041)
(-6.07382e-64 0.152013 0.0574385)
(5.78774e-62 0.161099 0.0594483)
(2.25021e-61 0.17042 0.0616321)
(-3.26747e-61 0.180007 0.0639925)
(-1.76829e-60 0.189883 0.0665307)
(1.2289e-59 0.200076 0.0692497)
(-2.17973e-58 0.210612 0.0721523)
(-3.58498e-57 0.221515 0.0752425)
(-3.59081e-57 0.232812 0.0785244)
(2.30817e-55 0.244529 0.0820031)
(1.50901e-54 0.256689 0.0856841)
(-4.84096e-54 0.269321 0.0895734)
(-1.03698e-52 0.282449 0.0936777)
(-2.80461e-52 0.296101 0.0980044)
(3.51097e-51 0.310303 0.102561)
(2.93944e-50 0.325083 0.107356)
(-1.53282e-50 0.340468 0.112399)
(-1.30244e-48 0.356489 0.117699)
(-5.22734e-48 0.373173 0.123265)
(2.80434e-47 0.390551 0.129109)
(3.20224e-46 0.408653 0.135241)
(3.31587e-46 0.427511 0.141672)
(-1.00438e-44 0.447156 0.148414)
(-5.28568e-44 0.467622 0.155479)
(1.22692e-43 0.488941 0.162877)
(2.2057e-42 0.511146 0.170619)
(4.77646e-42 0.534271 0.178716)
(-4.87347e-41 0.558347 0.187177)
(-3.24653e-40 0.583406 0.196006)
(1.79436e-40 0.609478 0.205206)
(9.55089e-39 0.636586 0.214776)
(2.94187e-38 0.664751 0.224704)
(-1.39565e-37 0.693982 0.234972)
(-1.19986e-36 0.724279 0.245547)
(-7.80625e-37 0.755624 0.256379)
(2.44204e-35 0.787976 0.267395)
(9.64706e-35 0.821264 0.278495)
(-1.94514e-34 0.855382 0.289546)
(-2.51591e-33 0.890176 0.300371)
(-4.16682e-33 0.925435 0.310749)
(3.23457e-32 0.96089 0.32041)
(1.69571e-31 0.996202 0.329028)
(-1.46217e-32 1.03097 0.336224)
(-2.66476e-30 1.06473 0.34156)
(-7.75359e-30 1.09699 0.344542)
(1.38663e-29 1.12721 0.344581)
(1.43416e-28 1.15481 0.340989)
(2.59077e-28 1.17918 0.332855)
(-8.88181e-28 1.1995 0.319034)
(-5.52456e-27 1.21472 0.297863)
(-7.88779e-27 1.223 0.267325)
(2.76472e-26 1.22169 0.224365)
(1.54193e-25 1.20584 0.16624)
(2.63802e-25 1.16896 0.0882104)
(-2.83815e-25 1.09764 -0.0101302)
(-2.80713e-24 0.978566 -0.131568)
(-5.8567e-24 0.778928 -0.269171)
(-5.60972e-23 0.455272 -0.404465)
(1.72033e-22 -0.215538 -0.560301)
(-2.04421e-22 -0.702289 -0.617622)
(9.01043e-22 -1.17146 -0.459215)
(-4.0298e-21 -1.53235 -0.448065)
(3.04288e-20 -2.01536 -0.219687)
(-2.41529e-19 -2.11147 -0.450735)
(3.59753e-18 -2.83162 0.0356231)
(-1.49303e-17 -3.18146 -0.981195)
(-1.24359e-71 0.0356605 0.0522903)
(-1.54034e-71 0.0490535 0.0503182)
(2.42896e-70 0.0580339 0.0503931)
(2.11162e-69 0.0668692 0.0500437)
(6.75241e-69 0.0755705 0.0503564)
(-2.18114e-68 0.0839708 0.0506911)
(-3.45479e-67 0.0923287 0.0513544)
(-1.33481e-66 0.100595 0.0521547)
(3.64446e-66 0.108881 0.0531867)
(6.38068e-65 0.117195 0.0543882)
(2.21237e-64 0.125596 0.0557894)
(-9.24807e-64 0.134108 0.0573691)
(-1.16744e-62 0.142771 0.0591371)
(-2.81338e-62 0.151611 0.0610864)
(2.11899e-61 0.16066 0.0632208)
(1.73852e-60 0.169946 0.0655389)
(2.42817e-60 0.179495 0.0680434)
(-2.54614e-59 0.189334 0.0707353)
(-1.48555e-58 0.199489 0.0736178)
(-6.98733e-58 0.209986 0.0766939)
(-5.40453e-57 0.22085 0.0799676)
(4.41929e-57 0.232107 0.0834433)
(5.61567e-55 0.243781 0.0871262)
(3.84143e-54 0.255899 0.091022)
(-1.02034e-53 0.268487 0.0951371)
(-2.72045e-52 0.281569 0.0994784)
(-9.54872e-52 0.295174 0.104053)
(8.15828e-51 0.309327 0.10887)
(8.43266e-50 0.324056 0.113938)
(5.11191e-50 0.33939 0.119265)
(-3.29173e-48 0.355355 0.124862)
(-1.71576e-47 0.371983 0.130739)
(5.09081e-47 0.389302 0.136907)
(8.6715e-46 0.407343 0.143376)
(1.89366e-45 0.426138 0.150159)
(-2.2352e-44 0.445717 0.157267)
(-1.57032e-43 0.466115 0.164712)
(8.97285e-44 0.487363 0.172505)
(5.32526e-42 0.509496 0.180658)
(1.82935e-41 0.532546 0.18918)
(-8.5871e-41 0.556547 0.19808)
(-8.47645e-40 0.581529 0.207363)
(-8.31963e-40 0.607524 0.217031)
(1.92471e-38 0.634557 0.227079)