/*--------------------------------*- C++ -*----------------------------------*\
| =========                 |                                                 |
| \\      /  F ield         | OpenFOAM: The Open Source CFD Toolbox           |
|  \\    /   O peration     | Version:  4.1                                   |
|   \\  /    A nd           | Web:      www.OpenFOAM.org                      |
|    \\/     M anipulation  |                                                 |
\*---------------------------------------------------------------------------*/
FoamFile
{
    version     2.0;
    format      ascii;
    class       volScalarField;
    location    "19";
    object      p;
}
// * * * * * * * * * * * * * * * * * * * * * * * * * * * * * * * * * * * * * //

dimensions      [0 2 -2 0 0 0 0];

internalField   nonuniform List<scalar> 
6785
(
602.863
525.099
478.703
425.904
379.7
335.16
293.621
254.223
216.88
181.44
147.247
113.915
84.9131
55.0003
13.6825
3.40479
-14.1791
-3.96947
-10.8799
-9.93851
-12.1957
-12.6307
-13.0272
-12.4927
-11.0659
-8.45191
-4.96687
0.0315049
6.41452
9.10934
22.6528
17.5134
25.9606
20.632
23.7452
21.8699
21.9697
20.84
19.9124
18.6684
17.6245
17.2117
16.8941
15.964
14.7413
15.7772
11.0791
12.6119
6.19397
5.93579
1.21262
-1.01352
-4.61558
-7.52652
-10.5773
-13.0125
-14.3676
-15.3122
-16.4316
-15.7348
-13.0724
-16.1407
-13.8619
-17.3822
-15.1747
-17.4419
-16.6068
-17.4096
-17.2669
-17.3392
-16.9494
-16.0691
-14.449
-13.4079
-11.2745
5.04213
4.76924
8.14332
6.88216
10.412
10.112
12.478
13.4163
15.0626
16.4519
18.0075
19.4091
21.2184
22.5093
25.102
29.622
30.3664
33.0616
32.3569
35.2314
35.1963
37.0916
37.9523
39.2799
40.4518
41.7355
42.9195
44.3146
45.306
46.8093
46.1369
47.1025
49.1613
48.6685
50.9067
50.9195
52.3911
53.1098
54.145
55.0874
56.0512
56.9523
58.042
58.8463
60.1251
63.1648
64.3385
65.8685
65.7939
67.6013
67.7089
68.8702
68.9493
69.1016
68.8503
68.6725
68.9438
69.6638
70.3257
70.9863
71.8521
72.1409
72.8201
72.1405
72.8571
72.0735
72.0597
71.2904
70.7793
70.1436
69.6542
69.2609
68.7484
68.7084
67.8546
73.6961
70.782
70.7874
68.6339
68.193
66.3266
65.1306
62.9065
60.489
57.3176
53.9412
50.9278
49.3969
48.7639
45.1351
25.1761
19.186
16.8122
12.1273
8.92486
4.51612
1.17196
-2.256
-4.67273
-6.50371
-7.31483
-7.13976
-6.67106
-7.03226
-8.54182
-6.43732
-10.5898
-12.5079
-15.6812
-17.3788
-19.7835
-20.9152
-21.6826
-21.6622
-21.3068
-20.6358
-19.9359
-19.3622
-18.9309
-17.3147
0.531865
3.00078
3.09802
2.33841
2.39418
2.23798
2.60361
2.77245
2.88126
2.85072
2.88335
2.85564
3.40697
4.03772
6.25858
65.6894
65.6373
62.9236
57.6597
51.2515
46.1349
41.7965
37.6697
34.3205
32.1714
30.2256
28.8778
28.174
27.9274
27.1845
43.2865
43.2638
46.4059
43.1109
43.3118
44.2403
43.3945
42.7448
42.6535
42.5604
42.2991
41.3298
41.5096
41.2176
40.1962
39.9443
40.1957
40.1476
38.6884
39.3209
39.2967
38.0924
37.8495
38.5168
38.5896
37.4039
37.2098
37.8085
38.2457
36.8655
37.5415
38.0505
37.0377
36.8913
37.4221
38.0005
36.9465
37.4212
37.9919
37.2718
37.1359
37.602
37.7928
37.1741
37.0558
37.4599
37.4543
36.7696
37.2149
37.2623
36.8839
36.7953
37.127
37.4301
37.2429
37.168
37.3235
38.0169
37.8856
37.9065
38.4819
38.448
38.3937
38.2946
38.743
38.8781
39.9076
38.7623
37.2392
38.539
40.0661
32.7479
29.052
32.5679
37.1432
11.9936
21.9872
29.8838
-16.3743
-4.53435
1.12999
-1.33772
3.16229
-3.98949
-2.38032
3.20229
3.2916
4.27923
4.70193
5.6221
7.49741
11.3286
10.2236
6.19163
8.01508
11.1557
14.4027
14.971
16.5805
17.4266
19.6887
22.3496
20.6029
23.3028
24.0863
26.1577
29.2636
31.2887
32.2844
33.7111
33.3218
38.796
38.6657
40.6199
41.4536
42.1978
44.0662
46.893
48.2739
45.3856
49.5971
52.741
55.1206
55.9232
55.396
54.779
53.9461
55.8636
51.8338
57.9018
61.3928
57.4893
57.632
57.1714
54.3307
52.1444
50.0223
42.3415
49.9165
55.9678
49.1904
46.0192
41.0932
36.5736
31.9599
28.4461
24.3385
17.9539
15.5427
19.5157
13.5127
12.4799
10.5016
7.96634
0.927859
-1.26312
1.55423
-10.5733
4.50433
1.75479
1.09302
8.36767
0.71334
4.7711
2.97704
5.90989
9.51515
3.66857
7.26705
9.5233
5.68727
7.46999
6.41574
7.82106
9.9199
6.68004
8.03796
7.10053
8.1909
9.70055
6.74167
8.28597
9.22749
7.20475
7.93618
7.31343
7.85829
8.78055
7.0413
7.60501
7.04793
7.47192
8.12748
6.52406
7.19827
7.56977
6.44087
6.71853
6.32882
6.5023
6.87236
5.89625
6.09587
5.7455
5.86463
6.098
5.2041
5.45439
5.53927
4.88994
4.9491
4.69409
4.69381
4.77954
4.22806
4.2527
4.03051
4.00951
4.03706
3.55868
3.60582
3.57935
3.24625
3.22803
3.09782
3.06075
3.06676
2.79124
2.758
2.55766
2.55545
2.45525
1.94458
1.99752
1.8981
1.15377
1.00184
0.910031
0.464108
0.268572
0.00193874
0.00314504
0.00465108
0.00573689
0.00680435
0.00778503
0.00870949
0.00963881
0.0105533
0.0115059
0.0124798
0.013495
0.0145326
0.0155961
0.0166971
0.0179023
0.0193262
0.0211027
0.0232918
0.0258484
0.0287176
0.0318321
0.0350681
0.0383011
0.0413296
0.0438913
0.0456849
0.0464551
0.046193
0.0453689
0.0450386
0.0465725
0.0509405
0.0579181
0.0657354
0.0714589
0.072257
0.0667379
0.0554113
0.0400669
0.0225863
0.00408399
-0.0151408
-0.0345749
-0.0531423
-0.0757956
-0.129433
-0.193309
0.0437782
-0.800219
-0.691617
-0.774022
-0.913106
-1.04472
-1.18483
-1.28164
-1.32455
-1.28678
-1.1586
-0.932153
-0.633978
-0.353214
-0.106652
0.100018
0.260124
0.378584
0.459568
0.499797
0.518951
0.502863
0.474784
0.425121
0.349724
0.327642
0.121493
0.0911989
0.159527
0.134847
0.136831
0.00517335
0.00807435
0.0120633
0.0149338
0.0176077
0.0200915
0.0223479
0.0246278
0.0268366
0.0291489
0.0315066
0.0339731
0.0364908
0.0390689
0.0417374
0.0446837
0.0482315
0.0527577
0.0584166
0.0650545
0.072503
0.0805699
0.0889134
0.0972171
0.104976
0.111544
0.116119
0.117753
0.115498
0.10865
0.0971206
0.0817757
0.0644295
0.0474636
0.0331185
0.0225393
0.0156547
0.0114819
0.00839128
0.00448394
-0.00209462
-0.0128436
-0.0288832
-0.0512982
-0.082742
-0.127586
-0.187092
-0.209401
0.224543
-1.20688
-1.04906
-1.19508
-1.41587
-1.62312
-1.84108
-1.98504
-2.03359
-1.94247
-1.72025
-1.37969
-0.950403
-0.523695
-0.121562
0.233728
0.522966
0.745161
0.900746
0.985622
1.02164
0.996975
0.932862
0.843334
0.703655
0.6472
0.354067
0.325615
0.450327
0.389123
0.790356
0.00811731
0.0132904
0.0202129
0.0252054
0.0298956
0.0342422
0.0382175
0.0422249
0.0461173
0.0501825
0.0543272
0.0586559
0.0630721
0.0675896
0.0722576
0.077392
0.0835427
0.0913529
0.101087
0.112489
0.125282
0.139139
0.153488
0.167788
0.181179
0.192566
0.200637
0.203962
0.201377
0.192481
0.178179
0.160804
0.143413
0.128579
0.117232
0.107962
0.0981716
0.0855824
0.0687674
0.0469793
0.0195162
-0.0146006
-0.0566704
-0.107901
-0.171073
-0.25582
-0.36963
-0.425921
0.159437
-1.37177
-1.18499
-1.34159
-1.60495
-1.85247
-2.11177
-2.28205
-2.33746
-2.22457
-1.9624
-1.57061
-1.08021
-0.586438
-0.112299
0.312127
0.662113
0.934074
1.12618
1.23369
1.28078
1.25488
1.17969
1.07231
0.915327
0.840733
0.593378
0.602509
0.74624
0.669631
1.13302
0.0107795
0.0180605
0.0276833
0.0346938
0.0412237
0.0472949
0.0528249
0.0584019
0.0638102
0.0694582
0.0752143
0.0812252
0.0873535
0.093614
0.10007
0.107162
0.115665
0.126492
0.14001
0.155845
0.173612
0.192854
0.212777
0.232642
0.251256
0.267097
0.278313
0.282869
0.279077
0.266309
0.245702
0.220239
0.193719
0.169289
0.148367
0.130105
0.112667
0.0942499
0.0730474
0.0471255
0.0142323
-0.0280371
-0.0821487
-0.150388
-0.237295
-0.354934
-0.495365
-0.552196
-0.0900725
-1.71431
-1.47936
-1.60645
-1.93179
-2.23915
-2.55897
-2.77074
-2.84071
-2.7027
-2.3836
-1.90793
-1.3121
-0.709562
-0.128026
0.394441
0.82683
1.16408
1.40311
1.53812
1.59902
1.56971
1.48139
1.34929
1.168
1.0765
0.828287
0.892434
1.02425
0.94516
1.60215
0.0131799
0.0227633
0.0351116
0.0442372
0.0526763
0.0605522
0.0677091
0.0749301
0.0819272
0.0892328
0.0966769
0.104449
0.112367
0.120444
0.128751
0.137852
0.148761
0.162677
0.180076
0.200456
0.223327
0.248098
0.273762
0.299377
0.323403
0.343847
0.358242
0.363882
0.358622
0.341925
0.315743
0.28436
0.252714
0.224356
0.200366
0.179052
0.157689
0.133746
0.104889
0.0688798
0.0231908
-0.0349932
-0.108753
-0.200997
-0.317335
-0.473038
-0.651688
-0.752079
-0.564033
-2.03037
-1.81637
-1.88483
-2.27583
-2.64967
-3.03494
-3.29206
-3.37725
-3.21037
-2.82922
-2.26427
-1.55799
-0.840208
-0.143274
0.48522
1.00711
1.41528
1.70512
1.86995
1.94513
1.91153
1.8073
1.64761
1.43753
1.3269
1.06548
1.16927
1.2982
1.22288
1.9141
0.0153441
0.0272749
0.0422271
0.0534739
0.0637702
0.0734301
0.0821747
0.091007
0.0995549
0.108481
0.117576
0.127072
0.13674
0.146582
0.156672
0.167696
0.180914
0.197835
0.219043
0.243884
0.271775
0.301982
0.333296
0.364575
0.393914
0.418797
0.43605
0.442228
0.434759
0.413322
0.380793
0.342655
0.304601
0.270215
0.240353
0.213197
0.186116
0.156544
0.121723
0.0786436
0.0237931
-0.0466722
-0.13685
-0.250662
-0.395133
-0.586876
-0.799223
-0.97017
-1.18968
-2.23004
-2.16117
-2.1419
-2.59141
-3.03158
-3.48026
-3.78157
-3.88099
-3.68462
-3.2439
-2.59343
-1.78229
-0.955552
-0.149121
0.579653
1.1861
1.66112
1.99872
2.19165
2.28045
2.24302
2.1244
1.93825
1.70287
1.57211
1.30428
1.44117
1.56861
1.49745
2.19348
0.0172907
0.0316978
0.0491723
0.0625891
0.0747345
0.0862012
0.0965388
0.106995
0.117102
0.127661
0.13842
0.149654
0.161084
0.172695
0.184552
0.197459
0.212943
0.232849
0.25787
0.287181
0.320109
0.355774
0.392767
0.429739
0.464366
0.49351
0.513182
0.519198
0.508743
0.48207
0.443303
0.399219
0.356081
0.317288
0.283378
0.252244
0.220978
0.18655
0.145564
0.0943394
0.0286444
-0.0561248
-0.164911
-0.302559
-0.477317
-0.706154
-0.956588
-1.2239
-1.85644
-2.26519
-2.53792
-2.40649
-2.90858
-3.4191
-3.93301
-4.28113
-4.39554
-4.16841
-3.66709
-2.9281
-2.00875
-1.07056
-0.152808
0.677032
1.36815
1.90971
2.29461
2.51532
2.6179
2.57688
2.44497
2.23224
1.97299
1.82127
1.54429
1.71955
1.83716
1.77325
2.44704
0.0190354
0.0360216
0.0558992
0.0715161
0.0854732
0.0987475
0.110658
0.122728
0.13438
0.146559
0.158971
0.171935
0.185118
0.198473
0.21205
0.226767
0.244434
0.26727
0.296078
0.32983
0.367776
0.408874
0.451518
0.494117
0.533836
0.566789
0.58811
0.592993
0.578708
0.54645
0.501733
0.452332
0.404572
0.361367
0.323031
0.287439
0.25168
0.212432
0.165703
0.107041
0.0313158
-0.0670182
-0.193888
-0.35521
-0.560393
-0.825401
-1.11465
-1.47688
-2.39997
-2.15151
-2.94946
-2.68404
-3.22961
-3.81605
-4.3974
-4.79616
-4.92651
-4.66668
-4.10279
-3.27143
-2.23987
-1.1868
-0.15463
0.778379
1.55548
2.16419
2.59657
2.84513
2.9617
2.9172
2.77243
2.5326
2.24946
2.07527
1.78384
2.00153
2.10219
2.04912
2.67604
0.0205931
0.0402843
0.0624468
0.0803034
0.0960387
0.111129
0.1246
0.13828
0.151468
0.165265
0.17933
0.194027
0.208962
0.224049
0.239305
0.255759
0.275528
0.301249
0.333834
0.372021
0.414987
0.461514
0.509778
0.557869
0.602304
0.638332
0.660247
0.662915
0.644156
0.606473
0.556689
0.503107
0.451684
0.404778
0.36267
0.323316
0.283744
0.240183
0.187937
0.121748
0.035621
-0.0768771
-0.222604
-0.408511
-0.644922
-0.94592
-1.2755
-1.71424
-2.74329
-2.04166
-3.40196
-2.97708
-3.54917
-4.21877
-4.86834
-5.32112
-5.468
-5.173
-4.54478
-3.61772
-2.47102
-1.30095
-0.152507
0.884515
1.74777
2.42329
2.90255
3.17861
3.30911
3.26131
3.10419
2.83698
2.53007
2.33096
2.02242
2.2742
2.36385
2.32593
2.895
0.021975
0.0444969
0.068813
0.0889452
0.106415
0.123324
0.138333
0.153615
0.168325
0.18373
0.199442
0.215872
0.232556
0.249358
0.266241
0.284342
0.306114
0.334664
0.371015
0.413623
0.461609
0.513532
0.567302
0.620559
0.669009
0.707001
0.728199
0.727624
0.704186
0.661846
0.60828
0.551679
0.497293
0.446975
0.401219
0.358217
0.315001
0.267346
0.209833
0.136358
0.0400011
-0.0866001
-0.251254
-0.461925
-0.729598
-1.06592
-1.43604
-1.92877
-2.94453
-2.11213
-3.86518
-3.29292
-3.86636
-4.63035
-5.34888
-5.85893
-6.02295
-5.68983
-4.99502
-3.96829
-2.70282
-1.41308
-0.146171
0.995849
1.94542
2.68731
3.21274
3.51584
3.6602
3.60932
3.4404
3.14556
2.81493
2.5881
2.26058
2.54486
2.62418
2.60128
3.10718
0.0231911
0.0486799
0.0750138
0.09746
0.116618
0.135348
0.151873
0.168747
0.184964
0.201969
0.219325
0.237488
0.255923
0.274422
0.29288
0.312529
0.336192
0.367516
0.407629
0.454652
0.507651
0.564894
0.623915
0.681722
0.733094
0.771596
0.790692
0.786217
0.758615
0.713025
0.65723
0.59876
0.542057
0.488678
0.439596
0.393335
0.346911
0.29555
0.233037
0.152379
0.0457198
-0.095211
-0.279111
-0.514826
-0.813685
-1.18479
-1.59546
-2.12568
-3.09608
-2.50005
-4.27443
-3.63587
-4.17886
-5.05339
-5.84267
-6.41291
-6.59473
-6.2201
-5.45589
-4.32505
-2.93625
-1.5235
-0.135455
1.11288
2.14913
2.95697
3.5278
3.8575
4.01562
3.96192
3.78169
3.45898
3.10439
2.84717
2.4987
2.81556
2.8842
2.8726
3.33739
0.0242491
0.0528466
0.0810556
0.105854
0.126647
0.147199
0.165213
0.183666
0.201373
0.219967
0.23896
0.25886
0.279048
0.299229
0.319202
0.340284
0.365713
0.399749
0.443622
0.49505
0.553029
0.615399
0.679157
0.740492
0.793273
0.830606
0.846425
0.838112
0.807668
0.760664
0.704188
0.644798
0.58622
0.52997
0.477753
0.428497
0.37919
0.324439
0.257184
0.169501
0.0525802
-0.10274
-0.305969
-0.566647
-0.896129
-1.30113
-1.75158
-2.30966
-3.24948
-3.1791
-4.51721
-3.99751
-4.48334
-5.48863
-6.35376
-6.98593
-7.18519
-6.76524
-5.92834
-4.68863
-3.17161
-1.63197
-0.119774
1.23621
2.35937
3.23265
3.8479
4.20364
4.37535
4.31913
4.12803
3.77727
3.39835
3.10833
2.73728
3.08761
3.14496
3.14153
3.57921
0.0251553
0.0570116
0.0869483
0.114138
0.13651
0.158882
0.178356
0.198373
0.21755
0.237721
0.258346
0.279987
0.301933
0.323781
0.345205
0.367593
0.394645
0.431331
0.478968
0.534776
0.597628
0.664725
0.732324
0.795714
0.84805
0.882561
0.894572
0.883438
0.852125
0.805659
0.749851
0.690262
0.630109
0.571136
0.516007
0.464096
0.412324
0.354567
0.282855
0.188284
0.0610866
-0.108733
-0.331353
-0.61675
-0.975993
-1.41379
-1.90291
-2.48664
-3.41997
-3.94369
-4.4566
-4.3733
-4.77843
-5.93428
-6.88502
-7.58188
-7.79724
-7.32718
-6.41367
-5.05953
-3.4093
-1.73848
-0.098591
1.3667
2.57679
3.51463
4.17314
4.55423
4.73928
4.68089
4.47937
4.10047
3.6967
3.37182
2.97713
3.35793
3.40682
3.40638
3.82076
0.0259139
0.0611874
0.0926991
0.122321
0.146209
0.170398
0.191299
0.212865
0.233489
0.255223
0.277474
0.30086
0.324573
0.348077
0.370884
0.394434
0.422948
0.462217
0.513617
0.573737
0.6412
0.712282
0.782371
0.845924
0.8958
0.926305
0.935
0.922937
0.893006
0.84885
0.794761
0.735456
0.673884
0.612261
0.55442
0.500193
0.44638
0.386008
0.310122
0.208789
0.071295
-0.113097
-0.355046
-0.66467
-1.0525
-1.52176
-2.04826
-2.65947
-3.58782
-4.49501
-4.19681
-4.77965
-5.06927
-6.39022
-7.44092
-8.2046
-8.43341
-7.90825
-6.9136
-5.43847
-3.64944
-1.84282
-0.0713704
1.50529
2.80252
3.80356
4.50361
4.90933
5.10737
5.04719
4.83571
4.42867
3.99935
3.63801
3.21877
3.62396
3.66954
3.67035
4.0714
0.0265276
0.0653865
0.0983154
0.13041
0.15575
0.18175
0.204043
0.227137
0.249184
0.272464
0.296335
0.321475
0.346968
0.372119
0.396237
0.420788
0.450582
0.492363
0.547504
0.611762
0.683297
0.757184
0.827962
0.88948
0.935112
0.961425
0.968393
0.957783
0.931372
0.890962
0.839327
0.78059
0.717648
0.65341
0.593068
0.536915
0.48155
0.41899
0.339209
0.231191
0.0833186
-0.115748
-0.376907
-0.710128
-1.12524
-1.62455
-2.18727
-2.82903
-3.74235
-4.76328
-4.06758
-5.21137
-5.37442
-6.85793
-8.03154
-8.86425
-9.09781
-8.51023
-7.42981
-5.8263
-3.89216
-1.94464
-0.0374727
1.65274
3.03746
4.10052
4.83971
5.26881
5.47947
5.41797
5.19698
4.76194
4.30612
3.90686
3.46193
3.8894
3.93291
3.93404
4.32487
0.0269973
0.0696207
0.103803
0.138414
0.165135
0.192941
0.216586
0.241186
0.264628
0.289438
0.314921
0.341824
0.369117
0.39591
0.421263
0.446634
0.477503
0.521707
0.580508
0.64852
0.72319
0.798254
0.867536
0.924786
0.965234
0.988448
0.996019
0.989238
0.968131
0.932523
0.883805
0.825762
0.761405
0.694544
0.631921
0.57427
0.517881
0.453571
0.370129
0.255415
0.0969908
-0.116885
-0.397089
-0.753209
-1.19433
-1.72239
-2.32045
-2.99642
-3.89744
-4.93652
-4.38321
-5.54836
-5.70653
-7.33385
-8.66211
-9.57363
-9.80085
-9.13656
-7.96397
-6.22391
-4.13768
-2.04363
0.00376374
1.8098
3.28227
4.40626
5.18215
5.63275
5.85542
5.79307
5.5631
5.10026
4.61676
4.17772
3.70591
4.15159
4.19592
4.19521
4.59397
0.0273223
0.0739018
0.109169
0.146341
0.174369
0.20397
0.228927
0.255009
0.279816
0.306133
0.333221
0.3619
0.391017
0.419457
0.445967
0.471954
0.50366
0.550157
0.612394
0.683436
0.759875
0.834091
0.899432
0.950742
0.986446
1.00869
1.01935
1.01843
1.00398
0.973895
0.92834
0.870994
0.805098
0.73557
0.670898
0.612228
0.555391
0.489755
0.402796
0.281226
0.111938
-0.116953
-0.416048
-0.794407
-1.26044
-1.81624
-2.44899
-3.16257
-4.0659
-5.12691
-5.09219
-5.5523
-6.06056
-7.81324
-9.3304
-10.34
-10.5532
-9.79391
-8.51841
-6.63227
-4.38626
-2.1395
0.0530159
1.97734
3.53767
4.72123
5.53142
6.00141
6.23485
6.17228
5.93391
5.44361
4.93101
4.45001
3.95025
4.40891
4.45837
4.45712
4.8503
0.0275
0.0782419
0.114416
0.154197
0.183453
0.214841
0.241064
0.2686
0.294739
0.322541
0.351225
0.381695
0.412669
0.442768
0.470354
0.496725
0.528979
0.577547
0.642728
0.715669
0.79215
0.863108
0.922241
0.967269
1.00003
1.02382
1.03974
1.04622
1.0394
1.01531
0.972997
0.916255
0.848611
0.77633
0.709853
0.650695
0.594009
0.527402
0.436901
0.308097
0.127455
-0.116742
-0.434604
-0.834625
-1.32471
-1.90759
-2.57456
-3.32804
-4.24987
-5.33138
-5.7148
-5.24496
-6.47914
-8.30559
-10.0329
-11.1677
-11.3624
-10.49
-9.09664
-7.05242
-4.6382
-2.23193
0.111001
2.15622
3.80443
5.0459
5.88775
6.37494
6.6176
6.55534
6.30927
5.7919
5.24863
4.72343
4.19457
4.66427
4.72033
4.71942
5.11932
0.0275262
0.0826535
0.11955
0.161989
0.192391
0.225552
0.252995
0.281954
0.30939
0.33865
0.36892
0.401199
0.434074
0.465855
0.494435
0.520916
0.553344
0.60356
0.670822
0.744206
0.818631
0.883698
0.935421
0.975483
1.00781
1.03543
1.05826
1.07325
1.07473
1.05691
1.0178
0.961482
0.891792
0.816627
0.748608
0.689541
0.633594
0.566225
0.47189
0.335187
0.142508
-0.117361
-0.453869
-0.875021
-1.38854
-1.99815
-2.69902
-3.49351
-4.44489
-5.53301
-6.03445
-5.0709
-6.98185
-8.84421
-10.7667
-12.0593
-12.2345
-11.2318
-9.70348
-7.48559
-4.89382
-2.32062
0.178471
2.3474
4.08336
5.38078
6.25117
6.75355
7.00385
6.94192
6.68898
6.14502
5.56933
4.99765
4.43835
4.91677
4.981
4.97897
5.40002
0.0273945
0.0871497
0.124574
0.169724
0.201184
0.236105
0.264717
0.295067
0.32376
0.354448
0.386292
0.420403
0.455232
0.488733
0.518218
0.544474
0.576535
0.627649
0.69581
0.767937
0.83771
0.894806
0.939752
0.977297
1.01159
1.04476
1.07563
1.09992
1.1102
1.09882
1.06277
1.00661
0.934468
0.85624
0.786966
0.728616
0.67392
0.605733
0.506897
0.361298
0.155728
-0.12016
-0.475085
-0.91679
-1.45324
-2.0895
-2.82421
-3.66045
-4.64889
-5.74997
-6.30956
-5.47194
-7.40287
-9.45275
-11.5289
-13.0156
-13.1738
-12.0253
-10.3448
-7.93381
-5.15348
-2.40524
0.256204
2.55187
4.37528
5.72637
6.62171
7.13718
7.39329
7.33156
7.07282
6.50285
5.89283
5.27228
4.68112
5.1661
5.24
5.23976
5.65511
0.0270963
0.0917447
0.129491
0.177409
0.209836
0.246499
0.276228
0.307932
0.337839
0.369922
0.403328
0.439295
0.476145
0.511418
0.541705
0.567284
0.598145
0.649057
0.716834
0.785487
0.847881
0.896656
0.937116
0.974747
1.01284
1.05269
1.09237
1.12652
1.14601
1.14116
1.10794
1.05157
0.976457
0.894946
0.82475
0.767769
0.714661
0.645192
0.540703
0.38488
0.165533
-0.126517
-0.499371
-0.960903
-1.51981
-2.18279
-2.95164
-3.83056
-4.86167
-5.9953
-6.67319
-6.38573
-7.49527
-10.1441
-12.3202
-14.0379
-14.183
-12.8754
-11.0267
-8.4001
-5.41769
-2.48549
0.345007
2.77067
4.68106
6.08316
6.99933
7.52563
7.78578
7.72401
7.46054
6.86522
6.21879
5.54683
4.9224
5.41204
5.49695
5.49748
5.9418
0.0266206
0.096454
0.134302
0.18505
0.218346
0.256735
0.287524
0.320543
0.351618
0.385058
0.420009
0.457862
0.496813
0.533922
0.564864
0.589091
0.617523
0.667053
0.732946
0.795148
0.848619
0.890902
0.929755
0.969498
1.01256
1.05979
1.10879
1.15328
1.18236
1.1841
1.15338
1.09634
1.01758
0.932545
0.861829
0.806864
0.755356
0.683544
0.571701
0.404143
0.170366
-0.13756
-0.527483
-1.00791
-1.58872
-2.27855
-3.08218
-4.0053
-5.08354
-6.26811
-7.095
-7.21224
-7.30902
-10.9922
-13.1583
-15.1299
-15.2637
-13.7855
-11.7542
-8.88809
-5.68728
-2.56108
0.445717
3.00491
5.00161
6.45165
7.38392
7.91856
8.18133
8.11925
7.85194
7.23196
6.54686
5.82077
5.16173
5.65415
5.75129
5.75611
6.20334
0.0259538
0.101295
0.13901
0.192653
0.226716
0.26681
0.298603
0.332893
0.365087
0.39984
0.436318
0.476089
0.517232
0.556241
0.587575
0.609389
0.633948
0.681082
0.742666
0.795578
0.841043
0.87993
0.919577
0.9627
1.01139
1.06641
1.12513
1.18044
1.21952
1.22787
1.19921
1.14091
1.05769
0.968889
0.89816
0.845774
0.795331
0.719326
0.597953
0.417311
0.169032
-0.153886
-0.559623
-1.0578
-1.65986
-2.37662
-3.21596
-4.18557
-5.31589
-6.56444
-7.53625
-7.75917
-7.26461
-12.0477
-14.0834
-16.2974
-16.4183
-14.7574
-12.5315
-9.40139
-5.96367
-2.63172
0.5592
3.25578
5.33787
6.83234
7.77532
8.31558
8.57947
8.51686
8.24674
7.60289
6.87667
6.09354
5.39868
5.8919
6.00276
6.01468
6.47391
0.025079
0.106285
0.143615
0.200224
0.234947
0.276724
0.30946
0.344976
0.378233
0.414252
0.452232
0.493952
0.537384
0.578317
0.609505
0.627438
0.647039
0.690309
0.744097
0.786947
0.827527
0.865935
0.907897
0.955059
1.00969
1.07278
1.14162
1.20827
1.25781
1.27278
1.2456
1.18533
1.09665
1.00392
0.933821
0.884351
0.833555
0.750601
0.617427
0.423029
0.161019
-0.175402
-0.595349
-1.10992
-1.73242
-2.47613
-3.35236
-4.37153
-5.56066
-6.88569
-8.00331
-8.31328
-7.75307
-13.2131
-15.1361
-17.5456
-17.6508
-15.7917
-13.3621
-9.94319
-6.24883
-2.69713
0.68635
3.52454
5.69085
7.22571
8.17329
8.71621
8.97954
8.91623
8.64451
7.97776
7.20778
6.36452
5.63284
6.1247
6.25078
6.26733
6.75536
0.023976
0.111448
0.148117
0.207769
0.243039
0.286475
0.320092
0.356783
0.391047
0.428275
0.467726
0.51142
0.557217
0.599948
0.629975
0.642656
0.656666
0.692949
0.736243
0.771257
0.810595
0.850452
0.895506
0.946977
1.00772
1.07911
1.15851
1.23713
1.29767
1.31922
1.29282
1.22969
1.13438
1.03769
0.969053
0.922291
0.868403
0.775078
0.628466
0.420761
0.146663
-0.201272
-0.63355
-1.16299
-1.80498
-2.57566
-3.49018
-4.56271
-5.81903
-7.23422
-8.50632
-9.0126
-8.95625
-14.3975
-16.3358
-18.8807
-18.967
-16.8892
-14.2482
-10.5162
-6.54463
-2.75717
0.828091
3.8125
6.06161
7.63225
8.57751
9.1199
9.38085
9.31694
9.04536
8.35631
7.53975
6.63311
5.86382
6.35192
6.49494
6.51986
7.00296
0.0226202
0.116806
0.152515
0.215294
0.250992
0.29606
0.330493
0.368307
0.403514
0.441887
0.482767
0.528438
0.576593
0.620612
0.648067
0.654958
0.661731
0.686564
0.719949
0.751353
0.792093
0.834374
0.882845
0.938699
1.00566
1.08565
1.17613
1.26744
1.33966
1.36771
1.34121
1.27414
1.17086
1.07047
1.00427
0.9588
0.897503
0.790599
0.630337
0.411004
0.127149
-0.229961
-0.672477
-1.2151
-1.87558
-2.67333
-3.62793
-4.75818
-6.09096
-7.61041
-9.04894
-9.86709
-10.7265
-15.4844
-17.6759
-20.3092
-20.3732
-18.0519
-15.1907
-11.1224
-6.85267
-2.81211
0.985379
4.12108
6.45127
8.05245
8.98755
9.52601
9.7826
9.71859
9.44969
8.7383
7.87206
6.8986
6.09124
6.57284
6.73496
6.77085
7.27276
0.0209822
0.122387
0.156808
0.222804
0.258806
0.305477
0.34066
0.379539
0.415622
0.455063
0.497306
0.544902
0.595163
0.639365
0.663233
0.664279
0.660377
0.671568
0.698005
0.72937
0.773103
0.818195
0.870155
0.930418
1.00376
1.0927
1.19489
1.29978
1.38444
1.4189
1.39118
1.31884
1.20605
1.10278
1.03988
0.992022
0.918019
0.795912
0.623562
0.395243
0.104394
-0.25933
-0.70984
-1.26388
-1.94192
-2.76711
-3.76402
-4.95683
-6.37545
-8.01253
-9.6309
-10.8417
-12.7789
-16.3218
-19.1291
-21.8364
-21.8745
-19.2835
-16.1901
-11.7631
-7.17416
-2.8625
1.1592
4.45179
6.86101
8.48679
9.40292
9.9338
10.1839
10.1205
9.85749
9.12349
8.20414
7.16018
6.31468
6.78672
6.97022
7.01397
7.55453
0.0190269
0.128222
0.160995
0.230304
0.266479
0.314721
0.350587
0.39047
0.427352
0.467767
0.511268
0.560594
0.612165
0.65518
0.675697
0.669424
0.648405
0.646952
0.673433
0.706986
0.754029
0.802141
0.857622
0.922352
1.00228
1.10062
1.21529
1.3348
1.43285
1.47358
1.44324
1.36387
1.23992
1.13568
1.07554
1.01869
0.927635
0.791291
0.609862
0.375737
0.0808746
-0.286785
-0.743
-1.30678
-2.0017
-2.85511
-3.89698
-5.15742
-6.67072
-8.43715
-10.2477
-11.8781
-14.7127
-16.8595
-20.6884
-23.4736
-23.4736
-20.5877
-17.2473
-12.439
-7.5099
-2.909
1.3506
4.80624
7.29208
8.93574
9.82298
10.3424
10.5838
10.522
10.2685
9.51157
8.5353
7.41691
6.5337
6.99285
7.20037
7.25607
7.78896
0.0167125
0.134347
0.165072
0.2378
0.27401
0.323787
0.360269
0.401088
0.438683
0.479948
0.524525
0.575031
0.626442
0.66759
0.684659
0.665729
0.622375
0.619012
0.645927
0.68456
0.735144
0.786361
0.845435
0.914774
1.00159
1.10986
1.23792
1.37333
1.48592
1.5327
1.49787
1.40895
1.27266
1.17057
1.10891
1.03483
0.925768
0.778588
0.591826
0.355265
0.0594314
-0.309493
-0.769247
-1.34138
-2.05293
-2.93581
-4.02559
-5.35858
-6.97431
-8.8797
-10.8922
-12.9229
-16.2351
-17.281
-22.4076
-25.2414
-25.1708
-21.9672
-18.3634
-13.1501
-7.86055
-2.95217
1.56074
5.18617
7.74583
9.39978
10.247
10.7509
10.9811
10.922
10.6825
9.9021
8.86472
7.66772
6.74775
7.19046
7.42511
7.48893
8.06503
0.013989
0.140803
0.169037
0.245296
0.281398
0.332671
0.369697
0.411377
0.44958
0.491525
0.536809
0.587321
0.636973
0.676569
0.6891
0.648968
0.590668
0.591675
0.617104
0.662637
0.71654
0.771084
0.833872
0.908014
1.00207
1.12095
1.26351
1.41633
1.54488
1.59733
1.55529
1.45323
1.30527
1.20795
1.13491
1.03775
0.914088
0.760735
0.572523
0.33687
0.043022
-0.324689
-0.786159
-1.36574
-2.09421
-3.00817
-4.14885
-5.55878
-7.28327
-9.335
-11.5569
-13.9512
-17.3875
-17.8686
-24.3539
-27.1745
-26.9666
-23.4223
-19.5388
-13.896
-8.22676
-2.99196
1.79102
5.59353
8.22368
9.87936
10.6741
11.1582
11.3747
11.3197
11.0992
10.2945
9.19137
7.91146
6.95619
7.37889
7.64393
7.71872
8.3015
0.010797
0.147638
0.172885
0.252795
0.28864
0.341364
0.37886
0.421312
0.459991
0.502353
0.547581
0.596388
0.643758
0.68212
0.685588
0.620244
0.560095
0.5638
0.588105
0.64132
0.698413
0.756593
0.823251
0.902455
1.0042
1.13449
1.29287
1.46498
1.61117
1.6686
1.61492
1.49535
1.33994
1.24484
1.14733
1.02786
0.895945
0.74114
0.555183
0.32359
0.034411
-0.33002
-0.791935
-1.37867
-2.12479
-3.0716
-4.26585
-5.7563
-7.59429
-9.79757
-12.2345
-14.9607
-18.4022
-18.8679
-26.4021
-29.3208
-28.8658
-24.9518
-20.7725
-14.6751
-8.60879
-3.02684
2.04323
6.03054
8.72715
10.3749
11.1032
11.5632
11.7633
11.714
11.5187
10.6881
9.51394
8.14694
7.15832
7.55749
7.85686
7.94286
8.54352
0.00706542
0.154906
0.176614
0.260299
0.295732
0.349854
0.387741
0.430855
0.469828
0.512141
0.555996
0.60192
0.648927
0.686879
0.667345
0.590796
0.528665
0.535108
0.55918
0.620625
0.681035
0.743206
0.813921
0.898507
1.00847
1.15115
1.32695
1.52062
1.68648
1.74729
1.6745
1.53471
1.37843
1.27328
1.14255
1.00878
0.875285
0.723234
0.542893
0.318143
0.0358308
-0.323871
-0.785616
-1.37972
-2.14449
-3.12576
-4.37567
-5.94922
-7.90377
-10.2617
-12.9171
-15.9495
-19.4017
-20.456
-28.421
-31.7365
-30.8797
-26.5557
-22.0621
-15.4845
-9.00553
-3.05411
2.31938
6.49986
9.25794
10.8868
11.5332
11.9644
12.1456
12.1039
11.9411
11.0826
9.83079
8.37301
7.35335
7.72589
8.06362
8.15117
8.79244
0.00270899
0.162672
0.18022
0.267808
0.302669
0.358123
0.396308
0.439941
0.478931
0.520364
0.561402
0.60507
0.654783
0.684571
0.643233
0.562576
0.495633
0.506543
0.530792
0.600975
0.664708
0.73124
0.806243
0.896608
1.01544
1.17168
1.36685
1.58483
1.77257
1.83298
1.72974
1.57328
1.41763
1.28331
1.12245
0.985621
0.855866
0.710164
0.538304
0.322611
0.0486842
-0.305553
-0.767105
-1.36914
-2.15349
-3.17039
-4.47728
-6.13536
-8.20786
-10.7215
-13.5957
-16.913
-20.461
-22.6447
-30.3258
-34.4703
-33.0272
-28.238
-23.4054
-16.3197
-9.4143
-3.07181
2.6218
7.00471
9.81796
11.4155
11.9626
12.3604
12.5201
12.4879
12.3666
11.4774
10.1399
8.58856
7.54045
7.88405
8.26427
8.35306
8.97839
-0.00237495
0.17101
0.183698
0.275319
0.309438
0.366141
0.404511
0.448465
0.486998
0.526386
0.564297
0.608541
0.661664
0.670088
0.622324
0.532845
0.461888
0.477717
0.503169
0.582502
0.649734
0.721041
0.800592
0.897208
1.02567
1.19688
1.41374
1.65933
1.87099
1.92252
1.77611
1.61463
1.44618
1.26966
1.09349
0.963134
0.840913
0.704514
0.543325
0.33817
0.0733863
-0.275283
-0.736985
-1.34751
-2.15203
-3.20507
-4.56939
-6.31232
-8.50248
-11.1708
-14.2612
-17.8484
-21.6286
-25.3179
-31.9591
-37.5261
-35.3292
-30.0073
-24.8031
-17.1758
-9.83101
-3.07873
2.95356
7.54906
10.4095
11.9612
12.39
12.7496
12.8853
12.8645
12.7948
11.8713
10.4386
8.79246
7.71865
8.03236
8.45908
8.54603
9.18716
-0.00831096
0.180005
0.187043
0.282822
0.316019
0.37386
0.412267
0.456241
0.493583
0.530099
0.566789
0.615936
0.661465
0.6545
0.602614
0.501983
0.428158
0.448445
0.477123
0.565546
0.636457
0.712922
0.797334
0.900754
1.03976
1.22758
1.4689
1.74596
1.98205
2.00873
1.81299
1.65764
1.44863
1.23627
1.06306
0.944896
0.832932
0.708013
0.558885
0.364961
0.109425
-0.233951
-0.696179
-1.31544
-2.14014
-3.22911
-4.65047
-6.47748
-8.78341
-11.6035
-14.9055
-18.7563
-22.9013
-28.0991
-33.1506
-40.8925
-37.8019
-31.8733
-26.2601
-18.0493
-10.2504
-3.0732
3.31848
8.13794
11.0353
12.5243
12.8135
13.1303
13.2395
13.2321
13.2256
12.2626
10.7236
8.98331
7.88584
8.17208
8.64773
8.71896
9.40722
-0.0152515
0.189757
0.19025
0.290298
0.322379
0.381206
0.419444
0.462965
0.49832
0.53251
0.571119
0.625927
0.653275
0.643246
0.582077
0.471174
0.394754
0.418014
0.45313
0.550271
0.625207
0.707192
0.796814
0.907658
1.05824
1.26458
1.53359
1.84638
2.10288
2.08173
1.84529
1.68944
1.41637
1.19401
1.03643
0.93335
0.833446
0.721332
0.584849
0.402201
0.155653
-0.182733
-0.645573
-1.27331
-2.11755
-3.24154
-4.7188
-6.62811
-9.04643
-12.0144
-15.5231
-19.6398
-24.2329
-30.4751
-34.1048
-44.7173
-40.4622
-33.8428
-27.7827
-18.939
-10.667
-3.05264
3.72114
8.77759
11.6989
13.105
13.2311
13.5005
13.581
13.5891
13.6588
12.6485
10.9904
9.15319
8.03893
8.30349
8.83016
8.88014
9.54795
-0.0233844
0.200379
0.193306
0.297712
0.328458
0.388062
0.42583
0.468293
0.501493
0.535719
0.57998
0.630289
0.646972
0.633291
0.561485
0.440962
0.362438
0.385435
0.432007
0.536921
0.616324
0.704117
0.799329
0.918264
1.08156
1.30861
1.60902
1.96132
2.22499
2.1353
1.87625
1.68778
1.3547
1.15407
1.01617
0.929766
0.842795
0.744053
0.62018
0.448532
0.210715
-0.122679
-0.585711
-1.22105
-2.08358
-3.24113
-4.77263
-6.76152
-9.28763
-12.3994
-16.1115