/*--------------------------------*- C++ -*----------------------------------*\
| =========                 |                                                 |
| \\      /  F ield         | OpenFOAM: The Open Source CFD Toolbox           |
|  \\    /   O peration     | Version:  4.1                                   |
|   \\  /    A nd           | Web:      www.OpenFOAM.org                      |
|    \\/     M anipulation  |                                                 |
\*---------------------------------------------------------------------------*/
FoamFile
{
    version     2.0;
    format      ascii;
    class       surfaceScalarField;
    location    "19";
    object      phi;
}
// * * * * * * * * * * * * * * * * * * * * * * * * * * * * * * * * * * * * * //

dimensions      [0 3 -1 0 0 0 0];

internalField   nonuniform List<scalar> 
13220
(
-778.61
2078.51
-1201.4
1722.99
-1635.7
1734.2
-1946.08
1610.28
-2194.17
1548.29
-2362.93
1468.65
-2461.69
1398.67
-2490.29
1328.8
-2453.42
1263.03
-2350.68
1197.16
-2178.05
1127.57
-1922.7
1044.55
-1543.65
920.849
-952.56
709.109
347.34
-199.277
2277.79
-456.389
1980.11
-732.757
2010.56
-959.888
1837.41
-1179.44
1767.84
-1362.74
1651.95
-1525.22
1561.15
-1658.23
1461.81
-1747.53
1352.33
-1743.34
1192.97
-1571.2
955.434
-1208.84
682.195
-762.321
474.327
-344.236
291.026
3.10372
-220.454
2498.24
-466.428
2226.08
-668.214
2212.35
-825.215
1994.41
-975.011
1917.64
-1090.45
1767.39
-1197.48
1668.19
-1286.26
1550.59
-1348.74
1414.81
-1334.53
1178.76
-1163.35
784.254
-800.074
318.917
-382.179
56.4348
-13.6324
-77.5127
-10.5286
-29.5705
2527.81
-122.972
2319.48
-171.843
2261.22
-202.062
2024.63
-230.863
1946.44
-240.204
1776.73
-243.888
1671.87
-235.297
1542
-230.921
1410.44
-256.858
1204.7
-342.635
870.033
-462.221
438.505
-518.738
112.955
-447.403
-148.845
-457.931
126.34
2401.47
84.9948
2360.83
126.797
2219.42
180.082
1971.35
243.152
1883.37
316.134
1703.75
401.273
1586.73
497.659
1445.62
594.765
1313.33
645.263
1154.2
574.903
940.393
349.671
663.739
108.823
353.81
-6.43811
-33.5773
-464.369
174.528
2226.95
160.561
2374.8
216.479
2163.51
283.593
1904.24
362.762
1804.21
440.539
1625.97
529.049
1498.22
621.814
1352.85
717.167
1217.98
791.919
1079.45
806.26
926.053
721.393
748.605
547.687
527.513
263.085
251.021
-201.285
142.137
2084.81
163.778
2353.16
212.809
2114.48
271.526
1845.52
343.725
1732.01
405.429
1564.27
467.619
1436.03
522.606
1297.86
570.819
1169.77
606.422
1043.85
615.246
917.23
573.593
790.261
459.786
641.325
257.719
453.098
56.4341
85.4553
1999.36
151.659
2286.95
218.688
2047.45
291.559
1772.65
370.674
1652.89
445.264
1489.68
514.834
1366.46
581.017
1231.68
642.858
1107.93
694.008
992.695
714.959
896.278
675.72
829.496
541.144
775.896
304.313
689.92
360.747
-0.572337
1999.93
83.1189
2203.26
153.81
1976.76
203.548
1722.91
263.684
1592.76
355.526
1397.84
492.03
1229.96
668.654
1055.06
855.036
921.543
1003.22
844.511
1051.11
848.389
962.984
917.626
730.316
1008.57
399.039
1021.2
759.786
-141.888
2141.82
-125.905
2187.28
-148.629
1999.48
-239.183
1813.46
-312.392
1665.97
-337.32
1422.77
-285.946
1178.59
-172.868
941.98
-10.3797
759.053
182.943
651.187
362.994
668.337
460.336
820.279
413.709
1055.19
230.171
1204.73
989.958
-187.933
2329.75
-417.48
2416.82
-617.65
2199.65
-861.413
2057.23
-1114.72
1919.27
-1361.25
1669.29
-1581.97
1399.3
-1769.52
1129.53
-1891.48
881.019
-1889.19
648.889
-1697.81
476.955
-1297.22
419.695
-766.41
524.382
-287.277
725.602
702.681
205.425
2124.32
-25.6254
2647.87
-259.385
2433.41
-437.343
2235.18
-606.982
2088.91
-807.348
1869.66
-1037.14
1629.09
-1284.33
1376.72
-1530.61
1127.3
-1747.74
866.019
-1867.54
596.751
-1784.13
336.287
-1402.42
142.668
-709.402
32.5717
-6.72097
673.516
1450.8
801.041
2520.35
705.173
2529.27
689.983
2250.37
747.553
2031.34
776.748
1840.46
747.777
1658.06
658.546
1465.95
517.374
1268.47
323.406
1059.99
82.8156
837.34
-175.806
594.907
-341.735
308.593
-253.475
-55.6925
-260.196
736.7
714.103
1067.57
2189.48
1062.13
2534.71
985.995
2326.51
983.29
2034.05
1039.37
1784.38
1114.92
1582.51
1177.95
1402.92
1213.86
1232.55
1202.77
1071.08
1129.02
911.093
976.588
747.339
713.529
571.651
283.747
374.087
23.5511
369.351
1298.72
2093.91
2676.67
2937.09
3009.26
2985.38
2874.15
2650.33
2388.02
2072.97
1688.05
1239
693.693
4.05994e-06
385.969
-385.969
385.969
385.969
385.969
809.456
-423.487
809.456
809.456
809.456
1131.58
-322.122
1131.58
1131.58
1358.98
-227.405
1358.98
1358.98
1358.98
1504.74
-145.756
1504.74
1504.74
1572.42
-67.6828
1572.42
1572.42
1572.42
1582.85
-10.4309
1582.85
1582.85
1582.85
1551.31
31.5411
1551.31
1551.31
1479.79
71.5237
1479.79
1479.79
1479.79
1382.34
97.446
1382.34
1382.34
1268.08
114.265
1268.08
1268.08
1268.08
1192.14
75.9398
1192.14
1192.14
1192.14
1158.49
33.6478
1158.49
1158.49
1041.3
117.192
1041.3
1041.3
1041.3
796.16
245.138
796.16
796.16
796.16
440.851
355.309
440.851
440.851
92.7899
348.061
92.7899
92.7899
92.7899
-473.375
566.165
-473.375
-473.375
-1618.46
1145.09
-1618.46
-1618.46
-1618.46
-3173.51
1555.05
-3173.51
-3173.51
-3173.51
-5090.96
1917.45
-5090.96
-5090.96
-7291.77
2200.81
-7291.77
-7291.77
-7156.2
-7023.09
-6889.66
-9163.63
2403.54
-9023.24
-8861.66
-8688.57
-8516.12
-8343.49
-8170.93
-7994.31
-7805.92
-10109.5
2487.22
-9913.31
-9716.33
-9519.43
-9307.78
-9095.18
-8881.94
-8668.67
-8454.64
-10767.2
2528.07
-10538
-10307.7
-10075.8
-9842.57
-9603.24
-9353.64
-9102.85
-8849.71
-8594.66
-10882.9
2532.91
-10613.5
-10341.2
-10067.4
-9793.02
-9518.69
-9232.7
-8940.95
-8650.44
-10606.8
2231.41
-10327.1
-10041.2
-9741.92
-9442.23
-9140.84
-8838.57
-8533.8
-8203.23
-9738.44
1854.48
-9418.81
-9099.91
-8782.12
-8445.13
-8102.41
-7765.58
-7433.44
-7108.29
-7810.86
1030.04
-7477.99
-7152.42
-6828.93
-6507.69
-6187.74
-5857.44
-5529.46
-5202.53
-4881.2
-4941.53
389.709
-4665.31
-4414.18
-4170.87
-3937.7
-3714.81
-3547.79
-3483.45
-3419.49
-3078.62
-271.731
-3021.89
-2967.37
-2967.37
-2766.63
-200.737
-2569.73
-196.908
-2569.73
-2400.91
-168.821
-2400.91
-2255.61
-145.298
-2130.6
-125.012
-2130.6
-2013.73
-116.866
-1911.02
-102.706
-1911.02
-1811.98
-99.0425
-1811.98
-1721.15
-90.8331
-1639.2
-81.949
-1639.2
-1558.02
-81.1812
-1558.02
-1482.9
-75.1135
-1413.26
-69.6488
-1413.26
-1344.2
-69.0525
-1281.09
-63.1169
-1281.09
-1217.84
-63.2496
-1217.84
-1158.24
-59.5997
-1103.62
-54.6132
-1103.62
-1048.05
-55.5724
-1048.05
-995.324
-52.7269
-946.023
-49.3019
-946.023
-895.857
-50.1657
-849.698
-46.1591
-849.698
-802.776
-46.9216
-802.776
-757.702
-45.0743
-715.751
-41.9513
-715.751
-672.516
-43.2345
-672.516
-630.485
-42.0309
-590.392
-40.0931
-590.392
-549.191
-41.2007
-510.819
-38.3727
-510.819
-472.143
-38.6759
-472.143
-435.125
-37.0178
-400.448
-34.6772
-400.448
-365.772
-34.6762
-365.772
-333.35
-32.4216
-302.84
-30.5105
-302.84
-275.583
-27.257
-251.518
-24.0649
-251.518
-231.17
-20.3473
-231.17
-211.659
-19.5118
-186.081
-25.5779
-186.081
-152.233
-33.8476
-152.233
-111.251
-40.9821
-62.8315
-48.4195
-62.8315
-7.35783
-55.4737
71.2255
-78.5834
71.2255
142.53
-71.3045
142.53
-63.2483
-132.133
-538.363
-132.669
-611.83
-133.657
-651.217
-134.864
-692.314
-136.377
-729.6
-138.118
-764.542
-140.106
-797.268
-142.318
-828.273
-144.755
-857.686
-147.411
-885.897
-150.282
-913.04
-153.365
-939.378
-156.655
-965.025
-160.151
-990.131
-163.854
-1014.79
-167.773
-1039.18
-171.928
-1063.57
-176.345
-1088.41
-181.053
-1114.23
-186.079
-1141.49
-191.445
-1170.55
-197.159
-1201.62
-203.213
-1234.76
-209.573
-1269.83
-216.182
-1306.48
-222.987
-1344.06
-230.053
-1381.42
-237.777
-1416.7
-247.192
-1447.02
-260.207
-1468.46
-279.515
-1476.53
-307.963
-1467.47
-347.432
-1439.95
-397.618
-1396.56
-455.363
-1344.36
-515.112
-1293.35
-570.503
-1253.19
-616.316
-1229.84
-649.661
-1224.1
-669.965
-1232.55
-678.121
-1249.64
-675.481
-1269.15
-663.189
-1284.24
-642.394
-1287.47
-615.472
-1274.75
-583.432
-1252.43
-528.523
-1199.89
-411.67
-900.279
-291.189
31.5635
-250.66
957.444
-222.946
1374.88
-194.9
1692.44
-166.799
2015.34
-138.22
2340.64
-108.885
2666.52
-79.4976
2983.4
-50.3919
3283.08
-22.1167
3551.55
3.65287
3758.09
24.0159
3864.95
37.0193
3874.89
44.3319
3856.71
47.9996
3831.72
49.5027
3790.75
49.9893
3723.59
50.0829
3614.05
50.0525
3453.22
50.3405
3250.13
50.3898
2980.72
50.6949
2677.71
49.6878
2254.76
49.0642
1869.89
47.0642
1198.7
43.1837
977.565
33.9869
-784.939
52.0931
-554.678
36.8538
-948.191
26.6419
-1509.47
3390.32
-139.071
-538.53
-139.442
-611.459
-140.38
-650.279
-141.554
-691.14
-143.075
-728.079
-144.845
-762.773
-146.887
-795.225
-149.174
-825.986
-151.707
-855.153
-154.477
-883.127
-157.481
-910.036
-160.711
-936.147
-164.163
-961.573
-167.834
-986.46
-171.73
-1010.9
-175.865
-1035.05
-180.27
-1059.17
-184.979
-1083.7
-190.022
-1109.18
-195.423
-1136.09
-201.197
-1164.77
-207.34
-1195.48
-213.828
-1228.27
-220.602
-1263.05
-227.607
-1299.48
-234.891
-1336.77
-242.854
-1373.46
-252.623
-1406.93
-266.372
-1433.27
-287.258
-1447.57
-318.643
-1445.14
-362.684
-1423.43
-418.846
-1383.79
-483.187
-1332.22
-548.994
-1278.56
-608.785
-1233.56
-656.729
-1205.25
-690.091
-1196.48
-709.033
-1205.16
-715.358
-1226.22
-711.217
-1253.78
-698.346
-1282.02
-677.767
-1304.82
-650.095
-1315.14
-617.082
-1307.77
-581.594
-1287.92
-532.107
-1249.38
-423.059
-1009.33
-281.929
-109.566
-237.936
913.45
-219.736
1356.68
-192.167
1664.87
-164.281
1987.46
-136.268
2312.63
-107.564
2637.82
-78.8639
2954.7
-50.4593
3254.67
-22.7795
3523.87
2.53169
3732.77
22.6037
3844.88
35.5363
3861.96
42.9061
3849.34
46.7151
3827.91
48.4187
3789.04
49.1269
3722.88
49.4515
3613.72
49.6591
3453.02
50.1709
3249.62
50.4745
2980.42
51.0285
2677.16
50.3247
2255.46
50.0345
1870.18
48.6559
1200.08
45.5253
980.696
32.6704
-772.084
48.9998
-571.007
32.4135
-931.605
21.1175
-1498.17
3340.13
-142.849
-538.78
-143.157
-611.15
-144.07
-649.367
-145.233
-689.976
-146.765
-726.547
-148.558
-760.98
-150.638
-793.146
-152.973
-823.651
-155.566
-852.559
-158.407
-880.286
-161.49
-906.953
-164.809
-932.829
-168.357
-958.025
-172.132
-982.685
-176.141
-1006.89
-180.405
-1030.78
-184.959
-1054.61
-189.842
-1078.82
-195.083
-1103.94
-200.703
-1130.47
-206.712
-1158.76
-213.097
-1189.09
-219.817
-1221.55
-226.817
-1256.06
-234.104
-1292.19
-241.963
-1328.91
-251.329
-1364.09
-264.178
-1394.08
-283.589
-1413.86
-313.071
-1418.09
-355.14
-1403.07
-409.742
-1368.83
-473.466
-1320.06
-540.076
-1265.61
-602.278
-1216.35
-653.965
-1181.87
-691.795
-1167.42
-715.343
-1172.93
-726.07
-1194.43
-726.047
-1226.25
-717.133
-1262.7
-700.663
-1298.49
-677.382
-1328.1
-647.64
-1344.89
-612.639
-1342.77
-575.569
-1324.99
-530.364
-1294.59
-434.592
-1105.1
-278.714
-265.445
-218.654
853.39
-211.616
1349.64
-188.751
1642
-160.75
1959.46
-133.432
2285.31
-105.587
2609.97
-77.8149
2926.93
-50.3837
3227.24
-23.5649
3497.05
1.08529
3708.12
20.7223
3825.25
33.4675
3849.21
40.8462
3841.96
44.7981
3823.95
46.7474
3787.09
47.7585
3721.87
48.4148
3613.07
48.9652
3452.47
49.8157
3248.77
50.4803
2979.75
51.3793
2676.26
51.1093
2255.73
51.0743
1870.21
50.6199
1200.53
47.3128
984.003
31.6421
-756.413
46.2167
-585.582
31.3774
-916.766
20.05
-1486.84
3281.6
-147.378
-539.104
-147.63
-610.899
-148.522
-648.474
-149.682
-688.816
-151.232
-724.997
-153.056
-759.155
-155.184
-791.018
-157.581
-821.254
-160.249
-849.891
-163.177
-877.358
-166.359
-903.771
-169.787
-929.401
-173.453
-954.359
-177.354
-978.784
-181.501
-1002.74
-185.919
-1026.36
-190.652
-1049.88
-195.741
-1073.73
-201.218
-1098.46
-207.101
-1124.58
-213.391
-1152.47
-220.061
-1182.42
-227.064
-1214.55
-234.378
-1248.74
-242.192
-1284.38
-251.263
-1319.84
-263.38
-1351.97
-281.574
-1375.89
-309.593
-1385.85
-350.447
-1377.23
-404.633
-1348.89
-469.124
-1304.34
-537.859
-1251.33
-603.458
-1200.01
-659.385
-1160.43
-701.611
-1139.65
-729.099
-1139.93
-743.055
-1158.98
-745.653
-1191.83
-739.021
-1232.88
-724.803
-1276.92
-704.108
-1319.18
-677.536
-1354.67
-645.315
-1377.11
-608.29
-1379.79
-569.622
-1363.66
-527.159
-1337.05
-443.09
-1189.17
-278.951
-429.584
-198.489
772.928
-196.831
1347.98
-183.725
1628.89
-156.668
1932.4
-129.741
2258.38
-102.968
2583.2
-76.3249
2900.29
-50.1047
3201.02
-24.4081
3471.35
-0.651679
3684.37
18.3719
3806.22
30.8117
3836.77
38.1427
3834.63
42.2363
3819.86
44.4724
3784.86
45.8617
3720.48
46.9442
3611.98
47.9397
3451.47
49.2294
3247.48
50.3506
2978.63
51.6818
2674.93
51.9274
2255.48
52.1772
1869.96
52.4188
1200.29
49.2913
987.13
31.0279
-738.15
44.449
-599.003
30.419
-902.736
17.9614
-1474.39
3244.09
-151.773
-539.476
-151.989
-610.682
-152.871
-647.593
-154.035
-687.652
-155.609
-723.422
-157.471
-757.293
-159.652
-788.837
-162.114
-818.791
-164.862
-847.144
-167.88
-874.34
-171.165
-900.486
-174.704
-925.861
-178.491
-950.573
-182.521
-974.753
-186.807
-998.456
-191.38
-1021.79
-196.292
-1044.97
-201.589
-1068.43
-207.304
-1092.75
-213.448
-1118.44
-220.012
-1145.91
-226.958
-1175.48
-234.251
-1207.26
-242.002
-1240.99
-250.8
-1275.58
-262.215
-1308.43
-279.175
-1335.01
-305.63
-1349.44
-345.121
-1346.35
-398.73
-1323.62
-463.759
-1283.86
-534.149
-1233.95
-602.367
-1183.11
-661.636
-1140.74
-707.544
-1114.52
-738.595
-1108.6
-755.694
-1122.83
-760.986
-1153.69
-756.763
-1196.05
-744.87
-1244.77
-726.594
-1295.19
-702.778
-1343
-673.908
-1383.54
-640.178
-1410.84
-602.213
-1417.76
-562.92
-1402.95
-523.026
-1376.94
-450.611
-1261.58
-284.618
-595.577
-180.41
668.72
-176.307
1343.88
-174.988
1627.58
-151.94
1909.35
-125.249
2231.69
-99.5888
2557.54
-74.3299
2875.03
-49.5584
3176.25
-25.2532
3447.05
-2.64383
3661.76
15.5662
3788.01
27.5542
3824.78
34.7536
3827.43
38.9729
3815.64
41.5308
3782.3
43.3744
3718.64
44.9856
3610.37
46.5374
3449.92
48.3827
3245.64
50.0667
2976.95
51.9433
2673.05
52.793
2254.63
53.4336
1869.32
54.1719
1199.55
51.5632
989.739
31.4386
-718.025
43.0503
-610.615
30.3838
-890.069
17.7388
-1461.74
3213.41
-156.241
-539.878
-156.439
-610.485
-157.318
-646.714
-158.495
-686.475
-160.1
-721.817
-162.008
-755.386
-164.248
-786.597
-166.783
-816.257
-169.615
-844.311
-172.732
-871.223
-176.125
-897.093
-179.784
-922.202
-183.698
-946.659
-187.865
-970.587
-192.296
-994.025
-197.032
-1017.05
-202.13
-1039.87
-207.644
-1062.92
-213.604
-1086.79
-220.015
-1112.03
-226.853
-1139.07
-234.081
-1168.25
-241.748
-1199.59
-250.286
-1232.45
-261.028
-1264.84
-276.734
-1292.72
-301.503
-1310.24
-339.451
-1311.49
-392.398
-1293.41
-458.053
-1257.97
-530.229
-1211.68
-601.003
-1163.17
-663.286
-1120.83
-712.459
-1091.57
-746.779
-1080.2
-766.886
-1088.49
-774.798
-1114.92
-772.866
-1155.62
-763.098
-1205.82
-746.944
-1260.93
-725.378
-1316.76
-699.065
-1369.31
-668.464
-1414.14
-633.862
-1445.44
-595.886
-1455.73
-557.194
-1441.64
-520.205
-1413.93
-458.652
-1323.14
-296.588
-757.641
-167.811
539.943
-152.906
1328.97
-161.081
1635.75
-145.648
1893.92
-120.118
2206.16
-95.3814
2532.8
-71.7444
2851.39
-48.6637
3153.17
-25.9973
3424.38
-4.79039
3640.55
12.3903
3770.83
23.7619
3813.41
30.7211
3820.47
35.0268
3811.34
37.9254
3779.4
40.2857
3716.28
42.5206
3608.14
44.7368
3447.7
47.2517
3243.12
49.606
2974.59
52.1426
2670.51
53.6853
2253.09
54.8452
1868.16
55.932
1198.47
53.8403
991.831
32.6609
-696.845
42.5739
-620.528
30.7427
-878.238
17.5405
-1448.54
3189.96
-160.744
-540.292
-160.938
-610.291
-161.824
-645.828
-163.023
-685.277
-164.666
-720.173
-166.625
-753.427
-168.931
-784.292
-171.544
-813.643
-174.468
-841.387
-177.689
-868.002
-181.199
-893.583
-184.984
-918.417
-189.033
-942.61
-193.341
-966.279
-197.924
-989.442
-202.827
-1012.15
-208.118
-1034.58
-213.856
-1057.18
-220.066
-1080.58
-226.742
-1105.35
-233.851
-1131.96
-241.4
-1160.7
-249.681
-1191.31
-259.773
-1222.36
-274.197
-1250.41
-297.111
-1269.81
-333.22
-1274.14
-385.263
-1259.44
-451.573
-1227.1
-525.818
-1183.72
-599.395
-1138.1
-664.601
-1097.97
-716.589
-1068.84
-753.615
-1054.55
-776.284
-1057.53
-786.537
-1078.24
-786.715
-1114.74
-778.913
-1163.42
-764.708
-1220.03
-745.174
-1280.46
-721.054
-1340.88
-692.926
-1397.44
-661.313
-1445.76
-626.713
-1480.04
-589.916
-1492.53
-553.413
-1478.14
-520.441
-1446.9
-469.7
-1373.88
-317.059
-910.282
-162.983
385.867
-130.121
1296.11
-142.078
1647.71
-136.24
1888.08
-114.207
2184.13
-90.3648
2508.96
-68.4521
2829.48
-47.3456
3132.06
-26.5587
3403.6
-7.01399
3621.01
8.9008
3754.92
19.4733
3802.84
26.0666
3813.88
30.4002
3807
33.6461
3776.16
36.576
3713.35
39.5223
3605.19
42.5087
3444.72
45.8051
3239.82
48.9381
2971.46
52.2483
2667.2
54.574
2250.77
56.3901
1866.35
57.7694
1197.09
56.0692
993.531
34.1763
-674.953
42.7826
-629.134
31.4673
-866.923
17.39
-1434.46
3173.51
-165.297
-540.702
-165.5
-610.087
-166.403
-644.925
-167.632
-684.048
-169.321
-718.484
-171.338
-751.409
-173.716
-781.914
-176.415
-810.944
-179.438
-838.364
-182.77
-864.67
-186.403
-889.95
-190.321
-914.498
-194.512
-938.419
-198.969
-961.822
-203.711
-984.701
-208.787
-1007.07
-214.277
-1029.09
-220.244
-1051.21
-226.705
-1074.12
-233.64
-1098.42
-241.033
-1124.57
-249.054
-1152.68
-258.53
-1181.83
-271.669
-1209.22
-292.557
-1229.53
-326.43
-1235.94
-377.122
-1223.44
-443.921
-1192.64
-520.532
-1150.49
-597.451
-1106.8
-665.928
-1069.63
-720.608
-1043.29
-759.821
-1029.62
-784.444
-1029.92
-796.569
-1045.41
-798.566
-1076.24
-792.547
-1120.76
-780.135
-1175.83
-762.467
-1237.69
-740.328
-1302.6
-714.331
-1366.88
-685.083
-1426.69
-653.291
-1477.55
-619.781
-1513.55
-585.63
-1526.68
-553.184
-1510.59
-525.749
-1474.34
-486.213
-1413.41
-349.587
-1046.91
-167.958
204.238
-111.077
1239.23
-119.521
1656.15
-122.359
1890.92
-106.775
2168.54
-84.595
2486.78
-64.3494
2809.23
-45.5169
3113.23
-26.8713
3384.95
-9.248
3603.38
5.1457
3740.52
14.7147
3793.27
20.7996
3807.8
25.0845
3802.72
28.6711
3772.57
32.2153
3709.81
35.9542
3601.45
39.8147
3440.86
44.0032
3235.64
48.0239
2967.44
52.2213
2663.01
55.4225
2247.56
58.0267
1863.74
59.7473
1195.37
58.3253
994.953
35.5127
-652.14
43.0274
-636.649
32.2013
-856.096
17.2957
-1419.56
3165.22
-169.903
-541.093
-170.129
-609.861
-171.057
-643.998
-172.325
-682.779
-174.067
-716.743
-176.151
-749.326
-178.608
-779.456
-181.399
-808.153
-184.528
-835.236
-187.978
-861.22
-191.741
-886.187
-195.802
-910.438
-200.142
-934.078
-204.756
-957.208
-209.661
-979.795
-214.918
-1001.82
-220.613
-1023.4
-226.811
-1045.02
-233.516
-1067.41
-240.707
-1091.23
-248.465
-1116.81
-257.37
-1143.77
-269.263
-1169.94
-288
-1190.48
-319.201
-1198.32
-367.891
-1187.25
-434.715
-1156.62
-513.8
-1113.56
-594.723
-1069.56
-667.237
-1034.29
-724.986
-1011.88
-766.184
-1002.09
-792.144
-1003.66
-805.446
-1016.62
-808.718
-1042.13
-804.127
-1080.83
-793.281
-1131.61
-777.304
-1191.81
-756.979
-1258.02
-732.916
-1326.66
-705.721
-1394.07
-676.164
-1456.24
-645.278
-1508.44
-614.301
-1544.53
-584.591
-1556.39
-558.207
-1536.97
-537.888
-1494.66
-510.048
-1441.25
-397.819
-1159.14
-189.685
-3.89518
-98.2851
1147.83
-96.0067
1653.87
-103.681
1898.59
-96.585
2161.45
-77.9473
2468.14
-59.3987
2790.69
-43.0645
3096.89
-26.869
3368.76
-11.4246
3587.94
1.18157
3727.92
9.52002
3784.93
14.9366
3802.38
19.0783
3798.58
22.9833
3768.66
27.1772
3705.61
31.7809
3596.85
36.6142
3436.02
41.8022
3230.45
46.8172
2962.42
52.0139
2657.81
56.1846
2243.39
59.7001
1860.23
61.8696
1193.2
60.7397
996.083
37.0431
-628.443
43.3408
-642.946
32.8546
-845.61
17.1404
-1403.84
3162.85
-174.571
-541.454
-174.83
-609.602
-175.793
-643.034
-177.11
-681.463
-178.912
-714.94
-181.069
-747.169
-183.613
-776.912
-186.504
-805.262
-189.745
-831.995
-193.321
-857.644
-197.223
-882.285
-201.433
-906.229
-205.931
-929.58
-210.709
-952.43
-215.786
-974.718
-221.228
-996.375
-227.132
-1017.49
-233.556
-1038.59
-240.496
-1060.48
-247.975
-1083.75
-256.365
-1108.42
-267.099
-1133.04
-283.648
-1153.39
-311.785
-1162.35
-357.686
-1152.42
-423.735
-1121.2
-505.05
-1075.31
-590.522
-1028.09
-668.086
-992
-729.792
-972.583
-773.304
-968.367
-800.297
-975.096
-814.061
-989.9
-817.825
-1012.86
-814.042
-1045.92
-804.357
-1090.51
-789.823
-1146.14
-771.14
-1210.49
-748.854
-1280.31
-723.527
-1351.99
-695.908
-1421.69
-667.089
-1485.06
-638.549
-1536.98
-611.95
-1571.12
-588.74
-1579.6
-570.301
-1555.41
-558.204
-1506.76
-541.466
-1457.99
-452.386
-1248.22
-227.26
-229.021
-93.5196
1014.09
-74.4783
1634.83
-81.2455
1905.36
-82.3962
2162.6
-69.8798
2455.63
-53.6011
2774.41
-39.8638
3083.16
-26.4707
3355.36
-13.4788
3574.95
-2.93092
3717.37
3.92802
3778.07
8.49732
3797.81
12.3857
3794.69
16.5705
3764.48
21.4394
3700.74
26.9709
3591.32
32.8684
3430.12
39.1588
3224.16
45.2712
2956.31
51.5771
2651.5
56.8126
2238.16
61.3601
1855.68
64.1044
1190.45
63.3507
996.837
38.8685
-603.961
43.9421
-648.02
33.7102
-835.378
17.4636
-1387.6
3159.97
-179.305
-541.77
-179.609
-609.298
-180.617
-642.026
-181.99
-680.09
-183.861
-713.069
-186.099
-744.931
-188.736
-774.275
-191.734
-802.264
-195.095
-828.634
-198.806
-853.933
-202.855
-878.236
-207.224
-901.86
-211.889
-924.914
-216.839
-947.48
-222.094
-969.463
-227.726
-990.743
-233.835
-1011.38
-240.475
-1031.95
-247.65
-1053.3
-255.572
-1075.82
-265.278
-1098.72
-279.712
-1118.6
-304.513
-1128.59
-346.81
-1120.05
-410.989
-1088.24
-493.84
-1038.35
-584.079
-985.067
-667.713
-944.452
-734.628
-925.085
-781.358
-925.854
-809.64
-940.084
-823.486
-961.249
-826.949
-986.437
-823.104
-1016.7
-813.873
-1055.15
-800.312
-1104.08
-782.988
-1163.47
-762.298
-1231.18
-738.685
-1303.92
-712.819
-1377.86
-685.763
-1448.75
-659.087
-1511.74
-634.778
-1561.29
-614.761
-1591.14
-600.136
-1594.22
-591.015
-1564.53
-587.261
-1510.51
-579.858
-1465.39
-507.839
-1320.24
-272.288
-464.571
-98.0415
839.843
-57.1123
1593.9
-57.1893
1905.44
-63.6117
2169.02
-59.4204
2451.44
-46.8781
2761.86
-35.8174
3072.1
-25.5634
3345.11
-15.3436
3564.73
-7.12849
3709.15
-2.01756
3772.96
1.50426
3794.29
5.01558
3791.18
9.42595
3760.07
14.9843
3695.18
21.4986
3584.8
28.5433
3423.08
36.0343
3216.67
43.3433
2949
50.8672
2643.98
57.2653
2231.76
62.9692
1849.98
66.4199
1187
66.185
997.072
41.0438
-578.82
44.9144
-651.891
34.899
-825.363
18.3872
-1371.08
3154.29
-184.113
-542.032
-184.47
-608.941
-185.533
-640.964
-186.971
-678.651
-188.919
-711.121
-191.246
-742.604
-193.986
-771.536
-197.098
-799.152
-200.588
-825.144
-204.441
-850.08
-208.646
-874.03
-213.183
-897.323
-218.025
-920.072
-223.156
-942.349
-228.595
-964.024
-234.417
-984.921
-240.721
-1005.08
-247.562
-1025.11
-255.046
-1045.82
-263.867
-1067
-276.364
-1086.22
-297.737
-1097.23
-335.713
-1090.61
-396.738
-1059.02
-479.968
-1005.01
-574.715
-943.599
-665.21
-894.572
-738.703
-870.959
-789.981
-873.807
-820.416
-895.42
-834.561
-925.939
-837.319
-958.492
-832.567
-991.188
-822.83
-1026.44
-809.432
-1068.55
-792.92
-1120.59
-773.502
-1182.88
-751.408
-1253.28
-727.135
-1328.19
-701.642
-1403.35
-676.49
-1473.9
-653.837
-1534.39
-636.075
-1579.05
-624.986
-1602.23
-620.651
-1598.56
-621.257
-1563.93
-624.718
-1507.05
-624.108
-1466
-565.855
-1378.49
-326.169
-704.257
-111.774
625.449
-45.0479
1527.18
-34.1386
1894.53
-40.7629
2175.65
-45.4465
2456.12
-38.9276
2755.35
-30.9017
3064.07
-24.007
3338.21
-16.9338
3557.65
-11.3419
3703.56
-8.26225
3769.88
-6.01268
3792.04
-3.01859
3788.18
1.55098
3755.5
7.80235
3688.93
15.3463
3577.26
23.6127
3414.81
32.3969
3207.88
40.9977
2940.4
49.847
2635.13
57.5087
2224.1
64.4997
1842.99
68.7942
1182.71
69.2786
996.587
43.667
-553.208
46.2964
-654.52
36.2896
-815.356
19.14
-1353.93
3146.17
-189
-542.228
-189.421
-608.52
-190.548
-639.837
-192.061
-677.138
-194.094
-709.088
-196.519
-740.179
-199.367
-768.687
-202.603
-795.917
-206.229
-821.518
-210.233
-846.076
-214.605
-869.658
-219.32
-892.608
-224.349
-915.043
-229.67
-937.028
-235.297
-958.397
-241.301
-978.917
-247.781
-998.598
-254.843
-1018.05
-262.909
-1037.75
-273.719
-1056.19
-291.774
-1068.16
-324.921
-1064.08
-381.47
-1034.06
-463.514
-976.98
-561.955
-906.574
-659.707
-845.847
-741.04
-813.239
-798.369
-813.631
-832.247
-839.929
-847.529
-880.138
-849.838
-923.63
-843.823
-964.507
-832.718
-1002.29
-818.433
-1040.73
-801.804
-1085.17
-783.011
-1139.38
-762.05
-1203.85
-739.142
-1276.18
-715.026
-1352.31
-691.154
-1427.22
-669.738
-1495.31
-653.485
-1550.64
-644.841
-1587.69
-644.749
-1602.32
-651.492
-1591.82
-660.902
-1554.52
-669.169
-1498.78
-672.041
-1463.13
-626.113
-1424.42
-393.458
-936.912
-137.403
369.393
-38.8505
1428.62
-14.6102
1870.29
-15.5911
2176.63
-27.0913
2467.62
-29.0599
2757.31
-25.1362
3060.15
-21.6757
3334.75
-18.126
3554.1
-15.4912
3700.93
-14.7441
3769.13
-14.0175
3791.31
-11.6992
3785.86
-7.0507
3750.85
-0.113138
3682
8.50397
3568.64
18.0583
3405.26
28.2213
3197.72
38.2052
2930.42
48.4852
2624.85
57.514
2215.07
65.9296
1834.57
71.2101
1177.43
72.6362
995.161
46.8588
-527.431
48.1081
-655.769
37.6676
-804.916
20.1114
-1336.38
3135.78
-193.974
-542.348
-194.468
-608.026
-195.669
-638.636
-197.266
-675.541
-199.393
-706.961
-201.923
-737.649
-204.889
-765.721
-208.255
-792.55
-212.027
-817.746
-216.192
-841.91
-220.74
-865.111
-225.645
-887.703
-230.872
-909.816
-236.391
-931.509
-242.204
-952.584
-248.372
-972.749
-255.019
-991.952
-262.441
-1010.63
-271.834
-1028.36
-286.857
-1041.17
-314.962
-1040.06
-365.841
-1013.21
-444.846
-955.059
-545.584
-876.242
-650.488
-801.669
-740.68
-755.655
-805.525
-748.393
-844.28
-774.876
-861.911
-822.298
-864.649
-877.4
-857.761
-930.518
-845.053
-977.215
-829.041
-1018.31
-811.159
-1058.61
-791.929
-1104.4
-771.333
-1159.98
-749.321
-1225.86
-726.296
-1299.21
-703.46
-1375.14
-682.949
-1447.73
-667.661
-1510.6
-660.562
-1557.74
-663.453
-1584.8
-675.558
-1590.22
-692.756
-1574.62
-708.625
-1538.65
-718.371
-1489.03
-720.982
-1460.52
-686.505
-1458.89
-482.315
-1141.1
-183.874
70.9515
-38.7991
1283.55
-0.231549
1831.72
9.34814
2167.05
-4.11773
2481.09
-16.0051
2769.2
-18.3308
3062.47
-18.5018
3334.92
-18.7621
3554.37
-19.4768
3701.64
-21.3909
3771.05
-22.4654
3792.39
-21.0042
3784.4
-16.3708
3746.22
-8.76635
3674.39
0.964412
3558.91
11.8685
3394.35
23.4883
3186.1
34.9416
2918.97
46.7545
2613.04
57.2561
2204.57
67.2391
1824.59
73.6537
1171.01
76.1587
992.656
50.4864
-501.759
50.2981
-655.581
39.054
-793.672
20.6488
-1317.97
3124
-199.042
-542.382
-199.617
-607.451
-200.902
-637.351
-202.591
-673.852
-204.821
-704.731
-207.466
-735.005
-210.559
-762.628
-214.065
-789.044
-217.991
-813.82
-222.327
-837.574
-227.062
-860.376
-232.169
-882.597
-237.605
-904.38
-243.326
-925.788
-249.314
-946.596
-255.625
-966.438
-262.488
-985.089
-270.734
-1002.38
-283.127
-1015.96
-306.295
-1018
-350.602
-995.753
-424.593
-939.215
-525.674
-853.978
-637.034
-764.882
-736.782
-701.921
-810.495
-681.942
-855.502
-703.385
-876.734
-753.644
-881.066
-817.967
-874.302
-884.163
-860.6
-944.22
-842.82
-994.995
-822.912
-1038.21
-802.041
-1079.48
-780.611
-1125.83
-758.589
-1182
-736.077
-1248.37
-713.896
-1321.39
-693.942
-1395.1
-679.144
-1462.53
-672.87
-1516.88
-677.675
-1552.94
-693.739
-1568.74
-717.76
-1566.2
-743.149
-1549.23
-762.022
-1519.78
-769.657
-1481.4
-768.506
-1461.67
-742.911
-1484.49
-582.726
-1301.29
-253.022
-258.752
-45.4754
1076
9.12155
1777.12
31.1768
2144.99
22.2498
2490.01
1.7848
2789.67
-9.65593
3073.91
-14.4269
3339.7
-18.6939
3558.63
-23.1756
3706.12
-28.1172
3775.99
-31.3017
3795.57
-30.906
3784.01
-26.3953
3741.71
-18.1561
3666.15
-7.27957
3548.04
5.03501
3382.04
18.1844
3172.95
31.1872
2905.96
44.6315
2599.59
56.7119
2192.49
68.4095
1812.89
76.1144
1163.31
79.7282
989.042
54.1398
-476.17
52.6767
-654.118
40.6506
-781.646
21.2301
-1298.55
3110.56
-204.21
-542.319
-204.875
-606.786
-206.255
-635.971
-208.046
-672.061
-210.388
-702.389
-213.156
-732.237
-216.384
-759.4
-220.04
-785.389
-224.13
-809.729
-228.647
-833.057
-233.581
-855.442
-238.902
-877.276
-244.557
-898.725
-250.48
-919.866
-256.623
-940.452
-263.077
-959.984
-270.409
-977.757
-280.642
-992.149
-299.258
-997.347
-336.513
-980.748
-403.608
-928.657
-502.593
-840.23
-619.035
-737.536
-728.64
-655.277
-812.461
-618.101
-865.018
-629.385
-890.943
-677.46
-897.922
-746.664
-892.449
-823.44
-878.927
-897.685
-860.264
-962.884
-838.547
-1016.71
-815.388
-1061.37
-791.888
-1102.98
-768.528
-1149.19
-745.475
-1205.05
-723.234
-1270.61
-703.318
-1341.3
-688.496
-1409.92
-682.374
-1468.65
-688.175
-1511.08
-706.993
-1534.12
-736.366
-1539.36
-770.162
-1532.4
-800.045
-1519.34
-818.015
-1501.81
-820.388
-1479.03
-812.577
-1469.48
-791.305
-1505.76
-668.009
-1424.58
-326.969
-599.792
-60.0541
809.087
15.3593
1701.71
47.9192
2112.43
49.0161
2488.92
24.7304
2813.95
2.40438
3096.24
-9.1607
3351.26
-17.8249
3567.3
-26.4509
3714.75
-34.8221
3784.36
-40.4607
3801.21
-41.3703
3784.92
-37.106
3737.44
-28.2755
3657.32
-16.2321
3535.99
-2.44968
3368.26
12.3
3158.2
26.928
2891.33
42.096
2584.43
55.8604
2178.72
69.4242
1799.33
78.5823
1154.15
83.3586
984.266
57.7343
-450.546
55.0917
-651.475
42.5288
-769.083
22.2682
-1278.29
3098.15
-209.487
-542.151
-210.251
-606.022
-211.734
-634.488
-213.637
-670.158
-216.101
-699.925
-219.002
-729.336
-222.374
-756.027
-226.188
-781.575
-230.453
-805.465
-235.163
-828.347
-240.309
-850.296
-245.856
-871.729
-251.737
-892.845
-257.85
-913.753
-264.13
-934.172
-270.839
-953.275
-279.38
-969.216
-294.063
-977.465
-324.255
-967.155
-382.906
-922.097
-477.029
-834.534
-596.413
-720.846
-715.646
-618.303
-810.719
-560.205
-872.142
-556.677
-903.711
-597.816
-914.09
-667.082
-910.801
-749.953
-898.657
-835.584
-880.477
-915.865
-858.135
-985.225
-833.209
-1041.64
-807.179
-1087.4
-781.27
-1128.89
-756.247
-1174.22
-732.741
-1228.56
-711.975
-1291.38
-696.414
-1356.87
-689.702
-1416.63
-695.596
-1462.76
-716.082
-1490.59
-749.561
-1500.64
-790.336
-1498.59
-830
-1492.74
-859.908
-1489.44
-873.385
-1488.33
-868.321
-1484.09
-851.859
-1485.94
-830.274
-1527.35
-737.236
-1517.62
-408.191
-928.837
-85.8431
486.74
20.781
1595.09
59.6101
2073.6
72.8588
2475.67
51.2189
2835.59
19.2009
3128.26
-1.90463
3372.37
-16.0451
3581.44
-29.1726
3727.88
-41.3884
3796.58
-49.8643
3809.69
-52.3551
3787.41
-48.4803
3733.57
-39.1125
3647.95
-25.8934
3522.77
-10.5887
3352.95
5.83196
3141.78
22.1545
2875.01
39.1317
2567.45
54.6834
2163.17
70.2701
1783.74
81.0451
1143.37
87.087
978.224
61.4121
-424.871
57.5876
-647.651