/*--------------------------------*- C++ -*----------------------------------*\
| =========                 |                                                 |
| \\      /  F ield         | OpenFOAM: The Open Source CFD Toolbox           |
|  \\    /   O peration     | Version:  4.1                                   |
|   \\  /    A nd           | Web:      www.OpenFOAM.org                      |
|    \\/     M anipulation  |                                                 |
\*---------------------------------------------------------------------------*/
FoamFile
{
    version     2.0;
    format      ascii;
    class       volVectorField;
    location    "19";
    object      U;
}
// * * * * * * * * * * * * * * * * * * * * * * * * * * * * * * * * * * * * * //

dimensions      [0 1 -1 0 0 0 0];

internalField   nonuniform List<vector> 
6785
(
(1.4089e-14 -2.25379 16.447)
(1.13059e-14 -7.90947 12.8631)
(-3.0617e-15 -5.11556 13.658)
(4.55494e-15 -5.08848 13.1439)
(9.32891e-16 -4.31072 12.9861)
(-2.18738e-16 -3.90916 12.6799)
(2.61675e-15 -3.51048 12.3856)
(6.94758e-16 -3.24001 12.0681)
(-5.14209e-16 -3.05787 11.749)
(2.01266e-15 -2.98078 11.4085)
(2.87456e-16 -2.95698 11.0521)
(-4.16171e-16 -2.97024 10.677)
(9.22096e-16 -3.37293 10.0232)
(-3.15741e-17 -3.44005 9.04009)
(-4.97791e-16 0.000492002 7.42631)
(2.07847e-14 -10.187 26.6431)
(1.30181e-14 -16.0565 22.8967)
(-2.70053e-15 -10.9974 23.26)
(4.7423e-15 -11.759 21.4233)
(9.19658e-16 -10.0176 20.5773)
(1.03653e-15 -9.37134 19.3502)
(1.98642e-15 -8.36529 18.2988)
(1.30627e-16 -7.57233 17.2215)
(1.17359e-16 -6.78402 16.206)
(8.13685e-16 -6.12709 15.2019)
(-3.96903e-16 -5.60673 14.1125)
(-1.87309e-16 -5.18187 12.7326)
(3.9464e-16 -4.77498 10.7587)
(-4.99202e-16 -3.89784 7.43887)
(-5.22894e-16 -1.14843 1.99365)
(2.06029e-14 -13.0189 28.35)
(1.05789e-14 -16.629 25.2072)
(-1.47082e-15 -12.017 25.089)
(3.54393e-15 -12.8895 22.7048)
(8.41464e-16 -10.7855 21.734)
(1.36543e-15 -10.2777 20.1191)
(5.14442e-16 -9.13991 18.9167)
(-1.53711e-16 -8.33657 17.5778)
(2.497e-16 -7.222 15.9491)
(4.16023e-17 -5.57079 13.1757)
(5.88803e-16 -3.09666 8.73721)
(6.87139e-16 -0.720698 3.82617)
(-1.28544e-15 0.177043 1.08219)
(-8.51464e-16 0.0596973 0.359543)
(-1.23996e-15 0.0411119 0.744693)
(2.09847e-14 -14.3456 29.3041)
(9.34253e-15 -17.1861 26.1107)
(-1.11687e-15 -13.028 25.884)
(3.55856e-15 -14.2775 23.2178)
(7.95166e-16 -11.8948 22.3651)
(1.45055e-15 -11.8699 20.4892)
(5.08122e-16 -10.6141 19.3671)
(1.18723e-16 -10.1062 17.9466)
(4.11691e-17 -9.0758 16.4117)
(1.50277e-16 -7.56007 13.6833)
(1.81194e-15 -4.65918 8.91262)
(1.73439e-15 -1.13544 2.86307)
(6.30778e-15 1.31641 -0.819425)
(6.53324e-15 3.16068 -3.47675)
(2.12646e-15 2.38098 -4.36604)
(2.08738e-14 -14.5856 28.7782)
(1.11042e-14 -17.7816 27.147)
(-8.69238e-16 -13.5973 26.0402)
(3.58826e-15 -14.7873 23.2529)
(1.67579e-15 -12.4796 22.325)
(1.53061e-15 -12.5231 20.2866)
(1.20613e-15 -11.3123 19.0225)
(1.11905e-15 -10.8281 17.4704)
(3.62806e-16 -10.0167 15.9915)
(3.18499e-16 -9.03261 14.0122)
(1.73286e-15 -7.36487 11.0988)
(1.49538e-15 -4.85528 7.20985)
(2.58661e-15 -2.29317 3.29708)
(2.71766e-15 1.54531 -0.998151)
(8.59023e-15 2.22878 -6.32811)
(2.01089e-14 -14.017 26.7535)
(1.30482e-14 -17.6944 27.4713)
(-2.16609e-16 -13.6034 25.3314)
(2.96251e-15 -14.2552 22.3993)
(2.12611e-15 -12.2052 21.3125)
(1.47166e-15 -12.0269 19.2198)
(1.32101e-15 -10.8517 17.7794)
(1.48479e-15 -10.2058 16.091)
(8.41394e-16 -9.39084 14.5223)
(2.08455e-16 -8.54357 12.8334)
(8.45783e-16 -7.52765 10.8491)
(1.61686e-15 -5.99595 8.43553)
(1.09451e-15 -4.25359 5.44799)
(6.11464e-16 -1.32561 1.80003)
(9.57999e-15 0.816495 -3.58643)
(2.04834e-14 -13.2552 24.6994)
(1.4914e-14 -17.2291 27.3722)
(1.91135e-15 -13.531 24.647)
(2.32289e-15 -13.5574 21.595)
(2.86296e-15 -11.7869 20.3563)
(2.83779e-15 -11.4029 18.3421)
(1.63338e-15 -10.2868 16.8274)
(2.08965e-15 -9.53455 15.148)
(3.00941e-15 -8.69532 13.6059)
(1.36261e-15 -7.86966 12.0924)
(1.4864e-15 -7.05169 10.5275)
(3.5122e-15 -5.99043 8.8485)
(2.72023e-15 -4.80243 6.72913)
(-8.27322e-16 -2.69819 3.97375)
(1.02447e-14 -0.428892 -0.985549)
(1.92679e-14 -12.6868 23.3777)
(1.6185e-14 -16.6377 26.9007)
(3.07921e-15 -13.4459 24.1044)
(1.94871e-15 -13.0413 20.9555)
(2.94068e-15 -11.4828 19.5734)
(3.00094e-15 -11.0185 17.7057)
(2.51146e-15 -10.0612 16.2681)
(2.57755e-15 -9.37203 14.759)
(2.89283e-15 -8.63511 13.3387)
(2.6665e-15 -7.90755 11.9534)
(2.12957e-15 -7.21571 10.5959)
(2.04076e-15 -6.44122 9.33604)
(3.04264e-15 -5.65247 8.01175)
(4.62674e-16 -4.25151 6.39105)
(2.33108e-15 -1.88325 2.05582)
(1.97481e-14 -12.3786 22.8022)
(1.66149e-14 -15.8191 25.9257)
(1.67704e-15 -12.9093 23.1985)
(2.34499e-15 -12.3635 20.0041)
(3.32727e-15 -10.7529 18.6357)
(1.24148e-15 -10.3438 16.7423)
(2.7223e-15 -9.37681 15.3337)
(2.71211e-15 -8.84378 13.7377)
(-2.0318e-16 -8.24798 12.3004)
(1.53443e-15 -7.80033 11.0208)
(2.33443e-15 -7.47559 10.1573)
(-7.92014e-16 -7.30477 9.87595)
(1.16174e-15 -7.11835 9.96116)
(8.36721e-16 -6.41627 9.61783)
(-2.62419e-15 -4.18773 6.4249)
(1.82539e-14 -12.7466 23.3336)
(1.32717e-14 -14.7593 24.9012)
(1.29514e-16 -12.3152 22.4085)
(7.8994e-16 -11.5478 19.746)
(1.91763e-15 -9.79225 18.1017)
(-4.53926e-16 -8.66536 15.5078)
(4.53565e-16 -6.98275 13.0511)
(1.72443e-15 -5.89557 10.6316)
(-2.91429e-17 -5.10965 9.04359)
(-5.50603e-17 -5.21531 8.62756)
(4.7797e-16 -6.06002 9.62261)
(-4.25979e-15 -7.36214 11.4536)
(-3.17369e-15 -8.40383 13.4014)
(-6.55582e-16 -8.80494 14.0158)
(-5.09516e-15 -6.40998 11.1938)
(1.69067e-14 -14.4326 26.3235)
(9.32785e-15 -14.9923 25.7822)
(-2.79006e-15 -12.7077 23.93)
(1.17273e-15 -12.0928 22.3105)
(5.85506e-16 -10.2399 20.5454)
(-2.26454e-15 -8.39664 17.5212)
(1.25816e-15 -6.03087 14.3519)
(3.76721e-15 -4.05939 11.3085)
(4.35078e-15 -2.21448 8.66078)
(8.12218e-15 -0.912088 6.56667)
(8.70485e-15 -0.625595 5.90771)
(4.50766e-15 -2.01004 7.51271)
(1.49601e-15 -4.83778 11.0018)
(-3.44433e-15 -7.53535 13.9066)
(-5.44962e-15 -6.06045 11.7909)
(1.67975e-14 -15.1751 27.2042)
(1.03024e-14 -18.0263 29.7767)
(-1.55114e-15 -14.6621 26.5847)
(9.66972e-16 -14.1591 24.8909)
(-6.80692e-17 -12.5702 23.4693)
(-1.86209e-16 -11.0455 20.7001)
(8.91629e-16 -8.71601 17.6097)
(2.95298e-15 -6.64374 14.4208)
(6.69921e-15 -4.41227 11.3328)
(9.29145e-15 -2.20171 8.07444)
(1.19775e-14 0.0127588 4.78158)
(9.05833e-15 1.73275 1.86495)
(3.1066e-15 2.05041 0.77621)
(1.70195e-15 0.298112 2.4158)
(-5.98484e-16 -1.26938 3.72228)
(1.51523e-14 -12.6291 21.702)
(1.49978e-14 -19.6841 31.2481)
(5.60359e-15 -17.8993 29.5193)
(3.33669e-15 -16.5598 26.6429)
(7.44914e-16 -15.1998 24.6898)
(9.70757e-16 -14.1631 22.4261)
(1.54818e-15 -12.6507 19.9783)
(2.46546e-16 -11.0769 17.3414)
(2.90328e-15 -9.31946 14.6682)
(4.47683e-15 -7.42564 11.8559)
(5.63804e-15 -5.30865 8.83065)
(7.41533e-15 -2.8671 5.46881)
(4.86652e-15 0.0724453 1.55601)
(1.39174e-15 4.1473 -3.56935)
(2.0005e-15 1.65941 -4.71009)
(1.20536e-14 -7.42923 11.5354)
(1.76308e-14 -17.1127 26.8535)
(1.05399e-14 -18.1831 28.807)
(4.39765e-15 -16.1776 25.2746)
(6.04297e-16 -14.1996 22.1883)
(5.77466e-16 -13.0912 20.0533)
(1.8076e-15 -12.1681 18.314)
(1.12954e-15 -11.2467 16.5261)
(1.60206e-15 -10.2376 14.6402)
(2.39947e-15 -9.10378 12.6552)
(2.14025e-15 -7.87074 10.5736)
(2.34297e-15 -6.41003 8.43429)
(2.72705e-15 -4.84604 6.01668)
(2.12671e-15 -2.55378 3.41157)
(8.22535e-16 -0.63602 -0.620654)
(7.039e-15 -3.85672 6.87281)
(1.81001e-14 -15.2943 24.215)
(1.73646e-14 -19.9201 30.0262)
(1.16138e-14 -20.2428 28.6471)
(5.13938e-15 -18.7169 24.9456)
(1.89607e-15 -16.818 21.2689)
(7.05673e-16 -15.1074 18.3118)
(-6.43297e-17 -13.6484 15.9462)
(-2.85951e-17 -12.2243 13.893)
(3.50532e-16 -10.8294 12.1629)
(9.99391e-17 -9.50001 10.5903)
(2.64427e-16 -8.07125 9.00027)
(3.37173e-16 -6.54622 7.44594)
(-9.53453e-16 -4.87483 5.6965)
(-4.83093e-16 -1.67025 2.03562)
(-1.03919e-15 33.8729 3.71988)
(-9.6819e-16 9.03816 -0.40577)
(-5.32595e-16 -1.06427 -1.19278)
(-5.00383e-16 1.01655 -1.22942)
(-5.29411e-16 0.688039 -1.0419)
(-7.36103e-16 0.868992 -1.77189)
(-5.32755e-16 0.936838 -1.11967)
(-5.1322e-16 1.17228 -1.04939)
(-6.38471e-16 1.12963 -0.978947)
(1.57095e-16 1.59784 -1.38825)
(4.57651e-16 1.42844 -0.910356)
(4.00568e-16 1.53987 -0.897605)
(4.22589e-16 2.04566 -1.14042)
(4.55579e-16 1.66315 -0.767472)
(5.20643e-16 1.88414 -0.785634)
(4.99343e-16 1.82513 -0.818413)
(4.29332e-16 2.28358 -0.940297)
(3.17637e-16 1.90467 -0.630163)
(9.97093e-17 2.01571 -0.64858)
(-2.08454e-16 2.49007 -0.663659)
(-5.16141e-16 1.94248 -0.475102)
(-8.44242e-16 2.16697 -0.500235)
(-1.0375e-15 2.07738 -0.556443)
(-1.77561e-15 2.53268 -0.550353)
(-1.78785e-15 1.97116 -0.446015)
(-2.02039e-15 2.18496 -0.477638)
(-2.3455e-15 2.11069 -0.535789)
(-3.42708e-15 2.47237 -0.52191)
(-3.17315e-15 1.96824 -0.444271)
(-3.25753e-15 2.08238 -0.486398)
(-4.67006e-15 2.42992 -0.425518)
(-4.08794e-15 1.83679 -0.394725)
(-4.29445e-15 2.02998 -0.415501)
(-4.52865e-15 1.97166 -0.456264)
(-6.59092e-15 2.2407 -0.38639)
(-5.55915e-15 1.74587 -0.3701)
(-5.54303e-15 1.85196 -0.404367)
(-8.21278e-15 2.11511 -0.301602)
(-6.47484e-15 1.57094 -0.301519)
(-6.74547e-15 1.73578 -0.301455)
(-6.49466e-15 1.6769 -0.307203)
(-9.49276e-15 1.94712 -0.172986)
(-6.92716e-15 1.49719 -0.122174)
(-6.76218e-15 1.64011 -0.0884341)
(-6.25278e-15 1.56538 -0.0635956)
(-8.09167e-15 1.80938 0.109613)
(-5.89039e-15 1.50138 0.191134)
(-5.07651e-15 1.52953 0.226498)
(-6.26888e-15 1.73641 0.532128)
(-3.76865e-15 1.35636 0.468322)
(-3.15483e-15 1.42992 0.530055)
(-2.44941e-15 1.33384 0.570286)
(-2.51326e-15 1.40875 0.892096)
(-1.07024e-15 1.04528 0.615792)
(-6.57247e-16 1.06876 0.636201)
(-9.67769e-18 1.00064 0.70909)
(9.55076e-16 0.904713 0.567555)
(1.91114e-15 0.581281 -0.0628944)
(1.68636e-15 0.518046 0.141562)
(3.57995e-15 0.835266 -1.67141)
(2.75281e-15 -0.0874238 -2.37146)
(1.32005e-15 0.00906476 -2.47522)
(-1.27033e-16 0.406852 -2.56382)
(-4.9889e-15 0.370821 -1.53141)
(-6.00663e-15 -0.844269 1.23082)
(-5.63243e-15 -0.485831 1.06203)
(-6.53396e-15 -1.31303 3.24098)
(-4.06554e-15 -1.95138 3.80363)
(-3.45519e-15 -2.19068 3.72577)
(-2.90978e-15 -2.16237 3.84894)
(-2.60318e-15 -3.56183 6.56563)
(-1.29672e-15 -3.91838 5.74653)
(-1.10392e-15 -4.45533 5.93493)
(-9.48021e-16 -4.36017 6.17974)
(-8.08974e-16 -6.52071 9.81123)
(-4.18294e-16 -6.65775 7.97541)
(-5.01827e-16 -6.75632 8.57544)
(-4.00894e-16 -9.30912 12.7142)
(-3.11518e-16 -9.08498 9.97616)
(-3.94399e-16 -9.52902 10.8654)
(-5.02148e-16 -10.2407 12.7176)
(-3.5145e-16 -10.1701 12.5731)
(-2.46807e-16 -10.2507 12.8715)
(7.75785e-16 -11.9593 15.4707)
(5.20893e-16 -10.966 13.7744)
(7.93336e-16 -11.2337 14.1947)
(9.5033e-16 -11.2217 14.1904)
(1.12703e-15 -11.3293 14.18)
(1.23655e-15 -11.3936 14.1999)
(1.33298e-15 -11.4848 14.2733)
(1.47364e-15 -11.5757 14.471)
(1.61558e-15 -11.6232 14.7685)
(2.22245e-15 -12.5201 16.5285)
(1.81913e-15 -12.0471 15.4057)
(1.99354e-15 -12.2175 15.6717)
(2.13484e-15 -12.1873 15.7772)
(2.25579e-15 -12.3514 16.0742)
(2.2909e-15 -12.3424 16.0932)
(2.36184e-15 -12.4475 16.1828)
(2.41711e-15 -12.5062 16.2488)
(2.50785e-15 -12.5579 16.3359)
(3.46941e-15 -13.153 17.6603)
(3.01421e-15 -12.7228 16.6838)
(3.16429e-15 -12.8448 16.8844)
(3.25912e-15 -12.8619 17.0314)
(3.39108e-15 -12.9345 17.2427)
(3.53984e-15 -12.9717 17.5051)
(3.69581e-15 -13.0644 17.7804)
(3.81326e-15 -13.087 17.8964)
(3.92347e-15 -13.1581 18.0842)
(4.02719e-15 -13.254 18.2797)
(4.86178e-15 -13.2209 19.1593)
(3.98445e-15 -13.0159 18.5888)
(4.00608e-15 -13.0918 18.8854)
(3.9385e-15 -13.1077 19.0233)
(3.93954e-15 -13.1807 19.1467)
(3.96592e-15 -13.2025 19.2103)
(4.00472e-15 -13.2763 19.3767)
(4.04435e-15 -13.2666 19.3337)
(4.07354e-15 -13.3821 19.2134)
(4.72568e-15 -12.5125 18.3086)
(3.94166e-15 -12.6127 18.1544)
(4.09875e-15 -12.614 18.2374)
(4.27177e-15 -12.6414 18.4503)
(4.45482e-15 -12.604 18.463)
(4.68132e-15 -12.6307 18.5965)
(4.9078e-15 -12.6339 18.7505)
(5.14869e-15 -12.5769 18.9906)
(5.51074e-15 -12.8092 19.5014)
(6.1229e-15 -10.7008 17.2597)
(5.82007e-15 -11.3826 18.3112)
(5.97453e-15 -11.2742 18.2496)
(5.99281e-15 -11.255 18.2059)
(6.23424e-15 -11.2317 18.3111)
(6.10834e-15 -11.1695 17.9521)
(5.8493e-15 -11.0603 17.3706)
(5.61279e-15 -10.9373 16.7248)
(5.41679e-15 -10.974 15.9865)
(4.97231e-15 -8.03494 11.4177)
(5.86495e-15 -9.16382 14.1304)
(5.69369e-15 -8.8187 13.2154)
(5.78557e-15 -8.8136 12.9768)
(5.88311e-15 -8.597 12.6839)
(6.14492e-15 -8.49208 12.5761)
(7.05097e-15 -8.30592 12.6406)
(6.69364e-15 -8.12291 12.3418)
(6.77749e-15 -7.93198 12.1206)
(6.61601e-15 -7.83006 11.6384)
(3.83245e-15 -4.17284 5.91026)
(6.06865e-15 -6.04515 9.65029)
(5.4585e-15 -5.47006 8.24153)
(4.97089e-15 -5.63391 7.58678)
(4.31705e-15 -5.2727 6.41479)
(3.52698e-15 -5.19996 5.03581)
(2.18605e-15 -4.98323 2.70698)
(9.51455e-16 -4.60814 0.53237)
(1.02997e-15 -4.60093 0.526105)
(-6.37185e-16 -4.17563 -1.74126)
(5.71675e-16 -4.1557 -0.244715)
(1.69454e-16 -4.10968 -0.970073)
(-1.21289e-15 -3.14897 -2.17107)
(-6.58709e-16 -4.51005 -1.89277)
(-9.47424e-16 -3.62348 -1.68417)
(-7.54362e-16 -3.20798 -1.17791)
(-1.06032e-15 -4.02645 -1.65095)
(-7.8643e-16 -2.74444 -1.04248)
(-1.1634e-15 -3.46977 -1.53439)
(-9.32031e-16 -3.16432 -1.17118)
(-7.8781e-16 -2.56336 -0.878723)
(-1.12715e-15 -3.04048 -1.274)
(-9.8556e-16 -2.81629 -0.990904)
(-8.14445e-16 -2.35058 -0.742933)
(-1.07543e-15 -3.09899 -1.03164)
(-8.03228e-16 -2.06837 -0.672359)
(-1.08747e-15 -2.68355 -0.993281)
(-7.8533e-16 -2.35843 -0.7888)
(-6.82932e-16 -2.01136 -0.596885)
(-9.20007e-16 -2.66029 -0.835213)
(-6.35146e-16 -1.75689 -0.548575)
(-9.92874e-16 -2.30977 -0.810476)
(-8.93888e-16 -2.09773 -0.659772)
(-7.58158e-16 -1.68748 -0.498058)
(-1.06617e-15 -2.04636 -0.73782)
(-9.18101e-16 -1.88534 -0.599108)
(-7.03297e-16 -1.56418 -0.448888)
(-9.78399e-16 -2.11285 -0.636047)
(-7.3923e-16 -1.37293 -0.416465)
(-1.06288e-15 -1.832 -0.6259)
(-7.65818e-16 -1.58623 -0.509201)
(-6.7126e-16 -1.34492 -0.382005)
(-8.90235e-16 -1.82242 -0.546749)
(-6.72338e-16 -1.16348 -0.357519)
(-9.94506e-16 -1.57907 -0.539191)
(-8.43518e-16 -1.41007 -0.444267)
(-5.44253e-16 -1.1172 -0.330345)
(-8.23849e-16 -1.38758 -0.500086)
(-6.30754e-16 -1.25635 -0.407961)
(-3.88968e-16 -1.02596 -0.29912)
(-5.41725e-16 -1.43379 -0.42959)
(-4.24989e-16 -0.883197 -0.276668)
(-7.09283e-16 -1.23444 -0.422918)
(-6.429e-16 -1.03215 -0.347015)
(-6.27351e-16 -0.860145 -0.254292)
(-7.72014e-16 -1.21685 -0.370559)
(-4.18357e-16 -0.720397 -0.239051)
(-6.61961e-16 -1.0428 -0.368083)
(-5.48976e-16 -0.891804 -0.308917)
(-2.31037e-16 -0.67861 -0.223838)
(-3.63502e-16 -0.889276 -0.345727)
(-2.86083e-16 -0.766936 -0.283491)
(-2.48332e-16 -0.599207 -0.199286)
(-3.27784e-16 -0.909285 -0.289359)
(-4.24077e-16 -0.483906 -0.178404)
(-5.86334e-16 -0.768528 -0.27592)
(-2.2042e-16 -0.581411 -0.223506)
(-5.26893e-17 -0.461181 -0.151617)
(-7.15739e-17 -0.737881 -0.223619)
(1.57864e-16 -0.348779 -0.131003)
(2.48026e-16 -0.621509 -0.200586)
(4.02309e-16 -0.467411 -0.155489)
(4.83854e-16 -0.319291 -0.0881567)
(9.81433e-16 -0.501304 -0.126244)
(1.45659e-15 -0.375299 -0.0719859)
(8.43645e-16 -0.268897 -0.0187159)
(1.29706e-15 -0.515271 -0.0231243)
(6.31269e-16 -0.19557 0.00596842)
(8.48472e-16 -0.43203 -0.0143031)
(5.57745e-16 -0.285916 -0.0715572)
(5.36495e-16 -0.179153 -0.0825771)
(5.25428e-16 -0.490352 -0.159133)
(4.51773e-16 -0.00883048 -0.141778)
(8.12685e-16 -0.39363 -0.246247)
(1.35575e-15 -0.367712 -0.302304)
(5.68573e-16 0.247602 -0.217282)
(7.2585e-16 -0.202023 -0.441363)
(5.07379e-17 -0.844586 -0.682841)
(-1.81468e-16 0.680109 -0.509332)
(2.27168e-16 -0.645847 -0.588349)
(3.80449e-16 0.390628 -0.422572)
(3.54551e-16 0.176743 -0.457089)
(7.6443e-30 0.71777 0.880694)
(4.59989e-29 0.816346 0.881149)
(1.07621e-28 0.869421 0.887755)
(6.69069e-29 0.924482 0.894341)
(-6.60302e-28 0.974569 0.903843)
(-3.47604e-27 1.02143 0.914521)
(-9.39948e-27 1.06536 0.927051)
(-1.09925e-26 1.10697 0.941024)
(3.17914e-26 1.14646 0.956544)
(2.28828e-25 1.18434 0.973524)
(7.291e-25 1.22078 0.991954)
(1.30883e-24 1.25615 1.01181)
(-1.5736e-25 1.2906 1.03306)
(-1.12624e-23 1.32432 1.05568)
(-4.92898e-23 1.35745 1.07967)
(-1.32177e-22 1.39022 1.10505)
(-2.0013e-22 1.42302 1.13192)
(1.82357e-22 1.45645 1.16045)
(2.55666e-21 1.49121 1.19081)
(1.03755e-20 1.52794 1.22322)
(2.64458e-20 1.56709 1.25783)
(3.50635e-20 1.60894 1.29476)
(-5.47128e-20 1.65353 1.33402)
(-5.15377e-19 1.70065 1.37548)
(-1.84794e-18 1.74981 1.41883)
(-4.30312e-18 1.80015 1.46359)
(-5.77261e-18 1.85032 1.50956)
(3.61301e-18 1.89824 1.55781)
(5.12927e-17 1.94089 1.61255)
(1.94615e-16 1.97408 1.68335)
(5.28387e-16 1.99277 1.78609)
(1.1759e-15 1.99201 1.94078)
(2.25493e-15 1.96868 2.16538)
(3.82493e-15 1.92352 2.46702)
(5.84058e-15 1.86245 2.83453)
(8.1422e-15 1.79605 3.23697)
(1.0494e-14 1.73648 3.63119)
(1.26482e-14 1.69329 3.97554)
(1.43991e-14 1.67045 4.24203)
(1.56065e-14 1.66613 4.42014)
(1.6193e-14 1.67459 4.51274)
(1.61337e-14 1.68795 4.52888)
(1.54509e-14 1.69679 4.47755)
(1.42084e-14 1.69113 4.36498)
(1.24706e-14 1.66696 4.20023)
(1.0213e-14 1.63142 4.00583)
(7.53084e-15 1.53596 3.77351)
(5.95125e-15 1.06583 3.27701)
(8.92275e-15 -0.195613 2.17018)
(1.17339e-14 -1.29097 1.75524)
(1.28979e-14 -1.84484 1.57944)
(1.33391e-14 -2.27023 1.39406)
(1.30866e-14 -2.7009 1.20485)
(1.22368e-14 -3.1354 1.01909)
(1.09303e-14 -3.57085 0.823994)
(9.35261e-15 -3.99404 0.62781)
(7.64896e-15 -4.39437 0.432196)
(5.86979e-15 -4.7531 0.239689)
(4.02375e-15 -5.02784 0.0551987)
(2.25519e-15 -5.16693 -0.103968)
(8.47139e-16 -5.17492 -0.216419)
(1.66913e-16 -5.14709 -0.277203)
(-3.16256e-18 -5.11215 -0.313899)
(-9.78358e-18 -5.0572 -0.326104)
(-1.94381e-18 -4.96821 -0.333919)
(3.95914e-21 -4.82305 -0.332594)
(6.53108e-20 -4.60957 -0.335185)
(9.73335e-21 -4.33993 -0.33214)
(-6.82757e-22 -3.98118 -0.339104)
(-4.00711e-22 -3.57794 -0.332705)
(-9.03188e-23 -3.01325 -0.343263)
(1.08441e-22 -2.5011 -0.319272)
(-4.59106e-22 -1.60652 -0.334507)
(3.29502e-21 -1.31106 -0.294669)
(-7.65806e-20 1.05481 -0.27671)
(8.52258e-19 0.717011 -0.177028)
(-5.42612e-18 1.27854 -0.522109)
(1.87307e-17 2.02507 0.0331139)
(-1.36727e-17 -4.5652 -0.388405)
(4.10048e-29 0.717903 0.928087)
(1.36024e-28 0.815364 0.926374)
(1.3681e-28 0.867406 0.932809)
(-5.55797e-28 0.921988 0.938939)
(-3.5594e-27 0.9714 0.948446)
(-1.06118e-26 1.01777 0.959224)
(-1.56931e-26 1.06116 0.972045)
(2.07664e-26 1.10228 0.986452)
(2.17091e-25 1.14128 1.00254)
(7.60001e-25 1.17868 1.02022)
(1.52334e-24 1.21467 1.03948)
(5.49994e-25 1.24958 1.06027)
(-9.62243e-24 1.28358 1.08255)
(-4.68383e-23 1.31685 1.10629)
(-1.3351e-22 1.34954 1.1315)
(-2.30547e-22 1.38184 1.15823)
(3.1609e-23 1.41413 1.18664)
(2.07959e-21 1.44699 1.21696)
(9.49681e-21 1.48112 1.24942)
(2.68039e-20 1.51716 1.2842)
(4.46036e-20 1.55557 1.32143)
(-1.58352e-20 1.59667 1.36118)
(-4.25574e-19 1.64054 1.40335)
(-1.76352e-18 1.68702 1.44768)
(-4.57563e-18 1.73567 1.49368)
(-7.35741e-18 1.78558 1.54107)
(-7.78715e-19 1.83509 1.5908)
(4.36626e-17 1.8813 1.64725)
(1.89061e-16 1.91965 1.72105)
(5.44077e-16 1.944 1.83058)
(1.25408e-15 1.9477 1.99954)
(2.45976e-15 1.92587 2.24906)
(4.22922e-15 1.87803 2.58674)
(6.49669e-15 1.81017 2.99789)
(9.05046e-15 1.73457 3.44461)
(1.15878e-14 1.66662 3.8753)
(1.38074e-14 1.61938 4.24182)
(1.54839e-14 1.59908 4.51455)
(1.64915e-14 1.60419 4.68664)
(1.67863e-14 1.62802 4.76713)
(1.63807e-14 1.66205 4.77097)
(1.53277e-14 1.69778 4.71192)
(1.37193e-14 1.72652 4.59936)
(1.16875e-14 1.73846 4.43751)
(9.37073e-15 1.72703 4.23038)
(6.79084e-15 1.70113 3.99733)
(3.89498e-15 1.64937 3.75772)
(1.97511e-15 1.30474 3.34175)
(5.8891e-15 0.0518946 2.23962)
(1.20558e-14 -1.29011 1.59277)
(1.30124e-14 -1.83811 1.55601)
(1.33339e-14 -2.25573 1.37686)
(1.30593e-14 -2.68638 1.18589)
(1.21996e-14 -3.11934 1.00442)
(1.08956e-14 -3.55318 0.812939)
(9.32618e-15 -3.975 0.621271)
(7.63143e-15 -4.37362 0.430358)
(5.86016e-15 -4.73038 0.242287)
(4.0213e-15 -5.00522 0.0613409)
(2.25785e-15 -5.1488 -0.0952593)
(8.51355e-16 -5.16415 -0.206485)
(1.68834e-16 -5.14102 -0.267406)
(-3.1243e-18 -5.10764 -0.304756)
(-1.00146e-17 -5.05227 -0.318164)
(-2.00915e-18 -4.9616 -0.327408)
(3.72431e-21 -4.81434 -0.327603)
(6.84476e-20 -4.59879 -0.331762)
(1.0304e-20 -4.32691 -0.330269)
(-7.11011e-22 -3.96706 -0.338741)
(-4.28767e-22 -3.56235 -0.334173)
(-9.36893e-23 -2.99862 -0.346156)
(1.08728e-22 -2.48459 -0.325053)
(-4.65774e-22 -1.58893 -0.340813)
(3.63459e-21 -1.29364 -0.312111)
(-8.29616e-20 1.03484 -0.287538)
(9.19397e-19 0.747947 -0.149575)
(-5.24774e-18 1.24674 -0.511162)
(1.80669e-17 2.00142 0.0882103)
(-1.50364e-17 -4.48678 -0.375818)
(1.05773e-28 0.718176 0.953747)
(1.99353e-28 0.815113 0.951185)
(-2.27694e-28 0.86653 0.957506)
(-2.58853e-27 0.920876 0.963451)
(-9.10789e-27 0.969924 0.972994)
(-1.73107e-26 1.01604 0.983878)
(1.11013e-27 1.05915 0.996901)
(1.44692e-25 1.10002 1.0116)
(6.02955e-25 1.13877 1.02805)
(1.41029e-24 1.17593 1.04617)
(1.28239e-24 1.21168 1.06592)
(-5.45618e-24 1.24636 1.08728)
(-3.36185e-23 1.28013 1.11018)
(-1.05793e-22 1.31319 1.13459)
(-2.10756e-22 1.34564 1.16051)
(-1.17784e-22 1.3777 1.18804)
(1.17443e-21 1.4097 1.21736)
(6.49561e-21 1.44222 1.24876)
(2.06865e-20 1.47599 1.28246)
(4.21964e-20 1.51165 1.31864)
(2.35371e-20 1.54968 1.3574)
(-2.34709e-19 1.59041 1.39875)
(-1.23798e-18 1.63395 1.44253)
(-3.7e-18 1.68018 1.48836)
(-7.18587e-18 1.72863 1.53586)
(-5.46335e-18 1.77815 1.58552)
(2.38033e-17 1.82645 1.64065)
(1.34917e-16 1.86949 1.7104)
(4.28544e-16 1.90131 1.81198)
(1.04891e-15 1.91485 1.96922)
(2.14735e-15 1.90416 2.20509)
(3.81362e-15 1.86722 2.53013)
(6.00666e-15 1.80802 2.93312)
(8.53177e-15 1.73681 3.37977)
(1.10884e-14 1.6678 3.82123)
(1.3364e-14 1.61474 4.20913)
(1.51164e-14 1.58628 4.51039)
(1.62068e-14 1.58392 4.71354)
(1.6585e-14 1.60336 4.82437)
(1.62623e-14 1.63751 4.85657)
(1.52924e-14 1.67886 4.82406)
(1.37651e-14 1.7202 4.7377)
(1.18055e-14 1.75389 4.60447)
(9.57059e-15 1.77089 4.42727)
(7.21891e-15 1.76369 4.20784)
(4.79054e-15 1.73774 3.96058)
(2.1179e-15 1.69032 3.71446)
(-7.77753e-17 1.40059 3.3631)
(2.96467e-15 0.232775 2.37322)
(1.17071e-14 -1.17402 1.4187)
(1.32584e-14 -1.79913 1.46802)
(1.33368e-14 -2.20023 1.35704)
(1.30179e-14 -2.62966 1.16042)
(1.21513e-14 -3.0635 0.982782)
(1.08512e-14 -3.49668 0.796837)
(9.29256e-15 -3.91929 0.611019)
(7.60918e-15 -4.3195 0.426649)
(5.84786e-15 -4.67891 0.244925)
(4.01794e-15 -4.95907 0.0691437)
(2.26083e-15 -5.11228 -0.0837887)
(8.56324e-16 -5.14014 -0.192883)
(1.71127e-16 -5.12727 -0.253423)
(-3.06869e-18 -5.10117 -0.291299)
(-1.02894e-17 -5.05077 -0.306075)
(-2.08845e-18 -4.96318 -0.317218)
(3.22671e-21 -4.81783 -0.319551)
(7.23e-20 -4.60356 -0.32599)
(1.10212e-20 -4.3321 -0.32678)
(-7.45127e-22 -3.97327 -0.337499)
(-4.64455e-22 -3.56873 -0.335485)
(-9.81305e-23 -3.00737 -0.349513)
(1.09144e-22 -2.4934 -0.332105)
(-4.75559e-22 -1.60068 -0.347667)
(4.03449e-21 -1.31028 -0.330521)
(-8.5319e-20 1.01928 -0.29465)
(9.60711e-19 0.767199 -0.128672)
(-5.19347e-18 1.23232 -0.495643)
(1.72061e-17 1.99125 0.0885467)
(-1.52411e-17 -4.41165 -0.363754)
(2.02123e-28 0.718571 0.984366)
(4.67975e-29 0.814655 0.981032)
(-1.6861e-27 0.86517 0.987265)
(-7.39683e-27 0.91913 0.993069)
(-1.73442e-26 0.967622 1.00269)
(-1.29179e-26 1.01334 1.01373)
(8.50946e-26 1.05602 1.02703)
(4.59475e-25 1.0965 1.04209)
(1.25909e-24 1.13486 1.05899)
(1.72579e-24 1.17165 1.07766)
(-2.39363e-24 1.20703 1.09803)
(-2.34429e-23 1.24136 1.12009)
(-8.33039e-23 1.27478 1.14374)
(-1.87363e-22 1.3075 1.16896)
(-1.95167e-22 1.3396 1.19576)
(5.89769e-22 1.37127 1.22425)
(4.33263e-21 1.40283 1.25467)
(1.55172e-20 1.43486 1.28734)
(3.68898e-20 1.46809 1.32252)
(4.3084e-20 1.50318 1.36037)
(-1.04513e-19 1.54062 1.40096)
(-8.21612e-19 1.58079 1.44423)
(-2.87141e-18 1.62383 1.48991)
(-6.56112e-18 1.66963 1.5376)
(-8.1751e-18 1.71757 1.58743)
(9.13538e-18 1.766 1.64178)
(9.13384e-17 1.81153 1.70839)
(3.3133e-16 1.84849 1.80335)
(8.73083e-16 1.86946 1.95098)
(1.88167e-15 1.86728 2.17695)
(3.47376e-15 1.83813 2.49573)
(5.63747e-15 1.78413 2.89942)
(8.19451e-15 1.71385 3.3556)
(1.08384e-14 1.64059 3.81586)
(1.32302e-14 1.57903 4.23024)
(1.50955e-14 1.54076 4.56154)
(1.62713e-14 1.53093 4.79326)
(1.66995e-14 1.5478 4.92805)
(1.63957e-14 1.58508 4.97934)
(1.54236e-14 1.63495 4.96268)
(1.38833e-14 1.6899 4.89092)
(1.19073e-14 1.74314 4.77312)
(9.65345e-15 1.78763 4.61498)
(7.2928e-15 1.81471 4.41881)
(4.97911e-15 1.81574 4.18529)
(2.7412e-15 1.79377 3.92526)
(3.22734e-16 1.75833 3.67067)
(-2.05183e-15 1.5374 3.36239)
(-1.16585e-16 0.461054 2.49593)
(1.03e-14 -1.08188 1.29983)
(1.34087e-14 -1.7955 1.31068)
(1.34036e-14 -2.17431 1.31715)
(1.29655e-14 -2.59144 1.13405)
(1.20971e-14 -3.02665 0.954696)
(1.08031e-14 -3.45933 0.775821)
(9.25658e-15 -3.88208 0.597125)
(7.58541e-15 -4.28293 0.420708)
(5.83462e-15 -4.64332 0.247081)
(4.01405e-15 -4.92644 0.0782004)
(2.26352e-15 -5.08622 -0.0697202)
(8.6114e-16 -5.12304 -0.175685)
(1.73384e-16 -5.11725 -0.235223)
(-3.00251e-18 -5.09583 -0.27348)
(-1.05587e-17 -5.0483 -0.289752)
(-2.16812e-18 -4.96222 -0.303207)
(2.46333e-21 -4.81761 -0.308272)
(7.62398e-20 -4.60373 -0.317663)
(1.17776e-20 -4.33208 -0.321408)
(-7.7927e-22 -3.97363 -0.335072)
(-5.02824e-22 -3.56891 -0.33615)
(-1.03122e-22 -3.00904 -0.352903)
(1.09654e-22 -2.49503 -0.339541)
(-4.87134e-22 -1.60249 -0.354866)
(4.43628e-21 -1.31635 -0.347172)
(-8.85729e-20 0.995924 -0.303983)
(1.01271e-18 0.793126 -0.11283)
(-5.08607e-18 1.21146 -0.487212)
(1.61602e-17 1.97317 0.0951722)
(-1.78961e-17 -4.34606 -0.344256)
(2.3878e-28 0.719041 1.01393)
(-9.07271e-28 0.814392 1.01012)
(-5.56309e-27 0.864064 1.01629)
(-1.57611e-26 0.917675 1.02204)
(-2.09135e-26 0.965654 1.03176)
(3.90386e-26 1.01102 1.04302)
(3.28776e-25 1.0533 1.05661)
(1.06418e-24 1.09343 1.07208)
(1.89068e-24 1.13143 1.08946)
(-2.49199e-25 1.16788 1.10869)
(-1.54478e-23 1.20293 1.12971)
(-6.40952e-23 1.23694 1.15248)
(-1.61229e-22 1.27006 1.17691)
(-2.25519e-22 1.30247 1.20297)
(2.23773e-22 1.33425 1.23065)
(2.8018e-21 1.36556 1.26011)
(1.1297e-20 1.39671 1.29163)
(3.02376e-20 1.42826 1.32559)
(4.86581e-20 1.46097 1.36226)
(-2.32039e-20 1.49552 1.40178)
(-5.04682e-19 1.53244 1.44418)
(-2.1113e-18 1.57212 1.4893)
(-5.58695e-18 1.61475 1.53679)
(-9.16781e-18 1.66012 1.58654)
(-9.32387e-19 1.7072 1.64014)
(5.65524e-17 1.75334 1.70384)
(2.46577e-16 1.79351 1.79234)
(7.09494e-16 1.82033 1.92999)
(1.62104e-15 1.82591 2.1451)
(3.12419e-15 1.80512 2.45655)
(5.23841e-15 1.75862 2.8599)
(7.80511e-15 1.6937 3.32361)
(1.05152e-14 1.62239 3.79841)
(1.30072e-14 1.55848 4.23315)
(1.49758e-14 1.5141 4.58865)
(1.62343e-14 1.49662 4.84525)
(1.67153e-14 1.50703 5.00267)
(1.64382e-14 1.541 5.07324)
(1.54762e-14 1.59158 5.07323)
(1.39397e-14 1.65157 5.01693)
(1.19694e-14 1.7145 4.91465)
(9.72914e-15 1.77442 4.77325)
(7.39005e-15 1.82498 4.59712)
(5.1088e-15 1.85807 4.38829)
(2.99651e-15 1.86447 4.1473)
(1.0311e-15 1.84375 3.88231)
(-1.128e-15 1.80882 3.62422)
(-3.67036e-15 1.63467 3.35133)
(-3.03866e-15 0.684738 2.62111)
(7.90756e-15 -0.959266 1.24439)
(1.30725e-14 -1.79827 1.12083)
(1.35299e-14 -2.16814 1.23203)
(1.29245e-14 -2.56009 1.10374)
(1.2036e-14 -2.99416 0.921984)
(1.07526e-14 -3.42769 0.748752)
(9.21966e-15 -3.85058 0.579173)
(7.56112e-15 -4.25186 0.412092)
(5.82106e-15 -4.6126 0.24833)
(4.00978e-15 -4.89775 0.0881829)
(2.26576e-15 -5.06317 -0.0531806)
(8.65519e-16 -5.10803 -0.154882)
(1.75464e-16 -5.10835 -0.212607)
(-2.93093e-18 -5.09063 -0.250942)
(-1.08053e-17 -5.04504 -0.268797)
(-2.24311e-18 -4.95966 -0.284943)
(1.46752e-21 -4.81513 -0.293371)
(8.00411e-20 -4.60111 -0.306449)
(1.25362e-20 -4.3289 -0.313901)
(-8.11385e-22 -3.97052 -0.331304)
(-5.42408e-22 -3.56544 -0.336103)
(-1.08548e-22 -3.00686 -0.356447)
(1.10252e-22 -2.4929 -0.347468)
(-4.99594e-22 -1.59992 -0.363575)
(4.82256e-21 -1.31804 -0.361879)
(-9.22319e-20 0.970744 -0.318744)
(1.05242e-18 0.80535 -0.105271)
(-4.99453e-18 1.19435 -0.475498)
(1.51112e-17 1.95748 0.0843676)
(-2.19172e-17 -4.3018 -0.332094)
(-1.17497e-28 0.719563 1.04388)
(-3.85176e-27 0.814101 1.0398)
(-1.31905e-26 0.86286 1.04592)
(-2.37543e-26 0.916076 1.0517)
(6.95848e-27 0.963485 1.06157)
(2.1809e-25 1.00845 1.07309)
(8.52039e-25 1.05029 1.08702)
(1.8452e-24 1.09003 1.10294)
(1.13221e-24 1.12763 1.12084)
(-9.3062e-24 1.16371 1.14069)
(-4.78548e-23 1.19839 1.1624)
(-1.34956e-22 1.23204 1.18593)
(-2.28788e-22 1.26482 1.21119)
(3.39085e-25 1.29689 1.23812)
(1.74476e-21 1.32832 1.26674)
(8.04839e-21 1.35923 1.29722)
(2.37565e-20 1.3899 1.32988)
(4.63454e-20 1.42091 1.36517)
(2.20389e-20 1.45304 1.40339)
(-2.79451e-19 1.48699 1.44464)
(-1.46959e-18 1.52333 1.48887)
(-4.48362e-18 1.56249 1.53582)
(-8.95559e-18 1.60462 1.58524)
(-7.16501e-18 1.64921 1.63805)
(2.99877e-17 1.69438 1.69908)
(1.7477e-16 1.73584 1.78127)
(5.60577e-16 1.76658 1.90849)
(1.37043e-15 1.77823 2.11154)
(2.7734e-15 1.76446 2.4145)
(4.82427e-15 1.72467 2.81753)
(7.38945e-15 1.66517 3.28991)
(1.01609e-14 1.59708 3.77987)
(1.27556e-14 1.53292 4.23354)
(1.48367e-14 1.48402 4.61029)
(1.61903e-14 1.45866 4.88915)
(1.67357e-14 1.46052 5.06788)
(1.64932e-14 1.48819 5.15725)
(1.55452e-14 1.5365 5.17337)
(1.40127e-14 1.59881 5.13149)
(1.20458e-14 1.66856 5.04314)
(9.81602e-15 1.73989 4.9161)
(7.50088e-15 1.80726 4.75559)
(5.25868e-15 1.86463 4.56527)
(3.19975e-15 1.90417 4.34754)
(1.35834e-15 1.91611 4.10383)
(-3.70917e-16 1.89727 3.8415)
(-2.41065e-15 1.86229 3.58834)
(-5.24713e-15 1.7279 3.34668)
(-6.00234e-15 0.914657 2.75109)
(4.66227e-15 -0.795862 1.2587)
(1.19655e-14 -1.78735 0.941056)
(1.35634e-14 -2.17368 1.09672)
(1.29296e-14 -2.53277 1.0549)
(1.19696e-14 -2.95826 0.886998)
(1.07006e-14 -3.39368 0.715409)
(9.18208e-15 -3.81744 0.556453)
(7.537e-15 -4.21943 0.400369)
(5.80753e-15 -4.58079 0.248028)
(4.00534e-15 -4.86807 0.0983786)
(2.26757e-15 -5.0392 -0.0347977)
(8.69358e-16 -5.0922 -0.13098)
(1.77299e-16 -5.09875 -0.185955)
(-2.85993e-18 -5.08486 -0.223862)
(-1.102e-17 -5.04137 -0.243278)
(-2.3102e-18 -4.95686 -0.262392)
(3.06609e-22 -4.81258 -0.274741)
(8.35603e-20 -4.59863 -0.292212)
(1.32726e-20 -4.32602 -0.304107)
(-8.40225e-22 -3.96786 -0.326034)