/*--------------------------------*- C++ -*----------------------------------*\
| =========                 |                                                 |
| \\      /  F ield         | OpenFOAM: The Open Source CFD Toolbox           |
|  \\    /   O peration     | Version:  4.1                                   |
|   \\  /    A nd           | Web:      www.OpenFOAM.org                      |
|    \\/     M anipulation  |                                                 |
\*---------------------------------------------------------------------------*/
FoamFile
{
    version     2.0;
    format      ascii;
    class       surfaceScalarField;
    location    "22";
    object      phi;
}
// * * * * * * * * * * * * * * * * * * * * * * * * * * * * * * * * * * * * * //

dimensions      [0 3 -1 0 0 0 0];

internalField   nonuniform List<scalar> 
13220
(
-2.14948e+59
1.84615e+59
-2.53241e+59
2.2973e+58
-3.16453e+59
5.09971e+58
-4.02675e+59
7.44298e+58
-4.87537e+59
7.42511e+58
-5.65935e+59
6.89087e+58
-6.3544e+59
6.04987e+58
-6.92194e+59
4.84918e+58
-7.32106e+59
3.20723e+58
-7.50509e+59
7.953e+57
-7.32561e+59
-2.49023e+58
-6.79535e+59
-7.2126e+58
-5.48503e+59
-1.54016e+59
-2.6886e+59
-3.15278e+59
-2.68782e+59
-1.83471e+59
3.40673e+59
-3.46871e+59
1.67383e+59
-5.17261e+59
2.03555e+59
-6.8536e+59
2.24554e+59
-8.41944e+59
2.15801e+59
-9.76018e+59
1.87848e+59
-1.0706e+60
1.42993e+59
-1.10769e+60
7.55422e+58
-1.07506e+60
-8.08735e+57
-9.67223e+59
-1.0355e+59
-7.8774e+59
-2.09269e+59
-5.15597e+59
-3.39367e+59
-1.6125e+59
-5.04759e+59
2.19556e+59
-6.92535e+59
-5.14445e+58
-2.87541e+59
6.21825e+59
-6.15162e+59
4.88796e+59
-8.70371e+59
4.55275e+59
-1.03011e+60
3.76513e+59
-1.12405e+60
2.9953e+59
-1.15695e+60
2.10783e+59
-1.13396e+60
1.10919e+59
-1.05294e+60
-1.84294e+58
-9.14191e+59
-1.59392e+59
-7.37749e+59
-3.08744e+59
-4.9392e+59
-4.72263e+59
-2.4142e+59
-6.55537e+59
1.39708e+58
-8.35191e+59
1.28447e+59
-9.40724e+59
7.81164e+58
-2.39719e+59
8.85288e+59
-4.65043e+59
7.29965e+59
-6.41363e+59
6.48813e+59
-7.81801e+59
5.281e+59
-8.91229e+59
4.253e+59
-9.78969e+59
3.05281e+59
-1.02825e+60
1.69761e+59
-1.04235e+60
-1.08736e+57
-1.02851e+60
-1.68897e+59
-9.59857e+59
-3.6402e+59
-8.44944e+59
-5.87114e+59
-5.84192e+59
-8.62768e+59
-2.60513e+59
-1.10334e+60
1.1097e+58
-1.14022e+60
9.03259e+58
-3.51562e+58
9.97952e+59
-1.1373e+59
8.73567e+59
-1.74683e+59
7.76311e+59
-2.60411e+59
6.75702e+59
-3.72237e+59
6.04898e+59
-5.19232e+59
5.1569e+59
-6.78499e+59
3.9481e+59
-8.13369e+59
1.95271e+59
-9.19997e+59
-4.70457e+57
-9.73735e+59
-2.5758e+59
-9.22105e+59
-5.69864e+59
-8.06803e+59
-9.66749e+59
-4.74183e+59
-1.38659e+60
-3.6456e+58
-1.50008e+60
5.82389e+58
-1.26566e+59
1.26155e+60
-2.16755e+59
1.08948e+60
-2.63191e+59
9.53031e+59
-3.38391e+59
8.72526e+59
-4.59092e+59
8.60336e+59
-6.96649e+59
8.74543e+59
-1.08292e+60
9.10792e+59
-1.7458e+60
9.59153e+59
-2.21053e+60
5.59252e+59
-2.44465e+60
6.98644e+58
-2.53685e+60
-4.16425e+59
-2.40008e+60
-9.69224e+59
-2.05098e+60
-1.58751e+60
-1.19688e+60
-2.09387e+60
-1.1358e+60
6.43969e+59
8.10942e+59
9.23277e+59
9.68902e+59
1.30332e+60
7.6904e+59
1.71606e+60
6.7997e+59
2.14586e+60
7.13886e+59
2.47865e+60
8.60057e+59
2.61878e+60
1.1497e+60
2.34381e+60
1.56354e+60
1.63824e+60
1.50656e+60
6.83137e+59
1.20197e+60
-1.52796e+59
5.28015e+59
-8.08096e+59
-2.13362e+59
-1.26681e+60
-1.02983e+60
-1.03245e+60
-2.19807e+60
-2.16739e+60
5.11962e+59
4.7656e+59
6.65644e+59
9.62245e+59
8.01806e+59
8.22443e+59
9.19149e+59
7.33599e+59
1.15078e+60
6.99393e+59
1.52223e+60
7.05943e+59
2.08718e+60
8.23558e+59
2.81706e+60
1.06979e+60
3.34535e+60
1.27653e+60
3.29676e+60
1.48799e+60
2.63286e+60
1.34851e+60
1.33461e+60
1.1598e+60
-1.69253e+59
5.28909e+59
-7.26438e+59
-1.58861e+60
-2.89168e+60
1.93375e+59
4.49475e+59
2.87583e+59
1.01982e+60
3.73403e+59
9.24896e+59
4.31941e+59
8.84779e+59
4.69445e+59
9.06618e+59
4.98899e+59
8.90235e+59
6.26385e+59
8.8971e+59
8.18285e+59
1.05315e+60
1.03468e+60
1.2157e+60
1.67088e+60
1.07824e+60
2.03611e+60
1.14587e+60
2.00597e+60
1.66932e+60
5.28633e+59
2.26396e+60
-7.11792e+59
-1.9637e+59
-3.60406e+60
6.94404e+58
5.04567e+59
3.2624e+59
8.90052e+59
7.55404e+59
6.71599e+59
1.14267e+60
6.33665e+59
1.50735e+60
6.79336e+59
1.72203e+60
7.79062e+59
1.86626e+60
8.46757e+59
2.10301e+60
9.04759e+59
2.11488e+60
1.26217e+60
1.84413e+60
1.34627e+60
1.83904e+60
1.22949e+60
1.93638e+60
1.30201e+60
1.3301e+60
2.71219e+60
-8.33652e+59
1.91083e+60
-4.43711e+60
2.37039e+58
5.62669e+59
-1.18238e+59
1.0434e+60
-4.41778e+59
1.03199e+60
-1.16582e+60
1.3368e+60
-2.06785e+60
1.59335e+60
-3.1421e+60
1.81528e+60
-4.17157e+60
1.86933e+60
-5.11448e+60
1.80116e+60
-5.82331e+60
1.93237e+60
-6.39555e+60
1.93199e+60
-6.92997e+60
1.57501e+60
-6.02173e+60
9.0752e+59
-2.1058e+60
-8.51691e+59
2.35748e+57
-6.2115e+58
-4.43957e+60
-1.28343e+60
1.83499e+60
-2.71324e+60
2.37677e+60
-4.03449e+60
2.36194e+60
-5.04035e+60
2.2186e+60
-5.31672e+60
1.82636e+60
-5.06067e+60
1.40854e+60
-4.28659e+60
9.9758e+59
-3.3081e+60
6.67729e+59
-1.88103e+60
3.69792e+59
-3.92993e+59
1.58773e+59
1.41484e+60
-3.4655e+59
1.99518e+60
-9.29948e+59
1.49223e+60
-1.56049e+60
1.74519e+60
-1.06228e+60
-2.68572e+60
-3.94675e+60
5.44535e+60
-4.00157e+60
1.9117e+60
-1.47172e+60
-7.2881e+59
3.25013e+60
-3.07426e+60
8.21051e+60
-3.37829e+60
1.28011e+61
-3.41839e+60
1.69923e+61
-3.27479e+60
2.04612e+61
-2.91685e+60
2.31196e+61
-2.32611e+60
2.47779e+61
-1.4868e+60
2.46965e+61
-3.38303e+59
2.28434e+61
1.20792e+60
1.83746e+61
3.1378e+60
1.15896e+61
5.99732e+60
8.88697e+60
1.556e+61
-1.04653e+61
2.94929e+61
-1.22972e+61
3.79601e+61
-9.35875e+60
4.31137e+61
-8.41657e+60
4.70388e+61
-7.45546e+60
5.00861e+61
-6.63361e+60
5.21139e+61
-5.45782e+60
5.33559e+61
-4.3253e+60
5.34852e+61
-2.59693e+60
5.26028e+61
-8.53458e+59
5.04915e+61
1.67315e+60
4.62624e+61
4.88996e+60
3.89761e+61
9.83704e+60
2.44371e+61
1.98205e+61
3.33137e+61
-6.03295e+61
-8.43455e+61
-1.02073e+62
-1.12028e+62
-1.21309e+62
-1.25906e+62
-1.29791e+62
-1.30368e+62
-1.28048e+62
-1.2456e+62
-1.15428e+62
-1.05023e+62
-8.6927e+61
-6.1056e+61
-3.2681e+58
2.66855e+61
-2.67259e+61
2.66752e+61
2.66621e+61
2.66532e+61
1.04363e+62
-7.77323e+61
1.04319e+62
1.04269e+62
1.04255e+62
1.73538e+62
-6.93058e+61
1.7351e+62
1.73488e+62
2.65837e+62
-9.23515e+61
2.65821e+62
2.65815e+62
2.65801e+62
3.7007e+62
-1.0427e+62
3.70059e+62
3.7006e+62
4.69802e+62
-9.97524e+61
4.69801e+62
4.6979e+62
4.69791e+62
5.61528e+62
-9.17469e+61
5.61526e+62
5.61516e+62
5.61517e+62
6.43641e+62
-8.21328e+61
6.43638e+62
6.4363e+62
7.13758e+62
-7.01286e+61
7.13748e+62
7.13747e+62
7.13736e+62
7.75095e+62
-6.13587e+61
7.75084e+62
7.75085e+62
8.25737e+62
-5.06627e+61
8.25737e+62
8.25725e+62
8.25728e+62
8.69292e+62
-4.35766e+61
8.69295e+62
8.69281e+62
8.69287e+62
9.06331e+62
-3.70587e+61
9.06333e+62
9.06317e+62
9.35424e+62
-2.91001e+61
9.35406e+62
9.3541e+62
9.35392e+62
9.60018e+62
-2.46179e+61
9.59995e+62
9.60002e+62
9.59976e+62
9.80578e+62
-2.05949e+61
9.80552e+62
9.80563e+62
9.95683e+62
-1.51486e+61
9.95685e+62
9.95654e+62
9.95664e+62
1.00877e+63
-1.31391e+61
1.00876e+63
1.00873e+63
1.01795e+63
-9.21121e+60
1.0179e+63
1.01791e+63
1.01787e+63
1.02648e+63
-8.60256e+60
1.02643e+63
1.02645e+63
1.02639e+63
1.03462e+63
-8.20343e+60
1.03456e+63
1.03463e+63
1.04271e+63
-8.12717e+60
1.04279e+63
1.04277e+63
1.03931e+63
1.0302e+63
1.02328e+63
1.00515e+63
1.2667e+61
1.00147e+63
9.99533e+62
9.98125e+62
9.96842e+62
9.95745e+62
9.94836e+62
9.9409e+62
9.92867e+62
9.77708e+62
1.37787e+61
9.75555e+62
9.73834e+62
9.72457e+62
9.71143e+62
9.70016e+62
9.6903e+62
9.68251e+62
9.6732e+62
9.47989e+62
1.81312e+61
9.46086e+62
9.44519e+62
9.43228e+62
9.42115e+62
9.41117e+62
9.40238e+62
9.39468e+62
9.38877e+62
9.38158e+62
9.15048e+62
2.21875e+61
9.13561e+62
9.12394e+62
9.11474e+62
9.10735e+62
9.10105e+62
9.09592e+62
9.09212e+62
9.08736e+62
8.81761e+62
2.63063e+61
8.80582e+62
8.79709e+62
8.79129e+62
8.78695e+62
8.78425e+62
8.7825e+62
8.78239e+62
8.78169e+62
8.47837e+62
3.00531e+61
8.47024e+62
8.46499e+62
8.46237e+62
8.46219e+62
8.46427e+62
8.46749e+62
8.47248e+62
8.4763e+62
8.14478e+62
3.33742e+61
8.14205e+62
8.14301e+62
8.14664e+62
8.15216e+62
8.15951e+62
8.17229e+62
8.18795e+62
8.20587e+62
8.22286e+62
7.88738e+62
3.49666e+61
7.89603e+62
7.91104e+62
7.93092e+62
7.95433e+62
7.98296e+62
8.0293e+62
8.11798e+62
8.21405e+62
8.02385e+62
2.84281e+61
8.10948e+62
8.21708e+62
8.21683e+62
7.99152e+62
2.25735e+61
7.71481e+62
2.76078e+61
7.71485e+62
7.47242e+62
2.41776e+61
7.47238e+62
7.26394e+62
2.07817e+61
7.01111e+62
2.52734e+61
7.01058e+62
6.79442e+62
2.15845e+61
6.53388e+62
2.60019e+61
6.53366e+62
6.30701e+62
2.2622e+61
6.30678e+62
6.22459e+62
8.17648e+60
6.17359e+62
5.07776e+60
6.17327e+62
6.1462e+62
2.68305e+60
6.14593e+62
6.12124e+62
2.43784e+60
6.01487e+62
1.06138e+61
6.01467e+62
5.9644e+62
5.00295e+60
5.92256e+62
4.16364e+60
5.9224e+62
6.1042e+62
-1.81992e+61
6.10406e+62
6.59896e+62
-4.95102e+61
7.7143e+62
-1.11542e+62
7.71415e+62
9.50426e+62
-1.79014e+62
9.50413e+62
1.08664e+63
-1.36227e+62
1.18432e+63
-9.77019e+61
1.18433e+63
1.24059e+63
-5.62799e+61
1.2707e+63
-3.00965e+61
1.27069e+63
1.26381e+63
6.8814e+60
1.26381e+63
1.2123e+63
5.15207e+61
1.13022e+63
8.20621e+61
1.13023e+63
9.95282e+62
1.34936e+62
9.95293e+62
8.07069e+62
1.88215e+62
5.82525e+62
2.24551e+62
5.82523e+62
2.89527e+62
2.93008e+62
-3.32558e+61
3.22797e+62
-3.32074e+61
-4.23042e+62
3.8982e+62
-4.23025e+62
-9.19312e+62
4.96281e+62
-1.5096e+63
5.90302e+62
-1.5096e+63
-2.1839e+63
6.74316e+62
-2.1839e+63
-2.95864e+63
7.74747e+62
-3.76681e+63
8.08165e+62
-3.7668e+63
-4.6776e+63
9.10804e+62
-5.58724e+63
9.09647e+62
-5.58723e+63
-6.57431e+63
9.87081e+62
-6.5743e+63
-7.64866e+63
1.07436e+63
-8.67068e+63
1.02202e+63
-8.67067e+63
-9.77573e+63
1.10506e+63
-9.77573e+63
-1.09763e+64
1.20054e+63
-1.20794e+64
1.10312e+63
-1.20794e+64
-1.33272e+64
1.24779e+63
-1.44435e+64
1.11635e+63
-1.44435e+64
-1.56821e+64
1.23865e+63
-1.56821e+64
1.52787e+63
-1.05956e+61
-1.1412e+61
-1.06482e+61
-9.50847e+60
-6.9015e+60
8.83904e+60
-7.04931e+60
6.59912e+61
-1.13695e+61
5.48746e+61
-1.10232e+61
1.49971e+61
3.77996e+60
1.62465e+62
-7.89932e+60
4.342e+59
-7.02285e+60
1.14868e+62
-5.92178e+60
8.22644e+61
-2.57007e+60
5.59349e+61
3.63249e+60
2.90639e+60
3.96712e+60
3.18624e+61
-3.85274e+60
5.02381e+61
-7.74296e+60
1.47958e+62
-5.76608e+60
-3.19364e+60
-4.4813e+60
2.26859e+61
-2.4788e+60
2.90558e+61
1.25747e+60
6.49394e+61
-2.25442e+59
-1.24935e+62
-3.06655e+59
-2.37952e+61
1.95646e+60
3.82468e+61
-1.95192e+60
-8.88306e+61
-4.55461e+60
-6.40273e+61
-2.96611e+60
-2.94408e+61
-1.38667e+60
6.82823e+59
-1.38321e+60
9.68853e+59
-5.87059e+59
2.83788e+60
2.61582e+59
1.58577e+61
-2.777e+59
1.86391e+61
-6.35063e+59
-1.13841e+61
7.8271e+59
-2.1455e+61
-1.63801e+60
-4.92211e+61
-1.09067e+60
1.87572e+61
-4.27343e+60
-4.01813e+61
-3.4529e+60
-5.7067e+60
-2.67719e+60
1.79649e+61
2.44027e+59
6.97586e+61
-2.22759e+60
2.41723e+61
-1.45595e+60
2.8413e+61
-4.69255e+60
1.80248e+61
-5.82773e+60
1.54109e+61
-1.97115e+60
2.44624e+61
1.53785e+60
4.82981e+61
7.28491e+58
1.01379e+61
2.14962e+60
-4.43828e+60
-2.87967e+59
-3.43023e+61
-1.30485e+59
-5.48114e+61
6.7519e+59
1.09156e+61
2.29443e+60
2.19297e+61
1.04049e+60
4.19482e+61
1.01341e+60
3.88622e+61
6.14039e+59
3.75273e+61
4.91557e+59
3.71566e+61
3.72696e+59
3.73956e+61
3.05767e+59
3.75844e+61
2.12448e+59
3.52419e+61
1.03415e+59
3.31764e+61
1.15029e+59
3.60632e+61
1.19838e+59
3.90289e+61
1.31372e+59
4.22312e+61
1.52955e+59
4.58639e+61
1.89389e+59
5.02223e+61
2.46221e+59
5.56789e+61
3.26787e+59
6.28568e+61
4.34137e+59
7.23811e+61
5.68329e+59
8.50806e+61
7.26348e+59
1.0175e+62
8.85246e+59
1.23215e+62
9.92816e+59
1.5014e+62
8.15945e+59
1.81622e+62
-1.11981e+59
2.15732e+62
-3.75825e+60
2.27593e+62
-1.60083e+61
1.74187e+62
-5.133e+61
2.83614e+62
-1.55573e+62
1.01293e+63
-4.34447e+62
3.07485e+63
-9.83887e+62
7.4618e+63
1.43889e+64
-9.4555e+60
-1.43411e+61
-8.92168e+60
-1.00423e+61
3.0422e+58
-1.13059e+59
1.14129e+60
6.48803e+61
-1.36941e+61
6.97099e+61
-1.00049e+61
1.13079e+61
1.01519e+61
1.42308e+62
-4.19521e+60
1.47812e+61
-1.07683e+61
1.21441e+62
-7.73773e+60
7.92339e+61
2.60329e+59
4.79368e+61
-6.84967e+60
1.00163e+61
-5.7151e+60
3.07278e+61
-1.14321e+61
5.59551e+61
-4.04355e+60
1.40569e+62
-1.09749e+61
3.73761e+60
-8.06154e+60
1.97724e+61
-7.53801e+60
2.85322e+61
-5.03664e+59
5.79049e+61
2.13643e+60
-1.27575e+62
1.20908e+60
-2.2868e+61
5.53329e+60
3.39225e+61
-1.00656e+60
-8.22907e+61
-3.81621e+60
-6.12177e+61
-3.05662e+60
-3.02004e+61
-1.48734e+60
-8.86506e+59
-2.81315e+60
2.29437e+60
-3.15706e+60
3.18165e+60
-2.31203e+60
1.50126e+61
-8.61022e+59
1.71881e+61
-8.40041e+59
-1.14052e+61
4.5066e+60
-2.68017e+61
-2.08131e+60
-4.26331e+61
7.00426e+59
1.59756e+61
-4.24291e+60
-3.52379e+61
-3.23532e+60
-6.71427e+60
-2.40743e+60
1.7137e+61
2.64286e+60
6.47085e+61
-2.43446e+60
2.92502e+61
-3.36765e+60
2.93464e+61
-5.43536e+60
2.00927e+61
-5.12913e+60
1.51047e+61
-4.47319e+60
2.38065e+61
-1.05095e+60
4.48762e+61
9.66557e+59
8.12114e+60
7.08033e+60
-1.05508e+61
1.25614e+61
-3.97827e+61
3.00462e+60
-4.52513e+61
2.54394e+60
1.1377e+61
6.26328e+60
1.82116e+61
1.69687e+60
4.65125e+61
1.85058e+60
3.87067e+61
3.33385e+59
3.90424e+61
-5.62678e+59
3.80516e+61
-8.84344e+59
3.77151e+61
-8.74894e+59
3.7574e+61
-7.06168e+59
3.5071e+61
-4.57372e+59
3.29264e+61
-1.61358e+59
3.57658e+61
6.90348e+58
3.87983e+61
2.15102e+59
4.20847e+61
2.97835e+59
4.57815e+61
3.56373e+59
5.01628e+61
4.32783e+59
5.56023e+61
5.52828e+59
6.27355e+61
7.2808e+59
7.22056e+61
9.58618e+59
8.4849e+61
1.23598e+60
1.01473e+62
1.53266e+60
1.22916e+62
1.75287e+60
1.49919e+62
1.63385e+60
1.81739e+62
3.35623e+59
2.17029e+62
-4.38464e+60
2.32309e+62
-1.70121e+61
1.8681e+62
-4.92397e+61
3.15839e+62
-1.50388e+62
1.11408e+63
-4.4523e+62
3.3697e+63
-1.00521e+63
8.02179e+63
1.46223e+64
-1.16121e+61
-1.64175e+61
-9.80433e+60
-1.18501e+61
-3.09037e+60
-6.82701e+60
2.0832e+60
5.97068e+61
-9.02466e+60
8.08178e+61
-8.66929e+60
1.09526e+61
8.41396e+60
1.25225e+62
-3.25773e+60
2.64529e+61
-1.13071e+61
1.29491e+62
-7.36761e+60
7.52944e+61
7.9876e+59
3.97705e+61
-8.4122e+60
1.92273e+61
-6.57536e+60
2.8891e+61
-1.12062e+61
6.05859e+61
-4.14753e+60
1.33511e+62
-9.9378e+60
9.52788e+60
-7.48665e+60
1.73213e+61
-7.91572e+60
2.89613e+61
-1.61797e+60
5.16072e+61
2.61448e+60
-1.31808e+62
1.17104e+60
-2.14245e+61
5.6792e+60
2.94143e+61
2.53773e+59
-7.68652e+61
-2.2292e+60
-5.87346e+61
-2.35272e+60
-3.00768e+61
-1.55628e+60
-1.68267e+60
-2.88585e+60
3.62402e+60
-3.44017e+60
3.73599e+60
-2.72925e+60
1.43017e+61
-1.2089e+60
1.56677e+61
-7.35343e+59
-1.18787e+61
4.66783e+60
-3.22048e+61
-1.18186e+60
-3.67831e+61
4.03381e+58
1.47537e+61
-3.16734e+60
-3.20302e+61
-2.89889e+60
-6.98275e+60
-2.1739e+60
1.6412e+61
1.6849e+60
6.08499e+61
-2.62964e+60
3.3565e+61
-3.22407e+60
2.9941e+61
-5.20584e+60
2.20745e+61
-5.29639e+60
1.51959e+61
-4.2472e+60
2.27574e+61
-1.14411e+60
4.17733e+61
7.49054e+59
6.22855e+60
7.4094e+60
-1.72105e+61
9.06435e+60
-4.14356e+61
2.64488e+60
-3.8829e+61
5.24893e+60
8.77387e+60
7.29455e+60
1.61729e+61
2.4852e+60
5.13223e+61
2.44815e+60
3.8745e+61
8.00644e+59
4.06911e+61
-3.74914e+59
3.923e+61
-8.6517e+59
3.82077e+61
-9.4714e+59
3.76601e+61
-8.36825e+59
3.49647e+61
-5.8549e+59
3.26811e+61
-2.47158e+59
3.54332e+61
2.60488e+58
3.85318e+61
2.12257e+59
4.19047e+61
3.29743e+59
4.5671e+61
4.1916e+59
5.00792e+61
5.26545e+59
5.55017e+61
6.81977e+59
6.25856e+61
9.00908e+59
7.19932e+61
1.18566e+60
8.45695e+61
1.52814e+60
1.01137e+62
1.89696e+60
1.22552e+62
2.18595e+60
1.49636e+62
2.08644e+60
1.81843e+62
7.32828e+59
2.18389e+62
-4.06816e+60
2.37115e+62
-1.59173e+61
1.98668e+62
-4.49991e+61
3.44929e+62
-1.53555e+62
1.22264e+63
-4.79683e+62
3.69583e+63
-1.03263e+63
8.57473e+63
1.47061e+64
-1.28053e+61
-1.78455e+61
-1.12335e+61
-1.34219e+61
-8.45859e+60
-9.60191e+60
-2.80178e+59
5.15283e+61
-5.21317e+60
8.57507e+61
-7.54354e+60
1.32829e+61
6.95479e+60
1.10727e+62
-2.98447e+60
3.63922e+61
-1.26888e+61
1.39195e+62
-6.85158e+60
6.94572e+61
2.23244e+60
3.06864e+61
-1.04149e+61
3.18746e+61
-7.70956e+60
2.61856e+61
-1.11525e+61
6.40288e+61
-3.98198e+60
1.2634e+62
-8.87305e+60
1.44189e+61
-7.04048e+60
1.54887e+61
-7.93043e+60
2.98512e+61
-2.01675e+60
4.56935e+61
2.75109e+60
-1.36576e+62
9.31361e+59
-1.96048e+61
5.57051e+60
2.47751e+61
1.39271e+60
-7.26874e+61
-1.01429e+60
-5.63277e+61
-1.86929e+60
-2.92218e+61
-1.70615e+60
-1.84577e+60
-3.24544e+60
5.1632e+60
-3.64836e+60
4.1389e+60
-2.79112e+60
1.34444e+61
-1.20643e+60
1.4083e+61
3.87829e+59
-1.34729e+61
6.53714e+60
-3.83538e+61
2.83065e+59
-3.05289e+61
7.82542e+59
1.42547e+61
-2.78474e+60
-2.84629e+61
-2.80602e+60
-6.96145e+60
-2.02453e+60
1.56305e+61
9.3081e+59
5.78948e+61
-2.80849e+60
3.7305e+61
-3.17921e+60
3.0312e+61
-4.80769e+60
2.37032e+61
-5.21247e+60
1.56008e+61
-3.97654e+60
2.15218e+61
-1.09489e+60
3.88922e+61
9.20992e+59
4.21384e+60
7.79366e+60
-2.40809e+61
8.59353e+60
-4.22342e+61
2.44049e+60
-3.26725e+61
4.89534e+60
6.32021e+60
6.87602e+60
1.41962e+61
2.93909e+60
5.52626e+61
2.5796e+60
3.91058e+61
9.63668e+59
4.23088e+61
-2.8802e+59
4.04851e+61
-8.30928e+59
3.87541e+61
-9.36563e+59
3.77714e+61
-8.4741e+59
3.48813e+61
-5.99014e+59
3.24408e+61
-2.44929e+59
3.50875e+61
4.28456e+58
3.82538e+61
2.41931e+59
4.17153e+61
3.72537e+59
4.55508e+61
4.78321e+59
4.99826e+61
6.0807e+59
5.53818e+61
7.93983e+59
6.24084e+61
1.05299e+60
7.17436e+61
1.38849e+60
8.42424e+61
1.79277e+60
1.00741e+62
2.23295e+60
1.22119e+62
2.59925e+60
1.49278e+62
2.56153e+60
1.81887e+62
1.29652e+60
2.19663e+62
-3.24053e+60
2.41659e+62
-1.39419e+61
2.0938e+62
-4.10516e+61
3.72046e+62
-1.64589e+62
1.34618e+63
-5.29369e+62
4.06061e+63
-1.08871e+63
9.13407e+63
1.48652e+64
-1.35574e+61
-1.88953e+61
-1.2497e+61
-1.44823e+61
-1.21352e+61
-9.96365e+60
-3.08573e+60
4.24788e+61
-8.08378e+59
8.34734e+61
-6.58052e+60
1.90551e+61
5.95789e+60
9.81883e+61
-4.81621e+60
4.71663e+61
-1.39635e+61
1.48342e+62
-7.00665e+60
6.25003e+61
-8.72436e+59
2.45522e+61
-7.32257e+60
3.83247e+61
-8.68112e+60
2.75442e+61
-1.15375e+61
6.68852e+61
-4.27069e+60
1.19073e+62
-7.68637e+60
1.78346e+61
-6.73698e+60
1.45393e+61
-8.01129e+60
3.11255e+61
-1.96937e+60
3.96516e+61
2.75782e+60
-1.41303e+62
8.13824e+59
-1.76608e+61
5.66558e+60
1.99234e+61
2.29643e+60
-6.93182e+61
-2.54243e+59
-5.37769e+61
-1.67376e+60
-2.78022e+61
-1.80194e+60
-1.71734e+60
-3.44094e+60
6.80243e+60
-3.94951e+60
4.64755e+60
-3.08056e+60
1.25755e+61
-1.52397e+60
1.25265e+61
8.96699e+59
-1.58935e+61
4.94433e+60
-4.24012e+61
-3.28343e+59
-2.5256e+61
4.52636e+59
1.34741e+61
-2.8239e+60
-2.51863e+61
-2.84713e+60
-6.93824e+60
-1.88933e+60
1.46727e+61
3.89859e+59
5.56158e+61
-2.96678e+60
4.06618e+61
-3.37323e+60
3.07185e+61
-4.60939e+60
2.49395e+61
-5.06935e+60
1.60612e+61
-3.73166e+60
2.01842e+61
-1.12169e+60
3.62824e+61
1.17808e+60
1.91464e+60
8.21769e+60
-3.11197e+61
8.57732e+60
-4.25917e+61
2.5702e+60
-2.6664e+61
4.55531e+60
4.33611e+60
4.28346e+60
1.44753e+61
2.585e+60
5.69626e+61
2.5114e+60
3.91815e+61
9.81855e+59
4.38402e+61
-2.90874e+59
4.17614e+61
-8.59108e+59
3.9326e+61
-9.64416e+59
3.78823e+61
-8.73297e+59
3.47959e+61
-6.11434e+59
3.21869e+61
-2.3257e+59
3.47165e+61
7.29795e+58
3.79572e+61
2.83421e+59
4.15132e+61
4.23099e+59
4.54202e+61
5.40999e+59
4.98726e+61
6.90068e+59
5.52415e+61
9.05041e+59
6.22011e+61
1.20405e+60
7.14531e+61
1.59136e+60
8.38624e+61
2.05999e+60
1.00281e+62
2.57767e+60
1.21608e+62
3.03749e+60
1.48826e+62
3.11007e+60
1.81821e+62
2.04598e+60
2.20735e+62
-2.00804e+60
2.45721e+62
-1.13882e+61
2.18773e+62
-3.84136e+61
3.99081e+62
-1.85831e+62
1.4936e+63
-5.94797e+62
4.46958e+63
-1.14404e+63
9.68332e+63
1.48242e+64
-1.39096e+61
-1.99294e+61
-1.30275e+61
-1.53643e+61
-1.38997e+61
-9.09146e+60
-7.66345e+60
3.62425e+61
-1.04525e+60
7.68552e+61
-6.2354e+60
2.42452e+61
4.946e+60
8.70069e+61
-1.11541e+61
6.32665e+61
-1.19152e+61
1.49103e+62
-6.84131e+60
5.74265e+61
-4.57659e+60
2.22875e+61
-6.83987e+60
4.0588e+61
-9.49114e+60
3.01954e+61
-1.19133e+61
6.93074e+61
-4.70804e+60
1.11868e+62
-6.58088e+60
1.97074e+61
-6.57846e+60
1.45369e+61
-8.05629e+60
3.26034e+61
-1.59535e+60
3.31906e+61
2.55822e+60
-1.45456e+62
8.65429e+59
-1.5968e+61
5.76939e+60
1.50194e+61
2.80558e+60
-6.63544e+61
3.03613e+59
-5.1275e+61
-1.47235e+60
-2.60263e+61
-2.0985e+60
-1.09115e+60
-3.2892e+60
7.99313e+60
-4.29733e+60
5.65571e+60
-3.605e+60
1.18832e+61
-2.02752e+60
1.0949e+61
5.60607e+58
-1.7977e+61
5.52762e+59
-4.28977e+61
-1.35649e+60
-2.33465e+61
-3.57416e+57
1.21215e+61
-2.90422e+60
-2.22856e+61
-2.98598e+60
-6.85647e+60
-1.9032e+60
1.359e+61
-8.57127e+58
5.37985e+61
-3.10476e+60
4.36817e+61
-3.63327e+60
3.12474e+61
-4.68206e+60
2.59884e+61
-5.01404e+60
1.63934e+61
-3.56392e+60
1.87345e+61
-1.22396e+60
3.3943e+61
1.43565e+60
-7.43719e+59
8.65931e+60
-3.83406e+61
8.73347e+60
-4.26646e+61
2.71436e+60
-2.06424e+61
4.0903e+60
2.96091e+60
3.22011e+60
1.5349e+61
2.61305e+60
5.75723e+61
2.50033e+60
3.92967e+61
9.14338e+59
4.5429e+61
-3.34967e+59
4.30151e+61
-9.11504e+59
3.99074e+61
-1.00728e+60
3.79853e+61
-9.06459e+59
3.47029e+61
-6.25642e+59
3.19167e+61
-2.17966e+59
3.432e+61
1.07589e+59
3.76443e+61
3.2933e+59
4.13041e+61
4.76732e+59
4.52862e+61
6.05308e+59
4.9756e+61
7.72969e+59
5.50865e+61
1.01731e+60
6.19683e+61
1.35759e+60
7.1125e+61
1.79897e+60
8.34321e+61
2.33586e+60
9.97558e+61
2.93861e+60
1.21015e+62
3.50941e+60
1.48266e+62
3.73884e+60
1.81601e+62
2.96116e+60
2.21524e+62
-4.67955e+59
2.4916e+62
-8.3678e+60
2.26687e+62
-3.82674e+61
4.2899e+62
-2.17488e+62
1.67283e+63
-6.67713e+62
4.91981e+63
-1.20261e+63
1.02182e+64
1.48222e+64
-1.41378e+61
-2.11482e+61
-1.30412e+61
-1.64609e+61
-1.40711e+61
-8.06152e+60
-1.05969e+61
3.27683e+61
-3.75729e+60
7.00156e+61
-6.59846e+60
2.70864e+61
3.29199e+60
7.71165e+61
-1.41515e+61
8.071e+61
-9.98041e+60
1.44932e+62
-6.08497e+60
5.3531e+61
-6.4815e+60
2.26841e+61
-8.25322e+60
4.23598e+61
-1.03268e+61
3.22691e+61
-1.22549e+61
7.12354e+61
-4.7454e+60
1.04359e+62
-5.51774e+60
2.04798e+61
-6.44149e+60
1.54606e+61
-8.03266e+60
3.41946e+61
-9.22173e+59
2.60802e+61
2.18271e+60
-1.48561e+62
1.19264e+60
-1.49778e+61
5.97982e+60
1.02323e+61
2.95312e+60
-6.33276e+61
6.53407e+59
-4.89752e+61
-1.29596e+60
-2.40768e+61
-2.32507e+60
-6.18351e+58
-3.14802e+60
8.81631e+60
-4.60357e+60
7.11135e+60
-4.18071e+60
1.14604e+61
-2.42519e+60
9.19358e+60
-6.70367e+59
-1.97317e+61
-1.59082e+60
-4.19771e+61
-2.16004e+60
-2.27771e+61
-3.22388e+59
1.0284e+61
-2.90434e+60
-1.97036e+61
-3.17148e+60
-6.58935e+60
-2.11959e+60
1.25381e+61
-5.55154e+59
5.22343e+61
-3.23342e+60
4.63601e+61
-3.80641e+60
3.18204e+61
-4.85341e+60
2.70355e+61
-5.11421e+60
1.66546e+61
-3.49929e+60
1.71197e+61
-1.34072e+60
3.17846e+61
1.84407e+60
-3.92807e+60
9.14707e+60
-4.56428e+61
8.89022e+60
-4.24059e+61
2.90783e+60
-1.46597e+61
3.45869e+60
2.41077e+60
3.25245e+60
1.55597e+61
3.13237e+60
5.76929e+61
2.66802e+60
3.97625e+61
7.68027e+59
4.73304e+61
-4.16897e+59
4.42028e+61
-9.81826e+59
4.04754e+61
-1.05777e+60
3.80661e+61
-9.39659e+59
3.45897e+61
-6.35596e+59
3.16196e+61
-1.97075e+59
3.38884e+61
1.48926e+59
3.73061e+61
3.80422e+59
4.10799e+61
5.33289e+59
4.51411e+61
6.70743e+59
4.96253e+61
8.56263e+59
5.49086e+61
1.13045e+60
6.17007e+61
1.51351e+60
7.07493e+61
2.01144e+60
8.29405e+61
2.62069e+60
9.91538e+61
3.31619e+60
1.20325e+62
4.0144e+60
1.47575e+62
4.44089e+60
1.8118e+62
4.00996e+60
2.21963e+62
1.26474e+60
2.51912e+62
-4.87933e+60
2.32841e+62
-4.18438e+61
4.65962e+62
-2.59574e+62
1.89056e+63
-7.47347e+62
5.40758e+63
-1.25981e+63
1.07307e+64
1.46674e+64
-1.45137e+61
-2.24176e+61
-1.32997e+61
-1.76748e+61
-1.40948e+61
-7.26646e+60
-1.15684e+61
3.02419e+61
-5.36131e+60
6.38084e+61
-7.24411e+60
2.89692e+61
1.34693e+60
6.85255e+61
-1.49046e+61
9.69615e+61
-8.65445e+60
1.38682e+62
-6.31167e+60
5.11882e+61
-1.30241e+61
2.93965e+61
-1.48962e+61
4.4232e+61
-1.10954e+61
2.84682e+61
-1.22756e+61
7.24156e+61
-4.31988e+60
9.64029e+61
-4.46986e+60
2.06298e+61
-6.08856e+60
1.70793e+61
-7.88984e+60
3.59959e+61
-1.9059e+59
1.83809e+61
1.70015e+60
-1.50452e+62
1.82661e+60
-1.51043e+61
6.53249e+60
5.52644e+60
3.36427e+60
-6.01594e+61
8.54489e+59
-4.64654e+61
-1.34226e+60
-2.18801e+61
-2.5051e+60
1.10104e+60
-3.22628e+60
9.53755e+60
-4.88029e+60
8.7654e+60
-4.69255e+60
1.12727e+61
-2.83046e+60
7.33153e+60
-1.21937e+60
-2.13428e+61
-2.57935e+60
-4.0617e+61
-2.5823e+60
-2.2774e+61
-4.32201e+59
8.13406e+60
-2.93208e+60
-1.72037e+61
-3.38656e+60
-6.13484e+60
-2.47781e+60
1.16293e+61
-1.02006e+60
5.07769e+61
-3.34259e+60
4.86835e+61
-3.97825e+60
3.24564e+61
-5.07613e+60
2.81335e+61
-5.22172e+60
1.68005e+61
-3.47769e+60
1.53761e+61
-1.46958e+60
2.97769e+61
2.67015e+60
-8.06663e+60
9.99451e+60
-5.2964e+61
9.25407e+60
-4.16641e+61
3.37437e+60
-8.77837e+60
3.11066e+60
2.67482e+60
2.87108e+60
1.58012e+61
2.46772e+60
5.80985e+61
2.41178e+60
3.98205e+61
4.97363e+59
4.92476e+61
-5.40688e+59
4.52451e+61
-1.07212e+60
4.10117e+61
-1.11717e+60
3.81185e+61
-9.73508e+59
3.4454e+61
-6.4117e+59
3.12979e+61
-1.6928e+59
3.34282e+61
1.97803e+59
3.69522e+61
4.37431e+59
4.08534e+61
5.93104e+59
4.49992e+61
7.37191e+59
4.94935e+61
9.3962e+59
5.4719e+61
1.24407e+60
6.14079e+61
1.67143e+60
7.03344e+61
2.22843e+60
8.23949e+61
2.9141e+60
9.84802e+61
3.70962e+60
1.1954e+62
4.54969e+60
1.46746e+62
5.20511e+60
1.80534e+62
5.17255e+60
2.22007e+62
2.96561e+60
2.54129e+62
-9.33962e+59
2.36755e+62
-5.04595e+61
5.15496e+62
-3.12161e+62
2.15227e+63
-8.31446e+62
5.92687e+63
-1.30057e+63
1.11998e+64
1.43889e+64
-1.49479e+61
-2.36528e+61
-1.36825e+61
-1.89401e+61
-1.41612e+61
-6.78784e+60
-1.19144e+61
2.79952e+61
-6.4164e+60
5.83104e+61
-8.00104e+60
3.05539e+61
-1.80017e+60
6.23246e+61
-1.35779e+61
1.08739e+62
-6.91187e+60
1.32016e+62
-6.73147e+60
5.10079e+61
-1.25047e+61
3.51697e+61
-1.15604e+61
4.32878e+61
-1.14718e+61
2.83796e+61
-1.22064e+61
7.31502e+61
-3.93002e+60
8.81266e+61
-3.7569e+60
2.04567e+61
-6.09372e+60
1.94162e+61
-7.77923e+60
3.76814e+61
5.93119e+59
1.00086e+61
1.29434e+60
-1.51153e+62
2.66208e+60
-1.64719e+61
7.23972e+60
9.48901e+59
4.27152e+60
-5.71911e+61
1.10306e+60
-4.32969e+61
-1.62447e+60
-1.91524e+61
-2.79192e+60
2.26866e+60
-3.57009e+60
1.03159e+61
-5.30739e+60
1.05028e+61
-5.02526e+60
1.09906e+61
-3.11775e+60
5.42408e+60
-1.71767e+60
-2.27427e+61
-3.06968e+60
-3.9265e+61
-2.87377e+60
-2.29698e+61
-6.51282e+59
5.9116e+60
-3.04106e+60
-1.48139e+61
-3.68279e+60
-5.49313e+60
-2.94134e+60
1.08879e+61
-1.59752e+60
4.94333e+61
-3.47566e+60
5.05617e+61
-4.14035e+60
3.31211e+61
-5.45075e+60
2.94439e+61
-5.34419e+60
1.66942e+61
-3.47277e+60
1.35048e+61
-1.5964e+60
2.79006e+61
4.05994e+60
-1.37226e+61
1.08921e+61
-5.97958e+61
9.23974e+60
-4.00104e+61
3.90865e+60
-3.44766e+60
3.70561e+60
2.87844e+60
2.74909e+60
1.67604e+61
4.64904e+59
6.03832e+61
1.48531e+60
3.8801e+61
2.14244e+59
5.05194e+61
-6.95968e+59
4.61573e+61
-1.18108e+60
4.1499e+61
-1.18543e+60
3.81266e+61
-1.00804e+60
3.42804e+61
-6.42063e+59
3.09376e+61
-1.3413e+59
3.29259e+61
2.54588e+59
3.657e+61
5.00391e+59
4.06134e+61
6.55861e+59
4.485e+61
8.04159e+59
4.93505e+61
1.02249e+60
5.45068e+61
1.35764e+60
6.1078e+61
1.83084e+60
6.98672e+61
2.44936e+60
8.17814e+61
3.21528e+60
9.77203e+61
4.11747e+60
1.18642e+62
5.11155e+60
1.45758e+62
6.01941e+60
1.79631e+62
6.43093e+60
2.21602e+62
4.63382e+60
2.55932e+62
3.26441e+60
2.38132e+62
-6.56793e+61
5.84444e+62
-3.74114e+62
2.4607e+63
-9.15011e+62
6.46777e+63
-1.33848e+63
1.16233e+64
1.41248e+64
-1.54264e+61
-2.48273e+61
-1.41476e+61
-2.02188e+61
-1.43103e+61
-6.62516e+60
-1.21496e+61
2.58345e+61
-7.34578e+60
5.35066e+61
-8.90356e+60
3.21116e+61
-6.0212e+60
5.94423e+61
-1.1509e+61
1.14227e+62
-6.35778e+60
1.26865e+62
-6.87377e+60
5.15238e+61
-9.25772e+60
3.75536e+61
-7.94801e+60
4.19781e+61
-1.1719e+61
3.21507e+61
-1.24093e+61
7.38405e+61
-4.11078e+60
7.98281e+61
-3.92848e+60
2.02744e+61
-6.89382e+60
2.23815e+61
-7.60493e+60
3.83925e+61
1.59404e+60
8.097e+59
9.6839e+59
-1.50527e+62
3.87444e+60
-1.93779e+61
8.29743e+60
-3.47404e+60
5.20496e+60
-5.40986e+61
1.31642e+60
-3.94083e+61
-2.02154e+60
-1.58144e+61
-3.38797e+60
3.63514e+60
-4.38467e+60
1.13128e+61
-6.05855e+60
1.21767e+61
-5.46908e+60
1.04011e+61
-3.3396e+60
3.29465e+60
-2.03742e+60
-2.40448e+61
-3.10851e+60
-3.81937e+61
-3.05029e+60
-2.30279e+61
-8.68647e+59
3.73008e+60
-3.19753e+60
-1.24849e+61
-4.00205e+60
-4.68855e+60
-3.41771e+60
1.03036e+61
-2.39712e+60
4.8413e+61
-3.66015e+60
5.18257e+61
-4.21037e+60
3.36717e+61
-6.0214e+60
3.12551e+61
-5.53726e+60
1.62104e+61
-3.65789e+60
1.16259e+61
-1.74238e+60
2.59855e+61
6.6013e+60
-2.20649e+61
1.21734e+61
-6.53635e+61
8.85127e+60
-3.66866e+61
4.36678e+60
1.03788e+60
3.98807e+60
3.25743e+60
2.60879e+60
1.81417e+61
-3.71782e+59
6.3367e+61
5.84235e+59
3.78469e+61
-1.08222e+59
5.12145e+61
-8.85292e+59
4.69382e+61
-1.30989e+60
4.19284e+61
-1.26366e+60
3.80875e+61
-1.04457e+60
3.4069e+61
-6.39123e+59
3.05426e+61
-9.16709e+58
3.23901e+61
3.19695e+59
3.6172e+61
5.69669e+59
4.03767e+61
7.21636e+59
4.47118e+61
8.714e+59
4.92129e+61
1.10446e+60
5.42864e+61
1.47073e+60
6.07235e+61
1.99135e+60
6.9359e+61
2.67383e+60
8.11105e+61
3.52359e+60
9.68827e+61
4.53826e+60
1.17638e+62
5.696e+60
1.44612e+62
6.87309e+60
1.78464e+62
7.76231e+60
2.20724e+62
6.41087e+60
2.57294e+62
7.01571e+60
2.3754e+62
-8.88219e+61
6.80288e+62
-4.44304e+62
2.81619e+63
-9.97796e+62
7.02126e+63
-1.36894e+63
1.19944e+64
1.37429e+64
-1.59576e+61
-2.59456e+61
-1.46764e+61
-2.15001e+61
-1.45406e+61
-6.76097e+60
-1.24218e+61
2.37158e+61
-8.24507e+60
4.93298e+61
-9.80229e+60
3.36689e+61
-8.88282e+60
5.85229e+61
-1.02336e+61
1.15578e+62
-6.32818e+60
1.22959e+62
-7.05191e+60
5.22476e+61
-8.13183e+60
3.86335e+61
-7.34955e+60
4.11959e+61
-1.18853e+61
3.66865e+61
-1.25371e+61
7.44923e+61
-4.63078e+60
7.19217e+61
-4.83776e+60
2.04814e+61
-7.84708e+60
2.53909e+61
-7.21021e+60
3.77557e+61
2.46822e+60
-8.86868e+60
8.65641e+59
-1.48924e+62
5.55726e+60
-2.40694e+61
9.45711e+60
-7.37376e+60
5.5737e+60
-5.02152e+61
1.25714e+60
-3.50917e+61
-2.49472e+60
-1.20625e+61
-4.37379e+60
5.51436e+60
-5.7561e+60
1.26953e+61
-6.92191e+60
1.33426e+61
-6.08308e+60
9.56233e+60
-3.7247e+60
9.36327e+59
-2.33465e+60
-2.54348e+61