/*--------------------------------*- C++ -*----------------------------------*\
| =========                 |                                                 |
| \\      /  F ield         | OpenFOAM: The Open Source CFD Toolbox           |
|  \\    /   O peration     | Version:  4.1                                   |
|   \\  /    A nd           | Web:      www.OpenFOAM.org                      |
|    \\/     M anipulation  |                                                 |
\*---------------------------------------------------------------------------*/
FoamFile
{
    version     2.0;
    format      ascii;
    class       volScalarField;
    location    "19";
    object      p;
}
// * * * * * * * * * * * * * * * * * * * * * * * * * * * * * * * * * * * * * //

dimensions      [0 2 -2 0 0 0 0];

internalField   nonuniform List<scalar> 
225
(
523.377
469.98
418.149
369.737
324.846
282.83
243.475
206.471
171.377
138.013
107.071
78.9321
49.9032
14.9845
-14.1677
56.943
34.682
28.9234
25.2131
19.7391
14.0316
8.87868
4.48993
1.00601
-1.45274
-2.64403
-2.14237
-0.0459286
1.8256
2.08577
-45.8394
-52.4824
-46.7154
-42.5686
-39.478
-35.8826
-31.9963
-28.0589
-24.1546
-20.4387
-17.0932
-14.0261
-10.9492
-8.29644
-7.06219
0.294333
-2.1237
2.46909
2.79326
2.84685
3.06204
2.97292
2.59563
2.01408
1.25491
0.298177
-0.811156
-1.72145
-1.87368
-1.56322
16.7222
14.3895
15.9432
13.8452
12.4264
11.1829
9.77292
8.39108
7.13365
6.04261
5.14162
4.42909
3.9515
3.91879
4.16365
7.49415
5.47114
6.44512
5.22582
5.02282
5.00706
4.91928
4.95261
5.1082
5.35171
5.671
6.03388
6.35355
6.61026
6.785
4.02272
2.8673
3.95289
3.62981
4.01663
4.41076
4.70974
5.0604
5.41696
5.74173
6.03143
6.28534
6.46357
6.54459
6.5603
5.70055
5.14276
5.9971
5.7681
5.96662
6.07913
6.10304
6.14834
6.17293
6.1681
6.1444
6.1166
6.08294
6.03708
5.9886
6.00784
5.68246
6.19328
5.9174
5.96023
5.92942
5.85434
5.80725
5.75162
5.69104
5.63178
5.57866
5.53193
5.48584
5.43464
4.68817
4.48048
4.82615
4.64975
4.72252
4.73148
4.71858
4.72678
4.72418
4.71741
4.70781
4.69309
4.67088
4.63562
4.5779
3.31825
3.20209
3.49975
3.44584
3.56546
3.61215
3.64078
3.67575
3.69238
3.69925
3.69727
3.68474
3.6607
3.62245
3.55691
2.3444
2.28424
2.53851
2.53981
2.65814
2.69952
2.7286
2.75569
2.76324
2.76115
2.74973
2.72882
2.69895
2.66015
2.59549
1.56527
1.53031
1.73268
1.74647
1.84565
1.87205
1.89439
1.91152
1.91184
1.90497
1.89038
1.86812
1.83853
1.80378
1.74589
0.880547
0.868459
1.0294
1.03412
1.11116
1.12477
1.14262
1.15471
1.15416
1.14921
1.13831
1.12127
1.09627
1.06511
1.0109
0.438609
0.399313
0.455157
0.423059
0.459228
0.440555
0.434215
0.42017
0.399274
0.3766
0.349995
0.321321
0.290912
0.260994
0.218006
)
;

boundaryField
{
    inletFace
    {
        type            zeroGradient;
    }
    inlet
    {
        type            zeroGradient;
    }
    inletWalls
    {
        type            zeroGradient;
    }
    outletInlet
    {
        type            fixedValue;
        value           uniform 0;
    }
}


// ************************************************************************* //
