/*--------------------------------*- C++ -*----------------------------------*\
| =========                 |                                                 |
| \\      /  F ield         | OpenFOAM: The Open Source CFD Toolbox           |
|  \\    /   O peration     | Version:  4.1                                   |
|   \\  /    A nd           | Web:      www.OpenFOAM.org                      |
|    \\/     M anipulation  |                                                 |
\*---------------------------------------------------------------------------*/
FoamFile
{
    version     2.0;
    format      ascii;
    class       surfaceScalarField;
    location    "19";
    object      phi;
}
// * * * * * * * * * * * * * * * * * * * * * * * * * * * * * * * * * * * * * //

dimensions      [0 3 -1 0 0 0 0];

internalField   nonuniform List<scalar> 
420
(
-949.879
2249.78
-1573.95
1924.28
-2054
1779.95
-2424.23
1670.13
-2699.86
1575.82
-2888.37
1488.42
-2993.05
1404.58
-3013.85
1321
-2949.61
1235.66
-2797.23
1147.52
-2551.16
1054.13
-2193
941.736
-1687.16
794.066
-1012.67
625.705
287.234
373.336
1876.44
442.749
1854.86
437.302
1785.39
406.698
1700.73
380.581
1601.94
359.902
1509.1
345.294
1419.19
337.537
1328.76
333.486
1239.71
326.955
1154.05
309.613
1071.48
267.469
983.877
191.431
870.103
111.449
705.686
398.683
33.5749
1842.87
-97.3896
1985.83
-253.614
1941.62
-371.122
1818.24
-473.186
1704.01
-567.535
1603.45
-651.753
1503.4
-725.801
1402.8
-788.079
1301.99
-837.314
1203.28
-868.233
1102.4
-856.096
971.738
-740.341
754.349
-434.287
399.634
-35.6039
28.7736
1814.09
-100.655
2115.25
-225.562
2066.52
-304.498
1897.18
-368.159
1767.67
-416.956
1652.24
-446.231
1532.68
-457.019
1413.59
-451.855
1296.82
-430.157
1181.58
-387.228
1059.47
-311.874
896.384
-192.867
635.342
-48.4098
255.177
-84.0137
169.623
1644.47
146.156
2138.72
123.732
2088.95
122.869
1898.04
126.942
1763.6
135.804
1643.38
149.103
1519.38
166.592
1396.1
186.944
1276.47
208.135
1160.4
229.134
1038.47
243.827
881.694
233.008
646.162
155.233
332.954
71.2192
223.073
1421.4
244.177
2117.62
234.741
2098.39
236.019
1896.76
240.368
1759.25
244.302
1639.45
246.545
1517.14
245.248
1397.4
241.16
1280.56
233.987
1167.57
221.382
1051.07
199.139
903.937
156.14
689.159
78.3011
410.792
149.52
203.31
1218.09
238.361
2082.57
213.608
2123.14
191.399
1918.97
177.192
1773.45
163.761
1652.88
150.027
1530.87
135.884
1411.54
121.06
1295.39
106.906
1181.72
92.812
1065.17
75.7608
920.985
52.0181
712.902
19.0196
443.791
168.54
171.842
1046.24
221.968
2032.44
199.409
2145.7
170.394
1947.98
152.042
1791.8
137.66
1667.26
122.771
1545.76
108.57
1425.74
95.5756
1308.38
83.0937
1194.2
71.4758
1076.79
58.6256
933.833
40.3195
731.21
15.7491
468.363
184.289
146.087
900.155
210.044
1968.48
196.862
2158.88
170.042
1974.81
152.394
1809.45
139.524
1680.13
127.061
1558.22
113.856
1438.94
101.313
1320.92
89.4113
1206.1
76.9795
1089.22
63.0837
947.728
44.3053
749.991
19.1693
493.501
203.458
116.755
783.399
184.838
1900.4
179.613
2164.1
154.298
2000.12
137.209
1826.54
123.989
1693.34
111.361
1570.85
98.9527
1451.35
86.1016
1333.78
73.8597
1218.34
62.0992
1100.98
49.0178
960.806
32.8512
766.159
13.1838
513.171
216.642
83.1542
700.243
143.118
1840.43
144.668
2162.55
122.744
2022.04
106.135
1843.14
94.4489
1705.03
82.5674
1582.73
71.1581
1462.76
60.3786
1344.55
49.4516
1229.26
39.4246
1111.01
29.7419
970.485
18.0854
777.817
5.24459
526.013
221.887
51.2337
649.005
97.911
1793.75
102.698
2157.76
87.3684
2037.37
73.1382
1857.37
63.1304
1715.04
54.2322
1591.62
44.8517
1472.13
36.1427
1353.26
28.1674
1237.23
20.4242
1118.75
13.6884
977.217
6.75381
784.75
-0.39549
533.161
221.491
25.1234
623.88
57.7161
1761.16
63.5107
2151.96
53.472
2047.41
43.8922
1866.95
36.1782
1722.75
29.549
1598.25
23.5013
1478.18
17.053
1359.71
11.3088
1242.98
6.60359
1123.46
2.47912
981.347
-1.07009
788.3
-3.68546
535.776
217.806
1.42598
622.458
24.0714
1738.53
33.3733
2142.66
27.7498
2053.04
20.3967
1874.31
15.1018
1728.05
9.56877
1603.79
4.62418
1483.13
0.0739233
1364.26
-4.78678
1247.85
-8.31061
1126.97
-9.62277
982.668
-9.71665
788.381
-7.151
533.199
210.655
-11.721
-3.11882
1.47369
-0.372617
-5.06204
-8.80088
-11.7513
-15.1754
-18.0422
-20.1611
-21.7307
-21.0696
-18.0977
-12.3817
)
;

boundaryField
{
    inletFace
    {
        type            calculated;
        value           nonuniform List<scalar> 
450
(
-3.08159e-14
5.92793e-13
-3.19111e-13
-2.02231e-13
2.02687e-13
-1.87554e-13
-6.34031e-14
7.18188e-14
-1.00221e-13
-2.59034e-14
5.53819e-14
-1.46683e-14
5.7108e-15
3.80738e-16
-1.14003e-15
-2.21125e-12
-2.15291e-12
-3.29539e-14
-7.70046e-13
-1.79322e-13
3.82394e-14
-2.82814e-13
-1.36272e-13
6.45568e-15
-1.01254e-13
-5.24469e-14
4.35422e-14
-5.28269e-15
-3.38634e-15
6.21815e-16
-2.19302e-12
-2.41776e-12
-2.71714e-13
-6.37621e-13
-3.5266e-13
-7.95947e-14
-2.9006e-13
-1.03806e-13
-1.40791e-13
-1.89236e-13
-1.10835e-14
-2.12568e-14
-2.18535e-14
1.55679e-14
6.64371e-15
-2.36568e-12
-2.50895e-12
-3.4147e-13
-8.27855e-13
-4.56979e-13
-1.94924e-13
-4.09739e-13
-1.23107e-13
-2.04471e-13
-2.7873e-13
-1.99578e-14
-8.35942e-14
-7.28797e-14
4.14035e-14
7.82759e-14
-2.34171e-12
-2.2903e-12
-4.08718e-13
-7.91436e-13
-3.18667e-13
-2.19708e-13
-3.79658e-13
-1.15856e-13
-2.03133e-13
-2.11242e-13
-9.61025e-14
-4.53803e-14
-1.92968e-14
9.05063e-15
6.41602e-14
-2.06002e-12
-2.26153e-12
-5.21415e-13
-6.49679e-13
-2.88487e-13
-1.95068e-13
-3.35981e-13
-8.49386e-14
-1.47354e-13
-1.64201e-13
-8.72797e-14
2.75525e-14
-5.70583e-14
1.55673e-15
3.58943e-14
-1.84225e-12
-2.38526e-12
-7.53592e-13
-5.91501e-13
-3.08298e-13
-2.21861e-13
-3.22434e-13
-1.6308e-13
-2.18292e-13
-1.30451e-13
-7.37472e-14
-1.07019e-13
-1.32614e-13
-8.65335e-14
-1.37072e-13
-1.61878e-12
-2.40083e-12
-9.94247e-13
-5.50152e-13
-3.19045e-13
-2.46023e-13
-3.11425e-13
-2.20953e-13
-2.40585e-13
-1.91467e-13
-1.14346e-13
-1.72924e-13
-3.67808e-14
-3.22199e-14
-2.22616e-13
-1.34604e-12
-2.38313e-12
-1.16878e-12
-5.6601e-13
-3.19079e-13
-2.40717e-13
-3.04034e-13
-2.13719e-13
-2.07232e-13
-2.16169e-13
-1.25413e-13
-1.1542e-13
-1.88959e-14
-2.37911e-14
-9.47697e-14
-1.17294e-12
-2.3293e-12
-1.29978e-12
-6.00837e-13
-3.18755e-13
-2.04536e-13
-2.70148e-13
-2.19374e-13
-1.40718e-13
-1.70791e-13
-1.24957e-13
-1.52304e-13
-7.06231e-14
-4.36283e-14
5.57396e-15
-1.00603e-12
-2.26478e-12
-1.39998e-12
-6.27765e-13
-3.2105e-13
-1.49717e-13
-2.54648e-13
-2.30556e-13
-9.78927e-14
-1.3008e-13
-1.24812e-13
-1.06502e-13
-2.13481e-14
-3.19309e-14
7.86741e-14
-8.62604e-13
-2.1873e-12
-1.46068e-12
-6.71791e-13
-3.33994e-13
-1.26288e-13
-2.64973e-13
-2.19033e-13
-8.13248e-14
-1.20409e-13
-1.31866e-13
-2.25393e-14
-1.05125e-14
9.75897e-14
1.36712e-13
-7.87683e-13
-2.11903e-12
-1.50036e-12
-6.99149e-13
-3.44663e-13
-1.4022e-13
-2.31609e-13
-2.17893e-13
-7.73537e-14
-1.13429e-13
-1.2334e-13
-1.20196e-14
-1.27996e-14
1.14671e-13
1.42869e-13
-7.40081e-13
-2.07962e-12
-1.51582e-12
-7.09022e-13
-3.49942e-13
-1.45074e-13
-2.1919e-13
-2.44415e-13
-7.38871e-14
-1.08854e-13
-1.22623e-13
1.65131e-14
-3.70229e-15
9.96195e-14
1.21375e-13
-7.38124e-13
-2.00842e-12
-1.51171e-12
-7.33656e-13
-3.56711e-13
-1.56887e-13
-2.20177e-13
-2.32811e-13
-8.00215e-14
-1.09379e-13
-1.04159e-13
1.24716e-14
6.25973e-15
9.72174e-14
7.06147e-14
3.08159e-14
-5.92793e-13
3.19111e-13
2.02231e-13
-2.02687e-13
1.87554e-13
6.34031e-14
-7.18188e-14
1.00221e-13
2.59034e-14
-5.53819e-14
1.46683e-14
-5.7108e-15
-3.80738e-16
1.14003e-15
2.21125e-12
2.15291e-12
3.29539e-14
7.70046e-13
1.79322e-13
-3.82394e-14
2.82814e-13
1.36272e-13
-6.45568e-15
1.01254e-13
5.24469e-14
-4.35422e-14
5.28269e-15
3.38634e-15
-6.21815e-16
2.19302e-12
2.41776e-12
2.71714e-13
6.37621e-13
3.5266e-13
7.95947e-14
2.9006e-13
1.03806e-13
1.40791e-13
1.89236e-13
1.10835e-14
2.12568e-14
2.18535e-14
-1.55679e-14
-6.64371e-15
2.36568e-12
2.50895e-12
3.4147e-13
8.27855e-13
4.56979e-13
1.94924e-13
4.09739e-13
1.23107e-13
2.04471e-13
2.7873e-13
1.99578e-14
8.35942e-14
7.28797e-14
-4.14035e-14
-7.82759e-14
2.34171e-12
2.2903e-12
4.08718e-13
7.91436e-13
3.18667e-13
2.19708e-13
3.79658e-13
1.15856e-13
2.03133e-13
2.11242e-13
9.61025e-14
4.53803e-14
1.92968e-14
-9.05063e-15
-6.41602e-14
2.06002e-12
2.26153e-12
5.21415e-13
6.49679e-13
2.88487e-13
1.95068e-13
3.35981e-13
8.49386e-14
1.47354e-13
1.64201e-13
8.72797e-14
-2.75525e-14
5.70583e-14
-1.55673e-15
-3.58943e-14
1.84225e-12
2.38526e-12
7.53592e-13
5.91501e-13
3.08298e-13
2.21861e-13
3.22434e-13
1.6308e-13
2.18292e-13
1.30451e-13
7.37472e-14
1.07019e-13
1.32614e-13
8.65335e-14
1.37072e-13
1.61878e-12
2.40083e-12
9.94247e-13
5.50152e-13
3.19045e-13
2.46023e-13
3.11425e-13
2.20953e-13
2.40585e-13
1.91467e-13
1.14346e-13
1.72924e-13
3.67808e-14
3.22199e-14
2.22616e-13
1.34604e-12
2.38313e-12
1.16878e-12
5.6601e-13
3.19079e-13
2.40717e-13
3.04034e-13
2.13719e-13
2.07232e-13
2.16169e-13
1.25413e-13
1.1542e-13
1.88959e-14
2.37911e-14
9.47697e-14
1.17294e-12
2.3293e-12
1.29978e-12
6.00837e-13
3.18755e-13
2.04536e-13
2.70148e-13
2.19374e-13
1.40718e-13
1.70791e-13
1.24957e-13
1.52304e-13
7.06231e-14
4.36283e-14
-5.57396e-15
1.00603e-12
2.26478e-12
1.39998e-12
6.27765e-13
3.2105e-13
1.49717e-13
2.54648e-13
2.30556e-13
9.78927e-14
1.3008e-13
1.24812e-13
1.06502e-13
2.13481e-14
3.19309e-14
-7.86741e-14
8.62604e-13
2.1873e-12
1.46068e-12
6.71791e-13
3.33994e-13
1.26288e-13
2.64973e-13
2.19033e-13
8.13248e-14
1.20409e-13
1.31866e-13
2.25393e-14
1.05125e-14
-9.75897e-14
-1.36712e-13
7.87683e-13
2.11903e-12
1.50036e-12
6.99149e-13
3.44663e-13
1.4022e-13
2.31609e-13
2.17893e-13
7.73537e-14
1.13429e-13
1.2334e-13
1.20196e-14
1.27996e-14
-1.14671e-13
-1.42869e-13
7.40081e-13
2.07962e-12
1.51582e-12
7.09022e-13
3.49942e-13
1.45074e-13
2.1919e-13
2.44415e-13
7.38871e-14
1.08854e-13
1.22623e-13
-1.65131e-14
3.70229e-15
-9.96195e-14
-1.21375e-13
7.38124e-13
2.00842e-12
1.51171e-12
7.33656e-13
3.56711e-13
1.56887e-13
2.20177e-13
2.32811e-13
8.00215e-14
1.09379e-13
1.04159e-13
-1.24716e-14
-6.25973e-15
-9.72174e-14
-7.06147e-14
)
;
    }
    inlet
    {
        type            calculated;
        value           nonuniform List<scalar> 
15
(
-1299.9
-1300.2
-1299.9
-1299.9
-1300.2
-1299.9
-1299.9
-1300.2
-1299.9
-1299.9
-1300.2
-1299.9
-1299.9
-1300.2
-1299.9
)
;
    }
    inletWalls
    {
        type            calculated;
        value           uniform 0;
    }
    outletInlet
    {
        type            calculated;
        value           nonuniform List<scalar> 
15
(
198.273
527.479
785.406
982.011
1128.54
1249.98
1367.12
1486.57
1606.74
1731.8
1879
2054.89
2138.08
1729.93
634.185
)
;
    }
}


// ************************************************************************* //
