/*--------------------------------*- C++ -*----------------------------------*\
| =========                 |                                                 |
| \\      /  F ield         | OpenFOAM: The Open Source CFD Toolbox           |
|  \\    /   O peration     | Version:  4.1                                   |
|   \\  /    A nd           | Web:      www.OpenFOAM.org                      |
|    \\/     M anipulation  |                                                 |
\*---------------------------------------------------------------------------*/
FoamFile
{
    version     2.0;
    format      ascii;
    class       volVectorField;
    location    "19";
    object      U;
}
// * * * * * * * * * * * * * * * * * * * * * * * * * * * * * * * * * * * * * //

dimensions      [0 1 -1 0 0 0 0];

internalField   nonuniform List<vector> 
225
(
(1.12445e-14 0.852191 15.7946)
(9.1797e-15 -4.89458 12.1215)
(-1.60074e-15 -4.19551 12.1321)
(6.19293e-16 -3.60119 11.9966)
(2.0036e-16 -3.00468 11.8778)
(-2.34473e-16 -2.5532 11.6992)
(1.93519e-15 -2.20881 11.4769)
(2.4733e-16 -1.96603 11.2116)
(-6.17935e-17 -1.79856 10.916)
(9.62494e-16 -1.71239 10.5882)
(3.2632e-17 -1.83747 10.1561)
(-3.56182e-16 -2.28568 9.53762)
(7.80874e-16 -2.51302 8.96378)
(-2.63578e-18 -1.06553 8.91357)
(7.89219e-18 1.76575 7.47091)
(1.59976e-14 -5.35016 22.493)
(1.49058e-14 -14.6049 21.394)
(2.28133e-16 -13.2708 20.3411)
(3.83621e-15 -11.7697 19.5066)
(1.24155e-15 -11.1561 18.5043)
(-2.64724e-16 -10.6594 17.5174)
(2.06862e-15 -10.0901 16.5714)
(9.43493e-16 -9.525 15.6236)
(-4.46914e-17 -8.96544 14.6638)
(6.84609e-16 -8.36731 13.6946)
(3.63121e-16 -7.7571 12.7179)
(-3.01433e-16 -7.30336 11.7194)
(2.88894e-17 -7.01707 10.6244)
(2.34456e-17 -5.73097 9.16118)
(-4.3047e-18 -2.30503 4.58325)
(1.98064e-14 -7.71566 23.9801)
(1.27815e-14 -16.7731 24.6729)
(1.88124e-15 -13.7365 23.9372)
(2.13512e-15 -12.3062 22.6249)
(-9.71937e-16 -11.6447 21.2414)
(5.51083e-16 -10.814 20.0013)
(3.14802e-15 -9.94024 18.7738)
(7.1863e-16 -9.10009 17.5247)
(9.74785e-16 -8.28336 16.2654)
(1.26325e-16 -7.47522 15.0262)
(7.67288e-17 -6.6676 13.8176)
(1.47174e-16 -5.84163 12.4301)
(1.72208e-15 -4.81387 10.2752)
(-1.07774e-16 -3.12624 6.68441)
(-4.59985e-17 -0.832133 1.68993)
(1.637e-14 -8.50259 22.0462)
(1.73692e-14 -16.621 24.332)
(2.34122e-15 -12.93 23.7971)
(5.7318e-15 -12.1536 21.9985)
(3.0924e-15 -11.42 20.5028)
(1.37376e-15 -10.4936 19.1722)
(2.8369e-15 -9.63386 17.8167)
(7.73263e-16 -8.82357 16.459)
(1.44338e-15 -8.05361 15.1229)
(1.91493e-15 -7.32376 13.8164)
(1.30033e-16 -6.55245 12.4394)
(5.69355e-16 -5.49085 10.583)
(4.7977e-16 -3.78521 7.50863)
(-9.40075e-17 -1.49362 2.766)
(-8.5681e-16 0.153265 -1.77301)
(1.59998e-14 -8.47615 19.748)
(1.55111e-14 -16.3601 24.312)
(2.65115e-15 -13.099 23.6602)
(5.28433e-15 -12.628 21.5365)
(1.89523e-15 -11.8565 20.0248)
(1.3012e-15 -10.9574 18.6637)
(2.51142e-15 -10.1698 17.2587)
(5.53454e-16 -9.40276 15.8711)
(2.59708e-15 -8.65257 14.5235)
(1.39187e-15 -7.9305 13.2135)
(-2.43631e-16 -7.16587 11.8292)
(9.91387e-16 -6.11614 9.99625)
(2.72603e-17 -4.42402 7.15553)
(-4.20835e-16 -2.30529 3.2879)
(-8.10341e-16 -0.787213 0.31774)
(1.44854e-14 -8.02193 17.5537)
(1.56981e-14 -16.0195 24.5277)
(3.73715e-15 -13.6434 24.0461)
(4.08208e-15 -12.9943 21.7651)
(2.04629e-15 -12.1264 20.2158)
(1.45463e-15 -11.2247 18.847)
(2.32595e-15 -10.439 17.4341)
(6.47307e-16 -9.64887 16.0433)
(1.21149e-15 -8.86034 14.6933)
(1.13675e-15 -8.09323 13.3817)
(6.79705e-16 -7.29729 12.0171)
(6.80013e-17 -6.28458 10.2818)
(-7.07028e-16 -4.73302 7.72091)
(3.4683e-16 -2.75614 4.37247)
(7.59379e-16 -0.949397 1.29738)
(1.28879e-14 -7.33745 15.2535)
(1.67257e-14 -15.491 24.355)
(5.30159e-15 -14.0225 24.4218)
(4.09536e-15 -13.1278 22.0675)
(2.18462e-15 -12.1447 20.4401)
(1.64364e-15 -11.2358 19.0547)
(2.23243e-15 -10.436 17.6437)
(6.26984e-16 -9.61981 16.2576)
(1.0336e-15 -8.81012 14.9066)
(9.03202e-16 -8.02719 13.5918)
(1.49982e-15 -7.22391 12.2368)
(1.72387e-16 -6.24022 10.5488)
(9.18179e-16 -4.78748 8.10745)
(2.24237e-16 -2.91408 4.9471)
(1.22943e-15 -1.01086 1.79739)
(1.14368e-14 -6.55628 13.0331)
(1.6622e-14 -14.847 23.8164)
(6.84071e-15 -14.2638 24.669)
(3.80852e-15 -13.2372 22.3215)
(2.2089e-15 -12.1674 20.5831)
(1.59475e-15 -11.2657 19.1666)
(2.1559e-15 -10.4651 17.7586)
(1.52976e-15 -9.64311 16.3765)
(1.52789e-15 -8.8349 15.0245)
(1.40067e-15 -8.05525 13.7073)
(7.91668e-16 -7.25495 12.3576)
(1.00684e-15 -6.28683 10.6995)
(2.54621e-16 -4.89093 8.33087)
(2.23073e-16 -3.08516 5.26757)
(1.0445e-15 -1.12217 2.04389)
(9.3185e-15 -5.77843 11.1239)
(1.64981e-14 -14.1745 23.0906)
(7.96636e-15 -14.4412 24.8462)
(3.91842e-15 -13.3963 22.6148)
(2.20894e-15 -12.2528 20.7553)
(1.50533e-15 -11.3493 19.2955)
(2.10479e-15 -10.5477 17.8904)
(1.47955e-15 -9.7254 16.5109)
(1.91058e-15 -8.9194 15.1561)
(1.49651e-15 -8.14019 13.8351)
(8.68217e-16 -7.33991 12.4863)
(-3.23231e-16 -6.3801 10.8512)
(1.30814e-16 -5.02345 8.54662)
(1.64703e-16 -3.26571 5.5582)
(-9.27709e-16 -1.23749 2.24758)
(7.92126e-15 -5.08508 9.59946)
(1.61254e-14 -13.5192 22.3001)
(8.53447e-15 -14.5349 24.9522)
(4.06855e-15 -13.5531 22.9352)
(2.20671e-15 -12.3447 20.9698)
(1.84669e-15 -11.425 19.4566)
(1.69654e-15 -10.6173 18.0505)
(1.5187e-15 -9.7944 16.672)
(1.51878e-15 -8.98821 15.3135)
(1.03371e-15 -8.20616 13.9873)
(8.65059e-16 -7.40467 12.6355)
(2.46146e-17 -6.4514 11.0131)
(2.56999e-16 -5.12514 8.75496)
(3.02034e-16 -3.40643 5.81934)
(-1.28647e-15 -1.31897 2.4308)
(6.81449e-15 -4.53881 8.46241)
(1.54821e-14 -12.9256 21.5505)
(9.56316e-15 -14.5348 24.9757)
(4.32285e-15 -13.6653 23.2209)
(2.27312e-15 -12.4127 21.1811)
(8.19048e-16 -11.4735 19.612)
(1.82136e-15 -10.6589 18.2003)
(1.65952e-15 -9.83688 16.8208)
(4.02645e-16 -9.03198 15.4584)
(1.65181e-15 -8.24849 14.1268)
(9.47074e-16 -7.44639 12.769)
(1.30394e-15 -6.49763 11.1496)
(1.31175e-15 -5.19246 8.91824)
(-4.45052e-16 -3.50172 6.01029)
(-1.1032e-15 -1.36367 2.54236)
(5.97171e-15 -4.17053 7.70291)
(1.51683e-14 -12.4378 20.9279)
(1.00696e-14 -14.4733 24.9365)
(4.65073e-15 -13.7315 23.4377)
(2.59167e-15 -12.4591 21.3592)
(7.91919e-16 -11.5038 19.7404)
(1.83437e-15 -10.6832 18.3205)
(1.9e-15 -9.8635 16.939)
(8.41e-16 -9.06109 15.5728)
(8.33578e-16 -8.27754 14.2363)
(9.12896e-16 -7.47482 12.8708)
(6.07902e-17 -6.5267 11.2463)
(1.31269e-16 -5.2329 9.02623)
(-7.58612e-16 -3.55788 6.12592)
(-8.14718e-16 -1.37727 2.5726)
(5.35442e-15 -3.9735 7.27992)
(1.46429e-14 -12.0683 20.4613)
(1.04091e-14 -14.3843 24.8625)
(4.91096e-15 -13.7599 23.5827)
(2.38606e-15 -12.4875 21.4969)
(9.70729e-16 -11.5229 19.8405)
(1.57369e-15 -10.6965 18.4119)
(1.60528e-15 -9.87987 17.0278)
(5.00468e-16 -9.08045 15.6583)
(7.85343e-16 -8.29711 14.3168)
(8.96033e-16 -7.493 12.942)
(3.52611e-17 -6.54194 11.3059)
(8.86203e-17 -5.25074 9.084)
(-7.11338e-16 -3.57866 6.17518)
(-1.13706e-15 -1.36516 2.53879)
(4.99012e-15 -3.90388 7.11057)
(1.43843e-14 -11.8313 20.1818)
(1.04709e-14 -14.2998 24.79)
(4.89651e-15 -13.7667 23.6685)
(2.40988e-15 -12.5019 21.5898)
(1.0043e-15 -11.532 19.9095)
(1.53246e-15 -10.7003 18.4746)
(1.67591e-15 -9.88547 17.0883)
(5.11496e-16 -9.0879 15.7172)
(7.72779e-16 -8.30404 14.3729)
(8.27925e-16 -7.49779 12.9905)
(-1.14315e-16 -6.5431 11.3432)
(5.46569e-17 -5.25332 9.11706)
(-7.30567e-16 -3.58353 6.2014)
(-8.40239e-16 -1.35007 2.50628)
(5.09514e-15 -4.03947 7.28671)
(1.38971e-14 -11.627 19.9521)
(1.04724e-14 -14.1916 24.668)
(5.07901e-15 -13.7464 23.7082)
(2.46295e-15 -12.5065 21.6737)
(1.09326e-15 -11.5393 19.9773)
(1.52426e-15 -10.6995 18.535)
(1.60364e-15 -9.88696 17.1437)
(5.62774e-16 -9.09052 15.7694)
(7.57221e-16 -8.30497 14.4183)
(7.15884e-16 -7.48993 13.0146)
(-8.04632e-17 -6.51531 11.328)
(-4.33354e-17 -5.20596 9.06111)
(-6.83204e-16 -3.50155 6.08271)
(-4.69785e-16 -1.25244 2.30724)
)
;

boundaryField
{
    inletFace
    {
        type            zeroGradient;
    }
    inlet
    {
        type            fixedValue;
        value           uniform (0 8.7 15);
    }
    inletWalls
    {
        type            noSlip;
    }
    outletInlet
    {
        type            zeroGradient;
    }
}


// ************************************************************************* //
