/*--------------------------------*- C++ -*----------------------------------*\
| =========                 |                                                 |
| \\      /  F ield         | OpenFOAM: The Open Source CFD Toolbox           |
|  \\    /   O peration     | Version:  4.1                                   |
|   \\  /    A nd           | Web:      www.OpenFOAM.org                      |
|    \\/     M anipulation  |                                                 |
\*---------------------------------------------------------------------------*/
FoamFile
{
    version     2.0;
    format      ascii;
    class       surfaceScalarField;
    location    "28";
    object      phi;
}
// * * * * * * * * * * * * * * * * * * * * * * * * * * * * * * * * * * * * * //

dimensions      [0 3 -1 0 0 0 0];

internalField   nonuniform List<scalar> 
13220
(
-771.61
2071.51
-1197.52
1726.11
-1633.85
1736.23
-1947.47
1613.52
-2199.23
1551.96
-2372.41
1473.08
-2476.13
1403.63
-2510.05
1334.12
-2477.71
1267.55
-2376.62
1198.81
-2201.21
1124.79
-1937.59
1036.28
-1545.18
907.491
-945.884
700.904
354.016
-202.293
2273.8
-469.003
1992.82
-757.118
2024.35
-995.507
1851.91
-1226.31
1782.76
-1420.36
1667.13
-1593.43
1576.69
-1738.03
1478.72
-1844.93
1374.45
-1869.92
1223.8
-1725.97
980.84
-1346.72
657.033
-826.905
387.678
-344.723
218.723
9.29289
-199.849
2473.65
-447.117
2240.09
-643.899
2221.13
-792.174
2000.19
-933.351
1923.94
-1037.11
1770.88
-1130.55
1670.14
-1205.24
1553.42
-1260.78
1429.99
-1265.91
1228.92
-1159.04
873.972
-879.793
377.786
-536.124
44.009
-188.387
-129.015
-179.094
23.2659
2450.39
-65.5846
2328.94
-94.6571
2250.2
-102.69
2008.22
-107.464
1928.72
-91.436
1754.85
-66.5107
1645.21
-26.0049
1512.91
16.7989
1387.19
33.1218
1212.6
-28.1088
935.204
-176.095
525.779
-283.038
150.96
-280.302
-131.746
-459.396
167.882
2282.51
132.278
2364.54
178.559
2203.92
236.699
1950.08
306.931
1858.49
383.64
1678.15
472.242
1556.61
571.885
1413.27
677.939
1281.14
756.267
1134.28
742.539
948.933
561.625
706.695
286.646
425.945
68.3876
86.5186
-391.009
188.39
2094.12
183.851
2369.08
231.056
2156.72
289.41
1891.73
361.397
1786.5
428.519
1611.03
503.441
1481.69
578.853
1337.86
655.081
1204.91
716.84
1072.52
734.496
931.279
668.125
773.066
517.105
576.966
277.413
326.211
-113.595
137.666
1956.45
176.66
2330.09
225.779
2107.6
284.195
1833.32
354.287
1716.41
415.4
1549.92
473.772
1423.32
523.693
1287.94
566.162
1162.44
598.408
1040.27
607.725
921.963
569.787
811.008
458.861
687.898
256.405
528.68
142.81
59.2584
1897.2
137.383
2251.97
208.689
2036.3
279.157
1762.85
354.178
1641.39
436.719
1467.37
523.133
1336.91
617.548
1193.52
707.59
1072.4
780.063
967.798
807.116
894.91
756.855
861.265
597.986
846.761
336.058
790.6
478.868
-54.8518
1952.05
17.9414
2179.17
71.9793
1982.26
82.7678
1752.06
98.1512
1626.01
147.168
1418.36
258.332
1225.74
427.962
1023.89
627.919
872.444
814.932
780.786
914.468
795.375
865.953
909.784
657.435
1055.28
348.955
1099.09
827.823
-150.579
2102.63
-249.169
2277.76
-325.881
2058.97
-466.772
1892.95
-613.464
1772.7
-735.361
1540.25
-788.018
1278.4
-777.566
1013.44
-705.601
800.478
-566.626
641.81
-362.939
591.687
-135.823
682.661
28.4883
890.967
63.071
1064.5
890.894
64.7128
2037.91
-169.221
2511.7
-404.709
2294.46
-620.365
2108.6
-839.389
1991.72
-1083.82
1784.68
-1341.09
1535.67
-1592.01
1264.36
-1805.86
1014.32
-1929.73
765.683
-1877.09
539.046
-1568.01
373.582
-1007.13
330.087
-385.846
443.219
505.048
522.126
1515.79
541.652
2492.17
334.914
2501.2
169.219
2274.3
61.0184
2099.92
-62.3357
1908.03
-225.886
1699.22
-427.238
1465.71
-645.424
1232.51
-869.086
989.342
-1065.45
735.412
-1156.79
464.916
-1022.46
195.743
-619.524
40.2742
-114.477
804.638
711.145
1172.54
2124.27
1166.98
2506.75
1143.92
2297.35
1207.99
2035.85
1285.49
1830.53
1322.85
1661.85
1293.67
1494.89
1202.92
1323.26
1048.35
1143.91
826.999
956.759
531.689
760.224
190.494
536.936
-55.7755
286.538
-170.252
537.992
173.152
806.023
1856.23
848.866
2463.91
796.47
2349.75
776.727
2055.59
808.235
1799.02
865.308
1604.78
917.947
1442.25
948.363
1292.85
940.01
1152.26
885.756
1011.01
780.671
865.307
605.815
711.789
360.182
532.169
189.929
-112.077
680.604
1588.36
2281.71
2567.81
2644.45
2624.68
2511.8
2310
2079.06
1796.73
1453.15
1071.15
602.089
1.33664e-06
-335.258
335.258
-335.258
-335.258
-335.258
288.275
-623.533
288.275
288.275
288.275
823.469
-535.194
823.469
823.469
1257.79
-434.326
1257.79
1257.79
1257.79
1584.83
-327.035
1584.83
1584.83
1810.39
-225.561
1810.39
1810.39
1810.39
1937.75
-127.355
1937.75
1937.75
1937.75
1963.6
-25.8553
1963.6
1963.6
1895.96
67.6441
1895.96
1895.96
1895.96
1753.13
142.828
1753.13
1753.13
1559.38
193.747
1559.38
1559.38
1559.38
1366.39
192.992
1366.39
1366.39
1366.39
1277.71
88.6768
1277.71
1277.71
1122.69
155.027
1122.69
1122.69
1122.69
849.788
272.898
849.788
849.788
849.788
468.805
380.982
468.805
468.805
77.9139
390.892
77.9139
77.9139
77.9139
-639.04
716.954
-639.04
-639.04
-1920.69
1281.65
-1920.69
-1920.69
-1920.69
-3588.16
1667.47
-3588.16
-3588.16
-3588.16
-5580.11
1991.95
-5580.11
-5580.11
-7821.02
2240.91
-7821.02
-7821.02
-7671.81
-7524.15
-7376.55
-9652.6
2418.99
-9497.88
-9321.35
-9132.87
-8944.99
-8757
-8569.02
-8377.15
-8174.44
-10454.5
2477.2
-10245.2
-10034.9
-9824.25
-9598.84
-9372.03
-9144.25
-8916.15
-8687.47
-10997
2538.88
-10754.3
-10511.1
-10267.1
-10022.1
-9771.86
-9512.14
-9251.86
-8989.71
-8726.08
-10985.1
2512.77
-10708.9
-10430.1
-10149.3
-9867.61
-9585.34
-9291.88
-8992.58
-8694.09
-10682.6
2272.09
-10395.3
-10103.1
-9799.22
-9495.73
-9191.29
-8886.54
-8579.48
-8247.44
-9720.89
1794.98
-9399.44
-9078.71
-8758.9
-8420.54
-8076.72
-7739.08
-7406.95
-7083.5
-7526.31
763.613
-7202.89
-6891.02
-6584.95
-6284.62
-5988.77
-5692.2
-5399.16
-5108.3
-4823.98
-4330.49
-196.871
-4088.89
-3876.27
-3670.45
-3473.99
-3286.8
-3143.5
-3094.15
-3047.88
-2311.65
-678.394
-2264.31
-2215.95
-2215.95
-1708.06
-507.883
-1261.47
-446.59
-1261.47
-888.481
-372.994
-888.481
-576.525
-311.955
-332.872
-243.653
-332.872
-108.964
-223.908
68.684
-177.648
68.6841
224.71
-156.026
224.71
368.257
-143.547
506.11
-137.852
506.11
632.542
-126.432
632.542
751.029
-118.488
859.503
-108.474
859.503
964.277
-104.773
1057.04
-92.7617
1057.04
1145.58
-88.5432
1145.58
1233.61
-88.025
1307.92
-74.3109
1307.92
1381.94
-74.0228
1381.94
1460.08
-78.1351
1523.33
-63.2503
1523.33
1594.94
-71.6103
1648
-53.0642
1648
1701.9
-53.8996
1701.9
1758.05
-56.1502
1792.18
-34.1283
1792.18
1825.42
-33.2429
1825.42
1860.42
-34.9999
1870.87
-10.4461
1870.87
1890.8
-19.9309
1884.61
6.18413
1884.61
1883.36
1.25757
1883.36
1888.96
-5.60439
1874.03
14.9275
1874.03
1868.11
5.9231
1868.11
1869.98
-1.86812
1854.02
15.9585
1854.02
1848.33
5.68944
1823.3
25.0276
1823.3
1804.52
18.7812
1804.52
1788.55
15.9689
1764.3
24.2552
1764.3
1750.09
14.2042
1750.09
1743.74
6.35566
1736.22
7.51536
1736.22
1740.49
-4.26723
1741.56
-1.07245
1741.56
1753.19
-11.6299
1753.19
-23.3041
-935.473
-830.939
-953.142
-922.573
-954.428
-988.367
-953.962
-1064.49
-948.991
-1143.87
-941.346
-1225.29
-930.584
-1309.18
-916.559
-1393.63
-898.936
-1477.21
-877.756
-1555.86
-853.89
-1623.38
-829.856
-1669.18
-810.53
-1678.18
-802.816
-1632.73
-813.027
-1521.36
-842.532
-1353.8
-882.652
-1166.77
-906.852
-975.629
-877.722
-679.089
-809.012
-149.933
-761.27
380.518
-737.423
669.021
-717.702
871.048
-698.722
1081.25
-680.447
1306.56
-662.764
1536.74
-645.481
1765.45
-628.446
1987.49
-611.546
2198.42
-594.773
2395.62
-578.065
2577.18
-561.332
2741.25
-544.573
2886.55
-527.817
3012.43
-511.063
3119.15
-494.301
3207.11
-477.511
3277.4
-460.604
3331.28
-443.416
3369.4
-425.818
3391.16
-407.794
3396.09
-389.348
3384.88
-370.464
3358.39
-351.107
3317.11
-331.258
3261.05
-310.914
3190.44
-290.067
3105.72
-268.749
3007.42
-246.928
2896.45
-224.488
2770.49
-201.341
2623.89
-177.611
2454.09
-153.366
2267.94
-128.321
2066.14
-102.415
1834.39
-75.8981
1580.3
-48.8017
1335.57
-21.4399
1105.29
4.74756
853.554
27.7639
600.755
45.1964
341.263
56.0205
156.062
62.2859
90.0197
66.2844
113.672
71.2728
198.403
80.6162
307.751
92.8734
390.329
103.927
421.294
111.976
410.936
117.729
373.203
121.829
319.664
124.746
249.659
127.902
204.323
112.695
10.4667
111.185
-333.583
70.7718
-531.597
-46.5531
-1389.34
-68.7337
-2145.11
-1787.64
-965.568
-824.532
-968.681
-919.46
-963.936
-993.112
-958.795
-1069.63
-950.522
-1152.14
-939.996
-1235.82
-926.294
-1322.89
-909.081
-1410.84
-888.053
-1498.24
-863.659
-1580.25
-837.788
-1649.25
-814.869
-1692.1
-802.422
-1690.63
-809.244
-1625.91
-839.951
-1490.66
-889.412
-1304.34
-942.139
-1114.05
-969.564
-948.204
-928.486
-720.168
-821.669
-256.749
-745.668
304.517
-722.324
645.677
-707.83
856.555
-691.028
1064.45
-674.158
1289.68
-657.759
1520.34
-641.599
1749.29
-625.468
1971.36
-609.282
2182.24
-593.083
2379.42
-576.828
2560.93
-560.449
2724.87
-543.968
2870.07
-527.422
2995.89
-510.824
3102.55
-494.172
3190.46
-477.456
3260.69
-460.588
3314.41
-443.409
3352.22
-425.8
3373.55
-407.751
3378.04
-389.272
3366.4
-370.347
3339.47
-350.944
3297.7
-331.045
3241.15
-310.649
3170.04
-289.75
3084.82
-268.385
2986.06
-246.514
2874.58
-224.006
2747.98
-200.76
2600.64
-176.907
2430.24
-152.487
2243.52
-127.131
2040.79
-100.69
1807.94
-73.3175
1552.93
-44.7624
1307.01
-15.446
1075.98
12.6475
825.46
37.2235
576.179
54.9758
323.511
64.7438
146.294
69.8163
84.9472
72.1917
111.296
74.5619
196.033
81.1422
301.17
91.3585
380.113
101.322
411.33
108.863
403.396
114.325
367.741
118.414
315.575
121.983
246.089
132.061
194.245
127.112
15.416
126.243
-332.714
92.1931
-497.548
-37.3294
-1259.82
-83.3195
-2099.12
-1882.59
-967.205
-821.6
-967.597
-919.068
-962.719
-997.989
-956.659
-1075.69
-947.334
-1161.46
-935.322
-1247.83
-919.785
-1338.42
-900.503
-1430.12
-877.428
-1521.31
-851.588
-1606.09
-825.997
-1674.84
-806.841
-1711.25
-803.326
-1694.14
-823.852
-1605.38
-868.514
-1445.99
-925.329
-1247.52
-976.46
-1062.91
-1000.62
-924.042
-961.206
-759.583
-841.33
-376.625
-735.996
199.183
-702.127
611.807
-692.06
846.488
-679.679
1052.07
-665.18
1275.19
-650.496
1505.66
-635.897
1734.7
-621.116
1956.58
-606.034
2167.15
-590.715
2364.1
-575.155
2545.37
-559.327
2709.04
-543.279
2854.02
-527.066
2979.67
-510.715
3086.2
-494.242
3173.98
-477.647
3244.09
-460.846
3297.61
-443.689
3335.06
-426.071
3355.94
-407.994
3359.96
-389.47
3347.87
-370.489
3320.48
-351.019
3278.23
-331.047
3221.18
-310.575
3149.57
-289.601
3063.84
-268.164
2964.62
-246.217
2852.64
-223.608
2725.37
-200.231
2577.26
-176.212
2406.22
-151.539
2218.84
-125.746
2015
-98.5693
1780.77
-69.9459
1524.3
-39.2875
1276.36
-7.14588
1043.84
23.8552
794.459
51.006
549.028
70.4884
304.028
81.1637
135.619
86.3203
79.7906
86.9381
110.679
85.4952
197.476
87.8245
298.841
94.8493
373.088
102.926
403.253
109.299
397.023
113.837
363.203
117.674
311.737
122.681
241.083
137.168
179.758
138.787
13.797
135.792
-329.72
105.903
-467.659
-25.4563
-1128.46
-85.0342
-2039.55
-1968.7
-972.5
-822.041
-969.337
-922.231
-962.704
-1004.62
-954.501
-1083.89
-943.134
-1172.83
-928.832
-1262.13
-910.816
-1356.44
-888.964
-1451.97
-863.592
-1546.68
-836.565
-1633.12
-812.468
-1698.94
-799.642
-1724.08
-808.659
-1685.12
-845.772
-1568.27
-904.341
-1387.43
-965.468
-1186.4
-1011.22
-1017.16
-1029.43
-905.833
-993.355
-795.657
-870.744
-499.236
-736.802
65.2402
-682.802
557.808
-672.055
835.741
-664.49
1044.5
-653.695
1264.39
-641.384
1493.35
-628.685
1722
-615.604
1943.5
-601.985
2153.54
-587.853
2349.97
-573.231
2530.75
-558.148
2693.96
-542.689
2838.56
-526.928
2963.91
-510.917
3070.19
-494.689
3157.76
-478.259
3227.66
-461.551
3280.9
-444.43
3317.94
-426.809
3338.31
-408.7
3341.85
-390.122
3329.3
-371.069
3301.43
-351.513
3258.68
-331.447
3201.11
-310.875
3128.99
-289.803
3042.77
-268.268
2943.08
-246.215
2830.58
-223.475
2702.63
-199.936
2553.72
-175.708
2381.99
-150.714
2193.85
-124.378
1988.66
-96.2826
1752.67
-66.0774
1494.1
-32.7566
1243.03
2.93683
1008.14
37.6758
759.72
68.4204
518.284
90.9508
281.498
104.28
122.29
111.534
72.5362
112.928
109.285
110.564
199.84
110.484
298.921
114.438
369.135
119.528
398.163
123.121
393.43
125.08
361.244
127.284
309.533
132.321
236.046
148.204
163.875
153.444
8.55679
148.853
-325.128
125.325
-444.131
-8.05493
-995.082
-83.8072
-1963.79
-2056.78
-972.751
-824.885
-967.399
-927.583
-959.448
-1012.57
-949.309
-1094.03
-935.878
-1186.26
-919.161
-1278.85
-898.549
-1377.05
-874.144
-1476.38
-846.862
-1573.96
-819.793
-1660.19
-799.561
-1719.17
-796.726
-1726.92
-821.898
-1659.95
-876.306
-1513.86
-944.726
-1319.01
-1003.27
-1127.85
-1037.44
-982.991
-1045.55
-897.726
-1013.44
-827.77
-902.229
-610.444
-749.113
-87.8755
-667.751
476.446
-650.138
818.128
-645.569
1039.93
-639.134
1257.95
-630.147
1484.36
-619.868
1711.72
-608.819
1932.45
-597.004
2141.72
-584.395
2337.36
-571
2517.35
-556.891
2679.85
-542.202
2823.87
-527.037
2948.75
-511.474
3054.62
-495.573
3141.86
-479.364
3211.45
-462.787
3264.32
-445.722
3300.87
-428.106
3320.7
-409.965
3323.71
-391.325
3310.66
-372.185
3282.29
-352.525
3239.02
-332.342
3180.93
-311.644
3108.3
-290.445
3021.57
-268.783
2921.42
-246.59
2808.39
-223.685
2679.72
-199.944
2529.98
-175.456
2357.51
-150.065
2168.46
-123.064
1961.66
-93.8489
1723.46
-61.7109
1461.96
-25.1696
1206.49
14.7902
968.183
54.1424
720.368
89.5243
482.902
116.315
254.707
133.555
105.05
144.312
61.7788
149.056
104.541
149.697
199.199
150.595
298.023
152.671
367.059
153.946
396.887
152.981
394.395
150.429
363.797
148.875
311.087
150.862
234.059
163.593
151.144
168.984
3.16558
161.711
-317.855
145.221
-427.64
15.3981
-865.26
-83.8232
-1864.57
-2133.08
-971.321
-829.492
-964.029
-934.875
-954.227
-1022.38
-941.743
-1106.51
-925.823
-1202.18
-906.349
-1298.32
-882.941
-1400.46
-856.067
-1503.25
-827.528
-1602.5
-802.097
-1685.62
-788.842
-1732.42
-800.047
-1715.71
-843.981
-1616.02
-913.773
-1444.07
-985.71
-1247.07
-1035.09
-1078.47
-1054.01
-964.065
-1049.73
-902.007
-1019.03
-858.477
-924.942
-704.528
-766.613
-246.204
-658.712
368.544
-628.776
788.192
-624.126
1035.28
-621.415
1255.24
-616.412
1479.36
-609.254
1704.56
-600.653
1923.85
-590.944
2132.01
-580.17
2326.59
-568.306
2505.49
-555.432
2666.97
-541.719
2810.16
-527.312
2934.34
-512.324
3039.64
-496.846
3126.38
-480.928
3195.53
-464.527
3247.92
-447.549
3283.9
-429.956
3303.11
-411.789
3305.55
-393.085
3291.95
-373.849
3263.06
-354.069
3219.24
-333.748
3160.61
-312.901
3087.45
-291.55
3000.22
-269.731
2899.6
-247.368
2786.03
-224.262
2656.62
-200.281
2506
-175.485
2332.71
-149.628
2142.6
-121.857
1933.89
-91.3462
1692.95
-56.9692
1427.58
-16.7391
1166.26
28.0974
923.346
72.8187
675.647
113.687
442.034
145.677
222.717
167.715
83.0115
182.988
46.5066
192.577
94.9516
197.886
193.89
200.944
294.966
201.421
366.582
198.337
399.971
191.85
400.882
183.712
371.935
176.973
317.826
173.944
237.088
181.112
143.976
184.587
-0.309195
174.844
-308.112
164.591
-417.388
44.1531
-744.822
-70.9234
-1749.5
-2197.65
-967.472
-835.842
-958.1
-944.247
-946.113
-1034.36
-931.016
-1121.61
-912.337
-1220.86
-889.927
-1320.73
-863.728
-1426.66
-834.784
-1532.2
-806.177
-1631.11
-784.891
-1706.91
-782.575
-1734.74
-811.793
-1686.49
-875.082
-1552.73
-955.26
-1363.89
-1022.9
-1179.43
-1057.67
-1043.7
-1059.92
-961.811
-1042.75
-919.177
-1010.3
-890.925
-932.386
-782.444
-781.773
-396.817
-654.822
241.593
-609.903
743.273
-601.77
1027.15
-601.052
1254.53
-599.942
1478.25
-596.524
1701.14
-590.922
1918.25
-583.67
2124.76
-575.018
2317.93
-564.982
2495.45
-553.624
2655.62
-541.124
2797.66
-527.661
2920.88
-513.395
3025.37
-498.452
3111.43
-482.908
3179.99
-466.743
3231.76
-449.893
3267.05
-432.348
3285.56
-414.168
3287.37
-395.403
3273.19
-376.065
3243.72
-356.153
3199.33
-335.677
3140.13
-314.662
3066.44
-293.134
2978.69
-271.132
2877.6
-248.567
2763.46
-225.226
2633.28
-200.969
2481.74
-175.82
2307.56
-149.433
2116.21
-120.795
1905.25
-88.8313
1660.98
-51.9412
1390.69
-7.61576
1121.94
42.6009
873.13
93.3064
624.941
140.332
395.008
178.144
184.905
205.549
55.6064
226.035
26.0208
240.87
80.116
250.391
184.37
254.645
290.711
252.634
368.593
244.598
408.007
232.252
413.228
218.315
385.872
206.108
330.033
197.784
245.412
198.882
142.878
199.551
-0.978231
187.523
-296.084
181.72
-411.585
75.8795
-638.982
-59.1821
-1614.43
-2242.63
-961.22
-843.953
-949.483
-955.984
-934.918
-1048.93
-916.908
-1139.62
-895.228
-1242.54
-869.795
-1346.17
-841.007
-1455.44
-810.775
-1562.43
-783.962
-1657.92
-770.234
-1720.63
-783.339
-1721.63
-833.396
-1636.44
-913.489
-1472.64
-996.251
-1281.13
-1051.86
-1123.82
-1068.88
-1026.69
-1055.39
-975.301
-1026.78
-947.781
-990.66
-927.048
-925.23
-847.874
-791.062
-530.985
-653.814
104.345
-594.215
683.675
-580.043
1012.98
-579.06
1253.54
-580.883
1480.07
-581.407
1701.66
-579.357
1916.2
-575.009
2120.41
-568.792
2311.72
-560.866
2487.53
-551.311
2646.06
-540.286
2786.63
-527.983
2908.57
-514.609
3012
-500.333
3097.16
-485.263
3164.92
-469.407
3215.9
-452.736
3250.38
-435.273
3268.1
-417.102
3269.19
-398.283
3254.37
-378.843
3224.28
-358.789
3179.27
-338.146
3119.49
-316.942
3045.23
-295.215
2956.97
-273.003
2855.39
-250.206
2740.67
-226.598
2609.67
-202.028
2457.17
-176.482
2282.02
-149.506
2089.24
-119.91
1875.65
-86.3414
1627.41
-46.674
1351.03
2.12353
1073.14
58.1565
817.097
115.358
567.74
169.048
341.318
213.089
140.864
246.238
22.4576
272.198
0.0605234
291.662
60.6521
303.886
172.146
307.965
286.631
302.749
373.809
289.507
421.249
271.29
431.445
251.682
405.48
234.23
347.486
220.986
258.656
216.31
147.553
213.656
1.67617
199.575
-282.002
196.212
-408.222
109.195
-551.965
-35.2962
-1469.94
-2253.67
-952.181
-854.086
-937.661
-970.505
-920.224
-1066.36
-899.089
-1160.76
-874.304
-1267.33
-845.96
-1374.51
-815.106
-1486.3
-784.918
-1592.62
-762.607
-1680.23
-760.726
-1722.51
-793.554
-1688.81
-864.832
-1565.16
-955.56
-1381.91
-1031.69
-1205
-1069.42
-1086.09
-1068.24
-1027.86
-1041.56
-1001.98
-1004.12
-985.221
-964.109
-967.057
-907.231
-904.752
-793.092
-645.124
-653.119
-35.628
-580.642
611.197
-559.906
992.242
-556.713
1250.35
-559.844
1483.2
-563.886
1705.71
-565.705
1918.02
-564.736
2119.44
-561.333
2308.31
-555.81
2482.01
-548.332
2638.58
-539.052
2777.35
-528.152
2897.67
-515.869
2999.71
-502.413
3083.7
-487.934
3150.44
-472.475
3200.44
-456.049
3233.95
-438.714
3250.76
-420.578
3251.06
-401.721
3235.51
-382.182
3204.74
-361.984
3159.07
-341.16
3098.66
-319.752
3023.82
-297.806
2935.02
-275.359
2832.94
-252.301
2717.61
-228.394
2585.76
-203.477
2432.26
-177.493
2256.03
-149.87
2061.61
-119.231
1845.02
-83.9138
1592.1
-41.2205
1308.33
12.3921
1019.53
74.6429
754.846
138.783
503.599
199.467
280.635
249.852
90.4789
289.036
-16.7266
320.412
-31.3153
343.749
37.3148
357.102
158.794
359.644
284.089
350.762
382.691
332.447
439.563
308.597
455.296
283.542
430.534
261.095
369.932
243.261
276.49
233.184
157.63
226.854
8.00619
210.667
-265.815
207.083
-404.638
140.018
-484.901
-4.97015
-1324.95
-2242.67
-940.003
-866.471
-922.335
-988.173
-901.829
-1086.87
-877.462
-1185.12
-849.636
-1295.15
-818.744
-1405.4
-786.765
-1518.28
-758.653
-1620.73
-744.503
-1694.38
-759.286
-1707.73
-814.78
-1633.31
-904.014
-1475.92
-996.16
-1289.76
-1057.05
-1144.12
-1074.13
-1069.02
-1056.75
-1045.24
-1020.28
-1038.45
-976.996
-1028.51
-934.124
-1009.93
-882.872
-956.005
-786.624
-741.371
-649.18
-173.073
-566.987
529.005
-541.145
966.4
-535.103
1244.31
-537.802
1485.9
-544.286
1712.19
-549.856
1923.59
-552.62
2122.21
-552.449
2308.14
-549.665
2479.22
-544.537
2633.46
-537.267
2770.08
-528.027
2888.43
-517.057
2988.74
-504.601
3071.25
-490.851
3136.69
-475.895
3185.49
-459.792
3217.85
-442.642
3233.61
-424.581
3233
-405.708
3216.64
-386.08
3185.11
-365.736
3138.73
-344.725
3077.65
-323.098
3002.2
-300.914
2912.84
-278.21
2810.24
-254.863
2694.26
-230.627
2561.53
-205.33
2406.96
-178.869
2229.57
-150.547
2033.29
-118.787
1813.26
-81.5823
1554.89
-35.6263
1262.38
23.1548
960.747
92.0308
685.97
163.485
432.145
231.436
212.683
287.594
34.3212
332.451
-61.5835
368.752
-67.6164
395.746
10.3205
409.61
144.93
409.748
283.951
396.716
395.724
373.426
462.853
344.237
484.485
313.976
460.796
286.718
397.189
264.471
298.738
249.406
172.695
239.219
18.1936
220.645
-247.242
213.943
-397.936
163.664
-434.622
19.2181
-1180.51
-2204.67
-924.379
-881.34
-903.276
-1009.28
-879.65
-1110.5
-852.108
-1212.66
-821.533
-1325.73
-788.789
-1438.15
-757.18
-1549.89
-734.033
-1643.87
-732.594
-1695.82
-768.59
-1671.74
-846.849
-1555.05
-946.685
-1376.09
-1029.77
-1206.68
-1069.49
-1104.39
-1066.52
-1071.99
-1036.54
-1075.22
-993.882
-1081.1
-947.566
-1074.82
-903.288
-1054.21
-855.996
-1003.3
-773.7
-823.668
-640.963
-305.809
-551.306
439.348
-522.471
937.565
-514.615
1236.45
-515.802
1487.09
-523.267
1719.66
-531.943
1932.26
-538.512
2128.78
-541.934
2311.56
-542.262
2479.55
-539.785
2630.98
-534.784
2765.08
-527.457
2881.11
-518.043
2979.33
-506.79
3059.99
-493.93
3123.83
-479.601
3171.16
-463.917
3202.16
-447.023
3216.72
-429.084
3215.06
-410.226
3197.78
-390.526
3165.41
-370.042
3118.25
-348.84
3056.45
-326.984
2980.34
-304.546
2890.4
-281.562
2787.25
-257.902
2670.6
-233.308
2536.93
-207.602
2381.25
-180.628
2202.6
-151.559
2004.22
-118.603
1780.3
-79.3746
1515.66
-29.9066
1212.91
34.4424
896.398
110.397
610.015
189.506
353.036
264.952
137.237
326.496
-27.223
375.878
-110.965
415.938
-107.677
445.999
-19.7402
460.425
130.504
458.229
286.146
440.892
413.061
412.618
491.127
378.281
518.822
343.011
496.067
311.065
429.135
284.481
325.322
264.864
192.312
250.875
32.1826
229.434
-225.8
217.153
-385.655
178.041
-395.51
45.7366
-1048.2
-2133.91
-905.135
-898.819
-880.474
-1033.94
-853.843
-1137.13
-823.385
-1243.12
-790.621
-1358.49
-757.138
-1471.63
-728.08
-1578.95
-713.741
-1658.21
-730.078
-1679.48
-790.249
-1611.56
-887.239
-1458.06
-987.099
-1276.23
-1051.86
-1141.92
-1068.4
-1087.85
-1048.68
-1091.71
-1010.36
-1113.55
-964.773
-1126.69
-917.753
-1121.84
-873.368
-1098.59
-829.035
-1047.63
-757.729
-894.974
-630.643
-432.895
-532.962
341.668
-502.356
906.959
-494.659
1228.75
-494.513
1486.94
-501.695
1726.84
-512.392
1942.96
-522.432
2138.81
-529.626
2318.76
-533.413
2483.34
-533.919
2631.48
-531.461
2762.62
-526.296
2875.94
-518.68
2971.71
-508.857
3050.17
-497.073
3112.05
-483.517
3157.6
-468.365
3187.01
-451.811
3200.17
-434.058
3197.3
-415.255
3178.98
-395.507
3145.66
-374.894
3097.63
-353.5
3035.06
-331.409
2958.25
-308.703
2867.69
-285.421
2763.97
-261.423
2646.6
-236.446
2511.96
-210.302
2355.11
-182.783
2175.08
-152.924
1974.36
-118.699
1746.07
-77.3086
1474.27
-24.043
1159.64
46.3589
825.996
129.943
526.432
217.134
265.845
299.003
55.3679
365.997
-94.2173
419.479
-164.446
462.452
-150.65
494.37
-51.6574
508.98
115.894
504.776
290.35
483.398
434.44
450.199
524.326
410.81
558.211
370.654
536.222
334.083
465.706
303.201
356.204
279.469
216.044
261.918
49.7338
237.05
-200.933
217.359
-365.964
183.515
-361.665
68.7345
-933.424
-2059.48
-882.296
-918.92
-854.141
-1062.09
-824.812
-1166.46
-791.923
-1276.01
-757.846
-1392.57
-725.25
-1504.23
-701.761
-1602.44
-700.964
-1659.01
-739.777
-1640.67
-823.87
-1527.47
-931.075
-1350.86
-1019.38
-1187.92
-1060.07
-1101.23
-1055.28
-1092.65
-1023.64
-1123.34
-981.037
-1156.15
-935.118
-1172.6
-889.022
-1167.94
-845.326
-1142.29
-802.999
-1089.96
-740.236
-957.737
-619.921
-553.21
-512.423
234.169
-479.826
874.362
-473.999
1222.93
-473.878
1486.82
-480.336
1733.3
-491.865
1954.49
-504.616
2151.57
-515.468
2329.61
-522.952
2490.82
-526.769
2635.3
-527.153
2763.01
-524.405
2873.19
-518.826
2966.13
-510.664
3042.01
-500.165
3101.55
-487.553
3144.99
-473.066
3172.52
-456.955
3184.06
-439.461
3179.81
-420.766
3160.28
-401.002
3125.9
-380.278
3076.91
-358.699
3013.48
-336.368
2935.92
-313.384
2844.71
-289.787
2740.37
-265.429
2622.24
-240.045
2486.57
-213.439
2328.5
-185.347
2146.98
-154.657
1943.67
-119.096
1710.51
-75.3907
1430.57
-17.9784
1102.23
59.1015
748.916
151.039
434.495
247.143
169.74
333.592
-31.0818
404.454
-165.079
462.048
-222.041
508.199
-196.801
541.447
-84.9048
555.651
101.69
549.348
296.652
524.208
459.58
486.254
562.28
441.887
602.578
396.899
581.21
355.717
506.888
320.62
391.302
293.244
243.42
272.367
70.6102
243.471
-172.036
215.423
-337.917
182.583
-328.825
80.2328
-831.074
-1963.29
-856.119
-941.503
-824.75
-1093.46
-793.218
-1197.99
-758.621
-1310.61
-724.472
-1426.72
-695.035
-1533.66
-681.075
-1616.4
-699.043
-1641.04
-763.23
-1576.49
-866.422
-1424.28
-972.03
-1245.25
-1039.12
-1120.83
-1054.64
-1085.71
-1033.15
-1114.14
-994.644
-1161.85
-951.039
-1199.76
-906.515
-1217.13
-862.173
-1212.28
-819.341
-1185.12
-777.896
-1131.4
-721.374
-1014.26
-609.566
-665.018
-490.873
115.476
-454.681
838.17
-451.402
1219.65
-453.144
1488.57
-459.504
1739.66
-471.079
1966.06
-485.528
2166.01
-499.563
2343.64
-510.777
2502.04
-518.17
2642.69
-521.705
2766.54
-521.648
2873.14
-518.343
2962.83
-512.07
3035.73
-503.077
3092.56
-491.604
3133.51
-477.939
3158.86
-462.391
3168.51
-445.246
3162.67
-426.724
3141.76
-406.989
3106.16
-386.179
3056.1
-364.427
2991.73
-341.858
2913.35
-318.588
2821.44
-294.66
2716.45
-269.923
2597.51
-244.11
2460.76
-217.02
2301.42
-188.33
2118.29
-156.773
1912.12
-119.806
1673.55
-73.6131
1384.37
-11.6037
1040.22
73.0023
664.31
174.35
333.147
278.666
65.4247
368.848
-121.264
441.898
-238.129
502.738
-282.88
552.223
-246.286
587.1
-119.782
600.814
87.9756
592.146
305.321
563.312
488.413
520.789
604.803
471.532
651.836
421.713
631.029
375.928
552.673
336.806
430.424
306.249
273.976
282.081
94.7786
248.58
-138.534
212.128
-301.465
178.289
-294.986
93.9201
-746.705
-1871.24
-827.105
-966.28
-793
-1127.56
-759.933
-1231.06
-724.607
-1345.93
-692.08
-1459.24
-668.882
-1556.86
-669.3
-1615.98
-710.806
-1599.54
-799.701
-1487.59
-912.381
-1311.6
-1003.96
-1153.68
-1044.5
-1080.29
-1037.98
-1092.24
-1005.61
-1146.5
-964.54
-1202.92
-922.132
-1242.17
-879.807
-1259.45
-837.271
-1254.82
-794.915
-1227.48
-753.11
-1173.21
-700.503
-1066.87
-598.926
-766.595
-470.669
-12.781
-427.334
794.835
-426.05
1218.36
-431.219
1493.73
-438.888
1747.33
-450.53
1977.71
-465.778
2181.26
-482.209
2360.08
-496.897
2516.72
-507.995
2653.79
-514.96
2773.51
-517.882
2876.06
-517.102
2962.05
-512.941
3031.57
-505.674
3085.29
-495.55
3123.39
-482.888
3146.2
-468.046
3153.67
-451.358
3145.98
-433.087
3123.49
-413.436
3086.51
-392.576
3035.24
-370.67
2969.82
-347.869
2890.55
-324.309
2797.88
-300.039
2692.18
-274.905
2572.37
-248.644
2434.5
-221.053
2273.82
-191.743
2088.98
-159.288
1879.66
-120.843
1635.1
-71.9509
1335.48
-4.73534
973.005
88.6015
570.973
201.411
220.338
311.033
-44.1976
402.991
-213.223
478.287
-313.425
541.738
-346.331
594.018
-298.566
630.726
-156.49
644.321
74.3801
633.298
316.345
600.745
520.966
553.779
651.768
499.718
705.897
445.053
685.693
394.705
603.02
351.857
473.273
318.377
307.456
290.626
122.529
252.18
-100.088
207.872
-257.157
171.778
-258.893
94.8178
-669.745
-1770.5
-795.962
-992.832
-759.761
-1163.77
-725.981
-1264.84
-691.206
-1380.71
-662.601
-1487.85
-649.665
-1569.8
-669.787
-1595.86
-737.588
-1531.73
-845.57
-1379.61
-954.867
-1202.3
-1022.62
-1085.92
-1036.55
-1066.36
-1013.77
-1115.02
-976.013
-1184.26
-935.384
-1243.55
-895.226
-1282.32
-855.048
-1299.63
-813.741
-1296.13
-771.104
-1270.11
-727.739
-1216.57
-676.674
-1117.93
-584.557
-858.712
-450.626
-146.712
-398.165
742.374
-397.653
1217.85
-407.121
1503.2
-417.681
1757.89
-430.267
1990.29
-445.945
2196.94
-463.884
2378.01
-481.478
2534.32
-496.194
2668.51
-506.78
2784.1
-512.96
2882.24
-514.972
2964.06
-513.151
3029.75
-507.824
3079.96
-499.264
3114.83
-487.805
3134.74
-473.834
3139.69
-457.731
3129.87
-439.807
3105.57
-420.308
3067.01
-399.444
3014.38
-377.412
2947.79
-354.392
2867.53
-330.544
2774.03
-305.923
2667.56
-280.377
2546.83
-253.652
2407.77
-225.543
2245.72
-195.596
2059.04
-162.213
1846.28
-122.215
1595.1
-70.3571
1283.62
2.92519
899.723
106.837
467.062
231.106
96.0685
343.447
-156.539
435.513
-305.289
513.06
-390.971
579.221
-412.492
633.763
-353.108
672.049
-194.776
685.825
60.604
672.726
329.443
636.504
557.188
585.174
703.099
526.377
764.694
466.875
745.196
412.064
657.831
365.765
519.571
329.246
343.975
297.468
154.307
253.947
-56.5665
202.947
-206.157
164.927
-220.872
99.8854
-604.703
-1655.69
-763.525
-1020.65
-725.987
-1201.3
-692.486
-1298.34
-659.959
-1413.24
-638.382
-1509.43
-640.645
-1567.53
-685.252
-1551.25
-778.199
-1438.79
-894.633
-1263.17
-987.514
-1109.42
-1026.74
-1046.7
-1018.37
-1074.72
-985.821
-1147.57
-946.849
-1223.23
-908.246
-1282.15
-870.375
-1320.19
-831.638
-1338.37
-790.598
-1337.16
-746.798
-1313.91
-700.927
-1262.44
-649.372
-1169.49
-564.244
-943.84
-427.758
-283.198
-367.015
681.631
-366.48
1217.32
-380.303
1517.02
-394.89
1772.47
-409.815
2005.22
-426.329
2213.45
-445.136
2396.82
-464.855
2554.04
-482.83
2686.48
-497.075
2798.34
-506.74
2891.9
-511.813
2969.13
-512.579
3030.52
-509.407
3076.79
-502.62
3108.04
-492.571
3124.69
-479.658
3126.78
-464.289
3114.5
-446.826
3088.11
-427.563
3047.75
-406.755
2993.57
-384.634
2925.67
-361.416
2844.31
-337.287
2749.9
-312.31
2642.58
-286.341
2520.86
-259.138
2380.57
-230.498
2217.08
-199.899
2028.44
-165.563
1811.94
-123.927
1553.47
-68.7603
1228.46
11.8329
819.129
130.012
348.882
262.017
-35.9364
373.441
-267.963
466.104
-397.951
545.756
-470.623
614.787
-481.523
671.536
-409.857
711.14
-234.38
725.134
46.6101
710.232
344.346
670.499
596.921
614.886
758.711
551.416
828.165
487.129
809.482
428.003
716.957
378.35
569.225
338.336
383.989
301.914
190.729
253.067
-7.71923
196.62
-149.71
157.858
-182.111
106.206
-553.051
-1555.08
-730.667
-1049.16
-692.655
-1239.32
-660.677
-1330.31
-632.711
-1441.2
-622.246
-1519.89
-645.113
-1544.67
-716.724
-1479.64
-828.356
-1327.15
-939.477
-1152.05
-1006.27
-1042.63
-1017.96
-1035.01
-993.974
-1098.7
-957.225
-1184.32
-919.515
-1260.94
-883.251
-1318.41
-846.952
-1356.49
-808.58
-1376.74
-766.753
-1378.99
-721.023
-1359.64
-672.105
-1311.36
-618.746
-1222.84
-538.607
-1023.98
-402.024
-419.781
-333.919
613.526
-333.112
1216.51
-350.708
1534.62
-369.705
1791.47
-388.339
2023.85
-406.753