/*--------------------------------*- C++ -*----------------------------------*\
| =========                 |                                                 |
| \\      /  F ield         | OpenFOAM: The Open Source CFD Toolbox           |
|  \\    /   O peration     | Version:  4.1                                   |
|   \\  /    A nd           | Web:      www.OpenFOAM.org                      |
|    \\/     M anipulation  |                                                 |
\*---------------------------------------------------------------------------*/
FoamFile
{
    version     2.0;
    format      ascii;
    class       volSymmTensorField;
    location    "28";
    object      turbulenceProperties:R;
}
// * * * * * * * * * * * * * * * * * * * * * * * * * * * * * * * * * * * * * //

dimensions      [0 2 -2 0 0 0 0];

internalField   nonuniform List<symmTensor> 
6785
(
(0.753313 1.40665e-19 7.54722e-20 0.753189 0.000165748 0.753498)
(0.753354 -1.06904e-19 -5.30976e-20 0.75332 5.96891e-06 0.753326)
(0.753325 -3.95616e-20 -2.8643e-20 0.753359 3.81377e-05 0.753316)
(0.753334 2.38562e-20 1.26048e-20 0.753344 2.59015e-05 0.753322)
(0.753332 -2.74845e-20 -7.85415e-21 0.753346 2.6459e-05 0.753322)
(0.753333 1.28179e-20 -2.92604e-21 0.753342 2.34573e-05 0.753325)
(0.753332 2.19503e-21 2.80614e-21 0.753341 2.18161e-05 0.753327)
(0.753333 -2.21138e-20 -8.15206e-21 0.753338 2.01061e-05 0.753329)
(0.753333 8.88372e-21 8.55573e-23 0.753336 1.85945e-05 0.753331)
(0.753333 3.77463e-21 4.95889e-21 0.753334 1.72677e-05 0.753334)
(0.753332 -1.46716e-20 -3.61761e-21 0.753332 1.61688e-05 0.753336)
(0.753334 4.67108e-21 -1.37761e-21 0.753328 1.2152e-05 0.753338)
(0.753334 -4.21528e-23 4.61565e-21 0.753329 7.85412e-06 0.753337)
(0.753319 -8.08273e-21 5.07325e-22 0.75336 1.49708e-05 0.753321)
(0.753347 3.21806e-21 -2.23889e-21 0.753389 -7.33217e-05 0.753263)
(0.75333 1.86363e-19 1.20515e-19 0.753011 0.00021756 0.753659)
(0.753351 -1.29663e-19 -7.43088e-20 0.75334 -1.55683e-05 0.753309)
(0.753325 -5.40081e-20 -3.24641e-20 0.753378 1.17403e-05 0.753297)
(0.753341 1.89556e-20 3.03244e-20 0.753353 -6.28221e-06 0.753307)
(0.753333 -1.83498e-20 -1.03023e-20 0.753362 1.20494e-06 0.753305)
(0.753336 7.31893e-21 3.06702e-21 0.753356 -2.63622e-06 0.753308)
(0.753334 -9.38598e-21 6.48857e-21 0.753357 -1.8475e-06 0.753309)
(0.753335 -1.15402e-20 -6.13907e-21 0.753354 -2.93631e-06 0.753311)
(0.753334 2.83646e-21 8.08176e-22 0.753353 -3.98537e-06 0.753312)
(0.753334 -5.49902e-21 7.37861e-21 0.753351 -6.81539e-06 0.753314)
(0.753334 -6.66427e-21 -3.84291e-21 0.753349 -1.22327e-05 0.753317)
(0.753334 2.69349e-21 2.62595e-22 0.753345 -2.08316e-05 0.753321)
(0.753336 -4.36181e-21 4.84412e-21 0.753348 -3.17244e-05 0.753316)
(0.753334 -2.76595e-21 1.67723e-22 0.753372 -4.21258e-05 0.753294)
(0.753331 5.3891e-21 5.28135e-21 0.753392 -4.11617e-05 0.753277)
(0.753329 2.11306e-19 5.63315e-20 0.752968 0.000224708 0.753703)
(0.753339 -1.32453e-19 -6.61165e-20 0.753349 -1.44189e-05 0.753312)
(0.753325 -4.17558e-20 -2.51705e-20 0.753371 -3.54886e-07 0.753304)
(0.753337 3.05987e-20 -2.48782e-20 0.753352 -1.41351e-05 0.753311)
(0.75333 -9.36815e-21 -1.61991e-20 0.753361 -5.11374e-06 0.753309)
(0.753334 3.67998e-21 2.00142e-21 0.753354 -9.4533e-06 0.753313)
(0.753332 7.82399e-21 -2.92815e-20 0.753355 -6.78373e-06 0.753313)
(0.753333 -4.24346e-21 -3.01002e-21 0.753354 -8.60669e-06 0.753313)
(0.753333 2.70987e-21 1.57985e-21 0.753363 -1.3229e-05 0.753305)
(0.753333 6.64215e-21 -2.15577e-20 0.753382 -2.61346e-05 0.753286)
(0.753333 4.50814e-21 8.3086e-22 0.753401 -4.28439e-05 0.753266)
(0.753333 -2.61198e-21 -2.59182e-21 0.753393 -4.5689e-05 0.753275)
(0.753331 -2.30679e-20 -1.47192e-20 0.753354 -2.67419e-05 0.753314)
(0.753331 -1.73968e-20 -1.59087e-20 0.753325 -8.94602e-06 0.753345)
(0.753333 3.25755e-20 1.94274e-20 0.753304 3.68859e-06 0.753362)
(0.753332 1.78479e-19 1.24291e-19 0.752949 0.00022486 0.75372)
(0.753337 -1.17857e-19 -1.04066e-19 0.753349 -1.30085e-05 0.753314)
(0.753329 -5.14778e-20 -6.5789e-21 0.753365 -7.33111e-06 0.753306)
(0.753337 1.58576e-20 9.16124e-21 0.75335 -1.66464e-05 0.753312)
(0.75333 -3.39357e-21 -3.51831e-20 0.753359 -7.22919e-06 0.75331)
(0.753335 -2.6813e-21 9.10467e-21 0.75335 -1.29419e-05 0.753314)
(0.753332 -1.9174e-21 -1.46541e-21 0.753353 -8.15988e-06 0.753315)
(0.753334 5.93523e-21 -2.1786e-20 0.753351 -1.07417e-05 0.753315)
(0.753333 -6.6248e-21 6.69926e-21 0.753358 -1.28522e-05 0.753309)
(0.753333 1.03316e-20 5.72966e-21 0.753376 -2.24062e-05 0.753291)
(0.753334 8.90771e-21 -8.06228e-21 0.753405 -3.5546e-05 0.753262)
(0.753334 1.5554e-20 9.53943e-21 0.753413 -3.64878e-05 0.753253)
(0.753332 4.17653e-20 2.00125e-20 0.753396 -2.36263e-05 0.753271)
(0.753339 -3.699e-20 -2.07429e-20 0.753359 -2.26222e-05 0.753302)
(0.753333 -3.9012e-20 -2.95517e-20 0.75327 3.04773e-05 0.753397)
(0.753332 2.08028e-19 9.95105e-20 0.752945 0.000220641 0.753723)
(0.753336 -1.13185e-19 -1.02977e-19 0.753342 -8.86221e-06 0.753322)
(0.75333 -4.89028e-20 -4.02985e-20 0.753369 -1.43062e-05 0.753301)
(0.753337 2.64534e-20 2.97867e-21 0.753351 -1.93816e-05 0.753312)
(0.753331 3.32345e-21 -3.35442e-20 0.753358 -1.03261e-05 0.753311)
(0.753336 1.75566e-21 -9.75567e-21 0.75335 -1.65573e-05 0.753314)
(0.753332 6.14341e-21 -7.41215e-21 0.753353 -1.17278e-05 0.753314)
(0.753334 6.70782e-21 -2.05058e-20 0.75335 -1.4252e-05 0.753316)
(0.753333 1.8197e-21 -1.26927e-20 0.753353 -1.41793e-05 0.753314)
(0.753334 1.13987e-20 -4.00612e-21 0.75336 -1.79428e-05 0.753306)
(0.753333 1.13285e-20 -9.96653e-21 0.753375 -2.21786e-05 0.753291)
(0.753334 -1.733e-21 -5.33233e-21 0.753388 -2.42741e-05 0.753278)
(0.753331 7.37738e-21 4.86503e-21 0.753401 -2.20191e-05 0.753268)
(0.753338 2.39452e-20 2.29932e-20 0.7534 -3.69411e-05 0.753262)
(0.753331 -5.05739e-20 -3.04206e-20 0.753306 2.48518e-05 0.753363)
(0.753333 2.01218e-19 1.35366e-19 0.752957 0.000210495 0.75371)
(0.753335 -1.27347e-19 -5.51123e-20 0.75333 -2.16625e-06 0.753335)
(0.753331 -8.53151e-20 -1.73949e-20 0.753374 -1.96507e-05 0.753296)
(0.753336 1.73095e-20 8.77969e-21 0.753355 -2.07767e-05 0.753309)
(0.753331 -1.33913e-20 2.53715e-21 0.753358 -1.2214e-05 0.753311)
(0.753335 -1.65037e-20 1.33533e-20 0.753352 -1.74807e-05 0.753313)
(0.753332 2.09356e-21 1.10886e-21 0.753355 -1.35242e-05 0.753313)
(0.753334 -7.69798e-21 6.15276e-21 0.753352 -1.54511e-05 0.753314)
(0.753333 -2.02843e-20 1.05287e-20 0.753353 -1.44756e-05 0.753314)
(0.753333 -2.77886e-22 -6.20099e-22 0.753355 -1.5535e-05 0.753312)
(0.753333 6.94197e-22 7.48722e-21 0.753361 -1.6488e-05 0.753306)
(0.753334 -9.25284e-21 5.30825e-21 0.753369 -1.87064e-05 0.753298)
(0.753332 -1.08446e-20 -5.20409e-21 0.753384 -2.08342e-05 0.753284)
(0.753336 3.59352e-20 2.37229e-20 0.753396 -3.35873e-05 0.753267)
(0.75333 -3.60813e-20 -2.56969e-20 0.753347 8.74165e-06 0.753323)
(0.753333 2.13133e-19 1.44042e-19 0.752975 0.000201421 0.753692)
(0.753334 -1.17839e-19 -5.7521e-20 0.75332 3.8586e-06 0.753346)
(0.753332 -1.00862e-19 -3.49695e-20 0.753375 -2.23427e-05 0.753293)
(0.753335 1.67207e-21 1.63743e-21 0.753358 -2.12663e-05 0.753307)
(0.753331 -1.55035e-21 1.7599e-20 0.753357 -1.29946e-05 0.753311)
(0.753335 -1.3094e-20 1.24128e-20 0.753353 -1.66233e-05 0.753312)
(0.753333 -4.16801e-21 -2.99035e-21 0.753355 -1.32723e-05 0.753313)
(0.753334 1.10818e-21 1.09626e-20 0.753353 -1.40192e-05 0.753314)
(0.753333 -1.19221e-20 1.31532e-20 0.753353 -1.26531e-05 0.753314)
(0.753333 -8.68534e-21 -6.49113e-21 0.753353 -1.25101e-05 0.753314)
(0.753333 4.85234e-21 1.29131e-20 0.753354 -1.21761e-05 0.753312)
(0.753334 -2.7514e-21 9.94478e-21 0.753358 -1.30216e-05 0.753308)
(0.753333 -2.58671e-20 -1.60322e-20 0.753369 -1.46384e-05 0.753298)
(0.753336 3.6325e-20 1.60149e-20 0.753388 -2.6972e-05 0.753277)
(0.753331 -3.72056e-20 -1.78788e-20 0.75338 -1.24383e-05 0.753288)
(0.753333 2.32875e-19 1.1494e-19 0.75299 0.000195342 0.753677)
(0.753334 -1.01268e-19 -5.86196e-20 0.753316 5.56757e-06 0.753351)
(0.753332 -8.48163e-20 -6.18704e-20 0.753374 -2.35449e-05 0.753294)
(0.753335 -9.13238e-21 -3.14005e-21 0.75336 -2.18104e-05 0.753305)
(0.753332 6.70336e-21 3.79178e-21 0.753357 -1.38104e-05 0.753311)
(0.753334 7.7989e-22 -9.10882e-21 0.753351 -1.62013e-05 0.753314)
(0.753333 -1.70237e-21 -3.82583e-21 0.753352 -1.32699e-05 0.753315)
(0.753334 2.27912e-21 1.45227e-21 0.75335 -1.40761e-05 0.753317)
(0.753333 4.77811e-21 -5.25656e-21 0.75335 -1.29712e-05 0.753317)
(0.753333 -6.09276e-21 5.33163e-22 0.753349 -1.18949e-05 0.753318)
(0.753333 -3.74148e-21 -2.29722e-21 0.753349 -9.43395e-06 0.753318)
(0.753333 4.94294e-21 -1.64303e-22 0.753349 -6.6423e-06 0.753317)
(0.753333 -1.43173e-20 -7.37427e-21 0.753355 -5.05876e-06 0.753312)
(0.753334 1.77258e-21 3.79259e-22 0.753378 -1.64772e-05 0.753288)
(0.753332 -8.18876e-21 3.49887e-21 0.753423 -3.57919e-05 0.753245)
(0.753334 2.27211e-19 1.31374e-19 0.753003 0.000192255 0.753663)
(0.753333 -1.16546e-19 -6.28469e-20 0.753322 2.8561e-06 0.753345)
(0.753333 -7.05125e-20 -6.99076e-20 0.753372 -2.31481e-05 0.753296)
(0.753335 4.16668e-21 2.88659e-21 0.753362 -2.0276e-05 0.753303)
(0.753332 -8.10029e-21 -3.36995e-21 0.75336 -1.43867e-05 0.753308)
(0.753334 1.04304e-20 -1.49906e-20 0.753356 -1.82162e-05 0.75331)
(0.753333 3.50024e-21 3.29401e-21 0.753355 -1.69468e-05 0.753313)
(0.753334 -1.87308e-20 -1.00147e-20 0.753349 -1.84903e-05 0.753318)
(0.753333 6.41852e-21 -1.16434e-20 0.753344 -1.56503e-05 0.753323)
(0.753333 1.29141e-20 8.7305e-21 0.753337 -1.16934e-05 0.75333)
(0.753333 -1.8813e-20 -9.04017e-21 0.753331 -4.42665e-06 0.753336)
(0.753333 3.79866e-21 -1.08993e-20 0.753329 3.30714e-06 0.753338)
(0.753333 6.19828e-21 7.45418e-21 0.753337 5.72395e-06 0.75333)
(0.753333 -2.21317e-20 -1.14616e-20 0.753367 -6.45957e-06 0.7533)
(0.753333 2.58142e-20 9.07149e-21 0.753479 -6.92256e-05 0.753188)
(0.753333 2.06132e-19 8.85304e-20 0.752999 0.000198959 0.753667)
(0.753334 -1.23474e-19 -6.72151e-20 0.753339 -8.39774e-07 0.753327)
(0.753332 -5.78895e-20 -4.10756e-20 0.753368 -1.53055e-05 0.753299)
(0.753334 1.57454e-20 -1.94764e-20 0.753363 -1.3994e-05 0.753303)
(0.753332 -1.08779e-20 -4.6143e-21 0.75337 -1.41031e-05 0.753297)
(0.753334 1.09729e-21 -8.60542e-21 0.753375 -2.18603e-05 0.753291)
(0.753333 1.53879e-20 -1.01306e-20 0.753376 -2.33416e-05 0.753291)
(0.753334 -2.44387e-21 -1.95459e-21 0.753367 -2.2854e-05 0.753299)
(0.753333 -7.88186e-22 -8.85862e-21 0.753353 -1.67714e-05 0.753314)
(0.753333 -2.58986e-21 -1.40192e-20 0.75333 -7.17614e-06 0.753337)
(0.753333 -2.58745e-20 -1.86178e-20 0.753303 5.2494e-06 0.753363)
(0.753333 -1.28033e-20 -1.79624e-20 0.753289 1.28318e-05 0.753378)
(0.753334 1.56162e-20 -1.38037e-20 0.753299 8.58519e-06 0.753367)
(0.753332 -5.70488e-21 -3.27594e-21 0.75335 -9.2624e-06 0.753318)
(0.753334 4.34477e-20 1.83948e-20 0.753516 -0.000104597 0.75315)
(0.753332 1.92317e-19 1.0092e-19 0.752961 0.000213737 0.753707)
(0.753335 -1.37252e-19 -6.86766e-20 0.753342 2.22279e-06 0.753323)
(0.753332 -2.63303e-20 -8.68239e-20 0.753377 -1.16059e-05 0.753291)
(0.753334 1.90987e-20 8.67505e-21 0.753359 -7.40031e-06 0.753307)
(0.753332 -1.90718e-20 2.99234e-21 0.75337 -9.83896e-06 0.753297)
(0.753334 1.85041e-20 -4.14017e-20 0.753382 -1.84463e-05 0.753284)
(0.753333 1.88396e-20 1.04697e-20 0.753388 -1.95967e-05 0.753279)
(0.753333 1.37255e-20 1.62858e-20 0.753384 -1.9076e-05 0.753282)
(0.753333 1.88543e-20 -1.659e-20 0.75338 -1.73307e-05 0.753288)
(0.753333 1.75758e-20 6.99951e-21 0.75337 -1.63436e-05 0.753297)
(0.753333 2.88431e-21 -2.57825e-21 0.753347 -1.11214e-05 0.75332)
(0.753333 -2.06577e-20 -3.5113e-20 0.753309 -8.98562e-07 0.753358)
(0.753334 -3.40834e-20 -2.55964e-20 0.753275 6.69815e-06 0.753391)
(0.75333 -2.15323e-20 -3.97425e-20 0.753301 -3.64456e-06 0.753369)
(0.753335 2.25562e-20 -2.40887e-22 0.753451 -8.96376e-05 0.753214)
(0.753332 1.90422e-19 1.15826e-19 0.752953 0.000200667 0.753715)
(0.753335 -8.93134e-20 -3.52136e-20 0.753284 2.52954e-05 0.753381)
(0.753333 -6.44419e-20 -8.97104e-20 0.753376 -1.20651e-05 0.753291)
(0.753334 -2.0157e-20 -1.47023e-20 0.753368 -1.21524e-05 0.753298)
(0.753333 -1.09346e-20 6.30144e-21 0.753364 -9.39916e-06 0.753303)
(0.753334 2.38885e-20 -2.20201e-20 0.753371 -1.44736e-05 0.753295)
(0.753333 7.47103e-22 -6.75103e-23 0.753381 -1.623e-05 0.753286)
(0.753334 1.03138e-20 2.9162e-20 0.753383 -1.7135e-05 0.753283)
(0.753334 2.60289e-20 5.33955e-21 0.753385 -1.64408e-05 0.753281)
(0.753334 1.74795e-20 1.17333e-20 0.753387 -1.75938e-05 0.75328)
(0.753334 2.83388e-20 1.91695e-20 0.753388 -1.98374e-05 0.753278)
(0.753334 -1.73632e-20 -1.251e-20 0.753384 -2.19966e-05 0.753282)
(0.753333 -3.49415e-20 -2.02388e-20 0.753357 -1.51623e-05 0.75331)
(0.753334 -2.1954e-20 -1.51594e-20 0.75331 -2.41096e-06 0.753356)
(0.753335 -2.55484e-20 -1.95494e-20 0.753314 -1.37456e-05 0.753352)
(0.753332 1.86297e-19 9.77002e-20 0.75302 0.000149198 0.753649)
(0.753334 -1.8206e-21 -2.44519e-20 0.753204 5.70825e-05 0.753462)
(0.753333 -8.25765e-20 -3.40162e-20 0.753336 -1.07242e-07 0.753331)
(0.753334 -3.94045e-20 -6.86972e-20 0.753369 -1.98528e-05 0.753297)
(0.753333 -2.38535e-20 -1.4525e-20 0.753366 -1.96773e-05 0.753301)
(0.753334 2.16382e-21 1.4787e-21 0.753361 -1.88404e-05 0.753305)
(0.753333 2.76008e-21 -1.1481e-20 0.753363 -1.7298e-05 0.753304)
(0.753333 -1.84485e-20 2.60033e-20 0.753366 -1.66282e-05 0.7533)
(0.753333 1.82152e-20 1.74913e-21 0.75337 -1.54358e-05 0.753297)
(0.753333 3.71625e-21 4.37482e-21 0.753374 -1.47877e-05 0.753293)
(0.753333 7.84869e-21 1.56782e-20 0.753379 -1.42047e-05 0.753288)
(0.753333 1.03415e-20 5.74376e-21 0.753384 -1.48279e-05 0.753282)
(0.753332 -1.39044e-20 -5.75538e-21 0.753392 -1.38224e-05 0.753276)
(0.753338 -1.14431e-20 -5.41984e-21 0.753394 -3.22964e-05 0.753267)
(0.753331 -2.30268e-20 -1.28467e-20 0.753323 1.16693e-05 0.753346)
(0.753337 1.48055e-19 9.71297e-20 0.753147 8.53129e-05 0.753516)
(0.753333 3.7951e-20 1.1007e-20 0.753144 9.92119e-05 0.753523)
(0.753333 -4.74412e-20 -8.05182e-20 0.753302 1.72171e-05 0.753365)
(0.753334 -6.51957e-20 -5.56225e-20 0.753375 -2.08868e-05 0.753291)
(0.753333 -2.03214e-20 -3.59058e-20 0.753376 -2.15446e-05 0.753291)
(0.753334 1.51816e-21 5.47691e-22 0.753361 -1.57849e-05 0.753305)
(0.753333 -8.84826e-23 1.1711e-20 0.753354 -1.25872e-05 0.753313)
(0.753333 8.15123e-21 -5.62547e-21 0.753353 -1.23492e-05 0.753313)
(0.753333 3.19299e-21 3.32239e-21 0.753355 -1.25767e-05 0.753311)
(0.753333 -7.31666e-21 8.09633e-21 0.753358 -1.26122e-05 0.753309)
(0.753333 1.06919e-21 -8.22665e-21 0.753361 -1.20705e-05 0.753306)
(0.753333 8.37143e-22 4.15925e-21 0.753364 -1.25099e-05 0.753303)
(0.753333 -2.79516e-21 7.11471e-21 0.753372 -1.29275e-05 0.753295)
(0.753335 -5.88943e-21 -5.86398e-21 0.753385 -2.26527e-05 0.75328)
(0.753331 -8.17876e-21 -1.29132e-21 0.753395 -1.84842e-05 0.753274)
(0.753331 1.32019e-19 8.21438e-20 0.753136 0.000114405 0.753534)
(0.753332 8.85649e-20 4.21057e-20 0.75314 7.85619e-05 0.753528)
(0.753332 -4.70711e-20 1.29244e-21 0.753255 8.90892e-06 0.753413)
(0.753333 -7.72576e-20 -4.39228e-20 0.753335 -3.0455e-05 0.753332)
(0.753333 -5.0344e-20 -4.60318e-20 0.753371 -3.47259e-05 0.753296)
(0.753333 -3.57161e-20 -1.16325e-20 0.753375 -2.7799e-05 0.753292)
(0.753333 -1.08086e-20 -8.95341e-21 0.75337 -1.97689e-05 0.753297)
(0.753333 7.4593e-21 -1.08124e-20 0.753366 -1.39261e-05 0.753301)
(0.753333 -4.05962e-21 9.09047e-21 0.753365 -9.31232e-06 0.753302)
(0.753333 8.62494e-22 -7.14542e-22 0.753364 -6.52607e-06 0.753303)
(0.753333 4.41242e-22 -7.56444e-21 0.753365 -5.35279e-06 0.753302)
(0.753333 -9.77359e-21 8.99358e-23 0.753367 -3.60912e-06 0.753299)
(0.753334 -7.83631e-21 -4.62259e-21 0.753369 -3.42025e-06 0.753297)
(0.753332 -1.00239e-20 -8.81827e-21 0.75339 -8.74325e-06 0.753278)
(0.753334 2.35354e-20 1.854e-20 0.753426 -2.72478e-05 0.75324)
(0.753857 8.31073e-21 5.14058e-22 0.752596 0.000586247 0.753547)
(0.75322 7.3557e-21 1.0697e-21 0.753505 0.000623282 0.753275)
(0.753331 1.7332e-22 2.38632e-21 0.753338 9.21333e-05 0.753331)
(0.753335 -6.68395e-23 2.40038e-21 0.753315 -1.83552e-05 0.75335)
(0.753336 3.64769e-21 2.67776e-21 0.753311 2.15574e-05 0.753353)
(0.753333 9.88319e-23 9.76068e-22 0.753324 -5.31718e-06 0.753343)
(0.753331 -4.1923e-21 2.67828e-21 0.753323 -1.58933e-05 0.753346)
(0.753336 1.34857e-21 2.45074e-21 0.753316 -7.50981e-06 0.753348)
(0.753335 -3.71944e-21 2.10332e-21 0.753316 3.51726e-06 0.753348)
(0.753333 -9.18125e-21 -9.68312e-22 0.753325 -2.18798e-06 0.753342)
(0.753331 -9.33799e-21 -2.69691e-22 0.753326 -1.5541e-05 0.753343)
(0.753337 -1.7551e-22 -7.16697e-22 0.753314 -3.4352e-07 0.753349)
(0.753333 4.12907e-21 1.31718e-21 0.753328 -3.5622e-06 0.75334)
(0.753332 3.18362e-21 2.58463e-22 0.753325 -1.28874e-05 0.753343)
(0.753335 1.9257e-21 5.73046e-22 0.75332 -5.41177e-06 0.753345)
(0.753334 4.07585e-21 9.69636e-22 0.753322 -1.13593e-06 0.753344)
(0.753333 1.17957e-21 1.48774e-21 0.753329 -3.50844e-06 0.753337)
(0.753331 -2.07163e-21 6.79501e-22 0.753329 -1.35733e-05 0.75334)
(0.753338 2.93178e-21 1.13116e-21 0.753316 -4.30976e-06 0.753346)
(0.753333 1.35452e-21 1.40737e-21 0.753332 -3.48974e-06 0.753335)
(0.753332 -1.0336e-21 1.52802e-21 0.753328 -1.21151e-05 0.75334)
(0.753335 2.66164e-22 1.43616e-21 0.753323 -7.24111e-06 0.753342)
(0.753334 3.61966e-21 1.1582e-21 0.753325 -6.06712e-06 0.753341)
(0.753333 1.46725e-22 1.48632e-21 0.753334 -3.5147e-06 0.753333)
(0.753332 -4.5314e-21 1.7063e-21 0.75333 -1.22766e-05 0.753338)
(0.753335 -6.22176e-22 1.35598e-21 0.753325 -8.75752e-06 0.75334)
(0.753334 2.80765e-21 2.18117e-21 0.753328 -8.29231e-06 0.753339)
(0.753333 9.78892e-23 1.48961e-21 0.753335 -3.28015e-06 0.753332)
(0.75333 -4.69021e-21 1.80241e-21 0.753335 -1.07927e-05 0.753334)
(0.753338 1.69999e-21 1.47494e-21 0.753321 -9.79071e-06 0.753341)
(0.753333 2.16474e-22 1.46131e-21 0.753338 -3.03793e-06 0.75333)
(0.753332 -3.41937e-21 1.71465e-21 0.753335 -9.06499e-06 0.753334)
(0.753335 -4.81209e-22 1.37381e-21 0.753328 -7.55923e-06 0.753337)
(0.753334 1.18662e-21 1.65478e-21 0.753331 -9.47676e-06 0.753335)
(0.753333 3.54575e-22 1.37435e-21 0.753338 -2.4e-06 0.753329)
(0.753331 -3.32337e-21 1.59573e-21 0.753338 -5.92736e-06 0.753331)
(0.753337 1.06186e-21 1.43551e-21 0.753325 -9.14769e-06 0.753338)
(0.753333 -6.70892e-22 1.39607e-21 0.753339 -1.93441e-06 0.753328)
(0.753332 -4.07148e-21 1.44371e-21 0.753337 -5.00505e-06 0.753331)
(0.753335 -3.00803e-21 1.00731e-21 0.753331 -5.02816e-06 0.753334)
(0.753334 -9.8975e-22 7.77001e-22 0.753333 -8.30936e-06 0.753333)
(0.753333 -2.09459e-21 7.54418e-22 0.753339 -1.40088e-06 0.753328)
(0.753332 -4.59552e-21 3.3311e-22 0.753337 -3.64163e-06 0.753331)
(0.753335 -3.34759e-21 -1.32199e-22 0.753332 -3.96586e-06 0.753333)
(0.753334 -2.51333e-21 -4.27582e-22 0.753334 -6.89029e-06 0.753333)
(0.753333 -6.3438e-22 -7.6509e-23 0.753335 -1.11968e-06 0.753332)
(0.753332 2.10459e-21 -6.21323e-22 0.753338 -2.83358e-06 0.75333)
(0.753336 2.60986e-21 -2.39826e-22 0.75333 -6.9997e-06 0.753334)
(0.753333 9.83823e-22 3.18823e-22 0.753337 -1.44394e-07 0.75333)
(0.753333 -4.37142e-22 2.80837e-22 0.753338 -2.59322e-06 0.75333)
(0.753334 -1.65663e-21 -7.76228e-23 0.753334 -3.44302e-06 0.753332)
(0.753333 -6.63096e-22 -1.84123e-22 0.753336 -6.09965e-06 0.75333)
(0.753333 -1.4109e-22 3.76386e-22 0.75334 2.5593e-06 0.753327)
(0.753332 1.68217e-21 -2.25746e-22 0.753339 3.08608e-07 0.753329)
(0.753334 -3.75753e-21 -2.75307e-22 0.753334 -3.67137e-06 0.753332)
(0.753333 -6.83946e-21 -8.02111e-22 0.753337 -1.53658e-06 0.753331)
(0.753334 -3.08001e-21 4.74122e-22 0.753343 1.02227e-05 0.753323)
(0.753329 9.18501e-21 -1.42618e-21 0.75334 -1.61276e-06 0.753331)
(0.753335 9.87104e-21 -2.29486e-22 0.753327 1.15813e-05 0.753338)
(0.753335 -1.26446e-21 3.76864e-22 0.753347 2.3431e-05 0.753318)
(0.753322 -1.60544e-21 -7.27413e-22 0.753342 -1.12843e-05 0.753336)
(0.753339 -2.76477e-21 -9.40635e-22 0.753313 -2.95657e-05 0.753349)
(0.753338 8.68991e-21 -2.615e-22 0.75332 -2.30456e-05 0.753342)
(0.753332 1.84438e-20 -3.4586e-22 0.753357 -2.04408e-05 0.753311)
(0.753332 9.59662e-21 4.12271e-21 0.753343 -1.98485e-05 0.753325)
(0.753337 1.02062e-21 4.73878e-21 0.75334 -1.98484e-05 0.753324)
(0.753333 -4.22071e-21 -7.33503e-22 0.75336 -1.55662e-05 0.753307)
(0.753332 -1.28337e-20 2.25483e-21 0.753361 3.93917e-06 0.753307)
(0.753337 -9.90469e-21 2.72283e-21 0.753351 4.96844e-06 0.753312)
(0.753333 -7.43753e-21 1.80763e-21 0.753364 -2.55928e-05 0.753303)
(0.753333 -5.55848e-21 -1.9354e-21 0.753365 -6.55613e-06 0.753302)
(0.753333 -2.90133e-21 5.68667e-22 0.753371 1.8775e-05 0.753296)
(0.753337 2.45191e-21 4.58147e-22 0.753363 2.83356e-06 0.7533)
(0.753334 2.32975e-21 7.17927e-22 0.753377 -2.96278e-05 0.753288)
(0.753331 3.7528e-21 -8.98254e-21 0.753372 -4.90506e-06 0.753298)
(0.753348 5.73013e-21 7.6306e-22 0.753355 2.63209e-05 0.753298)
(0.753332 7.69744e-21 1.51654e-21 0.753394 -3.82954e-05 0.753275)
(0.75333 1.48332e-21 -2.95579e-21 0.753371 -2.53137e-06 0.753298)
(0.753349 7.14795e-21 1.64932e-21 0.753365 3.41817e-05 0.753286)
(0.753329 2.66513e-20 2.96045e-21 0.753408 -7.03181e-05 0.753263)
(0.753328 7.49431e-21 -1.56707e-21 0.753371 -5.46873e-05 0.753301)
(0.753342 -1.68359e-20 -2.65087e-21 0.753342 -2.10468e-06 0.753316)
(0.753327 -2.20391e-20 -3.7355e-21 0.753379 -3.96052e-05 0.753293)
(0.753333 -2.12784e-20 9.03426e-21 0.753346 -7.3916e-06 0.75332)
(0.753339 -2.75393e-20 -1.19571e-21 0.753348 1.88056e-06 0.753313)
(0.753329 -4.63305e-20 2.64701e-22 0.753361 -2.14116e-05 0.75331)
(0.753336 -2.51281e-20 -1.39709e-21 0.753347 7.64116e-06 0.753317)
(0.753333 -2.2504e-20 -2.17034e-21 0.753354 7.42552e-06 0.753313)
(0.753334 -1.75525e-20 -2.79625e-21 0.753352 3.5509e-06 0.753314)
(0.753333 -1.63177e-20 -3.31032e-21 0.753355 -6.43893e-06 0.753312)
(0.753335 -1.64668e-20 -3.51697e-21 0.753352 -1.99045e-05 0.753313)
(0.753332 -1.79361e-20 -3.56232e-21 0.753357 -2.74899e-05 0.753311)
(0.753333 -1.05617e-20 2.94145e-21 0.75334 -6.4082e-06 0.753327)
(0.753336 -1.91677e-21 -2.49617e-21 0.753345 1.02883e-06 0.753319)
(0.753333 -1.71837e-20 -1.62462e-21 0.753349 -2.14954e-05 0.753318)
(0.753334 -2.38696e-20 -1.98228e-21 0.753349 -2.58325e-05 0.753317)
(0.753332 -2.02896e-20 -1.99764e-21 0.75335 -2.12467e-05 0.753318)
(0.753335 -1.23347e-20 -2.62424e-21 0.753346 -6.47402e-06 0.753319)
(0.753332 -1.26589e-20 -2.98599e-21 0.753352 -7.70562e-06 0.753315)
(0.753334 -1.13417e-20 -3.32746e-21 0.753349 -5.35181e-06 0.753317)
(0.753334 -1.80995e-20 -4.21773e-21 0.753352 -1.31042e-05 0.753314)
(0.753333 3.65495e-21 -1.96194e-20 0.753334 -5.86817e-06 0.753333)
(0.753337 3.30531e-21 -3.24792e-21 0.753341 6.11106e-06 0.753322)
(0.753332 -5.42261e-21 -2.53515e-21 0.753349 -9.98994e-06 0.75332)
(0.753334 -5.38694e-21 -2.74091e-21 0.753345 -1.09244e-05 0.753321)
(0.753334 -9.39683e-21 -2.83108e-21 0.753346 -1.89858e-05 0.75332)
(0.753333 -1.10986e-20 -3.03745e-21 0.753348 -2.36413e-05 0.753319)
(0.753333 -1.06768e-20 -3.17631e-21 0.753346 -1.4549e-05 0.753321)
(0.753335 -1.11385e-20 -3.54508e-21 0.753344 -8.38929e-06 0.753322)
(0.753332 -1.29805e-20 -4.01222e-21 0.75335 -1.31268e-05 0.753318)
(0.753336 -1.83834e-20 -4.94163e-21 0.753344 -1.32364e-05 0.753321)
(0.753333 -1.86295e-20 1.17539e-20 0.753326 -8.65913e-06 0.753341)
(0.753335 2.93557e-21 -4.41315e-21 0.753338 -1.27205e-05 0.753327)
(0.753333 -2.19396e-21 -3.96839e-21 0.753342 -2.8929e-05 0.753326)
(0.753333 4.39853e-21 -4.23751e-21 0.753343 -2.17742e-05 0.753324)
(0.753333 2.18806e-21 -4.09541e-21 0.753344 -1.8178e-05 0.753323)
(0.753334 1.89102e-21 -4.02946e-21 0.753345 -2.04642e-05 0.753321)
(0.753334 -7.82308e-22 -4.37054e-21 0.753341 -1.31242e-05 0.753325)
(0.753331 -4.01337e-21 -4.72173e-21 0.753344 6.52145e-06 0.753325)
(0.753337 -1.25556e-20 -5.63933e-21 0.753329 1.74753e-05 0.753333)
(0.753333 -7.70261e-21 4.63597e-21 0.753315 4.07032e-06 0.753352)
(0.753334 4.08483e-21 -4.99941e-21 0.753337 1.95209e-06 0.753329)
(0.753333 -1.34606e-20 -3.74895e-21 0.753337 -6.75513e-06 0.753331)
(0.753333 -1.7229e-20 -3.70599e-21 0.753332 -4.43119e-06 0.753335)
(0.753334 -2.44642e-20 -4.21517e-21 0.753331 -1.198e-06 0.753335)
(0.753332 -3.01614e-20 -5.0515e-21 0.753335 -1.30294e-05 0.753333)
(0.753337 -3.29651e-20 -6.09511e-21 0.753328 -2.34545e-05 0.753336)
(0.753328 -4.38848e-20 -7.82545e-21 0.753349 -4.79296e-05 0.753323)
(0.75334 -3.65567e-20 -6.83738e-21 0.753314 -8.5314e-06 0.753346)
(0.753333 3.04079e-21 -1.48195e-20 0.753299 2.26192e-06 0.753368)
(0.753329 -1.15204e-20 -3.99163e-21 0.753331 -1.72669e-05 0.75334)
(0.753337 -2.28524e-20 -3.55826e-21 0.753319 -3.39689e-07 0.753345)
(0.753333 -2.89234e-20 -4.23405e-21 0.753326 -1.16712e-05 0.753341)
(0.753333 -2.16367e-20 -2.39065e-21 0.75332 8.43366e-06 0.753347)
(0.753335 1.22091e-20 -1.44269e-21 0.753312 5.37828e-05 0.753354)
(0.753336 2.45763e-20 -7.02928e-22 0.753304 7.83329e-05 0.75336)
(0.753327 2.7369e-20 2.09209e-22 0.753313 9.73196e-05 0.753359)
(0.753345 2.1421e-20 5.46394e-22 0.753268 0.000114245 0.753387)
(0.753333 3.27627e-21 -1.97045e-21 0.753286 1.65046e-05 0.753381)
(0.753328 1.79668e-20 5.62755e-21 0.753313 4.0977e-05 0.753359)
(0.75334 3.26164e-20 5.01135e-21 0.753297 0.000118214 0.753363)
(0.753332 1.16216e-20 6.8845e-21 0.753301 7.1926e-05 0.753367)
(0.753334 -2.54329e-21 7.38848e-21 0.753291 6.17943e-05 0.753375)
(0.753333 -6.07908e-20 6.68233e-21 0.753288 3.65991e-05 0.753378)
(0.753335 -2.25901e-20 1.42489e-20 0.75328 3.33766e-05 0.753385)
(0.753333 3.12877e-20 1.55579e-20 0.753281 3.50127e-05 0.753386)
(0.75333 1.51732e-20 1.56425e-20 0.753283 4.32383e-05 0.753387)
(0.753348 5.04166e-20 1.94581e-20 0.753234 9.16643e-05 0.753418)
(0.753332 4.06002e-22 1.19678e-20 0.753286 1.28155e-06 0.753382)
(0.75333 2.96742e-21 1.56252e-20 0.753299 2.61897e-05 0.75337)
(0.753343 5.47529e-20 1.30966e-20 0.753288 0.000123697 0.753369)
(0.75333 5.04779e-20 1.50629e-20 0.753304 9.4854e-05 0.753366)
(0.753338 7.37737e-20 1.66567e-20 0.753281 0.000145169 0.753381)
(0.753327 1.31351e-19 2.05407e-20 0.753288 0.000218931 0.753384)
(0.753339 1.73165e-19 2.0835e-20 0.753261 0.000273332 0.7534)
(0.753341 6.02997e-20 7.29007e-21 0.753288 0.00012917 0.753372)
(0.753333 -1.27739e-20 3.54252e-21 0.753312 2.10029e-05 0.753355)
(0.753333 7.87775e-21 5.59647e-21 0.753318 -3.24443e-06 0.753349)
(0.753334 -1.20817e-21 4.96062e-21 0.753316 1.829e-05 0.75335)
(0.753344 1.43615e-20 4.18492e-21 0.753298 5.72024e-05 0.753357)
(0.753335 8.83564e-21 4.73055e-22 0.753315 2.19782e-05 0.75335)
(0.753331 -6.56552e-22 -1.39403e-21 0.753329 1.34356e-08 0.753339)
(0.753335 6.79423e-23 5.47758e-23 0.753322 -6.79676e-06 0.753343)
(0.753332 -4.36617e-22 6.13665e-22 0.753326 3.32403e-06 0.753342)
(0.753334 -1.66434e-22 6.82741e-22 0.753326 -1.09044e-06 0.75334)
(0.753334 2.9966e-22 5.58277e-22 0.753324 8.96518e-07 0.753342)
(0.753333 3.68687e-22 7.29619e-22 0.753329 1.53088e-06 0.753338)
(0.753334 -1.15148e-21 7.65757e-23 0.753328 -3.79025e-06 0.753338)
(0.753333 -1.14315e-21 2.33358e-23 0.753327 2.40486e-06 0.75334)
(0.753333 1.5478e-22 1.30403e-23 0.75333 1.05959e-06 0.753337)
(0.753333 -5.46163e-23 8.02982e-25 0.75333 -3.76904e-06 0.753337)
(0.753334 9.09712e-23 -5.05548e-24 0.753329 -1.31147e-06 0.753338)
(0.753333 -1.61359e-22 1.38564e-23 0.753331 1.75257e-07 0.753336)
(0.753333 2.17686e-21 1.29239e-22 0.75333 -1.61056e-06 0.753337)
(0.753334 1.55763e-21 5.31839e-22 0.75333 9.17639e-07 0.753336)
(0.753333 -7.88381e-22 6.80824e-23 0.753332 -1.66236e-06 0.753335)
(0.753334 5.55746e-22 5.48561e-22 0.753329 -2.69837e-06 0.753337)
(0.753333 4.30605e-22 4.20632e-22 0.753331 -6.89592e-07 0.753336)
(0.753333 2.3845e-23 8.36469e-22 0.753331 -3.30095e-06 0.753336)
(0.753334 3.2499e-22 5.69182e-23 0.75333 3.34756e-07 0.753336)
(0.753333 -6.08273e-22 6.96896e-23 0.753333 -1.79665e-06 0.753335)
(0.753333 -8.96676e-22 6.86395e-22 0.753331 -4.3257e-06 0.753336)
(0.753334 6.86033e-22 1.3169e-24 0.75333 7.59931e-09 0.753336)
(0.753332 -1.42284e-23 1.05719e-22 0.753334 -1.9561e-06 0.753334)
(0.753334 -3.29036e-22 8.40779e-22 0.75333 -4.57268e-06 0.753336)
(0.753334 3.05454e-24 7.32912e-23 0.753331 -1.33779e-06 0.753335)
(0.753332 2.52204e-22 8.33242e-22 0.753334 -5.06873e-06 0.753334)
(0.753334 4.22793e-22 2.61901e-22 0.75333 -5.36401e-07 0.753336)
(0.753332 -3.27162e-22 1.15507e-22 0.753334 -1.97256e-06 0.753334)
(0.753334 1.32998e-22 1.09436e-21 0.75333 -5.22316e-06 0.753336)
(0.753334 3.51357e-22 1.14781e-22 0.753332 -1.50487e-06 0.753335)
(0.753332 1.8613e-22 1.23543e-21 0.753335 -5.50848e-06 0.753333)
(0.753334 1.75288e-21 1.40482e-22 0.75333 -8.57112e-07 0.753336)
(0.753332 -5.08879e-22 2.68285e-22 0.753334 -2.01906e-06 0.753334)
(0.753333 -4.02129e-23 1.85269e-21 0.753333 -6.08395e-06 0.753334)
(0.753335 1.96966e-21 1.44159e-22 0.753329 -1.22216e-06 0.753336)
(0.753332 -7.43481e-22 3.71234e-22 0.753336 -2.2757e-06 0.753333)
(0.753334 -2.9238e-22 2.23643e-21 0.75333 -6.39038e-06 0.753335)
(0.753334 1.5864e-22 2.41993e-22 0.753332 -2.17175e-06 0.753335)
(0.753332 -6.63136e-22 2.20861e-21 0.753337 -6.80872e-06 0.753332)
(0.753335 1.34478e-21 1.80143e-22 0.753329 -1.92434e-06 0.753336)
(0.753332 -4.49978e-23 2.83259e-22 0.753336 -2.44405e-06 0.753333)
(0.753335 -5.63748e-22 2.14631e-21 0.753331 -7.00945e-06 0.753334)
(0.753334 5.6358e-23 1.90261e-22 0.753332 -2.57237e-06 0.753334)
(0.753332 -7.75724e-22 2.0491e-21 0.753337 -7.06889e-06 0.753331)
(0.753335 1.87511e-21 1.99081e-22 0.753329 -2.64611e-06 0.753336)
(0.753332 -1.51358e-21 1.95651e-22 0.753336 -2.49285e-06 0.753332)
(0.753333 2.3063e-22 2.58487e-21 0.753335 -6.89384e-06 0.753332)
(0.753335 3.39442e-21 2.63821e-22 0.753329 -3.01608e-06 0.753336)
(0.753331 -2.73153e-22 4.83601e-22 0.753337 -2.45884e-06 0.753332)
(0.753335 1.75092e-21 3.6645e-21 0.753332 -6.64816e-06 0.753333)
(0.753334 2.81138e-21 7.58099e-22 0.753332 -2.80989e-06 0.753334)
(0.753331 4.46278e-22 4.33937e-21 0.753339 -6.53996e-06 0.75333)
(0.753335 3.18487e-21 4.41545e-22 0.753329 -3.02575e-06 0.753336)
(0.753331 -3.44967e-21 7.2662e-22 0.753337 -2.33244e-06 0.753332)