/*--------------------------------*- C++ -*----------------------------------*\
| =========                 |                                                 |
| \\      /  F ield         | OpenFOAM: The Open Source CFD Toolbox           |
|  \\    /   O peration     | Version:  4.1                                   |
|   \\  /    A nd           | Web:      www.OpenFOAM.org                      |
|    \\/     M anipulation  |                                                 |
\*---------------------------------------------------------------------------*/
FoamFile
{
    version     2.0;
    format      ascii;
    class       volVectorField;
    location    "28";
    object      U;
}
// * * * * * * * * * * * * * * * * * * * * * * * * * * * * * * * * * * * * * //

dimensions      [0 1 -1 0 0 0 0];

internalField   nonuniform List<vector> 
6785
(
(1.22847e-14 -2.25483 16.3908)
(1.13603e-14 -7.90253 12.8606)
(-3.2521e-15 -5.12288 13.6515)
(4.1708e-15 -5.08756 13.1436)
(1.01254e-15 -4.30833 12.9876)
(-8.50653e-18 -3.90069 12.6831)
(2.77956e-15 -3.4952 12.3889)
(6.93583e-16 -3.21784 12.0736)
(-5.1645e-16 -3.03512 11.7675)
(1.81355e-15 -2.97102 11.4582)
(2.74892e-16 -2.97217 11.1454)
(-4.28963e-16 -3.0105 10.8005)
(8.72568e-16 -3.42545 10.1315)
(-9.48152e-17 -3.47956 9.08275)
(-2.86264e-16 0.00227117 7.41155)
(1.83609e-14 -10.1766 26.5588)
(1.29738e-14 -16.0719 23.0022)
(-2.9644e-15 -11.0381 23.3464)
(4.09166e-15 -11.7672 21.5347)
(8.35653e-16 -10.0291 20.6973)
(1.07373e-15 -9.36879 19.4871)
(2.03943e-15 -8.35802 18.4484)
(2.12184e-16 -7.55147 17.3779)
(1.41447e-16 -6.72844 16.3313)
(6.78719e-16 -5.98085 15.2301)
(-4.21888e-16 -5.31601 13.9935)
(-4.17332e-16 -4.78077 12.4546)
(2.11277e-17 -4.41053 10.3802)
(-4.52599e-16 -3.74132 7.26627)
(-4.33779e-16 -1.25574 2.27069)
(2.01086e-14 -12.9788 28.3013)
(1.05535e-14 -16.7481 25.334)
(-1.67609e-15 -12.1231 25.2611)
(3.68605e-15 -13.0307 22.8651)
(6.27885e-16 -10.9199 21.8953)
(1.46304e-15 -10.4344 20.2687)
(1.23312e-15 -9.30279 19.062)
(2.14284e-17 -8.54314 17.7474)
(5.35142e-16 -7.53094 16.2678)
(4.67112e-16 -6.05198 13.785)
(2.6338e-16 -3.51047 9.35418)
(1.20854e-15 -0.423111 3.40921)
(-1.66205e-16 1.42154 -0.699479)
(-2.32971e-15 1.46132 -1.42647)
(-3.02753e-15 0.935117 -1.02686)
(2.04579e-14 -14.0705 28.7595)
(1.02579e-14 -17.4085 26.28)
(-1.65466e-15 -13.0523 25.8862)
(3.83708e-15 -14.4261 23.1612)
(9.53391e-16 -11.9887 22.3171)
(1.2327e-15 -12.0138 20.3826)
(1.19451e-15 -10.7612 19.2222)
(9.17351e-16 -10.2784 17.7898)
(1.24347e-16 -9.39586 16.3896)
(5.09833e-16 -8.22242 14.1801)
(1.82355e-15 -5.8982 10.2947)
(9.51673e-16 -2.38505 4.41193)
(4.55214e-15 0.602207 -0.133258)
(7.6075e-15 2.89625 -3.13366)
(-1.19095e-15 2.29492 -4.99779)
(2.04352e-14 -14.0214 27.5776)
(1.24167e-14 -17.8677 27.248)
(-9.08582e-16 -13.5805 25.8367)
(3.692e-15 -14.6964 22.9867)
(2.07826e-15 -12.4212 22.0229)
(1.51001e-15 -12.4096 19.9522)
(1.68495e-15 -11.2081 18.6202)
(1.83834e-15 -10.6717 17.0298)
(7.41724e-16 -9.89668 15.5575)
(7.73486e-16 -9.03759 13.7861)
(1.93436e-15 -7.72443 11.3401)
(1.27235e-15 -5.57283 7.94238)
(1.64936e-15 -3.24916 4.28561)
(2.31519e-15 0.188733 0.327707)
(5.8327e-15 1.84368 -5.34458)
(1.96219e-14 -13.2686 25.2244)
(1.41559e-14 -17.6279 27.4622)
(4.13826e-17 -13.6304 25.1816)
(2.85306e-15 -14.0867 22.1797)
(2.20609e-15 -12.0997 21.0412)
(1.33269e-15 -11.8476 18.964)
(1.53828e-15 -10.6771 17.486)
(1.67702e-15 -9.97629 15.7836)
(9.54313e-16 -9.14275 14.212)
(3.87419e-16 -8.30565 12.5964)
(9.0864e-16 -7.38639 10.793)
(1.18371e-15 -6.04205 8.65722)
(4.10105e-16 -4.49829 5.97294)
(-2.58864e-16 -1.8035 2.54265)
(6.32022e-15 0.406015 -2.82795)
(2.03447e-14 -12.432 23.1343)
(1.60706e-14 -17.0639 27.2217)
(2.32741e-15 -13.6093 24.6113)
(2.20976e-15 -13.4549 21.494)
(2.60241e-15 -11.7499 20.1872)
(2.63687e-15 -11.3166 18.219)
(1.81306e-15 -10.2421 16.7034)
(1.95137e-15 -9.4861 15.0711)
(2.67745e-15 -8.67186 13.5724)
(1.3548e-15 -7.87422 12.122)
(1.249e-15 -7.10137 10.6482)
(2.83503e-15 -6.14288 9.12103)
(1.81971e-15 -5.0803 7.24877)
(-1.41925e-15 -3.21217 4.81225)
(7.45343e-15 -0.80522 -0.0635037)
(2.03026e-14 -11.8717 22.0053)
(1.73179e-14 -16.3831 26.5404)
(3.64742e-15 -13.3771 24.0039)
(2.0042e-15 -12.9462 20.7977)
(2.82742e-15 -11.344 19.4053)
(3.10668e-15 -10.9107 17.519)
(2.27357e-15 -9.96162 16.1213)
(2.14458e-15 -9.34286 14.63)
(2.64841e-15 -8.65308 13.2284)
(2.24833e-15 -7.98973 11.8695)
(1.64633e-15 -7.36823 10.6162)
(1.63298e-15 -6.73099 9.5814)
(1.77722e-15 -6.09265 8.61939)
(-7.21731e-16 -4.91952 7.37988)
(2.06875e-15 -2.52371 3.33119)
(2.11901e-14 -11.7687 21.7759)
(1.61807e-14 -15.4269 25.4493)
(2.02181e-15 -12.7143 23.0114)
(2.53722e-15 -12.1951 19.9123)
(2.7071e-15 -10.4485 18.5238)
(1.205e-15 -9.93493 16.4179)
(2.37605e-15 -8.70617 14.8156)
(1.78064e-15 -8.11308 13.0178)
(-7.04586e-16 -7.47955 11.6228)
(1.47194e-15 -7.20671 10.5497)
(1.41935e-15 -7.17044 10.1144)
(-1.62218e-15 -7.42809 10.3712)
(6.7977e-16 -7.5609 10.9935)
(-6.02843e-16 -7.17694 10.9537)
(-2.96023e-15 -4.82263 7.84894)
(2.02503e-14 -12.761 23.3844)
(1.16027e-14 -14.6968 24.9286)
(-5.77716e-17 -12.3146 22.8332)
(1.39903e-15 -11.7403 20.6185)
(1.16749e-15 -9.97376 19.0813)
(-3.90107e-16 -8.64249 16.394)
(6.6578e-16 -6.57524 13.5376)
(1.11745e-15 -5.05596 10.6582)
(2.63795e-16 -3.80871 8.55434)
(6.46726e-16 -3.42428 7.51905)
(-6.73776e-16 -4.12546 8.31286)
(-3.60894e-15 -5.88872 10.7223)
(-3.12071e-15 -7.73679 13.4509)
(-2.40493e-15 -8.76142 14.4958)
(-4.05907e-15 -6.23125 11.3398)
(1.93405e-14 -13.9098 25.1873)
(1.09274e-14 -16.6202 27.6702)
(-1.86857e-15 -13.3602 24.6972)
(1.14057e-15 -12.9437 23.0875)
(5.90647e-16 -11.3283 21.8497)
(-6.31818e-16 -9.81114 19.1665)
(9.05776e-16 -7.35089 15.9921)
(2.46676e-15 -5.23188 12.7593)
(3.16317e-15 -3.15337 9.94663)
(4.54465e-15 -1.39366 7.32382)
(6.05389e-15 -0.128857 5.36638)
(4.97639e-15 -0.196093 5.04124)
(2.50704e-15 -2.16794 7.14954)
(-6.29347e-16 -5.0032 10.1645)
(-2.73968e-15 -4.56101 9.31225)
(1.66363e-14 -12.3191 21.6301)
(1.46837e-14 -18.8355 30.1463)
(3.31126e-15 -16.5367 28.0951)
(1.35647e-15 -15.2471 25.3842)
(-3.9817e-18 -13.7601 23.906)
(9.22185e-16 -12.6799 21.7679)
(1.19622e-15 -10.7085 19.1168)
(1.04505e-15 -8.76335 16.025)
(4.25666e-15 -6.62937 13.0205)
(4.64377e-15 -4.53197 9.87235)
(7.1316e-15 -2.28914 6.591)
(9.3047e-15 -0.101842 3.08378)
(4.33988e-15 1.82613 -0.103844)
(3.55793e-15 1.84619 -0.693968)
(7.29129e-16 -0.121184 1.2025)
(1.20551e-14 -8.03434 13.3584)
(1.72188e-14 -17.645 27.36)
(1.03911e-14 -18.773 29.6324)
(5.00149e-15 -17.4477 27.102)
(1.18169e-15 -15.8405 24.5468)
(1.07837e-15 -14.7721 22.2772)
(1.53756e-15 -13.5795 20.1335)
(1.67978e-16 -12.3112 17.8647)
(1.91394e-15 -10.8681 15.5376)
(2.48179e-15 -9.29495 13.1225)
(2.52514e-15 -7.55349 10.5834)
(4.45484e-15 -5.56891 7.87037)
(3.544e-15 -3.3844 4.84564)
(2.16803e-15 -0.561183 1.73263)
(1.61933e-15 1.24651 -3.86273)
(7.45627e-15 -2.02435 2.27138)
(1.72357e-14 -13.6148 21.4871)
(1.30158e-14 -17.5092 28.1036)
(5.34034e-15 -16.212 25.8526)
(9.28692e-16 -14.0822 22.4102)
(6.33843e-16 -12.7397 19.9743)
(1.17841e-15 -11.8247 18.2806)
(1.30139e-15 -11.0231 16.741)
(1.83687e-15 -10.1687 15.1357)
(1.82653e-15 -9.19527 13.4431)
(1.31559e-15 -8.15161 11.6821)
(1.32023e-15 -6.94254 9.87771)
(1.45328e-15 -5.63468 7.81027)
(1.20156e-15 -3.69033 5.41633)
(1.43591e-16 -1.54693 1.09272)
(4.19661e-15 -2.74186 5.82824)
(1.75174e-14 -13.2992 22.0537)
(1.73992e-14 -18.5215 29.1754)
(1.11401e-14 -19.5808 28.6444)
(4.69251e-15 -18.3632 25.2502)
(1.49563e-15 -16.5315 21.7126)
(1.82727e-16 -14.8935 18.8817)
(-2.82053e-16 -13.5166 16.6474)
(4.53314e-17 -12.1987 14.778)
(4.14609e-16 -10.9363 13.2054)
(1.8717e-16 -9.69294 11.6983)
(-1.94923e-16 -8.3347 10.1331)
(-7.38094e-16 -6.88787 8.64704)
(-1.48378e-15 -5.40159 6.93115)
(-2.72778e-15 -2.15292 3.2784)
(-1.92848e-17 15.6116 67.3466)
(-8.09807e-16 0.149606 8.26455)
(-8.62015e-16 -0.71453 -3.36278)
(-8.47227e-16 -0.483451 -2.12236)
(-8.59383e-16 -0.327486 -2.58196)
(-1.17699e-15 0.492258 -3.50565)
(-8.70706e-16 0.137951 -2.27758)
(-8.32417e-16 0.439505 -2.18155)
(-9.2381e-16 0.545953 -2.03122)
(-3.49247e-16 1.19854 -2.94979)
(1.75857e-16 0.975552 -2.04616)
(3.26186e-16 1.16151 -1.92215)
(-2.02517e-17 1.82176 -2.54568)
(-1.46875e-16 1.46429 -1.74863)
(-2.1982e-16 1.74604 -1.73796)
(-2.22705e-16 1.75249 -1.72181)
(-6.03434e-16 2.32973 -2.17098)
(-3.57846e-16 1.96326 -1.52421)
(-3.40042e-16 2.1504 -1.48299)
(-6.61922e-16 2.74806 -1.77634)
(-4.95227e-16 2.18251 -1.25491)
(-5.23534e-16 2.48955 -1.24542)
(-5.05708e-16 2.42363 -1.23247)
(-8.01533e-16 3.01291 -1.3746)
(-5.22518e-16 2.39213 -0.962905)
(-4.59587e-16 2.68115 -0.928325)
(-4.98018e-16 2.60152 -0.90687)
(-7.6379e-16 3.08211 -0.903114)
(-5.09233e-16 2.49088 -0.624138)
(-4.67819e-16 2.63668 -0.603374)
(-7.29562e-16 3.09528 -0.456241)
(-4.9262e-16 2.36212 -0.338078)
(-4.93957e-16 2.60532 -0.310006)
(-4.73671e-16 2.5065 -0.31903)
(-7.27086e-16 2.85212 -0.0877492)
(-5.14294e-16 2.22984 -0.0861018)
(-4.71518e-16 2.34083 -0.115573)
(-6.75852e-16 2.64902 0.187547)
(-3.94655e-16 1.96282 0.0753628)
(-3.50738e-16 2.14109 0.0815119)
(-2.76205e-16 2.04361 0.0452011)
(-2.7056e-16 2.31161 0.361735)
(-3.62311e-17 1.72826 0.208763)
(4.77236e-17 1.87518 0.208912)
(9.55902e-17 1.77929 0.163771)
(2.19034e-16 2.03039 0.438005)
(1.6827e-16 1.65237 0.372969)
(1.06411e-16 1.69102 0.32003)
(7.58539e-18 1.88397 0.650806)
(-6.30396e-18 1.45588 0.470547)
(3.56075e-17 1.53559 0.473112)
(5.89307e-17 1.45547 0.440607)
(6.56657e-17 1.50714 0.710507)
(7.50951e-17 1.09811 0.394126)
(4.95135e-18 1.1392 0.380516)
(2.23059e-16 1.10411 0.414639)
(3.92546e-16 0.985359 0.198607)
(5.75931e-16 0.603546 -0.364601)
(1.38327e-16 0.547593 -0.141479)
(2.33571e-16 1.08097 -1.96169)
(2.83194e-16 -0.169234 -2.34696)
(3.2587e-16 -0.0357947 -1.7625)
(3.92065e-16 0.344067 -1.18712)
(-5.94425e-16 0.259329 -0.497712)
(-1.70906e-15 -1.04957 1.90213)
(-1.62552e-15 -0.711318 1.77573)
(-1.9244e-15 -1.67284 4.21193)
(-1.14196e-15 -2.29185 4.47426)
(-9.22614e-16 -2.60175 4.42886)
(-7.51934e-16 -2.57894 4.55456)
(-4.56763e-16 -4.12637 7.48723)
(-1.15109e-16 -4.42114 6.35396)
(-1.42298e-16 -5.03658 6.55451)
(-2.1166e-16 -4.92714 6.78561)
(-2.65718e-16 -7.24224 10.5715)
(-2.59316e-16 -7.2901 8.47444)
(-4.87607e-16 -7.41083 9.11254)
(-6.68337e-16 -10.0698 13.3578)
(-6.57548e-16 -9.7604 10.4084)
(-9.43486e-16 -10.2137 11.3613)
(-1.47465e-15 -10.9765 13.4223)
(-1.29123e-15 -10.8798 13.2761)
(-1.21501e-15 -10.9804 13.6194)
(1.46606e-16 -12.5493 16.0282)
(-3.63769e-16 -11.5543 14.4759)
(1.59697e-16 -11.8159 14.9218)
(3.50721e-16 -11.7993 14.929)
(5.47267e-16 -11.9019 14.9213)
(6.97619e-16 -11.9612 14.933)
(8.17817e-16 -12.0459 14.9902)
(9.49303e-16 -12.1332 15.1614)
(1.0718e-15 -12.1761 15.4196)
(1.86735e-15 -12.9303 16.862)
(1.32269e-15 -12.4616 15.9078)
(1.45779e-15 -12.6159 16.1779)
(1.58773e-15 -12.5825 16.3366)
(1.82569e-15 -12.7351 16.6793)
(1.90043e-15 -12.724 16.7417)
(2.01595e-15 -12.8219 16.8624)
(2.09569e-15 -12.8779 16.9477)
(2.19077e-15 -12.9314 17.0346)
(3.14063e-15 -13.3661 18.1219)
(2.5428e-15 -12.9767 17.286)
(2.60759e-15 -13.0847 17.4138)
(2.6264e-15 -13.1068 17.4937)
(2.69064e-15 -13.1705 17.6424)
(2.77134e-15 -13.2043 17.8488)
(2.86182e-15 -13.2873 18.0652)
(2.93592e-15 -13.3014 18.1182)
(3.03352e-15 -13.3575 18.242)
(3.13613e-15 -13.4445 18.3754)
(4.07043e-15 -13.3041 19.0021)
(3.42038e-15 -13.1543 18.6537)
(3.501e-15 -13.207 18.9343)
(3.45418e-15 -13.2239 19.1149)
(3.43315e-15 -13.2819 19.2877)
(3.42045e-15 -13.3034 19.4145)
(3.404e-15 -13.3698 19.6257)
(3.43253e-15 -13.3563 19.6235)
(3.4659e-15 -13.4722 19.5298)
(4.29329e-15 -12.5596 18.5757)
(3.4671e-15 -12.6926 18.4729)
(3.56415e-15 -12.6878 18.4455)
(3.67471e-15 -12.7221 18.552)
(3.82971e-15 -12.6781 18.473)
(4.05183e-15 -12.703 18.5303)
(4.29492e-15 -12.6976 18.6332)
(4.56027e-15 -12.6331 18.8482)
(4.97133e-15 -12.8573 19.342)
(5.7581e-15 -10.6957 17.0037)
(5.37702e-15 -11.3725 18.1984)
(5.62844e-15 -11.2497 18.1341)
(5.72932e-15 -11.2336 18.1147)
(6.07435e-15 -11.1989 18.2173)
(6.06293e-15 -11.1379 17.8638)
(5.88609e-15 -11.0225 17.2517)
(5.68411e-15 -10.8954 16.5129)
(5.46421e-15 -10.9165 15.6091)
(4.89408e-15 -7.74 10.2069)
(5.51367e-15 -8.88762 13.0922)
(5.1169e-15 -8.54826 11.7077)
(5.011e-15 -8.55633 11.0899)
(4.93766e-15 -8.31588 10.4003)
(5.05017e-15 -8.22482 9.93543)
(5.87449e-15 -7.96753 9.6226)
(5.39798e-15 -7.79689 9.21558)
(5.39206e-15 -7.56667 8.86434)
(5.16402e-15 -7.43413 8.3218)
(2.3273e-15 -3.59692 2.32425)
(4.96106e-15 -5.42872 7.19619)
(4.40499e-15 -4.83464 5.67544)
(4.11648e-15 -5.00805 5.15834)
(3.62697e-15 -4.6361 4.05847)
(2.97926e-15 -4.56517 2.76413)
(1.60081e-15 -4.33463 0.511658)
(3.08364e-16 -3.96381 -1.57898)
(6.70822e-16 -3.92842 -1.47915)
(-1.84955e-16 -3.26385 -3.63007)
(2.34644e-16 -3.26046 -1.50345)
(1.72028e-16 -3.12574 -2.17924)
(-3.58205e-16 -2.38325 -2.78646)
(-1.65417e-16 -2.98595 -3.11902)
(-2.7184e-16 -1.94799 -2.33995)
(-2.03814e-16 -1.63896 -1.57997)
(-2.14383e-16 -1.60203 -2.15122)
(-1.75154e-16 -1.0285 -1.24794)
(-2.53817e-16 -0.990168 -1.87825)
(-1.57772e-16 -0.628323 -1.26992)
(2.53442e-17 -0.41596 -0.996664)
(-7.33408e-18 -0.237275 -1.43264)
(7.0794e-19 -0.130335 -1.05172)
(4.0883e-18 0.0817734 -0.641826)
(-1.12635e-17 0.203935 -0.895326)
(3.18745e-17 0.305935 -0.670908)
(-2.9773e-16 0.4388 -0.803242)
(-2.53691e-16 0.625046 -0.881504)
(-1.50922e-16 0.600438 -0.578847)
(-3.26827e-16 0.910765 -0.76607)
(-2.81855e-16 0.809335 -0.538537)
(-3.29965e-16 1.00196 -0.652318)
(-3.40449e-16 1.16019 -0.703105)
(-2.2785e-16 1.06432 -0.45233)
(-2.2245e-16 1.29283 -0.548027)
(-3.87353e-16 1.50199 -0.576686)
(-2.61364e-16 1.23772 -0.360112)
(-3.44052e-16 1.76947 -0.474561)
(-2.6189e-16 1.43221 -0.302488)
(-3.77242e-16 1.64254 -0.368417)
(-4.72038e-16 1.91645 -0.373466)
(-3.44685e-16 1.53991 -0.224258)
(-4.8954e-16 2.17725 -0.314979)
(-4.05189e-16 1.71569 -0.196798)
(-5.14034e-16 1.9934 -0.263721)
(-7.71665e-16 2.18775 -0.269744)
(-6.04591e-16 1.86762 -0.147975)
(-7.66373e-16 2.20288 -0.20019)
(-1.00317e-15 2.45678 -0.169773)
(-6.97748e-16 1.9298 -0.0878474)
(-9.64694e-16 2.71752 -0.116207)
(-7.25066e-16 2.10934 -0.0327842)
(-8.77428e-16 2.37609 -0.0477956)
(-9.83163e-16 2.70534 0.032765)
(-6.69075e-16 2.10339 0.0566275)
(-9.08974e-16 2.94678 0.0913982)
(-6.7878e-16 2.24451 0.121149)
(-8.06889e-16 2.5627 0.141647)
(-1.0669e-15 2.7635 0.256692)
(-8.38582e-16 2.28009 0.226315)
(-1.09725e-15 2.66093 0.267751)
(-1.53222e-15 2.89726 0.401384)
(-1.15932e-15 2.20653 0.280072)
(-1.76264e-15 3.08348 0.369091)
(-1.41632e-15 2.31645 0.287387)
(-1.82137e-15 2.59294 0.317426)
(-2.31595e-15 2.87828 0.392603)
(-1.57851e-15 2.1918 0.241131)
(-2.12417e-15 3.06823 0.270699)
(-1.51007e-15 2.28211 0.177759)
(-1.77607e-15 2.62614 0.153137)
(-2.0166e-15 2.75409 0.147282)
(-1.37489e-15 2.23747 0.0621998)
(-1.6882e-15 2.68328 0.00777531)
(-1.92599e-15 2.78046 -0.016719)
(-1.31012e-15 2.10566 -0.0688449)
(-1.84458e-15 3.00069 -0.160148)
(-1.37872e-15 2.21057 -0.147613)
(-1.69295e-15 2.54548 -0.227187)
(-1.96156e-15 2.67659 -0.27509)
(-1.26612e-15 2.03678 -0.220718)
(-1.57462e-15 2.91859 -0.339839)
(-9.97737e-16 2.1416 -0.258486)
(-1.05002e-15 2.51463 -0.349709)
(-8.85075e-16 2.55306 -0.404479)
(-4.5903e-16 2.0826 -0.284924)
(-4.70808e-16 2.54872 -0.374851)
(-5.52715e-16 2.62018 -0.414438)
(-3.85075e-16 1.99625 -0.294107)
(-6.72014e-16 2.89959 -0.435968)
(-5.60142e-16 2.14122 -0.305924)
(-9.47035e-16 2.55205 -0.456207)
(2.4002e-15 1.12945 6.11656)
(2.13391e-15 1.24912 6.35613)
(1.82267e-15 1.31859 6.35288)
(1.52069e-15 1.41818 6.37269)
(1.23301e-15 1.51882 6.34678)
(9.95804e-16 1.62428 6.30645)
(8.1988e-16 1.73243 6.24482)
(7.11924e-16 1.84113 6.16297)
(6.68692e-16 1.94827 6.05781)
(6.75306e-16 2.04892 5.92801)
(6.96645e-16 2.13584 5.77541)
(6.61851e-16 2.19697 5.60981)
(4.44993e-16 2.21508 5.45495)
(-1.3884e-16 2.16906 5.35214)
(-1.284e-15 2.0427 5.35207)
(-3.07932e-15 1.84262 5.48822)
(-5.40527e-15 1.60572 5.74532)
(-7.84474e-15 1.33175 6.02345)
(-9.4396e-15 0.871096 6.06905)
(-9.1136e-15 0.112464 5.62876)
(-7.97603e-15 -0.543677 5.16499)
(-7.37817e-15 -0.905173 4.98266)
(-6.91228e-15 -1.17043 4.84945)
(-6.47382e-15 -1.44801 4.72041)
(-6.04993e-15 -1.74612 4.59599)
(-5.63831e-15 -2.05172 4.47662)
(-5.23401e-15 -2.35616 4.36024)
(-4.83478e-15 -2.65243 4.24614)
(-4.43788e-15 -2.93438 4.13311)
(-4.04323e-15 -3.19829 4.02082)
(-3.65175e-15 -3.44166 3.90945)
(-3.26247e-15 -3.66195 3.79806)
(-2.87677e-15 -3.85731 3.68635)
(-2.49709e-15 -4.02682 3.5746)
(-2.12491e-15 -4.17079 3.46294)
(-1.76062e-15 -4.28976 3.35122)
(-1.40432e-15 -4.38516 3.23944)
(-1.05472e-15 -4.45872 3.12736)
(-7.07895e-16 -4.51142 3.01403)
(-3.58459e-16 -4.54241 2.89818)
(-2.0761e-18 -4.55091 2.77939)
(3.64681e-16 -4.53785 2.65786)
(7.4569e-16 -4.50438 2.53344)
(1.14301e-15 -4.45118 2.40608)
(1.555e-15 -4.37826 2.27535)
(1.974e-15 -4.28592 2.14142)
(2.38622e-15 -4.17476 2.00411)
(2.77055e-15 -4.04546 1.86346)
(3.09989e-15 -3.89931 1.71986)
(3.34608e-15 -3.73335 1.57251)
(3.48257e-15 -3.5401 1.42066)
(3.49015e-15 -3.31587 1.26388)
(3.36016e-15 -3.06981 1.10427)
(3.10174e-15 -2.80338 0.940602)
(2.73966e-15 -2.49728 0.770305)
(2.31101e-15 -2.16107 0.595189)
(1.84986e-15 -1.83674 0.416645)
(1.37352e-15 -1.52962 0.234025)
(9.08802e-16 -1.1901 0.0521199)
(4.96196e-16 -0.84415 -0.114895)
(2.07368e-16 -0.484692 -0.254171)
(6.8027e-17 -0.223507 -0.348069)
(1.51751e-17 -0.126169 -0.400556)
(-4.48838e-18 -0.15216 -0.431153)
(-1.09502e-17 -0.263266 -0.452382)
(-1.15727e-17 -0.411498 -0.497321)
(-1.01253e-17 -0.523248 -0.577162)
(-8.03297e-18 -0.562999 -0.661228)
(-5.73783e-18 -0.546832 -0.72469)
(-3.561e-18 -0.495591 -0.768507)
(-1.93228e-18 -0.424253 -0.801246)
(-9.99921e-19 -0.332113 -0.823658)
(-5.65416e-19 -0.273307 -0.839013)
(-6.30982e-19 0.00426448 -0.869748)
(3.362e-19 0.447822 -0.626902)
(-3.65916e-18 0.75585 -0.85864)
(2.50386e-17 1.99501 -0.0852622)
(-6.12561e-17 2.89003 0.706566)
(-4.46013e-16 2.27452 0.198783)
(2.10936e-15 1.09148 6.39475)
(1.63597e-15 1.21835 6.47936)
(1.3279e-15 1.31866 6.43596)
(1.04852e-15 1.42132 6.41687)
(8.2982e-16 1.531 6.36686)
(6.85155e-16 1.64191 6.30687)
(6.13745e-16 1.75668 6.22636)
(6.11188e-16 1.87241 6.12424)
(6.63709e-16 1.98732 5.99681)
(7.4282e-16 2.09554 5.84389)
(7.90177e-16 2.18789 5.67154)
(6.93477e-16 2.24849 5.49895)
(2.63859e-16 2.25476 5.36598)
(-7.45612e-16 2.18127 5.33304)
(-2.52039e-15 2.01386 5.45699)
(-4.98947e-15 1.77125 5.74241)
(-7.77065e-15 1.51246 6.11624)
(-1.02919e-14 1.27453 6.44563)
(-1.16047e-14 0.934686 6.48328)
(-1.04502e-14 0.270933 5.88884)
(-7.97043e-15 -0.478565 5.079)
(-7.06725e-15 -0.892913 4.85665)
(-6.71237e-15 -1.16225 4.77473)
(-6.34705e-15 -1.44445 4.66435)
(-5.95149e-15 -1.74738 4.54952)
(-5.55553e-15 -2.05558 4.43919)
(-5.1637e-15 -2.36093 4.33096)
(-4.77417e-15 -2.65666 4.22358)
(-4.38474e-15 -2.937 4.11587)
(-3.99608e-15 -3.19875 4.00782)
(-3.6093e-15 -3.43936 3.89985)
(-3.22396e-15 -3.65638 3.7911)
(-2.84174e-15 -3.84828 3.68147)
(-2.46516e-15 -4.01424 3.57135)
(-2.09567e-15 -4.15462 3.46089)
(-1.73374e-15 -4.26999 3.35005)
(-1.37947e-15 -4.36183 3.23888)
(-1.03146e-15 -4.43176 3.12718)
(-6.85728e-16 -4.48061 3.01399)
(-3.36987e-16 -4.50761 2.89812)
(1.89734e-17 -4.51221 2.77921)
(3.85574e-16 -4.49534 2.65749)
(7.66607e-16 -4.45816 2.53282)
(1.16396e-15 -4.40127 2.40516)
(1.57572e-15 -4.3247 2.27411)
(1.99395e-15 -4.22876 2.13984)
(2.4046e-15 -4.11402 2.00217)
(2.78632e-15 -3.98122 1.8612)
(3.11202e-15 -3.83148 1.71729)
(3.35371e-15 -3.66157 1.56958)
(3.48521e-15 -3.46396 1.41716)
(3.48773e-15 -3.23541 1.25965)
(3.35334e-15 -2.98501 1.09913)
(3.09179e-15 -2.71336 0.933971)
(2.72829e-15 -2.40143 0.760958)
(2.29997e-15 -2.05994 0.581482)
(1.84066e-15 -1.73155 0.39549)
(1.3679e-15 -1.42454 0.201258)
(9.08538e-16 -1.09228 0.00586117)
(5.026e-16 -0.762947 -0.172564)
(2.19576e-16 -0.428737 -0.319529)
(8.07634e-17 -0.194595 -0.412595)
(2.41358e-17 -0.115593 -0.45688)
(-1.45126e-19 -0.152815 -0.477931)
(-9.99302e-18 -0.268399 -0.483765)
(-1.18324e-17 -0.413506 -0.508832)
(-1.05462e-17 -0.523144 -0.572081)
(-8.43107e-18 -0.565513 -0.646218)
(-6.12385e-18 -0.552895 -0.70532)
(-3.92631e-18 -0.502631 -0.746839)
(-2.22018e-18 -0.430515 -0.7776)
(-1.18785e-18 -0.335507 -0.80279)
(-6.73936e-19 -0.273305 -0.822549)
(-1.15725e-18 -0.0299013 -0.944805)
(-2.78279e-20 0.443912 -0.738001)
(-4.78913e-18 0.67415 -0.955637)
(2.60152e-17 1.73555 -0.265661)
(-7.52655e-17 2.83076 0.760322)
(-5.16456e-16 2.47166 0.33914)
(1.81267e-15 1.10283 6.42801)
(1.33489e-15 1.22942 6.46899)
(1.09002e-15 1.32854 6.43161)
(8.69719e-16 1.43047 6.40511)
(7.19151e-16 1.54169 6.35004)
(6.39336e-16 1.65442 6.28123)
(6.26582e-16 1.7723 6.18963)
(6.72968e-16 1.89159 6.07421)
(7.60222e-16 2.01024 5.93246)
(8.50184e-16 2.12126 5.76657)
(8.63585e-16 2.21339 5.58791)
(6.50542e-16 2.26735 5.42539)
(-2.51428e-17 2.25698 5.33252)
(-1.42673e-15 2.15696 5.37859)
(-3.65149e-15 1.96181 5.60624)
(-6.41959e-15 1.70495 5.97394)
(-9.17065e-15 1.45412 6.36345)
(-1.13994e-14 1.25035 6.65589)
(-1.2496e-14 0.987292 6.68788)
(-1.13398e-14 0.419098 6.12274)
(-8.26809e-15 -0.342409 5.10047)
(-6.79891e-15 -0.837963 4.71108)
(-6.4069e-15 -1.13061 4.65013)
(-6.14492e-15 -1.4055 4.57892)
(-5.81496e-15 -1.7054 4.48366)
(-5.44681e-15 -2.01357 4.38532)
(-5.07103e-15 -2.31936 4.28801)
(-4.69419e-15 -2.61576 4.19047)
(-4.31525e-15 -2.89711 4.09094)
(-3.93496e-15 -3.16021 3.98944)
(-3.55467e-15 -3.40234 3.88663)
(-3.17469e-15 -3.62096 3.78199)
(-2.79719e-15 -3.81457 3.67561)
(-2.42473e-15 -3.98235 3.56802)
(-2.05881e-15 -4.12457 3.45946)
(-1.69998e-15 -4.24176 3.35002)
(-1.34835e-15 -4.33536 3.23984)
(-1.0024e-15 -4.40687 3.12875)
(-6.58095e-16 -4.45703 3.01584)
(-3.10281e-16 -4.48514 2.9)
(4.50963e-17 -4.49076 2.78095)
(4.11446e-16 -4.47488 2.65898)
(7.92444e-16 -4.4386 2.53398)
(1.18975e-15 -4.38251 2.4059)
(1.60113e-15 -4.30668 2.27438)
(2.01832e-15 -4.21144 2.13961)
(2.42693e-15 -4.09737 2.00142)
(2.80535e-15 -3.96527 1.85997)
(3.12655e-15 -3.81618 1.71559)
(3.36272e-15 -3.6468 1.56733)
(3.48816e-15 -3.44969 1.41412)
(3.48465e-15 -3.22191 1.25564)
(3.34509e-15 -2.97236 1.09386)
(3.08e-15 -2.70113 0.926593)
(2.71509e-15 -2.38957 0.749856)
(2.28753e-15 -2.04845 0.564263)
(1.83087e-15 -1.71916 0.367529)
(1.36301e-15 -1.41005 0.156259)
(9.10808e-16 -1.07678 -0.0594616)
(5.13637e-16 -0.747589 -0.256352)
(2.37879e-16 -0.416866 -0.418714)
(9.9794e-17 -0.187585 -0.520272)
(3.94126e-17 -0.109842 -0.569073)
(9.56863e-18 -0.147315 -0.586372)
(-5.98224e-18 -0.260807 -0.571828)
(-1.12091e-17 -0.397877 -0.566445)
(-1.11477e-17 -0.499874 -0.603549)
(-9.4002e-18 -0.54106 -0.661373)
(-7.1885e-18 -0.531898 -0.711647)
(-4.94403e-18 -0.485734 -0.746479)
(-3.06092e-18 -0.41704 -0.771474)
(-1.83219e-18 -0.324418 -0.799038)
(-1.22157e-18 -0.249426 -0.836071)
(-1.91516e-18 -0.0167287 -1.00076)
(-5.08239e-19 0.443402 -0.83309)
(-5.60553e-18 0.647247 -0.991322)
(2.56917e-17 1.60739 -0.413068)
(-6.01261e-17 2.76513 0.750337)
(-5.66922e-16 2.55787 0.398811)
(1.51354e-15 1.09065 6.48547)
(1.04606e-15 1.22387 6.48295)
(8.626e-16 1.33351 6.44012)
(7.00895e-16 1.43847 6.39673)
(6.17333e-16 1.5555 6.3295)
(6.01765e-16 1.67282 6.24585)
(6.47954e-16 1.79627 6.13845)
(7.43733e-16 1.92129 6.00581)
(8.64013e-16 2.04557 5.84699)
(9.55383e-16 2.16041 5.66756)
(9.07271e-16 2.25141 5.48661)
(5.18756e-16 2.29445 5.3463)
(-4.97308e-16 2.25926 5.31564)
(-2.38765e-15 2.12299 5.46661)
(-5.08716e-15 1.89389 5.81051)
(-8.06401e-15 1.62259 6.24737)
(-1.06367e-14 1.38214 6.62522)
(-1.24438e-14 1.21526 6.85753)
(-1.32405e-14 1.03793 6.87016)
(-1.21957e-14 0.586697 6.37224)
(-8.91662e-15 -0.195092 5.23241)
(-6.72904e-15 -0.787677 4.60007)
(-6.10692e-15 -1.12225 4.5006)
(-5.8815e-15 -1.39489 4.46233)
(-5.63667e-15 -1.68991 4.39786)
(-5.31987e-15 -1.99645 4.31794)
(-4.9679e-15 -2.30168 4.23392)
(-4.60506e-15 -2.59734 4.14835)
(-4.23777e-15 -2.87788 4.05952)
(-3.86732e-15 -3.14036 3.96684)
(-3.49476e-15 -3.38201 3.87102)
(-3.12107e-15 -3.60022 3.77192)
(-2.74898e-15 -3.79359 3.66994)
(-2.38122e-15 -3.96125 3.56579)
(-2.01932e-15 -4.10344 3.45984)
(-1.66397e-15 -4.22066 3.35231)
(-1.31528e-15 -4.31431 3.24349)
(-9.71596e-16 -4.38578 3.13326)
(-6.28861e-16 -4.43574 3.02075)
(-2.821e-16 -4.46353 2.90498)
(7.25954e-17 -4.46885 2.78581)
(4.38612e-16 -4.45268 2.66353)
(8.19496e-16 -4.4161 2.53811)
(1.21667e-15 -4.35968 2.40949)
(1.62753e-15 -4.2835 2.27738)
(2.04351e-15 -4.18791 2.14195)
(2.44987e-15 -4.07351 2.00309)
(2.82477e-15 -3.94113 1.861)
(3.14121e-15 -3.7917 1.71596)
(3.37166e-15 -3.6218 1.56694)
(3.4909e-15 -3.42407 1.41274)
(3.48131e-15 -3.19584 1.25309)
(3.33665e-15 -2.9458 1.0897)
(3.06819e-15 -2.67349 0.919757)
(2.70217e-15 -2.36048 0.738422)
(2.27577e-15 -2.01766 0.545158)
(1.82237e-15 -1.68556 0.334785)
(1.3603e-15 -1.37398 0.102049)
(9.16489e-16 -1.04162 -0.139271)
(5.29496e-16 -0.716145 -0.36052)
(2.61958e-16 -0.393348 -0.54582)
(1.25112e-16 -0.173542 -0.666209)
(6.16455e-17 -0.102417 -0.732412)
(2.65092e-17 -0.147196 -0.759668)
(4.37676e-18 -0.264995 -0.744974)
(-6.61003e-18 -0.397745 -0.727521)
(-1.00922e-17 -0.493069 -0.744585)
(-1.01828e-17 -0.531946 -0.78158)
(-8.80618e-18 -0.524495 -0.812885)
(-6.77733e-18 -0.480651 -0.829668)
(-4.72343e-18 -0.412379 -0.838225)
(-3.20506e-18 -0.316939 -0.860529)
(-2.38398e-18 -0.227852 -0.90318)
(-3.02752e-18 -0.0172553 -1.08118)
(-1.21521e-18 0.437045 -0.946259)
(-6.11123e-18 0.603876 -1.05473)
(2.05815e-17 1.40895 -0.607952)
(-2.11208e-17 2.67594 0.714258)
(-5.9972e-16 2.68941 0.387947)
(1.22371e-15 1.09972 6.5023)
(8.16604e-16 1.2342 6.47079)
(7.03366e-16 1.34501 6.42577)
(6.07061e-16 1.45166 6.36794)
(5.88995e-16 1.57207 6.28892)
(6.3129e-16 1.69304 6.18973)
(7.26737e-16 1.82119 6.06559)
(8.59354e-16 1.95105 5.91512)
(9.95242e-16 2.07944 5.74007)
(1.0595e-15 2.19522 5.55141)
(8.99197e-16 2.27986 5.37912)
(2.53234e-16 2.30397 5.2817)
(-1.20018e-15 2.2353 5.3414)
(-3.62072e-15 2.05983 5.61741)
(-6.69166e-15 1.8063 6.06683)
(-9.6434e-15 1.5409 6.52947)
(-1.18074e-14 1.32944 6.84713)
(-1.30516e-14 1.19927 6.98525)
(-1.34688e-14 1.08338 6.95721)
(-1.26127e-14 0.744979 6.55524)
(-9.72444e-15 0.00634935 5.46044)
(-6.9102e-15 -0.694617 4.54586)
(-5.91629e-15 -1.10638 4.35075)
(-5.60428e-15 -1.38935 4.32056)
(-5.41301e-15 -1.68064 4.2875)
(-5.16469e-15 -1.98457 4.23408)
(-4.85297e-15 -2.28902 4.16798)
(-4.50957e-15 -2.58409 4.09667)
(-4.1547e-15 -2.86371 4.0207)
(-3.7947e-15 -3.12517 3.93921)
(-3.43089e-15 -3.36576 3.85251)
(-3.06442e-15 -3.58294 3.76065)
(-2.6984e-15 -3.77538 3.66443)
(-2.33579e-15 -3.94221 3.56479)
(-1.97829e-15 -4.08363 3.46227)
(-1.6267e-15 -4.20014 3.3573)
(-1.28115e-15 -4.29311 3.25029)
(-9.39891e-16 -4.36381 3.1412)
(-5.98847e-16 -4.41283 3.02927)
(-2.53239e-16 -4.43959 2.91368)
(1.00689e-16 -4.4439 2.7944)
(4.66296e-16 -4.42677 2.67181)
(8.46982e-16 -4.38923 2.54589)
(1.24391e-15 -4.33183 2.41662)
(1.65414e-15 -4.25466 2.28376)
(2.06877e-15 -4.15811 2.14751)
(2.47272e-15 -4.04275 2.00779)
(2.84396e-15 -3.90946 1.86486)
(3.15556e-15 -3.75905 1.71896)
(3.38025e-15 -3.58791 1.56895)
(3.49332e-15 -3.38875 1.41353)
(3.47779e-15 -3.15922 1.25241)
(3.32824e-15 -2.90771 1.08701)
(3.0567e-15 -2.63304 0.913778)
(2.68989e-15 -2.31694 0.726852)
(2.26504e-15 -1.97036 0.524227)
(1.81545e-15 -1.63299 0.297204)
(1.36009e-15 -1.31777 0.0386207)
(9.26057e-16 -0.986981 -0.233477)
(5.50782e-16 -0.667678 -0.485525)
(2.92744e-16 -0.357592 -0.701223)
(1.58101e-16 -0.151829 -0.849428)
(9.24339e-17 -0.0902014 -0.940639)
(5.28325e-17 -0.14373 -0.988735)
(2.42341e-17 -0.267553 -0.997449)
(5.66815e-18 -0.398976 -0.996906)
(-4.25777e-18 -0.490749 -1.01015)
(-8.6348e-18 -0.529103 -1.02589)
(-9.64654e-18 -0.523844 -1.02753)
(-8.64207e-18 -0.48188 -1.01324)
(-6.76146e-18 -0.412328 -0.992675)
(-5.02148e-18 -0.311952 -0.993992)
(-3.91283e-18 -0.208398 -1.01688)
(-4.2729e-18 -0.00615943 -1.17238)
(-2.16874e-18 0.429809 -1.06189)
(-5.80419e-18 0.580081 -1.11084)
(1.03816e-17 1.24017 -0.819596)
(3.15732e-17 2.55939 0.616201)
(-6.06246e-16 2.79485 0.512215)
(9.76243e-16 1.10095 6.50391)
(6.54429e-16 1.2401 6.45127)
(6.06515e-16 1.3555 6.39961)
(5.72067e-16 1.46595 6.32481)
(6.11409e-16 1.59135 6.23103)
(7.02546e-16 1.7172 6.11363)
(8.37717e-16 1.85084 5.97083)
(9.96037e-16 1.98581 5.8018)
(1.13032e-15 2.1176 5.61236)
(1.13449e-15 2.2317 5.42133)
(7.99792e-16 2.30431 5.27324)
(-1.98038e-16 2.30085 5.24467)
(-2.17384e-15 2.19098 5.42274)
(-5.10153e-15 1.97691 5.83053)
(-8.35448e-15 1.71091 6.35324)
(-1.10275e-14 1.46678 6.78951)
(-1.26254e-14 1.29223 7.01136)
(-1.3267e-14 1.19501 7.04203)
(-1.32586e-14 1.12377 6.95589)
(-1.24879e-14 0.882743 6.63207)
(-1.02532e-14 0.224635 5.68534)
(-7.29271e-15 -0.56525 4.55611)
(-5.90534e-15 -1.07576 4.21871)
(-5.38432e-15 -1.38357 4.16782)
(-5.16717e-15 -1.67402 4.15461)
(-4.97445e-15 -1.97419 4.13064)
(-4.71745e-15 -2.27625 4.08832)
(-4.40551e-15 -2.56999 4.03475)
(-4.06693e-15 -2.8485 3.9737)
(-3.71784e-15 -3.10879 3.9054)
(-3.36321e-15 -3.3482 3.82995)
(-3.00479e-15 -3.56431 3.74726)
(-2.64556e-15 -3.75588 3.65834)
(-2.2886e-15 -3.92199 3.56442)
(-1.93585e-15 -4.06282 3.46629)
(-1.58831e-15 -4.17884 3.3646)
(-1.24611e-15 -4.27136 3.25994)
(-9.07396e-16 -4.34154 3.15238)
(-5.6815e-16 -4.38988 3.04128)
(-2.23793e-16 -4.41588 2.92602)
(1.29287e-16 -4.41949 2.80672)
(4.94408e-16 -4.40169 2.68381)
(8.74811e-16 -4.36348 2.55735)
(1.2714e-15 -4.30537 2.42734)
(1.68086e-15 -4.22751 2.29362)
(2.094e-15 -4.13027 2.1564)
(2.49541e-15 -4.01425 2.01567)
(2.86286e-15 -3.88034 1.87173)
(3.16955e-15 -3.72921 1.72475)
(3.38847e-15 -3.5571 1.57353)
(3.49544e-15 -3.3568 1.41665)
(3.4741e-15 -3.12622 1.25379)
(3.31988e-15 -2.87341 1.08601)
(3.04551e-15 -2.59638 0.908942)
(2.6782e-15 -2.27697 0.715557)
(2.25525e-15 -1.92587 0.502093)
(1.81004e-15 -1.58163 0.255844)
(1.36237e-15 -1.26105 -0.0323069)
(9.39665e-16 -0.930835 -0.339597)
(5.77894e-16 -0.616979 -0.628035)
(3.30998e-16 -0.318892 -0.880127)
(1.99849e-16 -0.12635 -1.06264)
(1.33397e-16 -0.0732844 -1.1838)
(9.07618e-17 -0.134291 -1.2612)