/*--------------------------------*- C++ -*----------------------------------*\
| =========                 |                                                 |
| \\      /  F ield         | OpenFOAM: The Open Source CFD Toolbox           |
|  \\    /   O peration     | Version:  4.1                                   |
|   \\  /    A nd           | Web:      www.OpenFOAM.org                      |
|    \\/     M anipulation  |                                                 |
\*---------------------------------------------------------------------------*/
FoamFile
{
    version     2.0;
    format      ascii;
    class       surfaceScalarField;
    location    "19";
    object      phi;
}
// * * * * * * * * * * * * * * * * * * * * * * * * * * * * * * * * * * * * * //

dimensions      [0 3 -1 0 0 0 0];

internalField   nonuniform List<scalar> 
13220
(
-812.676
2112.58
-1264.27
1751.8
-1721.63
1757.26
-2057.35
1635.62
-2327.19
1570.05
-2517.96
1490.67
-2635.55
1417.48
-2679.07
1343.73
-2651.34
1272.17
-2551.02
1199.58
-2376.52
1125.7
-2119.5
1042.88
-1720.56
900.968
-1045.52
625.161
254.378
-134.542
2247.12
-316.769
1934.03
-534.211
1974.7
-688.079
1789.49
-832.056
1714.03
-929.694
1588.31
-996.56
1484.35
-1028.78
1375.95
-1035.42
1278.8
-1022.58
1186.74
-988.836
1091.96
-917.232
971.279
-772.003
755.74
-489.976
343.136
-235.597
-101.728
2348.85
-258.689
2090.99
-367.324
2083.34
-421.154
1843.32
-464.482
1757.35
-467.958
1591.79
-454.338
1470.73
-410.697
1332.31
-321.372
1189.48
-170.307
1035.68
15.3732
906.282
183.7
802.959
284.627
654.824
238.121
389.663
2.52327
-24.0127
2372.86
-82.3287
2149.31
-120.251
2121.26
-158.552
1881.62
-200.782
1799.59
-241.156
1632.16
-292.033
1521.61
-328.128
1368.41
-299.977
1161.33
-141.97
877.676
129.521
634.794
413.753
518.726
581.071
487.504
471.783
498.95
474.306
-51.5612
2424.43
-178.501
2276.25
-270.857
2213.62
-378.921
1989.69
-496.127
1916.79
-618.835
1754.87
-761.164
1663.94
-907.226
1514.47
-1039.68
1293.79
-1101.84
939.833
-1033.41
566.366
-808.841
294.159
-475.527
154.192
-167.273
190.699
307.033
75.0923
2349.33
-70.6821
2422.02
-133.898
2276.83
-188.41
2044.2
-236.585
1964.97
-279.907
1798.19
-316.487
1700.52
-359.921
1557.9
-444.495
1378.36
-602.767
1098.1
-798.948
762.546
-929.637
424.843
-881.915
106.464
-587.084
-104.138
-280.051
241.238
2108.1
189.741
2473.52
206.496
2260.08
253.96
1996.74
326.511
1892.42
399.325
1725.38
493.483
1606.36
586.953
1464.43
648.027
1317.29
612.083
1134.05
459.401
915.228
216.624
667.623
-44.8345
367.93
-128.862
-20.103
-408.913
245.522
1862.57
269.226
2449.82
309.225
2220.08
374.551
1931.41
462.801
1804.17
547.499
1640.68
642.455
1511.41
737.601
1369.29
822.88
1232.01
866.692
1090.24
845.66
936.26
746.187
767.092
555.69
558.421
236.266
299.314
-172.648
153.298
1709.28
201.548
2401.57
238.638
2182.99
287.216
1882.83
350.708
1740.67
407.612
1583.78
463.073
1455.95
510.201
1322.16
548.253
1193.96
569.456
1069.03
562.924
942.793
516.206
813.815
410.917
663.716
232.463
477.782
59.8153
66.6849
1642.59
135.774
2332.48
190.511
2128.25
246.832
1826.51
311.439
1676.07
367.96
1527.26
417.766
1406.14
460.014
1279.91
495.302
1158.67
522.967
1041.37
532.222
933.538
501.625
844.405
403.5
761.834
222.93
658.337
282.745
-31.7404
1674.33
66.2459
2234.49
166.206
2028.29
238.464
1754.25
312.568
1601.96
399.86
1439.96
494.77
1311.23
597.174
1177.51
696.694
1059.15
777.387
960.673
807.196
903.727
751.062
900.54
583.035
929.862
326.146
915.229
608.891
-59.7246
1734.05
-58.7494
2233.51
-0.957582
1970.5
34.8657
1718.43
64.4543
1572.37
133.421
1370.99
250.6
1194.05
403.221
1024.88
567.036
895.329
705.403
822.303
765.438
843.69
708.102
957.869
525.378
1112.58
270.011
1170.59
878.902
168.735
1565.32
106.195
2296.05
-55.006
2131.7
-190.714
1854.13
-279.531
1661.18
-335.393
1426.85
-350.009
1208.66
-334.97
1009.84
-293.971
854.329
-227.319
755.649
-141.448
757.818
-54.8532
871.274
4.10062
1053.63
14.0376
1160.65
892.94
587.693
977.623
858.842
2024.9
682.803
2307.73
319.321
2217.62
-43.025
2023.53
-386.924
1770.75
-696.796
1518.53
-973.913
1286.96
-1201.29
1081.7
-1350.83
905.186
-1370.82
777.807
-1213.54
713.996
-877.668
717.751
-437.836
720.815
455.104
622.187
1645.35
2348.56
2770.13
2967.79
2926.05
2708.71
2403.34
1989.67
1528.29
1071.42
672.557
399.438
224.899
-9.64126e-07
-297.409
297.409
-297.409
-297.409
-297.409
237.072
-534.481
237.072
237.072
237.072
693.866
-456.794
693.866
693.866
1066.35
-372.488
1066.35
1066.35
1066.35
1348.62
-282.268
1348.62
1348.62
1546.76
-198.139
1546.76
1546.76
1546.76
1664.9
-118.139
1664.9
1664.9
1664.9
1700.52
-35.6244
1700.52
1700.52
1659.36
41.1662
1659.36
1659.36
1659.36
1552.01
107.351
1552.01
1552.01
1404.4
147.608
1404.4
1404.4
1404.4
1263.77
140.623
1263.77
1263.77
1263.77
1241.99
21.7814
1241.99
1241.99
1160.92
81.0771
1160.92
1160.92
1160.92
952.401
208.515
952.401
952.401
952.401
625.032
327.369
625.032
625.032
240.338
384.694
240.338
240.338
240.338
-274.703
515.042
-274.703
-274.703
-1420.11
1145.41
-1420.11
-1420.11
-1420.11
-3053.71
1633.6
-3053.71
-3053.71
-3053.71
-5087.07
2033.37
-5087.07
-5087.07
-7405.47
2318.39
-7405.47
-7405.47
-7277.17
-7153.22
-7028.6
-9364.25
2461.05
-9230.4
-9075.78
-8907.98
-8740.13
-8570.78
-8401.38
-8229.59
-8047.5
-10444.7
2574.32
-10251.5
-10060
-9869.8
-9661.43
-9451.96
-9242.01
-9032.51
-8822.96
-11200
2591.34
-10967.8
-10734.8
-10501.1
-10267.4
-10026
-9769.55
-9511.64
-9251.15
-8989.69
-11266.8
2526.01
-10986.8
-10705.9
-10425
-10145
-9865.69
-9570.12
-9265.25
-8961.17
-10827.3
2157.3
-10532.1
-10227.1
-9903.91
-9579.59
-9253.23
-8926.37
-8597.56
-8242.2
-9642.38
1742.17
-9304.12
-8969.9
-8638.88
-8293.85
-7945.64
-7602.47
-7261.42
-6924.77
-7538.91
954.306
-7201.27
-6865.74
-6529.65
-6194.28
-5861.81
-5545.71
-5234.03
-4928.85
-4634.73
-4525.54
182.631
-4292.4
-4091.6
-3898.92
-3716.65
-3542.42
-3409.41
-3349.76
-3286.11
-2891.03
-319.357
-2829.96
-2766.41
-2766.41
-2561.03
-205.379
-2345.5
-215.531
-2345.5
-2153.96
-191.539
-2153.96
-1976.87
-177.094
-1799.03
-177.833
-1799.03
-1623.98
-175.049
-1446.87
-177.111
-1446.87
-1267.24
-179.63
-1267.24
-1084.81
-182.429
-906.474
-178.34
-906.474
-726.743
-179.731
-726.743
-548.635
-178.108
-386.975
-161.66
-386.975
-229.451
-157.524
-97.142
-132.309
-97.142
17.0584
-114.2
17.0585
104.924
-87.8654
174.454
-69.5296
174.454
234.479
-60.0256
234.479
291.897
-57.4176
367.448
-75.5505
367.448
433.771
-66.3238
513.588
-79.8166
513.588
589.958
-76.3696
589.958
654.39
-64.4321
726.929
-72.5396
726.929
789.044
-62.1143
789.044
836.882
-47.8379
888.965
-52.0836
888.965
927.394
-38.4284
965.886
-38.492
965.886
998.85
-32.9649
998.85
1022.43
-23.5804
1046.55
-24.1203
1046.55
1069.28
-22.7269
1069.28
1085.4
-16.1254
1099.79
-14.3893
1099.79
1112.23
-12.4417
1121.08
-8.84801
1121.08
1134.19
-13.1058
1134.19
1146.5
-12.3103
1157.18
-10.6768
1157.18
1174.08
-16.8997
1174.08
1193.28
-19.2053
1214.5
-21.2212
1214.5
1245.17
-30.6648
1279.77
-34.6064
1279.77
1328.37
-48.5948
1328.37
-53.6639
-214.139
-771.834
-216.455
-870.403
-219.374
-910.426
-222.851
-964.623
-226.889
-1007.78
-231.46
-1053.63
-236.545
-1096.08
-242.175
-1139.31
-248.394
-1181.75
-255.371
-1224.55
-263.478
-1266.92
-273.517
-1308.13
-286.918
-1346.02
-305.842
-1377.47
-332.89
-1398.69
-370.268
-1406.55
-418.605
-1400.24
-476.071
-1382.18
-538.442
-1357.42
-600.248
-1331.65
-656.354
-1309.09
-703.174
-1291.58
-739.056
-1279.11
-763.966
-1271.18
-778.861
-1267.99
-785.133
-1270.56
-784.251
-1279.91
-777.61
-1295.97
-766.48
-1316.93
-752.018
-1339.51
-735.305
-1359.51
-717.382
-1372.15
-699.294
-1371.88
-682.325
-1352.88
-668.078
-1314.21
-654.262
-1260.51
-621.127
-1124.86
-547.176
-613.271
-480.363
368.236
-452.565
930.698
-429.546
1201.01
-407.015
1426.94
-384.577
1674.07
-362.121
1933.14
-340.023
2196.45
-318.006
2460.87
-295.729
2719.35
-273.419
2964.11
-251.123
3193.93
-228.25
3409.01
-204.582
3602
-180.513
3767.11
-155.893
3909.79
-130.582
4029.3
-104.317
4124.48
-77.5654
4179.48
-51.1352
4185.99
-26.1423
4133.75
-3.54998
4022.61
15.497
3828.65
29.3241
3527.91
38.5222
3210.32
44.1727
2914.42
47.5304
2651.87
49.714
2421.06
51.4476
2202.68
52.9759
1966.01
54.8245
1745.97
56.4892
1479.98
58.8004
1243.12
60.2785
832.106
74.1149
618.489
71.0878
-219.991
57.2628
-1153.54
33.5213
-1812.61
23.6042
-2227.41
5.33173
-2595.03
15.0395
-2767.95
2054.69
-225.108
-770.703
-227.278
-868.233
-230.362
-907.341
-234.024
-960.962
-238.344
-1003.46
-243.253
-1048.73
-248.739
-1090.59
-254.862
-1133.18
-261.751
-1174.86
-269.794
-1216.5
-279.812
-1256.9
-293.376
-1294.57
-312.956
-1326.44
-341.666
-1348.76
-382.277
-1358.08
-435.667
-1353.16
-499.519
-1336.39
-568.335
-1313.36
-635.042
-1290.71
-693.284
-1273.4
-739.105
-1263.27
-771.33
-1259.36
-790.916
-1259.52
-799.931
-1262.16
-800.701
-1267.22
-795.293
-1275.96
-785.332
-1289.87
-772.042
-1309.26
-756.403
-1332.57
-739.332
-1356.58
-721.817
-1377.02
-704.949
-1389.02
-689.865
-1386.97
-677.825
-1364.92
-670.35
-1321.69
-665.456
-1265.41
-640.703
-1149.61
-555.993
-697.981
-467.465
279.707
-442.568
905.802
-424.728
1183.17
-402.374
1404.58
-380.123
1651.82
-358.523
1911.54
-337.293
2175.22
-316.066
2439.64
-294.497
2697.78
-272.774
2942.39
-250.934
3172.09
-228.411
3386.48
-205.014
3578.61
-181.138
3743.24
-156.649
3885.3
-131.425
4004.08
-105.216
4098.27
-78.4943
4152.76
-52.0683
4159.57
-27.0504
4108.74
-4.39699
3999.95
14.7703
3809.49
28.7765
3513.9
38.1972
3200.9
44.1224
2908.5
47.8129
2648.18
50.4047
2418.47
52.6
2200.48
54.6195
1963.99
56.9754
1743.61
59.0613
1477.9
61.9017
1240.28
63.3428
830.665
80.0721
601.76
75.1307
-215.05
57.4159
-1135.83
33.7712
-1788.96
22.5228
-2216.16
5.61666
-2578.12
14.715
-2777.05
2020.81
-231.265
-769.508
-233.339
-866.16
-236.544
-904.137
-240.313
-957.193
-244.809
-998.962
-249.924
-1043.61
-255.673
-1084.84
-262.17
-1126.69
-269.688
-1167.34
-278.925
-1207.27
-291.251
-1244.58
-308.985
-1276.84
-335.273
-1300.15
-373.256
-1310.78
-424.488
-1306.84
-487.345
-1290.31
-556.663
-1267.07
-625.178
-1244.85
-685.99
-1229.9
-734.544
-1224.85
-769.231
-1228.58
-790.79
-1237.8
-801.268
-1249.04
-803.108
-1260.32
-798.575
-1271.75
-789.483
-1285.05
-777.165
-1302.19
-762.604
-1323.82
-746.648
-1348.52
-730.215
-1373.01
-714.396
-1392.84
-700.417
-1403
-689.461
-1397.92
-682.58
-1371.8
-680.812
-1323.46
-682.202
-1264.02
-665.38
-1166.44
-580.893
-782.468
-465.786
164.601
-428.794
868.81
-416.082
1170.45
-396.48
1384.98
-374.256
1629.59
-353.388
1890.67
-333.316
2155.15
-313.2
2419.52
-292.653
2677.23
-271.82
2921.55
-250.684
3150.95
-228.702
3364.5
-205.729
3555.63
-182.162
3719.67
-157.884
3861.02
-132.792
3978.99
-106.65
4072.13
-79.9444
4126.06
-53.4859
4133.11
-28.3908
4083.64
-5.60291
3977.16
13.771
3790.11
28.0372
3499.64
37.76
3191.18
44.0412
2902.22
48.1646
2644.05
51.2873
2415.35
54.106
2197.67
56.8157
1961.28
59.8735
1740.55
62.6032
1475.17
66.0215
1236.86
67.7014
828.985
84.0001
585.461
77.9512
-209.001
58.6903
-1116.56
34.744
-1765.01
22.156
-2203.57
6.58882
-2562.55
11.9414
-2782.4
1998.14
-238.635
-768.218
-240.647
-864.147
-244.003
-900.781
-247.918
-953.277
-252.637
-994.243
-258.021
-1038.23
-264.136
-1078.73
-271.207
-1119.62
-279.774
-1158.77
-291.048
-1195.99
-307.175
-1228.45
-331.332
-1252.68
-367.055
-1264.43
-416.69
-1261.15
-479.483
-1244.05
-550.692
-1219.1
-622.719
-1195.04
-687.764
-1179.8
-740.287
-1177.38
-777.993
-1187.14
-801.348
-1205.23
-812.442
-1226.7
-813.95
-1247.54
-808.478
-1265.8
-798.232
-1282
-784.905
-1298.38
-769.704
-1317.39
-753.529
-1339.99
-737.218
-1364.83
-721.764
-1388.47
-708.381
-1406.23
-698.373
-1413
-692.819
-1403.48
-692.333
-1372.28
-697.248
-1318.54
-705.491
-1255.77
-697.083
-1174.85
-616.829
-862.722
-476.493
24.2657
-417.586
809.903
-403.782
1156.65
-388.524
1369.73
-367.615
1608.68
-347.255
1870.31
-328.287
2136.18
-309.531
2400.77
-290.283
2657.98
-270.596
2901.86
-250.389
3130.74
-229.135
3343.25
-206.735
3533.23
-183.588
3696.52
-159.597
3837.03
-134.677
3954.07
-108.617
4046.07
-81.9203
4099.36
-55.4019
4106.59
-30.1859
4058.42
-7.20831
3954.19
12.4372
3770.47
27.0427
3485.03
37.1472
3181.07
43.8648
2895.5
48.5086
2639.41
52.267
2411.59
55.842
2194.09
59.4021
1957.72
63.3397
1736.62
66.8832
1471.62
71.0183
1232.72
73.0069
826.996
89.6664
568.801
82.8821
-202.217
61.1002
-1094.78
36.2054
-1740.12
21.8925
-2189.26
6.87018
-2547.53
9.97236
-2785.5
1977.45
-245.879
-766.797
-247.852
-862.174
-251.372
-897.261
-255.449
-949.2
-260.409
-989.283
-266.105
-1032.53
-272.697
-1072.14
-280.629
-1111.68
-290.891
-1148.51
-305.447
-1181.44
-327.382
-1206.52
-360.525
-1219.54
-407.97
-1216.98
-469.956
-1199.16
-542.39
-1171.62
-617.532
-1143.95
-686.728
-1125.85
-743.396
-1123.13
-784.504
-1136.27
-810.22
-1161.43
-822.637
-1192.81
-824.564
-1224.78
-818.774
-1253.33
-807.698
-1276.87
-793.32
-1296.37
-777.165
-1314.54
-760.358
-1334.2
-743.802
-1356.55
-728.429
-1380.21
-715.38
-1401.52
-705.993
-1415.61
-701.539
-1417.46
-702.753
-1402.26
-709.494
-1365.54
-721.08
-1306.96
-735.302
-1241.55
-734.737
-1175.41
-662.217
-935.243
-500.539
-137.412
-410.983
720.346
-389.622
1135.29
-377.527
1357.63
-359.61
1590.77
-340.317
1851.02
-322.265
2118.13
-304.96
2383.46
-287.296
2640.32
-269.033
2883.6
-250.007
3111.72
-229.701
3322.94
-208.05
3511.58
-185.457
3673.93
-161.846
3813.42
-137.155
3929.38
-111.2
4020.11
-84.5067
4072.66
-57.8988
4079.98
-32.5133
4033.04
-9.28124
3930.95
10.7157
3750.47
25.7461
3470
36.3201
3170.5
43.5632
2888.26
48.8248
2634.15
53.3348
2407.08
57.812
2189.61
62.3948
1953.14
67.4098
1731.6
71.9554
1467.08
76.9988
1227.68
79.3792
824.616
96.1668
552.014
88.6312
-194.681
64.4578
-1070.61
38.2584
-1713.92
21.9426
-2172.94
6.91504
-2532.5
5.75574
-2784.34
1961.99
-253.311
-765.21
-255.267
-860.218
-258.972
-893.555
-263.24
-944.932
-268.481
-984.042
-274.584
-1026.43
-281.889
-1064.83
-291.224
-1102.35
-304.28
-1135.46
-324.005
-1161.71
-354.363
-1176.16
-399.145
-1174.75
-459.674
-1156.46
-532.783
-1126.05
-610.847
-1093.55
-684.425
-1070.38
-745.776
-1064.5
-790.96
-1077.95
-819.743
-1107.49
-834.202
-1146.97
-837.263
-1189.75
-831.8
-1230.24
-820.317
-1264.81
-804.923
-1292.27
-787.395
-1313.9
-769.192
-1332.74
-751.504
-1351.89
-735.396
-1372.66
-722.008
-1393.59
-712.661
-1410.86
-708.723
-1419.55
-711.189
-1414.99
-720.108
-1393.34
-734.248
-1351.4
-751.731
-1289.47
-770.328
-1222.96
-776.117
-1169.62
-712.729
-998.631
-534.86
-315.28
-410.255
595.742
-375.561
1100.59
-363.739
1345.81
-349.371
1576.4
-332.41
1834.06
-315.443
2101.16
-299.482
2367.5
-283.58
2624.42
-267.019
2867.04
-249.429
3094.13
-230.302
3303.82
-209.597
3490.88
-187.71
3652.04
-164.591
3790.3
-140.2
3904.98
-114.386
3994.3
-87.7005
4045.98
-60.98
4053.26
-35.3795
4007.44
-11.8281
3907.4
8.59949
3730.04
24.1373
3454.46
35.263
3159.37
43.1134
2880.41
49.0804
2628.18
54.4442
2401.72
59.953
2184.1
65.7134
1947.38
71.985
1725.33
77.7096
1461.35
83.8309
1221.56
86.7045
821.742
103.319
535.399
95.2403
-186.602
68.7925
-1044.16
40.8865
-1686.01
22.2828
-2154.34
6.66761
-2516.89
1.64731
-2779.32
1944.43
-260.879
-763.42
-262.834
-858.263
-266.749
-889.64
-271.243
-940.439
-276.838
-978.447
-283.53
-1019.74
-291.981
-1056.38
-303.653
-1090.68
-321.213
-1117.9
-348.667
-1134.26
-390.345
-1134.48
-448.708
-1116.39
-521.761
-1083.4
-602.317
-1045.49
-680.294
-1015.58
-746.691
-1003.98
-796.458
-1014.73
-828.827
-1045.58
-845.843
-1090.47
-850.611
-1142.2
-846.152
-1194.21
-834.992
-1241.4
-819.198
-1280.6
-800.568
-1310.9
-780.754
-1333.72
-761.292
-1352.2
-743.593
-1369.59
-729.016
-1387.23
-718.971
-1403.64
-714.897
-1414.94
-717.954
-1416.49
-728.499
-1404.45
-745.516
-1376.33
-766.446
-1330.47
-788.21
-1267.71
-808.808
-1202.36
-818.797
-1159.63
-766.256
-1051.17
-579.773
-501.763
-416.88
432.848
-363.105
1046.82
-348.306
1331.01
-336.45
1564.54
-322.89
1820.5
-307.831
2086.1
-293.206
2352.88
-279.07
2610.28
-264.434
2852.41
-248.542
3078.23
-230.832
3286.11
-211.284
3471.33
-190.276
3631.03
-167.778
3767.81
-143.777
3880.98
-118.155
3968.68
-91.4936
4019.32
-64.6488
4026.42
-38.7972
3981.59
-14.8688
3883.48
6.06193
3709.11
22.1852
3438.34
33.9426
3147.62
42.4802
2871.87
49.2356
2621.43
55.5474
2395.4
62.2054
2177.45
69.2847
1940.3
76.9758
1717.64
84.0413
1454.29
91.3984
1214.2
94.8605
818.28
111.087
519.173
102.626
-178.142
74.011
-1015.55
44.1007
-1656.1
22.8947
-2133.13
6.10469
-2500.1
-1.55947
-2771.66
1925.97
-268.611
-761.39
-270.581
-856.294
-274.739
-885.482
-279.52
-935.657
-285.607
-972.36
-293.233
-1012.11
-303.607
-1046.01
-319.128
-1075.16
-343.632
-1093.39
-381.866
-1096.02
-437.352
-1078.99
-509.493
-1044.25
-591.908
-1000.99
-674.123
-963.278
-745.833
-943.865
-800.655
-949.158
-837.089
-978.296
-857.092
-1025.58
-864.003
-1083.56
-861.084
-1145.12
-850.949
-1204.34
-835.576
-1256.77
-816.598
-1299.58
-795.588
-1331.91
-774.225
-1355.08
-754.286
-1372.14
-737.566
-1386.31
-725.824
-1398.98
-720.72
-1408.74
-723.586
-1412.07
-734.992
-1405.09
-754.213
-1385.22
-778.869
-1351.67
-805.069
-1304.27
-828.798
-1243.98
-848.55
-1182.6
-859.935
-1148.25
-819.8
-1091.31
-636.746
-684.816
-433.712
229.814
-353.04
966.148
-332.361
1310.33
-321.116
1553.3
-311.05
1810.43
-299.051
2074.1
-286.206
2340.03
-273.792
2597.87
-261.182
2839.8
-247.235
3064.29
-231.192
3270.06
-213.025
3453.16
-193.087
3611.1
-171.36
3746.08
-147.855
3857.48
-122.493
3943.32
-95.8888
3992.71
-68.92
3999.45
-42.7903
3955.46
-18.4335
3859.12
3.06822
3687.61
19.8513
3421.56
32.3193
3135.15
41.6254
2862.56
49.2524
2613.8
56.6053
2388.05
64.5263
2169.53
73.0604
1931.76
82.3251
1708.37
90.8844
1445.73
99.6251
1205.46
103.766
814.139
119.446
503.493
110.713
-169.408
80.0679
-984.902
47.893
-1623.93
23.7475
-2108.99
5.16561
-2481.51
-7.38348
-2759.11
1907.91
-276.523
-759.076
-278.524
-854.293
-282.973
-881.033
-288.153
-930.477
-294.998
-965.515
-304.191
-1002.92
-317.789
-1032.41
-339.42
-1053.53
-373.966
-1058.84
-425.932
-1044.06
-496.224
-1008.7
-579.669
-960.805
-665.754
-914.903
-742.921
-886.112
-803.224
-883.561
-844.18
-908.202
-867.533
-954.943
-876.876
-1016.24
-875.815
-1084.62
-867.164
-1153.77
-852.892
-1218.62
-834.43
-1275.23
-813.081
-1320.93
-790.354
-1354.63
-768.133
-1377.3
-748.625
-1391.65
-734.159
-1400.77
-726.912
-1406.22
-728.597
-1407.06
-740.033
-1400.64
-760.676
-1384.45
-788.323
-1357.58
-819.165
-1320.83
-848.304
-1275.14
-871.285
-1221
-887.272
-1166.62
-896.778
-1138.74
-869.288
-1118.8
-708.089
-846.015
-468.814
-9.46213
-346.971
844.305
-316.576
1279.94
-304.152
1540.87
-296.596
1802.88
-288.466
2065.97
-278.34
2329.91
-267.825
2587.35
-257.229
2829.2
-245.4
3052.46
-231.278
3255.94
-214.727
3436.61
-196.067
3592.44
-175.281
3725.29
-152.398
3834.6
-127.382
3918.3
-100.881
3966.21
-73.8015
3972.37
-47.3765
3929.03
-22.5465
3834.29
-0.411185
3665.47
17.1001
3404.05
30.3549
3121.89
40.5101
2852.41
49.0917
2605.22
57.5779
2379.56
66.8727
2160.23
76.9933
1921.64
87.9765
1697.39
98.1736
1435.53
108.422
1195.21
113.333
809.227
128.323
488.503
119.384
-160.468
86.8948
-952.413
52.255
-1589.29
24.9105
-2081.64
3.99957
-2460.6
-12.3132
-2742.8
1883.29
-284.635
-756.43
-286.689
-852.239
-291.516
-876.206
-297.306
-924.687
-305.41
-957.412
-317.267
-991.061
-336.123
-1013.55
-366.902
-1022.75
-414.796
-1010.95
-482.295
-976.559
-565.767
-925.23
-655.127
-871.445
-737.729
-832.301
-803.886
-819.955
-849.817
-837.63
-876.865
-881.155
-888.856
-942.953
-889.816
-1015.27
-882.878
-1091.56
-870.116
-1166.53
-852.843
-1235.89
-832.062
-1296.02
-808.911
-1344.08
-785.03
-1378.51
-762.725
-1399.61
-744.831
-1409.54
-734.296
-1411.31
-733.574
-1406.94
-743.999
-1396.63
-765.264
-1379.37
-795.189
-1354.52
-829.923
-1322.84
-864.521
-1286.23
-893.714
-1245.94
-913.231
-1201.48
-922.895
-1156.95
-927.116
-1134.52
-909.157
-1136.76
-781.536
-973.636
-521.28
-269.718
-347.07
670.095
-300.977
1233.84
-286.389
1526.28
-279.789
1796.28
-275.499
2061.68
-269.173
2323.58
-261.165
2579.34
-252.616
2820.65
-242.966
3042.81
-230.986
3243.96
-216.295
3421.92
-199.129
3575.27
-179.47
3705.63
-157.356
3812.48
-132.789
3893.73
-106.456
3939.88
-79.2935
3945.21
-52.5674
3902.31
-27.2282
3808.95
-4.40419
3642.65
13.8982
3385.74
28.011
3107.78
39.0939
2841.32
48.7121
2595.6
58.4228
2369.85
69.2004
2149.45
81.0364
1909.81
93.8747
1684.55
105.845
1423.56
117.699
1183.36
123.474
803.451
137.679
474.299
128.565
-151.355
94.4395
-918.288
57.1747
-1552.02
26.443
-2050.91
2.77183
-2436.93
-15.7111
-2724.31
1854.47
-292.976
-753.394
-295.128
-850.086
-300.492
-870.842
-307.291
-917.888
-317.551
-947.151
-333.853
-974.76
-360.853
-986.553
-404.305
-979.293
-468.095
-947.161
-550.478
-894.176
-642.283
-833.425
-730.107
-783.621
-802.405
-760.003
-853.769
-768.591
-884.878
-806.522
-899.712
-866.321
-902.773
-939.891
-897.613
-1020.43
-886.524
-1102.65
-870.816
-1182.24
-851.276
-1255.43
-828.647
-1318.64
-804.105
-1368.62
-779.651
-1402.97
-758.262
-1421
-743.584
-1424.22
-739.137
-1415.75
-747.24
-1398.84
-768.135
-1375.74
-799.689
-1347.82
-837.769
-1316.44
-877.116
-1283.5
-912.31
-1251.04
-938.5
-1219.75
-952.176
-1187.81
-953.64
-1155.49
-949.492
-1138.67
-935.089
-1151.16
-839.585
-1069.14
-580.723
-528.58
-356.361
445.733
-285.723
1163.21
-268.24
1508.8
-261.292
1789.33
-259.929
2060.32
-258.098
2321.75
-253.583
2574.83
-247.391
2814.46
-239.923
3035.34
-230.222
3234.26
-217.629
3409.33
-202.186
3559.83
-183.854
3687.3
-162.672
3791.3
-138.678
3869.74
-112.595
3913.8
-85.3915
3918
-58.3711
3875.29
-32.497
3783.08
-8.93721
3619.09
10.2141
3366.59
25.2496
3092.75
37.3351
2829.24
48.0707
2584.86
59.0969
2358.83
71.4662
2137.08
85.1461
1896.13
99.9717
1669.73
113.844
1409.69
127.382
1169.82
134.115
796.718
147.485
460.929
138.188
-142.058
102.647
-882.747
62.6391
-1512.02
28.3848
-2016.66
1.50274
-2410.05
-21.5318
-2701.28
1824.09
-301.588
-749.887
-303.935
-847.739
-310.139
-864.638
-318.676
-909.351
-332.607
-933.221
-356.007
-951.36
-394.749
-947.811
-454.064
-919.979
-534.158
-867.067
-627.371
-800.963
-719.975
-740.821
-798.588
-705.008
-855.837
-702.755
-891.407
-733.021
-909.297
-788.632
-914.508
-861.109
-911.102
-943.297
-901.689
-1029.85
-887.679
-1116.66
-869.753
-1200.17
-848.349
-1276.83
-824.149
-1342.85
-798.59
-1394.18
-774.311
-1427.25
-755.234
-1440.07
-745.922
-1433.53
-750.162
-1411.52
-769.361
-1379.64
-801.742
-1343.36
-842.793
-1306.77
-886.585
-1272.65
-927.155
-1242.93
-959.483
-1218.71
-979.831
-1199.4
-985.821
-1181.82
-978.005
-1163.3
-963.358
-1153.32
-945.921
-1168.6
-876.906
-1138.16
-645.196
-760.289
-379.579
180.116
-272.403
1056.03
-249.621
1486.02
-241.853
1781.56
-242.026
2060.49
-244.609
2324.33
-244.603
2574.82
-241.48
2811.34
-236.309
3030.17
-228.935
3226.89
-218.634
3399.03
-205.149
3546.34
-188.353
3670.5
-168.284
3771.23
-145.004
3846.46
-119.269
3888.06
-92.0854
3890.82
-64.7914
3847.99
-38.3678
3756.65
-14.0331
3594.76
6.01852
3346.54
22.0339
3076.73
35.1912
2816.08
47.1231
2572.93
59.5558
2346.39
73.6272
2123.01
89.2813
1880.47
106.225
1652.78
122.124
1393.79
137.41
1154.54
145.188
788.941
157.707
448.409
148.188
-132.538
111.466
-846.025
68.6369
-1469.19
30.7847
-1978.8
0.263041
-2379.53
-25.312
-2675.7
1786.34
-310.546
-745.789
-313.29
-844.994
-320.904
-857.024
-332.445
-897.81
-352.407
-913.258
-386.438
-917.329
-440.6
-893.649
-517.252
-843.327
-610.631
-773.688
-707.334
-704.259
-792.286
-655.869
-855.851
-641.443
-896.323
-662.282
-917.52
-711.824
-924.935
-781.217
-923.218
-862.826
-915.392
-951.123
-903.053
-1042.19
-886.874
-1132.84
-867.103
-1219.94
-844.018
-1299.92
-818.444
-1368.42
-792.346
-1420.28
-769.328
-1450.27
-754.526
-1454.88
-753.328
-1434.73
-769.069
-1395.77
-801.086
-1347.63
-844.672
-1299.77
-892.9
-1258.54
-938.806
-1226.74
-976.765
-1204.97
-1002.95
-1192.52
-1015.13
-1187.23
-1012.13
-1184.82
-994.606
-1180.82
-968.607
-1179.32
-942.719
-1194.48
-890.716
-1190.16
-709.066
-941.939
-422.234
-106.716
-263.947
897.743
-230.166
1452.24
-221.877
1773.27
-222.452
2061.07
-228.552
2330.43
-233.639
2579.91
-234.585
2812.28
-232.129
3027.71
-227.124
3221.88
-219.23
3391.13
-207.924
3535.03
-192.887
3655.47
-174.122
3752.47
-151.716
3824.05
-126.448
3862.79
-99.3592
3863.73
-71.8268
3820.46
-44.851
3729.68
-19.7105
3569.62
1.28532
3325.55
18.3273
3059.69
32.6191
2801.79
45.8236
2559.73
59.7537
2332.46
75.6403
2107.13
93.4024
1862.71
112.596
1633.59
130.644
1375.74
147.736
1137.44
156.631
780.046
168.31
436.73
158.509
-122.737
120.846
-808.362
75.1616
-1423.5
33.6448
-1937.29
-0.976751
-2344.91
-30.2808
-2646.4
1741.67
-319.987
-740.905
-323.541
-841.441
-333.578
-846.987
-350.18
-881.209
-379.508
-883.93
-428.152
-868.685
-500.211
-821.59
-592.411
-751.126
-692.261
-673.838
-783.392
-613.128
-853.661
-585.6
-899.524
-595.58
-924.33
-637.477
-934.024
-702.13
-933.921
-781.319
-927.545
-869.203
-916.754
-961.913
-902.293
-1056.65
-884.316
-1150.81
-862.829
-1241.42
-838.137
-1324.61
-811.434
-1395.12
-785.538
-1446.18
-765.4
-1470.4
-757.543
-1462.73
-767.699
-1424.57
-797.484
-1365.99
-842.789
-1302.32
-895.543
-1247.02
-947.16
-1206.92
-990.924
-1182.98
-1022.58
-1173.31
-1039.95
-1175.15
-1042.27
-1184.91
-1029.42
-1197.66
-1002.16
-1208.09
-965.067
-1216.41
-927.74
-1231.81
-881.083
-1236.82
-746.594
-1076.43
-467.065
-386.245
-262.896
693.574
-210.613
1399.96
-201.371
1764.03
-201.972
2061.67
-210.246
2338.7
-220.22
2589.89
-226.189
2818.25
-227.247
3028.77
-224.812
3219.45
-219.378
3385.7
-210.424
3526.08
-197.371
3642.42
-180.115
3735.21
-158.757
3802.69
-134.091
3838.13
-107.191
3836.83
-79.4702
3792.74
-51.9527
3702.16
-25.9876
3543.65
-4.01371
3303.57
14.0951
3041.58
29.5772
2786.31
44.1267
2545.18
59.6445
2316.95
77.4627
2089.31
97.4718
1842.7
119.052
1612.01
139.37
1355.42
158.322
1118.49
168.392
769.976
179.261
425.861
169.107
-112.583
130.739
-769.994
82.2152
-1374.98
36.9906
-1892.06
-2.005
-2305.91
-34.2625
-2614.14
1691.28
-330.167
-734.901
-335.315
-836.293
-349.49
-832.812
-374.205
-856.493
-416.986
-841.149
-483.58
-802.092
-573.11
-732.06
-674.926
-649.31
-771.833
-576.931
-849.128
-535.833
-900.921
-533.808
-929.709
-566.791
-941.795
-625.391
-943.233
-700.692
-938.143
-786.409
-928.723
-878.623
-915.846
-974.79
-899.651
-1072.84
-879.982
-1170.48
-856.776
-1264.63
-830.55
-1350.84
-803.146
-1422.53
-778.645
-1470.68
-763.741
-1485.31
-766.243
-1460.23
-791.11
-1399.71
-836.439
-1320.66
-893.571
-1245.19
-951.596
-1188.99
-1001.84
-1156.68
-1039.24
-1145.58
-1061.55
-1151.01
-1068.24
-1168.45
-1059.7
-1193.45
-1036.56
-1220.8
-999.718
-1244.94
-952.52
-1263.6
-903.464
-1280.87
-853.41
-1286.87
-749.322
-1180.52
-497.995
-637.572
-267.629
463.209
-192.784
1325.11
-180.335
1751.58
-181.056
2062.39
-190.375
2348.02
-204.225
2603.74
-215.696
2829.72
-221.309
3034.38
-221.967
3220.1
-219.077
3382.81
-212.579
3519.58
-201.721
3631.56
-186.189
3719.68
-166.064
3782.57
-142.153
3814.22
-115.552
3810.23
-87.7089
3764.89
-59.6745
3674.12
-32.8805
3516.86
-9.9017
3280.59
9.31095
3022.37
26.0288
2769.59
41.9883
2529.22
59.183
2299.75
79.0536
2069.44
101.457
1820.3
125.568
1587.9
148.279
1332.71
169.144
1097.63
180.434
758.686
190.541
415.754
179.949
-101.991
141.095
-731.139
89.8078
-1323.69
40.8149
-1843.07
-2.72409
-2262.37
-36.5657
-2580.3
1631.98
-341.552
-727.193
-349.702
-828.143
-370.683
-811.831
-407.531
-819.645
-467.757
-780.924
-553.26
-716.589
-655.56
-629.76
-757.588
-547.282
-842.107
-492.412
-900.419
-477.521
-933.66
-500.566
-948.31
-552.142
-951.226
-622.475
-947.247
-704.671
-938.984
-794.671
-927.492
-890.115
-912.948
-989.335
-895.119
-1090.67
-873.713
-1191.89
-848.749
-1289.59
-821.172
-1378.41
-793.839
-1449.86
-772.599
-1491.92
-766.177
-1491.73
-783.004
-1443.4
-825.326
-1357.38
-885.752
-1260.23
-950.943
-1180
-1008.91
-1131.02
-1052.87
-1112.72
-1080.38
-1118.07
-1091.26
-1140.13
-1086.26
-1173.45
-1066.49
-1213.22
-1033.05
-1254.24
-987.058
-1290.93
-931.142
-1319.52
-872.132
-1339.88
-815.212
-1343.79
-729.024
-1266.7
-516.524
-850.072
-273.73
220.415
-178.568
1229.95
-159.347
1732.36
-159.727
2062.77
-169.65
2357.95
-185.994
2620.08
-202.664
2846.39
-213.775
3045.49
-218.403
3224.73
-218.331
3382.74
-214.352
3515.6
-205.854
3623.06
-192.266
3706.09
-173.573
3763.88
-150.583
3791.23
-124.409
3784.05
-96.5236
3737.01
-68.0121
3645.61
-40.3981
3489.24
-16.3939
3256.59
3.95405
3002.02
21.94
2751.6
39.3662
2511.79
58.3269
2280.79
80.3761
2047.39
105.33
1795.35
132.127
1561.1
157.358
1307.48
180.192
1074.79
192.732
746.145
202.137
406.349
191.016
-90.8698
151.864
-691.988
97.9579
-1269.79
45.119
-1790.23
-3.19402
-2214.06
-41.0432
-2542.45
1566.82
-354.962
-716.793
-368.448
-814.657
-399.977
-780.302
-453.366
-766.256
-533.314
-700.975
-634.545
-615.359
-740.668
-523.637
-832.448
-455.502
-897.893
-426.967
-936.181
-439.233
-953.662
-483.086
-958.025
-547.778
-954.967
-625.533
-947.626
-712.012
-937.282
-805.015
-924.179
-903.218
-908.069
-1005.44
-888.538
-1110.2
-865.288
-1215.14
-838.579
-1316.3
-810.069
-1406.92
-784.125
-1475.8
-768.914
-1507.13
-775.136
-1485.51
-810.25
-1408.29
-871.1
-1296.53
-943.485
-1187.85
-1010.91
-1112.58
-1063
-1078.92
-1096.47
-1079.25
-1111.7
-1102.85
-1110.08
-1141.75
-1093.13
-1190.4
-1062.36
-1243.99
-1019.16
-1297.44
-964.92
-1345.17
-902.001
-1382.44
-835.786
-1406.09
-772.464
-1407.11
-696.236
-1342.93
-528.566
-1017.74
-285.196
-22.9548
-168.517
1113.27
-139.724
1703.57
-138.036
2061.08
-148.491
2368.4
-166.233
2637.82
-187.026
2867.19
-204.056
3062.52
-213.728
3234.4
-217.072
3386.08
-215.737
3514.27
-209.703
3617.03
-198.267
3694.65
-181.216
3746.83
-159.323
3769.33
-133.719
3758.45
-105.888
3709.18
-76.9545
3616.68
-48.5436
3460.83
-23.5054
3231.55
-2.00031
2980.51
17.2795
2732.32
36.2238
2492.85
57.0375
2259.98
81.3975
2023.03
109.069
1767.67
138.72
1531.45
166.604
1279.6
191.464
1049.93
205.274
732.335
214.042
397.581
202.294
-79.122
162.993
-652.686
106.692
-1213.49
49.9703
-1733.51
-3.37528
-2160.71
-44.3213
-2501.5
1498.92
-371.753
-702.105
-394.095
-792.315
-440.688
-733.709
-514.021
-692.923
-612.24
-602.756
-721.195
-506.403
-819.977
-424.855
-893.169
-382.31
-937.233
-382.903