/*--------------------------------*- C++ -*----------------------------------*\
| =========                 |                                                 |
| \\      /  F ield         | OpenFOAM: The Open Source CFD Toolbox           |
|  \\    /   O peration     | Version:  4.1                                   |
|   \\  /    A nd           | Web:      www.OpenFOAM.org                      |
|    \\/     M anipulation  |                                                 |
\*---------------------------------------------------------------------------*/
FoamFile
{
    version     2.0;
    format      ascii;
    class       volScalarField;
    location    "9";
    object      p;
}
// * * * * * * * * * * * * * * * * * * * * * * * * * * * * * * * * * * * * * //

dimensions      [0 2 -2 0 0 0 0];

internalField   nonuniform List<scalar> 
6785
(
607.206
540.618
489.566
439.457
393.094
349.514
308.594
270.072
233.761
199.137
165.714
134.92
107.226
74.1334
39.8519
56.1638
37.9655
41.5849
36.665
33.4368
29.9982
27.0662
24.8093
23.4438
23.0613
23.5731
25.4204
29.3853
32.7686
33.2239
6.22879
0.0686275
9.70532
8.21852
11.3252
13.0064
14.9454
16.6365
18.1617
19.4762
20.5436
21.2644
21.4643
22.1718
23.882
51.6173
49.2781
54.1921
50.2167
51.0437
49.4369
48.3499
47.0587
45.79
44.5673
43.4333
42.5236
42.2033
43.0602
45.4816
62.5988
61.4282
65.1383
62.2041
64.5439
64.2476
64.9513
65.5902
66.3429
67.2306
68.2613
69.459
70.9515
72.3786
73.9682
72.4005
72.2881
75.2266
73.5018
76.0836
76.0469
77.233
77.9945
78.8083
79.4977
80.0656
80.5489
81.1741
81.7697
82.2994
80.628
80.2731
82.2605
80.4469
82.2076
81.3938
81.983
81.8528
81.9045
81.7227
81.4093
81.0495
80.8334
80.7889
80.448
78.7609
77.4649
78.6348
76.621
77.6385
76.4045
76.6145
76.0102
75.7037
75.0459
74.3173
73.621
73.0396
72.3981
71.2921
65.0614
63.2259
63.5535
61.4864
61.8059
60.1937
59.8983
58.8293
58.1944
57.4238
56.8543
56.3424
55.5862
54.6254
53.8142
48.268
46.8783
47.0019
45.2779
45.3306
43.7852
43.305
42.2043
41.442
40.6869
40.1179
39.6431
39.0988
38.8722
39.449
41.5685
41.3497
41.7863
40.7168
41.0849
40.1849
40.0788
39.5581
39.2258
38.9485
38.8302
38.8485
39.0429
39.4043
40.3537
45.5044
46.387
47.0662
46.6976
47.4249
47.2335
47.5923
47.6944
47.8916
48.116
48.4097
48.7366
49.2121
49.6224
50.499
58.1896
59.2672
59.5738
59.1486
59.573
59.2805
59.387
59.4091
59.5228
59.7205
60.0125
60.3492
60.8518
61.2645
62.014
67.873
70.0453
69.8714
69.2405
69.4152
69.3746
69.7516
70.0905
70.5061
70.8396
71.052
71.089
71.1603
71.1829
71.4436
106.532
104.696
99.3922
93.468
88.9313
84.5186
80.5096
77.0873
73.9758
71.1147
68.4074
66.7499
65.7645
64.885
63.699
82.064
82.0304
82.0648
82.0635
82.0642
82.0352
82.0662
82.0538
82.0682
82.0367
82.073
82.0173
82.1115
82.0663
82.0342
82.0684
82.0619
82.118
82.0273
82.2159
82.14
82.0906
82.1393
82.2034
82.2309
82.1718
82.2325
82.2874
82.3623
82.2424
82.5099
82.4423
82.3651
82.4446
82.5182
82.604
82.4907
82.7681
82.7055
82.6461
82.7183
82.8206
82.8625
82.8166
82.8852
82.9514
83.0175
82.9413
83.1665
83.0484
83.0083
83.055
83.0934
83.1558
83.1219
83.1742
83.168
83.4085
83.3993
83.3541
83.8134
83.6528
83.7463
83.462
83.9019
84.0302
84.3238
84.0673
83.2462
84.3302
84.6569
80.0798
78.1308
80.4187
78.9768
66.4158
73.076
71.5727
42.9462
52.274
57.4316
56.491
58.4964
51.265
54.4849
57.9931
58.2766
58.6611
58.9114
59.5485
60.724
62.4033
60.9977
58.4783
60.0157
60.9893
62.1822
62.9682
63.6702
64.1359
65.4848
67.3754
63.763
65.0412
65.0636
65.9961
67.7248
68.8059
68.9656
68.8118
68.9036
72.8779
70.3795
70.7415
70.2452
69.6718
70.6273
71.9667
71.1163
69.0643
69.6016
71.6061
72.608
72.471
71.2494
70.0869
68.8933
68.6727
66.849
69.2377
72.6653
70.1252
69.9707
69.3013
67.5338
65.8685
63.0413
59.1883
64.0453
69.5546
65.0858
62.2713
58.7825
56.1911
53.6411
51.0417
48.0833
45.2636
41.9627
50.7522
46.3743
44.8657
43.0635
39.9346
34.3154
32.7632
34.8549
23.4571
38.3576
35.2795
32.8472
37.8413
35.371
36.9726
36.9651
38.0072
39.0742
37.7674
38.4609
38.7233
37.913
37.9506
37.6419
37.5109
37.3124
36.5482
36.432
36.0393
35.7198
35.5069
34.4715
33.947
33.5608
32.7143
32.0784
31.4584
30.8921
30.2682
29.8317
29.1406
28.3784
27.9723
27.3187
27.3245
26.8146
26.005
26.3476
26.0143
25.3845
25.4468
25.0707
25.544
25.4574
25.1206
25.3565
25.2039
25.7899
25.9284
25.8433
26.4633
26.7329
26.6092
27.0839
27.1901
27.4378
27.8481
27.1215
28.5279
29.0226
26.5988
29.116
30.8525
26.4226
26.9484
22.8195
27.9899
33.8411
19.6508
19.4212
10.4331
22.0816
33.0448
-11.1603
12.7358
36.7499
-23.5278
-24.1283
-53.4457
-34.6344
60.2154
-0.00114165
0.00162036
-0.00259522
-0.00983728
-0.019618
-0.0294948
-0.0360229
-0.0371594
-0.0326156
-0.0230832
-0.010472
0.00408068
0.0179682
0.0278757
0.0333822
0.0357466
0.0364026
0.0389789
0.0472345
0.0602794
0.0827036
0.120752
0.150341
0.0744886
-0.0663246
-0.11777
-0.0869404
-0.0542471
-0.0549392
-0.0667795
-0.0396664
0.00267355
0.0413074
0.0527072
0.0502449
0.0499322
0.0528825
0.0472007
0.0451727
0.0518316
0.0494429
0.0417503
0.0384257
0.030886
0.0199889
0.00294918
-0.00648335
-0.00216192
0.00548249
0.00844445
0.00761349
0.00444338
-0.000680256
-0.00725747
-0.0146797
-0.0225241
-0.0298611
-0.0354937
-0.039211
-0.045268
-0.058134
-0.0889889
-0.130029
-0.179118
-0.208163
-0.222592
-0.203913
-0.174484
-0.0840245
0.0224473
0.181082
0.520614
1.028
1.61369
1.50811
1.10647
1.23137
4.10877
5.46864
-0.0114532
-0.00420687
-0.0120875
-0.0352997
-0.0647745
-0.0941946
-0.111432
-0.109585
-0.0881812
-0.0519943
-0.00993983
0.0343063
0.0765522
0.109833
0.131406
0.144123
0.155776
0.170535
0.186218
0.199929
0.213668
0.233539
0.262038
0.155141
-0.0845964
-0.133637
-0.0160617
0.0459052
-0.00804918
-0.10147
-0.0919678
-0.0297721
0.0473431
0.0818038
0.0961756
0.101394
0.108448
0.112273
0.109661
0.110706
0.113201
0.109836
0.10933
0.0872464
0.0573845
0.0395264
0.0427984
0.0459055
0.0407311
0.0306592
0.0182997
0.00338174
-0.0130515
-0.0292755
-0.0428565
-0.0517699
-0.0525976
-0.042969
-0.0224732
0.00315265
0.0368846
0.0582854
0.0805812
0.0496749
0.00550973
-0.109239
-0.174258
-0.265876
-0.094408
0.292088
0.862495
1.98284
3.21953
3.99946
2.58572
2.55148
1.25326
0.517879
8.61684
-0.0213061
-0.0116407
-0.0249026
-0.0630176
-0.111662
-0.160756
-0.191257
-0.190762
-0.15704
-0.0964321
-0.0235985
0.0546309
0.129077
0.187583
0.22617
0.248231
0.265474
0.288843
0.319777
0.353723
0.395878
0.45018
0.498015
0.298252
-0.114146
-0.234602
-0.0593502
0.0346748
-0.0386299
-0.155166
-0.114894
-0.00730046
0.115651
0.167883
0.189748
0.201159
0.215612
0.221407
0.22543
0.233282
0.237427
0.231933
0.228983
0.206035
0.180529
0.159625
0.14618
0.132875
0.120595
0.104548
0.0829542
0.0557361
0.0250438
-0.00646787
-0.0348724
-0.0574404
-0.0691049
-0.0672428
-0.0515893
-0.0307119
0.00192393
0.00838612
0.0111157
-0.0858488
-0.19669
-0.415536
-0.505655
-0.599009
-0.147842
0.705853
1.83183
3.88657
5.84972
7.08296
4.56343
4.11244
2.96334
2.21829
19.3008
-0.0327814
-0.0206793
-0.0382755
-0.0882827
-0.15262
-0.219271
-0.263282
-0.265811
-0.221481
-0.13735
-0.0337872
0.0785835
0.185498
0.269202
0.324557
0.356233
0.38078
0.41349
0.455787
0.501179
0.551147
0.603839
0.636178
0.391873
-0.101293
-0.254167
-0.0243718
0.0875204
-0.0133691
-0.160437
-0.114367
0.0101454
0.158523
0.224584
0.256655
0.273121
0.293632
0.304652
0.309944
0.314938
0.319951
0.311916
0.30667
0.27693
0.24309
0.210263
0.197788
0.183983
0.163399
0.135658
0.101805
0.0608217
0.0153865
-0.0308512
-0.0725058
-0.105965
-0.124345
-0.124428
-0.105728
-0.077604
-0.0267264
-0.0054236
0.0168798
-0.111509
-0.273247
-0.5984
-0.741077
-0.878407
-0.216601
1.01667
2.6203
5.3441
7.92852
9.47343
6.18081
5.64331
5.43273
6.90201
26.5243
-0.0446831
-0.0311267
-0.0537576
-0.113426
-0.190894
-0.272697
-0.330096
-0.337984
-0.286166
-0.180279
-0.0457968
0.101807
0.242019
0.351085
0.423334
0.464492
0.495419
0.536479
0.590496
0.650341
0.713802
0.774814
0.798071
0.508007
-0.0748369
-0.26931
-0.0046402
0.123553
0.00732982
-0.14501
-0.0830587
0.0557873
0.220526
0.294053
0.332843
0.354679
0.382069
0.397079
0.40858
0.416756
0.424837
0.41681
0.40983
0.374824
0.34101
0.308511
0.28929
0.258584
0.225483
0.186801
0.139174
0.0811384
0.0164376
-0.0502592
-0.111983
-0.164478
-0.199366
-0.213072
-0.204514
-0.18225
-0.125061
-0.101584
-0.0749007
-0.257552
-0.495687
-0.943455
-1.14148
-1.30085
-0.36369
1.31502
3.41321
6.82059
10.0311
11.8828
8.13538
7.40105
7.75325
10.2813
26.5981
-0.0564246
-0.0425837
-0.0699842
-0.137349
-0.225434
-0.319658
-0.389153
-0.403583
-0.347376
-0.22237
-0.057622
0.126048
0.300715
0.435453
0.524491
0.575016
0.61227
0.661215
0.725562
0.797817
0.869541
0.928806
0.931633
0.608793
-0.0258969
-0.243431
0.0399263
0.177864
0.051546
-0.0953498
-0.0220845
0.117962
0.283492
0.358056
0.40202
0.42811
0.461748
0.480754
0.495755
0.502248
0.510821
0.499808
0.49125
0.454361
0.416198
0.37223
0.343925
0.308303
0.267592
0.216639
0.154428
0.0792581
-0.00461801
-0.0915886
-0.173308
-0.245245
-0.297895
-0.327347
-0.331109
-0.314418
-0.24615
-0.212594
-0.173976
-0.410723
-0.73561
-1.3142
-1.57915
-1.76255
-0.537688
1.58547
4.1447
8.1227
11.8458
14.0396
10.1251
9.32805
10.1581
13.192
28.94
-0.0679068
-0.0552902
-0.0868009
-0.160245
-0.256612
-0.360689
-0.44073
-0.462032
-0.404153
-0.263256
-0.0695689
0.150768
0.361031
0.521764
0.62758
0.687332
0.73044
0.786474
0.860368
0.944873
1.02517
1.08353
1.0697
0.721151
0.0433088
-0.196898
0.0889023
0.231709
0.102885
-0.0247577
0.0634431
0.200953
0.356861
0.426049
0.472491
0.502512
0.542446
0.565084
0.586181
0.593896
0.605752
0.594254
0.583303
0.541576
0.500994
0.454378
0.422237
0.373957
0.318851
0.25368
0.174593
0.0791128
-0.0275838
-0.138874
-0.245016
-0.341703
-0.418919
-0.472467
-0.49716
-0.491814
-0.413696
-0.37018
-0.323746
-0.628133
-1.06181
-1.78997
-2.13786
-2.34504
-0.795679
1.79836
4.81934
9.33516
13.5658
16.1267
12.2582
11.4372
12.7624
15.9368
29.5485
-0.078965
-0.0688356
-0.103524
-0.181503
-0.283833
-0.395223
-0.484066
-0.512144
-0.454606
-0.301439
-0.0810104
0.17631
0.4235
0.610673
0.733184
0.80196
0.850497
0.912793
0.995089
1.09045
1.17768
1.23178
1.19773
0.831511
0.133327
-0.124393
0.149411
0.28964
0.161654
0.0600348
0.165723
0.297784
0.435642
0.493991
0.540548
0.573602
0.619386
0.645082
0.671117
0.67756
0.690495
0.677196
0.665466
0.622708
0.578716
0.523618
0.479529
0.422082
0.357379
0.278569
0.182393
0.0664862
-0.0633946
-0.199641
-0.331393
-0.45539
-0.561841
-0.645899
-0.697493
-0.705118
-0.613268
-0.555772
-0.502905
-0.885211
-1.44607
-2.34043
-2.78803
-3.02217
-1.1122
1.98481
5.44121
10.4585
15.1131
18.052
14.4398
13.6762
15.4396
18.6461
30.179
-0.0896507
-0.083073
-0.120008
-0.200997
-0.307075
-0.423204
-0.518727
-0.553118
-0.497483
-0.335629
-0.0912899
0.202673
0.48807
0.702225
0.841389
0.918978
0.972422
1.04003
1.12962
1.2344
1.32803
1.37727
1.32521
0.94867
0.241157
-0.032799
0.215578
0.34587
0.219193
0.147098
0.275369
0.403135
0.519768
0.56347
0.607955
0.643523
0.694977
0.723407
0.755595
0.762413
0.778524
0.763985
0.750094
0.704541
0.657402
0.597375
0.546747
0.479786
0.400507
0.305347
0.189877
0.0509266
-0.104882
-0.268984
-0.429695
-0.585934
-0.729032
-0.852668
-0.938827
-0.961278
-0.85205
-0.778745
-0.724662
-1.19889
-1.90885
-2.99029
-3.56133
-3.83404
-1.52353
2.10742
5.99953
11.5043
16.5156
19.8716
16.6672
16.0023
18.132
21.4592
29.5917
-0.0999478
-0.0977381
-0.13598
-0.21851
-0.326287
-0.444659
-0.544417
-0.584025
-0.531475
-0.3643
-0.0993965
0.230092
0.554872
0.796637
0.952447
1.03862
1.09643
1.16834
1.264
1.37618
1.47519
1.51804
1.44846
1.06605
0.362699
0.0742322
0.286729
0.399882
0.27147
0.229462
0.383406
0.509812
0.605664
0.632829
0.673565
0.711056
0.767844
0.798533
0.836274
0.842257
0.860277
0.844935
0.830735
0.783977
0.733558
0.666578
0.604416
0.526524
0.435154
0.32445
0.189414
0.0269353
-0.155666
-0.348884
-0.540747
-0.73386
-0.921446
-1.09402
-1.22139
-1.25802
-1.12618
-1.03573
-0.986665
-1.56659
-2.44724
-3.73703
-4.45892
-4.78594
-2.02593
2.19306
6.50103
12.4691
17.7586
21.5546
18.8953
18.3809
20.7284
23.7127
27.956
-0.109881
-0.11259
-0.151316
-0.234027
-0.341588
-0.459841
-0.561236
-0.604319
-0.555276
-0.385768
-0.104277
0.25883
0.623986
0.893966
1.06647
1.16104
1.22265
1.2978
1.39826
1.51557
1.61883
1.65433
1.56941
1.18539
0.494252
0.190889
0.359902
0.450113
0.315602
0.302358
0.48215
0.612008
0.690501
0.701372
0.737374
0.77651
0.838406
0.871288
0.914937
0.921279
0.942338
0.925817
0.910813
0.862229
0.808644
0.735759
0.665171
0.577481
0.471747
0.343002
0.186514
-0.00163146
-0.213207
-0.437922
-0.664314
-0.900606
-1.14246
-1.37457
-1.54936
-1.59798
-1.43868
-1.33177
-1.29567
-1.99587
-3.07057
-4.59404
-5.50234
-5.90839
-2.64379
2.21656
6.93966
13.3449
18.8575
23.1038
21.097
20.7663
23.1693
25.5854
27.6544
-0.119302
-0.127213
-0.165922
-0.247615
-0.353196
-0.469127
-0.569552
-0.61393
-0.567921
-0.398407
-0.104696
0.289274
0.695582
0.994361
1.18354
1.28636
1.35125
1.42856
1.53252
1.65247
1.75827
1.78551
1.6863
1.3033
0.631543
0.31336
0.434075
0.49712
0.352367
0.364248
0.567267
0.704841
0.770846
0.767544
0.798605
0.839292
0.906
0.941261
0.990119
0.996491
1.02011
1.00342
0.988755
0.938813
0.882206
0.803012
0.722436
0.622043
0.502781
0.356363
0.177854
-0.0368443
-0.278646
-0.536603
-0.800886
-1.08757
-1.3947
-1.69728
-1.92416
-1.9808
-1.7902
-1.66921
-1.65464
-2.48974
-3.78344
-5.56989
-6.70817
-7.22392
-3.38666
2.18772
7.31732
14.1274
19.8456
24.4815
23.2129
23.1146
25.4536
27.3595
27.1111
-0.127922
-0.141114
-0.179665
-0.25943
-0.361481
-0.473058
-0.570011
-0.613258
-0.569022
-0.400864
-0.0992574
0.32191
0.769786
1.098
1.30368
1.4147
1.48236
1.56079
1.66692
1.78701
1.89308
1.91178
1.79888
1.41964
0.771677
0.438667
0.508617
0.541825
0.383929
0.415502
0.637652
0.78518
0.843908
0.829939
0.856701
0.899151
0.970514
1.0087
1.06245
1.06993
1.0965
1.07934
1.06518
1.01387
0.954464
0.869296
0.77977
0.667449
0.53402
0.367994
0.165891
-0.0772072
-0.351146
-0.644698
-0.951212
-1.29713
-1.68202
-2.0661
-2.34799
-2.40783
-2.18417
-2.0529
-2.06853
-3.0536
-4.59418
-6.67858
-8.10154
-8.76651
-4.27681
2.09302
7.63163
14.8185
20.7493
25.6583
25.1777
25.3605
27.5222
28.743
25.9991
-0.135365
-0.153738
-0.192261
-0.269627
-0.366853
-0.472302
-0.56348
-0.603108
-0.558759
-0.392211
-0.0864909
0.357369
0.846688
1.20507
1.42698
1.54613
1.6161
1.69466
1.8016
1.91953
2.02299
2.03313
1.90624
1.53308
0.911514
0.564772
0.583428
0.585256
0.412986
0.457968
0.694627
0.851694
0.907683
0.887017
0.910901
0.955601
1.03154
1.07333
1.13126
1.14016
1.1696
1.15273
1.13982
1.08739
1.02546
0.934397
0.835537
0.710106
0.561606
0.376012
0.149302
-0.12343
-0.431036
-0.762466
-1.11623
-1.53164
-2.00789
-2.4839
-2.82159
-2.87999
-2.624
-2.48692
-2.54079
-3.6916
-5.51021
-7.93334
-9.70825
-10.5709
-5.33219
1.93418
7.88322
15.4241
21.5698
26.6526
26.9494
27.4325
29.3454
29.8035
25.6604
-0.141353
-0.164583
-0.203272
-0.278235
-0.369697
-0.467582
-0.550978
-0.584597
-0.537838
-0.372074
-0.064986
0.396425
0.926341
1.31568
1.55352
1.68068
1.75259
1.83037
1.93675
2.05051
2.14811
2.14969
2.00833
1.64322
1.04836
0.689659
0.658132
0.628142
0.44165
0.494089
0.740475
0.904775
0.961226
0.937474
0.960496
1.00823
1.08881
1.13514
1.19677
1.20816
1.24047
1.22397
1.21282
1.15947
1.09529
0.998536
0.890629
0.752628
0.588084
0.382015
0.129107
-0.17499
-0.518109
-0.890178
-1.29733
-1.79402
-2.37616
-2.95335
-3.34576
-3.39943
-3.11419
-2.97546
-3.07463
-4.40827
-6.53942
-9.34829
-11.5578
-12.6782
-6.57612
1.70593
8.07252
15.9512
22.2983
27.5093
28.524
29.3021
30.9349
30.62
25.1735
-0.145947
-0.173266
-0.212129
-0.285082
-0.37033
-0.459577
-0.533566
-0.559021
-0.507385
-0.340661
-0.0336123
0.439976
1.00876
1.42992
1.68337
1.81834
1.89189
1.96813
2.0726
2.18055
2.26888
2.26161
2.10539
1.74927
1.17978
0.811261
0.73229
0.671333
0.471457
0.526157
0.777841
0.945957
1.00428
0.980297
1.00475
1.05654
1.14202
1.19387
1.25866
1.27329
1.30847
1.29311
1.2842
1.2302
1.16404
1.06179
0.944862
0.793935
0.6125
0.385192
0.104848
-0.232059
-0.612467
-1.02826
-1.49602
-2.08718
-2.79026
-3.47621
-3.92096
-3.96884
-3.65909
-3.52177
-3.67231
-5.2075
-7.68867
-10.9363
-13.6803
-15.1322
-8.03587
1.40864
8.20219
16.4079
22.9351
28.2554
29.8985
30.9583
32.2871
31.2002
25.0613
-0.149464
-0.17967
-0.218272
-0.289802
-0.368906
-0.44884
-0.512234
-0.527702
-0.468774
-0.29872
0.00828263
0.489007
1.09397
1.54781
1.81657
1.95902
2.03405
2.10812
2.20945
2.3103
2.38606
2.36915
2.19809
1.85096
1.30418
0.927937
0.805645
0.715679
0.503811
0.556127
0.80938
0.977139
1.03705
1.01486
1.04299
1.10008
1.19093
1.24934
1.31706
1.33593
1.37395
1.36048
1.35404
1.29966
1.23181
1.12427
0.998485
0.834655
0.636035
0.386014
0.0770858
-0.294476
-0.714142
-1.17732
-1.71412
-2.41422
-3.25343
-4.05367
-4.54814
-4.59179
-4.26288
-4.12836
-4.33548
-6.09271
-8.96363
-12.709
-16.1067
-17.9778
-9.74986
1.04083
8.27653
16.8021
23.4844
28.8954
31.0732
32.3962
33.4174
31.6529
24.8993
-0.152221
-0.184066
-0.221298
-0.291893
-0.365334
-0.435773
-0.487787
-0.491853
-0.423437
-0.2474
0.060796
0.544511
1.18198
1.66927
1.95319
2.1027
2.17908
2.25055
2.34757
2.44033
2.50058
2.47274
2.28714
1.94824
1.42098
1.03893
0.878229
0.761963
0.540014
0.585902
0.837235
1.00023
1.06003
1.04086
1.07468
1.13839
1.23535
1.30124
1.37183
1.39583
1.43679
1.42617
1.42241
1.36795
1.29868
1.1861
1.0516
0.87475
0.658505
0.3848
0.045758
-0.362228
-0.823233
-1.3381
-1.95351
-2.77806
-3.76826
-4.68634
-5.22883
-5.27237
-4.92901
-4.79674
-5.06513
-7.06633
-10.3678
-14.6749
-18.8661
-21.2561
-11.7513
0.602294
8.30108
17.1416
23.9523
29.4328
32.0559
33.6203
34.3454
31.9954
24.61
-0.15445
-0.18695
-0.221174
-0.290874
-0.359314
-0.42056
-0.460791
-0.452482
-0.372706
-0.188061
0.123492
0.607384
1.27291
1.79416
2.09321
2.24939
2.32696
2.3956
2.4872
2.57113
2.61344
2.57292
2.37319
2.04137
1.53052
1.14427
0.950175
0.81087
0.580994
0.617118
0.862951
1.01693
1.07399
1.05829
1.09941
1.17108
1.27515
1.34932
1.42309
1.45306
1.49708
1.49022
1.48936
1.43516
1.36476
1.2474
1.10437
0.914431
0.680157
0.381914
0.010983
-0.435195
-0.939896
-1.51153
-2.21615
-3.18151
-4.33679
-5.37457
-5.96532
-6.01492
-5.6601
-5.5277
-5.86156
-8.12948
-11.9017
-16.838
-21.983
-25.0012
-14.0603
0.0958379
8.28255
17.4351
24.3465
29.8748
32.8608
34.6427
35.0856
32.2058
24.5147
-0.156321
-0.188822
-0.218256
-0.286475
-0.350447
-0.403116
-0.431585
-0.410295
-0.317696
-0.122087
0.195501
0.678313
1.36695
1.92221
2.23661
2.39913
2.47766
2.54343
2.62861
2.70308
2.72553
2.67035
2.45673
2.1308
1.63352
1.24428
1.02146
0.862925
0.627231
0.650914
0.88751
1.02842
1.07976
1.06733
1.11697
1.1978
1.31025
1.3933
1.47087
1.50752
1.55476
1.55264
1.55493
1.50134
1.43014
1.30829
1.15692
0.95386
0.701166
0.377551
-0.0268109
-0.5134
-1.06434
-1.69864
-2.50396
-3.62706
-4.96031
-6.11873
-6.76063
-6.82351
-6.45792
-6.32137
-6.72417
-9.28125
-13.5613
-19.194
-25.4704
-29.2299
-16.6871
-0.471712
8.22966
17.6923
24.6764
30.2322
33.5059
35.4808
35.6672
32.3657
24.3403
-0.157967
-0.190084
-0.213095
-0.278764
-0.338414
-0.383149
-0.400272
-0.3657
-0.259252
-0.0507308
0.275678
0.75768
1.46441
2.05309
2.38327
2.55194
2.6311
2.69416
2.77207
2.83647
2.83763
2.76572
2.53836
2.21716
1.73067
1.33908
1.09179
0.918299
0.678841
0.687923
0.911224
1.03516
1.07802
1.06822
1.12726
1.21832
1.34058
1.43304
1.51539
1.55918
1.60993
1.61343
1.61918
1.56657
1.49491
1.3689
1.20942
0.993205
0.721693
0.37182
-0.0673482
-0.596588
-1.19677
-1.90056
-2.81873
-4.11694
-5.63952
-6.91952
-7.61829
-7.70159
-7.32348
-7.17727
-7.65116
-10.5181
-15.3368
-21.7252
-29.3189
-33.9263
-19.6235
-1.08879
8.15375
17.9238
24.9522
30.5181
34.0119
36.1558
36.1193
32.5278
24.1125
-0.15947
-0.190969
-0.206297
-0.268066
-0.323088
-0.360342
-0.366749
-0.318888
-0.197937
0.0249836
0.36278
0.845519
1.56568
2.18639
2.53302
2.70785
2.78724
2.84788
2.91789
2.97155
2.95037
2.85964
2.61877
2.30124
1.82255
1.42856
1.16066
0.976693
0.735666
0.72837
0.93387
1.03695
1.06902
1.06113
1.13026
1.23248
1.36611
1.46844
1.55685
1.60804
1.66291
1.67263
1.68215
1.63093
1.55918
1.42939
1.26203
1.03267
0.741984
0.364982
-0.110522
-0.684405
-1.33769
-2.11845
-3.16171
-4.65282
-6.37466
-7.7782
-8.542
-8.65182
-8.25721
-8.09434
-8.63929
-11.8332
-17.2106
-24.3954
-33.4823
-39.0204
-22.8236
-1.73741
8.06942
18.1407
25.1855
30.7465
34.4008
36.6915
36.4635
32.6713
23.8686
-0.160846
-0.191534
-0.198388
-0.254863
-0.304547
-0.334491
-0.330771
-0.269892
-0.134048
0.10429
0.455621
0.94153
1.67113
2.32165
2.68557
2.86685
2.94609
3.00464
3.06639
3.10855
3.0643
2.95263
2.6986
2.38383
1.90961
1.51246
1.22735
1.03753
0.797267
0.772176
0.954967
1.03314
1.05264
1.04611
1.12595
1.24018
1.38686
1.49949
1.59543
1.65415
1.71401
1.73026
1.74393
1.69451
1.62309
1.48989
1.31492
1.07245
0.762245
0.357227
-0.156124
-0.776781
-1.48764
-2.35358
-3.5363
-5.23862
-7.16593
-8.6966
-9.53529
-9.67601
-9.25913
-9.0709
-9.68374
-13.2159
-19.1553
-27.1446
-37.8578
-44.3618
-26.1846
-2.39598
7.99962
18.3548
25.3886
30.9316
34.6949
37.1117
36.7265
32.8402
23.7433
-0.162063
-0.191691
-0.189696
-0.239678
-0.283063
-0.305518
-0.292065
-0.218638
-0.067729
0.186669
0.553172
1.04514
1.78106
2.45843
2.84055
3.02888
3.10766
3.16447
3.21796
3.24771
3.17989
3.04512
2.77836
2.46557
1.99225
1.59045
1.29095
1.10008
0.862981
0.819177
0.974073
1.02295
1.02846
1.02306
1.11433
1.24141
1.40286
1.52627
1.63131
1.6976
1.76339
1.78637
1.80459
1.7574
1.68675
1.55056
1.36827
1.11277
0.782743
0.348847
-0.203891
-0.873685
-1.64721
-2.60774
-3.94897
-5.8799
-8.01445
-9.67725
-10.6012
-10.7752
-10.3289
-10.1046
-10.7781
-14.6517
-21.1331
-29.8867
-42.267
-49.6959
-29.5255
-3.03985
7.97628
18.5776
25.5741
31.0877
34.9156
37.44
36.9343
33.0573
23.6202
-0.163053
-0.191274
-0.180325
-0.222939
-0.259026
-0.273471
-0.250465
-0.164972
0.000974643
0.271822
0.654615
1.15559
1.89561
2.59629
2.99752
3.19379
3.27195
3.32737
3.37296
3.38926
3.29757
3.13752
2.85841
2.54701
2.07076
1.66207
1.35032
1.16341
0.932213
0.869194
0.991022
1.00571
0.996026
0.991872
1.0954
1.23619
1.4142
1.54893
1.66466
1.73854
1.81112
1.841
1.86422
1.81974
1.75033
1.61159
1.4223
1.15387
0.803747
0.340127
-0.253514
-0.974912
-1.81693
-2.88375
-4.40366
-6.57754
-8.92224
-10.7225
-11.7422
-11.9499
-11.466
-11.1924
-11.9146
-16.122
-23.0972
-32.5104
-46.445
-54.6549
-32.5733
-3.63437
8.03107
18.8191
25.7557
31.2278
35.083
37.6982
37.1069
33.3166
23.6017
-0.163731
-0.190094
-0.170219
-0.204905
-0.232836
-0.238523
-0.205916
-0.108689
0.0720768
0.359582
0.759353
1.27203
2.01467
2.73483
3.15595
3.3614
3.43897
3.49328
3.5317
3.5334
3.41769
3.23022
2.93908
2.62858
2.14532
1.72673
1.40411
1.22636
1.00451
0.922021
1.00601
0.981173
0.955097
0.952512
1.06921
1.22463
1.42103
1.56771
1.69562
1.77716
1.85729
1.89423
1.92294
1.88167
1.81398
1.67316
1.47721
1.19602
0.825561
0.331418
-0.304618
-1.08025
-1.99695
-3.18321
-4.89987
-7.32864
-9.88887
-11.8352
-12.96
-13.2002
-12.6698
-12.331
-13.0843
-17.6057
-24.9987
-34.8801
-50.064
-58.7895
-34.9814
-4.1323
8.18997
19.0887
25.9471
31.3638
35.2153
37.9059
37.2637
33.6367
23.8844
-0.164012
-0.187982
-0.159243
-0.185668
-0.204808
-0.200929
-0.158445
-0.0496311
0.145609
0.44984
0.866958
1.39358
2.13793
2.87369
3.31529
3.5314
3.6087
3.66211
3.69441
3.68039
3.54056
3.32372
3.02072
2.71066
2.21589
1.78357
1.4507
1.28764
1.07944
0.977648
1.01957
0.949518
0.905767
0.905112
1.03588
1.20692
1.42352
1.58291
1.72434
1.81368
1.90195
1.94619
1.98089
1.94337
1.8779
1.73547
1.53323
1.23948
0.848512
0.323095
-0.356782
-1.18939
-2.18732
-3.50607
-5.43763
-8.13235
-10.9137
-13.0177
-14.2558
-14.5259
-13.9392
-13.5164
-14.2774
-19.0806
-26.7866
-36.8669
-52.8088
-61.6683
-36.4356
-4.43992
8.47634
19.3954
26.1592
31.5063
35.3285
38.0803
37.4219
34.0191
24.3665
-0.163809
-0.184801
-0.147248
-0.1652
-0.175143
-0.160974
-0.10814
0.0122584
0.221647
0.542539
0.977087
1.51932
2.26485
3.01253
3.47498
3.70343
3.78111
3.83375
3.86125
3.83067
3.66653
3.41865
3.10374
2.7935
2.28225
1.83148
1.48822
1.34578
1.15658
1.03635
1.03244
0.911278
0.848515
0.850052
0.995706
1.18336
1.42196
1.59487
1.75101
1.84832
1.94518
1.997
2.03822
2.00502
1.94227
1.79875
1.59062
1.28456
0.872956
0.315581
-0.409527
-1.30199
-2.38785
-3.85211
-6.01669
-8.98722
-11.9978
-14.2721
-15.6301
-15.9266
-15.2733
-14.7446
-15.4838
-20.5225
-28.4116
-38.4053
-54.4434
-63.1202
-36.8838
-4.45974
8.90241
19.7478
26.4011
31.664
35.4368
38.236
37.5928
34.4413
25.0518
-0.163048
-0.180455
-0.134102
-0.143423
-0.143933
-0.118904
-0.0551282
0.0769707
0.3003
0.637629
1.08945
1.6484
2.39476
3.15101
3.63444
3.87706
3.95611
4.00805
4.03229
3.9847
3.7961
3.51574
3.18858
2.87725
2.34392
1.86898
1.51453
1.39921
1.23558
1.09858
1.04541
0.867264
0.784185
0.787998
0.949144
1.15438
1.41667
1.60402
1.7758
1.88135
1.9871
2.04685
2.09512
2.06684
2.00732
1.8632
1.64964
1.33157
0.899275
0.309336
-0.462316
-1.41759
-2.59828
-4.22099
-6.63477
-9.89035
-13.1405
-15.5998
-17.0832
-17.4021
-16.6712
-16.0115
-16.6936
-21.9071
-29.8274
-39.4588
-54.9568
-63.2063
-36.5147
-4.15393
9.46652
20.1548
26.6795
31.8439
35.5521
38.3847
37.7858
34.904
25.926
-0.161667
-0.174872
-0.119705
-0.120242
-0.111177
-0.0748954
0.000435206
0.144452
0.381631
0.735046
1.20386
1.78005
2.52688
3.28875
3.79315
4.05178
4.13356
4.18482
4.20755
4.14289
3.92976
3.61564
3.27561
2.96187
2.40016
1.89426
1.52714
1.44623
1.31607
1.16487
1.05919
0.818573
0.713983
0.719925
0.89685
1.12053
1.40812
1.61082
1.79895
1.9132
2.02784
2.09596
2.15181
2.12908
2.07326
1.92909
1.71055
1.38084
0.927878
0.304862
-0.514556
-1.53567
-2.81817
-4.61236
-7.29081
-10.8412
-14.3428
-17.0017
-18.6154
-18.952
-18.1317
-17.3132
-17.8973
-23.211
-31
-39.9899
-54.4794
-62.0222
-35.4091
-3.50982
10.1607
20.6226
26.9986
32.0511
35.6841
38.5363
38.0069
35.4013
26.8773
-0.159617
-0.168
-0.103992
-0.0955749
-0.0768278
-0.029053
0.0583792
0.214624
0.465632
0.83476
1.32013
1.91355
2.66032
3.42539
3.95062
4.22703
4.31322
4.36383
4.38695
4.30557
4.06796
3.71898
3.36513
3.04715
2.4499
1.90506
1.52307
1.48487
1.39772
1.23563
1.07444
0.766545
0.639487
0.647142
0.839702
1.08252
1.39682
1.61579
1.82095
1.94424
2.06756
2.14454
2.20852
2.19199
2.14035
1.99666
1.77365
1.43272
0.959199
0.302704
-0.565601
-1.65564
-3.04699
-5.02575
-7.98412
-11.8399
-15.6063
-18.4781
-20.2267
-20.5762
-19.654
-18.6463
-19.0855
-24.4136
-31.9087
-39.9937
-53.0523
-59.6083
-33.5122
-2.52268
10.9768
21.154
27.3605
32.2883
35.8391
38.6977
38.2589
35.9333
27.8522
-0.156856
-0.159795
-0.0869228
-0.0693617
-0.0408305
0.0185852
0.118557
0.287402
0.552266
0.936756
1.4381
2.04816
2.79417
3.56052
4.10641
4.40221
4.49478
4.54482
4.57032
4.47295
4.21106
3.82629
3.45726
3.13269
2.49173
1.8986
1.49875
1.51284
1.48009
1.31105
1.09165
0.712689
0.562652
0.571294
0.778833
1.04124
1.38342
1.61948
1.8423
1.97467
2.10643
2.19286
2.26554
2.25582
2.20881
2.06617
1.83922
1.48757
0.993694
0.303443
-0.614753
-1.77681
-3.28405
-5.46046
-8.71344
-12.8857
-16.9312
-20.029
-21.9174
-22.275
-21.2373
-20.0077
-20.2487
-25.4978
-32.5441
-39.4948
-50.7496
-56.0189
-30.8344
-1.201
11.9068
21.7488
27.7648
32.5568
36.0211
38.8739
38.5432
36.5008
28.9476
-0.153349
-0.150224
-0.0684734
-0.0415704
-0.00313499
0.0680293
0.180859
0.36269
0.641471
1.04097
1.55764
2.18321
2.92748
3.6938
4.26015
4.57669
4.67781
4.72751
4.75743
4.64515
4.35932
3.93803
3.552
3.21793
2.52384
1.8714
1.44986
1.52743
1.56259
1.39108
1.11121
0.658638
0.485739
0.494319
0.715629
0.99775
1.36858
1.62254
1.86342
2.00467
2.14468
2.24119
2.32314
2.32086
2.2789
2.13787
1.90756
1.54576
1.03184
0.3077
-0.661263
-1.8984
-3.52852
-5.91557
-9.47738
-13.9779
-18.3178
-21.6543
-23.6879
-24.0488
-22.8814
-21.3945
-21.3778
-26.4508
-32.9084
-38.5443
-47.7371
-51.4315
-27.5041
0.424004
12.9385
22.4038
28.2094
32.8559
36.2318
39.0681
38.8604
37.085
30.0848
-0.149066
-0.139254
-0.0486259
-0.0121909
0.0362983
0.119308
0.24521
0.44038
0.733164
1.14731
1.67859
2.31817
3.05937
3.82489
4.41147
4.74979
4.86179
4.91155
4.94795
4.8221
4.51287
4.05451
3.64924
3.30216
2.54403
1.81934
1.3714
1.5255
1.64438
1.4753
1.13332
0.606087
0.411187
0.418355
0.651688
0.953304
1.35311
1.62564
1.88462
2.03439
2.18253
2.28985
2.38165
2.38737
2.35087
2.21202
1.97898
1.60768
1.07415
0.316129
-0.704332
-2.01952
-3.7794
-6.38994
-10.2743
-15.1156
-19.7656
-23.3538
-25.5387
-25.8986
-24.5866
-22.8046
-22.4651
-27.2638
-33.0129
-37.2073
-44.2136
-46.1565
-23.7148
2.28401
14.0553
23.1128
28.6908
33.1837
36.4706
39.2811
39.2087
37.685
31.1176
-0.143978
-0.126853
-0.0273642
0.0187731
0.0774947
0.172449
0.311581
0.520382
0.82727
1.25568
1.80072
2.45231
3.18895
3.95355
4.56004
4.92083
5.04606
5.09656
5.14149
5.0036
4.6717
4.17592
3.74881
3.38452
2.54978
1.73786
1.25804
1.50361
1.72434
1.56286
1.15806
0.556683
0.341377
0.345559
0.588744
0.909289
1.338
1.62943
1.90616
2.06398
2.22026
2.33915
2.4414
2.45562
2.42495
2.28887
2.05377
1.6737
1.12112
0.329418
-0.743106
-2.13919
-4.03553
-6.88217
-11.1025
-16.2975
-21.2739
-25.1272
-27.4709
-27.8259
-26.3535
-24.2368
-23.5042
-27.9327
-32.8775
-35.5516
-40.368
-40.5469
-19.675
4.28849
15.2386
23.8681
29.2039
33.5369
36.7355
39.5128
39.5861
38.3037
32.2568
-0.138058
-0.112985
-0.00467198
0.0513127
0.120466
0.227485
0.379986
0.602632
0.923717
1.36592
1.92365
2.58476
3.31543
4.0796
4.7055
5.08909
5.22984
5.28209
5.33746
5.18923
4.83562
4.30227
3.8505
3.46403
2.53846
1.62252
1.10464
1.4583
1.80096
1.65228
1.18532
0.511891
0.278321
0.277856
0.528533
0.867187
1.3242
1.63457
1.92831
2.09358
2.25816
2.38946
2.50271
2.52587
2.50137
2.36866
2.13221
1.74422
1.17328
0.348284
-0.776681
-2.25628
-4.29554
-7.39052
-11.9596
-17.5222
-22.8417
-26.9744
-29.4856
-29.8322
-28.1833
-25.6909
-24.4899
-28.4571
-32.5285
-33.6458
-36.3478
-34.8743
-15.5512
6.359
16.47
24.6611
29.7433
33.9111
37.0229
39.7618
39.9909
38.9283
33.4959
-0.131278
-0.0976085
0.0194705
0.0854177
0.16522
0.284457
0.450449
0.687098
1.02243
1.47783
2.04692
2.71457
3.43819
4.20288
4.84744
5.25381
5.41226
5.46759
5.53511
5.37839
5.00431
4.43342
3.95401
3.53963
2.50762
1.46967
0.907188
1.38657
1.87239
1.74137
1.21469
0.472863
0.223357
0.216712
0.472663
0.828521
1.31265
1.6417
1.95128
2.12333
2.29658
2.44117
2.56592
2.59836
2.58035
2.45162
2.21459
1.81962
1.23118
0.373472
-0.804093
-2.36955
-4.55789
-7.913
-12.8433
-18.7877
-24.4678
-28.8952