/*--------------------------------*- C++ -*----------------------------------*\
| =========                 |                                                 |
| \\      /  F ield         | OpenFOAM: The Open Source CFD Toolbox           |
|  \\    /   O peration     | Version:  4.1                                   |
|   \\  /    A nd           | Web:      www.OpenFOAM.org                      |
|    \\/     M anipulation  |                                                 |
\*---------------------------------------------------------------------------*/
FoamFile
{
    version     2.0;
    format      ascii;
    class       volSymmTensorField;
    location    "9";
    object      R;
}
// * * * * * * * * * * * * * * * * * * * * * * * * * * * * * * * * * * * * * //

dimensions      [0 2 -2 0 0 0 0];

internalField   nonuniform List<symmTensor> 
6785
(
(0.264535 4.74988e-17 6.24094e-17 0.191702 0.0371869 0.369732)
(0.000127391 2.8871e-22 3.70418e-22 0.000126868 2.22593e-07 0.000128107)
(0.000121984 -1.18786e-23 -7.23677e-24 0.000121993 1.10063e-08 0.000121981)
(0.000121979 6.84972e-24 3.9699e-24 0.000121983 8.52318e-09 0.000121976)
(0.000121993 -9.3395e-24 -2.66862e-24 0.000121997 8.15453e-09 0.000121991)
(0.000121968 3.76924e-24 -9.27575e-25 0.000121971 7.45226e-09 0.000121966)
(0.000121983 8.16946e-25 9.66669e-25 0.000121986 6.85672e-09 0.000121982)
(0.000121989 -6.52606e-24 -2.18882e-24 0.000121991 6.2604e-09 0.000121988)
(0.000121962 1.9798e-24 -1.85592e-25 0.000121963 5.75734e-09 0.000121962)
(0.000121976 1.30696e-24 1.53997e-24 0.000121977 5.40339e-09 0.000121977)
(0.00012198 -4.31891e-24 -7.38484e-25 0.00012198 4.78213e-09 0.000121982)
(0.000121948 1.42393e-24 -4.41614e-25 0.000121946 3.64057e-09 0.00012195)
(0.000122479 4.43447e-25 1.17491e-24 0.000122473 -8.33788e-09 0.000122478)
(0.000353602 1.31773e-22 -1.68522e-21 0.000322631 -6.13598e-05 0.000339962)
(0.408511 6.07822e-19 -7.82839e-18 0.275852 -0.287228 0.356318)
(0.335066 5.87565e-17 1.5874e-16 0.136097 -0.00397865 0.592985)
(0.000694257 4.29211e-20 9.65735e-20 0.000394771 -1.25078e-05 0.00104039)
(2.23243e-07 -2.55354e-25 -6.57029e-26 2.23392e-07 3.4959e-11 2.23181e-07)
(2.08712e-07 9.20616e-26 4.25863e-26 2.08734e-07 -4.14657e-12 2.08635e-07)
(1.98778e-07 -1.05739e-25 -2.7252e-26 1.98826e-07 4.25422e-12 1.98715e-07)
(1.88612e-07 4.09318e-26 7.11615e-27 1.88649e-07 1.2732e-12 1.88556e-07)
(1.78821e-07 -1.36927e-26 1.10137e-26 1.78857e-07 3.66679e-13 1.78772e-07)
(1.68969e-07 -6.06882e-26 -1.43644e-26 1.69e-07 -9.69827e-13 1.68926e-07)
(1.58925e-07 2.32409e-26 3.86367e-27 1.58952e-07 -2.08374e-12 1.58887e-07)
(1.48988e-07 -5.6332e-27 1.06933e-26 1.49013e-07 -2.23125e-12 1.48955e-07)
(1.39707e-07 -3.18291e-26 -7.16893e-27 1.3973e-07 -3.23044e-12 1.39679e-07)
(1.41189e-07 4.01864e-25 1.79704e-26 1.40499e-07 -1.28725e-09 1.40517e-07)
(1.6817e-05 8.36211e-22 3.38394e-23 1.46417e-05 -4.3796e-06 1.4861e-05)
(0.00586001 1.73209e-19 2.31292e-21 0.00492083 -0.00171931 0.00503393)
(0.130352 5.703e-18 6.52266e-19 0.0833658 -0.0604891 0.11505)
(0.407903 5.05727e-17 2.11773e-16 0.130957 -0.0694385 0.773586)
(0.00409777 -5.00451e-19 -1.41315e-19 0.00153781 -0.000675193 0.00673367)
(6.26944e-09 -6.99074e-25 -9.30844e-26 4.75658e-09 -1.24242e-10 7.84113e-09)
(7.43495e-09 -1.61916e-25 -6.74764e-26 8.64129e-09 -4.60972e-11 7.20482e-09)
(1.62651e-06 -5.24975e-23 -1.97605e-23 2.17499e-06 -3.02879e-08 1.51999e-06)
(1.5433e-05 1.53333e-21 -2.04415e-22 2.42647e-05 -9.19323e-07 1.41052e-05)
(3.83474e-05 -1.07794e-21 -4.00635e-21 6.52979e-05 -4.22151e-06 3.82455e-05)
(6.74284e-05 -9.88117e-21 -1.38825e-21 0.000113775 -9.70232e-06 7.40784e-05)
(9.83239e-05 1.66281e-20 -3.21415e-21 0.000164806 -1.89228e-05 0.000115045)
(0.000142894 4.05912e-21 -2.5288e-20 0.0002361 -4.22314e-05 0.000171529)
(0.000257556 -2.88811e-20 5.14995e-21 0.000434037 -0.00012191 0.000296632)
(0.00063933 6.31752e-20 -2.20332e-20 0.00113359 -0.00042865 0.000664456)
(0.00212078 -1.07273e-19 -4.87777e-20 0.00384472 -0.00160993 0.00197163)
(0.010584 -1.59912e-18 1.37293e-18 0.0191276 -0.00633911 0.00953811)
(0.0164233 1.48041e-17 1.05898e-17 0.0405959 0.0589385 0.00996334)
(0.49736 3.29369e-17 2.94006e-16 0.156061 -0.140153 0.953556)
(0.00821907 -8.63508e-19 -4.89262e-19 0.0030513 -0.00340821 0.0135067)
(1.11661e-06 -3.90779e-22 -2.29076e-22 6.37999e-07 -3.80009e-06 1.66885e-06)
(7.19444e-08 6.80179e-24 3.17818e-25 9.92303e-08 -1.09657e-08 6.66316e-08)
(4.08217e-06 -7.92704e-22 -2.79355e-22 6.37356e-06 -2.69996e-07 3.80496e-06)
(4.06625e-05 9.43711e-21 1.67762e-21 7.04751e-05 -7.68337e-06 4.17253e-05)
(0.000147807 -5.29064e-20 1.15568e-21 0.000279164 -4.31551e-05 0.00017172)
(0.000347547 -6.58632e-20 -6.15092e-20 0.000675006 -0.000126124 0.000460994)
(0.000732586 2.15776e-19 8.22952e-20 0.00144734 -0.000279365 0.00108166)
(0.00131458 -3.00616e-19 2.80093e-21 0.00241546 -0.00046688 0.00219031)
(0.00178953 -2.29571e-19 -3.15348e-19 0.0029324 -0.000640942 0.00317411)
(0.00198258 2.34277e-19 1.34869e-19 0.00317471 -0.00101909 0.00314002)
(0.00318413 -3.7366e-19 1.23615e-19 0.00535918 -0.00218729 0.00422613)
(0.00595121 -1.36488e-18 5.73205e-19 0.0108099 -0.00498283 0.00533468)
(0.00992566 -3.03058e-19 4.88952e-19 0.0178778 -0.0052576 0.00814021)
(0.59616 1.73889e-17 3.37928e-16 0.194145 -0.205762 1.13828)
(0.0118571 -1.67532e-18 -1.64893e-18 0.00474443 -0.00616039 0.0187062)
(7.48635e-06 -4.89034e-21 -3.1719e-21 1.12187e-05 -2.99268e-05 8.87642e-06)
(1.4327e-06 1.89912e-22 -1.22299e-22 2.6281e-06 -1.37979e-06 1.37198e-06)
(1.94897e-05 -4.14029e-21 -3.87219e-21 3.71681e-05 -4.67598e-06 1.95858e-05)
(0.000137441 2.41383e-20 -1.35892e-20 0.000266641 -5.37216e-05 0.000149229)
(0.000547845 -2.55791e-19 1.71918e-20 0.00112285 -0.000253961 0.000629158)
(0.00153479 -1.31371e-20 -3.74836e-19 0.00313944 -0.000812822 0.00188332)
(0.00366788 6.25986e-19 -3.97265e-19 0.00739752 -0.00209097 0.00469318)
(0.00687958 -1.70223e-18 2.50573e-19 0.0134146 -0.00421635 0.00939647)
(0.00882627 2.31122e-18 -2.53206e-18 0.0156903 -0.00561813 0.0134215)
(0.00666376 2.65051e-18 -1.44716e-18 0.0082552 -0.00445586 0.0125974)
(0.00873031 -8.56162e-19 -1.62586e-18 0.00847833 -0.00373168 0.0183262)
(0.00949501 -3.15428e-18 -1.49161e-18 0.0102201 -0.00500172 0.0158246)
(0.022343 4.16762e-18 -1.04253e-18 0.0320348 -0.0126891 0.0240095)
(0.702919 5.30349e-18 4.03207e-16 0.238488 -0.26282 1.33041)
(0.025088 -9.35635e-18 -8.8955e-18 0.00967587 -0.00726506 0.038724)
(8.94389e-05 -1.72335e-20 -1.11086e-21 0.00015033 -2.98091e-05 8.78311e-05)
(5.15916e-06 -1.75486e-21 1.08537e-21 9.44678e-06 -3.81422e-06 5.17971e-06)
(4.02478e-05 -1.83279e-20 1.10249e-20 7.56306e-05 -3.14171e-05 4.15527e-05)
(0.00024923 -7.019e-20 6.00399e-20 0.000471505 -0.000217579 0.000269418)
(0.000887257 -3.04911e-19 1.54924e-19 0.00171784 -0.000836743 0.000984461)
(0.00223876 6.13306e-20 -7.17054e-20 0.00427082 -0.00232212 0.00258169)
(0.00463506 4.00082e-19 -1.92395e-20 0.00878836 -0.00485483 0.0054597)
(0.00807906 1.52155e-18 -1.40232e-18 0.0149877 -0.00862575 0.00992554)
(0.0124477 4.71028e-18 -3.98003e-18 0.0217195 -0.011457 0.0165727)
(0.0145319 -1.22238e-18 -3.9194e-18 0.0200539 -0.00903994 0.0226147)
(0.015277 -3.05645e-18 -8.33382e-18 0.0134723 -0.00682959 0.0283051)
(0.0188072 -3.32458e-18 1.16888e-18 0.016399 -0.00550301 0.0334968)
(0.0265951 4.23907e-18 -1.9189e-18 0.0318218 -0.0211387 0.0311092)
(0.796924 -8.01985e-18 4.54585e-16 0.279713 -0.309168 1.4868)
(0.0699404 -3.06892e-17 -3.19505e-17 0.0283776 -0.0107487 0.113805)
(0.00202806 -1.75053e-18 2.15581e-19 0.00205154 -0.000180621 0.00237629)
(6.39347e-05 -1.31448e-19 2.53079e-20 8.03616e-05 -4.51323e-05 6.78769e-05)
(4.31978e-05 -2.34763e-20 2.12959e-20 8.30254e-05 -7.10446e-05 4.4062e-05)
(0.000197907 -7.79429e-20 7.03126e-20 0.000362372 -0.000306103 0.000213231)
(0.000714969 -2.85274e-19 1.41951e-19 0.00133923 -0.000940236 0.000778938)
(0.00179223 -6.62348e-20 6.31703e-20 0.00325942 -0.0021588 0.00202375)
(0.00325823 7.96296e-20 5.85949e-20 0.00585868 -0.00391941 0.00366141)
(0.00471808 6.43711e-19 -5.92541e-19 0.00843904 -0.00625742 0.00532652)
(0.00652319 4.01232e-20 -1.32097e-19 0.0118345 -0.0080163 0.00748328)
(0.00760108 -4.88987e-18 1.00549e-18 0.0136477 -0.00471753 0.00866265)
(0.00831704 -5.23913e-18 -1.63391e-18 0.0125457 -0.00299019 0.0093664)
(0.00991625 -8.2344e-20 -1.84231e-18 0.00757298 -0.00685105 0.0136883)
(0.0151022 3.43732e-18 -3.58458e-18 0.0122172 -0.0202371 0.023433)
(0.863216 -1.60428e-17 4.48384e-16 0.311215 -0.344282 1.57846)
(0.127629 -4.66222e-17 -6.79884e-17 0.0557503 -0.0258436 0.21595)
(0.0123118 -1.17513e-17 -3.91467e-18 0.0100255 -0.000983546 0.0166299)
(0.00137476 -1.07724e-18 2.97478e-19 0.0013498 -0.000250065 0.00171481)
(0.000249457 -1.46866e-19 3.54691e-20 0.000360025 -0.000110695 0.000296998)
(0.000197776 -4.84302e-20 3.29734e-20 0.000347211 -0.000251682 0.000221525)
(0.000563104 -2.39468e-19 1.16037e-19 0.00104608 -0.000653328 0.000618342)
(0.00140657 -1.68503e-19 6.84599e-20 0.00253315 -0.00141423 0.00160208)
(0.00241691 9.20935e-20 -1.25502e-19 0.00426833 -0.00236107 0.00271534)
(0.00306423 2.85303e-19 -2.31942e-19 0.00533418 -0.00347473 0.00337551)
(0.00354859 2.54356e-19 9.19687e-20 0.00628117 -0.00445277 0.00385232)
(0.00358661 -9.77583e-19 7.27904e-19 0.0065248 -0.00449526 0.00375305)
(0.00399532 -1.60995e-18 6.53573e-19 0.00766913 -0.00485372 0.00386399)
(0.00508794 -1.26949e-18 5.1151e-19 0.0104427 -0.00635927 0.00429136)
(0.00419737 1.84143e-18 2.11214e-18 1e-15 -0.0150259 0.0168628)
(0.89742 -1.49614e-17 4.46133e-16 0.329563 -0.362396 1.60498)
(0.177094 -5.19828e-17 -1.01923e-16 0.0821082 -0.0522772 0.311977)
(0.0260025 -2.67014e-17 -1.69304e-17 0.0231503 -0.00748015 0.0352922)
(0.00432514 -4.65827e-18 -4.14308e-19 0.00472343 -0.00200903 0.00546304)
(0.000947585 -9.35422e-19 1.16624e-19 0.00137605 -0.000409121 0.00117569)
(0.000351016 -1.2943e-19 -1.59072e-20 0.000588154 -0.000269671 0.000428803)
(0.000516883 -2.00702e-19 8.8502e-20 0.000959202 -0.00046742 0.000586757)
(0.00123396 -2.29842e-19 7.95969e-20 0.00226861 -0.00100527 0.00144159)
(0.0020959 1.53887e-19 -3.02315e-19 0.0037758 -0.00160395 0.00241136)
(0.00245831 1.33347e-19 -1.60246e-19 0.00430165 -0.00212413 0.00273432)
(0.00241781 1.29001e-19 -4.17808e-20 0.00421439 -0.00222426 0.00259775)
(0.00231884 2.24136e-20 2.13467e-21 0.00416121 -0.00221686 0.00240048)
(0.00294307 4.88764e-20 3.5309e-20 0.00562116 -0.00327419 0.00299307)
(0.00488831 -1.49249e-18 1.56012e-18 0.00987127 -0.00577704 0.00457282)
(0.00504536 4.7335e-18 1.16764e-17 0.00995718 0.000844566 0.00426989)
(0.906135 -5.04457e-19 4.22048e-16 0.335926 -0.363937 1.58901)
(0.210858 -5.01996e-17 -1.45977e-16 0.102049 -0.0725726 0.388242)
(0.0390105 -5.02257e-17 -2.26612e-17 0.0393492 -0.01788 0.0522949)
(0.00840992 -9.81193e-18 -1.95105e-18 0.0105157 -0.00577901 0.0106244)
(0.00222918 -2.39132e-18 2.48342e-19 0.00353587 -0.00165524 0.00281498)
(0.000732827 -4.2522e-19 4.48729e-20 0.00126483 -0.000634197 0.000952386)
(0.000608502 -1.57559e-19 1.98015e-21 0.00114768 -0.000511929 0.000732114)
(0.00119782 -2.35664e-19 7.1542e-20 0.00227069 -0.000931576 0.00144192)
(0.00203136 -1.5282e-21 -2.4609e-19 0.00379687 -0.00144601 0.00240653)
(0.00231495 1.93053e-19 -3.53628e-19 0.00417625 -0.00176876 0.00263358)
(0.00202991 7.01258e-20 -1.05127e-19 0.00357495 -0.0016625 0.00219647)
(0.001865 -8.60215e-21 -4.64985e-20 0.00335787 -0.00151485 0.00194397)
(0.00245181 5.29909e-19 -3.20266e-19 0.00459745 -0.00192875 0.00258781)
(0.00445614 -1.53269e-18 9.20545e-19 0.00870649 -0.00424357 0.00449431)
(0.00452724 -5.86713e-19 1.09315e-18 0.00785688 0.00100991 0.00410596)
(0.902242 -4.51563e-18 3.91012e-16 0.335153 -0.354538 1.55995)
(0.227598 -5.46328e-17 -1.72089e-16 0.115236 -0.0792159 0.435428)
(0.0492545 -7.24202e-17 -3.27772e-17 0.0547258 -0.0270779 0.065221)
(0.0136687 -1.73947e-17 3.62628e-19 0.0189276 -0.0113777 0.0173671)
(0.00448193 -5.0011e-18 1.82355e-18 0.00758318 -0.00411651 0.00576663)
(0.00160471 -7.7747e-19 -7.57002e-20 0.00288003 -0.0015797 0.00216877)
(0.000942345 -1.979e-19 -5.43877e-20 0.00180267 -0.000860011 0.00122609)
(0.00127534 -3.8455e-19 1.91122e-19 0.00246859 -0.00106216 0.00160189)
(0.00204027 1.52776e-20 -6.47503e-19 0.00392911 -0.00152885 0.00250107)
(0.00235946 3.32356e-19 -3.30526e-19 0.00441447 -0.00179401 0.00277754)
(0.00201363 -2.28023e-19 3.60419e-20 0.00364375 -0.00158571 0.00223739)
(0.00175642 -2.3574e-19 -1.98391e-19 0.00319777 -0.00139998 0.00186588)
(0.00209911 3.24947e-20 -8.90562e-20 0.00391877 -0.00170516 0.00222243)
(0.0039744 -3.12451e-18 1.61e-18 0.00766139 -0.00373027 0.00413347)
(0.00523167 -2.45927e-20 1.34335e-18 0.00840689 -0.00375147 0.00493761)
(0.896542 1.32381e-18 4.01139e-16 0.331846 -0.341723 1.53782)
(0.230003 -5.46932e-17 -2.06822e-16 0.120242 -0.0751569 0.451503)
(0.0568924 -1.02094e-16 -2.91199e-17 0.0673547 -0.0335451 0.0751502)
(0.0197435 -2.749e-17 5.16761e-18 0.0290935 -0.0175289 0.025253)
(0.00782537 -9.68273e-18 4.34424e-18 0.0137217 -0.00757381 0.0101356)
(0.00313535 -2.39867e-18 5.09479e-19 0.00569756 -0.00315739 0.00433552)
(0.00178351 -1.15115e-19 7.70931e-20 0.00343779 -0.00158824 0.00248717)
(0.00171007 -4.29517e-19 2.95156e-19 0.00334698 -0.00144543 0.0023205)
(0.00224871 -9.22456e-19 -2.27979e-19 0.00438945 -0.00176308 0.00292448)
(0.0025029 -7.37873e-20 -1.38935e-19 0.00476237 -0.00192115 0.0031006)
(0.00218926 -3.7123e-19 1.1197e-19 0.00405648 -0.00170377 0.00254821)
(0.00180247 -4.22145e-19 -1.45904e-19 0.0033042 -0.00142691 0.0019668)
(0.00186177 -4.56704e-19 1.75149e-19 0.00349786 -0.00154864 0.00193491)
(0.00365617 -4.27247e-18 2.14989e-18 0.00705918 -0.00340396 0.00382553)
(0.00717474 2.6147e-18 9.01981e-19 0.0115205 -0.00389512 0.00701486)
(0.902708 1.26159e-17 3.92069e-16 0.332746 -0.334021 1.54475)
(0.231281 -3.53585e-17 -2.53339e-16 0.12323 -0.0699083 0.447372)
(0.0613069 -1.39823e-16 -7.44498e-18 0.0771297 -0.0390626 0.0797941)
(0.0239267 -3.28033e-17 6.29702e-18 0.0363574 -0.0230273 0.0309149)
(0.0123476 -1.43633e-17 6.58398e-18 0.0222511 -0.0135661 0.0164008)
(0.0064095 -8.39687e-18 3.45301e-18 0.0117688 -0.00715117 0.00930882)
(0.00509748 1.68706e-18 2.5947e-19 0.009861 -0.00439548 0.00755788)
(0.00409822 1.20219e-18 9.3646e-19 0.00796622 -0.00332473 0.00623309)
(0.00351057 -2.75737e-18 3.99579e-19 0.00632828 -0.00280888 0.00490967)
(0.00321256 -1.65939e-18 3.93662e-19 0.00588163 -0.00258415 0.00430434)
(0.00262234 -8.59748e-19 4.38938e-19 0.00478715 -0.00211283 0.00326284)
(0.00202157 -9.8062e-19 1.85793e-19 0.00368075 -0.00165707 0.00228469)
(0.00175087 -6.41049e-19 2.27696e-19 0.00326799 -0.00138339 0.00177326)
(0.00374219 -4.48522e-18 2.28073e-18 0.00749739 -0.00338099 0.00378652)
(0.0121514 5.23709e-18 -3.37519e-20 0.0187532 -0.00734602 0.0126038)
(0.880816 -5.17281e-18 3.59182e-16 0.325896 -0.323656 1.49038)
(0.321075 -4.70552e-17 -3.03386e-16 0.157617 -0.0782381 0.612808)
(0.102771 -2.35221e-16 -2.08962e-17 0.128008 -0.0500496 0.133922)
(0.0361934 -4.09669e-17 7.58699e-18 0.0601552 -0.0318948 0.0439258)
(0.0142025 -9.09934e-18 3.89881e-18 0.0259539 -0.0108583 0.0170902)
(0.00906932 -5.1401e-18 3.04489e-18 0.0146276 -0.00501685 0.0109871)
(0.00970789 7.19661e-18 1.14407e-18 0.0180955 -0.00425517 0.0126153)
(0.00622362 -5.04231e-19 7.61256e-19 0.0115693 -0.00320167 0.00874313)
(0.00526823 -7.76152e-18 1.31807e-18 0.00915237 -0.00372662 0.00664307)
(0.00294006 -5.20791e-18 4.45469e-19 0.00594765 -0.00405834 0.00178702)
(1e-15 -4.1328e-18 -4.41453e-19 1e-15 -0.0023707 0.00348096)
(0.00180956 -1.20215e-18 2.41032e-19 0.00190068 -0.00142032 0.00284787)
(0.00199216 -8.36931e-19 3.91864e-19 0.0030208 -0.00131618 0.00249729)
(0.00919891 -1.32652e-17 4.93634e-18 0.0178459 -0.00706348 0.0111588)
(0.0262641 1.30838e-17 -3.44995e-18 0.0361379 -0.0197078 0.0293885)
(0.86002 -1.37626e-17 2.79363e-16 0.328613 -0.323666 1.44349)
(1.35178 1.72345e-17 -1.26853e-17 0.639328 -0.565525 3.07016)
(0.624208 -1.94436e-16 -1.81628e-16 0.394222 -0.248747 1.25463)
(0.32459 -1.51953e-16 -1.19666e-16 0.25948 -0.155796 0.578628)
(0.185605 -9.85244e-17 -5.95918e-17 0.186908 -0.103472 0.293259)
(0.125429 -7.49884e-17 -1.4968e-17 0.157704 -0.0804756 0.169824)
(0.100257 -4.07841e-17 -2.7696e-18 0.155723 -0.0681673 0.123863)
(0.0927473 -4.11274e-17 -2.22438e-18 0.160555 -0.060591 0.125462)
(0.132719 -7.84055e-17 -2.25342e-17 0.198617 -0.0501619 0.232623)
(0.197174 -1.04334e-16 -5.11904e-17 0.257355 -0.0393518 0.389345)
(0.20256 -8.02474e-17 -4.9356e-17 0.116823 -0.0154635 0.319712)
(1e-15 -3.72105e-21 2.26278e-20 1e-15 -9.24775e-07 1e-15)
(1e-15 -2.06094e-20 1.95053e-21 1e-15 8.03731e-08 1e-15)
(0.0181797 -2.23196e-17 5.96306e-18 0.0327935 -0.0107344 0.0215888)
(0.0345035 2.33493e-17 -8.92172e-18 0.0451367 -0.0279038 0.0379449)
(0.828507 1.85992e-17 1.18532e-15 0.702851 0.00672334 0.716039)
(0.849467 -2.61388e-17 1.8492e-15 0.737661 0.00824926 0.75912)
(0.809125 -1.58898e-16 1.25298e-15 0.696246 -0.0158944 0.702046)
(0.801188 -2.03344e-16 1.22032e-15 0.693064 -0.0278509 0.685523)
(0.79765 -2.33109e-16 1.20538e-15 0.693923 -0.0360419 0.678235)
(0.81787 -3.87718e-16 1.82632e-15 0.723674 -0.0636739 0.712162)
(0.781999 -4.1098e-16 1.25165e-15 0.686621 -0.0497664 0.659741)
(0.773992 -4.92898e-16 1.23651e-15 0.680143 -0.0519923 0.648747)
(0.770357 -5.51604e-16 1.22129e-15 0.678734 -0.0516387 0.64438)
(0.79052 -8.16059e-16 1.83533e-15 0.706307 -0.075878 0.678824)
(0.762403 -5.11464e-16 1.18025e-15 0.685215 -0.0549264 0.620044)
(0.757599 -4.40981e-16 1.11565e-15 0.685406 -0.0558473 0.606184)
(0.773914 -5.10644e-16 1.6191e-15 0.712906 -0.087428 0.624283)
(0.741432 -3.3952e-16 1.06757e-15 0.681238 -0.0649352 0.573148)
(0.732866 -3.11488e-16 1.01921e-15 0.674656 -0.0665515 0.560266)
(0.727882 -2.77601e-16 9.77214e-16 0.672751 -0.0659668 0.551661)
(0.743674 -3.71971e-16 1.44328e-15 0.697757 -0.0973852 0.573227)
(0.715189 -2.69868e-16 9.55242e-16 0.672298 -0.069574 0.526278)
(0.708329 -2.70253e-16 9.07571e-16 0.668604 -0.0694845 0.514529)
(0.719377 -4.12927e-16 1.32136e-15 0.689106 -0.105811 0.529528)
(0.687537 -3.20087e-16 8.91151e-16 0.656324 -0.079421 0.486709)
(0.677576 -3.35825e-16 8.55311e-16 0.647714 -0.0818905 0.474791)
(0.670068 -3.21758e-16 8.17708e-16 0.642415 -0.0818327 0.465482)
(0.679342 -4.32699e-16 1.20734e-15 0.660277 -0.120133 0.480376)
(0.648776 -2.84411e-16 7.99618e-16 0.6295 -0.0873382 0.439252)
(0.638788 -2.54684e-16 7.53942e-16 0.621068 -0.0872589 0.42701)
(0.630733 -2.31425e-16 7.16137e-16 0.615064 -0.08389 0.417302)
(0.637786 -3.22052e-16 1.05389e-15 0.630091 -0.119256 0.430385)
(0.608613 -2.0812e-16 6.84954e-16 0.601272 -0.0820526 0.390713)
(0.599225 -1.87478e-16 6.30156e-16 0.594099 -0.0778451 0.378177)
(0.603185 -2.53028e-16 8.77715e-16 0.608019 -0.109199 0.382642)
(0.573734 -1.47349e-16 5.73045e-16 0.577537 -0.0781554 0.346129)
(0.563828 -1.30788e-16 5.32558e-16 0.569514 -0.0748322 0.334422)
(0.55515 -1.22904e-16 4.94152e-16 0.562915 -0.0700553 0.324693)
(0.559807 -1.90246e-16 6.9791e-16 0.577651 -0.0967267 0.332366)
(0.531297 -1.34088e-16 4.57175e-16 0.54712 -0.0646035 0.30008)
(0.522008 -1.36736e-16 4.24363e-16 0.539382 -0.0603505 0.290486)
(0.525371 -2.22603e-16 5.94682e-16 0.553891 -0.0839537 0.296347)
(0.496223 -1.65681e-16 3.91117e-16 0.521421 -0.0557043 0.26462)
(0.486432 -1.661e-16 3.64152e-16 0.512933 -0.0524466 0.255367)
(0.477592 -1.5831e-16 3.35736e-16 0.505599 -0.0489037 0.247636)
(0.481666 -2.22387e-16 4.71074e-16 0.522339 -0.0692487 0.255209)
(0.453041 -1.48024e-16 2.99683e-16 0.4884 -0.0442984 0.227824)
(0.444056 -1.37072e-16 2.76697e-16 0.480625 -0.0414858 0.220442)
(0.436039 -1.24767e-16 2.53664e-16 0.473965 -0.038409 0.214874)
(0.442351 -1.61182e-16 3.54278e-16 0.49607 -0.0562726 0.224937)
(0.415878 -1.08425e-16 2.24361e-16 0.462068 -0.0344873 0.203679)
(0.409116 -1.02492e-16 2.07341e-16 0.457031 -0.0323738 0.199964)
(0.418897 -1.2877e-16 2.80727e-16 0.488348 -0.0539414 0.21415)
(0.394128 -1.01856e-16 1.84537e-16 0.453656 -0.0332165 0.195141)
(0.388864 -1.00679e-16 1.71514e-16 0.451126 -0.0336422 0.193077)
(0.385109 -9.18797e-17 1.57141e-16 0.451157 -0.0336889 0.192365)
(0.401631 -8.03556e-17 1.96474e-16 0.497213 -0.0709567 0.220232)
(0.371358 -8.13188e-17 1.33662e-16 0.448192 -0.0384566 0.190601)
(0.361993 -8.50289e-17 1.23334e-16 0.437209 -0.0376048 0.184074)
(0.353876 -7.97885e-17 1.109e-16 0.429073 -0.0347462 0.17691)
(0.360169 -6.44495e-17 1.23422e-16 0.457899 -0.0740823 0.199262)
(0.327921 -6.37839e-17 8.17394e-17 0.405626 -0.0305282 0.16433)
(0.31757 -6.03679e-17 7.11411e-17 0.393671 -0.0261786 0.159656)
(0.313697 -6.32505e-17 7.93389e-17 0.405425 -0.0581038 0.180576)
(0.277481 -5.43126e-17 3.88454e-17 0.345077 -0.025867 0.154285)
(0.264406 -4.32775e-17 3.37594e-17 0.329494 -0.0277836 0.148945)
(0.252514 -3.06564e-17 2.7907e-17 0.31622 -0.0293585 0.145765)
(0.240405 -8.52702e-18 4.70174e-17 0.31321 -0.0669152 0.158824)
(0.21201 -5.41416e-18 5.77388e-17 0.271677 -0.0421974 0.144562)
(0.201847 -9.09856e-18 6.19923e-17 0.260031 -0.0471923 0.146956)
(0.191801 -5.58336e-17 6.33616e-17 0.25224 -0.0777559 0.162009)
(0.183264 -6.29244e-17 8.07212e-17 0.241224 -0.0626012 0.166588)
(0.182423 -7.66903e-17 7.92551e-17 0.240822 -0.0712616 0.173328)
(0.183479 -8.56841e-17 7.74109e-17 0.242597 -0.0782965 0.181288)
(0.187141 -1.15908e-16 7.01862e-17 0.2475 -0.103914 0.194078)
(0.187403 -1.02314e-16 7.73943e-17 0.247206 -0.0867132 0.200134)
(0.187688 -9.49647e-17 5.62078e-17 0.245371 -0.0975093 0.207744)
(0.188293 -8.55734e-17 3.95391e-17 0.244014 -0.103164 0.216074)
(0.189414 -9.02642e-17 2.4997e-17 0.243285 -0.120821 0.223561)
(0.188021 -7.46671e-17 2.35261e-17 0.239083 -0.103907 0.229623)
(0.188478 -7.67573e-17 2.04984e-17 0.23882 -0.112688 0.233513)
(0.188856 -8.17396e-17 1.63025e-17 0.23778 -0.126522 0.236922)
(0.185791 -6.9486e-17 1.39874e-17 0.229112 -0.111551 0.246675)
(0.185831 -7.11037e-17 1.2859e-17 0.228018 -0.119627 0.250303)
(0.185823 -7.05117e-17 1.20835e-17 0.22701 -0.119645 0.252091)
(0.185865 -7.15712e-17 1.15828e-17 0.22495 -0.115245 0.249202)
(0.188429 -7.01475e-17 1.06709e-17 0.227238 -0.116062 0.25174)
(0.190976 -6.91819e-17 9.66629e-18 0.225878 -0.115349 0.254015)
(0.191924 -6.11488e-17 3.7446e-18 0.217961 -0.113958 0.268453)
(0.195693 -6.43526e-17 5.22048e-18 0.221173 -0.114778 0.274987)
(0.198144 -6.60479e-17 5.32684e-18 0.222136 -0.112886 0.277363)
(0.202306 -6.72167e-17 5.55229e-18 0.226157 -0.11288 0.282667)
(0.206621 -6.85592e-17 5.96409e-18 0.230098 -0.112836 0.288071)
(0.211082 -7.00978e-17 6.25015e-18 0.23399 -0.112649 0.293398)
(0.21558 -7.02503e-17 5.57471e-18 0.237388 -0.112476 0.29878)
(0.220866 -6.81914e-17 3.61527e-18 0.242172 -0.112403 0.305339)
(0.229454 -6.59079e-17 7.67596e-19 0.249202 -0.112416 0.316795)
(0.232327 -6.38729e-17 -1.2822e-18 0.244184 -0.111108 0.332356)
(0.2394 -6.61245e-17 -8.78869e-19 0.250897 -0.113282 0.343962)
(0.244694 -6.6931e-17 -1.76691e-18 0.254925 -0.112541 0.351225)
(0.250661 -6.73601e-17 -2.47667e-18 0.259913 -0.113323 0.360105)
(0.257264 -6.77131e-17 -3.1434e-18 0.265444 -0.113154 0.371612)
(0.264157 -6.8492e-17 -4.08087e-18 0.270802 -0.110902 0.38415)
(0.271142 -6.92339e-17 -5.48554e-18 0.275622 -0.107769 0.397031)
(0.278844 -6.99316e-17 -7.57257e-18 0.281601 -0.103765 0.41099)
(0.289495 -6.92715e-17 -1.17528e-17 0.288535 -0.0990387 0.430162)
(0.291764 -7.24134e-17 -2.28322e-19 0.284312 -0.0964131 0.442216)
(0.29628 -7.35098e-17 4.39513e-19 0.287581 -0.0972511 0.454472)
(0.29862 -7.30301e-17 -1.26978e-18 0.288452 -0.0939558 0.461998)
(0.300964 -7.28692e-17 -2.95277e-18 0.289985 -0.0910972 0.470023)
(0.302793 -7.21186e-17 -5.18213e-18 0.291285 -0.0879903 0.477268)
(0.304028 -7.01996e-17 -7.84017e-18 0.290903 -0.0846109 0.483325)
(0.305671 -6.83683e-17 -9.86825e-18 0.28883 -0.081738 0.489855)
(0.307677 -6.75218e-17 -1.12223e-17 0.286796 -0.0795022 0.497747)
(0.309552 -6.64195e-17 -1.26684e-17 0.284473 -0.0769115 0.505399)
(0.313095 -6.37294e-17 -1.42348e-17 0.282369 -0.0741933 0.516938)
(0.313017 -5.70747e-17 -2.22182e-17 0.278375 -0.0722026 0.519271)
(0.316804 -5.72443e-17 -2.26369e-17 0.278596 -0.0726597 0.530334)
(0.318937 -5.61957e-17 -2.39285e-17 0.276864 -0.0713374 0.537552)
(0.321049 -5.52123e-17 -2.50812e-17 0.27486 -0.0703762 0.544827)
(0.323304 -5.40398e-17 -2.62889e-17 0.273159 -0.0694447 0.551905)
(0.325266 -5.21914e-17 -2.77746e-17 0.270899 -0.0679558 0.557657)
(0.328297 -5.02365e-17 -2.95622e-17 0.269197 -0.0663639 0.565474)
(0.332983 -4.8785e-17 -3.11696e-17 0.268984 -0.0657658 0.577181)
(0.341011 -4.72159e-17 -3.27915e-17 0.272354 -0.0660877 0.595432)
(0.34635 -4.55428e-17 -3.88632e-17 0.276351 -0.0687597 0.603113)
(0.351238 -4.56639e-17 -4.04018e-17 0.277469 -0.068976 0.613979)
(0.3549 -4.46956e-17 -4.25828e-17 0.276922 -0.0678793 0.622065)
(0.359719 -4.45177e-17 -4.42141e-17 0.277335 -0.0681318 0.633298)
(0.365764 -4.44413e-17 -4.58609e-17 0.278713 -0.0695958 0.647774)
(0.372356 -4.43625e-17 -4.76412e-17 0.279726 -0.0710831 0.663958)
(0.380269 -4.44455e-17 -4.95214e-17 0.282359 -0.0726272 0.682892)
(0.387951 -4.48076e-17 -5.1747e-17 0.28223 -0.0726648 0.702677)
(0.399182 -4.35111e-17 -5.33877e-17 0.28875 -0.0739163 0.728151)
(0.410111 -5.72037e-17 -4.1529e-17 0.298067 -0.0777787 0.74157)
(0.417921 -5.75949e-17 -4.21318e-17 0.299438 -0.0781365 0.760764)
(0.427639 -5.62801e-17 -4.36408e-17 0.303869 -0.0797018 0.784475)
(0.437046 -5.35374e-17 -4.57485e-17 0.305976 -0.0795568 0.80824)
(0.446459 -4.95534e-17 -4.69126e-17 0.308166 -0.0790442 0.832231)
(0.456997 -4.60244e-17 -4.67521e-17 0.312018 -0.0798054 0.85896)
(0.468213 -4.19699e-17 -4.61234e-17 0.315553 -0.0810396 0.887838)
(0.479417 -3.72257e-17 -4.50491e-17 0.317033 -0.0826232 0.917782)
(0.496828 -3.22667e-17 -4.28039e-17 0.329987 -0.0872056 0.957955)
(0.503241 -3.79068e-17 -4.29112e-17 0.327765 -0.0843325 0.957056)
(0.507603 -3.50575e-17 -3.77917e-17 0.324752 -0.0812744 0.970321)
(0.51619 -3.13265e-17 -3.19782e-17 0.327554 -0.0839337 0.994824)
(0.523835 -2.82143e-17 -2.48465e-17 0.326155 -0.0866085 1.01908)
(0.533276 -2.52772e-17 -1.65969e-17 0.326633 -0.0915422 1.04769)
(0.542761 -1.87973e-17 -8.45156e-18 0.325687 -0.0960803 1.07696)
(0.537464 -1.35494e-17 2.13531e-18 0.318697 -0.0990596 1.07167)
(0.530789 -1.45439e-17 1.48894e-17 0.31153 -0.106073 1.06244)
(0.522795 -1.43515e-17 2.81538e-17 0.302768 -0.113665 1.04957)
(0.517118 -1.17482e-17 4.35428e-17 0.305921 -0.122983 1.03412)
(0.511415 1.62783e-19 2.9404e-17 0.277575 -0.133653 1.0114)
(0.474152 2.31359e-18 3.4627e-17 0.250886 -0.119066 0.928307)
(0.433107 -4.97888e-18 4.05011e-17 0.23434 -0.110265 0.837551)
(0.380649 -1.48474e-17 4.73823e-17 0.207962 -0.0942505 0.716004)
(0.325434 -2.54927e-17 5.47469e-17 0.184016 -0.0781481 0.584069)
(0.263636 -3.85489e-17 6.41424e-17 0.156178 -0.0628001 0.435377)
(0.217111 -5.27385e-17 7.06322e-17 0.144511 -0.0571964 0.326509)
(0.195681 -6.02241e-17 6.7145e-17 0.144415 -0.0562567 0.285362)
(0.166 -6.50512e-17 5.84792e-17 0.139454 -0.0489785 0.230689)
(0.14556 -7.05974e-17 4.90414e-17 0.131 -0.0409795 0.168501)
(0.112289 -7.418e-17 3.98811e-17 0.121697 -0.0314527 0.105871)
(0.0798496 -8.37071e-17 3.6861e-17 0.123264 -0.0316231 0.0465243)
(0.0790835 -9.19609e-17 4.10278e-17 0.126682 -0.0368169 0.0440125)
(0.0703912 -8.28347e-17 3.47192e-17 0.112466 -0.0282812 0.0345779)
(0.0622514 -6.87918e-17 2.64834e-17 0.0958088 -0.0181587 0.028261)
(0.0621492 -7.75098e-17 3.00769e-17 0.0958554 -0.0217459 0.0277057)
(0.0565116 -6.32456e-17 2.25577e-17 0.0836081 -0.0135911 0.0243079)
(0.057043 -7.12356e-17 2.56858e-17 0.0848315 -0.0164105 0.0243076)
(0.052831 -6.28058e-17 2.15499e-17 0.07538 -0.0123999 0.0224098)
(0.0489864 -5.25829e-17 1.6436e-17 0.0668826 -0.0078589 0.0208405)
(0.0497648 -5.99042e-17 1.9531e-17 0.0686817 -0.0112047 0.0201265)
(0.0472599 -5.36021e-17 1.68598e-17 0.0630477 -0.00946561 0.019012)
(0.0449173 -4.55966e-17 1.30563e-17 0.0579121 -0.00663374 0.0180709)
(0.0454562 -5.22736e-17 1.54958e-17 0.0588198 -0.00873659 0.0182323)
(0.0437353 -4.37209e-17 1.17073e-17 0.0550666 -0.0060277 0.0175481)
(0.0445431 -5.01177e-17 1.39761e-17 0.0565939 -0.00790313 0.0178197)
(0.0432861 -4.57133e-17 1.20192e-17 0.0536421 -0.00675787 0.0173802)
(0.0420934 -3.97652e-17 9.15523e-18 0.0509793 -0.00481047 0.016898)
(0.042771 -4.60701e-17 1.1336e-17 0.0520841 -0.00664665 0.0171838)
(0.0418678 -3.92554e-17 8.28713e-18 0.0500547 -0.00461359 0.0167754)
(0.0427599 -4.53856e-17 1.04425e-17 0.0516702 -0.00634928 0.0171223)
(0.0421867 -4.23497e-17 9.01599e-18 0.0501123 -0.00551183 0.0169045)
(0.0416349 -3.77086e-17 6.67439e-18 0.0487429 -0.00389954 0.0166272)
(0.04245 -4.36127e-17 9.19889e-18 0.0501193 -0.00637805 0.0168033)
(0.042153 -4.10955e-17 8.26576e-18 0.0490799 -0.00600695 0.0166384)
(0.0418798 -3.69877e-17 6.21298e-18 0.0482352 -0.00460911 0.0164126)
(0.0426896 -4.33803e-17 8.51994e-18 0.0495072 -0.00657957 0.0168202)
(0.042531 -3.81596e-17 6.26525e-18 0.048914 -0.00492653 0.0166244)
(0.0435211 -4.47029e-17 8.53159e-18 0.0506323 -0.00689451 0.0170938)
(0.0436194 -4.29398e-17 7.83795e-18 0.0503312 -0.00651087 0.0171321)
(0.0437276 -3.94291e-17 6.08791e-18 0.0501932 -0.00519691 0.0170594)
(0.044593 -4.64481e-17 8.67032e-18 0.0515402 -0.00738804 0.0175458)
(0.0447661 -4.15123e-17 6.57427e-18 0.0515558 -0.00576322 0.0174824)
(0.0458108 -4.86697e-17 9.23742e-18 0.0533577 -0.0080001 0.0180263)
(0.0460907 -4.7443e-17 8.84675e-18 0.0533706 -0.00776223 0.0181507)
(0.0463799 -4.42552e-17 7.20096e-18 0.0535532 -0.00649242 0.0181355)
(0.0473827 -5.01222e-17 1.10151e-17 0.0552499 -0.0101348 0.0184909)
(0.047716 -4.83378e-17 1.09929e-17 0.0553351 -0.0104629 0.0186153)
(0.0480321 -4.48857e-17 9.30983e-18 0.0555424 -0.00919906 0.0185522)
(0.0489346 -5.2837e-17 1.28881e-17 0.0569412 -0.0123257 0.0191253)
(0.0492794 -4.76798e-17 1.04876e-17 0.0572305 -0.0104186 0.0190551)
(0.0503628 -5.57376e-17 1.41443e-17 0.0591019 -0.0135991 0.0196902)
(0.0507714 -5.43714e-17 1.3878e-17 0.0593039 -0.0135924 0.0198969)
(0.0511624 -5.09523e-17 1.21118e-17 0.0596256 -0.0121046 0.01984)