/*--------------------------------*- C++ -*----------------------------------*\
| =========                 |                                                 |
| \\      /  F ield         | OpenFOAM: The Open Source CFD Toolbox           |
|  \\    /   O peration     | Version:  4.1                                   |
|   \\  /    A nd           | Web:      www.OpenFOAM.org                      |
|    \\/     M anipulation  |                                                 |
\*---------------------------------------------------------------------------*/
FoamFile
{
    version     2.0;
    format      ascii;
    class       volVectorField;
    location    "9";
    object      U;
}
// * * * * * * * * * * * * * * * * * * * * * * * * * * * * * * * * * * * * * //

dimensions      [0 1 -1 0 0 0 0];

internalField   nonuniform List<vector> 
6785
(
(1.46361e-14 -0.84158 16.1692)
(1.0234e-14 -6.73407 12.544)
(-2.44037e-15 -4.80735 12.949)
(4.4868e-15 -4.32202 12.6977)
(7.42372e-16 -3.69866 12.53)
(-2.07821e-16 -3.2272 12.3055)
(2.33085e-15 -2.83887 12.0535)
(6.0713e-16 -2.55145 11.7636)
(-5.01957e-16 -2.36453 11.435)
(1.98816e-15 -2.25202 11.0896)
(1.80079e-16 -2.20314 10.766)
(-4.34309e-16 -2.40915 10.3881)
(7.61118e-16 -2.92201 9.80363)
(-1.29238e-16 -2.30033 9.18958)
(-1.08193e-15 0.794951 7.27453)
(1.98328e-14 -7.83143 26.3097)
(1.44225e-14 -16.5751 22.0485)
(-3.03574e-15 -11.5564 22.5111)
(6.2279e-15 -11.8739 21.0561)
(7.19073e-16 -10.8096 20.0875)
(7.46345e-16 -10.0683 19.0332)
(2.98624e-15 -9.29484 17.9964)
(2.39362e-16 -8.55604 16.9577)
(4.33071e-16 -7.85509 15.915)
(2.05832e-15 -7.18822 14.9069)
(-7.49489e-17 -6.52702 13.9844)
(4.28842e-16 -5.87342 12.8296)
(1.30578e-15 -4.93837 10.3279)
(-4.19053e-16 -2.65296 5.56895)
(-7.32673e-17 0.425028 0.21609)
(2.10357e-14 -10.6548 28.3113)
(1.32385e-14 -17.6756 24.5174)
(-2.36327e-15 -11.9285 25.0173)
(5.10615e-15 -12.8917 22.7882)
(7.04774e-16 -11.259 21.6813)
(1.26587e-15 -10.519 20.2145)
(1.58826e-15 -9.58951 18.862)
(1.60319e-16 -8.76955 17.4996)
(5.05608e-16 -7.99816 16.1933)
(5.91651e-16 -7.31153 14.9679)
(-1.04477e-16 -6.56564 13.5746)
(-3.58425e-16 -5.03411 10.7232)
(-1.30639e-15 -1.2686 4.22934)
(3.45628e-16 3.39158 -4.13542)
(2.12507e-16 1.65492 -4.19122)
(2.19686e-14 -11.4636 27.2396)
(1.27615e-14 -17.6354 24.3099)
(-1.40896e-15 -11.888 24.5537)
(5.12552e-15 -13.6163 21.7144)
(7.57755e-17 -11.6199 20.717)
(2.50893e-15 -11.17 18.9824)
(1.92072e-15 -10.2919 17.5207)
(-7.90042e-16 -9.56266 16.0245)
(9.69745e-16 -8.86157 14.5754)
(1.01286e-15 -8.2247 13.199)
(-8.97331e-16 -7.60298 11.8335)
(1.03545e-15 -6.61631 9.86509)
(7.90779e-16 -4.39738 6.01323)
(-3.26057e-15 -1.65897 2.17195)
(-4.6635e-15 0.342209 -3.32225)
(2.05319e-14 -11.4773 25.7695)
(1.20089e-14 -17.2883 24.3507)
(-1.44801e-15 -12.0504 23.9979)
(3.82798e-15 -13.6017 21.0326)
(-1.59443e-15 -11.6594 20.028)
(2.28576e-17 -11.2051 18.2472)
(1.46897e-15 -10.355 16.7185)
(-2.80131e-15 -9.57435 15.1829)
(-1.98519e-15 -8.84068 13.698)
(-1.21722e-16 -8.15305 12.3361)
(-3.35925e-15 -7.52527 11.0826)
(-3.61571e-15 -6.7954 9.73476)
(-2.34949e-15 -5.62481 7.6448)
(-6.08752e-15 -3.72859 5.17684)
(-1.29211e-14 -1.5171 0.253871)
(2.1396e-14 -11.4418 24.8403)
(1.26152e-14 -16.7134 23.9192)
(3.28663e-16 -11.777 23.5346)
(3.72191e-15 -13.3408 20.4504)
(-1.77485e-15 -11.1179 19.6071)
(1.95153e-15 -10.8365 17.68)
(1.5972e-15 -9.81462 16.1981)
(-2.54355e-15 -9.06371 14.6743)
(1.343e-15 -8.38657 13.3264)
(-2.79216e-16 -7.81996 12.1219)
(-3.04855e-15 -7.25742 10.8962)
(9.93345e-17 -6.65226 9.74859)
(-1.29757e-16 -6.09474 8.69339)
(-2.83232e-15 -5.00061 7.3776)
(-6.13801e-15 -3.02907 3.71288)
(2.38682e-14 -11.8537 24.7089)
(1.28977e-14 -15.9855 23.4427)
(1.9634e-15 -11.6 23.2384)
(3.44293e-15 -13.0162 20.2003)
(4.61631e-16 -10.5518 19.4143)
(5.24663e-15 -10.3967 17.3311)
(4.69829e-16 -9.07654 15.8996)
(1.01485e-15 -8.22564 14.0806)
(3.75352e-15 -7.20086 12.2237)
(-5.99694e-17 -6.56823 10.6062)
(1.72994e-15 -6.32918 9.68819)
(5.78272e-15 -6.37812 9.50239)
(1.33605e-15 -6.62714 9.83535)
(-4.12063e-15 -6.50651 9.78051)
(2.66863e-15 -4.78491 7.54645)
(2.22322e-14 -12.5808 25.3442)
(1.10784e-14 -15.8148 23.995)
(1.87619e-15 -11.8706 23.6023)
(2.39866e-15 -12.881 20.912)
(2.01641e-15 -10.4704 20.0249)
(3.55219e-15 -10.192 18.0109)
(-3.18865e-16 -8.63632 16.5193)
(8.64892e-16 -7.3382 14.0656)
(1.10444e-15 -5.36143 10.9851)
(1.44415e-16 -3.80674 8.17362)
(-7.84895e-16 -3.32263 7.12679)
(-3.45339e-15 -4.12879 7.96291)
(-3.14553e-15 -5.69296 9.90987)
(-1.81397e-15 -6.86648 11.3461)
(4.22565e-15 -5.22555 9.53717)
(2.07578e-14 -12.814 25.2967)
(1.18753e-14 -16.818 26.0973)
(9.00257e-17 -12.5432 24.6582)
(2.95135e-15 -13.4563 22.1664)
(1.50435e-15 -11.038 21.3036)
(7.33772e-16 -10.8458 19.3169)
(-3.66562e-16 -9.20674 17.9211)
(1.80623e-17 -7.9016 15.3932)
(-2.11222e-15 -5.57192 12.0712)
(-8.93234e-16 -3.34675 8.57608)
(-5.33718e-15 -1.68459 6.05214)
(-1.11511e-14 -0.892693 4.62521)
(-1.01207e-14 -1.37273 4.97352)
(-8.69692e-15 -3.06557 7.07967)
(-2.61466e-15 -3.23388 7.28079)
(1.76737e-14 -12.1788 23.5313)
(1.40549e-14 -17.748 28.0037)
(1.04956e-15 -13.741 25.8313)
(1.46408e-15 -14.1459 23.1054)
(9.47566e-16 -12.0014 22.1548)
(6.27519e-16 -11.8522 20.2488)
(-1.51939e-15 -10.4399 18.9631)
(-4.29339e-16 -9.46368 16.8899)
(-2.01836e-15 -7.59969 14.2214)
(-2.79298e-15 -5.48441 10.9739)
(-4.28015e-15 -3.34542 7.8298)
(-1.04358e-14 -1.17165 4.53126)
(-1.88458e-14 1.07556 1.31776)
(-2.7348e-14 1.72662 -0.248563)
(-1.99191e-14 0.135635 0.843118)
(1.41776e-14 -11.0599 20.7185)
(1.59368e-14 -17.7299 28.4071)
(1.48984e-15 -14.7391 26.4133)
(1.36296e-15 -14.3666 23.3439)
(1.12423e-15 -12.6719 22.0195)
(-1.28845e-15 -12.3051 20.2558)
(-1.55685e-15 -11.2728 18.8909)
(4.84026e-17 -10.4733 17.1983)
(-3.17713e-15 -9.31613 15.2468)
(-3.13074e-15 -7.91423 12.945)
(-1.4683e-15 -6.29067 10.417)
(-7.41171e-15 -4.37073 7.54619)
(-1.15689e-14 -1.93139 4.07886)
(-3.05817e-14 1.32121 -0.0830591)
(-3.41366e-14 0.852208 -3.05086)
(1.30101e-14 -9.96216 17.9684)
(1.76734e-14 -17.0676 27.772)
(1.82236e-15 -14.9899 26.2279)
(1.14189e-15 -14.0502 22.8917)
(2.25755e-15 -12.5149 21.2456)
(-3.11015e-15 -11.9757 19.5494)
(-9.97526e-16 -11.0858 18.1417)
(2.12199e-15 -10.3173 16.5891)
(-3.70993e-15 -9.4316 14.9413)
(-3.86181e-15 -8.41388 13.1463)
(-7.46455e-16 -7.27376 11.1751)
(-6.67162e-15 -5.89497 8.98715)
(-4.52593e-15 -4.27516 6.30257)
(-1.50421e-14 -1.80319 2.9886)
(-1.9586e-14 -0.155847 -1.9719)
(1.05001e-14 -9.22749 16.0631)
(1.75426e-14 -16.395 26.9746)
(4.89662e-15 -15.2544 26.1305)
(2.40837e-16 -14.1269 22.9169)
(2.25498e-15 -12.7117 20.9436)
(-1.98365e-15 -12.0194 19.2054)
(-2.86406e-15 -11.1903 17.7158)
(3.65466e-15 -10.3869 16.1883)
(-1.44941e-15 -9.52937 14.619)
(-3.89159e-15 -8.59141 13.0182)
(1.1273e-17 -7.58564 11.3128)
(-5.48064e-15 -6.38658 9.46528)
(-4.91831e-15 -5.07692 7.28402)
(-5.39419e-15 -3.17012 4.69631)
(-1.75288e-14 -1.06943 -0.276532)
(7.62586e-15 -8.06977 12.9457)
(1.73257e-14 -15.127 24.8802)
(4.3027e-15 -14.5279 24.4795)
(-2.20618e-15 -12.9603 21.1726)
(1.47426e-15 -11.4833 19.2315)
(-8.49116e-16 -10.8281 17.867)
(-2.41014e-15 -10.1901 16.8217)
(3.65067e-15 -9.62888 15.7539)
(1.64678e-15 -9.10058 14.7059)
(-5.7786e-16 -8.53793 13.573)
(-5.86335e-16 -7.96053 12.3562)
(-3.14078e-15 -7.21253 11.0359)
(-2.63343e-15 -6.28197 9.34445)
(-3.6144e-15 -4.77746 7.32114)
(-1.12414e-14 -2.78205 3.63316)
(2.76704e-15 -7.08937 12.3222)
(1.50255e-14 -15.7446 24.9902)
(1.20625e-14 -17.9803 27.1457)
(3.26091e-15 -17.5913 24.9156)
(-1.03968e-16 -16.0295 22.0191)
(-1.07816e-15 -14.5845 19.4658)
(-3.43684e-15 -13.1996 17.309)
(-1.73585e-15 -11.875 15.4176)
(-1.62072e-16 -10.3639 13.3079)
(-3.12254e-15 -8.9241 11.3875)
(-6.3152e-15 -7.75598 9.97554)
(-5.82053e-15 -6.98997 9.2604)
(-4.7805e-15 -6.40098 8.85787)
(-6.5448e-15 -5.56781 8.11577)
(-1.05078e-14 -2.8998 5.08571)
(-8.91247e-16 -0.0119035 -0.0393043)
(-5.55035e-15 0.0826637 -0.485721)
(-4.7889e-15 0.104642 -0.480644)
(-3.75542e-15 0.149318 -0.478975)
(-2.62964e-15 0.156855 -0.3528)
(-5.12021e-15 0.238862 -0.484192)
(-3.57099e-15 0.241581 -0.29092)
(-2.97458e-15 0.277286 -0.263213)
(-2.60349e-15 0.273487 -0.220444)
(1.22706e-15 0.343534 -0.327511)
(1.60148e-15 0.34226 -0.241689)
(1.32276e-15 0.362323 -0.209183)
(-7.79394e-16 0.429533 -0.301052)
(-8.88007e-16 0.400109 -0.214787)
(-9.77784e-16 0.447175 -0.209078)
(-7.75284e-16 0.427967 -0.181394)
(-2.61548e-15 0.518042 -0.255141)
(-9.77461e-16 0.479404 -0.187515)
(-9.53122e-16 0.502264 -0.165069)
(-2.7713e-15 0.581781 -0.225782)
(-2.08939e-15 0.513123 -0.166283)
(-1.95339e-15 0.574432 -0.166152)
(-7.73915e-16 0.537086 -0.145525)
(-2.04118e-15 0.671002 -0.185342)
(-1.57947e-15 0.559376 -0.136875)
(-1.1163e-15 0.617392 -0.137179)
(-1.48056e-15 0.584684 -0.117749)
(-2.5207e-15 0.687831 -0.139753)
(-2.47029e-15 0.603879 -0.102072)
(-1.95293e-15 0.629912 -0.0855305)
(-2.78975e-15 0.706511 -0.0835839)
(-2.38605e-15 0.601324 -0.062958)
(-1.71664e-15 0.66309 -0.0561347)
(-1.89233e-15 0.619178 -0.0358059)
(-2.6559e-15 0.719342 0.00469226)
(-1.40375e-15 0.61506 0.0129771)
(-1.16603e-15 0.6351 0.0202396)
(-2.03455e-15 0.703969 0.0868036)
(-1.60884e-15 0.581201 0.0601691)
(-1.87181e-15 0.637418 0.0581822)
(-1.0845e-15 0.583569 0.0676057)
(-1.99916e-15 0.696124 0.176759)
(-1.66325e-15 0.546656 0.128225)
(-1.60162e-15 0.587598 0.113263)
(-1.35012e-15 0.544913 0.112822)
(-1.75668e-15 0.612576 0.240413)
(-1.97796e-15 0.510505 0.168856)
(-1.56506e-15 0.514571 0.159768)
(-2.07432e-15 0.590912 0.179653)
(-1.42611e-16 0.509864 0.0898556)
(-4.00369e-16 0.549088 0.0493215)
(-6.53547e-16 0.505117 0.0762611)
(-1.33463e-15 0.593745 0.161626)
(-1.06675e-15 0.487838 0.0664802)
(-1.13235e-15 0.507133 -0.0322914)
(-9.57224e-17 0.499651 -0.055194)
(1.9001e-16 0.518954 -0.137316)
(8.27278e-16 0.285413 -0.349814)
(6.66602e-17 0.379546 -0.320037)
(1.1498e-15 0.254739 -1.2067)
(2.40952e-15 -0.0921975 -1.35966)
(3.00497e-15 0.0785706 -1.3224)
(2.87244e-15 0.123126 -0.975349)
(1.41376e-15 0.185448 -2.32717)
(-8.88868e-15 -0.607863 -0.283508)
(-5.34907e-15 -0.2444 -0.363825)
(-3.32458e-15 -0.954349 1.62767)
(-2.22272e-15 -1.50639 2.75325)
(-1.99485e-15 -1.65349 2.74894)
(-2.1611e-15 -1.61323 3.11621)
(-2.70735e-15 -2.81653 5.8307)
(-1.80645e-15 -3.31711 5.42355)
(-1.699e-15 -3.69789 5.52497)
(-1.53634e-15 -3.67027 5.67744)
(-1.61339e-15 -5.85629 8.88263)
(-5.19428e-16 -5.82997 7.20756)
(-5.77627e-16 -5.86732 7.62893)
(-6.22527e-16 -8.59152 11.3967)
(-7.46923e-16 -8.22651 8.95677)
(-1.46031e-15 -8.49135 9.78485)
(-3.22913e-15 -9.28336 11.7935)
(-3.12204e-15 -9.09677 11.548)
(-3.35272e-15 -9.2152 11.8013)
(-1.32131e-15 -10.6487 13.9625)
(-3.25059e-15 -9.88013 12.9265)
(-2.65916e-15 -10.0802 13.5527)
(-2.50224e-15 -10.0548 13.7215)
(-2.40084e-15 -10.1226 13.8797)
(-2.13335e-15 -10.1702 14.0134)
(-1.78723e-15 -10.2352 14.1136)
(-1.39143e-15 -10.2879 14.2254)
(-1.09269e-15 -10.3335 14.3985)
(2.36713e-16 -11.2026 16.0034)
(-7.35053e-16 -10.8054 15.0395)
(-5.85001e-16 -10.9266 15.2009)
(-5.99998e-16 -10.937 15.2304)
(-6.77362e-16 -11.0326 15.4164)
(-4.88327e-16 -11.0677 15.6695)
(-3.29374e-16 -11.1382 15.8755)
(-1.55339e-16 -11.2164 16.1081)
(4.1344e-17 -11.2663 16.3456)
(2.08916e-15 -11.9946 17.9206)
(8.48598e-16 -11.5128 16.8103)
(9.36879e-16 -11.6413 17.0758)
(8.45117e-16 -11.6716 17.172)
(8.05437e-16 -11.7478 17.3248)
(8.89767e-16 -11.7979 17.5218)
(1.0472e-15 -11.8892 17.7525)
(9.28893e-16 -11.9196 17.8586)
(9.46229e-16 -12.0126 18.0239)
(1.02685e-15 -12.0783 18.1816)
(2.52334e-15 -12.2424 19.113)
(1.53562e-15 -11.9518 18.2891)
(1.71648e-15 -12.0255 18.4532)
(1.83651e-15 -12.0551 18.5189)
(2.07119e-15 -12.1269 18.647)
(2.34877e-15 -12.1364 18.8245)
(2.51032e-15 -12.2249 19.209)
(2.5889e-15 -12.258 19.3921)
(2.73223e-15 -12.3393 19.4837)
(3.95823e-15 -11.6313 19.12)
(2.9562e-15 -11.691 18.8246)
(2.87825e-15 -11.6807 19.0104)
(2.61995e-15 -11.7342 19.127)
(2.6933e-15 -11.7044 19.0564)
(2.67598e-15 -11.7424 19.077)
(2.70372e-15 -11.7453 19.0954)
(2.85231e-15 -11.7371 19.1709)
(3.40669e-15 -11.8848 19.4355)
(4.83194e-15 -10.0215 17.3906)
(4.15969e-15 -10.669 18.1687)
(4.47997e-15 -10.5539 18.0416)
(4.70271e-15 -10.5499 18.0478)
(5.03639e-15 -10.5449 18.2039)
(5.1935e-15 -10.4957 18.1263)
(5.31603e-15 -10.4203 17.9624)
(5.40362e-15 -10.4012 17.7767)
(5.44369e-15 -10.3933 17.4768)
(6.3687e-15 -7.8059 14.1537)
(5.75806e-15 -8.79299 15.9875)
(5.58305e-15 -8.5033 15.192)
(5.35088e-15 -8.5361 14.6487)
(5.20474e-15 -8.40785 13.9413)
(5.30869e-15 -8.31168 13.2624)
(6.50125e-15 -8.18866 12.7897)
(5.82557e-15 -7.9815 11.8603)
(5.79104e-15 -7.82005 11.0849)
(5.60847e-15 -7.58942 10.2352)
(4.14051e-15 -4.12631 4.48019)
(5.26808e-15 -5.84972 8.50854)
(4.97789e-15 -5.24648 7.18835)
(4.65282e-15 -5.31138 6.71601)
(4.3551e-15 -4.96419 5.86851)
(3.87472e-15 -4.88078 4.92824)
(2.73068e-15 -4.68326 3.24457)
(1.57525e-15 -4.27507 1.60604)
(1.83258e-15 -4.17167 1.48504)
(1.68065e-15 -2.97029 -1.87673)
(2.04636e-15 -3.48961 0.575604)
(1.97029e-15 -3.24942 -0.541135)
(1.23788e-15 -2.05176 -3.15082)
(2.04157e-15 -3.68197 -2.43078)
(9.67008e-16 -2.39407 -2.22403)
(7.33178e-16 -2.16287 -1.58308)
(1.06659e-15 -2.50023 -2.24338)
(1.29844e-15 -1.56666 -1.45576)
(1.5414e-15 -1.93854 -2.22332)
(2.21903e-15 -1.46323 -1.6897)
(1.97121e-15 -1.09177 -1.30176)
(3.02634e-15 -1.24943 -1.94314)
(2.37734e-15 -0.87274 -1.51027)
(1.77123e-15 -0.611508 -1.14946)
(2.73984e-15 -0.804325 -1.62536)
(1.06922e-15 -0.213295 -1.08509)
(3.25939e-15 -0.485893 -1.68772)
(3.47419e-15 -0.100033 -1.34369)
(9.66768e-16 0.33301 -0.96779)
(8.22098e-16 -0.357281 -1.37473)
(1.69744e-15 0.528666 -0.87209)
(4.69408e-15 0.352662 -1.16002)
(5.83516e-15 0.419279 -1.34359)
(2.99637e-15 0.72885 -0.835035)
(4.33171e-15 0.852765 -0.9318)
(3.15372e-15 0.832173 -1.13037)
(6.79766e-16 0.967348 -0.783835)
(1.04464e-15 1.17625 -0.991809)
(1.35063e-15 1.11958 -0.690739)
(1.39572e-15 1.31983 -0.763146)
(1.55839e-15 1.38703 -0.814579)
(6.55185e-16 1.24702 -0.559666)
(1.59724e-15 1.6333 -0.710533)
(1.19391e-15 1.38626 -0.504601)
(2.29568e-15 1.59517 -0.552606)
(2.82955e-15 1.65855 -0.5105)
(1.71043e-15 1.3858 -0.345925)
(1.38043e-15 1.67506 -0.365461)
(-5.25071e-16 1.68036 -0.261214)
(-8.58015e-16 1.31008 -0.187015)
(-1.37937e-15 1.73177 -0.120894)
(-1.16253e-15 1.32937 -0.0879253)
(-1.53695e-15 1.47228 -0.0233371)
(1.95901e-16 1.41118 0.132164)
(1.26665e-15 1.03301 0.0671908)
(1.09761e-15 1.34018 0.181006)
(1.37251e-16 0.939804 0.0940895)
(-5.28385e-16 0.99229 0.149827)
(-3.43838e-15 0.896622 0.196692)
(-1.91957e-15 0.454649 0.064492)
(-2.3652e-15 0.7424 0.0847379)
(-2.18842e-15 0.342469 0.0935622)
(4.43065e-16 -0.0382279 0.0266365)
(7.31904e-16 0.202244 0.0227857)
(-9.7175e-16 -0.294112 0.00254244)
(-1.64972e-15 -0.0741181 0.0908317)
(1.22734e-15 -0.892385 0.207088)
(2.25117e-15 -0.847365 0.201252)
(3.58409e-15 -1.43397 0.36945)
(3.50339e-15 -1.15693 0.341022)
(5.6429e-15 -1.73271 0.676078)
(6.23187e-15 -2.64854 0.803809)
(5.51868e-15 -2.12854 0.756961)
(8.8556e-15 -3.0381 1.32916)
(9.17358e-15 -3.81539 1.48362)
(7.58268e-15 -3.56299 1.36283)
(1.13522e-14 -5.43529 2.08799)
(8.92789e-15 -4.12133 1.77503)
(1.43554e-14 -5.97794 2.96272)
(1.40197e-14 -6.73998 3.03727)
(1.18801e-14 -6.32778 2.71941)
(1.72331e-14 -9.36487 4.02766)
(1.34929e-14 -7.00978 3.32706)
(2.13886e-14 -10.4193 5.36241)
(2.03678e-14 -11.4803 5.22091)
(1.73161e-14 -9.68084 4.59923)
(2.65539e-14 -13.4176 7.16748)
(2.47494e-14 -14.1905 6.89006)
(2.07317e-14 -13.1113 6.00722)
(2.96479e-14 -19.0337 8.66955)
(2.2947e-14 -14.5938 6.93749)
(3.65134e-14 -20.0295 11.2225)
(4.45194e-37 0.58384 -0.00758923)
(-5.13583e-36 0.568524 0.122769)
(-4.04993e-35 0.449949 0.126862)
(-1.76771e-34 0.416624 0.150045)
(-5.93114e-34 0.482307 0.15956)
(-1.64441e-33 0.679558 0.175873)
(-3.85851e-33 0.969165 0.189112)
(-7.54297e-33 1.30796 0.18526)
(-1.18611e-32 1.65756 0.151977)
(-1.44334e-32 1.98614 0.0858934)
(-1.22458e-32 2.26156 -0.0012053)
(-6.05216e-33 2.45932 -0.0851122)
(-1.78702e-33 2.57442 -0.138567)
(-3.17679e-34 2.62026 -0.17276)
(-2.63834e-35 2.6183 -0.204884)
(2.96119e-36 2.60692 -0.244294)
(1.70974e-36 2.64767 -0.297957)
(3.97543e-37 2.70825 -0.384121)
(-7.34335e-36 2.70063 -0.463763)
(7.88893e-35 2.58503 -0.493065)
(-4.67452e-34 2.3314 -0.465318)
(8.58502e-33 1.9847 -0.2818)
(-9.97177e-31 1.55949 0.131686)
(-4.28298e-30 1.03094 0.602912)
(-2.95045e-30 1.03076 0.577648)
(1.01677e-28 1.86974 0.163149)
(1.45103e-27 2.78109 -0.194017)
(-6.58674e-27 3.37151 -0.492374)
(-7.53461e-26 3.4044 -0.672365)
(-4.46927e-26 2.90818 -0.820488)
(-1.18573e-26 2.29683 -0.898767)
(1.82493e-26 1.81336 -0.864122)
(-1.34674e-25 1.59162 -0.696133)
(1.95545e-24 1.52759 -0.478862)
(-3.80632e-23 1.50608 -0.301333)
(9.65363e-22 1.43264 -0.171368)
(-3.94325e-20 1.38612 -0.00420881)
(-1.12824e-18 1.23522 0.154159)
(-2.28886e-18 0.959748 0.230747)
(-2.25323e-18 0.768058 0.39002)
(-1.97104e-18 0.544455 0.576988)
(-1.31785e-18 0.350398 0.743913)
(-5.22942e-19 0.19998 0.892079)
(6.44528e-20 0.0573191 1.02244)
(3.46645e-19 0.0257599 1.16004)
(-1.73925e-18 0.10781 1.29953)
(-9.27375e-18 0.243781 1.38575)
(-2.3456e-17 0.378199 1.43724)
(-4.34793e-17 0.490075 1.50916)
(-6.56211e-17 0.591664 1.60895)
(-8.94354e-17 0.700832 1.71604)
(-1.23463e-16 0.826759 1.8208)
(-1.83457e-16 0.978871 1.9183)
(-3.18013e-16 1.16569 2.00469)
(-6.08521e-16 1.39215 2.07585)
(-9.95201e-16 1.66002 2.12733)
(-9.89157e-16 1.96753 2.15431)
(-7.00009e-16 2.30747 2.153)
(4.01756e-17 2.66443 2.12238)
(1.17403e-15 3.01759 2.06011)
(2.24854e-15 3.34449 1.9479)
(2.50372e-15 3.60975 1.74774)
(1.41749e-15 3.77714 1.40816)
(-6.13417e-16 3.76249 0.918786)
(-2.76866e-15 3.54908 0.328369)
(-4.6889e-15 3.07244 -0.290743)
(-6.00135e-15 2.44976 -0.845367)
(-5.35399e-15 1.61893 -1.30809)
(-3.00849e-15 0.795709 -1.58909)
(-1.28445e-15 0.27447 -1.68555)
(-3.47108e-16 0.15889 -1.71387)
(-4.29932e-16 0.833022 -1.63715)
(-6.84881e-16 2.30906 -1.22715)
(-2.75285e-16 4.15968 -0.251977)
(2.30122e-15 3.80543 1.54443)
(4.78052e-15 -0.389639 3.86162)
(6.98866e-15 -4.15625 4.75847)
(1.45329e-14 -8.85696 7.36221)
(2.83498e-14 -15.7675 11.5486)
(4.28224e-37 0.563962 -0.143628)
(-3.67141e-36 0.548534 0.0228428)
(-3.72199e-35 0.447492 0.0383118)
(-1.7713e-34 0.414581 0.0664185)
(-6.3928e-34 0.481704 0.0828365)
(-1.90718e-33 0.677515 0.114854)
(-4.81735e-33 0.969213 0.153071)
(-1.00557e-32 1.31455 0.175975)
(-1.66945e-32 1.67355 0.162993)
(-2.12663e-32 2.01053 0.103222)
(-1.88627e-32 2.28878 0.00538331)
(-9.76859e-33 2.48082 -0.10218)
(-3.01678e-33 2.5872 -0.172085)
(-5.59193e-34 2.62889 -0.20514)
(-4.92256e-35 2.62724 -0.228905)
(4.76486e-36 2.61903 -0.259119)
(3.01525e-36 2.66705 -0.306722)
(4.25364e-37 2.73156 -0.388511)
(-5.48042e-36 2.71482 -0.46216)
(8.53139e-35 2.5827 -0.479574)
(-6.91004e-34 2.29674 -0.45872)
(1.33193e-32 1.89165 -0.320667)
(-5.05728e-31 1.42092 0.0166319)
(-4.76143e-30 0.956204 0.430249)
(-2.10495e-29 1.09428 0.407007)
(2.76157e-30 1.98637 -0.0104938)
(2.1867e-27 2.87791 -0.305376)
(-1.10498e-26 3.44109 -0.533235)
(-1.15849e-25 3.45135 -0.621949)
(-5.28709e-26 2.94019 -0.710288)
(-2.73321e-27 2.3012 -0.788807)
(2.71188e-26 1.78001 -0.788856)
(-9.27655e-26 1.53106 -0.652526)
(5.65018e-25 1.46616 -0.456472)
(-6.60074e-24 1.45768 -0.289443)
(3.36896e-22 1.38506 -0.169546)
(-2.13027e-20 1.33341 -0.0131683)
(-1.065e-18 1.19606 0.158957)
(-2.29536e-18 0.919827 0.231118)
(-2.33264e-18 0.710234 0.375201)
(-2.03706e-18 0.483399 0.533968)
(-1.55652e-18 0.293172 0.677078)
(-7.5541e-19 0.14804 0.810343)
(-1.989e-19 0.0072399 0.935814)
(8.44631e-20 -0.0271439 1.05584)
(-5.05882e-19 0.0586488 1.16402)
(-4.11343e-18 0.207525 1.23861)
(-1.50852e-17 0.347246 1.31203)
(-3.66069e-17 0.453874 1.42198)
(-6.27094e-17 0.55097 1.55363)
(-8.82182e-17 0.660272 1.68602)
(-1.2164e-16 0.788609 1.8148)
(-1.75722e-16 0.944329 1.93575)
(-2.92392e-16 1.13583 2.04551)
(-5.58934e-16 1.36818 2.13986)
(-9.3089e-16 1.64326 2.21436)
(-8.93004e-16 1.95924 2.26504)
(-4.51212e-16 2.30835 2.29059)
(5.73653e-16 2.6749 2.29402)
(2.00705e-15 3.04074 2.27384)
(3.11677e-15 3.3891 2.19989)
(2.92299e-15 3.69004 2.01336)
(1.1265e-15 3.90311 1.64505)
(-1.55165e-15 3.92863 1.09373)
(-4.18185e-15 3.73671 0.425182)
(-6.57251e-15 3.25692 -0.263932)
(-8.48685e-15 2.61196 -0.873625)
(-8.23253e-15 1.73997 -1.37758)
(-4.87079e-15 0.852857 -1.68402)
(-2.10115e-15 0.273547 -1.76173)
(-7.18521e-16 0.109092 -1.67332)
(-5.3146e-16 0.691742 -1.48288)
(-6.89022e-16 2.0372 -0.910162)
(-2.169e-16 3.71319 0.104052)
(2.85282e-15 3.20488 1.79949)
(5.02668e-15 -0.800897 3.71451)
(7.64272e-15 -4.65043 4.9757)
(1.59506e-14 -9.72577 7.82869)
(2.90893e-14 -16.3594 11.1688)
(4.17174e-37 0.54747 -0.244704)
(-2.43792e-36 0.529974 -0.0794436)
(-3.09044e-35 0.441586 -0.0532069)
(-1.58105e-34 0.407663 -0.0272334)
(-6.04032e-34 0.472578 -0.00906086)
(-1.92486e-33 0.665183 0.0341036)
(-5.24247e-33 0.957396 0.0942763)
(-1.17408e-32 1.3079 0.143453)
(-2.06758e-32 1.67565 0.154197)
(-2.76621e-32 2.02229 0.109144)
(-2.57438e-32 2.3072 0.0132834)
(-1.40785e-32 2.49823 -0.107736)
(-4.60464e-33 2.59735 -0.194796)
(-9.05844e-34 2.63367 -0.233527)
(-8.61481e-35 2.6313 -0.253331)
(7.07471e-36 2.62519 -0.276631)
(5.00874e-36 2.67749 -0.317576)
(6.05916e-37 2.74405 -0.391923)
(-2.60211e-36 2.72195 -0.458441)
(7.50491e-35 2.58386 -0.465757)
(-6.55674e-34 2.29181 -0.443918)
(1.05095e-32 1.87001 -0.346782)
(-2.01665e-31 1.38425 -0.0820313)
(-3.94426e-30 0.942493 0.249267)
(-2.7819e-29 1.12925 0.206619)
(-1.0773e-28 2.03285 -0.147891)
(2.98598e-27 2.90607 -0.372292)
(-1.67798e-26 3.45127 -0.5231)
(-1.6182e-25 3.45126 -0.521981)
(-5.04067e-26 2.94773 -0.543322)
(1.93133e-26 2.31247 -0.621164)
(4.25912e-26 1.77909 -0.678038)
(-8.664e-26 1.51373 -0.59945)
(-2.72548e-25 1.44328 -0.438381)
(1.42725e-23 1.43941 -0.281707)
(-9.90741e-23 1.36843 -0.167581)
(-9.81888e-21 1.3112 -0.0217855)
(-1.00877e-18 1.1796 0.161665)
(-2.30009e-18 0.909345 0.23914)
(-2.41072e-18 0.69794 0.388406)
(-2.03854e-18 0.475276 0.536264)
(-1.60073e-18 0.28798 0.663016)
(-8.28119e-19 0.142321 0.78268)
(-3.26481e-19 0.00131175 0.89653)
(-1.13261e-20 -0.0280956 1.00465)
(1.0107e-19 0.0661207 1.10589)
(-3.0333e-18 0.213249 1.1993)
(-1.63935e-17 0.340994 1.31408)
(-4.13771e-17 0.439515 1.45318)
(-6.78409e-17 0.535453 1.59121)
(-9.38499e-17 0.644777 1.72786)
(-1.30506e-16 0.772916 1.86275)
(-1.87458e-16 0.929035 1.99124)
(-3.10451e-16 1.12165 2.10961)
(-5.86903e-16 1.35592 2.21344)
(-9.37927e-16 1.63357 2.29865)
(-7.86835e-16 1.95225 2.36332)
(-9.19787e-17 2.30327 2.41041)
(1.27716e-15 2.67125 2.44689)
(2.90934e-15 3.0423 2.46637)
(3.76487e-15 3.40616 2.41872)
(2.87748e-15 3.73578 2.22333)
(4.79946e-16 3.98321 1.80628)
(-2.40194e-15 4.03463 1.18846)
(-5.07449e-15 3.85215 0.452951)
(-7.59718e-15 3.36237 -0.283022)
(-1.01004e-14 2.69814 -0.912915)
(-1.10389e-14 1.79786 -1.40249)
(-7.51137e-15 0.879437 -1.67722)
(-3.36213e-15 0.273774 -1.73774)
(-1.3809e-15 0.0976104 -1.58372)
(-8.41933e-16 0.66929 -1.27222)
(-8.31136e-16 1.96181 -0.582067)
(-1.47376e-16 3.54555 0.377571)
(3.41043e-15 2.95779 2.07438)
(5.50313e-15 -1.09663 3.80437)
(8.60953e-15 -5.11028 5.31347)
(1.75436e-14 -10.405 8.31318)
(2.89434e-14 -16.0771 10.5176)
(4.43089e-37 0.530336 -0.349027)
(-1.20002e-36 0.510697 -0.196829)
(-2.30917e-35 0.436977 -0.155248)
(-1.29682e-34 0.404832 -0.132722)
(-5.27008e-34 0.467549 -0.116563)
(-1.81106e-33 0.654217 -0.0674862)
(-5.40182e-33 0.944741 0.013339)
(-1.32087e-32 1.30014 0.0923067)
(-2.50366e-32 1.67804 0.132651)
(-3.55331e-32 2.03653 0.107854)
(-3.4875e-32 2.33032 0.0177385)
(-2.01603e-32 2.52122 -0.114874)
(-6.9736e-33 2.61164 -0.220433)
(-1.45554e-33 2.64009 -0.267025)
(-1.49736e-34 2.63544 -0.283139)
(1.00944e-35 2.63132 -0.298563)
(8.23856e-36 2.68901 -0.331174)
(9.1929e-37 2.75837 -0.396618)
(1.86477e-36 2.72906 -0.456462)
(5.41657e-35 2.58112 -0.456044)
(-4.96902e-34 2.27806 -0.432155)
(5.87975e-33 1.82977 -0.377625)
(-4.17071e-32 1.31632 -0.184889)
(-2.48835e-30 0.906612 0.0758659)
(-2.18129e-29 1.16944 0.0169707)
(-2.34489e-28 2.09279 -0.277014)
(3.98344e-27 2.94459 -0.44213)
(-2.48305e-26 3.46374 -0.503716)
(-2.21057e-25 3.44981 -0.401229)
(-3.41397e-26 2.95644 -0.352395)
(6.03369e-26 2.32838 -0.428472)
(6.46359e-26 1.77925 -0.547434)
(-1.09045e-25 1.48925 -0.533905)
(-6.91773e-25 1.40858 -0.415281)
(2.77254e-23 1.40865 -0.273174)
(-4.44423e-22 1.33825 -0.166058)
(1.03477e-21 1.27299 -0.0309326)
(-9.29889e-19 1.14836 0.16247)
(-2.33914e-18 0.879679 0.241578)
(-2.47965e-18 0.657343 0.391898)
(-2.03311e-18 0.435064 0.537721)
(-1.60797e-18 0.25027 0.65894)
(-8.50588e-19 0.107602 0.771176)
(-3.7695e-19 -0.0299343 0.875936)
(-8.25152e-22 -0.0603326 0.975843)
(3.48885e-19 0.0283022 1.07705)
(-3.32636e-18 0.17138 1.18943)
(-1.85366e-17 0.300049 1.32663)
(-4.41806e-17 0.402049 1.47188)
(-7.03238e-17 0.499938 1.61187)
(-9.8529e-17 0.609874 1.75565)
(-1.37313e-16 0.739694 1.89936)
(-1.95174e-16 0.898471 2.03774)
(-3.23994e-16 1.09455 2.16706)
(-6.02726e-16 1.33308 2.28285)
(-9.07521e-16 1.61541 2.38198)
(-6.01692e-16 1.93831 2.46571)
(4.01642e-16 2.29219 2.54247)
(2.12546e-15 2.66327 2.62158)
(3.82851e-15 3.04466 2.6853)
(4.26011e-15 3.43444 2.65706)
(2.65279e-15 3.80682 2.43654)
(-1.26775e-16 4.1017 1.95472)
(-2.93532e-15 4.18793 1.25997)
(-5.42307e-15 4.01825 0.450978)
(-7.86044e-15 3.51658 -0.339024)
(-1.07586e-14 2.82464 -0.994938)
(-1.31918e-14 1.88399 -1.4664)
(-1.05647e-14 0.918649 -1.68609)
(-5.28924e-15 0.26413 -1.71368)
(-2.12942e-15 0.0327474 -1.49874)
(-1.2046e-15 0.527828 -1.07819)
(-1.01849e-15 1.74481 -0.290058)
(1.21217e-17 3.23593 0.651975)
(4.02252e-15 2.55947 2.40875)
(6.14779e-15 -1.4373 4.1001)
(9.68259e-15 -5.5381 5.73411)
(1.88429e-14 -10.8539 8.72367)
(2.91106e-14 -15.867 10.3553)
(4.60858e-37 0.515016 -0.452422)
(-9.60495e-38 0.491647 -0.323421)
(-1.47773e-35 0.429666 -0.26881)
(-9.48194e-35 0.400984 -0.248881)
(-4.1434e-34 0.460814 -0.236579)
(-1.55706e-33 0.639575 -0.187545)
(-5.15708e-33 0.925324 -0.091936)
(-1.40135e-32 1.28413 0.016977)
(-2.90997e-32 1.67297 0.0927042)
(-4.43911e-32 2.04593 0.0959402)
(-4.63231e-32 2.35232 0.0187296)
(-2.8431e-32 2.54627 -0.120966)
(-1.04171e-32 2.62811 -0.245764)
(-2.31064e-33 2.64649 -0.303655)
(-2.57783e-34 2.63787 -0.317888)
(1.35443e-35 2.63507 -0.325366)
(1.33861e-35 2.69753 -0.348073)
(1.41578e-36 2.76966 -0.402506)
(9.11491e-36 2.73411 -0.455774)
(1.8614e-35 2.57849 -0.450305)
(-2.28181e-34 2.27379 -0.421006)
(1.16321e-33 1.81501 -0.405461)
(2.52308e-32 1.28654 -0.285183)
(-1.34021e-30 0.898667 -0.100279)
(-9.93286e-30 1.20084 -0.179927)
(-3.76742e-28 2.12786 -0.400845)
(5.17205e-27 2.95624 -0.502799)
(-3.53263e-26 3.44694 -0.46562)
(-2.92858e-25 3.4236 -0.260189)
(1.15905e-27 2.95398 -0.145518)
(1.27025e-25 2.3511 -0.220954)
(9.38986e-26 1.79795 -0.402251)
(-1.97618e-25 1.48455 -0.459228)
(-2.07083e-25 1.38817 -0.390384)
(2.77405e-23 1.3871 -0.265774)
(-6.01073e-22 1.31736 -0.164742)
(8.36996e-21 1.24288 -0.0407313)
(-8.27853e-19 1.12283 0.161118)
(-2.37493e-18 0.860562 0.244428)
(-2.54603e-18 0.63484 0.395268)
(-2.02556e-18 0.417765 0.537247)
(-1.60657e-18 0.236748 0.65491)
(-8.57988e-19 0.094511 0.762786)
(-3.88643e-19 -0.0443765 0.863302)
(4.93019e-20 -0.0739408 0.960405)
(4.24525e-19 0.016862 1.064)
(-3.86943e-18 0.158628 1.18737)
(-2.00227e-17 0.281683 1.33359)
(-4.57195e-17 0.380001 1.48267)
(-7.26973e-17 0.476121 1.62965)
(-1.03465e-16 0.584793 1.78172)
(-1.43357e-16 0.714204 1.93397)
(-2.02746e-16 0.873455 2.08211)
(-3.38608e-16 1.0709 2.22219)
(-6.14864e-16 1.31157 2.34987)
(-8.50743e-16 1.59603 2.46367)
(-3.36602e-16 1.91964 2.56964)
(1.03257e-15 2.2721 2.68259)
(3.0862e-15 2.6433 2.811)
(4.6854e-15 3.03639 2.91753)
(4.50106e-15 3.45797 2.89469)
(2.26884e-15 3.87915 2.62947)
(-6.37464e-16 4.22298 2.07005)
(-3.15187e-15 4.3408 1.29525)
(-5.35877e-15 4.17872 0.414363)
(-7.57e-15 3.65814 -0.428703)
(-1.04905e-14 2.93067 -1.10993)
(-1.41554e-14 1.94053 -1.55897)
(-1.34054e-14 0.93078 -1.69526)
(-7.47808e-15 0.234231 -1.66633)
(-3.13535e-15 -0.038621 -1.40406)
(-1.54884e-15 0.409608 -0.886757)
(-1.12943e-15 1.59407 -0.0116152)
(2.60392e-16 2.99228 0.935498)
(4.6578e-15 2.22811 2.75463)
(6.89585e-15 -1.77505 4.46601)
(1.08272e-14 -5.99239 6.18885)
(1.999e-14 -11.271 8.99231)
(2.83891e-14 -15.5733 9.68063)
(4.44901e-37 0.502373 -0.555049)
(6.43583e-37 0.474676 -0.453532)
(-7.48476e-36 0.422067 -0.393375)
(-6.01895e-35 0.398431 -0.37434)
(-2.88522e-34 0.455508 -0.366216)
(-1.21137e-33 0.624952 -0.32116)
(-4.54857e-33 0.902909 -0.2176)
(-1.39459e-32 1.26215 -0.0829689)
(-3.2302e-32 1.66148 0.031244)
(-5.37777e-32 2.05096 0.0700334)
(-6.02452e-32 2.37349 0.0133431)
(-3.94684e-32 2.57399 -0.127692)
(-1.5346e-32 2.6481 -0.270836)
(-3.62172e-33 2.6544 -0.34273)
(-4.38942e-34 2.6397 -0.357146)
(1.6443e-35 2.63724 -0.35681)
(2.14555e-35 2.70421 -0.368225)
(2.1038e-36 2.77967 -0.410042)
(2.15187e-35 2.73852 -0.4576)
(-3.81593e-35 2.57442 -0.451395)
(1.26408e-34 2.27003 -0.415765)
(-2.37877e-33 1.80456 -0.432366)
(4.81336e-32 1.25918 -0.381485)
(-6.15783e-31 0.889287 -0.268931)
(5.43945e-30 1.22806 -0.372536)
(-5.44372e-28 2.15464 -0.523901)
(6.51829e-27 2.9564 -0.557769)
(-4.7946e-26 3.4141 -0.418145)
(-3.75802e-25 3.38457 -0.119475)
(5.53403e-26 2.94746 0.0451382)
(2.24895e-25 2.37987 -0.0297378)
(1.27768e-25 1.82746 -0.259895)
(-3.52454e-25 1.48839 -0.382075)
(1.11877e-24 1.37112 -0.365408)
(1.54249e-23 1.36469 -0.260664)
(-5.61227e-22 1.29441 -0.164517)
(1.17694e-20 1.20918 -0.0510027)
(-7.06675e-19 1.09249 0.156761)
(-2.38807e-18 0.834514 0.244908)
(-2.6061e-18 0.601085 0.396512)
(-2.01351e-18 0.385907 0.536728)
(-1.59819e-18 0.208247 0.652148)
(-8.62249e-19 0.0691723 0.756933)
(-3.85446e-19 -0.0666723 0.853675)
(1.02516e-19 -0.0971214 0.947956)
(4.3594e-19 -0.0125379 1.05257)
(-4.28611e-18 0.121433 1.18462)
(-2.08495e-17 0.243302 1.33959)
(-4.67725e-17 0.344585 1.49438)
(-7.53015e-17 0.441849 1.64824)
(-1.08332e-16 0.550617 1.80735)
(-1.48946e-16 0.681027 1.96793)
(-2.10781e-16 0.842018 2.12568)
(-3.53896e-16 1.04194 2.27635)
(-6.19578e-16 1.28548 2.41607)