/*--------------------------------*- C++ -*----------------------------------*\
| =========                 |                                                 |
| \\      /  F ield         | OpenFOAM: The Open Source CFD Toolbox           |
|  \\    /   O peration     | Version:  4.1                                   |
|   \\  /    A nd           | Web:      www.OpenFOAM.org                      |
|    \\/     M anipulation  |                                                 |
\*---------------------------------------------------------------------------*/
FoamFile
{
    version     2.0;
    format      ascii;
    class       volScalarField;
    location    "22";
    object      p;
}
// * * * * * * * * * * * * * * * * * * * * * * * * * * * * * * * * * * * * * //

dimensions      [0 2 -2 0 0 0 0];

internalField   nonuniform List<scalar> 
6785
(
596.991
519.237
472.839
420.007
373.757
329.149
287.532
248.047
210.624
175.146
140.965
107.729
79.0537
49.4838
8.0225
-1.16389
-18.9973
-8.81294
-15.8481
-14.9216
-17.2059
-17.6126
-17.951
-17.3138
-15.7807
-13.1349
-9.48623
-4.17912
1.90258
4.13117
10.0968
4.53123
12.6644
6.96081
9.64672
7.34719
6.99818
5.41585
4.0662
2.39292
0.884382
0.241433
-0.125374
-1.0187
-1.80332
0.535781
-3.80202
-2.19631
-8.40109
-8.46776
-13.0593
-15.1293
-18.5567
-21.2813
-24.1142
-26.3725
-27.5635
-27.9773
-28.5159
-27.3883
-16.6139
-18.9084
-16.1209
-19.1774
-16.2941
-18.0291
-16.5995
-16.7587
-16.0454
-15.5453
-14.7019
-13.6843
-11.8033
-10.307
-7.47059
7.01607
7.11619
10.5636
9.51374
13.1831
13.1379
15.6416
16.8544
18.7031
20.3577
22.173
23.8335
25.777
27.1155
29.4038
29.511
30.3749
33.0773
32.3812
35.2219
35.2163
37.0235
37.8744
39.0873
40.1595
41.297
42.3599
43.6339
44.5591
45.9402
47.5635
48.4778
50.3751
49.7901
51.8391
51.6297
52.8709
53.175
53.8563
54.5154
55.3339
56.235
57.2759
58.0056
59.078
59.1543
60.1673
61.5563
61.549
63.3596
63.6638
64.9592
65.4206
65.9819
65.8771
65.2907
64.53
63.987
64.1609
64.2156
72.0761
71.1186
71.7101
70.2531
70.4891
68.9024
67.9956
65.7835
63.366
60.2679
57.2473
54.6934
53.1957
52.9345
50.7677
44.3146
39.4441
38.5526
35.05
33.6091
30.8017
29.2368
27.2759
25.9609
24.5048
23.2223
22.1999
21.8549
20.7697
16.9007
-4.20899
-9.53195
-10.9607
-14.7039
-17.1373
-20.8533
-23.8986
-27.4039
-30.5811
-33.5972
-35.8828
-37.0854
-37.8192
-38.5211
-37.4932
-15.8053
-17.7914
-19.0621
-21.6459
-22.9675
-25.3262
-26.874
-28.2317
-28.6996
-28.3686
-26.979
-24.784
-21.7871
-19.351
-15.9605
5.08699
8.53228
9.30793
9.54447
10.5496
11.584
13.2805
15.0179
16.9034
18.8094
20.771
22.5473
24.3818
25.6499
27.6476
71.7134
71.5308
68.2995
62.4845
56.2698
51.8534
47.8583
44.0827
41.0699
38.8284
36.6165
34.8457
33.3909
32.3323
30.5465
44.175
44.1611
47.1025
44.297
44.4875
45.2733
44.619
43.9238
43.8495
43.5985
43.4783
42.3632
42.4391
42.3024
41.0146
40.7718
41.0837
41.1536
39.3217
40.2212
40.3202
38.8022
38.5729
39.6807
39.7936
38.373
38.235
39.3222
39.7338
38.1394
39.368
39.7339
38.6733
38.6246
39.532
39.9914
38.9464
39.7503
40.1606
39.5277
39.4762
40.0749
40.1838
39.6842
39.623
40.0484
39.9521
39.412
39.8298
39.9187
39.6018
39.5585
39.7883
40.226
40.0589
39.9947
40.0619
40.8864
40.7332
40.8349
41.1212
41.089
41.0869
41.0773
41.5134
41.7104
43.0222
41.1521
39.3197
40.8662
42.782
33.7784
29.619
33.6773
38.7262
10.7303
21.9615
30.3661
-19.3622
-5.93309
0.450307
-2.28013
2.44078
-5.00292
-2.964
2.40181
2.48807
3.43583
3.92805
4.80491
6.32091
10.2097
9.21543
5.45434
7.29709
10.1479
13.1512
13.6606
15.0989
15.7122
18.0671
20.5356
18.5804
21.0281
21.5993
23.4257
26.2222
28.0047
28.7767
29.9278
29.7204
33.8202
34.389
36.2303
37.015
37.6764
39.4503
42.1036
43.3181
40.7352
43.9172
47.5142
49.8705
50.7069
50.2986
49.8404
49.1561
51.2728
47.7244
52.3223
57.321
53.8268
54.3195
54.2484
51.7647
49.8817
48.1096
40.9033
48.5742
55.0374
48.3759
45.3655
40.6617
36.7152
32.593
29.3277
25.6954
19.4381
16.4934
22.9663
16.9346
15.8565
13.7617
11.057
3.7667
1.43771
4.09069
-8.16568
8.23292
4.95725
3.54087
11.7005
4.26374
8.5126
7.13075
9.85046
13.5389
8.87144
11.9355
14.0296
11.484
12.8706
12.3983
13.2678
14.6121
13.0273
13.7615
13.34
13.7939
14.2612
13.288
13.7285
13.8131
13.3084
13.4117
13.2089
13.2348
13.2046
12.8848
12.8331
12.6907
12.622
12.5367
12.0835
11.9434
11.948
11.3798
11.0977
10.9321
10.6204
10.3721
10.0749
9.75461
9.40196
9.19677
8.86235
8.74374
8.41224
7.98841
8.00407
7.64285
7.21751
7.13077
6.73751
6.82756
6.41989
5.99098
5.94727
5.55588
5.73572
5.34684
4.81045
5.1404
4.68744
4.26195
4.2438
3.83804
4.09653
3.55293
3.12254
3.04995
2.60777
2.83798
2.23244
1.58804
1.96166
1.14949
0.610842
0.358462
-0.175988
0.00220337
0.00754746
0.00866143
0.0120292
0.0135537
0.0161728
0.0182791
0.0209537
0.0236058
0.026607
0.0297709
0.033218
0.0368757
0.0407087
0.0446275
0.0486712
0.0532002
0.0590346
0.0671132
0.0775845
0.0889402
0.0982133
0.102377
0.0998811
0.0911562
0.0780171
0.0626353
0.0468177
0.0317851
0.0181316
0.0058552
-0.00550026
-0.0166157
-0.0281713
-0.0406447
-0.0540117
-0.0680051
-0.0853982
-0.136843
-0.217757
-0.0925507
-0.645056
-0.478641
-0.553284
-0.708358
-0.846004
-0.977391
-1.08545
-1.15178
-1.17103
-1.14527
-1.07204
-0.960162
-0.821687
-0.65892
-0.475165
-0.279676
-0.0739509
0.145534
0.374658
0.589831
0.751116
0.859879
0.919531
0.934764
0.905877
0.840122
0.73607
0.611301
0.469014
0.331395
0.189023
0.076187
0.104555
0.159982
0.131345
0.214228
0.0926737
0.419585
0.00465894
0.0186268
0.0211709
0.0302496
0.0337332
0.0404978
0.0456666
0.0524533
0.0590855
0.0666338
0.0745511
0.0832013
0.0924302
0.102158
0.111874
0.12057
0.126559
0.127758
0.122457
0.110421
0.0935385
0.0754193
0.0599458
0.0496179
0.044634
0.0433299
0.0433922
0.0429256
0.0409136
0.0368927
0.030438
0.0208981
0.0073851
-0.0110871
-0.0354953
-0.0670235
-0.107597
-0.156288
-0.249544
-0.404774
-0.0307893
-0.930924
-0.670994
-0.825005
-1.09187
-1.33073
-1.55853
-1.73809
-1.83435
-1.83575
-1.75052
-1.57805
-1.33441
-1.03526
-0.693276
-0.325244
0.0524147
0.427776
0.791378
1.12454
1.4043
1.61163
1.75311
1.8282
1.83848
1.77587
1.64712
1.44916
1.20794
0.937378
0.673087
0.444199
0.232135
0.29616
0.391523
0.36543
0.544632
0.309236
1.28078
0.0074033
0.0314657
0.0361737
0.0517666
0.0580093
0.0697043
0.078757
0.0905142
0.102038
0.115114
0.128835
0.143812
0.159794
0.176706
0.193875
0.21009
0.223434
0.23171
0.233218
0.22765
0.21637
0.201791
0.186215
0.170955
0.156047
0.140745
0.12428
0.106369
0.0872752
0.0671399
0.0453607
0.0205093
-0.009359
-0.0462745
-0.0920275
-0.148063
-0.215959
-0.295225
-0.440786
-0.680011
-0.00279831
-1.00566
-0.708647
-0.898447
-1.22236
-1.50962
-1.78215
-1.99488
-2.10462
-2.09877
-1.98866
-1.77306
-1.47114
-1.10142
-0.681381
-0.232279
0.225792
0.675821
1.1038
1.48624
1.7995
2.03004
2.18709
2.26942
2.27769
2.20018
2.04311
1.80126
1.50759
1.17791
0.861955
0.604658
0.392086
0.49449
0.673735
0.622698
0.922829
0.529997
1.57879
0.00932923
0.0430698
0.0495088
0.0713272
0.079939
0.0962057
0.10877
0.125093
0.141082
0.159209
0.178218
0.198957
0.221079
0.244446
0.26803
0.289938
0.307178
0.316313
0.314668
0.30181
0.28021
0.254366
0.22878
0.206184
0.186796
0.1691
0.151251
0.132072
0.111252
0.0884444
0.0624552
0.0311652
-0.00808087
-0.0579551
-0.120779
-0.198407
-0.292574
-0.400526
-0.571072
-0.848684
-0.08031
-1.26459
-0.868955
-1.06193
-1.46719
-1.82475
-2.16005
-2.42182
-2.55493
-2.54504
-2.4072
-2.13953
-1.76552
-1.30838
-0.79053
-0.237633
0.325273
0.876533
1.39902
1.8653
2.24711
2.52819
2.71975
2.82068
2.83162
2.73764
2.54563
2.24797
1.88711
1.48111
1.09656
0.785261
0.556437
0.688274
0.929205
0.874078
1.26928
0.764473
1.83621
0.0108946
0.0549177
0.0630224
0.0912934
0.102362
0.123339
0.139555
0.16059
0.1812
0.204536
0.229002
0.25567
0.284059
0.313885
0.343634
0.370684
0.391242
0.401422
0.398812
0.384002
0.360632
0.333608
0.306793
0.28182
0.258056
0.233781
0.207583
0.179053
0.148604
0.116149
0.0801544
0.0377288
-0.0147138
-0.0806918
-0.163134
-0.264084
-0.384734
-0.520041
-0.709281
-1.02215
-0.315166
-1.50901
-1.0404
-1.22434
-1.72131
-2.15715
-2.56137
-2.87758
-3.03595
-3.02049
-2.85073
-2.52446
-2.06996
-1.51493
-0.887695
-0.219492
0.459236
1.12144
1.74553
2.29863
2.74836
3.07989
3.30647
3.4265
3.44011
3.3282
3.09796
2.73933
2.30407
1.81448
1.35287
0.984491
0.728773
0.88478
1.19254
1.13278
1.62131
1.01968
2.16707
0.0118547
0.0664843
0.0758844
0.110628
0.123981
0.149576
0.169345
0.194985
0.220109
0.248525
0.278297
0.310693
0.345036
0.380745
0.415636
0.446236
0.468011
0.47687
0.470998
0.452144
0.424918
0.394502
0.364488
0.336134
0.308484
0.279672
0.248367
0.214401
0.178385
0.140059
0.0972657
0.0462327
-0.0175042
-0.0981398
-0.198987
-0.322152
-0.468175
-0.628365
-0.825668
-1.17155
-0.703728
-1.66775
-1.20538
-1.36618
-1.95604
-2.46915
-2.9386
-3.3067
-3.48729
-3.46438
-3.26246
-2.87884
-2.34663
-1.69772
-0.966322
-0.188723
0.59937
1.36578
2.08477
2.71838
3.23055
3.60899
3.86843
4.00684
4.02366
3.89556
3.62964
3.21331
2.70729
2.13874
1.60446
1.18569
0.908433
1.08263
1.4502
1.3941
1.96498
1.29211
2.5097
0.0122784
0.0781542
0.0884852
0.129842
0.14538
0.175595
0.198918
0.229165
0.258814
0.292301
0.32735
0.365361
0.405338
0.446217
0.485011
0.517483
0.538781
0.545361
0.5368
0.516266
0.48885
0.459105
0.429434
0.400037
0.369337
0.335443
0.297517
0.25615
0.212589
0.166642
0.11559
0.0547364
-0.0213065
-0.117383
-0.237073
-0.382409
-0.553095
-0.736544
-0.940403
-1.32308
-1.19398
-1.66978
-1.37989
-1.50611
-2.19482
-2.7901
-3.32504
-3.74652
-3.94894
-3.9176
-3.68251
-3.24068
-2.63014
-1.88716
-1.05191
-0.165303
0.731539
1.60161
2.41539
3.13041
3.7066
4.134
4.42813
4.58661
4.60827
4.46547
4.16503
3.6917
3.11516
2.46824
1.86159
1.39305
1.09671
1.28384
1.70934
1.6609
2.30826
1.57383
2.85344
0.0120705
0.0898902
0.100655
0.148737
0.166284
0.201071
0.227897
0.262702
0.29683
0.33531
0.375495
0.418811
0.463763
0.508625
0.549598
0.581955
0.601094
0.604728
0.59407
0.573176
0.546818
0.518454
0.489304
0.458797
0.425036
0.386292
0.342296
0.29439
0.244375
0.191972
0.133716
0.0638677
-0.0238699
-0.134833
-0.272633
-0.439078
-0.633047
-0.838232
-1.04976
-1.45948
-1.64621
-1.48457
-1.56837
-1.64571
-2.43727
-3.12183
-3.72307
-4.20027
-4.42472
-4.38388
-4.11398
-3.61199
-2.92108
-2.08197
-1.14108
-0.143746
0.863262
1.83821
2.7479
3.54542
4.18651
4.6646
4.99507
5.17527
5.20332
5.04699
4.71255
4.18189
3.53367
2.80748
2.12709
1.60897
1.2937
1.48899
1.96781
1.93269
2.64951
1.87772
3.2249
0.0111974
0.101851
0.112482
0.167441
0.186809
0.226134
0.256429
0.295761
0.334342
0.377732
0.422848
0.470963
0.51989
0.567161
0.608353
0.638731
0.654738
0.65593
0.644944
0.625991
0.602921
0.577807
0.550583
0.519868
0.483418
0.439725
0.38925
0.334307
0.277437
0.218322
0.152687
0.0736777
-0.0258888
-0.151694
-0.307175
-0.493806
-0.709762
-0.9359
-1.15895
-1.57598
-1.95046
-1.27803
-1.79242
-1.79128
-2.68022
-3.46209
-4.12944
-4.66349
-4.90935
-4.85745
-4.55085
-3.98687
-3.21387
-2.27723
-1.22981
-0.121099
0.996283
2.07604
3.08137
3.96112
4.66688
5.19615
5.56405
5.76732
5.80334
5.63493
5.26743
4.67963
3.95919
3.15354
2.3988
1.83251
1.49949
1.6988
2.2272
2.21016
2.9908
2.20204
3.58163
0.00957571
0.114107
0.123935
0.185928
0.206895
0.250703
0.284423
0.328236
0.371216
0.419353
0.469002
0.521063
0.572525
0.620282
0.659652
0.686622
0.699459
0.699572
0.690251
0.67508
0.656626
0.635555
0.610631
0.579812
0.540612
0.49185
0.434828
0.372973
0.309626
0.244345
0.171871
0.0841209
-0.026924
-0.167096
-0.339442
-0.545012
-0.781487
-1.02813
-1.26712
-1.67823
-2.12837
-1.28123
-1.99474
-1.94694
-2.9232
-3.81354
-4.54755
-5.13921
-5.40542
-5.34076
-4.99533
-4.36727
-3.51018
-2.47438
-1.31942
-0.0985754
1.12943
2.31392
3.41466
4.37654
5.14728
5.72791
6.13452
6.36242
6.40819
6.22936
5.82988
5.18516
4.39182
3.5064
2.67666
2.0633
1.71375
1.91358
2.48715
2.4933
3.33255
2.54678
3.93616
0.00712281
0.126779
0.135036
0.204242
0.226558
0.274792
0.311896
0.360136
0.407423
0.460013
0.513515
0.56826
0.620458
0.666627
0.702428
0.725479
0.736211
0.737239
0.731632
0.721894
0.709254
0.693063
0.671002
0.640403
0.59852
0.544528
0.480698
0.411763
0.342004
0.270797
0.191729
0.0953942
-0.0269777
-0.181169
-0.369675
-0.593084
-0.84882
-1.11595
-1.37582
-1.78309
-2.26502
-1.57889
-1.9971
-2.11283
-3.1667
-4.17814
-4.98077
-5.63069
-5.91561
-5.83619
-5.44955
-4.75498
-3.81134
-2.67432
-1.41035
-0.0762081
1.26302
2.55247
3.74859
4.79256
5.6285
6.26067
6.70748
6.96173
7.01922
6.83173
6.40137
5.6997
4.8325
3.86656
2.96079
2.30104
1.93589
2.13346
2.74791
2.78208
3.67584
2.92415
4.29555
0.00372853
0.139974
0.145786
0.222392
0.245782
0.298366
0.338808
0.391387
0.442796
0.499305
0.555589
0.611366
0.662273
0.704892
0.736131
0.755905
0.766375
0.770398
0.770195
0.767055
0.760981
0.750134
0.731193
0.700892
0.656215
0.596741
0.525853
0.449819
0.373962
0.297334
0.212114
0.107463
-0.0260071
-0.193808
-0.397771
-0.638043
-0.912005
-1.19973
-1.48438
-1.8963
-2.38521
-1.96484
-1.75659
-2.32654
-3.41864
-4.55702
-5.43156
-6.14053
-6.44172
-6.34486
-5.91428
-5.15055
-4.11751
-2.87693
-1.50225
-0.0534689
1.39766
2.79231
4.0837
5.20957
6.11072
6.7945
7.28284
7.56521
7.63654
7.4423
6.98222
6.22349
5.28123
4.23375
3.25075
2.54502
2.16505
2.35851
3.00926
3.07601
4.02119
3.32025
4.65976
-0.000736008
0.15382
0.156195
0.240402
0.264563
0.321409
0.365131
0.421894
0.477059
0.536602
0.594199
0.649097
0.69667
0.734335
0.761188
0.779325
0.791649
0.800472
0.806942
0.81123
0.812285
0.80719
0.79164
0.761751
0.714172
0.648919
0.570671
0.487507
0.405898
0.324341
0.233286
0.12039
-0.0241269
-0.205262
-0.42415
-0.68061
-0.972156
-1.28068
-1.59253
-2.01658
-2.49306
-2.23561
-1.5552
-2.61669
-3.69285
-4.9506
-5.90223
-6.67183
-6.98626
-6.86837
-6.39059
-5.55482
-4.42921
-3.08239
-1.59508
-0.030129
1.53368
3.03378
4.42027
5.62772
6.59423
7.3298
7.8604
8.17271
8.26017
8.06124
7.57272
6.75667
5.73795
4.60761
3.54601
2.79437
2.40025
2.5886
3.27107
3.37449
4.36932
3.74025
5.05139
-0.0064284
0.168455
0.166272
0.258284
0.282888
0.34388
0.390788
0.451445
0.509703
0.570991
0.628145
0.680145
0.722676
0.755061
0.778877
0.797476
0.81355
0.82852
0.842517
0.854774
0.863355
0.864316
0.852354
0.82291
0.772222
0.700805
0.614879
0.524673
0.437844
0.351941
0.255261
0.133993
-0.0216569
-0.21591
-0.449296
-0.721521
-1.03041
-1.36011
-1.70049
-2.14207
-2.60827
-2.44978
-1.68525
-2.83579
-3.99729
-5.35859
-6.39481
-7.22778
-7.5523
-7.40886
-6.87982
-5.96882
-4.74707
-3.29104
-1.68888
-0.00599374
1.67141
3.27727
4.75867
6.04728
7.07929
7.86661
8.43984
8.78418
8.89024
8.68886
8.17325
7.29948
6.20265
4.98776
3.84601
3.0481
2.6403
2.82307
3.53297
3.67664
4.72026
4.17428
5.46385
-0.0135371
0.184036
0.176031
0.27605
0.300745
0.365721
0.415638
0.479653
0.539953
0.601379
0.65619
0.703406
0.740077
0.768164
0.790987
0.812033
0.833291
0.855311
0.877384
0.897995
0.914443
0.921763
0.913592
0.884611
0.830554
0.752524
0.658609
0.561588
0.470229
0.380481
0.27804
0.147925
-0.019087
-0.226272
-0.473804
-0.761597
-1.08799
-1.43954
-1.8095
-2.27277
-2.74427
-2.69202
-2.13887
-2.79983
-4.34869
-5.78465
-6.91127
-7.81131
-8.1431
-7.96881
-7.38343
-6.39353
-5.07168
-3.50315
-1.78361
0.0192067
1.81126
3.52324
5.09931
6.46855
7.56601
8.40527
9.02161
9.39957
9.52682
9.32538
8.78414
7.85206
6.6752
5.37369
4.15005
3.30492
2.88375
3.06055
3.79445
3.98151
5.07401
4.61001
5.87145
-0.0222889
0.200739
0.185491
0.293704
0.318103
0.386821
0.439397
0.505871
0.566819
0.626616
0.677166
0.718335
0.749676
0.775401
0.799304
0.824321
0.851711
0.881341
0.911851
0.94112
0.965765
0.97975
0.975566
0.947023
0.889245
0.804067
0.701899
0.598522
0.503479
0.410128
0.301281
0.161565
-0.0170111
-0.236848
-0.498181
-0.801476
-1.1458
-1.52025
-1.92097
-2.40917
-2.90001
-2.95361
-2.60482
-2.5991
-4.79781
-6.24168
-7.45339
-8.42503
-8.76178
-8.55107
-7.9032
-6.83002
-5.40363
-3.719
-1.87924
0.0457503
1.95364
3.77215
5.44258
6.89179
8.05449
8.94628
9.60607
10.0184
10.1698
9.97094
9.40564
8.41446
7.15536
5.76479
4.45734
3.56348
3.12897
3.29986
4.05489
4.28811
5.43076
5.05872
6.30892
-0.0329569
0.218767
0.194675
0.311239
0.334902
0.406966
0.461559
0.529213
0.589244
0.645558
0.690246
0.725366
0.75313
0.778662
0.805281
0.835269
0.869356
0.906945
0.946168
0.984395
1.0176
1.03859
1.0386
1.01043
0.948487
0.855553
0.744977
0.636007
0.53813
0.440809
0.324316
0.174186
-0.015938
-0.247997
-0.522767
-0.841582
-1.20449
-1.60317
-2.03625
-2.55278
-3.07262
-3.22358
-2.97714
-2.54958
-5.36408
-6.74754
-8.02248
-9.07119
-9.4111
-9.1586
-8.44135
-7.27956
-5.7435
-3.93888
-1.97577
0.073915
2.09898
4.02449
5.78893
7.31728
8.54484
9.48953
10.1933
10.6409
10.8192
10.6256
10.038
8.98667
7.64282
6.16034
4.76702
3.82326
3.37452
3.541
4.31376
4.59526
5.79001
5.51238
6.78207
-0.0458728
0.238353
0.203607
0.32862
0.351011
0.425763
0.481361
0.548699
0.606169
0.657187
0.695429
0.725948
0.752397
0.779527
0.809933
0.845462
0.886573
0.932376
0.980578
1.02809
1.07027
1.09866
1.10308
1.07516
1.00848
0.907095
0.788167
0.674716
0.5745
0.471908
0.346186
0.185152
-0.0161462
-0.25984
-0.547667
-0.882078
-1.26433
-1.68883
-2.15634
-2.70545
-3.2625
-3.51007
-3.37235
-2.90773
-5.95307
-7.31491
-8.61899
-9.75213
-10.0936
-9.79428
-9.00039
-7.74377
-6.09201
-4.1631
-2.07317
0.103993
2.24774
4.28075
6.13877
7.74532
9.03714
10.0349
10.7839
11.2676
11.4746
11.2895
10.6812
9.56859
8.13715
6.55952
5.07808
4.08364
3.6198
3.78394
4.57075
4.90184
6.15115
5.963
7.25071
-0.0614474
0.259763
0.212311
0.345768
0.366164
0.442567
0.4979
0.563389
0.616522
0.661055
0.693832
0.722064
0.749196
0.779109
0.813894
0.855261
0.903612
0.957875
1.01536
1.07256
1.12421
1.16042
1.16947
1.1416
1.06943
0.958835
0.831986
0.715396
0.612364
0.502264
0.365971
0.194162
-0.0175802
-0.272212
-0.572722
-0.922875
-1.32539
-1.77745
-2.28182
-2.8685
-3.47076
-3.82034
-3.85433
-3.69471
-6.42979
-7.94756
-9.24355
-10.4698
-10.8113
-10.4604
-9.58301
-8.22461
-6.44998
-4.39196
-2.17142
0.13629
2.40039
4.5415
6.49259
8.17619
9.53147
10.5824
11.3777
11.8982
12.1358
11.9624
11.3355
10.1601
8.63779
6.96136
5.38941
4.34342
3.8645
4.02767
4.82555
5.20674
6.51368
6.41912
7.73997
-0.0802046
0.283303
0.220788
0.362505
0.379878
0.456539
0.510343
0.572297
0.61947
0.657805
0.687376
0.715579
0.744753
0.778096
0.817537
0.864909
0.920705
0.983723
1.05087
1.11822
1.17991
1.22444
1.23835
1.21019
1.1315
1.0109
0.877157
0.758472
0.650595
0.530459
0.383149
0.201366
-0.0198465
-0.284673
-0.597526
-0.963663
-1.38749
-1.869
-2.41287
-3.0424
-3.69761
-4.15632
-4.41084
-4.69479
-6.68523
-8.64847
-9.89966
-11.2263
-11.5671
-11.1586
-10.1916
-8.72437
-6.81854
-4.62586
-2.27049
0.171124
2.55744
4.80729
6.85087
8.6102
10.0279
11.1318
11.9745
12.5332
12.8031
12.6444
12.0009
10.7608
9.14408
7.36474
5.69979
4.60153
4.10798
4.27102
5.07776
5.50891
6.8766
6.87558
8.25903
-0.102838
0.309321
0.22898
0.37848
0.391424
0.466887
0.517907
0.574384
0.615063
0.64916
0.678076
0.707863
0.739825
0.776883
0.821101
0.874622
0.938115
1.01026
1.08753
1.16558
1.238
1.29139
1.31036
1.2813
1.19465
1.06346
0.92452
0.803432
0.687254
0.555428
0.397828
0.207343
-0.0222557
-0.296545
-0.621481
-1.00396
-1.45028
-1.96322
-2.54935
-3.22693
-3.94255
-4.51713
-5.00273
-5.65692
-6.74946
-9.44632
-10.5983
-12.022
-12.364
-11.8908
-10.8282
-9.2454
-7.19908
-4.86528
-2.37035
0.208833
2.71941
5.07874
7.21413
9.04768
10.5265
11.6829
12.5741
13.1729
13.4773
13.3353
12.6772
11.3704
9.65517
7.76841
6.00783
4.8567
4.34942
4.51288
5.32685
5.80737
7.23902
7.3356
8.75751
-0.130299
0.338188
0.236699
0.393087
0.400015
0.472994
0.519596
0.569082
0.60461
0.637248
0.667487
0.699756
0.734833
0.775707
0.824789
0.884647
0.956169
1.03791
1.12585
1.21527
1.29921
1.36207
1.38618
1.35514
1.25852
1.11689
0.974507
0.848327
0.72031
0.576956
0.410714
0.212992
-0.0239046
-0.306996
-0.643872
-1.04321
-1.5133
-2.0597
-2.69078
-3.42133
-4.20442
-4.90032
-5.59732
-6.43562
-6.8266
-10.3882
-11.3538
-12.8544
-13.2032
-12.6577
-11.4942
-9.78983
-7.59326
-5.11095
-2.471
0.249771
2.88688
5.35649
7.58293
9.48896
11.0272
12.2355
13.1761
13.8169
14.1574
14.0346
13.3644
11.9885
10.1701
8.1709
6.31199
5.10759
4.5879
4.75219
5.57219
6.1012
7.59954
7.79387
9.33401
-0.163911
0.370259
0.243519
0.40555
0.405147
0.474168
0.514388
0.557075
0.59027
0.623857
0.65657
0.69172
0.730018
0.774757
0.828827
0.895285
0.975267
1.06718
1.16645
1.26802
1.3644
1.43735
1.46641
1.43141
1.32247
1.17179
1.02618
0.89011
0.748658
0.595772
0.422916
0.219415
-0.0237757
-0.315138
-0.663974
-1.08082
-1.57605
-2.15788
-2.83652
-3.62454
-4.4818
-5.3037
-6.18733
-7.08626
-7.13702
-11.4832
-12.1881
-13.7272
-14.0906
-13.4611
-12.1903
-10.3594
-8.00276
-5.36381
-2.57252
0.294313
3.06044
5.64123
7.95786
9.93439
11.5301
12.7895
13.7803
14.4649
14.8438
14.7427
14.0621
12.6143
10.6876
8.57054
6.6105
5.35271
4.82239
4.98794
5.81303
6.38963
7.9562
8.24856
9.91088
-0.205471
0.405736
0.248729
0.415223
0.406448
0.469408
0.502107
0.540163
0.574058
0.610124
0.645846
0.683999
0.725557
0.774243
0.833496
0.906908
0.995886
1.09867
1.21005
1.32466
1.43454
1.51814
1.55128
1.50902
1.3859
1.22847
1.07652
0.926034
0.772693
0.613233
0.435727
0.227777
-0.020855
-0.320141
-0.681142
-1.11629
-1.63805
-2.2572
-2.9858
-3.83544
-4.77318
-5.72552
-6.78008
-7.73817
-7.85084
-12.6608
-13.1246
-14.6435
-15.0336
-14.3055
-12.9176
-10.9552
-8.42909
-5.625
-2.67511
0.342838
3.24074
5.93371
8.33955
10.3843
12.0352
13.3444
14.3861
15.1163
15.5369
15.4605
14.77
13.2472
11.2062
8.96542
6.90142
5.59052
5.05183
5.21917
6.04855
6.67194
8.30688
8.70613
10.5473
-0.257217
0.444409
0.251528
0.42172
0.402688
0.457462
0.484171
0.520743
0.557436
0.596638
0.635565
0.676757
0.721641
0.774422
0.839135
0.919953
1.01858
1.13307
1.25747
1.38617
1.51068
1.60518
1.64021
1.58604
1.44876
1.28553
1.12116
0.955217
0.794045
0.630916
0.450457
0.239184
-0.0142536
-0.321339
-0.694893
-1.14922
-1.69887
-2.35708
-3.13789
-4.0529
-5.07696
-6.1634
-7.38015
-8.44737
-9.00356
-13.8537
-14.17
-15.6019
-16.0339
-15.1962
-13.6788
-11.5777
-8.87334
-5.89571
-2.77914
0.395708
3.42845
6.23473
8.72869
10.8392
12.5425
13.8999
14.9932
15.7707
16.2365
16.1882
15.4877
13.8861
11.7243
9.35335
7.18253
5.81933
5.2751
5.44503
6.27791
6.94745
8.64857
9.16228
11.2217
-0.321389
0.48532
0.2514
0.425073
0.393654
0.438575
0.462347
0.500377
0.541017
0.583686
0.625885
0.670163
0.718508
0.77561
0.84614
0.934916
1.04398
1.17116
1.30964
1.45358
1.59388
1.69873
1.73128
1.66035
1.51107
1.33888
1.1567
0.979126
0.814818
0.65033
0.468292
0.254555
-0.00331675
-0.318307
-0.704949
-1.17937
-1.75815
-2.457
-3.29208
-4.27595
-5.39153
-6.6145
-7.98891
-9.23154
-10.529
-14.991
-15.3148
-16.6021
-17.0905
-16.1365
-14.4769
-12.2279
-9.33594
-6.17693
-2.88509
0.453236
3.6243
6.54516
9.12602
11.2994
13.0518
14.4557
15.6009
16.4275
16.9419
16.9255
16.2145
14.5299
12.2399
9.73186
7.45136
6.03734
5.49108
5.66477
6.50031
7.21553
8.97897
9.61852
11.8384
-0.398906
0.52653
0.247826
0.423107
0.374007
0.413096
0.438705
0.480168
0.525194
0.571349
0.616932
0.664432
0.716447
0.77816
0.854947
0.952339
1.07276
1.21378
1.36752
1.52795
1.68495
1.79792
1.82101
1.73075
1.5712
1.38289
1.18296
1.00066
0.836953
0.672761
0.490162
0.274511
0.0123047
-0.310889
-0.711223
-1.20658
-1.81558
-2.55646
-3.44773
-4.50366
-5.71525
-7.07559
-8.60513
-10.0858
-12.2864
-15.9676
-16.5301
-17.6448
-18.2038
-17.1268
-15.3149
-12.9077
-9.81697
-6.46929
-2.99343
0.515685
3.82906
6.86591
9.53235
11.7655
13.5632
15.0112
16.2087
17.0858
17.6524
17.6721
16.9491
15.1771
12.7506
10.0981
7.70509
6.24259
5.69867
5.87775
6.71505
7.47553
9.29595
10.0736
12.4814
-0.486862
0.564816
0.239672
0.414012
0.345345
0.386443
0.413283
0.460277
0.510039
0.559804
0.608916
0.659826
0.715777
0.782451
0.866009
0.972788
1.10565
1.26181
1.43212
1.61029
1.78412
1.89998
1.9054
1.79702
1.62431
1.41383
1.20305
1.02276
0.861951
0.699157
0.516646
0.299318
0.0326451
-0.299157
-0.713756
-1.23076
-1.87089
-2.65501
-3.60423
-4.73512
-6.04636
-7.54317
-9.22507
-10.9826
-14.0617
-16.6795
-17.7711
-18.7308
-19.3741
-18.1677
-16.1943
-13.6185
-10.3167
-6.77288
-3.10445
0.58331
4.04358
7.19801
9.94858
12.2379
14.0766
15.5659
16.8157
17.7449
18.3673
18.4281
17.691
15.826
13.2536
10.4488
7.94058
6.43294
5.89682
6.08348
6.92161
7.72679
9.59657
10.5286
13.1876
-0.575975
0.595991
0.22568
0.395815
0.31482
0.360677
0.38768
0.441544
0.495657
0.549217
0.602073
0.656636
0.716821
0.788855
0.879776
0.996825
1.14334
1.31612
1.50439
1.7013
1.89029
1.99991
1.98187
1.85778
1.66387
1.43275
1.22154
1.04756
0.890812
0.730049
0.547924
0.328898
0.057492
-0.28331
-0.712614
-1.25177
-1.92373
-2.75216
-3.76095
-4.96937
-6.38283
-8.0134
-9.84301
-11.879
-15.6099
-17.0781
-19.0033
-19.8639
-20.6019
-19.2604
-17.116
-14.3613
-10.8354
-7.08738
-3.21809
0.656455
4.26879
7.54263
10.3757
12.7171
14.5919
16.1192
17.4213
18.4041
19.0857
19.1946
18.4401
16.4744
13.7457
10.7802
8.15426
6.60607
6.08456
6.28163
7.11971
7.96876
9.8786
10.9622
13.7125
-0.651008
0.617294
0.201318
0.371693
0.285605
0.334543
0.361708
0.423602
0.482149
0.539847
0.596652
0.655132
0.719879
0.797713
0.896656
1.02497
1.18652
1.37754
1.58512
1.80107
2.0001
2.09175
2.0502
1.90809
1.68621
1.44502
1.24216
1.07625
0.924016
0.765527
0.583813
0.362921
0.0865165
-0.263548
-0.707792
-1.26939
-1.97368
-2.84731
-3.91715
-5.2052
-6.72221
-8.48191
-10.4518
-12.7287
-16.7371
-17.2443
-20.2405
-21.0524
-21.8863
-20.4062
-18.0804
-15.137
-11.3733
-7.41245
-3.33394
0.735668
4.50576
7.90112
10.8148
13.2039
15.1089
16.6704
18.0246
19.0622
19.8068
19.9721
19.1961
17.1198
14.2231
11.088
8.34202
6.75942
6.26101
6.47207
7.3094
8.20131
10.1416
11.3714
14.2513
-0.697043
0.624689
0.168183
0.34591
0.256461
0.309101
0.336463
0.406926
0.469765
0.531902
0.592879
0.655558
0.725205
0.809306
0.916984
1.05765
1.23576
1.44675
1.67483
1.90834
2.10735
2.1716
2.11001
1.9409
1.69401
1.45701
1.26693
1.10927
0.961549
0.805305
0.62389
0.400964
0.119429
-0.239943
-0.699123
-1.28323
-2.02019
-2.93979
-4.07191
-5.44113
-7.0615
-8.94356
-11.0433
-13.5006
-17.4363
-17.4193
-21.5244
-22.3104
-23.2244
-21.6048
-19.0881
-15.9458
-11.9303
-7.74777
-3.4513
0.821752
4.75578
8.2751
11.2673
13.699
15.6275
17.2188
18.6246
19.7183
20.5291
20.7604
19.9571
17.7589
14.6812
11.3671
8.49914
6.89016
6.42543
6.65488
7.49118
8.42481
10.3851
11.7524
14.7523
-0.705092
0.606034
0.138342
0.31822
0.227411
0.284497
0.31204
0.391566
0.458696
0.525607
0.590952
0.658105
0.732986
0.823829
0.940991
1.09519
1.29152
1.52429
1.77345
2.01951
2.20441
2.23955
2.15699
1.95265
1.69506
1.47302
1.29637
1.14648
1.00301
0.84889
0.667678
0.44269
0.156115
-0.212364
-0.686244
-1.29275
-2.06257
-3.02874
-4.22413
-5.67526
-7.39696
-9.39221
-11.6091
-14.1918
-17.8948
-17.8561
-22.857
-23.6583
-24.6127
-22.8533
-20.1395
-16.7873
-12.5059
-8.09277
-3.56927
0.915728
5.02032
8.66649
11.7347
14.2032
16.1476
17.7636
19.2203
20.3711
21.2516
21.5597
20.7209
18.3879
15.1146
11.6115
8.62005
6.99512
6.57724
6.83043
7.6661
8.64028
10.6096
12.1076
15.1412
-0.67594
0.560984
0.114832
0.288491
0.199344
0.26083
0.289302
0.377837
0.449177
0.521144
0.591028
0.662913
0.743336
0.841383
0.968793
1.13777
1.35411
1.61046
1.87979
2.12775
2.28612
2.297
2.18375
1.94742
1.69745
1.49449
1.33014
1.18732
1.04784
0.895779
0.714831
0.48798
0.196709
-0.180434
-0.668579
-1.29721
-2.09994
-3.11315
-4.37242
-5.9052
-7.72399
-9.82083
-12.142
-14.816
-18.3094
-18.7735
-24.1413
-25.1111
-26.0503
-24.1473
-21.2344
-17.6609
-13.0998
-8.44661
-3.68675
1.01875
5.30107
9.07751
12.2191
14.7175
16.669
18.3038
19.8105
21.0195
21.9727
22.3698
21.4847
19.0015
15.5165
11.8139
8.69815
7.07071
6.71597
6.99935
7.83586
8.84936
10.8173
12.4572
15.384
-0.622091
0.508361
0.0943038
0.25776
0.172587
0.237697
0.26882
0.365886
0.44145
0.518688
0.593241
0.670074
0.756302
0.861974
1.00039
1.18546
1.4237
1.70516
1.99042
2.22421
2.35307
2.34098
2.18615
1.93513
1.70566
1.52098
1.3675
1.23114
1.09552
0.945652
0.765265
0.537003
0.241617
-0.143549
-0.645372
-1.29573
-2.13133
-3.19183
-4.51511
-6.12803
-8.03711
-10.2224
-12.6367
-15.3887
-18.7849
-20.2046
-25.2274
-26.6698
-27.5417
-25.4827
-22.3719
-18.5658
-13.7117
-8.80835
-3.80258
1.13211
5.59982
9.51062
12.7229
15.2434
17.1916
18.8386
20.3941
21.662
22.6907
23.1907
22.2446
19.593
15.879
11.9654
8.72524
7.11287
6.84151
7.16298
8.00309
9.05404
11.0097
12.7889
15.548
-0.559836
0.457619
0.0757352
0.227023
0.147478
0.214472
0.251345
0.355872
0.43577
0.518401
0.597714
0.679652
0.771873
0.88552
1.03565
1.23817
1.5003
1.80743
2.0986
2.3024
2.40898
2.36345
2.16874
1.92531
1.72031
1.55142
1.40764
1.2774
1.14578
0.998488
0.819204
0.590212
0.29148
-0.10092
-0.615714
-1.28732
-2.15559
-3.26342
-4.65028
-6.3402
-8.33027
-10.5913
-13.0914
-15.9251
-19.3484
-21.9104
-25.911
-28.3284
-29.0988
-26.858
-23.551
-19.5006
-14.3409
-9.17715
-3.91549
1.25724
5.91837
9.96848
13.2488
15.7824
17.7155
19.3669
20.9697
22.2971
23.4041
24.0225
22.9956
20.1537
16.1919
12.0549
8.6913
7.11642
6.95361
7.32225
8.17139
9.25703
11.1872
13.0752
15.5817
-0.497816
0.407469
0.0596003
0.196973
0.124541
0.189743
0.237463
0.348012
0.432437
0.520467
0.604573
0.691685
0.789985
0.911854
1.07435
1.29569
1.58365
1.91453
2.19479
2.36315
2.45298
2.35835
2.14298
1.92261
1.74005
1.58478
1.44995
1.32586
1.19868
1.05459
0.877163
0.648293
0.347123
-0.0516177
-0.578591
-1.27086
-2.17153
-3.32651
-4.77578
-6.53755
-8.59778
-10.9252
-13.5089
-16.4367
-19.9638
-23.4604
-26.1599
-30.1285
-30.7471
-28.2745
-24.7708
-20.4638
-14.9863
-9.55224
-4.0242
1.39579
6.25858
10.4537
13.8
16.3366
18.2405
19.8875
21.5359
22.9233
24.1108
24.8651
23.731
20.6719
16.4428
12.0667
8.58297
7.07618
7.05276
7.47834
8.34624
9.46194
11.349
13.3201
15.48
-0.437311
0.35746
0.0459662
0.168407
0.104823
0.163053
0.227477
0.342483
0.431754
0.525075
0.613941
0.706181
0.810514
0.940713
1.11613
1.35766
1.67297
2.02053
2.27105
2.4128
2.47644
2.32914
2.12
1.92688
1.76341
1.62029
1.4942
1.37668
1.25463
1.11455
0.93988
0.712099
0.409479
0.00535998
-0.532937
-1.24523
-2.17794
-3.3797
-4.8892
-6.71549
-8.83588
-11.2256
-13.8948
-16.9302
-20.5743
-24.5274
-26.3324
-32.1837
-32.5314
-29.7356
-26.0316
-21.4532
-15.6465
-9.93279
-4.12741
1.54952
6.62247
10.9691
14.3796
16.9083
18.7669
20.3994
22.0913
23.5389
24.8089
25.7183
24.4414
21.1315
16.6111
11.9809
8.38207
6.98252
7.13833
7.63317
8.53294
9.67235
11.4916
13.4826
15.3408
-0.378806
0.308622