/*--------------------------------*- C++ -*----------------------------------*\
| =========                 |                                                 |
| \\      /  F ield         | OpenFOAM: The Open Source CFD Toolbox           |
|  \\    /   O peration     | Version:  4.1                                   |
|   \\  /    A nd           | Web:      www.OpenFOAM.org                      |
|    \\/     M anipulation  |                                                 |
\*---------------------------------------------------------------------------*/
FoamFile
{
    version     2.0;
    format      ascii;
    class       surfaceScalarField;
    location    "22";
    object      phi;
}
// * * * * * * * * * * * * * * * * * * * * * * * * * * * * * * * * * * * * * //

dimensions      [0 3 -1 0 0 0 0];

internalField   nonuniform List<scalar> 
13220
(
-777.531
2077.43
-1201.82
1724.49
-1637.68
1735.76
-1951.04
1613.27
-2202.99
1552.15
-2376.69
1473.61
-2481.42
1404.63
-2516.89
1335.66
-2486.35
1269.36
-2386.29
1199.84
-2209.54
1123.45
-1941
1031.36
-1541.18
900.074
-938.4
697.426
361.5
-217.317
2294.75
-490.767
1997.94
-784.662
2029.65
-1029.17
1857.77
-1266.19
1789.17
-1466.73
1674.15
-1646.7
1584.61
-1798.59
1487.55
-1913.21
1383.98
-1946.09
1232.71
-1806.53
983.888
-1417.26
642.098
-869.477
352.291
-359.141
187.091
2.35946
-215.701
2510.45
-460.002
2242.24
-656.799
2226.45
-804.27
2005.24
-944.216
1929.11
-1046.3
1776.24
-1137.26
1675.56
-1208.68
1558.98
-1260.75
1436.05
-1265.76
1237.73
-1166.99
885.121
-908.59
383.702
-606.915
50.6235
-262.072
-157.741
-259.712
5.60334
2504.85
-69.361
2317.21
-90.7889
2247.88
-90.5042
2004.96
-86.655
1925.27
-60.9276
1750.51
-25.2986
1639.93
26.7557
1506.93
82.1294
1380.68
110.841
1209.02
55.896
940.068
-102.771
542.374
-205.454
153.312
-230.963
-132.228
-490.676
142.429
2362.42
115.205
2344.43
170.055
2193.03
234.483
1940.53
309.657
1850.09
391.815
1668.36
485.632
1546.12
590.665
1401.9
702.403
1268.94
788.564
1122.85
787.699
940.934
624.001
706.075
344.075
433.244
106.538
105.315
-384.137
161.055
2201.37
156.406
2349.08
210.907
2138.53
273.278
1878.16
347.55
1775.82
416.773
1599.13
493.041
1469.85
568.636
1326.3
643.841
1193.74
704.558
1062.14
723.103
922.389
661.404
767.769
517.238
577.404
286.233
336.31
-97.9039
119.312
2082.06
158.898
2309.49
215.653
2081.78
280.697
1813.12
355.641
1700.88
420.924
1533.85
482.361
1408.41
535.277
1273.39
581.251
1147.76
617.773
1025.62
630.911
909.25
594.629
804.054
480.56
691.476
271.298
545.579
173.393
53.0992
2028.96
131.282
2231.31
206.746
2006.31
280.36
1739.5
359.504
1621.73
450.306
1443.05
551.726
1306.99
666.94
1158.17
778.374
1036.33
866.594
937.396
897.899
877.945
838.538
863.411
658.944
871.065
373.276
831.24
546.67
-50.8877
2079.84
15.5756
2164.85
52.8879
1969
44.6214
1747.77
47.3708
1618.98
90.5541
1399.87
203.961
1193.59
379.552
982.58
591.811
824.067
797.374
731.833
918.631
756.688
885.809
896.236
679.415
1077.46
357.654
1153
904.324
-209.818
2289.66
-314.505
2269.54
-440.599
2095.1
-636.759
1943.93
-828.857
1811.08
-992.805
1563.81
-1090.24
1291.02
-1126.78
1019.12
-1091.98
789.268
-967.86
607.713
-742.768
531.596
-445.778
599.243
-167.093
798.773
-15.4129
1001.32
888.911
-56.5882
2346.25
-330.609
2543.56
-555.715
2320.2
-775.209
2163.42
-1008.48
2044.35
-1266.7
1822.03
-1540.92
1565.24
-1813.15
1291.35
-2054.21
1030.33
-2207.22
760.721
-2175.35
499.728
-1861.93
285.819
-1254.49
191.337
-519.583
266.41
369.328
380.158
1966.09
247.429
2676.28
68.5878
2499.04
-27.2252
2259.23
-84.3223
2101.45
-166.482
1904.19
-289.72
1688.47
-448.64
1450.27
-627.406
1209.09
-820.27
953.583
-1002
681.451
-1105.36
389.177
-1009.62
95.5879
-642.917
-100.295
-273.589
666.235
1299.85
864.347
2478.17
857.33
2506.06
922.497
2194.07
1071.12
1952.83
1209.33
1765.97
1297.09
1600.71
1317.96
1429.4
1274.98
1252.06
1161.01
1067.56
966.985
875.47
680.382
675.78
323.379
452.589
22.291
200.79
-251.298
587.302
712.55
866.255
2199.22
879.197
2493.11
822.243
2251.02
824.279
1950.79
879.617
1710.63
954.961
1525.36
1020.34
1364.03
1059.29
1213.11
1055.28
1071.57
998.446
932.306
883.244
790.981
689.977
645.856
412.833
477.931
161.535
308.413
1224.84
2037.94
2598.42
2799.15
2828.96
2771.54
2628.96
2396.57
2141.22
1844.29
1488.33
1092.27
612.048
4.08545e-06
345.468
-345.468
345.468
345.468
345.468
833.697
-488.229
833.697
833.697
833.697
1250.21
-416.517
1250.21
1250.21
1553.24
-303.022
1553.24
1553.24
1553.24
1748.55
-195.315
1748.55
1748.55
1839.84
-91.2903
1839.84
1839.84
1839.84
1831.96
7.88197
1831.96
1831.96
1831.96
1749
82.9578
1749
1749
1612.87
136.132
1612.87
1612.87
1612.87
1441.63
171.241
1441.63
1441.63
1251.71
189.919
1251.71
1251.71
1251.71
1109.45
142.255
1109.45
1109.45
1109.45
1068.39
41.0608
1068.39
1068.39
946.755
121.638
946.755
946.755
946.755
711.721
235.035
711.721
711.721
711.721
376.375
335.345
376.375
376.375
41.286
335.089
41.286
41.2861
41.286
-632.845
674.131
-632.845
-632.845
-1859.69
1226.85
-1859.69
-1859.69
-1859.69
-3456.1
1596.4
-3456.1
-3456.1
-3456.1
-5365.19
1909.1
-5365.19
-5365.19
-7545.01
2179.82
-7545.01
-7545.01
-7400.12
-7257.27
-7113.75
-9360.11
2387.47
-9208.43
-9037.97
-8857.3
-8677.36
-8497.56
-8317.9
-8135.34
-7942.91
-10221.4
2466.25
-10021.6
-9820.98
-9619.99
-9405.76
-9190.36
-8974.24
-8758.12
-8541.34
-10837.3
2513.36
-10606.9
-10376.1
-10144.1
-9910.94
-9671.94
-9423.22
-9173.36
-8921.47
-8668.01
-10927.9
2503
-10661.4
-10392
-10120.5
-9847.85
-9574.39
-9289.56
-8999.04
-8709.61
-10698.9
2262.74
-10420.4
-10136.9
-9841.34
-9545.8
-9248.95
-8951.58
-8652.05
-8328.34
-9877.11
1861.24
-9563.37
-9249.84
-8936.77
-8604.52
-8266.04
-7932.84
-7604.18
-7282.76
-8007.08
1045.28
-7680.39
-7363.1
-7050.05
-6741.35
-6435.67
-6117.2
-5801.85
-5487.58
-5178.24
-5130.84
273.166
-4857.61
-4604.74
-4357.95
-4119.39
-3889.44
-3713.09
-3636.68
-3561.13
-3182.01
-299.746
-3114.41
-3048.8
-3048.8
-2833.99
-214.813
-2596.19
-237.799
-2596.19
-2389.23
-206.96
-2389.23
-2197.74
-191.492
-2009.08
-188.661
-2009.08
-1822.79
-186.292
-1639.17
-183.615
-1639.17
-1458.1
-181.072
-1458.1
-1282.91
-175.189
-1123.3
-159.608
-1123.3
-971.671
-151.63
-971.671
-829.585
-142.086
-708.522
-121.063
-708.522
-587.179
-121.343
-486.13
-101.049
-486.13
-381.998
-104.132
-381.998
-272.017
-109.981
-180.061
-91.9562
-180.061
-79.6471
-100.414
-79.647
29.963
-109.61
133.493
-103.529
133.493
209.659
-76.166
301.903
-92.2442
301.903
374.815
-72.9125
374.815
432.391
-57.5757
494.949
-62.5579
494.949
547.836
-52.8876
547.836
586.1
-38.2638
623.942
-37.8417
623.942
651.89
-27.9485
681.545
-29.6542
681.545
708.877
-27.3322
708.877
731.936
-23.0595
755.653
-23.7171
755.653
776.437
-20.7838
776.437
793.025
-16.5877
809.964
-16.9388
809.964
826.051
-16.0877
840.609
-14.5573
840.609
857.61
-17.0013
857.61
875.93
-18.3203
896.404
-20.474
896.404
922.876
-26.4717
922.876
950.403
-27.5274
980.311
-29.9074
980.311
1013.59
-33.2765
1052.42
-38.8308
1052.42
1102.74
-50.321
1102.74
-55.2797
-195.491
-726.643
-197.142
-813.097
-199.332
-852.268
-201.944
-899.891
-205.021
-939.215
-208.509
-979.149
-212.414
-1015.99
-216.74
-1052.98
-221.493
-1089.14
-226.689
-1125.79
-232.333
-1162.87
-238.433
-1201.01
-245.019
-1240.36
-252.27
-1280.97
-260.781
-1322.02
-271.99
-1361.34
-288.535
-1394.84
-314.056
-1417.03
-352.017
-1422.9
-403.782
-1410.64
-467.14
-1383.32
-536.492
-1347.8
-604.74
-1311.51
-665.618
-1279.59
-715.168
-1254.17
-751.921
-1235.65
-776.256
-1224.41
-789.567
-1221.49
-793.627
-1227.84
-790.191
-1243.23
-780.784
-1265.71
-766.628
-1291.96
-748.68
-1317.93
-727.724
-1339.15
-704.498
-1350.22
-680.068
-1344.71
-656.4
-1319.88
-633.658
-1283.85
-597.14
-1197.35
-521.395
-781.293
-447.448
235.605
-418.166
928.815
-394.453
1230.14
-370.472
1462.31
-346.576
1713.09
-323.236
1975.9
-300.351
2246.46
-277.684
2521.02
-254.939
2794.17
-231.67
3058.87
-207.749
3307.63
-183.307
3534.48
-158.416
3737.63
-132.697
3917.83
-106.153
4066.15
-79.2895
4175.23
-52.4987
4245.22
-26.5035
4266.08
-2.7111
4209.04
16.7818
4035.3
30.3927
3755.42
39.0795
3470.63
44.2241
3214.43
47.108
2984.93
48.8376
2771.96
50.1071
2556.74
51.2327
2319.03
52.691
2083.31
54.0164
1795.32
55.9619
1534.51
57.3045
1102.8
68.7027
852.282
65.3576
-250.434
55.6825
-1110.79
32.7094
-1722.58
24.9201
-2115.89
7.67498
-2391.07
12.2613
-2612.62
2474.39
-205.199
-726.03
-206.726
-811.57
-209
-849.995
-211.71
-897.181
-214.963
-935.962
-218.672
-975.44
-222.85
-1011.81
-227.496
-1048.33
-232.612
-1084.02
-238.205
-1120.2
-244.271
-1156.8
-250.832
-1194.45
-258.038
-1233.15
-266.475
-1272.53
-277.673
-1310.82
-294.623
-1344.39
-321.705
-1367.76
-363.312
-1375.43
-421.287
-1364.92
-492.712
-1339.21
-570.032
-1306
-643.841
-1274
-706.414
-1248.94
-753.758
-1232.25
-785.523
-1222.41
-803.652
-1217.52
-810.916
-1217.15
-809.948
-1222.45
-802.815
-1234.97
-790.965
-1255.08
-775.372
-1281.3
-756.749
-1310.58
-735.75
-1338.93
-713.121
-1361.77
-689.781
-1373.56
-667.05
-1367.44
-647.226
-1339.71
-631.428
-1299.65
-604.741
-1224.03
-528.024
-858.01
-434.975
142.556
-408.302
902.142
-390.317
1212.15
-366.331
1438.32
-342.507
1689.27
-319.936
1953.33
-297.831
2224.36
-275.915
2499.11
-253.851
2772.1
-231.141
3036.16
-207.679
3284.17
-183.602
3510.4
-158.986
3713.02
-133.468
3892.31
-107.067
4039.75
-80.2999
4148.46
-53.568
4218.48
-27.5935
4240.1
-3.76509
4185.21
15.8317
4015.7
29.6039
3741.65
38.4862
3461.74
43.8662
3209.05
47.0291
2981.77
49.1013
2769.88
50.7676
2555.07
52.3512
2317.45
54.2864
2081.38
56.0888
1793.52
58.5646
1532.04
60.3451
1101.02
74.053
838.574
66.9267
-243.308
54.2312
-1098.1
32.4298
-1700.78
23.4395
-2106.9
8.48473
-2376.12
12.5412
-2616.68
2436.61
-210.606
-725.421
-212.07
-810.106
-214.403
-847.661
-217.173
-894.411
-220.538
-932.597
-224.381
-971.596
-228.726
-1007.46
-233.563
-1043.5
-238.886
-1078.7
-244.698
-1114.39
-250.996
-1150.5
-257.875
-1187.57
-265.759
-1225.27
-275.896
-1262.4
-290.964
-1295.76
-315.265
-1320.09
-353.663
-1329.36
-408.997
-1320.09
-479.34
-1294.58
-557.469
-1261.08
-633.507
-1229.97
-698.891
-1208.61
-748.936
-1198.9
-782.976
-1198.21
-802.951
-1202.43
-811.795
-1208.68
-812.332
-1216.61
-806.766
-1228.02
-796.589
-1245.15
-782.739
-1268.93
-765.853
-1298.19
-746.516
-1329.92
-725.46
-1359.98
-703.666
-1383.57
-682.367
-1394.86
-663.116
-1386.69
-648.174
-1354.65
-638.771
-1309.06
-621.08
-1241.72
-550.134
-928.956
-435.739
28.1608
-395.154
861.557
-382.31
1199.31
-361.161
1417.17
-337.169
1665.28
-315.212
1931.37
-294.165
2203.31
-273.297
2478.24
-252.21
2751.02
-230.349
3014.3
-207.591
3261.41
-184.081
3486.89
-159.898
3688.83
-134.689
3867.1
-108.505
4013.56
-81.8735
4121.83
-55.2067
4191.82
-29.2244
4214.12
-5.3033
4161.29
14.4691
3995.93
28.4735
3727.64
37.624
3452.59
43.318
3203.35
46.8586
2978.23
49.3939
2767.35
51.6184
2552.85
53.8457
2315.22
56.4767
2078.75
58.9709
1791.03
62.1382
1528.87
64.4895
1098.67
77.372
825.691
67.8003
-233.736
54.1831
-1084.48
32.9346
-1679.53
22.8135
-2096.77
9.78266
-2363.08
11.4646
-2618.36
2409.24
-217.09
-724.792
-218.517
-808.679
-220.933
-845.245
-223.788
-891.556
-227.293
-929.092
-231.304
-967.586
-235.851
-1002.92
-240.916
-1038.43
-246.484
-1073.13
-252.553
-1108.32
-259.162
-1143.89
-266.605
-1180.12
-275.864
-1216.01
-289.293
-1248.97
-311.071
-1273.98
-346.542
-1284.62
-399.737
-1276.17
-470.06
-1249.77
-550.808
-1213.83
-631.387
-1180.51
-701.781
-1159.57
-756
-1154.39
-792.711
-1162.18
-813.822
-1177.1
-822.618
-1193.64
-822.436
-1208.86
-815.997
-1223.05
-805.202
-1238.82
-791.198
-1259.15
-774.628
-1285.5
-755.95
-1316.87
-735.733
-1350.13
-714.863
-1380.86
-694.614
-1403.82
-676.534
-1412.94
-662.305
-1400.92
-653.945
-1363.01
-652.438
-1310.56
-644.601
-1249.56
-581.02
-992.536
-447.399
-105.46
-384.21
798.368
-370.54
1185.64
-354.132
1400.76
-331.205
1642.35
-309.513
1909.68
-289.494
2183.29
-269.916
2458.66
-250.058
2731.16
-229.303
2993.55
-207.488
3239.59
-184.742
3464.15
-161.143
3665.23
-136.356
3842.32
-110.463
3987.67
-84.0081
4095.37
-57.4175
4165.23
-31.4137
4188.12
-7.36539
4137.24
12.638
3975.92
26.9499
3713.33
36.4494
3443.09
42.5406
3197.26
46.5506
2974.22
49.6566
2764.24
52.5737
2549.93
55.6065
2312.19
59.1237
2075.23
62.4994
1787.65
66.5489
1524.82
69.5426
1095.67
82.7608
812.473
71.0371
-222.012
55.12
-1068.56
33.7442
-1658.16
22.1876
-2085.22
10.2389
-2351.14
10.47
-2618.59
2386.43
-223.449
-724.114
-224.862
-807.267
-227.372
-842.736
-230.322
-888.605
-233.975
-925.44
-238.16
-963.401
-242.912
-998.164
-248.201
-1033.14
-254.006
-1067.32
-260.338
-1101.98
-267.373
-1136.86
-275.852
-1171.64
-287.753
-1204.11
-306.987
-1229.73
-339.17
-1241.8
-389.456
-1234.33
-458.807
-1206.82
-541.438
-1167.14
-626.283
-1128.99
-701.839
-1104.95
-760.634
-1100.78
-800.537
-1114.49
-823.348
-1139.37
-832.62
-1167.83
-832.072
-1194.18
-824.838
-1216.09
-813.23
-1234.66
-798.739
-1253.31
-782.185
-1275.71
-763.992
-1303.69
-744.561
-1336.3
-724.588
-1370.11
-705.257
-1400.19
-688.214
-1420.86
-675.261
-1425.89
-667.953
-1408.23
-667.592
-1363.37
-674.457
-1303.7
-676.287
-1247.73
-621.061
-1047.76
-470.096
-256.425
-377.69
705.962
-356.727
1164.68
-344.159
1388.2
-324.141
1622.33
-303.091
1888.63
-283.849
2164.05
-265.678
2440.49
-247.317
2712.8
-227.934
2974.16
-207.323
3218.98
-185.567
3442.39
-162.73
3642.4
-138.499
3818.08
-112.988
3962.16
-86.7595
4069.14
-60.2601
4138.73
-34.2183
4162.07
-9.99835
4113.02
10.3019
3955.62
24.9965
3698.64
34.9262
3433.16
41.4997
3190.69
46.073
2969.64
49.8603
2760.46
53.6077
2546.18
57.6102
2308.18
62.2116
2070.63
66.6657
1783.2
71.8256
1519.66
75.5285
1091.97
89.0366
798.965
75.2823
-208.258
56.9229
-1050.2
35.0419
-1636.28
21.7918
-2071.97
10.3298
-2339.67
7.84654
-2616.11
2364.37
-229.965
-723.36
-231.385
-805.846
-234.004
-840.117
-237.065
-885.544
-240.877
-921.627
-245.248
-959.03
-250.214
-993.198
-255.729
-1027.63
-261.773
-1061.28
-268.443
-1095.31
-276.249
-1129.05
-286.79
-1161.1
-303.573
-1187.32
-332.259
-1201.05
-378.971
-1195.08
-446.42
-1166.88
-530.227
-1123.01
-619.255
-1078.11
-700.524
-1047.72
-764.803
-1040.67
-808.886
-1056.69
-834.325
-1089.05
-844.873
-1128.83
-844.543
-1168.16
-836.741
-1201.99
-824.078
-1228.76
-808.424
-1250.31
-790.973
-1270.76
-772.383
-1294.3
-753.052
-1323.02
-733.505
-1355.84
-714.731
-1388.88
-698.311
-1416.61
-686.224
-1432.95
-680.293
-1431.83
-681.478
-1407.04
-689.829
-1355.02
-704.581
-1288.95
-714.886
-1237.43
-668.523
-1094.12
-503.57
-421.379
-377.316
579.708
-342.805
1130.17
-331.232
1376.62
-315.033
1606.14
-295.902
1869.5
-277.433
2145.58
-260.557
2423.61
-243.888
2696.13
-226.138
2956.41
-206.985
3199.83
-186.457
3421.86
-164.579
3620.52
-141.056
3794.56
-116.036
3937.14
-90.0989
4043.21
-63.7167
4112.35
-37.6285
4135.99
-13.1976
4088.59
7.45981
3934.97
22.6053
3683.49
33.0391
3422.73
40.1727
3183.56
45.3944
2964.42
49.961
2755.89
54.6602
2541.48
59.778
2303.07
65.6369
2064.77
71.3455
1777.49
77.7966
1513.21
82.2681
1087.5
95.9833
785.25
80.5823
-192.857
59.6907
-1029.31
36.8252
-1613.41
21.6242
-2056.77
10.157
-2328.21
5.28436
-2611.23
2342.13
-236.587
-722.502
-238.033
-804.4
-240.776
-837.374
-243.962
-882.358
-247.946
-917.644
-252.512
-954.464
-257.692
-988.019
-263.431
-1021.89
-269.752
-1054.96
-276.988
-1088.08
-286.348
-1119.69
-300.859
-1146.59
-325.97
-1162.21
-368.529
-1158.49
-433.042
-1130.57
-517.023
-1082.9
-609.808
-1030.22
-697.08
-990.838
-767.57
-977.227
-816.664
-991.577
-845.508
-1027.85
-858.065
-1076.49
-858.683
-1128.21
-850.978
-1175.86
-837.683
-1215.28
-820.847
-1245.59
-801.994
-1269.17
-782.182
-1290.57
-762.085
-1314.39
-742.259
-1342.85
-723.531
-1374.57
-707.315
-1405.1
-695.6
-1428.32
-690.508
-1438.04
-693.427
-1428.91
-704.129
-1396.34
-720.894
-1338.25
-741.827
-1268.01
-758.424
-1220.83
-721.639
-1130.91
-548.192
-594.827
-384.474
415.99
-330.425
1076.12
-316.266
1362.46
-303.155
1593.03
-287.352
1853.69
-270.345
2128.57
-254.633
2407.9
-239.687
2681.18
-223.81
2940.54
-206.368
3182.39
-187.311
3402.8
-166.607
3599.82
-143.961
3771.92
-119.559
3912.74
-93.9982
4017.65
-67.7752
4086.12
-41.6456
4109.86
-16.9776
4063.92
4.08751
3913.9
19.7465
3667.83
30.7554
3411.72
38.5259
3175.78
44.4781
2958.47
49.9168
2750.45
55.679
2535.72
62.0449
2296.7
69.3149
2057.5
76.4365
1770.37
84.3208
1505.33
89.6251
1082.19
103.615
771.259
86.9306
-176.172
63.3596
-1005.74
39.1321
-1589.18
21.7287
-2039.36
9.91169
-2316.39
3.13359
-2604.45
2318.79
-243.339
-721.513
-244.827
-802.913
-247.711
-834.489
-251.037
-879.033
-255.202
-913.478
-259.969
-949.697
-265.361
-982.627
-271.339
-1015.91
-278.077
-1048.22
-286.452
-1079.7
-298.93
-1107.21
-320.548
-1124.98
-358.528
-1124.23
-419.072
-1097.94
-501.99
-1047.65
-597.768
-987.125
-691.078
-936.912
-768.403
-913.512
-823.303
-922.327
-856.283
-958.598
-871.522
-1012.61
-873.803
-1074.21
-867.018
-1134.99
-853.947
-1188.93
-836.585
-1232.64
-816.514
-1265.66
-795.073
-1290.61
-773.358
-1312.28
-752.261
-1335.49
-732.7
-1362.41
-715.99
-1391.28
-704.041
-1417.04
-699.107
-1433.26
-703.017
-1434.13
-716.092
-1415.83
-736.321
-1376.11
-759.966
-1314.61
-784.249
-1243.73
-804.029
-1201.05
-777.767
-1157.17
-606.558
-766.036
-403.051
212.484
-321.056
994.121
-300.578
1341.99
-288.513
1580.96
-276.597
1841.78
-262.323
2114.3
-248.019
2393.6
-234.704
2667.87
-220.849
2926.68
-205.373
3166.91
-188.03
3385.46
-168.729
3580.51
-147.154
3750.34
-123.517
3889.1
-98.4343
3992.56
-72.4293
4060.12
-46.2774
4083.7
-21.3566
4039
0.158526
3892.39
16.3867
3651.6
28.0389
3400.07
36.523
3167.3
43.2877
2951.71
49.6895
2744.05
56.6217
2528.79
64.3626
2288.96
73.1865
2048.67
81.8697
1761.68
91.3069
1495.89
97.5235
1075.98
111.882
756.901
94.2338
-158.524
67.9149
-979.422
41.9756
-1563.24
22.1288
-2019.52
9.64138
-2303.9
-0.303349
-2594.51
2298.01
-250.23
-720.368
-251.774
-801.369
-254.816
-831.447
-258.295
-875.554
-262.651
-909.123
-267.619
-944.729
-273.226
-977.02
-279.522
-1009.62
-287.073
-1040.67
-297.811
-1068.97
-316.151
-1088.87
-349.339
-1091.79
-404.98
-1068.59
-485.442
-1017.48
-583.1
-949.995
-682.179
-888.045
-766.825
-852.266
-828.297
-852.04
-866.099
-884.526
-884.558
-940.138
-889.018
-1008.15
-883.798
-1079.43
-871.799
-1146.99
-854.892
-1205.84
-834.455
-1253.08
-811.774
-1288.34
-788.174
-1314.21
-764.986
-1335.47
-743.533
-1356.94
-725.316
-1380.63
-712.269
-1404.33
-706.717
-1422.6
-710.778
-1429.2
-725.311
-1419.6
-748.872
-1392.27
-777.335
-1347.65
-805.165
-1286.78
-829.236
-1219.66
-848.484
-1181.8
-832.926
-1172.73
-681.156
-917.806
-440.203
-28.4692
-315.912
869.83
-285.195
1311.27
-271.83
1567.6
-263.058
1833.01
-252.729
2103.97
-240.687
2381.56
-229.014
2656.2
-217.191
2914.86
-203.897
3153.62
-188.52
3370.08
-170.854
3562.85
-150.559
3730.05
-127.856
3866.4
-103.373
3968.08
-77.6622
4034.41
-51.5222
4057.56
-26.3446
4013.82
-4.34729
3870.39
12.498
3634.76
24.8565
3387.71
34.1281
3158.03
41.7858
2944.05
49.2399
2736.59
57.4455
2520.58
66.6837
2279.72
77.1954
2038.16
87.5805
1751.3
98.6719
1484.8
105.893
1068.76
120.687
742.107
102.363
-140.199
73.3011
-950.36
45.3622
-1535.31
22.8474
-1997
9.36489
-2290.42
-3.07791
-2582.07
2276.62
-257.273
-719.037
-258.884
-799.758
-262.102
-828.229
-265.747
-871.908
-270.295
-904.575
-275.464
-939.56
-281.324
-971.16
-288.194
-1002.74
-297.476
-1031.39
-312.879
-1053.56
-341.28
-1060.47
-391.282
-1041.79
-467.84
-992.032
-565.947
-919.375
-670.166
-845.776
-762.423
-795.787
-831.2
-783.489
-874.506
-808.734
-896.649
-862.383
-903.619
-933.167
-900.345
-1011.42
-890.007
-1089.77
-874.431
-1162.57
-854.725
-1225.55
-831.847
-1275.96
-806.964
-1313.23
-781.576
-1339.6
-757.456
-1359.59
-736.599
-1377.8
-721.282
-1395.94
-714.063
-1411.55
-717.335
-1419.32
-732.366
-1414.16
-758.218
-1393.74
-791.198
-1359.29
-825.252
-1313.59
-853.802
-1258.23
-873.992
-1199.47
-888.812
-1166.98
-881.648
-1179.89
-760.703
-1038.75
-494.928
-294.244
-316.645
691.548
-270.32
1264.94
-254.136
1551.41
-246.736
1825.61
-240.793
2098.03
-232.291
2373.05
-222.68
2646.58
-212.843
2905.02
-201.851
3142.63
-188.683
3356.92
-172.891
3547.06
-154.096
3711.25
-132.514
3844.82
-108.772
3944.34
-83.4499
4009.08
-57.3724
4031.49
-31.9487
3988.4
-9.44866
3847.89
8.05431
3617.25
21.1747
3374.59
31.3035
3147.9
39.9321
2935.42
48.5259
2728
58.1056
2511
68.9598
2268.87
81.2871
2025.84
93.5077
1739.08
106.341
1471.96
114.663
1060.44
129.951
726.818
111.217
-121.466
79.4806
-918.623
49.2946
-1505.12
23.8812
-1971.59
8.94258
-2275.48
-5.2423
-2567.88
2254.37
-264.478
-717.491
-266.167
-798.07
-269.577
-824.819
-273.397
-868.089
-278.136
-899.836
-283.522
-934.173
-289.789
-964.893
-297.888
-994.646
-310.746
-1018.53
-334.594
-1029.71
-378.483
-1016.58
-449.761
-970.509
-546.622
-895.171
-654.954
-811.043
-754.86
-745.87
-831.627
-719.02
-881.161
-733.955
-907.447
-782.449
-917.152
-852.678
-915.98
-934.34
-907.575
-1019.83
-893.862
-1103.48
-875.764
-1180.67
-853.86
-1247.45
-828.887
-1300.93
-802.08
-1340.03
-775.318
-1366.36
-751.07
-1383.84
-732.255
-1396.61
-722.025
-1406.17
-723.287
-1410.28
-737.776
-1404.84
-764.947
-1386.99
-801.374
-1357.32
-841.148
-1319.52
-877.11
-1277.63
-902.741
-1232.6
-915.928
-1186.28
-922.71
-1160.2
-919.113
-1183.49
-829.397
-1128.47
-559.582
-564.059
-326.924
458.89
-255.818
1193.84
-236.222
1531.82
-228.251
1817.63
-225.998
2095.77
-222.179
2369.24
-215.589
2639.99
-207.869
2897.3
-199.188
3133.95
-188.425
3346.15
-174.751
3533.38
-157.682
3694.18
-137.424
3824.56
-114.583
3921.5
-89.7633
3984.26
-63.8165
4005.54
-38.1732
3962.76
-15.1615
3824.88
3.03087
3599.06
16.96
3360.66
28.0096
3136.85
37.6841
2925.75
47.503
2718.18
58.5563
2499.95
71.1443
2256.28
85.4122
2011.57
99.5977
1724.89
114.254
1457.31
123.768
1050.92
139.595
710.991
120.691
-102.562
86.4068
-884.339
53.7759
-1472.49
25.2539
-1943.07
8.31106
-2258.54
-8.5967
-2550.97
2231.22
-271.86
-715.7
-273.633
-796.297
-277.25
-821.202
-281.249
-864.09
-286.183
-894.901
-291.872
-928.485
-298.985
-957.779
-309.727
-983.904
-329.413
-998.844
-367.033
-992.095
-431.841
-951.773
-525.602
-876.748
-636.607
-784.167
-743.871
-703.779
-829.231
-660.51
-885.775
-662.476
-916.715
-703.015
-929.35
-769.814
-930.304
-851.724
-923.862
-940.782
-912.202
-1031.49
-896.196
-1119.49
-876.139
-1200.72
-852.306
-1271.29
-825.401
-1327.84
-796.925
-1368.51
-769.394
-1393.89
-746.28
-1406.95
-731.638
-1411.26
-729.347
-1408.47
-741.958
-1397.67
-769.432
-1377.36
-808.466
-1347.96
-852.976
-1312.81
-895.597
-1276.9
-929.328
-1243.9
-948.823
-1213.1
-952.883
-1182.22
-948.9
-1164.18
-942.756
-1189.63
-881.024
-1190.2
-635.482
-809.601
-353.93
177.338
-242.529
1082.44
-218.17
1507.46
-208.576
1808.04
-208.361
2095.56
-209.615
2370.49
-207.333
2637.71
-202.286
2892.25
-195.92
3127.58
-187.668
3337.9
-176.345
3522.06
-161.236
3679.07
-142.514
3805.84
-120.754
3899.74
-96.5677
3960.08
-70.8375
3979.81
-45.0175
3936.94
-21.4991
3801.36
-2.59608
3580.16
12.1796
3345.89
24.2072
3124.82
34.9991
2914.95
46.1269
2707.05
58.753
2487.33
73.1933
2241.84
89.5278
1995.23
105.807
1708.61
122.364
1440.75
133.157
1040.13
149.544
694.605
130.675
-83.693
94.0369
-847.701
58.8082
-1437.26
27.0198
-1911.28
7.55332
-2239.07
-10.9641
-2532.46
2204.17
-279.432
-713.631
-281.293
-794.436
-285.127
-817.368
-289.309
-859.908
-294.479
-889.732
-300.749
-922.214
-309.74
-948.789
-325.795
-967.849
-357.277
-967.362
-414.738
-934.635
-503.505
-863.006
-615.347
-764.906
-729.272
-670.242
-823.687
-609.364
-888.089
-596.108
-924.293
-626.273
-940.082
-687.226
-943.134
-766.761
-938.541
-856.317
-928.881
-950.442
-915.103
-1045.27
-897.345
-1137.25
-875.533
-1222.53
-849.822
-1297
-821.064
-1356.59
-791.273
-1398.3
-763.943
-1421.22
-743.896
-1427
-736.37
-1418.78
-745.364
-1399.47
-771.819
-1371.22
-812.649
-1336.53
-861.339
-1299.27
-909.827
-1264.32
-950.645
-1236.08
-978.233
-1216.31
-989.141
-1202.19
-982.995
-1188.37
-966.802
-1180.38
-952.108
-1204.33
-910.134
-1232.17
-718.25
-1001.49
-405.995
-134.917
-233.493
909.934
-199.306
1473.27
-188.542
1797.28
-188.49
2095.51
-194.108
2376.11
-197.242
2640.85
-195.921
2890.93
-192.088
3123.75
-186.369
3332.18
-177.588
3513.28
-164.678
3666.16
-147.711
3788.87
-127.223
3879.25
-103.822
3936.68
-78.4116
3954.4
-52.4756
3911
-28.4721
3777.36
-8.84735
3560.53
6.80724
3330.23
19.8611
3111.77
31.8364
2902.98
44.355
2694.53
58.6537
2473.03
75.0687
2225.42
93.5993
1976.7
112.103
1690.11
130.639
1422.21
142.797
1027.97
159.733
677.668
141.06
-65.0205
102.33
-808.97
64.3917
-1399.32
29.2163
-1876.1
6.77931
-2216.63
-13.7826
-2511.9
2173.44
-287.208
-711.248
-289.154
-792.49
-293.213
-813.309
-297.6
-855.521
-303.168
-884.163
-310.736
-914.647
-323.694
-935.83
-349.465
-942.077
-399.058
-917.769
-481.065
-852.629
-591.565
-752.505
-710.973
-645.499
-814.675
-566.54
-887.844
-536.194
-930.059
-553.893
-949.303
-607.029
-954.421
-682.108
-951.498
-769.684
-943.643
-864.171
-931.99
-962.095
-916.638
-1060.62
-897.291
-1156.6
-873.693
-1246.13
-846.04
-1324.65
-815.536
-1387.1
-785.043
-1428.79
-759.482
-1446.78
-745.317
-1441.16
-748.617
-1415.48
-772.214
-1375.87
-813.759
-1329.67
-866.215
-1284.08
-920.389
-1245.1
-967.755
-1216.95
-1002.24
-1201.59
-1020.53
-1198.02
-1021.2
-1201.52
-1004.49
-1205.08
-975.883
-1208.99
-948.302
-1231.91
-913.072
-1267.4
-775.239
-1139.32
-464.438
-445.718
-232.762
678.257
-179.257
1419.77
-168.338
1786.36
-167.347
2094.52
-175.685
2384.45
-184.598
2649.76
-188.322
2894.66
-187.67
3123.1
-184.538
3329.05
-178.404
3507.14
-167.926
3655.69
-152.941
3773.89
-133.927
3860.23
-111.477
3914.23
-86.5091
3929.43
-60.5353
3885.03
-36.0851
3752.91
-15.7371
3540.19
0.822067
3313.67
14.94
3097.65
28.1583
2889.76
42.1481
2680.54
58.2204
2456.95
76.7376
2206.91
97.6007
1955.84
118.465
1669.24
139.061
1401.62
152.672
1014.36
170.116
660.224
151.751
-46.6554
111.254
-768.473
70.5264
-1358.59
31.8946
-1837.47
6.15944
-2190.9
-15.8613
-2489.87
2141
-295.201
-708.514
-297.224
-790.468
-301.522
-809.01
-306.208
-850.835
-312.643
-877.729
-323.066
-904.223
-343.698
-915.199
-385.349
-900.426
-459.078
-844.04
-565.841
-745.866
-689.003
-629.342
-801.877
-532.626
-884.743
-483.673
-933.899
-487.038
-957.03
-530.762
-964.212
-599.847
-962.748
-683.572
-956.434
-775.998
-946.668
-873.937
-933.592
-975.171
-916.808
-1077.4
-895.796
-1177.61
-870.257
-1271.67
-840.579
-1354.33
-808.597
-1419.08
-778.488
-1458.9
-757.121
-1468.15
-752.651
-1445.63
-770.888
-1397.25
-811.456
-1335.31
-867.13
-1274
-927.106
-1224.1
-981.198
-1191
-1022.29
-1175.86
-1046.75
-1177.13
-1053.59
-1191.19
-1043.01
-1212.1
-1015.66
-1232.42
-975.279
-1249.37
-933.165
-1274.02
-893.068
-1307.5
-791.728
-1240.66
-512.346
-725.101
-242.43
408.342
-159.602
1336.94
-147.501
1774.26
-145.827
2092.84
-154.967
2393.59
-168.94
2663.73
-178.809
2904.53
-182.451
3126.74
-182.197
3328.8
-178.754
3503.7
-170.896
3647.83
-158.13
3761.12
-140.8
3842.9
-119.482
3892.91
-95.0938
3905.04
-69.178
3859.11
-44.3365
3728.06
-23.2777
3519.13
-5.7973
3296.19
9.41734
3082.44
23.9324
2875.24
39.4701
2665.01
57.4185
2439.01
78.1719
2186.15
101.513
1932.5
124.882
1645.88
147.624
1378.88
162.778
999.206
180.665
642.337
162.682
-28.672
120.793
-726.585
77.2151
-1315.02
35.0833
-1795.34
5.68779
-2161.5
-17.2723
-2466.91
2102.94
-303.425
-705.389
-305.513
-788.379
-310.105
-804.418
-315.388
-845.553
-323.79
-869.327
-340.034
-887.979
-373.999
-881.234
-438.388
-836.037
-538.926
-743.502
-663.561
-621.232
-784.988
-507.915
-878.417
-439.197
-935.657
-426.434
-963.306
-459.388
-972.628
-521.44
-972.402
-600.073
-967.321
-688.653
-959.136
-784.183
-948.073
-885
-933.709
-989.535
-915.394
-1095.72
-892.514
-1200.49
-864.834
-1299.35
-833.131
-1386.03
-800.275
-1451.94
-772.385
-1486.79
-758.751
-1481.78
-768.642
-1435.74
-805.487
-1360.4
-863.251
-1277.54
-929.277
-1207.97
-990.733
-1162.64
-1038.84
-1142.89
-1069.36
-1145.34
-1081.32
-1165.17
-1075.52
-1196.99
-1053.15
-1234.47
-1015.16
-1270.42
-964.021
-1300.51
-908.417
-1329.63
-857.377
-1358.54
-776.56
-1321.48
-549.554
-952.107
-262.245
121.033
-143.503
1218.2
-125.587
1756.34
-124.256
2091.51
-132.991
2402.32
-150.323
2681.06
-166.677
2920.88
-175.962
3136.02
-179.294
3332.13
-178.633
3503.04
-173.517
3642.71
-163.201
3750.8
-147.773
3827.48
-127.776
3872.91
-104.124
3881.39
-78.3793
3833.37
-53.2194
3702.9
-31.4771
3497.39
-13.0632
3277.78
3.277
3066.1
19.1305
2859.39
36.2873
2647.85
56.2163
2419.08
79.347
2163.02
105.322
1906.52
131.349
1619.85
156.327
1353.9
173.109
982.424
191.339
624.106
173.785
-11.118
130.936
-683.736
84.4697
-1268.55
38.8088
-1749.68
5.31482
-2128.01
-19.6548
-2441.94
2059.57
-311.894
-701.83
-314.054
-786.219
-319.12
-799.352
-325.751
-838.923
-338.369
-856.709
-365.339
-861.009
-419.767
-826.806
-511.772
-744.032
-635.051
-620.223
-763.759
-492.524
-868.405
-403.269
-935.078
-372.524
-968.155
-393.357
-979.843
-447.701
-980.656
-520.627
-976.462
-604.268
-969.503
-695.611
-960.124
-793.562
-947.897
-897.227
-932.132
-1005.3
-912.062
-1115.79
-887.056
-1225.49
-857.064
-1329.34
-823.546
-1419.55
-790.997
-1484.48
-768.237
-1509.55
-767.098
-1482.92
-796.269
-1406.57
-853.621
-1303.05
-925.624
-1205.54
-995.579
-1138.02
-1051.69
-1106.54
-1088.72
-1105.86
-1105.78
-1128.28
-1103.99
-1166.96
-1085.16
-1215.82
-1050.93
-1268.7
-1002.48
-1318.86
-941.816
-1361.18
-875.401
-1396.04
-813.015
-1420.92
-740.505
-1393.99
-570.181
-1122.43
-288.046
-161.103
-132.635
1062.79
-103.363
1727.07
-102.33
2090.48
-110.771
2410.76
-129.428
2699.72
-151.489
2942.94
-167.521
3152.05
-175.595
3340.2
-178.045
3505.49
-175.743
3640.41
-168.076
3743.14
-154.781
3814.18
-136.302
3854.43
-113.553
3858.64
-88.1095
3807.92
-62.7211
3677.52
-40.3371
3475
-20.9892
3258.43
-3.50197
3048.61
13.7277
2842.16
32.5707
2629.01
54.5845
2397.06
80.241
2137.37
109.019
1877.75
137.866
1591
165.176
1326.59
183.65
963.95
201.852
605.904
185.173
5.56132
141.682
-640.245
92.3146
-1219.18
43.133
-1700.5
5.26204
-2090.14
-21.3734
-2415.31
2015.13
-320.637
-697.773
-322.946
-783.91
-328.975
-793.323
-338.591
-829.307
-359.429
-835.87
-403.98
-816.458
-485.434
-745.353
-604.176
-625.289
-738.062
-486.337
-854.158