/*--------------------------------*- C++ -*----------------------------------*\
| =========                 |                                                 |
| \\      /  F ield         | OpenFOAM: The Open Source CFD Toolbox           |
|  \\    /   O peration     | Version:  4.1                                   |
|   \\  /    A nd           | Web:      www.OpenFOAM.org                      |
|    \\/     M anipulation  |                                                 |
\*---------------------------------------------------------------------------*/
FoamFile
{
    version     2.0;
    format      ascii;
    class       volVectorField;
    location    "22";
    object      U;
}
// * * * * * * * * * * * * * * * * * * * * * * * * * * * * * * * * * * * * * //

dimensions      [0 1 -1 0 0 0 0];

internalField   nonuniform List<vector> 
6785
(
(1.31105e-14 -2.25086 16.4255)
(1.17221e-14 -7.90161 12.8498)
(-3.26268e-15 -5.11079 13.6484)
(3.43667e-15 -5.08139 13.1384)
(9.25922e-16 -4.30019 12.9834)
(-8.70719e-17 -3.89271 12.6786)
(2.86188e-15 -3.48596 12.3847)
(7.19732e-16 -3.20793 12.0715)
(-6.05302e-16 -3.02624 11.7723)
(1.64824e-15 -2.96744 11.4764)
(2.66387e-16 -2.97834 11.1817)
(-4.52076e-16 -3.02841 10.8514)
(1.07715e-15 -3.45742 10.181)
(-1.66166e-17 -3.52287 9.11923)
(-5.06319e-16 -0.00132645 7.46965)
(2.01611e-14 -10.2428 26.6979)
(1.35603e-14 -16.0451 23.0095)
(-2.51122e-15 -11.0152 23.3676)
(4.37742e-15 -11.7374 21.5614)
(7.11288e-16 -9.99341 20.7314)
(1.00737e-15 -9.32851 19.5283)
(2.07748e-15 -8.31275 18.4996)
(2.30655e-16 -7.50125 17.4388)
(1.78778e-16 -6.66652 16.3912)
(7.29967e-16 -5.8885 15.2581)
(-4.19548e-16 -5.16728 13.9481)
(-3.5376e-16 -4.57804 12.3121)
(1.2936e-16 -4.21375 10.1841)
(-6.10285e-16 -3.64181 7.18292)
(-6.54965e-16 -1.30569 2.45827)
(2.06007e-14 -13.1313 28.6131)
(1.09115e-14 -16.7653 25.4099)
(-1.14931e-15 -12.1455 25.3281)
(3.70268e-15 -13.0518 22.9385)
(5.76041e-16 -10.9459 21.9733)
(1.34912e-15 -10.4675 20.3528)
(8.74258e-16 -9.34225 19.1554)
(-5.22861e-18 -8.59432 17.8505)
(3.83741e-16 -7.59504 16.3857)
(1.67431e-16 -6.12869 13.9165)
(3.69414e-16 -3.53966 9.4164)
(1.06548e-15 -0.246482 3.13754)
(-8.49565e-16 1.91396 -1.42021)
(-2.54554e-15 2.0773 -2.22483)
(-2.97273e-15 1.34102 -1.8259)
(2.08924e-14 -14.3188 29.2783)
(1.00073e-14 -17.3782 26.2345)
(-9.67319e-16 -13.0687 25.9247)
(3.9009e-15 -14.4535 23.1868)
(6.7768e-16 -12.0248 22.3405)
(1.32276e-15 -12.0595 20.4032)
(9.15603e-16 -10.8257 19.2357)
(4.51521e-16 -10.3498 17.8022)
(1.35496e-16 -9.49774 16.4051)
(3.04229e-16 -8.37064 14.2529)
(1.37378e-15 -6.15657 10.5081)
(1.11479e-15 -2.73199 4.82149)
(3.00986e-15 0.278157 0.247915)
(6.04179e-15 2.90824 -3.0546)
(-7.56369e-16 2.40661 -5.68291)
(2.10829e-14 -14.3874 28.3383)
(1.15237e-14 -17.7541 27.0415)
(-7.83723e-16 -13.4933 25.7662)
(3.68257e-15 -14.6619 22.9102)
(1.45726e-15 -12.3723 21.9468)
(1.20628e-15 -12.3659 19.8615)
(1.30904e-15 -11.1689 18.5179)
(1.03583e-15 -10.6273 16.9152)
(2.7454e-16 -9.85813 15.4286)
(3.60603e-16 -9.00902 13.6679)
(9.39665e-16 -7.75018 11.277)
(5.36511e-16 -5.67478 7.99314)
(6.46074e-16 -3.44362 4.43715)
(-1.49442e-16 -0.0835079 0.569974)
(6.63876e-15 1.77535 -5.26748)
(2.07092e-14 -13.8023 26.311)
(1.32174e-14 -17.4964 27.212)
(-1.89635e-16 -13.4479 25.0066)
(2.77615e-15 -14.013 22.0409)
(1.97446e-15 -11.9966 20.927)
(1.39663e-15 -11.7591 18.8309)
(1.20258e-15 -10.5812 17.347)
(1.32434e-15 -9.87629 15.635)
(8.77286e-16 -9.04058 14.0575)
(2.17889e-16 -8.20238 12.4475)
(5.91782e-16 -7.29748 10.6653)
(1.31235e-15 -5.98213 8.57935)
(2.15118e-16 -4.48877 5.95648)
(-4.77807e-16 -1.854 2.61054)
(1.05874e-14 0.337438 -2.77862)
(2.14687e-14 -13.1335 24.5094)
(1.51249e-14 -16.9664 27.0002)
(2.1032e-15 -13.3933 24.356)
(1.90701e-15 -13.3678 21.3082)
(2.78929e-15 -11.6519 20.0434)
(3.3081e-15 -11.2369 18.0654)
(1.83017e-15 -10.1683 16.5567)
(2.14285e-15 -9.42356 14.9404)
(3.53368e-15 -8.62404 13.4558)
(1.85191e-15 -7.83827 12.0174)
(1.57267e-15 -7.07933 10.5553)
(3.47711e-15 -6.14271 9.058)
(2.66242e-15 -5.12006 7.25181)
(-1.30464e-15 -3.31235 4.9455)
(1.0423e-14 -0.951608 0.159303)
(2.06821e-14 -12.6785 23.5467)
(1.6215e-14 -16.2991 26.3016)
(2.76046e-15 -13.1304 23.6784)
(1.65423e-15 -12.8315 20.5334)
(2.88998e-15 -11.2103 19.2059)
(3.43358e-15 -10.8191 17.3166)
(2.70281e-15 -9.88151 15.9387)
(2.59044e-15 -9.2931 14.4393)
(3.19018e-15 -8.62752 13.0213)
(2.6932e-15 -7.99135 11.6518)
(1.83019e-15 -7.40378 10.432)
(1.86859e-15 -6.82534 9.50151)
(2.73002e-15 -6.26105 8.72032)
(-2.69465e-16 -5.16257 7.66808)
(3.25947e-15 -2.86893 3.89081)
(2.10192e-14 -12.5756 23.2485)
(1.50061e-14 -15.3264 25.1886)
(6.7586e-16 -12.4557 22.6225)
(2.06664e-15 -11.9998 19.6163)
(2.6889e-15 -10.2269 18.2501)
(1.25672e-15 -9.64582 16.0443)
(2.63718e-15 -8.3359 14.3032)
(1.99571e-15 -7.69739 12.403)
(-6.38335e-16 -7.0722 11.0135)
(2.06111e-15 -6.89656 10.0792)
(1.81975e-15 -7.0364 9.91289)
(-1.35461e-15 -7.5186 10.5012)
(1.48521e-15 -7.84874 11.4513)
(6.4948e-18 -7.60416 11.6014)
(-2.54817e-15 -5.36326 8.84347)
(1.95181e-14 -13.5681 24.9266)
(1.0109e-14 -14.608 24.9285)
(-1.02078e-15 -12.311 22.9844)
(9.03759e-16 -11.6489 20.8844)
(1.1596e-15 -9.81754 19.2596)
(-2.81809e-16 -8.27573 16.4077)
(7.26465e-16 -6.08103 13.3744)
(1.83832e-15 -4.39334 10.3783)
(1.72005e-15 -2.97928 8.08474)
(2.3269e-15 -2.43338 6.86772)
(9.86192e-16 -3.10308 7.60257)
(-2.20468e-15 -5.05954 10.2488)
(-2.16307e-15 -7.39675 13.488)
(-1.69113e-15 -8.92818 15.0982)
(-4.17604e-15 -6.592 12.1189)
(1.8983e-14 -15.2926 27.9102)
(8.13602e-15 -16.2566 27.4309)
(-2.33788e-15 -13.5046 25.3254)
(9.66713e-16 -13.187 23.9435)
(5.6201e-16 -11.479 22.5019)
(-5.40704e-16 -9.8043 19.641)
(8.95073e-16 -7.30245 16.3908)
(3.2095e-15 -5.11731 13.1171)
(4.69419e-15 -2.90138 10.1111)
(6.53636e-15 -0.896749 7.15233)
(9.36008e-15 0.711813 4.66844)
(8.60104e-15 1.08815 3.59314)
(5.0677e-15 -0.514497 5.00974)
(2.45939e-16 -3.46146 8.125)
(-3.15073e-15 -3.96246 8.52245)
(1.81344e-14 -14.6322 26.0033)
(1.18801e-14 -19.1157 31.0838)
(1.27349e-15 -15.9222 28.0174)
(1.17767e-15 -15.157 25.7436)
(-1.90299e-16 -13.7595 24.4179)
(1.22264e-15 -12.6792 22.0984)
(1.28049e-15 -10.6871 19.3421)
(1.06778e-15 -8.79518 16.2277)
(5.03487e-15 -6.66903 13.1348)
(5.66604e-15 -4.50644 9.80061)
(8.86538e-15 -2.12823 6.21044)
(1.13339e-14 0.275652 2.28726)
(4.37578e-15 2.62193 -1.4561)
(2.99863e-15 3.31113 -3.01878)
(3.79698e-16 1.20424 -1.5166)
(1.58706e-14 -11.3761 19.2885)
(1.63925e-14 -19.2765 30.6274)
(7.74327e-15 -18.1591 29.6315)
(3.79015e-15 -16.6676 26.3692)
(6.65854e-16 -15.2693 24.0517)
(1.2316e-15 -14.3801 21.8484)
(1.63657e-15 -13.2274 19.6561)
(3.01551e-16 -11.9875 17.3055)
(2.01779e-15 -10.5744 14.8946)
(2.54898e-15 -9.02266 12.4006)
(2.79561e-15 -7.30265 9.78332)
(4.56596e-15 -5.31427 7.02052)
(3.33004e-15 -3.2097 4.03767)
(2.13126e-15 -0.351247 1.00093)
(9.85652e-16 1.25374 -4.35762)
(1.26049e-14 -6.91402 10.5546)
(1.8142e-14 -16.6145 26.5444)
(1.0423e-14 -17.5798 28.2033)
(3.46419e-15 -15.3858 24.3108)
(1.1981e-16 -13.3709 21.0988)
(5.61034e-16 -12.2956 19.025)
(1.61168e-15 -11.4819 17.4612)
(1.41497e-15 -10.6972 15.9078)
(1.75925e-15 -9.83891 14.264)
(2.12896e-15 -8.86092 12.5464)
(1.31021e-15 -7.81828 10.7727)
(9.86955e-16 -6.60017 8.98223)
(1.63501e-15 -5.31317 6.94636)
(8.61617e-16 -3.28456 4.52856)
(7.99804e-17 -1.19072 0.0560509)
(7.61161e-15 -4.40078 7.8344)
(1.8254e-14 -15.5025 24.7715)
(1.67065e-14 -19.6317 29.689)
(1.04458e-14 -19.7229 27.8792)
(4.12785e-15 -18.0937 24.1161)
(1.42602e-15 -16.1841 20.5924)
(4.34523e-16 -14.5319 17.8326)
(-1.95489e-16 -13.1252 15.6312)
(3.4837e-18 -11.7593 13.7602)
(4.29206e-16 -10.4557 12.1838)
(7.35621e-17 -9.20937 10.7308)
(5.34569e-17 -7.87959 9.24389)
(-1.69835e-16 -6.50327 7.90588)
(-1.70957e-15 -5.13576 6.44277)
(-1.51368e-15 -2.17096 3.38707)
(-1.16992e-15 30.7279 4.52209)
(-3.32706e-15 8.47675 -0.0417879)
(-2.90418e-15 -1.02526 -1.27846)
(-2.98737e-15 0.915511 -1.49117)
(-2.99738e-15 0.657548 -1.55439)
(-3.97876e-15 0.856045 -2.62989)
(-2.8272e-15 0.933777 -1.97412)
(-2.72604e-15 1.20694 -2.01276)
(-2.67531e-15 1.25347 -2.01596)
(-2.50357e-15 1.72181 -2.64823)
(-1.42781e-15 1.55254 -1.87155)
(-1.18905e-15 1.74648 -1.79415)
(-1.87971e-15 2.2534 -2.20595)
(-1.22809e-15 1.87038 -1.53018)
(-1.1281e-15 2.14634 -1.49955)
(-9.29956e-16 2.12826 -1.44666)
(-1.48672e-15 2.60512 -1.68881)
(-7.77534e-16 2.20075 -1.15456)
(-5.71036e-16 2.35614 -1.07169)
(-8.88581e-16 2.86468 -1.15281)
(-4.31486e-16 2.26425 -0.766801)
(-3.64962e-16 2.53071 -0.704394)
(-1.51173e-16 2.43264 -0.643834)
(-2.57528e-16 2.92599 -0.571153)
(1.4425e-17 2.29403 -0.360679)
(1.19862e-16 2.52451 -0.305406)
(9.30924e-17 2.41745 -0.2834)
(1.30278e-16 2.79351 -0.114958)
(1.62803e-16 2.23734 -0.0615301)
(2.00258e-16 2.3283 -0.0745484)
(3.28683e-16 2.6842 0.16282)
(2.00434e-16 2.03611 0.0897696)
(2.19884e-16 2.21534 0.0972029)
(5.45027e-17 2.11077 0.0635739)
(-5.38404e-17 2.37297 0.322055)
(-1.97188e-16 1.8473 0.196406)
(-3.51435e-16 1.91681 0.143848)
(-7.71635e-16 2.15431 0.428656)
(-8.89927e-16 1.59006 0.2437)
(-1.17134e-15 1.72202 0.233137)
(-1.23907e-15 1.62989 0.181652)
(-2.12068e-15 1.86453 0.441424)
(-1.87395e-15 1.412 0.278954)
(-2.12143e-15 1.52429 0.26122)
(-2.26653e-15 1.43556 0.207451)
(-3.75499e-15 1.66699 0.383543)
(-3.16455e-15 1.38787 0.333007)
(-3.19001e-15 1.41187 0.2871)
(-4.98487e-15 1.57567 0.527257)
(-3.65026e-15 1.22961 0.375847)
(-3.83925e-15 1.29455 0.377425)
(-3.95052e-15 1.22792 0.35501)
(-5.79224e-15 1.26282 0.511151)
(-4.57815e-15 0.918017 0.235069)
(-4.88796e-15 0.954071 0.218446)
(-4.71816e-15 0.930237 0.274184)
(-6.64721e-15 0.821767 -0.102107)
(-5.00714e-15 0.486096 -0.610234)
(-5.56164e-15 0.413657 -0.339665)
(-6.59746e-15 1.16031 -2.37776)
(-1.70332e-15 -0.205896 -2.36628)
(-3.26321e-16 -0.193845 -2.17359)
(1.84628e-18 0.466224 -2.05295)
(-7.75522e-16 0.190609 -0.689139)
(-1.5601e-15 -1.03691 1.70495)
(-1.45935e-15 -0.703275 1.60857)
(-1.59147e-15 -1.6383 3.94517)
(-8.24539e-16 -2.22739 4.22174)
(-6.03942e-16 -2.52192 4.17651)
(-4.39711e-16 -2.48749 4.27855)
(-1.11061e-17 -3.9931 7.0221)
(2.39156e-16 -4.27055 5.92846)
(2.37869e-16 -4.84992 6.07784)
(2.01595e-16 -4.72182 6.28034)
(3.31331e-16 -6.97874 9.86452)
(2.583e-16 -7.01873 7.94149)
(8.23864e-17 -7.10902 8.56927)
(1.37417e-16 -9.72052 12.6833)
(-3.07922e-17 -9.42798 9.91205)
(-2.22671e-16 -9.85276 10.8298)
(-5.16665e-16 -10.5862 12.8266)
(-4.56698e-16 -10.4909 12.6871)
(-4.44288e-16 -10.5719 13.0466)
(5.77492e-16 -12.1868 15.5117)
(1.59193e-16 -11.2084 14.0304)
(4.71447e-16 -11.4553 14.4555)
(6.56947e-16 -11.4444 14.457)
(8.80037e-16 -11.5461 14.4405)
(1.04085e-15 -11.6052 14.4279)
(1.16869e-15 -11.6907 14.463)
(1.34117e-15 -11.7789 14.6138)
(1.52019e-15 -11.8083 14.8689)
(2.21306e-15 -12.7155 16.5065)
(1.69701e-15 -12.1917 15.4416)
(1.84816e-15 -12.3544 15.7147)
(2.01128e-15 -12.3238 15.8575)
(2.23948e-15 -12.4779 16.1559)
(2.30936e-15 -12.473 16.1984)
(2.41523e-15 -12.5732 16.2872)
(2.4825e-15 -12.6361 16.3636)
(2.58122e-15 -12.6769 16.4515)
(3.59644e-15 -13.2778 17.6758)
(3.10854e-15 -12.8169 16.6868)
(3.25801e-15 -12.9398 16.8156)
(3.34222e-15 -12.9569 16.9138)
(3.46148e-15 -13.0275 17.1079)
(3.6054e-15 -13.0625 17.3704)
(3.77478e-15 -13.1514 17.6442)
(3.91789e-15 -13.1736 17.7515)
(4.05688e-15 -13.2441 17.9132)
(4.18241e-15 -13.3237 18.0743)
(5.11062e-15 -13.3286 18.8761)
(4.24307e-15 -13.0972 18.3514)
(4.30076e-15 -13.1668 18.6581)
(4.21427e-15 -13.1816 18.8509)
(4.17653e-15 -13.252 19.0514)
(4.17602e-15 -13.2754 19.2003)
(4.2066e-15 -13.3523 19.4239)
(4.26554e-15 -13.3514 19.4205)
(4.3041e-15 -13.4595 19.3181)
(5.01688e-15 -12.6652 18.4875)
(4.09433e-15 -12.7304 18.2457)
(4.15738e-15 -12.7396 18.2544)
(4.23499e-15 -12.773 18.3954)
(4.35025e-15 -12.741 18.3664)
(4.54991e-15 -12.7704 18.46)
(4.777e-15 -12.7768 18.5795)
(5.01394e-15 -12.7229 18.7871)
(5.34318e-15 -12.9427 19.2585)
(5.98739e-15 -10.9594 17.1826)
(5.70291e-15 -11.5795 18.1872)
(5.9243e-15 -11.4772 18.1826)
(6.00116e-15 -11.4589 18.2131)
(6.25513e-15 -11.441 18.3918)
(6.17862e-15 -11.3874 18.1227)
(5.9427e-15 -11.2903 17.6071)
(5.67511e-15 -11.1786 16.9786)
(5.41522e-15 -11.2145 16.2095)
(4.9385e-15 -8.36521 11.5916)
(5.555e-15 -9.43463 14.0314)
(5.2252e-15 -9.11891 12.889)
(5.21333e-15 -9.12495 12.4237)
(5.23779e-15 -8.9215 11.9143)
(5.43601e-15 -8.80829 11.6288)
(6.32312e-15 -8.62975 11.618)
(5.89668e-15 -8.42895 11.2378)
(5.95405e-15 -8.22955 11.0099)
(5.78888e-15 -8.12481 10.58)
(3.21076e-15 -4.51147 5.07514)
(5.55352e-15 -6.33216 9.13939)
(5.09539e-15 -5.74265 7.99644)
(4.68171e-15 -5.88356 7.52491)
(4.09579e-15 -5.52084 6.55199)
(3.3674e-15 -5.44234 5.34408)
(2.11415e-15 -5.22703 3.16409)
(9.53429e-16 -4.85249 1.05468)
(1.04085e-15 -4.84556 1.00169)
(-6.43326e-16 -4.19452 -1.54899)
(6.23244e-16 -4.26249 0.168042)
(2.64577e-16 -4.20887 -0.596515)
(-1.1824e-15 -3.20243 -2.08246)
(-6.68546e-16 -4.68283 -1.58961)
(-1.02186e-15 -3.6343 -1.53521)
(-8.22921e-16 -3.26391 -1.06397)
(-1.11343e-15 -3.98233 -1.5011)
(-8.01356e-16 -2.76894 -0.968865)
(-1.15246e-15 -3.39882 -1.42944)
(-8.70159e-16 -2.99294 -1.14647)
(-7.10229e-16 -2.45021 -0.88432)
(-1.04043e-15 -2.78785 -1.30351)
(-9.76596e-16 -2.46489 -1.08555)
(-8.66639e-16 -2.04503 -0.848515)
(-1.18115e-15 -2.52053 -1.18939)
(-9.29272e-16 -1.68898 -0.830818)
(-1.31034e-15 -2.0458 -1.24914)
(-9.92476e-16 -1.67145 -1.06683)
(-9.53064e-16 -1.40616 -0.862405)
(-1.21684e-15 -1.68335 -1.19832)
(-7.02131e-16 -1.09996 -0.865196)
(-1.11542e-15 -1.30655 -1.28856)
(-1.06791e-15 -1.09994 -1.11095)
(-9.90513e-16 -0.858976 -0.910802)
(-1.49243e-15 -0.921905 -1.3364)
(-1.45493e-15 -0.800357 -1.13921)
(-7.92596e-16 -0.619644 -0.917255)
(-1.19368e-15 -0.735011 -1.28523)
(-9.88104e-16 -0.401286 -0.920288)
(-1.08589e-15 -0.506934 -1.41194)
(-4.88905e-16 -0.304412 -1.17167)
(-6.05116e-16 -0.208708 -0.902591)
(-8.13565e-16 -0.337871 -1.28422)
(-8.85467e-16 0.0925394 -0.860453)
(-1.79263e-15 -0.200162 -1.35904)
(-3.35525e-15 -0.0619862 -1.27779)
(-2.13427e-15 0.357605 -0.768425)
(-5.15148e-16 0.179236 -1.04039)
(-2.83063e-15 0.0973765 -1.26703)
(-2.78501e-15 0.471757 -0.82204)
(-2.5452e-15 0.383587 -1.02739)
(-8.52696e-16 0.51006 -0.708414)
(-5.83698e-16 0.634819 -0.828381)
(8.7451e-16 0.560811 -0.915458)
(1.09045e-15 0.635107 -0.608184)
(9.56158e-16 0.769764 -0.783202)
(-3.62956e-17 0.718668 -0.53466)
(-8.79874e-16 0.845882 -0.602036)
(-2.36056e-15 0.831298 -0.621514)
(-1.82015e-15 0.779737 -0.408613)
(-2.19602e-15 0.943039 -0.476563)
(-2.54837e-15 0.918333 -0.521196)
(-1.73118e-15 0.824789 -0.357913)
(-1.49021e-15 1.07027 -0.466974)
(-5.48673e-16 0.899054 -0.345039)
(-1.5592e-16 1.03602 -0.409559)
(1.33229e-16 1.05404 -0.43126)
(3.95092e-16 0.914824 -0.290851)
(2.20241e-17 1.19866 -0.357199)
(-6.03505e-16 0.98179 -0.252997)
(-1.59786e-15 1.12738 -0.290897)
(-3.14368e-15 1.13718 -0.295508)
(-2.56079e-15 1.00259 -0.206731)
(-3.5769e-15 1.18155 -0.23101)
(-3.42257e-15 1.20299 -0.208496)
(-1.87823e-15 1.01158 -0.144678)
(-1.55083e-15 1.32448 -0.176994)
(-5.70665e-16 1.08044 -0.134931)
(-2.3969e-16 1.21488 -0.159853)
(-2.80312e-17 1.27943 -0.169203)
(8.72172e-17 1.08976 -0.128659)
(4.25364e-16 1.41079 -0.177701)
(6.74354e-16 1.16593 -0.130055)
(1.15018e-15 1.31518 -0.154131)
(2.1877e-15 1.37415 -0.167011)
(1.69866e-15 1.2248 -0.111855)
(2.05128e-15 1.41004 -0.140688)
(1.80355e-15 1.48942 -0.20992)
(8.43999e-16 1.28052 -0.151341)
(6.21464e-16 1.66089 -0.295521)
(1.58069e-16 1.38655 -0.217812)
(-3.2159e-17 1.61503 -0.359622)
(-3.29588e-23 0.969626 1.29867)
(-5.88331e-23 1.08601 1.3078)
(1.434e-23 1.13892 1.32086)
(4.2592e-22 1.20292 1.33684)
(1.74951e-21 1.25592 1.35579)
(4.9622e-21 1.30965 1.3778)
(1.07209e-20 1.35927 1.40233)
(1.48386e-20 1.40909 1.42985)
(-8.97248e-21 1.45781 1.46002)
(-1.56789e-19 1.50721 1.49321)
(-6.81272e-19 1.55718 1.52931)
(-2.02373e-18 1.60857 1.56846)
(-4.34314e-18 1.66162 1.61064)
(-5.33579e-18 1.7166 1.65628)
(5.794e-18 1.77295 1.70732)
(6.02318e-17 1.82884 1.76976)
(2.25789e-16 1.88029 1.85678)
(6.175e-16 1.92113 1.99035)
(1.384e-15 1.94427 2.19706)
(2.65608e-15 1.94455 2.49649)
(4.47177e-15 1.9216 2.88725)
(6.72261e-15 1.88058 3.34126)
(9.16171e-15 1.82988 3.81197)
(1.14718e-14 1.77765 4.25124)
(1.33541e-14 1.7297 4.62369)
(1.45971e-14 1.68954 4.91191)
(1.5105e-14 1.65981 5.11373)
(1.4891e-14 1.64299 5.23636)
(1.40492e-14 1.64072 5.2912)
(1.27229e-14 1.6526 5.29049)
(1.10763e-14 1.6757 5.24538)
(9.27293e-15 1.70523 5.16506)
(7.45793e-15 1.7355 5.05664)
(5.73961e-15 1.76035 4.92576)
(4.1733e-15 1.77257 4.77723)
(2.74195e-15 1.76396 4.61607)
(1.29819e-15 1.73199 4.45147)
(-5.33068e-16 1.68547 4.30027)
(-3.04311e-15 1.55532 4.14866)
(-4.84832e-15 0.956475 3.81582)
(-2.90121e-15 -0.375873 3.12166)
(-8.64964e-16 -1.24625 2.85996)
(7.56382e-16 -1.65277 2.70972)
(2.45966e-15 -1.96247 2.55082)
(4.27433e-15 -2.29514 2.38925)
(6.16074e-15 -2.64418 2.23172)
(8.04299e-15 -3.00404 2.07814)
(9.81869e-15 -3.37 1.92658)
(1.13538e-14 -3.73501 1.77586)
(1.25165e-14 -4.08974 1.6233)
(1.31964e-14 -4.42366 1.46563)
(1.33181e-14 -4.72847 1.30432)
(1.28857e-14 -5.00173 1.13973)
(1.19648e-14 -5.24486 0.972465)
(1.0667e-14 -5.44551 0.796824)
(9.14123e-15 -5.59326 0.618533)
(7.5006e-15 -5.68844 0.438658)
(5.78273e-15 -5.7173 0.261333)
(3.99745e-15 -5.64082 0.0920433)
(2.27657e-15 -5.40655 -0.0559339)
(8.87064e-16 -5.02914 -0.1679)
(1.8723e-16 -4.64608 -0.237337)
(-2.30672e-18 -4.3024 -0.283718)
(-1.24604e-17 -3.99536 -0.305928)
(-2.8102e-18 -3.71115 -0.322179)
(-1.25724e-20 -3.42426 -0.32897)
(1.11046e-19 -3.10735 -0.339131)
(1.93399e-20 -2.79297 -0.343915)
(-1.03511e-21 -2.40814 -0.358622)
(-9.24775e-22 -2.0596 -0.3615)
(-1.77764e-22 -1.48243 -0.384705)
(2.41135e-22 -1.1565 -0.379098)
(-7.09067e-21 0.339576 -0.530634)
(3.11763e-20 1.49297 -0.34704)
(-1.45134e-19 2.32372 -0.396473)
(8.37812e-19 2.83062 -0.0381478)
(-2.92814e-18 3.20806 -0.296192)
(6.46944e-18 3.47843 0.197751)
(-2.6514e-17 -3.35617 -0.366622)
(-6.16091e-23 0.968286 1.36399)
(-2.67203e-24 1.08265 1.37174)
(4.28868e-22 1.13431 1.38488)
(1.82092e-21 1.19739 1.4016)
(5.16963e-21 1.24936 1.42132)
(1.11434e-20 1.3022 1.44479)
(1.60132e-20 1.35091 1.47087)
(-3.94333e-21 1.39982 1.50044)
(-1.37914e-19 1.44762 1.53286)
(-6.34128e-19 1.49606 1.56862)
(-1.97793e-18 1.54506 1.60745)
(-4.54984e-18 1.59548 1.64949)
(-6.62549e-18 1.64746 1.69493)
(1.76168e-18 1.70089 1.74557)
(5.19987e-17 1.75415 1.80742)
(2.16681e-16 1.80338 1.89487)
(6.25537e-16 1.84188 2.03343)
(1.45383e-15 1.86148 2.25597)
(2.86064e-15 1.85614 2.5882)
(4.88914e-15 1.82617 3.02899)
(7.39126e-15 1.77958 3.54054)
(1.00426e-14 1.72861 4.05992)
(1.24476e-14 1.68394 4.52464)
(1.42669e-14 1.65079 4.8942)
(1.52989e-14 1.62924 5.15588)
(1.5494e-14 1.61735 5.31773)
(1.4925e-14 1.61407 5.3976)
(1.37414e-14 1.6201 5.41461)
(1.21292e-14 1.63661 5.38471)
(1.02817e-14 1.66352 5.31949)
(8.37893e-15 1.69854 5.2267)
(6.57093e-15 1.73754 5.11159)
(4.95856e-15 1.77537 4.97839)
(3.57333e-15 1.80614 4.8316)
(2.36231e-15 1.82267 4.67668)
(1.18054e-15 1.81602 4.52039)
(-2.49151e-16 1.78165 4.37362)
(-2.45159e-15 1.73175 4.25573)
(-5.87644e-15 1.62848 4.1634)
(-8.56407e-15 1.11339 3.90658)
(-4.68276e-15 -0.278351 3.09441)
(-4.35362e-16 -1.25664 2.74591)
(1.09211e-15 -1.64211 2.6824)
(2.68038e-15 -1.94774 2.52593)
(4.46437e-15 -2.28422 2.35951)
(6.32091e-15 -2.63583 2.20714)
(8.17062e-15 -2.99726 2.05888)
(9.91411e-15 -3.3634 1.91231)
(1.14184e-14 -3.72679 1.76649)
(1.25531e-14 -4.07804 1.61805)
(1.32092e-14 -4.40761 1.46374)
(1.33131e-14 -4.70777 1.30517)
(1.28694e-14 -4.97624 1.14275)
(1.19434e-14 -5.21378 0.976993)
(1.06458e-14 -5.40877 0.802504)
(9.12346e-15 -5.55182 0.624996)
(7.48742e-15 -5.64307 0.445635)
(5.77435e-15 -5.66933 0.268585)
(3.99419e-15 -5.59267 0.0992778)
(2.27773e-15 -5.36174 -0.0491469)
(8.90358e-16 -4.99028 -0.16201)
(1.8918e-16 -4.61176 -0.232681)
(-2.15861e-18 -4.27067 -0.280469)
(-1.27404e-17 -3.96465 -0.304404)
(-2.91785e-18 -3.68031 -0.322686)
(-1.71667e-20 -3.39299 -0.331955)
(1.17338e-19 -3.07583 -0.34496)
(2.09378e-20 -2.76168 -0.352883)
(-1.06046e-21 -2.37843 -0.370823)
(-1.02075e-21 -2.03173 -0.376726)
(-2.00205e-22 -1.45728 -0.403695)
(3.05742e-22 -1.11857 -0.401192)
(-7.30177e-21 0.329259 -0.573527)
(3.20518e-20 1.47114 -0.331313)
(-1.45794e-19 2.27593 -0.393292)
(7.73113e-19 2.81374 -0.0365847)
(-2.65052e-18 3.1728 -0.280032)
(5.4383e-18 3.48802 0.176519)
(-2.70829e-17 -3.25901 -0.360636)
(-4.2862e-23 0.967714 1.40014)
(3.00901e-22 1.08128 1.40748)
(1.44501e-21 1.13203 1.42057)
(4.26389e-21 1.1947 1.43784)
(9.45248e-21 1.24608 1.458)
(1.46408e-20 1.29845 1.48239)
(3.49693e-21 1.34666 1.50942)
(-8.76345e-20 1.39509 1.54022)
(-4.47037e-19 1.4424 1.57396)
(-1.48872e-18 1.49036 1.61117)
(-3.72061e-18 1.5389 1.65147)
(-6.43452e-18 1.5888 1.69514)
(-3.01481e-18 1.63996 1.7432)
(3.03801e-17 1.69148 1.80025)
(1.54169e-16 1.74023 1.87835)
(4.85474e-16 1.78032 2.00115)
(1.19669e-15 1.80374 2.20237)
(2.46371e-15 1.80383 2.51313)
(4.36374e-15 1.77991 2.94018)
(6.78226e-15 1.73962 3.45104)
(9.41055e-15 1.69578 3.9819)
(1.18493e-14 1.65979 4.46488)
(1.37462e-14 1.63677 4.85367)
(1.48857e-14 1.62548 5.13214)
(1.52061e-14 1.62171 5.30753)
(1.47683e-14 1.6221 5.39847)
(1.37121e-14 1.62619 5.42546)
(1.22169e-14 1.63614 5.40565)
(1.04734e-14 1.65467 5.35124)
(8.66279e-15 1.68281 5.26995)
(6.93856e-15 1.71887 5.16657)
(5.40722e-15 1.75886 5.0448)
(4.10762e-15 1.79738 4.90875)
(2.9921e-15 1.82814 4.76405)
(1.91868e-15 1.84356 4.61817)
(6.5985e-16 1.83424 4.48006)
(-1.11428e-15 1.79478 4.36149)
(-3.95358e-15 1.73803 4.28032)
(-8.34383e-15 1.64205 4.23679)
(-1.20794e-14 1.18513 4.05511)
(-7.56311e-15 -0.139744 3.22435)
(-4.11349e-16 -1.17437 2.64082)
(1.61597e-15 -1.60425 2.60897)
(3.01798e-15 -1.89986 2.49345)
(4.70956e-15 -2.2342 2.32328)
(6.52702e-15 -2.58773 2.17217)
(8.33547e-15 -2.94966 2.03092)
(1.00359e-14 -3.31628 1.89143)
(1.15e-14 -3.68029 1.75245)
(1.25989e-14 -4.03195 1.61019)
(1.32246e-14 -4.36207 1.46104)
(1.33061e-14 -4.66324 1.30667)
(1.28485e-14 -4.93294 1.14762)
(1.19161e-14 -5.17124 0.984253)
(1.06189e-14 -5.36706 0.811511)
(9.10083e-15 -5.51162 0.635146)
(7.47055e-15 -5.60488 0.456451)
(5.76348e-15 -5.63413 0.279604)
(3.9897e-15 -5.56239 0.109988)
(2.2788e-15 -5.33939 -0.0393497)
(8.94175e-16 -4.97821 -0.153618)
(1.91506e-16 -4.60854 -0.225989)
(-1.96835e-18 -4.27413 -0.275667)
(-1.30745e-17 -3.97266 -0.301898)
(-3.04975e-18 -3.69088 -0.322935)
(-2.346e-20 -3.40471 -0.335607)
(1.25138e-19 -3.0879 -0.352661)
(2.3005e-20 -2.77287 -0.365059)
(-1.08092e-21 -2.38919 -0.387832)
(-1.14731e-21 -2.04014 -0.398019)
(-2.31628e-22 -1.46605 -0.429814)
(3.7796e-22 -1.10814 -0.430178)
(-7.33776e-21 0.320534 -0.587084)
(3.22903e-20 1.45667 -0.330896)
(-1.44506e-19 2.25627 -0.394663)
(7.35479e-19 2.80375 -0.0399294)
(-2.48427e-18 3.16109 -0.271179)
(4.91124e-18 3.49032 0.153532)
(-3.02054e-17 -3.22278 -0.318562)
(1.14256e-22 0.966792 1.44333)
(1.14892e-21 1.07909 1.45052)
(3.57622e-21 1.12852 1.46368)
(8.20576e-21 1.19053 1.48168)
(1.35118e-20 1.24101 1.50244)
(7.83239e-21 1.29265 1.52798)
(-5.49289e-20 1.3401 1.55617)
(-3.16448e-19 1.38779 1.58846)
(-1.11685e-18 1.43437 1.62377)
(-2.99277e-18 1.48159 1.66267)
(-5.88802e-18 1.52939 1.70471)
(-5.71178e-18 1.57835 1.75077)
(1.5088e-17 1.62775 1.80395)
(1.05857e-16 1.67527 1.87422)
(3.71182e-16 1.71551 1.983)
(9.79977e-16 1.74036 2.16459)
(2.12677e-15 1.74181 2.45595)
(3.93004e-15 1.71732 2.87387)
(6.31727e-15 1.67376 3.39361)
(8.99403e-15 1.62554 3.95054)
(1.15403e-14 1.58736 4.468)
(1.35661e-14 1.56731 4.88912)
(1.48231e-14 1.56501 5.19089)
(1.52318e-14 1.57461 5.37858)
(1.48495e-14 1.58932 5.47236)
(1.38209e-14 1.60491 5.49587)
(1.23344e-14 1.62112 5.46994)
(1.05913e-14 1.64069 5.41003)
(8.78315e-15 1.66698 5.326)
(7.07298e-15 1.70153 5.2233)
(5.57583e-15 1.74289 5.10506)
(4.33876e-15 1.78704 4.97426)
(3.32142e-15 1.82835 4.8355)
(2.38288e-15 1.8602 4.696)
(1.2863e-15 1.87468 4.56552)
(-2.69836e-16 1.86203 4.45493)
(-2.63882e-15 1.81598 4.37583)
(-6.34255e-15 1.75105 4.34297)
(-1.18512e-14 1.66675 4.35632)
(-1.67771e-14 1.28627 4.25016)
(-1.20539e-14 0.0355803 3.43848)
(-1.14766e-15 -1.11079 2.59033)
(2.08067e-15 -1.59016 2.50687)
(3.47909e-15 -1.87521 2.43953)
(5.00315e-15 -2.20233 2.28422)
(6.74914e-15 -2.55839 2.13165)
(8.51419e-15 -2.92171 1.99549)
(1.01678e-14 -3.2884 1.86461)
(1.15871e-14 -3.65204 1.73414)
(1.2647e-14 -4.00274 1.59975)
(1.32403e-14 -4.33184 1.4575)
(1.32978e-14 -4.63226 1.3088)
(1.28254e-14 -4.90136 1.15427)
(1.18865e-14 -5.13869 0.994172)
(1.05896e-14 -5.33366 0.823797)
(9.07619e-15 -5.47805 0.648953)
(7.45204e-15 -5.57167 0.471092)
(5.75131e-15 -5.60217 0.294434)
(3.98429e-15 -5.53339 0.124339)
(2.27935e-15 -5.31595 -0.0262199)
(8.97753e-16 -4.96235 -0.142343)
(1.93802e-16 -4.59913 -0.216941)
(-1.76197e-18 -4.26935 -0.269053)
(-1.34073e-17 -3.97081 -0.298146)
(-3.18583e-18 -3.69044 -0.322595)
(-3.08166e-20 -3.40469 -0.339444)
(1.33328e-19 -3.08784 -0.361576)
(2.52966e-20 -2.77215 -0.379557)
(-1.08615e-21 -2.38847 -0.408606)
(-1.29138e-21 -2.03821 -0.424143)
(-2.70084e-22 -1.46499 -0.46237)
(4.46991e-22 -1.09358 -0.464577)
(-7.4173e-21 0.304486 -0.622577)
(3.24407e-20 1.43609 -0.340628)
(-1.42617e-19 2.22414 -0.398499)
(6.91574e-19 2.78826 -0.0455508)
(-2.28235e-18 3.14174 -0.259292)
(4.25414e-18 3.49241 0.137729)
(-3.23533e-17 -3.19819 -0.294587)
(6.31e-22 0.965981 1.48552)
(3.02144e-21 1.07733 1.49288)
(7.1782e-21 1.1254 1.50612)
(1.2445e-20 1.18686 1.52496)
(1.01542e-20 1.23647 1.54637)
(-3.38424e-20 1.28745 1.57309)
(-2.25549e-19 1.33419 1.60248)
(-8.33829e-19 1.3812 1.63628)
(-2.35499e-18 1.42713 1.6731)
(-5.09214e-18 1.47372 1.71361)
(-6.7714e-18 1.52077 1.75757)
(4.93583e-18 1.56841 1.80739)
(6.8876e-17 1.61468 1.87062)
(2.75343e-16 1.65504 1.96606)
(7.84337e-16 1.68147 2.12708)
(1.80225e-15 1.68496 2.39516)
(3.48714e-15 1.66094 2.79756)
(5.81519e-15 1.61495 3.31987)
(8.5157e-15 1.56251 3.89934)
(1.11522e-14 1.52156 4.45115)
(1.32955e-14 1.50349 4.90676)
(1.46628e-14 1.50927 5.23505)
(1.51579e-14 1.53198 5.43877)
(1.48371e-14 1.56199 5.53919)
(1.3851e-14 1.59146 5.56239)
(1.2396e-14 1.61674 5.53189)
(1.06805e-14 1.63877 5.46595)
(8.90234e-15 1.6617 5.37712)
(7.2303e-15 1.69008 5.27274)
(5.78553e-15 1.72618 5.15638)
(4.6219e-15 1.76879 5.03017)
(3.70659e-15 1.81362 4.8973)
(2.90525e-15 1.85444 4.76387)
(1.97966e-15 1.88401 4.63956)
(6.1135e-16 1.89401 4.53662)
(-1.53834e-15 1.8747 4.46687)
(-4.7825e-15 1.81972 4.4392)
(-9.52684e-15 1.74484 4.46164)
(-1.61511e-14 1.66665 4.53109)
(-2.223e-14 1.36027 4.49719)
(-1.77374e-14 0.229264 3.73164)
(-2.84148e-15 -1.00986 2.60006)
(2.21778e-15 -1.57196 2.4047)
(3.99051e-15 -1.859 2.35797)
(5.37694e-15 -2.17582 2.2338)
(6.99211e-15 -2.53255 2.08783)
(8.69792e-15 -2.89874 1.95371)
(1.03048e-14 -3.26639 1.83119)
(1.1677e-14 -3.62955 1.71103)
(1.26956e-14 -3.97876 1.58626)
(1.32554e-14 -4.30605 1.45271)
(1.32884e-14 -4.60473 1.31135)
(1.28007e-14 -4.87217 1.16268)
(1.18551e-14 -5.10738 1.00689)
(1.05587e-14 -5.30034 0.839628)
(9.05005e-15 -5.44347 0.666767)
(7.43215e-15 -5.53641 0.489947)
(5.73789e-15 -5.56722 0.313468)
(3.97778e-15 -5.50057 0.142685)
(2.27908e-15 -5.28803 -0.0094721)
(9.00787e-16 -4.94154 -0.127937)
(1.95932e-16 -4.58431 -0.205292)
(-1.5481e-18 -4.25869 -0.260393)
(-1.37227e-17 -3.96258 -0.292927)
(-3.32048e-18 -3.68312 -0.321466)
(-3.90806e-20 -3.3974 -0.343285)
(1.41631e-19 -3.08024 -0.371535)
(2.77684e-20 -2.7639 -0.396251)
(-1.07001e-21 -2.38052 -0.433049)
(-1.45175e-21 -2.02963 -0.455113)
(-3.1641e-22 -1.45818 -0.501551)
(5.10477e-22 -1.07412 -0.504981)
(-7.46984e-21 0.288265 -0.663315)
(3.23715e-20 1.41361 -0.358892)
(-1.39672e-19 2.19715 -0.40556)
(6.4824e-19 2.77229 -0.054392)
(-2.08004e-18 3.12759 -0.247157)
(3.61387e-18 3.49061 0.126679)
(-3.56467e-17 -3.16754 -0.244175)
(1.88457e-21 0.965011 1.52858)
(6.36314e-21 1.07539 1.5364)
(1.15123e-20 1.12191 1.54978)
(1.15028e-20 1.18277 1.5696)
(-1.98514e-20 1.23139 1.59172)
(-1.62773e-19 1.28163 1.61973)
(-6.25495e-19 1.32759 1.65038)
(-1.83235e-18 1.37386 1.68571)
(-4.24196e-18 1.41908 1.72404)
(-6.79647e-18 1.46492 1.76624)
(-1.27789e-18 1.51086 1.81301)
(4.17441e-17 1.55599 1.8703)
(1.9758e-16 1.59627 1.95355)
(6.12749e-16 1.62425 2.09407)
(1.49814e-15 1.62999 2.33602)
(3.04802e-15 1.60662 2.7169)
(5.29448e-15 1.55731 3.23536)
(8.00375e-15 1.49758 3.83436)
(1.07301e-14 1.44843 4.42243)
(1.30018e-14 1.42546 4.91796)
(1.44934e-14 1.43262 5.27946)
(1.50864e-14 1.46362 5.50572)
(1.48339e-14 1.50745 5.61862)
(1.38935e-14 1.55341 5.64633)
(1.24708e-14 1.59421 5.61422)
(1.07822e-14 1.62725 5.54231)
(9.03188e-15 1.65454 5.44541)
(7.39408e-15 1.68112 5.33359)
(5.9958e-15 1.71226 5.21272)
(4.89789e-15 1.75059 5.08571)
(4.07553e-15 1.79477 4.95496)
(3.40235e-15 1.83998 4.82509)
(2.64475e-15 1.87928 4.70465)
(1.4771e-15 1.90479 4.60615)
(-4.68e-16 1.90817 4.54351)
(-3.50746e-15 1.88033 4.52707)
(-7.83513e-15 1.81566 4.55935)
(-1.36548e-14 1.73135 4.6381)
(-2.12021e-14 1.65961 4.75593)
(-2.82058e-14 1.43086 4.78481)
(-2.43355e-14 0.451144 4.09051)
(-5.67671e-15 -0.856988 2.67939)
(1.84194e-15 -1.53538 2.31824)
(4.38733e-15 -1.84337 2.25827)
(5.82604e-15 -2.15094 2.16235)
(7.28294e-15 -2.50459 2.03776)
(8.88855e-15 -2.87291 1.90795)
(1.04425e-14 -3.24254 1.79148)
(1.17688e-14 -3.60565 1.68242)
(1.27444e-14 -3.95343 1.5691)
(1.32695e-14 -4.279 1.44591)
(1.32777e-14 -4.57602 1.3136)
(1.27746e-14 -4.84187 1.17227)
(1.18222e-14 -5.07507 1.02193)
(1.05261e-14 -5.26619 0.858656)
(9.02233e-15 -5.40824 0.688353)
(7.41076e-15 -5.50073 0.51287)
(5.72301e-15 -5.53205 0.336623)
(3.96992e-15 -5.46776 0.164984)
(2.27774e-15 -5.26042 0.0108741)
(9.03073e-16 -4.92144 -0.110378)
(1.97817e-16 -4.5706 -0.190961)
(-1.3322e-18 -4.24948 -0.249563)
(-1.40137e-17 -3.95602 -0.286065)
(-3.45117e-18 -3.67755 -0.319298)
(-4.81695e-20 -3.39179 -0.346793)
(1.49944e-19 -3.0742 -0.382073)
(3.04143e-20 -2.75699 -0.414554)
(-1.02678e-21 -2.37382 -0.460375)
(-1.62924e-21 -2.02197 -0.490056)
(-3.72096e-22 -1.45282 -0.545985)
(5.69286e-22 -1.05583 -0.550217)
(-7.50666e-21 0.268301 -0.708504)