/*--------------------------------*- C++ -*----------------------------------*\
| =========                 |                                                 |
| \\      /  F ield         | OpenFOAM: The Open Source CFD Toolbox           |
|  \\    /   O peration     | Version:  4.1                                   |
|   \\  /    A nd           | Web:      www.OpenFOAM.org                      |
|    \\/     M anipulation  |                                                 |
\*---------------------------------------------------------------------------*/
FoamFile
{
    version     2.0;
    format      ascii;
    class       volScalarField;
    location    "15";
    object      p;
}
// * * * * * * * * * * * * * * * * * * * * * * * * * * * * * * * * * * * * * //

dimensions      [0 2 -2 0 0 0 0];

internalField   nonuniform List<scalar> 
6785
(
593.595
515.132
468.338
414.999
368.328
323.308
281.346
241.577
203.961
168.392
134.156
101.097
73.7159
45.5756
3.99998
-15.4924
-34.0356
-24.1481
-31.6877
-31.1818
-33.866
-34.6476
-35.2908
-34.9127
-33.5919
-31.3007
-28.094
-23.035
-18.3328
-16.7323
-13.6466
-19.1475
-11.0091
-16.7581
-14.2156
-16.7095
-17.285
-19.1658
-20.8633
-22.9796
-25.1608
-27.0564
-27.6977
-27.8297
-26.5686
-7.1963
-10.2744
-7.34847
-12.7671
-11.2953
-14.7127
-15.3882
-17.2731
-18.4414
-19.6433
-20.3978
-20.7378
-19.4541
-17.934
-14.9708
1.44674
0.747709
4.65197
2.60809
6.70212
6.44402
9.00236
10.4433
12.4958
14.5235
16.7663
18.9319
21.4556
23.1685
25.7693
28.209
28.8035
32.1793
31.0608
34.545
34.4489
36.5815
37.5797
38.9971
40.3066
41.6426
42.8582
44.2469
45.2198
46.6453
46.2538
47.2298
49.4973
48.9081
51.5206
51.4957
53.2886
53.6849
54.3183
54.1532
53.7173
53.407
53.6148
54.158
54.738
58.4268
57.9327
59.1182
57.5864
58.7732
57.2868
57.3388
55.8782
54.778
53.2346
51.9329
50.845
50.0912
50.0619
48.8301
45.7207
41.8048
42.0306
38.9959
38.7663
36.5028
35.8054
34.0543
32.7847
30.8307
28.7687
26.795
25.8937
24.9898
21.143
-4.80409
-10.3718
-11.5505
-15.8474
-18.0507
-22.2206
-25.2928
-29.0763
-31.9829
-34.6395
-36.266
-36.8017
-37.1344
-38.0095
-37.9966
-35.8507
-38.5047
-38.2964
-40.5779
-40.7654
-42.6095
-43.1522
-43.938
-43.7119
-43.018
-41.6781
-40.0625
-38.1738
-36.6608
-34.054
-17.7866
-16.2325
-14.4568
-13.9508
-12.028
-11.1379
-9.55025
-8.2952
-6.87053
-5.54285
-4.17011
-2.99603
-1.45154
-0.234797
2.67273
13.6311
15.5929
16.782
17.3686
18.6062
19.1172
19.9894
20.6745
21.4473
22.213
23.0851
23.9119
24.9973
25.8205
27.1123
29.1123
31.8233
31.251
30.8499
30.9392
31.1147
31.7027
32.1821
32.7669
33.2592
33.711
34.0143
34.351
34.5167
34.8513
77.8377
75.7322
68.7469
60.53
54.3537
49.6269
44.806
40.8842
37.9115
35.3557
33.211
31.6667
30.3507
29.372
27.3132
42.7566
42.7521
44.803
42.5829
42.7477
43.1563
42.8021
42.1855
42.1518
41.8786
41.9923
41.2317
41.2018
41.3766
40.5556
40.4615
40.6914
40.8607
39.7596
40.4352
40.6524
39.7479
39.7197
40.5579
40.7979
39.983
40.0072
40.8509
41.1982
40.3377
41.2161
41.4983
40.9933
41.0357
41.6272
41.9265
41.5247
41.9246
42.1991
42.0006
42.017
42.2195
42.3536
42.2236
42.2075
42.2935
42.2912
42.1831
42.2291
42.2212
42.1771
42.167
42.1964
42.2712
42.2571
42.2456
42.2604
42.2985
42.3133
42.2514
42.4373
42.4023
42.5772
42.4072
42.5542
43.04
43.3084
41.9099
40.6674
42.3543
43.1835
36.0352
32.9367
37.0945
39.5614
16.9693
27.6194
32.771
-9.88837
3.49817
10.1637
7.73954
11.892
3.99476
7.16902
11.2126
11.4273
12.1793
12.8887
13.5929
13.9744
17.1364
18.9892
14.6097
17.221
18.5915
20.6339
21.7985
22.9704
23.5426
26.2024
33.0503
25.7715
28.0594
27.9477
29.3534
31.6028
32.9355
33.1024
33.1795
33.1399
41.5506
35.1716
36.0111
35.5661
35.0625
35.8145
37.4271
36.8557
33.8309
39.8921
38.0918
39.7508
39.648
38.4724
37.4558
36.265
37.5998
34.3728
38.5646
43.5071
40.6622
41.3017
41.3993
39.3372
37.7265
35.9256
29.5211
38.8986
43.2144
37.2678
34.4422
30.2059
27.8047
25.0148
22.3155
19.9426
14.5176
11.0322
22.212
16.7672
15.6365
13.4351
10.5963
3.78524
1.77708
3.87284
-9.56839
8.87224
4.54535
1.29885
10.1085
2.71079
6.60749
5.26392
7.57261
10.9792
6.02735
8.90961
11.0844
7.70637
9.10724
8.24039
9.27995
11.4527
8.25309
9.43955
8.49026
9.48834
11.3221
7.84845
9.59007
10.9392
8.27906
9.19496
8.29414
9.07543
10.6379
7.92733
8.83381
7.87649
8.70437
10.1025
7.10773
8.52817
9.55478
7.26336
7.99004
7.16679
7.77729
8.97666
6.72
7.41691
6.60377
7.2137
8.24793
5.86948
6.9209
7.62331
5.84341
6.34732
5.70011
6.09375
6.85188
5.19744
5.6413
5.03197
5.38618
5.93148
4.32572
4.92961
5.19111
4.01797
4.24363
3.77771
3.9172
4.11358
3.0955
3.22213
2.79042
2.84998
2.83558
1.90482
2.03032
1.83381
1.08897
0.989273
0.582557
0.500921
0.410538
0.00108766
0.00175641
0.00286384
0.0036126
0.00449284
0.00526418
0.00606364
0.00681904
0.00756419
0.00827362
0.00894997
0.00957992
0.0101578
0.0106755
0.0111284
0.0115145
0.0118352
0.0120966
0.0123091
0.0124877
0.0126509
0.0128181
0.0130056
0.0132227
0.0134705
0.0137445
0.0140435
0.0143823
0.0148042
0.0153891
0.0162456
0.0174781
0.019119
0.0210576
0.0230782
0.024987
0.0265548
0.0275726
0.0279094
0.0274882
0.0263675
0.0247161
0.0227755
0.020756
0.0186999
0.0164165
0.0136178
0.0100966
0.00565051
-2.82503e-05
-0.00754768
-0.0177727
-0.0304165
-0.0433247
-0.0675037
-0.133063
-0.0327264
-0.554499
-0.465128
-0.605446
-0.706023
-0.770007
-0.828063
-0.829232
-0.758328
-0.656885
-0.482413
-0.309748
-0.118635
0.0556438
0.210012
0.322843
0.419467
0.442131
0.494445
0.477595
0.436538
0.57045
0.359953
0.00309199
0.00489253
0.00794792
0.0100553
0.0124541
0.0145656
0.0167146
0.0187355
0.0207023
0.0225566
0.0242991
0.025897
0.0273325
0.0285847
0.0296415
0.0304983
0.0311614
0.031649
0.0319923
0.0322358
0.0324331
0.0326396
0.0329018
0.0332459
0.033673
0.0341693
0.0347304
0.0353975
0.0362936
0.0376449
0.0397592
0.0429309
0.0472476
0.0523842
0.0577245
0.0627373
0.0667953
0.0693353
0.0700157
0.0686405
0.0653977
0.0607951
0.0555682
0.0503747
0.045331
0.0396775
0.032027
0.0209308
0.00510576
-0.016073
-0.0424912
-0.0734386
-0.105649
-0.133408
-0.166938
-0.228795
-0.0454468
-0.748225
-0.666355
-0.969776
-1.22802
-1.40972
-1.55884
-1.58561
-1.46239
-1.27377
-0.938923
-0.599513
-0.233715
0.107491
0.381451
0.610703
0.757484
0.856208
0.915422
0.95753
0.949869
1.05369
0.9898
0.0048233
0.00793222
0.0131588
0.0167549
0.0208613
0.0244734
0.0281575
0.0316252
0.0350075
0.0382032
0.0412151
0.043987
0.0464896
0.0486871
0.0505588
0.0520967
0.0533105
0.0542305
0.0549089
0.0554199
0.0558535
0.0563037
0.0568487
0.0575327
0.058358
0.0593001
0.0603507
0.0615779
0.0631879
0.065563
0.0692255
0.0746789
0.0820765
0.0908687
0.100014
0.108614
0.1156
0.120015
0.121268
0.119018
0.11357
0.105775
0.096876
0.0880069
0.0794254
0.0699822
0.0575675
0.0400188
0.0153529
-0.0176324
-0.0593588
-0.109552
-0.164253
-0.217257
-0.279119
-0.36501
-0.211122
-0.773095
-0.764511
-1.14448
-1.48538
-1.72337
-1.91797
-1.95294
-1.8006
-1.56687
-1.14988
-0.729387
-0.277214
0.144524
0.476952
0.760145
0.931393
1.05585
1.12872
1.16573
1.2156
1.23223
1.35382
0.00646306
0.0108419
0.0181222
0.023172
0.0289052
0.0339585
0.0390996
0.0439397
0.0486549
0.0531082
0.0573018
0.0611584
0.0646367
0.067687
0.0702805
0.0724061
0.0740774
0.0753369
0.0762576
0.0769434
0.0775208
0.0781215
0.0788554
0.0797845
0.0809104
0.082197
0.0836295
0.0852999
0.0874944
0.0907481
0.0957984
0.103362
0.11366
0.125916
0.138663
0.150651
0.160383
0.16653
0.168259
0.165093
0.157455
0.14654
0.134112
0.121787
0.109955
0.0970043
0.0799721
0.0558325
0.0218303
-0.0236519
-0.0810623
-0.149772
-0.224863
-0.300534
-0.381375
-0.468026
-0.475213
-0.86269
-0.95499
-1.40331
-1.84576
-2.14824
-2.39611
-2.43812
-2.24539
-1.95155
-1.42789
-0.902742
-0.338377
0.187248
0.599658
0.95173
1.162
1.31288
1.40787
1.4331
1.52996
1.4929
1.70881
0.00794356
0.0136605
0.0230066
0.0295494
0.0369418
0.0434729
0.0501064
0.056356
0.0624415
0.0681912
0.0736055
0.0785868
0.0830808
0.0870241
0.0903791
0.0931314
0.0952983
0.096934
0.0981323
0.0990272
0.0997822
0.100568
0.101527
0.10274
0.104206
0.105877
0.107727
0.10987
0.11267
0.116818
0.123277
0.132993
0.146272
0.162095
0.178559
0.19406
0.206653
0.21463
0.216903
0.21284
0.202978
0.188858
0.172773
0.156843
0.141586
0.124917
0.103061
0.0722652
0.0291902
-0.028069
-0.100072
-0.18619
-0.281479
-0.381817
-0.486463
-0.598421
-0.830565
-0.887502
-1.16499
-1.67908
-2.23834
-2.61425
-2.92353
-2.97356
-2.7367
-2.37698
-1.73545
-1.09509
-0.407595
0.232161
0.730609
1.15927
1.40961
1.59446
1.70841
1.73138
1.87165
1.78549
2.18121
0.00931851
0.016396
0.0277496
0.0357901
0.0448194
0.0528214
0.0609305
0.0685768
0.0760162
0.0830463
0.0896642
0.0957525
0.101244
0.106061
0.110157
0.113515
0.116155
0.118144
0.119596
0.120675
0.121582
0.122529
0.12369
0.125165
0.126951
0.128982
0.131221
0.133795
0.137146
0.142122
0.149918
0.161734
0.17797
0.197354
0.217528
0.236542
0.251993
0.2618
0.264609
0.25963
0.247504
0.230121
0.21032
0.190739
0.172033
0.151609
0.124877
0.087408
0.0353652
-0.0333713
-0.119444
-0.22225
-0.337214
-0.462037
-0.591061
-0.737428
-1.1452
-0.805019
-1.38472
-1.94477
-2.61952
-3.06534
-3.43535
-3.48927
-3.20806
-2.78361
-2.02651
-1.27603
-0.470181
0.27802
0.857463
1.35893
1.64547
1.86278
1.99318
2.01231
2.19511
2.05835
2.51226
0.0105817
0.0190675
0.0323912
0.0419494
0.0526139
0.0620986
0.0716886
0.0807408
0.0895413
0.0978606
0.10569
0.112894
0.11939
0.125088
0.129932
0.133901
0.137019
0.139363
0.141069
0.142332
0.14339
0.144497
0.145863
0.147605
0.149718
0.152114
0.154738
0.15773
0.161602
0.167361
0.176454
0.190356
0.20958
0.232586
0.256537
0.279142
0.297521
0.309219
0.312598
0.306696
0.292245
0.271476
0.247788
0.224366
0.202001
0.177572
0.145694
0.101378
0.0404266
-0.0394262
-0.13899
-0.257925
-0.392518
-0.542332
-0.699126
-0.881817
-1.3213
-0.701876
-1.65391
-2.22514
-3.01514
-3.53036
-3.96275
-4.01579
-3.68694
-3.19466
-2.31817
-1.45654
-0.530843
0.325875
0.986362
1.56057
1.88262
2.13186
2.27751
2.29124
2.51328
2.3288
2.87704
0.011752
0.0216842
0.0369246
0.0480129
0.0602982
0.0712685
0.0823336
0.0927909
0.102949
0.112555
0.121593
0.129909
0.137407
0.143981
0.149567
0.15414
0.157727
0.160416
0.162364
0.163796
0.164992
0.166246
0.167806
0.169809
0.172243
0.174997
0.17799
0.181369
0.185711
0.192188
0.202509
0.218461
0.240695
0.267371
0.295154
0.321416
0.342777
0.356413
0.360384
0.353534
0.336662
0.312332
0.284521
0.256993
0.230694
0.201954
0.164635
0.11332
0.0435777
-0.0470188
-0.159596
-0.294308
-0.448617
-0.623702
-0.810754
-1.02886
-1.42165
-0.683713
-1.93692
-2.53239
-3.43247
-4.01874
-4.51699
-4.5639
-4.18298
-3.61811
-2.61606
-1.64008
-0.590939
0.376234
1.11889
1.76709
2.12404
2.40632
2.56508
2.57445
2.83161
2.60138
3.21583
0.0128352
0.0242577
0.0413639
0.0539973
0.0678918
0.0803539
0.0928921
0.104758
0.116275
0.127171
0.13742
0.14685
0.155351
0.162802
0.16913
0.174305
0.178356
0.181384
0.183565
0.185157
0.186479
0.187871
0.18962
0.191882
0.194638
0.197748
0.2011
0.204837
0.209599
0.216722
0.228202
0.246174
0.271454
0.301874
0.33357
0.363582
0.388006
0.403651
0.408243
0.400404
0.380965
0.352805
0.320503
0.288461
0.257807
0.224304
0.181143
0.122658
0.0442658
-0.0567073
-0.181913
-0.332267
-0.506664
-0.707774
-0.92809
-1.18339
-1.52475
-0.872736
-2.20779
-2.8782
-3.86954
-4.5285
-5.09625
-5.13008
-4.69233
-4.04992
-2.91649
-1.82401
-0.64888
0.429347
1.25419
1.9767
2.36704
2.68329
2.85225
2.85856
3.14632
2.87633
3.5022
0.013841
0.0267958
0.045713
0.0599044
0.0753927
0.0893506
0.103357
0.116633
0.129507
0.141694
0.153153
0.163699
0.173202
0.181529
0.188595
0.194367
0.198876
0.202233
0.204636
0.206372
0.207806
0.209323
0.211252
0.213768
0.216846
0.220308
0.224005
0.228067
0.23319
0.240875
0.253428
0.273381
0.30175
0.335997
0.371697
0.405561
0.433136
0.450864
0.456098
0.447191
0.424954
0.392567
0.355266
0.318171
0.282619
0.243822
0.194434
0.128722
0.0419463
-0.0689859
-0.206486
-0.372492
-0.567534
-0.795745
-1.05188
-1.34667
-1.67271
-1.30557
-2.47005
-3.27734
-4.32927
-5.06366
-5.70557
-5.71739
-5.21718
-4.49117
-3.21971
-2.00827
-0.70436
0.485458
1.39249
2.18949
2.61162
2.96276
3.13869
3.14347
3.45721
3.14827
3.83285
0.0147761
0.0293063
0.0499798
0.0657421
0.0828086
0.0982664
0.113737
0.128424
0.142655
0.156135
0.168806
0.180469
0.190975
0.200178
0.20798
0.214345
0.219305
0.222981
0.225592
0.227459
0.228989
0.230617
0.232717
0.235486
0.238886
0.242699
0.246727
0.25108
0.256498
0.264651
0.278179
0.300074
0.331585
0.369757
0.409568
0.447407
0.478237
0.498128
0.504003
0.493878
0.468481
0.431312
0.388357
0.345542
0.304445
0.259795
0.203893
0.131049
0.0362603
-0.0842019
-0.233736
-0.415549
-0.632
-0.888779
-1.1831
-1.52097
-1.88263
-1.90562
-2.66195
-3.728
-4.8159
-5.62984
-6.35227
-6.33083
-5.76138
-4.94432
-3.52694
-2.19343
-0.757321
0.544878
1.53435
2.40609
2.85827
3.24556
3.4248
3.43008
3.76491
3.41632
4.14562
0.015647
0.0317951
0.0541697
0.071515
0.0901424
0.107103
0.124032
0.140132
0.155719
0.170493
0.184378
0.197159
0.208668
0.218745
0.227281
0.234234
0.239637
0.243623
0.246427
0.248407
0.250015
0.251739
0.253999
0.257018
0.260743
0.264907
0.269253
0.273858
0.279498
0.288012
0.302403
0.326191
0.360909
0.403119
0.447164
0.489115
0.523311
0.545434
0.551891
0.540273
0.511184
0.468512
0.419126
0.369839
0.322524
0.271562
0.20906
0.129378
0.0270566
-0.102487
-0.263843
-0.461716
-0.700484
-0.987564
-1.32235
-1.70771
-2.13785
-2.46551
-2.7315
-4.22997
-5.33358
-6.23178
-7.04345
-6.9746
-6.32788
-5.41085
-3.83858
-2.37942
-0.80738
0.607998
1.67998
2.62666
3.10707
3.53183
3.7103
3.71875
4.0689
3.6901
4.41039
0.0164591
0.0342676
0.0582889
0.0772284
0.0973986
0.115865
0.134247
0.151761
0.168703
0.184773
0.199872
0.213774
0.226287
0.237238
0.246505
0.254041
0.259879
0.264162
0.267145
0.269219
0.270884
0.272687
0.275097
0.278363
0.282416
0.286932
0.291584
0.296402
0.302185
0.310939
0.326062
0.351692
0.389693
0.436068
0.484488
0.5307
0.568373
0.592759
0.599625
0.586055
0.552545
0.503518
0.446871
0.390353
0.336236
0.278714
0.209769
0.123713
0.0144079
-0.123778
-0.29681
-0.511088
-0.7732
-1.0925
-1.47021
-1.90756
-2.41446
-2.85876
-2.79042
-4.81676
-5.88888
-6.87391
-7.78728
-7.65366
-6.92002
-5.89239
-4.1551
-2.56645
-0.854234
0.675194
1.8302
2.85147
3.35797
3.82166
3.99497
4.00957
4.3693
3.95649
4.72394
0.0172174
0.0367284
0.0623422
0.0828867
0.104581
0.124556
0.144383
0.163312
0.181609
0.198977
0.215292
0.230316
0.243834
0.255659
0.265654
0.273767
0.280032
0.284598
0.287743
0.289891
0.291592
0.293453
0.296002
0.299513
0.303898
0.308769
0.313716
0.318706
0.324546
0.333403
0.349111
0.37652
0.417894
0.46858
0.521531
0.572163
0.613395
0.639973
0.646885
0.630669
0.591833
0.535553
0.470868
0.40648
0.345191
0.281136
0.206135
0.114299
-0.00140224
-0.147813
-0.332428
-0.56353
-0.85009
-1.20361
-1.62699
-2.12132
-2.70766
-3.18704
-2.9735
-5.46418
-6.49238
-7.55952
-8.59326
-8.37406
-7.54192
-6.39094
-4.47742
-2.75499
-0.897604
0.746788
1.98622
3.0809
3.61112
4.11537
4.27849
4.30289
4.66604
4.22572
4.99051
0.0179259
0.0391812
0.0663347
0.0884941
0.111693
0.133178
0.154445
0.174789
0.194439
0.213107
0.23064
0.246788
0.261313
0.274011
0.284731
0.293416
0.300098
0.304935
0.308222
0.310421
0.312133
0.314033
0.316706
0.320461
0.325186
0.330418
0.33565
0.34077
0.346572
0.35538
0.371501
0.400621
0.445474
0.500632
0.558286
0.61348
0.658276
0.686791
0.693112
0.673312
0.628156
0.563827
0.490535
0.417881
0.34933
0.279031
0.198531
0.101585
-0.0199162
-0.17417
-0.370337
-0.618743
-0.930903
-1.32069
-1.79275
-2.34986
-3.02001
-3.52629
-3.40231
-6.1104
-7.15618
-8.29109
-9.4722
-9.14289
-8.19839
-6.90867
-4.80643
-2.94513
-0.937084
0.823213
2.14852
3.31503
3.86859
4.41261
4.56101
4.59893
4.9589
4.49156
5.25506
0.0185881
0.0416297
0.0702706
0.0940544
0.118738
0.141733
0.164432
0.186192
0.207195
0.227165
0.245919
0.263194
0.278726
0.292297
0.30374
0.31299
0.320079
0.325172
0.328582
0.330807
0.332504
0.334418
0.337202
0.341199
0.346274
0.351875
0.357385
0.362592
0.368258
0.376845
0.393181
0.423935
0.472391
0.532198
0.594729
0.654573
0.702769
0.732671
0.737442
0.712934
0.660542
0.587677
0.505567
0.424553
0.348913
0.272857
0.187526
0.0861763
-0.040547
-0.202305
-0.410046
-0.676273
-1.0152
-1.44328
-1.96722
-2.5931
-3.35077
-3.9022
-4.09251
-6.73291
-7.89545
-9.07135
-10.4362
-9.96833
-8.89514
-7.448
-5.14271
-3.1368
-0.972263
0.904931
2.31748
3.55401
4.1323
4.71333
4.84199
4.89784
5.24805
4.75298
5.53848
0.0192073
0.0440766
0.0741539
0.099571
0.125719
0.150225
0.174349
0.197525
0.219879
0.241154
0.26113
0.279535
0.296077
0.310521
0.322683
0.332493
0.339978
0.345311
0.348823
0.351046
0.352699
0.354601
0.35748
0.36172
0.367156
0.373139
0.378922
0.384175
0.389596
0.397773
0.414096
0.446395
0.498601
0.563243
0.630798
0.695244
0.746386
0.776738
0.77869
0.748325
0.688126
0.606765
0.516039
0.426817
0.34445
0.263255
0.173816
0.0687698
-0.0626275
-0.231599
-0.450972
-0.735551
-1.10239
-1.57071
-2.14974
-2.84987
-3.69741
-4.33361
-5.0417
-7.31338
-8.72462
-9.90311
-11.4979
-10.8596
-9.63882
-8.012
-5.48694
-3.32995
-1.00274
0.992409
2.49356
3.79809
4.40221
5.01732
5.12125
5.20047
5.53341
5.021
5.78928
0.0197857
0.0465245
0.0779883
0.105047
0.132639
0.158656
0.184196
0.208788
0.232493
0.255074
0.276275
0.295814
0.313367
0.328684
0.341563
0.351926
0.359797
0.365354
0.368944
0.371137
0.372713
0.374574
0.377533
0.382016
0.387828
0.394209
0.400265
0.405522
0.410586
0.418138
0.434187
0.467932
0.524053
0.593708
0.666349
0.735086
0.788298
0.817738
0.815408
0.778305
0.710398
0.6212
0.522375
0.425234
0.336608
0.250959
0.158156
0.0501054
-0.085454
-0.261383
-0.492464
-0.79591
-1.19175
-1.70212
-2.33925
-3.11802
-4.05675
-4.82307
-6.13211
-7.76503
-9.62899
-10.7904
-12.6708
-11.8268
-10.437
-8.60436
-5.83998
-3.52461
-1.0281
1.08613
2.67717
4.04753
4.67838
5.32347
5.40299
5.50542
5.81488
5.28307
6.04288
0.0203256
0.0489759
0.081777
0.110485
0.1395
0.167027
0.193976
0.219982
0.245037
0.268927
0.291357
0.312033
0.3306
0.34679
0.360383
0.371292
0.379538
0.385301
0.388944
0.391075
0.392539
0.394329
0.397349
0.402076
0.408283
0.415082
0.421415
0.426638
0.431227
0.437916
0.453392
0.488469
0.548688
0.623482
0.701067
0.77337
0.827276
0.85406
0.846062
0.802051
0.727397
0.631516
0.525235
0.420483
0.326112
0.236728
0.141306
0.0309209
-0.108318
-0.290966
-0.533822
-0.856601
-1.28242
-1.83647
-2.5343
-3.39474
-4.42553
-5.34742
-7.09144
-8.02836
-10.596
-11.7372
-13.9691
-12.8808
-11.2983
-9.22921
-6.20281
-3.72075
-1.04792
1.18661
2.86871
4.30257
4.96109
5.63125
5.69089
5.81076
6.09263
5.5379
6.32305
0.0208286
0.0514326
0.0855227
0.115887
0.146304
0.175339
0.203688
0.231109
0.257512
0.282715
0.306376
0.328194
0.347778
0.364842
0.379145
0.390594
0.399202
0.405153
0.408824
0.410859
0.412173
0.413856
0.416917
0.421892
0.428515
0.435759
0.442379
0.447533
0.451525
0.457085
0.471639
0.507918
0.572409
0.652328
0.734364
0.808978
0.861673
0.883862
0.86941
0.819403
0.739722
0.63852
0.525371
0.413256
0.31367
0.221288
0.123989
0.0119247
-0.130521
-0.319644
-0.574306
-0.916815
-1.37347
-1.97256
-2.7331
-3.67688
-4.80034
-5.87829
-7.75395
-8.25315
-11.6427
-12.7443
-15.4092
-14.033
-12.232
-9.89117
-6.57655
-3.91835
-1.06175
1.29435
3.06855
4.56346
5.25046
5.94057
5.98472
6.11703
6.36667
5.80395
6.57551
0.021296
0.0538966
0.0892281
0.121255
0.153054
0.183595
0.213335
0.242169
0.26992
0.296438
0.321335
0.344298
0.364902
0.38284
0.397852
0.409833
0.418792
0.424912
0.428583
0.430485
0.431607
0.433146
0.436225
0.441451
0.448517
0.456238
0.463161
0.468218
0.471487
0.475625
0.488854
0.526167
0.595047
0.679797
0.765299
0.840368
0.889472
0.905446
0.884956
0.830952
0.748343
0.643109
0.523512
0.404183
0.299914
0.20529
0.106869
-0.00621546
-0.151379
-0.346701
-0.613149
-0.975715
-1.46392
-2.1091
-2.93371
-3.96136
-5.17888
-6.40831
-8.26548
-8.62026
-12.6729
-13.8273
-17.01
-15.2956
-13.2486
-10.5952
-6.96269
-4.11738
-1.06915
1.40987
3.27705
4.83046
5.54649
6.25125
6.28422
6.42462
6.63665
6.05591
6.83503
0.0217286
0.0563694
0.0928952
0.126591
0.15975
0.191794
0.222916
0.253163
0.28226
0.310096
0.336233
0.360348
0.381976
0.400789
0.416506
0.429012
0.43831
0.444579
0.44822
0.449951
0.450834
0.452187
0.455261
0.460743
0.468283
0.476519
0.483769
0.488708
0.491129
0.493515
0.504945
0.543063
0.616282
0.705135
0.792554
0.865552
0.908569
0.91785
0.893183
0.837828
0.754347
0.646128
0.520284
0.393777
0.28537
0.189298
0.0905441
-0.0228691
-0.17022
-0.371423
-0.649599
-1.03251
-1.55288
-2.2449
-3.13427
-4.24563
-5.55991
-6.93725
-8.74043
-9.36597
-13.6452
-15.0247
-18.7901
-16.6808
-14.359
-11.3467
-7.36309
-4.31784
-1.06965
1.5337
3.49454
5.10379
5.84915
6.56308
6.58925
6.7343
6.9024
6.31253
7.10325
0.022127
0.0588526
0.096526
0.131897
0.166393
0.199938
0.232433
0.26409
0.294532
0.32369
0.351072
0.376344
0.398999
0.418688
0.435108
0.448133
0.457756
0.464155
0.467735
0.469252
0.469848
0.470967
0.47401
0.479754
0.487804
0.496602
0.504212
0.509022
0.510474
0.510737
0.519799
0.55835
0.635551
0.727293
0.814399
0.88219
0.917436
0.921314
0.895357
0.84135
0.758749
0.648289
0.516167
0.382403
0.270438
0.17378
0.0755539
-0.0374331
-0.186383
-0.393126
-0.682998
-1.08659
-1.6397
-2.37911
-3.33348
-4.52823
-5.94278
-7.46641
-9.27094
-10.5641
-14.5006
-16.3494
-20.7686
-18.2007
-15.5751
-12.1508
-7.78009
-4.51975
-1.06278
1.66637
3.72131
5.38365
6.15833
6.87586
6.89939
7.04573
7.16458
6.56929
7.33825
0.0224916
0.0613476
0.100122
0.137173
0.172985
0.208027
0.241884
0.274949
0.306737
0.33722
0.365853
0.392287
0.415974
0.436541
0.45366
0.467197
0.477134
0.48364
0.487128
0.488385
0.488639
0.489474
0.492456
0.498469
0.507072
0.516487
0.524499
0.529184
0.529549
0.527268
0.533245
0.5716
0.652058
0.744955
0.828567
0.888146
0.915868
0.917184
0.893068
0.842753
0.762393
0.650138
0.511478
0.370272
0.2554
0.159125
0.0623964
-0.0493288
-0.199249
-0.411237
-0.712912
-1.13772
-1.72426
-2.51154
-3.53106
-4.80924
-6.32828
-8.00148
-9.90236
-11.9581
-15.0555
-17.7856
-22.9782
-19.8684
-16.9092
-13.0131
-8.21633
-4.7232
-1.04806
1.80837
3.95763
5.67021
6.47385
7.18938
7.21416
7.35755
7.42519
6.8268
7.61446
0.0228222
0.0638557
0.103684
0.14242
0.179527
0.21606
0.25127
0.285741
0.318872
0.350685
0.380574
0.408178
0.432903
0.454349
0.472165
0.486206
0.496443
0.503037
0.506398
0.507348
0.507201
0.507695
0.510583
0.516874
0.526077
0.536173
0.544643
0.549221
0.548391
0.543064
0.544995
0.582176
0.664933
0.756327
0.832465
0.882508
0.905161
0.907355
0.887826
0.843052
0.765928
0.652058
0.506373
0.357447
0.240425
0.145656
0.0515355
-0.0580183
-0.208303
-0.425426
-0.739341
-1.18627
-1.80722
-2.64306
-3.72812
-5.09053
-6.71907
-8.54914
-10.6067
-13.0656
-15.4215
-19.334
-25.4493
-21.6993
-18.3742
-13.9391
-8.6743
-4.92835
-1.02501
1.96023
4.20373
5.96359
6.79548
7.50341
7.53294
7.66946
7.68439
7.10272
7.86357
0.0231186
0.0663781
0.107214
0.14764
0.186017
0.224037
0.260589
0.296464
0.330938
0.364084
0.395235
0.424017
0.449785
0.472112
0.490624
0.505162
0.515687
0.522346
0.525546
0.526136
0.525523
0.525614
0.528371
0.534951
0.544811
0.55566
0.564656
0.569163
0.567032
0.558016
0.554559
0.58944
0.673193
0.758816
0.824223
0.866234
0.887517
0.893675
0.880855
0.843014
0.769826
0.654293
0.500864
0.343848
0.225591
0.133642
0.0433942
-0.063056
-0.213258
-0.435808
-0.762979
-1.23352
-1.89035
-2.77581
-3.92723
-5.37551
-7.11958
-9.11747
-11.3653
-13.9156
-15.8914
-20.8771
-28.2138
-23.7127
-19.9838
-14.9345
-9.15573
-5.13542
-0.993141
2.12241
4.4598
6.26384
7.12291
7.81772
7.85493
7.98119
7.94113
7.37804
8.08976
0.0233802
0.0689159
0.110711
0.152831
0.192457
0.231957
0.269841
0.307116
0.342932
0.377416
0.409837
0.439804
0.466622
0.489833
0.509036
0.524065
0.534865
0.541568
0.54457
0.544745
0.543597
0.543215
0.5458
0.552681
0.56326
0.574949
0.584551
0.589039
0.585479
0.571839
0.561343
0.593085
0.675059
0.749592
0.803986
0.841727
0.865196
0.87763
0.873059
0.843188
0.774425
0.656979
0.494834
0.329269
0.21089
0.123303
0.038322
-0.0641868
-0.214244
-0.443211
-0.785492
-1.28192
-1.97663
-2.91315
-4.13211
-5.66852
-7.53531
-9.71603
-12.1792
-14.7476
-16.9168
-22.4581
-31.3948
-25.9313
-21.7507
-16.0043
-9.66143
-5.34474
-0.951981
2.29538
4.72598
6.57098
7.45579
8.13204
8.17924
8.29202
8.19674
7.64793
8.3633
0.0236062
0.0714702
0.114177
0.157994
0.198846
0.239819
0.279024
0.317695
0.354853
0.390679
0.424378
0.45554
0.483413
0.507511
0.527404
0.542916
0.55398
0.560705
0.563471
0.563174
0.561413
0.56048
0.562848
0.570043
0.581414
0.594038
0.604337
0.608859
0.603621
0.583959
0.565206
0.592811
0.667493
0.727312
0.77408
0.811719
0.840014
0.860291
0.865066
0.843971
0.77998
0.660177
0.48805
0.313381
0.196234
0.11479
0.0365278
-0.0615076
-0.212068
-0.449466
-0.809749
-1.33513
-2.07011
-3.05913
-4.34685
-5.97408
-7.97166
-10.3517
-13.0503
-15.7403
-18.9047
-24.228
-35.1514
-28.3778
-23.6858
-17.1518
-10.1916
-5.55658
-0.901065
2.47957
5.00238
6.88492
7.79373
8.44602
8.50489
8.60123
8.45369
7.94067
8.60786
0.0237955
0.0740421
0.117612
0.16313
0.205183
0.247622
0.288135
0.328199
0.366698
0.403871
0.438856
0.471223
0.50016
0.525147
0.545728
0.561717
0.573032
0.579757
0.582249
0.581417
0.57896
0.577392
0.57949
0.587014
0.599257
0.612925
0.624012
0.628568
0.621027
0.593721
0.566687
0.586688
0.647459
0.693275
0.737739
0.778424
0.813257
0.842372
0.857307
0.845673
0.786715
0.663907
0.480171
0.295727
0.181454
0.108158
0.0379657
-0.0556996
-0.20851
-0.457644
-0.839902
-1.39784
-2.17531
-3.21778
-4.57524
-6.29609
-8.43306
-11.0291
-13.9857
-17.021
-21.7657
-26
-39.4734
-31.0848
-25.7964
-18.3787
-10.7461
-5.77093
-0.839903
2.67537
5.28902
7.20551
8.13627
8.75919
8.83081
8.90741
8.7124
8.21714
8.84282
0.0239467
0.0766324
0.121015
0.168237
0.211467
0.255363
0.297173
0.338624
0.378464
0.41699
0.45327
0.486852
0.516861
0.54274
0.564007
0.580466
0.592021
0.598727
0.600905
0.599472
0.596229
0.59393
0.5957
0.603571
0.616775
0.631598
0.643541
0.647889
0.636796
0.601227
0.565812
0.570671
0.614721
0.651055
0.69786
0.743341
0.785755
0.824346
0.85011
0.848582
0.794868
0.668175
0.470748
0.275728
0.166294
0.103314
0.0421595
-0.0483136
-0.206586
-0.472154
-0.881169
-1.47507
-2.29629
-3.39226
-4.82002
-6.63724
-8.92236
-11.7513
-14.9946
-18.5775
-24.5876
-27.6757
-44.4616
-34.0675
-28.0871
-19.6857
-11.3244
-5.9873
-0.767905
2.88318
5.58588
7.53252
8.48291
9.07097
9.15588
9.20927
8.97433
8.50462
9.10013
0.0240584
0.0792422
0.124385
0.173314
0.217697
0.263041
0.306134
0.348968
0.390147
0.430031
0.467618
0.502426
0.533517
0.560291
0.582241
0.599165
0.610949
0.617614
0.619439
0.617337
0.613208
0.610073
0.611449
0.619683
0.633944
0.650028
0.662774
0.666024
0.650014
0.607725
0.561372
0.540599
0.570829
0.604201
0.656167
0.707438
0.758048
0.806537
0.843776
0.853024
0.804738
0.672995
0.459227
0.25268
0.150411
0.0999167
0.0479622
-0.0420484
-0.210687
-0.49859
-0.939129
-1.57114
-2.43584
-3.58436
-5.08256
-6.99866
-9.44044
-12.5191
-16.0772
-20.3493
-27.2657
-29.5665
-49.9027
-37.2899
-30.56
-21.0735
-11.9259
-6.20431
-0.684249
3.10343
5.89286
7.86563
8.8331
9.38054
9.47893
9.50556
9.23998
8.78412
9.32142
0.0241288
0.0818723
0.127724
0.178361
0.223871
0.270652
0.315016
0.359226
0.401743
0.442992
0.481895
0.517944
0.550126
0.577799
0.60043
0.617811
0.629816
0.636421
0.637852
0.635007
0.629886
0.625796
0.626704
0.635319
0.65073
0.668138
0.681235
0.681562
0.660636
0.612222
0.544004
0.490478
0.521671
0.554089
0.613894
0.671111
0.730457
0.789243
0.838637
0.859401
0.816721
0.678413
0.44495
0.225775
0.133364
0.0972389
0.0532926
-0.0409472
-0.22653
-0.543077
-1.01853
-1.68862
-2.59487
-3.79417
-5.36251
-7.37963
-9.98593
-13.3308
-17.2339
-22.3241
-30.0453
-32.3115
-55.6556
-40.8011
-33.2133
-22.5429
-12.5489
-6.4195
-0.587724
3.33661
6.20979
8.20445
9.18624
9.68689
9.79875
9.795
9.51028
9.0545
9.5967
0.0241559
0.0845236
0.131029
0.183376
0.229986
0.278193
0.323814
0.369394
0.413248
0.455868
0.4961
0.533403
0.566687
0.595263
0.618571
0.636405
0.64862
0.655148
0.656146
0.652482
0.646252
0.641077
0.641429
0.650436
0.667075
0.685699
0.697802
0.693112
0.66914
0.613216
0.505794
0.4318
0.46928
0.501515
0.571528
0.634742
0.703252
0.772768
0.835103
0.868231
0.831341
0.684532
0.427158
0.194122
0.114582
0.0939739
0.0549165
-0.050488
-0.260692
-0.611006
-1.12202
-1.8278
-2.77239
-4.02005
-5.65762
-7.77714
-10.5547
-14.1814
-18.4599
-24.4947
-33.0107
-36.1545
-61.9225
-44.6548
-36.0435
-24.0927
-13.1902
-6.62917
-0.476587
3.58341
6.53648
8.54849
9.54161
9.98875
10.1141
10.0767
9.78607
9.34676
9.84202
0.0241374
0.0871971
0.1343
0.188357
0.236041
0.285662
0.332523
0.379466
0.424656
0.468653
0.510228
0.5488
0.583197
0.61268
0.636663
0.654943
0.667362
0.673796
0.674322
0.66976
0.662293
0.655885
0.655579
0.664975
0.682858
0.702084
0.710826
0.700481
0.674989
0.601989
0.451469
0.373203
0.414762
0.449256
0.529328
0.598604
0.67678
0.75751
0.833675
0.880167
0.849294
0.691536
0.405004
0.156793
0.0933219
0.0880836
0.0482427
-0.0774504
-0.319391
-0.705464
-1.24947
-1.98667
-2.96553
-4.25844
-5.9634
-8.18542
-11.139
-15.0612
-19.7454
-26.8432
-36.1986
-41.215
-68.6494
-48.8489
-39.0335
-25.7157
-13.8445
-6.8286
-0.348464
3.8448
6.87275
8.89717
9.89839
10.2846
10.4237
10.3497
10.0672
9.62208
10.0724
0.0240711
0.0898935
0.137535
0.193304
0.242032
0.293053
0.341141
0.389438
0.435962
0.481343
0.524274
0.564132
0.599656
0.630049
0.654703
0.673423
0.68604
0.692367
0.692383
0.68684
0.677999
0.67019
0.669099
0.678849
0.697772
0.716025
0.719517
0.706588
0.679149
0.566951
0.395254
0.311346
0.35642
0.397101
0.487432
0.56317
0.651443
0.743945
0.834975
0.896026
0.871482
0.699724
0.37758
0.112867
0.0686821
0.0766521
0.0270091
-0.12905
-0.406592
-0.826202
-1.39799
-2.16125
-3.16959
-4.50361
-6.27254
-8.59515
-11.7266
-15.9546
-21.0734
-29.3417
-39.6024
-47.483
-75.7467
-53.362
-42.1498
-27.3973
-14.5043
-7.01234
-0.200307
4.12219
7.2185
9.24986
10.2556
10.5725
10.7263
10.6133
10.354
9.88339
10.36
0.0239541
0.0926136
0.140733
0.198213
0.247957
0.300364
0.34966
0.399302
0.447158
0.493931
0.538233
0.579395
0.616059
0.647366
0.672687
0.691841
0.704651
0.710861
0.710331
0.703721
0.693354
0.683951
0.681914
0.691899
0.711089
0.72617
0.725581
0.716167
0.669353
0.522824
0.338044
0.246438
0.294891
0.345851
0.446181
0.528867
0.627694
0.732628
0.839732
0.916811
0.89907
0.709547
0.343911
0.0615471
0.0398467
0.0553141
-0.0167238
-0.210846
-0.522397
-0.969698
-1.56261