/*--------------------------------*- C++ -*----------------------------------*\
| =========                 |                                                 |
| \\      /  F ield         | OpenFOAM: The Open Source CFD Toolbox           |
|  \\    /   O peration     | Version:  4.1                                   |
|   \\  /    A nd           | Web:      www.OpenFOAM.org                      |
|    \\/     M anipulation  |                                                 |
\*---------------------------------------------------------------------------*/
FoamFile
{
    version     2.0;
    format      ascii;
    class       volVectorField;
    location    "15";
    object      U;
}
// * * * * * * * * * * * * * * * * * * * * * * * * * * * * * * * * * * * * * //

dimensions      [0 1 -1 0 0 0 0];

internalField   nonuniform List<vector> 
6785
(
(1.53011e-14 -2.30472 16.4999)
(1.10919e-14 -7.91066 12.9539)
(-3.23227e-15 -5.11291 13.763)
(3.80149e-15 -5.05666 13.2726)
(9.44281e-16 -4.25482 13.1367)
(-1.67382e-16 -3.82198 12.8511)
(2.52428e-15 -3.38562 12.5712)
(6.77431e-16 -3.07079 12.2623)
(-5.29294e-16 -2.85265 11.9709)
(1.81913e-15 -2.77925 11.7242)
(2.52163e-16 -2.82101 11.5616)
(-3.83565e-16 -2.96532 11.4156)
(8.44515e-16 -3.5513 10.8364)
(2.64713e-17 -3.74329 9.64404)
(-3.66258e-16 -0.136724 7.74109)
(2.03946e-14 -10.4132 27.0409)
(1.25013e-14 -16.2161 23.3938)
(-2.85109e-15 -11.1863 23.7422)
(3.68968e-15 -11.8902 21.9559)
(7.74658e-16 -10.1537 21.1336)
(7.32066e-16 -9.48756 19.9458)
(1.54059e-15 -8.48653 18.9257)
(2.14027e-17 -7.69733 17.8898)
(-1.11806e-16 -6.89473 16.8737)
(4.324e-16 -6.06636 15.6778)
(-4.72669e-16 -4.99952 13.9636)
(-7.58033e-16 -3.58222 11.3098)
(-3.68461e-16 -2.07977 7.49962)
(-3.63953e-16 -0.798527 3.35036)
(-5.79919e-16 -0.144422 0.825543)
(2.1119e-14 -13.2381 28.9944)
(1.04069e-14 -17.082 25.5622)
(-1.7959e-15 -12.306 25.5652)
(4.03487e-15 -13.4209 23.0634)
(5.40605e-16 -11.2496 22.0899)
(1.35704e-15 -10.886 20.3624)
(1.43955e-15 -9.7626 19.0939)
(-4.5716e-16 -9.12729 17.7285)
(4.44659e-16 -8.35441 16.4695)
(9.28113e-16 -7.53181 14.8686)
(-1.2531e-15 -6.05407 12.2138)
(1.23674e-15 -3.11915 6.94137)
(5.57201e-15 1.54672 -1.58845)
(1.46622e-16 4.25054 -6.05693)
(-2.4649e-15 2.82836 -5.47056)
(2.07973e-14 -14.0325 28.6589)
(1.07882e-14 -17.4731 26.0674)
(-1.54938e-15 -12.9729 25.4553)
(4.09039e-15 -14.3835 22.592)
(1.22744e-15 -12.0557 21.6299)
(1.32428e-15 -11.9868 19.5959)
(1.7817e-15 -10.8395 18.2131)
(5.21076e-16 -10.2745 16.6292)
(2.79089e-16 -9.55142 15.1999)
(1.2302e-15 -8.8488 13.6232)
(7.79057e-16 -7.84536 11.5715)
(2.78856e-16 -6.01604 8.43655)
(1.63248e-15 -3.55838 4.20711)
(3.39737e-15 -0.428434 0.98169)
(-4.33771e-15 1.86664 -5.15531)
(2.04187e-14 -13.8313 27.1567)
(1.21101e-14 -17.2954 26.3428)
(-1.08566e-15 -13.1164 24.8347)
(3.25857e-15 -14.0496 21.8949)
(1.48166e-15 -11.9312 20.8163)
(7.94059e-16 -11.718 18.7331)
(1.59983e-15 -10.5718 17.2176)
(7.22582e-16 -9.85241 15.5149)
(-3.4555e-16 -9.04062 13.9588)
(1.89871e-16 -8.25822 12.4249)
(1.07264e-16 -7.42315 10.7631)
(-9.04788e-16 -6.22212 8.79004)
(-1.0207e-15 -4.72034 6.13368)
(-1.43747e-15 -2.24485 3.21656)
(-4.43293e-15 0.0313664 -2.4347)
(2.0844e-14 -13.3268 25.6352)
(1.38529e-14 -16.7321 25.9943)
(1.96089e-16 -12.9262 24.0257)
(2.62325e-15 -13.4128 21.0231)
(1.92498e-15 -11.4876 19.8713)
(1.79549e-15 -11.1753 17.7981)
(1.8876e-15 -10.0918 16.3009)
(1.37943e-15 -9.42195 14.7242)
(1.17098e-15 -8.709 13.3054)
(6.78303e-16 -8.01361 11.9359)
(6.79876e-16 -7.33126 10.5589)
(1.19844e-15 -6.50137 9.20116)
(3.96919e-16 -5.58186 7.62788)
(1.14354e-16 -3.99743 5.79819)
(3.40521e-15 -1.62951 1.29641)
(2.27658e-14 -12.9721 24.8219)
(1.50326e-14 -15.8964 25.0411)
(1.97774e-15 -12.3541 23.0948)
(2.84687e-15 -12.7058 20.0367)
(2.81276e-15 -10.5957 18.9305)
(4.08471e-15 -10.3543 16.707)
(2.10857e-15 -9.03638 15.2914)
(2.39867e-15 -8.51058 13.5606)
(4.64856e-15 -7.84117 12.1453)
(1.56431e-15 -7.46936 10.897)
(1.0175e-15 -7.2254 10.0549)
(3.74978e-15 -7.11047 9.6869)
(1.47898e-15 -6.89664 9.60543)
(-2.11971e-15 -6.17388 9.12843)
(3.87218e-15 -4.00446 6.12361)
(2.18884e-14 -13.408 25.2822)
(1.20092e-14 -14.9967 24.5878)
(1.23804e-15 -12.1241 22.8856)
(2.94807e-15 -11.9987 20.3946)
(2.15304e-15 -10.0388 19.2123)
(1.98301e-15 -9.18109 16.8367)
(1.5728e-15 -7.10752 14.3074)
(1.78939e-15 -5.53459 11.1554)
(1.23827e-15 -4.13836 8.78311)
(8.61548e-16 -3.77097 7.61158)
(1.08499e-15 -4.42263 8.22726)
(9.18141e-16 -5.98415 10.2269)
(-5.38033e-16 -7.461 12.4359)
(-3.04777e-15 -8.2779 13.2995)
(9.46175e-16 -6.11522 10.9264)
(2.17841e-14 -14.9545 27.9004)
(8.32952e-15 -15.5465 26.0409)
(-2.10582e-17 -12.9563 24.7439)
(2.06303e-15 -12.7694 23.0071)
(7.85126e-16 -11.0496 21.9657)
(3.32212e-17 -9.89608 19.7123)
(3.04952e-16 -7.43246 16.6776)
(9.51687e-16 -5.07392 12.914)
(5.95918e-16 -2.70348 9.61365)
(2.20682e-15 -0.833178 6.70919)
(4.06011e-15 0.451976 4.64539)
(3.27838e-15 0.231385 4.45917)
(2.27649e-15 -1.94178 6.83243)
(1.18419e-15 -4.95224 10.1588)
(4.65268e-17 -4.76138 9.84542)
(2.13741e-14 -15.5135 28.4527)
(9.8626e-15 -18.0754 29.5637)
(3.43979e-16 -14.6049 26.9721)
(2.04462e-15 -14.59 25.1143)
(1.86229e-16 -13.0678 24.1903)
(3.20854e-16 -12.4177 22.2221)
(5.14467e-16 -10.3912 19.6776)
(4.38286e-16 -8.37777 16.1888)
(1.74558e-15 -5.96226 12.7877)
(3.64002e-15 -3.67969 9.27687)
(5.18034e-15 -1.20799 5.60679)
(7.75132e-15 1.17608 1.71117)
(4.48445e-15 2.99995 -1.38131)
(-6.83839e-16 2.89929 -1.94006)
(4.95027e-16 0.805053 -0.252316)
(2.02431e-14 -13.7695 24.4199)
(1.39395e-14 -19.3222 31.1777)
(4.48494e-15 -16.3472 28.2785)
(2.26595e-15 -15.508 25.3092)
(-2.10139e-16 -14.1895 23.7798)
(1.94414e-15 -13.6805 21.9634)
(1.20217e-15 -12.5234 20.0419)
(-1.69177e-16 -11.279 17.6012)
(2.44009e-15 -9.68491 15.0032)
(2.6311e-15 -7.95611 12.2416)
(1.63538e-15 -6.01464 9.30016)
(5.982e-15 -3.74295 6.07998)
(5.51167e-15 -1.1554 2.44229)
(1.36768e-14 3.40371 -2.64803)
(-1.75915e-15 2.17394 -6.32102)
(1.82092e-14 -11.1923 19.1954)
(1.67123e-14 -18.4044 30.0775)
(7.00401e-15 -16.5783 27.9756)
(2.52601e-15 -14.9039 24.1164)
(1.35614e-16 -13.4148 21.8336)
(1.17417e-15 -12.682 19.9162)
(1.51246e-15 -11.803 18.2046)
(8.22569e-16 -10.8982 16.3307)
(1.23432e-15 -9.84303 14.3491)
(1.26142e-15 -8.65531 12.2843)
(1.04379e-15 -7.38761 10.121)
(1.48198e-15 -5.87144 7.86586)
(1.82656e-15 -4.26894 5.23724)
(2.33669e-15 -1.63524 2.17715)
(-3.45635e-15 0.513731 -3.1457)
(1.63386e-14 -9.54653 16.1663)
(1.76876e-14 -17.2762 28.7913)
(8.78984e-15 -16.3961 27.5891)
(2.79051e-15 -14.5621 23.6706)
(7.23905e-16 -12.9982 20.9664)
(6.49904e-16 -12.0957 18.92)
(7.29898e-16 -11.2405 17.2431)
(2.38366e-15 -10.4035 15.6016)
(1.32308e-15 -9.50259 13.9383)
(5.60114e-16 -8.5025 12.2536)
(1.37467e-15 -7.44949 10.5047)
(2.85985e-17 -6.21816 8.71595)
(-1.73077e-16 -4.95775 6.70498)
(1.21491e-15 -3.10228 4.34969)
(-4.14299e-15 -0.821955 -0.284901)
(1.42001e-14 -8.32126 13.5013)
(1.7774e-14 -15.9813 26.8089)
(7.36492e-15 -15.293 25.5753)
(5.69084e-16 -12.8881 21.3522)
(4.11379e-16 -11.1896 18.7773)
(1.04169e-15 -10.3624 17.2038)
(9.73254e-16 -9.70134 16.0997)
(2.21747e-15 -9.16868 15.0334)
(1.53646e-15 -8.63942 13.9719)
(1.0502e-15 -8.08366 12.8951)
(4.54587e-16 -7.5497 11.7881)
(-5.1259e-16 -6.88225 10.5956)
(-3.07267e-16 -6.07643 9.07384)
(-6.70534e-16 -4.70324 7.22528)
(-4.12824e-15 -2.53392 3.67699)
(9.58169e-15 -7.12362 12.3432)
(1.8568e-14 -16.5544 26.2053)
(1.49636e-14 -19.0956 28.3469)
(6.92237e-15 -18.4783 25.5979)
(1.21331e-15 -16.5943 22.0221)
(-1.12165e-16 -14.8265 19.0609)
(-1.03322e-15 -13.2937 16.6907)
(-1.22263e-15 -11.829 14.6133)
(-2.93791e-17 -10.3571 12.7489)
(9.08775e-16 -8.98945 11.0285)
(-5.02176e-16 -7.66037 9.3747)
(-2.09771e-15 -6.54344 8.1624)
(-2.94219e-15 -6.03196 8.15107)
(-2.85093e-15 -5.88993 8.44951)
(-2.78065e-15 -3.5311 6.26144)
(-8.96558e-16 18.7738 2.15153)
(-1.0657e-14 5.2674 -1.53504)
(-1.08357e-14 -0.476038 -2.26025)
(-1.14859e-14 0.820741 -2.52741)
(-1.2086e-14 0.776435 -2.68712)
(-1.29038e-14 0.891341 -3.17034)
(-9.60949e-15 0.908314 -2.25047)
(-9.86048e-15 1.16594 -2.26825)
(-1.03451e-14 1.26165 -2.27188)
(-1.00732e-14 1.54638 -2.60372)
(-7.66708e-15 1.34621 -1.86094)
(-7.82862e-15 1.54363 -1.78044)
(-9.2964e-15 1.87432 -2.0923)
(-7.54463e-15 1.55145 -1.49085)
(-7.78001e-15 1.78023 -1.45564)
(-7.77787e-15 1.79329 -1.37905)
(-9.70902e-15 2.12926 -1.6105)
(-7.58465e-15 1.80905 -1.10753)
(-7.1824e-15 1.95149 -0.998073)
(-9.34991e-15 2.31228 -1.09629)
(-7.04944e-15 1.8509 -0.720991)
(-6.83992e-15 2.06336 -0.64326)
(-6.0767e-15 1.99775 -0.560083)
(-7.85004e-15 2.34689 -0.485729)
(-5.36342e-15 1.84868 -0.269661)
(-4.73837e-15 2.02516 -0.184145)
(-4.02229e-15 1.94068 -0.121396)
(-4.76433e-15 2.19189 0.117898)
(-2.66718e-15 1.74786 0.173915)
(-1.75519e-15 1.80693 0.202319)
(-1.39763e-15 2.02254 0.553959)
(-2.45027e-16 1.51739 0.435879)
(3.29027e-16 1.62435 0.474702)
(6.48742e-16 1.52785 0.46153)
(1.46157e-15 1.65233 0.830666)
(1.68271e-15 1.24168 0.592247)
(1.90792e-15 1.26818 0.531763)
(2.99917e-15 1.34862 0.884629)
(2.49096e-15 0.94262 0.575597)
(2.58274e-15 0.992085 0.558948)
(2.8779e-15 0.928651 0.489498)
(4.00726e-15 0.981534 0.804275)
(2.8252e-15 0.673774 0.516635)
(2.82326e-15 0.711847 0.496541)
(2.693e-15 0.657065 0.411894)
(3.8211e-15 0.737274 0.768928)
(1.94022e-15 0.56187 0.644218)
(1.70178e-15 0.551307 0.53785)
(2.06087e-15 0.619747 0.95054)
(2.19459e-15 0.465757 0.799005)
(2.28715e-15 0.455092 0.794125)
(2.23368e-15 0.391594 0.683385)
(3.09026e-15 0.396277 0.902857)
(2.55598e-15 0.215031 0.636681)
(1.9316e-15 0.198695 0.583873)
(3.63104e-15 0.158468 0.661171)
(4.16541e-15 0.276958 -0.831071)
(-1.7973e-15 -0.265276 -2.5265)
(-3.39171e-15 0.412458 -2.80613)
(3.78821e-15 -0.15816 -3.04677)
(1.11908e-15 -0.4187 -1.60381)
(1.04296e-15 -0.232692 -1.62365)
(8.06275e-16 -0.0173157 -1.51807)
(-8.6276e-16 -0.585135 -0.694673)
(-3.31265e-15 -1.11262 0.574231)
(-3.44191e-15 -0.832345 0.621038)
(-6.44535e-15 -1.8029 2.44113)
(-6.11203e-15 -2.1923 2.84121)
(-6.63249e-15 -2.41076 2.94983)
(-7.21352e-15 -2.31066 3.16187)
(-1.08164e-14 -3.78422 5.7167)
(-8.57305e-15 -4.02822 4.94847)
(-8.85326e-15 -4.51892 5.03078)
(-8.83949e-15 -4.34378 5.12383)
(-1.15973e-14 -6.53094 8.144)
(-8.38025e-15 -6.56592 6.51777)
(-8.85977e-15 -6.55074 7.0429)
(-1.15497e-14 -9.09167 10.8894)
(-8.70117e-15 -8.87124 8.67386)
(-9.51013e-15 -9.15972 9.66445)
(-1.11464e-14 -9.88929 11.8356)
(-1.07217e-14 -9.73019 11.6257)
(-1.07644e-14 -9.80122 11.9441)
(-1.01102e-14 -11.1775 14.1278)
(-9.5154e-15 -10.4568 13.3223)
(-8.87919e-15 -10.6146 13.9752)
(-8.1608e-15 -10.5958 14.1806)
(-7.17087e-15 -10.6669 14.4008)
(-5.93599e-15 -10.7067 14.5529)
(-4.60438e-15 -10.7784 14.6393)
(-3.32292e-15 -10.8542 14.6754)
(-2.25118e-15 -10.8499 14.7847)
(6.37849e-16 -11.8753 16.6495)
(2.43362e-16 -11.3165 15.5869)
(1.06997e-15 -11.4718 15.7866)
(1.28456e-15 -11.4832 15.8957)
(1.64903e-15 -11.5846 16.1306)
(1.82448e-15 -11.6408 16.4652)
(2.05694e-15 -11.727 16.6212)
(2.27778e-15 -11.8311 16.7505)
(2.48675e-15 -11.8654 16.8603)
(4.08085e-15 -12.6726 18.4047)
(3.29693e-15 -12.0615 17.1139)
(3.45754e-15 -12.2329 17.2432)
(3.54445e-15 -12.259 17.1656)
(3.67332e-15 -12.3588 17.176)
(3.848e-15 -12.4028 17.3169)
(3.98772e-15 -12.5052 17.5836)
(3.96734e-15 -12.5346 17.7449)
(4.14168e-15 -12.6376 17.9981)
(4.29612e-15 -12.7102 18.2143)
(5.17105e-15 -12.8714 19.163)
(4.43269e-15 -12.5199 18.3265)
(4.62831e-15 -12.6174 18.5552)
(4.72134e-15 -12.6316 18.6973)
(4.77771e-15 -12.7176 18.9342)
(4.72004e-15 -12.7407 19.2328)
(4.50537e-15 -12.8395 19.7085)
(4.50763e-15 -12.8758 19.9734)
(4.62724e-15 -12.998 20.1094)
(5.86552e-15 -12.3017 19.7944)
(4.74753e-15 -12.2763 19.2965)
(4.7166e-15 -12.3135 19.2883)
(4.65315e-15 -12.373 19.203)
(4.60344e-15 -12.3622 18.9431)
(4.52454e-15 -12.4055 18.8215)
(4.56603e-15 -12.42 18.7653)
(4.75723e-15 -12.3813 18.8303)
(5.15448e-15 -12.5782 19.1485)
(6.2835e-15 -10.7789 17.2387)
(5.59012e-15 -11.2842 18.1416)
(5.92256e-15 -11.2034 18.1496)
(6.164e-15 -11.1937 18.2966)
(6.54549e-15 -11.1862 18.6267)
(6.7821e-15 -11.155 18.6766)
(6.9053e-15 -11.092 18.5796)
(6.93053e-15 -11.037 18.3899)
(6.86928e-15 -11.1091 17.9921)
(7.06777e-15 -8.53362 14.2905)
(6.64946e-15 -9.39411 15.965)
(6.08396e-15 -9.16542 14.7063)
(5.63144e-15 -9.21168 13.8188)
(5.31424e-15 -9.07659 12.7965)
(5.29568e-15 -8.96508 11.9135)
(6.25732e-15 -8.83854 11.4246)
(5.49099e-15 -8.5991 10.5078)
(5.39161e-15 -8.38981 9.91148)
(5.10842e-15 -8.26322 9.26526)
(2.67618e-15 -4.82069 3.83022)
(5.14363e-15 -6.44526 8.32941)
(4.93756e-15 -5.8612 7.42311)
(4.75365e-15 -5.94355 7.2338)
(4.49728e-15 -5.58324 6.62433)
(4.01515e-15 -5.48756 5.81242)
(2.95207e-15 -5.27541 4.0956)
(1.89822e-15 -4.90638 2.30958)
(1.94573e-15 -4.87038 2.11758)
(-8.82764e-17 -3.76985 -1.3263)
(1.41517e-15 -4.06384 1.00545)
(8.5317e-16 -3.98398 -0.0614403)
(-1.13745e-15 -2.79524 -2.52283)
(-2.53313e-16 -4.59438 -1.51432)
(-7.46724e-16 -3.34319 -1.47467)
(-5.92972e-16 -3.0979 -0.939825)
(-8.97298e-16 -3.78758 -1.35253)
(-6.93991e-16 -2.64045 -0.784488)
(-1.07542e-15 -3.3082 -1.16923)
(-7.87904e-16 -2.98354 -0.803656)
(-6.96335e-16 -2.46845 -0.561473)
(-1.06139e-15 -2.9244 -0.828998)
(-9.28208e-16 -2.7039 -0.575789)
(-7.63267e-16 -2.30331 -0.394272)
(-1.04767e-15 -3.03915 -0.569691)
(-7.83394e-16 -2.08965 -0.322147)
(-1.06631e-15 -2.7176 -0.492093)
(-7.91096e-16 -2.42489 -0.352446)
(-6.86472e-16 -2.11787 -0.243237)
(-8.60593e-16 -2.8202 -0.374119)
(-5.34405e-16 -1.93471 -0.220421)
(-8.36632e-16 -2.54725 -0.346837)
(-7.08999e-16 -2.38278 -0.288483)
(-5.92552e-16 -1.96558 -0.208683)
(-8.44449e-16 -2.39887 -0.344133)
(-7.09519e-16 -2.28086 -0.294023)
(-5.24895e-16 -1.94071 -0.215237)
(-8.1827e-16 -2.62936 -0.335113)
(-6.58161e-16 -1.79567 -0.219607)
(-9.54029e-16 -2.36875 -0.340246)
(-5.67689e-16 -2.15284 -0.301071)
(-5.12827e-16 -1.86186 -0.224168)
(-6.91987e-16 -2.51957 -0.337577)
(-5.21304e-16 -1.70473 -0.224052)
(-7.86384e-16 -2.26529 -0.33526)
(-6.62431e-16 -2.13746 -0.307011)
(-4.49733e-16 -1.73737 -0.229555)
(-6.74066e-16 -2.13495 -0.353456)
(-5.06316e-16 -2.03244 -0.313502)
(-3.53269e-16 -1.70929 -0.232964)
(-5.06258e-16 -2.33973 -0.339282)
(-3.64648e-16 -1.56824 -0.229462)
(-5.56841e-16 -2.08889 -0.341533)
(-5.27734e-16 -1.8826 -0.309956)
(-5.73985e-16 -1.61051 -0.233973)
(-6.91214e-16 -2.20043 -0.339162)
(-4.45086e-16 -1.45396 -0.231879)
(-7.02954e-16 -1.95525 -0.34184)
(-5.99666e-16 -1.81756 -0.320549)
(-3.87549e-16 -1.45497 -0.245961)
(-6.06962e-16 -1.80062 -0.37452)
(-5.30784e-16 -1.68555 -0.341513)
(-4.28029e-16 -1.39228 -0.261242)
(-6.13143e-16 -1.93203 -0.374956)
(-5.25766e-16 -1.24179 -0.264634)
(-7.0354e-16 -1.6882 -0.396864)
(-4.51156e-16 -1.47431 -0.367673)
(-3.20125e-16 -1.23291 -0.287168)
(-4.09017e-16 -1.7174 -0.41155)
(-1.60997e-16 -1.06356 -0.294941)
(-2.70089e-16 -1.47847 -0.442795)
(-2.27574e-16 -1.31835 -0.416742)
(-1.91735e-16 -1.00569 -0.331592)
(-1.58102e-16 -1.2794 -0.502162)
(1.92296e-18 -1.14047 -0.457291)
(-2.37658e-16 -0.887109 -0.358351)
(-2.79557e-16 -1.30602 -0.50569)
(-3.39952e-16 -0.711774 -0.366224)
(-4.46956e-16 -1.07496 -0.554973)
(-3.22367e-16 -0.837449 -0.506387)
(-1.75931e-16 -0.633747 -0.399097)
(-2.44685e-16 -1.01086 -0.562885)
(-1.68335e-16 -0.42919 -0.40953)
(-1.41061e-16 -0.798663 -0.628538)
(2.92852e-17 -0.579788 -0.583489)
(-2.19966e-16 -0.28526 -0.461878)
(-2.32788e-16 -0.593976 -0.707966)
(-3.81054e-16 -0.346075 -0.642025)
(-2.72998e-16 -0.0650249 -0.467023)
(-3.43633e-16 -0.771548 -0.625259)
(-4.40131e-16 0.312405 -0.342112)
(-5.23633e-16 -0.439825 -0.555935)
(9.4458e-39 0.421793 0.479632)
(3.48536e-38 0.500323 0.477055)
(3.43065e-38 0.547599 0.480547)
(-1.75314e-37 0.594726 0.483221)
(-9.58943e-37 0.640031 0.488368)
(-1.83314e-36 0.682748 0.49405)
(2.62277e-36 0.724295 0.501188)
(2.68379e-35 0.764285 0.509216)
(6.5795e-35 0.803237 0.518376)
(-4.8902e-35 0.841118 0.528483)
(-8.55602e-34 0.878103 0.539578)
(-2.46351e-33 0.914213 0.55158)
(4.82722e-34 0.949493 0.564469)
(2.84329e-32 0.983942 0.578188)
(9.91868e-32 1.01755 0.592698)
(6.37921e-32 1.0503 0.607951)
(-8.18689e-31 1.08218 0.623905)
(-3.82754e-30 1.11316 0.640521)
(-6.40646e-30 1.14326 0.657766)
(1.39805e-29 1.17251 0.675614)
(1.2066e-28 1.20095 0.694051)
(3.48748e-28 1.22869 0.71307)
(2.42601e-28 1.25584 0.732675)
(-2.36908e-27 1.28252 0.752872)
(-1.22033e-26 1.30887 0.77367)
(-2.90818e-26 1.33501 0.795073)
(-9.63124e-27 1.36101 0.817083)
(2.28782e-25 1.38699 0.839712)
(1.08017e-24 1.41311 0.862988)
(2.60958e-24 1.43963 0.886982)
(1.56779e-24 1.467 0.911815)
(-1.6781e-23 1.49584 0.937654)
(-8.77299e-23 1.52683 0.964667)
(-2.35223e-22 1.56052 0.992958)
(-2.60397e-22 1.59702 1.02251)
(8.76695e-22 1.63611 1.05318)
(5.92064e-21 1.67717 1.08468)
(1.81403e-20 1.71933 1.11661)
(3.04892e-20 1.76153 1.14852)
(-8.54797e-21 1.80273 1.17992)
(-2.56512e-19 1.84207 1.21037)
(-1.00442e-18 1.87907 1.23949)
(-2.43365e-18 1.9137 1.26705)
(-3.58105e-18 1.94633 1.29301)
(2.31122e-19 1.9773 1.31781)
(2.19899e-17 2.00626 1.34288)
(8.89122e-17 2.03163 1.37123)
(2.4695e-16 2.05047 1.40765)
(5.59507e-16 2.05881 1.45735)
(1.09686e-15 2.05214 1.52323)
(1.91683e-15 2.02575 1.60245)
(3.04091e-15 1.9738 1.68443)
(4.43563e-15 1.88953 1.75212)
(6.04215e-15 1.77478 1.78742)
(7.87453e-15 1.62791 1.77447)
(9.6349e-15 1.24932 1.62521)
(9.19697e-15 0.11734 0.962873)
(6.16299e-15 -1.07 0.318654)
(4.07984e-15 -1.64576 0.0757442)
(2.1822e-15 -2.08557 -0.129866)
(7.53686e-16 -2.52069 -0.262411)
(1.32345e-16 -2.95618 -0.322587)
(-2.46371e-18 -3.40159 -0.359358)
(-6.15635e-18 -3.83605 -0.369557)
(-1.11564e-18 -4.20398 -0.3757)
(-5.83764e-21 -4.4877 -0.370909)
(3.08333e-20 -4.66161 -0.368911)
(4.22579e-21 -4.73096 -0.360383)
(-3.76123e-22 -4.68013 -0.362235)
(-1.57959e-22 -4.53964 -0.349414)
(-6.83272e-23 -4.25348 -0.354334)
(1.0866e-22 -3.97532 -0.31904)
(-4.40342e-22 -3.49592 -0.334009)
(2.25824e-21 -3.4043 -0.253239)
(-1.70048e-20 -2.71099 -0.334959)
(2.55867e-19 -3.31912 -0.183603)
(-3.99151e-18 -2.47956 -0.39175)
(3.68753e-17 -3.00432 -0.302597)
(-1.64838e-17 -5.70452 -0.397719)
(2.0647e-38 0.422395 0.511876)
(8.89822e-38 0.500297 0.507428)
(1.2175e-37 0.546699 0.51082)
(-2.77372e-37 0.59354 0.51304)
(-1.96007e-36 0.638352 0.518191)
(-4.13277e-36 0.68074 0.523864)
(3.82049e-36 0.721905 0.531163)
(4.80614e-35 0.761566 0.539397)
(1.03688e-34 0.800182 0.548847)
(-1.83229e-34 0.837751 0.559285)
(-1.67566e-33 0.874432 0.570756)
(-3.22261e-33 0.910253 0.58316)
(9.08471e-33 0.945259 0.596471)
(7.12135e-32 0.979448 0.610625)
(1.53961e-31 1.01281 0.625577)
(-2.59725e-31 1.04534 0.641275)
(-2.80127e-30 1.07699 0.657679)
(-8.09875e-30 1.10777 0.67475)
(-1.25368e-30 1.13767 0.692462)
(8.25662e-29 1.16673 0.710797)
(3.48725e-28 1.19498 0.729751)
(5.7662e-28 1.22253 0.74933)
(-1.13716e-27 1.24949 0.769545)
(-1.04185e-26 1.27598 0.790409)
(-3.25944e-26 1.30214 0.811929)
(-3.81866e-26 1.32807 0.834108)
(1.44057e-25 1.35388 0.856947)
(9.72363e-25 1.37966 0.880462)
(2.87201e-24 1.40555 0.904706)
(3.59711e-24 1.43182 0.929791)
(-1.03325e-23 1.45888 0.955898)
(-7.75287e-23 1.48736 0.983248)
(-2.47196e-22 1.51795 1.01202)
(-3.98427e-22 1.55122 1.04227)
(3.98426e-22 1.58735 1.07385)
(5.06708e-21 1.62613 1.10652)
(1.84051e-20 1.66701 1.13987)
(3.78748e-20 1.70911 1.17339)
(1.83471e-20 1.75142 1.20657)
(-2.03177e-19 1.79287 1.2389)
(-9.75156e-19 1.83259 1.26997)
(-2.64868e-18 1.87004 1.29953)
(-4.54021e-18 1.90516 1.32763)
(-2.07661e-18 1.93816 1.35503)
(1.86832e-17 1.96911 1.38378)
(8.85792e-17 1.99717 1.4182)
(2.61623e-16 2.02019 1.4652)
(6.14059e-16 2.03492 1.53302)
(1.23082e-15 2.03785 1.62749)
(2.17995e-15 2.02603 1.74715)
(3.48381e-15 1.99711 1.88005)
(5.09772e-15 1.94758 2.00474)
(6.90716e-15 1.87173 2.09528)
(8.78952e-15 1.77109 2.12954)
(1.07522e-14 1.65439 2.09606)
(1.24762e-14 1.36854 1.9247)
(1.13122e-14 0.3409 1.20693)
(5.9914e-15 -1.01075 0.226446)
(4.07033e-15 -1.61469 0.0650937)
(2.19389e-15 -2.07048 -0.146316)
(7.65665e-16 -2.52466 -0.275216)
(1.35876e-16 -2.97132 -0.330714)
(-2.63509e-18 -3.42201 -0.363328)
(-6.46422e-18 -3.85783 -0.368481)
(-1.17282e-18 -4.22387 -0.371047)
(-4.69109e-21 -4.50512 -0.363626)
(3.28163e-20 -4.67471 -0.359635)
(4.51247e-21 -4.73936 -0.350829)
(-3.92103e-22 -4.68469 -0.352499)
(-1.68847e-22 -4.53961 -0.340752)
(-6.89982e-23 -4.25262 -0.346697)
(1.08512e-22 -3.96951 -0.313182)
(-4.40619e-22 -3.49239 -0.329242)
(2.27524e-21 -3.38998 -0.250607)
(-1.74305e-20 -2.70142 -0.331591)
(2.62688e-19 -3.29448 -0.183238)
(-4.07593e-18 -2.44469 -0.38702)
(3.65626e-17 -2.98011 -0.302305)
(-1.51807e-17 -5.65679 -0.403047)
(2.96298e-38 0.422847 0.52913)
(1.71862e-37 0.500424 0.523949)
(3.47592e-37 0.546319 0.527267)
(-2.26476e-39 0.59301 0.529268)
(-2.48921e-36 0.637559 0.53443)
(-7.80669e-36 0.679781 0.540112)
(-6.18043e-36 0.720752 0.54751)
(2.95793e-35 0.760252 0.555868)
(7.0836e-35 0.798704 0.565484)
(-2.05673e-34 0.836123 0.576112)
(-1.0938e-33 0.872661 0.587793)
(1.47573e-33 0.908349 0.600422)
(2.656e-32 0.943228 0.613968)
(8.8835e-32 0.9773 0.628363)
(-1.46708e-32 1.01056 0.643559)
(-1.29719e-30 1.04297 0.659506)
(-5.37274e-30 1.07453 0.67616)
(-6.84833e-30 1.10522 0.693488)
(3.45307e-29 1.13503 0.711466)
(2.23949e-28 1.16399 0.730082)
(5.6636e-28 1.19215 0.749338)
(9.11354e-30 1.2196 0.769246)
(-5.81067e-27 1.24646 0.789821)
(-2.46902e-26 1.27285 0.811079)
(-4.77496e-26 1.29891 0.833025)
(3.41412e-26 1.32474 0.855657)
(5.98443e-25 1.35044 0.878977)
(2.26166e-24 1.37611 0.903006)
(4.28752e-24 1.40188 0.927813)
(-1.96283e-24 1.42799 0.953539)
(-4.73359e-23 1.45485 0.980401)
(-1.89613e-22 1.4831 1.00865)
(-4.10608e-22 1.51346 1.03847)
(-1.39029e-22 1.54651 1.06985)
(2.89974e-21 1.58246 1.1026)
(1.36274e-20 1.62113 1.13639)
(3.46907e-20 1.66199 1.17074)
(4.01554e-20 1.70415 1.20512)
(-9.33141e-20 1.74659 1.23897)
(-6.81274e-19 1.78824 1.27176)
(-2.17614e-18 1.8282 1.3031)
(-4.43317e-18 1.86586 1.33292)
(-4.31635e-18 1.90103 1.36181)
(9.42966e-18 1.93365 1.39177)
(6.40353e-17 1.96335 1.42719)
(2.10507e-16 1.98877 1.4756)
(5.25166e-16 2.00748 1.54678)
(1.098e-15 2.01668 1.64931)
(2.00644e-15 2.01426 1.7849)
(3.28357e-15 1.99935 1.94393)
(4.89599e-15 1.97145 2.10536)
(6.74019e-15 1.92786 2.24163)
(8.65903e-15 1.86223 2.32539)
(1.05138e-14 1.7739 2.33707)
(1.23286e-14 1.67344 2.27317)
(1.3915e-14 1.43716 2.09371)
(1.27842e-14 0.515263 1.42393)
(6.09e-15 -0.853232 0.149747)
(4.02612e-15 -1.56237 0.024223)
(2.21208e-15 -2.02117 -0.170079)
(7.84211e-16 -2.49129 -0.298855)
(1.4092e-16 -2.94864 -0.345996)
(-2.88205e-18 -3.40548 -0.371167)
(-6.87688e-18 -3.84571 -0.368024)
(-1.24766e-18 -4.21466 -0.364285)
(-3.15325e-21 -4.49852 -0.352687)
(3.53509e-20 -4.67024 -0.345343)
(4.87188e-21 -4.73643 -0.335944)
(-4.12247e-22 -4.6841 -0.337348)
(-1.82431e-22 -4.54056 -0.327092)
(-6.98732e-23 -4.25776 -0.334695)
(1.08362e-22 -3.97532 -0.303813)
(-4.41007e-22 -3.50481 -0.321693)
(2.29643e-21 -3.39671 -0.245954)
(-1.79459e-20 -2.71771 -0.32689)
(2.70964e-19 -3.2971 -0.18122)
(-4.17478e-18 -2.44226 -0.382295)
(3.61894e-17 -2.98927 -0.298554)
(-1.34608e-17 -5.62336 -0.407475)
(2.56605e-38 0.423548 0.549512)
(3.44046e-37 0.500594 0.543637)
(1.06751e-36 0.545758 0.546894)
(1.62914e-36 0.592203 0.548701)
(-1.78126e-36 0.636352 0.553896)
(-1.92961e-35 0.678311 0.559622)
(-6.25014e-35 0.718983 0.567158)
(-1.11952e-34 0.75823 0.575688)
(-2.37869e-35 0.796426 0.585524)
(7.91004e-34 0.833611 0.596401)
(4.65631e-33 0.869922 0.608358)
(1.80814e-32 0.905399 0.62128)
(4.03365e-32 0.940079 0.635131)
(-4.15829e-32 0.973965 0.649839)
(-7.99597e-31 1.00704 0.665353)
(-3.4255e-30 1.0393 0.68162)
(-5.99273e-30 1.0707 0.698599)
(1.47432e-29 1.10123 0.716256)
(1.37996e-28 1.1309 0.734572)
(4.45218e-28 1.15971 0.753541)
(4.32723e-28 1.18773 0.773173)
(-2.8739e-27 1.21503 0.793486)
(-1.69529e-26 1.24174 0.814502)
(-4.42735e-26 1.26797 0.836238)
(-2.41138e-26 1.29387 0.858701)
(3.23293e-25 1.31955 0.881886)
(1.63109e-24 1.3451 0.905791)
(4.07906e-24 1.3706 0.930443)
(2.77632e-24 1.39617 0.955925)
(-2.50308e-23 1.42205 0.982412)
(-1.3493e-22 1.44863 1.01016)
(-3.69016e-22 1.47654 1.03947)
(-4.288e-22 1.50655 1.07052)
(1.3225e-21 1.53927 1.10326)
(9.35687e-21 1.57495 1.13743)
(2.9298e-20 1.61344 1.17261)
(4.99979e-20 1.65423 1.20826)
(-1.51069e-20 1.69645 1.24376)
(-4.35441e-19 1.73907 1.27849)
(-1.70644e-18 1.78101 1.31189)
(-4.08831e-18 1.82129 1.34365)
(-5.67966e-18 1.85919 1.37409)
(2.27598e-18 1.89423 1.40492)
(4.34482e-17 1.92586 1.44046)
(1.65796e-16 1.95304 1.48871)
(4.46084e-16 1.9739 1.56104)
(9.81002e-16 1.98607 1.66903)
(1.86073e-15 1.98799 1.81837)
(3.13259e-15 1.9798 2.00258)
(4.77311e-15 1.96307 2.20133)
(6.68375e-15 1.93895 2.3852)
(8.70917e-15 1.90499 2.52353)
(1.06679e-14 1.85373 2.59077)
(1.24199e-14 1.78191 2.57183)
(1.39991e-14 1.70196 2.47133)
(1.53397e-14 1.52512 2.27382)
(1.42751e-14 0.737863 1.64758)
(6.69746e-15 -0.6977 0.146185)
(3.975e-15 -1.52841 -0.0585426)
(2.22793e-15 -1.9902 -0.200715)
(8.06881e-16 -2.47225 -0.331792)
(1.47492e-16 -2.93975 -0.369202)
(-3.11905e-18 -3.40165 -0.383622)
(-7.367e-18 -3.84471 -0.369268)
(-1.33411e-18 -4.21441 -0.356468)
(-1.21655e-21 -4.49903 -0.339027)
(3.81349e-20 -4.67058 -0.326921)
(5.24926e-21 -4.73638 -0.316329)
(-4.33977e-22 -4.68443 -0.317315)
(-1.96552e-22 -4.54062 -0.308692)
(-7.08215e-23 -4.2602 -0.318507)
(1.08246e-22 -3.97707 -0.290917)
(-4.41469e-22 -3.51125 -0.311471)
(2.31863e-21 -3.39762 -0.239174)
(-1.84692e-20 -2.72559 -0.321219)
(2.79402e-19 -3.29407 -0.177689)
(-4.27112e-18 -2.43333 -0.377669)
(3.58145e-17 -2.9897 -0.293444)
(-1.18126e-17 -5.58565 -0.400713)
(-2.48713e-38 0.42426 0.568959)
(7.61674e-37 0.500825 0.562632)
(3.24045e-36 0.545321 0.565837)
(7.14701e-36 0.591535 0.567509)
(1.17783e-36 0.635318 0.572755)
(-6.0044e-35 0.677039 0.578551)
(-2.63378e-34 0.717443 0.586239)
(-5.54091e-34 0.756464 0.594956)
(1.27651e-34 0.794435 0.605024)
(5.92909e-33 0.831416 0.61616)
(2.50046e-32 0.867531 0.628402)
(5.18992e-32 0.902827 0.641625)
(-2.77147e-32 0.937338 0.655789)
(-6.95527e-31 0.971066 0.670817)
(-2.92216e-30 1.004 0.686656)
(-5.70861e-30 1.03611 0.70325)
(6.61585e-30 1.06738 0.72056)
(9.37479e-29 1.09779 0.738552)
(3.49588e-28 1.12733 0.757213)
(5.48195e-28 1.15602 0.776542)
(-1.26926e-27 1.18391 0.796555)
(-1.12537e-26 1.21107 0.81728)
(-3.64318e-26 1.23764 0.838743)
(-4.75706e-26 1.26373 0.860966)
(1.46543e-25 1.28949 0.883953)
(1.09426e-24 1.31503 0.907696)
(3.40946e-24 1.34043 0.93219)
(4.80174e-24 1.36577 0.957466)
(-1.01562e-23 1.39116 0.983622)
(-8.83649e-23 1.41681 1.01086)
(-2.98536e-22 1.4431 1.0395)
(-5.30378e-22 1.47068 1.06986)
(2.85533e-22 1.50033 1.10214)
(5.80607e-21 1.53275 1.13626)
(2.2754e-20 1.5682 1.17186)
(5.02955e-20 1.60656 1.20845)
(3.41591e-20 1.64733 1.24541)
(-2.39332e-19 1.68967 1.28204)
(-1.25272e-18 1.73254 1.31763)
(-3.53094e-18 1.77479 1.35162)
(-6.19222e-18 1.81535 1.38392)
(-2.83583e-18 1.85321 1.41576)
(2.63906e-17 1.88738 1.45097)
(1.25396e-16 1.91655 1.4976)
(3.69706e-16 1.93892 1.56821)
(8.6121e-16 1.95243 1.67732)
(1.70273e-15 1.95576 1.83495)
(2.95759e-15 1.94972 2.03875)
(4.61406e-15 1.93737 2.27002)
(6.57631e-15 1.92244 2.49768)
(8.68597e-15 1.90654 2.68764)
(1.07587e-14 1.88623 2.81123)
(1.26171e-14 1.85213 2.84829)
(1.41376e-14 1.79773 2.78933)
(1.53498e-14 1.73407 2.6456)
(1.62942e-14 1.60361 2.42669)
(1.53842e-14 0.963251 1.86436)
(7.85706e-15 -0.518101 0.213162)
(4.04449e-15 -1.49248 -0.167491)
(2.23289e-15 -1.96953 -0.245983)
(8.27002e-16 -2.45901 -0.373776)
(1.55913e-16 -2.93846 -0.401742)
(-3.09688e-18 -3.40587 -0.402163)
(-7.9488e-18 -3.85125 -0.373336)
(-1.4372e-18 -4.22037 -0.348392)
(1.31251e-21 -4.50457 -0.323013)
(4.11521e-20 -4.67438 -0.304508)
(5.62426e-21 -4.73835 -0.291829)
(-4.56976e-22 -4.68552 -0.292139)
(-2.10319e-22 -4.54017 -0.28521)
(-7.17731e-23 -4.26128 -0.297728)
(1.08175e-22 -3.9765 -0.274127)
(-4.41989e-22 -3.5149 -0.29818)
(2.34088e-21 -3.39491 -0.229951)
(-1.89758e-20 -2.72949 -0.314244)
(2.87655e-19 -3.28685 -0.17238)
(-4.36049e-18 -2.41919 -0.372943)
(3.54632e-17 -2.98561 -0.283704)
(-1.16221e-17 -5.54512 -0.399262)
(-1.75341e-37 0.425057 0.58844)
(1.90822e-36 0.501079 0.581813)
(9.20499e-36 0.544862 0.584983)
(2.13897e-35 0.59081 0.586576)
(2.69951e-36 0.634189 0.591892)
(-1.93691e-34 0.675644 0.597788)
(-8.23135e-34 0.71575 0.605651)
(-1.48043e-33 0.754521 0.61458)
(2.05634e-33 0.792243 0.624903)
(2.32062e-32 0.828998 0.636322)
(7.53736e-32 0.864898 0.648872)
(7.93084e-32 0.899996 0.66242)
(-4.35026e-31 0.934321 0.676921)
(-2.6556e-30 0.967876 0.692294)
(-6.84484e-30 1.00065 0.708482)
(-1.94028e-30 1.03261 0.725428)
(6.23102e-29 1.06374 0.743092)
(2.89256e-28 1.09401 0.761444)
(6.15271e-28 1.12341 0.780473)
(-2.63001e-28 1.15196 0.800185)
(-7.29487e-27 1.1797 0.820603)
(-2.90273e-26 1.20671 0.841763)
(-5.49578e-26 1.23312 0.863698)
(3.95938e-26 1.25906 0.886433)
(6.92256e-25 1.28466 0.909971)
(2.654e-24 1.31004 0.934301)
(5.24032e-24 1.33528 0.959412)
(-1.22244e-24 1.36045 0.985338)
(-5.29462e-23 1.38564 1.01219)
(-2.23321e-22 1.41102 1.04021)
(-5.16337e-22 1.43698 1.06975)
(-3.10518e-22 1.46417 1.10119)
(3.12687e-21 1.49343 1.13476)
(1.63179e-20 1.5255 1.17031)
(4.46696e-20 1.56069 1.20742)
(5.98145e-20 1.59891 1.24551)
(-9.46336e-20 1.6397 1.28387)
(-8.48615e-19 1.68219 1.32167)
(-2.8669e-18 1.72535 1.35815)
(-6.05717e-18 1.76794 1.39281)
(-6.14095e-18 1.80865 1.42621)
(1.28457e-17 1.84596 1.4614)
(8.99581e-17 1.87802 1.50586)
(2.9783e-16 1.90256 1.57271)
(7.41805e-16 1.91723 1.67906)
(1.53708e-15 1.92067 1.8396)
(2.76505e-15 1.91389 2.05716)
(4.42926e-15 1.90108 2.31607)
(6.43863e-15 1.88812 2.58426)
(8.62834e-15 1.87967 2.82364)
(1.08037e-14 1.8764 3.00142)
(1.2781e-14 1.87302 3.09546)
(1.44104e-14 1.85823 3.09293)
(1.55935e-14 1.82249 2.9893)
(1.63373e-14 1.77398 2.79941)
(1.67197e-14 1.6813 2.55286)
(1.58699e-14 1.18152 2.06218)
(9.62442e-15 -0.319736 0.39427)
(4.3504e-15 -1.44004 -0.27547)
(2.25399e-15 -1.95211 -0.313497)
(8.40129e-16 -2.44438 -0.425357)
(1.64927e-16 -2.93644 -0.44389)
(-2.69708e-18 -3.41034 -0.427944)
(-8.61141e-18 -3.85813 -0.381097)