/*--------------------------------*- C++ -*----------------------------------*\
| =========                 |                                                 |
| \\      /  F ield         | OpenFOAM: The Open Source CFD Toolbox           |
|  \\    /   O peration     | Version:  4.1                                   |
|   \\  /    A nd           | Web:      www.OpenFOAM.org                      |
|    \\/     M anipulation  |                                                 |
\*---------------------------------------------------------------------------*/
FoamFile
{
    version     2.0;
    format      ascii;
    class       volScalarField;
    location    "27";
    object      p;
}
// * * * * * * * * * * * * * * * * * * * * * * * * * * * * * * * * * * * * * //

dimensions      [0 2 -2 0 0 0 0];

internalField   nonuniform List<scalar> 
6785
(
3748.36
3684.31
3633.29
3583.92
3538.12
3495.14
3454.82
3416.95
3381.31
3347.27
3314.32
3283.87
3255.99
3222.09
3186.3
3219.9
3202.42
3205.35
3201.24
3198.08
3194.86
3192.06
3189.91
3188.64
3188.32
3188.84
3190.68
3194.56
3198.41
3199.48
3172.41
3166.59
3176.51
3176.22
3179.99
3182.8
3185.8
3188.63
3191.25
3193.59
3195.65
3197.5
3198.95
3200.02
3200.6
3218.87
3215.76
3220.33
3216.06
3215.96
3213.73
3211.83
3209.63
3207.37
3205.11
3203.21
3201.91
3200.83
3199.9
3199.57
3201.56
3198.21
3200.07
3195.76
3195.9
3193.8
3192.54
3191.18
3189.99
3188.96
3188.25
3187.86
3187.37
3186.99
3187.44
3185.97
3183.71
3185.72
3183.02
3184.38
3183.48
3183.56
3183.48
3183.47
3183.51
3183.67
3183.89
3184.04
3184.29
3185.03
3188.73
3187.89
3189.96
3188.25
3189.79
3189.3
3189.7
3189.86
3190.03
3190.22
3190.44
3190.66
3190.96
3191.26
3192
3196.14
3196.19
3197.92
3196.74
3198.2
3197.9
3198.47
3198.78
3199.14
3199.52
3199.93
3200.33
3200.8
3201.18
3201.79
3202.58
3203.09
3204.48
3203.63
3204.95
3204.77
3205.39
3205.74
3206.15
3206.58
3207.01
3207.41
3207.86
3208.19
3208.66
3208.16
3209.03
3210.2
3209.61
3210.82
3210.73
3211.35
3211.7
3212.05
3212.4
3212.77
3213.13
3213.55
3213.85
3214.34
3214.99
3216.12
3217.09
3216.59
3217.65
3217.56
3218.1
3218.29
3218.64
3218.96
3219.31
3219.67
3220.12
3220.44
3220.97
3220.64
3221.89
3222.6
3222.43
3223.48
3223.63
3224.36
3224.75
3225.33
3225.79
3226.23
3226.65
3227.11
3227.45
3227.88
3230.13
3229.97
3229.79
3229.33
3230.2
3230.46
3231.26
3231.38
3231.86
3232.23
3232.48
3232.49
3232.42
3232.54
3232.91
3189.21
3190.6
3197.45
3203.33
3211.09
3217.54
3223.32
3227.2
3230.2
3232.01
3232.29
3231.86
3232.61
3233.76
3233.84
3144.37
3163.84
3175.03
3183.27
3189.77
3192.33
3192.74
3191.59
3191.4
3192.23
3194.6
3200.52
3209.64
3217
3215.02
3799.08
3798.46
3798.01
3795.52
3794.94
3793.22
3790.02
3784.45
3782.73
3782.31
3776.83
3764.7
3766.92
3759.21
3745.38
3741.01
3749.83
3739.36
3714.93
3724.95
3714.85
3692.14
3684.72
3707.25
3689.24
3659.23
3651.47
3679.72
3665.16
3619.63
3641.45
3633.35
3595.29
3583.39
3625.25
3610.52
3549.23
3579.81
3574.63
3525.66
3509.57
3570.41
3546.39
3484.27
3469.16
3537.94
3522.2
3434.77
3480.2
3481.78
3415.28
3394.11
3481.69
3456.08
3373.27
3354.81
3450.74
3436.4
3323.43
3386.39
3395.84
3312.46
3289.07
3397.44
3387.39
3262.37
3334.24
3349.46
3259.87
3234.05
3359.76
3338
3231.61
3210.53
3341.76
3333.95
3199.62
3269.96
3322.96
3190.8
3265.22
3355.36
3348.65
3327.65
3353.78
3337.88
3326.44
3324.11
3323.73
3320.86
3321.25
3318.19
3386.13
3340.51
3306.99
3298.15
3302.87
3305.98
3297.12
3288.56
3266.71
3298.98
3284.65
3246.93
3230.79
3217.39
3199.96
3185.19
3170.08
3158.38
3134.91
3122.48
3131.99
3091.42
3075.84
3061.79
3042.61
3018.17
2991.98
2962.97
2930.57
2965.81
2917.87
2893.16
2873.26
2854.5
2833.79
2821.06
2791.54
2702.51
2752.08
2689.03
2666.05
2649.13
2615.77
2583.59
2563.94
2530.86
2437.83
2440.99
2338.16
2300.91
2277.84
2241.43
2194.27
2135.37
2100.25
2045.27
1860.92
1891.23
1716.85
1642.81
1599.79
1533.24
1454.1
1365.52
1233.83
874.774
1002.91
733.116
405.697
1053.67
1450.87
1011.59
1014.71
1041.88
1095.26
1306.96
1123.78
1043.23
1277.76
1126.48
1088.6
1116.4
1096.99
1303.68
1152.96
1101.48
1154.52
1120.26
1377.75
1244.03
1066.33
1446.36
1274.39
1138.14
1235.19
1156.66
1567.88
1303.02
1120.38
1239.06
1135.6
1628.97
1348.75
937.837
1649.43
1307.89
992.293
1159.45
1002.75
1740.45
1229.82
862.219
1059.6
882.794
1730.93
1215.89
497.511
1680.59
1101.03
566.398
819.876
586.267
1757.73
927.921
336.596
630.865
378.309
1678.6
873.297
-222.608
1552.73
680.403
-125.261
234.561
-93.8289
1635.61
392.388
-494.056
-80.9445
-440.204
1463.53
252.459
-1387.18
1216.48
-111.706
-1306.77
-908.925
-1140.93
0.610598
2.1714
2.32161
3.07826
3.60362
3.84811
3.5593
2.93245
2.6266
3.48278
6.21889
11.0699
17.0659
21.0503
19.9678
16.1894
14.2969
14.7958
15.7628
16.0649
17.476
19.5505
21.2454
20.9678
19.2385
18.1449
18.2486
18.8564
19.4042
19.5874
17.5973
13.7804
9.71522
6.40502
4.24742
3.18152
2.4222
1.57187
0.644304
-0.582955
-2.77773
-6.95148
-10.3146
-7.60102
-5.79694
-6.28451
-7.65817
-11.1146
-12.6107
-14.2336
-17.2418
-17.7993
-11.2069
-9.90583
-12.8509
-15.3526
-36.5256
-41.1041
2.36596
6.32207
22.6781
9.3761
100.331
77.7917
5.98281
-13.2685
-5.49843
5.64163
14.8821
21.071
25.2038
27.1387
29.0603
31.0283
33.9375
33.6202
31.8238
18.3714
16.1478
0.359795
4.82878
7.58089
10.7591
13.8697
16.5531
18.5647
19.8298
21.057
23.6029
29.1848
38.8108
50.5947
57.9354
55.0055
46.8061
43.986
46.8256
48.2076
49.1977
50.3208
53.3178
56.4675
55.2821
51.2861
48.804
48.4928
48.7314
47.6642
45.1857
39.5579
31.1909
23.1063
16.6702
12.2438
9.61205
7.54911
5.55414
3.47598
0.558469
-0.905454
-2.95832
-12.6077
-20.5017
-25.4856
-26.409
-26.3419
-32.9316
-35.2075
-41.2928
-51.7753
-54.8204
-34.7674
-29.5718
-38.3425
-49.1831
-74.7896
-65.099
26.5043
-29.2957
6.96705
31.1778
218.947
98.8721
-4.07871
-11.1558
15.3892
38.5562
56.0689
67.527
75.8409
80.0248
83.0482
83.7618
84.2761
79.3087
83.3327
78.138
47.5759
0.613421
6.95461
11.2106
15.9791
20.5593
24.7578
28.38
31.3288
34.1467
37.9564
44.2566
53.8552
64.8803
71.5362
69.3598
62.7865
60.8088
63.7089
64.959
66.4113
67.4053
69.8829
72.4546
71.3341
67.8005
65.5175
64.9076
64.4304
61.7021
58.0376
52.0015
42.8248
33.7015
25.998
20.2674
16.3674
13.0182
9.55246
5.80602
0.53263
-3.34439
-10.2921
-24.9012
-33.3008
-39.2394
-41.965
-44.3423
-57.161
-62.0916
-72.1905
-88.5208
-93.5347
-60.6099
-48.4511
-61.8847
-85.8949
-112.846
-103.411
16.0709
-7.5084
32.7575
15.1272
188.531
75.247
25.288
30.3009
61.2581
85.7023
104.538
116.696
125.949
131.615
137.29
140.089
144.123
138.18
140.913
128.375
129.168
1.21653
9.21945
14.5424
20.6408
26.3311
31.6578
36.3897
40.4997
44.4968
49.3423
56.2309
65.6232
75.7575
81.9866
81.1101
76.4567
74.8995
77.1775
78.38
80.161
81.5809
83.899
85.8863
85.0361
82.3072
80.5734
80.2052
79.927
76.1404
70.7931
64.7266
55.0614
44.9458
35.8727
28.7318
23.4983
18.8204
13.9667
8.65831
1.22668
-3.96484
-13.9402
-33.2937
-45.8351
-54.9713
-59.3652
-63.4642
-80.4171
-88.215
-102.273
-123.763
-130.427
-88.2068
-66.1261
-82.9493
-118.411
-157.319
-122.186
4.4542
-27.9982
44.026
8.76771
184.449
67.0085
55.7397
67.8703
103.275
129.923
150.941
164.473
175.31
182.538
189.846
193.16
198.281
190.543
195.039
182.46
168.408
1.78639
11.557
18.1914
25.7643
32.7724
39.3862
45.3238
50.5767
55.6693
61.5624
69.4073
79.5384
90.1395
96.8047
96.6339
92.5828
91.0752
93.2395
94.5449
96.6583
98.4716
100.954
102.813
102.037
99.5274
97.989
97.8117
97.8283
93.4925
85.9718
79.3538
68.5668
56.9903
46.2767
37.6008
30.9992
24.9909
18.7106
11.7222
2.04058
-4.95386
-19.061
-42.6634
-58.3438
-70.0764
-76.4008
-82.9704
-104.474
-115.243
-132.557
-157.919
-165.647
-116.413
-82.4151
-100.869
-145.423
-202.06
-155.996
2.02669
-41.6812
46.9177
0.447039
199.326
64.6361
77.3032
98.012
140.879
171.622
195.961
211.522
224.086
232.492
241.459
245.686
252.58
243.735
249.185
236.494
247.349
2.3557
13.8407
21.9066
30.9815
39.3667
47.3102
54.506
60.9506
67.1767
74.1445
82.9919
93.9653
105.148
112.18
112.382
108.705
107.381
109.719
111.154
113.616
115.655
118.239
120.052
119.314
116.874
115.365
115.193
115.253
110.753
101.153
94.014
82.1524
69.2199
56.9689
46.8291
38.8816
31.5357
23.8225
15.115
3.23357
-5.51552
-23.6708
-51.3503
-70.8585
-85.5256
-93.9289
-103.259
-129.366
-142.332
-161.929
-189.55
-197.471
-144.233
-97.4209
-115.753
-170.122
-246.694
-189.353
-14.5139
-53.4698
46.2412
-14.1003
197.599
59.6516
97.8666
128.93
179.237
213.767
241.073
258.3
272.196
281.599
291.923
296.699
304.854
295.007
301.887
283.186
289.245
3.00214
16.0907
25.5705
36.088
45.7961
55.0026
63.3935
70.9781
78.3043
86.3103
96.0761
107.719
119.245
126.462
127.019
123.851
122.781
125.268
126.821
129.618
131.868
134.513
136.25
135.599
133.309
131.863
131.712
131.813
127.585
115.969
108.33
95.655
81.6018
67.9654
56.4401
47.1602
38.4661
29.3004
18.8066
4.74382
-5.9909
-28.4797
-60.0739
-83.4554
-100.976
-111.694
-124.338
-154.928
-169.768
-190.56
-218.268
-225.197
-172.034
-113.064
-131.094
-198.187
-297.163
-222.229
-26.0823
-62.0847
35.3647
-33.6466
178.704
53.3605
117.933
160.568
217.974
255.952
285.907
304.536
319.598
329.81
341.361
346.661
356.061
345.491
354.018
344.739
336.322
3.71344
18.335
29.2412
41.1674
52.1787
62.6098
72.1475
80.8125
89.1821
98.1813
108.836
121.13
133.003
140.422
141.306
138.594
137.728
140.349
142.032
145.146
147.637
150.386
152.076
151.526
149.386
148.017
147.937
148.105
144.547
131.204
122.68
109.302
94.2475
79.3081
66.4435
55.8358
45.7816
35.1491
22.8148
6.61962
-6.29037
-33.2089
-68.6776
-96.1793
-116.563
-129.885
-146.338
-181.033
-197.507
-218.415
-244.258
-249.627
-198.915
-131.946
-151.288
-232.986
-350.215
-253.239
-38.1308
-67.2028
17.2475
-60.456
143.283
46.0562
135.642
191.363
256.084
297.611
330.19
350.156
366.271
377.151
389.766
395.449
405.902
394.722
405.086
395.955
419.776
4.47137
20.5709
32.9458
46.2644
58.5831
70.2211
80.8818
90.5908
99.9681
109.936
121.483
134.471
146.76
154.412
155.532
153.164
152.479
155.284
157.117
160.544
163.272
166.154
167.838
167.386
165.351
164.028
164.008
164.198
161.553
147.215
137.139
123.126
107.154
90.9837
76.8283
64.9025
53.4811
41.3693
27.1413
8.8632
-6.48362
-37.9567
-77.3116
-109.068
-132.261
-148.563
-169.379
-207.872
-225.849
-246.015
-268.861
-272.497
-224.403
-158.687
-181.87
-277.194
-404.547
-278.905
-49.4647
-70.7689
-9.80808
-96.6689
89.3795
36.718
150.983
221.445
293.66
338.83
373.973
395.176
412.197
423.611
437.169
443.162
454.564
442.972
455.095
442.616
464.448
5.27783
22.7943
36.6748
51.3625
64.9852
77.8044
89.5612
100.282
110.641
121.561
133.995
147.682
160.394
168.259
169.529
167.451
166.953
169.988
171.986
175.726
178.675
181.698
183.399
183.049
181.093
179.793
179.808
179.998
178.379
163.985
151.595
137.071
120.284
102.968
87.5796
74.3505
61.5594
47.959
31.7926
11.4866
-6.57578
-42.6882
-86.0016
-122.144
-148.12
-167.878
-193.699
-235.734
-255.165
-274.133
-293.685
-295.231
-248.63
-200.314
-229.641
-333.55
-461.788
-306.2
-62.786
-75.9351
-44.3459
-142.25
19.0064
24.7883
164.337
251.092
330.844
379.683
417.255
439.564
457.354
469.2
483.583
489.802
502.031
490.186
504.257
499.656
512.933
6.13575
25.0073
40.4248
56.4538
71.3721
85.3418
98.1643
109.862
121.176
133.028
146.335
160.708
173.822
181.872
183.236
181.421
181.108
184.395
186.567
190.621
193.786
196.958
198.692
198.457
196.568
195.281
195.317
195.516
194.905
181.346
166.048
151.119
133.622
115.244
98.6796
84.1648
70.0082
54.9148
36.7743
14.4924
-6.59135
-47.423
-94.8066
-135.424
-164.188
-187.981
-219.46
-264.911
-285.927
-303.797
-320.217
-318.963
-273.327
-258.722
-297.734
-404.479
-526.603
-340.987
-80.6655
-85.9171
-86.7116
-196.543
-63.5042
10.3049
175.83
280.246
367.566
420.126
459.986
483.288
501.725
513.919
529.022
535.4
548.36
536.38
552.433
550.288
586.348
7.04404
27.2123
44.2003
61.5435
77.7508
92.8413
106.701
119.344
131.587
144.352
158.519
173.563
187.063
195.277
196.692
195.112
194.977
198.534
200.887
205.255
208.633
211.965
213.753
213.645
211.817
210.534
210.569
210.789
211.006
198.96
180.787
165.287
147.159
127.793
110.106
94.326
78.8182
62.2323
42.0938
17.881
-6.54279
-52.1629
-103.762
-148.928
-180.547
-209.054
-246.818
-295.607
-318.606
-336.032
-349.531
-344.777
-301.12
-323.747
-382.754
-491.53
-604.986
-390.429
-106.768
-102.905
-135.26
-257.514
-153.732
-6.24334
185.66
308.865
403.773
460.137
502.138
526.328
545.301
557.771
573.494
579.968
593.569
581.582
599.662
600.384
627.074
8.00178
29.4099
48.0039
66.6348
84.1253
100.307
115.179
128.737
141.887
155.549
170.563
186.265
200.132
208.488
209.913
208.545
208.583
212.429
214.967
219.649
223.235
226.735
228.597
228.628
226.862
225.578
225.588
225.827
226.577
216.429
196.367
179.619
160.887
140.597
121.836
104.812
87.9799
69.9075
47.7601
21.6491
-6.44287
-56.9164
-112.9
-162.664
-197.306
-231.31
-275.995
-328.035
-353.669
-371.694
-382.389
-373.579
-332.989
-388.575
-479.778
-594.09
-701.39
-460.147
-144.637
-127.961
-189.239
-322.626
-247.636
-24.0013
194.15
337.004
439.471
499.718
543.698
568.669
588.071
600.759
617
623.517
637.689
625.81
645.906
649.629
694.065
9.00913
31.601
51.8366
71.7278
90.495
107.739
123.596
138.043
152.081
166.624
182.472
198.814
213.023
221.497
222.898
221.723
221.93
226.082
228.806
233.801
237.59
241.262
243.216
243.397
241.706
240.429
240.389
240.632
241.626
233.489
213.124
194.247
174.819
153.64
133.845
115.602
97.4871
77.9381
53.7846
25.7911
-6.3008
-61.6875
-122.24
-176.641
-214.6
-254.958
-307.177
-362.562
-391.604
-411.401
-419.265
-405.842
-368.595
-452.699
-582.082
-708.26
-816.485
-552.458
-196.646
-161.153
-247.62
-388.591
-341.598
-41.9472
201.662
364.764
474.699
538.871
584.656
610.294
630.029
642.879
659.537
666.05
680.744
669.128
691.11
691.594
732.774
10.0664
33.7863
55.6996
76.8231
96.8601
115.135
131.953
147.263
162.173
177.583
194.251
211.211
225.731
234.3
235.648
234.649
235.019
239.491
242.4
247.705
251.693
255.541
257.604
257.946
256.353
255.099
254.99
255.221
256.243
250.029
230.713
209.479
189.031
166.923
146.117
126.681
107.34
86.326
60.1809
30.2975
-6.12393
-66.4777
-131.794
-190.874
-232.595
-280.194
-340.51
-399.564
-432.902
-455.593
-460.362
-441.605
-406.865
-512.433
-680.147
-826.683
-947.249
-666.446
-263.546
-202.575
-310.447
-451.474
-432.359
-59.1109
208.587
392.289
509.522
577.596
625.002
651.191
671.168
684.125
701.095
707.571
722.764
711.569
735.565
743.61
773.007
11.1737
35.9665
59.5943
81.9218
103.221
122.497
140.253
156.402
172.169
188.433
205.907
223.462
238.26
246.901
248.171
247.329
247.852
252.657
255.744
261.356
265.544
269.571
271.754
272.275
270.808
269.599
269.42
269.614
270.537
266.008
248.42
225.604
203.686
180.479
158.648
138.043
117.549
95.0774
66.9629
35.1546
-5.91633
-71.2839
-141.566
-205.394
-251.456
-307.231
-376.217
-439.368
-478.03
-504.624
-505.613
-480.658
-446.289
-565.247
-764.766
-938.921
-1086.23
-797.298
-344.589
-252.257
-377.695
-507.496
-517.057
-74.6535
215.341
419.786
544.011
615.904
664.728
691.349
711.482
724.482
741.662
748.079
763.777
753.132
779.109
787.472
837.523
12.3316
38.1422
63.5219
87.0245
109.579
129.825
148.497
165.465
182.076
199.182
217.445
235.571
250.613
259.306
260.469
259.766
260.428
265.574
268.83
274.747
279.136
283.344
285.659
286.378
285.067
283.931
283.704
283.843
284.605
281.363
265.731
242.508
218.975
194.412
171.466
149.706
128.131
104.2
74.143
40.3431
-5.6774
-76.0981
-151.553
-220.237
-271.357
-336.307
-414.579
-482.33
-527.421
-558.75
-554.697
-522.54
-485.659
-610.795
-828.771
-1034.32
-1223.45
-936.48
-437.326
-308.403
-448.991
-555.451
-593.906
-87.8826
222.325
447.492
578.213
653.808
703.829
730.757
750.961
763.93
781.219
787.578
803.819
793.916
821.718
826.972
874.583
13.5407
40.3139
67.4837
92.1316
115.933
137.119
156.686
174.454
191.899
209.837
228.873
247.544
262.793
271.513
272.541
271.953
272.738
278.233
281.644
287.866
292.461
296.845
299.3
300.244
299.121
298.09
297.856
297.943
298.518
296.061
282.413
259.72
234.954
208.87
184.631
161.714
139.106
113.695
81.7295
45.8386
-5.40004
-80.9076
-161.744
-235.444
-292.503
-367.661
-455.923
-528.883
-581.522
-618.058
-607.067
-566.467
-524.248
-649.769
-869.295
-1106.29
-1350.95
-1074.99
-537.176
-365.278
-522.31
-598.514
-662.959
-98.2972
229.934
475.628
612.162
691.334
742.304
769.406
789.59
802.442
819.747
826.075
842.936
833.967
863.621
873.586
911.793
14.8019
42.4818
71.4807
97.2434
122.283
144.378
164.822
183.374
201.644
220.403
240.195
259.387
274.806
283.521
284.379
283.882
284.772
290.62
294.172
300.702
305.505
310.056
312.657
313.851
312.956
312.068
311.874
311.947
312.324
310.219
298.384
276.793
251.42
223.938
198.212
174.116
150.487
123.556
89.7258
51.6133
-5.06972
-85.6947
-172.118
-251.063
-315.12
-401.562
-500.641
-579.577
-640.86
-682.596
-662.076
-611.374
-561.618
-682.755
-888.889
-1152.13
-1462.91
-1205.01
-637.655
-414.274
-592.623
-642.029
-725.896
-105.561
238.587
504.381
645.935
728.514
780.152
807.284
827.347
839.985
857.229
863.585
881.181
873.319
904.758
915.188
965.433
16.1165
44.6463
75.5138
102.36
128.629
151.603
172.907
192.227
211.318
230.888
251.419
271.107
286.66
295.321
295.97
295.534
296.517
302.723
306.402
313.245
318.253
322.967
325.706
327.179
326.558
325.86
325.752
325.865
326.071
324.077
313.69
293.476
268.06
239.588
212.284
186.96
162.285
133.767
98.1306
57.6382
-4.66437
-90.437
-182.652
-267.173
-339.369
-438.28
-549.159
-635.084
-706.091
-752.445
-719.172
-656.047
-597.512
-710.549
-892.796
-1169.62
-1550.6
-1318.11
-731.629
-450.87
-653.795
-687.045
-784.575
-109.375
248.721
533.925
679.651
765.379
817.372
844.376
864.202
876.524
893.653
900.137
918.618
912.047
945.208
955.742
996.432
17.4857
46.8078
79.5839
107.481
134.971
158.794
180.942
201.019
220.925
241.298
262.55
282.712
298.356
306.898
307.29
306.889
307.957
314.531
318.327
325.49
330.698
335.574
338.441
340.215
339.913
339.458
339.485
339.701
339.814
337.848
328.529
309.654
284.604
255.629
226.876
200.284
174.497
144.312
106.939
63.8858
-4.15498
-95.1089
-193.325
-283.827
-365.299
-478.125
-602.001
-696.298
-778.123
-827.661
-778.069
-699.298
-631.837
-734.451
-885.411
-1158.62
-1603.02
-1404.51
-811.984
-479.686
-701.772
-725.662
-839.049
-109.338
260.737
564.489
713.426
801.957
853.954
880.654
900.117
912.025
929.016
935.772
955.324
950.209
985.015
995.86
1041.43
18.9115
48.9667
83.6917
112.607
141.307
165.951
188.929
209.754
230.473
251.64
273.592
294.201
309.896
318.228
318.309
317.924
319.08
326.036
329.948
337.438
342.841
347.882
350.87
352.959
353.009
352.846
353.068
353.458
353.606
351.649
343.126
325.314
300.864
271.78
241.862
214.07
187.104
155.178
116.143
70.3312
-3.50627
-99.6826
-204.112
-301.021
-393.059
-521.543
-659.846
-764.368
-858.104
-908.358
-838.808
-740.565
-664.675
-755.708
-872.964
-1127.35
-1615.49
-1454.71
-871.263
-506.845
-733.079
-748.963
-887.327
-104.959
275.021
596.306
747.33
838.248
889.865
916.078
935.045
946.462
963.332
970.551
991.383
987.902
1024.18
1030.22
1070.67
20.3957
51.1233
87.8377
117.736
147.637
173.074
196.869
218.435
239.966
261.921
284.552
305.572
321.268
329.284
328.999
328.619
329.878
337.234
341.27
349.095
354.692
359.902
363.017
365.425
365.836
365.993
366.469
367.125
367.469
365.568
357.609
340.652
316.711
287.85
257.079
228.244
200.068
166.362
125.731
76.9511
-2.67718
-104.128
-214.975
-318.819
-423.051
-568.964
-723.486
-840.611
-947.365
-994.806
-901.828
-780.283
-696.272
-776.061
-861.64
-1088.37
-1596.1
-1466.7
-904.024
-528.981
-743.645
-764.07
-928.835
-95.9689
291.912
629.502
781.372
874.206
925.044
950.588
968.939
979.822
996.634
1004.55
1026.89
1025.2
1062.95
1071.45
1096.42
21.9405
53.2773
92.0225
122.869
153.961
180.163
204.767
227.068
249.413
272.148
295.433
316.814
332.444
340.036
339.336
338.964
340.349
348.13
352.299
360.473
366.268
371.653
374.914
377.641
378.397
378.864
379.615
380.623
381.355
379.684
372.108
356.006
332.101
303.655
272.35
242.694
213.353
177.863
135.686
83.7243
-1.62154
-108.415
-225.89
-337.367
-455.681
-620.811
-793.83
-926.515
-1047.37
-1087.54
-967.988
-819.65
-726.963
-797.571
-854.67
-1049.58
-1560.15
-1447.35
-911.125
-537.825
-734.985
-786.025
-965.858
-82.5047
311.532
664.043
815.483
909.741
959.399
984.108
1001.76
1012.11
1028.98
1037.84
1061.93
1062.16
1101.3
1107.12
1136.43
23.5484
55.4282
96.2464
128.004
160.276
187.219
212.624
235.658
258.818
282.325
306.234
327.911
343.376
350.453
349.309
348.961
350.498
358.73
363.046
371.587
377.585
383.156
386.59
389.644
390.721
391.453
392.438
393.812
395.087
393.964
386.798
371.482
347.203
319.101
287.518
257.309
226.948
189.641
145.993
90.6432
-0.290366
-112.511
-236.832
-356.766
-491.109
-677.534
-871.924
-1023.74
-1159.55
-1187.59
-1037.8
-860.163
-757.533
-822.415
-852.775
-1013.63
-1517.04
-1404.19
-898.885
-536.292
-715.927
-814.09
-999.343
-64.8679
333.767
699.756
849.532
944.725
992.825
1016.56
1033.47
1043.34
1060.45
1070.54
1096.62
1098.89
1139.24
1139.58
1161.94
25.2224
57.575
100.51
133.141
166.584
194.243
220.446
244.211
268.188
292.457
316.955
338.84
354.025
360.507
358.909
358.618
360.342
369.051
373.529
382.454
388.658
394.428
398.059
401.464
402.852
403.801
404.935
406.594
408.411
408.119
401.684
386.952
362.355
334.213
302.568
272.061
240.811
201.619
156.651
97.731
1.36309
-116.384
-247.777
-377.045
-529.363
-739.594
-958.908
-1133.97
-1285.39
-1296.42
-1111.46
-903.32
-789.062
-851.932
-856.815
-982.598
-1460.17
-1341.01
-875.105
-535.64
-695.063
-839.869
-1027.63
-43.3211
358.294
736.373
883.365
979.034
1025.23
1047.9
1064.07
1073.56
1091.12
1102.73
1131.04
1135.45
1176.96
1176.7
1183.37
26.9657
59.7167
104.814
138.277
172.883
201.238
228.238
252.733
277.529
302.546
327.588
349.581
364.359
370.174
368.138
367.948
369.907
379.121
383.767
393.091
399.501
405.482
409.33
413.116
414.827
415.977
417.193
419.01
421.205
421.763
416.425
402.299
377.759
349.013
317.446
286.876
254.839
213.759
167.591
105.047
3.38143
-120.003
-258.694
-398.168
-570.481
-807.454
-1055.89
-1258.73
-1426.5
-1415.79
-1190.43
-950.53
-822.507
-886.43
-870.639
-965.562
-1383.74
-1258.37
-846.032
-541.72
-676.343
-862.387
-1049.61
-18.0278
384.691
773.559
916.819
1012.56
1056.55
1078.08
1093.58
1102.83
1121.11
1134.53
1165.29
1171.91
1214.48
1210.56
1214.37
28.7818
61.8516
109.157
143.411
179.173
208.206
236.003
261.233
286.85
312.595
338.123
360.104
374.344
379.441
377.013
376.975
379.22
388.964
393.786
403.516
410.127
416.329
420.405
424.599
426.664
428.031
429.321
431.212
433.596
434.786
430.615
417.331
393.232
363.491
332.002
301.571
268.892
226.036
178.611
112.685
5.80854
-123.344
-269.539
-420.017
-614.516
-881.524
-1163.86
-1399.23
-1584.71
-1547.69
-1276.43
-1002.39
-858.267
-925.983
-896.15
-966.84
-1301.41
-1166.95
-817.137
-553.897
-661.095
-884.08
-1065.81
10.8976
412.7
810.98
949.734
1045.21
1086.76
1107.13
1122.04
1131.22
1150.52
1166.02
1199.48
1208.34
1251.89
1243.68
1233.55
30.6748
63.9773
113.538
148.543
185.452
215.15
243.747
269.718
296.154
322.604
348.541
370.371
383.959
388.324
385.568
385.729
388.307
398.603
403.612
413.744
420.549
426.981
431.287
435.9
438.354
439.976
441.367
443.318
445.792
447.372
444.172
431.817
408.368
377.608
346.099
315.948
282.834
238.456
189.478
120.722
8.68845
-126.383
-280.255
-442.64
-661.584
-962.208
-1283.59
-1556.25
-1761.84
-1693.87
-1370.02
-1058.73
-896.671
-969.681
-932.002
-979.36
-1225.13
-1084.02
-791.415
-569.667
-650.296
-904.849
-1077.15
43.2654
442.292
848.375
981.99
1076.9
1115.85
1135.08
1149.5
1158.81
1179.47
1197.35
1233.68
1244.8
1289.27
1276.97
1256.01
32.649
66.0915
117.956
153.67
191.72
222.07
251.476
278.194
305.445
332.563
358.816
380.348
393.206
396.86
393.845
394.248
397.196
408.06
413.267
423.795
430.782
437.448
441.98
447.011
449.875
451.79
453.315
455.341
457.88
459.705
457.239
445.725
422.937
391.346
359.765
329.931
296.61
251.032
200.13
129.062
12.0481
-129.099
-290.808
-466.105
-711.743
-1049.85
-1415.59
-1730.2
-1959.41
-1855.18
-1471.45
-1120.23
-938.961
-1015.88
-974.846
-992.51
-1161.59
-1018.54
-768.452
-586.615
-645.141
-923.05
-1083.53
78.8351
473.505
885.527
1013.51
1107.57
1143.83
1161.98
1176.02
1185.73
1208.07
1228.62
1267.95
1281.35
1326.69
1306.94
1274.05
34.7087
68.1911
122.408
158.79
197.979
228.961
259.191
286.666
314.724
342.462
368.914
390.016
402.116
405.092
401.89
402.571
405.923
417.354
422.771
433.685
440.839
447.745
452.497
457.935
461.212
463.446
465.131
467.246
469.843
471.83
469.923
459.175
436.97
404.816
373.256
343.6
310.223
263.752
210.817
137.355
15.9025
-131.47
-301.146
-490.243
-764.976
-1144.68
-1560.03
-1921.02
-2178
-2031.08
-1580.65
-1188.84
-986.263
-1062.97
-1020.34
-1003.48
-1111.37
-969.841
-748.095
-602.541
-646.057
-937.161
-1083.01
117.323
506.384
922.231
1044.25
1137.2
1170.72
1187.9
1201.69
1212.14
1236.5
1259.96
1302.36
1318.04
1364.32
1341.41
1286.34
36.8585
70.2727
126.889
163.898
204.231
235.828
266.897
295.136
323.987
352.279
378.804
399.382
410.73
413.065
409.745
410.736
414.521
426.51
432.146
443.431
450.734
457.882
462.852
468.686
472.362
474.924
476.79
479.004
481.658
483.748
482.266
472.264
450.57
418.232
386.85
357.113
323.714
276.608
221.775
145.328
20.3096
-133.466
-311.184
-515.021
-821.165
-1246.72
-1716.55
-2128.13
-2416.45
-2219.57
-1697.74
-1266.06
-1037.99
-1109.52
-1065.31
-1015.77
-1070.14
-934.086
-730.729
-615.48
-651.087
-945.435
-1071.24
158.435
540.994
958.295
1074.17
1165.79
1196.59
1212.92
1226.67
1238.25
1264.94
1291.49
1336.93
1354.88
1402.23
1373.39
1306.83
39.1031
72.3323
131.397
168.99
210.472
242.682
274.6
303.606
333.226
361.991
388.473
408.478
419.09
420.822
417.448
418.772
423.019
435.555
441.411
453.052
460.486
467.873
473.06
479.275
483.335
486.221
488.276
490.6
493.314
495.469
494.3
485.041
463.797
431.751
400.719
370.652
337.131
289.559
233.105
153.112
25.3321
-135.043
-320.844
-540.379
-880.001
-1355.89
-1884.11
-2350.13
-2671.31
-2417.65
-1823.75
-1351.66
-1093.05
-1154.59
-1107.88
-1031.33
-1036.71
-907.384
-716.503
-624.621
-655.687
-944.738
-1042.09
201.912
577.466
993.583
1103.3
1193.41
1221.54
1237.23
1251.21
1264.31
1293.56
1323.25
1371.65
1391.91
1440.49
1404.51
1322.41
41.447
74.3661
135.926
174.059
216.696
249.528
282.307
312.076
342.429
371.578
397.927
417.343
427.235
428.395
425.025
426.703
431.438
444.512
450.581
462.564
470.11
477.729
483.129
489.713
494.143
497.347
499.589
502.025
504.796
506.998
506.048
497.512
476.695
445.447
414.947
384.391
350.527
302.556
244.832
160.903
30.9351
-136.112
-330.006
-566.004
-941.537
-1471.89
-2060.98
-2584.83
-2936.58
-2621.72
-1958.42
-1444.2
-1150.66
-1197.94
-1147.48
-1050.12
-1012.31
-887.039
-706.156
-630.566
-654.225
-933.454
-986.836
247.44
615.95
1027.99
1131.81
1220.17
1245.78
1261.04
1275.6
1290.54
1322.49
1355.25
1406.5
1429.11
1479.29
1439.23
1333.59
43.8948
76.3702
140.474
179.107
222.898
256.364
290.018
320.543
351.584
381.029
407.191
426.013
435.192
435.808
432.495
434.544
439.793
453.394
459.667
471.972
479.61
487.455
493.065
500.011
504.8
508.317
510.74
513.281
516.092
518.328
517.504
509.632
489.297
459.341
429.557
398.453
363.983
315.551
256.855
169.019
37.1597
-136.501
-338.506
-591.751
-1005.83
-1593.79
-2244.78
-2829.54
-3203.93
-2828.07
-2099.34
-1542.32
-1210.19
-1240.02
-1184.67
-1070.83
-998.838
-873.282
-700.674
-634.022
-642.158
-904.005
-900.364
294.959
656.657
1061.51
1159.9
1246.26
1269.5
1284.63
1300.11
1317.1
1351.75
1387.44
1441.44
1466.49
1518.73
1473.51
1351.69
46.4505
78.3407
145.034
184.131
229.08
263.19
297.733
328.999
360.678
390.346
416.294
434.512
442.975
443.073
439.866
442.304
448.09
462.203
468.673
481.274
488.983
497.05
502.87
510.176
515.32
519.145
521.748
524.386
527.219
529.463
528.675
521.335
501.596
473.389
444.514
412.887
377.628
328.529
269.174
177.766
43.9508
-136.016
-346.166
-617.496
-1072.22
-1720.1
-2432.27
-3081.6
-3464.52
-3032.83
-2243.29
-1644.59
-1271.69
-1282.28
-1219.94
-1091.79
-996.774
-867.783
-699.781
-634.618
-616.962
-844.921
-786.858
344.934
699.769
1094.32
1187.8
1271.86
1292.94
1308.28
1324.97
1344.09
1381.33
1419.75
1476.4
1504.04
1558.93
1508.92
1366.95
49.1173
80.2737
149.603
189.128
235.243
270.009
305.447
337.436
369.699
399.544
425.261
442.851
450.588
450.199
447.14
449.983
456.325
470.933
477.595
490.466
498.223
506.51
512.541
520.211
525.713
529.851
532.635
535.362
538.208
540.433
539.618
532.615
513.573
487.536
459.763
427.717
391.649
341.546
281.85
187.12
51.1765
-134.319
-352.747
-642.967
-1140.3
-1849.08
-2619.96
-3339.02
-3711.42
-3231.75
-2387.35
-1749.36
-1337.08
-1325.14
-1250.5
-1113.05
-1002
-869.512
-701.272
-631.571
-577.726
-756.964
-652.66
397.808
745.331
1126.71
1215.7
1297.13
1316.42
1332.29
1350.35
1371.53
1411.17
1452.09
1511.33
1541.76
1600.02
1546.2
1386.07
51.8974
82.1652
154.174
194.095
241.391
276.823
313.157
345.846
378.647
408.643
434.105
451.031
458.033
457.193
454.32
457.58
464.492
479.574
486.423
499.538
507.326
515.827
522.073
530.116
535.99
540.453
543.427
546.245
549.101
551.294
550.427
543.576
525.316
501.758
475.258
443.005
406.262
354.828
294.864
197.486
59.3849
-130.801
-357.865
-667.965
-1209.96
-1978.58
-2805.53
-3600.25
-3939.65
-3421.17
-2529.39
-1855.89
-1406.57
-1365.41
-1273.44
-1135.02
-1009.77
-874.742
-702.287
-624.337
-524.845
-647.926
-503.155
453.352
793.253
1158.95
1243.8
1322.28
1340.23
1356.88
1376.29
1399.38
1441.21
1484.39
1546.18
1579.63
1642.08
1583.68
1406.82
54.7914
84.011
158.743
199.028
247.523
283.629
320.857
354.222
387.529
417.661
442.827
459.05
465.314
464.058
461.403
465.094
472.583
488.12
495.146
508.483
516.284
524.994
531.459
539.887
546.154
550.969
554.153
557.077
559.951
562.116
561.215
554.394
537.055
516.036
490.997
458.869
421.656
368.787
308.335
209.397
69.6864
-124.847
-360.903
-692.35
-1280.39
-2106.09
-2987.99
-3860.97
-4145.21
-3599.11
-2668.19
-1963.81
-1477.12
-1401.22
-1290.38
-1153.71
-1018.04
-880.721
-701.152
-612.515
-460.909
-526.092
-344.473
510.828
843.319
1191.31
1272.31
1347.61
1364.61
1382.17
1402.8
1427.57
1471.33
1516.54
1580.89
1617.65
1685.24
1625.3
1432.95
57.7984
85.8062
163.3
203.923
253.636
290.42
328.54
362.562
396.36
426.608
451.422
466.907
472.436
470.8
468.389
472.523
480.596
496.563
503.759
517.294
525.093
534.006
540.694
549.518
556.203
561.407
564.84
567.899
570.819
572.98
572.09