/*--------------------------------*- C++ -*----------------------------------*\
| =========                 |                                                 |
| \\      /  F ield         | OpenFOAM: The Open Source CFD Toolbox           |
|  \\    /   O peration     | Version:  4.1                                   |
|   \\  /    A nd           | Web:      www.OpenFOAM.org                      |
|    \\/     M anipulation  |                                                 |
\*---------------------------------------------------------------------------*/
FoamFile
{
    version     2.0;
    format      ascii;
    class       surfaceScalarField;
    location    "27";
    object      phi;
}
// * * * * * * * * * * * * * * * * * * * * * * * * * * * * * * * * * * * * * //

dimensions      [0 3 -1 0 0 0 0];

internalField   nonuniform List<scalar> 
13220
(
-889.653
2189.54
-1381.21
1791.75
-1837.68
1756.36
-2184.15
1646.36
-2446.32
1562.36
-2627.19
1480.76
-2727.97
1400.68
-2747.77
1319.98
-2685.49
1237.62
-2542.72
1157.11
-2327.58
1085.05
-2033.51
1005.82
-1606.36
872.74
-980.669
674.491
319.23
39.9292
2149.59
29.8832
1801.77
-58.2651
1844.48
-115.127
1703.19
-175.306
1622.51
-219.067
1524.49
-246.07
1427.66
-253.185
1327.08
-239.178
1223.59
-199
1116.92
-125.26
1011.3
-37.938
918.47
-3.97427
838.741
-34.1004
704.558
285.125
-148.196
2297.77
-359.666
2013.22
-572.008
2056.81
-725.403
1856.57
-871.031
1768.12
-985.426
1638.87
-1080.66
1522.87
-1158.05
1404.45
-1207.64
1273.17
-1179.7
1088.93
-982.486
814.058
-597.531
533.402
-226.467
467.514
-45.463
523.265
239.662
-77.5641
2375.32
-217.282
2152.92
-332.534
2172.05
-415.373
1939.39
-503.734
1856.47
-572.552
1707.67
-636.517
1586.82
-693.975
1461.89
-745.565
1324.73
-766.589
1109.94
-683.966
731.407
-432.056
281.503
-110.98
146.44
125.615
286.668
365.275
52.8829
2322.43
-26.3865
2232.19
-54.0926
2199.75
-73.3808
1958.68
-99.993
1883.08
-121.556
1729.23
-146.654
1611.91
-174.413
1489.65
-214.427
1364.75
-295.907
1191.41
-451.216
886.741
-628.84
459.029
-620.781
138.307
-381.458
47.2623
-16.1806
137.442
2184.99
87.0597
2282.57
100.047
2186.77
118.518
1940.21
140.25
1861.35
162.465
1707.02
188.413
1585.97
215.552
1462.51
239.817
1340.49
230.684
1200.56
120.592
996.828
-115.902
695.632
-304.59
327.204
-236.495
-20.6066
-252.677
162.163
2022.84
147.023
2297.72
174.168
2159.63
210.258
1904.12
252.77
1818.84
295.016
1664.78
340.698
1540.29
390.204
1413.02
441.073
1289.63
479.256
1162.38
467.31
1008.79
359.449
803.44
165.402
521.174
-23.6866
168.376
-276.361
142.915
1879.93
143.492
2297.15
164.996
2138.13
194.061
1875.07
227.257
1785.66
260.824
1631.22
293.237
1507.89
328.499
1377.76
365.027
1253.11
395.865
1131.56
405.731
998.92
368.463
840.784
267.204
622.527
104.663
331.091
-171.698
113.477
1766.46
122.519
2288.11
133.856
2126.8
150.139
1858.79
171.981
1763.83
191.081
1612.13
208.362
1490.62
223.957
1362.17
241.46
1235.61
258.984
1114.04
268.496
989.419
256.744
852.515
209.136
670.125
116.245
423.96
-55.449
84.7156
1681.75
109.848
2262.99
120.036
2116.62
129.832
1849
152.587
1741.08
169.947
1594.77
187.67
1472.9
199.306
1350.55
202.799
1232.13
204.811
1112.04
204.695
989.542
194.842
862.412
161.443
703.576
88.2343
497.365
32.7861
60.3323
1621.43
124.566
2198.76
164.461
2076.73
196.139
1817.34
233.994
1703.23
271.963
1556.81
313.708
1431.17
359.648
1304.61
378.003
1213.78
371.236
1118.81
348.255
1012.54
310.43
900.237
248.682
765.334
146.106
599.968
178.893
-8.29595
1629.73
30.5164
2159.96
66.1977
2041.06
99.9453
1783.6
135.32
1667.87
175.915
1516.23
239.743
1367.35
347.288
1197.08
438.601
1122.47
484.588
1072.84
479.703
1017.43
422.411
957.557
313.718
874.054
180.787
732.947
359.68
130.345
1499.4
221.67
2068.64
289.901
1972.84
299.754
1773.75
314.957
1652.67
353.583
1477.61
418.851
1302.08
487.188
1128.75
565.301
1044.37
649.434
988.713
713.216
953.649
705.767
965.008
536.42
1043.41
264.82
1004.55
624.5
-964.437
2463.84
-1584.66
2688.86
-1996.35
2384.54
-2362.82
2140.23
-2580.06
1869.92
-2642.82
1540.36
-2509.54
1168.81
-2181.87
801.082
-1673.56
536.056
-1146.5
461.65
-754.742
561.893
-478.982
689.251
-287.913
852.339
-122.467
839.11
502.033
-2207.46
-3400.32
-4176.21
-4658.48
-4783.15
-4630.87
-4253.19
-3876.02
-3522.83
-3116.31
-2754.25
-2227.73
-1596.62
-938.565
-0.000107784
1483.75
-1483.75
1483.75
1483.75
1483.75
3013.55
-1529.79
3013.55
3013.55
3013.55
4454.77
-1441.23
4454.77
4454.77
5762.56
-1307.79
5762.56
5762.56
5762.56
6900.95
-1138.39
6900.95
6900.95
7937.33
-1036.38
7937.33
7937.33
7937.33
8888.46
-951.132
8888.46
8888.46
8888.46
9790.72
-902.267
9790.72
9790.72
10666.9
-876.217
10666.9
10666.9
10666.9
11504.4
-837.488
11504.4
11504.4
12314
-809.53
12314
12314
12314
13076.1
-762.183
13076.1
13076.1
13076.1
13796.1
-719.92
13796.1
13796.1
14476.2
-680.133
14476.2
14476.2
14476.2
15090.6
-614.439
15090.6
15090.6
15090.6
15646.2
-555.579
15646.2
15646.2
16145.2
-499.032
16145.2
16145.2
16145.2
16559
-413.761
16559
16559
16904.2
-345.147
16904.2
16904.2
16904.2
17148.2
-244.068
17148.2
17148.2
17148.2
17297
-148.791
17297
17297
17347.2
-50.2371
17347.3
17347.3
17080
16883
16888.6
16807.7
63.5347
16806.8
16853.8
16895.3
16925.2
16954.6
16981.5
17009.1
17025.9
16904.3
146.485
16966
17031.7
17068.7
17082.5
17104.1
17134.5
17181
17220.4
16892.5
347.369
16931.9
16981.7
17020.1
17059.3
17089.4
17100.7
17110.3
17125
17137.3
16769.5
370.839
16801
16841
16870.9
16903.1
16937.7
17003.5
17086
17163.5
16909
325.93
16985.4
17091.5
17229.2
17370.8
17518.9
17673.7
17836.6
18070.3
17700.8
614.698
17955
18231.6
18506.5
18827.3
19182.9
19549.7
19929.9
20328.2
19128.8
1607.98
19600.5
20097.7
20586.1
21086.4
21602.3
22175.4
22759
23350.9
23957
22081.6
2457.25
22758.6
23498.6
24209.6
24928.2
25669.5
26449.9
27309.6
28183.7
26191.9
2790.59
27075.8
28044.8
28044.8
25566.7
2478.17
22974.3
2592.4
22974.3
21018.6
1955.69
21018.6
19517.8
1500.74
18094.1
1423.75
18094.1
17209.3
884.839
16464.2
745.074
16464.2
16146.8
317.39
16146.8
16142
4.83563
16340.3
-198.37
16340.3
16848.4
-508.124
16848.4
17553.9
-705.477
18407.1
-853.176
18407.1
19390
-982.937
20439.2
-1049.14
20439.2
21578.9
-1139.72
21578.9
22735.2
-1156.29
23908
-1172.79
23908
25141.3
-1233.31
25141.3
26377.9
-1236.63
27609.3
-1231.34
27609.3
28884.1
-1274.79
30116
-1231.99
30116
31418.4
-1302.33
31418.4
32719.6
-1301.25
33958.7
-1239.09
33958.7
35270.2
-1311.5
35270.2
36580.3
-1310.04
37795.3
-1215.01
37795.3
39096.6
-1301.33
40259.4
-1162.79
40259.4
41524.9
-1265.48
41524.9
42810.3
-1285.42
43958.9
-1148.58
43958.9
45242.7
-1283.79
45242.7
46567.4
-1324.77
47747.6
-1180.21
47747.6
49109.9
-1362.27
50291.9
-1181.96
50291.9
51656.7
-1364.82
51656.7
53093.8
-1437.08
54370.7
-1276.93
54370.7
55872.9
-1502.22
55872.9
57474.3
-1601.38
58930.7
-1456.46
58930.7
60678.3
-1747.55
62270.5
-1592.2
62270.5
64173.8
-1903.33
64173.8
-2147.08
-3080.98
18787.2
-3086.9
19199.2
-3056.15
19553.8
-3005.78
19855.2
-2926.95
20233.3
-2819.62
20552.8
-2680.44
20889.6
-2515.54
21274.7
-2338.76
21838.4
-2162.63
22640.4
-1985.22
23507.5
-1786.32
23852
-1541.44
22758
-1246.81
19696.4
-942.907
15863.7
-697.648
14541.5
-481.976
17377.3
-241.833
20292.2
2.7677
19514.3
244.822
20131.2
478.33
17694.2
720.315
16103.6
970.232
16798.4
1191.64
17488
1382.1
16852.2
1562.85
15308.3
1744.07
13635.3
1916.28
12319.9
2068.95
11592.4
2181.31
10757.5
2231.92
9418.18
2225.85
7569.77
2192.1
5419.16
2159.15
3242.9
2141.87
1222.55
2145.56
-542.356
2181.71
-2079.04
2293.98
-3469.5
2470.94
-5119.89
2684.99
-6643.46
3188.24
-8566.67
4024.51
-14314.4
4639.3
-22338.2
4693.09
-27028.1
4419.17
-27018.4
4170.5
-24665.2
4100.5
-22295.9
4182.02
-20255.7
4310.17
-18070.8
4396.8
-15091
4428.42
-10732
4440.32
-5725.58
4461.5
-2242.69
4542.61
396.254
4619.38
2669.92
4638.07
7571.15
4947.41
14432.1
5880.23
11202
6408.72
2094.05
4962.79
1660.36
3507.1
1628.15
3841.33
12858.6
4356.56
45858.8
4203.06
62513.8
3956.33
57703.1
3841.29
47165.3
3818.54
36978.9
3826.03
27924.8
3835.55
19512.9
3839.68
11465.1
3841.41
3591.66
3807.21
-4371.85
3671.54
-12471.8
3413.97
-20470.9
2986.5
-27838.6
2507.4
-33300.1
2312.78
-42005
2405.22
-57811.3
-68849.7
-3084.95
18806.9
-3087.95
19202.2
-3055.3
19521.1
-3002.87
19802.8
-2921.75
20152.2
-2811.94
20443
-2670.82
20748.4
-2505.67
21109.5
-2330.73
21663.4
-2157.78
22467.4
-1983.06
23332.8
-1784.16
23653.1
-1534.64
22508.4
-1232.39
19394.1
-927.132
15558.4
-689.774
14304.2
-480.451
17168
-241.36
20053.1
1.84093
19271.1
242.056
19890.9
472.195
17464.1
711.89
15863.9
963.509
16546.8
1186.89
17264.7
1376.12
16663
1553.44
15131
1732.23
13456.6
1904.8
12147.3
2059.71
11437.5
2179.06
10638.1
2241.63
9355.61
2246.9
7564.5
2221.71
5444.35
2195.31
3269.31
2187.38
1230.48
2212.68
-567.653
2281.2
-2147.56
2423.74
-3612.04
2615.36
-5311.51
2850.77
-6878.87
3390.77
-9106.68
4210.24
-15133.9
4735.74
-22863.7
4707.51
-26999.9
4408.31
-26719.2
4194.24
-24451.2
4186.16
-22287.8
4293.77
-20363.3
4390.88
-18167.9
4408.86
-15109
4350.89
-10674.1
4275.39
-5650.09
4267.86
-2235.15
4400.77
263.34
4581.73
2488.97
4622.89
7530
5034.12
14020.9
6008
10228.1
6120.45
1981.61
4422.82
3357.99
3210.53
2840.44
3730.87
12338.3
4359.82
45229.8
4237.66
62635.9
3971.01
57969.8
3838.04
47298.3
3809.6
37007.3
3816.5
27917.9
3826.28
19503.1
3829.34
11462.1
3821.83
3599.16
3763.78
-4313.81
3606.93
-12315
3342.79
-20206.8
2916.18
-27412
2452.75
-32836.7
2288.27
-41840.5
2229.56
-57752.6
-68523.5
-3090.78
18825.5
-3090.73
19202.2
-3055.62
19486
-3000.57
19747.7
-2916.66
20068.3
-2803.83
20330.2
-2660.39
20605
-2494.84
20944
-2321.92
21490.5
-2152.34
22297.9
-1980.14
23160.6
-1780.44
23453.4
-1525.52
22253.5
-1216.31
19084.9
-911.024
15253.1
-681.102
14074.3
-477.94
16964.8
-241.015
19816.2
0.540759
19029.6
238.585
19652.9
465.446
17237.2
702.821
15626.5
955.213
16294.4
1180.25
17039.6
1368.51
16474.7
1542.48
14957
1719.12
13279.9
1893.02
11973.4
2050.76
11279.7
2177.16
10511.7
2253.04
9279.74
2272.22
7545.32
2258.27
5458.3
2240.86
3286.73
2242.68
1228.65
2279.17
-604.14
2358.51
-2226.9
2508.18
-3761.71
2702.08
-5505.4
2950.7
-7127.49
3509.08
-9665.06
4305.53
-15930.3
4771.9
-23330.1
4699.61
-26927.6
4394.72
-26414.3
4209.79
-24266.2
4242.1
-22320.1
4359.32
-20480.5
4423.22
-18231.8
4379.2
-15065
4237.26
-10532.1
4072.86
-5485.69
4008.69
-2170.98
4158.47
113.552
4445.27
2202.17
4593.28
7381.99
5200.41
13413.8
6294.63
9133.9
6084.07
2192.18
4296.77
5145.29
3207.8
3929.4
3668.75
11877.3
4355.3
44543.3
4266.62
62724.6
3983.83
58252.5
3832.37
47449.8
3797.54
37042.2
3803.95
27911.5
3814.01
19493
3815.68
11460.4
3800.51
3614.34
3730.95
-4244.25
3569.14
-12153.2
3304.09
-19941.7
2880.18
-26988.1
2428.18
-32384.7
2276.82
-41689.1
2226.65
-57702.5
-67889.1
-3098.15
18842.4
-3094.82
19198.9
-3057.11
19448.3
-2999.24
19689.9
-2912.38
19981.4
-2796.39
20214.2
-2650.63
20459.2
-2484.76
20778.1
-2313.79
21319.5
-2147.2
22131.3
-1976.83
22990.2
-1775.74
23252.3
-1515.76
21993.5
-1201.16
18770.3
-896.769
14948.7
-673.171
13850.7
-475.092
16766.8
-240.662
19581.7
-0.907774
18789.8
234.762
19417.2
458.817
17013.1
694.047
15391.3
946.469
16042
1172.62
16813.5
1360.06
16287.3
1530.96
14786.1
1705.82
13105.1
1882.32
11796.9
2043.8
11118.2
2175.28
10380.2
2263.56
9191.46
2297.54
7511.34
2296.64
5459.2
2290.08
3293.29
2302.68
1216.05
2350.53
-651.992
2441.75
-2318.12
2601.12
-3921.08
2799.19
-5703.47
3061.9
-7390.21
3638.39
-10241.6
4408.68
-16700.6
4810.05
-23731.5
4686.96
-26804.5
4376.89
-26104.3
4229.41
-24118.8
4308.42
-22399.1
4434.29
-20606.4
4455.13
-18252.6
4334.05
-14943.9
4089.61
-10287.7
3817.75
-5213.83
3675.58
-2028.82
3811.24
-22.104
4152.21
1861.2
4485.48
7048.71
5369.97
12529.3
6553.5
7950.36
6087.01
2658.67
4344.67
6887.62
3397.02
4877.06
3690.76
11583.6
4350.22
43883.8
4287.19
62787.6
3991.8
58547.9
3824.75
47616.8
3783.75
37083.2
3789.61
27905.6
3799.75
19482.9
3799.16
11461
3776.29
3637.2
3695.79
-4163.75
3527.85
-11985.2
3259.97
-19673.8
2836.66
-26564.8
2396.34
-31944.4
2261.92
-41554.7
2196.77
-57637.3
-67439.8
-3107.15
18857.8
-3100.36
19192.1
-3059.92
19407.9
-2999.18
19629.1
-2909.18
19891.4
-2789.97
20095
-2641.91
20311.2
-2475.8
20612
-2306.76
21150.5
-2142.94
21967.4
-1973.99
22821.3
-1771.2
23049.5
-1506.31
21728.7
-1186.93
18450.9
-883.637
14645.5
-665.836
13632.9
-472.324
16573.2
-240.311
19349.7
-2.5974
18552.1
230.726
19183.9
452.203
16791.7
685.413
15158.1
937.711
15789.7
1164.75
16586.4
1351.39
16100.6
1519.27
14618.2
1692.44
12931.9
1872.56
11616.8
2039.33
10951.5
2174.77
10244.8
2274.18
9092.04
2323.13
7462.39
2336.49
5445.84
2342.12
3287.65
2366.06
1192.12
2424.64
-710.576
2526.1
-2419.58
2692.61
-4087.59
2893.31
-5904.18
3169.84
-7666.74
3760.35
-10832.1
4498.14
-17438.4
4833.42
-24066.7
4663.01
-26634.1
4355.28
-25796.5
4252.3
-24015.8
4378.18
-22525
4507.24
-20735.5
4478.16
-18223.5
4274.11
-14739.9
3921.24
-9934.82
3533.05
-4825.64
3309.21
-1804.97
3406.11
-119.007
3746.41
1520.91
4334.45
6460.67
5589.06
11274.7
6795.88
6743.54
6051.26
3403.3
4417.53
8521.35
3677.75
5616.84
3794.18
11467.1
4350.92
43327.1
4301.24
62837.3
3994.83
58854.3
3814.22
47797.4
3767.28
37130.1
3772.61
27900.3
3782.7
19472.8
3779.53
11464.1
3749.6
3667.14
3660.16
-4074.3
3488.11
-11813.2
3217.68
-19403.4
2795.39
-26142.5
2368.02
-31517
2249.02
-41435.7
2137.94
-57526.2
-66758.4
-3117.76
18871.4
-3107.47
19181.8
-3064.19
19364.6
-3000.5
19565.4
-2907.24
19798.2
-2784.74
19972.5
-2634.4
20160.8
-2468.12
20445.8
-2301
20983.4
-2139.77
21806.2
-1971.9
22653.4
-1767.09
22844.7
-1497.26
21458.8
-1173.44
18127.1
-871.45
14343.5
-659.088
13420.5
-469.77
16383.9
-240.076
19120
-4.51701
18316.6
226.585
18952.8
445.69
16572.6
676.997
14926.8
929.098
15537.6
1156.94
16358.6
1342.88
15914.7
1507.84
14453.3
1679.19
12760.5
1863.43
11432.6
2037.05
10777.9
2176.1
10105.7
2285.26
8982.89
2348.82
7398.83
2377.07
5417.59
2395.72
3269
2431.23
1156.6
2500.04
-779.383
2610.82
-2530.36
2783.3
-4260.07
2986.32
-6107.2
3276.45
-7956.86
3877.39
-11433
4577.95
-18139
4845.45
-24334.2
4629.53
-26418.2
4331.04
-25498
4279.82
-23964.6
4453.27
-22698.5
4580.98
-20863.2
4497.8
-18140.4
4209.88
-14451.9
3753.29
-9478.23
3266.3
-4338.65
3009.5
-1548.18
3141.02
-250.527
3513.62
1148.32
4382.72
5591.57
5983.21
9674.18
7055.25
5671.5
5945.46
4513.08
4467.89
9998.93
4021.51
6063.21
3978.34
11510.3
4360.45
42945
4307.04
62890.7
3992.22
59169.2
3800.46
47989.2
3748.06
37182.5
3752.99
27895.4
3763.16
19462.6
3757.62
11469.7
3721.4
3703.36
3624.76
-3977.67
3449.51
-11637.9
3175.96
-19129.9
2754.3
-25720.8
2340.08
-31102.8
2236.9
-41332.5
2164.5
-57453.8
-66195.3
-3129.95
18883.2
-3116.12
19167.9
-3069.92
19318.4
-3003.18
19498.7
-2906.53
19701.5
-2780.7
19846.6
-2628.13
20008.3
-2461.75
20279.4
-2296.52
20818.2
-2137.64
21647.3
-1970.48
22486.2
-1763.29
22637.5
-1488.49
21184
-1160.69
17799.3
-860.29
14043.1
-652.964
13213.2
-467.42
16198.4
-239.989
18892.6
-6.60486
18083.2
222.38
18723.8
439.35
16355.6
668.89
14697.2
920.66
15285.8
1149.2
16130.1
1334.6
15729.3
1496.8
14291.1
1665.98
12591.3
1854.38
11244.2
2036.51
10595.7
2179.39
9962.86
2296.62
8865.65
2374.03
7321.42
2417.43
5374.19
2449.67
3236.76
2496.99
1109.29
2575.72
-858.108
2695.09
-2649.73
2872.45
-4437.43
3077.64
-6312.39
3381.31
-8260.53
3988.65
-12040.3
4646.45
-18796.8
4844.24
-24532
4586.14
-26160.1
4305.63
-25217.5
4313.38
-23972.3
4533.81
-22918.9
4656.26
-20985.6
4518.12
-18002.2
4153.17
-14087
3619.02
-8944.08
3112.19
-3831.83
2974.63
-1410.62
3318.59
-594.489
3832.84
634.067
4897.47
4526.94
6593.3
7978.34
7281.12
4983.68
5773.78
6020.43
4500.68
11272
4394.87
6169.02
4225.4
11679.8
4381.48
42788.9
4302.93
62969.3
3982.91
59489.2
3783.33
48188.8
3726.33
37239.5
3731.09
27890.6
3741.52
19452.2
3733.92
11477.3
3692.17
3745.11
3589.6
-3875.09
3411.73
-11460.1
3134.63
-18852.8
2713.95
-25300.1
2313.99
-30702.8
2222.85
-41241.4
2039.86
-57270.9
-65657.6
-3143.72
18892.9
-3126.29
19150.5
-3077.11
19269.2
-3007.2
19428.8
-2907.02
19601.3
-2777.83
19717.4
-2623.08
19853.5
-2456.68
20113
-2293.29
20654.8
-2136.53
21490.6
-1969.69
22319.4
-1759.78
22427.6
-1480.01
20904.3
-1148.64
17467.9
-850.054
13744.5
-647.406
13010.5
-465.265
16016.2
-240.034
18667.4
-8.82773
17852
218.124
18496.9
433.171
16140.5
661.078
14469.3
912.415
15034.5
1141.57
15900.9
1326.57
15544.3
1486.19
14131.5
1652.71
12424.8
1844.82
11052.1
2037.09
10403.4
2185.07
9814.88
2308.49
8742.24
2398.54
7231.37
2456.98
5315.75
2503.2
3190.54
2562.49
1049.99
2650.88
-946.494
2778.18
-2777.03
2959.57
-4618.81
3167.1
-6519.92
3484.11
-8577.54
4093.44
-12649.7
4703.1
-19406.4
4829.66
-24658.6
4533.89
-25864.3
4280.93
-24964.6
4354.18
-24045.6
4620.04
-23184.8
4734.53
-21100.1
4545.05
-17812.7
4119.34
-13661.3
3559.67
-8384.4
3172.79
-3444.95
3365.76
-1603.58
4080.59
-1309.32
4826.31
-111.652
5915.65
3437.6
7346.99
6547
7432.9
4897.77
5560.74
7892.6
4519.66
12313.1
4748.59
5940.08
4501.54
11926.8
4413.72
42876.7
4288.18
63094.8
3965.94
59811.4
3762.5
48392.2
3702.15
37299.9
3707.04
27885.7
3717.93
19441.3
3708.66
11486.6
3662.14
3791.62
3554.87
-3767.81
3374.78
-11280
3093.64
-18571.6
2674.42
-24880.9
2290.36
-30318.7
2212.17
-41163.2
2054.78
-57113.5
-64879.8
-3159.1
18900.5
-3137.99
19129.4
-3085.75
19217
-3012.56
19355.6
-2908.71
19497.5
-2776.09
19584.8
-2619.23
19696.7
-2452.89
19946.6
-2291.31
20493.2
-2136.43
21335.7
-1969.55
22152.5
-1756.61
22214.7
-1471.83
20619.5
-1137.18
17133.3
-840.583
13447.9
-642.346
12812.3
-463.317
15837.2
-240.204
18444.2
-11.1692
17622.9
213.84
18271.9
427.141
15927.2
653.538
14242.9
904.391
14783.6
1134.13
15671.2
1318.85
15359.6
1476.08
13974.2
1639.41
12261.5
1834.25
10857.2
2037.91
10199.8
2193.56
9659.24
2321.43
8614.36
2422.48
7130.33
2495.4
5242.82
2555.69
3130.25
2627.02
978.662
2724.79
-1044.26
2859.42
-2911.66
3044.3
-4803.7
3254.69
-6730.31
3584.64
-8907.48
4191.05
-13256.1
4747.05
-19962.4
4801.49
-24713
4474.17
-25537
4259.14
-24749.5
4403.28
-24189.7
4712.15
-23493.6
4817.54
-21205.5
4585.21
-17580.4
4124.17
-13200.2
3607.59
-7867.82
3467.34
-3304.71
4084.85
-2221.09
5161.94
-2386.41
6115.21
-1064.93
7105.5
2447.31
8055.14
5597.36
7481.52
5471.39
5337.13
10037
4518.85
13131.4
5032
5426.93
4766.67
12192.2
4452.11
43191.3
4262.16
63284.8
3940.43
60133.2
3737.56
48595.1
3675.49
37361.9
3680.93
27880.3
3692.55
19429.7
3682.04
11497.1
3631.52
3842.14
3520.6
-3656.89
3338.37
-11097.8
3052.74
-18286
2635.82
-24464
2267.97
-29950.9
2203.31
-41098.5
2068.13
-56978.3
-64248.7
-3176.08
18905.7
-3151.24
19104.6
-3095.85
19161.6
-3019.23
19279
-2911.58
19389.8
-2775.5
19448.7
-2616.58
19537.7
-2450.39
19780.4
-2290.56
20333.4
-2137.35
21182.5
-1970.07
21985.2
-1753.79
21998.4
-1463.94
20329.6
-1126.23
16795.6
-831.772
13153.4
-637.743
12618.3
-461.585
15661.1
-240.501
18223.2
-13.6084
17396
209.56
18048.7
421.271
15715.5
646.27
14017.9
896.615
14533.3
1126.93
15440.8
1311.52
15175
1466.59
13819.2
1626.22
12101.9
1822.25
10661.2
2037.96
9984.07
2204.79
9492.41
2336.04
8483.11
2446.12
7020.25
2532.49
5156.44
2606.64
3056.1
2689.93
895.378
2796.77
-1151.11
2938.25
-3053.13
3126.48
-4991.94
3340.44
-6944.27
3682.54
-9249.59
4280.61
-13854.2
4777.59
-20459.4
4760.13
-24695.6
4409.12
-25186
4242.59
-24583
4461.45
-24408.6
4810.24
-23842.4
4907.46
-21302.7
4645.3
-17318.2
4180.4
-12735.3
3770.51
-7457.93
3926.09
-3460.28
4897.64
-3192.64
6171.12
-3659.89
7220.14
-2113.94
8084.77
1582.68
8565.33
5116.8
7428.85
6607.87
5118.94
12346.9
4485
13765.3
5215
4696.93
4987.55
12419.6
4487.84
43691
4224.16
63548.4
3905.7
60451.6
3708.14
48792.6
3646.36
37423.7
3652.92
27873.7
3665.57
19417
3654.25
11508.4
3600.44
3895.94
3486.81
-3543.26
3302.27
-10913.2
3011.83
-17995.6
2598.28
-24050.5
2247.7
-29600.3
2192.99
-41043.8
1962.88
-56748.2
-63650.6
-3194.69
18908.4
-3166.04
19075.9
-3107.41
19103
-3027.2
19198.8
-2915.6
19278.2
-2776.03
19309.2
-2615.13
19376.8
-2449.15
19614.5
-2291.05
20175.3
-2139.27
21030.7
-1971.24
21817.2
-1751.3
21778.4
-1456.29
20034.6
-1115.7
16455
-823.539
12861.3
-633.555
12428.3
-460.065
15487.6
-240.919
18004
-16.122
17171.2
205.306
17827.3
415.573
15505.3
639.28
13794.2
889.109
14283.4
1120.02
15209.9
1304.63
14990.4
1457.8
13666
1613.33
11946.3
1808.56
10466
2036.12
9756.51
2218.11
9310.42
2352.83
8348.39
2469.83
6903.25
2568.21
5058.07
2655.68
2968.63
2750.7
800.36
2866.28
-1266.68
3014.32
-3201.18
3206.2
-5183.81
3424.48
-7162.55
3777.38
-9602.49
4361.18
-14438
4794.18
-20892.4
4706.6
-24608
4341.45
-24820.8
4233.63
-24475.2
4529.11
-24704
4914.4
-24227.7
5006.79
-21395.1
4731.34
-17042.8
4294.9
-12298.9
4032.49
-7195.53
4452.89
-3880.68
5637.28
-4377.02
6956.81
-4979.42
7999.74
-3156.88
8741.46
840.961
8853.35
5004.91
7301
8160.22
4910.46
14737.4
4410.03
14265.7
5291
3815.96
5143.28
12567.3
4510.47
44323.8
4173.49
63885.4
3861.32
60763.8
3673.92
48980
3614.76
37482.9
3623.15
27865.3
3637.15
19403
3625.44
11520.1
3569.04
3952.35
3453.43
-3427.65
3266.15
-10725.9
2970.76
-17700.2
2562
-23641.7
2230.13
-29268.4
2185.17
-40998.9
1971.17
-56534.2
-62861.4
-3214.92
18908.4
-3182.4
19043.4
-3120.43
19041
-3036.46
19114.8
-2920.78
19162.6
-2777.67
19166.1
-2614.86
19214
-2449.19
19448.8
-2292.76
20018.8
-2142.17
20880.1
-1973.03
21648.1
-1749.11
21554.5
-1448.84
19734.3
-1105.52
16111.7
-815.804
12571.6
-629.739
12242.2
-458.745
15316.6
-241.447
17786.7
-18.6908
16948.5
201.096
17607.5
410.046
15296.3
632.557
13571.7
881.882
14034.1
1113.45
14978.4
1298.24
14805.6
1449.8
13514.4
1600.99
11795.1
1793.24
10273.7
2031.33
9518.42
2232.14
9109.61
2372.51
8208.02
2494.22
6781.54
2602.77
4949.52
2702.66
2868.73
2809.01
694.015
2932.94
-1390.62
3087.62
-3355.86
3283.78
-5379.96
3506.91
-7385.69
3868.55
-9964.13
4431.78
-15001.2
4796.59
-21257.2
4642.66
-24454.1
4274.39
-24452.6
4234.45
-24435.2
4606.34
-25075.9
5024.73
-24646.1
5118.04
-21488.4
4847.9
-16772.7
4467.44
-11918.4
4363.2
-7091.29
4974.57
-4492.06
6229.62
-5632.07
7485.01
-6234.81
8449.05
-4120.92
9095.13
194.882
8951.54
5148.5
7121.93
9989.83
4710.53
17148.8
4294.7
14681.6
5269.08
2841.58
5225.27
12611.1
4510.28
45038.8
4109.4
64286.3
3807.21
61066
3634.64
49152.6
3580.66
37536.9
3591.75
27854.2
3607.45
19387.3
3595.73
11531.8
3537.38
4010.7
3420.3
-3310.56
3229.63
-10535.3
2929.44
-17400
2527.14
-23239.4
2214.57
-28955.9
2178.43
-40962.7
1963.14
-56318.9
-62260.6
-3236.79
18905.4
-3200.33
19006.9
-3134.9
18975.6
-3046.99
19026.9
-2927.08
19042.6
-2780.42
19019.4
-2615.78
19049.4
-2450.5
19283.5
-2295.68
19864
-2146.03
20730.5
-1975.43
21477.5
-1747.21
21326.3
-1441.55
19428.7
-1095.64
15765.7
-808.491
12284.4
-626.251
12060
-457.615
15147.9
-242.077
17571.2
-21.301
16727.7
196.94
17389.2
404.682
15088.6
626.079
13350.3
874.93
13785.3
1107.22
14746.1
1292.39
14620.4
1442.67
13364.2
1589.55
11648.3
1776.83
10086.4
2022.8
9272.45
2244.91
8887.5
2395.63
8057.29
2520.26
6656.91
2636.75
4833.03
2747.73
2757.75
2864.77
576.979
2996.76
-1522.61
3158.56
-3517.65
3359.73
-5581.13
3587.68
-7613.64
3955.27
-10331.7
4491.47
-15537.4
4785.08
-21550.8
4570.8
-24239.8
4211.52
-24093.3
4246.94
-24470.7
4693.03
-25522
5141.4
-25094.5
5243.24
-21590.3
4997.32
-16526.7
4691.41
-11612.5
4730.18
-7130.06
5445.32
-5207.19
6650.66
-6837.41
7758.73
-7342.88
8593.97
-4956.16
9171.88
-383.028
8880.28
5440.1
6899.5
11970.6
4516.18
19532.1
4140.36
15057.4
5158.04
1823.91
5232.13
12537
4480.01
45790.9
4031.25
64735.1
3743.57
61353.7
3590.21
49306
3544.01
37583.1
3558.78
27839.5
3576.59
19369.5
3565.2
11543.2
3505.48
4070.41
3387.15
-3192.23
3192.3
-10340.4
2887.84
-17095.5
2493.88
-22845.4
2201.28
-28663.3
2172.56
-40934
1927.6
-56073.9
-61513.2
-3260.31
18899.4
-3219.84
18966.5
-3150.81
18906.5
-3058.76
18934.8
-2934.48
18918.4
-2784.25
18869.2
-2617.88
18883
-2453.07
19118.7
-2299.79
19710.7
-2150.84
20581.5
-1978.4
21305
-1745.54
21093.4
-1434.37
19117.5
-1085.97
15417.3
-801.528
12000
-623.051
11881.5
-456.662
14981.5
-242.8
17357.3
-23.9454
16508.8
192.836
17172.5
399.457
14881.9
619.811
13130
868.236
13536.8
1101.35
14513
1287.13
14434.6
1436.48
13214.8
1579.4
11505.3
1760.18
9905.66
2010.22
9022.41
2254.16
8643.57
2421.59
7889.86
2549.32
6529.18
2671.31
4711.04
2791.53
2637.53
2918.37
450.139
3058.3
-1662.54
3228.01
-3687.37
3434.55
-5787.67
3666.51
-7845.61
4036.63
-10701.8
4539.46
-16040.2
4760.47
-21771.8
4494.24
-23973.6
4156.49
-23755.5
4272.64
-24586.8
4788.95
-26038.3
5264.65
-25570.2
5383.57
-21709.2
5179.25
-16322.4
4955.92
-11389.2
5105.81
-7279.95
5843.2
-5944.58
6912.35
-7906.56
7806.17
-8236.7
8463.18
-5613.17
8984.91
-904.752
8642.26
5782.74
6631.09
13981.8
4321.01
21842.2
3940.27
15438.1
4959.97
804.206
5166.22
12330.8
4415.74
46541.4
3938.73
65212.1
3670.87
61621.5
3540.63
49436.2
3504.77
37618.9
3524.3
27819.9
3544.63
19349.2
3533.86
11554
3473.28
4130.99
3353.63
-3072.58
3153.75
-10140.5
2846
-16787.8
2462.39
-22461.8
2189.77
-28390.6
2167.67
-40911.9
1957.04
-55863.3
-60880.9
-3285.5
18890.1
-3240.94
18921.9
-3168.15
18833.7
-3071.76
18838.5
-2942.97
18789.6
-2789.16
18715.4
-2621.17
18715
-2456.91
18954.4
-2305.1
19558.9
-2156.57
20433
-1981.9
21130.4
-1744.07
20855.6
-1427.25
18800.7
-1076.46
15066.6
-794.846
11718.4
-620.101
11706.8
-455.881
14817.3
-243.617
17145
-26.6286
16291.9
188.766
16957.1
394.333
14676.4
613.7
12910.6
861.757
13288.8
1095.8
14278.9
1282.46
14248
1431.29
13066
1570.82
11365.8
1744.24
9732.24
1993.9
8772.75
2257.98
8379.48
2448.07
7699.78
2582.55
6394.71
2708.15
4585.44
2835.45
2510.23
2971.02
314.566
3118.92
-1810.44
3297.11
-3865.56
3508.42
-5998.98
3742.79
-8079.98
4111.62
-11070.7
4575.18
-16503.8
4724.24
-21920.9
4416.72
-23666
4112.83
-23451.6
4312.7
-24786.7
4893.9
-26619.5
5394.98
-26071.3
5539.46
-21853.7
5390.7
-16173.7
5248.16
-11246.7
5469.26
-7501.06
6162.47
-6637.79
7040.31
-8784.4
7661.64
-8858.02
8078.59
-6030.12
8541.6
-1367.77
8236.1
6088.25
6313.94
15903.9
4114.34
24041.8
3686.53
15866
4681.58
-190.844
5034.1
11978.3
4316.99
47258.5
3832.1
65697
3589.76
61863.9
3486.04
49539.9
3462.91
37642
3488.26
27794.6
3511.55
19325.9
3501.68
11563.9
3440.6
4192.07
3319.23
-2951.2
3113.61
-9934.92
2804.1
-16478.3
2432.87
-22090.6
2180.18
-28137.9
2160.72
-40892.5
1873.35
-55575.9
-60291.3
-3312.38
18877.3
-3263.62
18873.1
-3186.91
18757
-3085.95
18737.5
-2952.53
18656.2
-2795.15
18558
-2625.64
18545.5
-2462.01
18790.8
-2311.58
19408.5
-2163.19
20284.6
-1985.9
20953.1
-1742.74
20612.5
-1420.12
18478.1
-1067.02
14713.5
-788.379
11439.7
-617.367
11535.7
-455.271
14655.2
-244.539
16934.3
-29.3725
16076.7
184.689
16743
389.247
14471.8
607.668
12692.2
855.412
13041
1090.51
14043.8
1278.33
14060.2
1427.09
12917.2
1564.03
11228.9
1729.92
9566.35
1974.8
8527.88
2255.22
8099.06
2471.74
7483.25
2619.37
6247.08
2748.95
4455.86
2881.67
2377.51
3024.87
171.36
3180.42
-1965.99
3366.64
-4051.78
3580.92
-6213.26
3815.65
-8314.71
4179.28
-11434.3
4598.45
-16922.9
4678.53
-22001
4342.3
-23329.8
4083.75
-23193.1
4367.97
-25070.9
5007.98
-27259.5
5533.22
-26596.5
5711.05
-22031.5
5626.91
-16089.5
5555.29
-11175
5806.54
-7752.31
6406.65
-7237.89
7060.03
-9437.78
7364.12
-9162.11
7496.65
-6162.65
7891.13
-1762.25
7677.25
6302.13
5945.11
17636.1
3885.12
26101.8
3394.54
16356.5
4357.79
-1154.09
4849.68
11486.4
4186.23
47922
3712.18
66171
3500.99
62075
3426.62
49614.3
3418.33
37650.3
3450.56
27762.4
3477.25
19299.2
3468.5
11572.6
3407.14
4253.44
3283.4
-2827.47
3071.62
-9723.13
2762.39
-16169.1
2405.54
-21733.8
2172.94
-27905.3
2155.59
-40875.1
1889.56
-55309.9
-59550.3
-3340.95
18860.9
-3287.9
18820.1
-3207.06
18676.2
-3101.32
18631.8
-2963.14
18518
-2802.21
18397.1
-2631.32
18374.6
-2468.38
18627.9
-2319.22
19259.3
-2170.66
20136
-1990.34
20772.8
-1741.49
20363.6
-1412.92
18149.5
-1057.59
14358.1
-782.062
11164.2
-614.821
11368.5
-454.839
14495.2
-245.588
16725.1
-32.2191
15863.3
180.542
16530.2
384.105
14268.3
601.593
12474.7
849.068
12793.6
1085.35
13807.5
1274.63
13870.9
1423.78
12768
1559.04
11093.6
1717.97
9407.42
1954.44
8291.4
2245.57
7807.93
2489.41
7239.41
2657.04
6079.45
2794.04
4318.86
2932.06
2239.5
3081.93
21.486
3243.96
-2128.02
3436.37
-4244.18
3651.05
-6427.94
3884.11
-8547.76
4238.74
-11788.9
4609.51
-17293.7
4626.04
-22017.5
4275.04
-22978.8
4071.9
-22989.9
4439.15
-25438.2
5131.69
-27952.1
5680.72
-27145.6
5898.77
-22249.5
5882.53
-16073.3
5865.6
-11158.1
6109.4
-7996.1
6582.66
-7711.15
6993.02
-9848.15
6962.77
-9131.87
6810.93
-6010.8
7129.78
-2081.1
7009.49
6422.41
5525.14
19120.4
3633.44
27993.5
3116.84
16873.1
4053.26
-2090.51
4633.75
10905.9
4027.85
48527.8
3580.22
66618.7
3405.29
62250
3362.53
49657.1
3370.85
37642
3410.94
27722.3
3441.45
19268.7
3434.05
11580
3372.44
4315.05
3245.56
-2700.59
3027.7
-9505.28
2721.3
-15862.7
2380.56
-21393
2166.81
-27691.6
2150.97
-40859.3
1907.13
-55066.1
-58928.6
-3371.22
18840.7
-3313.78
18762.6
-3228.59
18591
-3117.83
18521
-2974.78
18374.9
-2810.34
18232.6
-2638.19
18202.5
-2476.01
18465.7
-2328
19111.3
-2178.94
19987
-1995.17
20589
-1740.26
20108.7
-1405.57
17814.8
-1048.09
14000.7
-775.839
10891.9
-612.451
11205.1
-454.611
14337.4
-246.802
16517.3
-35.2278
15651.8
176.241
16318.8
378.791
14065.7
595.31
12258.2
842.519
12546.4
1080.1
13569.9
1271.11
13679.9
1421.1
12618.1
1555.63
10959.1
1708.86
9254.18
1934.94
8065.32
2230.08
7512.8
2498.9
6970.59
2691.67
5886.67
2841.58
4168.95
2986.63
2094.45
3142.26
-134.143
3308.84
-2294.6
3504.89
-4440.23
3717.51
-6640.56
3947.26
-8777.51
4289.31
-12131
4609.08
-17613.5
4569.88
-21978.3
4218.71
-22627.6
4079.37
-22850.6
4526.9
-25885.7
5266.19
-28691.4
5839.48
-27718.9
6103.47
-22513.5
6152.67
-16122.5
6170.03
-11175.5
6375.07
-8201.14
6699.39
-8035.48
6859.86
-10008.6
6517.23
-8789.24
6096.43
-5590
6323.1
-2307.78
6279.6
6465.91
5058.81
20341.2
3377.39
29674.9
2910.58
17339.9
3815.67
-2995.61
4406.18
10315.4
3846.9
49087.1
3437.71
67027.8
3303.32
62384.4
3293.86
49666.5
3320.2
37615.7
3369.04
27673.4
3403.78
19234
3397.91
11585.9
3335.94
4377.02
3205.16
-2569.81
2982.01
-9282.13
2681.34
-15562
2358.09
-21069.8
2162.11
-27495.6
2144.23
-40841.4
1836.07
-54757.9
-58358.1
-3403.23
18816.5
-3341.24
18700.7
-3251.47
18501.2
-3135.46
18405
-2987.43
18226.9
-2819.54
18064.7
-2646.27
18029.2
-2484.92
18304.3
-2337.89
18964.3
-2187.99
19837.1