/*--------------------------------*- C++ -*----------------------------------*\
| =========                 |                                                 |
| \\      /  F ield         | OpenFOAM: The Open Source CFD Toolbox           |
|  \\    /   O peration     | Version:  4.1                                   |
|   \\  /    A nd           | Web:      www.OpenFOAM.org                      |
|    \\/     M anipulation  |                                                 |
\*---------------------------------------------------------------------------*/
FoamFile
{
    version     2.0;
    format      ascii;
    class       volScalarField;
    location    "16";
    object      p;
}
// * * * * * * * * * * * * * * * * * * * * * * * * * * * * * * * * * * * * * //

dimensions      [0 2 -2 0 0 0 0];

internalField   nonuniform List<scalar> 
225
(
6931.88
20935.1
48958.7
47144.9
36850.9
33639.2
34712.8
36646.1
38378.7
40018.2
41247.1
41682.7
41882.1
42404.3
42690.7
76286.3
49709.8
12271.7
8135.57
26712.9
40199.5
42454.1
41162.4
40051.2
39683.7
39552.1
39554.4
40018.1
40415.9
40160
48560.7
45256.6
41961.8
37556.1
30885.7
29601
32817.6
38150.7
42730.1
42042.5
38628.3
37530.9
39388
41156.2
40771.2
17099.2
16421
16821.5
18303.8
20721.6
22972.1
23939
29400.8
38313.7
44086.2
46233
47377.1
48580.9
49044.9
49924.1
7636.18
7919.27
6573.54
6481.82
7080.54
6595.5
6049.23
7863.92
13481.9
19848.4
24033.5
24095.8
23885.1
27820.7
31404.8
1518.81
6.60427
-1508.61
-1947.86
-2928.24
-3981.68
-4006.21
-2156.01
181.377
1831.15
4855.93
10395.2
14901
16383
15122.3
-4467.33
-2700.27
-1196.63
-1769.02
-2133.1
-1191.72
-200.763
-429.919
-899.803
-1103.49
-536.241
1276.22
2636.14
2443.44
1763.8
1133.54
-102.458
-1755.76
-1726.93
-1460.78
-1400.34
-825.796
-593.56
-161.088
961.288
1680.2
1438.4
1350.02
1703.71
1974.92
-2615.4
-2608.01
-2655.73
-2915.13
-3430.55
-3793.87
-3352.74
-2379.33
-1986.2
-2180.27
-2339.85
-2088.56
-1577.36
-910.419
-590.775
728.084
448.09
60.117
22.9283
277.372
610.863
613.531
214.493
89.7937
411.112
468.657
32.7987
100.078
546.749
608.773
1426.25
1360.36
950.571
730.162
564.557
396.197
364.238
709.75
1011.77
972.431
1052.81
1154.76
963.398
631.947
710.739
1341.3
1231.45
859.116
792.161
891.058
964.66
1038.67
1058.59
887.306
512.844
127.727
213.236
673.294
907.328
929.507
784.529
1315.97
1678.68
1538.16
1226.25
1099.64
1126
1095.56
1207.39
1477.33
1517.01
1162.31
837.312
883.246
968.905
2535.43
2302.74
1977.01
1838.85
1470.23
939.417
995.489
1303.18
1421.89
1441.72
1265.45
1267.23
1704.93
1953.76
1480.45
-1261.61
-547.643
388.8
193.779
278.529
956.496
1538.57
1705.89
1398.34
1334.59
1459.42
1712.26
1764.07
1691.52
1924.18
)
;

boundaryField
{
    inletFace
    {
        type            zeroGradient;
    }
    inlet
    {
        type            zeroGradient;
    }
    inletWalls
    {
        type            zeroGradient;
    }
    outletInlet
    {
        type            fixedValue;
        value           uniform 0;
    }
}


// ************************************************************************* //
