/*--------------------------------*- C++ -*----------------------------------*\
| =========                 |                                                 |
| \\      /  F ield         | OpenFOAM: The Open Source CFD Toolbox           |
|  \\    /   O peration     | Version:  4.1                                   |
|   \\  /    A nd           | Web:      www.OpenFOAM.org                      |
|    \\/     M anipulation  |                                                 |
\*---------------------------------------------------------------------------*/
FoamFile
{
    version     2.0;
    format      ascii;
    class       surfaceScalarField;
    location    "16";
    object      phi;
}
// * * * * * * * * * * * * * * * * * * * * * * * * * * * * * * * * * * * * * //

dimensions      [0 3 -1 0 0 0 0];

internalField   nonuniform List<scalar> 
420
(
-74956.2
76253.9
-96604.7
22946.6
-86563
-8743.75
-123112
37846.4
-135441
13628.1
-115860
-18283.2
-91373.4
-23187.8
-69462.7
-20611.8
-54879.3
-13285
-51686.3
-1894.79
-46194.4
-4192.8
-36299.7
-8596.68
-24447.9
-10553.7
-10741.3
-12408.4
-9441.37
44965.7
31285.9
79178.5
-11268.2
67022.7
3410.64
79478.5
25389.4
72344.4
20761.3
43369.9
10690.3
13858.9
6322.34
-5122.7
-1630.99
-12274
-6134.55
-6628.62
-7540.98
-2227.47
-8594.81
-2486.91
-8338.13
-4017.35
-9024.48
-3233.14
-13194
-12674.6
-7001.42
38285.5
-30166.8
11895
-52044.9
25286.5
-45138.1
18480.9
-38700
14321.4
-40084.1
12073
-37506.9
3743.79
-29675.5
-9463.27
-21048.8
-14762.2
-12130.1
-16461.1
-7252.42
-13473.7
-5319.15
-10274.3
-1447.59
-12899.5
2417.13
-17062.7
-10257.4
10062.6
28222
18862.9
3094.07
46308.7
-2159.8
66314
-1524.81
80209.8
425.215
88993.7
3288.56
95538.7
-2801.58
93205.9
-7130.99
85401.5
-6958.26
77618.6
-8678.45
72865.2
-8720.81
65929.3
-3337.55
31135.4
21895.2
21117.6
-7044.01
10860.2
15281.8
12940
9330.14
9045.77
1244.58
5925.75
-2512.19
2231.99
-4657.45
2570.47
-5086.11
3717.25
-7986.98
99.3074
-12176.7
-2941.15
-19313.9
178.992
-24790.8
-3201.52
-19983.8
-13527.2
-9098.56
-14223.5
-8450.88
21247.5
-5584.57
-9910.26
5275.66
11110.5
1827.98
17864.4
2290.54
21664.4
2124.93
24227.1
-331.199
25719.7
1077.83
27992
1444.78
30022.4
-1930.96
30962.7
-3881.42
30350.6
791.229
22842.7
4306.64
7034.09
2281.5
-7353.46
165.396
8804.9
5090.75
1559.12
-2662.06
6834.77
1154.81
673.726
1035.22
2410.56
-463.576
3624.02
-3089.77
2295.05
-3741.93
1729.99
-2964.21
667.055
-4950.27
55.0218
-9954.33
1122.69
-11798.7
2635.53
-15060.3
7567.82
-22941
10162.3
-24978.9
2201.51
-18018.1
-1871.06
-13348.5
-7332.41
-6513.72
7773.27
-7099.94
12012.1
-1828.6
14950.2
685.809
15257
1988.07
13920.1
3066.97
10698.3
3888.81
6859.9
3893.52
3617.31
4365.24
1017.9
5235.04
4265.79
4320.23
10779.4
3648.72
10451.1
2531.5
8222.35
358.892
-930.242
1821.39
-7443.99
-6659.12
-440.432
-12882.3
4394.88
-16528.3
4332
-17939.9
3399.71
-18569.1
3696.06
-18273.3
3593.01
-17345
2965.04
-15959.2
2979.39
-13841.8
3117.47
-11309.3
1787.27
-8368.61
707.986
-5816.57
-22.0214
-5058.79
-400.119
-942.696
-2296.37
-8386.65
-7101.58
6661.78
-9233.77
6527.41
-9505.94
4604.43
-8627.4
2521.33
-7541.06
2609.98
-6530.96
2583.02
-5698.4
2132.71
-4853.27
2134.35
-3545.2
1809.61
-1197.46
-560.037
2589.31
-3078.67
6191.2
-3622.42
7766.68
-1974.01
6970.1
-1497.16
-1416.55
3210.38
3453.89
8904.26
835.469
14443.8
-934.385
16009.7
955.973
17327.7
1292.59
18639.6
1271.78
19266
1507.2
19160.4
2241.05
19423
1548.68
19749
-884.159
17441.4
-768.537
13039.7
780.86
9391.95
1675.16
4458.78
3436.87
3042.25
-768.345
4225.01
-74.8148
146.432
8596.88
-9602.47
13964.4
-4409.88
15403.6
-145.406
14482.6
2193.88
12800
3190.85
11186.6
3855.32
9024.9
3711.06
5780.11
2361.33
3427.92
1584.1
1822.43
2387.58
-459.975
3958.73
-741.083
3719.29
2301.17
6387.42
-2159.34
11460.7
-4923.74
9077.85
-7216.17
8521.54
-3851.61
8719.24
-341.128
7049.82
3864.18
3899.45
6342.49
1223.16
6532.1
-475.326
5410.35
-2319.28
4205.57
-3545.44
2810.75
-4962.75
3805.01
-7431.95
6428.21
-8006.41
4294.09
-5705.25
-501.614
-1656.94
-3.08068
-5422.27
-4478.71
-2740.11
-7463.6
-866.859
-8428.65
624.191
-7379.44
2814.86
-4568.58
3531.81
-2280.94
4244.43
738.626
2390.98
4435.56
508.75
8361.67
-1115.47
9704.09
2462.84
9223.15
6908.74
7815.65
5700.64
2110.25
-5705.19
-12987.6
-20810.5
-26973.7
-30077.2
-32064.7
-33648.1
-38606.7
-42411.1
-44996
-43512.8
-39455.5
-30811.7
-17957.4
)
;

boundaryField
{
    inletFace
    {
        type            calculated;
        value           nonuniform List<scalar> 
450
(
-3.17837e-08
-2.77218e-07
-3.73682e-07
-3.78551e-07
-2.60341e-07
-1.14768e-07
-7.52363e-08
-3.5817e-08
8.22189e-08
2.34607e-07
4.6066e-08
-1.21679e-07
-2.18616e-07
-2.49657e-07
-1.6125e-07
-3.39671e-07
-5.23707e-07
-5.06631e-07
-4.28998e-07
-4.30112e-07
-4.60099e-07
-4.417e-07
-4.36855e-07
-4.7518e-07
-5.24882e-07
-6.09264e-07
-7.12217e-07
-7.78536e-07
-7.98745e-07
-5.20403e-07
-3.15207e-07
-5.50446e-07
-6.40774e-07
-6.18513e-07
-6.66263e-07
-6.80717e-07
-6.84792e-07
-6.87606e-07
-7.20088e-07
-7.486e-07
-7.65474e-07
-7.80298e-07
-8.22181e-07
-8.85709e-07
-6.54906e-07
-3.80277e-07
-3.06879e-07
-4.13709e-07
-5.51606e-07
-6.09409e-07
-6.16708e-07
-6.20191e-07
-6.43928e-07
-7.00986e-07
-7.02673e-07
-6.80353e-07
-6.85973e-07
-7.82196e-07
-9.07823e-07
-8.29146e-07
-8.86105e-07
-8.20636e-07
-8.36806e-07
-8.87598e-07
-9.09053e-07
-9.50393e-07
-9.94372e-07
-9.92973e-07
-9.67604e-07
-9.84997e-07
-1.04575e-06
-1.12318e-06
-1.17205e-06
-1.31686e-06
-1.2082e-06
-1.0416e-06
-9.05369e-07
-8.7057e-07
-8.90094e-07
-9.10903e-07
-9.19628e-07
-9.19081e-07
-9.7031e-07
-1.08278e-06
-1.14697e-06
-1.18104e-06
-1.20416e-06
-1.19399e-06
-1.22132e-06
-1.14314e-06
-1.12028e-06
-9.36882e-07
-9.35451e-07
-9.54772e-07
-9.92826e-07
-1.03243e-06
-1.0866e-06
-1.11099e-06
-1.11466e-06
-1.128e-06
-1.20325e-06
-1.17852e-06
-1.14814e-06
-1.11815e-06
-8.23797e-07
-6.58413e-07
-9.01958e-07
-1.05097e-06
-1.08631e-06
-1.09772e-06
-1.10384e-06
-1.11198e-06
-1.12278e-06
-1.13058e-06
-1.13762e-06
-1.15082e-06
-1.16816e-06
-1.20152e-06
-1.18783e-06
-8.96077e-07
-1.29123e-06
-1.31727e-06
-1.18559e-06
-1.17167e-06
-1.14651e-06
-1.13603e-06
-1.12372e-06
-1.10221e-06
-1.08954e-06
-1.09381e-06
-1.08733e-06
-1.07124e-06
-1.00168e-06
-7.84213e-07
-6.15946e-07
-1.4543e-06
-1.26796e-06
-1.02217e-06
-1.0831e-06
-1.0805e-06
-1.06681e-06
-1.04598e-06
-1.01475e-06
-9.83165e-07
-9.53221e-07
-9.24443e-07
-9.03926e-07
-8.3434e-07
-7.13961e-07
-5.42472e-07
-1.17486e-06
-1.41361e-06
-1.13887e-06
-1.12868e-06
-1.13823e-06
-1.14069e-06
-1.13758e-06
-1.11569e-06
-1.04713e-06
-9.69334e-07
-9.56183e-07
-9.5111e-07
-9.6983e-07
-1.07286e-06
-1.36581e-06
-1.06622e-06
-1.54133e-06
-1.27284e-06
-1.17902e-06
-1.17415e-06
-1.16624e-06
-1.16686e-06
-1.1613e-06
-1.13319e-06
-1.11198e-06
-1.11088e-06
-1.1105e-06
-1.12594e-06
-1.34078e-06
-1.3573e-06
-1.4922e-06
-1.40224e-06
-1.22393e-06
-1.20058e-06
-1.19359e-06
-1.17031e-06
-1.15527e-06
-1.20551e-06
-1.313e-06
-1.43296e-06
-1.51426e-06
-1.58123e-06
-1.60694e-06
-1.55597e-06
-7.80667e-07
-1.58952e-06
-1.49317e-06
-1.49346e-06
-1.49088e-06
-1.46987e-06
-1.45505e-06
-1.4662e-06
-1.50239e-06
-1.5448e-06
-1.58909e-06
-1.62823e-06
-1.68438e-06
-1.70971e-06
-1.54973e-06
-2.7601e-07
-1.41433e-06
-1.45921e-06
-1.38103e-06
-1.36822e-06
-1.40023e-06
-1.43265e-06
-1.46109e-06
-1.49331e-06
-1.51524e-06
-1.53341e-06
-1.54657e-06
-1.56507e-06
-1.57176e-06
-1.59424e-06
-1.56938e-06
3.17837e-08
2.77218e-07
3.73682e-07
3.78551e-07
2.60341e-07
1.14768e-07
7.52363e-08
3.5817e-08
-8.22189e-08
-2.34607e-07
-4.6066e-08
1.21679e-07
2.18616e-07
2.49657e-07
1.6125e-07
3.39671e-07
5.23707e-07
5.06631e-07
4.28998e-07
4.30112e-07
4.60099e-07
4.417e-07
4.36855e-07
4.7518e-07
5.24882e-07
6.09264e-07
7.12217e-07
7.78536e-07
7.98745e-07
5.20403e-07
3.15207e-07
5.50446e-07
6.40774e-07
6.18513e-07
6.66263e-07
6.80717e-07
6.84792e-07
6.87606e-07
7.20088e-07
7.486e-07
7.65474e-07
7.80298e-07
8.22181e-07
8.85709e-07
6.54906e-07
3.80277e-07
3.06879e-07
4.13709e-07
5.51606e-07
6.09409e-07
6.16708e-07
6.20191e-07
6.43928e-07
7.00986e-07
7.02673e-07
6.80353e-07
6.85973e-07
7.82196e-07
9.07823e-07
8.29146e-07
8.86105e-07
8.20636e-07
8.36806e-07
8.87598e-07
9.09053e-07
9.50393e-07
9.94372e-07
9.92973e-07
9.67604e-07
9.84997e-07
1.04575e-06
1.12318e-06
1.17205e-06
1.31686e-06
1.2082e-06
1.0416e-06
9.05369e-07
8.7057e-07
8.90094e-07
9.10903e-07
9.19628e-07
9.19081e-07
9.7031e-07
1.08278e-06
1.14697e-06
1.18104e-06
1.20416e-06
1.19399e-06
1.22132e-06
1.14314e-06
1.12028e-06
9.36882e-07
9.35451e-07
9.54772e-07
9.92826e-07
1.03243e-06
1.0866e-06
1.11099e-06
1.11466e-06
1.128e-06
1.20325e-06
1.17852e-06
1.14814e-06
1.11815e-06
8.23797e-07
6.58413e-07
9.01958e-07
1.05097e-06
1.08631e-06
1.09772e-06
1.10384e-06
1.11198e-06
1.12278e-06
1.13058e-06
1.13762e-06
1.15082e-06
1.16816e-06
1.20152e-06
1.18783e-06
8.96077e-07
1.29123e-06
1.31727e-06
1.18559e-06
1.17167e-06
1.14651e-06
1.13603e-06
1.12372e-06
1.10221e-06
1.08954e-06
1.09381e-06
1.08733e-06
1.07124e-06
1.00168e-06
7.84213e-07
6.15946e-07
1.4543e-06
1.26796e-06
1.02217e-06
1.0831e-06
1.0805e-06
1.06681e-06
1.04598e-06
1.01475e-06
9.83165e-07
9.53221e-07
9.24443e-07
9.03926e-07
8.3434e-07
7.13961e-07
5.42472e-07
1.17486e-06
1.41361e-06
1.13887e-06
1.12868e-06
1.13823e-06
1.14069e-06
1.13758e-06
1.11569e-06
1.04713e-06
9.69334e-07
9.56183e-07
9.5111e-07
9.6983e-07
1.07286e-06
1.36581e-06
1.06622e-06
1.54133e-06
1.27284e-06
1.17902e-06
1.17415e-06
1.16624e-06
1.16686e-06
1.1613e-06
1.13319e-06
1.11198e-06
1.11088e-06
1.1105e-06
1.12594e-06
1.34078e-06
1.3573e-06
1.4922e-06
1.40224e-06
1.22393e-06
1.20058e-06
1.19359e-06
1.17031e-06
1.15527e-06
1.20551e-06
1.313e-06
1.43296e-06
1.51426e-06
1.58123e-06
1.60694e-06
1.55597e-06
7.80667e-07
1.58952e-06
1.49317e-06
1.49346e-06
1.49088e-06
1.46987e-06
1.45505e-06
1.4662e-06
1.50239e-06
1.5448e-06
1.58909e-06
1.62823e-06
1.68438e-06
1.70971e-06
1.54973e-06
2.7601e-07
1.41433e-06
1.45921e-06
1.38103e-06
1.36822e-06
1.40023e-06
1.43265e-06
1.46109e-06
1.49331e-06
1.51524e-06
1.53341e-06
1.54657e-06
1.56507e-06
1.57176e-06
1.59424e-06
1.56938e-06
)
;
    }
    inlet
    {
        type            calculated;
        value           nonuniform List<scalar> 
15
(
-1299.9
-1300.2
-1299.9
-1299.9
-1300.2
-1299.9
-1299.9
-1300.2
-1299.9
-1299.9
-1300.2
-1299.9
-1299.9
-1300.2
-1299.9
)
;
    }
    inletWalls
    {
        type            calculated;
        value           uniform 0;
    }
    outletInlet
    {
        type            calculated;
        value           nonuniform List<scalar> 
15
(
-15847.2
-7157.69
-1737.97
-1596.53
-2600.11
3092.99
6194
9202.88
5112.08
4798.54
3722.51
5291.87
5074.38
1851.37
4040.99
)
;
    }
}


// ************************************************************************* //
