/*--------------------------------*- C++ -*----------------------------------*\
| =========                 |                                                 |
| \\      /  F ield         | OpenFOAM: The Open Source CFD Toolbox           |
|  \\    /   O peration     | Version:  4.1                                   |
|   \\  /    A nd           | Web:      www.OpenFOAM.org                      |
|    \\/     M anipulation  |                                                 |
\*---------------------------------------------------------------------------*/
FoamFile
{
    version     2.0;
    format      ascii;
    class       volVectorField;
    location    "16";
    object      U;
}
// * * * * * * * * * * * * * * * * * * * * * * * * * * * * * * * * * * * * * //

dimensions      [0 1 -1 0 0 0 0];

internalField   nonuniform List<vector> 
225
(
(2.21236e-10 1977.9 903.354)
(1.92072e-09 -29.6949 33.5003)
(2.58643e-09 -539.343 -346.594)
(2.62136e-09 326.719 451.866)
(1.80283e-09 -10.5092 300.569)
(7.94072e-10 -25.3811 86.7664)
(5.214e-10 84.0082 114.656)
(2.48445e-10 42.9512 99.0616)
(-5.69773e-10 27.1031 112.956)
(-1.62324e-09 154.377 176.55)
(-3.18291e-10 87.1579 72.4671)
(8.41796e-10 81.7154 23.2516)
(1.51448e-09 82.2044 -19.0975)
(1.72891e-09 94.3762 -54.3307)
(1.1157e-09 -1.68493 -105.566)
(2.35211e-09 720.495 623.628)
(3.62594e-09 -174.436 136.388)
(3.5073e-09 49.8547 3.54377)
(2.9702e-09 24.8413 -39.7514)
(2.97792e-09 -83.6969 -104.646)
(3.18517e-09 -38.983 -62.4511)
(3.05808e-09 23.2593 9.84407)
(3.02461e-09 44.6203 19.7855)
(3.28957e-09 93.658 37.799)
(3.63446e-09 123.234 63.0805)
(4.21829e-09 102.405 37.7652)
(4.93054e-09 116.95 27.2707)
(5.39044e-09 136.62 39.7661)
(5.53018e-09 182.274 47.9151)
(3.60265e-09 7.73551 -13.0658)
(2.18059e-09 396.252 470.154)
(3.8105e-09 -99.0329 419.968)
(4.43647e-09 171.155 825.074)
(4.27952e-09 238.416 539.592)
(4.61235e-09 117.675 391.709)
(4.71302e-09 108.313 288.564)
(4.73929e-09 105.49 265.11)
(4.75992e-09 68.6295 111.475)
(4.98561e-09 84.1195 19.0421)
(5.18164e-09 108.166 -16.5067)
(5.29901e-09 116.159 -20.9933)
(5.40248e-09 115.869 -24.2907)
(5.69099e-09 113.537 -39.3631)
(6.13131e-09 132.759 -56.7588)
(4.53432e-09 21.9449 -86.3406)
(2.63341e-09 84.8598 435.621)
(2.12421e-09 53.7047 100.95)
(2.86417e-09 5.06407 68.2084)
(3.81914e-09 -30.4569 75.9599)
(4.21861e-09 -64.2253 63.7037)
(4.26956e-09 -45.1935 124.225)
(4.294e-09 -68.4843 12.0499)
(4.45761e-09 -52.4492 -104.613)
(4.85294e-09 -14.7387 -100.229)
(4.86508e-09 -20.7291 -74.1441)
(4.70963e-09 -13.9276 -9.10847)
(4.74921e-09 -3.88735 30.8522)
(5.41568e-09 38.8128 -7.63608)
(6.28427e-09 38.9737 -42.6417)
(5.7405e-09 26.5845 76.4613)
(6.13413e-09 -66.092 283.992)
(5.68153e-09 25.7943 164.601)
(5.79288e-09 25.4794 100.694)
(6.14451e-09 38.5283 58.7674)
(6.29375e-09 45.4092 44.5467)
(6.57924e-09 60.6778 22.2814)
(6.88368e-09 65.6518 -0.778564)
(6.87475e-09 67.7906 12.6919)
(6.69836e-09 69.5392 21.9811)
(6.81877e-09 73.617 1.23023)
(7.24004e-09 111.35 -11.1003)
(7.77504e-09 169.418 130.723)
(8.11281e-09 311.222 805.894)
(9.11675e-09 44.4686 12.5999)
(8.3636e-09 108.237 205.434)
(7.21084e-09 -129.123 162)
(6.26776e-09 32.4971 225.275)
(6.02757e-09 4.43964 165.715)
(6.16201e-09 -20.5803 88.3874)
(6.30607e-09 -34.3616 84.5766)
(6.36722e-09 -34.0322 117.443)
(6.3627e-09 -33.8432 61.1902)
(6.71735e-09 -34.126 -15.7048)
(7.49682e-09 -10.7043 45.8201)
(7.94033e-09 19.532 13.5287)
(8.1762e-09 84.4711 -160.877)
(8.33726e-09 118.141 -256.757)
(8.26578e-09 179.739 -43.4449)
(8.45511e-09 54.3262 -36.5755)
(7.91502e-09 82.7087 100.544)
(7.75632e-09 -160.836 107.931)
(6.48586e-09 -27.9398 167.118)
(6.47594e-09 13.997 170.799)
(6.61055e-09 -0.660715 102.904)
(6.8732e-09 -2.45097 73.5595)
(7.14736e-09 7.59985 36.0658)
(7.52326e-09 8.22138 17.6857)
(7.69126e-09 14.8165 47.2711)
(7.71668e-09 -7.72768 67.9111)
(7.80991e-09 -25.3436 153.992)
(8.32996e-09 39.1685 241.215)
(8.15877e-09 31.9563 214.466)
(7.94938e-09 89.9235 174.02)
(7.74084e-09 19.5771 28.1469)
(5.70309e-09 64.965 45.8275)
(4.55803e-09 4.11459 -23.5583)
(6.24468e-09 -35.2775 9.66546)
(7.27556e-09 -17.3929 13.5147)
(7.52014e-09 -22.864 2.52378)
(7.60001e-09 -27.861 9.55744)
(7.6415e-09 -26.3141 21.6334)
(7.6979e-09 -20.5153 27.4874)
(7.77356e-09 -20.1519 37.7684)
(7.82667e-09 -21.0949 50.5946)
(7.87537e-09 -17.1753 46.8758)
(7.9677e-09 -13.9571 40.5937)
(8.08682e-09 2.65662 33.7963)
(8.31774e-09 -0.0423582 5.91724)
(8.22391e-09 -40.0943 51.822)
(6.20324e-09 -5.78974 -9.92193)
(8.93901e-09 33.6623 -79.0781)
(9.11932e-09 32.6758 -34.2347)
(8.2087e-09 11.2687 -6.02904)
(8.11134e-09 3.07178 32.0837)
(7.93713e-09 -8.16784 53.2552)
(7.86556e-09 -1.4791 60.0647)
(7.77939e-09 -15.0294 59.4624)
(7.63045e-09 -18.9195 67.8145)
(7.54364e-09 -10.93 77.6136)
(7.57234e-09 -19.747 62.509)
(7.52748e-09 -11.9264 55.8822)
(7.41691e-09 -17.1376 49.8041)
(6.93452e-09 -21.5054 49.2815)
(5.42901e-09 -10.2997 50.0068)
(4.26463e-09 -4.88992 -100.276)
(1.00691e-08 2.49409 14.184)
(8.77797e-09 20.5459 45.2237)
(7.0764e-09 5.59322 27.8099)
(7.49906e-09 -0.0583178 2.71772)
(7.48016e-09 -2.47013 9.64905)
(7.38542e-09 -1.86466 13.598)
(7.24209e-09 -5.71693 13.453)
(7.025e-09 -8.60645 15.7878)
(6.80634e-09 -10.3979 18.6945)
(6.59982e-09 -11.8464 15.4984)
(6.39981e-09 -8.7297 6.43325)
(6.25779e-09 -6.55465 -2.8939)
(5.77673e-09 -0.198953 -14.0453)
(4.94266e-09 9.95227 -52.2258)
(3.7555e-09 8.57447 -45.9966)
(8.13338e-09 20.9357 61.2079)
(9.78714e-09 -33.6391 32.718)
(7.88412e-09 -14.1475 29.3859)
(7.81349e-09 -30.416 8.64894)
(7.88049e-09 -32.1977 1.76666)
(7.89678e-09 -34.2369 -5.52068)
(7.87507e-09 -35.9981 -15.782)
(7.72443e-09 -27.4943 -23.1615)
(7.24934e-09 -18.9257 -36.1981)
(6.71038e-09 -39.3914 -68.9948)
(6.62001e-09 -30.1977 -72.8941)
(6.58514e-09 -17.3367 -55.2914)
(6.71381e-09 -17.539 -27.1467)
(7.42833e-09 -9.25386 18.2284)
(9.45517e-09 6.41744 22.3411)
(7.38132e-09 89.0606 15.3413)
(1.06703e-08 3.93387 -21.7591)
(8.81318e-09 -34.0109 -46.19)
(8.16223e-09 -34.8619 -23.5191)
(8.12843e-09 -27.8592 -11.0807)
(8.07472e-09 -30.4908 -7.99494)
(8.078e-09 -36.4974 -14.5206)
(8.03947e-09 -28.7233 -8.57991)
(7.84591e-09 -21.1109 10.701)
(7.69808e-09 -30.9357 19.0053)
(7.69049e-09 -30.8294 18.501)
(7.68884e-09 -33.9521 12.1663)
(7.79471e-09 -21.0535 21.6599)
(9.2821e-09 -9.74003 19.7563)
(9.39773e-09 25.5646 15.4252)
(1.03317e-08 70.2854 -11.1539)
(9.70767e-09 -34.7796 -94.361)
(8.47302e-09 -38.9603 -104.851)
(8.31252e-09 -15.7149 -44.3888)
(8.26305e-09 -20.413 -14.3725)
(8.10189e-09 -30.5045 7.45354)
(7.9988e-09 -25.7206 18.0975)
(8.34542e-09 -9.91944 22.0758)
(9.08975e-09 -10.952 18.6797)
(9.92139e-09 -16.7418 10.6695)
(1.0483e-08 -12.3641 11.0835)
(1.09467e-08 0.406521 17.2772)
(1.11259e-08 3.00807 14.7782)
(1.07717e-08 -5.83389 7.81577)
(5.4045e-09 25.8515 11.7991)
(1.10037e-08 -36.1232 -31.5062)
(1.03379e-08 -21.971 -16.3118)
(1.03388e-08 -19.4517 -3.44361)
(1.03209e-08 -12.847 -3.74191)
(1.01766e-08 -3.40731 4.83718)
(1.00728e-08 -1.35101 14.2291)
(1.015e-08 -5.97097 13.17)
(1.04017e-08 -7.41687 2.21249)
(1.06941e-08 -11.0702 -8.58379)
(1.10007e-08 -17.1345 -26.3554)
(1.12731e-08 -25.9286 -52.6973)
(1.16604e-08 -43.4504 -42.9139)
(1.18356e-08 -11.1054 16.8502)
(1.07297e-08 40.561 26.4928)
(1.91073e-09 -51.7029 -130.823)
(9.79123e-09 -33.9729 23.5692)
(1.01019e-08 -61.6615 -82.0281)
(9.56178e-09 -17.0746 -39.4701)
(9.47205e-09 -3.37072 -2.29636)
(9.69364e-09 -16.6074 -2.80971)
(9.91918e-09 -5.89911 9.17235)
(1.0115e-08 -24.9449 -12.1156)
(1.0338e-08 38.1162 79.109)
(1.04911e-08 13.988 52.7969)
(1.06156e-08 9.86116 39.3306)
(1.07067e-08 -0.421299 1.73382)
(1.0836e-08 -1.42235 13.1538)
(1.08811e-08 -12.2398 14.5057)
(1.10368e-08 -43.8291 -24.8361)
(1.08658e-08 -30.2705 -46.7368)
)
;

boundaryField
{
    inletFace
    {
        type            zeroGradient;
    }
    inlet
    {
        type            fixedValue;
        value           uniform (0 8.7 15);
    }
    inletWalls
    {
        type            noSlip;
    }
    outletInlet
    {
        type            zeroGradient;
    }
}


// ************************************************************************* //
