/*--------------------------------*- C++ -*----------------------------------*\
| =========                 |                                                 |
| \\      /  F ield         | OpenFOAM: The Open Source CFD Toolbox           |
|  \\    /   O peration     | Version:  4.1                                   |
|   \\  /    A nd           | Web:      www.OpenFOAM.org                      |
|    \\/     M anipulation  |                                                 |
\*---------------------------------------------------------------------------*/
FoamFile
{
    version     2.0;
    format      ascii;
    class       volScalarField;
    location    "17";
    object      p;
}
// * * * * * * * * * * * * * * * * * * * * * * * * * * * * * * * * * * * * * //

dimensions      [0 2 -2 0 0 0 0];

internalField   nonuniform List<scalar> 
6785
(
2.7363e+117
2.7363e+117
2.7363e+117
2.7363e+117
2.7363e+117
2.7363e+117
2.7363e+117
2.7363e+117
2.7363e+117
2.7363e+117
2.7363e+117
2.7363e+117
2.7363e+117
2.7363e+117
2.7363e+117
2.7363e+117
2.7363e+117
2.7363e+117
2.7363e+117
2.7363e+117
2.7363e+117
2.7363e+117
2.7363e+117
2.7363e+117
2.7363e+117
2.7363e+117
2.7363e+117
2.7363e+117
2.7363e+117
2.7363e+117
2.7363e+117
2.7363e+117
2.7363e+117
2.7363e+117
2.7363e+117
2.7363e+117
2.7363e+117
2.7363e+117
2.7363e+117
2.7363e+117
2.7363e+117
2.7363e+117
2.7363e+117
2.7363e+117
2.7363e+117
2.7363e+117
2.7363e+117
2.7363e+117
2.7363e+117
2.7363e+117
2.7363e+117
2.7363e+117
2.7363e+117
2.7363e+117
2.7363e+117
2.7363e+117
2.7363e+117
2.7363e+117
2.7363e+117
2.7363e+117
2.7363e+117
2.7363e+117
2.7363e+117
2.7363e+117
2.7363e+117
2.7363e+117
2.7363e+117
2.7363e+117
2.7363e+117
2.7363e+117
2.7363e+117
2.7363e+117
2.7363e+117
2.7363e+117
2.7363e+117
2.7363e+117
2.7363e+117
2.7363e+117
2.7363e+117
2.7363e+117
2.7363e+117
2.7363e+117
2.7363e+117
2.7363e+117
2.7363e+117
2.7363e+117
2.7363e+117
2.7363e+117
2.7363e+117
2.7363e+117
2.7363e+117
2.7363e+117
2.7363e+117
2.7363e+117
2.7363e+117
2.7363e+117
2.7363e+117
2.7363e+117
2.7363e+117
2.7363e+117
2.7363e+117
2.7363e+117
2.7363e+117
2.7363e+117
2.7363e+117
2.7363e+117
2.7363e+117
2.7363e+117
2.7363e+117
2.7363e+117
2.7363e+117
2.7363e+117
2.7363e+117
2.7363e+117
2.7363e+117
2.7363e+117
2.7363e+117
2.7363e+117
2.7363e+117
2.7363e+117
2.7363e+117
2.7363e+117
2.7363e+117
2.7363e+117
2.7363e+117
2.7363e+117
2.7363e+117
2.7363e+117
2.7363e+117
2.7363e+117
2.7363e+117
2.7363e+117
2.7363e+117
2.7363e+117
2.7363e+117
2.7363e+117
2.7363e+117
2.7363e+117
2.7363e+117
2.7363e+117
2.7363e+117
2.7363e+117
2.7363e+117
2.7363e+117
2.7363e+117
2.7363e+117
2.7363e+117
2.7363e+117
2.7363e+117
2.7363e+117
2.73629e+117
2.73628e+117
2.73628e+117
2.73628e+117
2.73628e+117
2.73628e+117
2.73628e+117
2.73628e+117
2.73627e+117
2.73627e+117
2.73627e+117
2.73627e+117
2.73627e+117
2.73627e+117
2.73627e+117
2.73625e+117
2.73625e+117
2.73625e+117
2.73624e+117
2.73624e+117
2.73624e+117
2.73624e+117
2.73624e+117
2.73624e+117
2.73624e+117
2.73624e+117
2.73624e+117
2.73625e+117
2.73625e+117
2.73625e+117
2.73619e+117
2.73618e+117
2.73617e+117
2.73618e+117
2.73619e+117
2.7362e+117
2.73622e+117
2.73624e+117
2.73626e+117
2.73628e+117
2.73628e+117
2.73629e+117
2.73629e+117
2.73629e+117
2.73629e+117
2.73606e+117
2.73614e+117
2.73622e+117
2.73626e+117
2.73627e+117
2.73625e+117
2.73621e+117
2.73616e+117
2.73611e+117
2.73604e+117
2.73598e+117
2.73593e+117
2.73588e+117
2.73586e+117
2.73588e+117
2.73734e+117
2.73719e+117
2.7368e+117
2.73641e+117
2.73598e+117
2.73554e+117
2.73511e+117
2.73468e+117
2.73427e+117
2.73388e+117
2.7335e+117
2.73306e+117
2.73248e+117
2.73162e+117
2.73075e+117
2.84169e+117
2.8414e+117
2.83455e+117
2.83403e+117
2.83866e+117
2.84532e+117
2.84577e+117
2.84528e+117
2.84471e+117
2.84347e+117
2.84448e+117
2.84449e+117
2.84377e+117
2.84439e+117
2.84368e+117
2.8426e+117
2.84044e+117
2.84073e+117
2.83908e+117
2.836e+117
2.83584e+117
2.83346e+117
2.83062e+117
2.82713e+117
2.827e+117
2.82403e+117
2.82054e+117
2.81686e+117
2.81724e+117
2.81337e+117
2.80873e+117
2.80868e+117
2.80464e+117
2.8e+117
2.79647e+117
2.7977e+117
2.793e+117
2.78846e+117
2.78915e+117
2.7846e+117
2.77932e+117
2.77654e+117
2.77816e+117
2.77368e+117
2.76836e+117
2.76607e+117
2.76883e+117
2.76359e+117
2.75997e+117
2.76182e+117
2.75706e+117
2.75141e+117
2.74998e+117
2.75281e+117
2.74826e+117
2.74275e+117
2.74178e+117
2.74572e+117
2.74036e+117
2.73776e+117
2.74048e+117
2.73575e+117
2.73012e+117
2.72978e+117
2.73421e+117
2.72887e+117
2.72685e+117
2.72987e+117
2.72521e+117
2.7196e+117
2.71991e+117
2.7237e+117
2.71927e+117
2.71384e+117
2.71442e+117
2.71904e+117
2.71372e+117
2.71207e+117
2.71661e+117
2.71068e+117
2.7153e+117
2.72357e+117
2.72964e+117
2.74253e+117
2.7427e+117
2.74158e+117
2.74042e+117
2.73941e+117
2.73853e+117
2.73766e+117
2.73685e+117
2.73589e+117
2.73522e+117
2.73836e+117
2.73829e+117
2.73779e+117
2.73714e+117
2.73648e+117
2.73576e+117
2.73508e+117
2.73427e+117
2.73377e+117
2.73722e+117
2.73724e+117
2.73683e+117
2.73628e+117
2.73567e+117
2.73508e+117
2.73445e+117
2.73385e+117
2.73311e+117
2.73255e+117
2.73599e+117
2.73602e+117
2.73563e+117
2.73509e+117
2.73451e+117
2.73389e+117
2.73333e+117
2.73266e+117
2.7321e+117
2.73547e+117
2.7355e+117
2.73513e+117
2.73461e+117
2.73406e+117
2.73346e+117
2.73289e+117
2.73221e+117
2.7315e+117
2.73488e+117
2.73493e+117
2.73459e+117
2.7341e+117
2.73352e+117
2.73289e+117
2.73229e+117
2.7316e+117
2.73073e+117
2.73398e+117
2.73398e+117
2.7336e+117
2.73308e+117
2.73252e+117
2.73184e+117
2.73098e+117
2.73017e+117
2.72927e+117
2.72757e+117
2.73091e+117
2.73083e+117
2.73031e+117
2.72959e+117
2.72877e+117
2.72763e+117
2.72564e+117
2.72263e+117
2.71421e+117
2.7167e+117
2.71555e+117
2.70916e+117
2.70522e+117
2.71349e+117
2.71352e+117
2.71146e+117
2.71133e+117
2.71037e+117
2.71725e+117
2.71757e+117
2.71523e+117
2.72045e+117
2.72e+117
2.71824e+117
2.71801e+117
2.71716e+117
2.72205e+117
2.72123e+117
2.71917e+117
2.7185e+117
2.7171e+117
2.72151e+117
2.72117e+117
2.71856e+117
2.72208e+117
2.72048e+117
2.71894e+117
2.71843e+117
2.7189e+117
2.72939e+117
2.7311e+117
2.73326e+117
2.73057e+117
2.72424e+117
2.72728e+117
2.71315e+117
2.69074e+117
2.69074e+117
2.6781e+117
2.65927e+117
2.65264e+117
2.64232e+117
2.66306e+117
2.68066e+117
2.68532e+117
2.70786e+117
2.71977e+117
2.76567e+117
2.81395e+117
2.84395e+117
2.90185e+117
2.92222e+117
2.93299e+117
2.98328e+117
3.02322e+117
3.07823e+117
3.1311e+117
3.16168e+117
3.23438e+117
3.25475e+117
3.15554e+117
3.19878e+117
3.12906e+117
2.7171e+117
2.60388e+117
2.4374e+117
2.38863e+117
2.17098e+117
1.07463e+117
7.8729e+116
4.67208e+116
3.9581e+116
1.38487e+116
-1.68672e+117
-1.67763e+117
-2.16948e+117
-4.95826e+117
-5.23347e+117
-5.03666e+117
-2.91951e+117
2.39459e+117
7.53871e+110
1.8691e+112
4.95813e+112
4.00331e+112
6.38115e+112
1.01478e+113
1.70837e+113
1.8759e+112
2.31419e+112
7.01356e+112
-2.11219e+112
-6.63772e+112
1.95115e+112
6.60495e+112
7.79828e+112
-2.82209e+112
-1.19228e+113
-9.68416e+112
-1.06944e+113
-1.91615e+113
-2.03566e+113
-8.38082e+112
-2.08935e+112
5.71952e+112
1.61049e+112
4.00244e+112
7.89555e+112
4.86217e+112
7.03849e+112
7.02335e+112
1.21246e+112
1.79652e+112
7.94908e+111
1.08522e+112
1.82217e+111
2.95464e+111
1.33974e+112
9.5422e+111
5.93925e+111
1.97626e+111
2.34485e+112
1.15457e+113
8.4931e+112
7.06729e+112
5.7426e+112
6.80324e+112
3.17813e+112
-2.71161e+111
1.69316e+112
-1.16177e+112
-1.22977e+112
3.92369e+111
5.63608e+111
4.37463e+111
3.292e+111
7.28841e+111
1.40443e+111
-2.62777e+111
-9.41617e+111
-1.65256e+112
-2.15441e+112
-2.55348e+112
-2.98763e+112
-3.5989e+112
-4.59042e+112
-6.20308e+112
-8.81354e+112
-1.29406e+113
-1.94257e+113
-2.92482e+113
-4.35813e+113
-6.14818e+113
-7.42968e+113
-5.11099e+113
-1.18667e+113
1.1136e+114
-2.12974e+114
-4.67675e+115
-4.9845e+116
-1.4705e+110
1.8115e+112
5.07391e+112
4.74771e+112
7.06672e+112
1.13873e+113
1.84841e+113
4.14365e+112
3.56035e+112
6.88264e+112
-1.43047e+112
-8.23429e+112
-1.23287e+112
5.98872e+112
4.36654e+112
-6.34964e+112
-1.51524e+113
-1.54669e+113
-1.43771e+113
-2.39658e+113
-2.52456e+113
-1.23592e+113
-4.38774e+112
5.26501e+112
1.26857e+112
4.64049e+112
8.87089e+112
5.67653e+112
9.42212e+112
1.06712e+113
2.85894e+112
2.01623e+112
1.41323e+112
1.57841e+112
2.95458e+111
2.27142e+111
1.49837e+112
1.47403e+112
8.23287e+111
3.86893e+111
3.38972e+112
1.45147e+113
1.07256e+113
7.96723e+112
5.89989e+112
7.30238e+112
3.36229e+112
-1.59458e+112
-5.33497e+111
-2.51217e+112
-2.31857e+112
-4.06201e+111
-1.34777e+111
-7.3145e+110
-4.67667e+111
9.2883e+110
-6.64123e+111
-1.08723e+112
-1.83992e+112
-2.79861e+112
-3.52611e+112
-4.12622e+112
-4.78866e+112
-5.71523e+112
-7.19477e+112
-9.58154e+112
-1.34296e+113
-1.95166e+113
-2.90968e+113
-4.36987e+113
-6.5272e+113
-9.33163e+113
-1.1909e+114
-1.06217e+114
-9.4364e+113
-4.60755e+114
-5.24465e+115
-2.71595e+116
-9.38915e+116
-1.42592e+111
1.49373e+112
4.7716e+112
4.89433e+112
7.11398e+112
1.16155e+113
1.88052e+113
6.7639e+112
5.13281e+112
6.76523e+112
-7.11783e+111
-7.87176e+112
-4.24779e+112
3.83509e+112
1.32122e+112
-8.12205e+112
-1.70829e+113
-1.90302e+113
-1.75183e+113
-2.82618e+113
-2.76089e+113
-1.46858e+113
-5.64752e+112
5.4376e+112
2.37116e+112
4.84853e+112
8.416e+112
6.31504e+112
1.13651e+113
1.32038e+113
5.28903e+112
2.47342e+112
1.88226e+112
1.8447e+112
5.54811e+111
1.61662e+111
1.52794e+112
1.82311e+112
1.05477e+112
7.01194e+111
3.91235e+112
1.5569e+113
1.2326e+113
7.94964e+112
5.56544e+112
7.49109e+112
3.23332e+112
-3.18376e+112
-3.06803e+112
-3.70861e+112
-2.83516e+112
-8.55781e+111
-4.48065e+111
-7.77595e+110
-4.39134e+111
-4.81562e+110
-8.79754e+111
-1.3493e+112
-2.10909e+112
-3.11517e+112
-3.88002e+112
-4.51029e+112
-5.20831e+112
-6.1936e+112
-7.77877e+112
-1.03494e+113
-1.45062e+113
-2.10986e+113
-3.1503e+113
-4.74461e+113
-7.12805e+113
-1.03387e+114
-1.38874e+114
-1.46814e+114
-1.55731e+114
-7.8461e+114
-7.61173e+115
-3.20026e+116
-7.03959e+116
-1.24133e+111
1.546e+112
4.92105e+112
5.54783e+112
8.02051e+112
1.28047e+113
1.99835e+113
9.68386e+112
7.36415e+112
7.61702e+112
4.40525e+110
-7.41199e+112
-5.77282e+112
2.42528e+112
-1.05644e+112
-9.39871e+112
-1.81949e+113
-2.26407e+113
-2.16314e+113
-3.1954e+113
-2.97377e+113
-1.64453e+113
-6.05391e+112
5.96517e+112
3.26997e+112
5.11488e+112
7.41882e+112
7.25104e+112
1.35664e+113
1.58448e+113
7.47857e+112
3.34659e+112
2.29901e+112
2.15796e+112
7.88194e+111
2.33502e+111
1.74295e+112
2.03781e+112
1.23106e+112
1.29786e+112
4.94144e+112
1.64335e+113
1.39639e+113
8.32463e+112
5.75505e+112
7.78035e+112
3.22083e+112
-4.83965e+112
-5.33316e+112
-4.86153e+112
-3.49216e+112
-1.22641e+112
-6.01445e+111
-4.19579e+110
-1.91074e+111
1.37443e+110
-9.75034e+111
-1.54923e+112
-2.30955e+112
-3.31172e+112
-4.06153e+112
-4.67409e+112
-5.35713e+112
-6.33994e+112
-7.94799e+112
-1.05833e+113
-1.48701e+113
-2.16965e+113
-3.25157e+113
-4.92098e+113
-7.45608e+113
-1.10173e+114
-1.57027e+114
-1.9382e+114
-2.15175e+114
-9.88685e+114
-8.39851e+115
-2.48613e+116
-7.06979e+115
-2.2258e+110
1.79868e+112
5.3312e+112
6.50944e+112
9.36443e+112
1.44982e+113
2.14702e+113
1.24427e+113
9.76701e+112
8.76742e+112
4.52656e+111
-7.75704e+112
-7.10764e+112
5.28005e+111
-3.40741e+112
-1.08252e+113
-1.95353e+113
-2.65761e+113
-2.59963e+113
-3.50153e+113
-3.1887e+113
-1.7418e+113
-5.87472e+112
5.467e+112
2.93436e+112
5.31165e+112
5.84904e+112
8.24056e+112
1.57115e+113
1.84168e+113
9.82432e+112
3.98732e+112
2.57855e+112
2.27446e+112
9.62848e+111
3.30335e+111
1.96172e+112
2.13165e+112
1.34069e+112
2.00161e+112
6.26882e+112
1.7257e+113
1.54749e+113
8.71469e+112
6.10413e+112
7.83126e+112
2.68538e+112
-6.50279e+112
-7.59706e+112
-6.04182e+112
-4.30176e+112
-1.56178e+112
-7.9785e+111
-1.42015e+111
6.06517e+110
1.12137e+111
-1.07266e+112
-1.78219e+112
-2.54496e+112
-3.52863e+112
-4.2475e+112
-4.82856e+112
-5.48411e+112
-6.45238e+112
-8.0714e+112
-1.07591e+113
-1.51631e+113
-2.2211e+113
-3.34382e+113
-5.09019e+113
-7.7897e+113
-1.17436e+114
-1.76758e+114
-2.46308e+114
-2.75975e+114
-1.14374e+115
-8.06659e+115
-1.08196e+116
5.90679e+116
1.48473e+111
2.20938e+112
5.98553e+112
7.73116e+112
1.10722e+113
1.65263e+113
2.32122e+113
1.52154e+113
1.22947e+113
1.01032e+113
6.5859e+111
-8.29695e+112
-8.38728e+112
-1.66344e+112
-5.75285e+112
-1.27774e+113
-2.14863e+113
-3.09706e+113
-3.03242e+113
-3.75796e+113
-3.38799e+113
-1.80901e+113
-5.19635e+112
3.81667e+112
1.9385e+112
5.72758e+112
4.72824e+112
9.43534e+112
1.77234e+113
2.09554e+113
1.19818e+113
4.25529e+112
2.73729e+112
2.16586e+112
1.10639e+112
5.43633e+111
2.14116e+112
2.14322e+112
1.5446e+112
2.77978e+112
7.84932e+112
1.82985e+113
1.69208e+113
9.07822e+112
6.44256e+112
7.74095e+112
2.03923e+112
-8.02607e+112
-9.79874e+112
-7.24642e+112
-5.09277e+112
-1.85048e+112
-1.00956e+112
-3.25295e+111
2.83977e+111
1.97964e+111
-1.17285e+112
-2.03143e+112
-2.8066e+112
-3.76712e+112
-4.44586e+112
-4.98643e+112
-5.60617e+112
-6.55274e+112
-8.17739e+112
-1.09146e+113
-1.54369e+113
-2.27141e+113
-3.43714e+113
-5.26581e+113
-8.14335e+113
-1.25168e+114
-1.96663e+114
-2.99489e+114
-3.40867e+114
-1.28998e+115
-6.80975e+115
7.17602e+115
1.25207e+117
3.66199e+111
2.73597e+112
6.83413e+112
9.15916e+112
1.30165e+113
1.87435e+113
2.51347e+113
1.7976e+113
1.48588e+113
1.14803e+113
7.2706e+111
-8.86716e+112
-9.70058e+112
-3.96926e+112
-8.05836e+112
-1.54818e+113
-2.42031e+113
-3.56106e+113
-3.47784e+113
-3.99218e+113
-3.57641e+113
-1.87209e+113
-4.71814e+112
1.69646e+112
8.42046e+111
6.27096e+112
4.29538e+112
1.07997e+113
1.96147e+113
2.33827e+113
1.34928e+113
4.3141e+112
2.69627e+112
1.94797e+112
1.21042e+112
8.54958e+111
2.36872e+112
2.15121e+112
1.88941e+112
3.59417e+112
9.65233e+112
1.96554e+113
1.82052e+113
9.46315e+112
6.71632e+112
7.54622e+112
1.20292e+112
-9.46773e+112
-1.1671e+113
-8.47078e+112
-5.89877e+112
-2.10281e+112
-1.17807e+112
-4.96434e+111
4.97925e+111
2.81147e+111
-1.27567e+112
-2.28787e+112
-3.08498e+112
-4.02049e+112
-4.65171e+112
-5.14328e+112
-5.71862e+112
-6.63552e+112
-8.25908e+112
-1.10406e+113
-1.56777e+113
-2.31837e+113
-3.5277e+113
-5.44058e+113
-8.5007e+113
-1.32965e+114
-2.15553e+114
-3.4872e+114
-4.1601e+114
-1.43932e+115
-4.76736e+115
2.63113e+116
1.82452e+117
6.16659e+111
3.35388e+112
7.84345e+112
1.07695e+113
1.51187e+113
2.10612e+113
2.71717e+113
2.07183e+113
1.74256e+113
1.28111e+113
7.02259e+111
-9.46145e+112
-1.10059e+113
-6.07236e+112
-1.02009e+113
-1.88562e+113
-2.77163e+113
-4.02606e+113
-3.90862e+113
-4.21043e+113
-3.76816e+113
-1.9304e+113
-4.33948e+112
5.76325e+110
-2.01945e+111
6.14685e+112
4.68944e+112
1.228e+113
2.14187e+113
2.55534e+113
1.4104e+113
4.41891e+112
2.29352e+112
1.74554e+112
1.24728e+112
1.21931e+112
2.65946e+112
2.23906e+112
2.3975e+112
4.62252e+112
1.15089e+113
2.08562e+113
1.93664e+113
9.86525e+112
6.92408e+112
7.26055e+112
1.49441e+111
-1.09572e+113
-1.31155e+113
-9.68032e+112
-6.72217e+112
-2.34708e+112
-1.30854e+112
-6.16211e+111
7.19599e+111
3.72472e+111
-1.38676e+112
-2.55113e+112
-3.37626e+112
-4.2842e+112
-4.8606e+112
-5.29391e+112
-5.8149e+112
-6.69272e+112
-8.30678e+112
-1.1125e+113
-1.58701e+113
-2.3599e+113
-3.61235e+113
-5.60887e+113
-8.84897e+113
-1.40518e+114
-2.32937e+114
-3.89748e+114
-5.10976e+114
-1.57592e+115
-1.90336e+115
4.61927e+116
2.29604e+117
8.90724e+111
4.0467e+112
8.98362e+112
1.25254e+113
1.73261e+113
2.34188e+113
2.92734e+113
2.34731e+113
1.99634e+113
1.40557e+113
5.65077e+111
-1.00421e+113
-1.23787e+113
-7.94908e+112
-1.2252e+113
-2.27658e+113
-3.21889e+113
-4.52308e+113
-4.30461e+113
-4.41705e+113
-3.96692e+113
-1.97357e+113
-3.83456e+112
-9.94349e+111
-1.33041e+112
5.38839e+112
5.78567e+112
1.37613e+113
2.29685e+113
2.72595e+113
1.43896e+113
4.27402e+112
1.53187e+112
1.57352e+112
1.23909e+112
1.60248e+112
2.97774e+112
2.41807e+112
3.05654e+112
5.74618e+112
1.32794e+113
2.21642e+113
2.05025e+113
1.02357e+113
7.08826e+112
6.9308e+112
-9.62449e+111
-1.26027e+113
-1.44333e+113
-1.08287e+113
-7.52776e+112
-2.62199e+112
-1.46943e+112
-6.77752e+111
9.45807e+111
4.70145e+111
-1.51479e+112
-2.82628e+112
-3.6836e+112
-4.56017e+112
-5.07535e+112
-5.44137e+112
-5.89799e+112
-6.72729e+112
-8.32351e+112
-1.11709e+113
-1.60167e+113
-2.39608e+113
-3.69063e+113
-5.76875e+113
-9.1814e+113
-1.47627e+114
-2.48898e+114
-4.20583e+114
-6.3533e+114
-1.65215e+115
1.88923e+115
6.64097e+116
2.68928e+117
1.18292e+112
4.80292e+112
1.02294e+113
1.4391e+113
1.95943e+113
2.57686e+113
3.13878e+113
2.62424e+113
2.24232e+113
1.51855e+113
2.83996e+111
-1.05709e+113
-1.39164e+113
-9.76108e+112
-1.43975e+113
-2.70479e+113
-3.74279e+113
-5.02667e+113
-4.67009e+113
-4.62559e+113
-4.16022e+113
-2.01313e+113
-3.50447e+112
-1.67631e+112
-2.47208e+112
4.28035e+112
7.29216e+112
1.52422e+113
2.4075e+113
2.83228e+113
1.46852e+113
3.67533e+112
8.84504e+111
1.4351e+112
1.2123e+112
1.97593e+112
3.33457e+112
2.69694e+112
3.85346e+112
6.70757e+112
1.50178e+113
2.39723e+113
2.1546e+113
1.05977e+113
7.25955e+112
6.62581e+112
-2.0614e+112
-1.44284e+113
-1.57224e+113
-1.18746e+113
-8.25981e+112
-2.88011e+112
-1.68566e+112
-6.62429e+111
1.13728e+112
5.73277e+111
-1.66789e+112
-3.11849e+112
-4.00891e+112
-4.84668e+112
-5.29373e+112
-5.58235e+112
-5.96326e+112
-6.73348e+112
-8.30257e+112
-1.11706e+113
-1.61086e+113
-2.42581e+113
-3.76095e+113
-5.91729e+113
-9.49141e+113
-1.54121e+114
-2.63665e+114
-4.4183e+114
-7.94715e+114
-1.58781e+115
6.6385e+115
8.55373e+116
2.95663e+117
1.48951e+112
5.61124e+112
1.15578e+113
1.63407e+113
2.18888e+113
2.80878e+113
3.34692e+113
2.89907e+113
2.47689e+113
1.61789e+113
-1.65126e+111
-1.11751e+113
-1.55825e+113
-1.16e+113
-1.66261e+113
-3.12708e+113
-4.29097e+113
-5.48097e+113
-5.00768e+113
-4.85167e+113
-4.36475e+113
-2.08919e+113
-3.36138e+112
-2.12769e+112
-3.63425e+112
2.98588e+112
8.68053e+112
1.65979e+113
2.47514e+113
2.86623e+113
1.48295e+113
3.01415e+112
5.75951e+111
1.37509e+112
1.20677e+112
2.30126e+112
3.79681e+112
3.10519e+112
4.73189e+112
7.82942e+112
1.67752e+113
2.51501e+113
2.23461e+113
1.101e+113
7.44128e+112
6.32321e+112
-3.16896e+112
-1.64099e+113
-1.70115e+113
-1.27971e+113
-8.9106e+112
-3.02562e+112
-1.9406e+112
-6.3833e+111
1.16142e+112
6.69172e+111
-1.85772e+112
-3.43655e+112
-4.35867e+112
-5.14764e+112
-5.52028e+112
-5.7212e+112
-6.01487e+112
-6.71561e+112
-8.24863e+112
-1.11292e+113
-1.6151e+113
-2.44957e+113
-3.82349e+113
-6.05389e+113
-9.77606e+113
-1.599e+114
-2.77348e+114
-4.55986e+114
-9.87671e+114
-1.28213e+115
1.23988e+116
1.03606e+117
3.12413e+117
1.80769e+112
6.46052e+112
1.29491e+113
1.83512e+113
2.41858e+113
3.03586e+113
3.54877e+113
3.16912e+113
2.698e+113
1.70296e+113
-6.97019e+111
-1.20512e+113
-1.73393e+113
-1.35343e+113
-1.89392e+113
-3.53751e+113
-4.84572e+113
-5.89516e+113
-5.3336e+113
-5.0967e+113
-4.56403e+113
-2.17374e+113
-2.99419e+112
-2.38921e+112
-4.82025e+112
1.85219e+112
9.41656e+112
1.74741e+113
2.52079e+113
2.82578e+113
1.46006e+113
2.64049e+112
4.07303e+111
1.35068e+112
1.23776e+112
2.63889e+112
4.38601e+112
3.68459e+112
5.71513e+112
9.31885e+112
1.85712e+113
2.58855e+113
2.28867e+113
1.14189e+113
7.49162e+112
5.90628e+112
-4.36157e+112
-1.85068e+113
-1.83157e+113
-1.35654e+113
-9.46643e+112
-3.07231e+112
-2.18544e+112
-5.95831e+111
9.14047e+111
7.33992e+111
-2.09315e+112
-3.79186e+112
-4.73258e+112
-5.46123e+112
-5.75252e+112
-5.85368e+112
-6.04688e+112
-6.66647e+112
-8.15355e+112
-1.10376e+113
-1.61336e+113
-2.46611e+113
-3.87664e+113
-6.17605e+113
-1.00308e+114
-1.64885e+114
-2.89568e+114
-4.67884e+114
-1.20221e+115
-6.21149e+114
1.92082e+116
1.20584e+117
3.22092e+117
2.13509e+112
7.34164e+112
1.43886e+113
2.04018e+113
2.64651e+113
3.25566e+113
3.74292e+113
3.4332e+113
2.90471e+113
1.7747e+113
-1.2119e+112
-1.32284e+113
-1.92435e+113
-1.55736e+113
-2.13251e+113
-3.94657e+113
-5.40331e+113
-6.28598e+113
-5.65321e+113
-5.34807e+113
-4.71965e+113
-2.27695e+113
-2.97767e+112
-2.64542e+112
-5.90341e+112
1.08554e+112
9.60318e+112
1.7983e+113
2.55324e+113
2.74896e+113
1.41829e+113
2.69725e+112
1.97699e+111
1.33565e+112
1.3245e+112
3.05018e+112
5.05349e+112
4.3996e+112
6.80381e+112
1.09981e+113
2.04286e+113
2.71165e+113
2.32928e+113
1.16442e+113
7.05539e+112
5.16094e+112
-5.68229e+112
-2.06694e+113
-1.96164e+113
-1.41609e+113
-9.86884e+112
-3.12995e+112
-2.40739e+112
-5.33427e+111
4.71551e+111
7.24689e+111
-2.3739e+112
-4.20921e+112
-5.13114e+112
-5.7922e+112
-5.99604e+112
-5.98473e+112
-6.0639e+112
-6.59089e+112
-8.02264e+112
-1.09017e+113
-1.60627e+113
-2.4761e+113
-3.92089e+113
-6.28404e+113
-1.02545e+114
-1.69101e+114
-2.99257e+114
-4.84555e+114
-1.41467e+115
5.17796e+114
2.70681e+116
1.35915e+117
3.21944e+117
2.47011e+112
8.24655e+112
1.58628e+113
2.24737e+113
2.87098e+113
3.46641e+113
3.92847e+113
3.68641e+113
3.09727e+113
1.83556e+113
-1.70841e+112
-1.46432e+113
-2.13198e+113
-1.76759e+113
-2.37528e+113
-4.35461e+113
-5.95312e+113
-6.65127e+113
-5.95544e+113
-5.59799e+113
-4.87725e+113
-2.43485e+113
-3.51659e+112
-3.22682e+112
-6.90223e+112
6.61042e+111
9.50899e+112
1.82307e+113
2.56382e+113
2.66397e+113
1.39307e+113
3.2588e+112
-4.40045e+110
1.40201e+112
1.48719e+112
3.48407e+112
5.76359e+112
5.1596e+112
7.95074e+112
1.28198e+113
2.22974e+113
2.87136e+113
2.35963e+113
1.1493e+113
6.08208e+112
4.03398e+112
-7.0876e+112
-2.2817e+113
-2.08126e+113
-1.4593e+113
-1.02598e+113
-3.35565e+112
-2.5951e+112
-5.48503e+111
-1.60837e+111
5.7836e+111
-2.66633e+112
-4.66921e+112
-5.54658e+112
-6.13857e+112
-6.24818e+112
-6.10942e+112
-6.05914e+112
-6.48085e+112
-7.84704e+112
-1.07119e+113
-1.59275e+113
-2.47829e+113
-3.95474e+113
-6.37605e+113
-1.04432e+114
-1.7263e+114
-3.04529e+114
-5.14199e+114
-1.59052e+115
2.24954e+115
3.59323e+116
1.49688e+117
3.16947e+117
2.81212e+112
9.16796e+112
1.73583e+113
2.4549e+113
3.09044e+113
3.66744e+113
4.1046e+113
3.92341e+113
3.2774e+113
1.89185e+113
-2.10283e+112
-1.612e+113
-2.34427e+113
-1.97468e+113
-2.62362e+113
-4.76113e+113
-6.47986e+113
-6.99108e+113
-6.23617e+113
-5.84575e+113
-5.04552e+113
-2.61454e+113
-4.60305e+112
-4.19487e+112
-7.82443e+112
5.37718e+111
9.4381e+112
1.78184e+113
2.5425e+113
2.52558e+113
1.39959e+113
3.93061e+112
-1.86821e+111
1.51194e+112
1.74235e+112
3.90804e+112
6.52171e+112
6.00325e+112
9.14952e+112
1.4799e+113
2.40971e+113
2.99921e+113
2.38065e+113
1.10165e+113
4.99473e+112
2.45693e+112
-8.65459e+112
-2.48904e+113
-2.18038e+113
-1.48677e+113
-1.12827e+113
-3.94638e+112
-2.55263e+112
-6.13558e+111
-9.30758e+111
2.45463e+111
-2.99423e+112
-5.15281e+112
-5.98438e+112
-6.50662e+112
-6.5153e+112
-6.23316e+112
-6.03764e+112
-6.34166e+112
-7.63278e+112
-1.04749e+113
-1.57356e+113
-2.47353e+113
-3.97905e+113
-6.45337e+113
-1.05959e+114
-1.75695e+114
-3.03301e+114
-5.70367e+114
-1.67828e+115
4.67668e+115
4.575e+116
1.61841e+117
3.0696e+117
3.16083e+112
1.00991e+113
1.88625e+113
2.66121e+113
3.30336e+113
3.85844e+113
4.27093e+113
4.14425e+113
3.44922e+113
1.9542e+113
-2.25361e+112
-1.74308e+113
-2.53747e+113
-2.17201e+113
-2.89005e+113
-5.16587e+113
-6.97109e+113
-7.31303e+113
-6.4995e+113
-6.09119e+113
-5.20724e+113
-2.79807e+113
-6.25987e+112
-5.42781e+112
-8.68974e+112
4.46025e+111
9.56834e+112
1.71951e+113
2.49127e+113
2.31632e+113
1.43976e+113
4.32454e+112
-1.37697e+111
1.61149e+112
2.03669e+112
4.42561e+112
7.3255e+112
6.99395e+112
1.0347e+113
1.68435e+113
2.58393e+113
3.12108e+113
2.40518e+113
1.02336e+113
3.91863e+112
-5.26559e+110
-1.05705e+113
-2.69168e+113
-2.2633e+113
-1.51032e+113
-1.29096e+113
-4.71301e+112
-2.08838e+112
-5.4337e+111
-1.62622e+112
-2.17018e+111
-3.40277e+112
-5.70598e+112
-6.44963e+112
-6.89547e+112
-6.79462e+112
-6.35023e+112
-5.99158e+112
-6.16433e+112
-7.37017e+112
-1.01806e+113
-1.54757e+113
-2.46058e+113
-3.99242e+113
-6.51499e+113
-1.07091e+114
-1.78598e+114
-2.93486e+114
-6.69132e+114
-1.60697e+115
7.88642e+115
5.64471e+116
1.72719e+117
2.96444e+117
3.5152e+112
1.10328e+113
2.03636e+113
2.86503e+113
3.50859e+113
4.03949e+113
4.42766e+113
4.3517e+113
3.61841e+113
2.03064e+113
-2.17589e+112
-1.85405e+113
-2.7044e+113
-2.35938e+113
-3.17285e+113
-5.56784e+113
-7.42633e+113
-7.62078e+113
-6.74945e+113
-6.33366e+113
-5.36569e+113
-2.99354e+113
-8.46804e+112
-6.84013e+112
-9.51188e+112
4.62094e+110
9.7551e+112
1.65797e+113
2.3836e+113
2.09517e+113
1.47958e+113
4.54704e+112
9.0847e+110
1.69237e+112
2.38343e+112
5.06151e+112
8.12824e+112
8.10953e+112
1.17095e+113
1.88877e+113
2.75027e+113
3.26858e+113
2.44007e+113
9.2578e+112
2.7128e+112
-3.15983e+112
-1.2924e+113
-2.88236e+113
-2.31208e+113
-1.52525e+113
-1.3696e+113
-5.28011e+112
-1.37741e+112
-2.06724e+111
-2.0902e+112
-8.37793e+111
-3.96785e+112
-6.40025e+112
-6.95382e+112
-7.31393e+112
-7.09375e+112
-6.46641e+112
-5.92621e+112
-5.95454e+112
-7.06584e+112
-9.83655e+112
-1.51567e+113
-2.44047e+113
-3.99602e+113
-6.56307e+113
-1.07837e+114
-1.81714e+114
-2.76806e+114
-8.12067e+114
-1.29509e+115
1.19511e+116
6.79836e+116
1.82905e+117
2.86536e+117
3.87304e+112
1.19605e+113
2.18499e+113
3.06566e+113
3.70665e+113
4.21127e+113
4.57634e+113
4.54861e+113
3.79012e+113
2.1234e+113
-1.95017e+112
-1.95133e+113
-2.84922e+113
-2.53792e+113
-3.46404e+113
-5.96045e+113
-7.84716e+113
-7.90862e+113
-6.9945e+113
-6.57534e+113
-5.52874e+113
-3.22176e+113
-1.11296e+113
-8.39906e+112
-1.02297e+113
-6.2111e+111
9.53907e+112
1.54235e+113
2.18661e+113
1.95296e+113
1.47211e+113
4.72425e+112
4.52942e+111
1.72588e+112
2.76237e+112
5.71919e+112
8.91269e+112
9.37666e+112
1.34855e+113
2.0883e+113
2.91355e+113
3.39262e+113
2.43398e+113
8.24962e+112
1.22049e+112
-5.78425e+112
-1.54061e+113
-3.04833e+113
-2.32045e+113
-1.52102e+113
-1.32516e+113
-5.59916e+112
-6.49124e+111
2.4587e+111
-2.42448e+112
-1.62941e+112
-4.77729e+112
-7.27946e+112
-7.49697e+112
-7.76316e+112
-7.41063e+112
-6.57576e+112
-5.83311e+112
-5.70274e+112
-6.70983e+112
-9.43246e+112
-1.47673e+113
-2.41202e+113
-3.98865e+113
-6.59703e+113
-1.08207e+114
-1.85082e+114
-2.60589e+114
-9.79385e+114
-6.50666e+114
1.69288e+116
8.03411e+116
1.93138e+117
2.77436e+117
4.2321e+112
1.28725e+113
2.33071e+113
3.2622e+113
3.89946e+113
4.37524e+113
4.71952e+113
4.73797e+113
3.9683e+113
2.23285e+113
-1.5913e+112
-2.03383e+113
-2.97037e+113
-2.70906e+113
-3.75759e+113
-6.3365e+113
-8.22974e+113
-8.17383e+113
-7.24257e+113
-6.81737e+113
-5.69979e+113
-3.47994e+113
-1.37251e+113
-9.95427e+112
-1.08169e+113
-1.4183e+112
8.8687e+112
1.43991e+113
1.96369e+113
1.96033e+113
1.41618e+113
4.9257e+112
9.09675e+111
1.71877e+112
3.17534e+112
6.38818e+112
9.67848e+112
1.07731e+113
1.53898e+113
2.28746e+113
3.07071e+113
3.48301e+113
2.35763e+113
7.38968e+112
-3.31519e+111
-7.99358e+112
-1.78001e+113
-3.18783e+113
-2.3034e+113
-1.50377e+113
-1.27988e+113
-5.83073e+112
-1.56144e+111
5.18511e+111
-2.79953e+112
-2.71147e+112
-5.9667e+112
-8.35375e+112
-8.07789e+112
-8.25499e+112
-7.7548e+112
-6.68479e+112
-5.71784e+112
-5.41505e+112
-6.30947e+112
-8.97704e+112
-1.43176e+113
-2.37642e+113
-3.97181e+113
-6.61896e+113
-1.083e+114
-1.87997e+114
-2.55592e+114
-1.13383e+115
4.24802e+114
2.28643e+116
9.3493e+116
2.04001e+117
2.6993e+117
4.59116e+112
1.37595e+113
2.4717e+113
3.45249e+113
4.08778e+113
4.53353e+113
4.85929e+113
4.92278e+113
4.15599e+113
2.35932e+113
-1.08531e+112
-2.09883e+113
-3.06744e+113
-2.87246e+113
-4.04813e+113
-6.6948e+113
-8.57549e+113
-8.41974e+113
-7.49595e+113
-7.06063e+113
-5.87468e+113
-3.73505e+113
-1.58416e+113
-1.13474e+113
-1.13255e+113
-2.21367e+112
8.04436e+112
1.40845e+113
1.83062e+113
2.05768e+113
1.36746e+113
5.15623e+112
1.35784e+112
1.76137e+112
3.62557e+112
7.12618e+112
1.03852e+113
1.2263e+113
1.72735e+113
2.4891e+113
3.22108e+113
3.54069e+113
2.24138e+113
6.6573e+112
-1.63841e+112
-1.01085e+113
-1.99547e+113
-3.31521e+113
-2.25506e+113
-1.48858e+113
-1.27633e+113
-6.06052e+112
1.22236e+111
1.68294e+109
-3.39346e+112
-4.18879e+112
-7.66921e+112
-9.54198e+112
-8.67207e+112
-8.79292e+112
-8.12557e+112
-6.78717e+112
-5.57111e+112
-5.08122e+112
-5.85445e+112
-8.45982e+112
-1.37967e+113
-2.33255e+113
-3.94458e+113
-6.62723e+113
-1.08255e+114
-1.88686e+114
-2.69918e+114
-1.2322e+115
2.03012e+115
2.97869e+116
1.07198e+117
2.15039e+117
2.65137e+117
4.94979e+112
1.46137e+113
2.60627e+113
3.63394e+113
4.27132e+113
4.6888e+113
4.99786e+113
5.10547e+113
4.35532e+113
2.50322e+113
-4.1756e+111
-2.14418e+113
-3.14164e+113
-3.02571e+113
-4.33126e+113
-7.03554e+113
-8.88973e+113
-8.64994e+113
-7.75369e+113
-7.30663e+113
-6.05169e+113
-3.97135e+113
-1.77001e+113
-1.26719e+113
-1.18062e+113
-2.92747e+112
7.17324e+112
1.39784e+113
1.77516e+113
2.09842e+113
1.33441e+113
5.4646e+112
1.77844e+112
1.9123e+112
4.11731e+112
7.98605e+112
1.1054e+113
1.37551e+113
1.91956e+113
2.6845e+113
3.37095e+113
3.56356e+113
2.09865e+113
5.95979e+112
-3.01933e+112
-1.21615e+113
-2.18649e+113
-3.43498e+113
-2.17197e+113
-1.49027e+113
-1.29087e+113
-5.9633e+112
4.07788e+111
-5.28609e+111
-4.10806e+112
-5.75348e+112
-9.79397e+112
-1.06946e+113
-9.23804e+112
-9.38473e+112
-8.53412e+112
-6.8899e+112
-5.39853e+112
-4.70764e+112
-5.35267e+112
-7.89036e+112
-1.32153e+113
-2.28167e+113
-3.90881e+113
-6.62235e+113
-1.08307e+114
-1.85631e+114
-3.14785e+114
-1.22083e+115
4.25781e+115
3.77011e+116
1.2108e+117
2.25264e+117
2.63297e+117
5.30705e+112
1.54289e+113
2.7334e+113
3.80526e+113
4.45045e+113
4.84408e+113
5.13965e+113
5.28803e+113
4.56741e+113
2.66508e+113
4.27752e+111
-2.16816e+113
-3.19397e+113
-3.16666e+113
-4.60356e+113
-7.3578e+113
-9.1766e+113
-8.86318e+113
-8.01275e+113
-7.55708e+113
-6.23862e+113
-4.19371e+113
-1.95654e+113
-1.40297e+113
-1.23058e+113
-3.5689e+112
6.29435e+112
1.36081e+113
1.76558e+113
2.08605e+113
1.29799e+113
5.82493e+112
2.15753e+112
2.15604e+112
4.64195e+112
8.88976e+112
1.1807e+113
1.51715e+113
2.10925e+113
2.86592e+113
3.51255e+113
3.5478e+113
1.9411e+113
5.28065e+112
-4.60554e+112
-1.41311e+113
-2.36485e+113
-3.56279e+113
-2.05788e+113
-1.50367e+113
-1.29647e+113
-5.23047e+112
7.10108e+111
2.1628e+111
-5.00013e+112
-7.27659e+112
-1.21817e+113
-1.16515e+113
-9.73212e+112
-1.00227e+113
-8.97942e+112
-6.98637e+112
-5.19021e+112
-4.28386e+112
-4.79404e+112
-7.25872e+112
-1.25634e+113
-2.22271e+113
-3.86395e+113
-6.60156e+113
-1.08706e+114
-1.77918e+114
-4.05513e+114
-1.02324e+115