/*--------------------------------*- C++ -*----------------------------------*\
| =========                 |                                                 |
| \\      /  F ield         | OpenFOAM: The Open Source CFD Toolbox           |
|  \\    /   O peration     | Version:  4.1                                   |
|   \\  /    A nd           | Web:      www.OpenFOAM.org                      |
|    \\/     M anipulation  |                                                 |
\*---------------------------------------------------------------------------*/
FoamFile
{
    version     2.0;
    format      ascii;
    class       surfaceScalarField;
    location    "17";
    object      phi;
}
// * * * * * * * * * * * * * * * * * * * * * * * * * * * * * * * * * * * * * //

dimensions      [0 3 -1 0 0 0 0];

internalField   nonuniform List<scalar> 
13220
(
1.05549e+57
-2.65135e+57
3.07306e+56
-8.22717e+56
9.95552e+56
-1.36786e+57
6.15193e+56
-3.61448e+56
4.22309e+56
-2.23427e+54
2.69848e+56
2.47633e+55
1.91345e+54
5.87118e+55
-3.21532e+57
8.17177e+55
-1.56543e+57
-4.77045e+57
-1.81432e+57
9.3249e+55
-1.33385e+57
-5.48141e+56
-1.31812e+57
-6.96423e+55
-1.03654e+57
-3.16847e+56
-6.92282e+55
-1.0095e+57
-6.98321e+55
6.40663e+56
-4.28915e+57
1.03129e+57
-2.37771e+57
1.66815e+57
-2.62043e+57
1.49114e+57
-5.35679e+56
1.74821e+57
-3.4747e+56
1.8612e+57
-2.95827e+56
2.02795e+57
-2.44254e+56
2.18058e+57
-2.12781e+56
-2.51665e+57
-2.14995e+56
-2.6085e+57
-3.1436e+56
-1.48907e+57
-2.16436e+57
-1.27316e+57
-4.29612e+56
8.07807e+56
-2.47421e+57
1.90285e+56
-4.44058e+56
1.16641e+56
9.97858e+56
-5.86951e+57
3.88743e+57
-5.80401e+57
4.03015e+57
-2.96761e+57
4.01184e+57
-7.55148e+56
4.06232e+57
-5.17631e+56
4.002e+57
-4.86836e+56
4.02655e+57
-4.49232e+56
3.91236e+57
-4.17453e+56
3.6967e+57
-4.08044e+56
3.41797e+57
-4.09203e+56
1.3279e+57
-4.62662e+56
-1.15741e+57
-4.91705e+56
-1.25477e+57
-4.81206e+57
-6.13646e+56
-1.57106e+57
-4.94983e+56
-2.11736e+57
-5.85662e+57
-3.90848e+56
-9.56621e+57
5.10484e+57
-9.0641e+57
5.13324e+57
-1.21832e+57
4.80363e+57
-3.14786e+56
4.21507e+57
-2.25478e+56
3.82894e+57
-2.08032e+56
3.31256e+57
-1.85811e+56
2.93191e+57
-1.6505e+56
2.52239e+57
-1.31089e+56
2.06054e+57
-1.02463e+56
1.83053e+57
-8.76269e+55
-2.54139e+57
-1.62929e+56
-2.6459e+57
-1.18121e+57
-3.14498e+57
-2.89405e+56
-6.14163e+57
2.45896e+57
-1.37297e+58
2.37815e+57
-9.55238e+57
3.86526e+57
-3.12743e+57
3.92327e+57
-3.33417e+56
3.26411e+57
2.51138e+56
2.81317e+57
3.16832e+56
2.20879e+57
3.43525e+56
1.81538e+57
3.74228e+56
1.15835e+57
4.51874e+56
7.79418e+56
5.2924e+56
-2.31271e+56
5.45475e+56
-1.16762e+57
6.45657e+56
-3.35195e+57
7.16857e+56
-6.42784e+57
2.33659e+57
-9.45283e+57
3.2159e+57
-1.58977e+58
-2.62175e+57
-3.81477e+57
-2.20168e+57
-4.03691e+57
1.55894e+57
-3.84346e+57
1.82724e+57
-1.81231e+56
1.93217e+57
4.85299e+56
1.49849e+57
7.56875e+56
1.28876e+57
9.34126e+56
9.15079e+56
1.12603e+57
4.51873e+56
1.33042e+57
4.21823e+56
1.45939e+57
4.68274e+56
1.59049e+57
3.07733e+57
1.71428e+57
-3.36481e+57
5.67145e+57
-1.33178e+58
4.12833e+55
-9.25877e+57
2.59375e+57
-5.38007e+57
1.28553e+57
-1.92063e+57
2.93985e+57
-4.44841e+57
5.18724e+57
-2.13466e+57
6.1979e+57
-1.63084e+56
6.11919e+57
1.07385e+57
5.85338e+57
1.46322e+57
5.44521e+57
1.58482e+57
5.40628e+57
1.67796e+57
4.58415e+57
1.73314e+57
4.09691e+57
1.76933e+57
3.62824e+57
1.81068e+57
2.94864e+56
2.17404e+57
-1.21653e+58
-1.53322e+56
-4.65687e+57
8.49187e+56
-4.04442e+57
1.14591e+57
-1.13553e+57
-1.37285e+57
2.31724e+56
-1.37832e+57
-6.69359e+56
-5.0602e+55
-9.36889e+54
4.62499e+56
1.07754e+57
6.87908e+56
2.0587e+57
5.31347e+56
2.47378e+57
-5.81317e+55
2.76058e+57
2.23411e+56
2.95028e+57
3.70527e+56
3.05288e+57
8.05115e+56
3.15787e+57
1.08731e+57
7.67211e+57
-1.4739e+58
1.06101e+58
-4.65883e+57
1.11868e+58
-1.51014e+57
1.23792e+58
-1.28978e+56
1.09407e+58
3.25936e+57
7.23628e+57
4.62356e+57
5.49832e+57
3.5374e+57
4.41255e+57
3.51802e+57
3.12771e+57
4.28443e+57
1.81208e+57
4.06963e+57
1.97725e+57
3.33288e+57
1.86205e+57
1.91088e+57
3.67904e+57
5.19999e+56
3.97185e+57
2.1748e+57
5.10559e+57
-1.00259e+58
4.28571e+57
-1.73852e+58
8.49967e+57
-2.52091e+58
1.14338e+58
-3.52986e+58
1.29597e+58
-4.26597e+58
1.32739e+58
-4.86803e+58
1.19021e+58
-5.25287e+58
9.00363e+57
-5.34775e+58
5.2622e+57
-4.96522e+58
1.74134e+57
-4.35668e+58
-8.06438e+56
-3.67332e+58
-2.62145e+57
-2.71648e+58
-4.83429e+57
-1.58898e+58
-7.32869e+57
-4.91132e+57
-4.89735e+57
2.30587e+56
-1.42896e+58
2.55766e+58
-2.8683e+58
2.77049e+58
-4.10171e+58
2.77459e+58
-5.09959e+58
2.52673e+58
-5.65372e+58
2.11399e+58
-5.88397e+58
1.58309e+58
-5.83233e+58
1.02273e+58
-5.70333e+58
5.35384e+57
-5.56997e+58
1.63015e+57
-5.44302e+58
-7.69711e+56
-5.6511e+58
1.49518e+56
-5.80981e+58
-1.41129e+57
-5.60644e+58
-7.50338e+57
-3.64087e+58
-2.24237e+58
-3.61733e+58
-1.54622e+58
4.71419e+58
-3.40646e+58
4.87462e+58
-4.97096e+58
4.70516e+58
-5.76206e+58
3.41852e+58
-5.48774e+58
2.09891e+58
-4.96066e+58
1.12184e+58
-4.13533e+58
3.85834e+57
-3.42293e+58
-1.24629e+57
-2.66411e+58
-4.39953e+57
-2.01567e+58
-6.68219e+57
-9.08828e+57
-9.25471e+57
-1.22021e+57
-9.7612e+57
8.72339e+56
-8.90106e+57
-7.48513e+56
-2.01228e+58
-3.67758e+58
-2.53868e+58
7.09774e+58
-1.43535e+58
3.39964e+58
2.51206e+58
5.83609e+57
7.6485e+58
-2.0037e+58
1.27562e+59
-3.08611e+58
1.72238e+59
-3.48921e+58
2.10659e+59
-3.47541e+58
2.40496e+59
-3.15798e+58
2.61215e+59
-2.53423e+58
2.71642e+59
-1.59224e+58
2.63914e+59
-2.91654e+57
2.46767e+59
1.37257e+58
2.09198e+59
3.36955e+58
1.32672e+59
6.23316e+58
9.55738e+58
1.51556e+59
-8.60511e+58
2.89551e+59
-1.09057e+59
3.79336e+59
-8.66706e+58
4.34761e+59
-7.93195e+58
4.7234e+59
-7.13069e+58
4.9753e+59
-6.37425e+58
5.12279e+59
-5.26069e+58
5.18543e+59
-4.16285e+58
5.15009e+59
-2.48027e+58
5.01631e+59
-7.87685e+57
4.79989e+59
1.6511e+58
4.35022e+59
4.74269e+58
3.62197e+59
9.4274e+58
2.20695e+59
1.89304e+59
3.16008e+59
-5.37358e+59
-7.48486e+59
-9.10869e+59
-9.99586e+59
-1.08687e+60
-1.12645e+60
-1.16582e+60
-1.16834e+60
-1.14981e+60
-1.1138e+60
-1.02766e+60
-9.30806e+59
-7.66606e+59
-5.41333e+59
-2.64067e+56
-2.86624e+60
2.86593e+60
-2.8663e+60
-2.86638e+60
-2.86644e+60
-1.48025e+60
-1.38632e+60
-1.48053e+60
-1.48078e+60
-1.48089e+60
-6.92297e+59
-7.89567e+59
-6.94615e+59
-6.95744e+59
3.55497e+59
-1.05129e+60
3.55072e+59
3.5491e+59
3.5455e+59
1.46773e+60
-1.1132e+60
1.46746e+60
1.4675e+60
2.59438e+60
-1.12714e+60
2.59438e+60
2.59408e+60
2.59412e+60
3.70597e+60
-1.11212e+60
3.70593e+60
3.70565e+60
3.70569e+60
4.73138e+60
-1.02593e+60
4.73131e+60
4.73108e+60
5.63433e+60
-9.0325e+59
5.63404e+60
5.63402e+60
5.63374e+60
6.42638e+60
-7.92647e+59
6.42608e+60
6.42611e+60
7.09641e+60
-6.70583e+59
7.0964e+60
7.09608e+60
7.09614e+60
7.66768e+60
-5.71861e+59
7.66774e+60
7.66737e+60
7.66754e+60
8.14405e+60
-4.76921e+59
8.14413e+60
8.14368e+60
8.52764e+60
-3.83767e+59
8.52714e+60
8.52727e+60
8.52677e+60
8.84518e+60
-3.18185e+59
8.84455e+60
8.84475e+60
8.84403e+60
9.10362e+60
-2.59377e+59
9.10292e+60
9.10321e+60
9.3006e+60
-1.98143e+59
9.30066e+60
9.29982e+60
9.3001e+60
9.46448e+60
-1.65308e+59
9.46435e+60
9.46337e+60
9.58579e+60
-1.22141e+59
9.5846e+60
9.5847e+60
9.58358e+60
9.69106e+60
-1.07047e+59
9.68969e+60
9.69002e+60
9.68849e+60
9.78396e+60
-9.46386e+58
9.78223e+60
9.78421e+60
9.87246e+60
-8.96044e+58
9.87474e+60
9.87416e+60
9.853e+60
9.77496e+60
9.71694e+60
9.55119e+60
1.19884e+59
9.52335e+60
9.51024e+60
9.50161e+60
9.49329e+60
9.48621e+60
9.48024e+60
9.47546e+60
9.46481e+60
9.31916e+60
1.33142e+59
9.29992e+60
9.28484e+60
9.27288e+60
9.26128e+60
9.25161e+60
9.24286e+60
9.23596e+60
9.22678e+60
9.04179e+60
1.72806e+59
9.02391e+60
9.00941e+60
8.99752e+60
8.98729e+60
8.978e+60
8.97007e+60
8.9628e+60
8.9572e+60
8.94959e+60
8.73098e+60
2.08646e+59
8.71656e+60
8.70552e+60
8.69671e+60
8.68987e+60
8.68345e+60
8.67835e+60
8.67422e+60
8.66881e+60
8.4157e+60
2.45415e+59
8.4043e+60
8.39575e+60
8.39015e+60
8.38569e+60
8.38315e+60
8.38104e+60
8.38056e+60
8.37862e+60
8.09469e+60
2.79481e+59
8.08634e+60
8.08074e+60
8.07798e+60
8.0772e+60
8.07865e+60
8.08075e+60
8.08462e+60
8.08652e+60
7.77699e+60
3.09607e+59
7.77336e+60
7.77357e+60
7.77619e+60
7.7806e+60
7.78677e+60
7.79754e+60
7.81127e+60
7.8268e+60
7.84086e+60
7.52778e+60
3.23737e+59
7.53445e+60
7.5469e+60
7.5642e+60
7.58447e+60
7.61079e+60
7.6525e+60
7.73521e+60
7.82133e+60
7.64013e+60
2.64218e+59
7.71323e+60
7.80787e+60
7.80721e+60
7.59283e+60
2.15526e+59
7.32797e+60
2.63159e+59
7.32809e+60
7.09586e+60
2.30463e+59
7.09578e+60
6.89609e+60
1.98011e+59
6.65618e+60
2.39659e+59
6.65477e+60
6.4509e+60
2.03023e+59
6.20363e+60
2.45892e+59
6.20304e+60
6.00003e+60
2.0187e+59
5.99944e+60
5.93714e+60
6.11547e+58
5.89211e+60
4.44617e+58
5.89127e+60
5.86251e+60
2.81428e+58
5.8618e+60
5.83427e+60
2.67058e+58
5.73413e+60
9.95383e+58
5.73363e+60
5.6943e+60
3.86838e+58
5.67872e+60
1.50622e+58
5.67829e+60
5.89633e+60
-2.18525e+59
5.89596e+60
6.42794e+60
-5.32506e+59
7.59797e+60
-1.17025e+60
7.5976e+60
9.30019e+60
-1.70268e+60
9.29986e+60
1.05245e+61
-1.22475e+60
1.14102e+61
-8.86063e+59
1.14103e+61
1.19024e+61
-4.9243e+59
1.21496e+61
-2.47046e+59
1.21494e+61
1.20427e+61
1.06856e+59
1.20425e+61
1.1512e+61
5.30751e+59
1.06917e+61
8.20055e+59
1.06919e+61
9.36765e+60
1.32396e+60
9.36794e+60
7.53812e+60
1.82962e+60
5.36389e+60
2.1745e+60
5.36384e+60
2.54149e+60
2.82277e+60
-5.68509e+59
3.11029e+60
-5.67372e+59
-4.38293e+60
3.81525e+60
-4.38247e+60
-9.17912e+60
4.79652e+60
-1.4824e+61
5.64532e+60
-1.48241e+61
-2.12499e+61
6.42621e+60
-2.12499e+61
-2.86127e+61
7.36314e+60
-3.62684e+61
7.65566e+60
-3.62682e+61
-4.48887e+61
8.62058e+60
-5.348e+61
8.59153e+60
-5.34799e+61
-6.2798e+61
9.31833e+60
-6.2798e+61
-7.29346e+61
1.01369e+61
-8.25643e+61
9.62977e+60
-8.25642e+61
-9.29759e+61
1.04118e+61
-9.29757e+61
-1.04287e+62
1.13113e+61
-1.14671e+62
1.03839e+61
-1.14671e+62
-1.26421e+62
1.17502e+61
-1.36925e+62
1.05045e+61
-1.36925e+62
-1.48587e+62
1.16619e+61
-1.48587e+62
1.43979e+61
-1.07944e+59
8.31709e+58
-1.0126e+59
9.88506e+58
-9.9426e+58
1.23748e+59
-1.05659e+59
-3.44695e+59
-9.59838e+58
-5.8727e+58
-7.93175e+58
1.63132e+59
-4.07317e+57
2.72904e+59
-7.32216e+58
-1.49079e+60
-1.2848e+59
-1.21902e+60
-5.45315e+58
-2.49644e+59
-9.48273e+58
-7.86007e+59
-9.23804e+58
-1.97917e+59
2.01986e+57
5.18414e+59
-5.51252e+58
6.36152e+59
-6.26073e+58
4.37413e+57
-1.56952e+57
9.02949e+59
-4.48533e+58
1.04445e+60
-3.08587e+58
8.18916e+59
-3.20741e+58
4.68358e+59
-2.23077e+58
4.02253e+59
-8.03982e+57
6.89594e+59
-3.55839e+57
6.5483e+59
-1.82892e+58
4.0079e+59
-3.70352e+56
4.53868e+58
2.07455e+58
1.49719e+59
6.44033e+56
-2.66522e+59
-4.01104e+58
-6.65645e+59
-1.63383e+58
7.51434e+58
-8.68502e+57
7.15747e+58
2.40403e+58
1.59987e+59
4.51186e+58
-2.61881e+59
2.30759e+58
-1.84923e+59
-1.00576e+58
-2.2002e+59
-2.48227e+58
-2.18009e+59
-2.64436e+58
-1.24693e+59
-2.60396e+58
-8.96997e+58
-2.03366e+58
-3.30492e+58
-2.08419e+58
9.27557e+58
-1.68303e+58
1.16755e+59
-4.44794e+57
2.30822e+59
9.73062e+57
6.268e+59
-2.64807e+56
7.12822e+59
-8.04379e+57
-2.3403e+59
8.88527e+57
-2.6553e+59
3.1026e+58
4.72497e+59
2.18997e+58
9.781e+59
4.75253e+58
-1.2961e+59
4.17516e+58
1.07339e+59
3.19987e+58
2.10462e+59
1.22873e+58
1.23997e+59
5.7716e+57
1.28729e+59
6.11959e+56
1.01824e+59
1.95593e+57
-2.64059e+58
9.4111e+57
1.86783e+59
1.2348e+58
2.11248e+59
1.29718e+58
2.75471e+59
8.23259e+57
2.2361e+59
3.41782e+57
2.31394e+59
2.13454e+57
3.01147e+59
1.7833e+57
3.71348e+59
1.54376e+57
4.21956e+59
1.54857e+57
4.61696e+59
1.81146e+57
5.01505e+59
2.32228e+57
5.49167e+59
3.07973e+57
6.12937e+59
4.10106e+57
6.99632e+59
5.39968e+57
8.17368e+59
6.95615e+57
9.73334e+59
8.66969e+57
1.17697e+60
1.00307e+58
1.43268e+60
9.60255e+57
1.74503e+60
2.50197e+57
2.08075e+60
-2.5869e+58
2.31687e+60
-1.33867e+59
1.79521e+60
-4.6054e+59
2.54541e+60
-1.43138e+60
9.2926e+60
-4.05254e+60
2.87249e+61
-9.24279e+60
7.02954e+61
1.36087e+62
-1.4258e+59
1.04342e+59
-1.45058e+59
1.01329e+59
-1.18837e+59
9.75269e+58
-1.48658e+59
-3.14875e+59
-1.27602e+59
-7.97826e+58
-9.28117e+58
1.28341e+59
2.41589e+58
1.55933e+59
-6.09586e+58
-1.40567e+60
-1.9459e+59
-1.08539e+60
-3.48543e+58
-4.0938e+59
-9.51619e+58
-7.257e+59
-9.4783e+58
-1.98296e+59
1.3351e+59
2.9012e+59
-1.1691e+59
8.86571e+59
-6.05897e+58
-5.1946e+58
1.18259e+59
7.24101e+59
-5.33341e+58
1.21604e+60
1.02074e+58
7.55373e+59
-5.78813e+58
5.36445e+59
-5.92992e+58
4.03671e+59
-4.97692e+58
6.80063e+59
-3.41051e+58
6.39165e+59
-1.41155e+58
3.808e+59
-1.78641e+58
4.9135e+58
1.63021e+58
1.15553e+59
7.77949e+57
-2.58001e+59
-4.54963e+58
-6.1237e+59
-1.80712e+58
4.77179e+58
4.25415e+57
4.92493e+58
4.2402e+58
1.21839e+59
4.92764e+58
-2.68755e+59
1.05162e+58
-1.46163e+59
-1.3959e+58
-1.95544e+59
-2.47888e+58
-2.07179e+59
-2.72946e+58
-1.22187e+59
-2.84559e+58
-8.85385e+58
-2.15395e+58
-3.99667e+58
-4.3027e+57
7.55203e+58
7.52387e+57
1.04924e+59
1.98458e+57
2.36356e+59
1.31599e+57
6.27461e+59
2.10091e+57
7.12029e+59
6.39576e+57
-2.38332e+59
1.81722e+58
-2.77313e+59
-2.27206e+58
5.13346e+59
8.64585e+57
9.46655e+59
3.86017e+58
-1.596e+59
3.38368e+58
1.11965e+59
1.36706e+58
2.30603e+59
-8.23049e+57
1.45719e+59
-6.24273e+57
1.26404e+59
9.79706e+56
9.42844e+58
-6.56436e+55
-2.58682e+58
1.74901e+58
1.68915e+59
3.14316e+58
1.9697e+59
3.41252e+58
2.7248e+59
2.63169e+58
2.31005e+59
1.51991e+58
2.42069e+59
7.93471e+57
3.08034e+59
3.78406e+57
3.75226e+59
1.69798e+57
4.23779e+59
1.22729e+57
4.6197e+59
1.86834e+57
5.00682e+59
3.21975e+57
5.47686e+59
4.97026e+57
6.11063e+59
7.06352e+57
6.97457e+59
9.47975e+57
8.14856e+59
1.23039e+58
9.70451e+59
1.53429e+58
1.17384e+60
1.80331e+58
1.42993e+60
1.81568e+58
1.74481e+60
8.87934e+57
2.08998e+60
-3.03054e+58
2.35595e+60
-1.42595e+59
1.90737e+60
-4.38386e+59
2.84111e+60
-1.37739e+60
1.02316e+61
-4.14852e+60
3.14961e+61
-9.43739e+60
7.55844e+61
1.38311e+62
-1.44698e+59
1.2555e+59
-1.4821e+59
1.04841e+59
-1.26321e+59
7.56379e+58
-1.51856e+59
-2.89339e+59
-1.32553e+59
-9.90854e+58
-9.74118e+58
9.31998e+58
8.5394e+57
4.99816e+58
-5.62105e+58
-1.34092e+60
-1.44117e+59
-9.97481e+59
-6.51892e+58
-4.88307e+59
-9.61584e+58
-6.94731e+59
-9.35445e+58
-2.0091e+59
4.60996e+58
1.50477e+59
-5.94672e+58
9.92138e+59
-5.2757e+58
-5.86559e+58
1.51484e+59
5.19861e+59
-1.51271e+58
1.38265e+60
1.23881e+58
7.27858e+59
-5.97883e+58
6.08621e+59
-6.35717e+58
4.07454e+59
-5.17508e+58
6.68242e+59
-4.02154e+58
6.27629e+59
-2.13545e+58
3.6194e+59
-2.5335e+58
5.31156e+58
1.13684e+58
7.88496e+58
1.9247e+57
-2.48557e+59
-5.37334e+58
-5.56709e+59
-2.03029e+58
1.42876e+58
6.61267e+57
2.2334e+58
4.72454e+58
8.12067e+58
4.62173e+58
-2.67726e+59
-4.40143e+57
-9.55437e+58
-1.42873e+58
-1.85658e+59
-2.62742e+58
-1.95194e+59
-2.90496e+58
-1.19412e+59
-2.85522e+58
-8.90348e+58
-1.8725e+58
-4.97821e+58
3.21445e+57
5.35882e+58
1.56909e+58
9.24532e+58
1.91042e+56
2.51856e+59
-1.1602e+57
6.2881e+59
5.94194e+56
7.10274e+59
6.94182e+57
-2.44665e+59
1.14287e+58
-2.81789e+59
-7.64166e+58
6.01247e+59
2.03571e+58
8.50001e+59
3.50967e+58
-1.74296e+59
2.72443e+58
1.20049e+59
1.18598e+58
2.45979e+59
-3.12256e+57
1.60774e+59
-6.77419e+57
1.30041e+59
-1.7208e+57
8.92591e+58
-2.46143e+57
-2.50589e+58
1.60848e+58
1.50443e+59
3.17948e+58
1.81336e+59
3.56485e+58
2.6871e+59
2.85431e+58
2.38218e+59
1.73523e+58
2.534e+59
9.52502e+57
3.15954e+59
4.87677e+57
3.79994e+59
2.4653e+57
4.26284e+59
1.84235e+57
4.62729e+59
2.50217e+57
5.00149e+59
4.03188e+57
5.46314e+59
6.09689e+57
6.09137e+59
8.62143e+57
6.95093e+59
1.15779e+58
8.12031e+59
1.50461e+58
9.67143e+59
1.88097e+58
1.17019e+60
2.22106e+58
1.42669e+60
2.26928e+58
1.74444e+60
1.29938e+58
2.09985e+60
-2.66391e+58
2.3957e+60
-1.32301e+59
2.01328e+60
-3.96564e+59
3.1056e+60
-1.40289e+60
1.1238e+61
-4.46841e+60
3.45617e+61
-9.69193e+60
8.0808e+61
1.39124e+62
-1.4708e+59
1.45114e+59
-1.50166e+59
1.07927e+59
-1.31942e+59
5.74135e+58
-1.53771e+59
-2.6751e+59
-1.35428e+59
-1.17428e+59
-9.9099e+58
5.68711e+58
-2.6732e+57
-4.64443e+58
-5.62882e+58
-1.2873e+60
-1.23867e+59
-9.29902e+59
-7.84758e+58
-5.33699e+59
-9.74307e+58
-6.75776e+59
-9.44678e+58
-2.03873e+59
-3.71828e+58
9.31916e+58
-2.92298e+58
9.84184e+59
-5.15386e+58
-3.63472e+58
6.15292e+58
4.06794e+59
2.57618e+58
1.41842e+60
-6.46878e+57
7.60088e+59
-6.60771e+58
6.68229e+59
-6.73813e+58
4.08758e+59
-5.38693e+58
6.5473e+59
-3.97411e+58
6.13501e+59
-2.60831e+58
3.48281e+59
-3.30224e+58
6.00548e+58
6.40716e+57
3.94198e+58
2.45813e+57
-2.44608e+59
-5.69365e+58
-4.97314e+59
-1.9362e+58
-2.32871e+58
1.40026e+58
-1.10303e+58
5.80347e+58
3.71753e+58
4.48925e+58
-2.54584e+59
-1.5666e+58
-3.49852e+58
-1.6881e+58
-1.84443e+59
-3.21191e+58
-1.79957e+59
-2.97724e+58
-1.21758e+59
-2.68404e+58
-9.19662e+58
-1.32451e+58
-6.3374e+58
1.49933e+58
2.53575e+58
2.77761e+58
7.96771e+58
-2.52891e+57
2.82158e+59
-4.08596e+57
6.30362e+59
5.95224e+55
7.06123e+59
9.24966e+57
-2.53859e+59
1.77234e+58
-2.90266e+59
-8.4102e+58
7.03018e+59
2.49572e+58
7.40896e+59
2.77722e+58
-1.7713e+59
1.69358e+58
1.30817e+59
5.48701e+57
2.57381e+59
-3.53571e+57
1.69756e+59
-6.70162e+57
1.33089e+59
-1.48337e+57
8.39617e+58
-2.18418e+57
-2.44672e+58
1.68365e+58
1.31402e+59
3.30328e+58
1.65134e+59
3.69754e+58
2.6479e+59
2.9735e+58
2.45484e+59
1.82271e+58
2.64953e+59
1.00774e+58
3.24143e+59
5.22802e+57
3.84932e+59
2.73433e+57
4.28862e+59
2.14571e+57
4.63461e+59
2.9464e+57
4.99506e+59
4.71127e+57
5.44751e+59
7.09954e+57
6.06946e+59
1.00342e+58
6.92382e+59
1.34955e+58
8.08762e+59
1.75688e+58
9.63284e+59
2.2037e+58
1.16589e+60
2.6205e+58
1.42272e+60
2.73946e+58
1.74341e+60
1.85101e+58
2.10894e+60
-1.81921e+58
2.43258e+60
-1.13465e+59
2.10882e+60
-3.56961e+59
3.34931e+60
-1.50219e+60
1.23834e+61
-4.93246e+60
3.7992e+61
-1.02181e+61
8.60937e+61
1.40656e+62
-1.49616e+59
1.62677e+59
-1.52542e+59
1.10853e+59
-1.3775e+59
4.26216e+58
-1.56483e+59
-2.48777e+59
-1.38348e+59
-1.35563e+59
-1.0017e+59
1.86928e+58
-1.20211e+58
-1.34593e+59
-6.0306e+58
-1.23902e+60
-1.14317e+59
-8.7589e+59
-8.66285e+58
-5.61387e+59
-9.91052e+58
-6.63299e+59
-9.55534e+58
-2.07424e+59
-6.38188e+58
6.14573e+58
-2.46057e+58
9.44971e+59
-5.53472e+58
-5.60536e+57
-1.5645e+58
3.67093e+59
2.79903e+58
1.37478e+60
-2.37307e+58
8.1181e+59
-6.27783e+58
7.07277e+59
-6.83901e+58
4.1437e+59
-5.83518e+58
6.44692e+59
-4.04542e+58
5.95604e+59
-3.18985e+58
3.39726e+59
-3.78985e+58
6.60549e+58
1.42517e+57
9.62532e+55
-3.48365e+57
-2.39699e+59
-5.21009e+58
-4.48695e+59
-1.7048e+58
-5.83396e+58
3.5882e+58
-6.39599e+58
9.08824e+58
-1.78245e+58
4.5487e+58
-2.09188e+59
-6.8036e+57
1.73058e+58
-1.74845e+58
-1.73762e+59
-4.08634e+58
-1.5658e+59
-3.02172e+58
-1.32405e+59
-2.78129e+58
-9.43685e+58
-1.24384e+58
-7.87354e+58
1.5369e+58
-2.43749e+57
2.58169e+58
6.92385e+58
-6.80985e+57
3.14787e+59
-6.95631e+57
6.30508e+59
8.63276e+56
6.98305e+59
1.3515e+58
-2.66497e+59
1.56406e+58
-2.92381e+59
-7.30923e+58
7.91832e+59
2.14031e+58
6.46509e+59
9.14231e+57
-1.64824e+59
6.35691e+56
1.39621e+59
-4.02031e+56
2.58426e+59
-5.49871e+57
1.74964e+59
-8.92475e+57
1.36588e+59
-2.19858e+57
7.73645e+58
-1.53089e+57
-2.49192e+58
1.85152e+58
1.1156e+59
3.51626e+58
1.48699e+59
3.8999e+58
2.61166e+59
3.12071e+58
2.53543e+59
1.90905e+58
2.77372e+59
1.05124e+58
3.32949e+59
5.44141e+57
3.90235e+59
2.87569e+57
4.31626e+59
2.35078e+57
4.64219e+59
3.32859e+57
4.98748e+59
5.3591e+57
5.42963e+59
8.08997e+57
6.04434e+59
1.14461e+58
6.89259e+59
1.5422e+58
8.04987e+59
2.01191e+58
9.58811e+59
2.53386e+58
1.16086e+60
3.04068e+58
1.41787e+60
3.27143e+58
1.74128e+60
2.56641e+58
2.11623e+60
-6.01118e+57
2.46444e+60
-8.91143e+58
2.19224e+60
-3.29033e+59
3.5895e+60
-1.69751e+60
1.3752e+61
-5.5455e+60
4.18401e+61
-1.07393e+61
9.12876e+61
1.40301e+62
-1.52643e+59
1.7806e+59
-1.55476e+59
1.13686e+59
-1.43385e+59
3.05303e+58
-1.59166e+59
-2.32996e+59
-1.40985e+59
-1.53745e+59
-1.01028e+59
-2.12641e+58
-1.98629e+58
-2.15758e+59
-6.54076e+58
-1.19347e+60
-1.09593e+59
-8.31706e+59
-9.244e+58
-5.7854e+59
-1.01485e+59
-6.54254e+59
-9.69701e+58
-2.11939e+59
-7.58702e+58
4.03574e+58
-2.54746e+58
8.94575e+59
-5.95464e+58
2.84663e+58
-4.88755e+58
3.56422e+59
2.38353e+58
1.30207e+60
-3.83365e+58
8.73981e+59
-5.51375e+58
7.24078e+59
-7.02015e+58
4.29434e+59
-6.42017e+58
6.38692e+59
-4.71799e+58
5.78582e+59
-3.88069e+58
3.31353e+59
-4.24774e+58
6.97253e+58
-7.65486e+57
-3.47263e+58
-1.10529e+58
-2.36301e+59
-4.84891e+58
-4.11259e+59
-1.24718e+58
-9.43568e+58
4.72156e+58
-1.23647e+59
9.4704e+58
-6.53121e+58
4.13436e+58
-1.55827e+59
5.19736e+56
5.813e+58
-1.53584e+58
-1.57883e+59
-4.54581e+58
-1.26481e+59
-3.28602e+58
-1.45003e+59
-3.26246e+58
-9.46031e+58
-1.50336e+58
-9.63212e+58
6.73635e+57
-2.41956e+58
1.1998e+58
6.39818e+58
-1.10267e+58
3.3781e+59
-9.27833e+57
6.28756e+59
1.56926e+57
6.87454e+59
1.59359e+58
-2.80866e+59
8.83779e+57
-2.85286e+59
-5.49468e+58
8.55569e+59
1.63955e+58
5.75135e+59
-4.3953e+58
-1.04487e+59
-4.09914e+58
1.36723e+59
-6.50264e+57
2.23852e+59
-6.95214e+57
1.75405e+59
-1.1569e+58
1.41165e+59
-3.632e+57
6.94311e+58
-7.76879e+56
-2.77459e+58
2.05627e+58
9.03283e+58
3.78777e+58
1.31524e+59
4.15447e+58
2.57649e+59
3.29572e+58
2.62317e+59
2.00338e+58
2.90509e+59
1.09206e+58
3.42242e+59
5.59671e+57
3.95765e+59
2.9574e+57
4.34461e+59
2.50864e+57
4.64919e+59
3.68322e+57
4.97838e+59
5.99896e+57
5.40953e+59
9.08943e+57
6.01641e+59
1.28832e+58
6.85782e+59
1.73939e+58
8.00757e+59
2.27469e+58
9.53755e+59
2.8781e+58
1.15507e+60
3.48954e+58
1.41204e+60
3.87134e+58
1.7377e+60
3.42831e+58
2.12095e+60
8.78628e+57
2.4902e+60
-6.02461e+58
2.26164e+60
-3.23795e+59
3.85332e+60
-1.99089e+60
1.54192e+61
-6.22986e+60
4.60791e+61
-1.12921e+61
9.635e+61
1.4032e+62
-1.56096e+59
1.91272e+59
-1.58827e+59
1.16416e+59
-1.48841e+59
2.05452e+58
-1.61692e+59
-2.20146e+59
-1.43264e+59
-1.72172e+59
-1.01834e+59
-6.2694e+58
-2.68158e+58
-2.90776e+59
-7.10804e+58
-1.14921e+60
-1.07591e+59
-7.95195e+59
-9.69395e+58
-5.89191e+59
-1.04536e+59
-6.46658e+59
-9.88756e+58
-2.17599e+59
-8.29855e+58
2.44675e+58
-2.90685e+58
8.40659e+59
-6.47881e+58
6.41862e+58
-6.79653e+58
3.596e+59
1.50693e+58
1.21904e+60
-5.06493e+58
9.39701e+59
-5.10873e+58
7.24516e+59
-7.37797e+58
4.52126e+59
-7.0685e+58
6.35597e+59
-5.53886e+58
5.63285e+59
-4.35831e+58
3.19548e+59
-4.66782e+58
7.28205e+58
-1.76666e+58
-6.37376e+58
-1.7207e+58
-2.36761e+59
-4.5964e+58
-3.825e+59
-5.2866e+57
-1.35034e+59
3.75442e+58
-1.66477e+59
6.39345e+58
-9.17022e+58
3.44547e+58
-1.26347e+59
6.37249e+57
8.62127e+58
-1.5639e+58
-1.35872e+59
-4.85597e+58
-9.35611e+58
-3.78736e+58
-1.5569e+59
-3.83727e+58
-9.41022e+58
-1.74358e+58
-1.17247e+59
9.68463e+56
-4.25854e+58
4.3148e+57
6.06416e+58
-1.43896e+58
3.56517e+59
-1.10099e+58
6.25377e+59
2.00811e+57
6.74438e+59
1.7364e+58
-2.9621e+59
3.82741e+57
-2.71738e+59
-3.82063e+58
8.97685e+59
1.41121e+58
5.2291e+59
-8.99682e+58
-3.55292e+56
-7.07295e+58
1.17816e+59
-1.15379e+58
1.64697e+59
-8.95901e+57
1.72937e+59
-1.4191e+58
1.46487e+59
-5.31283e+57
6.07061e+58
3.13119e+56
-3.31338e+58
2.31581e+58
6.77302e+58
4.11916e+58
1.13741e+59
4.45104e+58
2.5457e+59
3.48295e+58
2.72283e+59
2.09352e+58
3.04711e+59
1.12307e+58
3.52177e+59
5.65228e+57
4.0157e+59
2.95653e+57
4.37347e+59
2.60941e+57
4.65484e+59
4.00775e+57
4.96643e+59
6.63174e+57
5.38549e+59
1.00998e+58
5.98368e+59
1.4348e+58
6.81742e+59
1.94143e+58
7.9587e+59
2.54568e+58
9.47915e+59
3.23697e+58
1.14832e+60
3.96685e+58
1.40494e+60
4.53308e+58
1.7322e+60
4.41514e+58
2.12234e+60
2.47941e+58
2.50973e+60
-2.65716e+58
2.31327e+60
-3.52656e+59
4.17961e+60
-2.38257e+60
1.74492e+61
-6.97833e+60
5.0675e+61
-1.18342e+61
1.01206e+62
1.38898e+62
-1.5992e+59
2.02405e+59
-1.62442e+59
1.18939e+59
-1.54033e+59
1.21363e+58
-1.63974e+59
-2.10206e+59
-1.45197e+59
-1.90949e+59
-1.02739e+59
-1.05153e+59
-3.3217e+58
-3.60298e+59
-7.70142e+58
-1.10541e+60
-1.07384e+59
-7.64825e+59
-1.00864e+59
-5.95712e+59
-1.08223e+59
-6.39298e+59
-1.01174e+59
-2.24649e+59
-8.82788e+58
1.15727e+58
-3.43659e+58
7.86746e+59
-7.03976e+58
1.00218e+59
-7.99757e+58
3.69178e+59
3.49668e+57
1.13556e+60
-6.01524e+58
1.00335e+60
-5.14136e+58
7.15777e+59
-7.85671e+58
4.7928e+59
-7.69325e+58
6.33963e+59
-6.10865e+58
5.47439e+59
-4.7956e+58
3.06417e+59
-5.09773e+58
7.58417e+58
-2.46988e+58
-9.0016e+58
-2.0421e+58
-2.41039e+59
-4.35735e+58
-3.59347e+59
9.60315e+57
-1.8821e+59
4.55258e+58
-2.02399e+59
5.09326e+58
-9.71086e+58
2.71708e+58
-1.02585e+59
1.06469e+58
1.02737e+59
-2.00516e+58
-1.05173e+59
-5.07062e+58
-6.29065e+58
-4.56792e+58
-1.60716e+59
-4.4218e+58
-9.55624e+58
-2.2101e+58
-1.39359e+59
-8.3511e+57
-5.63251e+58
-1.18512e+57
5.34797e+58
-1.79247e+58
3.73256e+59
-1.27682e+58
6.20218e+59
2.52618e+57
6.59142e+59
1.8463e+58
-3.12148e+59
1.20772e+57
-2.54486e+59
-2.51884e+58
9.24046e+59
1.61716e+58
4.81527e+59
-4.68264e+58
6.26202e+58
-3.38281e+58
1.04828e+59
-1.41291e+58
1.44912e+59
-1.15509e+58
1.7036e+59
-1.70367e+58
1.51964e+59
-7.39934e+57
5.11024e+58
1.83542e+57
-4.22895e+58
2.65022e+58
4.324e+58
4.52725e+58
9.51924e+58
4.79647e+58
2.52088e+59
3.68584e+58
2.8363e+59
2.17962e+58
3.20037e+59
1.1436e+58
3.6276e+59
5.59837e+57
4.07644e+59
2.86199e+57
4.40308e+59
2.64369e+57
4.65978e+59
4.29588e+57
4.95282e+59
7.2535e+57
5.3592e+59
1.11186e+58
5.94822e+59
1.58385e+58
6.77357e+59
2.14814e+58
7.90523e+59
2.82458e+58
9.41461e+59
3.60983e+58
1.14073e+60
4.47034e+58
1.39662e+60
5.24704e+58
1.72468e+60
5.50886e+58
2.12002e+60
4.02764e+58
2.52481e+60
1.2273e+58
2.34164e+60
-4.28379e+59
4.62049e+60
-2.87338e+60
1.98943e+61
-7.76989e+60
5.55716e+61
-1.22218e+61
1.05658e+62
1.36306e+62
-1.64073e+59
2.11589e+59
-1.66253e+59
1.21118e+59
-1.58958e+59
4.84111e+57
-1.66048e+59
-2.03115e+59
-1.46877e+59
-2.1012e+59
-1.03892e+59
-1.48137e+59
-3.94439e+58
-4.24746e+59
-8.31758e+58
-1.06168e+60
-1.08824e+59
-7.39176e+59
-1.05092e+59
-5.99444e+59
-1.12632e+59
-6.31758e+59
-1.03843e+59
-2.33438e+59
-9.28935e+58
6.2344e+56
-4.00407e+58
7.33893e+59
-7.4632e+58
1.34809e+59
-8.66046e+58
3.81151e+59
-1.02317e+58
1.05919e+60
-6.98911e+58
1.06301e+60
-5.54839e+58
7.0137e+59
-8.32919e+58
5.07088e+59
-8.13236e+58
6.31995e+59
-6.40339e+58
5.3015e+59
-5.1883e+58
2.94267e+59
-5.48645e+58
7.88234e+58
-3.20389e+58
-1.12841e+59
-2.73202e+58
-2.45757e+59
-4.30449e+58
-3.43621e+59
3.07067e+58
-2.61961e+59
5.92816e+58
-2.30973e+59
4.07739e+58
-7.86009e+58
1.85236e+58
-8.03342e+58
1.01853e+58
1.11076e+59
-2.77652e+58
-6.72223e+58
-4.95203e+58
-4.11522e+58
-5.2719e+58
-1.57518e+59
-4.85173e+58
-9.97624e+58
-2.79708e+58
-1.59896e+59
-1.74257e+58
-6.68605e+58
-6.57347e+57
4.26327e+58
-2.15215e+58
3.88207e+59
-1.41815e+58
6.12879e+59
3.28673e+57
6.41678e+59
1.93889e+58
-3.28239e+59
-5.47252e+54
-2.35081e+59
-1.51503e+58
9.39271e+59
1.92698e+58
4.47187e+59
-2.22138e+58
1.0415e+59
-1.67586e+58
9.95737e+58
-1.58724e+58
1.44083e+59
-1.4492e+58
1.69085e+59
-2.03156e+58
1.57879e+59
-9.81205e+57
4.07579e+58
4.17505e+57
-5.60379e+58
3.08045e+58
1.68852e+58
5.0274e+58
7.59892e+58
5.19195e+58
2.50691e+59
3.90346e+58
2.96787e+59
2.26003e+58
3.36753e+59
1.15303e+58
3.74036e+59
5.43276e+57
4.13941e+59
2.67085e+57
4.43234e+59
2.60929e+57
4.66227e+59
4.54596e+57
4.93517e+59
7.86261e+57
5.3279e+59
1.21434e+58
5.90701e+59
1.73511e+58
6.72322e+59
2.35904e+58
7.84428e+59
3.11072e+58
9.34113e+59
3.99542e+58
1.13202e+60
4.99689e+58
1.38678e+60
6.00292e+58
1.71476e+60
6.68881e+58
2.11335e+60
5.56858e+58
2.53615e+60
5.43714e+58
2.34316e+60
-5.658e+59
5.24081e+60
-3.4528e+60
2.27813e+61
-8.55752e+60
6.06763e+61
-1.25843e+61
1.09685e+62
1.33858e+62
-1.68517e+59
2.18951e+59
-1.70212e+59
1.22813e+59
-1.63646e+59
-1.7247e+57
-1.68003e+59
-1.98758e+59
-1.48432e+59
-2.29691e+59
-1.05461e+59
-1.91109e+59
-4.58943e+58
-4.84313e+59
-8.96451e+58
-1.01793e+60
-1.11561e+59
-7.17261e+59
-1.0941e+59
-6.01595e+59
-1.18028e+59
-6.2314e+59
-1.07268e+59
-2.44198e+59
-9.77597e+58
-8.88459e+57
-4.59603e+58
6.82094e+59
-7.84314e+58
1.6728e+59
-9.05477e+58
3.93268e+59
-2.45663e+58
9.93209e+59
-7.91089e+58
1.11755e+60
-6.13247e+58
6.83586e+59
-8.83815e+58
5.34145e+59
-8.80226e+58
6.31636e+59
-8.49274e+58
5.27055e+59
-7.08621e+58
2.80201e+59
-5.8167e+58
6.61283e+58
-4.4087e+58
-1.26921e+59
-4.16067e+58
-2.48237e+59
-4.49168e+58
-3.40311e+59
1.81448e+58
-3.25022e+59
3.9175e+58
-2.52002e+59
2.99568e+58
-6.93824e+58
8.11286e+57
-5.849e+58
4.33201e+57
1.14859e+59
-3.69292e+58
-2.596e+58
-5.0031e+58
-2.80503e+58
-5.69513e+58
-1.50598e+59
-5.15129e+58
-1.052e+59
-3.38405e+58
-1.77564e+59
-2.22378e+58
-7.84556e+58
-1.12306e+58
3.16301e+58
-2.37133e+58
4.00688e+59
-1.38079e+58
6.02972e+59
4.27883e+57
6.23592e+59
2.00931e+58
-3.44054e+59
-7.06951e+56
-2.14284e+59
-6.91088e+57
9.45448e+59
2.22944e+58
4.17961e+59
-1.07951e+58
1.3721e+59
-1.11643e+58
9.99475e+58
-1.76083e+58
1.50458e+59
-1.75047e+58
1.68987e+59
-2.3883e+58
1.64263e+59
-1.22335e+58
2.9156e+58
7.47253e+57
-7.5635e+58
3.59046e+58
-1.13168e+58
5.64435e+58
5.57428e+58
5.64824e+58
2.50907e+59
4.14057e+58
3.1213e+59
2.33556e+58
3.55085e+59
1.15092e+58
3.86122e+59
5.14824e+57
4.2055e+59
2.3753e+57
4.46243e+59
2.49938e+57
4.6639e+59
4.7534e+57
4.91568e+59
8.456e+57
5.29428e+59
1.31717e+58
5.86315e+59
1.88833e+58
6.66954e+59
2.57378e+58
7.77876e+59
3.40347e+58
9.26132e+59
4.39236e+58
1.1224e+60
5.54301e+58
1.37557e+60
6.79149e+58
1.70253e+60
7.93199e+58
2.10225e+60
7.20544e+58
2.54369e+60
9.29923e+58
2.32255e+60
-7.77394e+59
6.11136e+60
-4.11036e+60
2.61144e+61
-9.33902e+60
6.59051e+61
-1.28786e+61
1.13224e+62
1.30298e+62
-1.73221e+59
2.24607e+59
-1.74292e+59
1.23884e+59
-1.68145e+59
-7.87168e+57
-1.69958e+59
-1.96946e+59
-1.50029e+59
-2.49619e+59
-1.0762e+59
-2.33518e+59
-5.29204e+58
-5.39012e+59
-9.65127e+58
-9.74337e+59
-1.15621e+59
-6.98152e+59
-1.14896e+59
-6.02321e+59
-1.25201e+59
-6.12835e+59
-1.12188e+59
-2.57211e+59
-1.03701e+59
-1.73707e+58
-5.24316e+58
6.30825e+59
-8.37809e+58
1.9863e+59
-9.50819e+58
4.04569e+59
-3.9578e+58
9.37705e+59
-8.51e+58
1.16307e+60
-6.94303e+58
6.67917e+59
-1.02535e+59
5.6725e+59
-1.06657e+59
6.35759e+59
-1.08403e+59
5.288e+59
-9.79352e+58
2.69734e+59
-6.82854e+58
3.64786e+58
-5.65475e+58
-1.38659e+59
-5.33238e+58
-2.5146e+59
-4.43111e+58
-3.49322e+59
2.32852e+57
-3.71661e+59
1.21371e+58
-2.61811e+59
1.44254e+58