/*--------------------------------*- C++ -*----------------------------------*\
| =========                 |                                                 |
| \\      /  F ield         | OpenFOAM: The Open Source CFD Toolbox           |
|  \\    /   O peration     | Version:  4.1                                   |
|   \\  /    A nd           | Web:      www.OpenFOAM.org                      |
|    \\/     M anipulation  |                                                 |
\*---------------------------------------------------------------------------*/
FoamFile
{
    version     2.0;
    format      ascii;
    class       volScalarField;
    location    "10";
    object      p;
}
// * * * * * * * * * * * * * * * * * * * * * * * * * * * * * * * * * * * * * //

dimensions      [0 2 -2 0 0 0 0];

internalField   nonuniform List<scalar> 
6785
(
591.862
513.613
466.933
413.863
367.464
322.818
281.27
241.972
204.803
169.553
135.531
102.341
73.4551
43.6222
2.9743
-16.1829
-33.4025
-23.2468
-29.9751
-29.0793
-31.2494
-31.7095
-32.0982
-31.5989
-30.2367
-27.7563
-24.5895
-20.2769
-14.0047
-10.1669
13.8317
10.6294
20.2967
16.4597
20.9928
20.6274
22.2524
22.7186
23.4467
24.0007
24.7152
25.3891
25.7887
26.1006
27.7074
45.1801
42.0885
44.8877
39.7647
41.1241
38.044
37.5244
35.7547
34.7102
33.5512
32.6196
31.7832
31.1057
29.9934
28.3879
6.41367
1.90985
2.72856
-1.722
-1.24226
-4.59535
-5.2557
-7.5362
-8.84622
-10.4757
-11.5261
-12.1977
-13.0471
-14.3839
-14.7403
-20.1233
-23.2052
-21.5148
-24.5204
-23.107
-25.5136
-25.1847
-26.6189
-27.0569
-27.7367
-27.7231
-27.3346
-26.677
-26.2403
-24.3096
-6.72006
-6.9593
-4.17393
-5.37215
-2.61459
-3.16975
-1.4206
-1.05463
-0.0362744
0.685321
1.62642
2.53426
4.01255
5.42658
8.37213
18.4025
19.3826
21.7507
21.4355
24.0321
24.2588
26.1485
27.1428
28.603
29.9192
31.3689
32.7176
34.2764
35.4333
37.0521
34.448
35.5522
37.2587
37.1059
39.0534
39.2405
40.589
41.2939
42.2752
43.1518
44.11
45.0078
46.0884
46.8618
48.0286
49.0487
50.2103
51.5445
51.4933
53.0003
53.1008
54.137
54.6434
55.4299
56.2224
57.0886
57.9342
58.898
59.528
60.595
62.7289
64.0518
65.099
65.5765
66.9889
67.4953
68.5276
68.8125
68.9143
68.36
67.4507
66.7982
66.6565
67.0359
67.2166
73.8264
73.1571
73.3994
72.3533
72.0288
70.5444
69.3004
67.2565
65.0861
62.6434
60.4516
58.753
57.6571
57.6136
56.1079
58.5039
54.3519
52.5967
49.5986
47.9834
45.6604
44.0555
42.1277
40.3692
38.3417
36.2128
34.18
33.1002
32.4192
28.8491
24.317
20.6803
17.3869
12.7047
8.39693
3.65401
-0.574864
-4.70295
-8.23617
-11.2007
-13.234
-14.1877
-14.3409
-14.78
-15.5161
31.178
28.3443
21.2651
13.5675
5.2997
-2.60379
-7.23106
-9.23605
-9.95156
-8.56846
-6.3995
-3.89748
-1.35057
0.390066
1.54698
30.9241
30.921
31.0608
30.8893
30.8957
30.9265
30.875
30.8129
30.7985
30.7831
30.7599
30.6458
30.6578
30.6269
30.4909
30.4549
30.4713
30.4667
30.2437
30.3158
30.3056
30.084
30.0332
30.1275
30.1153
29.8562
29.8026
29.9022
29.9586
29.6072
29.7391
29.8166
29.5252
29.4547
29.5665
29.6673
29.3275
29.452
29.5345
29.3038
29.2423
29.3887
29.3986
29.2182
29.1895
29.3553
29.2891
29.075
29.374
29.1883
29.0111
29.0122
29.2203
29.2396
29.1209
29.1046
29.2189
29.4917
29.4199
29.3931
29.8444
29.8165
29.7437
29.7017
29.9271
29.946
30.3049
30.287
29.5666
30.1912
30.8496
27.5623
25.4677
27.4227
29.5796
15.1975
21.144
25.3791
-4.58316
2.51443
5.73825
4.16055
7.2336
4.35085
1.70297
6.21753
6.49917
7.63232
8.16524
9.28524
12.0477
15.5768
15.6044
10.2651
12.4496
16.1865
20.0123
21.0614
23.1143
24.947
27.1255
30.8054
27.8776
31.9793
33.7187
37.0119
41.5973
44.6573
46.4165
49.0061
48.2666
59.2601
53.3567
56.3637
57.5378
58.8514
61.4715
65.3625
67.4018
62.6076
71.5922
68.6367
72.5728
73.4487
72.6634
71.6023
70.5075
73.019
66.861
78.8951
74.1535
69.3145
68.5815
67.2222
63.533
60.9222
58.4599
47.9891
59.231
60.5629
53.8415
50.5599
45.6336
40.0838
34.9164
31.922
28.0324
20.8564
24.4022
22.7975
17.6516
17.0203
15.4648
13.4392
7.39575
5.81408
7.48941
0.604794
10.1902
6.97483
3.48578
11.2669
3.65048
6.79032
4.86675
6.92932
10.1866
4.28519
7.3402
9.53264
5.25071
6.80599
5.31831
6.67587
9.15386
4.82855
6.34713
4.75757
6.20856
8.58983
3.5567
6.01131
7.9879
3.94644
5.25982
3.87839
4.97831
7.70785
3.22846
4.64482
3.15609
4.45961
7.43246
1.75709
4.44863
6.98621
2.26963
3.79687
2.29404
3.57125
6.92231
1.67103
3.40105
1.73747
3.29517
6.67011
0.377642
3.46946
6.1468
1.19614
2.91794
1.37023
2.80386
5.96763
0.96441
2.74882
1.17812
2.72643
5.48468
0.23735
2.88554
4.81618
1.02894
2.40562
1.2245
2.32296
4.28902
0.920675
2.12661
1.05343
2.02958
3.38357
0.323671
1.77202
2.44695
0.370533
0.999403
0.181212
0.60603
1.81984
0.000292483
0.000530786
0.000890481
0.00116748
0.00149566
0.00180568
0.00213991
0.00247581
0.00282738
0.00318752
0.00356122
0.00394655
0.00434568
0.00475851
0.00518639
0.00562996
0.0060904
0.00656871
0.00706606
0.00758358
0.00812239
0.00868346
0.0092675
0.0098748
0.0105049
0.0111566
0.011827
0.0125116
0.0132037
0.0138942
0.0145708
0.0152192
0.0158228
0.0163653
0.0168318
0.0172124
0.017505
0.017717
0.0178663
0.0179798
0.0180892
0.0182259
0.0184142
0.0186698
0.0190032
0.0194328
0.0199972
0.0207463
0.0216947
0.0227568
0.023708
0.0242145
0.023964
0.0226069
0.0198178
0.0153172
0.00878435
-1.37875e-05
-0.0113899
-0.0252218
-0.0405267
-0.0582145
-0.0697449
-0.0690831
-0.227348
-0.353469
-0.458521
-0.566829
-0.641157
-0.663956
-0.611725
-0.549138
-0.39542
-0.34473
-0.137136
-0.214466
-0.0164506
0.0033284
-0.70091
0.000850185
0.00153775
0.00256448
0.00337683
0.00431522
0.00520796
0.00615999
0.00711696
0.0081131
0.00913183
0.0101853
0.0112694
0.0123895
0.0135458
0.0147416
0.0159789
0.0172607
0.0185896
0.0199689
0.0214013
0.0228898
0.0244366
0.0260436
0.027711
0.0294374
0.0312182
0.0330454
0.0349057
0.0367797
0.0386406
0.0404543
0.0421795
0.0437703
0.0451808
0.046371
0.0473158
0.0480124
0.048487
0.048796
0.0490218
0.0492614
0.0496095
0.0501415
0.0509065
0.0519414
0.0533078
0.055131
0.0575777
0.0607228
0.0643646
0.0679173
0.0705053
0.0713496
0.069578
0.0643915
0.0550924
0.0407765
0.0206254
-0.00672466
-0.0418167
-0.0835662
-0.136859
-0.177982
-0.201481
-0.452554
-0.687279
-0.890025
-1.09539
-1.24127
-1.28655
-1.2116
-1.09393
-0.846413
-0.683044
-0.375977
-0.28389
-0.0102814
0.148248
0.119852
0.00132737
0.00248216
0.00422637
0.00559677
0.00718388
0.00869084
0.0102991
0.011915
0.0135977
0.0153186
0.0170988
0.018931
0.0208245
0.0227796
0.0248022
0.0268954
0.0290646
0.0313143
0.0336498
0.0360762
0.0385984
0.0412205
0.0439456
0.0467744
0.0497045
0.0527289
0.0558339
0.0589974
0.0621871
0.0653582
0.068453
0.0714022
0.0741282
0.0765527
0.0786079
0.0802499
0.0814725
0.082318
0.0828794
0.0832936
0.0837222
0.084323
0.0852209
0.0864958
0.088206
0.0904508
0.0934373
0.0974437
0.102592
0.10853
0.114249
0.118239
0.119148
0.115449
0.105743
0.0887886
0.063017
0.0270138
-0.021492
-0.0832512
-0.156462
-0.248343
-0.316871
-0.375124
-0.614896
-0.88282
-1.12371
-1.37111
-1.54699
-1.59701
-1.50427
-1.35697
-1.05795
-0.844173
-0.480216
-0.323887
0.0150656
0.164459
0.471469
0.00178726
0.00340597
0.00584272
0.00776715
0.00998716
0.0120974
0.0143456
0.0166047
0.0189553
0.0213589
0.0238441
0.0264015
0.0290437
0.0317713
0.0345925
0.0375117
0.0405363
0.0436727
0.0469283
0.0503101
0.053825
0.0574787
0.0612755
0.0652164
0.0692983
0.0735111
0.077836
0.0822425
0.0866851
0.0911016
0.0954117
0.0995182
0.103313
0.106686
0.109543
0.111821
0.113513
0.114677
0.115444
0.116007
0.116593
0.117424
0.118676
0.120458
0.122851
0.125991
0.130172
0.135798
0.143054
0.151463
0.159609
0.16538
0.166896
0.16202
0.148805
0.125501
0.0898762
0.0398449
-0.0279724
-0.114881
-0.219324
-0.351283
-0.451786
-0.559372
-0.816452
-1.13636
-1.42532
-1.72491
-1.94
-1.99679
-1.87811
-1.69181
-1.31938
-1.04934
-0.599197
-0.398344
0.0338307
0.190731
0.555643
0.00220519
0.00429721
0.00742919
0.0099153
0.0127747
0.0154953
0.0183904
0.0212996
0.0243252
0.0274187
0.0306164
0.0339067
0.0373056
0.040814
0.0444425
0.0481969
0.0520866
0.0561199
0.0603063
0.0646549
0.0691746
0.0738729
0.0787554
0.0838235
0.0890733
0.0944922
0.100056
0.105726
0.111445
0.117131
0.122683
0.127974
0.132866
0.137216
0.140901
0.143841
0.146023
0.147522
0.148507
0.149227
0.149975
0.151039
0.152645
0.154931
0.157995
0.162008
0.167354
0.174567
0.183915
0.194795
0.205367
0.212886
0.21493
0.208715
0.191727
0.161672
0.115627
0.0507809
-0.0374194
-0.15086
-0.288651
-0.462832
-0.598766
-0.768748
-1.0433
-1.42408
-1.76204
-2.11569
-2.37344
-2.43702
-2.29131
-2.06168
-1.61142
-1.27447
-0.736299
-0.470742
0.0506914
0.219835
0.826528
0.00259874
0.00516887
0.00898306
0.0120327
0.0155268
0.0188567
0.0223945
0.0259507
0.0296466
0.0334252
0.0373299
0.0413469
0.0454959
0.049778
0.054206
0.0587872
0.0635331
0.0684537
0.0735608
0.0788654
0.0843785
0.0901093
0.0960646
0.102247
0.10865
0.115261
0.12205
0.128969
0.135949
0.142891
0.149671
0.156135
0.162111
0.167426
0.171927
0.175513
0.17817
0.179987
0.181173
0.182032
0.182927
0.184213
0.186165
0.188951
0.19268
0.197557
0.204058
0.212867
0.224353
0.237802
0.250941
0.260386
0.263179
0.255883
0.235437
0.199003
0.14295
0.0636849
-0.0446528
-0.184712
-0.357008
-0.575209
-0.751709
-0.99853
-1.28398
-1.7265
-2.10443
-2.50432
-2.7992
-2.86483
-2.69045
-2.41642
-1.89006
-1.48651
-0.865235
-0.534233
0.0700494
0.260555
0.98516
0.00296483
0.00602148
0.0105091
0.0141264
0.0182544
0.0221956
0.0263765
0.0305805
0.0349469
0.0394108
0.0440222
0.0487659
0.0536643
0.0587195
0.0639463
0.0693534
0.0749544
0.0807612
0.0867877
0.0930469
0.099552
0.106314
0.113341
0.120636
0.128193
0.135995
0.144009
0.152179
0.160423
0.168626
0.176639
0.184282
0.19135
0.197637
0.202959
0.207197
0.210328
0.21246
0.213838
0.214827
0.215859
0.217358
0.219652
0.222932
0.227315
0.233036
0.240666
0.251058
0.264707
0.280801
0.296618
0.308105
0.311772
0.303502
0.279697
0.236955
0.170932
0.0771895
-0.0515456
-0.218829
-0.427221
-0.691338
-0.914116
-1.25098
-1.54053
-2.05347
-2.46888
-2.91107
-3.23913
-3.30194
-3.09533
-2.77354
-2.16805
-1.6964
-0.990933
-0.595983
0.0890973
0.290996
1.13147
0.00330924
0.00685989
0.0120085
0.0161962
0.0209546
0.0255075
0.0303293
0.03518
0.0402145
0.0453614
0.0506767
0.0561439
0.0617885
0.067613
0.0736344
0.079863
0.0863143
0.0930022
0.0999426
0.107151
0.114642
0.122428
0.13052
0.138921
0.147626
0.156613
0.165847
0.175263
0.184767
0.194227
0.203472
0.212293
0.220454
0.227712
0.233855
0.238739
0.242336
0.244771
0.246327
0.247428
0.248581
0.250281
0.252908
0.256675
0.261703
0.268246
0.276978
0.288944
0.304798
0.323647
0.342294
0.355997
0.360738
0.351695
0.32475
0.275939
0.200192
0.0921713
-0.0569267
-0.251756
-0.497624
-0.809456
-1.08499
-1.52218
-1.81034
-2.4071
-2.86106
-3.34428
-3.70227
-3.75635
-3.51338
-3.13952
-2.45099
-1.90782
-1.11687
-0.655163
0.107797
0.314419
1.29724
0.00363321
0.00768634
0.0134839
0.0182449
0.0236307
0.0287959
0.0342572
0.0397539
0.045455
0.0512836
0.0573008
0.0634894
0.0698776
0.0764688
0.0832819
0.0903288
0.097627
0.105192
0.113043
0.121196
0.129668
0.138476
0.147628
0.157131
0.166978
0.177148
0.187598
0.198259
0.209022
0.219741
0.230222
0.240226
0.249484
0.257718
0.264684
0.270213
0.274272
0.276999
0.278716
0.279912
0.281169
0.283057
0.286009
0.290257
0.295914
0.303253
0.313052
0.326574
0.344673
0.366395
0.388038
0.404138
0.410151
0.400522
0.370637
0.315957
0.230694
0.108549
-0.0609162
-0.283666
-0.56841
-0.929706
-1.26474
-1.80713
-2.08798
-2.78495
-3.28015
-3.80469
-4.18907
-4.2264
-3.94193
-3.51119
-2.73587
-2.11793
-1.24117
-0.709327
0.126723
0.367339
1.40193
0.00393956
0.00850343
0.0149372
0.020274
0.0262831
0.0320608
0.0381593
0.0443009
0.0506664
0.0571745
0.0638911
0.0707984
0.077927
0.0852814
0.0928826
0.100744
0.108885
0.117323
0.126078
0.135171
0.14462
0.154442
0.16465
0.175249
0.186234
0.197581
0.209245
0.221146
0.233169
0.245147
0.256865
0.268056
0.278415
0.287631
0.29542
0.301593
0.306106
0.309111
0.310972
0.312241
0.313581
0.31564
0.318908
0.323629
0.329902
0.338005
0.34883
0.363887
0.384275
0.409008
0.433837
0.452545
0.46006
0.450065
0.417475
0.35718
0.262677
0.126654
-0.0630636
-0.313995
-0.638874
-1.05127
-1.45253
-2.09895
-2.36989
-3.18727
-3.72761
-4.29653
-4.7046
-4.71544
-4.38271
-3.88929
-3.02265
-2.32645
-1.36329
-0.758036
0.14574
0.406796
1.50662
0.00422998
0.00931305
0.0163704
0.0222851
0.0289135
0.0353037
0.0420371
0.0488223
0.05585
0.0630356
0.0704488
0.0780721
0.0859381
0.0940525
0.102438
0.11111
0.120089
0.129396
0.139052
0.149079
0.159499
0.170331
0.181589
0.19328
0.205397
0.217918
0.230791
0.243932
0.257213
0.270453
0.283412
0.295795
0.307263
0.317465
0.326082
0.332897
0.337856
0.341125
0.343109
0.344427
0.345826
0.34804
0.351612
0.356799
0.363673
0.372504
0.384303
0.400863
0.42359
0.451488
0.479713
0.501259
0.510524
0.500394
0.465348
0.3997
0.296257
0.146643
-0.0631474
-0.342459
-0.70857
-1.17351
-1.64749
-2.39303
-2.66099
-3.62066
-4.20503
-4.8243
-5.255
-5.22833
-4.83887
-4.27563
-3.3123
-2.53378
-1.4833
-0.801045
0.165691
0.433773
1.6499
0.00450634
0.0101169
0.0177852
0.0242797
0.0315228
0.0385253
0.045891
0.0533183
0.0610056
0.0688664
0.0769734
0.0853095
0.0939096
0.10278
0.111946
0.121424
0.131237
0.141408
0.151959
0.162916
0.174302
0.186138
0.19844
0.211216
0.224462
0.238151
0.252231
0.26661
0.28115
0.295654
0.309859
0.323441
0.336024
0.347219
0.356668
0.364123
0.36952
0.373036
0.37512
0.376459
0.377891
0.380239
0.384106
0.389752
0.397208
0.406727
0.419438
0.437464
0.462577
0.493813
0.525667
0.550307
0.561593
0.551578
0.514345
0.443638
0.331599
0.168747
-0.0608298
-0.368597
-0.776767
-1.2954
-1.84808
-2.68892
-2.97469
-4.09657
-4.7139
-5.39131
-5.84575
-5.76954
-5.31315
-4.67131
-3.60509
-2.7397
-1.60103
-0.83668
0.187006
0.507412
1.75462
0.00477009
0.0109163
0.0191831
0.0262593
0.0341123
0.0417266
0.0497216
0.0577894
0.0661337
0.074667
0.0834648
0.0925107
0.101841
0.111465
0.121407
0.131687
0.142329
0.153358
0.1648
0.176681
0.189026
0.201861
0.215201
0.229058
0.243427
0.25828
0.273564
0.28918
0.304979
0.32075
0.336206
0.350995
0.364703
0.376898
0.387184
0.395279
0.401104
0.40485
0.407007
0.408337
0.409772
0.412232
0.416382
0.422481
0.430503
0.440662
0.454213
0.473652
0.501203
0.53597
0.571709
0.599722
0.613319
0.603685
0.564548
0.489092
0.368838
0.193166
-0.0558026
-0.391954
-0.842631
-1.4156
-2.05197
-2.98511
-3.32427
-4.61533
-5.25569
-6.00054
-6.48238
-6.3439
-5.80892
-5.07772
-3.90129
-2.94403
-1.71559
-0.865207
0.209288
0.547389
1.84861
0.00502261
0.0117125
0.0205658
0.028225
0.036683
0.0449083
0.0535297
0.0622359
0.0712342
0.0804375
0.0899229
0.0996751
0.109732
0.120104
0.130819
0.141896
0.153363
0.165245
0.177572
0.190371
0.203671
0.217497
0.231871
0.246802
0.262288
0.278302
0.294786
0.311638
0.328698
0.345738
0.362453
0.378457
0.3933
0.406505
0.417633
0.426368
0.432611
0.436567
0.438768
0.440055
0.44146
0.444007
0.448429
0.454976
0.463546
0.474292
0.488597
0.509384
0.539424
0.577937
0.617838
0.649529
0.66575
0.656776
0.616035
0.536162
0.408114
0.220112
-0.0477193
-0.411974
-0.905097
-1.53229
-2.25511
-3.27485
-3.71221
-5.16226
-5.83128
-6.65494
-7.17058
-6.9566
-6.33029
-5.49677
-4.2014
-3.1467
-1.82537
-0.886652
0.234101
0.617515
1.98391
0.00526506
0.0125065
0.0219344
0.0301781
0.0392359
0.0480712
0.0573156
0.0666582
0.0763075
0.0861777
0.0963473
0.106802
0.117582
0.128699
0.140181
0.152051
0.164337
0.177068
0.190273
0.203985
0.218233
0.233046
0.248445
0.264446
0.281044
0.298214
0.315895
0.333981
0.352303
0.370619
0.388599
0.405829
0.421818
0.436044
0.448021
0.457394
0.464047
0.46819
0.470404
0.471609
0.472947
0.475555
0.480237
0.487229
0.49633
0.507605
0.522563
0.544615
0.577192
0.619688
0.664054
0.699756
0.718931
0.71091
0.668878
0.584937
0.449551
0.249789
-0.0362216
-0.428029
-0.96289
-1.6433
-2.45234
-3.54913
-4.12685
-5.71481
-6.4395
-7.3574
-7.91602
-7.61288
-6.88174
-5.93085
-4.50604
-3.34848
-1.92905
-0.902221
0.264763
0.676783
2.04227
0.00549846
0.013299
0.0232904
0.0321194
0.0417719
0.051216
0.06108
0.0710567
0.0813536
0.0918877
0.102738
0.113892
0.125391
0.137247
0.149493
0.16215
0.175251
0.188824
0.202903
0.217521
0.232711
0.248503
0.264923
0.281986
0.299691
0.318012
0.336888
0.356207
0.375793
0.395388
0.414643
0.433109
0.450258
0.465517
0.478352
0.488364
0.495414
0.499722
0.501914
0.502995
0.504225
0.506865
0.511797
0.519234
0.528849
0.540586
0.55608
0.579293
0.614453
0.661198
0.710355
0.750427
0.772906
0.766145
0.723142
0.635494
0.493263
0.282391
-0.0209359
-0.439404
-1.01456
-1.74667
-2.64179
-3.79938
-4.55576
-6.24467
-7.07642
-8.11083
-8.72452
-8.31798
-7.46802
-6.38275
-4.81592
-3.55028
-2.02574
-0.913603
0.305732
0.724621
2.18956
0.0057237
0.0140908
0.0246348
0.0340501
0.0442918
0.0543433
0.0648233
0.0754314
0.0863726
0.0975673
0.109094
0.120944
0.133157
0.145749
0.158753
0.172193
0.186102
0.200512
0.215458
0.230976
0.247101
0.263866
0.2813
0.299419
0.318225
0.337693
0.35776
0.378312
0.399164
0.420045
0.440583
0.460299
0.478621
0.494928
0.508629
0.519281
0.526718
0.531165
0.533297
0.534208
0.535285
0.537925
0.543096
0.550982
0.561097
0.573224
0.589115
0.61336
0.651148
0.702432
0.756733
0.801567
0.827718
0.822532
0.778885
0.687893
0.53933
0.318079
-0.00151072
-0.445358
-1.05859
-1.84049
-2.82112
-4.02094
-4.99962
-6.73176
-7.74042
-8.91847
-9.60224
-9.07712
-8.09408
-6.85559
-5.13204
-3.7521
-2.11502
-0.919093
0.35717
0.826307
2.33268
0.00594157
0.0148825
0.0259686
0.0359708
0.0467965
0.0574538
0.0685459
0.0797827
0.0913644
0.103216
0.115416
0.127956
0.14088
0.154203
0.16796
0.182177
0.196889
0.212131
0.227938
0.244349
0.261403
0.279134
0.297574
0.316743
0.336644
0.357254
0.37851
0.400294
0.422414
0.444587
0.466419
0.487398
0.50691
0.52428
0.538858
0.550151
0.557963
0.562523
0.564553
0.565242
0.566116
0.568721
0.574124
0.582466
0.593071
0.605508
0.621635
0.646755
0.687207
0.743356
0.803178
0.853199
0.883404
0.88012
0.836148
0.742162
0.587775
0.35693
0.0223113
-0.445236
-1.09366
-1.92307
-2.98497
-4.22158
-5.48414
-7.16805
-8.43419
-9.7832
-10.5557
-9.89546
-8.76497
-7.35264
-5.45569
-3.95395
-2.19645
-0.917594
0.41807
0.912395
2.3886
0.00615273
0.0156746
0.0272929
0.0378824
0.0492867
0.0605478
0.0722481
0.0841107
0.0963292
0.108834
0.121703
0.13493
0.148559
0.162608
0.177113
0.192102
0.207612
0.223678
0.24034
0.257637
0.275612
0.294303
0.313742
0.333954
0.354945
0.376692
0.399132
0.422147
0.445539
0.469011
0.492147
0.514405
0.535125
0.553575
0.569043
0.58098
0.589154
0.593798
0.595682
0.596093
0.596708
0.599241
0.604867
0.61368
0.624769
0.637428
0.653605
0.679407
0.722554
0.783928
0.849677
0.905344
0.940004
0.938946
0.894943
0.798254
0.638496
0.398849
0.0505648
-0.438667
-1.1189
-1.99322
-3.1299
-4.41476
-6.0056
-7.51213
-9.14307
-10.7085
-11.5925
-10.7782
-9.48577
-7.8772
-5.78842
-4.15592
-2.26948
-0.908615
0.490445
0.986219
2.54137
0.00635774
0.0164675
0.0286083
0.0397855
0.0517629
0.0636259
0.0759302
0.0884155
0.101267
0.114422
0.127954
0.141864
0.156194
0.170964
0.186212
0.201967
0.218267
0.235152
0.252661
0.270839
0.289728
0.30937
0.329802
0.35105
0.373123
0.396001
0.419624
0.44387
0.468535
0.493313
0.517766
0.54132
0.563267
0.582816
0.599189
0.611773
0.620298
0.624995
0.626682
0.626755
0.627049
0.629469
0.635313
0.64462
0.656192
0.668979
0.68499
0.711239
0.757103
0.824103
0.896213
0.958027
0.99755
0.999026
0.955211
0.855988
0.691176
0.443437
0.0828904
-0.425781
-1.13421
-2.05059
-3.25552
-4.60766
-6.45566
-7.77444
-9.87974
-11.7007
-12.7206
-11.7306
-10.2614
-8.43252
-6.13188
-4.35814
-2.33352
-0.890656
0.575988
1.13219
2.71225
0.0065571
0.0172616
0.0299157
0.0416808
0.0542259
0.0666885
0.0795926
0.0926972
0.106177
0.119977
0.13417
0.148758
0.163783
0.179269
0.195254
0.211769
0.228855
0.246551
0.264902
0.283951
0.303747
0.324333
0.345749
0.368026
0.391175
0.41518
0.439981
0.465457
0.491399
0.51749
0.543274
0.568141
0.591337
0.612007
0.6293
0.642536
0.651399
0.656116
0.657554
0.65722
0.657127
0.659389
0.665448
0.675279
0.687343
0.700157
0.715753
0.742163
0.790758
0.863831
0.94277
1.01127
1.05606
1.06032
1.01676
0.914939
0.745136
0.489832
0.118373
-0.407376
-1.14039
-2.0959
-3.36383
-4.7996
-6.7848
-8.02994
-10.6397
-12.7575
-13.9487
-12.758
-11.0968
-9.02179
-6.48767
-4.56095
-2.38797
-0.862893
0.672764
1.23838
2.76305
0.0067512
0.0180572
0.0312158
0.0435687
0.0566761
0.0697358
0.0832354
0.0969558
0.11106
0.125502
0.140349
0.15561
0.171326
0.187523
0.204238
0.221508
0.239372
0.257874
0.277058
0.296972
0.317667
0.339189
0.361582
0.384879
0.409097
0.434223
0.460199
0.486903
0.514126
0.541539
0.568666
0.594867
0.619335
0.641149
0.659382
0.673275
0.682463
0.687166
0.688298
0.687484
0.686928
0.688982
0.695257
0.705654
0.718229
0.730963
0.745856
0.772084
0.82341
0.903057
0.989325
1.06508
1.11549
1.12265
1.07914
0.974293
0.79919
0.53658
0.155477
-0.38493
-1.13905
-2.13098
-3.45869
-4.9915
-7.06052
-8.36727
-11.3642
-13.8891
-15.2862
-13.8656
-11.9963
-9.64799
-6.8573
-4.76488
-2.43221
-0.824329
0.783982
1.38902
2.96463
0.00694037
0.0188548
0.0325091
0.0454497
0.0591139
0.0727682
0.0868587
0.101191
0.115915
0.130994
0.146492
0.162421
0.178822
0.195723
0.213164
0.231182
0.249818
0.269117
0.289128
0.3099
0.331485
0.353935
0.377296
0.401606
0.426886
0.453126
0.480273
0.508206
0.536712
0.565455
0.593941
0.621495
0.647261
0.670246
0.689438
0.703997
0.713498
0.718149
0.718914
0.717538
0.716437
0.718228
0.724722
0.735742
0.748862
0.761402
0.775261
0.800895
0.854939
0.941723
1.03585
1.11946
1.17573
1.18561
1.14149
1.03269
0.851526
0.58164
0.192155
-0.360434
-1.13243
-2.15849
-3.54509
-5.18663
-7.32826
-8.85761
-12.099
-15.1332
-16.7435
-15.0581
-12.9643
-10.3138
-7.24211
-4.97053
-2.46555
-0.773678
0.90925
1.53056
3.0274
0.00712487
0.0196544
0.0337961
0.0473243
0.0615397
0.0757858
0.0904626
0.105403
0.120742
0.136453
0.152597
0.169188
0.186269
0.20387
0.22203
0.240789
0.260191
0.280281
0.30111
0.322731
0.345198
0.368567
0.392888
0.418203
0.444537
0.471885
0.500198
0.529358
0.559151
0.589233
0.619094
0.648024
0.675116
0.699301
0.719475
0.734708
0.74451
0.749071
0.749402
0.747376
0.745637
0.747106
0.753826
0.765541
0.779257
0.791484
0.80393
0.828475
0.885213
0.979763
1.0823
1.1743
1.2364
1.24837
1.2024
1.08812
0.89976
0.622591
0.226141
-0.33606
-1.12293
-2.18142
-3.6281
-5.38849
-7.63144
-9.57906
-12.8659
-16.5185
-18.3312
-16.3394
-14.0045
-11.0213
-7.64326
-5.17823
-2.48741
-0.709891
1.05025
1.66972
3.20269
0.00730491
0.0204565
0.0350773
0.0491927
0.063954
0.0787889
0.0940472
0.109592
0.125541
0.14188
0.158664
0.175913
0.193668
0.211962
0.230835
0.250329
0.270488
0.291361
0.313001
0.335463
0.358804
0.383083
0.408355
0.434666
0.462046
0.490495
0.51997
0.550355
0.581438
0.612869
0.64412
0.674451
0.702898
0.728314
0.749497
0.765416
0.775507
0.779937
0.779763
0.77699
0.774511
0.77559
0.782548
0.795049
0.809434
0.82123
0.831826
0.854692
0.914081
1.0171
1.12857
1.22933
1.29677
1.30953
1.25972
1.13794
0.941212
0.657026
0.255342
-0.313758
-1.11272
-2.20257
-3.71227
-5.60126
-7.99841
-10.5106
-13.6314
-18.0541
-20.0593
-17.7117
-15.12
-11.7722
-8.0618
-5.38797
-2.49727
-0.631433
1.20913
1.88103
3.42397
0.00748063
0.0212612
0.0363532
0.0510552
0.0663568
0.0817774
0.0976124
0.113757
0.130312
0.147273
0.164692
0.182593
0.201016
0.219997
0.239577
0.259798
0.280708
0.302357
0.3248
0.348094
0.3723
0.39748
0.423693
0.450991
0.479408
0.508952
0.539583
0.571192
0.603568
0.636356
0.669015
0.700772
0.730607
0.757289
0.77951
0.796129
0.806497
0.810754
0.809999
0.806373
0.803039
0.803652
0.810863
0.824266
0.839422
0.850665
0.858913
0.879398
0.941377
1.05361
1.17443
1.28393
1.35549
1.36688
1.3106
1.17926
0.973413
0.683007
0.27823
-0.29488
-1.10329
-2.22402
-3.80109
-5.82933
-8.43562
-11.5145
-14.4274
-19.8044
-21.9411
-19.1768
-16.3133
-12.567
-8.4986
-5.59943
-2.49466
-0.537157
1.38418
2.06988
3.52034
0.00765211
0.0220687
0.0376239
0.0529122
0.0687485
0.0847515
0.101158
0.117898
0.135053
0.152632
0.17068
0.189227
0.208313
0.227974
0.248254
0.269196
0.29085
0.313267
0.336503
0.360621
0.385683
0.411754
0.438899
0.467174
0.49662
0.52725
0.559032
0.591862
0.625534
0.659689
0.693774
0.726984
0.758242
0.786228
0.809519
0.826853
0.837488
0.841528
0.84011
0.835515
0.8312
0.83126
0.838747
0.853193
0.869254
0.87983
0.885158
0.902424
0.966904
1.08911
1.21939
1.33696
1.41043
1.4174
1.35184
1.20952
0.994616
0.699429
0.294133
-0.279908
-1.09523
-2.24673
-3.89642
-6.07581
-8.94037
-12.5271
-15.3602
-21.8565
-24.0016
-20.7362
-17.5857
-13.4058
-8.95414
-5.8121
-2.47904
-0.426155
1.57787
2.25373
3.74349
0.00781941
0.0228792
0.0388899
0.0547637
0.0711292
0.087711
0.104684
0.122015
0.139765
0.157956
0.176628
0.195816
0.215557
0.235893
0.256866
0.278522
0.30091
0.324087
0.348109
0.373041
0.398949
0.425902
0.453969
0.483211
0.513675
0.545383
0.57831
0.612359
0.647329
0.682861
0.71839
0.753082
0.785799
0.815131
0.839529
0.857598
0.868491
0.872268
0.870099
0.864408
0.858969
0.858381
0.866168
0.88183
0.898974
0.908776
0.91053
0.92358
0.990406
1.12321
1.26249
1.38649
1.45849
1.45749
1.38064
1.22715
1.00415
0.706209
0.303368
-0.268368
-1.08814
-2.27053
-3.99827
-6.34151
-9.51093
-13.5855
-16.5735
-24.2288
-26.2792
-22.3904
-18.9366
-14.2869
-9.42831
-6.02539
-2.44961
-0.296791
1.79327
2.52119
4.01968
0.00798253
0.0236929
0.0401512
0.0566099
0.0734989
0.090656
0.108191
0.126107
0.144447
0.163245
0.182535
0.202357
0.222748
0.243751
0.26541
0.287772
0.310888
0.334816
0.359615
0.385352
0.412096
0.439921
0.468898
0.499097
0.53057
0.563347
0.597412
0.632677
0.668946
0.705864
0.742856
0.77906
0.813278
0.844001
0.869546
0.888371
0.899514
0.902982
0.899969
0.893043
0.886322
0.884972
0.89309
0.910179
0.928635
0.937574
0.935003
0.942636
1.01152
1.15521
1.30218
1.42965
1.4957
1.48382
1.39538
1.23186
1.00246
0.704282
0.307172
-0.258956
-1.08079
-2.29416
-4.1049
-6.62467
-10.1448
-14.7109
-18.1448
-26.9501
-28.8155
-24.1409
-20.3632
-15.2074
-9.92026
-6.23868
-2.40526
-0.147732
2.0268
2.75399
4.13544
0.0081414
0.02451
0.0414081
0.0584508
0.0758577
0.0935863
0.111677
0.130174
0.149098
0.168497
0.188399
0.208849
0.229883
0.251547
0.273884
0.296945
0.320781
0.345451
0.371018
0.39755
0.425121
0.453806
0.483684
0.514828
0.547299
0.581136
0.616331
0.652807
0.690377
0.728691
0.767166
0.804913
0.840675
0.872838
0.899575
0.919183
0.930569
0.933679
0.929725
0.921413
0.91323
0.91099
0.919474
0.938242
0.958302
0.966316
0.958552
0.9593
1.02964
1.18394
1.3361
1.46239
1.51798
1.49442
1.39608
1.2247
0.991021
0.695396
0.307431
-0.249841
-1.0714
-2.31556
-4.21312
-6.92149
-10.8371
-15.9109
-20.1069
-30.0319
-31.6497
-25.9916
-21.8615
-16.1627
-10.4283
-6.45129
-2.34454
0.0221659
2.2827
3.03513
4.44326
0.00829595
0.0253308
0.0426608
0.0602866
0.0782056
0.0965017
0.115143
0.134216
0.153718
0.173712
0.19422
0.215292
0.236962
0.25928
0.282288
0.306039
0.330587
0.355991
0.382316
0.409634
0.438019
0.467554
0.498321
0.530399
0.563857
0.598743
0.63506
0.672743
0.711615
0.751333
0.791311
0.830634
0.867986
0.901643
0.929622
0.950043
0.961668
0.964371
0.95937
0.949506
0.939661
0.936382
0.945271
0.96602
0.988053
0.995116
0.981142
0.973151
1.04389
1.20782
1.36073
1.47992
1.52253
1.48937
1.38427
1.20763
0.971938
0.681755
0.306292
-0.239024
-1.05794
-2.33207
-4.31865
-7.2266
-11.5796
-17.181
-22.4683
-33.4716
-34.8254
-27.9494
-23.4275
-17.1471
-10.9498
-6.66229
-2.26564
0.214823
2.56028
3.31045
4.62727
0.00844605
0.0261552
0.0439091
0.0621171
0.0805424
0.0994019
0.118588
0.138231
0.158306
0.178889
0.199996
0.221683
0.243984
0.266947
0.29062
0.315053
0.340304
0.366432
0.393506
0.421599
0.450789
0.481162
0.512805
0.545805
0.580239
0.616163
0.653593
0.692476
0.732651
0.773781
0.815282
0.856216
0.895207
0.930416
0.959692
0.980961
0.992823
0.995069
0.988912
0.977316
0.965583
0.96109
0.970426
0.993516
1.01798
1.02411
1.00269
0.983551
1.05317
1.22463
1.37114
1.47821
1.5091
1.47064
1.36248
1.18322
0.947586
0.665592
0.305776
-0.224627
-1.03829
-2.34058
-4.41635
-7.53312
-12.3592
-18.5066
-25.2308
-37.2566
-38.3917
-30.0216
-25.0577
-18.1531
-11.481
-6.87028
-2.16633
0.432142
2.86099
3.59212
4.92219
0.00859154
0.0269836
0.0451533
0.0639424
0.082868
0.102287
0.122012
0.14222
0.162861
0.184027
0.205728
0.228023
0.250946
0.274548
0.298876
0.323984
0.349929
0.376773
0.404585
0.433442
0.463426
0.494625
0.527133
0.561042
0.596439
0.633389
0.671921
0.711999
0.753474
0.796025
0.839068
0.88165
0.922332
0.959157
0.989791
1.01195
1.02405
1.02579
1.01836
1.00483
0.990958
0.985049
0.994874
1.02073
1.04819
1.05344
1.02295
0.989698
1.05654
1.23073
1.36187
1.456
1.47994
1.44135
1.3337
1.1541
0.920165
0.648824
0.30755
-0.204982
-1.01027
-2.3376
-4.50024
-7.83248
-13.1558
-19.8656
-28.3976
-41.3495
-42.3955
-32.2151
-26.7498
-19.1721
-12.0168
-7.0733
-2.04377
0.676628
3.18747
3.94646
5.25272
0.0087322
0.0278161
0.0463933
0.0657624
0.0851822
0.105155
0.125414
0.146181
0.167382
0.189125
0.211412
0.234309
0.257846
0.282081
0.307056
0.33283
0.35946
0.38701
0.415551
0.445161
0.475927
0.50794
0.541299
0.576105
0.61245
0.650414
0.690038
0.731302
0.774076
0.818053
0.86266
0.906925
0.949354
0.987864
1.01992
1.04301
1.05535
1.05654
1.04772
1.03205
1.01575
1.00818
1.01854
1.04766
1.07879
1.08317
1.04134
0.991258
1.05276
1.22054
1.32954
1.41551
1.43878
1.405
1.30089
1.12261
0.891408
0.632875
0.312909
-0.178527
-0.971536
-2.31915
-4.56356
-8.11402
-13.9424
-21.233
-31.9629
-45.6505
-46.8592
-34.5361
-28.5025
-20.1952
-12.5511
-7.26865
-1.89435
0.950999
3.53754
4.28292
5.48068
0.0088678
0.0286528
0.0476289
0.0675768
0.0874847
0.108008
0.128794
0.150114
0.171869
0.194182
0.217048
0.240539
0.264685
0.289542
0.315158
0.341589
0.368894
0.39714
0.426399
0.456752
0.488288
0.521102
0.5553
0.590987
0.628268
0.667231
0.707936
0.750377
0.794445
0.839855
0.886044
0.932032
0.976266
1.01654
1.05009
1.07416
1.08676
1.08734
1.077
1.05896
1.03991
1.03041
1.04134
1.07428
1.10985
1.11303
1.05707
0.989016
1.03818
1.18839
1.27513
1.36126
1.3897
1.3649
1.26661
1.09059
0.862472
0.618726
0.32294
-0.143628
-0.91946
-2.28088
-4.59899
-8.36532
-14.6858
-22.5811
-35.8977
-49.971
-51.7563
-36.9894
-30.314
-21.2138
-13.0767
-7.45282
-1.71405
1.25785
3.91424
4.62071
5.84223
0.00899807
0.0294939
0.0488602
0.0693856
0.0897752
0.110843
0.13215
0.154018
0.17632
0.199197
0.222635
0.246713
0.271459
0.296932
0.323179
0.350258
0.37823
0.407162
0.437128
0.468212
0.500505
0.534108
0.56913
0.605684