/*--------------------------------*- C++ -*----------------------------------*\
| =========                 |                                                 |
| \\      /  F ield         | OpenFOAM: The Open Source CFD Toolbox           |
|  \\    /   O peration     | Version:  4.1                                   |
|   \\  /    A nd           | Web:      www.OpenFOAM.org                      |
|    \\/     M anipulation  |                                                 |
\*---------------------------------------------------------------------------*/
FoamFile
{
    version     2.0;
    format      ascii;
    class       surfaceScalarField;
    location    "10";
    object      phi;
}
// * * * * * * * * * * * * * * * * * * * * * * * * * * * * * * * * * * * * * //

dimensions      [0 3 -1 0 0 0 0];

internalField   nonuniform List<scalar> 
13220
(
-796.214
2096.11
-1231.79
1735.78
-1679.99
1748.1
-2001.86
1621.77
-2260.61
1558.95
-2438.27
1477.55
-2544.01
1405.64
-2577.99
1334.18
-2546.47
1268.38
-2449.14
1202.57
-2280.67
1131.73
-2030.25
1049.48
-1650.84
920.487
-1018.61
667.965
281.295
-164.41
2260.52
-373.414
1944.78
-600.598
1975.29
-766.162
1787.33
-919.47
1712.26
-1026.69
1584.77
-1104.82
1483.77
-1144.45
1373.82
-1141.29
1265.21
-1086.34
1147.61
-983.453
1028.85
-845.569
911.594
-667.724
742.642
-390.876
391.117
-109.582
-143.046
2403.57
-331.251
2132.98
-468.12
2112.15
-567.515
1886.73
-658.105
1802.85
-721.126
1647.79
-775.523
1538.17
-800.648
1398.94
-754.191
1218.76
-575.022
968.444
-266.916
720.744
72.6496
572.023
323.098
492.188
347.843
366.363
238.262
-94.4746
2498.04
-209.881
2248.39
-306.968
2209.24
-405.663
1985.42
-511.058
1908.25
-613.744
1750.48
-729.486
1653.91
-840.335
1509.79
-921.67
1300.09
-903.385
950.159
-739.308
556.667
-450.159
282.876
-121.728
163.76
64.5123
180.128
302.774
-22.2411
2520.29
-139.387
2365.54
-206.584
2276.44
-273.116
2051.95
-339.793
1974.92
-399.441
1810.13
-461.502
1715.97
-527.535
1575.83
-625.338
1397.89
-775.277
1100.1
-943.439
724.83
-1035.62
375.053
-954.349
82.4927
-606.587
-167.634
-303.813
146.509
2373.78
73.6179
2438.43
93.6662
2256.39
131.82
2013.8
184.313
1922.43
244.579
1749.86
323.302
1637.25
403.517
1495.61
454.013
1347.4
405.745
1148.37
236.041
894.536
8.50176
602.599
-148.023
239.027
-181.922
-133.728
-485.735
213.797
2159.98
205.838
2446.39
262.626
2199.61
342.552
1933.88
440.41
1824.58
537.28
1652.99
649.732
1524.8
766.623
1378.72
874.874
1239.15
935.07
1088.17
911.387
918.219
788.431
725.558
541.515
485.948
207.812
199.981
-277.923
166.59
1993.39
191.081
2421.9
235.306
2155.38
293.706
1875.48
367.226
1751.06
433.64
1586.58
501.035
1457.4
563.07
1316.69
616.677
1185.54
648.449
1056.4
643.616
923.053
586.32
782.852
459.166
613.101
258.527
400.617
-19.3955
100.331
1893.06
153.813
2368.42
200.187
2109.01
255.906
1819.76
322.521
1684.44
378.421
1530.68
428.37
1407.45
468.057
1277
501.61
1151.99
527.735
1030.28
536.009
914.779
506.152
812.712
407.898
711.359
223.064
585.46
203.669
35.6482
1857.41
123.04
2281.02
202.639
2029.41
281.604
1740.79
367.377
1598.67
458.073
1439.98
554.669
1310.86
656.783
1174.89
757.065
1051.71
840.794
946.546
872.855
882.719
815.081
870.483
639.647
886.79
363.59
861.511
567.259
-81.7069
1939.12
11.2048
2188.11
84.2732
1956.34
111.163
1713.9
160.367
1549.46
256.602
1343.75
405.303
1162.16
599.161
981.03
812.64
838.228
991.064
768.122
1058.08
815.705
963.271
965.289
709.669
1140.39
369.778
1201.4
937.036
-181.117
2120.24
-290.215
2297.21
-367.526
2033.65
-508.053
1854.43
-636.128
1677.54
-714.337
1421.96
-730.116
1177.93
-692.731
943.644
-601.251
746.747
-455.454
622.323
-261.824
622.075
-62.242
765.702
63.2408
1014.91
63.4294
1201.21
1000.47
129.629
1990.61
-93.8615
2520.7
-359.731
2299.52
-588.517
2083.21
-808.394
1897.41
-1046.65
1660.22
-1294.04
1425.32
-1538.43
1188.04
-1749.7
958.012
-1862.16
734.788
-1791.18
551.085
-1482.05
456.579
-956.691
489.545
-370.614
615.134
629.852
699.393
1291.21
884.41
2335.68
659.348
2524.58
357.321
2385.24
88.3347
2166.4
-156.548
1905.1
-372.757
1641.53
-574.602
1389.88
-766.106
1149.52
-948.329
917.011
-1095.11
697.869
-1137.54
499.004
-971
323.003
-559.566
203.698
70.2855
870.549
1991.49
2702.3
3182.58
3455.96
3497.72
3340.99
3093.46
2742.58
2333.13
1883.76
1422.31
923.451
429.187
1.10591e-05
142.178
-142.178
142.178
142.178
142.178
268.636
-126.458
268.636
268.636
268.636
380.416
-111.779
380.416
380.416
480.046
-99.6299
480.046
480.046
480.046
571.733
-91.6878
571.733
571.733
646.712
-74.9781
646.712
646.712
646.712
704.088
-57.376
704.088
704.088
704.088
737.914
-33.8268
737.914
737.914
744.24
-6.32539
744.24
744.24
744.24
728.647
15.5923
728.647
728.647
696.073
32.5742
696.073
696.073
696.073
665.714
30.3589
665.714
665.714
665.714
692.383
-26.6688
692.383
692.383
719.168
-26.7853
719.168
719.168
719.168
623.872
95.2966
623.872
623.872
623.872
423.706
200.166
423.706
423.706
176.271
247.434
176.271
176.271
176.271
-135.422
311.694
-135.422
-135.422
-962.784
827.362
-962.784
-962.784
-962.784
-2231.8
1269.02
-2231.8
-2231.8
-2231.8
-3901.88
1670.08
-3901.88
-3901.88
-5913.1
2011.22
-5913.1
-5913.1
-5816.02
-5723.15
-5632.44
-7770.18
2226.96
-7671.09
-7551.42
-7419.58
-7288.28
-7156.71
-7026.36
-6891.13
-6741.19
-8988.74
2397.03
-8829.13
-8670.6
-8512.72
-8336.45
-8158.68
-7979.45
-7798.41
-7614.03
-10064.3
2646.79
-9852.64
-9637.05
-9418.76
-9197.97
-8968.24
-8723.37
-8475.53
-8223.2
-7967.34
-10603.2
2882.64
-10325
-10044.4
-9762.99
-9481.16
-9198.57
-8898.13
-8586.81
-8273.99
-10613.2
2638.49
-10307
-9989.64
-9653.81
-9317.25
-8979.25
-8641.36
-8302.07
-7933.54
-9690.84
2107.99
-9343.52
-9000.5
-8660.67
-8303.78
-7942.27
-7586.02
-7232.05
-6882.34
-7758.76
1230.36
-7402.37
-7047.88
-6691.9
-6335.46
-5979.53
-5625.46
-5275.02
-4929.14
-4593.79
-4752.24
488.646
-4477.53
-4233.73
-3999.13
-3776.47
-3565.01
-3404.63
-3329.79
-3252.99
-2911.92
-253.875
-2839.18
-2766.69
-2766.69
-2616.55
-150.14
-2463.95
-152.599
-2463.95
-2344.25
-119.7
-2344.25
-2252.14
-92.1062
-2173.94
-78.2023
-2173.94
-2116.62
-57.3144
-2069.49
-47.1393
-2069.49
-2036.28
-33.2094
-2036.28
-2019.49
-16.79
-2004.91
-14.573
-2004.91
-1998.95
-5.96633
-1998.95
-2006.1
7.15402
-2006.93
0.825529
-2006.93
-2021.87
14.9408
-2030.39
8.51873
-2030.39
-2049.32
18.9335
-2049.32
-2082.24
32.9191
-2103.6
21.3585
-2103.6
-2132.88
29.288
-2132.88
-2171.5
38.6123
-2190.77
19.2688
-2190.77
-2221.13
30.3649
-2233.68
12.5522
-2233.68
-2249.98
16.2942
-2249.98
-2272.02
22.0424
-2275.37
3.35307
-2275.37
-2280.46
5.08948
-2280.46
-2288.19
7.731
-2274.42
-13.7708
-2274.42
-2264.14
-10.2823
-2236.49
-27.6462
-2236.49
-2206.16
-30.3325
-2206.16
-2175.03
-31.1348
-2129.68
-45.3419
-2129.68
-2080.67
-49.0187
-2080.67
-2030.71
-49.9573
-1968.22
-62.4895
-1968.22
-1903.63
-64.5891
-1830.86
-72.7732
-1830.86
-1752.96
-77.8978
-1752.96
-1671.81
-81.1445
-1585.19
-86.6207
-1585.19
-1491.97
-93.2192
-1491.97
-1394.63
-97.3446
-1293.98
-100.645
-1293.98
-1184.19
-109.792
-1075.15
-109.04
-1075.15
-958.655
-116.498
-958.655
-123.036
-25.4543
-120.748
-25.37
-153.087
-25.5
-173.996
-25.6781
-194.339
-25.962
-214.285
-26.311
-233.249
-26.7413
-251.962
-27.2408
-270.214
-27.8138
-288.287
-28.4563
-306.165
-29.1693
-323.973
-29.9511
-341.745
-30.802
-359.555
-31.7213
-377.445
-32.7092
-395.467
-33.7654
-413.663
-34.8905
-432.075
-36.0848
-450.741
-37.3489
-469.7
-38.6836
-488.985
-40.0899
-508.631
-41.5686
-528.668
-43.1209
-549.128
-44.7479
-570.036
-46.4503
-591.417
-48.2289
-613.287
-50.0839
-635.661
-52.015
-658.54
-54.0211
-681.919
-56.1
-705.776
-58.2483
-730.075
-60.4614
-754.762
-62.7329
-779.764
-65.0552
-804.992
-67.4191
-830.342
-69.8145
-855.706
-72.2309
-880.979
-74.6574
-906.071
-77.0837
-930.922
-79.4999
-955.509
-81.8967
-979.851
-84.2647
-1004.01
-86.5939
-1028.08
-88.8729
-1052.17
-91.0885
-1076.39
-93.2257
-1100.87
-95.2666
-1125.75
-97.1871
-1151.24
-98.9491
-1177.51
-100.489
-1204.65
-101.706
-1232.48
-102.454
-1260.37
-102.534
-1287.26
-101.692
-1311.63
-99.6118
-1331.48
-95.9191
-1344.28
-90.182
-1346.84
-81.9278
-1335
-70.6781
-1303.17
-56.0306
-1243.82
-37.8395
-1145.75
-16.2553
-991.479
7.56239
-757.462
34.4156
-347.145
49.2172
402.454
53.4186
825.404
56.1358
1215.42
58.4095
1571.64
59.6333
1892.31
60.1441
2177.44
58.032
2375.6
55.5957
2562.72
49.2044
2627.12
48.0089
2822.95
39.4962
2731.21
48.0269
3146.02
48.2473
2762.26
58.9508
3483.72
4414.26
-27.854
-121.041
-27.6868
-153.254
-27.788
-173.895
-27.9482
-194.179
-28.2315
-214.002
-28.5886
-232.892
-29.0365
-251.514
-29.5604
-269.69
-30.1648
-287.683
-30.8445
-305.485
-31.6004
-323.217
-32.4305
-340.915
-33.3346
-358.651
-34.312
-376.468
-35.3626
-394.417
-36.4862
-412.539
-37.6832
-430.878
-38.9538
-449.471
-40.2986
-468.355
-41.7185
-487.565
-43.2142
-507.135
-44.7866
-527.096
-46.4368
-547.478
-48.1656
-568.307
-49.9736
-589.609
-51.8611
-611.4
-53.8278
-633.694
-55.8727
-656.496
-57.9936
-679.798
-60.1873
-703.582
-62.4491
-727.813
-64.7727
-752.438
-67.1501
-777.386
-69.5724
-802.569
-72.0293
-827.885
-74.5101
-853.225
-77.0044
-878.484
-79.5025
-903.573
-81.9955
-928.429
-84.476
-953.028
-86.9367
-977.39
-89.3704
-1001.58
-91.7681
-1025.68
-94.1192
-1049.82
-96.411
-1074.1
-98.6296
-1098.65
-100.759
-1123.63
-102.774
-1149.22
-104.63
-1175.65
-106.247
-1203.03
-107.499
-1231.23
-108.211
-1259.66
-108.15
-1287.32
-107.027
-1312.75
-104.496
-1334.01
-100.146
-1348.63
-93.506
-1353.48
-84.065
-1344.45
-71.3051
-1315.93
-54.7993
-1260.33
-34.4347
-1166.12
-10.3429
-1015.57
15.6574
-783.462
44.7103
-376.197
57.3148
389.85
57.3796
825.339
58.3799
1214.42
59.6992
1570.32
60.0779
1891.93
59.9097
2177.61
57.393
2378.12
54.5948
2565.52
48.1937
2633.52
46.8539
2824.29
38.5823
2739.48
46.8863
3137.71
47.2651
2761.88
58.4245
3472.56
4356.19
-29.1463
-121.379
-28.9496
-153.451
-29.033
-173.811
-29.1853
-194.026
-29.4682
-213.719
-29.8305
-232.53
-30.2881
-251.056
-30.8258
-269.153
-31.4476
-287.061
-32.148
-304.785
-32.9275
-322.437
-33.7841
-340.059
-34.7175
-357.718
-35.7267
-375.458
-36.8117
-393.332
-37.9722
-411.379
-39.2084
-429.642
-40.5208
-448.159
-41.9097
-466.966
-43.376
-486.099
-44.9205
-505.59
-46.544
-525.472
-48.2475
-545.774
-50.0317
-566.523
-51.8971
-587.743
-53.8438
-609.453
-55.871
-631.667
-57.9773
-654.389
-60.1601
-677.615
-62.4154
-701.327
-64.7377
-725.491
-67.1198
-750.056
-69.5531
-774.953
-72.0278
-800.095
-74.5331
-825.38
-77.0585
-850.7
-79.5937
-875.949
-82.1299
-901.037
-84.6594
-925.899
-87.176
-950.511
-89.674
-974.892
-92.1468
-999.104
-94.5861
-1023.24
-96.9812
-1047.42
-99.32
-1071.76
-101.59
-1096.38
-103.775
-1121.44
-105.851
-1147.15
-107.77
-1173.73
-109.44
-1201.36
-110.721
-1229.95
-111.421
-1258.96
-111.29
-1287.45
-110.025
-1314.02
-107.261
-1336.77
-102.57
-1353.32
-95.4622
-1360.59
-85.4002
-1354.51
-71.8406
-1329.49
-54.333
-1277.84
-32.7572
-1187.69
-7.19983
-1041.13
19.9785
-810.64
52.2872
-408.506
67.8089
374.328
64.5799
828.568
62.2524
1216.75
61.8705
1570.7
60.9741
1892.83
59.7607
2178.82
56.5404
2381.34
53.2419
2568.82
46.6532
2640.11
45.1908
2825.75
37.0459
2747.63
45.2282
3129.53
45.5298
2761.58
58.2933
3459.8
4305.44
-30.6608
-121.759
-30.4371
-153.674
-30.5051
-173.743
-30.6514
-193.88
-30.9362
-213.434
-31.3065
-232.16
-31.7775
-250.585
-32.3332
-268.597
-32.977
-286.417
-33.7033
-304.058
-34.5123
-321.628
-35.4017
-339.169
-36.371
-356.748
-37.4193
-374.41
-38.5464
-392.205
-39.7519
-410.173
-41.0361
-428.358
-42.3993
-446.795
-43.8419
-465.523
-45.3647
-484.576
-46.9684
-503.987
-48.6541
-523.787
-50.4224
-544.006
-52.274
-564.672
-54.2093
-585.808
-56.2279
-607.435
-58.329
-629.566
-60.5106
-652.208
-62.7694
-675.357
-65.1007
-698.996
-67.498
-723.094
-69.9532
-747.601
-72.4567
-772.45
-74.9977
-797.554
-77.5649
-822.813
-80.1473
-848.117
-82.7351
-873.361
-85.3199
-898.452
-87.8957
-923.324
-90.4575
-947.95
-93.0012
-972.349
-95.5214
-996.584
-98.0106
-1020.75
-100.458
-1044.97
-102.853
-1069.36
-105.183
-1094.05
-107.435
-1119.19
-109.584
-1145
-111.579
-1171.74
-113.319
-1199.62
-114.645
-1228.62
-115.346
-1258.26
-115.155
-1287.64
-113.747
-1315.43
-110.739
-1339.78
-105.679
-1358.38
-98.0531
-1368.22
-87.2939
-1365.27
-72.8224
-1343.96
-54.1525
-1296.51
-31.1288
-1210.71
-3.78935
-1068.47
25.2431
-839.673
59.9109
-443.174
79.1917
355.047
74.8062
832.954
68.0768
1223.48
65.0277
1573.75
62.3915
1895.47
59.7437
2181.47
55.5375
2385.54
51.5341
2572.82
44.6742
2646.97
43.0041
2827.42
35.0516
2755.58
43.0876
3121.5
43.3317
2761.33
55.225
3447.9
4250.87
-32.1028
-122.168
-31.8631
-153.914
-31.9189
-173.687
-32.062
-193.737
-32.3503
-213.146
-32.7299
-231.78
-33.2149
-250.1
-33.789
-268.023
-34.4551
-285.751
-35.2073
-303.306
-36.0456
-320.79
-36.9674
-338.248
-37.9723
-355.743
-39.0591
-373.323
-40.2276
-391.036
-41.4774
-408.923
-42.8086
-427.026
-44.2215
-445.383
-45.7166
-464.028
-47.2946
-482.998
-48.9564
-502.325
-50.7027
-522.04
-52.5344
-542.174
-54.4519
-562.754
-56.4554
-583.804
-58.5445
-605.345
-60.7178
-627.392
-62.973
-649.952
-65.3061
-673.023
-67.7118
-696.59
-70.1827
-720.623
-72.7096
-745.074
-75.2821
-769.877
-77.8883
-794.947
-80.5164
-820.184
-83.155
-845.479
-85.7947
-870.722
-88.4278
-895.819
-91.0494
-920.702
-93.6564
-945.343
-96.246
-969.759
-98.8141
-994.016
-101.354
-1018.21
-103.855
-1042.47
-106.307
-1066.91
-108.698
-1091.66
-111.018
-1116.87
-113.245
-1142.77
-115.321
-1169.66
-117.138
-1197.81
-118.52
-1227.24
-119.239
-1257.54
-119.008
-1287.87
-117.485
-1316.95
-114.266
-1343
-108.883
-1363.76
-100.795
-1376.3
-89.4039
-1376.66
-74.0924
-1359.27
-54.3315
-1316.27
-29.9063
-1235.14
-0.792274
-1097.58
30.2621
-870.727
67.504
-480.416
91.8302
330.721
87.7528
837.031
76.3837
1234.85
69.5066
1580.63
64.4773
1900.5
59.974
2185.97
54.4366
2391.08
49.5047
2577.75
42.2251
2654.25
40.3034
2829.34
32.5056
2763.38
40.4849
3113.52
40.5757
2761.24
53.5964
3434.88
4203.82
-33.5407
-122.597
-33.2918
-154.163
-33.3389
-173.64
-33.4815
-193.595
-33.7752
-212.852
-34.1656
-231.39
-34.6662
-249.6
-35.2601
-267.429
-35.9499
-285.061
-36.7293
-302.527
-37.5982
-319.921
-38.5538
-337.292
-39.5955
-354.702
-40.7221
-372.197
-41.9332
-389.825
-43.2285
-407.628
-44.608
-425.647
-46.0721
-443.918
-47.6211
-462.479
-49.2559
-481.363
-50.9771
-500.604
-52.7856
-520.232
-54.6821
-540.278
-56.6672
-560.769
-58.7407
-581.731
-60.902
-603.184
-63.1495
-625.145
-65.4804
-647.622
-67.8901
-670.614
-70.3725
-694.108
-72.9194
-718.076
-75.5207
-742.473
-78.1647
-767.233
-80.8389
-792.273
-83.5306
-817.493
-86.2282
-842.781
-88.9222
-868.028
-91.6061
-893.135
-94.2759
-918.032
-96.9303
-942.688
-99.5681
-967.121
-102.187
-991.397
-104.78
-1015.62
-107.337
-1039.91
-109.848
-1064.4
-112.304
-1089.2
-114.696
-1114.48
-117.005
-1140.46
-119.171
-1167.49
-121.076
-1195.9
-122.529
-1225.79
-123.283
-1256.79
-123.033
-1288.12
-121.418
-1318.56
-118.02
-1346.4
-112.346
-1369.44
-103.833
-1384.82
-91.8489
-1388.64
-75.7325
-1375.39
-54.9028
-1337.1
-29.0625
-1260.98
1.87793
-1128.52
35.1619
-904.011
75.3671
-520.621
105.129
300.959
102.512
839.648
87.4378
1249.92
75.7057
1592.36
67.3798
1908.82
60.5652
2192.79
53.3346
2398.31
47.2238
2583.86
39.3624
2662.11
37.1158
2831.59
29.4375
2771.06
37.4166
3105.54
37.2735
2761.39
49.2192
3422.94
4155.7
-34.9617
-123.039
-34.7099
-154.415
-34.7514
-173.599
-34.8963
-193.45
-35.1971
-212.551
-35.6
-230.987
-36.1174
-249.082
-36.7323
-266.814
-37.4468
-284.347
-38.2544
-301.719
-39.1549
-319.021
-40.1452
-336.302
-41.2246
-353.622
-42.3919
-371.029
-43.6466
-388.57
-44.9883
-406.286
-46.417
-424.218
-47.933
-442.402
-49.5368
-460.875
-51.2291
-479.671
-53.0106
-498.822
-54.8823
-518.36
-56.8447
-538.315
-58.8982
-558.716
-61.0427
-579.586
-63.2774
-600.949
-65.6003
-622.822
-68.0082
-645.214
-70.4959
-668.126
-73.0566
-691.547
-75.6813
-715.451
-78.3587
-739.795
-81.0762
-764.516
-83.8202
-789.529
-86.5774
-814.736
-89.3358
-840.023
-92.086
-865.277
-94.8223
-890.399
-97.5421
-915.312
-100.246
-939.985
-102.933
-964.433
-105.604
-988.726
-108.253
-1012.97
-110.869
-1037.3
-113.442
-1061.83
-115.965
-1086.68
-118.433
-1112.01
-120.829
-1138.07
-123.093
-1165.23
-125.098
-1193.9
-126.636
-1224.25
-127.443
-1255.98
-127.196
-1288.37
-125.517
-1320.24
-121.969
-1349.94
-116.043
-1375.36
-107.148
-1393.71
-94.6187
-1401.17
-77.7444
-1392.27
-55.8863
-1358.96
-28.6491
-1288.22
4.1155
-1161.29
39.7813
-939.677
83.2778
-564.117
118.525
265.712
118.211
839.963
101.143
1266.99
84.0778
1609.43
71.3174
1921.58
61.6156
2202.49
52.3139
2407.61
44.7467
2591.43
36.1296
2670.73
33.467
2834.25
25.8779
2778.65
33.8967
3097.52
33.5466
2761.74
44.9074
3411.58
4107.39
-36.3705
-123.485
-36.121
-154.664
-36.16
-173.56
-36.3098
-193.3
-36.6196
-212.241
-37.0365
-230.57
-37.5722
-248.547
-38.2093
-266.177
-38.9498
-283.606
-39.7868
-300.882
-40.7199
-318.088
-41.746
-335.276
-42.8642
-352.504
-44.0732
-369.82
-45.3724
-387.271
-46.7615
-404.897
-48.2404
-422.739
-49.8094
-440.834
-51.4689
-459.216
-53.2198
-477.92
-55.0628
-496.979
-56.9986
-516.424
-59.028
-536.286
-61.1512
-556.592
-63.368
-577.369
-65.6775
-598.64
-68.0773
-620.422
-70.5637
-642.727
-73.1312
-665.558
-75.7721
-688.906
-78.4765
-712.747
-81.2321
-737.04
-84.0254
-761.722
-86.8415
-786.713
-89.6665
-811.911
-92.4878
-837.201
-95.2964
-862.469
-98.087
-887.608
-100.859
-912.54
-103.613
-937.23
-106.353
-961.694
-109.079
-986.001
-111.785
-1010.27
-114.462
-1034.62
-117.099
-1059.19
-119.692
-1084.09
-122.24
-1109.46
-124.729
-1135.58
-127.101
-1162.86
-129.218
-1191.78
-130.857
-1222.61
-131.738
-1255.1
-131.517
-1288.59
-129.802
-1321.96
-126.139
-1353.61
-119.999
-1381.5
-110.768
-1402.94
-97.7421
-1414.2
-80.1597
-1409.85
-57.3224
-1381.79
-28.7307
-1316.81
5.80874
-1195.83
43.9568
-977.825
90.9348
-611.095
131.882
224.765
134.279
837.565
117.027
1284.24
94.9865
1631.47
76.6389
1939.93
63.2479
2215.88
51.4519
2419.41
42.1272
2600.75
32.5595
2680.3
29.382
2837.43
21.8394
2786.19
29.9752
3089.38
29.3864
2762.32
42.8784
3398.08
4063.64
-37.7683
-123.932
-37.5253
-154.907
-37.565
-173.52
-37.7221
-193.143
-38.0426
-211.921
-38.4752
-230.137
-39.0305
-247.991
-39.6912
-265.516
-40.4588
-282.839
-41.3264
-300.014
-42.2932
-317.121
-43.3561
-334.213
-44.5142
-351.346
-45.7659
-368.569
-47.1107
-385.926
-48.5481
-403.46
-50.0782
-421.209
-51.7012
-439.211
-53.4176
-457.499
-55.2281
-476.11
-57.1335
-495.074
-59.1347
-514.423
-61.2322
-534.189
-63.4264
-554.398
-65.7168
-575.079
-68.1024
-596.254
-70.5806
-617.944
-73.1473
-640.161
-75.7963
-662.909
-78.5194
-686.183
-81.3055
-709.961
-84.1417
-734.204
-87.0129
-758.851
-89.9036
-783.822
-92.7986
-809.016
-95.6851
-834.315
-98.5541
-859.6
-101.401
-884.761
-104.227
-909.715
-107.034
-934.423
-109.828
-958.899
-112.61
-983.218
-115.377
-1007.5
-118.118
-1031.88
-120.822
-1056.48
-123.488
-1081.42
-126.119
-1106.83
-128.708
-1132.99
-131.196
-1160.37
-133.439
-1189.54
-135.197
-1220.85
-136.172
-1254.12
-136.003
-1288.76
-134.281
-1323.68
-130.538
-1357.35
-124.226
-1387.82
-114.706
-1412.46
-101.236
-1427.67
-83.0057
-1428.08
-59.265
-1405.53
-29.4217
-1346.65
6.74513
-1231.99
47.3489
-1018.43
97.7727
-661.519
145.16
177.377
150.365
832.361
134.378
1300.23
108.534
1657.31
83.8028
1964.66
65.6579
2234.03
50.835
2434.23
39.4289
2612.16
28.6952
2691.03
24.8925
2841.23
17.3435
2793.74
25.6414
3081.09
24.7856
2763.18
36.708
3386.16
4019.21
-39.1565
-124.375
-38.9237
-155.14
-38.9669
-173.477
-39.1337
-192.976
-39.4668
-211.588
-39.9168
-229.687
-40.4931
-247.415
-41.1787
-264.831
-41.9746
-282.043
-42.874
-299.115
-43.8757
-316.119
-44.9765
-333.112
-46.1755
-350.147
-47.471
-367.273
-48.8624
-384.535
-50.3493
-401.973
-51.9317
-419.627
-53.6097
-437.532
-55.384
-455.725
-57.2552
-474.238
-59.2243
-493.105
-61.2919
-512.356
-63.4588
-532.022
-65.7252
-552.132
-68.0907
-572.714
-70.5539
-593.791
-73.1121
-615.386
-75.7607
-637.512
-78.4933
-660.177
-81.3005
-683.376
-84.1708
-707.091
-87.0898
-731.284
-90.0415
-755.899
-93.0091
-780.855
-95.9766
-806.048
-98.9307
-831.361
-101.862
-856.668
-104.768
-881.855
-107.649
-906.834
-110.511
-931.56
-113.362
-956.049
-116.203
-980.377
-119.032
-1004.67
-121.84
-1029.07
-124.615
-1053.71
-127.356
-1078.68
-130.074
-1104.11
-132.768
-1130.29
-135.384
-1157.75
-137.767
-1187.16
-139.662
-1218.96
-140.754
-1253.03
-140.664
-1288.85
-138.967
-1325.38
-135.18
-1361.14
-128.74
-1394.26
-118.98
-1422.22
-105.126
-1441.52
-86.3297
-1446.87
-61.8165
-1430.05
-30.9349
-1377.53
6.54957
-1269.48
49.3881
-1061.27
102.828
-714.96
158.17
122.036
166.236
824.294
152.505
1313.96
124.487
1685.33
93.2616
1995.89
69.1587
2258.13
50.5714
2452.82
36.719
2626.01
24.5854
2703.16
20.0348
2845.78
12.4198
2801.35
20.9132
3072.59
19.8668
2764.23
31.0607
3374.97
3972.37
-40.5365
-124.808
-40.3172
-155.359
-40.3667
-173.427
-40.5455
-192.797
-40.893
-211.24
-41.3619
-229.218
-41.9606
-246.816
-42.6725
-264.119
-43.498
-281.217
-44.4303
-298.183
-45.468
-315.081
-46.608
-331.972
-47.849
-348.906
-49.1894
-365.933
-50.6285
-383.096
-52.166
-400.436
-53.8017
-417.991
-55.5359
-435.798
-57.3692
-453.892
-59.3023
-472.305
-61.3361
-491.071
-63.4715
-510.22
-65.7091
-529.784
-68.0491
-549.792
-70.491
-570.272
-73.0334
-591.249
-75.6733
-612.746
-78.4058
-634.779
-81.2238
-657.359
-84.1175
-680.482
-87.0742
-704.134
-90.0786
-728.28
-93.1134
-752.865
-96.1606
-777.808
-99.2032
-803.006
-102.227
-828.337
-105.224
-853.672
-108.19
-878.889
-111.129
-903.895
-114.048
-928.641
-116.957
-953.14
-119.86
-977.474
-122.755
-1001.77
-125.632
-1026.2
-128.48
-1050.86
-131.3
-1075.86
-134.109
-1101.3
-136.915
-1127.49
-139.67
-1155
-142.208
-1184.62
-144.261
-1216.9
-145.494
-1251.8
-145.51
-1288.84
-143.871
-1327.02
-140.079
-1364.93
-133.554
-1400.78
-123.609
-1432.17
-109.447
-1455.68
-90.2183
-1466.1
-65.1725
-1455.09
-33.6546
-1409.05
4.58664
-1307.72
49.1744
-1105.86
104.51
-770.295
169.954
56.5924
181.666
812.582
170.908
1324.72
142.333
1713.91
105.293
2032.92
74.1834
2289.24
50.8235
2476.18
34.0665
2642.77
20.2784
2716.95
14.8457
2851.21
7.09817
2809.1
15.8757
3063.81
14.6421
2765.46
28.6836
3360.93
3928.28
-41.9098
-125.23
-41.7066
-155.563
-41.765
-173.369
-41.958
-192.604
-42.3218
-210.876
-42.8113
-228.729
-43.4339
-246.194
-44.1734
-263.379
-45.0298
-280.361
-45.9962
-297.216
-47.0712
-314.006
-48.2514
-330.792
-49.5355
-347.622
-50.922
-364.546
-52.41
-381.608
-53.9991
-398.847
-55.6893
-416.301
-57.4808
-434.007
-59.3743
-451.998
-61.3706
-470.309
-63.4704
-488.971
-65.6748
-508.016
-67.9844
-527.474
-70.3994
-547.377
-72.9194
-567.752
-75.5426
-588.626
-78.266
-610.023
-81.0843
-631.961
-83.99
-654.453
-86.9724
-677.5
-90.018
-701.088
-93.1104
-725.188
-96.2311
-749.744
-99.3607
-774.678
-102.481
-799.885
-105.578
-825.24
-108.642
-850.608
-111.67
-875.861
-114.669
-900.897
-117.647
-925.663
-120.617
-950.171
-123.584
-974.506
-126.548
-998.811
-129.498
-1023.25
-132.421
-1047.94
-135.323
-1072.96
-138.226
-1098.4
-141.152
-1124.56
-144.057
-1152.09
-146.769
-1181.91
-149
-1214.67
-150.4
-1250.4
-150.552
-1288.68
-149.004
-1328.56
-145.246
-1368.69
-138.682
-1407.35
-128.618
-1442.23
-114.272
-1470.03
-94.8489
-1485.53
-69.7017
-1480.24
-38.2306
-1440.52
-0.122106
-1345.83
45.437
-1151.41
102.324
-827.182
176.866
-17.9501
196.332
793.116
189.314
1331.74
161.437
1741.78
119.87
2074.49
81.2053
2327.9
51.8492
2505.53
31.5525
2663.07
15.8192
2732.68
9.35837
2857.68
1.40123
2817.06
10.4887
3054.73
9.00395
2766.95
20.6608
3349.27
3884.35
-43.2775
-125.636
-43.0928
-155.747
-43.1627
-173.299
-43.372
-192.395
-43.7538
-210.495
-44.2655
-228.217
-44.9135
-245.546
-45.682
-262.611
-46.5706
-279.472
-47.5725
-296.214
-48.6859
-312.893
-49.9076
-329.57
-51.2361
-346.294
-52.6698
-363.113
-54.2078
-380.07
-55.8498
-397.205
-57.5957
-414.555
-59.4458
-432.157
-61.4007
-450.043
-63.4613
-468.248
-65.6285
-486.804
-67.9032
-505.741
-70.2863
-525.091
-72.7778
-544.885
-75.3774
-565.152
-78.0832
-585.92
-80.8919
-607.214
-83.7981
-629.055
-86.7937
-651.458
-89.8673
-674.426
-93.0045
-697.951
-96.1878
-722.004
-99.3973
-746.535
-102.612
-771.463
-105.814
-796.684
-108.985
-822.068
-112.119
-847.475
-115.213
-872.767
-118.273
-897.836
-121.312
-922.623
-124.345
-947.138
-127.38
-971.471
-130.416
-995.774
-133.442
-1020.22
-136.444
-1044.94
-139.43
-1069.97
-142.432
-1095.4
-145.484
-1121.51
-148.551
-1149.03
-151.454
-1179
-153.887
-1212.24
-155.481
-1248.81
-155.801
-1288.36
-154.379
-1329.99
-150.691
-1372.37
-144.143
-1413.89
-134.065
-1452.31
-119.755
-1484.34
-100.572
-1504.71
-76.0506
-1504.76
-45.6622
-1470.91
-8.90559
-1382.58
36.5742
-1196.89
95.019
-885.627
177.896
-100.827
209.851
761.161
207.604
1333.98
181.218
1768.17
136.64
2119.07
90.5938
2373.95
54.0193
2542.11
29.2954
2687.79
11.2523
2750.73
3.59185
2865.34
-4.64531
2825.29
4.82365
3045.26
3.16312
2768.61
17.1014
3335.33
3838.96
-44.641
-126.025
-44.4769
-155.911
-44.5607
-173.215
-44.7883
-192.167
-45.19
-210.093
-45.7255
-227.682
-46.4004
-244.871
-47.1993
-261.812
-48.1214
-278.55
-49.1601
-295.176
-50.3133
-311.74
-51.5777
-328.305
-52.9517
-344.919
-54.4338
-361.631
-56.0232
-378.48
-57.7193
-395.509
-59.5221
-412.752
-61.4319
-430.247
-63.4495
-448.026
-65.5758
-466.122
-67.8116
-484.568
-70.1582
-503.395
-72.6161
-522.634
-75.1858
-542.316
-77.8666
-562.471
-80.6569
-583.13
-83.553
-604.318
-86.5492
-626.059
-89.637
-648.37
-92.8045
-671.259
-96.0362
-694.719
-99.3134
-718.727
-102.615
-743.233
-105.918
-768.159
-109.203
-793.399
-112.453
-818.818
-115.659
-844.269
-118.82
-869.606
-121.945
-894.712
-125.047
-919.521
-128.146
-944.04
-131.251
-968.365
-134.362
-992.663
-137.467
-1017.12
-140.552
-1041.85
-143.624
-1066.9
-146.729
-1092.29
-149.915
-1118.32
-153.159
-1145.78
-156.272
-1175.89
-158.932
-1209.58
-160.749
-1246.99
-161.266
-1287.85
-160.002
-1331.25
-156.429
-1375.95
-149.979
-1420.34
-140.079
-1462.21
-126.221
-1498.2
-108.028
-1522.9
-85.2513
-1527.54
-57.3258
-1498.84
-23.3187
-1416.59
20.937
-1241.15
80.207
-944.897
173.588
-194.207
221.649
713.1
225.682
1329.95
201.277
1792.57
155.037
2165.31
102.477
2426.51
57.7802
2586.81
27.4858
2718.08
6.62867
2771.59
-2.43646
2874.4
-11.0187
2833.88
-1.12457
3035.36
-3.03342
2770.51
9.14357
3323.15
3798.15
-46.0015
-126.394
-45.8598
-156.053
-45.9598
-173.115
-46.2076
-191.92
-46.631
-209.67
-47.192
-227.121
-47.8953
-244.168
-48.7261
-260.981
-49.6831
-277.593
-50.7598
-294.099
-51.9541
-310.546
-53.2625
-326.997
-54.6835
-343.498
-56.2153
-360.099
-57.8572
-376.838
-59.6086
-393.757
-61.4696
-410.891
-63.4406
-428.276
-65.5222
-445.944
-67.7155
-463.929
-70.0215
-482.262
-72.4413
-500.975
-74.9757
-520.099
-77.6251
-539.666
-80.389
-559.707
-83.2655
-580.253
-86.2511
-601.332
-89.3397
-622.97
-92.5223
-645.187
-95.7864
-667.995
-99.1155
-691.39
-102.49
-715.353
-105.886
-739.836
-109.282
-764.764
-112.654
-790.027
-115.985
-815.487
-119.266
-840.988
-122.497
-866.375
-125.688
-891.522
-128.856
-916.352
-132.022
-940.874
-135.201
-965.187
-138.392
-989.472
-141.58
-1013.93
-144.75
-1038.68
-147.912
-1063.74
-151.123
-1089.08
-154.451
-1114.99
-157.885
-1142.35
-161.23
-1172.54
-164.143
-1206.67
-166.211
-1244.92
-166.955
-1287.1
-165.883
-1332.32
-162.485
-1379.35
-156.29
-1426.54
-146.948
-1471.55
-134.29
-1510.85
-118.281
-1538.91
-98.776
-1547.04
-74.8773
-1522.74
-44.8437
-1446.62
-2.64314
-1283.35
56.8243
-1004.36
162.567
-299.95
230.799
644.868
243.31
1317.44
221.416
1814.47
174.457
2212.27
116.684
2484.28
63.5562
2639.93
26.4162
2755.22
2.03701
2795.96
-8.69404
2885.13
-17.6594
2842.84
-7.38134
3025.09
-9.45349
2772.59
2.35481
3311.35
3751.49
-47.36
-126.74
-47.2425
-156.171
-47.3609
-172.997
-47.6309
-191.65
-48.0777
-209.223
-48.6659
-226.532
-49.3991
-243.434
-50.2632
-260.117
-51.2566
-276.6
-52.3728
-292.983
-53.6095
-309.309
-54.9632
-325.643
-56.4324
-342.029
-58.0152
-358.516
-59.711
-375.143
-61.5191
-391.949
-63.4397
-408.971
-65.4731
-426.242
-67.6201
-443.797
-69.8819
-461.667
-72.2595
-479.884
-74.7541
-498.48
-77.3666
-517.487
-80.0975
-536.935
-82.9463
-556.859
-85.9112
-577.288
-88.9885
-598.255
-92.1718
-619.787
-95.4519
-641.907
-98.8154
-664.631
-102.245
-687.96
-105.72
-711.878
-109.215
-736.341
-112.706
-761.273
-116.169
-786.564
-119.584
-812.071
-122.944
-837.629
-126.247
-863.072
-129.506
-888.262
-132.742
-913.116
-135.979
-937.637
-139.234
-961.931
-142.509
-986.197
-145.785
-1010.65
-149.043
-1035.42
-152.298
-1060.48
-155.618
-1085.76
-159.095
-1111.52
-162.736
-1138.71
-166.336
-1168.95
-169.529
-1203.47
-171.876
-1242.57
-172.875
-1286.1
-172.037
-1333.16
-168.933
-1382.45
-163.321
-1432.15
-155.256
-1479.62
-145.038
-1521.07
-132.903
-1551.05
-118.458
-1561.49
-99.9822
-1541.21
-74.4681
-1472.14
-34.4067
-1323.41
25.3759
-1064.15
144.414
-418.988
236.081
553.201
259.947
1293.57
241.565
1832.85
194.427
2259.41
132.795
2545.92
71.6279
2701.1
26.4773
2800.37
-2.39046
2824.83
-15.1326
2897.87
-24.5203
2852.23
-13.8949
3014.46
-16.0671
2774.76
0.199498
3295.08
3706.34
-48.7179
-127.063
-48.626
-156.262
-48.765
-172.858
-49.059
-191.355
-49.5311
-208.751
-50.148
-225.916
-50.9127
-242.67
-51.8117
-259.218
-52.8429
-275.569
-54
-291.826
-55.2805
-308.028
-56.681
-324.243
-58.1997
-340.511
-59.8349
-356.881
-61.5859
-373.392
-63.4521
-390.083
-65.4336
-406.989
-67.5309
-424.145
-69.7449
-441.583
-72.0766
-459.335
-74.5273
-477.434
-77.0983
-495.909
-79.7907
-514.794
-82.6049
-534.121
-85.5406
-553.923
-88.5959
-574.233
-91.7672
-595.084
-95.0478
-616.506
-98.4282
-638.527
-101.894
-661.165
-105.428
-684.427
-109.007
-708.299
-112.605
-732.743
-116.195
-757.683
-119.752
-783.008
-123.255
-808.567
-126.695
-834.188
-130.073
-859.694
-133.403
-884.932
-136.71
-909.81
-140.02
-934.326
-143.356
-958.596
-146.718
-982.835
-150.087
-1007.28
-153.438
-1032.07
-156.788
-1057.13
-160.22
-1082.33
-163.855
-1107.88
-167.719
-1134.84
-171.597
-1165.07
-175.096
-1199.97
-177.748
-1239.92
-179.031
-1284.82
-178.511
-1333.68
-175.968
-1384.99
-171.599
-1436.52
-166.061
-1485.15
-160.118
-1527.01
-153.917
-1557.25
-146.208
-1569.2
-133.906
-1553.51
-112.49
-1493.55
-73.7044
-1362.2
-12.3152