/*--------------------------------*- C++ -*----------------------------------*\
| =========                 |                                                 |
| \\      /  F ield         | OpenFOAM: The Open Source CFD Toolbox           |
|  \\    /   O peration     | Version:  4.1                                   |
|   \\  /    A nd           | Web:      www.OpenFOAM.org                      |
|    \\/     M anipulation  |                                                 |
\*---------------------------------------------------------------------------*/
FoamFile
{
    version     2.0;
    format      ascii;
    class       volVectorField;
    location    "10";
    object      U;
}
// * * * * * * * * * * * * * * * * * * * * * * * * * * * * * * * * * * * * * //

dimensions      [0 1 -1 0 0 0 0];

internalField   nonuniform List<vector> 
6785
(
(1.2779e-14 -2.31187 16.5334)
(1.12566e-14 -7.92434 12.9731)
(-3.11943e-15 -5.12768 13.7667)
(4.02743e-15 -5.0803 13.2656)
(9.47758e-16 -4.29748 13.1211)
(-1.43653e-16 -3.88836 12.8304)
(2.62888e-15 -3.48053 12.5393)
(6.57303e-16 -3.18305 12.1895)
(-7.01441e-16 -2.94769 11.7901)
(1.60134e-15 -2.80257 11.3476)
(2.62249e-16 -2.73585 10.9287)
(-4.4959e-16 -2.76841 10.591)
(8.91196e-16 -3.24186 10.0879)
(-4.92421e-17 -3.37471 9.24216)
(-5.24939e-16 -0.0775764 7.44186)
(1.88321e-14 -10.1596 26.8613)
(1.36666e-14 -16.3146 22.9596)
(-2.79264e-15 -11.1129 23.3477)
(4.90209e-15 -12.0365 21.4241)
(9.73359e-16 -10.3088 20.5403)
(1.29072e-15 -9.75737 19.2472)
(2.49022e-15 -8.82987 18.1419)
(2.87526e-16 -8.17057 17.0553)
(2.41164e-16 -7.57161 16.1182)
(1.16416e-15 -7.11005 15.2225)
(8.22448e-18 -6.64371 14.1809)
(3.45739e-16 -5.97402 12.7869)
(9.42257e-16 -4.90162 10.5032)
(-4.96836e-16 -2.94782 5.96438)
(-7.04888e-16 0.121862 -0.600743)
(1.95183e-14 -12.6032 27.7165)
(1.18794e-14 -16.4903 24.3872)
(-1.96807e-15 -11.6451 24.271)
(3.66736e-15 -12.7317 21.674)
(1.08772e-15 -10.535 20.6409)
(1.33493e-15 -10.0876 18.8535)
(6.36462e-16 -8.9039 17.4978)
(1.72715e-16 -8.07541 15.9523)
(-5.16025e-17 -7.05536 14.2984)
(-7.16108e-16 -6.14241 12.4162)
(-3.33823e-16 -5.5431 10.7003)
(-1.22592e-15 -5.35747 9.4085)
(-3.98132e-15 -4.83664 7.73997)
(-1.90415e-15 -2.97921 4.26954)
(-1.20973e-15 -1.43339 0.188149)
(2.10652e-14 -13.8089 28.028)
(8.69589e-15 -16.319 25.0795)
(-8.91514e-16 -12.3563 24.6752)
(2.64261e-15 -13.237 22.0604)
(2.05611e-16 -10.9605 21.1142)
(1.42256e-15 -10.6435 19.3115)
(-3.16316e-16 -9.33652 18.1133)
(-6.61298e-16 -8.40058 16.42)
(2.43827e-16 -6.68406 13.9097)
(-1.50735e-16 -4.40884 10.01)
(1.12852e-15 -2.19579 6.00425)
(3.01391e-15 -1.35034 3.86304)
(1.2808e-15 -1.95945 3.88871)
(-5.88958e-16 -3.13944 5.01443)
(2.5837e-15 -3.16132 6.08012)
(2.18647e-14 -14.8297 29.3601)
(7.91928e-15 -17.0381 26.5169)
(-6.08511e-16 -13.3016 26.0195)
(2.60538e-15 -14.2803 23.469)
(3.12046e-16 -11.8944 22.6377)
(1.6254e-15 -11.9061 20.7868)
(-1.60729e-16 -10.5112 19.7685)
(-2.36393e-16 -9.88237 18.1317)
(4.19442e-16 -8.18735 15.7842)
(8.96343e-16 -5.6853 11.5737)
(4.33369e-15 -2.37341 6.4166)
(8.50746e-15 0.280563 2.10506)
(1.16133e-14 2.17913 -0.927027)
(1.07362e-14 2.80192 -2.33034)
(5.62257e-15 1.15457 -1.04932)
(2.08177e-14 -14.8862 28.6746)
(9.90319e-15 -17.9617 27.9626)
(-9.03763e-16 -13.9806 26.4048)
(2.4806e-15 -14.8862 23.7518)
(6.09786e-16 -12.7019 22.818)
(8.87065e-16 -12.7608 20.8601)
(4.0163e-16 -11.5409 19.6946)
(8.4415e-17 -11.0786 18.1041)
(-1.9132e-16 -10.017 16.3409)
(3.30899e-16 -8.5408 13.6537)
(1.73451e-15 -6.29049 10.0886)
(2.79405e-15 -3.58039 6.11136)
(5.11461e-15 -0.48329 1.55159)
(-5.16121e-16 3.28848 -3.13287)
(5.04977e-15 2.37022 -6.49833)
(1.99179e-14 -14.022 26.1713)
(1.28633e-14 -18.0016 28.3697)
(3.41376e-16 -14.1241 25.7533)
(2.02191e-15 -14.4106 22.817)
(1.54823e-15 -12.575 21.6394)
(1.48987e-15 -12.349 19.6367)
(1.00452e-15 -11.2654 18.2092)
(9.81323e-16 -10.6531 16.5333)
(1.37456e-15 -9.82835 14.896)
(9.53109e-16 -8.88344 13.0157)
(1.02002e-15 -7.66799 10.7788)
(2.45954e-15 -5.97825 8.18338)
(3.46542e-15 -4.05518 5.01747)
(8.65532e-16 -1.15009 1.51595)
(1.30761e-15 1.08092 -3.94232)
(1.85693e-14 -13.0006 23.7589)
(1.50269e-14 -17.5049 28.1569)
(2.10105e-15 -13.9924 25.0698)
(1.69404e-15 -13.6442 21.8917)
(2.02451e-15 -12.0024 20.5461)
(2.16627e-15 -11.5577 18.5849)
(1.52917e-15 -10.4839 17.0651)
(1.51042e-15 -9.7293 15.3758)
(2.11825e-15 -8.8778 13.7936)
(2.06402e-15 -8.01916 12.2091)
(1.65978e-15 -7.13037 10.545)
(2.03792e-15 -5.96472 8.72379)
(3.01532e-15 -4.65522 6.42434)
(1.73357e-15 -2.431 3.47758)
(-5.44133e-15 -0.133124 -1.76176)
(1.83824e-14 -12.2745 22.2109)
(1.64947e-14 -16.9093 27.7135)
(2.54101e-15 -13.91 24.646)
(1.80036e-15 -13.1156 21.3493)
(2.35351e-15 -11.6223 19.8299)
(1.34641e-15 -11.0748 17.9903)
(2.17541e-15 -10.0928 16.5158)
(2.29844e-15 -9.34029 14.9585)
(8.42066e-16 -8.5399 13.5058)
(2.2812e-15 -7.75449 12.0929)
(2.83224e-15 -6.99719 10.6701)
(7.54507e-17 -6.10088 9.23313)
(1.91585e-15 -5.16443 7.57228)
(2.52798e-15 -3.55617 5.52228)
(-8.13818e-15 -1.08504 0.644169)
(1.77259e-14 -11.8921 21.4675)
(1.75099e-14 -16.2359 26.9244)
(3.08536e-15 -13.6456 24.0187)
(-3.2317e-16 -12.6539 20.6375)
(2.47011e-15 -11.2582 19.0256)
(8.92515e-16 -10.7549 17.3244)
(-9.87762e-16 -9.93747 15.9575)
(1.34329e-15 -9.30894 14.5008)
(1.35104e-16 -8.62946 13.0794)
(-2.42953e-15 -7.96586 11.6894)
(-4.34688e-16 -7.36212 10.4479)
(-7.77485e-16 -6.80136 9.53999)
(-2.7693e-15 -6.31234 8.87031)
(9.49503e-16 -5.32702 8.02281)
(-5.08699e-15 -3.02 4.1749)
(1.59543e-14 -11.8672 21.4209)
(1.68753e-14 -15.2389 25.749)
(-1.65862e-15 -12.9066 22.8432)
(-9.24309e-16 -11.8153 19.5925)
(3.17861e-15 -10.3246 17.9394)
(-4.85294e-15 -9.70278 15.9921)
(-1.67984e-15 -8.72664 14.4003)
(2.46725e-15 -8.13659 12.722)
(-5.8206e-15 -7.56777 11.2882)
(-3.61736e-15 -7.30075 10.2443)
(2.17164e-15 -7.36113 10.0026)
(-5.08159e-15 -7.76214 10.6228)
(-6.03273e-15 -8.06939 11.6727)
(-6.55309e-15 -7.79448 11.9492)
(-9.38276e-15 -5.52927 9.04484)
(1.58568e-14 -13.0339 23.4192)
(1.19697e-14 -14.313 24.8347)
(-5.71526e-15 -12.2214 22.3896)
(9.28375e-16 -11.1648 20.0327)
(1.60119e-15 -9.33928 17.8887)
(-2.26062e-15 -7.79993 15.0765)
(5.17331e-15 -6.067 12.4571)
(7.87028e-15 -4.73478 9.9518)
(4.96509e-15 -3.71316 8.0924)
(6.02689e-15 -3.60207 7.53376)
(1.92078e-15 -4.65129 8.90889)
(-5.11464e-15 -6.63202 11.7557)
(-4.68021e-15 -8.55002 14.7209)
(-9.80234e-15 -9.5521 15.8472)
(-1.07085e-14 -6.98393 12.638)
(1.4248e-14 -14.442 25.5473)
(9.81696e-15 -16.8225 28.1879)
(-5.60354e-15 -13.5569 24.555)
(3.73426e-16 -12.6812 22.7782)
(9.43018e-16 -10.8963 20.8398)
(1.32784e-15 -8.99244 17.7718)
(7.34019e-15 -6.75407 14.7699)
(1.12669e-14 -4.77034 11.8707)
(1.19241e-14 -2.81426 9.19468)
(1.06739e-14 -1.21505 6.87945)
(5.54766e-15 -0.320823 5.48492)
(-1.38332e-16 -0.853043 5.93735)
(-3.24319e-15 -3.18714 8.73222)
(-6.08579e-15 -6.09233 11.9387)
(-6.68976e-15 -5.29606 10.5165)
(1.13962e-14 -11.895 20.1505)
(1.32576e-14 -18.8775 29.834)
(1.49859e-15 -17.4262 28.3554)
(-3.86506e-16 -15.3783 25.1354)
(-3.32047e-16 -13.3375 22.7457)
(9.22501e-16 -11.6734 20.2685)
(5.26629e-15 -9.77087 17.7861)
(8.52871e-15 -8.02878 15.1605)
(1.02219e-14 -6.15622 12.4847)
(9.10494e-15 -4.26278 9.62385)
(6.29904e-15 -2.35472 6.76809)
(1.85309e-15 -0.701851 4.12986)
(1.30485e-15 0.41845 2.06307)
(5.78259e-15 0.319115 1.61112)
(3.6477e-15 -1.00863 2.86654)
(6.04191e-15 -5.96534 9.97335)
(1.47777e-14 -16.2397 24.188)
(1.36009e-14 -20.9028 29.975)
(9.6071e-15 -21.8117 29.9275)
(5.77491e-15 -20.7787 27.2781)
(2.94399e-15 -19.0084 23.7104)
(1.93028e-15 -16.8193 20.0935)
(2.08275e-15 -14.6608 16.9625)
(4.28618e-15 -12.6042 14.1354)
(6.99713e-15 -10.6174 11.7049)
(9.03838e-15 -8.74032 9.60098)
(1.00491e-14 -6.95462 7.71892)
(9.76668e-15 -5.17473 5.81533)
(1.08905e-14 -3.04176 3.654)
(1.45288e-14 -0.331891 -0.0760802)
(5.16112e-16 4.29056 0.434799)
(-3.54381e-16 1.19849 -0.366531)
(-8.85978e-17 -0.0403361 -0.356225)
(2.01721e-16 0.262562 -0.319553)
(5.57277e-16 0.219129 -0.242857)
(6.3413e-16 0.33623 -0.38182)
(7.85844e-16 0.319503 -0.228174)
(1.1046e-15 0.38265 -0.242826)
(1.19241e-15 0.370935 -0.269811)
(3.76303e-15 0.539669 -0.417974)
(3.74974e-15 0.477955 -0.309267)
(3.79984e-15 0.519301 -0.342922)
(4.90437e-15 0.711947 -0.470931)
(3.64729e-15 0.581099 -0.356928)
(3.61985e-15 0.665779 -0.395313)
(3.46768e-15 0.653918 -0.43794)
(4.65626e-15 0.848178 -0.556908)
(3.42416e-15 0.715329 -0.42136)
(3.13156e-15 0.771948 -0.449056)
(4.39337e-15 0.987772 -0.543524)
(3.14547e-15 0.782601 -0.412628)
(3.11624e-15 0.889854 -0.437981)
(2.95607e-15 0.865703 -0.464081)
(4.38612e-15 1.09507 -0.532496)
(3.15802e-15 0.865769 -0.400542)
(3.20833e-15 0.976353 -0.414755)
(2.73975e-15 0.951703 -0.432342)
(3.99354e-15 1.1538 -0.472855)
(2.78352e-15 0.932343 -0.363487)
(2.41382e-15 0.994096 -0.374769)
(3.43153e-15 1.20523 -0.391569)
(2.13003e-15 0.914315 -0.317934)
(1.8996e-15 1.02505 -0.325318)
(1.61083e-15 0.994593 -0.325354)
(2.33976e-15 1.16844 -0.301356)
(1.41415e-15 0.921015 -0.231119)
(1.20402e-15 0.972301 -0.223399)
(1.75753e-15 1.15829 -0.161495)
(1.07699e-15 0.86383 -0.125962)
(1.07549e-15 0.959099 -0.117553)
(9.91254e-16 0.912155 -0.10177)
(1.6633e-15 1.09168 -0.0281187)
(1.09151e-15 0.837657 -0.00869256)
(1.12044e-15 0.919018 0.00327735)
(1.00232e-15 0.864365 0.0408814)
(2.30458e-15 1.03701 0.0146599)
(1.68922e-15 0.899021 0.0517199)
(1.66992e-15 0.91349 0.0796365)
(2.57968e-15 1.10696 0.134157)
(1.98724e-15 0.928129 0.188848)
(2.07602e-15 0.992373 0.22295)
(2.14116e-15 0.925289 0.245335)
(2.94546e-15 1.02758 0.40182)
(2.74992e-15 0.810908 0.279903)
(2.84562e-15 0.845412 0.278876)
(3.09773e-15 0.800065 0.304992)
(4.54589e-15 0.776821 0.262862)
(4.45835e-15 0.543632 -0.0890021)
(4.12098e-15 0.555451 -0.0314748)
(7.82568e-15 0.542913 -0.938174)
(8.02363e-15 0.122462 -1.41301)
(8.02249e-15 0.211505 -1.56684)
(8.39658e-15 0.347974 -1.7855)
(4.45415e-15 0.734001 -2.3991)
(-9.58774e-15 -0.429169 0.45451)
(-7.89936e-15 -0.0442135 0.0326669)
(-1.22174e-14 -0.508371 1.53882)
(-1.04698e-14 -1.19071 2.56953)
(-9.04802e-15 -1.29251 2.42173)
(-8.12147e-15 -1.28318 2.55393)
(-9.99389e-15 -2.28664 4.81231)
(-6.95309e-15 -2.75778 4.59131)
(-5.88732e-15 -3.13492 4.69437)
(-5.16077e-15 -3.08785 4.8686)
(-7.21913e-15 -4.8058 7.92238)
(-5.61894e-15 -5.11636 6.62519)
(-6.13858e-15 -5.16847 7.08271)
(-1.04892e-14 -7.35715 10.7844)
(-9.02714e-15 -7.35188 8.57667)
(-1.03547e-14 -7.72363 9.1879)
(-1.12307e-14 -8.31503 10.4543)
(-1.28132e-14 -8.27287 10.1685)
(-1.37629e-14 -8.34937 10.2482)
(-2.00112e-14 -10.1139 12.8957)
(-1.50488e-14 -9.33107 11.1873)
(-1.48329e-14 -9.59958 11.5499)
(-1.34915e-14 -9.59011 11.5382)
(-1.20493e-14 -9.69207 11.535)
(-1.05341e-14 -9.76084 11.5735)
(-9.2404e-15 -9.84891 11.6362)
(-8.38339e-15 -9.92397 11.8082)
(-8.20886e-15 -9.99457 12.0676)
(-1.25427e-14 -11.0513 14.0789)
(-1.03085e-14 -10.7738 12.9103)
(-1.19486e-14 -10.9578 13.0501)
(-1.34409e-14 -10.9184 13.1231)
(-1.49258e-14 -11.0801 13.4822)
(-1.62693e-14 -11.0586 13.5592)
(-1.72072e-14 -11.1606 13.7641)
(-1.77307e-14 -11.2055 13.9992)
(-1.79278e-14 -11.2918 14.3151)
(-2.10198e-14 -12.1807 16.7297)
(-1.63923e-14 -11.8548 15.7928)
(-1.58012e-14 -11.9873 16.3325)
(-1.51932e-14 -11.9992 16.6113)
(-1.50037e-14 -12.0784 16.9583)
(-1.5211e-14 -12.1197 17.3877)
(-1.58061e-14 -12.2348 17.8842)
(-1.63649e-14 -12.2644 18.2005)
(-1.6941e-14 -12.3459 18.5872)
(-1.72781e-14 -12.5108 18.9436)
(-1.88393e-14 -12.6387 20.5457)
(-1.50163e-14 -12.543 19.5495)
(-1.30076e-14 -12.6717 19.8361)
(-1.03493e-14 -12.6808 19.8885)
(-7.51625e-15 -12.7758 20.0098)
(-4.67593e-15 -12.7962 20.1665)
(-2.28847e-15 -12.8943 20.6081)
(-1.73263e-16 -12.8824 20.8656)
(1.38754e-15 -13.0965 21.0372)
(3.92978e-15 -12.1639 20.8663)
(3.52181e-15 -12.4062 20.4359)
(4.21927e-15 -12.4357 20.8956)
(4.42324e-15 -12.4652 21.2385)
(4.8045e-15 -12.4333 21.2752)
(5.13706e-15 -12.4776 21.3747)
(5.53986e-15 -12.4883 21.433)
(5.94252e-15 -12.4044 21.5301)
(6.41927e-15 -12.7317 21.9169)
(6.88041e-15 -10.1457 18.7938)
(6.60821e-15 -11.1937 19.5775)
(6.57666e-15 -11.1026 19.1483)
(6.50305e-15 -11.0806 18.8679)
(6.73207e-15 -11.0463 18.8001)
(6.65995e-15 -10.9706 18.3598)
(6.61526e-15 -10.8408 17.8561)
(6.71949e-15 -10.6949 17.4375)
(6.90029e-15 -10.821 16.9964)
(7.16776e-15 -7.50339 12.8361)
(8.07997e-15 -8.91935 15.8505)
(8.27137e-15 -8.55279 15.5469)
(8.52877e-15 -8.5402 15.6838)
(8.80758e-15 -8.31967 15.6688)
(9.17039e-15 -8.26199 15.6341)
(9.88643e-15 -8.05667 15.425)
(9.50443e-15 -7.92949 15.0063)
(9.31789e-15 -7.71232 14.3924)
(8.80135e-15 -7.67102 13.3979)
(5.84025e-15 -3.73998 6.4978)
(7.37853e-15 -5.75967 9.73665)
(6.49415e-15 -5.25257 7.79466)
(5.92594e-15 -5.41789 6.95633)
(5.16731e-15 -5.05731 5.61207)
(4.29008e-15 -4.98436 4.20122)
(2.94789e-15 -4.75896 2.0869)
(1.80537e-15 -4.38787 0.358631)
(1.86079e-15 -4.4648 0.620232)
(4.55646e-16 -3.71422 -1.6373)
(1.53621e-15 -3.84135 0.0654935)
(1.14015e-15 -3.84496 -0.227354)
(-1.55961e-16 -2.74347 -1.52345)
(6.3245e-16 -4.39272 -1.18639)
(1.52911e-16 -3.37771 -1.04792)
(1.77087e-16 -3.08792 -0.701534)
(1.55429e-16 -3.86981 -1.00314)
(1.17823e-16 -2.71451 -0.604562)
(1.79824e-16 -3.43321 -0.892269)
(3.19779e-16 -3.17657 -0.66845)
(2.64973e-16 -2.63278 -0.480496)
(3.52489e-16 -3.13577 -0.703079)
(2.53605e-16 -2.97769 -0.534239)
(1.67612e-16 -2.54533 -0.380264)
(1.63979e-16 -3.38074 -0.532444)
(6.11589e-17 -2.35667 -0.325186)
(2.31117e-17 -3.05875 -0.46508)
(5.34506e-17 -2.82199 -0.362602)
(-2.01323e-17 -2.46442 -0.25162)
(-3.27312e-17 -3.30036 -0.343613)
(9.36515e-18 -2.30111 -0.195017)
(2.33498e-17 -3.02475 -0.246727)
(6.52695e-17 -2.91401 -0.188913)
(9.16993e-17 -2.41686 -0.0999321)
(1.96099e-16 -2.9655 -0.111543)
(2.30519e-16 -2.87479 -0.0580149)
(2.36188e-16 -2.47965 0.0100949)
(3.15328e-16 -3.36828 0.0398497)
(2.23311e-16 -2.3813 0.085828)
(3.08144e-16 -3.14288 0.177374)
(2.75462e-16 -2.91592 0.15736)
(1.46898e-16 -2.57914 0.165281)
(9.50499e-17 -3.50021 0.219637)
(-2.32334e-17 -2.47494 0.185723)
(-1.55431e-16 -3.28617 0.292968)
(-2.65795e-16 -3.14733 0.194552)
(-2.54572e-16 -2.64515 0.17935)
(-4.50659e-16 -3.26358 0.233597)
(-4.34696e-16 -3.14164 0.150326)
(-3.30342e-16 -2.72623 0.144164)
(-4.45554e-16 -3.70439 0.16611)
(-2.97707e-16 -2.61458 0.134134)
(-3.95786e-16 -3.45073 0.204469)
(-2.74218e-16 -3.16426 0.11639)
(-2.15403e-16 -2.79102 0.111582)
(-2.52093e-16 -3.76766 0.108759)
(-1.46577e-16 -2.63752 0.0805159)
(-2.22234e-16 -3.49041 0.105293)
(-1.97828e-16 -3.29086 -0.00533989)
(-1.74978e-16 -2.74318 0.00150204)
(-2.84305e-16 -3.35889 -0.0605883)
(-2.75225e-16 -3.188 -0.132521)
(-2.45675e-16 -2.73445 -0.0990158)
(-3.6894e-16 -3.68495 -0.194633)
(-3.01544e-16 -2.54869 -0.144154)
(-4.60494e-16 -3.34266 -0.23636)
(-3.53357e-16 -3.00849 -0.276247)
(-2.87338e-16 -2.61298 -0.215251)
(-3.83155e-16 -3.49471 -0.347298)
(-2.68963e-16 -2.38291 -0.251754)
(-3.98877e-16 -3.1336 -0.388503)
(-3.31272e-16 -2.89568 -0.406261)
(-2.63245e-16 -2.36384 -0.319492)
(-3.39806e-16 -2.86862 -0.508501)
(-2.66403e-16 -2.67147 -0.490477)
(-2.63451e-16 -2.23704 -0.385635)
(-3.54211e-16 -3.01015 -0.568982)
(-2.93412e-16 -1.99706 -0.411645)
(-4.36547e-16 -2.62951 -0.62962)
(-3.75627e-16 -2.29228 -0.596076)
(-3.00108e-16 -1.93576 -0.476996)
(-4.15886e-16 -2.60054 -0.69099)
(-3.15232e-16 -1.66457 -0.503118)
(-4.57239e-16 -2.22312 -0.763321)
(-3.36174e-16 -1.96931 -0.717125)
(-3.19873e-16 -1.52417 -0.582081)
(-4.7303e-16 -1.87082 -0.885201)
(-5.18482e-16 -1.65725 -0.811524)
(-4.3357e-16 -1.29182 -0.651161)
(-6.12893e-16 -1.83441 -0.922574)
(-4.99737e-16 -1.03362 -0.678422)
(-7.69355e-16 -1.32681 -1.03883)
(5.64712e-51 0.160726 0.170926)
(6.73614e-50 0.203975 0.168511)
(2.12725e-49 0.23212 0.169738)
(1.17744e-49 0.259305 0.170272)
(-2.29879e-48 0.286028 0.172097)
(-1.14945e-47 0.311394 0.174064)
(-1.5517e-47 0.336441 0.176748)
(1.02936e-46 0.360861 0.179804)
(6.33982e-46 0.385046 0.183406)
(8.94752e-46 0.408966 0.187445)
(-6.27527e-45 0.432794 0.191972)
(-3.68347e-44 0.456573 0.196951)
(-3.53636e-44 0.480401 0.202397)
(4.51331e-43 0.504336 0.208296)
(2.13421e-42 0.528447 0.214654)
(2.32324e-43 0.552789 0.221467)
(-3.29989e-41 0.57742 0.228738)
(-1.15493e-40 0.602391 0.236468)
(1.32126e-40 0.627752 0.244662)
(2.25754e-39 0.653549 0.253323)
(5.47713e-39 0.679828 0.262458)
(-1.66577e-38 0.706631 0.272073)
(-1.39119e-37 0.733998 0.282175)
(-2.11007e-37 0.761964 0.292771)
(1.36439e-36 0.790561 0.303867)
(7.60313e-36 0.819812 0.31547)
(5.70586e-36 0.849734 0.327582)
(-8.7472e-35 0.880331 0.340203)
(-3.67806e-34 0.911592 0.35333)
(-5.15743e-35 0.943488 0.366951)
(4.60676e-33 0.975969 0.381048)
(1.58975e-32 1.00896 0.395596)
(-3.939e-33 1.04237 0.410556)
(-2.02362e-31 1.07607 0.425883)
(-6.2414e-31 1.10992 0.44152)
(1.9678e-31 1.14378 0.457402)
(7.40628e-30 1.1775 0.473459)
(2.24869e-29 1.21097 0.48962)
(-3.7564e-31 1.2441 0.505813)
(-2.21341e-28 1.27687 0.52197)
(-7.32654e-28 1.3093 0.538029)
(-4.15596e-28 1.34148 0.553927)
(5.09538e-27 1.37353 0.569602)
(2.05861e-26 1.40558 0.584983)
(2.6714e-26 1.4378 0.599989)
(-7.5472e-26 1.47035 0.614525)
(-4.60659e-25 1.50341 0.628484)
(-9.80042e-25 1.53725 0.641736)
(5.90192e-26 1.57208 0.65409)
(7.09355e-24 1.60801 0.665228)
(2.33814e-23 1.64474 0.674621)
(3.1769e-23 1.68137 0.681456)
(-4.12946e-23 1.71642 0.684593)
(-3.29936e-22 1.74782 0.682527)
(-8.59213e-22 1.77281 0.673361)
(-1.03029e-21 1.78796 0.654796)
(1.12449e-21 1.78895 0.624126)
(9.00028e-21 1.77017 0.578301)
(2.4825e-20 1.72415 0.514074)
(4.20293e-20 1.64097 0.428316)
(3.15021e-20 1.50595 0.318746)
(-7.40952e-20 1.29614 0.1859)
(-3.72119e-19 0.981598 0.0310414)
(-8.5664e-19 0.427677 -0.138674)
(-2.8736e-19 -0.532837 -0.312607)
(-1.34384e-20 -1.08825 -0.344022)
(5.33461e-21 -1.60879 -0.368475)
(3.16086e-22 -2.08381 -0.37982)
(-1.65222e-22 -2.51103 -0.398949)
(-3.74976e-23 -2.89174 -0.396126)
(-6.55688e-23 -3.15482 -0.406033)
(1.148e-22 -3.40568 -0.367507)
(-4.41159e-22 -3.48956 -0.374337)
(2.07237e-21 -3.7578 -0.281019)
(-1.22014e-20 -3.6299 -0.360297)
(1.66441e-19 -4.20194 -0.164892)
(-2.68337e-18 -3.6829 -0.476594)
(4.02495e-17 -4.6579 -0.167776)
(-7.0365e-17 -5.95272 -0.611147)
(6.41888e-51 0.161235 0.187539)
(1.94038e-49 0.204245 0.18398)
(7.32277e-49 0.231893 0.185131)
(9.0019e-49 0.258965 0.1854)
(-5.57519e-48 0.285452 0.18723)
(-3.58397e-47 0.310672 0.189195)
(-7.09274e-47 0.335541 0.191983)
(2.21776e-46 0.359809 0.195171)
(1.88482e-45 0.383835 0.198966)
(3.90844e-45 0.407604 0.203231)
(-1.34878e-44 0.43128 0.208028)
(-1.07495e-43 0.45491 0.213311)
(-1.76868e-43 0.47859 0.219095)
(1.02593e-42 0.502377 0.225366)
(6.23315e-42 0.526341 0.232127)
(5.22962e-42 0.550537 0.239374)
(-7.90191e-41 0.57502 0.247109)
(-3.42908e-40 0.599843 0.255333)
(9.43258e-41 0.625054 0.26405)
(5.60293e-39 0.6507 0.273265)
(1.68774e-38 0.676826 0.282981)
(-3.02521e-38 0.703474 0.293207)
(-3.53467e-37 0.730684 0.303947)
(-7.0423e-37 0.758491 0.315209)
(2.88754e-36 0.786926 0.326998)
(1.96214e-35 0.816016 0.339316)
(2.33985e-35 0.845775 0.352165)
(-1.95398e-34 0.87621 0.365539)
(-9.58628e-34 0.907312 0.379429)
(-5.65116e-34 0.939054 0.393818)
(1.04907e-32 0.971389 0.408679)
(4.15806e-32 1.00425 0.423975)
(9.1494e-33 1.03753 0.43966)
(-4.60807e-31 1.07112 0.455676)
(-1.62269e-30 1.10489 0.471957)
(-2.42923e-31 1.13868 0.488434)
(1.66013e-29 1.17236 0.505035)
(5.73557e-29 1.20581 0.521692)
(2.31291e-29 1.23895 0.538343)
(-4.79805e-28 1.27174 0.554933)
(-1.80822e-27 1.30422 0.571415)
(-1.65284e-27 1.33646 0.587742)
(1.03745e-26 1.36858 0.603863)
(4.8613e-26 1.40074 0.619712)
(7.68618e-26 1.43309 0.635211)
(-1.3068e-25 1.4658 0.65027)
(-1.0307e-24 1.49907 0.664792)
(-2.46934e-24 1.53316 0.678656)
(-7.79698e-25 1.56833 0.691654)
(1.47386e-23 1.60473 0.703399)
(5.44078e-23 1.64215 0.713218)
(8.42389e-23 1.6798 0.720103)
(-6.41741e-23 1.71631 0.722703)
(-7.22708e-22 1.74971 0.719289)
(-2.0094e-21 1.77738 0.707741)
(-2.59266e-21 1.79602 0.685539)
(2.16889e-21 1.80142 0.649733)
(2.03839e-20 1.78807 0.597006)
(5.68903e-20 1.74852 0.523861)
(9.35691e-20 1.67267 0.426897)
(5.59947e-20 1.54533 0.303697)
(-2.16234e-19 1.34296 0.155763)
(-9.21675e-19 1.03304 -0.0175584)
(-1.95879e-18 0.48925 -0.200441)
(-4.70825e-19 -0.548536 -0.384991)
(-2.6299e-20 -1.11637 -0.379311)
(7.93199e-21 -1.63462 -0.386521)
(6.77731e-22 -2.10921 -0.391249)
(-1.84087e-22 -2.5368 -0.404609)
(-4.23306e-23 -2.91614 -0.396488)
(-6.53641e-23 -3.18033 -0.402906)
(1.14216e-22 -3.42826 -0.361924)
(-4.4087e-22 -3.51435 -0.367266)
(2.07967e-21 -3.77026 -0.274118)
(-1.23962e-20 -3.65041 -0.352533)
(1.70612e-19 -4.19122 -0.159893)
(-2.74852e-18 -3.68341 -0.466717)
(4.01678e-17 -4.63638 -0.163675)
(-6.77916e-17 -5.84516 -0.614228)
(-7.37798e-51 0.161567 0.196409)
(4.22334e-49 0.204442 0.192408)
(1.84669e-48 0.231801 0.193508)
(3.12858e-48 0.25881 0.193641)
(-9.9844e-48 0.285166 0.195475)
(-8.35009e-47 0.31031 0.197443)
(-2.06591e-46 0.335085 0.200289)
(3.34658e-46 0.359276 0.203554)
(4.20347e-45 0.383218 0.207455)
(1.10082e-44 0.406911 0.211846)
(-2.05965e-44 0.430509 0.216792)
(-2.34882e-43 0.454064 0.222241)
(-5.16971e-43 0.477669 0.228212)
(1.72518e-42 0.501382 0.234687)
(1.35486e-41 0.525271 0.241669)
(1.89297e-41 0.549392 0.249153)
(-1.42735e-40 0.573802 0.257142)
(-7.4908e-40 0.59855 0.265636)
(-2.47534e-40 0.623686 0.27464)
(1.05434e-38 0.649256 0.284156)
(3.7443e-38 0.675306 0.29419)
(-3.8444e-38 0.701876 0.304749)
(-6.80057e-37 0.729007 0.315837)
(-1.61533e-36 0.756735 0.327462)
(4.68155e-36 0.785092 0.339627)
(3.81846e-35 0.814102 0.352334)
(5.77549e-35 0.843783 0.365582)
(-3.37851e-34 0.874141 0.379364)
(-1.87395e-33 0.90517 0.393666)
(-1.66731e-33 0.936843 0.408468)
(1.85107e-32 0.969115 0.423737)
(8.11557e-32 1.00192 0.439432)
(4.18619e-32 1.03515 0.455499)
(-8.13227e-31 1.06871 0.471876)
(-3.13952e-30 1.10245 0.488495)
(-1.36462e-30 1.13623 0.505282)
(2.88912e-29 1.16991 0.522167)
(1.09035e-28 1.20336 0.539085)
(7.17958e-29 1.2365 0.555982)
(-8.11461e-28 1.26931 0.572812)
(-3.34709e-27 1.3018 0.589537)
(-3.77067e-27 1.33407 0.606117)
(1.66455e-26 1.36622 0.622506)
(8.69717e-26 1.39842 0.638641)
(1.52814e-25 1.43083 0.654442)
(-1.80505e-25 1.4636 0.669826)
(-1.77221e-24 1.49695 0.684703)
(-4.54392e-24 1.53113 0.69896)
(-2.29221e-24 1.56646 0.712381)
(2.41594e-23 1.60311 0.724533)
(9.52024e-23 1.64092 0.734652)
(1.55261e-22 1.67916 0.74162)
(-9.01829e-23 1.71652 0.743977)
(-1.23154e-21 1.75107 0.739884)
(-3.47599e-21 1.78027 0.727112)
(-4.42089e-21 1.80086 0.703032)
(4.17353e-21 1.8087 0.664568)
(3.60009e-20 1.79832 0.608249)
(9.63379e-20 1.76229 0.530424)
(1.44689e-19 1.69039 0.42749)
(3.85331e-20 1.56705 0.296857)
(-4.97189e-19 1.3686 0.140496)
(-1.73229e-18 1.06001 -0.0444438)
(-3.36829e-18 0.518654 -0.229294)
(-1.04547e-18 -0.509234 -0.460354)
(-9.38098e-20 -1.10168 -0.442499)
(1.53794e-20 -1.61958 -0.419247)
(1.98535e-21 -2.09354 -0.409983)
(-2.20818e-22 -2.52307 -0.414766)
(-5.44959e-23 -2.90435 -0.398346)
(-6.5147e-23 -3.17334 -0.399149)
(1.13513e-22 -3.42334 -0.354278)
(-4.40494e-22 -3.51657 -0.357011)
(2.08875e-21 -3.76706 -0.263801)
(-1.26331e-20 -3.65903 -0.340671)
(1.7573e-19 -4.17762 -0.151303)
(-2.82429e-18 -3.68241 -0.453614)
(4.00821e-17 -4.6209 -0.151765)
(-6.5429e-17 -5.76806 -0.627565)
(-7.19318e-50 0.162093 0.206742)
(8.71928e-49 0.204747 0.202329)
(4.47787e-48 0.231689 0.203389)
(9.47953e-48 0.25859 0.203402)
(-1.53207e-47 0.28475 0.205253)
(-1.87421e-46 0.309772 0.207242)
(-5.58416e-46 0.334403 0.210169)
(3.40881e-46 0.358473 0.213534)
(9.01798e-45 0.382289 0.217571)
(2.88548e-44 0.405862 0.222122)
(-2.29255e-44 0.429342 0.227253)
(-4.93468e-43 0.45278 0.23291)
(-1.37492e-42 0.47627 0.23911)
(2.50419e-42 0.499869 0.245835)
(2.83151e-41 0.523645 0.253088)
(5.5407e-41 0.547652 0.260863)
(-2.38551e-40 0.571948 0.269162)
(-1.57121e-39 0.596582 0.277985)
(-1.40458e-39 0.621603 0.287337)
(1.88418e-38 0.647057 0.29722)
(7.93904e-38 0.672989 0.307641)
(-3.00946e-38 0.699441 0.318604)
(-1.25578e-36 0.726452 0.330116)
(-3.49906e-36 0.754059 0.342182)
(6.99753e-36 0.782294 0.354804)
(7.1632e-35 0.811182 0.367985)
(1.30494e-34 0.840742 0.38172)
(-5.59853e-34 0.870982 0.395999)
(-3.53641e-33 0.901895 0.410807)
(-4.09353e-33 0.93346 0.426117)
(3.16445e-32 0.965631 0.441891)
(1.52938e-31 0.998343 0.458081)
(1.17042e-31 1.0315 0.474628)
(-1.39653e-30 1.065 0.491462)
(-5.86476e-30 1.09869 0.508509)
(-3.9119e-30 1.13244 0.525692)
(4.90315e-29 1.1661 0.542942)
(2.00253e-28 1.19955 0.560196)
(1.72944e-28 1.23271 0.577407)
(-1.33996e-27 1.26553 0.594539)
(-5.994e-27 1.29805 0.611564)
(-7.77481e-27 1.33035 0.628453)
(2.60796e-26 1.36256 0.645166)
(1.50822e-25 1.39483 0.661642)
(2.86248e-25 1.42731 0.677804)
(-2.38636e-25 1.46019 0.693572)
(-2.96182e-24 1.49366 0.708869)
(-7.98335e-24 1.52801 0.723593)
(-5.02492e-24 1.56357 0.737523)
(3.88437e-23 1.60059 0.750182)
(1.59983e-22 1.63899 0.760712)
(2.66264e-22 1.6781 0.76787)
(-1.40189e-22 1.7167 0.770066)
(-2.04013e-21 1.75295 0.765329)
(-5.67221e-21 1.78438 0.751298)
(-6.70495e-21 1.80786 0.725211)
(8.76718e-21 1.81931 0.683838)
(6.14589e-20 1.81336 0.623519)
(1.50951e-19 1.78256 0.540404)
(1.89516e-19 1.71657 0.430606)
(-7.94465e-20 1.59936 0.291301)
(-1.07697e-18 1.40694 0.124576)
(-3.05908e-18 1.10083 -0.0743848)
(-5.35171e-18 0.568254 -0.268127)
(-2.30672e-18 -0.483369 -0.525086)
(-2.90684e-19 -1.1048 -0.528458)
(3.04994e-20 -1.62262 -0.469766)
(5.60289e-21 -2.09264 -0.436927)
(-2.60086e-22 -2.52239 -0.429815)
(-8.28098e-23 -2.90408 -0.402254)
(-6.51784e-23 -3.17556 -0.395165)
(1.12822e-22 -3.42585 -0.344796)
(-4.40059e-22 -3.52331 -0.344025)
(2.09809e-21 -3.7678 -0.250155)
(-1.28728e-20 -3.66826 -0.325546)
(1.80952e-19 -4.16711 -0.139381)
(-2.89696e-18 -3.68187 -0.437689)
(3.99972e-17 -4.60552 -0.137698)
(-6.29603e-17 -5.70547 -0.594022)
(-2.91136e-49 0.162603 0.216511)
(1.67183e-48 0.20505 0.211837)
(1.03739e-47 0.231613 0.212866)
(2.61723e-47 0.258408 0.21279)
(-1.59819e-47 0.284385 0.214666)
(-4.01359e-46 0.309295 0.216688)
(-1.41475e-45 0.333794 0.219699)
(-2.01818e-46 0.357753 0.22317)
(1.83947e-44 0.381454 0.227345)
(7.09854e-44 0.40492 0.232056)
(1.48986e-45 0.428291 0.237372)
(-9.84701e-43 0.451626 0.243235)
(-3.3934e-42 0.475011 0.249662)
(2.53031e-42 0.498508 0.256634)
(5.62383e-41 0.522181 0.264153)
(1.43906e-40 0.546087 0.272213)
(-3.48747e-40 0.570281 0.280817)
(-3.13187e-39 0.594812 0.289963)
(-4.56718e-39 0.61973 0.299655)
(3.11258e-38 0.645081 0.309898)
(1.59575e-37 0.670908 0.320696)
(3.4137e-38 0.697254 0.332055)
(-2.18424e-36 0.724158 0.34398)
(-7.13513e-36 0.751657 0.356477)
(9.00865e-36 0.779784 0.369547)
(1.27521e-34 0.808565 0.38319)
(2.72989e-34 0.838019 0.397401)
(-8.67642e-34 0.868157 0.412168)
(-6.35236e-33 0.898972 0.42747)
(-8.95006e-33 0.930445 0.443277)
(5.1486e-32 0.962535 0.459546)
(2.74651e-31 0.995176 0.476222)
(2.70453e-31 1.02828 0.493239)
(-2.29645e-30 1.06173 0.510522)
(-1.04465e-29 1.0954 0.52799)
(-9.02704e-30 1.12913 0.545564)
(7.98727e-29 1.16279 0.563174)
(3.50945e-28 1.19625 0.58076)
(3.63512e-28 1.22942 0.598282)
(-2.12438e-27 1.26226 0.615715)
(-1.02501e-26 1.2948 0.63304)
(-1.47716e-26 1.32713 0.65024)
(3.90942e-26 1.35937 0.667281)
(2.49717e-25 1.39169 0.684103)
(5.03823e-25 1.42424 0.700633)
(-2.88048e-25 1.4572 0.716793)
(-4.71785e-24 1.49076 0.732518)
(-1.3229e-23 1.52523 0.747724)
(-9.54219e-24 1.56098 0.76219)
(5.9506e-23 1.59833 0.775402)
(2.52559e-22 1.63727 0.786406)
(4.20236e-22 1.67722 0.793842)
(-2.27532e-22 1.71701 0.795996)
(-3.16879e-21 1.75488 0.790771)
(-8.44211e-21 1.78844 0.775686)
(-8.59332e-21 1.81463 0.747857)
(1.77576e-20 1.82948 0.703909)
(9.64194e-20 1.82766 0.639997)
(2.05053e-19 1.80176 0.552059)
(1.68865e-19 1.74134 0.435885)
(-4.25283e-19 1.62992 0.288385)
(-2.09398e-18 1.44329 0.111407)
(-4.78874e-18 1.13935 -0.101714)
(-7.26896e-18 0.614324 -0.305879)
(-4.64836e-18 -0.457875 -0.59111)
(-7.65431e-19 -1.11377 -0.629334)
(5.39939e-20 -1.63774 -0.541792)
(1.45749e-20 -2.10174 -0.475469)
(-2.02151e-22 -2.53003 -0.450847)
(-1.47718e-22 -2.91127 -0.409111)
(-6.64195e-23 -3.1842 -0.391516)
(1.12226e-22 -3.43364 -0.333695)
(-4.39531e-22 -3.53418 -0.328334)
(2.1071e-21 -3.7713 -0.23303)
(-1.31007e-20 -3.67946 -0.3069)
(1.85995e-19 -4.15691 -0.123837)
(-2.96229e-18 -3.68179 -0.419069)
(3.99327e-17 -4.58885 -0.11816)
(-6.16833e-17 -5.6355 -0.602298)
(-9.29382e-49 0.163173 0.226204)
(2.91594e-48 0.205381 0.22136)
(2.3002e-47 0.231543 0.222368)
(6.73404e-47 0.258214 0.222233)
(7.03278e-48 0.28399 0.224144)
(-8.1958e-46 0.308772 0.226212)
(-3.39299e-45 0.333125 0.229316)
(-2.51848e-45 0.35696 0.232904)
(3.55893e-44 0.380534 0.237225)
(1.65445e-43 0.403881 0.242106)
(1.12454e-43 0.427133 0.247615)
(-1.86152e-42 0.450352 0.253692)
(-7.88284e-42 0.473622 0.260355)
(-6.65076e-43 0.497005 0.267582)
(1.05997e-40 0.520566 0.275377)
(3.44018e-40 0.54436 0.283731)
(-3.94673e-40 0.568441 0.292647)
(-5.93239e-39 0.592859 0.302125)
(-1.22083e-38 0.617664 0.312168)
(4.62783e-38 0.6429 0.322779)
(3.0458e-37 0.668611 0.333964)
(2.41095e-37 0.69484 0.345729)
(-3.54569e-36 0.721627 0.358078)
(-1.37584e-35 0.749008 0.371016)
(8.45591e-36 0.777016 0.384544)
(2.14621e-34 0.805679 0.398662)
(5.34588e-34 0.835017 0.413362)
(-1.23726e-33 0.865042 0.428629)
(-1.08464e-32 0.89575 0.44444)
(-1.79441e-32 0.927124 0.460759)
(7.94523e-32 0.959125 0.477539)
(4.701e-31 0.99169 0.494718)
(5.55604e-31 1.02473 0.512224)
(-3.61585e-30 1.05814 0.529973)
(-1.77686e-29 1.09178 0.547881)
(-1.83663e-29 1.1255 0.565864)
(1.25054e-28 1.15916 0.58385)
(5.88384e-28 1.19263 0.601785)
(6.96294e-28 1.22581 0.619635)
(-3.23714e-27 1.25868 0.637383)
(-1.67915e-26 1.29124 0.655025)
(-2.63379e-26 1.3236 0.672551)
(5.585e-26 1.35588 0.689936)
(3.9568e-25 1.38825 0.707123)
(8.42528e-25 1.42086 0.724037)
(-2.90126e-25 1.4539 0.740607)
(-7.14081e-24 1.48756 0.756783)
(-2.07927e-23 1.52215 0.7725)
(-1.68912e-23 1.5581 0.787547)
(8.49969e-23 1.59581 0.801374)
(3.71992e-22 1.63535 0.812938)
(6.16161e-22 1.67622 0.820756)
(-3.35078e-22 1.71732 0.822995)
(-4.45806e-21 1.75699 0.817433)
(-1.11174e-20 1.7929 0.801472)