/*--------------------------------*- C++ -*----------------------------------*\
| =========                 |                                                 |
| \\      /  F ield         | OpenFOAM: The Open Source CFD Toolbox           |
|  \\    /   O peration     | Version:  4.1                                   |
|   \\  /    A nd           | Web:      www.OpenFOAM.org                      |
|    \\/     M anipulation  |                                                 |
\*---------------------------------------------------------------------------*/
FoamFile
{
    version     2.0;
    format      ascii;
    class       volVectorField;
    location    "19";
    object      U;
}
// * * * * * * * * * * * * * * * * * * * * * * * * * * * * * * * * * * * * * //

dimensions      [0 1 -1 0 0 0 0];

internalField   nonuniform List<vector> 
6785
(
(8.4031e-15 0.6846 15.7417)
(4.67081e-15 -5.13029 12.0537)
(-2.6733e-15 -4.29249 12.1841)
(4.92502e-15 -3.72375 12.0221)
(1.30342e-15 -3.1193 11.901)
(-3.99405e-16 -2.66645 11.7153)
(7.42204e-16 -2.3176 11.4881)
(2.68704e-16 -2.07343 11.2168)
(-3.39746e-16 -1.90794 10.9139)
(1.88036e-15 -1.8172 10.5843)
(2.79007e-16 -1.92242 10.165)
(-1.64896e-15 -2.37179 9.56011)
(2.51789e-15 -2.68972 8.9698)
(3.01139e-17 -1.33551 8.92612)
(-1.92226e-15 1.733 7.64137)
(2.51061e-14 -5.63789 22.1818)
(2.32943e-14 -14.7671 21.3399)
(1.57806e-15 -13.2425 20.4985)
(7.93902e-15 -11.8214 19.622)
(3.62074e-15 -11.2268 18.5971)
(-7.7575e-16 -10.7092 17.6049)
(6.26311e-15 -10.1209 16.6522)
(1.7003e-15 -9.5448 15.6955)
(-5.27527e-16 -8.97907 14.7276)
(4.69091e-15 -8.37631 13.7518)
(2.50349e-15 -7.75125 12.7739)
(-1.10045e-15 -7.27678 11.7832)
(6.38635e-15 -7.01219 10.694)
(1.11809e-15 -5.7843 8.97432)
(-2.31636e-15 -1.73329 4.85341)
(2.25788e-14 -7.89601 22.1871)
(2.50037e-14 -16.7498 24.7015)
(2.44924e-15 -13.8114 23.9906)
(7.83756e-15 -12.4976 22.6552)
(3.67011e-15 -11.833 21.2611)
(-1.7759e-16 -10.989 20.0206)
(-2.27439e-16 -10.1073 18.7901)
(1.88914e-15 -9.26096 17.5388)
(8.65947e-16 -8.4368 16.2753)
(3.22691e-15 -7.62011 15.0227)
(-3.77882e-15 -6.79698 13.8035)
(6.46128e-17 -5.96848 12.4325)
(3.12147e-15 -4.99105 10.3266)
(-4.70544e-15 -3.27538 6.89062)
(-2.41765e-15 -0.662593 2.39964)
(2.08521e-14 -8.14299 17.987)
(2.66076e-14 -16.3386 24.455)
(5.47029e-15 -13.436 23.9538)
(1.80556e-15 -12.5306 22.1186)
(-1.87729e-16 -11.7971 20.614)
(2.69321e-15 -10.8463 19.2821)
(4.42243e-15 -9.96754 17.9219)
(4.35439e-16 -9.13803 16.5571)
(4.47355e-15 -8.34526 15.2039)
(2.25954e-15 -7.59631 13.8758)
(4.47722e-15 -6.83589 12.5325)
(3.45622e-15 -5.87444 10.8635)
(-1.00117e-15 -4.38596 8.19734)
(1.0339e-14 -2.24407 3.97555)
(3.54144e-14 0.013303 -1.35158)
(1.75341e-14 -7.32247 13.9167)
(1.90667e-14 -15.3602 23.7136)
(5.99001e-15 -13.9046 24.0466)
(8.19471e-16 -13.0906 21.9524)
(-3.66446e-15 -12.2991 20.3346)
(3.28053e-16 -11.3795 18.9613)
(-5.65956e-16 -10.5629 17.5518)
(-4.68463e-15 -9.76991 16.149)
(-1.23613e-15 -8.9844 14.7761)
(-2.8518e-15 -8.22672 13.4374)
(4.98727e-15 -7.46117 12.0838)
(1.13514e-14 -6.51685 10.4498)
(-6.1001e-15 -5.04604 8.04539)
(-1.83435e-14 -3.1718 4.56976)
(-2.3938e-14 -1.17666 1.48054)
(1.24601e-14 -6.12159 10.8665)
(1.91998e-14 -14.1686 22.6772)
(9.83145e-15 -14.3402 24.3342)
(2.91018e-15 -13.5266 22.4682)
(-6.36448e-16 -12.5724 20.7483)
(-8.34936e-15 -11.6376 19.3226)
(-1.60195e-17 -10.8166 17.9)
(-3.60376e-15 -9.99769 16.4886)
(-8.17732e-16 -9.17162 15.1058)
(-3.06498e-15 -8.36563 13.756)
(-6.93516e-15 -7.55845 12.4009)
(-9.13798e-16 -6.63341 10.8191)
(-5.38327e-15 -5.23899 8.63781)
(-1.1726e-14 -3.66675 5.60089)
(-9.21091e-15 -1.44496 3.03261)
(2.36274e-14 -5.11619 8.83176)
(2.15858e-14 -13.0033 21.58)
(1.12991e-14 -14.3 24.2371)
(5.9364e-15 -13.582 22.8803)
(-3.80259e-15 -12.5403 21.1363)
(4.75761e-15 -11.6026 19.6452)
(1.9379e-15 -10.7725 18.2087)
(-1.33984e-14 -9.93383 16.7934)
(9.87349e-15 -9.09452 15.4009)
(-1.04413e-15 -8.28107 14.0385)
(-3.35375e-15 -7.47022 12.676)
(6.68155e-15 -6.57772 11.0968)
(-3.98503e-15 -5.18782 8.98908)
(-1.39454e-14 -3.93053 6.09359)
(1.01359e-14 -1.52248 3.98081)
(1.51755e-14 -4.63945 8.02995)
(2.18059e-14 -12.2051 20.84)
(1.57806e-14 -14.0437 23.8081)
(7.19444e-15 -13.4669 23.0229)
(3.64498e-16 -12.469 21.3221)
(5.18988e-15 -11.559 19.7837)
(1.73323e-15 -10.7298 18.3375)
(-7.57709e-16 -9.89104 16.9198)
(7.91617e-15 -9.06062 15.5205)
(-5.99366e-16 -8.25737 14.1511)
(-1.9786e-15 -7.45054 12.7818)
(6.11212e-15 -6.57537 11.1719)
(-2.79591e-15 -5.1023 9.06476)
(-1.13464e-14 -4.06907 6.1565)
(5.98115e-15 -1.53748 4.35215)
(1.39042e-14 -4.51527 7.86438)
(2.05243e-14 -11.7282 20.352)
(2.08914e-14 -13.8051 23.2581)
(4.89886e-15 -13.3801 23.0324)
(9.48375e-16 -12.4951 21.4183)
(1.4487e-15 -11.6016 19.8601)
(2.4518e-15 -10.7641 18.4123)
(-6.35852e-16 -9.92656 16.9945)
(-1.69556e-15 -9.10225 15.5926)
(-6.15125e-18 -8.30301 14.2213)
(-2.19336e-15 -7.4898 12.8479)
(-8.07139e-15 -6.62182 11.1909)
(-1.98699e-15 -5.03491 9.07282)
(-1.05224e-14 -4.21481 6.20598)
(-1.20964e-14 -1.61002 4.64742)
(1.33619e-14 -4.43386 7.61171)
(1.86454e-14 -11.3634 19.8681)
(1.20959e-14 -13.6257 22.7482)
(4.92148e-15 -13.3553 23.0083)
(1.24563e-15 -12.5957 21.516)
(3.08904e-16 -11.6958 19.9552)
(-5.46889e-15 -10.8407 18.5053)
(-1.91825e-15 -10.0011 17.0871)
(-3.18509e-15 -9.17594 15.6849)
(-4.03979e-15 -8.37449 14.3129)
(-3.91665e-15 -7.54683 12.9365)
(-8.17803e-15 -6.68318 11.2257)
(-1.66181e-14 -4.99043 9.09959)
(-6.77665e-15 -4.37833 6.33924)
(-1.75977e-14 -1.73729 4.99005)
(2.66299e-15 -4.23164 7.05159)
(1.83963e-14 -10.9621 19.2673)
(5.10558e-15 -13.4619 22.33)
(3.83189e-15 -13.3627 23.0052)
(3.08275e-15 -12.7279 21.6713)
(-5.63381e-15 -11.8185 20.1156)
(-5.44877e-15 -10.9442 18.6525)
(-6.95416e-15 -10.0998 17.227)
(-1.17267e-14 -9.26874 15.8211)
(-6.5915e-15 -8.46266 14.4434)
(4.37277e-15 -7.61395 13.0615)
(-5.55885e-15 -6.75467 11.2972)
(-4.80522e-15 -4.97718 9.16416)
(-2.78851e-14 -4.54265 6.51377)
(-2.7935e-14 -1.87112 5.34189)
(-5.12931e-15 -3.92625 6.29605)
(1.8552e-14 -10.4907 18.5761)
(4.34165e-15 -13.2414 21.9424)
(4.09477e-15 -13.294 22.9639)
(5.05451e-15 -12.7662 21.7849)
(-1.46349e-14 -11.8476 20.2537)
(-2.74878e-15 -10.9666 18.7894)
(6.32473e-15 -10.1241 17.3639)
(-1.42158e-14 -9.29312 15.9604)
(-9.01127e-15 -8.48929 14.5781)
(1.31388e-15 -7.62496 13.1829)
(-2.25991e-14 -6.76035 11.3507)
(-7.97894e-15 -4.91764 9.21547)
(-3.65509e-14 -4.69402 6.71261)
(-3.18623e-14 -1.99402 5.66165)
(-3.54082e-15 -3.74067 5.94599)
(1.46534e-14 -10.14 18.0886)
(4.42177e-15 -13.1354 21.803)
(2.29551e-15 -13.3914 23.1409)
(5.13017e-15 -12.9879 22.125)
(-1.33642e-14 -12.0686 20.5702)
(-7.42567e-15 -11.1443 19.0255)
(5.20654e-15 -10.2642 17.5444)
(-1.62406e-14 -9.39341 16.0966)
(-9.94951e-15 -8.56616 14.6759)
(-2.86422e-16 -7.64931 13.2535)
(-2.66965e-14 -6.78786 11.3312)
(-1.34911e-14 -4.81963 9.14435)
(-2.85128e-14 -4.69681 6.649)
(-3.51485e-14 -2.00819 5.73637)
(-9.09077e-15 -3.20136 4.61909)
(1.05729e-14 -9.3221 17.0586)
(7.77027e-16 -12.299 20.9978)
(-2.66668e-15 -12.516 22.5688)
(2.04678e-15 -12.1835 21.7373)
(-9.98951e-15 -11.3273 20.4459)
(-3.40541e-15 -10.5418 19.1362)
(3.89158e-15 -9.77312 17.7831)
(-1.5862e-14 -8.99572 16.4244)
(-5.45743e-15 -8.21291 15.0208)
(-5.44279e-15 -7.35605 13.5213)
(-2.51232e-14 -6.40712 11.529)
(-1.34492e-14 -4.79785 9.37762)
(-3.1525e-14 -4.82675 7.3436)
(-3.01331e-14 -2.04169 6.01628)
(-1.93108e-14 -6.81795 12.8849)
(7.98073e-15 -12.0638 21.4922)
(-7.48505e-16 -14.7196 24.2783)
(-9.42051e-16 -15.1095 25.3413)
(-6.78466e-16 -14.5224 23.7858)
(-7.67905e-15 -13.0985 21.5671)
(-4.19032e-15 -11.5652 19.172)
(1.8048e-15 -10.1218 17.1743)
(-1.27619e-14 -8.80612 15.2641)
(-5.97852e-15 -7.69059 13.5495)
(-1.37022e-14 -6.41487 11.582)
(-2.34776e-14 -4.98547 8.91202)
(-2.04537e-14 -3.07008 6.34356)
(-3.9523e-14 -2.72228 3.76764)
(-1.72213e-14 -0.531059 1.80743)
(-2.69309e-15 0.119717 -1.56521)
(-3.57314e-15 0.358825 -2.21019)
(-2.52513e-15 0.461872 -1.69415)
(-2.50541e-15 0.683648 -1.68893)
(-2.40696e-15 0.778123 -1.64913)
(-3.48628e-15 1.26677 -2.2357)
(-2.71146e-15 1.13016 -1.54412)
(-3.0101e-15 1.3582 -1.52219)
(-3.74107e-15 1.40849 -1.469)
(-4.69911e-15 2.0655 -2.04385)
(3.34593e-15 1.77198 -1.39316)
(2.32036e-15 1.91308 -1.31144)
(4.88343e-16 2.81374 -1.82668)
(3.28387e-16 2.23941 -1.22879)
(-7.19932e-18 2.49446 -1.20693)
(-1.81833e-16 2.47912 -1.1621)
(-1.37336e-15 3.3705 -1.58747)
(-6.0375e-16 2.76259 -1.05776)
(-5.58247e-16 2.87029 -1.00114)
(-1.25761e-15 4.00231 -1.31265)
(-8.29052e-16 3.09442 -0.862767)
(-8.82586e-16 3.36091 -0.842182)
(-5.11331e-16 3.28793 -0.820474)
(-9.17063e-16 4.37239 -1.01566)
(-5.82806e-16 3.39554 -0.65648)
(-4.67375e-16 3.69511 -0.62881)
(-6.53825e-16 3.60291 -0.619345)
(-1.02897e-15 4.631 -0.689478)
(-9.87339e-16 3.65894 -0.421902)
(-9.08389e-16 3.73491 -0.415404)
(-1.35563e-15 4.98017 -0.333559)
(-1.21133e-15 3.74067 -0.184354)
(-1.16065e-15 3.97561 -0.162986)
(-1.32888e-15 3.86063 -0.185985)
(-2.10153e-15 4.87801 0.0187573)
(-1.53293e-15 3.7644 0.0665631)
(-1.4185e-15 3.81637 0.0260485)
(-2.21336e-15 4.9778 0.379737)
(-1.54941e-15 3.6568 0.300879)
(-1.62981e-15 3.86147 0.309267)
(-1.31293e-15 3.7293 0.253974)
(-2.01923e-15 4.65399 0.711604)
(-1.40405e-15 3.42095 0.51742)
(-1.41339e-15 3.65587 0.521928)
(-1.36962e-15 3.52432 0.452338)
(-1.95289e-15 4.24798 0.987937)
(-1.73252e-15 3.15315 0.717087)
(-1.63604e-15 3.21177 0.623193)
(-2.50986e-15 3.99895 1.2628)
(-1.37306e-15 2.80453 0.877038)
(-1.33329e-15 2.93945 0.863374)
(-1.26649e-15 2.82436 0.769871)
(-1.81393e-15 3.32606 1.44976)
(-1.19455e-15 2.31062 0.977898)
(-1.26479e-15 2.46761 0.958928)
(-8.10758e-16 2.35839 0.859979)
(-1.08901e-15 2.63611 1.55265)
(-5.36191e-16 1.79469 1.03625)
(-9.94018e-16 1.87052 0.917653)
(-1.41031e-15 2.09911 1.63577)
(-9.40274e-16 1.2762 1.04948)
(-7.61395e-16 1.34846 1.01506)
(-6.49144e-16 1.28351 0.921038)
(1.97638e-15 1.27147 1.59156)
(2.62213e-15 0.659282 0.964317)
(2.57371e-15 0.747678 0.85607)
(2.45524e-15 0.643744 1.47822)
(-2.77885e-15 0.105519 0.90814)
(-2.69141e-15 0.173547 0.969515)
(-3.04454e-15 0.127861 1.11611)
(-8.08201e-15 -0.136432 2.74154)
(-7.9362e-15 -0.599238 2.54607)
(-8.05349e-15 -0.638754 2.71864)
(-8.56228e-15 -0.805538 2.86826)
(-5.82719e-15 -1.37033 4.41928)
(-6.38408e-15 -1.68267 3.66357)
(-8.18117e-15 -1.78492 3.93188)
(-1.24671e-14 -2.8111 5.94148)
(-1.0183e-14 -2.99439 4.83485)
(-1.12513e-14 -3.07122 5.21989)
(-1.47315e-14 -3.42479 6.188)
(-1.44507e-14 -3.47743 6.34261)
(-1.4534e-14 -3.78409 6.6076)
(-1.43498e-14 -4.09918 8.81637)
(-1.63681e-14 -4.1726 8.16936)
(-1.84361e-14 -4.47166 8.65007)
(-1.85892e-14 -4.483 8.86261)
(-1.79897e-14 -4.5568 9.07051)
(-1.75164e-14 -4.61561 9.29914)
(-1.68295e-14 -4.65442 9.55807)
(-1.51877e-14 -4.76467 9.95265)
(-1.3171e-14 -5.02247 10.4248)
(-1.12983e-14 -5.24505 12.4509)
(-1.25684e-14 -5.52673 11.8941)
(-1.23053e-14 -5.68732 12.2152)
(-1.21863e-14 -5.6529 12.45)
(-1.24367e-14 -5.86399 13.0004)
(-1.19939e-14 -5.80886 13.1122)
(-1.16808e-14 -5.85758 13.3587)
(-1.12894e-14 -5.93045 13.6022)
(-1.07594e-14 -6.15049 13.8994)
(-8.51139e-15 -6.26213 16.3398)
(-5.73019e-15 -6.71304 15.7688)
(-5.37815e-15 -6.811 16.0413)
(-5.12068e-15 -6.84663 16.2125)
(-4.73507e-15 -6.88218 16.4432)
(-3.96334e-15 -6.93752 16.7693)
(-3.15678e-15 -7.02066 17.1263)
(-3.32546e-15 -6.99229 17.2831)
(-3.22383e-15 -7.06446 17.5206)
(-3.19689e-15 -7.25651 17.7788)
(-3.41004e-15 -7.10859 19.7915)
(-4.89215e-15 -7.77284 19.2054)
(-4.61082e-15 -7.80358 19.4575)
(-4.41917e-15 -7.8487 19.6156)
(-4.12649e-15 -7.90033 19.8227)
(-3.70438e-15 -7.9162 20.0603)
(-2.26548e-15 -7.97915 20.4594)
(-2.01194e-15 -8.00316 20.6876)
(-2.19658e-15 -8.16789 20.8639)
(-3.25633e-15 -7.66584 21.9918)
(-3.09076e-15 -8.41207 21.2247)
(-3.56734e-15 -8.37668 21.5678)
(-3.98298e-15 -8.44299 21.8074)
(-3.78984e-15 -8.41458 21.8633)
(-3.77232e-15 -8.46619 21.9792)
(-3.69707e-15 -8.46181 22.0925)
(-3.6695e-15 -8.437 22.2539)
(-3.87775e-15 -8.62468 22.6471)
(-1.60254e-15 -7.05245 21.7036)
(-2.17902e-15 -8.31727 21.3336)
(-1.78745e-15 -8.13241 21.2864)
(-1.45156e-15 -8.11097 21.2373)
(-5.50607e-16 -8.10982 21.3427)
(-3.21766e-16 -8.05765 21.208)
(-2.89946e-16 -8.00023 20.9727)
(-1.94244e-16 -7.95093 20.7118)
(-1.20614e-16 -7.81805 20.3668)
(3.10268e-16 -5.56861 17.0162)
(3.81662e-16 -6.86916 17.81)
(4.73974e-16 -6.48534 17.2206)
(5.31995e-16 -6.49492 16.7861)
(6.14103e-16 -6.37943 16.238)
(7.9157e-16 -6.28691 15.6174)
(1.38743e-15 -6.11546 14.8197)
(9.60776e-16 -6.03596 14.2458)
(8.15907e-16 -5.83764 13.5178)
(6.17339e-16 -5.39369 12.7153)
(-1.70934e-15 -2.51111 6.69465)
(-1.33568e-16 -3.93035 10.186)
(-5.0803e-16 -3.20337 8.84781)
(-1.08031e-15 -3.22902 8.18074)
(-1.73698e-15 -2.93946 7.24439)
(-2.69845e-15 -2.84997 6.13143)
(-4.96654e-15 -2.74739 4.47763)
(-7.33148e-15 -2.35742 2.88609)
(-6.66185e-15 -1.9288 2.51096)
(-1.42266e-15 0.213724 -0.984831)
(-6.53375e-15 -1.86559 4.47696)
(-4.67659e-15 -0.377224 2.49293)
(2.93437e-15 1.46179 -4.01991)
(-3.17333e-15 -0.158453 -4.2642)
(-2.32368e-16 0.764466 -3.65621)
(-6.24877e-16 0.93351 -2.07198)
(8.14218e-16 1.87685 -2.70794)
(6.56907e-16 1.52611 -1.73088)
(-2.75581e-15 2.29616 -2.04269)
(-2.70992e-15 2.92708 -2.2273)
(-1.58159e-15 2.30641 -1.24885)
(-2.34932e-15 3.13511 -1.53789)
(-2.66614e-15 3.81017 -1.74194)
(-1.76506e-15 2.84886 -0.908666)
(-2.38013e-15 4.14679 -1.46365)
(-1.64016e-15 3.20556 -0.865917)
(-2.38538e-15 3.97412 -1.19255)
(-2.89845e-15 4.67374 -1.43041)
(-1.86199e-15 3.42888 -0.746282)
(-2.81556e-15 4.84544 -1.25138)
(-2.1426e-15 3.72587 -0.744165)
(-2.50185e-15 4.54002 -1.09953)
(-2.96804e-15 5.18249 -1.26666)
(-2.04012e-15 3.80916 -0.691901)
(-2.35149e-15 4.67721 -1.00514)
(-2.58416e-15 5.46764 -1.05071)
(-2.23055e-15 3.94979 -0.638577)
(-3.15738e-15 5.4937 -0.904251)
(-2.49769e-15 4.07139 -0.595541)
(-3.26655e-15 4.94218 -0.842526)
(-3.14739e-15 5.68224 -0.689434)
(-2.25328e-15 4.08193 -0.482788)
(-3.32806e-15 5.62742 -0.520756)
(-2.39177e-15 4.14288 -0.372634)
(-3.08479e-15 5.06619 -0.445057)
(-3.8382e-15 5.61883 -0.173236)
(-2.62756e-15 4.00428 -0.160404)
(-3.28015e-15 4.87353 -0.112765)
(-3.93839e-15 5.49231 0.155264)
(-2.68435e-15 3.98297 0.0209906)
(-3.64533e-15 5.37075 0.210819)
(-2.64234e-15 3.86986 0.11516)
(-3.28578e-15 4.61981 0.237384)
(-3.56947e-15 5.16819 0.409505)
(-2.59575e-15 3.75113 0.235701)
(-3.70104e-15 5.03226 0.390913)
(-2.04147e-15 3.6487 0.276692)
(-2.72718e-15 4.40442 0.383438)
(-3.15354e-15 4.87378 0.424708)
(-2.21531e-15 3.46245 0.299169)
(-2.7373e-15 4.14383 0.386696)
(-2.81964e-15 4.74466 0.348305)
(-2.00591e-15 3.47398 0.26994)
(-2.29894e-15 4.68562 0.255403)
(-1.63438e-15 3.38578 0.214111)
(-2.0888e-15 4.03589 0.20913)
(-2.67241e-15 4.67302 0.0937687)
(-1.95379e-15 3.39193 0.128495)
(-2.3897e-15 4.6572 0.0159166)
(-1.21899e-15 3.41157 0.0597465)
(-1.63811e-15 4.1628 -0.0160416)
(-1.57253e-15 4.77451 -0.155325)
(-1.22992e-15 3.44553 -0.0449396)
(-2.32616e-15 4.22064 -0.130127)
(-1.02123e-15 4.97197 -0.276343)
(-7.28566e-16 3.57076 -0.136673)
(-5.51026e-16 5.03677 -0.325024)
(-6.72238e-16 3.71374 -0.198546)
(-6.52144e-16 4.53438 -0.332188)
(-6.87032e-16 5.33286 -0.478156)
(-5.54424e-16 3.79474 -0.290496)
(-5.67885e-16 5.45332 -0.500318)
(-3.82072e-16 4.05099 -0.339679)
(-4.95511e-16 4.98031 -0.503258)
(-3.82531e-16 5.73462 -0.634289)
(-3.07508e-16 4.18476 -0.429996)
(-2.91465e-16 5.20743 -0.572242)
(-3.61282e-17 6.11501 -0.707681)
(-1.11399e-16 4.29062 -0.494755)
(8.74835e-17 6.35539 -0.739263)
(2.72158e-17 4.63854 -0.527278)
(2.43547e-16 6.08436 -0.792647)
(-5.4148e-15 0.31172 6.5993)
(-5.41406e-15 0.319449 6.61752)
(-5.41496e-15 0.30217 6.61256)
(-5.41611e-15 0.288301 6.60888)
(-5.41769e-15 0.268606 6.60045)
(-5.41957e-15 0.246168 6.58996)
(-5.42164e-15 0.220788 6.57805)
(-5.42376e-15 0.193118 6.56607)
(-5.42579e-15 0.163643 6.55533)
(-5.42758e-15 0.132893 6.54706)
(-5.42899e-15 0.101368 6.54221)
(-5.42993e-15 0.0693204 6.54147)
(-5.43034e-15 0.0365473 6.54504)
(-5.43023e-15 0.00247178 6.55247)
(-5.42962e-15 -0.0344991 6.5618)
(-5.42856e-15 -0.0647113 6.57363)
(-5.42658e-15 -0.0960102 6.59615)
(-5.42308e-15 -0.135867 6.6352)
(-5.41783e-15 -0.182634 6.69066)
(-5.41044e-15 -0.234167 6.76333)
(-5.40024e-15 -0.291356 6.85648)
(-5.38635e-15 -0.3553 6.97321)
(-5.36762e-15 -0.426989 7.11711)
(-5.3425e-15 -0.507795 7.29245)
(-5.30892e-15 -0.599423 7.50419)
(-5.26422e-15 -0.704134 7.75813)
(-5.20498e-15 -0.824808 8.0606)
(-5.12704e-15 -0.965098 8.41849)
(-5.02554e-15 -1.12945 8.83867)
(-4.89524e-15 -1.32323 9.32716)
(-4.7313e-15 -1.5525 9.88802)
(-4.53045e-15 -1.82386 10.5212)
(-4.29283e-15 -2.14384 11.22)
(-4.02409e-15 -2.51811 11.9671)
(-3.73711e-15 -2.95067 12.7305)
(-3.45231e-15 -3.44306 13.462)
(-3.19547e-15 -3.99454 14.102)
(-2.99362e-15 -4.60294 14.598)
(-2.87129e-15 -5.26552 14.9371)
(-2.85034e-15 -5.98077 15.1786)
(-2.954e-15 -6.75545 15.4584)
(-3.20958e-15 -7.62089 15.9481)
(-3.64136e-15 -8.64548 16.7746)
(-4.251e-15 -9.9127 17.9454)
(-4.99678e-15 -11.4594 19.3279)
(-5.78729e-15 -13.2242 20.6915)
(-6.49307e-15 -15.052 21.7735)
(-6.97154e-15 -16.7442 22.3366)
(-7.09614e-15 -18.1223 22.2119)
(-6.77701e-15 -19.0777 21.3112)
(-5.9679e-15 -19.5641 19.5865)
(-4.67921e-15 -19.4909 16.9635)
(-3.01873e-15 -18.5616 13.3657)
(-1.23502e-15 -16.1756 8.92789)
(2.95671e-16 -11.108 4.28601)
(1.13213e-15 -1.05533 0.365564)
(9.80627e-16 -0.464677 -2.06243)
(5.77996e-16 0.155768 -5.47876)
(1.0756e-16 1.28287 -8.58434)
(-1.17398e-16 0.460757 -9.29574)
(4.20965e-17 -1.36609 -8.56764)
(5.27341e-16 -1.9371 -6.23651)
(5.89747e-16 -1.9201 -4.21318)
(1.37881e-16 -1.89739 -3.31426)
(-1.72688e-16 -2.35547 -3.55352)
(-2.36733e-16 -2.67599 -4.07665)
(-2.32057e-16 -2.70444 -4.48644)
(-2.20386e-16 -2.58986 -4.81352)
(-2.09922e-16 -2.37209 -5.09069)
(-2.04195e-16 -2.05472 -5.31115)
(-2.01698e-16 -1.62742 -5.46809)
(-1.99679e-16 -1.05972 -5.55387)
(-1.98869e-16 -0.20989 -5.59046)
(-1.96563e-16 0.456443 -5.60671)
(-2.03216e-16 1.8547 -5.66077)
(-1.82265e-16 3.20544 -5.30609)
(-2.65548e-16 4.32499 -4.43818)
(-7.51367e-17 5.36966 -2.5852)
(1.43569e-16 6.4974 -0.996036)
(-5.38437e-15 0.307862 6.94104)
(-5.38161e-15 0.315685 6.96927)
(-5.3815e-15 0.299843 6.96831)
(-5.38165e-15 0.285697 6.96908)
(-5.3825e-15 0.265525 6.96256)
(-5.3839e-15 0.241659 6.95178)
(-5.38578e-15 0.214002 6.93683)
(-5.38804e-15 0.18302 6.91869)
(-5.39053e-15 0.149213 6.89846)
(-5.3931e-15 0.113183 6.87757)
(-5.39555e-15 0.0756518 6.85761)
(-5.39766e-15 0.0370416 6.84041)
(-5.39924e-15 -0.00219262 6.82779)
(-5.40004e-15 -0.0418674 6.82141)
(-5.39984e-15 -0.0828554 6.82159)
(-5.39837e-15 -0.12437 6.83106)
(-5.39524e-15 -0.168517 6.8566)
(-5.39004e-15 -0.218012 6.9012)
(-5.38264e-15 -0.271995 6.96249)
(-5.37239e-15 -0.330314 7.04287)
(-5.35849e-15 -0.394008 7.14597)
(-5.33991e-15 -0.464125 7.27482)
(-5.3153e-15 -0.541939 7.43315)
(-5.28292e-15 -0.62904 7.6252)
(-5.24051e-15 -0.727481 7.85577)
(-5.18523e-15 -0.839982 8.13022)
(-5.11363e-15 -0.969919 8.45424)
(-5.02164e-15 -1.12147 8.83367)
(-4.90484e-15 -1.29957 9.27385)
(-4.75889e-15 -1.50996 9.77874)
(-4.58039e-15 -1.75879 10.3496)
(-4.36818e-15 -2.05223 10.983)
(-4.12498e-15 -2.39572 11.6678)
(-3.85911e-15 -2.79293 12.3824)
(-3.58538e-15 -3.24498 13.0919)
(-3.32453e-15 -3.75027 13.7497)
(-3.10057e-15 -4.30586 14.3066)
(-2.93719e-15 -4.90983 14.7307)
(-2.85571e-15 -5.56315 15.0334)
(-2.87661e-15 -6.27165 15.2882)
(-3.02344e-15 -7.05211 15.6254)
(-3.32304e-15 -7.94457 16.1927)
(-3.7951e-15 -9.016 17.0871)
(-4.43221e-15 -10.331 18.2913)
(-5.18307e-15 -11.896 19.6584)
(-5.95109e-15 -13.6254 20.9546)
(-6.60841e-15 -15.3585 21.925)
(-7.01997e-15 -16.9109 22.3489)
(-7.06968e-15 -18.1298 22.0798)
(-6.67799e-15 -18.9284 21.0488)
(-5.80928e-15 -19.2609 19.2203)
(-4.48774e-15 -19.0176 16.5309)
(-2.83481e-15 -17.8972 12.9153)
(-1.10056e-15 -15.3551 8.49665)
(3.59473e-16 -10.3153 3.98394)
(1.14559e-15 -1.48804 0.324908)
(1.08118e-15 -1.47634 -0.0998296)
(2.82123e-16 1.28632 -7.28549)
(-2.22639e-16 1.67454 -9.71536)
(-4.2051e-16 0.584628 -9.9408)
(-2.40697e-16 -1.12093 -9.12597)
(3.02264e-16 -1.86908 -7.02221)
(5.66298e-16 -1.61075 -4.71207)
(2.454e-16 -1.17157 -3.34109)
(-1.14277e-16 -1.39591 -3.35932)
(-2.28802e-16 -1.72009 -3.95282)
(-2.35534e-16 -1.81477 -4.47245)
(-2.24041e-16 -1.78519 -4.86916)
(-2.13e-16 -1.68391 -5.1911)
(-2.06078e-16 -1.50585 -5.44283)
(-2.02778e-16 -1.23555 -5.62355)
(-2.00763e-16 -0.855499 -5.72008)
(-1.99989e-16 -0.311003 -5.73261)
(-1.98662e-16 0.36746 -5.71764)
(-2.045e-16 1.5801 -5.62451)
(-1.83332e-16 2.82091 -5.12656)
(-2.75364e-16 3.80022 -4.28275)
(-3.65698e-17 4.8706 -2.52854)
(8.9964e-17 5.957 -0.902218)
(-5.35378e-15 0.306785 7.211)
(-5.34891e-15 0.316072 7.24857)
(-5.34752e-15 0.302423 7.25439)
(-5.3463e-15 0.289882 7.26348)
(-5.34583e-15 0.271507 7.26523)
(-5.34598e-15 0.249217 7.26298)
(-5.34671e-15 0.222808 7.2565)
(-5.3479e-15 0.192554 7.2466)
(-5.34945e-15 0.15872 7.2341)
(-5.35118e-15 0.121655 7.2202)
(-5.3529e-15 0.0816755 7.20632)
(-5.35436e-15 0.0394289 7.19433)
(-5.35529e-15 -0.00428604 7.1862)
(-5.35539e-15 -0.0498245 7.18372)
(-5.35431e-15 -0.096814 7.18808)
(-5.35158e-15 -0.141462 7.20252)
(-5.34668e-15 -0.18703 7.23333)
(-5.33913e-15 -0.238044 7.2834)
(-5.32868e-15 -0.295068 7.35136)
(-5.31453e-15 -0.357388 7.43994)
(-5.29572e-15 -0.42606 7.55297)
(-5.27102e-15 -0.502235 7.69379)
(-5.23886e-15 -0.587325 7.86631)
(-5.1973e-15 -0.683084 8.07485)
(-5.14388e-15 -0.791726 8.32407)
(-5.07568e-15 -0.916093 8.61889)
(-4.98928e-15 -1.05964 8.96424)
(-4.8809e-15 -1.22655 9.36469)
(-4.74685e-15 -1.42157 9.82371)
(-4.58399e-15 -1.64999 10.3426)
(-4.39084e-15 -1.91718 10.9191)
(-4.16878e-15 -2.228 11.5452)
(-3.92344e-15 -2.586 12.2044)
(-3.66589e-15 -2.99244 12.87)
(-3.4126e-15 -3.44597 13.5048)
(-3.184e-15 -3.94356 14.0663)
(-3.00162e-15 -4.48331 14.5208)
(-2.88551e-15 -5.06793 14.8624)
(-2.85388e-15 -5.7067 15.13)
(-2.92609e-15 -6.416 15.4116)
(-3.12576e-15 -7.22194 15.8279)
(-3.47789e-15 -8.16614 16.4962)
(-3.99544e-15 -9.3026 17.4749)
(-4.66003e-15 -10.6692 18.7156)
(-5.41002e-15 -12.2442 20.057)
(-6.14414e-15 -13.9257 21.2679)
(-6.73755e-15 -15.5531 22.1068)
(-7.06471e-15 -16.9551 22.3744)
(-7.02204e-15 -17.9981 21.947)
(-6.54235e-15 -18.609 20.7728)
(-5.6033e-15 -18.7406 18.8253)
(-4.24605e-15 -18.2744 16.0507)
(-2.60779e-15 -16.9241 12.3949)
(-9.40638e-16 -14.2042 7.98136)
(4.25527e-16 -9.03832 3.58173)
(1.18047e-15 0.779304 0.165386)
(8.67e-16 0.878303 -3.4001)
(-1.2328e-17 2.35972 -8.95549)
(-4.59244e-16 2.04739 -10.3949)
(-6.05686e-16 0.710846 -10.2161)
(-4.67591e-16 -1.34679 -9.51154)
(6.67059e-17 -2.42894 -7.72655)
(4.93885e-16 -2.29706 -5.29603)
(3.34817e-16 -1.67893 -3.49535)
(-3.97858e-17 -1.57936 -3.17808)
(-2.10718e-16 -1.79125 -3.73609)
(-2.37401e-16 -1.87407 -4.3356)
(-2.28286e-16 -1.82267 -4.80966)
(-2.16723e-16 -1.69416 -5.18854)
(-2.08691e-16 -1.48781 -5.47907)
(-2.0437e-16 -1.18838 -5.69051)
(-2.02102e-16 -0.779597 -5.80723)
(-2.01236e-16 -0.234291 -5.84373)
(-2.00418e-16 0.371015 -5.80417)
(-2.04905e-16 1.53678 -5.62389)
(-1.85121e-16 2.68868 -5.08598)
(-2.743e-16 3.55782 -4.24889)
(-3.29633e-17 4.59233 -2.51816)
(3.63334e-18 5.87213 -0.864239)
(-5.3188e-15 0.300157 7.49139)
(-5.31144e-15 0.310212 7.5388)
(-5.30845e-15 0.297998 7.5513)
(-5.30546e-15 0.286475 7.56863)
(-5.30324e-15 0.269326 7.57865)
(-5.30165e-15 0.248384 7.58508)
(-5.30065e-15 0.223334 7.58748)
(-5.30015e-15 0.194438 7.58669)
(-5.30004e-15 0.161852 7.58346)
(-5.30016e-15 0.125845 7.57883)
(-5.30031e-15 0.0865745 7.57406)
(-5.30023e-15 0.044615 7.57079)
(-5.29961e-15 0.000343496 7.57083)
(-5.29811e-15 -0.0465139 7.57602)
(-5.29531e-15 -0.0955305 7.58786)
(-5.29067e-15 -0.143936 7.60987)
(-5.28342e-15 -0.19451 7.64829)
(-5.27297e-15 -0.250368 7.70605)
(-5.25892e-15 -0.312332 7.78282)
(-5.24034e-15 -0.380308 7.88147)
(-5.21608e-15 -0.455253 8.00584)
(-5.18474e-15 -0.538499 8.15967)
(-5.14456e-15 -0.631596 8.34681)
(-5.09343e-15 -0.736462 8.5716)
(-5.02879e-15 -0.855422 8.83844)
(-4.94769e-15 -0.991407 9.15172)
(-4.84689e-15 -1.14791 9.51545)
(-4.72312e-15 -1.32903 9.93278)
(-4.57357e-15 -1.53924 10.4051)
(-4.39654e-15 -1.7832 10.9307)
(-4.19259e-15 -2.06526 11.5036)
(-3.96557e-15 -2.38876 12.1108)
(-3.72383e-15 -2.75514 12.731)
(-3.48059e-15 -3.16335 13.3336)
(-3.25315e-15 -3.61032 13.8819)
(-3.06088e-15 -4.09308 14.3428)
(-2.92261e-15 -4.61267 14.7017)
(-2.8551e-15 -5.17776 14.9792)
(-2.87431e-15 -5.80544 15.2365)
(-2.99902e-15 -6.51972 15.5671)
(-3.25243e-15 -7.35136 16.0757)
(-3.65625e-15 -8.3389 16.8469)
(-4.21534e-15 -9.52143 17.9024)
(-4.90035e-15 -10.9131 19.166)
(-5.64067e-15 -12.471 20.4662)
(-6.33207e-15 -14.0853 21.5773)
(-6.85414e-15 -15.6017 22.2745)
(-7.09153e-15 -16.8647 22.3809)
(-6.95314e-15 -17.7573 21.7947)
(-6.38431e-15 -18.2134 20.4785)
(-5.37687e-15 -18.1796 18.4122)
(-3.98932e-15 -17.531 15.5495)
(-2.37275e-15 -15.9977 11.8491)
(-7.79392e-16 -13.1282 7.44439)
(4.71535e-16 -8.06303 3.08982)
(1.17737e-15 1.0629 -0.041501)
(4.62808e-16 1.74586 -6.09058)
(-3.25755e-16 2.98733 -9.94655)
(-6.917e-16 2.23907 -10.7271)
(-7.88744e-16 0.697053 -10.2444)
(-6.4435e-16 -1.41596 -9.54423)
(-1.40579e-16 -2.72597 -8.1316)
(3.8988e-16 -2.75158 -5.80464)
(3.87147e-16 -2.01402 -3.71707)
(3.74972e-17 -1.60001 -3.03955)
(-1.8252e-16 -1.65917 -3.49551)
(-2.35705e-16 -1.73114 -4.15084)
(-2.32117e-16 -1.69421 -4.70254)
(-2.20618e-16 -1.56996 -5.14203)
(-2.11744e-16 -1.3678 -5.47384)
(-2.0641e-16 -1.08077 -5.71522)
(-2.0367e-16 -0.692766 -5.85084)
(-2.02457e-16 -0.192511 -5.90033)
(-2.02212e-16 0.366262 -5.86143)
(-2.05207e-16 1.43913 -5.60824)
(-1.87278e-16 2.46937 -5.01081)
(-2.74861e-16 3.22261 -4.17991)
(-2.50316e-17 4.25005 -2.49375)
(-7.77473e-17 5.6931 -0.860944)
(-5.27972e-15 0.293128 7.77944)
(-5.26958e-15 0.303717 7.83672)
(-5.26476e-15 0.292566 7.85605)
(-5.2597e-15 0.281778 7.88179)
(-5.25539e-15 0.265438 7.90033)
(-5.25166e-15 0.245235 7.91574)
(-5.24848e-15 0.220935 7.9274)
(-5.24579e-15 0.192736 7.93612)
(-5.24346e-15 0.160742 7.94262)
(-5.24135e-15 0.125179 7.94788)
(-5.23924e-15 0.0864089 7.95307)
(-5.23689e-15 0.044586 7.95952)
(-5.23399e-15 -0.000411468 7.96893)
(-5.23014e-15 -0.0482382 7.98321)
(-5.22488e-15 -0.0986788 8.00393)
(-5.21757e-15 -0.149829 8.03471)
(-5.20718e-15 -0.204328 8.08191)
(-5.19304e-15 -0.264695 8.14849)
(-5.17463e-15 -0.331711 8.23492)
(-5.15089e-15 -0.40557 8.34426)
(-5.12054e-15 -0.487177 8.4804)
(-5.08202e-15 -0.57789 8.64722)
(-5.03344e-15 -0.679342 8.84855)
(-4.9726e-15 -0.793501 9.08859)
(-4.89691e-15 -0.922704 9.37137)
(-4.80356e-15 -1.06985 9.70059)
(-4.68965e-15 -1.23831 10.0792)
(-4.55255e-15 -1.43189 10.5086)
(-4.3905e-15 -1.65459 10.9879)
(-4.2034e-15 -1.91026 11.5123)
(-3.99379e-15 -2.20203 12.0716)
(-3.76786e-15 -2.53154 12.6483)
(-3.53612e-15 -2.89826 13.2169)
(-3.31316e-15 -3.29961 13.7454)
(-3.11626e-15 -3.73215 14.2018)
(-2.96314e-15 -4.19503 14.5667)
(-2.86987e-15 -4.69426 14.8477)
(-2.85054e-15 -5.24518 15.0889)
(-2.91972e-15 -5.87137 15.3651)
(-3.09592e-15 -6.60121 15.7654)
(-3.40124e-15 -7.46575 16.3733)
(-3.85275e-15 -8.49677 17.2412)
(-4.44649e-15 -9.7177 18.3584)
(-5.1429e-15 -11.1222 19.6269)
(-5.86418e-15 -12.6519 20.8691)
(-6.50511e-15 -14.1929 21.8678)
(-6.95088e-15 -15.5996 22.4162)
(-7.09647e-15 -16.7316 22.3601)
(-6.8628e-15 -17.4851 21.6179)
(-6.2076e-15 -17.7983 20.1636)
(-5.13729e-15 -17.6123 17.9814)
(-3.72702e-15 -16.801 15.0325)
(-2.13867e-15 -15.1104 11.2913)
(-6.22184e-16 -12.1063 6.91736)
(4.95984e-16 -7.13587 2.53296)
(1.04217e-15 -0.253799 -0.692659)
(1.40592e-16 2.26284 -7.6476)
(-5.96767e-16 3.29055 -10.4552)
(-8.86811e-16 2.24582 -10.7844)
(-9.45079e-16 0.56391 -10.097)
(-7.87697e-16 -1.52541 -9.34451)
(-3.13467e-16 -2.96013 -8.23341)
(2.75772e-16 -3.13664 -6.14842)
(4.07197e-16 -2.33846 -3.94297)
(1.09864e-16 -1.63901 -2.94482)
(-1.45932e-16 -1.49869 -3.24919)
(-2.29574e-16 -1.53418 -3.93502)
(-2.34981e-16 -1.51484 -4.56231)
(-2.24424e-16 -1.40512 -5.0665)
(-2.15008e-16 -1.21934 -5.44564)
(-2.0882e-16 -0.957596 -5.71755)
(-2.05561e-16 -0.601735 -5.87146)
(-2.03888e-16 -0.149644 -5.92527)
(-2.04178e-16 0.343244 -5.89461)
(-2.05382e-16 1.34119 -5.58414)
(-1.89933e-16 2.27298 -4.95039)
(-2.72952e-16 2.91503 -4.13035)
(-2.42886e-17 3.93041 -2.47216)
(-1.72509e-16 5.57286 -0.77279)
(-5.23674e-15 0.284861 8.07374)
(-5.2236e-15 0.295834 8.14078)
(-5.21677e-15 0.28559 8.16694)
(-5.20943e-15 0.275471 8.20112)
(-5.20279e-15 0.259839 8.22834)
(-5.19664e-15 0.240317 8.25296)
(-5.19095e-15 0.21669 8.27418)
(-5.18568e-15 0.189154 8.29278)
(-5.18071e-15 0.157785 8.30936)
(-5.17589e-15 0.12273 8.32486)
(-5.17103e-15 0.0842653 8.34037)
(-5.16588e-15 0.0424798 8.35717)
(-5.16011e-15 -0.00269278 8.37683)
(-5.15332e-15 -0.0511398 8.40112)
(-5.14502e-15 -0.102644 8.43163)
(-5.13439e-15 -0.156337 8.47223)
(-5.12017e-15 -0.214317 8.52928)
(-5.10164e-15 -0.278698 8.60569)
(-5.07818e-15 -0.350335 8.70239)
(-5.04864e-15 -0.429699 8.82271)
(-5.0116e-15 -0.517701 8.97054)
(-4.96542e-15 -0.615684 9.1497)
(-4.90814e-15 -0.725295 9.36403)
(-4.83753e-15 -0.848482 9.61749)
(-4.75113e-15 -0.987534 9.91361)
(-4.64637e-15 -1.14521 10.2553)
(-4.52082e-15 -1.32461 10.6442)
(-4.37271e-15 -1.52903 11.08)
(-4.20147e-15 -1.76175 11.559)
(-4.00864e-15 -2.02557 12.0732)
(-3.79869e-15 -2.32218 12.6083)
(-3.57986e-15 -2.65156 13.143)
(-3.36421e-15 -3.0116 13.6491)
(-3.16697e-15 -3.39904 14.0965)
(-3.00464e-15 -3.81181 14.4621)
(-2.89291e-15 -4.2532 14.7438)
(-2.84517e-15 -4.73544 14.9716)
(-2.87342e-15 -5.28029 15.2071)
(-2.99146e-15 -5.91572 15.5287)
(-3.21753e-15 -6.67145 16.0136)
(-3.57173e-15 -7.57573 16.7209)
(-4.06542e-15 -8.6517 17.6738)
(-4.68557e-15 -9.90753 18.8344)
(-5.38354e-15 -11.3194 20.0882)
(-6.07639e-15 -12.8169 21.2558)
(-6.65969e-15 -14.2847 22.1312)
(-7.02516e-15 -15.5852 22.5264)
(-7.07804e-15 -16.5908 22.3091)
(-6.75074e-15 -17.2091 21.4155)
(-6.01332e-15 -17.3811 19.8279)
(-4.88694e-15 -17.0461 17.5334)
(-3.46211e-15 -16.082 14.5019)
(-1.90863e-15 -14.25 10.7258)
(-4.74153e-16 -11.1235 6.37729)
(5.07145e-16 -6.15915 1.93749)
(7.85062e-16 -1.37481 -2.69993)