/*--------------------------------*- C++ -*----------------------------------*\
| =========                 |                                                 |
| \\      /  F ield         | OpenFOAM: The Open Source CFD Toolbox           |
|  \\    /   O peration     | Version:  4.1                                   |
|   \\  /    A nd           | Web:      www.OpenFOAM.org                      |
|    \\/     M anipulation  |                                                 |
\*---------------------------------------------------------------------------*/
FoamFile
{
    version     2.0;
    format      ascii;
    class       volScalarField;
    location    "12";
    object      p;
}
// * * * * * * * * * * * * * * * * * * * * * * * * * * * * * * * * * * * * * //

dimensions      [0 2 -2 0 0 0 0];

internalField   nonuniform List<scalar> 
225
(
-2.27971e+06
855583
6.59413e+06
8.47579e+06
8.79127e+06
7.80379e+06
6.91433e+06
5.73298e+06
4.64587e+06
6.27867e+06
9.17826e+06
9.36539e+06
8.78839e+06
9.33547e+06
8.78594e+06
1.22042e+07
2.40762e+06
-879921
-546522
-329433
1.34268e+06
3.63744e+06
5.23324e+06
5.5545e+06
6.30819e+06
7.25225e+06
5.46754e+06
2.97534e+06
1.64554e+06
630274
5.90506e+06
5.01928e+06
3.44632e+06
3.07593e+06
3.4956e+06
4.15658e+06
5.09978e+06
6.06723e+06
5.75353e+06
3.84683e+06
2.57842e+06
3.32943e+06
5.37969e+06
7.62335e+06
9.85523e+06
7.2517e+06
7.72654e+06
8.22718e+06
9.17995e+06
9.0735e+06
8.23023e+06
7.46682e+06
7.44563e+06
8.16564e+06
8.86546e+06
8.43879e+06
7.43403e+06
7.22022e+06
6.70013e+06
5.91876e+06
7.45119e+06
7.4825e+06
6.8338e+06
6.03792e+06
5.957e+06
6.23086e+06
6.50732e+06
6.30865e+06
5.95254e+06
6.45192e+06
7.26906e+06
6.93863e+06
6.03954e+06
5.79509e+06
5.70367e+06
6.55693e+06
6.76441e+06
6.84633e+06
6.89573e+06
6.84437e+06
6.68851e+06
6.78129e+06
6.93271e+06
6.73793e+06
6.47624e+06
6.48918e+06
6.50869e+06
6.84836e+06
7.77581e+06
8.74026e+06
6.84215e+06
6.79569e+06
6.56172e+06
6.35171e+06
6.57754e+06
6.949e+06
6.94426e+06
6.75655e+06
6.75253e+06
6.79792e+06
6.89221e+06
7.07115e+06
7.20604e+06
6.72472e+06
6.16573e+06
6.95038e+06
6.69811e+06
6.4561e+06
6.41339e+06
6.61213e+06
6.77653e+06
6.67011e+06
6.39047e+06
6.2758e+06
6.422e+06
6.52423e+06
6.40627e+06
6.43571e+06
6.58497e+06
6.21165e+06
6.17386e+06
5.98347e+06
5.71018e+06
5.72676e+06
5.94229e+06
6.29276e+06
6.74786e+06
6.90744e+06
6.81429e+06
6.76056e+06
6.67974e+06
6.3917e+06
6.33534e+06
6.89043e+06
7.15831e+06
6.42946e+06
6.57609e+06
6.56526e+06
6.5758e+06
6.5964e+06
6.52099e+06
6.45991e+06
6.43492e+06
6.20225e+06
5.90263e+06
5.92001e+06
6.29884e+06
6.47532e+06
6.26981e+06
5.99976e+06
6.42711e+06
6.39091e+06
6.42746e+06
6.53099e+06
6.51037e+06
6.33542e+06
6.24017e+06
6.51154e+06
6.70557e+06
6.44553e+06
6.26424e+06
6.47114e+06
6.49025e+06
6.14443e+06
5.91901e+06
6.73644e+06
6.66765e+06
6.58668e+06
6.59335e+06
6.61214e+06
6.63798e+06
6.66333e+06
6.64991e+06
6.47105e+06
6.24634e+06
6.28305e+06
6.46693e+06
6.693e+06
6.91308e+06
6.92076e+06
6.9403e+06
6.90574e+06
6.86764e+06
6.72775e+06
6.49479e+06
6.49402e+06
6.69162e+06
6.88836e+06
7.06012e+06
7.13009e+06
7.00504e+06
6.8205e+06
6.68659e+06
6.76329e+06
6.69419e+06
6.16506e+06
5.82694e+06
5.52033e+06
5.31781e+06
5.23855e+06
5.20712e+06
5.13927e+06
5.08349e+06
5.10338e+06
5.10745e+06
4.99286e+06
4.9941e+06
5.20924e+06
5.51704e+06
5.04513e+06
1.69969e+06
1.87378e+06
1.77183e+06
1.48954e+06
1.4172e+06
1.44593e+06
1.52529e+06
1.53934e+06
1.48462e+06
1.56838e+06
1.79069e+06
1.90252e+06
1.82214e+06
1.51176e+06
1.15086e+06
)
;

boundaryField
{
    inletFace
    {
        type            zeroGradient;
    }
    inlet
    {
        type            zeroGradient;
    }
    inletWalls
    {
        type            zeroGradient;
    }
    outletInlet
    {
        type            fixedValue;
        value           uniform 0;
    }
}


// ************************************************************************* //
