/*--------------------------------*- C++ -*----------------------------------*\
| =========                 |                                                 |
| \\      /  F ield         | OpenFOAM: The Open Source CFD Toolbox           |
|  \\    /   O peration     | Version:  4.1                                   |
|   \\  /    A nd           | Web:      www.OpenFOAM.org                      |
|    \\/     M anipulation  |                                                 |
\*---------------------------------------------------------------------------*/
FoamFile
{
    version     2.0;
    format      ascii;
    class       surfaceScalarField;
    location    "12";
    object      phi;
}
// * * * * * * * * * * * * * * * * * * * * * * * * * * * * * * * * * * * * * //

dimensions      [0 3 -1 0 0 0 0];

internalField   nonuniform List<scalar> 
420
(
-54963.1
56327
427060
-480666
-131967
560365
-14894.9
-115757
121179
-134764
149526
-27040.8
14221
136613
7221.2
8304.8
-41484.3
50012.2
-143773
103598
-184854
42383.7
-177197
-6324.41
-182596
6733.22
-163872
-17369.6
-162572
924051
-867714
1.13663e+06
-693240
2.06443e+06
-367430
2.09373e+06
-145047
1.93279e+06
26175.6
1.68294e+06
222816
1.31123e+06
508323
1.01697e+06
302579
892659
174331
831166
165091
673402
200153
446297
220757
241351
211659
95755.1
128198
-66817.1
-818809
-48934.6
-1.55909e+06
47019
-2.08201e+06
155475
-2.46874e+06
241674
-2.61854e+06
175961
-2.43662e+06
40891.2
-1.9528e+06
24488.7
-1.70609e+06
55867.9
-1.63461e+06
102846
-1.50687e+06
37337.8
-1.3516e+06
44877.4
-1.13738e+06
6555.94
-830584
-95133.7
-467699
-234671
-534518
-9170.43
-39869.7
-14802.8
52493.3
39932.7
100509
223174
58095.4
396154
2696.18
558642
-121726
746265
-163208
819356
-17285.1
711656
210474
548549
200368
506500
86905.2
531942
-18981
521885
-85150.4
410621
-123520
-123898
-193572
153644
-212447
71326.9
-123908
11943.9
-33798.8
-32041
-1074.53
-30058.4
-134168
11328.3
-292048
-5374.23
-318240
8875.14
-159611
51825.5
8499.6
32224.5
52790.4
42610.1
23843.6
9851.66
-21602.2
-39821.9
-99063.9
-46200.7
-222961
136743
16862.8
258946
-50910.7
308682
-37832.1
254879
21729.3
205413
19385.3
215316
1405.76
215989
-6058.44
218148
6703.73
275758
-5793
329479
-21498.6
382728
-10654.1
375222
17402.4
316002
19466.9
203775
66126.2
-19189.3
-4563.64
21425.2
-40460.8
-15019.1
-74991.3
-3295.38
-106236
52968.6
-132956
46107.2
-143947
12395.6
-144132
-5870.81
-142911
5486.16
-170985
22287.3
-200707
8216.38
-221179
9829.42
-215611
11783.3
-209522
13323.7
-95942.7
-47613.9
-115129
-31093.1
52525.1
-79178.2
33066.3
-102478
20006.5
-53018.6
3509.31
-3905.72
-2995.72
5694.5
2799.49
-13842.9
13682.9
-34800.7
26448.1
-41337.8
28836.5
-43561
10469
-38287.5
4559.55
5963.87
-32372.9
6058.83
13307.9
15726.6
-57073.1
-99405
41924.3
10618.9
75681.5
-678.129
90711.5
4985.56
81155.6
13071
53114.3
25045.5
6595.84
49323.2
-53034.9
73312.6
-75146.5
48566.9
-51123.3
4814.82
-38310.4
-2349.15
-28423.2
-5323.67
-33298.5
-27560.5
13018.1
-33072.2
34225.8
-78423.4
-65175
58388
-47756.8
115039
-57313.8
155014
-34983.8
192262
-24163.8
301198
-83880.6
352819
-2284.37
385926
40219.5
408473
26039.2
415395
-2094.13
400687
12411.5
338277
57077.9
252553
58249.5
225649
-6108.25
167875
-20528
102700
292916
-340589
381856
-146167
394140
-47178.7
369845
244.142
336555
-50510.8
295195
39117.8
260331
75109.3
204129
82268.3
121551
80502.7
59786
74193.5
43694.8
73195.6
28549.7
73390.4
-3518.57
25968.5
-57850.5
33823
44850.8
-21352.1
-319136
-99907.3
-67581
-123121
-23931.8
-18789.5
-104040
62014
-131263
90409.7
10754.8
82010.2
83546.5
46007.1
118302
-11313.3
137857
-43649.3
106574
-30370.8
59937.5
3402.96
39681.5
-34985.8
64413.4
-53304.2
52222.8
-8453.05
-319570
489.616
-403840
16716.2
-395263
-32443.1
-412623
-86601
-468349
-75470.1
-445533
-12035.2
-400872
38905
-340969
58409.3
-249103
46003
-156322
13807.9
-70614.6
-25736.9
41818.4
-72721.4
45778.6
60487.4
43024.5
55011.1
34571.2
-384116
384599
-507553
140149
-512545
-27453.5
-467254
-131892
-397008
-145714
-275404
-133639
-115982
-120514
61223.6
-118797
212991
-105764
303882
-77082.8
319710
-41566.7
237417
9572.45
223566
74336
144582
133990
179152
-10685.3
122630
266618
365865
450639
517821
578214
625128
615561
553157
481899
411081
330940
208656
)
;

boundaryField
{
    inletFace
    {
        type            calculated;
        value           nonuniform List<scalar> 
450
(
-2.55692e-06
-4.47083e-06
-4.15305e-06
-5.21706e-06
-5.57629e-06
-5.49414e-06
-5.46723e-06
-5.38268e-06
-5.62605e-06
-5.82078e-06
-5.22845e-06
-4.40293e-06
-3.77915e-06
-3.07345e-06
-1.98247e-06
-3.42029e-06
-4.9805e-06
-5.4054e-06
-5.60041e-06
-5.67924e-06
-5.75334e-06
-5.6633e-06
-5.40456e-06
-4.96373e-06
-4.95946e-06
-4.83639e-06
-4.36589e-06
-3.8433e-06
-2.52362e-06
-8.28817e-07
-7.04893e-06
-5.84944e-06
-5.61047e-06
-5.62635e-06
-5.57538e-06
-5.55331e-06
-5.51211e-06
-5.43819e-06
-5.4022e-06
-5.38377e-06
-5.3565e-06
-5.2706e-06
-5.0062e-06
-4.57151e-06
-2.70594e-06
-2.19828e-06
-5.70797e-06
-5.67558e-06
-5.67307e-06
-5.62701e-06
-5.9664e-06
-5.74045e-06
-5.78195e-06
-5.69318e-06
-5.87259e-06
-5.96878e-06
-5.96812e-06
-6.02941e-06
-6.13123e-06
-6.30348e-06
-4.03624e-06
-6.6441e-06
-6.77193e-06
-6.32047e-06
-6.114e-06
-6.02474e-06
-5.96364e-06
-5.84301e-06
-5.81243e-06
-5.86035e-06
-5.89155e-06
-5.88106e-06
-5.91496e-06
-5.88944e-06
-6.36149e-06
-3.4363e-06
-6.36997e-06
-6.60682e-06
-6.06223e-06
-6.03485e-06
-5.98383e-06
-5.92334e-06
-5.98707e-06
-6.02741e-06
-5.99793e-06
-5.97642e-06
-5.94689e-06
-5.91533e-06
-5.92913e-06
-5.98641e-06
-5.16198e-06
-5.7747e-06
-6.09101e-06
-6.09923e-06
-6.04889e-06
-6.06508e-06
-6.11684e-06
-6.13879e-06
-6.11755e-06
-6.12402e-06
-6.21071e-06
-6.40353e-06
-6.42285e-06
-6.29285e-06
-3.39318e-06
-6.20434e-06
-6.17085e-06
-6.12093e-06
-6.12933e-06
-6.13706e-06
-6.14584e-06
-6.15115e-06
-6.20012e-06
-6.2416e-06
-6.22877e-06
-6.28629e-06
-6.21663e-06
-6.19262e-06
-6.92003e-06
-5.97152e-06
-4.09609e-06
-6.3666e-06
-6.71563e-06
-6.71987e-06
-6.66135e-06
-6.56128e-06
-6.48196e-06
-6.41737e-06
-6.39119e-06
-6.37081e-06
-6.32695e-06
-6.30078e-06
-6.46011e-06
-7.87451e-06
-6.61424e-06
-8.01988e-06
-7.72899e-06
-7.23226e-06
-6.83687e-06
-6.67245e-06
-6.61352e-06
-6.57934e-06
-6.66068e-06
-6.76897e-06
-6.45132e-06
-6.03601e-06
-6.603e-06
-7.08424e-06
-7.56184e-06
-3.47829e-06
-5.12721e-06
-9.239e-06
-8.1277e-06
-7.34824e-06
-7.64034e-06
-7.5183e-06
-7.11392e-06
-7.21301e-06
-7.3944e-06
-6.90818e-06
-6.24142e-06
-6.73748e-06
-7.07292e-06
-7.24693e-06
-7.08122e-06
-8.63608e-06
-8.33713e-06
-7.99961e-06
-7.90773e-06
-8.04131e-06
-7.95533e-06
-7.79926e-06
-8.22266e-06
-8.75035e-06
-8.90927e-06
-8.05391e-06
-7.84897e-06
-7.57824e-06
-7.55246e-06
-6.75796e-06
-8.93044e-06
-8.40856e-06
-8.41662e-06
-8.74689e-06
-9.35722e-06
-9.02798e-06
-8.68013e-06
-8.88484e-06
-9.23355e-06
-9.51661e-06
-9.68997e-06
-9.40951e-06
-7.59884e-06
-7.82457e-06
-7.58056e-06
-9.74994e-06
-8.55657e-06
-8.80461e-06
-9.47424e-06
-9.86104e-06
-1.00191e-05
-1.00195e-05
-9.97274e-06
-9.92324e-06
-9.87047e-06
-9.80955e-06
-9.7364e-06
-9.49202e-06
-9.30203e-06
-8.61437e-06
-6.49514e-06
-6.99063e-06
-9.41371e-06
-1.03804e-05
-1.04874e-05
-1.03426e-05
-1.01347e-05
-9.95586e-06
-9.88385e-06
-9.85456e-06
-9.82476e-06
-9.79651e-06
-9.75742e-06
-9.65649e-06
-9.48704e-06
2.55692e-06
4.47083e-06
4.15305e-06
5.21706e-06
5.57629e-06
5.49414e-06
5.46723e-06
5.38268e-06
5.62605e-06
5.82078e-06
5.22845e-06
4.40293e-06
3.77915e-06
3.07345e-06
1.98247e-06
3.42029e-06
4.9805e-06
5.4054e-06
5.60041e-06
5.67924e-06
5.75334e-06
5.6633e-06
5.40456e-06
4.96373e-06
4.95946e-06
4.83639e-06
4.36589e-06
3.8433e-06
2.52362e-06
8.28817e-07
7.04893e-06
5.84944e-06
5.61047e-06
5.62635e-06
5.57538e-06
5.55331e-06
5.51211e-06
5.43819e-06
5.4022e-06
5.38377e-06
5.3565e-06
5.2706e-06
5.0062e-06
4.57151e-06
2.70594e-06
2.19828e-06
5.70797e-06
5.67558e-06
5.67307e-06
5.62701e-06
5.9664e-06
5.74045e-06
5.78195e-06
5.69318e-06
5.87259e-06
5.96878e-06
5.96812e-06
6.02941e-06
6.13123e-06
6.30348e-06
4.03624e-06
6.6441e-06
6.77193e-06
6.32047e-06
6.114e-06
6.02474e-06
5.96364e-06
5.84301e-06
5.81243e-06
5.86035e-06
5.89155e-06
5.88106e-06
5.91496e-06
5.88944e-06
6.36149e-06
3.4363e-06
6.36997e-06
6.60682e-06
6.06223e-06
6.03485e-06
5.98383e-06
5.92334e-06
5.98707e-06
6.02741e-06
5.99793e-06
5.97642e-06
5.94689e-06
5.91533e-06
5.92913e-06
5.98641e-06
5.16198e-06
5.7747e-06
6.09101e-06
6.09923e-06
6.04889e-06
6.06508e-06
6.11684e-06
6.13879e-06
6.11755e-06
6.12402e-06
6.21071e-06
6.40353e-06
6.42285e-06
6.29285e-06
3.39318e-06
6.20434e-06
6.17085e-06
6.12093e-06
6.12933e-06
6.13706e-06
6.14584e-06
6.15115e-06
6.20012e-06
6.2416e-06
6.22877e-06
6.28629e-06
6.21663e-06
6.19262e-06
6.92003e-06
5.97152e-06
4.09609e-06
6.3666e-06
6.71563e-06
6.71987e-06
6.66135e-06
6.56128e-06
6.48196e-06
6.41737e-06
6.39119e-06
6.37081e-06
6.32695e-06
6.30078e-06
6.46011e-06
7.87451e-06
6.61424e-06
8.01988e-06
7.72899e-06
7.23226e-06
6.83687e-06
6.67245e-06
6.61352e-06
6.57934e-06
6.66068e-06
6.76897e-06
6.45132e-06
6.03601e-06
6.603e-06
7.08424e-06
7.56184e-06
3.47829e-06
5.12721e-06
9.239e-06
8.1277e-06
7.34824e-06
7.64034e-06
7.5183e-06
7.11392e-06
7.21301e-06
7.3944e-06
6.90818e-06
6.24142e-06
6.73748e-06
7.07292e-06
7.24693e-06
7.08122e-06
8.63608e-06
8.33713e-06
7.99961e-06
7.90773e-06
8.04131e-06
7.95533e-06
7.79926e-06
8.22266e-06
8.75035e-06
8.90927e-06
8.05391e-06
7.84897e-06
7.57824e-06
7.55246e-06
6.75796e-06
8.93044e-06
8.40856e-06
8.41662e-06
8.74689e-06
9.35722e-06
9.02798e-06
8.68013e-06
8.88484e-06
9.23355e-06
9.51661e-06
9.68997e-06
9.40951e-06
7.59884e-06
7.82457e-06
7.58056e-06
9.74994e-06
8.55657e-06
8.80461e-06
9.47424e-06
9.86104e-06
1.00191e-05
1.00195e-05
9.97274e-06
9.92324e-06
9.87047e-06
9.80955e-06
9.7364e-06
9.49202e-06
9.30203e-06
8.61437e-06
6.49514e-06
6.99063e-06
9.41371e-06
1.03804e-05
1.04874e-05
1.03426e-05
1.01347e-05
9.95586e-06
9.88385e-06
9.85456e-06
9.82476e-06
9.79651e-06
9.75742e-06
9.65649e-06
9.48704e-06
)
;
    }
    inlet
    {
        type            calculated;
        value           nonuniform List<scalar> 
15
(
-1299.9
-1300.2
-1299.9
-1299.9
-1300.2
-1299.9
-1299.9
-1300.2
-1299.9
-1299.9
-1300.2
-1299.9
-1299.9
-1300.2
-1299.9
)
;
    }
    inletWalls
    {
        type            calculated;
        value           uniform 0;
    }
    outletInlet
    {
        type            calculated;
        value           nonuniform List<scalar> 
15
(
387808
256203
154417
80343.7
29659.6
-14705.1
-96229.5
-165720
-180915
-200825
-230489
-231144
-171442
6823.49
395163
)
;
    }
}


// ************************************************************************* //
