/*--------------------------------*- C++ -*----------------------------------*\
| =========                 |                                                 |
| \\      /  F ield         | OpenFOAM: The Open Source CFD Toolbox           |
|  \\    /   O peration     | Version:  4.1                                   |
|   \\  /    A nd           | Web:      www.OpenFOAM.org                      |
|    \\/     M anipulation  |                                                 |
\*---------------------------------------------------------------------------*/
FoamFile
{
    version     2.0;
    format      ascii;
    class       volVectorField;
    location    "12";
    object      U;
}
// * * * * * * * * * * * * * * * * * * * * * * * * * * * * * * * * * * * * * //

dimensions      [0 1 -1 0 0 0 0];

internalField   nonuniform List<vector> 
225
(
(1.77158e-08 13694.3 9432.85)
(3.09571e-08 -11450 -6388.06)
(2.87493e-08 6382.19 5558.64)
(3.61216e-08 487.26 -932.171)
(3.8604e-08 -127.045 -1341.73)
(3.80347e-08 207.62 -706.05)
(3.78533e-08 514.753 -1084.49)
(3.72634e-08 459.522 -1165.98)
(3.8948e-08 203.4 -803.637)
(4.02998e-08 -165.948 -903.457)
(3.61959e-08 578.864 -892.829)
(3.04804e-08 935.634 -793.19)
(2.61624e-08 227.218 -1098.61)
(2.12775e-08 89.1441 -1353.42)
(1.37233e-08 957.4 -1109.81)
(2.368e-08 4263.1 766.734)
(3.4483e-08 -446.818 -3610.98)
(3.74205e-08 -1053 -3912.61)
(3.87707e-08 -2350.43 -3662.24)
(3.93208e-08 -1525.64 -2385.22)
(3.98292e-08 -3049.62 -2218.68)
(3.92096e-08 -249.758 -245.444)
(3.7419e-08 -2584.51 -739.67)
(3.43629e-08 -2383.66 58.7326)
(3.43342e-08 -3053 112.151)
(3.34852e-08 -2714.89 497.336)
(3.02242e-08 -2008.02 922.669)
(2.66066e-08 -1531.14 836.481)
(1.74725e-08 -507.059 156.073)
(5.73773e-09 788.956 -1146.91)
(4.8796e-08 -886.441 -2906.72)
(4.04946e-08 1890.47 143.911)
(3.88447e-08 2460.32 1171.3)
(3.89492e-08 2668.04 2003.04)
(3.8598e-08 2743.34 2598.26)
(3.8449e-08 2464.6 2769.64)
(3.8159e-08 2092.6 2791.56)
(3.76464e-08 872.902 2181.86)
(3.74027e-08 984.987 2262.52)
(3.72699e-08 1280.28 2415.41)
(3.70828e-08 1129.73 2054.01)
(3.64916e-08 1418.16 1351.17)
(3.46558e-08 1559.49 362.517)
(3.16477e-08 428.284 -1278.28)
(1.87349e-08 -2076.63 -4365.51)
(1.52244e-08 -644.385 -360.316)
(3.95111e-08 843.241 449.846)
(3.92971e-08 4476.55 104.532)
(3.92785e-08 -98.242 208.037)
(3.89339e-08 2493.26 2018.44)
(4.13088e-08 890.146 -379.493)
(3.97451e-08 -1562.65 -1525.79)
(4.00246e-08 -1799.43 -670.997)
(3.94151e-08 -945.22 543.714)
(4.06599e-08 -341.828 -301.615)
(4.13182e-08 740.361 -584.175)
(4.13177e-08 32.3311 -1673.08)
(4.17457e-08 -508.828 -2148.23)
(4.24443e-08 -826.777 -1990.79)
(4.36494e-08 -2698.9 -3282.39)
(2.7939e-08 -402.105 40.3174)
(4.59967e-08 740.58 -168.727)
(4.68794e-08 1528.55 134.517)
(4.37541e-08 312.373 -707.721)
(4.2329e-08 -279.513 -693.026)
(4.17064e-08 249.338 152.115)
(4.12831e-08 102.504 275.864)
(4.0452e-08 -405.59 806.999)
(4.02368e-08 354.756 1191.8)
(4.05686e-08 -402.77 249.169)
(4.0784e-08 -420.531 450.181)
(4.0712e-08 -11.168 1052.92)
(4.09466e-08 -483.854 704.994)
(4.07725e-08 -423.45 1096.47)
(4.40363e-08 -2830.06 -174.573)
(2.3791e-08 -630.5 642.806)
(4.41002e-08 310.037 -218.263)
(4.57454e-08 -241.092 -162.214)
(4.19681e-08 -274.674 244.289)
(4.17798e-08 42.1014 22.4537)
(4.14316e-08 20.4419 -43.0421)
(4.10062e-08 -297.789 -141.339)
(4.14483e-08 -221.537 190.812)
(4.17351e-08 -13.476 -96.6733)
(4.15227e-08 -154.407 -438.388)
(4.13746e-08 -350.285 -294.741)
(4.11752e-08 -480.324 -298.624)
(4.09511e-08 -235.153 -486.781)
(4.10488e-08 499.816 80.2341)
(4.14523e-08 -2678.4 -1827.21)
(3.57419e-08 -749.331 445.757)
(3.99719e-08 81.0629 34.2949)
(4.21802e-08 23.2038 309.51)
(4.22291e-08 -155.821 657.697)
(4.18692e-08 290.648 172.557)
(4.19897e-08 174.041 147.63)
(4.2351e-08 54.3335 335.16)
(4.24984e-08 75.1378 272.548)
(4.2352e-08 209.293 241.045)
(4.24007e-08 275.972 186.4)
(4.29962e-08 155.484 205.432)
(4.43313e-08 137.247 655.306)
(4.44698e-08 -213.801 684.319)
(4.3564e-08 -159.479 722.876)
(2.34824e-08 -289.063 226.369)
(4.29536e-08 -631.187 645.559)
(4.27237e-08 17.514 402.255)
(4.23727e-08 109.615 244.153)
(4.24314e-08 58.5365 49.0605)
(4.24897e-08 16.4265 -96.1438)
(4.2545e-08 -91.2983 -137.648)
(4.25824e-08 -1.20254 -61.9206)
(4.29264e-08 151.516 88.979)
(4.32077e-08 140.652 158.628)
(4.31197e-08 49.5731 -35.8696)
(4.3523e-08 230.718 395.279)
(4.30345e-08 -170.536 85.0999)
(4.28702e-08 -33.2141 537.797)
(4.79106e-08 -67.1555 -153.078)
(4.13346e-08 -740.011 1704.42)
(2.83568e-08 -76.1343 596.867)
(4.40752e-08 -321.66 617.446)
(4.64992e-08 -332.369 391.236)
(4.65208e-08 -307.54 122.526)
(4.61157e-08 -216.817 66.3205)
(4.54273e-08 -171.576 142.424)
(4.48738e-08 -42.5125 279.132)
(4.44267e-08 156.941 383.387)
(4.42494e-08 58.426 193.757)
(4.41043e-08 -42.6658 -1.57469)
(4.38007e-08 222.69 192.843)
(4.36231e-08 -68.6928 44.8265)
(4.47226e-08 216.367 140.595)
(5.45143e-08 -304.854 -580.104)
(4.57853e-08 -733.865 -574.172)
(5.55229e-08 164.654 -403.602)
(5.35069e-08 125.69 -439.265)
(5.00634e-08 50.739 -204.72)
(4.73353e-08 -130.486 -45.6011)
(4.61926e-08 -353.602 19.4179)
(4.57875e-08 -444.769 95.2618)
(4.55516e-08 -581.883 237.669)
(4.61111e-08 -886.046 158.488)
(4.68483e-08 -777.155 242.304)
(4.46767e-08 -573.675 191.506)
(4.17866e-08 -255.935 -281.687)
(4.57113e-08 -370.757 -269.636)
(4.90479e-08 80.8744 -164.819)
(5.23497e-08 -477.21 -376.967)
(2.40774e-08 -297.241 747.578)
(3.54863e-08 469.768 -1587.98)
(6.3969e-08 -214.747 -2100.2)
(5.6244e-08 -151.347 -2051.1)
(5.08695e-08 -126.061 -1648.99)
(5.28632e-08 -1233.64 -1888.17)
(5.20372e-08 -170.605 -255.019)
(4.92473e-08 82.2771 36.6729)
(4.99407e-08 -732.111 -209.682)
(5.11854e-08 -527.335 253.013)
(4.78231e-08 -145.776 401.167)
(4.32074e-08 29.3973 114.958)
(4.66434e-08 -89.4766 36.0282)
(4.89687e-08 -183.944 -213.261)
(5.01707e-08 752.864 261.935)
(4.90018e-08 -369.353 1495.72)
(5.97865e-08 74.1232 -4182.6)
(5.77341e-08 374.319 -753.025)
(5.53829e-08 474.521 -279.915)
(5.47442e-08 3.07284 -287.368)
(5.56898e-08 -607.273 -765.232)
(5.5075e-08 -353.842 -323.461)
(5.39934e-08 -84.4232 -8.23594)
(5.694e-08 -781.044 -78.3445)
(6.05829e-08 -333.664 966.026)
(6.16778e-08 -470.746 877.996)
(5.57562e-08 -798.183 139.902)
(5.43309e-08 -266.202 6.08677)
(5.24647e-08 9.13247 -150.716)
(5.22824e-08 639.221 -170.377)
(4.67902e-08 -236.145 38.731)
(6.18208e-08 -353.119 -697.04)
(5.82091e-08 11.0602 127.743)
(5.827e-08 -664.518 599.208)
(6.05512e-08 -438.94 39.572)
(6.47789e-08 -686.275 -747.074)
(6.24996e-08 -904.051 -140.367)
(6.00967e-08 -381.587 686.437)
(6.15052e-08 -411.64 974.45)
(6.39216e-08 -426.065 863.77)
(6.58899e-08 -581.669 392.173)
(6.70852e-08 -950.11 -190.608)
(6.51347e-08 -2766.62 -2205.04)
(5.26119e-08 -321.734 -1561.67)
(5.41734e-08 -141.451 -2158.15)
(5.24756e-08 -783.188 -533.506)
(6.74926e-08 -2569.61 3117.42)
(5.92405e-08 -1150.97 3053.37)
(6.09401e-08 -77.3939 1523.01)
(6.55929e-08 363.511 58.1767)
(6.82722e-08 310.003 -341.574)
(6.93591e-08 323.386 -354.518)
(6.93616e-08 149.82 -322.531)
(6.90458e-08 -80.2569 -451.473)
(6.86953e-08 -298.335 -523.39)
(6.83302e-08 -501.852 -411.867)
(6.7916e-08 -751.491 -116.6)
(6.74019e-08 -1084.28 383.145)
(6.57104e-08 -1142.93 783.991)
(6.44021e-08 -908.381 1054.51)
(5.96345e-08 -496.445 889.261)
(4.49647e-08 -3526.98 5031.68)
(4.83952e-08 -68.5854 129.153)
(6.51775e-08 952.736 -2021.9)
(7.1862e-08 1103.3 -2668.83)
(7.26028e-08 864.332 -2625.05)
(7.16086e-08 638.257 -2300.13)
(7.01613e-08 443.068 -2105.42)
(6.89232e-08 232.927 -1991.23)
(6.84327e-08 101.394 -1511.03)
(6.8222e-08 -107.145 -963.413)
(6.80153e-08 -195.068 -601.574)
(6.78283e-08 -357.989 -126.759)
(6.75495e-08 -696.805 648.603)
(6.68507e-08 -1239.95 1738.19)
(6.56853e-08 -1188.81 3417.47)
)
;

boundaryField
{
    inletFace
    {
        type            zeroGradient;
    }
    inlet
    {
        type            fixedValue;
        value           uniform (0 8.7 15);
    }
    inletWalls
    {
        type            noSlip;
    }
    outletInlet
    {
        type            zeroGradient;
    }
}


// ************************************************************************* //
