/*--------------------------------*- C++ -*----------------------------------*\
| =========                 |                                                 |
| \\      /  F ield         | OpenFOAM: The Open Source CFD Toolbox           |
|  \\    /   O peration     | Version:  4.1                                   |
|   \\  /    A nd           | Web:      www.OpenFOAM.org                      |
|    \\/     M anipulation  |                                                 |
\*---------------------------------------------------------------------------*/
FoamFile
{
    version     2.0;
    format      ascii;
    class       volScalarField;
    location    "2";
    object      p;
}
// * * * * * * * * * * * * * * * * * * * * * * * * * * * * * * * * * * * * * //

dimensions      [0 2 -2 0 0 0 0];

internalField   nonuniform List<scalar> 
6785
(
518.634
439.786
392.788
339.208
292.355
247.171
205.093
165.256
127.633
92.0809
57.8287
24.8247
-2.19074
-30.0284
-71.1937
-97.3945
-116.068
-106.346
-114.039
-113.768
-116.646
-117.677
-118.546
-118.421
-117.359
-115.295
-112.392
-108.102
-103.819
-101.758
-94.0599
-99.1445
-90.7525
-96.1281
-93.2791
-95.3978
-95.619
-97.0875
-98.3555
-100.048
-101.825
-103.522
-104.162
-103.904
-101.799
-76.5833
-79.4077
-76.0283
-81.0002
-78.902
-81.7716
-81.7655
-82.9862
-83.4039
-83.8924
-83.9808
-83.8381
-82.6114
-80.955
-77.8526
-66.2676
-67.4436
-63.5909
-65.7356
-61.7041
-62.054
-59.5142
-58.1584
-56.1287
-54.1951
-52.0751
-50.0498
-47.8811
-46.3818
-44.4241
-47.4783
-47.6118
-44.2553
-45.7348
-42.5752
-42.8045
-41.0283
-40.1843
-39.0154
-37.9836
-36.9254
-36.0156
-34.9991
-34.3903
-33.455
-34.0254
-33.8187
-31.3162
-32.6172
-30.473
-30.7074
-29.6642
-29.1468
-28.459
-27.8117
-27.1215
-26.5204
-25.777
-25.3375
-24.459
-23.2957
-23.0829
-21.2133
-22.2377
-20.6256
-20.7828
-20.0373
-19.6317
-19.1237
-18.6336
-18.1108
-17.6581
-17.0883
-16.7669
-16.0821
-15.0087
-15.16
-13.7974
-14.753
-13.4277
-13.7917
-13.2198
-13.0644
-12.7573
-12.4988
-12.2028
-11.9631
-11.6356
-11.4757
-11.0864
-10.7422
-11.2232
-10.3164
-11.1428
-10.0172
-10.5885
-10.0526
-10.11
-9.89549
-9.79559
-9.6288
-9.52418
-9.34297
-9.27818
-9.08348
-8.6768
-9.25555
-8.643
-9.25907
-8.4187
-8.97035
-8.48075
-8.62802
-8.44182
-8.42402
-8.30756
-8.27573
-8.1594
-8.14918
-8.04259
-9.20507
-9.56294
-8.92097
-9.38106
-8.7108
-9.02129
-8.60223
-8.65647
-8.44384
-8.38956
-8.22951
-8.17293
-8.00788
-7.98187
-7.81048
-5.74737
-5.96278
-5.34723
-5.86251
-5.39147
-5.58319
-5.36241
-5.41027
-5.30619
-5.3168
-5.25126
-5.27198
-5.21414
-5.25319
-5.2152
-6.04766
-6.7682
-7.11148
-8.04402
-8.04032
-8.4854
-8.61803
-8.8615
-8.96145
-9.03118
-8.96004
-8.89415
-8.61679
-8.5166
-8.06973
-1.35795
-3.1929
-2.22529
-2.32164
-1.89061
-1.6122
-0.943818
-0.204702
0.775782
1.71952
2.66173
3.42442
3.92539
4.29644
4.03194
2.78399
2.78454
2.78332
2.78465
2.78338
2.78435
2.78305
2.78321
2.78275
2.7851
2.77802
2.77553
2.7789
2.76329
2.75176
2.74603
2.74593
2.71052
2.69888
2.69579
2.6456
2.61123
2.5956
2.59128
2.5041
2.44987
2.43155
2.43035
2.27155
2.24713
2.24161
2.04831
1.93984
1.91542
1.91392
1.60176
1.57455
1.56178
1.21483
1.03091
0.990318
0.989697
0.515398
0.276249
0.244436
0.267419
-0.469875
-0.49613
-0.494853
-1.29754
-1.6989
-1.76795
-1.71474
-2.79977
-3.32802
-3.38773
-3.22334
-4.93649
-4.97818
-4.92164
-6.68303
-7.54352
-7.63374
-7.39446
-10.1194
-10.1154
-10.1354
-12.9447
-14.1569
-14.2313
-14.153
-18.0239
-19.5936
-19.3965
-18.0778
-26.4298
-24.5309
-21.849
-36.8734
-30.7608
-26.9294
-27.898
-28.2038
-38.7395
-27.9971
-27.5341
-27.3285
-27.5548
-27.7784
-28.0742
-28.1691
-29.4434
-38.3204
-29.8474
-30.1587
-29.6657
-29.6076
-29.5463
-29.6289
-29.4244
-30.6328
-41.0534
-30.9702
-30.6252
-29.7322
-29.2358
-28.619
-28.3646
-28.1497
-27.6346
-28.6544
-39.5431
-28.9929
-28.1053
-26.862
-25.9735
-25.1647
-24.4996
-23.4552
-24.4673
-36.0286
-24.5326
-23.017
-21.3325
-19.9257
-18.7877
-17.755
-15.9051
-16.8509
-29.0772
-16.4495
-14.2102
-11.7414
-9.49877
-7.87908
-6.33906
-4.02111
-5.05804
-16.4968
-3.58984
-1.25062
0.818271
2.47653
5.14777
6.6153
6.76304
7.88262
5.25719
-5.27449
0.694127
-0.861304
-1.84929
-2.53841
-4.44834
-8.16012
-8.36732
-7.38017
-10.6474
-5.49806
-10.8055
-16.5633
-7.60549
-21.8793
-16.5726
-22.7818
-18.0562
-14.4146
-24.0574
-18.4978
-15.2209
-21.2427
-17.9758
-19.4091
-16.8484
-13.5161
-16.9874
-14.4909
-14.948
-12.906
-10.8537
-12.7563
-10.5672
-9.53441
-10.2939
-9.2475
-9.40653
-8.57919
-8.19858
-9.00278
-8.88018
-8.98494
-9.2141
-9.27841
-9.76854
-9.89323
-9.75793
-9.72011
-10.1673
-9.76257
-9.54751
-9.57273
-8.24664
-9.39172
-8.9658
-8.37225
-8.51321
-5.95871
-7.26431
-8.35667
-4.44256
-6.75632
-7.01169
-5.72928
-6.51301
-1.69846
-4.84641
-5.57792
-4.46719
-5.51019
-0.229635
-2.4787
-5.25843
1.47512
-1.62034
-3.49433
-2.73582
-4.29525
2.10025
-0.825945
-2.49802
-1.85145
-3.59756
2.12405
0.133137
-3.74666
3.07593
0.288922
-1.49748
-1.25135
-2.57589
2.57386e-06
6.452e-06
1.15716e-05
1.66453e-05
2.27e-05
2.91723e-05
3.64609e-05
4.43914e-05
5.31525e-05
6.27278e-05
7.3243e-05
8.47553e-05
9.73825e-05
0.000111226
0.000126417
0.000143093
0.000161413
0.000181547
0.000203689
0.000228051
0.000254867
0.000284396
0.000316923
0.000352765
0.000392266
0.00043581
0.000483817
0.000536751
0.000595121
0.000659488
0.000730468
0.000808737
0.000895039
0.000990191
0.00109508
0.0012107
0.00133811
0.00147849
0.00163311
0.00180337
0.00199078
0.00219698
0.00242375
0.00267299
0.00294676
0.00324721
0.00357665
0.00393747
0.0043321
0.00476301
0.00523254
0.00574284
0.00629564
0.00689195
0.00753168
0.00821303
0.00893166
0.00967948
0.0104431
0.0112014
0.011923
0.012562
0.0130543
0.0133089
0.0132151
0.0126011
0.0113324
0.00907821
0.00585363
0.0010334
-0.00485044
-0.0124814
-0.0206164
-0.0296062
-0.0340078
-0.0507567
-0.0491057
-0.341917
-0.579236
7.59857e-06
1.92701e-05
3.46324e-05
4.99545e-05
6.8077e-05
8.74726e-05
0.000109239
0.000132924
0.000159055
0.000187609
0.000218948
0.000253254
0.000290873
0.00033211
0.000377358
0.000427024
0.000481579
0.000541535
0.000607465
0.000679997
0.000759829
0.00084773
0.000944546
0.00105121
0.00116876
0.00129831
0.00144112
0.00159856
0.00177214
0.00196352
0.00217451
0.00240712
0.00266354
0.00294618
0.00325767
0.00360091
0.00397904
0.00439551
0.00485408
0.00535883
0.0059142
0.006525
0.0071964
0.00793399
0.00874373
0.00963193
0.0106053
0.0116706
0.0128352
0.0141059
0.0154897
0.0169928
0.0186199
0.0203742
0.0222554
0.0242584
0.0263708
0.0285698
0.0308174
0.0330543
0.0351916
0.0370996
0.0385987
0.0394314
0.0392863
0.0376767
0.0342206
0.0279685
0.0189444
0.0053225
-0.0114962
-0.0335369
-0.0577538
-0.0851835
-0.101012
-0.144866
-0.130718
-0.465597
0.214794
1.20922e-05
3.1324e-05
5.72284e-05
8.29127e-05
0.000113272
0.000145729
0.000182138
0.00022174
0.00026542
0.000313142
0.000365514
0.000422836
0.000485691
0.000554586
0.000630179
0.000713151
0.000804289
0.000904449
0.00101459
0.00113575
0.00126911
0.00141595
0.00157769
0.00175587
0.00195223
0.00216866
0.00240724
0.00267026
0.00296024
0.00327995
0.00363245
0.00402106
0.00444946
0.00492168
0.00544211
0.00601559
0.00664739
0.00734327
0.0081095
0.00895293
0.00988098
0.0109017
0.0120237
0.0132564
0.0146097
0.0160942
0.0177211
0.019502
0.0214487
0.0235731
0.0258866
0.0283996
0.0311204
0.034054
0.0372
0.0405498
0.044083
0.0477611
0.0515205
0.0552616
0.0588354
0.0620237
0.0645244
0.065904
0.0656364
0.0629026
0.0570494
0.0464811
0.0312112
0.00817613
-0.0203127
-0.0576239
-0.0989796
-0.146034
-0.17433
-0.243299
-0.17935
-0.480757
-0.503919
1.65157e-05
4.33587e-05
7.97522e-05
0.000115846
0.000158426
0.000203946
0.000254962
0.000310445
0.000371619
0.000438446
0.000511771
0.000592022
0.00068001
0.000776451
0.000882263
0.0009984
0.00112596
0.00126615
0.00142031
0.00158989
0.00177654
0.00198206
0.00220841
0.00245779
0.0027326
0.00303549
0.00336937
0.00373745
0.00414325
0.00459065
0.0050839
0.00562769
0.00622713
0.00688786
0.00761604
0.0084184
0.00930233
0.0102759
0.0113478
0.0125277
0.0138259
0.0152536
0.016823
0.018547
0.0204397
0.0225158
0.0247908
0.0272811
0.0300031
0.0329734
0.036208
0.0397214
0.0435253
0.0476266
0.0520251
0.0567091
0.06165
0.0667951
0.0720559
0.0772945
0.0823041
0.0867818
0.0903071
0.0922772
0.091957
0.0882044
0.0800966
0.0654026
0.0441007
0.0118896
-0.0281006
-0.0806298
-0.139543
-0.206991
-0.25024
-0.350017
-0.253629
-0.712028
-0.933666
2.07001e-05
5.51351e-05
0.000102071
0.000148642
0.000203492
0.000262126
0.000327787
0.00039919
0.000477887
0.000563849
0.000658153
0.000761358
0.000874504
0.000998515
0.00113457
0.0012839
0.00144792
0.00162817
0.00182637
0.00204441
0.00228439
0.00254862
0.00283964
0.00316026
0.00351357
0.00390298
0.00433222
0.00480543
0.00532713
0.0059023
0.0065364
0.00723547
0.00800606
0.00885543
0.00979148
0.0108229
0.0119591
0.0132105
0.0145883
0.0161048
0.0177734
0.0196084
0.0216254
0.0238412
0.0262736
0.0289417
0.0318653
0.0350655
0.0385634
0.0423805
0.0465371
0.0510521
0.0559406
0.0612117
0.0668652
0.0728866
0.07924
0.085858
0.0926285
0.0993757
0.105836
0.111622
0.116196
0.118787
0.118449
0.113716
0.103386
0.084588
0.0572386
0.0157725
-0.0359009
-0.104018
-0.181271
-0.270129
-0.331392
-0.461418
-0.354255
-0.747931
-0.987443
2.47718e-05
6.68433e-05
0.000124289
0.000181381
0.000248506
0.000320271
0.000400573
0.000487889
0.000584092
0.000689165
0.000804417
0.000930539
0.0010688
0.00122033
0.00138657
0.00156903
0.00176943
0.00198966
0.00223181
0.00249821
0.00279141
0.00311423
0.00346978
0.00386149
0.00429314
0.00476887
0.00529328
0.00587138
0.0065087
0.00721134
0.00798598
0.00883993
0.00978126
0.0108188
0.0119622
0.013222
0.0146098
0.0161383
0.0178211
0.0196733
0.0217111
0.0239522
0.0264154
0.0291213
0.0320917
0.0353497
0.0389197
0.0428273
0.0470984
0.0517592
0.0568346
0.0623477
0.0683171
0.0747542
0.0816594
0.0890153
0.0967791
0.10487
0.113153
0.121415
0.129338
0.136454
0.14211
0.145368
0.145076
0.139447
0.126993
0.104204
0.0709064
0.020246
-0.0431494
-0.127086
-0.223377
-0.33463
-0.417217
-0.580777
-0.481956
-0.922051
-1.93659
2.87117e-05
7.84663e-05
0.000146398
0.000214055
0.000293464
0.000378383
0.000473328
0.000576559
0.000690258
0.000814429
0.000950607
0.00109962
0.00126296
0.00144197
0.00163836
0.0018539
0.00209062
0.00235077
0.00263682
0.0029515
0.00329784
0.00367916
0.00409914
0.00456184
0.00507169
0.00563362
0.00625303
0.00693585
0.00768862
0.00851852
0.00943344
0.010442
0.0115538
0.0127791
0.0141295
0.0156173
0.0172563
0.0190613
0.0210486
0.0232358
0.0256421
0.0282884
0.0311969
0.0343919
0.037899
0.0417457
0.0459608
0.0505744
0.055617
0.0611197
0.0671122
0.0736217
0.0806704
0.0882724
0.0964284
0.105119
0.114295
0.123863
0.133665
0.143454
0.152859
0.161332
0.168108
0.172087
0.171909
0.16547
0.150989
0.124311
0.0851462
0.0253137
-0.0498922
-0.149957
-0.26606
-0.400761
-0.508084
-0.705693
-0.636162
-1.09782
-1.29803
3.2561e-05
9.00627e-05
0.000168437
0.000246691
0.000338379
0.00043646
0.000546036
0.000665171
0.00079634
0.000939578
0.00109664
0.0012685
0.00145687
0.00166331
0.00188977
0.00213831
0.00241129
0.00271126
0.0030411
0.00340395
0.0038033
0.00424299
0.00472725
0.00526076
0.00584864
0.00649656
0.00721073
0.00799802
0.00886595
0.0098228
0.0108776
0.0120405
0.0133222
0.0147349
0.0162917
0.0180069
0.0198963
0.0219771
0.0242679
0.0267892
0.029563
0.0326132
0.0359657
0.0396483
0.0436906
0.0481242
0.0529823
0.0582996
0.0641115
0.0704537
0.0773606
0.0848638
0.0929894
0.101754
0.111159
0.121184
0.131773
0.142821
0.15415
0.16548
0.176387
0.186248
0.194189
0.198953
0.19897
0.191827
0.175439
0.145005
0.100088
0.0311403
-0.0559332
-0.172421
-0.30911
-0.468374
-0.603424
-0.831193
-0.779367
-1.13751
-1.59604
3.63288e-05
0.000101648
0.000190416
0.000279297
0.000383254
0.000494502
0.000618693
0.000753713
0.000902322
0.00106459
0.0012425
0.00143715
0.00165049
0.00188428
0.00214074
0.0024222
0.00273133
0.00307103
0.00344455
0.00385545
0.00430767
0.00480558
0.00535395
0.00595808
0.00662378
0.00735746
0.00816616
0.00905764
0.0100404
0.0111239
0.0123182
0.0136349
0.0150862
0.0166856
0.0184482
0.0203902
0.0225293
0.024885
0.0274785
0.0303328
0.0334729
0.0369259
0.0407211
0.0448897
0.0494655
0.0544842
0.0599833
0.0660022
0.072581
0.0797603
0.0875791
0.0960736
0.105274
0.115199
0.125852
0.137211
0.149215
0.161749
0.174614
0.1875
0.199934
0.21122
0.220377
0.225995
0.226302
0.218571
0.200412
0.16637
0.115831
0.0378361
-0.0611579
-0.19438
-0.352453
-0.537495
-0.703123
-0.963726
-0.941572
-1.31914
-2.81039
4.00344e-05
0.000113246
0.000212355
0.000311886
0.000428093
0.000552505
0.000691285
0.000842165
0.00100817
0.00118943
0.00138812
0.00160551
0.00184374
0.0021048
0.00239118
0.00270546
0.00305063
0.00342993
0.00384699
0.00430579
0.00481072
0.00536666
0.00597895
0.00665348
0.00739676
0.00821593
0.00911886
0.0101142
0.0112114
0.0124211
0.0137546
0.0152245
0.0168448
0.0186304
0.0205982
0.0227661
0.0251541
0.0277838
0.0306789
0.0338651
0.0373703
0.0412246
0.0454608
0.0501138
0.0552211
0.0608227
0.0669606
0.0736787
0.0810219
0.0890355
0.0977635
0.107247
0.117519
0.128603
0.140503
0.153196
0.166618
0.180642
0.195054
0.209513
0.223501
0.236252
0.246684
0.253236
0.253934
0.24575
0.225972
0.188495
0.132489
0.045537
-0.0654102
-0.215677
-0.395934
-0.60799
-0.807029
-1.10697
-1.12257
-1.56422
-2.35666
4.3689e-05
0.000124872
0.000234265
0.000344465
0.000472898
0.000610464
0.000763803
0.00093051
0.00111387
0.00131406
0.00153348
0.00177351
0.00203656
0.00232481
0.00264099
0.00298798
0.00336906
0.00378783
0.00424828
0.00475481
0.00531227
0.00592604
0.00660202
0.00734671
0.0081673
0.00907166
0.0100685
0.0111673
0.0123786
0.013714
0.0151861
0.0168088
0.0185974
0.0205686
0.0227407
0.0251338
0.0277697
0.0306724
0.033868
0.0373848
0.0412536
0.0455077
0.0501832
0.0553187
0.0609556
0.0671379
0.0739122
0.0813268
0.0894316
0.0982767
0.107911
0.11838
0.129722
0.141962
0.155108
0.169136
0.183978
0.1995
0.215471
0.231523
0.247094
0.261355
0.273124
0.280697
0.281902
0.273411
0.252186
0.211465
0.150172
0.0543756
-0.0685375
-0.236157
-0.439403
-0.679713
-0.914894
-1.25678
-1.29728
-1.65727
-2.31281
4.73047e-05
0.000136536
0.000256159
0.00037704
0.000517669
0.000668375
0.000836234
0.00101873
0.00121939
0.00143845
0.00167851
0.00194112
0.00222888
0.00254421
0.00289008
0.00326965
0.00368651
0.00414459
0.00464825
0.00520232
0.00581211
0.00648349
0.0072229
0.00803748
0.00893507
0.00992428
0.0110146
0.0122165
0.0135415
0.0150021
0.0166122
0.0183871
0.0203433
0.0224993
0.0248749
0.0274922
0.0303751
0.0335496
0.0370444
0.0408905
0.0451214
0.0497736
0.0548865
0.0605025
0.0666667
0.0734274
0.0808354
0.0889438
0.0978072
0.107481
0.118018
0.12947
0.141878
0.155273
0.169664
0.185028
0.201294
0.21832
0.235862
0.253528
0.270716
0.286535
0.29971
0.308399
0.310237
0.301599
0.279116
0.235367
0.168991
0.0644916
-0.0703737
-0.255648
-0.482681
-0.752496
-1.02668
-1.41464
-1.47452
-1.87146
-2.99521
5.08904e-05
0.000148246
0.000278045
0.000409617
0.000562407
0.000726229
0.000908564
0.0011068
0.00132469
0.00156255
0.00182317
0.00210827
0.00242064
0.00276293
0.00313836
0.00355037
0.00400285
0.00450006
0.00504676
0.00564817
0.00631005
0.00703878
0.00784136
0.00872552
0.00969977
0.0107735
0.0119569
0.0132615
0.0146995
0.0162848
0.0180324
0.0199587
0.0220819
0.0244218
0.0270001
0.0298405
0.0329692
0.0364144
0.0402071
0.0443808
0.0489722
0.0540207
0.0595691
0.0656633
0.0723524
0.0796889
0.0877278
0.096527
0.106146
0.116645
0.128082
0.140513
0.153986
0.168533
0.184167
0.200867
0.21856
0.237099
0.256227
0.275529
0.294369
0.311798
0.326453
0.336362
0.338967
0.330359
0.306826
0.260288
0.189062
0.0760285
-0.0707446
-0.273964
-0.525572
-0.826173
-1.14251
-1.57631
-1.6592
-2.07761
-2.91577
5.44545e-05
0.00016001
0.000299929
0.000442198
0.000607109
0.00078402
0.000980779
0.0011947
0.00142975
0.00168634
0.00196743
0.0022749
0.00261177
0.00298089
0.00338574
0.00383003
0.00431796
0.00485412
0.00544365
0.00609217
0.0068059
0.0075917
0.00845715
0.00941056
0.0104611
0.0116189
0.012895
0.0143017
0.0158523
0.0175617
0.0194461
0.0215231
0.0238124
0.0263353
0.0291153
0.0321779
0.0355511
0.0392656
0.0433546
0.0478545
0.0528045
0.0582474
0.0642291
0.0707992
0.0780107
0.0859201
0.094587
0.104074
0.114445
0.125766
0.138099
0.151507
0.16604
0.181738
0.198614
0.216651
0.235776
0.255835
0.276563
0.297526
0.318055
0.337149
0.353363
0.364602
0.368121
0.359732
0.335376
0.286312
0.210497
0.089135
-0.0694655
-0.290901
-0.567854
-0.900623
-1.26213
-1.74278
-1.85815
-2.30051
-3.1671
5.80035e-05
0.000171829
0.000321817
0.000474783
0.000651772
0.000841738
0.00105286
0.0012824
0.00153455
0.00180976
0.00211122
0.00244096
0.0028022
0.00319801
0.00363213
0.00410853
0.00463172
0.00520664
0.00583876
0.00653414
0.00729944
0.00814203
0.00907001
0.0100923
0.0112188
0.0124602
0.0138285
0.0153368
0.0169994
0.0188323
0.0208527
0.0230797
0.0255342
0.0282392
0.0312197
0.0345032
0.0381198
0.0421021
0.046486
0.0513102
0.056617
0.0624521
0.0688648
0.0759083
0.0836394
0.0921189
0.101411
0.111582
0.122702
0.13484
0.148067
0.162447
0.178038
0.194883
0.213001
0.232376
0.252935
0.274524
0.296868
0.319517
0.341775
0.362593
0.380451
0.393135
0.397724
0.389758
0.364824
0.313524
0.233413
0.103964
-0.0663415
-0.306239
-0.609283
-0.975653
-1.38546
-1.92176
-2.05947
-2.59361
-3.38409
6.15432e-05
0.000183707
0.000343712
0.000507372
0.000696392
0.000899373
0.0011248
0.0013699
0.00163904
0.00193279
0.00225451
0.00260639
0.00299187
0.00341422
0.00387744
0.00438576
0.00494402
0.00555746
0.00623194
0.00697392
0.0077905
0.00868956
0.00967972
0.0107705
0.0119724
0.0132971
0.014757
0.0163664
0.0181404
0.020096
0.0222516
0.0246277
0.0272466
0.0301326
0.0333125
0.0368157
0.0406742
0.0449228
0.0495998
0.0547466
0.0604081
0.0666331
0.0734745
0.0809887
0.0892366
0.0982829
0.108196
0.119048
0.130913
0.143865
0.157981
0.17333
0.189976
0.207966
0.227324
0.248038
0.270036
0.293164
0.317139
0.341502
0.365529
0.388132
0.407721
0.421975
0.427801
0.420474
0.395228
0.342008
0.257925
0.120673
-0.0611674
-0.319739
-0.649587
-1.05101
-1.51284
-2.10681
-2.25152
-2.85904
-3.49038
6.50782e-05
0.000195644
0.000365617
0.000539964
0.000740962
0.000956913
0.00119658
0.00145715
0.0017432
0.00205538
0.00239724
0.00277113
0.0031807
0.00362943
0.00412157
0.00466163
0.00525472
0.00590645
0.00662303
0.00741132
0.00827888
0.00923405
0.010286
0.0114449
0.0127219
0.0141291
0.0156802
0.01739
0.0192747
0.0213523
0.0236424
0.0261667
0.0289488
0.0320148
0.0353929
0.0391145
0.0432134
0.0477267
0.052695
0.0581623
0.0641764
0.0707891
0.0780564
0.0860386
0.0948002
0.10441
0.114941
0.12647
0.139076
0.152839
0.167839
0.184154
0.20185
0.220982
0.24158
0.263633
0.287074
0.311749
0.337373
0.363476
0.389316
0.413768
0.435181
0.451134
0.458371
0.451917
0.426642
0.371845
0.28415
0.139423
-0.0537273
-0.33114
-0.68846
-1.12647
-1.64434
-2.29546
-2.45629
-3.12645
-3.88594
6.86123e-05
0.000207639
0.000387533
0.000572555
0.000785476
0.00101435
0.00126817
0.00154414
0.00184699
0.0021775
0.00253937
0.00293512
0.00336862
0.00384355
0.00436443
0.00493601
0.00556372
0.00625348
0.00701189
0.00784619
0.00876438
0.0097753
0.0108887
0.0121152
0.0134667
0.0149561
0.0165977
0.0184072
0.0204019
0.0226007
0.0250244
0.0276959
0.0306403
0.033885
0.0374601
0.0413986
0.0457363
0.0505127
0.0557704
0.0615561
0.0679205
0.0749183
0.0826089
0.091056
0.100328
0.110498
0.121643
0.133845
0.147188
0.161756
0.177638
0.194913
0.213657
0.233928
0.255763
0.279156
0.304045
0.330276
0.357567
0.385438
0.413134
0.439501
0.462834
0.480622
0.489455
0.484118
0.459118
0.403115
0.312204
0.160379
-0.0437954
-0.340164
-0.725567
-1.20174
-1.78007
-2.49572
-2.67973
-3.46796
-4.20187
7.21487e-05
0.000219692
0.000409459
0.000605142
0.000829928
0.00107166
0.00133956
0.00163083
0.00195039
0.00229909
0.00268084
0.00309831
0.00355557
0.00405652
0.00460592
0.0052088
0.00587088
0.00659842
0.00739835
0.00827834
0.00924681
0.0103131
0.0114874
0.0127811
0.0142066
0.0157776
0.0175091
0.0194177
0.0215216
0.0238408
0.0263972
0.0292149
0.0323204
0.0357426
0.0395133
0.0436671
0.0482421
0.0532796
0.0588248
0.0649268
0.071639
0.0790193
0.0871303
0.0960392
0.105818
0.116545
0.1283
0.141171
0.155246
0.170616
0.187373
0.205605
0.225392
0.2468
0.269869
0.294603
0.320944
0.348742
0.377715
0.407383
0.436981
0.465331
0.490683
0.510447
0.521068
0.517105
0.492705
0.435896
0.342201
0.183711
-0.0311353
-0.346512
-0.760538
-1.27642
-1.92041
-2.70614
-2.92165
-3.82663
-4.46559
7.56898e-05
0.000231801
0.000431395
0.00063772
0.000874307
0.00112884
0.00141073
0.00171721
0.00205335
0.00242013
0.00282161
0.00326063
0.00374147
0.00426825
0.00484596
0.00547991
0.0061761
0.00694112
0.00778227
0.0087076
0.00972598
0.0108472
0.0120821
0.0134425
0.0149414
0.0165934
0.0184141
0.0204211
0.0226333
0.025072
0.0277601
0.0307229
0.0339884
0.0375868
0.0415516
0.0459193
0.0507297
0.0560264
0.0618569
0.0682729
0.0753304
0.0830905
0.0916188
0.100986
0.111269
0.122548
0.13491
0.148445
0.163247
0.179414
0.197043
0.216226
0.237052
0.259593
0.283896
0.309971
0.337766
0.367139
0.397813
0.429307
0.460852
0.491254
0.518728
0.540613
0.553223
0.550906
0.527447
0.470262
0.374256
0.209589
-0.0155007
-0.34987
-0.79297
-1.35013
-2.06549
-2.92787
-3.19226
-4.2356
-4.86102
7.92375e-05
0.000243963
0.00045334
0.000670282
0.000918605
0.00118587
0.00148166
0.00180325
0.00215585
0.00254056
0.00296161
0.00342203
0.00392626
0.00447866
0.00508445
0.00574921
0.00647924
0.00728145
0.00816349
0.0091338
0.0102017
0.0113775
0.0126724
0.0140989
0.0156708
0.017403
0.0193123
0.0214168
0.0237367
0.0262939
0.0291126
0.0322195
0.0356436
0.0394169
0.0435743
0.0481541
0.0531982
0.0587521
0.0648657
0.0715932
0.0789935
0.0871303
0.0960728
0.105895
0.116678
0.128506
0.141469
0.155664
0.17119
0.188148
0.206643
0.226773
0.248634
0.272303
0.297837
0.325253
0.354507
0.385465
0.417856
0.451205
0.484744
0.517268
0.546967
0.571123
0.585931
0.585543
0.563387
0.506284
0.40848
0.238188
0.00336507
-0.349894
-0.822421
-1.42238
-2.21539
-3.1624
-3.49868
-4.6858
-5.24932
8.27931e-05
0.000256177
0.000475289
0.000702821
0.00096281
0.00124274
0.00155233
0.00188891
0.00225784
0.00266035
0.00310081
0.00358243
0.00410986
0.00468767
0.0053213
0.00601662
0.0067802
0.00761927
0.00854186
0.00955678
0.0106738
0.0119036
0.0132581
0.0147502
0.0163943
0.0182063
0.0202033
0.0224046
0.0248312
0.0275059
0.0304543
0.0337039
0.0372854
0.0412321
0.0455806
0.0503708
0.0556466
0.0614556
0.06785
0.0748865
0.0826267
0.0911373
0.100491
0.110765
0.122043
0.134415
0.147976
0.162826
0.17907
0.196815
0.21617
0.237242
0.260132
0.284927
0.31169
0.340446
0.371162
0.403712
0.437837
0.47307
0.508648
0.543367
0.575397
0.601977
0.619197
0.621034
0.600561
0.544029
0.44498
0.269681
0.0257269
-0.346208
-0.848382
-1.49259
-2.36989
-3.41194
-3.8477
-5.18542
-5.67124
8.63577e-05
0.000268438
0.00049724
0.000735332
0.00100691
0.00129942
0.00162271
0.00197417
0.0023593
0.00277944
0.00323915
0.00374179
0.00429221
0.00489519
0.00555642
0.00628201
0.00707884
0.00795446
0.00891723
0.00997636
0.011142
0.0124254
0.0138389
0.0153961
0.0171119
0.0190027
0.0210869
0.0233841
0.0259164
0.0287077
0.0317845
0.0351757
0.0389132
0.0430318
0.0475696
0.0525684
0.0580739
0.0641359
0.0708087
0.0781515
0.0862287
0.09511
0.104871
0.115593
0.127363
0.140275
0.154428
0.169928
0.186885
0.205411
0.225621
0.24763
0.271545
0.29746
0.325448
0.355544
0.387724
0.421876
0.457751
0.494896
0.53256
0.569544
0.604012
0.633173
0.653027
0.657393
0.639003
0.58356
0.483862
0.304241
0.0518534
-0.338387
-0.87026
-1.56006
-2.52862
-3.67808
-4.22702
-5.74389
-6.14849
8.99316e-05
0.000280744
0.00051919
0.000767804
0.0010509
0.00135591
0.00169278
0.002059
0.00246018
0.0028978
0.00337658
0.00390004
0.00447323
0.00510114
0.00578971
0.00654529
0.00737506
0.00828687
0.00928945
0.0103924
0.0116062
0.0129427
0.0144147
0.0160363
0.0178231
0.0197922
0.0219625
0.0243548
0.0269918
0.0298986
0.0331027
0.0366342
0.0405263
0.0448152
0.0495407
0.0547462
0.0604793
0.0667919
0.0737405
0.081387
0.0897981
0.0990467
0.109211
0.120377
0.132635
0.146082
0.160824
0.176968
0.194632
0.213933
0.234993
0.257933
0.282867
0.309898
0.339107
0.370542
0.404189
0.439949
0.47759
0.516676
0.55647
0.59579
0.632804
0.664704
0.687418
0.694629
0.678739
0.624934
0.525224
0.34204
0.0820095
-0.325979
-0.887361
-1.62393
-2.6914
-3.95873
-4.63308
-6.3652
-6.65425
9.35152e-05
0.000293091
0.000541132
0.000800231
0.00109476
0.00141218
0.00176252
0.00214336
0.00256045
0.00301539
0.00351304
0.00405712
0.00465285
0.00530545
0.00602107
0.00680635
0.00766873
0.00861638
0.00965837
0.0108047
0.0120663
0.0134553
0.0149852
0.0166706
0.0185276
0.0205743
0.02283
0.0253164
0.0280572
0.0310784
0.0344085
0.0380789
0.0421241
0.0465817
0.051493
0.0569032
0.0628618
0.0694226
0.0766445
0.0845916
0.0933337
0.102946
0.113511
0.125116
0.137857
0.151835
0.167159
0.183944
0.202309
0.222379
0.244283
0.268147
0.294094
0.322236
0.352664
0.385434
0.42055
0.457926
0.497347
0.538399
0.580369
0.622096
0.661763
0.696562
0.722368
0.732749
0.719793
0.668202
0.56916
0.383243
0.116455
-0.308533
-0.898929
-1.6832
-2.85773
-4.25318
-5.08538
-7.05372
-7.19441
9.71083e-05
0.000305477
0.000563063
0.000832602
0.00113848
0.00146821
0.0018319
0.00222724
0.00266007
0.00313214
0.00364848
0.00421296
0.004831
0.00550802
0.00625042
0.00706508
0.00795973
0.00894284
0.0100238
0.011213
0.0125219
0.013963
0.0155501
0.0172987
0.0192253
0.0213486
0.0236889
0.0262685
0.029112
0.0322463
0.0357013
0.0395092
0.0437059
0.0483305
0.0534258
0.0590387
0.0652204
0.072027
0.0795194
0.0877643
0.0968339
0.106807
0.117768
0.129809
0.143028
0.157532
0.173433
0.190852
0.209912
0.230746
0.253487
0.278269
0.305223
0.33447
0.366111
0.400216
0.436801
0.475798
0.517014
0.560058
0.604247
0.64845
0.690877
0.728735
0.757866
0.77175
0.762179
0.713407
0.615757
0.42801
0.155444
-0.285596
-0.904173
-1.73676
-3.02675
-4.56232
-5.58762
-7.81289
-7.82145
0.000100711
0.000317896
0.000584976
0.000864908
0.00118205
0.00152399
0.0019009
0.00231059
0.002759
0.00324803
0.00378285
0.0043675
0.00500761
0.00570879
0.00647767
0.00732138
0.00824794
0.00926614
0.0103857
0.0116174
0.012973
0.0144655
0.0161094
0.0179203
0.0199158
0.022115
0.0245389
0.0272107
0.0301558
0.0334022
0.0369805
0.0409246
0.0452712
0.050061
0.0553384
0.0611518
0.0675543
0.0746041
0.0823643
0.0909038
0.100298
0.110627
0.12198
0.134452
0.148146
0.16317
0.179644
0.19769
0.21744
0.23903
0.262601
0.288294
0.316249
0.346595
0.379446
0.414882
0.452936
0.49356
0.536582
0.581643
0.628091
0.674838
0.72013
0.761208
0.793901
0.811628
0.805907
0.760587
0.665091
0.476491
0.199223
-0.256706
-0.902279
-1.78334
-3.19749
-4.88516
-6.1411
-8.65574
-8.39952
0.000104321
0.000330346
0.000606866
0.000897138
0.00122545
0.00157949
0.0019695
0.00239338
0.0028572
0.003363
0.00391609
0.00452069
0.0051826
0.00590766
0.00670271
0.00757515
0.00853326
0.00958613
0.0107438
0.0120175
0.0134193
0.0149627
0.0166626
0.0185353
0.0205989
0.0228731
0.0253797
0.0281426
0.0311882
0.0345453
0.0382458
0.0423244
0.0468193
0.0517725
0.0572299
0.0632416
0.0698626
0.0771529
0.0851779
0.0940088
0.103723
0.114406
0.126147
0.139046
0.153208
0.168748
0.185787
0.204455
0.224888
0.247228
0.271623
0.298221
0.327169
0.358608
0.392662
0.429425
0.468948
0.511202
0.556042
0.603142
0.65189
0.701245
0.749507
0.793963
0.830456
0.852371
0.85098
0.809768
0.717231
0.528825
0.248026
-0.221389
-0.89242
-1.82161
-3.36862
-5.22086
-6.75324
-9.59353
-8.89438
0.00010794
0.000342823
0.000628726
0.000929282
0.00126866
0.00163471
0.00203766
0.00247559
0.00295464
0.00347701
0.00404815
0.00467245
0.00535591
0.00610455
0.00692547
0.00782628
0.00881555
0.00990268
0.0110981
0.0124132
0.0138606
0.0154543
0.0172096
0.0191434
0.0212742
0.0236226
0.0262109
0.0290639
0.0322088
0.0356754
0.0394965
0.0437081
0.0483496
0.0534643
0.0590997
0.0653074
0.0721443
0.0796724
0.0879592
0.0970783
0.10711
0.118141
0.130266
0.143587
0.158213
0.174263
0.191863
0.211146
0.232255
0.255338
0.280549
0.308044
0.337978
0.370503
0.405754
0.443841
0.48483
0.528717
0.575385
0.624543
0.675628
0.727654
0.778986
0.826977
0.867507
0.893961
0.897391
0.86097
0.772234
0.585138
0.302072
-0.179168
-0.873677
-1.85008
-3.53851
-5.56794
-7.43945
-10.6438
-9.59827
0.000111565
0.000355323
0.000650549
0.000961329
0.00131167
0.0016896
0.00210536
0.00255717
0.00305127
0.00359001
0.00417897
0.00482273
0.00552746
0.00629939
0.00714583
0.00807466
0.00909472
0.0102157
0.0114483
0.0128043
0.0142969
0.0159402
0.0177502
0.0197443
0.0219416
0.0243631
0.0270322
0.0299742
0.0332172
0.0367919
0.0407322
0.0450752
0.0498615
0.0551358
0.0609469
0.0673484
0.0743987
0.0821616
0.0907071
0.100111
0.110456
0.121832
0.134336
0.148074
0.163159
0.179713
0.197867
0.21776
0.239538
0.263357
0.289376
0.317759
0.348673
0.382276
0.418717
0.458122
0.500575
0.546096
0.5946
0.645836
0.699292
0.754047
0.808545
0.860225
0.905028
0.936372
0.945127
0.9142
0.830147
0.645537
0.361553
-0.129573
-0.844894
-1.86692
-3.70488
-5.92534
-8.2113
-11.8123
-10.1579
0.000115195
0.000367842
0.000672328
0.000993266
0.00135447
0.00174415
0.00217258
0.0026381
0.00314705
0.00370194
0.00430849
0.00497146
0.00569717
0.00649209
0.00736372
0.00832021
0.00937063
0.010525
0.0117943
0.0131908
0.0147278
0.0164202
0.0182842
0.0203378
0.0226006
0.0250945
0.0278432
0.0308731
0.0342129
0.0378945
0.0419525
0.0464252
0.0513545
0.0567863
0.062771
0.0693637
0.0766247
0.0846197
0.0934206
0.103106
0.11376
0.125477
0.138356
0.152506
0.168044
0.185097
0.203799
0.224294
0.246734
0.27128
0.2981
0.327365
0.359248
0.393922
0.431546
0.472263
0.516176
0.563331
0.613677
0.667006
0.722863
0.780404
0.838161
0.893678
0.942987
0.979575
0.994166
0.969458
0.891002
0.710112
0.426631
-0.0721841
-0.804737
-1.86976
-3.86485
-6.29089
-9.0787
-13.1148
-10.9455
0.000118829
0.000380376
0.000694055
0.00102508
0.00139704
0.00179835
0.00223927
0.00271834
0.00324195
0.00381277
0.00443667
0.00511857
0.00586499
0.00668256
0.00757905
0.0085628
0.00964317
0.0108305
0.012136
0.0135723
0.0151533
0.016894
0.0188113
0.0209236
0.0232512
0.0258164
0.0286437
0.0317603
0.0351957
0.0389826
0.0431567
0.0477574
0.0528278
0.0584152
0.0645712
0.0713527
0.0788215
0.0870456
0.0960986
0.106061
0.117022
0.129075
0.142324
0.156881
0.172867
0.190412
0.209655
0.230745
0.25384
0.279106
0.306718