/*--------------------------------*- C++ -*----------------------------------*\
| =========                 |                                                 |
| \\      /  F ield         | OpenFOAM: The Open Source CFD Toolbox           |
|  \\    /   O peration     | Version:  4.1                                   |
|   \\  /    A nd           | Web:      www.OpenFOAM.org                      |
|    \\/     M anipulation  |                                                 |
\*---------------------------------------------------------------------------*/
FoamFile
{
    version     2.0;
    format      ascii;
    class       surfaceScalarField;
    location    "2";
    object      phi;
}
// * * * * * * * * * * * * * * * * * * * * * * * * * * * * * * * * * * * * * //

dimensions      [0 3 -1 0 0 0 0];

internalField   nonuniform List<scalar> 
13220
(
-804.896
2104.79
-1259.74
1755.05
-1725.64
1765.79
-2070.83
1645.09
-2355.82
1585.2
-2564.12
1508.2
-2703.69
1439.47
-2774.14
1370.64
-2780.16
1305.92
-2718.73
1238.47
-2571.14
1152.61
-2288.75
1017.51
-1785.65
796.803
-999.861
514.405
300.039
-234.128
2338.92
-506.885
2027.8
-804.852
2063.76
-1044.16
1884.4
-1273.61
1814.64
-1458.41
1692.99
-1615.94
1597
-1739.74
1494.45
-1837.45
1403.63
-1901.79
1302.81
-1894.75
1145.56
-1730.19
852.947
-1286.05
352.669
-602.125
-169.523
-302.087
-142.975
2481.9
-338.364
2223.19
-469.415
2194.81
-542.556
1957.54
-603.049
1875.14
-618.413
1708.36
-610.899
1589.48
-571.884
1455.43
-506.192
1337.94
-418.113
1214.73
-321.921
1049.37
-236.568
767.577
-160.206
276.282
-137.271
-192.483
-439.358
110.132
2371.77
60.6669
2272.66
93.7475
2161.73
150.489
1900.8
212.379
1813.25
290.44
1630.3
377.472
1502.46
478.928
1353.98
596.184
1220.68
722.897
1088.02
828.486
943.784
833.514
762.564
607.412
502.405
158.425
256.536
-280.933
183.926
2187.85
161.697
2294.9
206.725
2116.71
260.368
1847.16
324.424
1749.2
381.371
1573.36
436.232
1447.6
485.255
1304.96
532.457
1173.49
574.471
1046.01
600.543
917.719
576.799
786.317
452.953
626.266
255.081
454.442
-25.8512
151.335
2036.52
188.776
2257.46
242.019
2063.48
295.816
1793.37
364.58
1680.45
415.462
1522.49
459.277
1403.79
484.9
1279.35
495.702
1162.69
490.29
1051.43
466.403
941.611
417.667
835.06
326.59
717.353
192.765
588.294
166.914
70.4244
1966.1
187.105
2140.79
279.397
1971.19
356.452
1716.33
440.679
1596.22
501.343
1461.83
546.641
1358.5
568.024
1257.97
565.447
1165.27
538.711
1078.17
488.294
992.031
414.853
908.518
316.408
815.817
185.016
719.72
351.93
3.25987
1962.84
133.051
2011
260.088
1844.16
361.819
1614.6
449.521
1508.52
514.333
1397.02
556.219
1316.61
573.75
1240.44
567.239
1171.78
535.786
1109.63
480.811
1047.01
403.131
986.183
303.761
915.173
177.511
845.949
529.441
11.6517
1951.19
50.7349
1971.92
174.684
1720.21
288.265
1501.02
371.425
1425.37
434.053
1334.39
470.964
1279.71
485.713
1225.69
479.421
1178.08
453.115
1135.94
406.893
1093.23
340.624
1052.47
255.698
1000.11
146.687
954.981
676.128
82.8955
1868.3
16.9044
2037.91
73.7912
1663.32
170.725
1404.08
249.372
1346.72
308.905
1274.86
342.005
1246.6
357.012
1210.68
353.916
1181.17
335.522
1154.33
302.992
1125.76
253.858
1101.58
189.717
1064.24
105.894
1038.78
782.022
146.122
1722.17
72.286
2111.74
33.309
1702.29
74.6438
1362.74
141.492
1279.86
194.458
1221.88
225.073
1215.98
239.28
1196.47
240.221
1180.22
229.275
1165.27
208.224
1146.8
175.912
1133.9
131.173
1108.98
72.0882
1097.87
854.11
159.195
1562.97
168.121
2102.81
105.049
1765.35
88.7724
1379.01
129.486
1239.14
166.087
1185.27
190.221
1191.84
198.53
1188.15
196.81
1181.94
186.523
1175.55
167.589
1165.73
140.409
1161.06
103.27
1146.1
57.0416
1144.08
911.152
118.124
1444.84
216.913
2004.02
219.92
1762.34
191.407
1407.52
190.929
1239.61
190.692
1185.51
189.047
1193.48
180.322
1196.87
166.499
1195.75
150.854
1191.19
131.437
1185.15
110.91
1181.59
82.523
1174.48
55.7283
1170.87
966.88
147.484
1297.35
261.507
1889.99
299.294
1724.55
290.116
1416.69
283.926
1245.79
276.153
1193.27
267.664
1201.96
255.519
1209.01
237.463
1213.81
212.719
1215.93
181.694
1216.17
141.366
1221.91
95.3021
1220.54
55.336
1210.83
1022.22
531.356
889.19
1008.63
1002.83
887.212
742.967
598.751
449.281
315.091
194.158
99.943
48.9996
23.6579
39.6207
0.000153218
22.4491
-22.4489
22.4491
22.4492
22.4492
17.633
4.81623
17.6332
17.6333
17.6334
3.18746
14.446
3.18757
3.1876
-29.7573
32.9449
-29.7573
-29.7572
-29.7572
-64.3053
34.5481
-64.3053
-64.3053
-110.02
45.7146
-110.02
-110.02
-110.02
-166.508
56.4879
-166.508
-166.508
-166.508
-226.246
59.7386
-226.246
-226.246
-291.797
65.5505
-291.797
-291.797
-291.797
-352.945
61.1486
-352.945
-352.945
-425.565
72.6201
-425.565
-425.565
-425.565
-501.497
75.9313
-501.497
-501.497
-501.497
-581.091
79.5948
-581.091
-581.091
-680.652
99.561
-680.652
-680.652
-680.652
-785.376
104.724
-785.376
-785.376
-785.376
-900.95
115.573
-900.95
-900.95
-1034.35
133.399
-1034.35
-1034.35
-1034.35
-1203.8
169.449
-1203.8
-1203.8
-1459.47
255.677
-1459.47
-1459.47
-1459.47
-1875.39
415.917
-1875.39
-1875.39
-1875.39
-2639.39
764.001
-2639.39
-2639.39
-3758.29
1118.9
-3758.29
-3758.29
-3567.1
-3371.1
-3169.73
-4548.19
1582.23
-4348.17
-4134.01
-3914.32
-3693.25
-3469.06
-3240.56
-3007.23
-2770.18
-4411.99
1879.15
-4179.16
-3948.17
-3719.72
-3490.79
-3258.27
-3021.1
-2778.75
-2531.35
-4457.95
2174.29
-4212.13
-3965.91
-3720.76
-3475.63
-3230.67
-2985.11
-2737.36
-2485.96
-2230.73
-4405.7
2429.11
-4152.76
-3899.75
-3647.45
-3395.29
-3142.4
-2888.95
-2633.54
-2375.49
-4688.17
2566.99
-4433.71
-4181.37
-3930.64
-3679.41
-3426.83
-3173.53
-2918.97
-2663.35
-5035.05
2622.94
-4783.97
-4534.91
-4286.25
-4033.99
-3779.38
-3524.73
-3268.78
-3010.35
-5404.18
2654.51
-5136.82
-4871.08
-4605.42
-4339.93
-4073.07
-3775.5
-3476.78
-3174.57
-2869.8
-5071.17
2505.28
-4772.39
-4474.75
-4183.51
-3897.49
-3617.39
-3370.27
-3183.38
-3016.58
-3091.73
210.343
-2983.52
-2884.19
-2884.19
-2961.43
77.2472
-2910.01
-51.4211
-2910.01
-2857.8
-52.2133
-2857.8
-2790.58
-67.2188
-2665.21
-125.368
-2665.21
-2538.73
-126.484
-2355.5
-183.223
-2355.5
-2176.86
-178.645
-2176.86
-2008.35
-168.51
-1815.14
-193.209
-1815.14
-1619.27
-195.871
-1619.27
-1428.7
-190.565
-1225.46
-203.242
-1225.46
-1012.05
-213.416
-799.638
-212.409
-799.638
-596.027
-203.611
-596.027
-381
-215.028
-149.034
-231.965
-149.034
78.8975
-227.931
78.8975
297.733
-218.836
541.593
-243.859
541.593
751.361
-209.768
968.072
-216.711
968.072
1155.33
-187.26
1155.33
1317.1
-161.773
1478.73
-161.631
1478.73
1616.27
-137.536
1616.27
1731.77
-115.501
1848.48
-116.705
1848.48
1964.46
-115.985
2062.13
-97.6641
2062.13
2151.29
-89.1687
2151.29
2209.41
-58.1112
2275.79
-66.3833
2275.79
2367.06
-91.2707
2367.06
2405.05
-37.9939
2413.45
-8.3997
2413.45
2449.61
-36.1536
2440.79
8.81721
2440.79
2561.32
-120.534
2561.32
2563.43
-2.10987
2483.12
80.315
2483.12
2596.68
-113.566
2596.68
2642.06
-45.3752
2572.79
69.2725
2572.79
2641.12
-68.3362
2582.41
58.7169
2582.41
2723.89
-141.48
2723.89
-136.202
-0.927275
-5.26436
-0.894215
-8.34542
-0.881336
-10.7388
-0.871234
-12.8996
-0.868047
-15.062
-0.868862
-17.1356
-0.874856
-19.2087
-0.885122
-21.263
-0.899975
-23.332
-0.9191
-25.4178
-0.942553
-27.5376
-0.97022
-29.6988
-1.0021
-31.9133
-1.03818
-34.19
-1.07845
-36.5388
-1.12296
-38.9691
-1.17176
-41.4903
-1.22491
-44.1119
-1.28252
-46.8433
-1.34471
-49.6943
-1.41162
-52.6748
-1.48343
-55.7948
-1.56032
-59.065
-1.64252
-62.4962
-1.73028
-66.0996
-1.82386
-69.8871
-1.92358
-73.8711
-2.02977
-78.0645
-2.1428
-82.4809
-2.26306
-87.1348
-2.391
-92.0414
-2.52708
-97.2168
-2.67183
-102.678
-2.82581
-108.444
-2.98962
-114.533
-3.16392
-120.966
-3.34943
-127.766
-3.54692
-134.955
-3.75721
-142.559
-3.9812
-150.606
-4.21984
-159.123
-4.47417
-168.142
-4.74529
-177.696
-5.03435
-187.821
-5.34259
-198.554
-5.6713
-209.936
-6.0218
-222.01
-6.39547
-234.823
-6.79366
-248.423
-7.21769
-262.862
-7.66877
-278.193
-8.14792
-294.471
-8.65586
-311.752
-9.19281
-330.093
-9.75828
-349.545
-10.3507
-370.156
-10.9672
-391.964
-11.6025
-414.99
-12.2487
-439.231
-12.8938
-464.649
-13.5206
-491.151
-14.1045
-518.574
-14.6119
-546.651
-14.997
-574.973
-15.1998
-602.958
-15.1407
-629.719
-14.7265
-654.191
-13.8301
-674.497
-12.3375
-689.127
-10.0774
-693.89
-6.98304
-687.705
-2.93244
-661.152
1.91721
-615.401
7.43679
-531.541
12.2968
-412.806
25.8967
-175.84
10.7099
188.489
113.142
445.122
366.825
-1.18491
-5.30833
-1.1393
-8.39102
-1.12166
-10.7564
-1.10872
-12.9126
-1.10477
-15.0659
-1.10618
-17.1342
-1.11413
-19.2007
-1.12752
-21.2496
-1.14666
-23.3129
-1.17118
-25.3933
-1.20113
-27.5077
-1.23636
-29.6636
-1.27687
-31.8728
-1.32264
-34.1442
-1.37366
-36.4878
-1.42999
-38.9128
-1.49168
-41.4287
-1.55882
-44.0448
-1.63152
-46.7706
-1.70995
-49.6159
-1.79426
-52.5904
-1.88467
-55.7044
-1.9814
-58.9683
-2.08474
-62.3928
-2.19496
-65.9894
-2.31241
-69.7697
-2.43745
-73.7461
-2.57048
-77.9315
-2.71193
-82.3395
-2.86229
-86.9845
-3.02207
-91.8816
-3.19184
-97.0471
-3.37221
-102.498
-3.56385
-108.252
-3.76747
-114.329
-3.98383
-120.75
-4.21379
-127.536
-4.45823
-134.711
-4.71811
-142.299
-4.99447
-150.329
-5.28842
-158.829
-5.60113
-167.829
-5.93386
-177.363
-6.28791
-187.467
-6.66467
-198.177
-7.06557
-209.535
-7.49207
-221.584
-7.94565
-234.37
-8.42772
-247.941
-8.93963
-262.35
-9.48252
-277.65
-10.0573
-293.896
-10.6642
-311.145
-11.3031
-329.454
-11.9726
-348.875
-12.6699
-369.459
-13.3903
-391.244
-14.126
-414.255
-14.8657
-438.492
-15.5923
-463.922
-16.2821
-490.461
-16.9017
-517.954
-17.4058
-546.147
-17.7334
-574.645
-17.806
-602.885
-17.5198
-630.005
-16.7554
-654.955
-15.3523
-675.9
-13.1681
-691.311
-10.0003
-697.058
-5.76543
-691.94
-0.374908
-666.543
5.98607
-621.762
12.9825
-538.537
19.0024
-418.826
31.0164
-187.854
10.2587
209.247
97.3116
358.07
322.657
-1.32806
-5.35833
-1.2778
-8.44128
-1.25751
-10.7767
-1.24331
-12.9268
-1.2391
-15.0701
-1.24111
-17.1322
-1.25035
-19.1915
-1.26571
-21.2342
-1.28745
-23.2911
-1.31519
-25.3656
-1.34895
-27.4739
-1.3886
-29.6239
-1.43412
-31.8273
-1.48548
-34.0928
-1.5427
-36.4306
-1.60582
-38.8497
-1.67489
-41.3596
-1.75003
-43.9696
-1.83135
-46.6893
-1.91903
-49.5282
-2.01325
-52.4962
-2.11425
-55.6034
-2.22226
-58.8602
-2.33759
-62.2775
-2.46057
-65.8664
-2.59154
-69.6387
-2.73091
-73.6067
-2.87912
-77.7833
-3.03665
-82.182
-3.204
-86.8171
-3.38176
-91.7039
-3.57052
-96.8583
-3.77095
-102.297
-3.98378
-108.039
-4.20977
-114.103
-4.44975
-120.51
-4.70463
-127.281
-4.97536
-134.44
-5.26299
-142.012
-5.56861
-150.024
-5.8934
-158.504
-6.23863
-167.484
-6.60561
-176.996
-6.99573
-187.076
-7.41046
-197.762
-7.85128
-209.094
-8.31972
-221.115
-8.81728
-233.872
-9.34541
-247.413
-9.90544
-261.79
-10.4984
-277.057
-11.1252
-293.269
-11.7858
-310.485
-12.4796
-328.76
-13.2049
-348.15
-13.9581
-368.706
-14.7332
-390.469
-15.5212
-413.467
-16.3085
-437.704
-17.0753
-463.155
-17.7939
-489.742
-18.4259
-517.322
-18.9194
-545.654
-19.2047
-574.36
-19.1926
-602.897
-18.7662
-630.431
-17.7905
-655.931
-16.0882
-677.602
-13.4979
-693.902
-9.80591
-700.75
-4.9097
-696.836
1.25007
-672.703
8.48767
-628.999
16.34
-546.39
22.9375
-425.423
29.2861
-194.202
-6.29068
244.823
-69.4639
421.243
311.91
-1.48808
-5.41321
-1.43437
-8.495
-1.41203
-10.7991
-1.39691
-12.9419
-1.39277
-15.0743
-1.39571
-17.1293
-1.40663
-19.1806
-1.42442
-21.2164
-1.4493
-23.2663
-1.48087
-25.334
-1.51916
-27.4356
-1.56401
-29.5791
-1.61541
-31.7759
-1.67333
-34.0349
-1.73778
-36.3661
-1.80882
-38.7786
-1.88652
-41.2819
-1.97098
-43.8852
-2.06236
-46.5979
-2.16082
-49.4297
-2.2666
-52.3905
-2.37992
-55.4901
-2.50108
-58.7391
-2.63039
-62.1482
-2.76822
-65.7286
-2.91496
-69.492
-3.07105
-73.4506
-3.23697
-77.6173
-3.41324
-82.0057
-3.60044
-86.6299
-3.79917
-91.5052
-4.01012
-96.6474
-4.23399
-102.074
-4.47159
-107.802
-4.72374
-113.851
-4.99136
-120.242
-5.27542
-126.997
-5.57697
-134.138
-5.89712
-141.692
-6.23707
-149.684
-6.59809
-158.143
-6.98152
-167.101
-7.3888
-176.589
-7.8214
-186.644
-8.28088
-197.303
-8.76881
-208.606
-9.2868
-220.597
-9.83642
-233.322
-10.4191
-246.83
-11.0363
-261.173
-11.689
-276.404
-12.3778
-292.58
-13.1026
-309.76
-13.8625
-328
-14.6551
-347.358
-15.4761
-367.885
-16.3185
-389.626
-17.1714
-412.614
-18.019
-436.857
-18.8385
-462.336
-19.5979
-488.983
-20.2532
-516.667
-20.745
-545.162
-20.9939
-574.111
-20.8988
-602.992
-20.3274
-631.003
-19.1271
-657.131
-17.1002
-679.629
-14.0629
-696.939
-9.78397
-705.029
-4.13994
-702.48
2.90886
-679.751
11.1808
-637.271
20.0935
-555.302
27.5892
-432.919
37.6735
-204.286
14.9098
267.587
22.026
414.127
265.6
-1.63899
-5.47116
-1.58355
-8.55044
-1.55977
-10.8228
-1.54418
-12.9575
-1.54038
-15.078
-1.54446
-17.1252
-1.55722
-19.1678
-1.57754
-21.1961
-1.60561
-23.2382
-1.64102
-25.2986
-1.68381
-27.3928
-1.7338
-29.5291
-1.79099
-31.7187
-1.85535
-33.9706
-1.92689
-36.2946
-2.00568
-38.6999
-2.09179
-41.1958
-2.18535
-43.7916
-2.28652
-46.4967
-2.39549
-49.3208
-2.5125
-52.2734
-2.63782
-55.3648
-2.77175
-58.6052
-2.91465
-62.0053
-3.06691
-65.5763
-3.22895
-69.3299
-3.40127
-73.2783
-3.58437
-77.4342
-3.77883
-81.8112
-3.98526
-86.4235
-4.20434
-91.2861
-4.43679
-96.4149
-4.6834
-101.827
-4.945
-107.54
-5.2225
-113.574
-5.5169
-119.948
-5.82922
-126.684
-6.1606
-133.807
-6.51224
-141.34
-6.88541
-149.311
-7.28148
-157.747
-7.70189
-166.68
-8.14814
-176.143
-8.62181
-186.17
-9.12455
-196.8
-9.65801
-208.073
-10.2239
-220.031
-10.8238
-232.722
-11.4593
-246.195
-12.1316
-260.5
-12.8419
-275.694
-13.5906
-291.832
-14.3774
-308.973
-15.2011
-327.176
-16.0588
-346.5
-16.9454
-366.998
-17.8528
-388.719
-18.7687
-411.698
-19.675
-435.951
-20.5462
-461.464
-21.3461
-488.183
-22.0254
-515.987
-22.5177
-544.67
-22.7345
-573.894
-22.563
-603.164
-21.8567
-631.709
-20.4455
-658.542
-18.112
-681.963
-14.6502
-700.401
-9.81024
-709.869
-3.44612
-708.845
4.4683
-687.666
13.7662
-646.569
23.7496
-565.286
32.457
-441.626
42.5596
-214.389
24.2337
285.913
-58.8249
497.185
276.047
-1.78682
-5.53102
-1.73075
-8.60651
-1.70609
-10.8475
-1.69043
-12.9731
-1.68727
-15.0812
-1.69272
-17.1198
-1.70751
-19.153
-1.73052
-21.1731
-1.76193
-23.2068
-1.80134
-25.2592
-1.84874
-27.3454
-1.904
-29.4738
-1.9671
-31.6556
-2.03801
-33.8997
-2.11675
-36.2158
-2.20339
-38.6132
-2.29803
-41.1011
-2.40079
-43.6888
-2.51185
-46.3857
-2.63142
-49.2012
-2.75977
-52.1451
-2.89718
-55.2274
-3.044
-58.4583
-3.2006
-61.8487
-3.3674
-65.4095
-3.54487
-69.1525
-3.73354
-73.0896
-3.93396
-77.2338
-4.14674
-81.5984
-4.37256
-86.1977
-4.61214
-91.0465
-4.86625
-96.1608
-5.13574
-101.557
-5.42153
-107.254
-5.72457
-113.271
-6.04594
-119.626
-6.38673
-126.344
-6.74817
-133.445
-7.13153
-140.957
-7.53819
-148.904
-7.96957
-157.316
-8.42723
-166.223
-8.91276
-175.657
-9.42783
-185.655
-9.97418
-196.254
-10.5536
-207.493
-11.1677
-219.417
-11.8184
-232.072
-12.507
-245.506
-13.2351
-259.772
-14.0036
-274.925
-14.8129
-291.022
-15.6625
-308.123
-16.5509
-326.288
-17.4746
-345.576
-18.428
-366.045
-19.4019
-387.745
-20.3825
-410.717
-21.3498
-434.983
-22.2752
-460.539
-23.119
-487.339
-23.8265
-515.28
-24.3245
-544.172
-24.5158
-573.703
-24.276
-603.404
-23.4444
-632.541
-21.8335
-660.153
-19.2058
-684.591
-15.3325
-704.274
-9.94218
-715.259
-2.86443
-715.922
5.92158
-696.452
16.2711
-656.919
27.3875
-576.402
37.4829
-451.722
49.4898
-226.396
49.9781
285.425
47.4426
499.721
278.115
-1.93092
-5.59181
-1.87513
-8.66231
-1.85006
-10.8726
-1.83469
-12.9885
-1.83243
-15.0835
-1.83945
-17.1127
-1.85644
-19.136
-1.8823
-21.1472
-1.91718
-23.1719
-1.96069
-25.2157
-2.01282
-27.2933
-2.07343
-29.4132
-2.14251
-31.5865
-2.22003
-33.8221
-2.30602
-36.1298
-2.40057
-38.5187
-2.50376
-40.9979
-2.61575
-43.5768
-2.73674
-46.2647
-2.86695
-49.071
-3.00666
-52.0054
-3.15618
-55.0778
-3.31589
-58.2986
-3.48619
-61.6784
-3.66755
-65.2282
-3.86045
-68.9595
-4.06547
-72.8846
-4.2832
-77.0161
-4.5143
-81.3673
-4.7595
-85.9525
-5.01956
-90.7864
-5.29532
-95.885
-5.58769
-101.265
-5.89764
-106.944
-6.2262
-112.942
-6.57451
-119.278
-6.94376
-125.974
-7.33522
-133.054
-7.75028
-140.542
-8.19037
-148.464
-8.65704
-156.849
-9.15191
-165.728
-9.67667
-175.132
-10.2331
-185.099
-10.823
-195.664
-11.4483
-206.868
-12.1107
-218.755
-12.812
-231.37
-13.5539
-244.764
-14.3377
-258.988
-15.1644
-274.099
-16.0343
-290.153
-16.9468
-307.211
-17.9001
-325.335
-18.8903
-344.586
-19.911
-365.024
-20.952
-386.704
-21.9984
-409.671
-23.028
-433.954
-24.0097
-459.557
-24.9
-486.449
-25.6394
-514.54
-26.1482
-543.663
-26.3203
-573.531
-26.0204
-603.704
-25.0738
-633.487
-23.2758
-661.951
-20.3684
-687.498
-16.0994
-708.543
-10.1735
-721.185
-2.39355
-723.702
7.26427
-706.11
18.6837
-668.338
30.9638
-588.682
42.6512
-463.409
56.1934
-239.938
64.9882
276.63
131.657
433.052
296.205
-2.07193
-5.65279
-2.01705
-8.71719
-1.99199
-10.8976
-1.97725
-13.0032
-1.97613
-15.0846
-1.98493
-17.1039
-2.00429
-19.1167
-2.03314
-21.1184
-2.07162
-23.1334
-2.11934
-25.1679
-2.1763
-27.2363
-2.24235
-29.3472
-2.31749
-31.5114
-2.4017
-33.7379
-2.49502
-36.0365
-2.59753
-38.4162
-2.70934
-40.8861
-2.83062
-43.4556
-2.96158
-46.1337
-3.10246
-48.9301
-3.25357
-51.8543
-3.41525
-54.9162
-3.58789
-58.126
-3.77193
-61.4943
-3.96786
-65.0322
-4.17623
-68.7512
-4.39763
-72.6632
-4.6327
-76.781
-4.88215
-81.1179
-5.14675
-85.6879
-5.42732
-90.5059
-5.72477
-95.5876
-6.04004
-100.95
-6.37418
-106.61
-6.72829
-112.588
-7.10358
-118.903
-7.5013
-125.577
-7.92283
-132.632
-8.3696
-140.095
-8.84317
-147.99
-9.34516
-156.347
-9.87728
-165.196
-10.4413
-174.568
-11.0392
-184.501
-11.6727
-195.03
-12.3439
-206.197
-13.0546
-218.044
-13.8067
-230.618
-14.6019
-243.969
-15.4416
-258.149
-16.3267
-273.214
-17.2575
-289.222
-18.2332
-306.235
-19.2517
-324.316
-20.3089
-343.529
-21.3976
-363.936
-22.5069
-385.595
-23.6203
-408.557
-24.714
-432.86
-25.7544
-458.517
-26.6945
-485.509
-27.4702
-513.765
-27.9952
-543.138
-28.1555
-573.371
-27.8048
-604.054
-26.7546
-634.538
-24.7832
-663.923
-21.612
-690.669
-16.9643
-713.191
-10.5187
-727.63
-2.04856
-732.172
8.4818
-716.64
20.9902
-680.846
34.4839
-602.176
47.7253
-476.651
59.4409
-251.654
58.0601
278.011
-25.5138
516.626
351.007
-2.21012
-5.71339
-2.15665
-8.77067
-2.13197
-10.9223
-2.11816
-13.0171
-2.11839
-15.0844
-2.12916
-17.0932
-2.15105
-19.0948
-2.18304
-21.0864
-2.22524
-23.0912
-2.27729
-25.1159
-2.33918
-27.1744
-2.41077
-29.2756
-2.49205
-31.4301
-2.58303
-33.647
-2.68374
-35.9358
-2.79427
-38.3056
-2.91476
-40.7656
-3.04537
-43.3249
-3.18635
-45.9928
-3.33795
-48.7785
-3.5005
-51.6917
-3.67436
-54.7423
-3.85997
-57.9404
-4.05778
-61.2965
-4.26833
-64.8217
-4.49219
-68.5273
-4.72999
-72.4254
-4.98243
-76.5286
-5.25026
-80.85
-5.53429
-85.4038
-5.8354
-90.2047
-6.15455
-95.2684
-6.49275
-100.612
-6.85111
-106.252
-7.23079
-112.208
-7.63308
-118.5
-8.05931
-125.15
-8.51092
-132.181
-8.98945
-139.616
-9.49652
-147.483
-10.0339
-155.81
-10.6033
-164.626
-11.2066
-173.965
-11.8459
-183.861
-12.5231
-194.353
-13.2403
-205.48
-13.9994
-217.285
-14.8024
-229.815
-15.651
-243.12
-16.5467
-257.253
-17.4903
-272.27
-18.4822
-288.23
-19.5214
-305.196
-20.6057
-323.232
-21.7303
-342.404
-22.8878
-362.778
-24.0663
-384.416
-25.2482
-407.375
-26.408
-431.7
-27.5096
-457.415
-28.503
-484.516
-29.3194
-512.948
-29.8668
-542.59
-30.023
-573.214
-29.6313
-604.446
-28.4899
-635.679
-26.3599
-666.053
-22.9419
-694.087
-17.934
-718.199
-10.9861
-734.578
-1.83936
-741.319
9.56317
-728.042
23.1792
-694.462
37.9486
-616.945
52.755
-491.457
65.3643
-264.263
76.9245
266.45
38.1625
555.388
387.059
-2.34579
-5.77315
-2.29409
-8.82237
-2.27011
-10.9463
-2.25748
-13.0297
-2.25929
-15.0825
-2.2722
-17.0802
-2.29678
-19.0702
-2.33204
-21.0511
-2.37809
-23.0452
-2.43458
-25.0594
-2.5015
-27.1075
-2.57871
-29.1984
-2.66623
-31.3425
-2.76405
-33.5491
-2.87222
-35.8276
-2.99084
-38.187
-3.12006
-40.6364
-3.26007
-43.1849
-3.41111
-45.8417
-3.57347
-48.6161
-3.74751
-51.5177
-3.9336
-54.5562
-4.13221
-57.7418
-4.34384
-61.0849
-4.56903
-64.5965
-4.80842
-68.2879
-5.06266
-72.1712
-5.3325
-76.2587
-5.61874
-80.5638
-5.92223
-85.1003
-6.24391
-89.8831
-6.58479
-94.9276
-6.94595
-100.25
-7.32856
-105.869
-7.73385
-111.803
-8.16316
-118.071
-8.61793
-124.696
-9.09966
-131.699
-9.60998
-139.106
-10.1506
-146.943
-10.7233
-155.237
-11.33
-164.019
-11.9728
-173.322
-12.6535
-183.181
-13.3745
-193.632
-14.1377
-204.716
-14.9453
-216.477
-15.7992
-228.961
-16.7014
-242.218
-17.6532
-256.301
-18.6556
-271.267
-19.7088
-287.177
-20.8119
-304.093
-21.9623
-322.082
-23.1551
-341.211
-24.3822
-361.551
-25.631
-383.167
-26.8829
-406.124
-28.1108
-430.472
-29.2765
-456.25
-30.3268
-483.465
-31.1889
-512.086
-31.7651
-542.014
-31.9256
-573.054
-31.5036
-604.868
-30.2843
-636.898
-28.0116
-668.325
-24.3652
-697.734
-19.0172
-723.547
-11.5861
-742.009
-1.77799
-751.127
10.4952
-740.316
25.2367
-709.204
41.3257
-633.034
57.7653
-507.896
73.9044
-280.402
89.4803
250.874
157.557
487.311
424.082
-2.47917
-5.83174
-2.42951
-8.87204
-2.4065
-10.9693
-2.3953
-13.0409
-2.39888
-15.079
-2.41411
-17.065
-2.44152
-19.0428
-2.48019
-21.0125
-2.53021
-22.9951
-2.59125
-24.9984
-2.66329
-27.0355
-2.74623
-29.1154
-2.84007
-31.2487
-2.9448
-33.4444
-3.0605
-35.7119
-3.18728
-38.0602
-3.32529
-40.4984
-3.47475
-43.0355
-3.63591
-45.6806
-3.80909
-48.443
-3.99465
-51.3321
-4.19302
-54.3578
-4.40468
-57.5301
-4.63015
-60.8594
-4.87003
-64.3566
-5.12498
-68.033
-5.3957
-71.9004
-5.68298
-75.9714
-5.98766
-80.2591
-6.31064
-84.7774
-6.65293
-89.5408
-7.01558
-94.5649
-7.39974
-99.8663
-7.80663
-105.462
-8.23756
-111.372
-8.69395
-117.615
-9.17729
-124.212
-9.68919
-131.187
-10.2313
-138.564
-10.8055
-146.368
-11.4137
-154.629
-12.0578
-163.375
-12.7399
-172.64
-13.4623
-182.458
-14.227
-192.867
-15.0363
-203.907
-15.8925
-215.621
-16.7975
-228.056
-17.7533
-241.262
-18.7614
-255.293
-19.8228
-270.206
-20.9377
-286.062
-22.105
-302.925
-23.322
-320.864
-24.5836
-339.95
-25.8812
-360.253
-27.2016
-381.847
-28.5251
-404.8
-29.8233
-429.174
-31.056
-455.017
-32.1672
-482.354
-33.0803
-511.173
-33.6921
-541.402
-33.8659
-572.88
-33.4249
-605.309
-32.1417
-638.181
-29.7435
-670.723
-25.8885
-701.589
-20.2221
-729.213
-12.3287
-749.903
-1.87639
-761.58
11.2644
-753.456
27.1484
-725.088
44.5946
-650.48
62.7519
-526.054
79.4973
-297.148
90.2876
240.084
59.4083
518.19
492.308
-2.61046
-5.88888
-2.56303
-8.91947
-2.54124
-10.9911
-2.53169
-13.0504
-2.53722
-15.0734
-2.55492
-17.0473
-2.58532
-19.0124
-2.62752
-20.9703
-2.68163
-22.941
-2.74733
-24.9327
-2.82461
-26.9582
-2.91336
-29.0267
-3.0136
-31.1485
-3.12533
-33.3327
-3.24864
-35.5886
-3.38364
-37.9252
-3.53051
-40.3515
-3.68947
-42.8765
-3.8608
-45.5092
-4.04485
-48.2589
-4.24199
-51.135
-4.45268
-54.1471
-4.67743
-57.3054
-4.91679
-60.6201
-5.17141
-64.102
-5.44196
-67.7624
-5.7292
-71.6132
-6.03395
-75.6667
-6.35711
-79.936
-6.69964
-84.4348
-7.06257
-89.1778
-7.44703
-94.1805
-7.85423
-99.4591
-8.28544
-105.031
-8.74206
-110.915
-9.22556
-117.131
-9.73753
-123.7
-10.2796
-130.645
-10.8537
-137.99
-11.4615
-145.761
-12.1051
-153.985
-12.7867
-162.694
-13.5083
-171.919
-14.2722
-181.694
-15.0808
-192.059
-15.9364
-203.051
-16.8412
-214.716
-17.7974
-227.1
-18.8071
-240.253
-19.8717
-254.229
-20.9923
-269.085
-22.1691
-284.885
-23.401
-301.693
-24.6852
-319.58
-26.0163
-338.619
-27.3853
-358.884
-28.7785
-380.454
-30.1754
-403.403
-31.5462
-427.803
-32.8491
-453.714
-34.0253
-481.178
-34.9949
-510.204
-35.6498
-540.747
-35.8463
-572.684
-35.3984
-605.757
-34.0664
-639.513
-31.5608
-673.229
-27.5184
-705.631
-21.557
-735.175
-13.2242
-758.235
-2.14716
-772.657
11.8564
-767.46
28.8989
-742.13
47.7433
-669.325
67.7575
-546.068
85.6811
-315.071
99.4021
226.363
74.5255
543.067
530.68
-2.73984
-5.94438
-2.69479
-8.96452
-2.67443
-11.0114
-2.66672
-13.0581
-2.67437
-15.0658
-2.6947
-17.027
-2.72821
-18.9789
-2.77408
-20.9244
-2.8324
-22.8827
-2.90286
-24.8622
-2.98548
-26.8756
-3.08014
-28.932
-3.18686
-31.0417
-3.30567
-33.2139
-3.43666
-35.4576
-3.57996
-37.7819
-3.73575
-40.1957
-3.90428
-42.708
-4.08585
-45.3277
-4.28081
-48.0639
-4.48959
-50.9262
-4.71265
-53.9241
-4.95053
-57.0675
-5.20384
-60.3667
-5.47322
-63.8326
-5.75942
-67.4762
-6.06323
-71.3094
-6.3855
-75.3444
-6.72719
-79.5943
-7.0893
-84.0727
-7.47292
-88.7942
-7.87924
-93.7741
-8.30952
-99.0288
-8.76511
-104.576
-9.24746
-110.433
-9.75813
-116.621
-10.2988
-123.16
-10.8711
-130.073
-11.4771
-137.384
-12.1186
-145.119
-12.7978
-153.306
-13.5168
-161.975
-14.278
-171.157
-15.0837
-180.889
-15.9362
-191.206
-16.8381
-202.15
-17.7917
-213.763
-18.7993
-226.092
-19.8629
-239.189
-20.9842
-253.107
-22.1643
-267.905
-23.4034
-283.646
-24.7003
-300.396
-26.0522
-318.228
-27.4535
-337.217
-28.895
-357.443
-30.3624
-378.986
-31.8344
-401.931
-33.2804
-426.357
-34.6566
-452.338
-35.9024
-479.932
-36.9344
-509.172
-37.6399
-540.042
-37.8691
-572.454
-37.4271
-606.199
-36.0622
-640.878
-33.4687
-675.823
-29.2615
-709.838
-23.0303
-741.406
-14.2833
-766.982
-2.60333
-784.337
12.2561
-782.319
30.4701
-760.344
50.7588
-689.614
72.7803
-568.089
90.8257
-333.117
113.442
203.747
77.0128
579.496
599.293
-2.86745
-5.99807
-2.82488
-9.00709
-2.80616
-11.0302
-2.80045
-13.0638
-2.81038
-15.0559
-2.83349
-17.0039
-2.87025
-18.9421
-2.9199
-20.8747
-2.98255
-22.8201
-3.05789
-24.7869
-3.14594
-26.7875
-3.24661
-28.8313
-3.35991
-30.9284
-3.48588
-33.0879
-3.62463
-35.3189
-3.77629
-37.6303
-3.94107
-40.031
-4.11923
-42.5298
-4.31109
-45.1358
-4.51703
-47.858
-4.7375
-50.7057
-4.97298
-53.6886
-5.22406
-56.8164
-5.49135
-60.0995
-5.77556
-63.5484
-6.07746
-67.1743
-6.39788
-70.989
-6.73772
-75.0046
-7.09798
-79.234
-7.47972
-83.691
-7.88409
-88.3898
-8.31232
-93.3459
-8.76573
-98.5754
-9.24575
-104.096
-9.75389
-109.925
-10.2918
-116.083
-10.8611
-122.59
-11.4638
-129.47
-12.1018
-136.746
-12.7771
-144.444
-13.4919
-152.591
-14.2485
-161.218
-15.0493
-170.357
-15.8967
-180.041
-16.7933
-190.309
-17.7416
-201.201
-18.7441
-212.76
-19.8032
-225.033
-20.921
-238.071
-22.0992
-251.929
-23.3391
-266.665
-24.6408
-282.344
-26.0032
-299.034
-27.4235
-316.808
-28.8958
-335.745
-30.4108
-355.928
-31.9538
-377.444
-33.5029
-400.382
-35.0265
-424.834
-36.4796
-450.885
-37.7995
-478.612
-38.9
-508.071
-39.6643
-539.278
-39.9367
-572.182
-39.514
-606.622
-38.1331
-642.259
-35.4721
-678.484
-31.1244
-714.186
-24.6504
-747.88
-15.5167
-776.116
-3.25839
-796.595
12.4474
-798.025
31.843
-779.74
53.6438
-711.414
77.6414
-592.087
96.2261
-351.701
129.617
170.356
95.4176
613.696
656.717
-2.99344
-6.04985
-2.95343
-9.0471
-2.93649
-11.0471
-2.93295
-13.0674
-2.9453
-15.0435
-2.97133
-16.9778
-3.01147
-18.902
-3.06504
-20.8212
-3.13212
-22.753
-3.21246
-24.7065
-3.30605
-26.6939
-3.41281
-28.7246
-3.53278
-30.8085
-3.666
-32.9547
-3.81258
-35.1723
-3.97268
-37.4702
-4.14652
-39.8571
-4.33438
-42.342
-4.5366
-44.9336
-4.75358
-47.641
-4.98579
-50.4735
-5.23375
-53.4406
-5.49807
-56.5521
-5.77941
-59.8181
-6.0785
-63.2493
-6.39615
-66.8567
-6.73323
-70.6519
-7.0907
-74.6471
-7.46959
-78.8551
-7.87102
-83.2895
-8.29618
-87.9647
-8.74637
-92.8957
-9.22298
-98.0988
-9.72748
-103.591
-10.2615
-109.391
-10.8267
-115.518
-11.4248
-121.992
-12.0579
-128.837
-12.7279
-136.076
-13.437
-143.735
-14.1875
-151.841
-14.9818
-160.424
-15.8223
-169.516
-16.7117
-179.152
-17.6524
-189.369
-18.6473
-200.206
-19.6988
-211.709
-20.8095
-223.923
-21.9817
-236.899
-23.2171
-250.694
-24.517
-265.366
-25.8817
-280.98
-27.3101
-297.606
-28.7993
-315.319
-30.3435
-334.201
-31.9331
-354.338
-33.5532
-375.823
-35.1814
-398.754
-36.7853
-423.23
-38.3189
-449.351
-39.7177
-477.213
-40.8931
-506.896
-41.7246
-538.446
-42.0512
-571.855
-41.6619
-607.011
-40.2827
-643.638
-37.576
-681.19
-33.1134
-718.649
-26.4257
-754.568
-16.9353
-785.606
-4.12639
-809.404
12.4131
-814.565
32.9981
-800.325
56.3707
-734.787
82.3672
-618.083
105.655
-374.989
138.937
137.073
157.859
594.774
723.305
-3.11791
-6.09963
-3.0805
-9.0845
-3.06551
-11.0621
-3.06428
-13.0686
-3.0792
-15.0286
-3.10827
-16.9488
-3.15193
-18.8583
-3.20953
-20.7636
-3.28117
-22.6814
-3.3666
-24.6211
-3.46583
-26.5947
-3.57879
-28.6116
-3.70552
-30.6817
-3.84607
-32.8141
-4.00057
-35.0178
-4.16918
-37.3016
-4.35216
-39.6742
-4.54978
-42.1443
-4.76243
-44.7209
-4.99051
-47.4129
-5.23452
-50.2295
-5.49503
-53.1801
-5.77266
-56.2745
-6.0681
-59.5227
-6.38212
-62.9353
-6.71558
-66.5232
-7.06938
-70.2981
-7.44453
-74.2719
-7.84211
-78.4576
-8.26328
-82.8684
-8.7093
-87.5187
-9.18152
-92.4235
-9.68139
-97.5989
-10.2104
-103.062
-10.7704
-108.831
-11.3629
-114.925
-11.9899
-121.365
-12.6535
-128.173
-13.3556
-135.374
-14.0987
-142.992
-14.885
-151.054
-15.717
-159.592
-16.5973
-168.636
-17.5287
-178.221
-18.5137
-188.384
-19.5553
-199.165
-20.656
-210.608
-21.8185
-222.76
-23.0452
-235.673
-24.3381
-249.401
-25.6983
-264.005
-27.1264
-279.551
-28.6214
-296.111
-30.1802
-313.76
-31.7971
-332.584
-33.4625
-352.673
-35.1612
-374.125
-36.8705
-397.044
-38.5575
-421.543
-40.1753
-447.733
-41.658
-475.731
-42.915
-505.639
-43.8225
-537.539
-44.2147
-571.463
-43.8735
-607.352
-42.5147
-644.997
-39.7851
-683.92
-35.2351
-723.199
-28.3649
-761.438
-18.5505
-795.421
-5.22205
-822.732
12.1345
-831.921
33.9136
-822.104
58.9055
-759.779
87.0783
-646.256
112.861
-400.772
144.112
105.822
148.555
590.33
805.478
-3.24096
-6.14734
-3.20621
-9.11925
-3.19328
-11.075
-3.19449
-13.0674
-3.21212
-15.011
-3.24437
-16.9165
-3.29166
-18.811
-3.35342
-20.7018
-3.42973
-22.605
-3.52037
-24.5305
-3.62534
-26.4897
-3.7446
-28.4924
-3.87818
-30.5482
-4.02614
-32.6661
-4.18864
-34.8553
-4.36585
-37.1243
-4.55804
-39.482
-4.7655
-41.9369
-4.98864
-44.4978
-5.22789
-47.1737
-5.48378
-49.9736
-5.75689
-52.907
-6.04788
-55.9835
-6.35749
-59.2131
-6.68651
-62.6062
-7.03584
-66.1739
-7.40643
-69.9275
-7.79932
-73.879
-8.21565
-78.0412
-8.65663
-82.4274
-9.12358
-87.0517
-9.61789
-91.9292
-10.1411
-97.0757
-10.6948
-102.508
-11.2807
-108.245
-11.9006
-114.305
-12.5566
-120.709
-13.2507
-127.479
-13.9851
-134.639
-14.7622
-142.214
-15.5844
-150.232
-16.4542
-158.722
-17.3745
-167.716
-18.348
-177.247
-19.3774
-187.354
-20.4658
-198.076
-21.6159
-209.458
-22.8305
-221.546