/*--------------------------------*- C++ -*----------------------------------*\
| =========                 |                                                 |
| \\      /  F ield         | OpenFOAM: The Open Source CFD Toolbox           |
|  \\    /   O peration     | Version:  4.1                                   |
|   \\  /    A nd           | Web:      www.OpenFOAM.org                      |
|    \\/     M anipulation  |                                                 |
\*---------------------------------------------------------------------------*/
FoamFile
{
    version     2.0;
    format      ascii;
    class       volVectorField;
    location    "2";
    object      U;
}
// * * * * * * * * * * * * * * * * * * * * * * * * * * * * * * * * * * * * * //

dimensions      [0 1 -1 0 0 0 0];

internalField   nonuniform List<vector> 
6785
(
(1.21431e-14 -2.33594 16.5579)
(9.53837e-15 -7.91625 13.0115)
(-2.96658e-15 -5.11522 13.831)
(3.43559e-15 -5.04603 13.3468)
(7.70624e-16 -4.23335 13.2184)
(-5.53499e-16 -3.78912 12.9388)
(1.83572e-15 -3.33904 12.6616)
(1.12016e-16 -3.00552 12.3419)
(-1.88095e-16 -2.76349 12.0279)
(9.19453e-16 -2.6703 11.7699)
(1.05284e-16 -2.71101 11.6448)
(-2.81385e-16 -2.88519 11.5795)
(-3.78696e-16 -3.50941 11.0535)
(-4.20141e-16 -3.70249 9.82059)
(8.14146e-16 -0.182926 7.74782)
(1.57685e-14 -10.4642 27.1644)
(1.07028e-14 -16.3192 23.5407)
(-3.58369e-15 -11.2789 23.8695)
(1.03849e-15 -11.9939 22.0768)
(-5.7632e-16 -10.2753 21.2464)
(-2.29653e-15 -9.61765 20.05)
(-1.62262e-15 -8.63218 19.0069)
(-1.76817e-15 -7.85821 17.9533)
(-2.88842e-15 -7.10197 16.9569)
(-2.32194e-15 -6.33862 15.8384)
(-7.97708e-16 -5.28831 14.1424)
(-6.32088e-16 -3.67137 11.2274)
(2.99313e-15 -1.6055 6.78578)
(9.95597e-15 0.33942 1.78278)
(9.33924e-15 0.666935 -0.738938)
(1.88446e-14 -13.2281 29.0255)
(7.36744e-15 -17.114 25.4333)
(-2.99709e-15 -12.2884 25.495)
(2.09237e-15 -13.4916 22.9321)
(-3.24458e-15 -11.2931 21.9504)
(-2.22493e-15 -10.9733 20.1764)
(-6.88726e-18 -9.83481 18.8495)
(-5.36038e-15 -9.20937 17.4085)
(-2.94431e-15 -8.49123 16.173)
(1.16108e-15 -7.85802 14.8122)
(-5.38247e-15 -6.76496 12.7308)
(-4.60963e-16 -4.54346 8.71516)
(2.31214e-14 -0.365062 1.22324)
(1.98887e-14 4.22194 -6.14193)
(2.94051e-14 2.54637 -6.33929)
(1.39005e-14 -13.8566 28.3173)
(7.43208e-15 -17.4617 25.8889)
(-4.77697e-15 -12.7701 25.1468)
(4.01999e-16 -14.2471 22.22)
(-3.96472e-15 -11.8497 21.2639)
(-6.45791e-15 -11.8012 19.1775)
(-2.15724e-15 -10.5921 17.7465)
(-3.84082e-15 -9.98137 16.0745)
(-7.0307e-15 -9.2177 14.6039)
(-1.51142e-15 -8.56648 13.1288)
(3.29528e-16 -7.78294 11.4106)
(-2.86589e-15 -6.42588 8.97303)
(5.44117e-15 -4.32614 5.26241)
(1.95959e-14 -1.56804 2.08649)
(3.29458e-14 1.14645 -3.55949)
(1.45422e-14 -13.3907 26.3662)
(1.0335e-14 -17.4964 26.5026)
(-5.48582e-15 -12.9881 24.6955)
(8.24898e-16 -13.9224 21.6286)
(-3.39479e-16 -11.7062 20.5856)
(-4.81056e-15 -11.523 18.4679)
(-8.84546e-17 -10.3018 16.9841)
(3.99567e-15 -9.55506 15.2581)
(1.60262e-15 -8.66639 13.6751)
(5.46507e-15 -7.83017 12.1242)
(1.25146e-14 -7.01558 10.5441)
(1.16386e-14 -5.97662 8.83438)
(1.24732e-14 -4.75254 6.61337)
(2.50681e-14 -2.78895 4.27731)
(4.14852e-14 -0.0125086 -2.01137)
(2.57331e-14 -12.5788 24.1699)
(1.56742e-14 -17.0332 26.509)
(-4.42004e-15 -13.1549 24.2051)
(5.45642e-15 -13.3435 21.0422)
(9.40466e-15 -11.5044 19.8208)
(4.66825e-15 -11.1348 17.8736)
(1.03582e-14 -10.0785 16.4331)
(1.79575e-14 -9.32096 14.8586)
(1.66704e-14 -8.48461 13.3896)
(1.76074e-14 -7.65047 11.9709)
(2.33363e-14 -6.85794 10.5701)
(2.22838e-14 -5.95953 9.21547)
(2.12868e-14 -5.10588 7.69006)
(2.99443e-14 -3.70255 5.97624)
(3.28433e-14 -1.17901 0.750689)
(4.04197e-14 -12.0637 22.818)
(2.85392e-14 -16.0307 25.5631)
(6.25805e-15 -13.0675 23.4001)
(1.41613e-14 -12.7463 20.328)
(1.78989e-14 -11.2664 18.9287)
(1.3604e-14 -10.7949 17.2384)
(2.09602e-14 -9.96986 15.9376)
(2.69243e-14 -9.30491 14.6307)
(1.95403e-14 -8.62027 13.4143)
(1.6487e-14 -7.91506 12.2644)
(1.85715e-14 -7.23051 11.1264)
(1.42081e-14 -6.44823 10.0282)
(1.45075e-14 -5.73682 8.83799)
(2.7228e-14 -4.63195 7.56679)
(2.6617e-14 -2.28998 3.02241)
(2.85217e-14 -12.0683 22.5571)
(4.89731e-14 -14.7083 23.8439)
(2.13308e-14 -12.4353 22.083)
(1.59197e-14 -12.0174 19.2863)
(7.89547e-15 -10.7761 17.9137)
(1.08518e-15 -10.346 16.4974)
(1.1618e-14 -9.71144 15.4231)
(1.23302e-14 -9.18804 14.4117)
(-7.73462e-15 -8.67164 13.4854)
(-1.39178e-14 -8.1318 12.6338)
(-1.20141e-14 -7.60556 11.7865)
(-2.02707e-14 -6.98015 10.956)
(-1.47773e-14 -6.3875 10.0155)
(5.13459e-15 -5.52035 9.07515)
(8.74325e-15 -3.39802 5.15441)
(-3.56503e-14 -12.296 22.7461)
(4.58601e-14 -13.8766 22.5807)
(1.9697e-14 -11.36 20.4915)
(-3.89475e-15 -11.1843 17.9801)
(-3.251e-14 -10.0562 16.9139)
(-4.30769e-14 -9.82291 15.7566)
(-2.49867e-14 -9.31419 14.9673)
(-3.10827e-14 -8.95528 14.2278)
(-6.4757e-14 -8.58852 13.569)
(-6.63544e-14 -8.20134 12.98)
(-6.32216e-14 -7.83589 12.3874)
(-7.74509e-14 -7.37565 11.8141)
(-6.16713e-14 -6.92671 11.1098)
(-3.79538e-14 -6.28782 10.4582)
(-2.7698e-14 -4.37194 7.0702)
(-1.18147e-13 -12.1514 22.2841)
(-1.31076e-14 -14.1534 22.9179)
(-8.96708e-15 -10.4015 19.2057)
(-4.23844e-14 -10.3506 16.6562)
(-9.357e-14 -9.23696 15.9714)
(-1.04273e-13 -9.28177 15.0351)
(-7.1275e-14 -8.85343 14.5619)
(-8.61656e-14 -8.66874 14.0485)
(-1.28596e-13 -8.41839 13.6143)
(-1.1504e-13 -8.1562 13.2307)
(-1.17437e-13 -7.92813 12.8312)
(-1.40404e-13 -7.60159 12.4694)
(-1.10478e-13 -7.30233 11.9639)
(-9.71331e-14 -6.8565 11.5684)
(-7.56897e-14 -5.11083 8.51773)
(-1.5061e-13 -11.4385 20.8402)
(-7.77653e-14 -14.9142 24.1192)
(-3.93999e-14 -10.4364 19.1751)
(-6.58045e-14 -9.69892 15.7529)
(-1.37285e-13 -8.54829 15.1135)
(-1.42662e-13 -8.76962 14.3835)
(-9.51984e-14 -8.44808 14.2113)
(-1.22142e-13 -8.41194 13.8952)
(-1.59899e-13 -8.25375 13.6418)
(-1.31257e-13 -8.08636 13.4119)
(-1.52767e-13 -7.96659 13.1519)
(-1.76373e-13 -7.73343 12.9496)
(-1.39646e-13 -7.57259 12.5985)
(-1.55376e-13 -7.25858 12.4063)
(-1.13813e-13 -5.65036 9.52552)
(-9.94974e-14 -10.4287 18.8641)
(-6.69883e-14 -15.1058 24.5911)
(-2.21024e-14 -11.3046 20.0814)
(-3.00509e-14 -9.54866 15.6566)
(-1.1315e-13 -8.21009 14.3866)
(-1.20053e-13 -8.34068 13.7805)
(-7.07585e-14 -8.18433 13.8121)
(-1.07764e-13 -8.22599 13.6852)
(-1.29546e-13 -8.14533 13.5652)
(-9.7044e-14 -8.03595 13.4444)
(-1.43072e-13 -7.98319 13.2856)
(-1.55624e-13 -7.80532 13.1905)
(-1.27393e-13 -7.74484 12.9612)
(-1.88957e-13 -7.48981 12.9026)
(-1.22578e-13 -6.02809 10.1524)
(6.73573e-15 -9.5695 17.2457)
(1.45127e-14 -14.5519 23.9558)
(4.50275e-14 -11.9874 20.6982)
(4.74801e-14 -9.90641 16.2198)
(-3.15604e-14 -8.37695 14.2584)
(-4.70233e-14 -8.24473 13.6325)
(-7.11838e-15 -8.19953 13.7527)
(-5.32852e-14 -8.25562 13.7884)
(-5.50383e-14 -8.23044 13.7723)
(-2.72589e-14 -8.15873 13.7455)
(-9.79787e-14 -8.14937 13.6716)
(-8.81214e-14 -8.02974 13.6644)
(-7.74191e-14 -8.04024 13.5471)
(-1.85153e-13 -7.85462 13.5522)
(-1.00477e-13 -6.47303 10.942)
(1.10032e-13 -9.05424 16.0472)
(1.00224e-13 -13.4731 22.2552)
(1.10713e-13 -11.7201 19.9089)
(1.07129e-13 -9.96843 16.1921)
(3.56854e-14 -8.58086 14.2634)
(2.94742e-14 -8.3452 13.6238)
(5.25748e-14 -8.29301 13.6857)
(6.10315e-15 -8.33141 13.7186)
(3.16292e-14 -8.28364 13.6928)
(4.1255e-14 -8.19738 13.6111)
(-3.20386e-14 -8.13752 13.5379)
(8.02782e-15 -7.98624 13.4501)
(-2.59449e-15 -7.9805 13.4075)
(-1.34806e-13 -7.70839 13.3136)
(-5.98778e-14 -6.67396 11.1907)
(1.0467e-13 -7.95631 14.0032)
(1.53891e-13 -13.8229 21.3875)
(1.3789e-13 -12.8401 19.9044)
(1.10317e-13 -11.199 16.5419)
(7.59683e-14 -9.8196 14.5774)
(5.6559e-14 -9.37377 14.0627)
(6.59259e-14 -9.21766 14.2298)
(4.06064e-14 -9.12624 14.4233)
(5.24398e-14 -9.00898 14.6103)
(5.70683e-14 -8.91552 14.7846)
(1.58938e-14 -8.84082 14.9243)
(6.29427e-14 -8.85371 15.182)
(1.56201e-14 -8.83802 15.2015)
(-1.05573e-13 -8.7593 15.0856)
(-3.20077e-14 -7.45701 12.9119)
(8.55984e-17 -0.243178 -0.00840999)
(3.74667e-15 -0.0415258 -0.359364)
(2.00607e-15 0.041198 -0.0808893)
(1.99448e-15 0.0296642 0.0673535)
(2.71978e-15 0.0126638 0.0749886)
(8.49541e-15 0.0434353 -0.121692)
(1.24521e-14 0.0445212 0.0724672)
(1.32845e-14 0.0283382 0.0957786)
(1.11782e-14 -0.00300378 0.0477373)
(8.49792e-15 0.0542046 -0.0671885)
(2.00512e-15 0.00755393 0.0787511)
(1.81446e-15 0.000932771 0.0636524)
(3.10183e-15 0.00599469 0.0889136)
(2.69606e-15 -0.0319748 0.121627)
(2.75883e-15 -0.038213 0.0766165)
(2.53498e-15 -0.0363466 0.03997)
(2.40764e-15 -0.0418492 0.0604382)
(8.39438e-16 -0.0906009 0.0972356)
(-4.08386e-16 -0.0778113 0.0838366)
(-3.46567e-15 -0.105293 0.132913)
(-4.00721e-15 -0.134109 0.147433)
(-4.72878e-15 -0.146265 0.149505)
(-4.55693e-15 -0.142129 0.148622)
(-5.23298e-15 -0.185499 0.215144)
(-3.07391e-15 -0.209169 0.182263)
(-2.49941e-15 -0.229106 0.153893)
(-1.7227e-15 -0.213797 0.136342)
(-3.85771e-16 -0.272954 0.225225)
(7.51243e-16 -0.30557 0.220543)
(1.51642e-15 -0.289987 0.208604)
(2.18261e-15 -0.364691 0.266844)
(1.12235e-15 -0.368477 0.206294)
(5.32411e-16 -0.400038 0.158236)
(-1.31448e-16 -0.368139 0.123295)
(-9.06587e-16 -0.465017 0.189097)
(-7.84399e-16 -0.473548 0.189683)
(-6.17355e-16 -0.447918 0.169886)
(1.50802e-16 -0.554482 0.271251)
(6.57414e-16 -0.533843 0.272443)
(1.10973e-15 -0.578957 0.251698)
(1.29166e-15 -0.541325 0.206448)
(1.72314e-15 -0.685129 0.262688)
(1.08259e-15 -0.638667 0.234164)
(1.06764e-15 -0.691534 0.183268)
(1.05586e-15 -0.632726 0.142733)
(1.22409e-15 -0.799423 0.240488)
(4.07366e-16 -0.778685 0.263567)
(-9.07562e-17 -0.742912 0.245799)
(-5.24128e-16 -0.913296 0.411409)
(-1.05779e-16 -0.85738 0.411011)
(7.54799e-16 -0.931081 0.37532)
(1.90777e-15 -0.870859 0.319259)
(4.16457e-15 -1.09414 0.448025)
(3.29221e-15 -0.997499 0.425015)
(3.06984e-15 -1.08821 0.381055)
(2.1059e-15 -1.00574 0.345399)
(6.88962e-16 -1.25766 0.531666)
(-5.67205e-16 -1.20385 0.501751)
(-1.25397e-15 -1.16362 0.442314)
(-1.62208e-15 -1.41269 0.620447)
(-1.21164e-15 -1.30755 0.58807)
(-1.58349e-15 -1.424 0.5234)
(-2.14053e-15 -1.32324 0.468436)
(-2.6175e-15 -1.66728 0.740292)
(-2.32586e-15 -1.5916 0.728842)
(-2.12763e-15 -1.55261 0.704173)
(1.37199e-15 -1.94332 1.10508)
(3.22331e-15 -1.8256 1.00916)
(7.11972e-15 -1.9888 0.97318)
(1.21627e-14 -1.88742 0.996788)
(2.83858e-14 -2.50442 1.90472)
(2.68288e-14 -2.33211 1.9405)
(3.23171e-14 -2.60597 2.2985)
(3.22628e-14 -2.54343 2.631)
(3.18258e-14 -3.46588 4.47918)
(8.63311e-15 -3.42789 3.92067)
(-7.33504e-15 -3.53845 4.42319)
(-3.69999e-14 -4.6241 7.09087)
(-3.87496e-14 -4.68388 6.24982)
(-4.62055e-14 -4.80435 7.64771)
(-5.36747e-14 -5.44287 10.7296)
(-4.91006e-14 -5.17272 10.9478)
(-4.60696e-14 -5.32053 11.4138)
(-3.90234e-14 -4.73413 11.3239)
(-3.73259e-14 -5.08567 11.7703)
(-4.05014e-14 -4.9912 12.0404)
(-4.08627e-14 -4.98809 12.049)
(-3.82848e-14 -4.92819 12.189)
(-3.51467e-14 -4.9138 12.5168)
(-3.27703e-14 -4.88779 12.9564)
(-2.88191e-14 -4.85897 13.364)
(-2.59311e-14 -4.89672 13.6017)
(-6.25069e-14 -4.12777 13.1928)
(-7.80048e-14 -4.71603 13.4864)
(-1.01499e-13 -4.60295 13.1963)
(-1.07687e-13 -4.64568 12.9913)
(-9.76662e-14 -4.58842 13.0467)
(-8.90074e-14 -4.5854 13.3921)
(-7.11613e-14 -4.5661 13.9036)
(-4.82582e-14 -4.53737 14.3946)
(-2.97148e-14 -4.59999 14.7295)
(-2.69448e-14 -3.94839 14.9974)
(-2.64076e-14 -4.54441 15.1948)
(-2.73935e-14 -4.45214 15.2012)
(-3.02293e-14 -4.50554 15.1085)
(-3.34932e-14 -4.48022 15.06)
(-3.61844e-14 -4.48886 15.0718)
(-3.66734e-14 -4.49235 15.2215)
(-4.01331e-14 -4.50476 15.4785)
(-4.66896e-14 -4.47354 15.7478)
(-5.326e-14 -4.56335 15.9476)
(-8.3678e-14 -4.05138 16.4177)
(-6.29391e-14 -4.6325 16.3071)
(-4.28716e-14 -4.58471 16.2431)
(-2.11619e-14 -4.63539 16.18)
(-5.62433e-15 -4.62895 16.183)
(1.93345e-15 -4.65699 16.2554)
(-1.69876e-16 -4.67546 16.3966)
(-7.54383e-15 -4.63649 16.5533)
(-1.2778e-14 -4.75541 16.6492)
(-4.97657e-14 -4.32014 17.0917)
(-5.69652e-14 -4.88766 16.6548)
(-7.86208e-14 -4.87828 16.4545)
(-9.39671e-14 -4.92474 16.4058)
(-1.10892e-13 -4.92586 16.4448)
(-1.2257e-13 -4.96593 16.5471)
(-1.21656e-13 -4.98997 16.6753)
(-1.0946e-13 -4.93204 16.7457)
(-9.33322e-14 -5.0891 16.7308)
(-9.50196e-14 -4.67459 17.2173)
(-6.92526e-14 -5.25823 16.6256)
(-4.66776e-14 -5.27958 16.4632)
(-3.80587e-14 -5.30971 16.4417)
(-4.17935e-14 -5.3264 16.4936)
(-5.51862e-14 -5.35998 16.5884)
(-6.73644e-14 -5.3761 16.6735)
(-8.05287e-14 -5.31575 16.7027)
(-9.41061e-14 -5.48219 16.6937)
(-1.69282e-13 -5.06354 17.1208)
(-1.49963e-13 -5.65555 16.5817)
(-1.60411e-13 -5.65651 16.4134)
(-1.70414e-13 -5.66939 16.359)
(-1.75754e-13 -5.68201 16.3782)
(-1.70729e-13 -5.62357 16.5726)
(-1.53046e-13 -5.71248 17.2485)
(-1.39748e-13 -5.61568 17.3225)
(-1.2313e-13 -5.55575 17.5779)
(-1.13815e-13 -5.71475 17.7144)
(-1.83987e-13 -4.48096 17.0348)
(-1.79493e-13 -5.50762 16.5032)
(-2.21355e-13 -5.41565 15.9142)
(-2.56262e-13 -5.40893 15.2858)
(-2.74835e-13 -5.31381 14.6754)
(-2.64997e-13 -5.27266 13.8458)
(-2.24456e-13 -5.19398 12.138)
(-1.59743e-13 -4.87324 9.62122)
(-8.92352e-14 -4.8203 7.40414)
(-9.58364e-15 -3.47747 0.16651)
(1.19205e-14 -3.99796 0.727822)
(3.43203e-14 -4.05367 -0.487291)
(-1.15884e-14 -2.48909 -1.47786)
(-9.18124e-15 -4.974 -0.149736)
(1.80501e-15 -4.05556 -1.20439)
(-2.63622e-15 -3.61269 -0.856698)
(-1.73305e-15 -4.71074 -0.818618)
(-1.14868e-15 -3.29376 -0.682116)
(-7.56327e-16 -4.17346 -0.543338)
(-3.23209e-17 -4.04781 -0.65144)
(1.37677e-16 -3.19467 -0.503224)
(7.49794e-16 -3.819 -0.508008)
(8.10205e-16 -3.55023 -0.793242)
(5.62149e-16 -2.88441 -0.663151)
(6.05336e-16 -3.76442 -0.641479)
(3.93147e-16 -2.50425 -0.465754)
(6.09158e-16 -3.19315 -0.458167)
(3.15654e-16 -2.68934 -0.622295)
(1.13849e-16 -2.2259 -0.568682)
(-1.17075e-16 -2.86944 -0.738563)
(-4.47872e-16 -1.82297 -0.615276)
(-7.76286e-16 -2.33129 -0.728582)
(-7.51315e-16 -1.93869 -0.796992)
(-3.50454e-16 -1.44636 -0.751088)
(-2.40736e-16 -1.679 -1.03555)
(-3.73472e-16 -1.35429 -0.95431)
(-5.70326e-16 -0.952483 -0.752922)
(-4.42155e-18 -1.34426 -0.866995)
(5.16272e-16 -0.540516 -0.647743)
(9.95501e-16 -0.851068 -1.07995)
(1.93812e-17 -0.588883 -1.32608)
(-1.94022e-16 -0.0211438 -0.967773)
(-2.39238e-16 -0.490017 -1.31797)
(-4.2677e-16 0.260071 -0.932168)
(-6.20589e-16 0.263221 -1.12548)
(-7.23182e-16 0.455591 -1.41335)
(-7.30947e-16 0.777467 -0.832831)
(-1.20681e-15 0.807949 -1.01379)
(-1.29467e-15 1.17501 -1.19384)
(-7.7321e-16 1.2115 -0.647955)
(-8.21126e-16 1.55642 -0.877644)
(-5.75333e-16 1.49989 -0.473454)
(-6.94588e-16 1.64485 -0.57631)
(-1.37185e-15 2.05319 -0.662788)
(-1.30567e-15 1.80568 -0.319119)
(-2.09225e-15 2.39058 -0.507688)
(-1.82396e-15 2.04828 -0.293769)
(-2.53234e-15 2.31446 -0.423628)
(-2.51886e-15 2.57603 -0.479571)
(-1.20541e-15 2.31058 -0.222849)
(-5.00545e-16 2.63754 -0.30176)
(4.32599e-16 3.00893 -0.295586)
(4.3895e-16 2.46036 -0.118255)
(-1.72552e-16 3.33395 -0.202834)
(-8.16364e-16 2.69539 -0.0762846)
(-1.6867e-15 2.98305 -0.099775)
(-2.6974e-15 3.36858 -0.0358981)
(-1.99134e-15 2.70256 0.0292872)
(-2.23984e-15 3.70219 -0.0887423)
(-1.12985e-15 2.94876 -0.054438)
(-5.36807e-16 3.34003 -0.136479)
(6.02209e-16 3.51556 -0.103845)
(7.543e-16 2.95431 -0.0268772)
(8.16445e-16 3.45975 -0.0668537)
(-2.12252e-16 3.69637 -0.000253155)
(-8.45364e-16 2.85871 -0.00136265)
(-2.02392e-15 4.00213 -0.121731)
(-1.84287e-15 3.19951 -0.0181354)
(-2.36811e-15 3.56611 -0.021821)
(-2.30951e-15 3.80544 0.0739288)
(-1.17104e-15 2.9094 0.0365666)
(-6.4027e-16 4.07249 -0.0702393)
(3.41392e-16 3.22885 -0.0182836)
(1.41873e-15 3.67808 -0.119191)
(2.7666e-15 3.82619 -0.106351)
(2.03053e-15 3.13697 -0.0519465)
(2.12325e-15 3.68431 -0.141222)
(1.3484e-15 3.98145 -0.0866409)
(2.91861e-16 3.01183 -0.0620713)
(-3.20561e-16 4.27611 -0.198059)
(-5.56255e-16 3.36106 -0.0597379)
(-2.64665e-16 3.98713 -0.149214)
(2.2438e-100 0.006975 0.00638136)
(1.5041e-99 0.0110796 0.0059873)
(8.94813e-99 0.0142969 0.00593304)
(4.08943e-98 0.0171819 0.00581904)
(2.38609e-98 0.0200734 0.00579645)
(-2.46512e-96 0.0228431 0.00577759)
(-3.77522e-95 0.0256132 0.00580681)
(-3.56054e-94 0.0283571 0.00585781)
(-2.01511e-93 0.0311211 0.00594355)
(2.27637e-93 0.0339071 0.00605595)
(2.19208e-91 0.0367384 0.0061985)
(2.91413e-90 0.0396247 0.0063687)
(1.96385e-89 0.0425822 0.00656738)
(-1.36381e-89 0.0456224 0.00679383)
(-2.0022e-87 0.048759 0.00704834)
(-2.27656e-86 0.0520041 0.00733087)
(-9.94215e-86 0.0553706 0.00764179)
(-4.09648e-86 0.058871 0.00798147)
(-9.97184e-84 0.0625179 0.0083505)
(-1.25467e-82 0.0663245 0.00874961)
(5.33245e-81 0.0703038 0.00917968)
(1.68911e-79 0.0744695 0.00964177)
(1.15231e-78 0.0788356 0.0101371)
(-3.2108e-77 0.0834166 0.010667)
(-7.43683e-76 0.0882276 0.0112331)
(-8.81067e-76 0.0932844 0.0118371)
(1.66762e-73 0.0986035 0.0124809)
(1.68319e-72 0.104202 0.0131667)
(-2.51652e-71 0.110099 0.0138968)
(-5.38749e-70 0.116313 0.0146737)
(3.31528e-69 0.122864 0.0155003)
(1.55232e-67 0.129774 0.0163795)
(-1.19404e-68 0.137066 0.0173147)
(-4.04045e-65 0.144765 0.0183095)
(-2.59499e-64 0.152895 0.0193678)
(7.37232e-63 0.161485 0.0204937)
(9.47097e-62 0.170565 0.0216918)
(-7.62608e-61 0.180165 0.0229672)
(-1.38957e-59 0.19032 0.024325)
(9.62702e-59 0.201065 0.025771)
(-5.2832e-58 0.212439 0.0273115)
(-6.89457e-56 0.224484 0.028953)
(4.01721e-55 0.237243 0.0307026)
(3.32374e-53 0.250764 0.0325679)
(8.67595e-53 0.265099 0.0345568)
(-9.52317e-51 0.2803 0.0366778)
(-8.8318e-50 0.296426 0.0389396)
(1.75183e-48 0.313539 0.0413512)
(3.07268e-47 0.331703 0.0439219)
(-1.80419e-46 0.350986 0.0466605)
(-6.9257e-45 0.371461 0.0495756)
(-4.66218e-45 0.3932 0.0526749)
(1.13513e-42 0.416278 0.0559643)
(6.14129e-42 0.440768 0.0594474)
(-1.38568e-40 0.46674 0.0631236)
(-1.42424e-39 0.494256 0.0669869)
(1.2174e-38 0.523364 0.0710231)
(2.15506e-37 0.55409 0.0752061)
(-6.42606e-37 0.586427 0.0794939)
(-2.47463e-35 0.620317 0.083822)
(-6.61056e-36 0.655635 0.0880955)
(2.29558e-33 0.69215 0.0921787)
(6.07767e-33 0.729499 0.0958809)
(-1.78545e-31 0.767119 0.0989444)
(-8.64419e-31 0.804219 0.101013)
(1.16478e-29 0.839592 0.101651)
(8.69578e-29 0.871801 0.100221)
(-5.86305e-28 0.898307 0.0961366)
(-6.88973e-27 0.917105 0.0882558)
(1.63221e-26 0.922543 0.0762603)
(4.15429e-25 0.913301 0.0580949)
(4.30496e-25 0.87675 0.0350416)
(-1.79603e-23 0.814738 0.00404577)
(-1.01809e-22 0.702042 -0.0294514)
(7.57086e-22 0.543859 -0.0703567)
(1.60919e-20 0.217535 -0.0922011)
(-2.93245e-19 -0.22594 -0.267601)
(2.35674e-17 -0.685646 0.140652)
(-2.16234e-16 -0.320789 -1.68312)
(1.20805e-99 0.00705473 0.00818284)
(7.82728e-99 0.0111639 0.00762959)
(4.49046e-98 0.0143301 0.00755401)
(1.9011e-97 0.0172067 0.00740397)
(-9.40408e-98 0.0200816 0.0073763)
(-1.44883e-95 0.0228415 0.00735409)
(-2.05526e-94 0.0255996 0.00739381)
(-1.8638e-93 0.0283337 0.00746085)
(-9.9329e-93 0.0310873 0.00757196)
(2.11247e-92 0.0338635 0.00771638)
(1.23315e-90 0.036685 0.00789878)
(1.57215e-89 0.0395619 0.00811575)
(1.01675e-88 0.0425099 0.00836849)
(-1.42272e-88 0.0455407 0.00865598)
(-1.16188e-86 0.0486679 0.00897863)
(-1.3038e-85 0.0519036 0.00933638)
(-5.41841e-85 0.0552605 0.00972964)
(1.53463e-84 0.0587511 0.0101589)
(-1.76417e-83 0.0623881 0.0106248)
(-4.90222e-82 0.0661844 0.0111283)
(2.27098e-80 0.0701532 0.0116705)
(7.84055e-79 0.074308 0.0122525)
(6.16404e-78 0.0786627 0.0128759)
(-1.42999e-76 0.0832319 0.0135423)
(-3.72674e-75 0.0880305 0.0142537)
(-1.02354e-74 0.0930744 0.015012)
(7.84435e-73 0.0983799 0.0158197)
(9.87465e-72 0.103964 0.0166792)
(-9.58991e-71 0.109846 0.0175934)
(-2.84926e-69 0.116043 0.0185652)
(6.76875e-69 0.122578 0.0195981)
(7.40158e-67 0.12947 0.0206957)
(2.12154e-66 0.136743 0.0218618)
(-1.82707e-64 0.144421 0.0231007)
(-1.73165e-63 0.15253 0.024417)
(3.2004e-62 0.161097 0.0258156)
(5.93596e-61 0.170152 0.0273019)
(-2.42374e-60 0.179726 0.0288817)
(-1.10201e-58 0.189852 0.0305611)
(-1.27123e-58 0.200567 0.0323468)
(8.4817e-57 0.211909 0.034246)
(-8.93476e-56 0.223919 0.0362662)
(1.536e-55 0.236642 0.0384155)
(8.28713e-53 0.250124 0.0407026)
(4.24993e-52 0.264417 0.0431363)
(-2.68077e-50 0.279573 0.0457261)
(-3.19249e-49 0.295652 0.0484817)
(4.79225e-48 0.312714 0.0514129)
(1.06369e-46 0.330825 0.0545294)
(-3.51407e-46 0.350053 0.0578406)
(-2.29316e-44 0.370469 0.0613549)
(-6.74089e-44 0.392148 0.0650793)
(3.48237e-42 0.415164 0.0690181)
(2.85688e-41 0.439592 0.0731721)
(-3.64693e-40 0.465504 0.0775366)
(-5.57438e-39 0.492963 0.0820987)
(2.0988e-38 0.522021 0.0868342)
(7.40752e-37 0.552709 0.0917034)
(6.92348e-37 0.585026 0.0966441)
(-7.19525e-35 0.618924 0.101565)
(-3.20853e-34 0.654287 0.106332)
(5.12641e-33 0.690904 0.110761)
(4.14128e-32 0.728429 0.114592)
(-2.56849e-31 0.766328 0.117483)
(-3.47353e-30 0.80384 0.118958)
(7.71255e-30 0.839803 0.118456)
(2.17375e-28 0.872808 0.11513)
(1.11123e-29 0.900391 0.108288)
(-1.0938e-26 0.920519 0.0963825)
(-1.93137e-26 0.927664 0.0792351)
(4.60624e-25 0.920282 0.0540713)
(1.68263e-24 0.885843 0.0228729)
(-1.64629e-23 0.82566 -0.0179073)
(-1.54354e-22 0.714536 -0.0614836)
(6.53002e-22 0.555366 -0.113165)
(1.94889e-20 0.247303 -0.136074)
(-3.41375e-19 -0.26454 -0.307782)
(2.83442e-17 -0.517081 0.240603)
(-1.0303e-16 -1.1165 -1.65965)
(5.85e-99 0.00710343 0.00917365)
(3.77647e-98 0.0112136 0.00855463)
(2.15951e-97 0.0143495 0.00846998)
(9.09531e-97 0.0172206 0.00830103)
(-5.11389e-97 0.0200856 0.00827207)
(-7.03966e-95 0.0228395 0.00824956)
(-9.9799e-94 0.0255903 0.00829661)
(-9.07913e-93 0.0283182 0.00837408)
(-4.882e-92 0.0310653 0.00850076)
(9.71717e-92 0.0338354 0.00866442)
(5.99036e-90 0.0366508 0.0088704)
(7.72503e-89 0.0395216 0.00911478)
(5.08378e-88 0.0424635 0.00939898)
(-6.14238e-88 0.0454884 0.00972182)
(-5.8048e-86 0.0486095 0.0100838)
(-6.75358e-85 0.0518391 0.0104848)
(-2.91769e-84 0.0551899 0.0109253)
(1.33615e-83 0.0586742 0.0114058)
(7.44731e-83 0.0623048 0.0119271)
(-1.65414e-81 0.0660946 0.0124901)
(7.69004e-80 0.0700566 0.0130961)
(3.15933e-78 0.0742044 0.0137464)
(3.0689e-77 0.0785519 0.0144427)
(-5.11846e-76 0.0831135 0.0151866)
(-1.62887e-74 0.0879043 0.0159804)
(-7.97525e-74 0.0929399 0.0168263)
(3.05668e-72 0.0982367 0.0177268)
(4.98376e-71 0.103812 0.0186846)
(-2.42211e-70 0.109684 0.0197029)
(-1.26525e-68 0.115871 0.0207849)
(-2.10486e-68 0.122395 0.0219343)
(2.85651e-66 0.129276 0.023155)
(1.90701e-65 0.136537 0.0244512)
(-6.42219e-64 0.144202 0.0258275)
(-8.89966e-63 0.152297 0.0272889)
(1.01266e-61 0.16085 0.0288407)
(2.79866e-60 0.169889 0.0304887)
(-2.08536e-60 0.179447 0.0322392)
(-5.51411e-58 0.189556 0.0340986)
(-3.09146e-57 0.200253 0.0360742)
(5.86848e-56 0.211575 0.0381736)
(5.34096e-55 0.223564 0.0404049)
(-1.93566e-54 0.236264 0.0427767)
(7.05026e-53 0.249723 0.0452981)
(8.5413e-52 0.26399 0.0479785)
(-4.73077e-50 0.27912 0.0508279)
(-7.26878e-49 0.29517 0.0538563)
(9.0228e-48 0.312202 0.0570738)
(2.52481e-46 0.330281 0.0604905)
(-3.44156e-46 0.349476 0.0641157)
(-5.36591e-44 0.369859 0.0679577)
(-2.6135e-43 0.391503 0.0720227)
(7.63177e-42 0.414484 0.0763141)
(8.3113e-41 0.438879 0.0808309)
(-6.71448e-40 0.464759 0.0855655)
(-1.45825e-38 0.49219 0.090501)
(1.32487e-38 0.521227 0.0956073)
(1.74858e-36 0.551904 0.100836)
(6.38711e-36 0.584224 0.106114)
(-1.45672e-34 0.618147 0.111332)
(-1.18436e-33 0.653565 0.116337)
(7.53336e-33 0.690278 0.120913)
(1.20002e-31 0.727955 0.124763)
(-8.99849e-32 0.766079 0.127493)
(-8.00943e-30 0.803912 0.128562)
(-2.1859e-29 0.84032 0.12734)
(3.48791e-28 0.873913 0.122857)
(2.10457e-27 0.902272 0.114371)
(-8.40672e-27 0.923343 0.100093)
(-1.01192e-25 0.931654 0.0799491)
(9.35688e-27 0.925537 0.0507461)
(2.88999e-24 0.892407 0.0148294)
(6.41308e-24 0.833306 -0.0315469)
(-9.50498e-23 0.722684 -0.0809317)
(-2.78699e-22 0.561894 -0.139237)
(1.02095e-20 0.251925 -0.157927)
(-3.32101e-19 -0.315477 -0.264497)
(-2.9907e-17 -0.49902 0.388829)
(8.40599e-17 0.568636 0.694533)
(2.80218e-98 0.0071807 0.01027)
(1.8066e-97 0.01129 0.00959811)
(1.0327e-96 0.014381 0.00950906)
(4.36014e-96 0.0172423 0.00932383)
(-2.221e-96 0.020092 0.00929568)
(-3.34916e-94 0.0228363 0.00927494)
(-4.78148e-93 0.0255762 0.00933175)
(-4.38641e-92 0.0282948 0.00942249)
(-2.40251e-91 0.0310322 0.00956806)
(4.06581e-91 0.0337933 0.00975481)
(2.85502e-89 0.0365995 0.00998875)
(3.75332e-88 0.0394615 0.0102655)
(2.53618e-87 0.0423946 0.0105867)
(-2.19696e-87 0.0454106 0.0109509)
(-2.83472e-85 0.0485229 0.0113589)
(-3.44901e-84 0.0517437 0.0118104)
(-1.59108e-83 0.0550855 0.012306)
(8.50741e-83 0.0585607 0.0128463)
(1.12064e-81 0.062182 0.0134322)
(-2.92974e-81 0.0659622 0.0140647)
(2.29037e-79 0.0699144 0.0147451)
(1.18753e-77 0.074052 0.015475)
(1.42675e-76 0.0783889 0.0162561)
(-1.62549e-75 0.0829395 0.0170905)
(-6.73646e-74 0.0877188 0.0179803)
(-4.8593e-73 0.0927424 0.0189282)
(1.08659e-71 0.0980266 0.0199369)
(2.33199e-70 0.103589 0.0210094)
(-1.92375e-70 0.109446 0.0221491)
(-5.16344e-68 0.115619 0.0233597)
(-3.00575e-67 0.122127 0.0246451)
(9.68319e-66 0.128991 0.0260095)
(1.14348e-64 0.136235 0.0274577)
(-1.87592e-63 0.143881 0.0289946)
(-3.95596e-62 0.151957 0.0306257)
(2.36472e-61 0.160489 0.0323567)
(1.13559e-59 0.169506 0.034194)
(2.67491e-59 0.17904 0.0361443)
(-2.21842e-57 0.189123 0.0382147)
(-2.08762e-56 0.199793 0.0404131)
(2.39359e-55 0.211087 0.0427475)
(4.64935e-54 0.223045 0.0452268)
(-1.80248e-54 0.235713 0.0478601)
(-4.14903e-52 0.249136 0.0506572)
(-1.66741e-51 0.263367 0.0536283)
(-3.86061e-50 0.278458 0.0567838)
(-8.39289e-49 0.294467 0.0601343)
(1.40476e-47 0.311455 0.0636905)
(4.48784e-46 0.329489 0.0674627)
(-1.62895e-46 0.348636 0.0714604)
(-1.03874e-43 0.368969 0.0756918)
(-6.64361e-43 0.390563 0.0801628)
(1.44214e-41 0.413494 0.0848756)
(1.93069e-40 0.437839 0.0898274)
(-1.05638e-39 0.463673 0.0950078)
(-3.19949e-38 0.491063 0.100395)
(-3.15446e-38 0.520067 0.105954)
(3.55515e-36 0.550725 0.111626)
(2.02932e-35 0.583047 0.117326)
(-2.57889e-34 0.617001 0.122927)
(-2.99539e-33 0.652491 0.128252)
(8.66573e-33 0.689334 0.133052)
(2.66793e-31 0.727218 0.136987)
(4.80915e-31 0.765655 0.139609)
(-1.52513e-29 0.803932 0.1403)
(-8.78035e-29 0.84096 0.138351)
(4.75104e-28 0.875376 0.132655)
(6.02226e-27 0.90482 0.122403)
(1.78751e-27 0.927221 0.105537)
(-2.29148e-25 0.937179 0.0820656)
(-9.12116e-25 0.932869 0.0483173)
(3.95156e-24 0.901635 0.00702811)
(4.64867e-23 0.84418 -0.0458734)
(6.73253e-23 0.734532 -0.102292)
(-1.7751e-21 0.572076 -0.168658)
(1.94732e-20 0.265963 -0.187241)
(2.3901e-18 -0.332732 -0.356296)
(-7.66648e-17 -0.555847 0.200285)
(-2.46928e-16 -1.34551 -0.636595)
(1.32659e-97 0.00725348 0.0112948)
(8.56047e-97 0.0113605 0.0105905)
(4.90504e-96 0.0144108 0.0105008)
(2.09199e-95 0.0172622 0.0103035)
(-6.98445e-96 0.0200972 0.010278)
(-1.55635e-93 0.0228318 0.0102609)
(-2.25596e-92 0.0255609 0.0103285)
(-2.09821e-91 0.0282701 0.0104333)
(-1.18162e-90 0.0309979 0.0105983)
(1.46666e-90 0.0337498 0.0108083)
(1.33104e-88 0.0365469 0.0110702)
(1.79937e-87 0.0393999 0.011379)
(1.25943e-86 0.0423241 0.0117367)
(-4.83036e-87 0.0453312 0.0121417)
(-1.34838e-84 0.0484346 0.0125947)
(-1.73124e-83 0.0516464 0.0130957)
(-8.70656e-83 0.054979 0.0136452)
(4.56679e-82 0.058445 0.0142439)
(8.74724e-81 0.0620569 0.0148927)
(1.73105e-80 0.0658274 0.0155928)
(5.63841e-79 0.0697696 0.0163456)
(4.05037e-77 0.0738969 0.0171529)
(6.1112e-76 0.0782231 0.0180165)
(-4.23232e-75 0.0827626 0.0189387)
(-2.6019e-73 0.0875303 0.0199218)
(-2.55019e-72 0.0925417 0.0209688)
(3.38475e-71 0.0978131 0.0220825)
(1.00642e-69 0.103362 0.0232663)
(2.8084e-69 0.109205 0.0245239)
(-1.89985e-67 0.115363 0.0258591)
(-2.01194e-66 0.121855 0.0272764)
(2.67185e-65 0.128703 0.0287802)
(5.55104e-64 0.135929 0.0303758)
(-3.77257e-63 0.143557 0.0320683)
(-1.51967e-61 0.151613 0.0338638)
(1.73675e-61 0.160123 0.0357685)
(3.93782e-59 0.169118 0.0377891)
(2.25114e-58 0.178628 0.039933)
(-7.33584e-57 0.188687 0.0422077)
(-1.00926e-55 0.19933 0.0446216)
(6.89771e-55 0.210595 0.0471835)
(2.27279e-53 0.222523 0.0499027)
(4.75485e-53 0.235158 0.052789)
(-2.87586e-51 0.248548 0.0558528)
(-2.46065e-50 0.262742 0.0591049)
(1.15229e-49 0.277794 0.0625562)
(2.47929e-48 0.293763 0.066218)
(2.29419e-47 0.310709 0.0701014)
(3.40706e-46 0.328698 0.074217)
(-1.94823e-45 0.347799 0.0785745)
(-1.49093e-43 0.368085 0.083182)
(-9.86399e-43 0.389631 0.0880449)
(2.30768e-41 0.412514 0.0931646)
(3.3818e-40 0.436813 0.0985365)
(-1.50763e-39 0.462603 0.104147)
(-5.71295e-38 0.489957 0.109972)
(-1.21727e-37 0.518935 0.115968)
(6.11765e-36 0.549581 0.12207)
(4.39726e-35 0.581914 0.12818)
(-3.96172e-34 0.615911 0.134154)
(-5.86144e-33 0.65149 0.139793)
(6.81029e-33 0.688481 0.144818)
(4.80431e-31 0.726598 0.148848)
(1.56367e-30 0.765376 0.151382)
(-2.44342e-29 0.804136 0.151731)
(-1.90895e-28 0.841829 0.149109)
(5.47302e-28 0.87712 0.14228)
(1.14049e-26 0.907712 0.130364)
(1.97691e-26 0.931515 0.111048)
(-3.79752e-25 0.943186 0.0844107)
(-2.15235e-24 0.940767 0.046302)
(4.50397e-24 0.911456 -0.000178949)
(9.44607e-23 0.8557 -0.0594611)
(3.00117e-22 0.746883 -0.123011)
(-3.45601e-21 0.582663 -0.197193)
(1.2712e-19 0.278615 -0.221702)
(-5.56445e-18 -0.375428 -0.382053)
(2.00543e-16 -0.601174 0.0926322)
(2.37309e-15 0.269357 0.86551)
(6.21225e-97 0.00733376 0.012292)
(4.01927e-96 0.0114364 0.0115684)
(2.31343e-95 0.0144438 0.011481)
(1.00301e-94 0.0172835 0.0112755)
(-5.62694e-96 0.0201021 0.0112546)
(-7.06299e-93 0.0228256 0.0112428)
(-1.04789e-91 0.0255425 0.0113226)
(-9.93125e-91 0.0282411 0.0114428)
(-5.79655e-90 0.030958 0.0116281)
(3.8808e-90 0.0336996 0.0118625)
(6.06261e-88 0.0364863 0.0121531)
(8.50446e-87 0.0393292 0.0124949)
(6.21212e-86 0.0422432 0.0128898)
(1.30323e-86 0.0452403 0.0133363)
(-6.23509e-84 0.0483336 0.0138352)
(-8.52183e-83 0.0515351 0.0143863)
(-4.72928e-82 0.0548575 0.0149904)
(2.1339e-81 0.058313 0.0156481)
(5.51183e-80 0.0619142 0.0163605)
(2.55635e-79 0.0656737 0.0171289)
(1.0699e-78 0.0696046 0.0179549)
(1.19915e-76 0.0737202 0.0188402)
(2.36867e-75 0.0780343 0.0197871)
(-7.05004e-75 0.0825612 0.0207978)
(-9.2717e-73 0.0873157 0.021875)
(-1.18738e-71 0.0923134 0.0230218)
(8.53081e-71 0.0975704 0.0242414)
(3.98314e-69 0.103104 0.0255374)
(2.48913e-68 0.108932 0.0269137)
(-6.13692e-67 0.115073 0.0283746)