/*--------------------------------*- C++ -*----------------------------------*\
| =========                 |                                                 |
| \\      /  F ield         | OpenFOAM: The Open Source CFD Toolbox           |
|  \\    /   O peration     | Version:  4.1                                   |
|   \\  /    A nd           | Web:      www.OpenFOAM.org                      |
|    \\/     M anipulation  |                                                 |
\*---------------------------------------------------------------------------*/
FoamFile
{
    version     2.0;
    format      ascii;
    class       volVectorField;
    location    "3";
    object      U;
}
// * * * * * * * * * * * * * * * * * * * * * * * * * * * * * * * * * * * * * //

dimensions      [0 1 -1 0 0 0 0];

internalField   nonuniform List<vector> 
6785
(
(1.21658e-14 -1.98894 16.415)
(1.12522e-14 -7.71471 12.8497)
(-2.94949e-15 -5.08497 13.562)
(3.67862e-15 -4.94135 13.1138)
(8.36063e-16 -4.21246 12.9496)
(-2.98724e-16 -3.79136 12.669)
(2.4953e-15 -3.4033 12.3817)
(5.62338e-16 -3.12241 12.0505)
(-2.35839e-16 -2.91633 11.6729)
(1.32381e-15 -2.78971 11.2434)
(1.52026e-16 -2.70695 10.8184)
(-1.70251e-16 -2.72669 10.4283)
(4.04964e-16 -3.1913 9.84453)
(-9.33116e-17 -3.15164 9.06443)
(1.44648e-16 0.132712 7.38731)
(1.71053e-14 -9.61226 26.5225)
(1.3876e-14 -16.3498 22.6702)
(-2.9682e-15 -11.1257 23.077)
(4.40517e-15 -11.9532 21.2386)
(4.85509e-16 -10.3498 20.3318)
(2.34662e-16 -9.73112 19.0864)
(1.59666e-15 -8.82197 17.9726)
(1.5578e-16 -8.10784 16.8756)
(-4.66919e-16 -7.47741 15.9298)
(-6.51652e-16 -7.03276 15.1079)
(-1.46755e-15 -6.67158 14.2291)
(-1.64707e-15 -6.17526 13.0163)
(-9.95543e-16 -5.36603 10.9565)
(-4.64207e-17 -3.69986 6.80975)
(1.67072e-16 -0.352821 0.123188)
(1.88914e-14 -12.2089 27.5697)
(1.10624e-14 -16.6586 24.5302)
(-1.52094e-15 -11.6962 24.4914)
(4.03662e-15 -12.6937 22.0295)
(1.4565e-16 -10.6074 20.9943)
(8.30773e-16 -10.0481 19.3222)
(9.79996e-16 -8.9205 18.0035)
(-3.00011e-16 -8.05313 16.5529)
(4.81461e-16 -6.95128 14.8516)
(1.7072e-15 -5.65767 12.5371)
(3.03635e-15 -4.45524 9.94599)
(4.07234e-15 -3.96392 8.07166)
(2.63796e-15 -4.01619 7.03659)
(1.23698e-15 -3.2069 4.72755)
(1.10677e-15 -2.19895 2.03322)
(1.94592e-14 -13.4726 28.04)
(8.61029e-15 -16.7362 25.2441)
(-1.01707e-15 -12.4548 25.0681)
(3.63122e-15 -13.5691 22.4358)
(-1.50978e-16 -11.255 21.5183)
(6.15963e-16 -10.9769 19.7096)
(6.33874e-16 -9.72995 18.5271)
(-4.74338e-16 -8.97044 17.0656)
(1.85615e-16 -7.60844 15.1059)
(4.18244e-15 -5.45793 11.5395)
(1.09238e-14 -2.43723 6.45396)
(1.62214e-14 -0.11597 2.15147)
(1.41067e-14 0.356623 0.763667)
(3.58451e-15 -0.376596 1.47628)
(-3.87189e-15 -1.46122 3.43947)
(1.98658e-14 -14.0386 28.3519)
(1.00147e-14 -17.5967 26.7622)
(-4.99213e-16 -13.2526 26.0241)
(4.42934e-15 -14.5854 23.3218)
(1.71921e-15 -12.0999 22.5193)
(1.45505e-15 -12.1749 20.5636)
(1.80841e-15 -10.8547 19.4583)
(2.02676e-15 -10.3552 17.9968)
(8.85249e-16 -9.26482 16.3745)
(3.85592e-15 -7.61342 13.5012)
(1.19506e-14 -4.69917 8.89205)
(1.91987e-14 -1.38484 3.58965)
(2.41179e-14 1.43456 -0.497484)
(1.24176e-14 2.91156 -2.93369)
(-2.60928e-15 1.78915 -3.06918)
(1.82627e-14 -13.659 26.6844)
(1.22332e-14 -18.0446 27.7508)
(-8.41698e-16 -13.7956 25.9618)
(4.07099e-15 -14.6866 23.1249)
(2.77066e-15 -12.5502 22.1395)
(3.74339e-16 -12.4844 20.1401)
(1.8546e-15 -11.3354 18.8238)
(2.65089e-15 -10.7903 17.2637)
(3.24442e-16 -9.99342 15.7589)
(1.34376e-15 -9.01748 13.8399)
(4.58794e-15 -7.47986 11.2011)
(6.38287e-15 -5.27925 7.82956)
(9.89116e-15 -2.72384 3.98644)
(5.25278e-15 0.851368 -0.213237)
(-1.90375e-15 1.7981 -5.25657)
(1.64932e-14 -12.7395 24.1539)
(1.39507e-14 -17.7511 27.8024)
(-6.18728e-16 -13.8007 25.3226)
(3.32219e-15 -14.0805 22.2649)
(3.11109e-15 -12.194 21.1203)
(-1.04851e-16 -11.9087 19.1184)
(1.33033e-15 -10.7871 17.667)
(2.70229e-15 -10.0975 16.0258)
(6.09542e-16 -9.29094 14.499)
(2.09309e-16 -8.46495 12.9071)
(1.24329e-15 -7.50388 11.103)
(1.83323e-15 -6.1394 8.9175)
(2.77671e-15 -4.42557 6.06376)
(2.63503e-15 -1.6913 2.35548)
(6.44332e-15 0.64496 -2.92202)
(1.54905e-14 -11.8864 22.2112)
(1.49203e-14 -17.3499 27.6883)
(6.45783e-17 -13.6377 24.893)
(2.92649e-15 -13.5244 21.6849)
(3.18937e-15 -11.6875 20.5221)
(-1.17105e-16 -11.3437 18.5249)
(9.72722e-16 -10.1345 17.0936)
(2.60435e-15 -9.409 15.4278)
(8.09151e-16 -8.51986 13.9354)
(-2.09442e-16 -7.7088 12.4599)
(7.18554e-16 -6.89049 10.961)
(1.42808e-15 -5.86965 9.28673)
(1.18341e-15 -4.58865 7.0739)
(1.34613e-15 -2.54951 3.88377)
(7.62176e-15 0.126681 -1.12702)
(1.37997e-14 -11.2643 20.9671)
(1.50117e-14 -17.1727 27.7542)
(3.95839e-16 -13.6372 24.8608)
(2.66833e-15 -13.2655 21.5283)
(3.15485e-15 -11.4143 20.3812)
(-3.82467e-16 -11.1075 18.3786)
(6.36306e-16 -9.78854 17.0132)
(2.64453e-15 -9.10755 15.3098)
(7.75354e-16 -8.12376 13.8555)
(-2.63745e-16 -7.32885 12.3865)
(1.34482e-15 -6.52015 10.9776)
(2.24151e-15 -5.62787 9.49089)
(1.36335e-15 -4.54637 7.57048)
(2.17859e-15 -2.77646 4.69867)
(5.7768e-15 0.362029 -0.811253)
(1.23328e-14 -10.7601 19.9524)
(1.4725e-14 -17.0576 27.8008)
(8.14527e-16 -13.8895 25.09)
(2.14168e-15 -13.2039 21.612)
(3.27653e-15 -11.4019 20.3525)
(1.91493e-16 -11.0739 18.403)
(8.32202e-16 -9.77167 17.0663)
(3.19749e-15 -9.1037 15.3656)
(2.2568e-15 -8.08656 13.9125)
(1.30625e-15 -7.27231 12.4028)
(3.10916e-15 -6.42516 10.9591)
(4.57499e-15 -5.53049 9.49034)
(3.3599e-15 -4.54742 7.65857)
(4.61597e-15 -2.83673 5.03871)
(4.24437e-15 0.181592 -0.864511)
(1.33561e-14 -10.3415 19.0102)
(1.59405e-14 -16.7432 27.5126)
(2.62798e-15 -14.2409 25.2881)
(1.9756e-15 -13.2381 21.7799)
(3.98619e-15 -11.561 20.223)
(2.38585e-15 -11.0939 18.375)
(2.45067e-15 -9.9742 17.0227)
(4.49397e-15 -9.2774 15.4306)
(4.76293e-15 -8.3518 14.0004)
(4.3858e-15 -7.52468 12.5301)
(5.3224e-15 -6.67981 11.0737)
(6.24081e-15 -5.74745 9.60964)
(5.58964e-15 -4.8068 7.8369)
(5.77205e-15 -3.2361 5.60608)
(3.31299e-15 -0.635244 0.119847)
(1.85374e-14 -9.97885 18.04)
(2.07096e-14 -16.0804 26.6545)
(5.85924e-15 -14.3156 24.9704)
(2.10298e-15 -13.1126 21.6116)
(4.24137e-15 -11.5742 19.765)
(4.05603e-15 -10.9574 18.0148)
(4.02943e-15 -10.0504 16.6729)
(5.25895e-15 -9.36657 15.2539)
(5.50932e-15 -8.5911 13.9314)
(4.94622e-15 -7.82613 12.6167)
(4.27763e-15 -7.05942 11.2879)
(3.47756e-15 -6.162 9.94532)
(3.60087e-15 -5.25808 8.30477)
(3.41804e-15 -3.8104 6.41159)
(1.88288e-15 -1.14291 0.906358)
(2.26995e-14 -9.73517 17.2733)
(2.89713e-14 -15.3662 25.6369)
(1.33419e-14 -14.227 24.43)
(5.86813e-15 -13.0982 21.4508)
(6.68617e-15 -11.7159 19.371)
(5.44138e-15 -10.9445 17.6132)
(2.36912e-15 -10.15 16.2652)
(3.13244e-15 -9.49449 15.0331)
(2.23398e-15 -8.8542 13.9159)
(8.15864e-17 -8.21084 12.8632)
(-1.8674e-15 -7.5801 11.8122)
(-4.73717e-15 -6.82743 10.744)
(-4.85131e-15 -6.04004 9.41429)
(-3.16845e-15 -4.82691 7.9032)
(-2.51818e-15 -2.29077 3.14674)
(1.64933e-14 -9.10032 15.5104)
(3.36739e-14 -14.6571 24.2712)
(1.42109e-14 -13.2099 22.5512)
(-6.347e-16 -11.8646 19.5882)
(-2.36511e-15 -10.7437 18.0563)
(-3.49072e-15 -10.2589 16.818)
(-4.92449e-15 -9.71729 15.8225)
(-3.43346e-15 -9.27204 14.8396)
(-4.87409e-15 -8.80847 13.9169)
(-8.91422e-15 -8.31743 13.0436)
(-1.24539e-14 -7.82574 12.185)
(-1.49193e-14 -7.21015 11.328)
(-1.44328e-14 -6.5461 10.2459)
(-1.06518e-14 -5.46623 8.95909)
(-5.73143e-15 -2.98335 4.57417)
(-5.48529e-15 -7.48696 13.0787)
(-1.50514e-16 -15.7304 24.5991)
(1.21189e-14 -16.8411 25.1595)
(1.39548e-14 -15.0956 21.8162)
(8.6513e-15 -13.0386 18.6504)
(-2.97436e-15 -11.7866 16.3617)
(-1.63345e-14 -10.9256 14.8478)
(-1.89059e-14 -10.3318 13.9199)
(-1.9562e-14 -9.91468 13.3648)
(-2.54651e-14 -9.56263 13.0512)
(-3.11532e-14 -9.2031 12.8217)
(-3.61531e-14 -8.80325 12.5732)
(-3.73809e-14 -8.25037 12.1971)
(-3.29775e-14 -7.63922 11.6219)
(-1.90657e-14 -4.834 7.93575)
(5.74603e-17 1.58493 7.97911)
(2.46932e-15 -0.945722 1.33262)
(2.57034e-15 -0.0706997 -1.39912)
(2.6048e-15 -0.00303725 -1.21175)
(2.37516e-15 0.0530691 -0.931028)
(1.9636e-15 0.238937 -1.15121)
(8.53847e-16 0.196627 -0.491818)
(5.06122e-16 0.248711 -0.308455)
(4.14918e-16 0.2401 -0.195321)
(-3.71472e-17 0.395992 -0.36712)
(1.79435e-16 0.366516 -0.157042)
(6.62825e-16 0.380319 -0.0944172)
(1.00604e-15 0.551919 -0.14288)
(1.27632e-15 0.450768 -0.0399781)
(1.43869e-15 0.504306 -0.0380649)
(1.21939e-15 0.470805 -0.0626388)
(5.542e-16 0.635678 -0.116895)
(-4.64336e-16 0.538196 -0.0495366)
(-1.17272e-15 0.552678 -0.0547933)
(-2.66877e-15 0.745423 -0.0669938)
(-2.57246e-15 0.577012 -0.0380349)
(-2.78594e-15 0.643543 -0.0657074)
(-2.81844e-15 0.601752 -0.0949003)
(-3.72713e-15 0.805395 -0.110442)
(-2.67408e-15 0.627311 -0.0445508)
(-2.42718e-15 0.697567 -0.0481191)
(-1.95398e-15 0.655399 -0.0661184)
(-1.8999e-15 0.835879 -0.0737925)
(-7.73287e-16 0.684505 -0.0338982)
(-2.36355e-16 0.702327 -0.0470044)
(4.57016e-16 0.913797 -0.0634709)
(7.60145e-16 0.701861 -0.0607433)
(9.33889e-16 0.777462 -0.100804)
(8.75151e-16 0.738189 -0.134309)
(1.08509e-15 0.92908 -0.180088)
(4.19344e-16 0.764446 -0.129036)
(8.69718e-17 0.79329 -0.137607)
(-9.43041e-17 1.01468 -0.192742)
(-2.40111e-16 0.788305 -0.165099)
(-1.80043e-16 0.878183 -0.200577)
(-1.13547e-17 0.836808 -0.211462)
(4.01817e-16 1.06438 -0.267714)
(5.37339e-16 0.846607 -0.18145)
(6.93334e-16 0.939036 -0.192264)
(7.40392e-16 0.900412 -0.197409)
(1.08595e-15 1.09743 -0.263151)
(7.52701e-16 0.918187 -0.206848)
(6.08477e-16 0.961182 -0.210647)
(7.77148e-16 1.17956 -0.284996)
(4.03133e-16 0.93974 -0.241448)
(3.29154e-16 1.04018 -0.268233)
(3.39171e-16 1.00229 -0.260499)
(7.20863e-16 1.21698 -0.266804)
(9.15799e-16 0.978893 -0.190217)
(1.26203e-15 1.07479 -0.196922)
(1.41621e-15 1.0377 -0.177242)
(1.98576e-15 1.18765 -0.113842)
(1.30097e-15 0.956828 -0.139491)
(8.51198e-16 1.00223 -0.141826)
(4.18149e-16 1.09877 -0.143627)
(5.54499e-17 0.794295 -0.275784)
(-2.79011e-16 0.86102 -0.324667)
(-5.94966e-16 0.870579 -0.248176)
(-9.28755e-16 0.819164 -0.402932)
(-1.62839e-16 0.530407 -0.628018)
(-6.19527e-16 0.540963 -0.513052)
(2.57037e-15 0.779086 -1.46439)
(3.86693e-15 0.0270264 -0.85503)
(2.8103e-15 0.146711 0.10399)
(1.82958e-15 0.145551 0.618613)
(-1.02242e-14 0.035054 2.5852)
(-1.34345e-14 -0.845678 4.19523)
(-1.18851e-14 -1.03575 4.20934)
(-1.01241e-14 -1.21029 4.45404)
(-1.03684e-14 -2.10467 7.54781)
(-5.70526e-15 -2.84105 7.08416)
(-4.16488e-15 -3.02843 7.47974)
(-5.70175e-15 -4.50562 11.2737)
(-5.71753e-15 -4.94361 9.3491)
(-8.42447e-15 -5.28131 10.2254)
(-1.35503e-14 -5.95687 12.6557)
(-1.47639e-14 -5.76575 12.4025)
(-1.63416e-14 -5.89265 12.7435)
(-1.68908e-14 -6.35088 14.1709)
(-1.83663e-14 -6.2254 13.6096)
(-2.0678e-14 -6.2862 14.1261)
(-2.05128e-14 -6.28973 14.0996)
(-2.0165e-14 -6.3008 14.0213)
(-1.94393e-14 -6.33119 13.9827)
(-1.84192e-14 -6.34933 14.001)
(-1.71352e-14 -6.3468 14.12)
(-1.5451e-14 -6.39717 14.3022)
(-5.27815e-15 -6.33246 15.2026)
(-9.82617e-15 -6.67189 14.9574)
(-1.01392e-14 -6.65003 15.0663)
(-1.21752e-14 -6.68244 15.0286)
(-1.41192e-14 -6.71859 15.0337)
(-1.59986e-14 -6.73193 14.9866)
(-1.76589e-14 -6.76007 14.9619)
(-1.8038e-14 -6.74512 14.9741)
(-1.7443e-14 -6.80288 15.0352)
(-1.025e-14 -6.80427 15.9037)
(-1.35889e-14 -7.09941 15.4932)
(-1.23576e-14 -7.09507 15.5703)
(-1.1226e-14 -7.1383 15.555)
(-9.90123e-15 -7.15493 15.5325)
(-8.04861e-15 -7.1807 15.509)
(-5.90761e-15 -7.21554 15.5054)
(-4.32189e-15 -7.23279 15.5101)
(-2.76693e-15 -7.21922 15.5463)
(-1.81138e-15 -7.30144 15.6169)
(3.06711e-16 -7.2749 16.3795)
(-5.69437e-15 -7.58165 15.7485)
(-8.83772e-15 -7.59833 15.7127)
(-1.16647e-14 -7.62946 15.6292)
(-1.41837e-14 -7.64981 15.5793)
(-1.62351e-14 -7.67269 15.5706)
(-1.73493e-14 -7.70008 15.6614)
(-1.73857e-14 -7.67937 15.7768)
(-1.61862e-14 -7.7746 15.8925)
(-1.32803e-14 -7.61757 16.3653)
(-1.14384e-14 -7.92992 15.6367)
(-6.88798e-15 -7.93818 15.6522)
(-3.6249e-15 -7.96112 15.6988)
(-1.11473e-15 -7.95125 15.7329)
(4.17392e-16 -7.97453 15.8573)
(1.06305e-15 -7.98966 16.0543)
(1.15107e-15 -7.95841 16.3262)
(2.24325e-15 -8.11323 16.749)
(-6.05798e-15 -7.39283 16.4603)
(-5.82094e-15 -7.8999 16.1023)
(-6.1339e-15 -7.85755 16.3219)
(-6.15707e-15 -7.83339 16.5946)
(-5.99801e-15 -7.84105 17.1469)
(-8.06007e-15 -7.81911 17.5447)
(-1.01157e-14 -7.79615 17.9648)
(-1.16758e-14 -7.80422 18.4597)
(-1.29271e-14 -7.92832 18.9091)
(-2.13779e-14 -6.4785 18.5954)
(-1.78374e-14 -7.13711 18.9421)
(-2.41617e-14 -6.95255 19.4284)
(-3.34689e-14 -6.97344 19.765)
(-4.62827e-14 -6.93629 20.0486)
(-5.96246e-14 -6.85372 20.216)
(-6.97633e-14 -6.93572 20.4784)
(-7.11321e-14 -6.72931 19.6398)
(-6.56985e-14 -6.68178 18.7325)
(-5.40854e-14 -6.57081 17.3956)
(-2.67199e-14 -3.56675 10.946)
(-1.0755e-14 -5.1621 11.6021)
(5.06284e-15 -4.79481 9.19545)
(7.99289e-15 -4.87937 7.84465)
(5.73709e-15 -4.58063 6.64395)
(9.10229e-16 -4.48752 5.77416)
(-3.76405e-15 -4.31075 4.48551)
(-6.52818e-15 -3.97662 3.28466)
(-7.05542e-15 -3.97061 3.3913)
(-4.7042e-15 -3.04366 0.455869)
(-5.94211e-15 -3.51129 1.89203)
(-1.22924e-15 -3.42369 1.03927)
(4.59573e-15 -2.22813 -1.56254)
(-8.16964e-16 -4.31569 -0.0462417)
(1.37864e-15 -3.61525 -0.435629)
(8.48093e-16 -3.33325 -0.295016)
(1.08877e-15 -4.44146 -0.397262)
(6.50459e-16 -3.12882 -0.247241)
(9.05294e-16 -4.15349 -0.261429)
(5.06746e-16 -4.03151 -0.246229)
(2.30407e-16 -3.30225 -0.203323)
(3.37624e-16 -4.08705 -0.281473)
(2.87702e-16 -3.89401 -0.320255)
(3.03958e-16 -3.33784 -0.267538)
(5.39045e-16 -4.46988 -0.359164)
(5.07283e-16 -3.08934 -0.258073)
(7.56562e-16 -4.05505 -0.345495)
(6.28809e-16 -3.63177 -0.364612)
(5.72968e-16 -3.15722 -0.286669)
(7.37479e-16 -4.18012 -0.371925)
(4.31807e-16 -2.8625 -0.253522)
(7.05926e-16 -3.77271 -0.348639)
(5.8675e-16 -3.4352 -0.396492)
(4.38702e-16 -2.80829 -0.335479)
(5.22971e-16 -3.41106 -0.501985)
(3.34843e-16 -3.10935 -0.488852)
(1.34734e-16 -2.62876 -0.38164)
(2.67544e-16 -3.46589 -0.530194)
(2.84868e-16 -2.33224 -0.390031)
(4.82624e-16 -3.03723 -0.576161)
(4.39367e-16 -2.60338 -0.553278)
(4.06085e-16 -2.22227 -0.436484)
(5.22068e-16 -2.90302 -0.589883)
(3.87074e-16 -1.91446 -0.435566)
(5.89823e-16 -2.50375 -0.639981)
(4.46396e-16 -2.17176 -0.59941)
(2.15738e-16 -1.72209 -0.455573)
(1.72103e-16 -2.07442 -0.609102)
(-1.61757e-17 -1.80505 -0.557676)
(-1.88228e-16 -1.46489 -0.47489)
(-3.4559e-16 -1.92836 -0.679059)
(-3.35427e-16 -1.18131 -0.529901)
(-2.62718e-16 -1.55591 -0.735697)
(1.78559e-16 -1.20925 -0.662948)
(4.28476e-16 -0.949456 -0.535362)
(2.79244e-16 -1.27656 -0.692475)
(6.76687e-17 -0.64319 -0.5714)
(4.2836e-16 -0.935173 -0.913457)
(4.77813e-16 -0.645852 -0.835232)
(1.11329e-18 -0.278301 -0.57841)
(-1.43406e-16 -0.484056 -0.921006)
(-3.0611e-16 -0.419429 -1.14197)
(-2.60593e-16 0.178695 -0.82566)
(-9.45801e-16 -0.198771 -1.1213)
(-9.04481e-16 0.307727 -0.802827)
(-7.23393e-16 0.327369 -0.961761)
(-4.0365e-16 0.479293 -1.17135)
(-1.80082e-16 0.67734 -0.715418)
(2.37137e-17 0.800247 -0.984587)
(6.20717e-17 0.896884 -0.635882)
(4.3089e-17 1.0217 -0.758716)
(-1.83236e-16 1.18431 -0.849784)
(-3.06321e-16 1.19435 -0.49837)
(-3.61738e-16 1.34303 -0.583817)
(-7.39211e-16 1.52658 -0.625644)
(-4.98853e-16 1.33666 -0.369492)
(-5.46506e-16 1.74934 -0.486288)
(-2.51287e-16 1.48047 -0.314381)
(-6.95014e-17 1.64402 -0.367506)
(2.07868e-16 1.83083 -0.34719)
(1.86483e-16 1.54216 -0.194563)
(6.82605e-17 2.07195 -0.260965)
(-1.69579e-16 1.7224 -0.146597)
(-4.60887e-16 1.94095 -0.188711)
(-9.57973e-16 2.15063 -0.184578)
(-8.05959e-16 1.93434 -0.0568288)
(-1.06265e-15 2.20168 -0.0971574)
(-1.14324e-15 2.53306 -0.143266)
(-6.83478e-16 2.09958 -0.0562869)
(-6.86989e-16 2.85657 -0.192299)
(-3.33389e-16 2.32365 -0.102239)
(-4.81252e-17 2.75458 -0.248256)
(1.26068e-84 0.018675 0.0182121)
(-2.01945e-85 0.0271404 0.017452)
(-4.31764e-83 0.0333278 0.0174662)
(-3.97505e-82 0.0390162 0.0173101)
(-1.99913e-81 0.0447071 0.017376)
(-1.62283e-81 0.0501516 0.0174457)
(7.44222e-80 0.0555924 0.0176312)
(7.25064e-79 0.0609707 0.0178683)
(2.35627e-78 0.0663766 0.0181918)
(-2.14699e-77 0.0718099 0.0185815)
(-3.46336e-76 0.0773146 0.0190484)
(-1.83302e-75 0.0829059 0.019586)
(6.24264e-75 0.0886124 0.020198)
(1.85162e-73 0.0944531 0.0208824)
(1.26535e-72 0.100451 0.0216406)
(-1.68571e-72 0.106626 0.0224726)
(-1.03456e-70 0.112998 0.0233796)
(-7.40241e-70 0.119588 0.0243623)
(1.30098e-69 0.126416 0.0254223)
(6.00663e-68 0.133501 0.0265612)
(3.3505e-67 0.140863 0.027781)
(-1.71555e-66 0.148523 0.0290839)
(-3.18136e-65 0.156501 0.0304725)
(-7.73466e-65 0.164818 0.0319499)
(1.43139e-63 0.173496 0.0335193)
(1.10228e-62 0.182556 0.0351842)
(-1.93601e-62 0.192021 0.0369487)
(-4.40901e-61 0.201914 0.0388172)
(-7.99152e-62 0.21226 0.0407942)
(-9.24364e-60 0.223082 0.0428849)
(-4.01196e-58 0.234406 0.0450946)
(-8.37183e-59 0.24626 0.0474293)
(6.71609e-56 0.258671 0.0498953)
(4.88367e-55 0.271668 0.0524991)
(-4.20802e-54 0.28528 0.0552478)
(-7.62943e-53 0.299539 0.0581491)
(-1.02894e-52 0.314477 0.0612109)
(5.72237e-51 0.330128 0.0644416)
(4.26575e-50 0.346528 0.0678499)
(-1.54116e-49 0.363712 0.0714452)
(-3.75539e-48 0.381719 0.0752369)
(-1.28778e-47 0.400587 0.0792348)
(1.3952e-46 0.420358 0.0834489)
(1.58382e-45 0.441072 0.0878889)
(3.20691e-45 0.462771 0.0925645)
(-5.98956e-44 0.485497 0.0974844)
(-6.38178e-43 0.509291 0.102656)
(-1.71142e-42 0.534193 0.108086)
(2.5465e-41 0.560237 0.113776)
(3.03498e-40 0.587452 0.119724)
(6.01528e-40 0.615858 0.125923)
(-1.34833e-38 0.64546 0.132357)
(-1.12438e-37 0.676243 0.138995)
(2.68412e-38 0.708162 0.145792)
(5.12431e-36 0.741135 0.152681)
(2.51761e-35 0.775025 0.159564)
(-6.06776e-35 0.809627 0.166302)
(-1.14662e-33 0.844645 0.172707)
(-4.11445e-33 0.879669 0.178526)
(1.06835e-32 0.914145 0.183424)
(1.83057e-31 0.947351 0.186959)
(8.45516e-31 0.978326 0.188579)
(-3.98391e-31 1.0059 0.187556)
(-3.04085e-29 1.02842 0.183041)
(-1.62369e-28 1.04407 0.173871)
(3.34868e-29 1.04988 0.158896)
(4.34907e-27 1.04292 0.136296)
(1.83743e-26 1.01732 0.105001)
(-1.05553e-26 0.968437 0.0623407)
(-3.69601e-25 0.883264 0.00922044)
(-1.44888e-24 0.754331 -0.0568115)
(1.22928e-24 0.546865 -0.125263)
(-3.6686e-23 0.220371 -0.21656)
(4.77103e-22 -0.381802 -0.229032)
(-9.95738e-22 -0.686695 -0.293641)
(6.3703e-21 -1.16912 -0.149937)
(-9.62255e-20 -1.28423 -0.403953)
(4.05816e-18 -2.22947 0.0672209)
(-3.37842e-17 -2.34624 -1.43347)
(6.53649e-84 0.0188301 0.0216534)
(4.54009e-84 0.0272822 0.0206097)
(-1.7083e-82 0.033364 0.0205957)
(-1.75297e-81 0.0390383 0.0203806)
(-9.55777e-81 0.0446906 0.0204483)
(-1.41866e-80 0.0501134 0.0205224)
(2.9413e-79 0.0555262 0.0207378)
(3.20099e-78 0.060881 0.0210144)
(1.20763e-77 0.0662616 0.0213933)
(-7.92575e-77 0.0716712 0.0218497)
(-1.47867e-75 0.0771515 0.0223963)
(-8.57585e-75 0.0827189 0.0230252)
(1.95292e-74 0.0884014 0.0237403)
(7.74898e-73 0.0942182 0.0245393)
(5.79326e-72 0.100192 0.0254238)
(-2.11324e-72 0.106343 0.0263935)
(-4.25253e-70 0.11269 0.0274498)
(-3.43175e-69 0.119255 0.0285936)
(1.83051e-69 0.126058 0.0298263)
(2.48169e-67 0.133116 0.03115)
(1.66443e-66 0.140452 0.0325667)
(-5.06625e-66 0.148084 0.034079)
(-1.39365e-64 0.156034 0.0356898)
(-5.14382e-64 0.164322 0.0374024)
(5.51372e-63 0.172969 0.0392204)
(5.80711e-62 0.181998 0.0411479)
(-6.08326e-63 0.19143 0.0431892)
(-2.60832e-60 0.201289 0.0453492)
(-8.97601e-60 0.211598 0.0476331)
(8.37681e-60 0.222383 0.0500465)
(-6.57854e-58 0.233668 0.0525954)
(-7.53603e-58 0.245481 0.0552862)
(1.81723e-55 0.257848 0.0581259)
(1.60249e-54 0.270799 0.0611217)
(-1.12274e-53 0.284363 0.0642814)
(-2.51804e-52 0.298572 0.0676133)
(-5.76785e-52 0.313457 0.0711259)
(1.854e-50 0.329052 0.0748284)
(1.61766e-49 0.345393 0.0787303)
(-4.17937e-49 0.362515 0.0828413)
(-1.3845e-47 0.380457 0.0871717)
(-5.416e-47 0.399258 0.0917316)
(5.31407e-46 0.418958 0.0965314)
(6.2606e-45 0.439597 0.101581)
(8.78461e-45 0.46122 0.10689)
(-2.69809e-43 0.483867 0.112466)
(-2.19165e-42 0.50758 0.118317)
(-1.53267e-42 0.532399 0.124446)
(1.00453e-40 0.55836 0.130853)
(8.23301e-40 0.585495 0.137531)
(6.22455e-40 0.613824 0.144468)
(-4.01833e-38 0.643358 0.151638)
(-3.00367e-37 0.674084 0.158999)
(1.43526e-37 0.705967 0.166491)
(1.49417e-35 0.73893 0.174023)
(7.61707e-35 0.77285 0.18147)
(-2.0227e-34 0.807535 0.188656)
(-3.86683e-33 0.842708 0.195347)
(-1.2112e-32 0.877985 0.201229)
(6.45495e-32 0.912839 0.205899)
(6.65677e-31 0.946586 0.208828)
(1.37991e-30 0.97831 0.209366)
(-1.05732e-29 1.00688 0.206659)
(-8.26595e-29 1.03074 0.199738)
(-1.45007e-28 1.04809 0.187247)
(1.08007e-27 1.05609 0.167898)
(7.6578e-27 1.05179 0.139568)
(1.38309e-26 1.02946 0.101109)
(-6.6952e-26 0.984154 0.0494115)
(-4.91326e-25 0.902834 -0.0142325)
(-1.26148e-24 0.776732 -0.092247)
(4.47357e-24 0.572411 -0.173186)
(-8.52437e-23 0.24241 -0.278989)
(4.84488e-22 -0.398337 -0.282913)
(-9.72748e-22 -0.72366 -0.330856)
(6.89072e-21 -1.18652 -0.169726)
(-1.09958e-19 -1.33744 -0.423402)
(4.26722e-18 -2.13466 0.0551973)
(-2.67378e-17 -2.35865 -1.44364)
(3.01105e-83 0.0189231 0.0235215)
(4.52864e-83 0.0273638 0.022365)
(-5.56639e-82 0.0333836 0.0223363)
(-6.73374e-81 0.0390477 0.0220904)
(-4.03433e-80 0.0446777 0.0221602)
(-8.76854e-80 0.0500875 0.0222382)
(9.81202e-79 0.0554841 0.0224715)
(1.24415e-77 0.0608253 0.0227714)
(5.48222e-77 0.0661913 0.0231825)
(-2.35177e-76 0.071587 0.0236773)
(-5.50873e-75 0.0770531 0.0242695)
(-3.55235e-74 0.0826067 0.0249503)
(3.84472e-74 0.0882752 0.0257238)
(2.79419e-72 0.094078 0.0265876)
(2.31574e-71 0.100038 0.0275431)
(1.4929e-71 0.106174 0.0285903)
(-1.48516e-69 0.112508 0.0297303)
(-1.36751e-68 0.119058 0.0309641)
(-9.15308e-69 0.125845 0.0322935)
(8.59935e-67 0.132889 0.0337203)
(6.93728e-66 0.140209 0.0352468)
(-8.58306e-66 0.147826 0.0368757)
(-5.0514e-64 0.155759 0.0386101)
(-2.56584e-63 0.16403 0.0404534)
(1.62329e-62 0.17266 0.0424095)
(2.41614e-61 0.18167 0.0444827)
(3.46545e-61 0.191083 0.0466775)
(-1.07332e-59 0.200922 0.0489991)
(-6.47618e-59 0.21121 0.051453)
(7.98691e-59 0.221973 0.0540449)
(9.71455e-58 0.233236 0.0567813)
(4.53964e-57 0.245024 0.0596688)
(3.50069e-55 0.257367 0.0627148)
(3.58061e-54 0.270292 0.0659268)
(-2.37566e-53 0.283829 0.0693131)
(-6.28129e-52 0.298008 0.072882)
(-1.9383e-51 0.312863 0.0766428)
(4.62607e-50 0.328427 0.0806047)
(4.62509e-49 0.344735 0.0847777)
(-7.96898e-49 0.361823 0.0891718)
(-3.87724e-47 0.379728 0.0937976)
(-1.74076e-46 0.398491 0.0986654)
(1.47613e-45 0.418152 0.103786)
(1.89709e-44 0.438751 0.109169)
(2.5253e-44 0.460331 0.114823)
(-8.68499e-43 0.482935 0.120758)
(-6.35509e-42 0.506604 0.126978)
(4.20246e-42 0.53138 0.133487)
(3.24608e-40 0.557299 0.140282)
(1.86809e-39 0.584393 0.147356)
(-2.76165e-39 0.612687 0.15469)
(-1.0497e-37 0.64219 0.162255)
(-5.64267e-37 0.672897 0.170002)
(1.19985e-36 0.704773 0.177861)
(3.25795e-35 0.73775 0.18573)
(1.39497e-34 0.77171 0.193465)
(-5.34863e-34 0.806471 0.200873)
(-8.06648e-33 0.841769 0.207691)
(-2.21308e-32 0.877233 0.213577)
(1.52674e-31 0.912354 0.218086)
(1.37715e-30 0.946468 0.220646)
(2.10574e-30 0.978685 0.220555)
(-2.53624e-29 1.0079 0.216897)
(-1.59416e-28 1.0326 0.20864)
(-1.42592e-28 1.05101 0.194331)
(2.50006e-27 1.06034 0.172605)
(1.28339e-26 1.05766 0.141175)
(1.18674e-26 1.03728 0.0988287)
(-1.39472e-25 0.994057 0.0421927)
(-7.30969e-25 0.914858 -0.0273376)
(-1.35476e-24 0.790145 -0.112126)
(8.20591e-24 0.586683 -0.201225)
(-1.31807e-22 0.251566 -0.310336)
(5.61995e-22 -0.380575 -0.346517)
(-9.03613e-22 -0.723299 -0.394173)
(7.46434e-21 -1.1665 -0.20628)
(-1.28005e-19 -1.3469 -0.446884)
(4.50996e-18 -2.01438 0.0404163)
(-1.59191e-17 -2.31776 -1.32633)
(1.34912e-82 0.0190716 0.0256305)
(2.94946e-82 0.027491 0.0243778)
(-1.62771e-81 0.0334212 0.0243408)
(-2.51344e-80 0.0390673 0.0240684)
(-1.66792e-79 0.0446636 0.0241442)
(-4.73613e-79 0.0500531 0.0242307)
(3.02564e-78 0.0554254 0.0244872)
(4.72172e-77 0.060746 0.0248167)
(2.41008e-76 0.0660903 0.0252672)
(-5.97275e-76 0.0714654 0.0258086)
(-2.00165e-74 0.0769108 0.0264557)
(-1.43985e-73 0.082444 0.0271985)
(5.72708e-76 0.088092 0.0280418)
(9.80164e-72 0.0938745 0.0289826)
(9.04729e-71 0.0998137 0.0300226)
(1.43183e-70 0.105929 0.0311616)
(-5.00393e-69 0.112242 0.0324008)
(-5.28891e-68 0.118771 0.0337414)
(-9.39557e-68 0.125537 0.0351851)
(2.84361e-66 0.132559 0.036734)
(2.76092e-65 0.139856 0.0383904)
(8.6871e-66 0.14745 0.0401572)
(-1.73032e-63 0.155359 0.0420378)
(-1.14963e-62 0.163605 0.0440358)
(3.92084e-62 0.172209 0.0461553)
(9.23421e-61 0.181192 0.0484008)
(2.7181e-60 0.190578 0.0507773)
(-3.74894e-59 0.200388 0.0532901)
(-3.31557e-58 0.210646 0.055945)
(6.03736e-59 0.221377 0.0587483)
(1.21079e-56 0.232607 0.0617067)
(6.05156e-56 0.244361 0.0648273)
(5.24703e-55 0.256668 0.0681177)
(5.1408e-54 0.269554 0.071586)
(-5.29368e-53 0.283051 0.0752408)
(-1.38341e-51 0.297189 0.079091)
(-5.03474e-51 0.312001 0.0831461)
(1.06485e-49 0.327519 0.0874161)
(1.19037e-48 0.343778 0.091911)
(-1.21153e-48 0.360815 0.0966416)
(-9.92086e-47 0.378668 0.101619)
(-5.09188e-46 0.397376 0.106853)
(3.64473e-45 0.416979 0.112355)
(5.27541e-44 0.437518 0.118134)
(8.36331e-44 0.459037 0.124202)
(-2.45231e-42 0.481578 0.130563)
(-1.80063e-41 0.505184 0.137225)
(2.10936e-41 0.529895 0.144189)
(9.64686e-40 0.555751 0.151451)
(4.51371e-39 0.582786 0.159)
(-1.58208e-38 0.611024 0.166815)
(-2.82101e-37 0.640482 0.174859)
(-1.01802e-36 0.671156 0.183078)
(5.33858e-36 0.703019 0.19139)
(7.18745e-35 0.73601 0.19968)
(2.10861e-34 0.770021 0.207788)
(-1.4889e-33 0.804886 0.215494)
(-1.5573e-32 0.840354 0.22251)
(-3.12713e-32 0.876075 0.228454)
(3.31974e-31 0.911567 0.232841)
(2.50838e-30 0.946193 0.235044)
(2.69628e-30 0.979102 0.234305)
(-5.00308e-29 1.00923 0.229632)
(-2.79012e-28 1.03511 0.219919)
(-1.45717e-28 1.05502 0.203602)
(4.65555e-27 1.06626 0.179222)
(2.13415e-26 1.06587 0.144299)
(1.32214e-26 1.0483 0.0975252)
(-2.4456e-25 1.00813 0.0352045)
(-1.16065e-24 0.932114 -0.0412043)
(-1.88809e-24 0.809819 -0.134119)
(1.25688e-23 0.607907 -0.23317)
(-1.92836e-22 0.271256 -0.350561)
(7.46113e-22 -0.36895 -0.404987)
(-9.35811e-22 -0.733046 -0.475049)
(9.49379e-21 -1.1619 -0.262414)
(-1.79988e-19 -1.36571 -0.481956)
(5.5528e-18 -1.93217 0.018621)
(-1.08623e-17 -2.30851 -1.29222)
(5.8758e-82 0.0192123 0.0276078)
(1.63665e-81 0.0276087 0.0262963)
(-3.78931e-81 0.0334573 0.0262554)
(-9.03362e-80 0.0390841 0.0259639)
(-6.72954e-79 0.044648 0.0260479)
(-2.35756e-78 0.0500171 0.0261455)
(8.10617e-78 0.055366 0.0264263)
(1.73873e-76 0.0606664 0.0267863)
(1.02673e-75 0.0659896 0.0272766)
(-9.94112e-76 0.0713449 0.0278646)
(-7.0482e-74 0.07677 0.028566)
(-5.69898e-73 0.0822834 0.0293702)
(-5.66793e-73 0.0879115 0.030282)
(3.32307e-71 0.0936741 0.0312984)
(3.44797e-70 0.0995934 0.0324211)
(8.52856e-70 0.105689 0.0336497)
(-1.61247e-68 0.111982 0.0349858)
(-1.98215e-67 0.11849 0.0364304)
(-5.59655e-67 0.125235 0.0379854)
(8.86849e-66 0.132235 0.0396529)
(1.04999e-64 0.139511 0.0414356)
(1.80049e-64 0.147082 0.0433365)
(-5.54428e-63 0.154968 0.045359)
(-4.73908e-62 0.16319 0.0475071)
(5.64054e-62 0.171769 0.049785)
(3.24884e-60 0.180727 0.0521976)
(1.4769e-59 0.190085 0.0547502)
(-1.10842e-58 0.199867 0.0574483)
(-1.42032e-57 0.210096 0.060298)
(-1.60794e-57 0.220797 0.0633061)
(5.93443e-56 0.231995 0.0664795)
(3.88946e-55 0.243716 0.0698257)
(5.43528e-55 0.255987 0.0733528)
(-4.3738e-54 0.268838 0.0770692)
(-1.5293e-52 0.282297 0.080984)
(-2.56824e-51 0.296395 0.0851064)
(-8.69922e-51 0.311164 0.0894464)
(2.29951e-49 0.326638 0.0940144)
(2.69107e-48 0.342851 0.0988209)
(-1.69925e-48 0.35984 0.103877)
(-2.30959e-46 0.377643 0.109193)
(-1.31887e-45 0.396299 0.114782)
(8.13899e-45 0.415847 0.120653)
(1.33038e-43 0.436331 0.126817)
(2.59983e-43 0.457792 0.133283)
(-6.15535e-42 0.480274 0.140058)
(-4.76083e-41 0.50382 0.147148)
(5.53381e-41 0.528473 0.154552)
(2.57705e-39 0.554271 0.162265)
(1.12029e-38 0.581252 0.170274)
(-5.14383e-38 0.609443 0.178555)
(-7.32981e-37 0.638863 0.187065)
(-1.89755e-36 0.669513 0.195742)
(1.73766e-35 0.701373 0.204497)
(1.61862e-34 0.734389 0.2132)
(2.61543e-34 0.768466 0.221674)
(-4.04144e-33 0.803447 0.22968)
(-2.96051e-32 0.839101 0.2369)
(-2.76764e-32 0.875096 0.242919)
(7.24645e-31 0.910975 0.247211)
(4.27683e-30 0.94613 0.249102)
(1.55845e-30 0.979743 0.247777)
(-9.44948e-29 1.01079 0.242178)
(-4.51642e-28 1.03785 0.231131)
(-4.14129e-29 1.05925 0.212967)
(8.09347e-27 1.07237 0.186136)
(3.37003e-26 1.07426 0.14798)
(1.34403e-26 1.05945 0.0970684)
(-4.0309e-25 1.02229 0.0293852)
(-1.80891e-24 0.949407 -0.0536475)
(-2.78108e-24 0.829532 -0.154612)
(1.74237e-23 0.628876 -0.264032)
(-2.73348e-22 0.290511 -0.390391)
(1.10505e-21 -0.357071 -0.464831)
(-1.09825e-21 -0.74781 -0.561759)
(1.24196e-20 -1.16849 -0.338343)
(-2.40566e-19 -1.3965 -0.531076)
(6.58242e-18 -1.86315 -0.018593)
(-9.46402e-18 -2.30627 -1.15581)
(2.48515e-81 0.0193676 0.0295441)
(8.27327e-81 0.0277356 0.028197)
(-3.42106e-81 0.0334986 0.0281566)
(-3.0923e-79 0.0391026 0.0278527)
(-2.64131e-78 0.0446306 0.0279479)
(-1.10494e-77 0.0499764 0.0280596)
(1.5522e-77 0.0552991 0.0283668)
(6.17295e-76 0.0605768 0.0287596)
(4.23803e-75 0.0658766 0.0292914)
(1.41742e-75 0.0712095 0.0299278)
(-2.39001e-73 0.0766122 0.0306852)
(-2.20002e-72 0.0821036 0.0315524)
(-4.26224e-72 0.0877095 0.0325345)
(1.08241e-70 0.0934501 0.033628)
(1.28126e-69 0.0993472 0.0348349)
(4.2701e-69 0.105421 0.0361549)
(-4.92403e-68 0.111691 0.0375893)
(-7.19946e-67 0.118176 0.0391395)
(-2.75872e-66 0.124898 0.0408074)
(2.57023e-65 0.131874 0.0425952)
(3.8209e-64 0.139126 0.0445058)
(1.15546e-63 0.146671 0.0465423)
(-1.63963e-62 0.154532 0.0487085)
(-1.81871e-61 0.162727 0.0510084)
(-1.19724e-61 0.171278 0.0534466)
(1.04877e-59 0.180208 0.0560283)
(6.7048e-59 0.189536 0.0587588)
(-2.59824e-58 0.199287 0.0616442)
(-5.33871e-57 0.209484 0.064691)
(-1.37481e-56 0.220151 0.067906)
(2.1561e-55 0.231314 0.0712967)
(1.87955e-54 0.242998 0.074871)
(1.01317e-54 0.255231 0.0786373)
(-6.87528e-53 0.268041 0.0826045)
(-5.91683e-52 0.281457 0.0867819)
(-3.72259e-51 0.295511 0.0911795)
(7.83139e-52 0.310234 0.0958075)
(4.97346e-49 0.325659 0.100677)
(5.15181e-48 0.341822 0.105798)
(-5.25974e-48 0.358758 0.111183)