/*--------------------------------*- C++ -*----------------------------------*\
| =========                 |                                                 |
| \\      /  F ield         | OpenFOAM: The Open Source CFD Toolbox           |
|  \\    /   O peration     | Version:  4.1                                   |
|   \\  /    A nd           | Web:      www.OpenFOAM.org                      |
|    \\/     M anipulation  |                                                 |
\*---------------------------------------------------------------------------*/
FoamFile
{
    version     2.0;
    format      ascii;
    class       surfaceScalarField;
    location    "27";
    object      phi;
}
// * * * * * * * * * * * * * * * * * * * * * * * * * * * * * * * * * * * * * //

dimensions      [0 3 -1 0 0 0 0];

internalField   nonuniform List<scalar> 
13220
(
-809.583
2109.48
-1264.94
1755.56
-1731.89
1766.85
-2076.83
1644.84
-2360.58
1583.95
-2566.08
1505.4
-2700.89
1434.71
-2763.5
1362.81
-2757.78
1294.18
-2683.58
1225.69
-2534.13
1150.76
-2277.26
1043.02
-1823.95
846.595
-1062.38
538.631
237.515
-213.552
2323.03
-465.154
2007.16
-741.221
2042.92
-954.196
1857.81
-1157.79
1787.54
-1314.33
1661.93
-1442.08
1562.47
-1531.74
1452.46
-1588.99
1351.42
-1613.13
1249.84
-1589.91
1127.54
-1475.49
928.598
-1193.84
564.941
-647.811
-7.39793
-410.296
-115.658
2438.69
-277.513
2169.01
-382.64
2148.04
-428.947
1904.12
-463.151
1821.75
-453.727
1652.51
-422.286
1531.03
-365.459
1395.63
-289.473
1275.44
-195.732
1156.09
-89.321
1021.13
7.31738
831.955
55.3587
516.88
79.4307
-31.4909
-330.865
73.434
2365.25
92.0991
2150.35
149.259
2090.88
230.5
1822.87
311.747
1740.5
418.589
1545.66
529.727
1419.89
650.484
1274.88
770.602
1155.32
888.738
1037.96
988.888
920.976
1024.58
796.26
904.975
636.49
442.632
430.854
111.767
55.8963
2309.36
92.6471
2113.59
145.664
2037.86
186.682
1781.86
226.317
1700.86
265.061
1506.92
309.333
1375.61
403.263
1180.94
560.675
997.905
753.797
844.835
904.877
769.897
934.987
766.147
782.782
788.693
452.744
760.889
564.51
-76.444
2385.8
-135.852
2173
-196.268
2098.28
-297.859
1883.45
-400.705
1803.71
-532.306
1638.52
-645.499
1488.81
-682.706
1218.15
-601.818
917.018
-415.563
658.582
-164.626
518.96
87.5429
513.984
236.654
639.587
198.678
798.871
763.188
-115.123
2500.92
-307.163
2365.04
-459.21
2250.33
-636.884
2061.12
-818.849
1985.67
-1023.39
1843.06
-1239.06
1704.48
-1455.24
1434.33
-1646
1107.78
-1762.09
774.671
-1730.46
487.325
-1473.45
256.973
-992.672
158.809
-426.125
232.319
337.063
105.47
2395.45
-80.155
2550.67
-169.494
2339.67
-230.897
2122.52
-272.252
2027.03
-307.975
1878.78
-355.223
1751.73
-458.151
1537.26
-628.133
1277.76
-840.346
986.886
-1043.98
690.958
-1161.27
374.265
-1068.13
65.6793
-687.919
-147.886
-350.856
314.147
2081.31
274.564
2590.25
287.865
2326.37
361.066
2049.32
472.213
1915.88
592.529
1758.47
718.325
1625.94
794.512
1461.07
794.166
1278.11
705.435
1075.62
538.809
857.584
293.838
619.233
22.3622
337.151
-100.668
-24.8588
-451.524
273.466
1807.84
327.332
2536.39
373.64
2280.06
458.394
1964.57
570.528
1803.75
683.454
1645.54
799.233
1510.16
895.886
1364.42
956.244
1217.75
965.297
1066.57
915.809
907.072
796.859
738.188
597.106
536.909
285.333
286.923
-166.19
141.745
1666.1
205.372
2472.76
248.224
2237.21
303.92
1908.87
377.119
1730.55
447.854
1574.81
512.516
1445.5
564.855
1312.08
598.571
1184.04
606.159
1058.98
582.748
930.485
521.486
799.45
409.999
648.397
231.761
465.162
65.5706
55.3382
1610.76
143.786
2384.31
205.155
2175.84
248.708
1865.32
297.192
1682.07
340.103
1531.9
376.462
1409.14
402.745
1285.8
423.092
1163.69
439.92
1042.15
446.887
923.518
427.238
819.102
350.668
724.97
192.422
623.416
257.993
19.5706
1591.19
107.558
2296.33
224.825
2058.57
355.83
1734.32
492.123
1545.78
623.429
1400.59
747.478
1285.09
859.514
1173.76
942.113
1081.09
979.394
1004.87
953.094
949.819
847.385
924.812
648.322
924.034
367.913
903.825
625.905
251.184
1340.01
340.451
2207.06
276.612
2122.41
166.734
1844.2
74.633
1637.88
13.3879
1461.84
1.89559
1296.59
45.9902
1129.67
143.667
983.418
281.87
866.668
422.724
808.965
474.561
872.975
368.565
1030.03
174.57
1097.82
800.476
732.165
1769.03
2372.9
2502.69
2441.38
2287.15
1979.88
1640.65
1273.65
930.637
604.613
371.895
218.983
136.084
-4.25263e-06
284.408
-284.408
284.408
284.408
284.408
850.884
-566.476
850.884
850.884
850.884
1334.92
-484.04
1334.92
1334.92
1711.68
-376.754
1711.68
1711.68
1711.68
1988.86
-277.185
1988.86
1988.86
2165.37
-176.509
2165.37
2165.37
2165.37
2228.03
-62.66
2228.03
2228.03
2228.03
2184.03
44.0036
2184.03
2184.03
2058.09
125.943
2058.09
2058.09
2058.09
1884.81
173.273
1884.81
1884.81
1692.5
192.31
1692.5
1692.5
1692.5
1535.91
156.589
1535.91
1535.91
1535.91
1402.74
133.17
1402.74
1402.74
1177.67
225.069
1177.67
1177.67
1177.67
836.064
341.611
836.064
836.064
836.064
389.897
446.167
389.897
389.897
-67.9513
457.848
-67.9513
-67.9513
-67.9513
-784.418
716.467
-784.418
-784.418
-2072.61
1288.19
-2072.61
-2072.61
-2072.61
-3838.99
1766.38
-3838.99
-3838.99
-3838.99
-5961.13
2122.14
-5961.13
-5961.13
-8229.75
2268.62
-8229.74
-8229.74
-8059.54
-7888.07
-7711.8
-9883.04
2352.08
-9706.59
-9503.61
-9284.93
-9065.11
-8842.53
-8616
-8392.26
-8176.05
-10430
2470.32
-10207.2
-9980.62
-9750.9
-9546.49
-9340.79
-9131.72
-8922.33
-8712.94
-11039.7
2524.16
-10827
-10612.1
-10394.9
-10177
-9953.76
-9721.38
-9488.9
-9257.63
-9029.46
-11178.3
2361.82
-10926.6
-10674.2
-10420.6
-10167.1
-9913.92
-9643.35
-9363.82
-9085.07
-10919.3
2098.47
-10641.4
-10353.4
-10049.4
-9746.36
-9444.31
-9145.65
-8849.81
-8535.07
-9832.35
1595.44
-9529.1
-9228.56
-8928.68
-8614.89
-8294.98
-7975.72
-7655.04
-7334.96
-8233.16
1217.47
-7901.65
-7574.27
-7251.79
-6937.22
-6632.6
-6320.02
-6020.95
-5735.6
-5464.97
-4832.82
-361.224
-4585.61
-4356.17
-4133.6
-3918.9
-3709.73
-3536.78
-3428.37
-3318.35
-2412.38
-779.991
-2301.71
-2197.37
-2197.37
-1655.7
-541.671
-1164.54
-491.152
-1164.54
-760.026
-404.517
-760.026
-438.37
-321.656
-198.818
-239.553
-198.818
28.6174
-227.435
220.023
-191.406
220.023
375.914
-155.891
375.914
510.481
-134.567
632.682
-122.201
632.682
736.744
-104.062
736.744
829.847
-93.1033
911.412
-81.5646
911.412
992.533
-81.1215
1062.19
-69.658
1062.19
1129.79
-67.601
1129.79
1197.26
-67.4678
1249.75
-52.4881
1249.75
1298.29
-48.5395
1298.29
1347.23
-48.9372
1380.79
-33.5663
1380.79
1422.96
-42.1736
1449.08
-26.115
1449.08
1477.74
-28.6564
1477.74
1508.24
-30.5074
1518.17
-9.92828
1518.17
1525.62
-7.44528
1525.62
1532.72
-7.10181
1518.76
13.9591
1518.76
1513.72
5.04473
1490.41
23.3051
1490.41
1477.06
13.3486
1477.06
1472.16
4.90151
1465.44
6.72381
1465.44
1475.32
-9.88889
1475.32
1502.82
-27.4936
1530.67
-27.8486
1530.67
1584.81
-54.1394
1607.15
-22.3406
1607.15
1676.7
-69.5549
1676.7
1726.79
-50.0836
1777.87
-51.0843
1777.87
1847.69
-69.8165
1847.69
1904.57
-56.8818
1962.16
-57.5885
1962.16
2024.81
-62.6534
2076.7
-51.891
2076.7
2139
-62.3015
2139
-50.1568
-698.362
-850.482
-787.114
-928.657
-843.928
-889.033
-887.434
-941.015
-914.265
-985.934
-928.959
-1053.44
-934.491
-1125.39
-933.64
-1203
-927.989
-1281.95
-918.335
-1360.79
-904.888
-1437
-887.665
-1507.56
-866.892
-1567.9
-843.558
-1611.39
-820.054
-1628.94
-800.54
-1610.17
-790.294
-1547.3
-793.597
-1441.26
-811.476
-1305.64
-840.81
-1165.05
-870.382
-1038.23
-870.618
-876.101
-814.421
-512.072
-744.786
91.3288
-710.048
536.327
-687.255
768.896
-666.043
964.029
-645.479
1178.35
-625.623
1407.7
-606.343
1643.08
-587.451
1877.43
-568.783
2105.54
-550.355
2322.1
-532.179
2524.71
-514.181
2711.39
-496.305
2880.56
-478.514
3031.55
-460.759
3164.44
-442.911
3279.7
-424.796
3377.3
-406.307
3456.46
-387.404
3516.36
-368.114
3556.33
-348.509
3576.37
-328.673
3577.66
-308.654
3562.74
-288.389
3534.82
-267.75
3495.98
-246.551
3446.33
-224.61
3382.84
-201.931
3301.27
-178.606
3202.29
-154.651
3089.6
-129.883
2961.16
-104.396
2804.11
-78.5117
2616.46
-52.5118
2404.56
-26.7915
2158.32
-2.14778
1847.6
20.06
1435.6
38.5134
903.221
53.9842
415.257
68.7392
52.6408
92.1761
-110.4
120.474
-193.911
144.429
-212.483
160.1
-187.77
167.222
-146.334
166.44
-117.726
156.071
-129.366
135.77
-211.799
112.394
-345.854
84.5343
-542.246
85.8885
-638.674
73.6185
-701.606
56.3992
-1893.41
-16.6045
-2833.01
-9.41166
-236.982
1576.76
-813.591
-792.716
-886.273
-855.974
-919.891
-855.414
-942.038
-918.869
-950.82
-977.152
-952.499
-1051.76
-949.189
-1128.7
-942.495
-1209.69
-932.727
-1291.72
-919.75
-1373.77
-903.187
-1453.56
-882.855
-1527.89
-859.229
-1591.52
-834.177
-1636.44
-811.737
-1651.38
-798.189
-1623.72
-800.139
-1545.35
-820.516
-1420.89
-855.811
-1270.34
-897.97
-1122.89
-934.328
-1001.87
-934.345
-876.085
-857.206
-589.211
-745.58
-20.2969
-693.303
484.05
-675.091
750.684
-657.402
946.34
-638.241
1159.18
-619.695
1389.15
-601.662
1625.04
-583.835
1859.61
-566.051
2087.75
-548.328
2304.38
-530.72
2507.11
-513.17
2693.84
-495.642
2863.04
-478.119
3014.03
-460.562
3146.88
-442.854
3261.99
-424.834
3359.28
-406.406
3438.03
-387.539
3497.49
-368.266
3537.05
-348.664
3556.77
-328.821
3557.82
-308.786
3542.7
-288.5
3514.54
-267.837
3475.32
-246.607
3425.1
-224.627
3360.86
-201.903
3278.54
-178.533
3178.92
-154.519
3065.59
-129.637
2936.28
-103.936
2778.41
-77.6737
2590.2
-50.9923
2377.88
-24.0917
2131.42
2.30731
1821.2
26.7253
1411.18
47.5034
882.443
67.8917
394.868
89.7238
30.8087
124.695
-145.371
159.187
-228.403
184.448
-237.744
198.316
-201.638
202.073
-150.091
197.751
-113.403
184.415
-116.03
160.029
-187.413
131.067
-316.892
96.2883
-507.468
87.8301
-630.215
75.2556
-689.032
42.9069
-1861.06
-55.5732
-2734.53
-31.7826
-260.773
1482.67
-860.315
-744.915
-914.473
-801.817
-935.742
-834.145
-949.908
-904.702
-954.193
-972.868
-953.767
-1052.18
-949.4
-1133.07
-941.913
-1217.18
-931.164
-1302.47
-916.864
-1388.07
-898.664
-1471.76
-876.611
-1549.94
-851.732
-1616.4
-826.949
-1661.22
-807.845
-1670.49
-802.058
-1629.5
-815.804
-1531.6
-848.683
-1388.01
-892.29
-1226.74
-935.826
-1079.35
-969.545
-968.155
-970.95
-874.68
-895.966
-664.195
-759.796
-156.467
-678.267
402.521
-656.751
729.168
-644.183
933.771
-628.059
1143.06
-611.302
1372.39
-594.871
1608.61
-578.549
1843.28
-562.079
2071.28
-545.433
2287.73
-528.686
2490.36
-511.82
2676.98
-494.832
2846.05
-477.727
2996.92
-460.483
3129.64
-442.997
3244.5
-425.128
3341.41
-406.799
3419.7
-387.99
3478.68
-368.747
3517.81
-349.153
3537.18
-329.302
3537.97
-309.247
3522.65
-288.929
3494.22
-268.226
3454.61
-246.942
3403.82
-224.898
3338.81
-202.104
3255.75
-178.659
3155.48
-154.538
3041.47
-129.472
2911.21
-103.447
2752.39
-76.6225
2563.37
-48.945
2350.21
-20.3659
2102.84
8.46468
1792.37
35.923
1383.73
60.1296
858.237
86.7807
368.217
114.612
2.97788
153.192
-183.951
187.906
-263.117
211.512
-261.35
222.56
-212.687
222.963
-150.493
215.403
-105.843
199.822
-100.449
173.805
-161.395
142.575
-285.662
105.593
-470.487
89.9078
-614.53
74.2745
-673.399
26.6508
-1813.44
-82.9672
-2624.92
-56.2979
-287.442
1374.49
-907.86
-707.116
-945.284
-764.392
-955.971
-823.459
-962.744
-897.929
-962.149
-973.463
-958.519
-1055.81
-951.765
-1139.82
-942.222
-1226.73
-929.424
-1315.26
-912.943
-1404.55
-892.457
-1492.25
-868.316
-1574.08
-842.33
-1642.39
-818.869
-1684.68
-805.414
-1683.94
-810.679
-1624.24
-839.078
-1503.2
-885.124
-1341.96
-935.213
-1176.65
-977.224
-1037.34
-1005.62
-939.759
-1007.07
-873.232
-939.063
-732.201
-786.953
-308.577
-670.978
286.546
-636.739
694.929
-626.825
923.857
-614.927
1131.16
-600.9
1358.37
-586.405
1594.12
-571.865
1828.74
-557.061
2056.48
-541.84
2272.51
-526.244
2474.76
-510.294
2661.03
-494.031
2829.78
-477.489
2980.38
-460.669
3112.82
-443.486
3227.32
-425.825
3323.75
-407.632
3401.51
-388.906
3459.95
-369.704
3498.61
-350.122
3517.6
-330.261
3518.1
-310.174
3502.56
-289.811
3473.85
-269.046
3433.85
-247.684
3382.46
-225.548
3316.68
-202.655
3232.85
-179.098
3131.92
-154.823
3017.19
-129.508
2885.9
-103.065
2725.94
-75.525
2535.83
-46.6045
2321.28
-15.9638
2072.2
15.8416
1760.57
47.0651
1352.5
75.6218
829.68
109.672
334.167
144.307
-31.6572
185.497
-225.141
220.102
-297.723
242.293
-283.541
250.893
-221.287
248.238
-147.838
237.633
-95.2392
219.697
-82.5129
191.683
-133.381
157.564
-251.543
117.482
-430.405
93.7548
-590.803
73.5141
-653.158
6.46776
-1746.39
-118.258
-2500.19
-75.9636
-329.737
1235.87
-940.263
-680.317
-962.552
-742.103
-966.002
-820.009
-967.969
-895.962
-964.577
-976.855
-959.102
-1061.29
-950.772
-1148.15
-939.57
-1237.93
-924.857
-1329.98
-906.202
-1423.2
-883.472
-1514.98
-857.576
-1599.98
-831.496
-1668.47
-811.516
-1704.66
-807.079
-1688.38
-826.847
-1604.47
-871.103
-1458.95
-927.727
-1285.34
-979.085
-1125.29
-1014.24
-1002.18
-1032.93
-921.067
-1031.58
-874.587
-975.353
-788.427
-823.307
-460.622
-674.732
137.971
-618.514
638.711
-606.628
911.971
-598.482
1123.02
-588.089
1347.97
-576.174
1582.2
-563.726
1816.3
-550.88
2043.63
-537.421
2259.05
-523.304
2460.65
-508.541
2646.26
-493.218
2814.46
-477.412
2964.57
-461.147
3096.55
-444.366
3210.54
-426.986
3306.37
-408.978
3383.5
-390.365
3441.34
-371.222
3479.47
-351.657
3498.03
-331.781
3498.23
-311.654
3482.43
-291.227
3453.43
-270.38
3413
-248.913
3360.99
-226.657
3294.42
-203.63
3209.83
-179.922
3108.21
-155.441
2992.71
-129.807
2860.26
-102.844
2698.98
-74.4334
2507.42
-44.0214
2290.87
-10.9375
2039.12
24.4061
1725.22
60.1407
1316.77
94.0438
795.777
135.51
292.701
177.461
-73.6077
219.826
-267.506
253.337
-331.234
273.591
-303.795
279.537
-227.233
273.728
-142.029
259.992
-81.5024
239.621
-62.1424
209.851
-103.61
173.321
-215.013
130.678
-387.762
98.908
-559.033
72.0222
-626.272
-16.3975
-1657.97
-155.538
-2361.05
-106.392
-378.884
1071.89
-962.185
-663.072
-973.067
-731.221
-972.166
-820.91
-970.913
-897.215
-965.519
-982.249
-958.323
-1068.48
-948.203
-1158.27
-934.982
-1251.15
-917.979
-1346.98
-896.861
-1444.32
-871.846
-1539.99
-844.689
-1627.14
-820.011
-1693.15
-806.401
-1718.27
-814.826
-1679.95
-851.851
-1567.44
-911.038
-1399.76
-973.468
-1222.91
-1020.39
-1078.37
-1044.75
-977.819
-1051.25
-914.569
-1043.85
-881.988
-998.934
-833.344
-863.502
-596.055
-691.905
-33.6259
-605.224
552.031
-585.539
892.286
-579.24
1116.72
-572.565
1341.3
-563.933
1573.57
-554.057
1806.42
-543.441
2033.02
-532.02
2247.63
-519.692
2448.32
-506.411
2632.98
-492.272
2800.32
-477.394
2949.69
-461.836
3080.99
-445.573
3194.28
-428.559
3289.36
-410.798
3365.74
-392.34
3422.88
-373.281
3460.41
-353.745
3478.5
-333.857
3478.34
-313.683
3462.26
-293.181
3432.93
-272.231
3392.05
-250.637
3339.4
-228.233
3272.01
-205.043
3186.64
-181.148
3084.32
-156.415
2967.98
-130.401
2834.25
-102.832
2671.41
-73.4221
2478.01
-41.3162
2258.77
-5.48076
2003.28
33.8648
1685.88
74.7105
1275.92
114.891
755.596
163.041
244.551
211.472
-122.04
255.182
-311.216
287.539
-363.59
305.722
-321.979
309.052
-230.563
300.213
-133.19
283.456
-64.7457
260.623
-39.3091
229.104
-72.0921
190.264
-176.173
145.107
-342.605
105.921
-519.847
70.5568
-590.908
-39.8914
-1547.53
-190.501
-2210.44
-131.995
-437.389
883.011
-975.459
-653.584
-978.305
-728.375
-974.879
-824.337
-971.247
-900.846
-964.178
-989.319
-955.211
-1077.45
-943.107
-1170.37
-927.614
-1266.64
-908.09
-1366.51
-884.414
-1468
-857.373
-1567.03
-829.98
-1654.53
-809.036
-1714.09
-805.59
-1721.72
-830.837
-1654.71
-886.261
-1512.02
-956.719
-1329.3
-1018.42
-1161.2
-1055.47
-1041.32
-1066.54
-966.743
-1059.91
-921.205
-1043.84
-898.055
-1005.88
-871.301
-895.247
-706.69
-716.736
-212.137
-598.671
433.966
-565.424
859.039
-558.207
1109.5
-554.407
1337.5
-549.377
1568.54
-542.652
1799.69
-534.642
2025.01
-525.509
2238.5
-515.242
2438.05
-503.739
2621.48
-491.055
2787.64
-477.323
2935.96
-462.645
3066.32
-447.035
3178.67
-430.491
3272.81
-413.053
3348.3
-394.802
3404.63
-375.861
3441.47
-356.375
3459.01
-336.482
3458.45
-316.259
3442.04
-295.671
3412.34
-274.603
3370.98
-252.859
3317.65
-230.282
3249.44
-206.901
3163.26
-182.787
3060.2
-157.762
2942.96
-131.316
2807.8
-103.07
2643.17
-72.5574
2447.5
-38.5957
2224.8
0.234285
1964.45
43.9577
1642.15
90.4066
1229.47
137.787
708.216
192.192
190.146
245.889
-175.736
291.082
-356.409
322.462
-394.969
338.504
-338.022
339.163
-231.222
327.327
-121.353
307.619
-45.0384
282.331
-14.0205
249.143
-38.9043
208.244
-135.274
160.717
-295.078
114.951
-474.082
69.7308
-545.687
-61.8702
-1415.92
-221.642
-2050.67
-148.384
-510.647
664.81
-982.392
-649.766
-980.121
-730.645
-975.147
-829.311
-969.492
-906.501
-960.718
-998.093
-949.726
-1088.44
-935.321
-1184.78
-917.242
-1284.72
-894.978
-1388.77
-868.769
-1494.21
-840.287
-1595.52
-814.335
-1680.48
-800.4
-1728.03
-811.562
-1710.56
-856.737
-1609.53
-928.965
-1439.79
-1004.27
-1253.99
-1058.14
-1107.34
-1081.26
-1018.21
-1078.32
-969.678
-1059.27
-940.264
-1033.56
-923.76
-997.159
-907.702
-908.772
-795.077
-738.963
-381.946
-598.146
293.149
-547.926
808.819
-536.624
1098.2
-534.12
1335
-532.419
1566.84
-529.25
1796.53
-524.309
2020.07
-517.772
2231.96
-509.81
2430.09
-500.357
2612.03
-489.412
2776.69
-477.076
2923.63
-463.476
3052.72
-448.676
3163.87
-432.723
3256.86
-415.7
3331.28
-397.723
3386.65
-378.945
3422.69
-359.536
3439.6
-339.652
3438.56
-319.381
3421.76
-298.7
3391.66
-277.499
3349.78
-255.587
3295.74
-232.813
3226.66
-209.217
3139.66
-184.852
3035.84
-159.499
2917.6
-132.577
2780.88
-103.597
2614.19
-71.896
2415.8
-35.9463
2188.86
6.07932
1922.42
54.5073
1593.73
107.006
1176.97
162.587
652.634
222.948
129.785
280.576
-233.363
327.06
-402.893
357.748
-425.657
371.772
-352.047
369.766
-229.215
354.978
-106.565
332.413
-22.4733
304.713
13.6792
269.922
-4.11263
227.22
-92.5718
177.478
-245.336
126.078
-422.681
70.4786
-490.088
-79.89
-1265.56
-245.72
-1884.84
-178.577
-577.79
435.149
-984.934
-649.919
-979.479
-736.1
-973.179
-835.611
-965.474
-914.206
-954.74
-1008.83
-941.389
-1101.79
-924.366
-1201.8
-903.448
-1305.64
-878.355
-1413.86
-849.909
-1522.65
-821.107
-1624.32
-799.163
-1702.42
-796.503
-1730.69
-826.76
-1680.3
-892.878
-1543.41
-976.923
-1355.75
-1048.86
-1182.06
-1088.76
-1067.44
-1095.97
-1010.99
-1079.81
-985.835
-1050.09
-969.991
-1015.46
-958.388
-977
-946.162
-905.169
-866.908
-754.287
-532.828
-600.911
139.773
-533.853
741.761
-515.827
1080.17
-512.546
1331.72
-513.282
1567.57
-513.704
1796.95
-512.228
2018.59
-508.668
2228.4
-503.279
2424.7
-496.118
2604.87
-487.18
2767.75
-476.507
2912.95
-464.213
3040.42
-450.403
3150.06
-435.184
3241.64
-418.685
3314.78
-401.064
3369.03
-382.507
3404.13
-363.212
3420.3
-343.358
3418.71
-323.047
3401.45
-302.269
3370.88
-280.923
3328.43
-258.824
3273.64
-235.833
3203.67
-211.996
3115.82
-187.356
3011.2
-161.644
2891.89
-134.209
2753.45
-104.449
2584.42
-71.4934
2382.84
-33.4535
2150.82
11.9377
1877.03
65.3612
1540.3
124.319
1118.02
189.234
587.72
255.343
63.6753
315.569
-293.589
362.886
-450.21
393.132
-455.903
405.375
-364.289
400.745
-224.585
383.034
-88.8539
357.437
3.12359
327.051
44.0652
290.887
32.0512
246.964
-48.6487
195.389
-193.762
139.255
-366.547
73.5672
-424.4
-92.5525
-1099.44
-256.524
-1720.87
-187.638
-646.676
197.428
-984.283
-652.833
-976.702
-743.681
-968.872
-843.44
-958.91
-924.168
-945.879
-1021.86
-929.836
-1117.84
-909.916
-1221.72
-885.992
-1329.56
-858.168
-1441.69
-828.169
-1552.65
-800.894
-1651.59
-786.58
-1716.74
-800.182
-1717.08
-852.946
-1627.53
-937.649
-1458.71
-1025.36
-1268.03
-1085.59
-1121.84
-1107.66
-1045.37
-1099.16
-1019.49
-1071.65
-1013.35
-1033.54
-1008.1
-991.85
-1000.08
-950.117
-987.895
-889.321
-927.704
-762.169
-659.979
-604.878
-17.5186
-522.277
659.16
-496.665
1054.56
-490.786
1325.84
-492.488
1569.28
-496.062
1800.52
-498.23
2020.76
-498.018
2228.19
-495.528
2422.21
-490.901
2600.24
-484.209
2761.06
-475.461
2904.21
-464.722
3029.68
-452.111
3137.45
-437.79
3227.32
-421.944
3298.93
-404.777
3351.86
-386.512
3385.87
-367.38
3401.17
-347.585
3398.92
-327.247
3381.12
-306.374
3350.01
-284.874
3306.93
-262.573
3251.34
-239.346
3180.45
-215.248
3091.73
-190.307
2986.26
-164.21
2865.79
-136.235
2725.47
-105.661
2553.85
-71.4042
2348.59
-31.197
2110.61
17.7083
1828.13
76.3914
1481.62
142.202
1052.21
217.782
512.14
289.578
-8.12145
351.154
-355.165
398.551
-497.606
428.415
-485.768
439.145
-375.019
431.991
-217.431
411.302
-68.1647
382.384
32.0415
348.514
77.9355
310.853
69.7114
266.673
-4.46833
214.12
-141.208
154.354
-306.781
79.6216
-349.668
-99.2968
-920.518
-259.897
-1560.27
-179.603
-726.97
-51.7297
-981.076
-657.859
-971.692
-753.065
-961.917
-853.215
-949.407
-936.679
-933.725
-1037.54
-914.703
-1136.86
-891.693
-1244.73
-864.756
-1356.5
-834.595
-1471.85
-804.294
-1582.95
-781.35
-1674.54
-779.368
-1718.72
-814.209
-1682.24
-890.308
-1551.44
-987.192
-1361.83
-1068.66
-1186.56
-1110.66
-1079.83
-1113.92
-1042.12
-1091.67
-1041.73
-1055.29
-1049.72
-1011.26
-1052.14
-964.828
-1046.5
-920.328
-1032.4
-866.519
-981.513
-761.273
-765.225
-606.42
-172.372
-510.899
563.639
-479.006
1022.67
-469.867
1316.7
-470.823
1570.23
-476.591
1806.29
-482.263
2026.43
-485.655
2231.58
-486.407
2422.96
-484.596
2598.43
-480.376
2756.84
-473.788
2897.62
-464.858
3020.75
-453.679
3126.27
-440.446
3214.09
-425.403
3283.89
-408.805
3335.27
-390.92
3367.98
-372.013
3382.26
-352.316
3379.22
-331.973
3360.77
-311.011
3329.04
-289.353
3285.28
-266.836
3228.82
-243.357
3156.97
-218.978
3067.35
-193.718
2961
-167.214
2839.29
-138.677
2696.93
-107.268
2522.44
-71.6807
2313
-29.2476
2068.18
23.3097
1775.57
87.5035
1417.42
160.587
979.123
246.87
425.857
325.125
-86.3761
387.376
-417.416
434.161
-544.392
463.504
-515.11
472.927
-384.442
463.403
-207.907
439.531
-44.2928
407.019
64.5532
369.117
115.838
329.014
109.815
285.016
39.5294
232.712
-88.9045
170.783
-244.852
89.124
-268.009
-99.6028
-731.791
-257.973
-1401.9
-191.881
-793.061
-265.952
-975.416
-664.777
-964.093
-764.388
-951.928
-865.38
-936.577
-952.029
-917.949
-1056.17
-895.753
-1159.05
-869.599
-1270.89
-839.87
-1386.23
-808.193
-1503.52
-779.616
-1611.53
-764.936
-1689.22
-780.756
-1702.9
-840.48
-1622.52
-936.71
-1455.21
-1035.84
-1262.7
-1101.63
-1120.77
-1122.14
-1059.32
-1108.25
-1056.01
-1075.31
-1074.67
-1032.81
-1092.22
-985.255
-1099.7
-936.386
-1095.37
-890.33
-1078.45
-841.024
-1030.82
-752.477
-853.772
-603.133
-321.716
-497.723
458.228
-461.592
986.539
-450.119
1305.22
-449.178
1569.29
-455.796
1812.91
-464.431
2035.06
-471.478
2238.63
-475.76
2427.24
-477.077
2599.74
-475.575
2755.34
-471.362
2893.41
-464.474
3013.86
-454.972
3116.76
-443.044
3202.16
-428.978
3269.82
-413.086
3319.37
-395.684
3350.58
-377.077
3363.66
-357.53
3359.67
-337.213
3340.46
-316.176
3308.01
-294.359
3263.46
-271.619
3206.08
-247.872
3133.22
-223.198
3042.67
-197.6
2935.4
-170.672
2812.36
-141.56
2667.82
-109.306
2490.19
-72.3723
2276.07
-27.6679
2023.47
28.6803
1719.22
98.6386
1347.47
179.615
898.146
274.482
330.99
359.436
-171.331
423.462
-481.442
469.777
-590.706
498.407
-543.741
506.585
-392.62
494.88
-196.203
467.703
-17.116
431.225
101.032
389.091
157.972
345.474
153.432
301.028
83.9756
249.719
-37.5959
187.191
-182.325
102.514
-183.331
-92.6959
-536.581
-247.281
-1247.31
-154.029
-886.313
-474.119
-967.118
-673.659
-953.48
-778.026
-938.541
-880.319
-920.109
-970.462
-898.338
-1077.94
-872.911
-1184.48
-843.753
-1300.04
-811.779
-1418.2
-779.996
-1535.31
-756.162
-1635.36
-754.824
-1690.56
-793.831
-1663.89
-879
-1537.35
-987.472
-1346.73
-1077.3
-1172.87
-1120.78
-1077.29
-1120.15
-1059.95
-1092.64
-1083.52
-1052.48
-1114.83
-1006.55
-1138.15
-957.666
-1148.58
-908.304
-1144.73
-861.874
-1124.88
-815.579
-1077.11
-739.831
-929.52
-597.525
-464.021
-481.939
342.642
-442.691
947.291
-430.924
1293.46
-428.221
1566.59
-434.405
1819.09
-445.036
2045.7
-455.492
2249.09
-463.463
2435.22
-468.202
2604.48
-469.696
2756.83
-468.077
2891.79
-463.444
3009.23
-455.851
3109.17
-445.462
3191.77
-432.572
3256.93
-417.544
3304.34
-400.748
3333.78
-382.533
3345.44
-363.201
3340.34
-342.951
3320.21
-321.861
3286.92
-299.893
3241.49
-276.925
3183.12
-252.901
3109.2
-227.916
3017.69
-201.966
2909.45
-174.602
2785
-144.909
2638.13
-111.808
2457.09
-73.525
2237.78
-26.5108
1976.46
33.7817
1658.93
109.788
1271.46
199.701
808.233
301.35
229.341
391.391
-261.371
458.496
-548.547
505.234
-637.445
533.158
-571.664
540.021
-399.483
526.268
-182.449
495.86
13.2918
455.027
141.864
408.398
204.602
360.918
200.911
315.072
129.822
264.165
13.3106
201.592
-119.751
120.324
-102.064
-72.3761
-343.88
-240.656
-1079.03
-172.332
-954.638
-674.3
-955.843
-684.715
-939.459
-794.41
-921.487
-898.29
-899.829
-992.12
-874.868
-1102.9
-846.334
-1213.01
-814.571
-1331.81
-781.335
-1451.44
-751.638
-1565
-736.739
-1650.26
-754.608
-1672.69
-820.587
-1597.91
-927.07
-1430.87
-1036.08
-1237.73
-1106.28
-1102.67
-1125.06
-1058.51
-1106.64
-1078.37
-1069.85
-1120.31
-1025.82
-1158.85
-978.839
-1185.13
-930.384
-1197.04
-881.896
-1193.22
-835.827
-1170.95
-791.296
-1121.65
-725.283
-995.533
-591.956
-597.348
-464.255
214.941
-421.212
904.247
-411.05
1283.29
-408.01
1563.55
-413.16
1824.24
-424.597
2057.13
-437.838
2262.33
-449.453
2446.83
-457.835
2612.87
-462.611
2761.61
-463.835
2893.01
-461.658
3007.05
-456.187
3103.7
-447.568
3183.15
-436.076
3245.44
-422.095
3290.36
-406.048
3317.74
-388.335
3327.73
-369.298
3321.3
-349.169
3300.08
-328.057
3265.8
-305.951
3219.38
-282.757
3159.92
-258.45
3084.89
-233.145
2992.38
-206.83
2883.13
-179.021
2757.19
-148.744
2607.85
-114.805
2423.15
-75.179
2198.16
-25.8164
1927.09
38.6013
1594.51
121.01
1189.05
221.426
707.818
329.04
121.726
421.944
-354.275
492.096
-618.7
540.145
-685.493
567.666
-599.185
573.164
-404.981
557.179
-166.464
523.638
46.8327
478.341
187.161
427.021
255.922
375.852
252.081
327.718
177.955
275.521
65.5078
211.752
-55.9822
140.874
-31.1864
-32.5874
-170.419
-212.275
-899.345
-162.931
-1003.98
-864.725
-941.26
-698.182
-921.77
-813.9
-900.658
-919.402
-875.771
-1017.01
-847.75
-1130.92
-816.45
-1244.32
-782.805
-1365.45
-749.865
-1484.38
-725.444
-1589.42
-724.85
-1650.86
-767.623
-1629.91
-860.78
-1504.76
-979.186
-1312.46
-1075.71
-1141.2
-1119.84
-1058.54
-1115.84
-1062.51
-1084.68
-1109.53
-1042.89
-1162.1
-997.84
-1203.9
-951.635
-1231.34
-904.761
-1243.91
-857.801
-1240.18
-812.236
-1216.52
-768.187
-1165.69
-709.109
-1054.61
-587.698
-718.759
-447.016
74.2591
-397.037
854.268
-389.18
1275.44
-387.845
1562.21
-392.447
1828.84
-403.759
2068.45
-418.834
2277.4
-433.758
2461.76
-445.874
2624.98
-454.185
2769.92
-458.521
2897.35
-459.025
3007.56
-455.872
3100.55
-449.237
3176.52
-439.37
3235.57
-426.641
3277.63
-411.51
3302.61
-394.428
3310.65
-375.781
3302.65
-355.841
3280.14
-334.751
3244.71
-312.53
3197.16
-289.118
3136.51
-264.527
3060.3
-238.895
2966.75
-212.207
2856.44
-183.945
2728.93
-153.088
2576.99
-118.326
2388.39
-77.3685
2157.2
-25.6108
1875.34
43.1534
1525.75
132.424
1099.78
245.615
594.627
359.113
8.22783
452.419
-447.58
524.375
-690.656
574.095
-735.212
601.684
-626.775
605.943
-409.24
587.381
-147.903
550.553
83.6609
500.968
236.745
445.083
311.806
390.379
306.786
338.881
229.453
283.156
121.233
215.49
11.6841
156.504
27.7999
25.669
-39.5841
-159.588
-714.087
-165.292
-998.278
-1039.91
-923.152
-714.227
-900.347
-836.705
-876.163
-943.586
-848.213
-1044.96
-817.463
-1161.67
-783.982
-1277.8
-749.583
-1399.85
-719.248
-1514.71
-704.476
-1604.2
-724.354
-1630.98
-795.86
-1558.41
-911.089
-1389.53
-1028.04
-1195.51
-1101.16
-1068.09
-1117.99
-1041.71
-1096.26
-1084.25
-1057.76
-1148.03
-1014.57
-1205.29
-970.575
-1247.89
-926.272
-1275.64
-881.405
-1288.78
-835.913
-1285.67
-790.46
-1261.97
-745.601
-1210.55
-690.614
-1109.6
-582.629
-826.743
-432.05
-76.3199
-370.49
792.708
-364.339
1269.29
-366.519
1564.39
-372.02
1834.35
-383.046
2079.47
-398.969
2293.32
-416.535
2479.32
-432.273
2640.72
-444.293
2781.94
-452.006
2905.06
-455.443
3011
-454.813
3099.91
-450.357
3172.06
-442.33
3227.55
-431.074
3266.38
-417.048
3288.58
-400.747
3294.35
-382.604
3284.51
-362.936
3260.47
-341.923
3223.7
-319.62
3174.86
-296.007
3112.9
-271.137
3035.43
-245.175
2940.79
-218.108
2829.38
-189.389
2700.21
-157.959
2545.56
-122.396
2352.82
-80.1212
2114.92
-25.9045
1821.12
47.481
1452.36
144.205
1003.06
271.633
467.2
391.692
-111.832
483.767
-539.655
555.74
-762.629
606.828
-786.3
634.885
-654.832
638.225
-412.58
616.949
-126.627
576.454
124.156
522.705
290.494
462.603
371.909
404.225
365.164
348.149
285.529
286.368
183.013
212.811
85.241
158.234
82.3772
81.6078
37.0421
-79.8882
-552.591
-132.5
-945.665
-1165.68
-901.499
-732.902
-875.373
-862.831
-848.362
-970.598
-817.687
-1075.63
-784.736
-1194.62
-749.937
-1312.6
-716.429
-1433.36
-691.985
-1539.16
-692.44
-1603.74
-738.707
-1584.71
-838.731
-1458.38
-965.181
-1263.08
-1066.44
-1094.24
-1110.21
-1024.31
-1103.34
-1048.59
-1070.26
-1117.33
-1029.12
-1189.18
-987.085
-1247.32
-945.34
-1289.64
-903.274
-1317.71
-860.143
-1331.91
-815.486
-1330.33
-769.402
-1308.05
-722.536
-1257.42
-668.838
-1163.3
-572.18
-923.402
-416.451
-232.049
-342.158
718.415
-336.195
1263.32
-342.886
1571.08
-351.095
1842.55
-362.615
2090.99
-378.798
2309.51
-398.112
2498.63
-417.072
2659.68
-432.842
2797.71
-444.154
2916.37
-450.793
3017.63
-452.92
3102.04
-450.836
3169.98
-444.844
3221.56
-435.275
3256.81
-422.564
3275.87
-407.216
3279
-389.711
3267.01
-370.414
3241.17
-349.548
3202.84
-327.209
3152.52
-303.42
3089.11
-278.282
3010.29
-251.994
2914.5
-224.544
2801.93
-195.367
2671.03
-163.375
2513.57
-127.035
2316.48
-83.4591
2071.35
-26.6927
1764.35
51.6597
1374.01
156.839
897.877
295.421
328.618
422.055
-238.467
515.047
-632.647
586.503
-834.085
638.307
-838.104
666.969
-683.494
669.76
-415.37
645.855
-102.722
601.352
168.659
543.395
348.451
479.349
435.955
416.925
427.587
355.021
347.433
285.698
252.337
207.509
163.43
154.785
135.101
117.535
74.2917
-0.434746
-434.621
-79.6507
-866.45
-1240.43
-876.531
-754.108
-847.285
-892.076
-817.849
-1000.03
-784.949
-1108.53
-750.511
-1229.06
-715.587
-1347.52
-685.319
-1463.63
-671.246
-1553.23
-693.324
-1581.66
-769.783
-1508.25
-892.227
-1335.94
-1015.03
-1140.28
-1089.41
-1019.86
-1103.98
-1009.74
-1080.02
-1072.55
-1041.67
-1155.67
-1001.28
-1229.57
-961.801
-1286.8
-922.576