/*--------------------------------*- C++ -*----------------------------------*\
| =========                 |                                                 |
| \\      /  F ield         | OpenFOAM: The Open Source CFD Toolbox           |
|  \\    /   O peration     | Version:  4.1                                   |
|   \\  /    A nd           | Web:      www.OpenFOAM.org                      |
|    \\/     M anipulation  |                                                 |
\*---------------------------------------------------------------------------*/
FoamFile
{
    version     2.0;
    format      ascii;
    class       volVectorField;
    location    "27";
    object      U;
}
// * * * * * * * * * * * * * * * * * * * * * * * * * * * * * * * * * * * * * //

dimensions      [0 1 -1 0 0 0 0];

internalField   nonuniform List<vector> 
6785
(
(1.43069e-14 -2.34117 16.5687)
(1.10209e-14 -7.91529 13.0352)
(-3.07409e-15 -5.11286 13.8403)
(4.03143e-15 -5.03666 13.3542)
(8.89333e-16 -4.22539 13.22)
(-1.59511e-16 -3.7786 12.9344)
(2.48345e-15 -3.33197 12.6517)
(5.0365e-16 -3.00558 12.3299)
(-7.74703e-16 -2.76845 11.9981)
(1.48099e-15 -2.65851 11.6751)
(2.27504e-16 -2.65466 11.4365)
(-4.96489e-16 -2.77521 11.3001)
(5.88311e-16 -3.36254 10.8575)
(-6.76457e-17 -3.54056 9.7802)
(-3.59181e-17 -0.16824 7.62221)
(1.87315e-14 -10.4227 27.2013)
(1.27026e-14 -16.3768 23.4549)
(-3.07856e-15 -11.2813 23.8131)
(3.84053e-15 -12.0724 21.9859)
(7.47979e-16 -10.3526 21.1378)
(6.09975e-16 -9.73194 19.9085)
(1.54952e-15 -8.7567 18.8236)
(-4.74892e-17 -7.99337 17.6977)
(-4.40574e-16 -7.245 16.6258)
(1.6652e-16 -6.57187 15.5468)
(-3.3039e-16 -5.79315 14.2205)
(-8.18566e-16 -4.57759 12.0141)
(-8.80814e-16 -2.6061 8.04906)
(-5.63389e-16 0.0498427 2.32122)
(-6.75906e-16 1.55538 -2.33847)
(2.09767e-14 -12.9527 28.6528)
(1.14724e-14 -17.0937 25.1046)
(-2.49844e-15 -12.0946 25.1347)
(4.65475e-15 -13.4421 22.4898)
(5.32401e-16 -11.1994 21.5217)
(1.22075e-15 -10.9353 19.7002)
(2.22955e-15 -9.8006 18.3468)
(-2.95245e-16 -9.16128 16.8188)
(8.75304e-17 -8.38202 15.4381)
(1.9369e-15 -7.72516 14.0339)
(-1.30548e-16 -6.92058 12.3953)
(-5.52078e-16 -5.52911 9.84272)
(2.36753e-15 -3.03112 5.23241)
(1.39974e-15 3.00385 -3.68029)
(-1.71151e-15 2.06027 -6.90404)
(2.17797e-14 -13.4177 27.7454)
(1.22719e-14 -17.0135 25.0232)
(-1.9505e-15 -12.4314 24.4859)
(4.36596e-15 -13.9215 21.4823)
(1.06876e-15 -11.5744 20.513)
(1.30685e-15 -11.5004 18.4118)
(2.4938e-15 -10.366 16.9403)
(4.93969e-16 -9.77651 15.3189)
(4.98839e-17 -9.10212 13.9208)
(1.33755e-15 -8.49839 12.5689)
(3.81542e-16 -7.85356 11.0955)
(-5.75409e-16 -6.86584 9.31192)
(2.55379e-16 -5.50354 6.73396)
(-2.19455e-16 -2.9727 3.50039)
(-1.56155e-15 -0.837236 -0.494074)
(2.2076e-14 -13.2762 26.7571)
(1.23298e-14 -16.4049 24.5215)
(-1.94507e-15 -12.1022 23.6968)
(3.94238e-15 -13.4483 20.5466)
(3.26216e-16 -10.8203 19.6407)
(1.09113e-15 -10.8523 17.2699)
(1.82913e-15 -9.36654 15.8847)
(-7.07075e-16 -8.84567 14.1995)
(-7.55641e-16 -8.11389 12.8659)
(2.58661e-16 -7.66157 11.5325)
(-7.22955e-16 -7.25266 10.315)
(-7.40378e-16 -6.77844 9.23198)
(-9.08611e-17 -6.15472 8.15436)
(-2.15684e-15 -4.86702 6.72906)
(-3.82438e-15 -2.80857 3.60719)
(2.27111e-14 -13.6391 26.6562)
(1.03444e-14 -15.5526 24.3996)
(-5.09803e-16 -12.0247 23.4705)
(3.07229e-15 -12.6294 20.7055)
(5.70868e-16 -10.2414 19.7407)
(1.57174e-15 -9.94035 17.6217)
(3.27575e-16 -8.11043 15.9505)
(9.19912e-16 -6.70958 13.1305)
(2.5335e-15 -4.87164 10.2263)
(1.72324e-15 -3.92476 8.03294)
(3.37772e-16 -3.97383 7.56856)
(-7.35773e-16 -5.02542 8.61898)
(-2.22753e-15 -6.21783 10.1899)
(-2.75412e-15 -6.96311 10.899)
(-1.84617e-15 -5.25361 9.34099)
(2.21815e-14 -14.8832 28.4708)
(7.33234e-15 -15.8824 25.7951)
(-3.74479e-16 -12.9012 25.0016)
(2.13247e-15 -13.1078 22.8042)
(-1.23036e-16 -11.0987 21.915)
(1.34552e-16 -10.6574 20.2305)
(-6.24641e-16 -8.7831 18.4485)
(3.14966e-16 -6.78679 15.0179)
(2.01537e-15 -3.94576 10.9783)
(1.24026e-15 -1.59916 7.19606)
(-1.21459e-15 0.184675 4.40843)
(-1.29271e-15 0.66274 3.20264)
(-2.53874e-15 -0.762918 4.56159)
(-4.74893e-15 -3.46468 7.61483)
(-2.82731e-15 -3.87046 8.36144)
(2.16405e-14 -15.4789 29.0538)
(7.96461e-15 -17.7626 28.5845)
(-8.49237e-16 -14.1899 26.6985)
(1.79659e-15 -14.5864 24.5217)
(-6.12068e-16 -12.7103 23.6522)
(-4.0703e-16 -12.6094 22.0042)
(-7.65388e-16 -11.101 20.5575)
(-7.81242e-16 -9.72654 17.6904)
(1.06891e-15 -7.219 14.1144)
(8.48777e-16 -4.75007 10.1511)
(-1.77403e-16 -2.116 6.26882)
(2.29437e-15 0.450485 2.11327)
(2.95374e-15 2.81287 -1.63016)
(4.34307e-15 3.47164 -3.14856)
(4.01483e-15 1.52388 -1.84652)
(1.99172e-14 -14.3508 26.0717)
(1.17109e-14 -18.8297 30.1643)
(1.33654e-15 -15.3071 27.1834)
(1.10213e-15 -15.0602 24.3329)
(-1.52922e-16 -13.5337 23.0252)
(7.58605e-16 -13.2743 21.2665)
(-2.04657e-16 -12.2887 19.7984)
(-5.73449e-16 -11.453 17.7625)
(9.91281e-16 -10.0825 15.398)
(6.17819e-16 -8.47608 12.6905)
(2.73065e-16 -6.60078 9.77859)
(2.84127e-15 -4.39405 6.59553)
(2.3858e-15 -2.01279 3.03068)
(1.93268e-15 1.87395 -1.16284)
(3.83773e-15 2.11828 -6.23373)
(1.90627e-14 -12.5087 22.0857)
(1.49117e-14 -18.2636 29.7154)
(3.60264e-15 -15.3969 26.6434)
(1.3137e-15 -14.3359 23.1228)
(4.6523e-16 -12.8935 21.3542)
(1.21194e-15 -12.3288 19.5082)
(9.84181e-16 -11.434 17.9311)
(4.64739e-16 -10.6451 16.1751)
(1.16735e-15 -9.70484 14.3485)
(1.20048e-15 -8.62405 12.4104)
(1.00045e-15 -7.42414 10.3241)
(2.00846e-15 -5.93376 8.09289)
(1.64367e-15 -4.33688 5.4466)
(1.99312e-15 -1.65277 2.21782)
(-1.06579e-15 0.514545 -3.17543)
(1.81709e-14 -11.2658 19.7438)
(1.65497e-14 -17.379 28.8906)
(4.72333e-15 -15.0387 26.0343)
(1.24131e-15 -13.5587 22.2875)
(9.31199e-16 -12.1108 20.3399)
(1.2668e-15 -11.421 18.5192)
(1.49217e-15 -10.5089 16.9727)
(1.39553e-15 -9.70895 15.3561)
(7.76948e-16 -8.86476 13.7828)
(9.59671e-16 -7.98304 12.23)
(1.60328e-15 -7.08565 10.6282)
(5.11484e-16 -5.9975 8.95493)
(2.57303e-16 -4.84377 6.95608)
(-7.94016e-16 -2.9449 4.40633)
(-5.74343e-15 -0.637685 -0.463085)
(1.76575e-14 -10.6043 18.5859)
(1.79414e-14 -16.6515 28.1028)
(5.31312e-15 -14.7744 25.5162)
(1.04632e-15 -13.0533 21.664)
(1.45663e-15 -11.5517 19.5015)
(8.76229e-16 -10.7929 17.7234)
(1.0809e-15 -9.91414 16.275)
(1.61477e-15 -9.15641 14.8158)
(3.15884e-16 -8.38363 13.4292)
(-2.35681e-16 -7.61817 12.083)
(1.83018e-16 -6.88088 10.7143)
(-1.38544e-15 -6.03361 9.34745)
(-9.81675e-16 -5.20231 7.82935)
(-2.46782e-15 -3.81222 6.08252)
(-6.34285e-15 -1.34079 1.28654)
(1.66009e-14 -10.6786 18.7187)
(1.80056e-14 -15.8611 26.9914)
(5.6546e-15 -14.3873 24.7853)
(1.47005e-16 -12.9971 21.4802)
(2.2514e-15 -11.7606 19.4071)
(4.92195e-16 -11.1345 17.725)
(-2.26656e-15 -10.459 16.3362)
(1.84877e-15 -9.85346 14.9378)
(1.60377e-15 -9.18038 13.5088)
(-6.48967e-16 -8.42919 12.0469)
(-7.55812e-16 -7.66206 10.672)
(-2.22019e-15 -6.94384 9.63968)
(-2.73597e-15 -6.40687 9.00167)
(-2.80057e-15 -5.58474 8.43438)
(-7.53803e-15 -3.44337 4.99423)
(1.44624e-14 -10.5875 17.6583)
(1.79628e-14 -15.4899 25.809)
(2.37582e-15 -13.3839 22.5221)
(-2.80537e-15 -11.066 18.3472)
(1.37457e-15 -9.38236 16.0696)
(-6.86023e-16 -8.47159 14.421)
(-2.1378e-16 -7.59287 13.1965)
(3.13917e-15 -7.04173 12.0744)
(1.10267e-15 -6.73477 11.4146)
(-1.07117e-15 -6.78378 11.1585)
(-2.60938e-15 -7.0606 11.2737)
(-3.43828e-15 -7.50182 11.7232)
(-3.42474e-15 -7.8296 12.348)
(-4.89454e-15 -7.63964 12.4565)
(-8.85437e-15 -5.56124 9.48443)
(8.17212e-15 -8.58529 14.5536)
(1.56314e-14 -16.8118 25.7514)
(9.2659e-15 -18.7709 26.9559)
(2.24178e-15 -18.1309 24.653)
(4.61818e-17 -16.5199 22.1905)
(-3.75489e-16 -15.0205 19.757)
(9.77416e-16 -13.1267 17.1243)
(3.21169e-15 -11.0254 14.3464)
(3.80912e-15 -8.83905 11.5685)
(2.26658e-15 -6.85128 8.99041)
(-1.71008e-15 -5.39729 7.44129)
(-4.0517e-15 -5.52519 8.36384)
(-6.26246e-15 -6.83759 11.2713)
(-1.00165e-14 -7.70093 12.6829)
(-1.07613e-14 -4.67696 8.71889)
(-1.34809e-15 32.9314 6.74657)
(-2.30684e-15 9.51197 0.769774)
(-1.78665e-15 -1.30741 -1.54435)
(-1.8019e-15 0.881632 -2.06539)
(-1.73521e-15 0.635175 -2.3068)
(-2.55589e-15 0.814607 -3.49452)
(-1.91462e-15 0.922855 -2.60032)
(-1.90565e-15 1.23495 -2.63621)
(-1.92855e-15 1.32999 -2.59754)
(-2.01828e-15 1.79459 -3.29181)
(-1.29928e-15 1.64609 -2.31905)
(-1.30197e-15 1.8856 -2.19985)
(-2.21705e-15 2.40678 -2.7287)
(-1.76304e-15 2.05139 -1.9023)
(-1.83171e-15 2.36079 -1.87144)
(-1.79905e-15 2.36286 -1.81198)
(-2.72098e-15 2.89582 -2.19065)
(-1.97908e-15 2.49304 -1.53221)
(-1.88021e-15 2.69494 -1.45599)
(-2.81008e-15 3.2726 -1.68058)
(-2.13541e-15 2.64795 -1.17517)
(-2.18797e-15 2.97136 -1.14406)
(-2.02217e-15 2.88542 -1.1087)
(-2.93932e-15 3.47849 -1.17065)
(-2.19614e-15 2.77154 -0.824556)
(-2.1682e-15 3.07166 -0.786055)
(-2.1342e-15 2.9756 -0.764678)
(-3.00487e-15 3.44829 -0.678076)
(-2.32042e-15 2.77687 -0.482116)
(-2.14257e-15 2.92823 -0.478502)
(-2.9676e-15 3.37751 -0.263997)
(-2.20173e-15 2.57414 -0.237469)
(-2.13146e-15 2.82292 -0.236264)
(-2.07337e-15 2.72043 -0.275956)
(-2.91479e-15 3.06122 -0.022277)
(-2.03888e-15 2.39696 -0.0803127)
(-1.82317e-15 2.51909 -0.142104)
(-2.53432e-15 2.84067 0.1634)
(-1.66006e-15 2.12783 0.0436509)
(-1.59528e-15 2.3197 0.0212313)
(-1.33067e-15 2.224 -0.0377042)
(-1.801e-15 2.51857 0.280466)
(-1.19087e-15 1.94518 0.188469)
(-1.13919e-15 2.10018 0.179216)
(-1.03934e-15 2.01118 0.120127)
(-1.31061e-15 2.23946 0.496782)
(-1.04576e-15 1.79952 0.405983)
(-9.09009e-16 1.87371 0.329042)
(-1.15139e-15 1.9882 0.820353)
(-5.3899e-16 1.52279 0.569353)
(-4.22869e-16 1.59886 0.549563)
(-3.20827e-16 1.54043 0.476124)
(-3.28528e-16 1.51014 0.95344)
(-1.33469e-16 1.07251 0.56023)
(-1.15515e-16 1.10625 0.521262)
(1.56286e-16 1.09278 0.482468)
(2.93795e-16 0.944246 0.570236)
(3.94598e-16 0.460996 -0.0079091)
(-1.37828e-17 0.443465 0.0867867)
(6.05215e-18 1.26237 -1.41462)
(1.98816e-16 -0.676397 -1.78185)
(3.44281e-16 0.0356815 -1.9707)
(5.51106e-16 0.198564 -1.96885)
(7.10642e-16 -0.260873 -0.689073)
(-8.18781e-16 -1.23462 1.33455)
(-7.49701e-16 -0.867036 1.31189)
(-1.15257e-15 -2.01619 3.8562)
(-9.03363e-16 -2.51366 4.14834)
(-8.92142e-16 -2.81927 4.24886)
(-1.01346e-15 -2.7647 4.55623)
(-1.27601e-15 -4.4945 7.84113)
(-9.11574e-16 -4.73707 6.69433)
(-9.52708e-16 -5.39169 6.97051)
(-8.94342e-16 -5.2726 7.22379)
(-6.62859e-16 -7.86078 11.0904)
(-8.09074e-18 -7.78261 8.58132)
(2.1714e-16 -7.88916 8.96478)
(1.06087e-15 -10.7952 12.6747)
(1.03491e-15 -10.3867 9.42872)
(9.74551e-16 -10.7727 10.2107)
(-1.25227e-16 -11.5026 12.661)
(6.09482e-17 -11.3295 12.5883)
(1.79988e-16 -11.4189 12.9391)
(2.9453e-15 -12.851 14.3732)
(1.00489e-15 -11.9431 13.2186)
(1.0904e-15 -12.1422 13.9031)
(1.06357e-15 -12.0435 14.0983)
(1.05208e-15 -12.0986 14.2996)
(9.92702e-16 -12.0822 14.5473)
(9.82418e-16 -12.1248 14.794)
(1.2243e-15 -12.1711 14.9595)
(1.63625e-15 -12.1381 15.0768)
(3.41197e-15 -13.0418 16.1869)
(2.00549e-15 -12.4562 15.3791)
(2.17034e-15 -12.5382 15.7363)
(2.3595e-15 -12.5692 15.8141)
(2.83356e-15 -12.5909 15.4897)
(2.68123e-15 -12.6876 15.7029)
(2.62683e-15 -12.7412 15.9017)
(2.4861e-15 -12.8666 16.1888)
(2.43297e-15 -12.8747 16.5669)
(4.06486e-15 -13.7806 18.2914)
(3.41799e-15 -13.0524 16.8987)
(3.40597e-15 -13.2149 17.2339)
(3.34028e-15 -13.2473 17.4049)
(3.34214e-15 -13.3529 17.6298)
(3.58671e-15 -13.4176 17.846)
(3.91172e-15 -13.5362 17.9727)
(3.75538e-15 -13.5697 17.8525)
(3.64785e-15 -13.7035 17.8018)
(3.51894e-15 -13.7128 17.8103)
(3.68663e-15 -14.0151 18.8381)
(3.74071e-15 -13.452 18.0722)
(3.8275e-15 -13.5439 18.1312)
(3.93232e-15 -13.5749 18.1837)
(4.05829e-15 -13.6661 18.2699)
(4.19685e-15 -13.6767 18.4006)
(4.32344e-15 -13.7845 18.7695)
(4.45371e-15 -13.8125 18.879)
(4.53367e-15 -13.883 18.9514)
(4.78755e-15 -13.0836 18.7009)
(4.84215e-15 -12.9886 18.9599)
(4.90251e-15 -12.9488 19.3353)
(4.83072e-15 -13.0303 19.5887)
(4.97967e-15 -12.9848 19.4384)
(5.05688e-15 -13.0415 19.2823)
(5.08913e-15 -13.0473 19.0016)
(4.99992e-15 -12.9846 18.7342)
(4.69729e-15 -13.1487 18.7532)
(5.79987e-15 -10.9656 15.9463)
(5.18362e-15 -11.617 17.5441)
(5.43827e-15 -11.4699 17.2253)
(5.61726e-15 -11.4889 17.2512)
(5.84045e-15 -11.4431 17.4276)
(6.10323e-15 -11.4112 17.4459)
(6.414e-15 -11.3317 17.4303)
(6.74969e-15 -11.2687 17.4413)
(7.09709e-15 -11.3437 17.3631)
(8.46007e-15 -8.64197 14.4489)
(7.74326e-15 -9.48305 16.9632)
(7.74646e-15 -9.20212 16.3948)
(7.48504e-15 -9.27125 15.8599)
(7.08192e-15 -9.14708 15.0005)
(6.62848e-15 -9.07868 13.999)
(6.84558e-15 -8.96064 13.0562)
(5.85568e-15 -8.74784 11.5824)
(5.1674e-15 -8.4843 10.0356)
(4.50535e-15 -8.29204 8.47277)
(2.49827e-15 -4.57573 1.43469)
(4.11411e-15 -6.14679 6.58659)
(3.55253e-15 -5.56201 4.78136)
(3.08384e-15 -5.65007 4.18292)
(2.66354e-15 -5.26398 3.27324)
(2.32547e-15 -5.14365 2.49206)
(1.70604e-15 -4.90905 1.16048)
(1.13196e-15 -4.55075 -0.0538673)
(1.35432e-15 -4.45968 0.0392672)
(-1.52325e-17 -2.79945 -3.55324)
(1.09902e-15 -3.32409 0.153661)
(8.9365e-16 -3.08856 -0.923932)
(-7.16111e-16 -1.95015 -3.88108)
(-7.70667e-17 -3.26216 -3.29568)
(-3.20816e-16 -1.65392 -2.65915)
(-2.8147e-16 -1.58129 -1.75319)
(-4.06784e-16 -1.32606 -2.41367)
(-3.46009e-16 -0.906055 -1.3549)
(-3.81047e-16 -0.738439 -2.01176)
(-1.55462e-16 -0.418715 -1.23362)
(7.01261e-17 -0.272511 -0.880518)
(4.65181e-18 -0.0262446 -1.46302)
(-1.38664e-18 0.0999296 -1.31495)
(-9.02787e-19 0.237852 -0.825827)
(-1.85479e-17 0.472389 -1.01782)
(2.98415e-17 0.49107 -0.712505)
(-2.04729e-16 0.642297 -0.825245)
(-2.66376e-16 0.838801 -0.845186)
(-1.877e-16 0.744164 -0.527325)
(-4.30183e-16 1.11 -0.647901)
(-3.18293e-16 0.930092 -0.422317)
(-3.53971e-16 1.12272 -0.490931)
(-3.63215e-16 1.26528 -0.512704)
(-2.66091e-16 1.12186 -0.331528)
(-2.92163e-16 1.3535 -0.414496)
(-5.91714e-16 1.53514 -0.438795)
(-5.22438e-16 1.24119 -0.282452)
(-7.27453e-16 1.76999 -0.378464)
(-5.32648e-16 1.4074 -0.245263)
(-6.99946e-16 1.61179 -0.300895)
(-7.78364e-16 1.84952 -0.276629)
(-5.11246e-16 1.46715 -0.154948)
(-6.72471e-16 2.07238 -0.188264)
(-5.10643e-16 1.60513 -0.0962)
(-6.07115e-16 1.85467 -0.12124)
(-8.16971e-16 2.00608 -0.091332)
(-5.63202e-16 1.68696 -0.036583)
(-6.1633e-16 1.988 -0.0644509)
(-7.99168e-16 2.18096 -0.0243692)
(-5.14087e-16 1.69449 -0.00868203)
(-6.6216e-16 2.383 -0.0127286)
(-5.09912e-16 1.82628 0.0206103)
(-6.83028e-16 2.05948 0.0161386)
(-9.07611e-16 2.30458 0.0955022)
(-6.84443e-16 1.77807 0.0775594)
(-1.20708e-15 2.48856 0.116533)
(-1.06068e-15 1.86979 0.102059)
(-1.45121e-15 2.14701 0.108372)
(-2.10325e-15 2.25126 0.144765)
(-1.63301e-15 1.83766 0.0689104)
(-2.09811e-15 2.19664 0.0239255)
(-2.53282e-15 2.25787 -0.0406721)
(-1.69721e-15 1.72741 -0.117811)
(-2.13542e-15 2.43771 -0.286348)
(-1.4709e-15 1.8131 -0.303672)
(-1.73664e-15 2.1177 -0.467347)
(-2.171e-15 2.17292 -0.645705)
(-1.45094e-15 1.69263 -0.511633)
(-2.08959e-15 2.42881 -0.764187)
(-1.53883e-15 1.82394 -0.601407)
(-1.88255e-15 2.18052 -0.774048)
(-2.21217e-15 2.18698 -0.9258)
(-1.45783e-15 1.84504 -0.670291)
(-1.8119e-15 2.30467 -0.854667)
(-1.74553e-15 2.33099 -1.00867)
(-1.04544e-15 1.85353 -0.72309)
(-1.16924e-15 2.65208 -1.02749)
(-7.30843e-16 2.08915 -0.75981)
(-7.27876e-16 2.43888 -0.942782)
(-8.29286e-16 2.56594 -1.03872)
(-5.24427e-16 2.08416 -0.682431)
(-7.24383e-16 2.93257 -0.883154)
(-5.95925e-16 2.30785 -0.579296)
(-8.91899e-16 2.68426 -0.664448)
(-1.18012e-15 2.79393 -0.625872)
(-9.53535e-16 2.40592 -0.344551)
(-1.2903e-15 2.8436 -0.37793)
(-1.63712e-15 3.06601 -0.302009)
(-1.11897e-15 2.44907 -0.144177)
(-1.42084e-15 3.39597 -0.183561)
(-9.21992e-16 2.63986 -0.0688465)
(-1.01186e-15 3.08354 -0.0692473)
(7.43087e-15 1.20744 4.25776)
(1.02774e-14 1.34249 5.05025)
(1.13756e-14 1.25103 5.4469)
(1.20222e-14 1.30444 5.80485)
(1.19835e-14 1.3446 6.02779)
(1.14362e-14 1.42058 6.16237)
(1.05756e-14 1.50603 6.22375)
(9.60979e-15 1.60224 6.23611)
(8.72244e-15 1.70201 6.21241)
(8.05705e-15 1.80248 6.16076)
(7.71019e-15 1.89963 6.0837)
(7.72407e-15 1.98923 5.98147)
(8.07077e-15 2.06548 5.85406)
(8.62001e-15 2.12052 5.7045)
(9.08882e-15 2.14396 5.54295)
(8.99565e-15 2.12411 5.39111)
(7.68961e-15 2.05195 5.28277)
(4.55194e-15 1.92733 5.25448)
(-6.62336e-16 1.76415 5.32679)
(-7.66409e-15 1.59017 5.49277)
(-1.57879e-14 1.42123 5.71781)
(-2.3515e-14 1.17062 5.88789)
(-2.71595e-14 0.615563 5.7216)
(-2.42419e-14 -0.205746 5.12893)
(-2.12769e-14 -0.740539 4.81071)
(-1.94677e-14 -1.03868 4.65352)
(-1.78729e-14 -1.29622 4.51037)
(-1.63548e-14 -1.5792 4.37052)
(-1.48957e-14 -1.88275 4.23595)
(-1.34864e-14 -2.19535 4.10568)
(-1.21209e-14 -2.50738 3.97889)
(-1.07897e-14 -2.81179 3.85377)
(-9.49529e-15 -3.10123 3.72996)
(-8.24484e-15 -3.37231 3.60808)
(-7.03539e-15 -3.62245 3.48761)
(-5.8623e-15 -3.84946 3.36811)
(-4.71741e-15 -4.05235 3.24927)
(-3.58743e-15 -4.2312 3.1309)
(-2.45102e-15 -4.38671 3.01253)
(-1.27697e-15 -4.51885 2.89293)
(-3.15916e-17 -4.6265 2.771)
(1.31286e-15 -4.70849 2.64642)
(2.77535e-15 -4.76385 2.51896)
(4.35566e-15 -4.79253 2.38922)
(6.02753e-15 -4.79605 2.25757)
(7.73274e-15 -4.77785 2.12474)
(9.38692e-15 -4.74232 1.99065)
(1.08838e-14 -4.6923 1.85454)
(1.2106e-14 -4.62806 1.71547)
(1.29465e-14 -4.54553 1.57188)
(1.33227e-14 -4.43892 1.42293)
(1.31968e-14 -4.30899 1.26949)
(1.25942e-14 -4.16075 1.11193)
(1.15869e-14 -3.99176 0.950081)
(1.02829e-14 -3.78458 0.781669)
(8.80543e-15 -3.53619 0.610245)
(7.23776e-15 -3.25493 0.436517)
(5.6036e-15 -2.9269 0.263543)
(3.91796e-15 -2.51104 0.0936151)
(2.29976e-15 -1.95696 -0.0647801)
(9.87266e-16 -1.23943 -0.201916)
(2.83371e-16 -0.581119 -0.31069)
(4.60234e-17 -0.0885363 -0.404036)
(-1.80798e-17 0.119838 -0.518902)
(-3.77045e-17 0.224914 -0.710739)
(-4.173e-17 0.254066 -0.895517)
(-3.75684e-17 0.230547 -1.03031)
(-2.87807e-17 0.185476 -1.10438)
(-1.84371e-17 0.157238 -1.12529)
(-9.06916e-18 0.185047 -1.09385)
(-2.71393e-18 0.307667 -0.987057)
(-2.94544e-20 0.490033 -0.823092)
(3.96681e-19 0.756971 -0.676139)
(2.10265e-19 0.850586 -0.45021)
(1.62129e-19 0.949298 -0.695265)
(-1.04316e-18 2.54576 -0.288041)
(2.64358e-17 3.86838 -0.462858)
(1.85435e-16 0.318025 0.699418)
(-9.20746e-18 -2.17366 -0.598523)
(9.92774e-15 1.07368 5.04445)
(1.21569e-14 1.1559 5.795)
(1.22763e-14 1.13644 6.02577)
(1.1986e-14 1.21865 6.23828)
(1.11565e-14 1.29414 6.32249)
(1.01018e-14 1.39459 6.355)
(9.04156e-15 1.49814 6.34501)
(8.16115e-15 1.60679 6.31084)
(7.59108e-15 1.71604 6.25576)
(7.40991e-15 1.82465 6.1806)
(7.6445e-15 1.92973 6.08272)
(8.26196e-15 2.02735 5.95976)
(9.14413e-15 2.11112 5.81163)
(1.00348e-14 2.17132 5.64475)
(1.04646e-14 2.19431 5.47762)
(9.70788e-15 2.16441 5.34557)
(6.90445e-15 2.07025 5.297)
(1.48078e-15 1.91449 5.37158)
(-6.31716e-15 1.71909 5.56865)
(-1.54211e-14 1.52112 5.84206)
(-2.46039e-14 1.35271 6.13063)
(-3.22816e-14 1.16609 6.32786)
(-3.45683e-14 0.740114 6.13229)
(-2.76401e-14 -0.061717 5.28049)
(-2.06499e-14 -0.705635 4.68043)
(-1.85696e-14 -1.02482 4.55541)
(-1.73335e-14 -1.28442 4.44788)
(-1.5987e-14 -1.57294 4.31815)
(-1.46007e-14 -1.88109 4.19195)
(-1.32415e-14 -2.19609 4.07062)
(-1.19164e-14 -2.50886 3.95155)
(-1.06173e-14 -2.8126 3.83285)
(-9.34865e-15 -3.10045 3.71434)
(-8.11849e-15 -3.36942 3.59664)
(-6.92517e-15 -3.61684 3.47952)
(-5.76486e-15 -3.8407 3.36265)
(-4.62984e-15 -4.04021 3.24583)
(-3.50699e-15 -4.21549 3.12902)
(-2.37484e-15 -4.36717 3.01176)
(-1.20242e-15 -4.49519 2.89292)
(4.32455e-17 -4.59856 2.7715)
(1.38923e-15 -4.67625 2.64723)
(2.85348e-15 -4.72742 2.51994)
(4.43461e-15 -4.75212 2.39026)
(6.10503e-15 -4.75193 2.25859)
(7.80561e-15 -4.73022 2.1257)
(9.4514e-15 -4.69123 1.99147)
(1.09361e-14 -4.63764 1.85522)
(1.2143e-14 -4.56955 1.71597)
(1.29665e-14 -4.48287 1.57213)
(1.3326e-14 -4.37209 1.4229)
(1.31857e-14 -4.23818 1.26916)
(1.25727e-14 -4.08602 1.11131)
(1.15599e-14 -3.91266 0.948916)
(1.02551e-14 -3.70115 0.779486)
(8.78044e-15 -3.44912 0.6062)
(7.21761e-15 -3.16519 0.429196)
(5.58993e-15 -2.83625 0.250298)
(3.91345e-15 -2.42286 0.0707063)
(2.30667e-15 -1.87699 -0.100642)
(1.00691e-15 -1.17281 -0.252446)
(3.08934e-16 -0.526999 -0.377578)
(7.81928e-17 -0.0469058 -0.511693)
(7.39418e-18 0.1727 -0.706979)
(-2.4195e-17 0.286321 -0.957363)
(-3.86741e-17 0.306868 -1.16464)
(-4.10729e-17 0.266193 -1.29471)
(-3.53373e-17 0.202755 -1.34951)
(-2.54928e-17 0.156616 -1.34504)
(-1.48026e-17 0.161948 -1.29155)
(-5.98989e-18 0.260999 -1.16712)
(-1.10522e-18 0.436476 -0.966345)
(3.40023e-19 0.69402 -0.781734)
(3.23388e-19 0.849736 -0.502496)
(2.3999e-19 0.924029 -0.667373)
(-1.1373e-18 2.50386 -0.343446)
(4.44289e-17 3.70016 -0.220686)
(2.17178e-16 0.310254 0.997027)
(-3.64209e-18 -2.04513 -0.634469)
(1.07739e-14 1.03156 5.42383)
(1.21436e-14 1.11381 6.0356)
(1.17148e-14 1.13441 6.16325)
(1.10705e-14 1.22316 6.31151)
(1.01066e-14 1.3056 6.35442)
(9.12069e-15 1.40631 6.36799)
(8.2811e-15 1.50973 6.34894)
(7.72213e-15 1.61838 6.3097)
(7.52664e-15 1.72883 6.24912)
(7.73173e-15 1.83975 6.16639)
(8.32654e-15 1.94808 6.05846)
(9.23745e-15 2.04924 5.92372)
(1.02887e-14 2.13572 5.76441)
(1.11284e-14 2.19578 5.59201)
(1.1139e-14 2.2129 5.43399)
(9.4289e-15 2.16887 5.33733)
(5.10104e-15 2.0533 5.35686)
(-2.11202e-15 1.87573 5.52058)
(-1.13168e-14 1.66776 5.79518)
(-2.08649e-14 1.47058 6.10185)
(-2.94574e-14 1.31546 6.37546)
(-3.61246e-14 1.16878 6.55266)
(-3.80825e-14 0.834411 6.39697)
(-3.09997e-14 0.110104 5.53069)
(-2.10162e-14 -0.589201 4.62139)
(-1.75976e-14 -0.984774 4.41303)
(-1.64725e-14 -1.24838 4.34603)
(-1.54319e-14 -1.53009 4.24385)
(-1.42079e-14 -1.83713 4.13056)
(-1.29232e-14 -2.15236 4.02008)
(-1.16482e-14 -2.46554 3.91157)
(-1.03918e-14 -2.77002 3.80234)
(-9.1586e-15 -3.05909 3.69185)
(-7.956e-15 -3.32963 3.58052)
(-6.78415e-15 -3.57878 3.46849)
(-5.64071e-15 -3.80448 3.35567)
(-4.51868e-15 -4.00587 3.242)
(-3.40514e-15 -4.18302 3.1276)
(-2.27859e-15 -4.33639 3.0121)
(-1.10842e-15 -4.46588 2.89447)
(1.37383e-16 -4.57056 2.77386)
(1.48501e-15 -4.64949 2.65009)
(2.95114e-15 -4.7019 2.52309)
(4.53289e-15 -4.7279 2.39352)
(6.20108e-15 -4.72906 2.26185)
(7.8955e-15 -4.7087 2.12886)
(9.53053e-15 -4.67089 1.99445)
(1.09998e-14 -4.61824 1.85797)
(1.21877e-14 -4.55079 1.71841)
(1.29904e-14 -4.46448 1.57418)
(1.33294e-14 -4.35407 1.42449)
(1.31718e-14 -4.22065 1.27026)
(1.25464e-14 -4.06894 1.11188)
(1.15271e-14 -3.89573 0.948588)
(1.02217e-14 -3.68444 0.777597)
(8.75067e-15 -3.43285 0.60155)
(7.19407e-15 -3.14917 0.419758)
(5.5749e-15 -2.82005 0.232341)
(3.91049e-15 -2.40647 0.0389654)
(2.31908e-15 -1.86118 -0.150822)
(1.03634e-15 -1.15908 -0.32414)
(3.45867e-16 -0.509141 -0.473868)
(1.24542e-16 -0.0244951 -0.663308)
(3.80775e-17 0.217315 -0.892627)
(-7.63466e-18 0.325977 -1.1514)
(-3.14666e-17 0.330747 -1.35317)
(-3.97732e-17 0.274471 -1.46711)
(-3.75062e-17 0.199329 -1.50042)
(-2.93252e-17 0.146193 -1.47285)
(-1.88904e-17 0.145997 -1.3991)
(-9.09704e-18 0.235746 -1.26501)
(-2.62349e-18 0.405251 -1.05183)
(-3.43668e-20 0.655527 -0.850337)
(3.38055e-19 0.830934 -0.557502)
(2.63866e-19 0.910572 -0.63968)
(-7.20346e-19 2.45639 -0.361804)
(5.4501e-17 3.58364 0.0176185)
(2.12578e-16 0.356365 1.13692)
(-5.99015e-18 -1.90745 -0.428422)
(1.14281e-14 0.958901 5.80859)
(1.19148e-14 1.03149 6.28328)
(1.10546e-14 1.09562 6.32696)
(1.01569e-14 1.19417 6.41725)
(9.14205e-15 1.29216 6.41989)
(8.28191e-15 1.40176 6.40855)
(7.6986e-15 1.51303 6.37174)
(7.48206e-15 1.62795 6.31844)
(7.67214e-15 1.74441 6.24451)
(8.26656e-15 1.86136 6.1478)
(9.21529e-15 1.97591 6.02476)
(1.0396e-14 2.08296 5.87465)
(1.15551e-14 2.17347 5.70289)
(1.22071e-14 2.23273 5.52818)
(1.15392e-14 2.24022 5.39011)
(8.48672e-15 2.17502 5.34883)
(2.2359e-15 2.02984 5.46033)
(-6.92487e-15 1.82506 5.72743)
(-1.73006e-14 1.60378 6.07419)
(-2.68067e-14 1.40883 6.39515)
(-3.4319e-14 1.26781 6.63418)
(-3.95466e-14 1.16384 6.77472)
(-4.09346e-14 0.935054 6.65632)
(-3.44763e-14 0.309279 5.84948)
(-2.24814e-14 -0.469878 4.66072)
(-1.7139e-14 -0.956311 4.27794)
(-1.55447e-14 -1.23748 4.2137)
(-1.46959e-14 -1.51325 4.14516)
(-1.37184e-14 -1.81764 4.05425)
(-1.25658e-14 -2.13243 3.95765)
(-1.13536e-14 -2.44527 3.86113)
(-1.01423e-14 -2.74912 3.76363)
(-8.94859e-15 -3.03761 3.66362)
(-7.77797e-15 -3.30777 3.56082)
(-6.63074e-15 -3.55666 3.45559)
(-5.50626e-15 -3.78219 3.34818)
(-4.3987e-15 -3.9835 3.23878)
(-3.29551e-15 -4.1606 3.12764)
(-2.17517e-15 -4.31386 3.01453)
(-1.00765e-15 -4.44308 2.89855)
(2.38042e-16 -4.54744 2.77907)
(1.58709e-15 -4.62605 2.65599)
(3.0548e-15 -4.67822 2.5294)
(4.63673e-15 -4.70409 2.39998)
(6.30205e-15 -4.70524 2.26831)
(7.98947e-15 -4.68494 2.13518)
(9.61276e-15 -4.64711 2.00051)
(1.10656e-14 -4.59429 1.86367)
(1.22335e-14 -4.52642 1.72365)
(1.30144e-14 -4.43949 1.57883)
(1.33323e-14 -4.32848 1.42851)
(1.31569e-14 -4.1946 1.27359)
(1.25191e-14 -4.04237 1.11441)
(1.14933e-14 -3.8683 0.94985)
(1.01876e-14 -3.6561 0.776793)
(8.72069e-15 -3.4037 0.597215)
(7.17094e-15 -3.11894 0.409376)
(5.56131e-15 -2.78835 0.211407)
(3.91061e-15 -2.37382 0.00116888)
(2.33708e-15 -1.82916 -0.211189)
(1.07411e-15 -1.12967 -0.411386)
(3.92731e-16 -0.472646 -0.592902)
(1.84289e-16 0.0178088 -0.848441)
(7.97444e-17 0.273057 -1.10581)
(1.57908e-17 0.375177 -1.3686)
(-2.04468e-17 0.365152 -1.56511)
(-3.65564e-17 0.291583 -1.66563)
(-3.89724e-17 0.201133 -1.67973)
(-3.32567e-17 0.135715 -1.63077)
(-2.35961e-17 0.122315 -1.53756)
(-1.3086e-17 0.195704 -1.3915)
(-4.90644e-18 0.35751 -1.16348)
(-8.07276e-19 0.600152 -0.938694)
(2.34953e-19 0.806436 -0.628043)
(2.31733e-19 0.885018 -0.619661)
(2.36225e-19 2.37879 -0.375628)
(6.12139e-17 3.41963 0.304902)
(1.80268e-16 0.406831 1.32086)
(-1.0167e-17 -1.75352 -0.401469)
(1.15058e-14 0.923867 6.09769)
(1.11656e-14 1.00383 6.42646)
(1.00981e-14 1.09729 6.41405)
(9.15026e-15 1.19778 6.46385)
(8.27643e-15 1.30185 6.443)
(7.69239e-15 1.41249 6.4178)
(7.46776e-15 1.52577 6.37028)
(7.64704e-15 1.643 6.30665)
(8.23073e-15 1.76295 6.22093)
(9.18267e-15 1.8843 6.11048)
(1.04173e-14 2.00378 5.97218)
(1.17598e-14 2.11511 5.80742)
(1.28596e-14 2.20689 5.6269)
(1.30623e-14 2.26053 5.45971)
(1.13342e-14 2.25117 5.36055)
(6.50725e-15 2.15718 5.40062)
(-1.89618e-15 1.97948 5.62412)
(-1.27279e-14 1.75397 5.99061)
(-2.35059e-14 1.53397 6.37902)
(-3.20949e-14 1.35696 6.67527)
(-3.78701e-14 1.23743 6.84767)
(-4.12056e-14 1.16405 6.92523)
(-4.17206e-14 1.01777 6.83211)
(-3.65711e-14 0.517779 6.16321)
(-2.47634e-14 -0.300532 4.81983)
(-1.74311e-14 -0.898413 4.17764)
(-1.48785e-14 -1.22591 4.06871)
(-1.38823e-14 -1.50215 4.02146)
(-1.3104e-14 -1.80354 3.95878)
(-1.21458e-14 -2.11731 3.88225)
(-1.10369e-14 -2.43009 3.80016)
(-9.87901e-15 -2.73358 3.71605)
(-8.72506e-15 -3.02127 3.62873)
(-7.58849e-15 -3.29057 3.53679)
(-6.46867e-15 -3.53856 3.44038)
(-5.36503e-15 -3.76324 3.33998)
(-4.27307e-15 -3.96373 3.23611)
(-3.18093e-15 -4.14001 3.12925)
(-2.06728e-15 -4.29233 3.01928)
(-9.0274e-16 -4.42049 2.90552)
(3.42573e-16 -4.52372 2.78756)
(1.69275e-15 -4.60121 2.66544)
(3.16165e-15 -4.65235 2.5394)
(4.74324e-15 -4.67733 2.41021)
(6.40507e-15 -4.67775 2.27854)
(8.08481e-15 -4.65681 2.14522)
(9.69565e-15 -4.61828 2.0102)
(1.11314e-14 -4.56461 1.87287)
(1.22788e-14 -4.49563 1.73223)
(1.30377e-14 -4.40735 1.58665)
(1.33344e-14 -4.29502 1.43547)
(1.31415e-14 -4.15994 1.27963)
(1.24913e-14 -4.00643 1.11936)
(1.14596e-14 -3.83059 0.95314)
(1.01538e-14 -3.61645 0.777472)
(8.69134e-15 -3.36208 0.593554)
(7.14892e-15 -3.07485 0.398386)
(5.54971e-15 -2.74123 0.18784)
(3.9142e-15 -2.32453 -0.0423573)
(2.361e-15 -1.78039 -0.281646)
(1.12072e-15 -1.08453 -0.514142)
(4.5118e-16 -0.41898 -0.735447)
(2.51258e-16 0.0684339 -1.05584)
(1.32006e-16 0.328264 -1.33628)
(4.71021e-17 0.419751 -1.59535)
(-4.58912e-18 0.39198 -1.78142)
(-3.02682e-17 0.299467 -1.86662)
(-3.84674e-17 0.193806 -1.86075)
(-3.61255e-17 0.118521 -1.78991)
(-2.80878e-17 0.0973203 -1.67656)
(-1.76013e-17 0.159021 -1.51815)
(-8.01174e-18 0.31221 -1.27881)
(-2.1714e-18 0.546565 -1.03368)
(-1.09313e-19 0.7685 -0.709022)
(7.77519e-20 0.855163 -0.607219)
(1.8986e-18 2.27645 -0.370948)
(6.05754e-17 3.24565 0.608343)
(1.30018e-16 0.460942 1.51133)
(-2.48242e-17 -1.54902 -0.143504)
(1.11404e-14 0.891085 6.30684)
(1.01807e-14 0.977172 6.51082)
(9.12709e-15 1.09102 6.46926)
(8.29614e-15 1.19292 6.49098)
(7.68992e-15 1.30419 6.45511)
(7.45618e-15 1.41836 6.41826)
(7.61878e-15 1.53642 6.35942)
(8.18413e-15 1.65837 6.28327)
(9.12165e-15 1.78373 6.18314)
(1.03677e-14 1.91087 6.05655)
(1.18017e-14 2.03603 5.90156)
(1.3184e-14 2.15132 5.72302)
(1.4035e-14 2.24213 5.53948)
(1.34853e-14 2.28498 5.39402)
(1.02781e-14 2.25091 5.35807)
(3.30277e-15 2.12115 5.50643)
(-7.2319e-15 1.9108 5.8517)
(-1.9109e-14 1.6734 6.29547)
(-2.93537e-14 1.46676 6.68403)
(-3.62878e-14 1.31573 6.92099)
(-3.99866e-14 1.21909 7.00884)
(-4.12842e-14 1.16815 7.00821)
(-4.0563e-14 1.08417 6.91208)
(-3.64865e-14 0.712313 6.40244)
(-2.70041e-14 -0.0836998 5.10291)
(-1.84592e-14 -0.800148 4.13648)
(-1.47411e-14 -1.20624 3.92864)
(-1.31994e-14 -1.49247 3.88114)
(-1.24081e-14 -1.79141 3.8427)
(-1.16323e-14 -2.10252 3.79126)
(-1.0677e-14 -2.41416 3.72797)
(-9.60152e-15 -2.71706 3.65927)
(-8.49223e-15 -3.00389 3.58626)
(-7.38915e-15 -3.27219 3.50722)
(-6.29818e-15 -3.51918 3.42176)
(-5.21737e-15 -3.74299 3.33018)
(-4.14224e-15 -3.94274 3.23328)
(-3.06177e-15 -4.11833 3.13182)
(-1.95519e-15 -4.26989 3.02588)
(-7.93938e-16 -4.39719 2.91501)
(4.50718e-16 -4.49954 2.79904)
(1.80171e-15 -4.57619 2.67822)
(3.2714e-15 -4.6266 2.55295)
(4.85212e-15 -4.65101 2.42411)
(6.50983e-15 -4.65101 2.29249)
(8.18121e-15 -4.62972 2.15896)
(9.77895e-15 -4.59078 2.02352)
(1.1197e-14 -4.53653 1.88561)
(1.23236e-14 -4.46671 1.74419)
(1.30602e-14 -4.37735 1.59768)
(1.33357e-14 -4.26398 1.44547)
(1.31254e-14 -4.12797 1.28848)
(1.24633e-14 -3.97337 1.12685)
(1.14258e-14 -3.79589 0.958631)
(1.01203e-14 -3.57981 0.779881)
(8.66256e-15 -3.32323 0.590955)
(7.12791e-15 -3.03286 0.387402)
(5.54e-15 -2.69497 0.162649)
(3.9212e-15 -2.27447 -0.0900181)
(2.39089e-15 -1.72921 -0.359909)
(1.17659e-15 -1.03536 -0.629088)
(5.23297e-16 -0.358848 -0.897842)
(3.21949e-16 0.127775 -1.26723)
(1.9175e-16 0.385465 -1.57307)
(8.62602e-17 0.464021 -1.82945)
(1.66115e-17 0.418331 -2.00338)
(-2.06371e-17 0.306509 -2.07305)