/*--------------------------------*- C++ -*----------------------------------*\
| =========                 |                                                 |
| \\      /  F ield         | OpenFOAM: The Open Source CFD Toolbox           |
|  \\    /   O peration     | Version:  4.1                                   |
|   \\  /    A nd           | Web:      www.OpenFOAM.org                      |
|    \\/     M anipulation  |                                                 |
\*---------------------------------------------------------------------------*/
FoamFile
{
    version     2.0;
    format      ascii;
    class       volScalarField;
    location    "10";
    object      p;
}
// * * * * * * * * * * * * * * * * * * * * * * * * * * * * * * * * * * * * * //

dimensions      [0 2 -2 0 0 0 0];

internalField   nonuniform List<scalar> 
6785
(
583.42
508.952
460.375
408.505
361.894
317.608
276.191
237.133
200.293
165.401
131.596
99.1987
71.1031
40.1037
1.60929
-8.05686
-25.645
-17.5166
-23.4295
-24.0275
-26.3733
-27.6242
-28.4782
-28.5173
-27.6275
-25.7537
-23.1196
-19.0243
-13.507
-10.1786
-2.62676
-6.46686
3.64622
0.712398
5.03689
5.69679
7.60172
8.80564
10.0444
11.1222
12.1674
13.0199
13.6511
14.2839
16.2127
43.0082
40.9416
44.9068
40.5561
42.3592
40.3242
40.172
39.2364
38.7249
38.2367
37.9563
37.7861
37.5833
37.2979
37.3399
28.0559
24.5201
26.2978
22.493
23.9322
21.7832
22.0136
21.1219
20.9437
20.4762
19.9827
19.2502
18.1774
16.4437
14.4006
-0.894561
-4.75296
-3.9381
-7.36921
-6.85962
-9.67072
-10.3686
-12.531
-14.1327
-16.0489
-17.6274
-18.8195
-20.0078
-20.9324
-20.1771
-13.3835
-15.5688
-13.9342
-16.3513
-15.0554
-16.9212
-16.6953
-17.7157
-18.1473
-18.6457
-18.6098
-17.9401
-16.5812
-15.3361
-13.0482
2.23064
2.36775
4.76441
4.08507
6.42049
6.49982
8.12108
9.04954
10.3556
11.6407
13.0675
14.4836
16.143
17.3816
19.4745
21.3495
22.2975
24.338
24.1867
26.2427
26.6338
28.0495
28.9803
30.0909
31.1494
32.2418
33.2533
34.366
35.1799
36.2645
34.5473
35.6382
37.2172
37.1223
38.7323
38.9853
40.0432
40.7122
41.5102
42.2802
43.0621
43.7999
44.658
45.2844
46.2834
48.814
49.9622
51.0214
51.0703
52.3431
52.4763
53.2541
53.4564
53.7414
53.9351
54.1985
54.6535
55.3064
55.8491
56.4931
57.9507
58.0413
58.4887
58.1195
58.6252
58.2203
58.3737
58.1388
58.0731
57.8823
57.6604
57.445
57.1962
57.3265
57.0794
63.3957
61.5218
60.5752
59.1698
58.7681
57.615
56.975
55.7693
54.5323
52.9132
51.219
49.6563
48.6317
48.4438
46.9205
46.5245
44.5829
42.2217
38.8384
35.5956
32.0534
29.2086
26.6481
24.8988
23.6474
23.0124
22.8637
23.3933
23.8758
22.6564
55.4483
52.0402
45.9359
38.861
31.7302
25.2731
21.4224
19.3572
18.5033
19.0452
19.8285
20.1667
19.8937
19.0599
17.7042
40.3614
40.7847
41.0918
41.088
41.2404
41.746
42.3799
42.241
42.1436
42.0814
42.5129
42.0897
41.9332
42.0756
41.534
41.3282
41.4615
41.3847
40.5421
40.8029
40.7181
40.0434
39.8418
40.3344
40.1448
39.4894
39.3352
39.8118
39.7833
39.0512
39.4311
39.5052
39.0534
38.9399
39.2781
39.3875
38.9394
39.1254
39.32
39.0705
39.0046
39.1781
39.32
39.1368
39.096
39.2113
39.3378
39.1807
39.281
39.2563
39.1517
39.158
39.2768
39.3859
39.3
39.299
39.399
39.7472
39.7127
39.6863
40.1697
40.1608
40.1051
40.015
40.3733
40.4765
40.9689
40.8506
40.2275
41.1647
41.8617
38.2257
36.5403
39.0144
39.7201
26.8096
33.7896
35.9795
7.79109
15.5971
20.0264
19.6359
23.3609
19.2831
17.17
21.7223
21.9832
23.0236
23.2107
23.5809
25.1882
28.7271
32.1443
21.5298
22.5245
25.5407
28.3622
28.0536
28.937
29.3311
31.433
40.1358
31.9089
33.9152
33.8752
35.7231
39.2969
41.1127
41.6051
42.7444
41.995
54.6977
47.712
48.526
48.3603
48.1838
49.7313
52.6937
53.4743
49.0461
56.0386
56.267
58.3243
58.585
56.962
55.2837
54.0403
55.1519
50.0873
60.1977
58.4579
53.5275
52.5176
50.7163
47.3252
44.9683
41.9536
33.6664
42.8659
46.8057
40.6996
37.8382
33.6561
28.208
23.8916
21.9646
18.7576
14.2214
14.4229
17.3495
13.4157
13.3376
12.6544
11.2284
6.32414
5.13995
7.40245
-1.43759
9.66502
7.34788
5.49959
11.1412
6.27852
8.43514
7.51328
9.23807
11.5233
7.81997
9.93505
11.4672
8.94174
9.758
9.08559
9.90042
11.4932
9.06862
9.74292
9.0107
9.83196
11.2218
8.37109
9.77923
10.9715
8.68357
9.26041
8.49649
9.21068
10.7313
8.19576
8.82098
7.93463
8.81665
10.2516
7.07254
8.62145
9.83587
7.29041
7.93143
7.01487
7.81779
9.2886
6.63676
7.3058
6.3514
7.23667
8.51409
5.50719
6.93617
7.93174
5.65683
6.22006
5.41029
6.05951
7.16802
5.00669
5.52937
4.76153
5.38949
6.2229
4.01587
4.97954
5.5116
3.91388
4.24294
3.65443
3.99073
4.45871
3.07207
3.30012
2.76659
2.99599
3.16271
1.89843
2.22412
2.15161
1.21589
1.18059
0.705779
0.703563
0.768157
0.000717846
0.00119233
0.00195306
0.00249098
0.00312068
0.0036903
0.00429041
0.004877
0.00547675
0.00607697
0.00668508
0.00729647
0.00791157
0.00852637
0.00913716
0.0097378
0.0103212
0.0108787
0.0114015
0.0118809
0.0123104
0.0126862
0.0130095
0.0132866
0.0135291
0.0137526
0.0139746
0.0142105
0.0144711
0.0147598
0.015075
0.0154166
0.0157963
0.0162461
0.0168157
0.0175551
0.0184817
0.0195463
0.020629
0.0215797
0.0222626
0.0225518
0.0223602
0.0216648
0.0204971
0.0189459
0.017121
0.0150842
0.0127683
0.00990786
0.00605047
0.000671858
-0.00670647
-0.0164483
-0.0287609
-0.0434254
-0.0584407
-0.0807198
-0.160277
-0.179464
-0.382453
-0.420574
-0.571746
-0.720735
-0.814773
-0.853377
-0.814232
-0.716152
-0.553221
-0.373976
-0.173521
-0.00161026
0.16771
0.243632
0.373322
0.343049
0.392697
0.490969
0.0821302
0.00205666
0.00339697
0.00554347
0.00709794
0.00886842
0.0104791
0.0121542
0.0137889
0.015448
0.0171024
0.0187696
0.0204388
0.0221098
0.0237716
0.0254131
0.0270164
0.0285607
0.0300211
0.0313717
0.032588
0.0336508
0.0345506
0.0352912
0.0358918
0.0363871
0.0368235
0.037252
0.0377185
0.0382535
0.0388669
0.0395535
0.0403123
0.0411769
0.0422404
0.043648
0.0455466
0.0479885
0.0508347
0.0537423
0.05629
0.0581071
0.0588566
0.0583186
0.0564642
0.0534278
0.0495215
0.0451395
0.0405664
0.0357456
0.0300673
0.0223699
0.0112297
-0.00475433
-0.0268243
-0.0560027
-0.0922878
-0.13121
-0.190419
-0.369481
-0.291804
-0.668317
-0.775002
-1.08252
-1.37783
-1.57032
-1.64721
-1.57064
-1.38079
-1.07404
-0.728473
-0.367019
-0.0310564
0.255564
0.462643
0.654529
0.732599
0.836205
0.969143
0.939967
0.00320503
0.00549106
0.00913946
0.0117755
0.0147817
0.0175146
0.0203586
0.0231342
0.025953
0.028765
0.0316007
0.0344414
0.0372876
0.0401209
0.0429226
0.0456631
0.0483075
0.0508142
0.0531398
0.0552429
0.0570913
0.0586685
0.0599805
0.0610593
0.0619628
0.0627685
0.0635623
0.0644211
0.0653961
0.0665038
0.0677345
0.0690853
0.0706118
0.0724703
0.0749058
0.0781678
0.0823467
0.0872083
0.0921722
0.0965252
0.0996365
0.100929
0.100022
0.0968505
0.0916258
0.0848543
0.0771767
0.0690439
0.060321
0.0499305
0.0358639
0.0156903
-0.012942
-0.0520725
-0.1033
-0.166158
-0.233384
-0.331306
-0.549495
-0.342687
-0.804519
-0.927197
-1.31483
-1.67749
-1.91154
-2.00068
-1.90153
-1.66716
-1.29324
-0.873403
-0.441746
-0.0350404
0.298222
0.560684
0.779678
0.895912
1.05411
1.1273
1.36426
0.0042928
0.00751622
0.0126058
0.0163121
0.0205165
0.0243453
0.0283212
0.0322022
0.0361398
0.040067
0.0440251
0.0479894
0.0519599
0.0559115
0.059818
0.0636383
0.0673235
0.0708156
0.0740536
0.0769795
0.0795481
0.0817361
0.0835519
0.0850401
0.086282
0.0873867
0.0884748
0.0896543
0.0909972
0.0925257
0.0942246
0.0960872
0.0981894
0.10075
0.104117
0.108644
0.114466
0.121255
0.128193
0.134279
0.138631
0.14044
0.139175
0.134746
0.127451
0.118009
0.107334
0.0960818
0.084088
0.069856
0.0505736
0.0228419
-0.0166171
-0.0706648
-0.141555
-0.228348
-0.321766
-0.452768
-0.668814
-0.394487
-1.0091
-1.14235
-1.61774
-2.06595
-2.35077
-2.45409
-2.32647
-2.0356
-1.57479
-1.06033
-0.534013
-0.0373482
0.364462
0.685546
0.950504
1.08623
1.30433
1.33707
1.65423
0.00527632
0.00947066
0.016001
0.0207973
0.026213
0.0311546
0.0362771
0.0412791
0.0463506
0.0514088
0.0565054
0.0616099
0.0667221
0.0718102
0.0768408
0.0817611
0.0865084
0.0910079
0.095181
0.0989528
0.102265
0.105086
0.107427
0.109345
0.110945
0.112369
0.113771
0.115292
0.117026
0.119
0.12119
0.123586
0.126279
0.129554
0.133862
0.139675
0.147175
0.155942
0.164911
0.172786
0.178428
0.180785
0.179168
0.173455
0.164025
0.151811
0.138008
0.123483
0.108044
0.0897517
0.0649545
0.0292628
-0.0215152
-0.0910328
-0.182106
-0.293036
-0.41328
-0.575263
-0.781696
-0.475653
-1.25586
-1.39727
-1.97046
-2.52133
-2.86618
-2.98546
-2.82453
-2.46786
-1.90593
-1.28131
-0.645807
-0.0434551
0.437014
0.830669
1.14491
1.31327
1.58884
1.59459
2.10327
0.00619063
0.011372
0.0193099
0.0252016
0.0318179
0.0378699
0.0441309
0.0502475
0.0564441
0.0626242
0.0688491
0.0750832
0.0813259
0.0875391
0.093682
0.0996905
0.105488
0.110983
0.116078
0.120683
0.124723
0.128162
0.131012
0.133341
0.13528
0.137001
0.138697
0.140542
0.142649
0.145051
0.147715
0.150619
0.153873
0.157824
0.163036
0.170103
0.179268
0.190017
0.20103
0.210709
0.217656
0.220572
0.218609
0.211611
0.200043
0.185062
0.168163
0.150457
0.131744
0.109655
0.0796901
0.0364835
-0.0250289
-0.109262
-0.219534
-0.353334
-0.500171
-0.691078
-0.884478
-0.608813
-1.47463
-1.64506
-2.314
-2.96897
-3.37092
-3.50168
-3.30484
-2.88249
-2.22089
-1.48999
-0.750223
-0.0462037
0.506989
0.972307
1.32967
1.53263
1.86097
1.83951
2.44107
0.00703363
0.0132271
0.0225472
0.0295445
0.0373584
0.0445258
0.0519256
0.0591589
0.066481
0.0737839
0.0811375
0.0885017
0.0958755
0.103215
0.110471
0.11757
0.12442
0.130913
0.136934
0.142374
0.147145
0.151201
0.154557
0.157294
0.159566
0.161579
0.163564
0.165728
0.168208
0.171038
0.174175
0.177582
0.181381
0.185985
0.192075
0.200384
0.211224
0.223991
0.237093
0.248621
0.256916
0.260418
0.258117
0.249818
0.236068
0.218263
0.198214
0.177305
0.155349
0.129539
0.0945085
0.0439247
-0.0281003
-0.1267
-0.255596
-0.411533
-0.585435
-0.803422
-0.982924
-0.797042
-1.66498
-1.90119
-2.66286
-3.4272
-3.8847
-4.02213
-3.78535
-3.29502
-2.53142
-1.69445
-0.85077
-0.0457753
0.578337
1.1147
1.51247
1.74845
2.12532
2.07602
2.78718
0.00781769
0.0150446
0.0257147
0.0338247
0.0428277
0.0511116
0.0596459
0.0679939
0.0764374
0.0848595
0.0933373
0.101827
0.110328
0.118789
0.127156
0.135341
0.143241
0.150729
0.157672
0.163943
0.169439
0.174107
0.177959
0.181093
0.183684
0.185976
0.188236
0.190708
0.193552
0.196804
0.200405
0.2043
0.208618
0.21384
0.220771
0.230298
0.242821
0.257639
0.272875
0.2863
0.295984
0.300098
0.297466
0.287848
0.271875
0.25119
0.22795
0.203841
0.178721
0.149344
0.10946
0.0517965
-0.0302946
-0.142615
-0.289209
-0.466358
-0.66758
-0.910622
-1.08357
-1.04918
-1.83141
-2.17833
-3.03008
-3.91391
-4.42723
-4.56613
-4.28395
-3.7209
-2.84947
-1.90295
-0.952128
-0.0433202
0.652456
1.26232
1.69866
1.96944
2.38993
2.31358
3.11733
0.00854761
0.0168307
0.0288192
0.0380493
0.0482335
0.0576356
0.0673011
0.0767627
0.0863249
0.0958639
0.105463
0.115076
0.124701
0.134282
0.143758
0.153029
0.161978
0.170462
0.178328
0.185429
0.191649
0.196922
0.201265
0.204785
0.207684
0.21024
0.212764
0.215536
0.218737
0.222408
0.226468
0.230838
0.235651
0.241452
0.249186
0.259909
0.274125
0.291042
0.308471
0.323852
0.334979
0.339739
0.336785
0.325822
0.307565
0.283917
0.257403
0.230056
0.201803
0.168956
0.124367
0.0598562
-0.0319088
-0.15735
-0.320781
-0.518448
-0.747118
-1.01403
-1.19999
-1.37618
-1.97231
-2.47823
-3.41553
-4.43033
-4.99899
-5.13199
-4.79789
-4.157
-3.17183
-2.11293
-1.05256
-0.0379749
0.729081
1.41475
1.88646
2.19501
2.65281
2.5592
3.39418
0.00923016
0.0185911
0.0318652
0.0422212
0.053577
0.0640978
0.0748899
0.0854632
0.0961401
0.106793
0.117509
0.128243
0.138988
0.149687
0.160268
0.170625
0.180622
0.190101
0.198889
0.20682
0.213759
0.219633
0.224457
0.228351
0.231544
0.234349
0.237121
0.24018
0.243732
0.247818
0.252331
0.257162
0.262439
0.268777
0.277266
0.289158
0.305082
0.324151
0.343842
0.361247
0.373878
0.379321
0.376052
0.363711
0.343094
0.316374
0.286476
0.255816
0.224426
0.188174
0.139001
0.0678712
-0.0331516
-0.171066
-0.350461
-0.568072
-0.824008
-1.11529
-1.34006
-1.75257
-2.06986
-2.79874
-3.8214
-4.98037
-5.60371
-5.72084
-5.32697
-4.60244
-3.49713
-2.32318
-1.15102
-0.0291149
0.808331
1.5719
2.07514
2.4245
2.91271
2.80137
3.70141
0.00987021
0.0203305
0.0348575
0.0463449
0.0588622
0.0705018
0.0824155
0.0940981
0.105886
0.117648
0.129479
0.141328
0.153192
0.165006
0.176692
0.188132
0.199179
0.209653
0.219363
0.228122
0.235779
0.242248
0.247544
0.2518
0.25527
0.258307
0.261312
0.264646
0.268542
0.273039
0.278002
0.283278
0.288988
0.295813
0.305006
0.318035
0.335685
0.356971
0.379003
0.398511
0.412716
0.418884
0.415306
0.401544
0.378468
0.34853
0.31508
0.280968
0.246364
0.206688
0.15297
0.0753818
-0.0345267
-0.18431
-0.378913
-0.616098
-0.899045
-1.21715
-1.49845
-2.08423
-2.10288
-3.14194
-4.25261
-5.57144
-6.24955
-6.33814
-5.87482
-5.05973
-3.82669
-2.53448
-1.24765
-0.0166312
0.890687
1.73441
2.26501
2.65887
3.17019
3.03858
4.00763
0.0104725
0.0220527
0.0378003
0.0504236
0.0640914
0.0768494
0.089879
0.102668
0.115562
0.128431
0.141371
0.154333
0.167311
0.180237
0.193027
0.20555
0.217646
0.229116
0.23975
0.249337
0.257708
0.264766
0.270524
0.275127
0.278858
0.282109
0.285328
0.288924
0.293156
0.298062
0.30347
0.309177
0.315284
0.322542
0.332377
0.346508
0.365905
0.389482
0.413944
0.435647
0.451503
0.458442
0.454558
0.439317
0.41365
0.380294
0.343056
0.305265
0.267269
0.224047
0.165726
0.0817761
-0.0366762
-0.19776
-0.406942
-0.663519
-0.973359
-1.3218
-1.66301
-2.29058
-2.11719
-3.52533
-4.71313
-6.21071
-6.94489
-6.98926
-6.44454
-5.53069
-4.16117
-2.74703
-1.34221
-0.000104547
0.976156
1.90286
2.4565
2.89895
3.42527
3.28792
4.27015
0.0110409
0.0237612
0.0406977
0.0544608
0.0692678
0.0831428
0.0972823
0.111174
0.125169
0.139141
0.153186
0.167257
0.181346
0.195382
0.209273
0.22288
0.236025
0.248494
0.260051
0.270467
0.27955
0.287191
0.293401
0.298336
0.302307
0.305751
0.309166
0.313009
0.317571
0.322883
0.328733
0.334857
0.341323
0.348952
0.35936
0.374552
0.39572
0.421673
0.448667
0.472664
0.490258
0.498015
0.493823
0.47702
0.448585
0.411539
0.370179
0.328365
0.286668
0.23964
0.176549
0.0862787
-0.0403967
-0.212259
-0.435549
-0.711545
-1.04854
-1.43129
-1.83182
-2.43137
-2.18882
-3.92356
-5.20912
-6.90511
-7.69841
-7.67985
-7.03915
-6.01676
-4.50083
-2.96091
-1.43431
0.0205354
1.06617
2.07758
2.64873
3.14579
3.67772
3.52855
4.5592
0.0115789
0.0254588
0.0435536
0.0584594
0.0743937
0.089384
0.104627
0.119618
0.134708
0.149778
0.164923
0.180099
0.195296
0.210439
0.225431
0.240121
0.254317
0.267785
0.280269
0.291513
0.301306
0.309525
0.316175
0.321426
0.325617
0.32923
0.332819
0.336893
0.341777
0.347497
0.353788
0.360313
0.367098
0.375029
0.38593
0.402135
0.425101
0.453527
0.483166
0.509569
0.528994
0.537616
0.533097
0.514614
0.483166
0.442063
0.396123
0.349799
0.303933
0.252699
0.18459
0.088032
-0.0465291
-0.228679
-0.465749
-0.761409
-1.12638
-1.54783
-2.00848
-2.5779
-2.41975
-4.31764
-5.75652
-7.66162
-8.51969
-8.41651
-7.66252
-6.51976
-4.84622
-3.17671
-1.52357
0.0449311
1.1629
2.25782
2.8447
3.39857
3.92793
3.77517
4.83307
0.0120896
0.027148
0.0463712
0.0624224
0.0794717
0.0955749
0.111914
0.128
0.14418
0.160342
0.176583
0.192859
0.20916
0.225408
0.241499
0.257273
0.272521
0.286992
0.300404
0.312478
0.32298
0.331768
0.338847
0.344396
0.348785
0.352543
0.356282
0.360571
0.36577
0.371897
0.378631
0.385543
0.392602
0.400757
0.412062
0.429225
0.454019
0.485027
0.517435
0.546367
0.56772
0.577248
0.572357
0.552017
0.517221
0.471569
0.420448
0.368963
0.318294
0.262339
0.188949
0.0861903
-0.0558655
-0.247832
-0.498481
-0.814262
-1.2086
-1.67316
-2.19617
-2.77154
-2.86863
-4.72814
-6.37791
-8.48803
-9.41897
-9.20651
-8.31931
-7.04191
-5.19818
-3.395
-1.60959
0.0734209
1.2668
2.44262
3.04939
3.65614
4.1756
4.01997
5.08598
0.0125755
0.0288311
0.0491537
0.0663522
0.0845042
0.101717
0.119145
0.136321
0.153585
0.170834
0.188165
0.205537
0.222938
0.240288
0.257478
0.274335
0.290639
0.306115
0.320458
0.333364
0.344572
0.353924
0.361419
0.367247
0.371809
0.375684
0.379549
0.384034
0.38954
0.396078
0.403258
0.410545
0.41783
0.426125
0.43773
0.455784
0.482442
0.516155
0.551467
0.58306
0.606438
0.616893
0.611538
0.589077
0.550474
0.499641
0.442584
0.385123
0.328878
0.26765
0.18879
0.0800368
-0.0690388
-0.270353
-0.534486
-0.871048
-1.29665
-1.8086
-2.39813
-3.0347
-3.52049
-5.136
-7.0828
-9.39353
-10.4075
-10.0576
-9.01482
-7.58572
-5.55744
-3.61592
-1.69201
0.106509
1.3781
2.63239
3.26295
3.91967
4.4208
4.26095
5.37349
0.0130389
0.0305097
0.0519041
0.0702512
0.0894931
0.107812
0.126321
0.144582
0.162923
0.181254
0.199668
0.218131
0.236628
0.255079
0.273365
0.291308
0.308669
0.325154
0.340432
0.354171
0.366085
0.375995
0.383892
0.389979
0.394688
0.398651
0.402612
0.407274
0.41308
0.420033
0.427666
0.435317
0.442778
0.451117
0.462904
0.481774
0.510333
0.546888
0.585252
0.619644
0.645132
0.656498
0.650506
0.625538
0.582524
0.525728
0.46184
0.397455
0.334797
0.267816
0.183463
0.0690852
-0.0864381
-0.296629
-0.574239
-0.932414
-1.39155
-1.95517
-2.61724
-3.36324
-4.24366
-5.48248
-7.86354
-10.3873
-11.4981
-10.9782
-9.75495
-8.15417
-5.92452
-3.83945
-1.77045
0.144606
1.49731
2.82768
3.48503
4.18839
4.66576
4.51571
5.64381
0.0134818
0.0321857
0.0546249
0.0741216
0.0944405
0.113862
0.133443
0.152783
0.172194
0.191601
0.211093
0.230642
0.250231
0.269778
0.289161
0.30819
0.326611
0.344109
0.360327
0.374903
0.387521
0.397983
0.406269
0.412593
0.41742
0.421438
0.425465
0.430282
0.436382
0.443758
0.451854
0.459859
0.467443
0.475721
0.487556
0.507151
0.537654
0.577204
0.618774
0.656101
0.683757
0.695945
0.689023
0.661003
0.612817
0.549152
0.477441
0.405132
0.335277
0.262244
0.172605
0.0531508
-0.108153
-0.326749
-0.6179
-0.998661
-1.49383
-2.11344
-2.85523
-3.73778
-4.88594
-5.79821
-8.74886
-11.4775
-12.7044
-11.9768
-10.546
-8.7508
-6.30002
-4.06564
-1.84455
0.188132
1.6249
3.02881
3.71615
4.46091
4.91319
4.76676
5.89555
0.0139056
0.0338604
0.0573185
0.0779652
0.0993482
0.119867
0.140511
0.160924
0.181398
0.201874
0.222438
0.243067
0.263744
0.284386
0.304864
0.32498
0.344465
0.362981
0.380144
0.39556
0.408882
0.419888
0.428549
0.435087
0.440002
0.44404
0.448101
0.453048
0.459435
0.467244
0.475818
0.484172
0.491824
0.499924
0.511652
0.531867
0.564361
0.607073
0.652008
0.692393
0.722212
0.735017
0.726698
0.694901
0.640644
0.569138
0.488612
0.407449
0.329785
0.250667
0.156195
0.0323814
-0.133955
-0.360489
-0.665306
-1.06973
-1.60354
-2.28352
-3.11277
-4.14565
-5.45048
-6.18317
-9.77792
-12.6754
-14.0407
-13.0619
-11.3945
-9.37964
-6.68488
-4.29459
-1.91393
0.23755
1.76124
3.23618
3.95678
4.73766
5.16511
5.01567
6.18908
0.0143118
0.0355352
0.059987
0.0817838
0.104218
0.12583
0.147528
0.169007
0.190535
0.212074
0.233702
0.255406
0.277165
0.298899
0.320472
0.341677
0.362229
0.381769
0.399883
0.416143
0.430171
0.441715
0.450736
0.457463
0.462432
0.466452
0.470509
0.475562
0.48223
0.490486
0.499557
0.508259
0.51592
0.523712
0.535159
0.55587
0.590405
0.636459
0.684912
0.728433
0.760304
0.773341
0.762946
0.726466
0.665167
0.584899
0.494707
0.403953
0.318126
0.233178
0.13456
0.00724761
-0.163314
-0.397334
-0.715994
-1.14521
-1.72025
-2.46495
-3.39011
-4.58476
-6.01146
-6.74892
-10.9105
-13.9983
-15.5207
-14.2414
-12.3072
-10.0449
-7.08034
-4.52638
-1.97819
0.293336
1.90673
3.45025
4.20718
5.01927
5.42235
5.2915
6.46528
0.0147014
0.0372112
0.0626325
0.0855789
0.109051
0.13175
0.154493
0.177031
0.199605
0.222199
0.244885
0.267657
0.290494
0.313317
0.335984
0.358279
0.379903
0.400473
0.419545
0.436655
0.451388
0.463465
0.472829
0.479721
0.484708
0.488668
0.492683
0.497814
0.504756
0.513475
0.523071
0.532123
0.539734
0.547075
0.558038
0.579101
0.61573
0.665314
0.717409
0.764062
0.797697
0.81034
0.796952
0.754756
0.685498
0.595768
0.495347
0.394541
0.30047
0.210223
0.108343
-0.0215017
-0.195451
-0.436529
-0.769249
-1.22441
-1.84315
-2.6568
-3.68668
-5.0532
-6.59378
-7.55467
-12.1233
-15.4675
-17.1602
-15.5227
-13.2907
-10.7509
-7.48792
-4.76114
-2.03694
0.355966
2.0617
3.67148
4.46753
5.30577
5.68453
5.5596
6.71441
0.0150754
0.0388895
0.0652566
0.089352
0.113849
0.137628
0.161407
0.184996
0.208608
0.232248
0.255984
0.279819
0.303729
0.327636
0.351397
0.374785
0.397486
0.419093
0.43913
0.457096
0.472537
0.48514
0.494832
0.50186
0.506827
0.510683
0.514611
0.519789
0.527
0.536204
0.546357
0.55577
0.56327
0.570001
0.58025
0.601493
0.640268
0.693565
0.749364
0.798992
0.833846
0.845178
0.827667
0.778719
0.700845
0.601363
0.490519
0.379473
0.277322
0.182538
0.0784319
-0.0529086
-0.229403
-0.477145
-0.824158
-1.30636
-1.97109
-2.85762
-4.00079
-5.54627
-7.21152
-8.63295
-13.4058
-17.1134
-18.9788
-16.9126
-14.3518
-11.5019
-7.90929
-4.99903
-2.08981
0.425917
2.22648
3.90037
4.73799
5.59712
5.95281
5.84179
6.99922
0.0154344
0.0405711
0.0678608
0.0931044
0.118612
0.143466
0.16827
0.192902
0.217543
0.242222
0.267
0.291889
0.316867
0.341856
0.366709
0.391192
0.414975
0.437627
0.458639
0.477468
0.493618
0.506742
0.516746
0.523881
0.528788
0.53249
0.536283
0.541476
0.54895
0.558664
0.569417
0.579207
0.586535
0.592481
0.601751
0.62297
0.663935
0.721097
0.78054
0.832748
0.867944
0.876743
0.853861
0.797347
0.710707
0.601703
0.480587
0.359316
0.249435
0.151063
0.0458754
-0.0858885
-0.264102
-0.518145
-0.879677
-1.38993
-2.10262
-3.06553
-4.32952
-6.05691
-7.87654
-9.99944
-14.7347
-18.9693
-21.0011
-18.4177
-15.4969
-12.3019
-8.3461
-5.24029
-2.1364
0.503657
2.40136
4.13738
5.01863
5.89338
6.22747
6.12463
7.2316
0.0157788
0.042257
0.0704466
0.096837
0.123343
0.149264
0.175083
0.200748
0.226408
0.252117
0.277929
0.303866
0.329905
0.355973
0.381917
0.407498
0.432369
0.456075
0.478071
0.497771
0.514635
0.528274
0.538573
0.545784
0.550587
0.554083
0.557689
0.562858
0.57059
0.580847
0.59225
0.602445
0.60954
0.614509
0.622493
0.643441
0.686615
0.74772
0.810541
0.864598
0.898879
0.903668
0.874268
0.80991
0.715037
0.597224
0.466219
0.334845
0.217708
0.116847
0.0117938
-0.119312
-0.298447
-0.558449
-0.934685
-1.47383
-2.23611
-3.27832
-4.66883
-6.57702
-8.59613
-11.584
-16.0174
-21.0391
-23.2547
-20.0447
-16.7318
-13.1548
-8.79976
-5.48529
-2.17632
0.58964
2.58658
4.38299
5.30946
6.19443
6.50918
6.40545
7.51494
0.0161091
0.043948
0.0730151
0.100551
0.128041
0.155022
0.181844
0.208535
0.235204
0.261934
0.28877
0.315747
0.342842
0.369984
0.397019
0.4237
0.449665
0.474434
0.497425
0.518007
0.535588
0.549738
0.560314
0.56757
0.572222
0.575455
0.578816
0.583921
0.591904
0.602741
0.614857
0.625494
0.632297
0.636075
0.642418
0.662792
0.70814
0.773117
0.838742
0.893509
0.925231
0.924445
0.887852
0.816197
0.714292
0.588695
0.448262
0.306927
0.183082
0.08095
-0.0227053
-0.152076
-0.33136
-0.59698
-0.988044
-1.55674
-2.36984
-3.49353
-5.01409
-7.0995
-9.36698
-13.1848
-17.1604
-23.3136
-25.7667
-21.8008
-18.0617
-14.0634
-9.27126
-5.7345
-2.20919
0.684296
2.78237
4.63763
5.61041
6.50034
6.79884
6.71276
7.78752
0.0164253
0.0456449
0.0755673
0.104247
0.132708
0.160741
0.188556
0.216261
0.243929
0.27167
0.299521
0.32753
0.355674
0.383886
0.412011
0.439795
0.466861
0.492703
0.516701
0.538175
0.55648
0.571137
0.581972
0.589239
0.593691
0.596598
0.599651
0.604646
0.612875
0.624335
0.637238
0.648369
0.654825
0.657176
0.66146
0.680873
0.72825
0.796788
0.864245
0.918117
0.945327
0.937694
0.894133
0.816614
0.709325
0.577062
0.427614
0.276402
0.146443
0.0443677
-0.0565898
-0.183144
-0.361822
-0.632706
-1.03866
-1.6374
-2.50215
-3.70874
-5.36065
-7.61949
-10.1764
-14.5902
-18.2551
-25.8528
-28.5654
-23.6935
-19.4911
-15.0299
-9.76112
-5.98842
-2.23464
0.788033
2.9889
4.90167
5.92137
6.81101
7.096
7.01053
8.01204
0.0167275
0.0473485
0.078104
0.107926
0.137344
0.16642
0.195216
0.223926
0.252582
0.281323
0.310181
0.339213
0.368398
0.397676
0.426889
0.455779
0.483953
0.51088
0.535899
0.558277
0.577312
0.592473
0.60355
0.610792
0.61499
0.617505
0.62018
0.625015
0.633483
0.645616
0.659396
0.671087
0.677145
0.677803
0.679531
0.697473
0.746549
0.817998
0.885841
0.936729
0.957468
0.942577
0.893395
0.812094
0.701204
0.563303
0.405115
0.244003
0.108546
0.0079729
-0.0889396
-0.21158
-0.388899
-0.664697
-1.08558
-1.71476
-2.63168
-3.92189
-5.70461
-8.13485
-11.0139
-15.7923
-19.4611
-28.6582
-31.6832
-25.7307
-21.0246
-16.0554
-10.2694
-6.24741
-2.25226
0.901239
3.20629
5.1754
6.24213
7.12624
7.40144
7.30095
8.29284
0.0170155
0.0490597
0.0806261
0.111588
0.141949
0.17206
0.201825
0.23153
0.261162
0.290893
0.320745
0.350791
0.381011
0.411349
0.441649
0.471648
0.500938
0.528962
0.555016
0.578313
0.598087
0.613748
0.625049
0.632231
0.636118
0.638168
0.640388
0.645005
0.653704
0.666569
0.68133
0.693666
0.699279
0.697944
0.696507
0.712284
0.762454
0.835766
0.901984
0.947435
0.960375
0.939148
0.886631
0.803858
0.691027
0.548316
0.381468
0.210282
0.069969
-0.0275078
-0.118957
-0.236547
-0.411782
-0.692206
-1.12818
-1.78824
-2.75776
-4.13182
-6.0437
-8.64694
-11.8732
-16.8577
-20.9609
-31.6223
-35.1624
-27.9193
-22.6665
-17.1401
-10.7955
-6.51147
-2.26159
1.0243
3.43459
5.459
6.57246
7.44617
7.71624
7.6234
8.56662
0.0172892
0.0507791
0.0831341
0.115233
0.146524
0.17766
0.208382
0.23907
0.269667
0.300376
0.331212
0.362263
0.393508
0.424902
0.456287
0.487397
0.517812
0.546946
0.574051
0.598282
0.618805
0.634965
0.646473
0.653555
0.657073
0.658578
0.660258
0.664593
0.673515
0.687177
0.703041
0.716126
0.721253
0.71757
0.712202
0.724861
0.775205
0.848848
0.910763
0.948498
0.953717
0.928409
0.875254
0.793177
0.679796
0.532855
0.357192
0.175585
0.031102
-0.0614925
-0.14596
-0.257333
-0.429851
-0.714824
-1.16637
-1.85809
-2.88081
-4.33881
-6.37805
-9.16033
-12.7489
-17.845
-22.8919
-34.7035
-39.063
-30.2663
-24.4215
-18.2829
-11.3383
-6.78001
-2.26199
1.15762
3.67381
5.75252
6.91203
7.7709
8.0388
7.92904
8.78085
0.0175481
0.0525075
0.0856285
0.118863
0.151068
0.18322
0.214886
0.246545
0.278095
0.30977
0.34158
0.373623
0.405886
0.43833
0.470798
0.503023
0.534571
0.564828
0.593003
0.618185
0.639468
0.656128
0.667824
0.674768
0.677851
0.678726
0.679774
0.683755
0.692887
0.707421
0.724528
0.738484
0.743081
0.736614
0.726326
0.734624
0.783906
0.855643
0.910093
0.939021
0.938369
0.911989
0.860771
0.78121
0.668358
0.517499
0.332615
0.140042
-0.00784799
-0.0935263
-0.169385
-0.273395
-0.442813
-0.732713
-1.20094
-1.92573
-3.00278
-4.54501
-6.71062
-9.68158
-13.6359
-18.8353
-25.4516
-37.9322
-43.4804
-32.7799
-26.2933
-19.4817
-11.8957
-7.05171
-2.25264
1.30167
3.92388
6.05586
7.26043
8.1003
8.37023
8.24636
9.05886
0.0177917
0.0542455
0.0881096
0.122477
0.155582
0.18874
0.221337
0.253955
0.286444
0.319074
0.351843
0.38487
0.418141
0.451627
0.485176
0.518519
0.551208
0.582604
0.611868
0.638021
0.660077
0.677238
0.689105
0.69587
0.698452
0.698605
0.698916
0.702461
0.711789
0.727277
0.745784
0.760752
0.764757
0.754931
0.738451
0.740955
0.787485
0.854089
0.898356
0.919507
0.916139
0.8917
0.844556
0.768933
0.657382
0.502667
0.307885
0.103587
-0.0468325
-0.123265
-0.188808
-0.284467
-0.450915
-0.746919
-1.23393
-1.99417
-3.12747
-4.75467
-7.04701
-10.2178
-14.5305
-19.932
-28.842
-41.2929
-48.5067
-35.4716
-28.2838
-20.7325
-12.465
-7.32444
-2.23235
1.45706
4.18469
6.36876
7.61719
8.43462
8.70981
8.55639
9.27031
0.0180195
0.0559938
0.0905777
0.126076
0.160066
0.194219
0.227734
0.261298
0.294712
0.328283
0.362001
0.395998
0.430267
0.464789
0.499416
0.533878
0.56772
0.600271
0.630644
0.657789
0.680635
0.698299
0.71032
0.716863
0.718873
0.718204
0.717665
0.720681
0.730184
0.746715
0.766797
0.78292
0.786215
0.77223
0.748074
0.743337
0.784417
0.841992
0.875287
0.891813
0.889188
0.869195
0.827752
0.757127
0.647395
0.488652
0.283001
0.0659764
-0.0859413
-0.150481
-0.204019
-0.290747
-0.455245
-0.759743
-1.26899
-2.06822
-3.26047
-4.9738
-7.39461
-10.7758
-15.4343
-21.2266
-32.9581
-44.5567
-54.1282
-38.3538
-30.3928
-22.0307
-13.0427
-7.59527
-2.19955
1.62457
4.4561
6.69075
7.98175
8.77396
9.05723
8.86206
9.5326
0.0182307
0.0577532
0.0930328
0.129658
0.164518
0.199655
0.234074
0.268571
0.302898
0.337395
0.372048
0.407003
0.44226
0.47781
0.513511
0.549096
0.584098
0.617822
0.649326
0.677488
0.701141
0.719312
0.731472
0.737751
0.739113
0.737515
0.735999
0.738379
0.748031
0.7657
0.787538
0.804939
0.807261
0.78802
0.754813
0.741182
0.772464
0.818
0.842408
0.858481
0.859505
0.845831
0.811265
0.746413
0.638816
0.475662
0.257845
0.0268054
-0.125394
-0.175098
-0.215167
-0.293175
-0.458108
-0.775094
-1.31153
-2.15434
-3.40866
-5.20934
-7.76144
-11.3619
-16.355
-22.7557
-37.2237
-47.5444
-60.2839
-41.4311
-32.6164
-23.3705
-13.6247
-7.8604
-2.15218
1.80529
4.738
7.02122
8.35347
9.11848
9.4126
9.19672
9.79259
0.0184245
0.0595243
0.0954749
0.133225
0.168939
0.205049
0.240357
0.275773
0.310998
0.346408
0.381981
0.417881
0.454115
0.490684
0.527455
0.564165
0.600338
0.635251
0.667912
0.697116
0.721596
0.740282
0.752564
0.758535
0.759171
0.756528
0.753895
0.755518
0.765282
0.784182
0.807948
0.826662
0.827461
0.80169
0.758511
0.733149
0.749184
0.782591
0.80248
0.82194
0.828684
0.822662
0.795798
0.737298
0.632015
0.463867
0.232203
-0.0144871
-0.165554
-0.197284
-0.222984
-0.293794
-0.463394
-0.798705
-1.36865
-2.26005
-3.57918
-5.46814
-8.15485
-11.9814
-17.3031
-24.5055
-41.0635
-50.5181
-67.0427
-44.6898
-34.9465
-24.745
-14.2061
-8.11522
-2.08773
2.00069
5.03035
7.35939
8.73157
9.46828
9.77364
9.51438
9.99471
0.0186
0.0613078
0.0979041
0.136776
0.173329
0.210399
0.246582
0.282903
0.319009
0.355317
0.391795
0.428627
0.465824
0.503403
0.541239
0.579076
0.61643
0.652552
0.686396
0.71667
0.742002
0.76121
0.773601
0.77922
0.779047
0.775234
0.771328
0.772053
0.781878
0.802092
0.827909
0.847747
0.846076
0.812809
0.758949
0.717359
0.714163
0.738369
0.758406
0.784141
0.797927
0.80047
0.781913
0.730243
0.627366
0.453442
0.205784
-0.0586229
-0.206958
-0.217601
-0.22911
-0.296144
-0.476853
-0.838031
-1.44838
-2.39272
-3.7783
-5.75582
-8.58051
-12.6375
-18.2884
-26.453
-44.4694
-53.9141
-74.3811
-48.1119
-37.3685
-26.146
-14.7812
-8.3544
-2.00326
2.21267
5.33327
7.70432
9.1152
9.82307
10.1402
9.82253
10.2644
0.0187562
0.0631043
0.10032
0.14031
0.177685
0.215704
0.252746
0.289956
0.32693
0.364119
0.401488
0.439236
0.477383
0.515962
0.554857
0.593821
0.632366
0.669718
0.704773
0.736149
0.762357
0.782098
0.794585
0.799807
0.79874
0.793622
0.788271
0.787935
0.797747
0.819323
0.847176
0.867513
0.862179
0.821132
0.754696