/*--------------------------------*- C++ -*----------------------------------*\
| =========                 |                                                 |
| \\      /  F ield         | OpenFOAM: The Open Source CFD Toolbox           |
|  \\    /   O peration     | Version:  4.1                                   |
|   \\  /    A nd           | Web:      www.OpenFOAM.org                      |
|    \\/     M anipulation  |                                                 |
\*---------------------------------------------------------------------------*/
FoamFile
{
    version     2.0;
    format      ascii;
    class       volScalarField;
    location    "15";
    object      p;
}
// * * * * * * * * * * * * * * * * * * * * * * * * * * * * * * * * * * * * * //

dimensions      [0 2 -2 0 0 0 0];

internalField   nonuniform List<scalar> 
6785
(
534.785
481.388
429.556
381.145
336.254
294.237
254.882
217.878
182.784
149.419
118.477
90.3384
61.3095
26.3906
-2.76228
68.3513
46.09
40.3311
36.6208
31.1466
25.4389
20.2858
15.8969
12.4128
9.9539
8.76246
9.26399
11.3604
13.2319
13.492
-34.4326
-41.0761
-35.3094
-31.1627
-28.0723
-24.4771
-20.591
-16.6539
-12.7498
-9.03413
-5.68884
-2.62201
0.454556
3.10721
4.34129
11.7008
9.2823
13.8747
14.1987
14.2521
14.467
14.3777
14.0002
13.4185
12.6591
11.7021
10.5925
9.68187
9.52924
9.83945
28.1349
25.8012
27.3543
25.2558
23.8362
22.592
21.1814
19.7987
18.5405
17.4487
16.547
15.8338
15.3556
15.3223
15.567
18.9193
16.8938
17.8651
16.6437
16.4381
16.4201
16.3302
16.3613
16.515
16.7567
17.0743
17.4358
17.7545
18.0107
18.1851
15.4749
14.3144
15.3926
15.0639
15.4442
15.8329
16.1266
16.4722
16.8242
17.1448
17.4308
17.6814
17.8571
17.9365
17.9511
17.201
16.6356
17.4735
17.2314
17.4155
17.5163
17.5289
17.5635
17.5785
17.565
17.5335
17.4989
17.4601
17.4108
17.3599
17.6101
17.2727
17.7488
17.4437
17.4565
17.4019
17.3038
17.2352
17.1605
17.0827
17.008
16.9416
16.8842
16.8307
16.7738
16.404
16.1816
16.4633
16.2288
16.2454
16.21
16.1543
16.1229
16.0851
16.0465
16.0086
15.9693
15.9273
15.8784
15.8103
15.3448
15.1965
15.375
15.2098
15.2239
15.1848
15.1301
15.0882
15.0354
14.9789
14.92
14.8577
14.7924
14.7234
14.6331
14.4211
14.3564
14.4455
14.2585
14.2013
14.1054
14.0037
13.9085
13.804
13.6977
13.5906
13.4828
13.3795
13.2861
13.1768
15.3602
15.2284
15.0458
14.6403
14.3548
14.0367
13.7073
13.3895
13.0788
12.7865
12.5139
12.2665
12.0487
11.8756
11.7176
12.969
13.4027
13.7307
13.506
13.0895
12.6052
12.152
11.7378
11.3354
10.936
10.5398
10.1453
9.76066
9.3996
9.03326
29.7362
29.4277
28.6763
26.1536
22.6082
19.034
15.727
12.7742
10.0817
7.77568
5.78127
4.1024
2.75426
1.74792
0.938451
35.0683
34.0131
34.8862
34.1075
33.6268
32.4342
33.3482
32.1757
31.3806
30.4011
31.2107
29.1872
26.8256
28.2654
26.2557
24.5431
24.0676
25.2112
21.8952
19.5146
21.7967
19.337
17.184
17.7688
19.8667
16.7428
14.5056
15.6689
18.4609
15.194
13.4601
17.0503
15.2747
13.4335
14.3309
17.5384
15.3259
14.183
17.7148
16.7692
15.6482
16.5641
19.5829
18.6888
17.9322
18.9649
21.8053
21.2244
21.061
23.5103
23.5297
23.3847
24.0642
25.922
25.8404
25.7108
26.2091
28.0341
28.1161
28.1019
29.9807
30.264
30.1463
30.0547
31.2555
31.4059
31.2217
31.5301
31.3747
32.0259
32.5664
29.9386
29.2244
29.7118
27.0686
21.6911
23.9941
17.1857
-0.853121
5.1045
9.06175
9.31292
9.9801
4.66212
7.06246
10.4385
11.1838
11.2547
10.9552
11.3328
12.9934
14.5049
15.141
9.76012
10.3199
12.0728
13.3905
13.3245
13.3217
13.2214
13.5543
16.6398
13.9723
14.249
14.1628
14.7827
15.985
16.5553
16.3577
15.8035
15.3847
19.9775
18.6749
18.5652
17.9926
17.5626
18.2381
18.9402
17.9335
16.2787
19.3396
21.3596
22.0417
21.92
20.8695
19.8158
18.7493
17.8429
17.0909
23.7226
23.7397
21.7868
20.9818
20.0718
18.5744
16.4592
13.4939
11.6341
18.1582
20.8877
18.189
16.1669
13.3581
9.71597
6.90668
4.91605
3.02242
2.70399
3.27639
7.19714
5.4914
5.26354
4.79561
2.89841
-0.0807186
-0.968984
-0.0324997
-4.52374
2.67199
2.07425
1.74551
4.0802
4.75892
5.70373
6.25494
7.03388
7.46344
7.59707
8.00472
8.02905
8.10262
8.18051
8.10286
8.26307
8.05571
8.43985
8.474
8.26157
8.43654
8.23897
8.98021
8.75368
7.80459
8.58841
8.20461
7.45634
7.45881
7.20461
8.50289
7.72239
6.53218
6.41836
6.14699
7.73382
6.89422
5.09962
6.59181
5.82521
4.58279
4.59915
4.47948
6.6197
5.35293
3.63272
3.6048
3.55394
5.89493
4.63157
2.27899
4.43539
3.54572
2.03941
2.13652
2.14476
4.86572
3.20214
1.09088
1.19716
1.39892
4.29968
2.70386
-0.0811383
2.58973
1.61179
-0.0770337
0.0918951
0.19678
3.3822
1.33583
-1.12759
-0.94485
-0.591564
2.8268
0.818873
-2.48647
0.739486
-0.620834
-2.70414
-2.68184
-2.10806
0.00211313
0.00353211
0.00445064
0.00377031
0.00346827
0.0038567
0.00536311
0.00732172
0.00608981
0.00595697
0.00560459
0.00339742
0.00119145
-0.000373783
-0.00202283
-0.00406416
-0.00627784
-0.00808251
-0.00908751
-0.00810662
-0.00425259
0.00508884
0.0203502
0.0380245
0.0405892
0.0951935
0.0932722
0.0437858
0.0861316
-0.0407506
-0.0872116
-0.174566
-0.21024
-0.118803
-0.0622146
-0.00359087
0.0190696
0.0571259
0.0676501
0.0716549
0.0662997
0.0535349
0.0418095
0.00444459
0.0476087
0.129939
0.363577
0.207169
0.0763058
0.0356812
0.0376367
0.0093011
0.0121278
0.0724073
-0.332956
-0.351792
-0.311322
-0.308036
0.150973
0.105464
-0.0355744
-0.183057
-0.0509401
-0.0110811
-0.13235
-0.214047
-0.201671
-0.0504653
-0.00831657
-0.0444763
-0.0874058
0.0441251
-0.0304294
-0.0372637
-0.0302517
0.0373302
0.0243707
0.0286799
0.0400723
0.00194933
0.00340763
0.00485192
0.00417373
0.00409169
0.00475437
0.00670703
0.00918633
0.00775508
0.00794723
0.00800343
0.0058931
0.00435467
0.00245575
0.00110994
-0.000485711
-0.00223122
-0.00333701
-0.0033629
-0.000747697
0.00577574
0.0196377
0.0416147
0.0689906
0.0877412
0.14118
0.124922
0.0605471
0.0680461
-0.0819788
-0.161907
-0.280682
-0.328768
-0.221141
-0.142129
-0.0568083
-0.0367552
0.0244042
0.0552099
0.0745519
0.0805893
0.0836777
0.0891277
0.0757677
0.162197
0.260642
0.597048
0.37423
0.15405
0.0707459
0.0675574
0.0300012
0.0371202
0.081107
-0.249947
-0.288674
-0.34016
-0.371682
0.249818
0.112815
-0.0507064
-0.225289
-0.0587397
-0.0435139
-0.190764
-0.31369
-0.318137
0.0125644
0.183504
-0.0764097
-0.155052
0.066675
0.120523
0.0390705
-0.00629865
0.0832267
0.0797592
0.102752
0.115904
0.00197147
0.0032573
0.00457935
0.00419743
0.00436863
0.00528818
0.00741276
0.00988924
0.00927262
0.00968507
0.00977957
0.00829267
0.00745933
0.00681997
0.00642348
0.00579474
0.00500808
0.00493001
0.00594275
0.00950755
0.0166165
0.0301674
0.0497911
0.072202
0.0883899
0.127405
0.0962131
0.0150512
-0.00731454
-0.162798
-0.263988
-0.369987
-0.40206
-0.291157
-0.198899
-0.100698
-0.0583268
0.0174153
0.0588209
0.0908495
0.11396
0.126337
0.143405
0.145439
0.260078
0.368493
0.668185
0.441188
0.193162
0.096107
0.0859297
0.0522027
0.0715628
0.0694211
-0.1867
-0.214893
-0.272255
-0.236412
0.343903
0.128896
-0.0299473
-0.24112
-0.0783846
-0.0690801
-0.195336
-0.303292
-0.311871
0.0421742
0.278922
-0.137928
-0.180164
-0.020916
0.115802
0.0434605
0.0125352
0.125177
0.139384
0.179938
0.245252
0.00219841
0.0036922
0.00514959
0.00515622
0.00564353
0.00689265
0.00924587
0.0117799
0.0119533
0.0128236
0.0132679
0.0125485
0.0123034
0.0125149
0.0128346
0.0130298
0.0130927
0.013875
0.0156174
0.0195472
0.0261175
0.0373918
0.0516959
0.0658155
0.0774465
0.103094
0.0598928
-0.0366447
-0.0766137
-0.233516
-0.339821
-0.433457
-0.451308
-0.335975
-0.234566
-0.126019
-0.0563359
0.0323831
0.0848286
0.128555
0.166244
0.184445
0.209246
0.222244
0.341588
0.459332
0.712016
0.480799
0.219444
0.117576
0.106648
0.0753592
0.107957
0.0532102
-0.180859
-0.209978
-0.216806
-0.12217
0.409764
0.127558
-0.0268307
-0.24982
-0.0918604
-0.0874104
-0.190964
-0.278805
-0.294288
0.00173437
0.240542
-0.168984
-0.185132
-0.0696733
0.0784291
0.0426172
0.0206723
0.159201
0.199981
0.266783
0.337983
0.00231056
0.00404564
0.00576612
0.00615429
0.0069599
0.00847981
0.0110028
0.013606
0.0144205
0.0157836
0.0166942
0.0167224
0.0170771
0.0179302
0.018899
0.0198468
0.0206606
0.02213
0.0242757
0.0280763
0.0333975
0.0415452
0.0499769
0.0562653
0.0640347
0.0762067
0.0192468
-0.0901618
-0.142733
-0.299813
-0.401538
-0.483731
-0.486683
-0.366422
-0.255421
-0.136287
-0.044736
0.0536176
0.116217
0.167129
0.210626
0.23201
0.265214
0.294783
0.410979
0.532707
0.743719
0.510577
0.242296
0.136997
0.127335
0.0979309
0.144124
0.0368589
-0.177812
-0.208652
-0.180485
-0.0587224
0.445412
0.118211
-0.0377423
-0.254129
-0.101427
-0.105427
-0.19173
-0.26408
-0.29302
-0.0771445
0.143677
-0.194651
-0.192756
-0.109014
0.0310328
0.0462742
0.0335795
0.189883
0.262726
0.343352
0.503969
0.00241574
0.00438026
0.00642662
0.00721396
0.00832311
0.010058
0.0126658
0.0153227
0.0166359
0.0184177
0.0197713
0.0204809
0.0214204
0.0229123
0.0245522
0.0262595
0.0277964
0.0298875
0.0323096
0.0357676
0.0395773
0.0444259
0.0472741
0.0472624
0.051199
0.049079
-0.0253942
-0.143574
-0.206825
-0.359437
-0.456327
-0.52334
-0.510531
-0.385845
-0.265821
-0.136685
-0.0279184
0.0765915
0.144428
0.196923
0.240233
0.26433
0.307705
0.356052
0.472472
0.592707
0.766301
0.538647
0.267624
0.156632
0.149437
0.122646
0.181845
0.0300529
-0.149538
-0.181714
-0.153515
-0.0312037
0.44982
0.0988637
-0.0685111
-0.262295
-0.112882
-0.127187
-0.199569
-0.259405
-0.307507
-0.169825
0.0350786
-0.230052
-0.217014
-0.148712
-0.0232182
0.0428432
0.0473074
0.215829
0.325946
0.435902
0.599302
0.00257282
0.00479983
0.00720725
0.00841732
0.00985128
0.0118026
0.0144815
0.0172014
0.0189309
0.0210752
0.0228723
0.0242459
0.0257833
0.0279432
0.0303086
0.0328347
0.0351691
0.0379727
0.0407993
0.044073
0.0466159
0.0486123
0.0469245
0.0430179
0.0416513
0.022943
-0.0703127
-0.192523
-0.266955
-0.412434
-0.507255
-0.555739
-0.529086
-0.398723
-0.270323
-0.132383
-0.0105581
0.0976258
0.165309
0.215321
0.256806
0.285629
0.340529
0.405514
0.525602
0.640855
0.784355
0.570081
0.298017
0.177418
0.171554
0.147238
0.218155
0.0325133
-0.103603
-0.138164
-0.12665
-0.0234726
0.434381
0.0790209
-0.104892
-0.271451
-0.125213
-0.149293
-0.210043
-0.258291
-0.325912
-0.253829
-0.0686778
-0.274092
-0.256862
-0.187624
-0.0665081
0.0332625
0.0628838
0.242363
0.391936
0.542469
0.731993
0.00275094
0.00528905
0.0080875
0.00973376
0.0115043
0.013695
0.0164676
0.0192806
0.0213599
0.023826
0.0260532
0.0280757
0.0302113
0.0330501
0.0361646
0.0395599
0.04277
0.0463918
0.0497796
0.0530975
0.0547139
0.0544221
0.049225
0.0434129
0.0351133
-0.00476747
-0.113057
-0.237516
-0.321538
-0.458003
-0.55059
-0.583243
-0.54363
-0.407454
-0.27059
-0.125622
0.00592475
0.116353
0.18096
0.226157
0.266159
0.302452
0.369531
0.447652
0.571325
0.679514
0.801782
0.606637
0.335313
0.202124
0.195544
0.174373
0.256713
0.0478309
-0.0488264
-0.0896015
-0.102463
-0.0335695
0.401294
0.0561227
-0.148571
-0.286848
-0.141253
-0.171954
-0.222203
-0.260765
-0.346693
-0.327614
-0.173809
-0.327224
-0.312977
-0.226314
-0.104693
0.0147294
0.0710467
0.266094
0.459652
0.639775
0.930685
0.00293723
0.00581355
0.00901628
0.0111022
0.0132261
0.0156796
0.0185885
0.0215412
0.023955
0.0267179
0.0293687
0.0320228
0.0347572
0.0382907
0.0421731
0.0464722
0.0506282
0.0551768
0.0592848
0.0628839
0.0639288
0.0618629
0.0537975
0.0458758
0.0276953
-0.0340679
-0.152142
-0.279444
-0.369163
-0.498185
-0.584757
-0.605477
-0.554907
-0.413758
-0.269816
-0.119173
0.0194302
0.131393
0.19234
0.232133
0.271755
0.317678
0.396069
0.483397
0.608486
0.708999
0.817024
0.644281
0.376275
0.229521
0.219886
0.201545
0.294899
0.0715604
0.00766864
-0.0378414
-0.0812364
-0.054057
0.361588
0.0414704
-0.188281
-0.302366
-0.157666
-0.19099
-0.232477
-0.261906
-0.361932
-0.385951
-0.271328
-0.378396
-0.376336
-0.264819
-0.136072
-0.00378714
0.0829801
0.294869
0.528355
0.752895
1.05224
0.00312001
0.00635789
0.00997468
0.0125019
0.0149852
0.0177254
0.0208116
0.023951
0.0266896
0.0297392
0.0327974
0.0360462
0.0393625
0.0435853
0.0482179
0.053409
0.0585152
0.0640169
0.0688958
0.0728487
0.0733976
0.0695189
0.0578736
0.0456197
0.0164773
-0.0634819
-0.189374
-0.317823
-0.410566
-0.533736
-0.611536
-0.623869
-0.563158
-0.418763
-0.268658
-0.113332
0.030587
0.143889
0.202159
0.237017
0.277561
0.334198
0.422289
0.515336
0.639121
0.73236
0.8307
0.680261
0.419389
0.259874
0.246063
0.23133
0.335764
0.105478
0.0680251
0.0188882
-0.0611495
-0.0835713
0.309877
0.0296596
-0.228504
-0.322754
-0.175867
-0.207341
-0.24101
-0.26361
-0.376541
-0.434643
-0.357586
-0.429363
-0.439802
-0.305648
-0.162639
-0.0190639
0.0993131
0.325329
0.597041
0.879817
1.19088
0.00330265
0.00691119
0.0109389
0.0139023
0.0167527
0.0197968
0.0231034
0.0264788
0.0295617
0.0329108
0.0363835
0.0402011
0.0441157
0.0490396
0.0544264
0.0605092
0.0665748
0.0730588
0.0787498
0.0830788
0.083052
0.0769755
0.0611803
0.0428656
0.00232507
-0.0908821
-0.224793
-0.351629
-0.448436
-0.565211
-0.635363
-0.638749
-0.569961
-0.423881
-0.268227
-0.109208
0.0388895
0.15366
0.210414
0.2417
0.284364
0.351644
0.447253
0.543456
0.664099
0.750886
0.842553
0.711696
0.461578
0.290998
0.272505
0.261308
0.376084
0.145096
0.131643
0.0808118
-0.0377365
-0.115804
0.250914
0.0251049
-0.26209
-0.341371
-0.190564
-0.216594
-0.242226
-0.261459
-0.386321
-0.470535
-0.427146
-0.475891
-0.49158
-0.33873
-0.181128
-0.0321629
0.118096
0.359913
0.669422
1.00239
1.3616
0.00348314
0.00747318
0.0119108
0.0153058
0.0185216
0.0218854
0.0254455
0.0290957
0.0325303
0.0362046
0.0400968
0.0444617
0.04897
0.0545909
0.0607115
0.0676573
0.0746454
0.0820672
0.0885083
0.0930845
0.0921916
0.0834589
0.0639275
0.0389157
-0.0124153
-0.115773
-0.258834
-0.380323
-0.48257
-0.593051
-0.657887
-0.651169
-0.576507
-0.429412
-0.268677
-0.106428
0.0453111
0.161834
0.218359
0.247551
0.293275
0.370609
0.472328
0.570067
0.686055
0.767062
0.853858
0.738552
0.503247
0.323891
0.300936
0.294178
0.41878
0.193534
0.203971
0.147527
-0.0104313
-0.152346
0.180581
0.0137936
-0.29604
-0.363097
-0.203974
-0.220421
-0.237408
-0.258758
-0.397422
-0.5019
-0.487637
-0.52377
-0.540154
-0.373007
-0.201408
-0.047917
0.135089
0.400289
0.749401
1.13434
1.51228
0.00366962
0.00804601
0.0128858
0.0167028
0.0202826
0.0239739
0.0278178
0.0317776
0.035586
0.0396269
0.0439661
0.0488847
0.0540131
0.0603581
0.0672309
0.0750499
0.082965
0.0913283
0.0985107
0.103288
0.101412
0.0899155
0.0675414
0.0364184
-0.025125
-0.1399
-0.289349
-0.405398
-0.511965
-0.616821
-0.676714
-0.662702
-0.582449
-0.435516
-0.270592
-0.10557
0.0497745
0.168338
0.225703
0.254204
0.303647
0.38985
0.496544
0.594899
0.705489
0.780578
0.863811
0.760637
0.543121
0.357309
0.329872
0.327333
0.460516
0.247202
0.284545
0.216494
0.0182898
-0.190076
0.111071
-0.00451168
-0.32377
-0.381426
-0.211274
-0.213594
-0.223597
-0.251449
-0.40631
-0.52614
-0.541301
-0.576112
-0.590326
-0.411055
-0.223534
-0.0635516
0.157371
0.45055
0.834412
1.25647
1.72367
0.00386136
0.00863299
0.0138717
0.0181045
0.0220421
0.0260687
0.030215
0.0345076
0.0386993
0.0431401
0.0479437
0.0534225
0.059182
0.0662664
0.0738886
0.08257
0.0913855
0.100642
0.108491
0.113354
0.110362
0.0961418
0.0716736
0.0358198
-0.0379522
-0.165433
-0.315394
-0.42995
-0.536988
-0.63604
-0.691237
-0.673024
-0.587846
-0.441856
-0.273607
-0.106015
0.0529133
0.173834
0.233131
0.261777
0.315421
0.409672
0.520658
0.619376
0.724326
0.793341
0.871787
0.7796
0.582619
0.392777
0.361288
0.363337
0.504594
0.309417
0.376849
0.287181
0.0473682
-0.228664
0.0415969
-0.0281862
-0.347376
-0.403999
-0.216991
-0.200714
-0.205876
-0.244858
-0.419243
-0.551627
-0.595908
-0.635824
-0.646185
-0.454487
-0.248933
-0.0782003
0.181421
0.507066
0.92698
1.39327
1.87595
0.00406355
0.00923723
0.0148665
0.0195049
0.0237999
0.028164
0.0326299
0.0372759
0.0418718
0.0467474
0.0520472
0.0581141
0.06455
0.0724261
0.0808386
0.0904251
0.100174
0.110348
0.11886
0.123759
0.119537
0.102411
0.0758377
0.0348891
-0.053821
-0.189868
-0.33723
-0.453648
-0.557392
-0.65108
-0.702324
-0.681466
-0.592833
-0.448192
-0.277523
-0.107456
0.0548576
0.178505
0.240056
0.269998
0.327986
0.428941
0.543449
0.642375
0.741634
0.804574
0.877357
0.796292
0.62073
0.428925
0.393618
0.399551
0.548266
0.375855
0.477134
0.357344
0.0754148
-0.265096
-0.0211455
-0.0455806
-0.361441
-0.429147
-0.217483
-0.180497
-0.183183
-0.236973
-0.432408
-0.581251
-0.649627
-0.694906
-0.701742
-0.499549
-0.274162
-0.0889971
0.204969
0.567101
1.02247
1.53681
2.05699
0.00427326
0.0098591
0.0158753
0.0209141
0.0255664
0.0302722
0.0350657
0.0400746
0.0450802
0.0504128
0.0562215
0.0628929
0.0700263
0.0787157
0.0879356
0.0984395
0.109116
0.120163
0.129227
0.13391
0.127927
0.106979
0.0768576
0.028767
-0.0730559
-0.212733
-0.357224
-0.47664
-0.57415
-0.662839
-0.710508
-0.688332
-0.597548
-0.454399
-0.281815
-0.109382
0.0559877
0.182728
0.246666
0.278722
0.341644
0.448268
0.565611
0.664418
0.757869
0.815051
0.881341
0.813099
0.658669
0.467059
0.428666
0.43857
0.595498
0.449026
0.586416
0.42799
0.105787
-0.302543
-0.0825217
-0.0620784
-0.372851
-0.460876
-0.218068
-0.160246
-0.163361
-0.233338
-0.450272
-0.620566
-0.702845
-0.75493
-0.759486
-0.549248
-0.304917
-0.100478
0.22235
0.629128
1.12271
1.67394
2.28684
0.00449405
0.0105017
0.0168988
0.0223304
0.0273423
0.0323915
0.0375233
0.0429061
0.0483367
0.0541508
0.0604922
0.0677992
0.0756767
0.0852206
0.0953194
0.106805
0.118468
0.130428
0.140013
0.144297
0.136152
0.111597
0.0764627
0.0186821
-0.0924093
-0.232384
-0.375501
-0.497598
-0.589653
-0.673102
-0.716655
-0.693251
-0.601571
-0.459828
-0.285978
-0.111511
0.0566253
0.186541
0.25268
0.287686
0.35559
0.466771
0.586094
0.684419
0.77235
0.82394
0.88438
0.83063
0.69521
0.505573
0.46442
0.477771
0.643996
0.524034
0.69686
0.497108
0.138834
-0.344053
-0.142245
-0.0802074
-0.383549
-0.488584
-0.214268
-0.139019
-0.145513
-0.232988
-0.466488
-0.662262
-0.751984
-0.81253
-0.815611
-0.602754
-0.342308
-0.113168
0.23665
0.69337
1.22314
1.81984
2.45183
0.00472286
0.0111627
0.0179401
0.0237632
0.0291366
0.0345337
0.040008
0.0457678
0.0516256
0.057935
0.0648123
0.0727682
0.0814061
0.0918105
0.102815
0.115303
0.127961
0.140805
0.15081
0.154463
0.143862
0.116332
0.075929
0.00814813
-0.108876
-0.249074
-0.393177
-0.515832
-0.605606
-0.683554
-0.722755
-0.696478
-0.605262
-0.464497
-0.290023
-0.113705
0.0568887
0.189774
0.258132
0.296224
0.369847
0.484475
0.605325
0.703106
0.786089
0.832611
0.887601
0.848831
0.731123
0.545599
0.502739
0.519372
0.696678
0.603673
0.809163
0.566716
0.180063
-0.384703
-0.206021
-0.106003
-0.397307
-0.512896
-0.209783
-0.123965
-0.135132
-0.240694
-0.484718
-0.705439
-0.800998
-0.870876
-0.871179
-0.662668
-0.392996
-0.130399
0.244983
0.756848
1.32819
1.98058
2.64377
0.00496278
0.0118449
0.0190002
0.0252109
0.0309493
0.0366976
0.0425238
0.0486691
0.0549679
0.0617931
0.0692226
0.0778555
0.0872958
0.0985962
0.110572
0.124136
0.137867
0.151672
0.162149
0.165205
0.15224
0.122463
0.0775237
0.000898821
-0.120328
-0.263584
-0.409305
-0.530222
-0.620014
-0.693951
-0.728561
-0.698071
-0.607879
-0.468504
-0.293968
-0.11567
0.0572362
0.192643
0.263142
0.304384
0.383825
0.500875
0.623112
0.720247
0.798863
0.840885
0.891473
0.866362
0.765016
0.585596
0.541588
0.560593
0.74921
0.683512
0.920915
0.635549
0.228814
-0.410785
-0.267897
-0.134202
-0.412305
-0.530189
-0.203303
-0.114069
-0.130872
-0.253596
-0.500281
-0.743921
-0.849866
-0.929338
-0.919899
-0.724876
-0.454792
-0.154092
0.249748
0.818831
1.43457
2.13891
2.86285
0.00520998
0.0125434
0.0200791
0.0266796
0.0327872
0.0388919
0.0450736
0.0516065
0.0583477
0.0656968
0.0736762
0.0829926
0.0932432
0.105433
0.118386
0.133027
0.147825
0.162552
0.173421
0.175801
0.160598
0.129376
0.0810757
-0.00272969
-0.128321
-0.278242
-0.423644
-0.541619
-0.632425
-0.703048
-0.733308
-0.699241
-0.610045
-0.472452
-0.298165
-0.11762
0.057632
0.195373
0.267957
0.312094
0.397368
0.516372
0.640176
0.736584
0.811152
0.849755
0.8963
0.882989
0.797413
0.626645
0.582636
0.603563
0.803106
0.76638
1.03729
0.706646
0.289034
-0.411049
-0.322235
-0.162237
-0.425733
-0.552333
-0.209494
-0.117439
-0.13742
-0.273429
-0.520747
-0.780578
-0.899789
-0.986171
-0.968812
-0.790365
-0.521927
-0.183062
0.250194
0.880477
1.55046
2.31309
3.07188
0.00546728
0.0132611
0.0211776
0.0281671
0.0346482
0.0411137
0.0476607
0.0545904
0.0617863
0.0696732
0.0782223
0.0882461
0.0993441
0.112448
0.126426
0.142188
0.15809
0.173742
0.184922
0.186428
0.16889
0.137313
0.0863763
-0.00307176
-0.135397
-0.291429
-0.435096
-0.549892
-0.642316
-0.708839
-0.735287
-0.699738
-0.611104
-0.475208
-0.301572
-0.119025
0.0586672
0.198707
0.273119
0.320233
0.410168
0.53114
0.656104
0.75148
0.822419
0.85864
0.902009
0.898126
0.827115
0.667118
0.623902
0.645855
0.853466
0.846208
1.15425
0.778693
0.356656
-0.392722
-0.364741
-0.184569
-0.43788
-0.593828
-0.238949
-0.134245
-0.152519
-0.295502
-0.546753
-0.813317
-0.944518
-1.03694
-1.02796
-0.860503
-0.585252
-0.217179
0.251249
0.944719
1.67076
2.48461
3.3329
0.00573047
0.0139909
0.0222926
0.0296754
0.0365351
0.0433668
0.0502831
0.0576117
0.0652616
0.0736857
0.0828087
0.0935407
0.105484
0.119482
0.134463
0.151303
0.168223
0.184625
0.195784
0.195915
0.175987
0.143865
0.0895336
-0.00612272
-0.144961
-0.302934
-0.444283
-0.557373
-0.650677
-0.711402
-0.735108
-0.699334
-0.61123
-0.476856
-0.304313
-0.119966
0.0602054
0.202341
0.278407
0.328777
0.423019
0.545728
0.671038
0.76504
0.833097
0.868012
0.908461
0.911985
0.854712
0.707693
0.667013
0.68912
0.901885
0.924471
1.27128
0.854386
0.434714
-0.365619
-0.397356
-0.207828
-0.465803
-0.666378
-0.301293
-0.177573
-0.181861
-0.321069
-0.579575
-0.844979
-0.982771
-1.08261
-1.09715
-0.937566
-0.647812
-0.258241
0.251661
1.01153
1.80095
2.67682
3.55687
0.00600343
0.0147369
0.0234247
0.0312014
0.0384438
0.0456481
0.0529441
0.0606813
0.0687961
0.077766
0.0874906
0.0989513
0.111763
0.126684
0.142697
0.160628
0.178544
0.195593
0.206491
0.20492
0.183188
0.148958
0.0887471
-0.0133259
-0.154565
-0.31165
-0.449074
-0.563048
-0.655382
-0.71002
-0.732804
-0.696714
-0.609627
-0.476952
-0.305776
-0.119583
0.0627586
0.206507
0.284303
0.338536
0.436326
0.560294
0.685135
0.777526
0.843375
0.877366
0.915582
0.924766
0.879679
0.746788
0.709558
0.73119
0.946333
0.997085
1.37957
0.932029
0.519979
-0.335764
-0.422858
-0.236255
-0.507954
-0.755008
-0.393393
-0.248326
-0.232103
-0.353779
-0.61692
-0.87354
-1.0118
-1.11924
-1.15827
-1.01125
-0.71385
-0.307331
0.249409
1.0771
1.93203
2.87659
3.80785
0.00628169
0.01549
0.024568
0.032742
0.0403718
0.0479567
0.0556358
0.0637826
0.0723595
0.0818716
0.0922003
0.104383
0.118044
0.133865
0.150869
0.169814
0.188601
0.206088
0.216418
0.212852
0.1899
0.153272
0.0860308
-0.0217991
-0.164108
-0.317632
-0.451012
-0.567617
-0.657048
-0.70656
-0.730006
-0.693066
-0.607084
-0.476277
-0.306295
-0.118355
0.065725
0.210664
0.290563
0.349102
0.449817
0.574535
0.69862
0.789595
0.853753
0.88701
0.92316
0.936758
0.902779
0.784931
0.752503
0.77452
0.990438
1.06907
1.4828
1.01506
0.618051
-0.29746
-0.442283
-0.265958
-0.549962
-0.843358
-0.511709
-0.357205
-0.325623
-0.412798
-0.660582
-0.899516
-1.03497
-1.1478
-1.20407
-1.07216
-0.785767
-0.361835
0.242858
1.1373
2.06702
3.07615
4.09575
0.00657006
0.0162553
0.0257231
0.0342933
0.0423134
0.0502874
0.0583591
0.0669252
0.0759745
0.0860384
0.0969949
0.109914
0.124435
0.141187
0.159199
0.179155
0.198779
0.216623
0.226278
0.220726
0.197121
0.158631
0.0855793
-0.026453
-0.169609
-0.318787
-0.452088
-0.570719
-0.655995
-0.70282
-0.725628
-0.688291
-0.603023
-0.473944
-0.304814
-0.115603
0.0697
0.215586
0.297719
0.360621
0.463446
0.588589
0.711717
0.801618
0.86427
0.896616
0.931217
0.948162
0.923816
0.820843
0.794196
0.8171
1.03142
1.13732
1.57611
1.10194
0.727271
-0.250729
-0.453821
-0.290137
-0.585016
-0.922358
-0.630363
-0.476939
-0.444797
-0.490779
-0.700059
-0.912813
-1.05223
-1.1674
-1.23304
-1.11969
-0.859325
-0.420907
0.233265
1.18895
2.19739
3.28261
4.33393
0.00686271
0.0170209
0.0268815
0.0358485
0.044262
0.0526307
0.0610952
0.0700788
0.0795936
0.090202
0.10178
0.115416
0.130759
0.1484
0.167344
0.188181
0.208444
0.226369
0.235092
0.227763
0.204712
0.164393
0.087542
-0.0277603
-0.171409
-0.31828
-0.454888
-0.573142
-0.655062
-0.701008
-0.720284
-0.683138
-0.598338
-0.47009
-0.301911
-0.111778
0.0743424
0.22099
0.305313
0.37221
0.476986
0.602409
0.724274
0.813488
0.874881
0.906248
0.93954
0.95892
0.943089
0.855325
0.836133
0.860338
1.07174
1.20503
1.65878
1.19611
0.854637
-0.189177
-0.447802
-0.303143
-0.609672
-0.998006
-0.751989
-0.589815
-0.55335
-0.563753
-0.730898
-0.918382
-1.06258
-1.17888
-1.24725
-1.15416
-0.928997
-0.482537
0.216263
1.23267
2.32806
3.50574
4.60521
0.0071652
0.0177923
0.0280442
0.037405
0.0462129
0.0549806
0.0638451
0.0732523
0.0832391
0.0943985
0.106613
0.120968
0.137131
0.155659
0.17551
0.197144
0.217885
0.235639
0.243227
0.234846
0.213027
0.170591
0.0924826
-0.0242893
-0.169146
-0.317984
-0.457833
-0.574255
-0.653108
-0.697621
-0.713253
-0.675692
-0.59208
-0.463895
-0.296725
-0.105864
0.0804372
0.227488
0.31385
0.384435
0.49087
0.616204
0.736705
0.825529
0.885681
0.91575
0.948374
0.969323
0.960262
0.888001
0.876763
0.901697
1.1101
1.2677
1.72556
1.29615
0.999448
-0.115209
-0.425422
-0.311067
-0.630561
-1.08263
-0.890382
-0.699552
-0.639465
-0.623314
-0.753774
-0.918292
-1.06248
-1.1792
-1.24628
-1.176
-0.995695
-0.547066
0.190364
1.26756
2.4494
3.72389
4.90432
0.00746949
0.0185549
0.0291998
0.0389522
0.0481546
0.0573212
0.0665809
0.0764045
0.0868491
0.0985427
0.111373
0.126406
0.143329
0.162664
0.18329
0.2055
0.226397
0.243571
0.249792
0.241264
0.21979
0.175278
0.0968797
-0.0203221
-0.168231
-0.319656
-0.461568
-0.57497
-0.649812
-0.692808
-0.705588
-0.666961
-0.584538
-0.456749
-0.290244
-0.0988763
0.0870519
0.234164
0.322747
0.396767
0.504561
0.629484
0.748921
0.837504
0.896455
0.925186
0.957288
0.979237
0.975635
0.919206
0.916855
0.943047
1.14872
1.32828
1.78366
1.40709
1.16984
-0.0239385
-0.383361
-0.31144
-0.64565
-1.17402
-1.03244
-0.810673
-0.717087
-0.673823
-0.774713
-0.916149
-1.05294
-1.1671
-1.23289
-1.18619
-1.0548
-0.609379
0.156868
1.29315
2.5645
3.94844
5.19181
0.00777955
0.0193127
0.0303476
0.0404858
0.0500801
0.059645
0.0693021
0.0795437
0.0904474
0.102675
0.116129
0.131825
0.149491
0.16961
0.190955
0.21361
0.234459
0.250794
0.255537
0.247443
0.225523
0.178573
0.0982267
-0.0190913
-0.168603
-0.320976
-0.464339
-0.572625
-0.642952
-0.685114
-0.696013
-0.656329
-0.574822
-0.447708
-0.281637
-0.0903354
0.0945972
0.241501
0.33234
0.409616
0.518276
0.642897
0.761631
0.84984
0.907376
0.934519
0.96635
0.988978
0.98999
0.948193
0.954838
0.982155
1.18338
1.38236
1.83275
1.52744
1.36526
0.0836743
-0.330001
-0.312035
-0.668412
-1.27258
-1.17557
-0.93099
-0.806442
-0.719696
-0.793515
-0.907566
-1.03608
-1.14224
-1.20746
-1.18565
-1.10455
-0.668541
0.120289
1.30747
2.66292
4.15453
5.49862
0.00808155
0.0200447
0.0314671
0.0419842
0.0519654
0.0619206
0.0719607
0.0826046
0.0939424
0.106674
0.120709
0.137008
0.155335
0.176129
0.198027
0.220882
0.24138
0.256597
0.259904
0.252696
0.230047
0.180114
0.0962595
-0.0221156
-0.170781
-0.322863
-0.465374
-0.567546
-0.634412
-0.675842
-0.686169
-0.645757
-0.564536
-0.43743
-0.271843
-0.0814108
0.102172
0.248772
0.341443
0.42173
0.53151
0.656205
0.774545
0.861978
0.918039
0.94348
0.975384
0.998119
1.00391
0.974707
0.991019
1.02025
1.21429
1.42928
1.87421
1.66257
1.59385
0.217428
-0.257726
-0.305682
-0.701953
-1.37922
-1.32278
-1.05733
-0.91049
-0.763614
-0.808691
-0.894306
-1.01021
-1.10361
-1.16752
-1.16716
-1.1361
-0.715897
0.0815425
1.30853
2.75059
4.35555
5.77039
0.00837831
0.020751
0.032552
0.0434382
0.0537968
0.0641325
0.0745478
0.0855849
0.0973458
0.110562
0.125154
0.142033
0.160977
0.182388
0.204731
0.227643
0.24763
0.261714
0.264198
0.258016
0.23393
0.182027
0.0949628
-0.0246669
-0.171352
-0.321966
-0.461822
-0.558514
-0.624477
-0.664103
-0.674313
-0.633816
-0.55317
-0.425326
-0.260297
-0.0713588
0.110574
0.256549
0.350559
0.433913
0.545066
0.670271
0.788248
0.874445
0.92876
0.952413
0.985115
1.00756
1.01756
0.998703
1.02394
1.05559
1.24197
1.46448
1.90206
1.81004
1.85448
0.375169
-0.172852
-0.302425
-0.760589
-1.50719
-1.48095
-1.19075
-1.02566
-0.806956
-0.813657
-0.874374
-0.972891
-1.05353
-1.11266
-1.1355
-1.15169
-0.753242
0.0438068
1.29575
2.81778
4.53826
6.04381
0.00865421
0.0214061
0.0335772
0.0448195
0.0555425
0.0662388
0.0770024
0.0883977
0.100539
0.114186
0.129259
0.146633
0.166071
0.187951
0.210512
0.233227
0.252494
0.26556
0.268159
0.262338
0.236387
0.183682
0.0946309
-0.0256762
-0.169945
-0.318365
-0.45399
-0.547944
-0.614876
-0.652277
-0.661535
-0.620969
-0.54111
-0.413034
-0.248559
-0.0615038
0.11868
0.263855
0.35918
0.445389
0.558479
0.684725
0.802133
0.886548
0.9389
0.960918
0.995316
1.0174
1.02994
1.01992
1.05434
1.08847
1.26891
1.49263
1.92359
1.97745
2.1565
0.564581
-0.0616238
-0.286223
-0.830697
-1.65391
-1.64496
-1.33285
-1.14135
-0.848272
-0.805241
-0.844453
-0.920547
-0.992253
-1.04401
-1.0922
-1.14967
-0.774829
0.0132935
1.27145
2.86462
4.69701
6.31205
0.00891381
0.0220107
0.0345402
0.0461228
0.0571929
0.0682308
0.0793206
0.0910437
0.103536
0.117583
0.13309
0.150912
0.170773
0.193038
0.215681
0.238078
0.256574
0.268883
0.272292
0.266095
0.238976
0.185715
0.0967269
-0.0234064
-0.164541
-0.310496
-0.441369
-0.535699
-0.60357
-0.639431
-0.64706
-0.606201
-0.526941
-0.399382
-0.235717
-0.0510989
0.126965
0.271518
0.3681
0.457001
0.572392
0.699974
0.816682
0.898753
0.948867
0.969382
1.00647
1.0284
1.04142
1.03936
1.08178
1.11749
1.2933
1.51403
1.94403
2.16294
2.49942
0.783811
0.069267
-0.259385
-0.922467
-1.82938
-1.82428
-1.49803
-1.25573
-0.883571
-0.780215
-0.80049
-0.854081
-0.920862
-0.963528
-1.04306
-1.13825
-0.785726
-0.00911573
1.23633
2.88352
4.83699
6.51821
0.00913851
0.0225382
0.0354163
0.0473226
0.0587213
0.070069
0.0814343
0.0934249
0.106196
0.120576
0.136426
0.154585
0.174726
0.197201
0.219729
0.241626
0.259297
0.271155
0.275508
0.268647
0.240449
0.18604
0.0982606
-0.0203817
-0.157943
-0.301176
-0.428406
-0.524947
-0.593292
-0.627479
-0.633056
-0.591835
-0.512427
-0.385674
-0.22287
-0.0413325
0.134404
0.27858
0.376558
0.468254
0.586275
0.714898
0.830755
0.910102
0.958052
0.977511
1.01778
1.03959
1.0516
1.05704
1.10622
1.14327
1.31561
1.53293
1.9691
2.37699
2.89462
1.04885
0.234844