/*--------------------------------*- C++ -*----------------------------------*\
| =========                 |                                                 |
| \\      /  F ield         | OpenFOAM: The Open Source CFD Toolbox           |
|  \\    /   O peration     | Version:  4.1                                   |
|   \\  /    A nd           | Web:      www.OpenFOAM.org                      |
|    \\/     M anipulation  |                                                 |
\*---------------------------------------------------------------------------*/
FoamFile
{
    version     2.0;
    format      ascii;
    class       surfaceScalarField;
    location    "15";
    object      phi;
}
// * * * * * * * * * * * * * * * * * * * * * * * * * * * * * * * * * * * * * //

dimensions      [0 3 -1 0 0 0 0];

internalField   nonuniform List<scalar> 
13220
(
-949.872
2249.77
-1573.94
1924.27
-2053.99
1779.94
-2424.21
1670.13
-2699.83
1575.82
-2888.34
1488.41
-2993.01
1404.57
-3013.81
1320.99
-2949.56
1235.65
-2797.18
1147.52
-2551.11
1054.13
-2192.94
941.734
-1687.11
794.066
-1012.62
625.712
287.276
373.369
1876.42
442.778
1854.87
437.352
1785.39
406.751
1700.74
380.65
1601.94
359.97
1509.1
345.376
1419.19
337.615
1328.76
333.568
1239.71
327.034
1154.05
309.69
1071.48
267.53
983.887
191.464
870.128
111.452
705.723
398.729
33.6374
1842.79
-97.3462
1985.85
-253.546
1941.6
-371.039
1818.23
-473.067
1704
-567.398
1603.44
-651.593
1503.4
-725.621
1402.81
-787.877
1302
-837.075
1203.3
-868.003
1102.44
-855.852
971.849
-740.169
754.573
-434.226
399.921
-35.4968
28.9135
1813.9
-100.502
2115.29
-225.358
2066.51
-304.273
1897.17
-367.885
1767.66
-416.662
1652.24
-445.88
1532.68
-456.653
1413.6
-451.443
1296.84
-429.738
1181.61
-386.798
1059.54
-311.534
896.567
-192.679
635.708
-48.3515
255.585
-83.8476
169.908
1644.04
146.509
2138.71
124.134
2088.93
123.288
1898.03
127.44
1763.57
136.319
1643.37
149.662
1519.39
167.123
1396.13
187.468
1276.52
208.612
1160.46
229.466
1038.59
244.198
881.967
233.323
646.65
155.486
333.481
71.6347
223.826
1420.29
245.205
2117.37
235.871
2098.39
237.157
1896.78
241.632
1759.19
245.592
1639.41
247.917
1517.14
246.595
1397.42
242.524
1280.6
235.262
1167.62
222.689
1051.19
200.089
904.206
156.652
689.677
78.4239
411.319
150.061
205.133
1215.25
241.013
2081.51
216.275
2123.19
193.897
1919.16
179.731
1773.4
166.267
1652.85
152.475
1530.92
138.193
1411.65
123.173
1295.55
108.85
1181.94
94.3049
1065.51
77.2414
921.635
53.1926
714.01
19.6678
445.091
169.722
175.845
1039.52
228.334
2029.04
206.029
2145.65
176.572
1948.59
158.225
1791.81
143.778
1667.21
128.815
1545.85
114.418
1425.92
101.246
1308.64
88.418
1194.53
76.6384
1077.3
62.6729
934.832
42.8616
732.983
16.7307
470.465
186.458
153.937
885.722
223.606
1959.41
211.003
2158.33
182.999
1976.63
164.963
1809.98
151.827
1680.38
138.993
1558.75
125.175
1439.73
111.847
1321.94
99.1298
1207.36
85.3186
1090.92
70.507
950.435
49.9542
754.248
22.2338
498.818
208.682
132.105
753.791
212.424
1879.12
209.409
2161.61
181.357
2004.72
162.608
1828.95
148.285
1694.7
134.787
1572.44
121.138
1453.32
107.093
1336.06
93.2717
1220.9
80.1164
1104.21
63.6444
965.754
42.7612
773.952
17.5305
522.975
226.218
111.082
642.79
196.956
1792.95
204.219
2154.37
177.909
2030.67
158.796
1847.99
145.643
1707.41
132.11
1585.76
117.999
1466.92
103.954
1349.7
89.2584
1235.32
73.9084
1118.61
59.3595
981.399
40.11
793.819
17.2612
546.35
243.453
102.234
540.547
191.806
1702.76
208.189
2138.16
180.882
2057.28
154.212
1874.48
135.407
1725.35
120.661
1600.01
105.981
1480.75
92.9004
1362.18
80.4535
1246.6
68.9665
1129.99
53.3684
993.861
33.3569
810.79
10.5613
566.377
254.041
99.6573
441.214
238.364
1563.48
284.565
2092.17
276.205
2065
270.711
1879.8
269.043
1726.2
262.354
1606.32
248.62
1493.6
228.487
1381.45
205.382
1269.59
176.501
1156.51
147.268
1027.17
108.414
852.541
57.3829
619.891
311.298
124.576
316.487
247.56
1438.59
293.506
2046.05
237.112
2119.59
156.61
1959.18
96.14
1784.38
65.0752
1635.2
52.2909
1503.57
50.8878
1379.93
53.4776
1262.72
59.2571
1148.3
52.9011
1022.89
29.6655
861.833
3.89539
632.478
314.97
-225.38
225.054
841.667
1320.06
1555.39
1652.73
1615.84
1530.84
1379.64
1214.24
1023.89
815.737
585.659
299.009
-1.24158
701.8
-703.031
700.382
700.419
699.71
1430.84
-731.08
1430.42
1429.95
1429.85
2081.96
-653.389
2081.49
2080.42
2627.69
-546.905
2626.63
2626.7
2626.02
3054.94
-428.749
3055.09
3054.99
3363.74
-308.268
3363.54
3364.13
3363.67
3552.4
-188.057
3552.08
3552.62
3552.23
3635.85
-84.2895
3635.18
3634.93
3624.84
9.6711
3625.3
3624.59
3625.41
3502.08
122.658
3502.79
3501.79
3281.78
220.821
3280.85
3281.03
3280.32
2947.79
332.622
2946.73
2947.15
2945.93
2537.52
409.535
2536.42
2538.12
2159.07
377.746
2160.85
2160.01
2161.5
1772.48
388.006
1774.12
1773.2
1774.9
1308.1
466.502
1309.41
1309.02
728.816
581.29
729.839
731.39
731.214
83.1135
651.452
86.0762
90.7676
-853.603
941.816
-849.145
-852.568
-848.635
-2406.74
1553.66
-2404.19
-2408.86
-2407.27
-4383.18
1972.71
-4386.48
-4388.32
-6651.68
2261.6
-6652.18
-6653.5
-6545.37
-6429.16
-6303.12
-8654.21
2472.08
-8538.16
-8391.96
-8218.37
-8042.78
-7865.67
-7694.5
-7516.63
-7317.35
-9737.83
2619.34
-9526.02
-9318.28
-9113.64
-8884.82
-8655.14
-8421.61
-8188.67
-7956.89
-10365.4
2645.4
-10112.4
-9859.22
-9605.24
-9353.47
-9095.14
-8826.87
-8554.32
-8280.46
-8009.34
-10280.4
2531.71
-9995.4
-9708.15
-9420.56
-9133.64
-8849.79
-8549.83
-8242.53
-7937.91
-9858.2
2209.97
-9563.38
-9263.34
-8950.19
-8636.91
-8323.68
-8010.92
-7698.95
-7372.57
-8751.53
1694.44
-8434.73
-8120.78
-7808.2
-7483.73
-7153.91
-6825.16
-6499.87
-6185.35
-6844.46
972.257
-6529.79
-6219.74
-5912.49
-5609.33
-5310.12
-5031.62
-4753.15
-4487.46
-4231.48
-3988.94
19.9737
-3776.23
-3586.88
-3405.87
-3223.03
-3043.55
-2884.17
-2788.86
-2696.22
-2259.55
-328.474
-2171.57
-2079.2
-2078.29
-1704.14
-370.341
-1362.95
-342.187
-1359.61
-1053.9
-307.882
-1050.15
-780.432
-271.216
-538.685
-238.364
-541.59
-342.747
-201.304
-182.932
-164.908
-192.129
-90.9909
-108.69
-98.8545
-48.4368
-61.5208
54.0967
-106.06
46.741
195.804
-156.299
192.246
342.242
-160.183
513.356
-171.963
507.464
670.959
-164.477
836.627
-168.951
836.964
986.476
-151.981
987.308
1114
-130.391
1239.04
-123.544
1235.2
1356.74
-120.128
1354.15
1458.85
-103.613
1548.06
-91.3515
1550.4
1639.6
-91.3727
1722.03
-79.795
1719.79
1798.34
-75.7853
1795.7
1865.85
-67.1636
1914.9
-51.1135
1917
1975.28
-60.5843
1977.9
2031.83
-56.1332
2074.69
-40.084
2073.22
2127.69
-52.492
2165.03
-38.86
2166.72
2208.21
-42.6087
2209.92
2250.26
-41.3768
2277.7
-25.251
2276.03
2317.28
-39.2502
2316
2355.92
-38.4858
2377.63
-22.775
2379.5
2419.04
-40.3683
2447.8
-26.9739
2446.91
2482.48
-34.2112
2481.74
2520.02
-37.1211
2541.96
-21.9973
2542.74
2582.66
-40.2109
2583.52
2625.67
-42.9174
2655.9
-29.2758
2655.49
2709.22
-53.0132
2753.34
-44.3087
2753.84
2812.46
-58.4913
2812.49
-70.9096
-141.032
35.8309
-140.128
18.9821
-139.819
-5.80308
-139.499
-14.3637
-139.036
-19.1457
-138.933
-23.5993
-139.563
-20.51
-138.722
1.54578
-138.45
18.7519
-139.076
33.565
-139.749
57.9728
-140.684
82.8777
-141.276
108.672
-141.543
135.089
-141.825
163.379
-142.15
195.521
-142.462
231.445
-142.796
270.251
-143.225
311.468
-143.779
352.886
-144.553
391.162
-145.476
418.321
-145.461
420.891
-133.858
355.664
-73.6587
53.2428
51.0563
24.2653
77.0464
-145.25
81.1769
-19.5802
151.881
712.724
112.471
407.333
107.349
483.017
113.832
472.055
118.383
567.657
100.543
574.538
89.2745
590.318
88.8976
759.143
73.7123
697.934
68.8317
615.214
83.9437
707.667
106.111
916.002
122.39
1066.16
128.885
1044.57
129.899
914.095
131.912
672.066
92.5275
261.352
32.8862
-344.339
1.91918
-516.57
10.4594
1120.67
16.8832
909.146
20.0565
494.155
29.8026
103.107
27.6393
-330.735
3.74414
-784.522
6.79351
-961.457
34.6408
4024.24
48.8761
7259.92
41.2221
6059.21
35.0593
3337.59
-4.47784
841.939
-65.4195
118.752
-91.3295
451.207
-45.3369
740.141
-23.7833
1218.79
-53.9366
709.864
-81.9011
627.164
-107.592
1033.1
-124.932
1408.62
-109.174
1372.15
-63.351
658.877
-73.4044
395.918
-108.912
272.089
-79.747
165.485
-49.6163
77.358
-10.9106
-546.612
-3.95849
-1004.59
6.91793
-1371.98
22.4437
-1701.37
46.6001
-2046.67
-2235.04
-141.78
33.1709
-139.15
16.4554
-138.974
-6.22328
-138.723
-14.9305
-138.41
-20.0572
-139.032
-23.6622
-140.615
-19.7772
-139.66
-0.314393
-139.091
16.9691
-139.738
32.692
-139.878
56.1056
-140.037
80.6829
-140.167
105.88
-140.011
131.975
-140.253
160.401
-140.57
192.703
-141.122
228.715
-141.714
267.717
-142.57
309.094
-143.406
350.615
-144.348
388.585
-144.001
414.497
-137.255
410.749
-106.027
321.066
-48.2013
-8.13108
62.2309
-89.215
88.1104
-173.839
80.4431
-14.3892
144.067
641.902
123.004
423.762
108.874
493.041
96.5315
481.702
101.717
563.031
92.4012
584.71
85.5002
598.309
88.2724
757.459
74.8843
712.07
69.385
621.74
83.7641
693.81
106.81
893.365
124.467
1048.42
130.773
1038.11
132.429
912.272
129.606
674.715
97.0866
295.913
33.0073
-278.851
-15.2349
-467.319
11.3575
1095.11
16.8757
905.054
19.7608
494.215
32.2738
102.108
27.9644
-318.496
7.77563
-757.756
9.45363
-957.987
33.3838
4000.56
47.4587
7246.15
39.6298
6066.36
32.7601
3343.17
13.735
857.661
-36.4789
166.675
-55.1066
464.677
-59.59
741.759
-38.5169
1195.38
-47.9645
715.422
-76.6667
650.886
-107.044
1060.82
-122.846
1423.51
-100.147
1348.72
-71.6631
630.542
-87.7521
415.112
-103.369
285.544
-96.8698
154.989
-53.7091
30.4144
-19.2364
-582.381
-7.28261
-1019.52
5.16349
-1386.69
20.9215
-1716.21
34.8226
-2059.72
-2256.78
-142.244
30.822
-139.989
14.292
-139.789
-6.4683
-139.603
-15.0374
-139.49
-20.073
-140.237
-22.6643
-141.721
-17.8386
-141.164
-0.0362354
-140.789
17.4716
-141.289
34.0485
-141.275
56.8667
-141.034
80.9831
-140.825
105.684
-140.502
131.631
-140.659
160.32
-140.936
192.817
-141.542
228.987
-142.268
268.229
-143.351
309.852
-144.47
351.571
-145.589
389.275
-144.383
412.985
-132.935
399.312
-89.8056
278.507
-22.3766
-74.4067
63.966
-170.159
80.2537
-186.798
75.6659
-6.33051
132.944
595.518
123.346
433.687
114.735
501.872
97.7666
498.075
96.2122
565.816
86.6447
594.761
80.8786
604.318
85.4913
753.144
74.4859
722.887
68.4725
627.851
81.7433
680.438
105.021
870.181
123.677
1029.61
130.768
1030.95
132.114
910.828
128.545
678.055
103.204
322.001
39.0899
-215.594
-12.5599
-418.375
15.6806
1067.33
19.9253
901.137
21.1422
493.412
30.1777
94.8761
26.3463
-327.428
10.0244
-747.219
8.21427
-960.113
33.0815
3974.71
46.9378
7232.24
37.2762
6075.68
30.8767
3348.73
26.1715
860.602
-10.0468
218.192
-36.6719
487.962
-49.2852
752.256
-35.9472
1181.49
-43.7358
722.826
-75.0202
680.822
-109.655
1094.51
-124.704
1438.9
-95.7921
1320.18
-58.795
594.392
-71.3451
428.29
-91.678
303.657
-90.4408
153.251
-42.1884
-19.6786
-21.4437
-600.184
-7.46023
-1031.16
5.14303
-1397.46
19.7993
-1730.56
36.4046
-2076.62
-2265.96
-142.861
28.9869
-140.998
12.4921
-140.862
-6.82008
-140.786
-15.3541
-140.913
-20.4528
-141.765
-22.3939
-143.119
-17.2643
-142.821
-1.16921
-142.5
15.987
-142.69
32.8222
-142.414
54.7459
-141.868
78.3788
-141.519
102.785
-141.163
128.728
-141.293
157.649
-141.553
190.348
-142.209
226.74
-143.041
266.296
-144.317
308.255
-145.714
350.247
-147.102
387.561
-145.314
408.095
-129.603
380.501
-72.8865
218.901
-1.46598
-150.719
70.0434
-243.006
77.896
-196.555
73.2185
-3.28956
125.047
540.67
120.128
434.34
115.996
503.157
101.385
510.569
96.3961
571.288
85.1113
606.556
77.9262
612.146
82.1851
749.547
73.3483
731.929
67.2036
634.338
79.354
668.15
102.549
846.877
122.058
1009.63
130.126
1022.43
131.428
909.108
126.92
682.081
104.831
345.266
42.3181
-151.659
-4.681
-370.394
20.7491
1042.76
23.6184
899.179
22.7763
495.848
28.6977
97.0811
25.3879
-317.595
11.9333
-726.947
7.53692
-950.597
32.9074
3949.66
46.7952
7218.82
35.5354
6086.45
28.1303
3355.16
28.7781
857.385
-1.27603
248.825
-25.2164
508.941
-41.1669
767.073
-32.9003
1171.86
-41.1124
728.822
-76.2862
713.363
-113.677
1130.3
-125.815
1450.25
-89.024
1282.31
-47.5585
552.342
-55.8385
438.31
-82.6961
328.621
-90.1398
158.607
-39.0242
-75.4482
-24.4764
-616.103
-10.2833
-1048.43
3.77976
-1413.7
18.3464
-1743.61
27.7822
-2084.82
-2288.59
-143.717
27.5447
-142.192
11.0748
-142.113
-6.9315
-142.142
-15.2026
-142.452
-19.9997
-143.347
-21.1844
-144.551
-15.5716
-144.381
-0.500415
-144.022
16.5143
-143.907
33.6631
-143.421
55.181
-142.696
78.5095
-142.286
102.816
-141.929
128.866
-142.045
158.079
-142.304
191.034
-143.016
227.714
-143.959
267.633
-145.427
310.013
-147.061
352.345
-148.429
389.141
-144.819
404.793
-120.86
357.291
-41.019
140.228
19.7896
-208.968
69.1062
-288.022
76.1153
-200.446
68.4429
7.72677
116.361
502.203
115.708
436.196
114.756
504.968
102.643
522.421
97.1643
578.004
85.3051
618.673
76.1722
621.227
79.0143
746.756
71.5443
738.995
65.5163
640.275
76.7235
656.718
99.7411
823.897
119.934
989.266
129.016
1013.28
130.397
907.62
125.088
687.034
105.304
365.35
45.3718
-92.3705
0.382471
-328.804
26.0672
1017.35
27.716
897.451
24.6532
498.4
28.1352
92.1035
24.6811
-326.765
13.0205
-720.681
6.56554
-947.706
32.6708
3922.32
46.7261
7204.67
34.1942
6098.75
25.0657
3363.67
23.4706
858.162
-3.71014
288.236
-20.778
523.715
-37.1309
781.874
-30.533
1165.2
-40.3651
739.238
-78.8168
751.585
-117.372
1168.47
-125.202
1458.65
-81.6879
1239.33
-54.2756
525.799
-67.7656
452.188
-89.3985
348.744
-93.0986
162.814
-42.4551
-125.279
-26.0591
-629.046
-12.1277
-1060.19
3.27003
-1427.55
18.0817
-1757.82
33.2975
-2100.32
-2285.82
-144.682
26.4201
-143.455
9.89801
-143.443
-7.14209
-143.565
-15.2852
-144.005
-20.0286
-144.876
-20.8473
-145.9
-15.2963
-145.741
-1.46916
-145.308
14.945
-144.962
31.9817
-144.364
52.8465
-143.57
75.836
-143.152
100.054
-142.801
126.193
-142.911
155.608
-143.178
188.788
-143.945
225.77
-144.985
266.095
-146.588
308.924
-148.239
351.475
-148.86
386.865
-141.624
394.661
-107.265
319.952
-14.9423
45.2343
42.748
-271.159
67.3471
-313.772
70.3613
-204.962
63.58
13.3759
107.639
457.697
110.279
429.812
111.908
501.29
102.184
530.343
97.1884
583.329
85.6502
630.337
74.9687
632.064
76.1738
745.759
69.4651
745.421
63.5506
645.978
73.8885
645.729
96.6565
800.654
117.379
967.828
127.424
1002.66
129.022
905.552
122.966
692.586
104.975
384.384
48.3719
-33.7623
4.66972
-284.343
31.4946
991.28
32.2691
897.412
26.9045
504.761
27.7113
97.5543
23.8042
-316.261
13.7418
-703.216
5.30923
-934.039
32.3703
3895.59
46.7601
7190.83
33.0994
6111.95
22.0087
3373.9
15.3367
863.194
-6.6345
311.085
-18.8429
535.414
-35.2277
798.116
-28.6573
1157.55
-40.7903
749.678
-82.1771
791.234
-120.596
1205.68
-123.879
1461.1
-78.6507
1192.84
-70.3478
516.771
-86.5146
469.545
-94.4809
354.959
-91.6017
157.961
-44.2183
-176.088
-26.4373
-648.284
-12.5379
-1077.23
3.34641
-1445.51
17.9465
-1770.23
30.4814
-2111.08
-2294.63
-145.773
25.4611
-144.781
9.04304
-144.835
-7.1057
-145.028
-14.9343
-145.539
-19.3416
-146.339
-19.6757
-147.178
-13.9343
-146.993
-0.799578
-146.502
15.3661
-146.005
32.5395
-145.356
53.245
-144.542
76.1196
-144.131
100.396
-143.783
126.724
-143.887
156.436
-144.157
189.932
-144.961
227.293
-146.05
268.062
-147.665
311.318
-149.025
353.806
-148.212
386.767
-136.596
383.822
-94.578
279.159
-10.1716
-37.4106
48.821
-326.809
67.0076
-328.533
62.3132
-197.482
57.9795
20.7326
99.5907
423.696
103.941
427.374
107.235
499.087
100.25
537.272
96.2395
588.763
85.625
641.277
73.9685
643.694
73.5547
746.227
67.2611
751.338
61.4498
651.742
70.9186
636.103
93.3218
778.374
114.455
946.602
125.393
991.723
127.341
903.536
120.598
698.923
104.419
400.708
50.4333
19.7674
7.0806
-244.554
36.8406
961.74
37.2322
896.734
29.7353
511.276
27.9026
95.7172
23.2691
-323.844
14.0236
-698.868
3.76587
-926.989
32.0132
3865.85
46.8623
7175.81
32.1952
6126.4
19.1678
3386.48
14.1019
868.017
-3.17746
337.395
-19.3029
549.755
-34.1256
811.599
-27.4539
1151.14
-42.3877
765.847
-86.0793
835.321
-123.373
1242.96
-122.531
1461.07
-79.5308
1150.68
-84.4763
522.839
-98.9018
484.764
-95.3735
350.351
-87.8519
151.198
-45.2161
-216.989
-26.0032
-664.096
-11.8214
-1089.57
4.14709
-1460.38
18.2275
-1783.66
23.6225
-2116.98
-2312.77
-147.048
24.5623
-146.225
8.25913
-146.32
-7.20307
-146.546
-14.8952
-147.074
-19.2663
-147.773
-19.477
-148.441
-13.988
-148.217
-1.80086
-147.689
13.7475
-147.094
30.7142
-146.43
50.9704
-145.612
73.603
-145.208
97.8449
-144.856
124.268
-144.952
154.162
-145.213
187.901
-146.028
225.6
-147.114
266.778
-148.641
310.35
-149.539
352.385
-147.091
381.606
-131.123
365.089
-81.0486
226.132
2.41502
-124.146
53.5275
-380.283
61.7644
-337.899
54.578
-191.529
52.5193
21.9349
91.9708
385.112
96.5606
419.593
100.968
493.155
97.0564
539.496
94.2327
591.702
84.867
650.365
72.8911
655.361
71.0277
747.892
64.9589
756.773
59.2532
656.902
67.8459
626.575
89.7464
755.832
111.18
924.375
122.95
979.366
125.317
900.759
118.004
705.804
101.723
418.087
51.7154
72.3666
9.68623
-201.96
41.9852
930.035
42.5228
896.849
33.0503
521.384
28.0975
105.559
22.5374
-311.318
14.1167
-682.542
2.25405
-909.831
31.651
3836.74
47.0885
7160.95
31.4802
6141.51
16.5369
3400.6
12.1145
871.552
-4.44046
355.044
-21.4892
568.184
-33.8246
824.401
-27.0102
1143.18
-45.1309
782.318
-90.3872
879.189
-125.759
1277.28
-121.591
1456.02
-82.4824
1110.21
-93.951
533.728
-105.456
497.483
-95.6247
338.835
-83.8056
137.384
-46.2864
-257.268
-25.1338
-686.377
-10.6583
-1107.18
5.22458
-1478.32
19.2794
-1794.97
31.0976
-2126.63
-2299.29
-148.55
23.7011
-147.832
7.69853
-147.941
-7.10003
-148.166
-14.4878
-148.671
-18.5612
-149.262
-18.4733
-149.782
-12.9173
-149.523
-1.18495
-148.977
14.1421
-148.32
31.1965
-147.644
51.4387
-146.816
74.0492
-146.408
98.4049
-146.04
125.045
-146.115
155.235
-146.352
189.317
-147.149
227.416
-148.191
269.014
-149.58
312.829
-149.976
354.069
-145.85
378.515
-125.025
345.394
-61.6657
164.111
23.3089
-205.665
56.0449
-410.364
53.0201
-331.985
48.0543
-184.065
47.6518
24.9561
84.5139
354.356
88.2793
417.999
93.6171
488.912
92.5439
540.607
91.125
594.689
83.208
658.683
71.4942
667.102
68.4884
750.991
62.573
762.387
56.9824
662.553
64.7114
618.81
85.975
734.809
107.602
902.736
120.155
966.877
122.992
897.877
115.318
713.019
96.4446
436.99
53.3151
114.754
11.2774
-163.627
46.8272
894.732
48.06
895.195
36.971
531.161
28.9887
108.39
22.1777
-316.584
13.6572
-678.475
0.671219
-899.839
31.3116
3804.41
47.4227
7144.62
30.9761
6157.72
13.8947
3417.36
3.87751
881.772
-12.5016
378.356
-24.4482
578.824
-34.2875
833.087
-27.381
1136.66
-48.8671
805.363
-94.9086
926.026
-127.779
1310.43
-121.01
1450.31
-86.0056
1076.37
-100.003
549.234
-108.592
507.432
-98.1243
327.567
-79.8486
120.202
-46.9897
-287.84
-23.9006
-706.064
-8.98156
-1120.52
6.85937
-1493.44
20.5958
-1807.97
29.32
-2136.05
-2308.95
-150.309
22.7865
-149.641
7.05177
-149.728
-7.21436
-149.914
-14.4916
-150.366
-18.5701
-150.841
-18.4994
-151.232
-13.258
-150.935
-2.26888
-150.374
12.4829
-149.666
29.2892
-148.979
49.1819
-148.136
71.5827
-147.714
95.9141
-147.322
122.639
-147.37
152.993
-147.571
187.31
-148.333
225.732
-149.305
267.675
-150.498
311.564
-150.178
351.453
-143.432
369.054
-114.202
313.233
-27.8574
74.617
47.0377
-284.558
50.1476
-415.332
45.5462
-328.549
41.2855
-180.959
42.7372
22.6171
77.1742
320.961
79.8497
412.651
86.161
481.461
86.9838
538.052
86.9129
594.58
80.5366
664.331
69.5845
677.29
65.8095
754.195
60.0799
767.208
54.6291
667.239
61.5153
610.81
82.0273
713.553
103.741
880.183
117.01
953.023
120.349
894.166
112.547
720.413
93.0839
457.506
55.1054
154.538
13.9975
-122.223
51.2877
857.87
53.7448
893.336
41.2808
544.05
30.0073
123.668
21.71
-300.638
13.0971
-661.206
-0.874554
-880.358
31.0437
3772.81
47.9319
7128.32
30.6921
6174.4
11.0796
3436.14
-6.3127
898.865
-22.4016
395.735
-28.0518
587.226
-35.5336
841.441
-28.6756
1128.34
-53.5297
828.302
-99.4839
970.631
-129.374
1339.28
-120.605
1440.56
-89.1807
1043.45
-102.648
562.22
-109.273
515.431
-101.587
318.373
-76.3966
94.0895
-46.6821
-319.509
-22.0016
-731.245
-6.56036
-1139
8.98813
-1511.02
22.197
-1817.87
25.2605
-2136.45
-2312.8
-152.336
21.8795
-151.67
6.56774
-151.708
-7.16692
-151.833
-14.1578
-152.214
-17.9682
-152.577
-17.6856
-152.855
-12.4059
-152.52
-1.70699
-151.944
12.8745
-151.19
29.7447
-150.481
49.6896
-149.609
72.1244
-149.162
96.606
-148.732
123.573
-148.742
154.228
-148.894
188.9
-149.6
227.717
-150.453
270.009
-151.299
313.792
-149.775
351.512
-139.183
359.764
-100.923
276.249
-11.7383
-12.9698
47.2282
-338.581
42.4379
-408.216
39.2076
-322.76
33.8099
-173.364
36.9334
21.7569
69.4742
293.514
70.8377
414.039
78.7069
474.695
80.7619
536.122
81.7637
595.401
76.8848
669.855
67.0461
687.375
62.8875
758.617
57.4526
772.51
52.2273
672.692
58.3109
604.856
77.9669
694.288
99.6519
858.576
113.567
939.229
117.448
890.265
109.76
727.617
90.9705
476.365
55.7509
189.336
15.4601
-85.446
55.3109
818.428
59.4932
888.713
46.0537
555.991
31.8383
131.817
21.7017
-302.525
12.0639
-655.459
-2.5433
-868.494
30.8694
3737.55
48.5875
7110.35
30.6593
6192.08
8.01793
3458.57
-16.1911
923.352
-31.0566
415.41
-32.3599
587.35
-37.668
845.763
-30.9189
1122.2
-58.8997
858.199
-103.929
1016.82
-130.497
1366.4
-120.044
1431.38
-91.7002
1016.52
-103.68
576.035
-108.757
522.462
-103.408
312.473
-73.8684
65.7152
-45.4395
-345.57
-19.5662
-754.058
-3.41462
-1153.99
11.8334
-1526.02
24.4833
-1829.91
30.3942
-2143.46
-2311.42
-154.63
20.8576
-153.932
5.87581
-153.892
-7.40924
-153.931
-14.301
-154.225
-18.1305
-154.472
-17.9191
-154.643
-12.9511
-154.261
-2.8505
-153.66
11.205
-152.856
27.806
-152.116
47.4503
-151.21
69.6985
-150.729
94.1615
-150.256
121.209
-150.222
152.016
-150.312
186.906
-150.934
225.996
-151.591
268.458
-151.877
311.696
-148.654
346.043
-133.67
342.051
-88.9305
228.464
-11.3201
-93.5104
36.8249
-389.475
38.9205
-411.952
31.8237
-316.816
26.1009
-168.773
31.0383
15.727
61.81
263.325
62.5987
410.621
72.1632
464.427
74.4447
532.106
75.9975
593.477
72.3787
672.44
63.8018
694.902
59.5943
762.026
54.6061
776.45
49.7292
676.732
55.0828
598.334
73.8097
674.784
95.3495
836.18
109.819
924.173
114.264
885.455
106.969
734.464
88.7044
495.541
55.7139
223.652
17.5276
-47.4884
58.8761
777.504
65.2043
882.943
51.0458
570.35
33.8187
152.121
21.6683
-282.391
11.1433
-635.686
-4.21268
-847.527
30.831
3702.82
49.4542
7092.3
30.9176
6209.97
4.72522
3483.87
-24.9637
953.162
-38.1877
430.131
-37.3162
590.166
-41.0355
850.583
-34.1541
1113.42
-64.8368
886.632
-108.133
1058.79
-131.06
1388.33
-119.156
1418.5
-93.6861
989.571
-104.114
586.245
-108.116
528.216
-104.436
307.719
-71.7549
33.5373
-43.1457
-375.162
-16.4081
-780.54
0.531599
-1173.86
15.2937
-1542.9
27.2206
-1838.08
27.2022
-2140.48
-2318.87
-157.179
19.8306
-156.419
5.31306
-156.289
-7.5149
-156.234
-14.1261
-156.431
-17.6949
-156.567
-17.3008
-156.637
-12.2854
-156.203
-2.36326
-155.572
11.5683
-154.714
28.215
-153.931
47.9387
-152.975
70.258
-152.448
94.8917
-151.917
122.193
-151.82
153.292
-151.824
188.516
-152.314
227.923
-152.675
270.478
-152.19
312.778
-146.93
342.571
-127.452
324.106
-76.8711
179.28
-5.84815
-161.943
33.3554
-424.548
33.9425
-410.464
23.0744
-303.645
18.4854
-162.181
24.6732
11.5513
52.4831
239.951
52.7545
414.371
65.6045
452.607
67.4559
530.422
69.5701
593.413
67.1629
675.723
59.9014
702.618
55.9096
766.443
51.5245
780.857
47.1577
681.476
51.8856
593.885
69.6207
657.57
90.889
815.051
105.818
909.391
110.859
880.392
104.246
740.555
86.2853
513.606
54.0299
255.765
16.824
-14.2748
61.9894
732.842
70.8165
873.659
56.3464
583.112
36.6136
165.06
22.1793
-280.699
9.84462
-626.719
-5.96352
-834.327
30.9327
3663.94
50.4974
7072.47
31.5167
6228.69
1.58205
3513.66
-31.931
987.12
-41.0068
443.229
-41.6882
590.023
-46.3302
854.597
-38.3167
1106.3
-71.0129
921.681
-111.92
1101.36
-131.028
1408.4
-117.831
1406.87
-94.9897
968.462
-103.828
597.361
-106.932
533.855
-104.472
304.827
-69.3924
-0.501385
-39.8954
-402.355
-12.5601
-805.128
5.28257
-1190.97
19.5855
-1557.42
30.9344
-1848.93
35.5487
-2146.54
-2308.43
-159.966
18.645
-159.128
4.46441
-158.89
-7.95799
-158.727
-14.4713
-158.821
-18.0588
-158.84
-17.7555
-158.807
-13.0346
-158.309
-3.62089
-157.634
9.81959
-156.713
26.1707
-155.878
45.6073
-154.864
67.743
-154.28
92.3498
-153.677
119.71
-153.5
150.925
-153.382
186.299
-153.672
225.826
-153.609
268.15
-152.132
308.834
-144.558
332.659
-120.533
297.212
-63.3666
118.944
4.46669
-233.435
33.1643
-454.974
26.3443
-405.178
13.3141
-291.823
10.7408
-160.894
17.8422
2.90389
45.0442
212.36
47.1091
408.571
58.3632
440.487
59.3749
527.57
62.2247
589.997
61.194
675.457
55.3403
707.198
51.7646
769.044
48.1235
783.347
44.4362
684.279
48.6775
588.432
65.4011
640.017
86.2765
793.262
101.558
893.466
107.219
874.306
101.531
745.674
83.9778
531.843
52.5294
288.282
17.0306
19.9138
64.7243
685.738
76.2394
862.64
61.7064
597.624
39.4711
189.58
22.7383
-255.828
8.87066
-602.809
-7.6225
-811.997
31.2032
3625.51
51.778
7052.46
32.4796
6247.25
-1.00951
3546.28
-36.2368
1023.06
-38.278
447.77
-43.4123
599.971
-53.0705
865.572
-43.5372
1094.38
-77.4031
952.93
-115.267
1137.99
-130.387
1422.69
-116.059
1391.71
-95.5987
946.712
-102.529
604.534
-105.169
538.714
-103.453
302.466
-66.3552
-36.0895
-35.7273
-432.988
-7.98854
-831.892
10.7669
-1212.6
24.4715
-1573.37
35.0116
-1855.27
36.9003
-2145.1
-2304
-162.971
17.4572
-162.04
3.74836
-161.694
-8.25744
-161.424
-14.4878
-161.412
-17.8161
-161.319
-17.3375
-161.187
-12.5527
-160.619
-3.24573
-159.892
10.1089
-158.9
26.4957
-157.999
46.0227
-156.91
68.2597
-156.249
93.0551
-155.549
120.673
-155.257
152.154
-154.966
187.793
-154.971
227.449
-154.326
269.375
-151.572
307.868
-141.154
324.243
-111.31
269
-41.9024
51.2393
23.651
-294.459
31.4353
-459.294
15.411
-387.246
4.49425
-278.766
3.07847
-157.563
10.419
-2.50569
32.5301
194.383
37.8229
408.665
48.7667
430.83
50.2722
526.339
53.9588
588.651
54.4101
676.171
50.1293
712.192
47.1954
772.605
44.4287
786.308
41.5996
687.635
45.5037
584.951
61.2066
624.969
81.5662
773.107
97.0961
878.119
103.404
867.999
98.7709
749.816
81.9898
548.907
49.7505
320.636
12.0583
52.7286
67.1011
631.235
81.4229
847.979
67.2245
610.017
43.0738
206.654
23.8663
-250.083
7.60532
-589.193
-9.22296
-797.543
31.6261
3582.59
53.2438
7030.6
33.8246
6266.39
-2.62675
3582.62
-38.5106
1059.23
-30.9225
442.906
-35.6444
603.688
-54.4953
883.934
-49.6864
1090.56
-83.7327
989.459
-118.028
1174.13
-129.148
1434.91
-113.776
1377.99
-95.3469
930.096
-100.063
611.737
-102.193
543.852
-101.329
301.353
-62.812
-73.6095
-30.6034
-463.146
-2.72617
-857.433
16.9864
-1232.02
30.2663
-1587.31
39.7886
-1864.49
35.1827
-2142.4
-2310.71
-166.175
16.0857
-165.148
2.70064
-164.685
-8.91907
-164.302
-15.039
-164.182
-18.3774
-163.972
-17.9903
-163.736
-13.476
-163.086
-4.61131
-162.294
8.28339
-161.22
24.3596
-160.244
43.6024
-159.069
65.6531
-158.317
90.4034
-157.503
118.042
-157.07
149.572
-156.564
185.225
-156.206
224.713
-154.837
265.741
-150.503
301.041
-136.499
307.862
-99.0187
228.679
-16.1208
-34.7934
37.0306
-351.23
19.395
-443.09
3.73044
-373.045
-3.15502
-273.123
-4.41639
-157.73
3.71195
-12.5401
23.3773
173.441
34.1947
393.151
38.9503
424.471
41.5578
521.748
45.3659
584.157
46.9177
673.211
44.1905
713.578
42.1268
773.641
40.3758
786.895
38.5612
688.593
42.3041
580.025
57.02
609.425
76.7565
752.422
92.4229
861.757
99.3948
860.539
95.9044
752.61
80.5724
564.72
49.599
352.452
11.3684
88.2049
69.3416
573.798
86.2683
831.443
72.6414
623.338
46.6012
234.037
24.9995
-221.008
6.8743
-560.302
-10.6032
-774.1
32.2242
3540.19
54.9411
7008.4
35.5469
6284.95
-3.29325
3620.58
-40.354
1097.69
-31.6812
437.847
-29.4601
606.897
-50.4256
906.393
-56.872
1094.2
-90.1112
1019.82
-120.22
1203.25
-127.284
1441.48
-110.979
1361.15
-94.4673
912.707
-96.9269
615.159
-98.4928
548.259
-97.8246
300.468
-58.5455
-110.922
-24.6656
-496.356
3.41607
-883.961
24.0006
-1255.57
36.7349
-1602.59
45.5045
-1868.8
45.6296
-2139.04
-2283.92
-169.558
14.7214
-168.431
1.79814
-167.86
-9.42889
-167.372
-15.2585
-167.147
-18.3405
-166.825
-17.7827
-166.487
-13.191
-165.754
-4.3873
-164.89
8.44763
-163.728
24.548
-162.664
43.8781
-161.387
66.039
-160.525
90.9716
-159.573
118.842
-158.969
150.573
-158.205
186.353
-157.412
225.651
-155.174
265.526
-148.966
296.81
-131.029
292.161
-88.2349
187.713
-18.4314
-102.569
17.8179
-382.154
5.48651
-427.663
-5.03866
-360.631
-11.1707
-264.926
-12.4773
-154.558
-5.083
-18.0393
10.4812
161.676
26.1842
382.626
29.4353
422.726
32.7348
518.8
36.5879
582.902
38.9442
672.3
37.622
715.864
36.6224
775.45
36.0368
787.813
35.3699
689.899
39.1199
576.803
52.8843
596.418
71.8997
733.654
87.6014
846.256
95.2412
852.914
92.9362
754.451
79.4177
578.659
52.6594
379.44
17.904
118.694
71.4476
520.635
90.7289
811.864
78.054
634.049
50.7733
253.878
26.5711
-211.032
5.92629
-541.453
-11.8405
-758.543
32.9667
3493.23
56.8096
6984.35
37.6281
6303.83
-3.26191
3661.35
-42.7287
1137.47
-40.3769
437.461
-36.2523
602.042
-51.7506
921.779
-64.3099
1108.1
-96.2212
1054.67
-121.667
1231
-124.783
1446.04
-107.726
1345.91
-93.1668
900.084
-93.614
618.262
-93.8325
551.791
-92.8884
298.984
-53.4969
-149.672
-17.9221
-530.366
10.613
-910.655
31.8978
-1277.11
44.1896
-1616.07
51.8231
-1876.31
48.4216
-2137.94
-2279.58
-173.103
13.1598
-171.883
0.542726
-171.203
-10.3102
-170.608
-16.0212
-170.277
-19.1131
-169.841
-18.6528
-169.397
-14.3181
-168.571
-5.91956
-167.627
6.46969
-166.369
22.2327
-165.21
41.2606
-163.826
63.2075
-162.846
88.0502
-161.746
115.872
-160.956
147.544
-159.905
183.135
-158.623
221.848
-155.397
259.889
-147.086
285.858
-125.022
267.593
-77.7904
137.618
-19.4087
-163.91
6.43406
-410.392
-1.37501
-421.319
-12.8137
-350.722
-19.8901
-259.218
-20.8431
-155.252
-14.3559
-26.7676
0.628611
144.729
19.5405
358.632
21.4725
418.158
24.6742
513.324
28.0974
578.623
30.8095
668.072
30.4888
714.781
30.6011
774.255
31.3514
785.869
31.95
688.437
35.8816
571.679
48.764
582.681
66.9802
714.417
82.6178
829.831
90.9244
844.015
89.8445
754.674
78.2955
590.485
57.0498
401.202
28.3717
144.622
73.3064
475.722
94.6974
790.646
83.1954
644.902
54.769
282.669
27.93
-178.018
5.70641
-507.142
-12.851
-733.712
33.8815
3447.03
58.8949
6959.81
40.0041
6321.78
-2.653
3703.17
-46.1553
1183.41
-53.4014