/*--------------------------------*- C++ -*----------------------------------*\
| =========                 |                                                 |
| \\      /  F ield         | OpenFOAM: The Open Source CFD Toolbox           |
|  \\    /   O peration     | Version:  4.1                                   |
|   \\  /    A nd           | Web:      www.OpenFOAM.org                      |
|    \\/     M anipulation  |                                                 |
\*---------------------------------------------------------------------------*/
FoamFile
{
    version     2.0;
    format      ascii;
    class       volVectorField;
    location    "15";
    object      U;
}
// * * * * * * * * * * * * * * * * * * * * * * * * * * * * * * * * * * * * * //

dimensions      [0 1 -1 0 0 0 0];

internalField   nonuniform List<vector> 
6785
(
(9.50498e-15 0.852196 15.7946)
(4.64802e-15 -4.8946 12.1215)
(-1.33446e-15 -4.19553 12.1321)
(1.26889e-16 -3.60122 11.9966)
(6.42608e-16 -3.00472 11.8778)
(-5.29037e-17 -2.55324 11.6992)
(2.154e-15 -2.20887 11.4769)
(4.35623e-16 -1.9661 11.2116)
(-6.93986e-16 -1.79863 10.916)
(3.29036e-15 -1.71246 10.5882)
(1.17307e-16 -1.83754 10.1561)
(-5.28655e-16 -2.28577 9.53763)
(7.0036e-16 -2.51315 8.96379)
(1.20617e-17 -1.06563 8.91364)
(-2.33042e-16 1.7658 7.47111)
(1.42137e-14 -5.35016 22.4928)
(9.15758e-15 -14.6049 21.3939)
(-3.03011e-16 -13.2709 20.3411)
(4.53883e-15 -11.7698 19.5065)
(2.06515e-15 -11.1562 18.5042)
(3.54335e-17 -10.6596 17.5173)
(2.84497e-15 -10.0903 16.5713)
(1.23621e-15 -9.52515 15.6234)
(-8.37667e-16 -8.96559 14.6637)
(1.55918e-15 -8.36747 13.6944)
(6.58012e-16 -7.75723 12.7177)
(-6.01616e-16 -7.30343 11.7191)
(1.18083e-15 -7.01703 10.624)
(4.01016e-16 -5.73091 9.16071)
(-8.59192e-17 -2.30488 4.58324)
(1.49193e-14 -7.71559 23.9796)
(1.59168e-14 -16.7732 24.673)
(1.14263e-15 -13.7368 23.9371)
(5.50211e-15 -12.3064 22.6248)
(1.08629e-16 -11.6449 21.2413)
(4.56826e-16 -10.8143 20.0012)
(2.8071e-15 -9.94058 18.7737)
(1.07141e-15 -9.10048 17.5247)
(-5.28229e-16 -8.28379 16.2654)
(1.34184e-15 -7.4757 15.0263)
(9.69869e-16 -6.66813 13.8177)
(-4.04926e-16 -5.8423 12.4304)
(-8.58235e-16 -4.81486 10.2761)
(7.8261e-16 -3.12744 6.68579)
(4.87208e-17 -0.832734 1.69098)
(1.57212e-14 -8.50227 22.0448)
(1.11547e-14 -16.6214 24.3323)
(3.47375e-15 -12.9304 23.7968)
(5.17225e-15 -12.154 21.9984)
(8.99134e-17 -11.4206 20.5027)
(2.2581e-15 -10.4942 19.1722)
(2.13943e-15 -9.63457 17.8167)
(5.57522e-16 -8.82437 16.4591)
(1.16985e-15 -8.0545 15.1231)
(8.80782e-16 -7.32477 13.8167)
(-9.12782e-16 -6.55376 12.4401)
(6.80262e-16 -5.49285 10.5849)
(-6.49679e-17 -3.78824 7.51248)
(-2.84328e-15 -1.49704 2.77052)
(-5.95499e-16 0.152212 -1.77239)
(1.33212e-14 -8.47534 19.745)
(1.31402e-14 -16.3604 24.3122)
(3.59583e-15 -13.1001 23.6599)
(2.68581e-15 -12.6286 21.5363)
(-8.97096e-16 -11.8574 20.0245)
(1.10021e-15 -10.9584 18.6636)
(2.28879e-15 -10.1709 17.2587)
(-2.82682e-15 -9.404 15.8712)
(-2.37005e-15 -8.65388 14.5238)
(3.36923e-16 -7.93191 13.214)
(-2.56614e-15 -7.16749 11.8302)
(-1.89352e-15 -6.11856 9.99868)
(-1.17619e-15 -4.42781 7.16026)
(-6.69852e-15 -2.30953 3.29319)
(-3.9349e-15 -0.790049 0.321618)
(1.36849e-14 -8.01975 17.5464)
(1.39149e-14 -16.0194 24.5268)
(5.65054e-15 -13.6463 24.0458)
(4.13136e-15 -12.9958 21.7648)
(2.36708e-15 -12.1283 20.2151)
(1.0669e-15 -11.2269 18.8465)
(2.08441e-15 -10.4413 17.4339)
(4.71368e-16 -9.65149 16.0434)
(2.39438e-16 -8.86313 14.6935)
(-3.54877e-16 -8.09618 13.3822)
(-4.16871e-16 -7.30063 12.0182)
(3.93284e-15 -6.28878 10.2846)
(-1.10042e-15 -4.73825 7.72614)
(-1.4835e-15 -2.7613 4.37776)
(1.59064e-15 -0.953065 1.30229)
(1.38365e-14 -7.33112 15.2349)
(1.51091e-14 -15.4892 24.35)
(6.84705e-15 -14.0293 24.422)
(3.83745e-15 -13.1316 22.068)
(3.17085e-15 -12.1489 20.4393)
(3.7816e-15 -11.2401 19.0543)
(1.50792e-15 -10.4406 17.6439)
(1.02923e-15 -9.62459 16.2582)
(2.50788e-15 -8.81496 14.9076)
(5.32946e-16 -8.03211 13.5933)
(9.9825e-16 -7.229 12.2392)
(2.81876e-15 -6.24641 10.5536)
(3.48571e-16 -4.79596 8.11593)
(-1.22728e-15 -2.92373 4.95707)
(5.3747e-15 -1.01754 1.80732)
(9.93362e-15 -6.5381 12.985)
(1.57258e-14 -14.8386 23.796)
(7.3601e-15 -14.2785 24.6691)
(4.11028e-15 -13.2473 22.3242)
(2.02561e-15 -12.1773 20.5817)
(2.23749e-15 -11.2755 19.1654)
(2.88608e-16 -10.4752 17.7585)
(1.10791e-15 -9.65387 16.3773)
(2.10227e-15 -8.84593 15.026)
(5.51994e-16 -8.06652 13.7096)
(7.5416e-16 -7.26705 12.3616)
(2.26233e-15 -6.30076 10.7078)
(5.2773e-16 -4.90723 8.34557)
(-6.04998e-16 -3.10182 5.28439)
(1.17444e-15 -1.13296 2.06042)
(8.68681e-15 -5.7347 11.0181)
(1.57493e-14 -14.1498 23.0331)
(7.82096e-15 -14.4699 24.8459)
(4.78876e-15 -13.4217 22.6272)
(2.31802e-15 -12.2758 20.7583)
(-5.12928e-17 -11.3708 19.2975)
(3.31908e-15 -10.5696 17.8946)
(1.37828e-15 -9.74818 16.5169)
(-3.5606e-15 -8.94208 15.1637)
(8.43847e-16 -8.16275 13.8443)
(4.92655e-16 -7.36295 12.4988)
(-3.32232e-16 -6.4062 10.8716)
(9.69438e-16 -5.05576 8.58003)
(-3.24356e-16 -3.30191 5.60057)
(-3.15235e-15 -1.26283 2.29033)
(5.54476e-15 -4.98173 9.3636)
(1.51436e-14 -13.4491 22.1441)
(8.2632e-15 -14.5816 24.9367)
(3.93256e-15 -13.6078 22.9617)
(2.22252e-15 -12.3909 20.9758)
(1.97542e-15 -11.4647 19.4572)
(4.46995e-16 -10.6574 18.0553)
(1.52245e-15 -9.8362 16.681)
(1.6825e-16 -9.03026 15.3262)
(-7.72088e-16 -8.24844 14.0036)
(7.73982e-16 -7.44895 12.6585)
(-1.89963e-15 -6.50095 11.0507)
(2.74891e-15 -5.1822 8.8145)
(8.27793e-16 -3.4663 5.8928)
(-2.27184e-15 -1.35979 2.50334)
(3.20253e-15 -4.33908 8.03167)
(1.52832e-14 -12.7778 21.2198)
(7.81618e-15 -14.6176 24.9367)
(4.09975e-15 -13.7944 23.3039)
(7.85611e-16 -12.5306 21.2352)
(-1.82491e-15 -11.5754 19.648)
(3.80993e-15 -10.7593 18.2386)
(2.66081e-15 -9.93866 16.8647)
(-2.68192e-15 -9.13163 15.507)
(6.42025e-16 -8.34564 14.1797)
(2.59394e-15 -7.54325 12.8324)
(-5.09886e-15 -6.60315 11.2408)
(-1.88464e-15 -5.31738 9.05667)
(-1.01707e-14 -3.64052 6.18894)
(-5.43775e-15 -1.46608 2.72515)
(4.37898e-15 -3.7086 6.71436)
(1.55895e-14 -12.0553 20.1262)
(8.52298e-15 -14.5462 24.7573)
(5.24479e-15 -13.9228 23.5246)
(3.6038e-15 -12.6153 21.3883)
(9.87603e-17 -11.6173 19.7324)
(1.84874e-15 -10.7943 18.328)
(3.02989e-15 -9.98182 16.9695)
(-1.54909e-15 -9.18368 15.6237)
(3.30654e-16 -8.4052 14.306)
(6.09529e-16 -7.61282 12.9673)
(-6.09061e-15 -6.6847 11.3917)
(1.34745e-15 -5.41633 9.24103)
(-8.48698e-15 -3.75932 6.39748)
(-2.78313e-15 -1.52386 2.86166)
(9.96121e-16 -3.33545 6.0525)
(1.23314e-14 -11.5152 19.2497)
(1.17692e-14 -14.5923 24.6387)
(4.93269e-15 -14.3179 23.9956)
(3.80913e-15 -13.0727 21.9041)
(8.8243e-16 -12.0379 20.129)
(5.13925e-17 -11.1831 18.6396)
(4.01038e-15 -10.3526 17.2359)
(-1.71191e-15 -9.52835 15.8516)
(-4.53822e-16 -8.71713 14.5008)
(2.15887e-15 -7.89308 13.1428)
(-3.32303e-15 -6.95227 11.5867)
(-1.79326e-15 -5.70815 9.5202)
(-2.7221e-15 -4.05832 6.74135)
(-4.54995e-15 -1.71311 3.11533)
(-3.2822e-16 -1.86016 2.57768)
(1.10604e-14 -9.88243 16.3647)
(1.0554e-14 -13.9142 23.3277)
(5.49213e-15 -13.954 23.4025)
(2.07679e-15 -12.5788 21.2491)
(7.25187e-16 -11.4618 19.5071)
(1.21046e-15 -10.7021 18.2878)
(2.94125e-15 -10.0129 17.1434)
(7.77565e-17 -9.33283 15.987)
(1.46225e-16 -8.66053 14.8119)
(4.7544e-16 -7.97301 13.6029)
(-1.46101e-15 -7.16956 12.2043)
(-9.87063e-16 -6.04932 10.2836)
(-3.01643e-15 -4.57922 7.74685)
(-3.06111e-15 -2.24628 4.40119)
(2.05548e-15 -4.38868 9.30973)
(1.15845e-14 -10.8449 18.5204)
(1.3495e-14 -15.1302 24.9026)
(9.77916e-15 -16.7443 26.0929)
(5.31679e-15 -16.3246 24.4429)
(2.22998e-15 -15.1833 21.9717)
(8.55316e-16 -13.8748 19.6139)
(1.04861e-15 -12.6163 17.6144)
(3.9989e-16 -11.3926 15.7695)
(-2.10295e-17 -10.2113 14.1114)
(-6.18178e-16 -9.05728 12.575)
(-8.49159e-16 -7.8387 10.906)
(-1.20845e-15 -6.41376 9.01797)
(-3.58251e-15 -4.38451 6.12965)
(-2.57923e-15 -0.992211 1.82036)
(-3.55377e-16 0.686893 -3.51778)
(-5.55846e-16 0.377012 -4.16459)
(-4.16834e-16 0.460479 -3.39264)
(-4.06579e-16 0.81755 -3.35574)
(-3.76791e-16 1.35178 -3.22356)
(-5.86602e-16 1.66697 -4.31866)
(-4.05258e-16 1.60684 -3.30714)
(-3.55617e-16 1.98151 -3.24357)
(-5.50162e-16 2.26662 -3.13024)
(-4.97083e-16 3.41962 -3.97672)
(4.2746e-17 2.57615 -2.9476)
(1.46332e-16 2.85555 -2.79026)
(-1.56958e-16 4.62912 -3.48296)
(-1.22082e-16 3.22262 -2.49071)
(-1.02411e-16 3.63129 -2.43717)
(-7.82152e-17 3.68212 -2.36341)
(-4.05142e-16 5.33425 -2.96203)
(-2.32021e-16 3.85864 -2.06555)
(-1.94745e-16 4.00601 -1.96893)
(-4.99319e-16 5.94892 -2.45303)
(-3.15752e-16 4.20938 -1.65601)
(-3.29121e-16 4.55368 -1.62769)
(-2.84108e-16 4.53847 -1.60068)
(-5.54979e-16 6.14026 -1.97274)
(-3.56681e-16 4.45618 -1.29577)
(-3.4836e-16 4.83864 -1.2662)
(-3.54236e-16 4.81584 -1.25121)
(-6.03153e-16 6.21271 -1.51979)
(-4.29515e-16 4.66478 -0.95617)
(-4.00166e-16 4.6948 -0.926061)
(-6.24713e-16 6.34065 -1.04555)
(-4.45251e-16 4.64422 -0.621068)
(-5.15078e-16 4.84549 -0.606535)
(-4.54109e-16 4.81263 -0.623162)
(-4.86487e-16 5.82241 -0.618553)
(-3.89315e-16 4.50325 -0.354363)
(-3.60811e-16 4.50488 -0.376137)
(-5.4795e-16 5.51506 -0.17774)
(-3.58134e-16 4.22832 -0.101565)
(-3.59676e-16 4.32097 -0.101678)
(-6.1829e-16 4.31976 -0.157449)
(-4.4873e-16 4.7986 0.190152)
(-2.96528e-16 3.76659 0.0701979)
(-2.87469e-16 3.86328 0.065242)
(-2.69701e-16 3.88691 -0.00383679)
(-3.67205e-16 4.11585 0.47675)
(-3.06769e-16 3.23948 0.206539)
(-2.85673e-16 3.2565 0.108474)
(-3.80376e-16 3.51571 0.778334)
(-2.25861e-16 2.79714 0.39037)
(-2.2237e-16 2.81231 0.381718)
(-2.14639e-16 2.81291 0.28263)
(-3.04491e-16 3.05254 1.09806)
(-2.09988e-16 2.27389 0.560968)
(-2.30903e-16 2.31948 0.55026)
(-1.22809e-16 2.30264 0.450726)
(-1.53389e-16 2.42774 1.30577)
(-9.48562e-17 1.66842 0.589633)
(-9.19247e-17 1.6332 0.467811)
(-1.0669e-16 1.60168 1.10944)
(-5.18155e-17 0.912249 0.175691)
(-3.558e-17 0.850329 0.122629)
(-1.04005e-16 0.926716 0.103745)
(1.10376e-15 1.11794 -0.499096)
(9.80429e-16 -0.208445 -1.4139)
(7.44081e-16 0.0415473 -1.28768)
(-7.65203e-16 0.286799 0.626608)
(-1.02488e-15 -1.22363 2.83458)
(-8.05068e-16 -1.15812 2.78402)
(-8.44881e-16 -1.09383 2.95219)
(-1.06327e-15 -2.60073 6.04383)
(-7.26018e-16 -3.03048 5.85517)
(-7.78259e-16 -3.28205 5.94798)
(-7.52457e-16 -3.40113 6.12776)
(1.14676e-15 -6.24171 9.87368)
(-3.44232e-16 -5.50851 8.03317)
(-4.19969e-16 -5.79738 8.50953)
(-2.37361e-16 -9.28958 12.6846)
(-7.79538e-17 -8.23858 9.75126)
(-1.51411e-16 -8.6386 10.4521)
(-3.81511e-16 -9.4376 12.0911)
(-2.68923e-16 -9.32611 12.0231)
(-2.0853e-16 -9.49162 12.3121)
(9.02477e-16 -11.8968 15.4255)
(2.96307e-16 -10.26 13.4475)
(3.83011e-16 -10.6516 14.1503)
(3.90047e-16 -10.6345 14.2954)
(4.52178e-16 -10.7098 14.4236)
(5.07141e-16 -10.8004 14.5742)
(5.74834e-16 -10.875 14.7524)
(7.07726e-16 -10.9629 15.0847)
(8.95816e-16 -11.0962 15.4973)
(1.73908e-15 -12.0429 17.2026)
(1.26537e-15 -11.502 15.9755)
(1.38455e-15 -11.6564 16.2206)
(1.44901e-15 -11.6399 16.3503)
(1.59964e-15 -11.804 16.7345)
(1.63219e-15 -11.7779 16.7687)
(1.7036e-15 -11.8569 16.9182)
(1.77361e-15 -11.9119 17.047)
(1.84799e-15 -11.9851 17.2068)
(2.742e-15 -12.3903 18.5678)
(2.39404e-15 -12.0906 17.6154)
(2.47705e-15 -12.1948 17.8038)
(2.53494e-15 -12.2309 17.8858)
(2.60977e-15 -12.2726 18.0145)
(2.69757e-15 -12.3151 18.2119)
(2.81136e-15 -12.387 18.4333)
(2.90441e-15 -12.3871 18.4967)
(2.99927e-15 -12.4545 18.6121)
(3.11879e-15 -12.5158 18.7142)
(4.45567e-15 -12.2241 19.1677)
(3.53102e-15 -12.2068 18.6704)
(3.68568e-15 -12.2431 18.7732)
(3.76665e-15 -12.2744 18.8174)
(3.87116e-15 -12.3073 18.8832)
(3.97867e-15 -12.2934 18.969)
(4.10232e-15 -12.346 19.1991)
(4.20942e-15 -12.3698 19.2585)
(4.33173e-15 -12.4148 19.2341)
(5.14102e-15 -11.2626 18.3354)
(4.59617e-15 -11.5961 18.4179)
(4.78271e-15 -11.5547 18.514)
(4.88944e-15 -11.5915 18.62)
(4.99854e-15 -11.5306 18.5064)
(5.11695e-15 -11.5231 18.4479)
(5.25109e-15 -11.4929 18.3687)
(5.40874e-15 -11.4735 18.319)
(5.69164e-15 -11.5539 18.4695)
(6.06382e-15 -9.24342 15.6851)
(5.88468e-15 -10.2106 16.9485)
(6.00228e-15 -10.0367 16.6265)
(6.10854e-15 -9.99632 16.4751)
(6.48086e-15 -9.94696 16.4453)
(6.56724e-15 -9.82908 16.1712)
(6.55593e-15 -9.71478 15.7896)
(6.55848e-15 -9.65903 15.3848)
(6.53827e-15 -9.54099 14.8943)
(6.29092e-15 -6.69889 10.7522)
(6.92817e-15 -7.9614 13.3805)
(6.67658e-15 -7.62713 12.5677)
(6.50544e-15 -7.55033 12.0959)
(6.30875e-15 -7.38827 11.4665)
(6.17196e-15 -7.29255 10.7897)
(6.67365e-15 -6.97531 9.92956)
(6.16778e-15 -6.90535 9.36099)
(5.83827e-15 -6.68898 8.64458)
(5.42374e-15 -6.44703 7.87433)
(2.54246e-15 -3.2757 2.54721)
(4.15026e-15 -5.08746 5.97262)
(3.30809e-15 -4.59789 4.69289)
(3.02809e-15 -4.57881 4.35349)
(2.63265e-15 -4.32019 3.72299)
(2.15083e-15 -4.23459 3.0287)
(1.32729e-15 -4.03185 1.86026)
(5.99278e-16 -3.63302 0.702786)
(7.18927e-16 -3.61752 0.645109)
(-6.93234e-16 -0.96168 -1.4014)
(3.12673e-16 -3.16587 0.22956)
(1.39506e-16 -2.87874 -0.328687)
(-5.71782e-16 -1.41549 -2.10402)
(1.85011e-16 -3.03334 -1.86608)
(-4.74024e-16 -2.09744 -1.52078)
(-9.32835e-16 -1.69962 -1.01059)
(-8.8506e-16 -2.03264 -1.48053)
(-3.40029e-16 -1.14011 -0.821994)
(-1.13537e-15 -1.52103 -1.26974)
(-2.39937e-16 -0.949799 -0.872008)
(1.66025e-16 -0.623774 -0.476529)
(-1.08919e-16 -0.717348 -0.688699)
(-2.71309e-16 -0.28427 -0.338652)
(-6.52876e-16 -0.313517 0.314169)
(-8.26208e-16 0.202249 0.300088)
(-1.82236e-15 -0.279442 0.788875)
(-2.71248e-15 0.210482 0.841867)
(-8.70436e-16 0.166429 0.128554)
(-9.03521e-16 -0.143828 0.414607)
(-1.82331e-15 0.420453 -0.280059)
(-1.4519e-15 0.233732 0.108797)
(-1.06931e-15 0.480172 -0.273391)
(-6.96038e-16 0.858879 -0.505594)
(-4.01818e-16 0.360276 -0.11124)
(-1.98424e-16 1.02382 -0.306094)
(-1.39417e-15 1.37049 -0.545576)
(-1.01491e-15 0.846937 -0.241899)
(-6.21117e-16 1.44039 -0.413573)
(-3.8724e-16 1.28511 -0.299233)
(-7.83273e-16 1.48489 -0.332892)
(-1.00304e-15 1.92849 -0.472057)
(-6.06221e-16 1.28348 -0.301514)
(-6.39885e-16 2.17247 -0.379491)
(-5.41127e-16 1.73427 -0.3103)
(-3.84131e-16 2.02181 -0.320887)
(-6.1324e-16 2.41587 -0.397816)
(-5.75053e-16 1.68932 -0.290859)
(-6.25859e-16 2.3815 -0.285306)
(-7.51941e-16 2.80655 -0.348832)
(-5.90012e-16 1.88645 -0.256758)
(-7.98028e-16 2.88761 -0.292341)
(-5.74874e-16 2.24703 -0.266677)
(-8.10243e-16 2.62367 -0.270294)
(-5.24712e-16 3.04862 -0.30061)
(-3.54584e-16 2.05918 -0.233876)
(-9.79439e-16 3.28859 -0.268142)
(-3.23089e-16 2.47587 -0.231956)
(-5.53738e-16 2.8892 -0.259311)
(-1.41503e-15 3.26377 -0.285568)
(-2.66229e-16 2.29972 -0.207315)
(-4.29564e-16 3.10273 -0.229303)
(-5.29987e-16 3.56792 -0.253718)
(-3.27759e-16 2.38887 -0.179039)
(-2.80529e-16 3.61185 -0.228003)
(-3.22784e-16 2.7407 -0.191511)
(-4.92996e-16 3.18677 -0.229215)
(-1.14077e-15 3.6238 -0.246647)
(-4.23333e-16 2.47132 -0.17423)
(-6.67731e-16 3.84253 -0.228563)
(-4.62974e-16 2.89743 -0.182483)
(-5.57634e-16 3.34107 -0.238177)
(-6.59375e-16 3.72613 -0.258597)
(-4.4602e-16 2.6562 -0.171516)
(-6.2718e-16 3.51515 -0.216695)
(-2.08961e-16 4.02398 -0.231932)
(-4.16482e-16 2.7126 -0.157992)
(-5.3601e-16 4.05414 -0.21839)
(-3.74603e-16 3.07236 -0.175077)
(-5.50003e-16 3.56063 -0.232615)
(-8.76629e-16 4.02503 -0.249896)
(-2.99579e-16 2.77688 -0.169804)
(-5.09156e-16 4.2579 -0.242188)
(-3.50755e-16 3.22817 -0.186515)
(-3.76173e-16 3.71031 -0.263422)
(-5.43798e-16 4.13508 -0.297747)
(-4.308e-16 2.98107 -0.19303)
(-7.91474e-16 3.90825 -0.262543)
(-3.8015e-16 4.48695 -0.310943)
(-3.23887e-16 3.06253 -0.204822)
(-8.66956e-16 4.56181 -0.322164)
(-3.27878e-16 3.45873 -0.243235)
(-4.44468e-16 4.12389 -0.385805)
(-9.79423e-16 -0.0568028 0.945119)
(-9.79449e-16 -0.0383119 0.935843)
(-9.79461e-16 -0.00310811 0.933047)
(-9.79474e-16 0.0139696 0.931533)
(-9.79483e-16 0.0262933 0.928557)
(-9.79486e-16 0.0392779 0.925924)
(-9.79486e-16 0.0411306 0.927048)
(-9.79485e-16 0.00757532 0.928602)
(-9.79484e-16 -0.0145385 0.923371)
(-9.79481e-16 -0.0316794 0.924064)
(-9.79477e-16 -0.0627076 0.928944)
(-9.7947e-16 -0.0945463 0.935459)
(-9.79457e-16 -0.129223 0.940634)
(-9.79436e-16 -0.165417 0.942876)
(-9.79403e-16 -0.20225 0.944352)
(-9.79357e-16 -0.243922 0.946684)
(-9.79295e-16 -0.291292 0.948738)
(-9.79213e-16 -0.343043 0.950786)
(-9.79107e-16 -0.398871 0.953263)
(-9.78969e-16 -0.45601 0.956452)
(-9.78788e-16 -0.510381 0.960773)
(-9.78534e-16 -0.551983 0.966576)
(-9.78053e-16 -0.564192 0.972791)
(-9.76135e-16 -0.499681 0.965381)
(-9.62432e-16 -0.152177 0.826625)
(-8.69411e-16 -0.123996 -0.0540851)
(-8.56968e-16 0.154798 -0.438692)
(-8.41648e-16 0.0343519 -0.562397)
(-8.37966e-16 -1.02266 -0.879317)
(-8.4312e-16 -0.471418 -0.791058)
(-8.42924e-16 -0.537486 -0.718367)
(-8.43019e-16 -0.539412 -0.704784)
(-8.4395e-16 -0.667621 -0.809628)
(-8.44442e-16 -0.701646 -0.778656)
(-8.43574e-16 -0.760319 -0.559674)
(-8.42381e-16 -1.02126 -0.632193)
(-8.4568e-16 -0.932442 -0.550919)
(-8.37136e-16 -0.850717 -0.433984)
(-8.283e-16 -0.99521 -0.482676)
(-8.43709e-16 -1.27403 -0.636607)
(-8.64941e-16 -1.46026 -0.7781)
(-8.77655e-16 -1.41243 -0.8535)
(-8.81632e-16 -1.22549 -0.865884)
(-8.84156e-16 -0.882414 -0.861398)
(-8.85429e-16 -0.264328 -0.895409)
(-8.8339e-16 0.547943 -0.356459)
(-8.20942e-16 0.767381 -0.0236755)
(-7.99367e-16 -1.54004 -0.04723)
(-7.98982e-16 -1.23328 -0.0897661)
(-7.98878e-16 -0.673479 -0.135871)
(-7.99937e-16 -0.186881 -0.139622)
(-7.99786e-16 0.432647 -0.227006)
(-7.99679e-16 1.06783 -0.175)
(-7.93209e-16 1.27676 0.0811523)
(-6.00074e-16 -5.37215 -0.11642)
(-4.64895e-16 -9.68118 -0.348404)
(-2.89545e-16 -8.05265 -0.303761)
(-2.02029e-16 -4.41475 -0.241047)
(-1.76609e-16 -1.11171 -0.250605)
(-1.51264e-16 -0.0869 0.252334)
(-1.54563e-16 -0.545648 0.69648)
(-1.5768e-16 -0.975908 0.535003)
(-1.58954e-16 -1.64181 0.0542275)
(-1.57039e-16 -0.91079 0.25775)
(-1.56358e-16 -0.7432 0.471298)
(-1.5439e-16 -1.28947 0.621637)
(-1.48538e-16 -1.82079 0.813041)
(-1.33353e-16 -1.8311 0.846916)
(-1.15056e-16 -0.892322 0.607976)
(-1.07346e-16 -0.38286 0.237706)
(-1.06517e-16 -0.259599 0.758663)
(-1.13411e-16 -0.134018 0.627169)
(-1.15993e-16 0.0194746 0.497134)
(-1.39809e-16 0.709998 0.125007)
(-1.41822e-16 1.33386 0.0487134)
(-1.47043e-16 1.81964 0.00384714)
(-1.51703e-16 2.252 -0.0946949)
(-1.63721e-16 2.70549 -0.204743)
(-1.01135e-16 2.95501 -0.471602)
(-9.79443e-16 -0.0396135 0.955916)
(-9.79465e-16 -0.0125669 0.935948)
(-9.79472e-16 0.019546 0.926666)
(-9.7948e-16 0.0269637 0.926236)
(-9.79482e-16 0.028926 0.923863)
(-9.7948e-16 0.0289959 0.923912)
(-9.79476e-16 0.019563 0.931259)
(-9.79472e-16 -0.00583664 0.934723)
(-9.79468e-16 -0.0304008 0.928897)
(-9.79462e-16 -0.0535252 0.928346)
(-9.79454e-16 -0.0881466 0.932351)
(-9.79445e-16 -0.123871 0.933996)
(-9.7943e-16 -0.159212 0.93435)
(-9.79406e-16 -0.193985 0.9336)
(-9.7937e-16 -0.232881 0.933903)
(-9.7932e-16 -0.277033 0.93608)
(-9.79255e-16 -0.325702 0.93893)
(-9.79168e-16 -0.377731 0.942664)
(-9.79053e-16 -0.432373 0.947438)
(-9.78896e-16 -0.486534 0.952995)
(-9.78654e-16 -0.53573 0.959169)
(-9.78176e-16 -0.568831 0.963085)
(-9.76796e-16 -0.566271 0.950425)
(-9.71349e-16 -0.46 0.873813)
(-9.47711e-16 -0.0125614 0.648074)
(-8.69362e-16 0.0476326 -0.205628)
(-8.49418e-16 0.227166 -0.543361)
(-8.38852e-16 0.0305797 -0.581588)
(-8.38353e-16 -0.822596 -0.769453)
(-8.42286e-16 -0.588094 -0.84566)
(-8.42808e-16 -0.727086 -0.797042)
(-8.42901e-16 -0.694224 -0.65287)
(-8.4383e-16 -0.81419 -0.683004)
(-8.44464e-16 -0.79586 -0.69576)
(-8.43709e-16 -0.791656 -0.527747)
(-8.42396e-16 -0.995044 -0.6101)
(-8.45519e-16 -0.916192 -0.557967)
(-8.38027e-16 -0.786324 -0.443074)
(-8.28568e-16 -0.899814 -0.481776)
(-8.42127e-16 -1.18046 -0.636258)
(-8.63307e-16 -1.39224 -0.786237)
(-8.76828e-16 -1.3789 -0.866566)
(-8.8143e-16 -1.21533 -0.881958)
(-8.83917e-16 -0.914364 -0.863245)
(-8.85357e-16 -0.42891 -0.900583)
(-8.83614e-16 0.401559 -0.372536)
(-8.22041e-16 0.694205 0.0595175)
(-7.9939e-16 -1.45742 -0.0204384)
(-7.98985e-16 -1.19979 -0.0937376)
(-7.98872e-16 -0.64962 -0.133971)
(-7.99817e-16 -0.0982272 -0.162856)
(-7.99586e-16 0.43043 -0.208413)
(-7.99037e-16 1.01978 -0.215173)
(-7.9447e-16 1.28182 0.0791298)
(-6.0068e-16 -5.37216 -0.127199)
(-4.65421e-16 -9.68303 -0.339991)
(-2.90381e-16 -8.09849 -0.295493)
(-2.02394e-16 -4.47696 -0.228729)
(-1.76849e-16 -1.12051 -0.256472)
(-1.52126e-16 -0.199902 0.0272402)
(-1.55339e-16 -0.63992 0.479539)
(-1.57869e-16 -1.01127 0.489154)
(-1.58894e-16 -1.61219 0.13515)
(-1.57024e-16 -0.958404 0.302937)
(-1.56321e-16 -0.902806 0.420827)
(-1.54206e-16 -1.44222 0.610041)
(-1.47761e-16 -1.92077 0.809636)
(-1.32158e-16 -1.84424 0.817487)
(-1.14059e-16 -0.921532 0.552409)
(-1.05981e-16 -0.652221 0.374499)
(-1.08005e-16 -0.416123 0.798224)
(-1.18214e-16 -0.295051 0.676358)
(-1.21676e-16 -0.251503 0.520375)
(-1.40059e-16 0.752704 0.186611)
(-1.42629e-16 1.34967 0.0782695)
(-1.47169e-16 1.84065 0.0146155)
(-1.51871e-16 2.28181 -0.0788312)
(-1.64781e-16 2.74233 -0.20258)
(-1.00648e-16 2.99996 -0.33687)
(-9.79459e-16 -0.0410698 0.957061)
(-9.79478e-16 -0.0187702 0.940817)
(-9.79478e-16 0.00910303 0.93219)
(-9.7948e-16 0.0194925 0.931791)
(-9.79476e-16 0.0251118 0.930351)
(-9.79469e-16 0.0277984 0.931496)
(-9.79461e-16 0.0210085 0.939079)
(-9.79453e-16 -0.00333048 0.943329)
(-9.79446e-16 -0.0257632 0.939658)
(-9.79437e-16 -0.046677 0.939636)
(-9.79427e-16 -0.0765268 0.942487)
(-9.79414e-16 -0.107924 0.942005)
(-9.79396e-16 -0.140226 0.939647)
(-9.79367e-16 -0.174576 0.937233)
(-9.79327e-16 -0.212542 0.936833)
(-9.79274e-16 -0.255783 0.938489)
(-9.79203e-16 -0.30393 0.941389)
(-9.7911e-16 -0.356032 0.945743)
(-9.78984e-16 -0.411114 0.951682)
(-9.788e-16 -0.46598 0.958931)
(-9.78488e-16 -0.515118 0.967077)
(-9.77774e-16 -0.5457 0.971071)
(-9.75475e-16 -0.529701 0.948037)
(-9.66643e-16 -0.382877 0.826091)
(-9.36276e-16 0.0698215 0.467873)
(-8.63691e-16 0.161706 -0.325439)
(-8.47644e-16 0.241316 -0.480777)
(-8.39946e-16 0.00665038 -0.53674)
(-8.40394e-16 -0.860085 -0.712294)
(-8.42137e-16 -0.568694 -0.806039)
(-8.42582e-16 -0.666095 -0.832319)
(-8.42605e-16 -0.671418 -0.701246)
(-8.4353e-16 -0.775819 -0.653179)
(-8.44438e-16 -0.803153 -0.648379)
(-8.43898e-16 -0.810944 -0.498314)
(-8.42449e-16 -1.0092 -0.57794)
(-8.4534e-16 -0.961543 -0.553161)
(-8.39e-16 -0.833273 -0.442434)
(-8.2899e-16 -0.913464 -0.470178)
(-8.40311e-16 -1.17291 -0.6213)
(-8.61244e-16 -1.38386 -0.777321)
(-8.7571e-16 -1.37823 -0.864127)
(-8.81124e-16 -1.21424 -0.884014)
(-8.83653e-16 -0.901915 -0.858974)
(-8.8504e-16 -0.410137 -0.902295)
(-8.84685e-16 0.328787 -0.421971)
(-8.26875e-16 0.517039 0.0248568)
(-7.99418e-16 -1.42815 -0.0429593)
(-7.98992e-16 -1.19706 -0.12111)
(-7.98866e-16 -0.654839 -0.146196)
(-7.99673e-16 -0.124745 -0.166456)
(-7.99437e-16 0.431844 -0.182621)
(-7.98955e-16 1.00523 -0.23189)
(-7.94271e-16 1.27739 0.0891434)
(-6.01415e-16 -5.31724 -0.129059)
(-4.6608e-16 -9.65339 -0.336121)
(-2.91381e-16 -8.09879 -0.290576)
(-2.02792e-16 -4.47147 -0.205024)
(-1.77087e-16 -1.14626 -0.25286)
(-1.52928e-16 -0.26337 -0.185639)
(-1.56021e-16 -0.645437 0.381047)
(-1.59181e-16 -1.00366 0.342805)
(-1.58855e-16 -1.58011 0.14185)
(-1.5702e-16 -0.964122 0.271409)
(-1.56292e-16 -0.906715 0.388303)
(-1.53928e-16 -1.45594 0.619512)
(-1.46675e-16 -1.92222 0.83564)
(-1.30582e-16 -1.77591 0.822484)
(-1.13142e-16 -0.791884 0.491471)
(-1.05284e-16 -0.563725 0.252434)
(-1.07558e-16 -0.425581 0.698895)
(-1.25702e-16 -0.18965 0.641815)
(-1.30217e-16 0.0741893 0.409554)
(-1.37945e-16 0.787046 0.206208)
(-1.3986e-16 1.36687 0.0761957)
(-1.45829e-16 1.85508 0.0112933)
(-1.51458e-16 2.2976 -0.0716263)
(-1.64571e-16 2.75621 -0.195751)
(-9.8836e-17 3.01622 -0.292265)
(-9.79468e-16 -0.0394466 0.959312)
(-9.79484e-16 -0.01804 0.946076)
(-9.79477e-16 0.00798697 0.939367)
(-9.79473e-16 0.019182 0.939149)
(-9.79464e-16 0.025841 0.938956)
(-9.79453e-16 0.0290159 0.941452)
(-9.79441e-16 0.0228783 0.949071)
(-9.7943e-16 0.000825509 0.95354)
(-9.79419e-16 -0.0222799 0.95108)
(-9.79408e-16 -0.0448367 0.950402)
(-9.79395e-16 -0.0747962 0.950999)
(-9.7938e-16 -0.106709 0.948304)
(-9.79359e-16 -0.139396 0.944518)
(-9.79326e-16 -0.17385 0.941723)
(-9.79282e-16 -0.212219 0.941146)
(-9.79225e-16 -0.255595 0.942538)
(-9.7915e-16 -0.303833 0.945541)
(-9.79053e-16 -0.356173 0.950376)
(-9.78923e-16 -0.411621 0.957232)
(-9.78742e-16 -0.467042 0.96599)
(-9.78446e-16 -0.516526 0.976293)
(-9.77725e-16 -0.545663 0.981681)
(-9.74929e-16 -0.519311 0.95142)
(-9.62891e-16 -0.337714 0.787214)
(-9.21885e-16 0.135167 0.272243)
(-8.53548e-16 0.2754 -0.397074)
(-8.45263e-16 0.265431 -0.488924)
(-8.41505e-16 0.00623359 -0.506785)
(-8.41263e-16 -0.756965 -0.674022)
(-8.42441e-16 -0.581332 -0.77825)
(-8.42709e-16 -0.683124 -0.815489)
(-8.42489e-16 -0.67868 -0.739613)
(-8.4316e-16 -0.759208 -0.664013)
(-8.4426e-16 -0.805054 -0.637332)
(-8.44055e-16 -0.815092 -0.487927)
(-8.42546e-16 -1.00563 -0.547807)
(-8.4519e-16 -0.975643 -0.541065)
(-8.39868e-16 -0.847187 -0.438294)
(-8.29517e-16 -0.90357 -0.457096)
(-8.38607e-16 -1.14808 -0.602762)
(-8.59061e-16 -1.36195 -0.762898)
(-8.74419e-16 -1.37073 -0.856665)
(-8.80723e-16 -1.21428 -0.882444)
(-8.834e-16 -0.90694 -0.854273)
(-8.84656e-16 -0.441954 -0.882677)
(-8.8551e-16 0.239541 -0.446548)
(-8.32927e-16 0.51256 -0.0289387)
(-7.99443e-16 -1.40553 -0.0773159)
(-7.99001e-16 -1.19809 -0.152923)
(-7.98862e-16 -0.657664 -0.162626)
(-7.99534e-16 -0.128586 -0.169403)
(-7.99296e-16 0.431394 -0.164947)
(-7.9891e-16 0.982239 -0.248459)
(-7.9431e-16 1.27498 0.0981121)
(-6.02196e-16 -5.28055 -0.131277)
(-4.66788e-16 -9.63266 -0.3349)
(-2.9242e-16 -8.10704 -0.28906)
(-2.03145e-16 -4.46806 -0.185785)
(-1.77195e-16 -1.14856 -0.228592)
(-1.52368e-16 -0.303498 -0.233839)
(-1.56618e-16 -0.657875 0.308702)
(-1.60079e-16 -1.01806 0.240696)
(-1.58831e-16 -1.56966 0.144313)
(-1.57016e-16 -0.968232 0.236818)
(-1.56257e-16 -0.928188 0.379369)
(-1.53551e-16 -1.48182 0.642621)
(-1.45391e-16 -1.92551 0.864946)
(-1.28853e-16 -1.72692 0.822643)
(-1.12303e-16 -0.740197 0.411052)
(-1.05302e-16 -0.604782 0.134342)
(-1.09287e-16 -0.428941 0.631235)
(-1.33988e-16 -0.257401 0.596148)
(-1.38304e-16 -0.0249856 0.407686)
(-1.37011e-16 0.805712 0.22279)
(-1.3957e-16 1.38688 0.0956464)
(-1.46327e-16 1.87323 0.0207048)
(-1.51467e-16 2.31605 -0.0601548)
(-1.64447e-16 2.77493 -0.189782)
(-9.875e-17 3.03729 -0.27362)
(-9.79469e-16 -0.0373658 0.963436)
(-9.79483e-16 -0.0154991 0.952656)
(-9.7947e-16 0.00910532 0.94774)
(-9.79461e-16 0.020207 0.947686)
(-9.79447e-16 0.026796 0.948574)
(-9.79432e-16 0.0289391 0.952042)
(-9.79416e-16 0.0218558 0.959371)
(-9.79402e-16 0.00117175 0.963585)
(-9.79389e-16 -0.0214438 0.961514)
(-9.79375e-16 -0.0439689 0.959743)
(-9.79361e-16 -0.0728339 0.958313)
(-9.79344e-16 -0.104068 0.95414)
(-9.79319e-16 -0.136567 0.949718)
(-9.79283e-16 -0.171263 0.946863)
(-9.79236e-16 -0.210083 0.946182)
(-9.79177e-16 -0.25387 0.947442)
(-9.79101e-16 -0.302553 0.950616)
(-9.79004e-16 -0.355459 0.955965)
(-9.78885e-16 -0.411546 0.963776)
(-9.78737e-16 -0.467606 0.974052)
(-9.78496e-16 -0.517048 0.98605)
(-9.77677e-16 -0.542099 0.989647)
(-9.7348e-16 -0.495236 0.938655)
(-9.54525e-16 -0.247572 0.689558)
(-8.93036e-16 0.222823 -0.056624)
(-8.52758e-16 0.356315 -0.351566)
(-8.41582e-16 0.266875 -0.511926)
(-8.42908e-16 -0.00124901 -0.474524)
(-8.43333e-16 -0.699761 -0.617127)
(-8.43031e-16 -0.582116 -0.74323)
(-8.4307e-16 -0.677922 -0.794891)
(-8.42564e-16 -0.693449 -0.746321)
(-8.42858e-16 -0.769871 -0.673246)
(-8.43983e-16 -0.820306 -0.63801)
(-8.44129e-16 -0.824922 -0.488772)
(-8.42654e-16 -0.999651 -0.522565)
(-8.45055e-16 -0.982553 -0.524825)
(-8.40611e-16 -0.85098 -0.429962)
(-8.30118e-16 -0.883554 -0.442446)
(-8.37105e-16 -1.11353 -0.582435)
(-8.56862e-16 -1.33166 -0.745517)
(-8.72993e-16 -1.35615 -0.846037)
(-8.80223e-16 -1.20988 -0.877794)
(-8.83151e-16 -0.911727 -0.847758)
(-8.84274e-16 -0.472935 -0.857207)
(-8.86252e-16 0.15823 -0.470366)
(-8.39282e-16 0.468625 -0.0615958)
(-7.99476e-16 -1.37486 -0.112179)
(-7.99007e-16 -1.19736 -0.18685)
(-7.98861e-16 -0.661562 -0.181293)
(-7.99406e-16 -0.125483 -0.175943)
(-7.99171e-16 0.430235 -0.154538)
(-7.98878e-16 0.965308 -0.259913)
(-7.94236e-16 1.26669 0.111635)
(-6.0299e-16 -5.24803 -0.133162)
(-4.67524e-16 -9.61569 -0.333924)
(-2.9348e-16 -8.12245 -0.288272)
(-2.03443e-16 -4.47622 -0.168987)
(-1.77082e-16 -1.13949 -0.201044)
(-1.51376e-16 -0.352925 -0.161705)
(-1.57163e-16 -0.681516 0.257638)
(-1.60481e-16 -1.03141 0.198145)
(-1.58818e-16 -1.55904 0.144687)
(-1.5701e-16 -0.976981 0.214014)
(-1.562e-16 -0.972244 0.384656)
(-1.53051e-16 -1.52964 0.668582)
(-1.43933e-16 -1.93763 0.887577)
(-1.27019e-16 -1.67787 0.805766)
(-1.11885e-16 -0.710055 0.33492)
(-1.09242e-16 -0.596025 0.26093)
(-1.15264e-16 -0.450142 0.691087)
(-1.37949e-16 -0.227029 0.610686)
(-1.37753e-16 0.129409 0.450717)
(-1.37149e-16 0.828204 0.228438)
(-1.40479e-16 1.4061 0.108593)
(-1.46392e-16 1.89385 0.0242758)
(-1.50929e-16 2.3345 -0.0555486)
(-1.64054e-16 2.79147 -0.188115)
(-9.52083e-17 3.04824 -0.204019)
(-9.79463e-16 -0.0361441 0.968697)
(-9.79475e-16 -0.0142172 0.959862)
(-9.79456e-16 0.0090285 0.956565)
(-9.79443e-16 0.0199078 0.956757)
(-9.79425e-16 0.0262318 0.958532)
(-9.79406e-16 0.0275272 0.962523)
(-9.79387e-16 0.0200667 0.969182)
(-9.79369e-16 0.000843899 0.972657)
(-9.79354e-16 -0.0213185 0.970413)
(-9.79339e-16 -0.0439671 0.967611)
(-9.79323e-16 -0.0720709 0.964827)
(-9.79304e-16 -0.102805 0.960009)
(-9.79277e-16 -0.135071 0.955492)
(-9.79239e-16 -0.16984 0.952702)
(-9.7919e-16 -0.208903 0.951949)
(-9.7913e-16 -0.252961 0.953158)
(-9.79054e-16 -0.302035 0.956522)
(-9.78962e-16 -0.355496 0.962353)
(-9.78853e-16 -0.412278 0.970979)
(-9.78709e-16 -0.468929 0.982183)
(-9.78371e-16 -0.517469 0.99362)
(-9.76834e-16 -0.534433 0.988051)
(-9.69362e-16 -0.454999 0.899533)
(-9.40369e-16 -0.121252 0.548408)
(-8.6181e-16 0.335498 -0.309693)
(-8.52623e-16 0.405258 -0.354006)
(-8.4116e-16 0.272679 -0.47941)
(-8.43519e-16 -0.0125668 -0.441831)
(-8.44966e-16 -0.640865 -0.563872)
(-8.43856e-16 -0.580022 -0.700137)
(-8.4347e-16 -0.67301 -0.768852)
(-8.42683e-16 -0.704608 -0.737859)
(-8.42613e-16 -0.776796 -0.673614)
(-8.43662e-16 -0.835579 -0.638156)