/*--------------------------------*- C++ -*----------------------------------*\
| =========                 |                                                 |
| \\      /  F ield         | OpenFOAM: The Open Source CFD Toolbox           |
|  \\    /   O peration     | Version:  4.1                                   |
|   \\  /    A nd           | Web:      www.OpenFOAM.org                      |
|    \\/     M anipulation  |                                                 |
\*---------------------------------------------------------------------------*/
FoamFile
{
    version     2.0;
    format      ascii;
    class       volScalarField;
    location    "18";
    object      p;
}
// * * * * * * * * * * * * * * * * * * * * * * * * * * * * * * * * * * * * * //

dimensions      [0 2 -2 0 0 0 0];

internalField   nonuniform List<scalar> 
6785
(
595.095
516.801
469.949
416.646
369.969
324.955
282.987
243.21
205.578
169.986
135.729
102.628
75.0944
46.8309
5.2776
-13.0484
-31.4126
-21.5587
-29.0102
-28.4823
-31.1098
-31.8495
-32.4437
-32.0192
-30.6495
-28.3109
-25.0512
-19.8998
-15.066
-13.4122
-10.4483
-15.9186
-7.77784
-13.5163
-10.9507
-13.4196
-13.965
-15.8116
-17.4727
-19.5451
-21.6766
-23.508
-24.1085
-24.2532
-23.1997
-4.87335
-8.12065
-5.31137
-10.8034
-9.45389
-12.9658
-13.7557
-15.7548
-17.0419
-18.3659
-19.2389
-19.6753
-18.4577
-17.0537
-14.2992
2.16495
1.33955
5.09958
3.02649
6.98373
6.65161
9.12245
10.473
12.4516
14.3988
16.5673
18.6478
21.0938
22.7371
25.2847
27.6209
28.27
31.6018
30.5683
34.0063
33.9739
36.1077
37.1509
38.5936
39.9126
41.2444
42.448
43.8306
44.8241
46.2407
46.4671
47.4824
49.6693
49.0535
51.5396
51.3968
53.0506
53.3291
53.8834
53.7667
53.5462
53.5589
54.0342
54.6373
55.2765
56.7621
56.5706
57.748
56.4517
57.7523
56.5608
56.9214
55.9257
55.3769
54.4857
53.8304
53.2935
52.7795
52.7824
51.8632
51.6726
48.362
48.7969
46.1643
46.3056
44.3046
43.8682
42.2023
40.8958
38.7623
36.4497
34.1368
32.9337
32.175
28.7189
8.70108
3.28544
1.8824
-2.19924
-4.39249
-8.40453
-11.2522
-14.7714
-17.2962
-19.5464
-20.7961
-21.0993
-21.1445
-21.8798
-22.7779
-23.9054
-26.9225
-27.3616
-29.8246
-30.4806
-32.5039
-33.3024
-34.3176
-34.3645
-34.0773
-33.351
-32.5128
-31.6035
-30.8354
-28.8702
-14.2646
-13.1773
-11.8878
-11.7511
-10.4382
-9.99959
-8.98833
-8.30839
-7.48785
-6.78096
-6.01755
-5.38994
-4.29689
-3.30378
-0.667389
14.6316
16.2816
17.2708
17.7659
18.7777
19.163
19.8564
20.3968
21.0356
21.6922
22.4812
23.2689
24.325
25.184
26.4187
24.2098
26.9171
26.7915
26.4835
26.4681
26.5558
27.0319
27.443
27.9767
28.4491
28.89
29.1921
29.4726
29.5883
29.6827
71.3799
69.9345
64.7556
57.0943
50.9568
46.2844
41.3454
37.251
34.033
31.1237
28.6024
26.627
24.78
23.5303
21.3166
42.0416
42.3261
42.4624
42.4553
42.5123
42.7442
43.1132
43.011
42.9606
42.9244
43.2352
42.9156
42.8571
43.032
42.5626
42.4301
42.4795
42.6159
41.8061
42.0788
42.1738
41.389
41.2618
41.6764
41.7459
40.8959
40.8157
41.2993
41.5882
40.5356
41.2231
41.5734
40.7515
40.7314
41.3041
41.769
40.8924
41.4839
41.981
41.3766
41.3691
41.8704
42.2156
41.7591
41.75
42.1722
42.2719
41.811
42.2029
42.1578
41.9206
41.9145
42.1894
42.3716
42.2645
42.252
42.3971
42.8884
42.8052
42.9418
42.9551
42.9536
42.9672
42.8565
43.2685
43.5364
44.2926
43.2173
41.7883
43.2643
44.9825
37.0047
33.2286
37.2322
41.844
14.874
25.9228
34.1405
-15.946
-1.88845
5.12682
2.31678
6.60796
0.221559
1.5984
6.12234
6.04791
6.66125
7.12766
7.73608
8.18545
11.3851
13.6072
7.53213
9.35043
10.8039
12.7132
13.1489
13.954
13.9162
15.891
22.1597
15.3134
16.917
16.4788
17.3885
19.2731
20.1557
19.9685
19.7354
19.0356
26.7052
22.3922
22.7586
22.2648
21.5289
22.1023
23.527
22.9332
19.4269
24.2999
25.6073
26.9739
27.0333
25.8622
24.9358
23.8674
25.3508
21.9656
24.5277
32.8269
29.9631
30.7397
30.7759
28.8947
27.388
25.8502
19.6165
26.1669
33.2507
27.4118
24.9589
21.1628
18.3137
15.5042
13.4273
11.3479
7.00409
2.04801
13.2487
8.51521
8.02778
6.4662
4.29926
-1.94692
-3.76049
-1.02145
-13.9843
2.72135
-0.234197
-1.44787
5.46632
-0.707102
2.7948
1.62125
3.96145
6.93694
2.56598
5.33675
7.10849
4.3043
5.65258
4.94423
5.98658
7.53867
5.20388
6.21405
5.56752
6.37719
7.45995
5.35795
6.49182
7.16004
5.73253
6.28038
5.85466
6.2757
6.92369
5.70771
6.13561
5.758
6.09326
6.5482
5.43926
5.94517
6.19883
5.41824
5.63124
5.36651
5.50502
5.74237
5.06282
5.19628
4.95733
5.03317
5.16134
4.54298
4.69588
4.71488
4.25923
4.28133
4.1083
4.08773
4.09187
3.7085
3.69987
3.54517
3.51336
3.47134
3.12766
3.13349
3.04086
2.75872
2.70816
2.60764
2.6059
2.57322
2.26237
2.20399
2.16942
1.9753
1.9368
1.67501
1.52383
1.50731
1.07245
0.883405
0.73265
0.418827
0.248695
0.0017196
0.00272152
0.00412929
0.00506219
0.00603012
0.00684885
0.00761662
0.0083254
0.00899184
0.00964008
0.0102795
0.0109338
0.0116125
0.01233
0.0130899
0.0138937
0.0147377
0.0156263
0.0165891
0.0177066
0.0191141
0.0209591
0.0232991
0.0260443
0.0290753
0.0322708
0.0354294
0.0383736
0.0408734
0.0426821
0.0435867
0.0434788
0.0425134
0.0412522
0.0406943
0.0420016
0.0458971
0.0519868
0.0584305
0.0624851
0.0616769
0.0548304
0.0422946
0.0252875
0.00502907
-0.0172954
-0.0397573
-0.062853
-0.0988475
-0.162161
-0.13163
-0.780684
-0.797866
-0.830911
-1.00603
-1.14009
-1.26148
-1.34896
-1.34355
-1.21788
-0.99314
-0.745284
-0.488864
-0.254885
-0.0449422
0.130962
0.266055
0.36013
0.422074
0.444675
0.456782
0.426379
0.40445
0.36057
0.278429
0.329798
0.20283
0.103471
0.311549
0.00467704
0.00713495
0.010897
0.0133903
0.0158558
0.0179432
0.0198261
0.0215486
0.0231253
0.0246475
0.0261329
0.0276556
0.0292399
0.030929
0.0327315
0.0346521
0.0366785
0.0388204
0.0411585
0.0439171
0.0474776
0.0522539
0.0583928
0.0656127
0.0735649
0.0819127
0.0901016
0.0976714
0.104033
0.108574
0.110744
0.110082
0.106333
0.0994691
0.0897072
0.0774868
0.0635001
0.0487464
0.0342801
0.0209959
0.00933873
-0.000999335
-0.0111472
-0.0228497
-0.0379584
-0.0581489
-0.0862768
-0.128151
-0.174866
-0.210567
-0.229811
-1.07945
-1.23126
-1.31269
-1.59112
-1.80133
-1.99281
-2.12447
-2.12825
-1.96956
-1.6659
-1.29734
-0.874277
-0.464047
-0.0778315
0.256122
0.516928
0.706181
0.824052
0.873375
0.881838
0.830576
0.7754
0.701032
0.576667
0.630648
0.472699
0.321222
0.915917
0.0073162
0.0116777
0.0181843
0.0225099
0.0268162
0.0304658
0.0337821
0.0368222
0.0396208
0.0423256
0.0449697
0.0476763
0.0504878
0.0534763
0.0566572
0.0600382
0.0635977
0.0673508
0.0714319
0.07622
0.0823634
0.0905697
0.101092
0.113458
0.127084
0.1414
0.15547
0.168511
0.179515
0.187439
0.191377
0.190683
0.185276
0.175765
0.163413
0.149753
0.136056
0.122908
0.109771
0.0953134
0.0779881
0.0564006
0.029387
-0.00423421
-0.0457656
-0.0965529
-0.159152
-0.240562
-0.336884
-0.467737
-0.654157
-1.05967
-1.42559
-1.50524
-1.8334
-2.08267
-2.31189
-2.46957
-2.48348
-2.31222
-1.97365
-1.54916
-1.04752
-0.554391
-0.0837355
0.325876
0.647098
0.882281
1.02816
1.09129
1.1017
1.03855
0.973864
0.87207
0.758371
0.766039
0.662164
0.548207
1.16644
0.00973647
0.0158808
0.0249303
0.031008
0.0370101
0.0421127
0.0467302
0.0509637
0.0548522
0.0586079
0.0622753
0.0660281
0.0699256
0.0740689
0.0784796
0.0831678
0.0881003
0.0932938
0.09893
0.105537
0.11403
0.125413
0.140041
0.157233
0.176178
0.196078
0.215634
0.233764
0.249068
0.26009
0.265551
0.26452
0.256847
0.243323
0.22558
0.205451
0.184262
0.162525
0.139793
0.115284
0.0882236
0.057601
0.0218611
-0.0212731
-0.074517
-0.140843
-0.225084
-0.335985
-0.465819
-0.658463
-1.04823
-0.98592
-1.78763
-1.82819
-2.21781
-2.52701
-2.80981
-3.00646
-3.03085
-2.82857
-2.42208
-1.90554
-1.2893
-0.681204
-0.098247
0.40996
0.808949
1.10184
1.28384
1.36375
1.37886
1.30014
1.22538
1.08952
0.975101
0.957418
0.871387
0.773401
1.41851
0.0119154
0.0199976
0.0316145
0.0395245
0.0472835
0.0539068
0.0598875
0.0653766
0.0704147
0.0752802
0.0800291
0.0848865
0.089929
0.0952877
0.100991
0.10705
0.113418
0.120108
0.127344
0.135806
0.146684
0.161309
0.180141
0.202276
0.22668
0.252319
0.277534
0.300941
0.320726
0.334983
0.341992
0.340491
0.330306
0.312649
0.289942
0.264823
0.239052
0.21312
0.186162
0.156771
0.123418
0.0843058
0.0372021
-0.0207355
-0.0927739
-0.182603
-0.295947
-0.442164
-0.617818
-0.888942
-1.37451
-0.855058
-2.21787
-2.18459
-2.62354
-2.99859
-3.33995
-3.57889
-3.61672
-3.38276
-2.90623
-2.29228
-1.55222
-0.819075
-0.113313
0.502795
0.986806
1.34294
1.56378
1.66189
1.68067
1.58535
1.49814
1.32823
1.20647
1.17381
1.08661
0.995905
1.60262
0.0138969
0.0239561
0.0380391
0.0477888
0.0572647
0.0653952
0.0727097
0.0794304
0.0855887
0.0915352
0.0973346
0.103265
0.109421
0.115962
0.122925
0.130321
0.138086
0.146224
0.154993
0.165219
0.178386
0.19617
0.219145
0.246157
0.275952
0.307261
0.338066
0.366694
0.390894
0.408271
0.416587
0.41419
0.400896
0.37841
0.349979
0.318918
0.287183
0.255129
0.221673
0.185309
0.144401
0.0968434
0.0398163
-0.0303892
-0.118101
-0.228329
-0.368244
-0.547633
-0.767054
-1.09782
-1.57881
-0.813046
-2.69244
-2.5471
-3.00195
-3.43961
-3.83858
-4.11848
-4.17122
-3.90632
-3.36355
-2.65624
-1.79714
-0.944605
-0.121293
0.597365
1.16187
1.57773
1.83484
1.94999
1.97213
1.86058
1.76233
1.55879
1.43332
1.38364
1.29516
1.22087
1.83624
0.0156896
0.0278292
0.0443134
0.0559443
0.0671348
0.0767941
0.0854501
0.0934151
0.100701
0.107737
0.114593
0.121604
0.128879
0.136612
0.144844
0.153588
0.162756
0.172336
0.182611
0.194552
0.209953
0.230875
0.25801
0.289921
0.325146
0.36217
0.398622
0.432527
0.461154
0.481533
0.490818
0.486954
0.469882
0.442042
0.407719
0.370975
0.33396
0.296922
0.258522
0.216908
0.169899
0.114673
0.0476113
-0.0358443
-0.140937
-0.273798
-0.442652
-0.65754
-0.924971
-1.31051
-1.75753
-1.00626
-3.20113
-2.95269
-3.38402
-3.88496
-4.34411
-4.66651
-4.73604
-4.43764
-3.82602
-3.0219
-2.04087
-1.06739
-0.125466
0.695714
1.34028
1.81519
2.10793
2.23982
2.2655
2.13746
2.02901
1.79108
1.6627
1.59684
1.50148
1.44458
2.00292
0.0173132
0.0316153
0.0504055
0.0639436
0.0768227
0.088015
0.0979999
0.107203
0.115606
0.123719
0.13162
0.139697
0.148081
0.156994
0.166487
0.176568
0.187127
0.198121
0.209847
0.22342
0.240964
0.26497
0.296253
0.333057
0.373718
0.416464
0.458569
0.497733
0.530664
0.553712
0.563354
0.557223
0.53562
0.501973
0.461674
0.41936
0.377151
0.335107
0.291655
0.244665
0.191509
0.128748
0.0519964
-0.0442191
-0.166201
-0.321375
-0.519144
-0.770016
-1.08608
-1.51902
-1.95196
-1.49876
-3.6989
-3.40722
-3.7735
-4.33859
-4.86148
-5.22913
-5.31814
-4.98349
-4.30013
-3.39478
-2.28735
-1.18955
-0.126124
0.799143
1.52457
2.05875
2.38691
2.53543
2.5645
2.41965
2.30106
2.02817
1.8962
1.8159
1.70923
1.67132
2.21524
0.0187802
0.0353441
0.0563476
0.0718263
0.0863724
0.099108
0.110415
0.120856
0.130369
0.139556
0.148494
0.157634
0.167119
0.17721
0.187961
0.199381
0.211325
0.223713
0.236841
0.25196
0.271553
0.298598
0.33404
0.375751
0.421882
0.470384
0.518157
0.562519
0.599493
0.624642
0.633787
0.62447
0.597697
0.558123
0.512185
0.464838
0.418013
0.371604
0.323831
0.272239
0.213628
0.143811
0.0575435
-0.051607
-0.191008
-0.369351
-0.597126
-0.885563
-1.25156
-1.72939
-2.19266
-2.25814
-4.11939
-3.90152
-4.16584
-4.79582
-5.3857
-5.80061
-5.91214
-5.5383
-4.7808
-3.77027
-2.53279
-1.30836
-0.121652
0.908083
1.71412
2.30699
2.66971
2.83451
2.86664
2.70481
2.57619
2.26791
2.13239
2.03796
1.91986
1.89997
2.48936
0.0201033
0.0390262
0.0621417
0.0795908
0.0957749
0.11006
0.122676
0.13435
0.144962
0.155211
0.165176
0.175366
0.185945
0.197204
0.20921
0.221964
0.235286
0.249043
0.263511
0.280073
0.301601
0.331631
0.371242
0.417877
0.469512
0.523786
0.577182
0.626529
0.667014
0.693371
0.700928
0.68752
0.655246
0.610065
0.559159
0.507437
0.456499
0.406128
0.354388
0.29851
0.234713
0.158067
0.0624513
-0.0595566
-0.216443
-0.418201
-0.676453
-1.00339
-1.41905
-1.94044
-2.47938
-3.15931
-4.35462
-4.42491
-4.55938
-5.25868
-5.91985
-6.38373
-6.5211
-6.10454
-5.2698
-4.14918
-2.7773
-1.4235
-0.111487
1.02308
1.90937
2.56017
2.95645
3.13713
3.17196
2.99306
2.85443
2.51023
2.37127
2.26213
2.13622
2.1285
2.6543
0.0212925
0.0426783
0.0678027
0.0872539
0.105045
0.120885
0.134797
0.147699
0.159399
0.170701
0.18168
0.19291
0.204571
0.216993
0.230249
0.244337
0.259033
0.274134
0.289877
0.307768
0.331103
0.364061
0.407863
0.459446
0.516626
0.576658
0.635525
0.6894
0.732518
0.758874
0.763664
0.745529
0.707964
0.658012
0.603094
0.547758
0.49327
0.439439
0.38423
0.324559
0.256011
0.17286
0.06806
-0.0668376
-0.241459
-0.467081
-0.756428
-1.12274
-1.58739
-2.1528
-2.78894
-3.97765
-4.35059
-4.9818
-4.95851
-5.72848
-6.46663
-6.98206
-7.15006
-6.6857
-5.76986
-4.53314
-3.02169
-1.53505
-0.0952298
1.14478
2.11108
2.819
3.24777
3.4439
3.48098
3.28493
3.13614
2.75537
2.61289
2.48788
2.35661
2.35664
2.78418
0.0223568
0.0463116
0.0733385
0.0948226
0.114187
0.131586
0.146777
0.1609
0.173672
0.186015
0.197994
0.21025
0.222982
0.236558
0.251061
0.266484
0.28255
0.29897
0.315915
0.335004
0.359999
0.395824
0.443847
0.500406
0.563154
0.628844
0.692808
0.750391
0.794866
0.819784
0.820773
0.797842
0.755864
0.702381
0.644511
0.586272
0.528715
0.471832
0.413548
0.350459
0.277483
0.188074
0.0742351
-0.0735352
-0.26602
-0.515751
-0.836513
-1.24254
-1.75479
-2.36459
-3.08854
-4.52609
-4.24418
-5.57412
-5.37303
-6.20772
-7.03463
-7.60061
-7.80299
-7.2841
-6.28257
-4.92278
-3.2659
-1.64254
-0.0722006
1.2738
2.31969
3.08379
3.54373
3.75484
3.79357
3.58037
3.4211
3.00309
2.85693
2.71468
2.57576
2.5863
3.02321
0.0233036
0.0499378
0.0787596
0.102308
0.123208
0.14217
0.158622
0.173957
0.187787
0.201155
0.214119
0.227387
0.241177
0.255897
0.271644
0.288403
0.305837
0.323554
0.341625
0.361762
0.38825
0.426879
0.479162
0.540718
0.609008
0.680079
0.748423
0.808454
0.852661
0.874688
0.871359
0.84437
0.799462
0.743885
0.684066
0.623536
0.563323
0.503778
0.442821
0.37672
0.299674
0.204285
0.0815663
-0.0790596
-0.289531
-0.563568
-0.915893
-1.36152
-1.91974
-2.5743
-3.36449
-4.82886
-4.255
-6.16576
-5.81189
-6.6952
-7.63387
-8.24813
-8.48374
-7.90249
-6.80988
-5.31888
-3.51018
-1.7457
-0.0416534
1.41104
2.53578
3.35475
3.84443
4.0699
4.10962
3.87932
3.70912
3.25314
3.10308
2.94228
2.79418
2.81644
3.28656
0.0241389
0.0535666
0.0840742
0.109718
0.132114
0.152642
0.170334
0.186871
0.20174
0.216118
0.230048
0.244312
0.259147
0.275001
0.291987
0.310086
0.328891
0.347883
0.366996
0.388016
0.415805
0.457172
0.513761
0.580304
0.653983
0.729853
0.801409
0.862185
0.904299
0.922349
0.915067
0.885583
0.839567
0.783285
0.722355
0.66001
0.597472
0.535606
0.472349
0.40362
0.322847
0.221747
0.0903091
-0.0831329
-0.311652
-0.610041
-0.993776
-1.47833
-2.08074
-2.78058
-3.61991
-5.02772
-4.58772
-6.6991
-6.28221
-7.18434
-8.26666
-8.93261
-9.19776
-8.54418
-7.35423
-5.72273
-3.75516
-1.84433
-0.00285315
1.55754
2.76048
3.63238
4.14988
4.38912
4.42903
4.18176
4.00003
3.50535
3.35104
3.17033
3.01461
3.04423
3.50763
0.0248677
0.0572074
0.0892906
0.117061
0.140913
0.163006
0.181917
0.199643
0.215531
0.230901
0.245779
0.261022
0.276884
0.293861
0.312085
0.331527
0.351711
0.371958
0.392027
0.413742
0.442616
0.486648
0.547582
0.619021
0.697696
0.777351
0.850463
0.90992
0.94826
0.962106
0.952275
0.922412
0.877128
0.821313
0.759909
0.696092
0.631495
0.567631
0.502456
0.431505
0.347369
0.240847
0.100861
-0.08535
-0.331938
-0.654606
-1.06932
-1.59167
-2.23639
-2.98187
-3.86136
-5.21847
-5.30774
-7.08558
-6.78169
-7.66909
-8.93263
-9.66115
-9.95253
-9.21294
-7.91824
-6.13579
-4.00113
-1.9379
0.0449901
1.71409
2.99474
3.91753
4.46029
4.71244
4.75167
4.48762
4.29361
3.7595
3.60044
3.39852
3.23618
3.27177
3.73957
0.0254938
0.0608687
0.0944161
0.124345
0.149609
0.173268
0.193373
0.212274
0.229161
0.245503
0.261307
0.277508
0.294381
0.312469
0.331926
0.352721
0.374293
0.395782
0.416715
0.438916
0.468628
0.515241
0.58052
0.656587
0.739488
0.821416
0.893969
0.949927
0.98352
0.994142
0.983973
0.955978
0.913032
0.858579
0.797136
0.73208
0.665639
0.60009
0.53339
0.460646
0.373529
0.261877
0.113502
-0.0854408
-0.350091
-0.69683
-1.14181
-1.70051
-2.38568
-3.17682
-4.09563
-5.43959
-6.21965
-7.15369
-7.30311
-8.1464
-9.62901
-10.4403
-10.7567
-9.91367
-8.5048
-6.55936
-4.24826
-2.02588
0.102718
1.88152
3.2392
4.21089
4.77605
5.03969
5.0773
4.79679
4.58961
4.01533
3.85083
3.62658
3.45726
3.49814
3.96955
0.0260198
0.0645584
0.0994578
0.131577
0.158209
0.183431
0.204706
0.224766
0.242628
0.25992
0.276627
0.293765
0.31163
0.330816
0.351502
0.373661
0.396637
0.419362
0.441065
0.463516
0.49378
0.54286
0.61238
0.692495
0.778384
0.860587
0.930115
0.980819
1.00997
1.01945
1.01147
0.98737
0.948024
0.895547
0.834335
0.768179
0.700077
0.633165
0.565369
0.491297
0.401603
0.285106
0.128461
-0.0832276
-0.365934
-0.736447
-1.21084
-1.80428
-2.52822
-3.36487
-4.32694
-5.67413
-6.93801
-6.93667
-7.86591
-8.62305
-10.3504
-11.2755
-11.6189
-10.6526
-9.11739
-6.99476
-4.49681
-2.10774
0.171212
2.0607
3.4945
4.51289
5.0976
5.37094
5.40573
5.1091
4.88771
4.27255
4.10169
3.85402
3.6786
3.72012
4.18886
0.0264473
0.0682844
0.104422
0.138765
0.166717
0.1935
0.215917
0.23712
0.255931
0.274149
0.291735
0.309787
0.328622
0.348889
0.370803
0.394339
0.418744
0.442705
0.465084
0.487519
0.517995
0.569356
0.64279
0.725953
0.813141
0.893128
0.957205
1.0021
1.02854
1.03951
1.03605
1.01749
0.982663
0.932539
0.871687
0.804503
0.734904
0.666974
0.598554
0.52366
0.431797
0.310692
0.145796
-0.0787524
-0.379553
-0.773509
-1.27641
-1.90312
-2.66445
-3.54645
-4.55603
-5.89995
-7.29803
-6.7967
-8.47605
-9.12345
-11.0908
-12.171
-12.5472
-11.4371
-9.7604
-7.44352
-4.74711
-2.18291
0.25141
2.25257
3.76137
4.82387
5.42536
5.7064
5.73655
5.42438
5.18758
4.53082
4.35246
4.08031
3.90082
3.9425
4.42898
0.0267771
0.0720543
0.109314
0.145916
0.175138
0.203479
0.227009
0.249335
0.269068
0.288186
0.306624
0.325565
0.345348
0.36668
0.389817
0.414748
0.440615
0.465823
0.488783
0.510898
0.541164
0.594459
0.671132
0.755937
0.842253
0.917171
0.974276
1.0145
1.04082
1.05584
1.05882
1.04703
1.01734
0.96975
0.909283
0.84108
0.770144
0.701574
0.633058
0.557878
0.464222
0.338635
0.16534
-0.0723449
-0.391371
-0.808489
-1.3391
-1.99788
-2.79567
-3.72306
-4.78418
-6.12759
-7.53616
-7.13417
-9.01854
-9.6709
-11.8447
-13.1294
-13.5487
-12.2742
-10.4392
-7.90758
-4.99958
-2.25081
0.344308
2.45807
4.04051
5.14415
5.75935
6.04599
6.06955
5.74238
5.48887
4.7898
4.60252
4.30507
4.1216
4.16661
4.66627
0.0270085
0.0758756
0.11414
0.153034
0.183478
0.213371
0.237983
0.261411
0.282038
0.302029
0.32129
0.341093
0.361798
0.384176
0.408532
0.43488
0.46225
0.488732
0.51218
0.533611
0.5631
0.617691
0.696575
0.781262
0.863905
0.931248
0.981663
1.01967
1.04859
1.06974
1.08059
1.07645
1.0523
1.00728
0.94713
0.877865
0.805752
0.736964
0.668932
0.594009
0.498843
0.368699
0.186597
-0.06472
-0.402245
-0.842352
-1.40005
-2.09004
-2.9238
-3.89686
-5.0129
-6.37141
-7.81667
-8.03403
-9.25486
-10.2655
-12.607
-14.1523
-14.6299
-13.1709
-11.1601
-8.38943
-5.25476
-2.31081
0.450957
2.67823
4.33265
5.47401
6.09947
6.38973
6.40501
6.06288
5.79121
5.0491
4.85115
4.52771
4.34058
4.38645
4.88676
0.0271404
0.0797561
0.118903
0.160126
0.191739
0.223179
0.248842
0.27335
0.294839
0.315673
0.335726
0.356361
0.377962
0.401364
0.426935
0.454724
0.483653
0.511452
0.53529
0.555578
0.583461
0.638354
0.718238
0.800431
0.87623
0.935102
0.980983
1.01963
1.05338
1.08218
1.10193
1.10608
1.0877
1.04516
0.985175
0.914751
0.841626
0.773087
0.706163
0.631989
0.535405
0.400317
0.208666
-0.0570383
-0.413486
-0.876488
-1.46075
-2.18134
-3.05098
-4.07011
-5.24333
-6.63599
-8.14492
-8.95424
-9.07087
-10.9355
-13.3817
-15.2413
-15.7962
-14.1331
-11.9295
-8.89224
-5.51334
-2.36229
0.572469
2.91409
4.63853
5.81372
6.44559
6.7375
6.7428
6.38561
6.09423
5.30833
5.09761
4.74737
4.55836
4.60536
5.14555
0.0271701
0.0837035
0.123608
0.167199
0.199927
0.232906
0.259587
0.285149
0.307468
0.329113
0.349926
0.371363
0.393829
0.41823
0.44501
0.474272
0.504826
0.534
0.558112
0.576615
0.60168
0.655726
0.735151
0.811485
0.878191
0.930055
0.974462
1.01618
1.05632
1.09381
1.12319
1.13612
1.12365
1.08338
1.02332
0.951578
0.877616
0.809837
0.744656
0.671589
0.573358
0.432509
0.230176
-0.0509137
-0.426768
-0.912501
-1.52276
-2.27345
-3.17911
-4.24483
-5.47665
-6.91788
-8.47954
-9.47217
-8.87182
-11.7406
-14.2054
-16.4005
-17.0527
-15.1663
-12.7537
-9.41977
-5.77632
-2.40459
0.710017
3.16674
4.9589
6.16349
6.7975
7.08904
7.08253
6.71031
6.39753
5.56711
5.34108
4.96329
4.77185
4.82236
5.37334
0.027094
0.0877261
0.128259
0.174257
0.208044
0.242555
0.270219
0.296809
0.319923
0.342344
0.363883
0.386089
0.409388
0.434761
0.462742
0.493511
0.52577
0.556386
0.58059
0.596324
0.617076
0.669279
0.74578
0.812585
0.870467
0.91846
0.964184
1.01062
1.05817
1.10506
1.14464
1.16676
1.16024
1.1219
1.06145
0.988151
0.913539
0.847068
0.784223
0.712353
0.611773
0.463823
0.249289
-0.0482976
-0.443868
-0.951875
-1.58735
-2.36764
-3.30957
-4.42258
-5.71446
-7.21468
-8.82585
-9.85003
-9.1838
-12.579
-15.1346
-17.6368
-18.405
-16.2754
-13.6389
-9.97614
-6.04516
-2.43707
0.864838
3.43734
5.29453
6.52347
7.15494
7.44405
7.4244
7.03696
6.70075
5.82504
5.58074
5.17453
4.97993
5.02668
5.61354
0.0269075
0.0918327
0.132859
0.181305
0.216093
0.252127
0.280738
0.308329
0.332201
0.355362
0.37759
0.400529
0.424626
0.450939
0.480113
0.512427
0.546479
0.578587
0.602506
0.614053
0.629281
0.678298
0.747911
0.803302
0.855317
0.902726
0.951694
1.00385
1.0594
1.11618
1.16647
1.19816
1.19756
1.16072
1.09943
1.02425
0.9492
0.884607
0.824549
0.753528
0.64927
0.492311
0.263804
-0.0511887
-0.466292
-0.995648
-1.6553
-2.46458
-3.44301
-4.60423
-5.95828
-7.5263
-9.20259
-10.3486
-10.3008
-13.2127
-16.1728
-18.9572
-19.8601
-17.4647
-14.5908
-10.5655
-6.32191
-2.45906
1.03824
3.72708
5.64621
6.89377
7.51755
7.80206
7.76831
7.36559
7.00361
6.08176
5.81573
5.38009
5.18055
5.2139
5.84176
0.0266044
0.0960325
0.137409
0.188349
0.224077
0.261626
0.291146
0.319706
0.344299
0.368162
0.391039
0.414675
0.439531
0.466748
0.4971
0.530997
0.566924
0.600473
0.623316
0.629206
0.638362
0.680962
0.739869
0.785332
0.835498
0.884672
0.937985
0.996357
1.06029
1.12739
1.1889
1.23056
1.23579
1.19982
1.13712
1.05967
0.984418
0.922252
0.86515
0.793993
0.683966
0.515598
0.271466
-0.0611942
-0.494907
-1.04418
-1.72671
-2.56421
-3.57926
-4.78985
-6.20898
-7.85263
-9.61617
-10.9785
-11.7035
-13.4022
-17.3196
-20.3729
-21.4265
-18.7386
-15.6147
-11.1921
-6.60865
-2.46992
1.23158
4.0372
6.01474
7.27443
7.88491
8.16256
8.1137
7.69611
7.30577
6.33692
6.04528
5.57936
5.37004
5.37326
6.02036
0.0261773
0.100336
0.141912
0.195392
0.232
0.271051
0.301442
0.33094
0.356212
0.380736
0.404224
0.428517
0.45409
0.482169
0.513677
0.549185
0.587023
0.62165
0.642148
0.641757
0.64362
0.674347
0.721881
0.761625
0.813211
0.865438
0.923645
0.988465
1.06105
1.13891
1.21218
1.26423
1.27513
1.23924
1.17443
1.09419
1.01904
0.959767
0.905323
0.832168
0.713457
0.531153
0.270463
-0.0791041
-0.529729
-1.09707
-1.8009
-2.66564
-3.71725
-4.97852
-6.46641
-8.19379
-10.0649
-11.6691
-12.8007
-13.4171
-18.6596
-21.9108
-23.114
-20.1024
-16.7154
-11.8599
-6.90709
-2.46922
1.44629
4.36898
6.40093
7.66538
8.25648
8.52496
8.45998
8.02848
7.60675
6.59014
6.26871
5.77205
5.54719
5.49739
6.17834
0.0256171
0.104753
0.14637
0.202441
0.239861
0.280404
0.311626
0.342029
0.367938
0.393078
0.417135
0.442044
0.46829
0.497181
0.529809
0.566925
0.60653
0.641252
0.65837
0.652059
0.643052
0.657879
0.696775
0.734732
0.789851
0.845685
0.908995
0.980378
1.0619
1.15097
1.23664
1.29958
1.31589
1.27907
1.21128
1.12766
1.05296
0.996865
0.944052
0.865885
0.734969
0.536829
0.259953
-0.104657
-0.569878
-1.1531
-1.8764
-2.76711
-3.855
-5.16831
-6.72932
-8.54996
-10.5476
-12.3919
-13.6653
-13.7078
-20.1979
-23.6149
-24.9287
-21.5614
-17.8969
-12.5729
-7.21888
-2.45691
1.68385
4.72376
6.80561
8.06651
8.63164
8.88856
8.80652
8.36265
7.90629
6.841
6.48548
5.95859
5.71026
5.58442
6.30204
0.0249131
0.109298
0.150784
0.209498
0.247664
0.289686
0.321697
0.352969
0.37947
0.405183
0.429765
0.455247
0.482116
0.511756
0.545441
0.584067
0.624823
0.658092
0.672241
0.659608
0.632611
0.629278
0.667717
0.706764
0.766008
0.825749
0.894249
0.972294
1.06306
1.1639
1.26271
1.3371
1.35846
1.31946
1.24761
1.15995
1.08612
1.03319
0.979814
0.892312
0.745878
0.531547
0.24037
-0.136547
-0.613628
-1.21026
-1.9509
-2.86599
-3.98965
-5.35643
-6.99544
-8.92051
-11.0653
-13.1579
-14.5985
-14.6463
-21.8231
-25.5336
-26.8726
-23.119
-19.1625
-13.3347
-7.54567
-2.43317
1.94579
5.10289
7.22963
8.47756
9.00965
9.25258
9.15267
8.69858
8.20484
7.08903
6.6952
6.14039
5.86221
5.64211
6.36412
0.0240523
0.113982
0.155152
0.216568
0.255408
0.298896
0.331655
0.363757
0.390805
0.417041
0.442103
0.468113
0.495547
0.525854
0.56048
0.600254
0.640758
0.671353
0.683278
0.659728
0.605873
0.595205
0.634733
0.678165
0.742081
0.805782
0.879581
0.964449
1.06484
1.17811
1.29093
1.37743
1.40339
1.36061
1.28342
1.19093
1.11858
1.06822
1.0102
0.908255
0.744572
0.51575
0.213379
-0.172578
-0.658495
-1.26576
-2.02128
-2.95886
-4.11767
-5.53956
-7.26193
-9.30357
-11.6166
-13.9713
-15.6755
-16.3233
-23.5087
-27.7123
-28.9469
-24.7746
-20.5141
-14.1486
-7.88905
-2.39825
2.23372
5.50776
7.67384
8.89817
9.38966
9.61613
9.49774
9.03632
8.50286
7.33369
6.89758
6.31936
6.0107
5.68884
6.48367
0.0230195
0.118822
0.159476
0.223655
0.263095
0.308035
0.341499
0.374391
0.401936
0.428646
0.454139
0.480628
0.50856
0.539416
0.574735
0.614703
0.653078
0.680819
0.68923
0.646733
0.569546
0.56129
0.599321
0.649683
0.718165
0.786017
0.865237
0.957136
1.06762
1.1941
1.32198
1.42138
1.45131
1.40279
1.31862
1.22052
1.15062
1.10074
1.03167
0.911134
0.731213
0.491379
0.181613
-0.209838
-0.701329
-1.31618
-2.08382
-3.04191
-4.2354
-5.71442
-7.52592
-9.69636
-12.1972
-14.8299
-16.9135
-18.6921
-25.1953
-30.1943
-31.1601
-26.5257
-21.9509
-15.017
-8.25082
-2.3522
2.54939
5.93983
8.13911
9.32785
9.7707
9.97821
9.84101
9.3761
8.80023
7.57431
7.09234
6.49742
6.16018
5.73852
6.60981
0.0217966
0.123834
0.163754
0.230762
0.270724
0.317102
0.351225
0.384867
0.412858
0.439987
0.465862
0.492774
0.521114
0.55234
0.58777
0.626211
0.661593
0.687769
0.68883
0.616751
0.533275
0.526659
0.562873
0.621632
0.694432
0.766725
0.851518
0.950723
1.07185
1.21247
1.35668
1.46993
1.50303
1.44625
1.35293
1.24878
1.18264
1.12789
1.04025
0.900273
0.707877
0.46148
0.148373
-0.244874
-0.738479
-1.35767
-2.13466
-3.11149
-4.33969
-5.87843
-7.78504
-10.0956
-12.8008
-15.7262
-18.2911
-21.5085
-26.7267
-33.0004
-33.5342
-28.3715
-23.4699
-15.9402
-8.63281
-2.29471
2.89483
6.4006
8.62629
9.76596
10.1517
10.3377
10.1817
9.7183
9.0966
7.81
7.27917
6.67582
6.30901
5.80521
6.76259
0.0203625
0.129038
0.167985
0.237893
0.278295
0.326094
0.360833
0.395179
0.423563
0.451054
0.477253
0.504519
0.533146
0.56441
0.598755
0.633957
0.668113
0.695662
0.674009
0.582853
0.496231
0.490504
0.525497
0.593945
0.671146
0.748249
0.838776
0.945627
1.07807
1.23396
1.39603
1.5243
1.55949
1.49104
1.38564
1.27642
1.21412
1.14461
1.0334
0.877535
0.678023
0.429739
0.117374
-0.273901
-0.766091
-1.38645
-2.17037
-3.16482
-4.42849
-6.03
-8.03744
-10.4977
-13.4194
-16.6492
-19.7586
-24.3026
-27.9439
-36.1349
-36.0982
-30.3174
-25.0685
-16.9168
-9.0367
-2.22501
3.27246
6.89173
9.13627
10.2117
10.5313
10.6933
10.519
10.0634
9.39163
8.03962
7.45763
6.85513
6.45694
5.88816
6.93364
0.0186918
0.134455
0.172165
0.245049
0.285806
0.33501
0.370319
0.405322
0.434043
0.461831
0.488288
0.515818
0.544542
0.575167
0.606736
0.638609
0.674302
0.699099
0.648597
0.550923
0.456695
0.454362
0.48783
0.567163
0.648607
0.730924
0.827392
0.942321
1.08687
1.25942
1.44123
1.58595
1.62166
1.5365
1.41583
1.30506
1.24142
1.14523
1.01181
0.846794
0.645769
0.400117
0.0924871
-0.29312
-0.780572
-1.39939
-2.18856
-3.20038
-4.50095
-6.16837
-8.28145
-10.8985
-14.0441
-17.5873
-21.2646
-26.6819
-29.0304
-39.7474
-38.8859
-32.3723
-26.746
-17.944
-9.46368
-2.14162
3.68532
7.41507
9.66994
10.6639
10.9081
11.0437
10.852
10.4121
9.68493
8.26182
7.62721
7.03557
6.60398
5.98597
7.06706
0.016755
0.140111
0.176292
0.252233
0.293256
0.343845
0.379679
0.41529
0.444285
0.472296
0.498925
0.526593
0.555064
0.58389
0.611713
0.643581
0.684101
0.687476
0.62533
0.517503
0.415411
0.418271
0.450147
0.54146
0.627135
0.715149
0.817785
0.941326
1.09897
1.28985
1.49372
1.65657
1.69017
1.58053
1.44359
1.33547
1.25666
1.12695
0.979575
0.812765
0.615356
0.37655
0.0774161
-0.29916
-0.77912
-1.39453
-2.18819
-3.21788
-4.55705
-6.29306
-8.51514
-11.2932
-14.6662
-18.5299
-22.7809
-28.6744
-30.3652
-44.0808
-41.9418
-34.5436
-28.503
-19.0189
-9.91422
-2.04135
4.1372
7.97282
10.2283
11.1215
11.2807
11.3875
11.1799
10.765
9.97608
8.47506
7.78722
7.21665
6.75025
6.09533
7.23666
0.0145168
0.146034
0.180363
0.259447
0.300642
0.352597
0.388909
0.425072
0.454271
0.482414
0.509102
0.536703
0.564277
0.590056
0.615169
0.651079
0.690329
0.670446
0.604556
0.481949
0.373352
0.382363
0.413239
0.517288
0.607097
0.701309
0.810401
0.943215
1.11513
1.3264
1.55517
1.73802
1.76444
1.61953
1.47146
1.36324
1.2509
1.09242
0.9425
0.780092
0.590804
0.362628
0.0752855
-0.289561
-0.760153
-1.37122
-2.16944
-3.21788
-4.5971
-6.40337
-8.736
-11.6765
-15.2771
-19.4695
-24.3022
-30.5114
-32.3228
-49.0021
-45.3012
-36.826
-30.3374
-20.1378
-10.3875
-1.91918
4.63256
8.56772
10.8123
11.583
11.6472
11.723
11.5017
11.1229
10.2646
8.67761
7.9369
7.39709
6.89586
6.21082
7.42434
0.0119353
0.152256
0.184371
0.26669
0.307962
0.361259
0.398002
0.434655
0.463973
0.492128
0.518715
0.545889
0.571646
0.594295
0.620517
0.663099
0.684569
0.658181
0.582858
0.445558
0.33072
0.346506
0.377654
0.494897
0.58888
0.689816
0.80571
0.948598
1.13622
1.37035
1.6275
1.83189
1.84121
1.65042
1.50267
1.37622
1.22052
1.04876
0.906172
0.752915
0.575604
0.361215
0.0882124
-0.263134
-0.723457
-1.33006
-2.13327
-3.20117
-4.62116
-6.49807
-8.94097
-12.0428
-15.8693
-20.401
-25.8261
-32.3006
-35.1517
-54.3165
-48.9929
-39.2087
-32.2406
-21.2946
-10.8809
-1.77019
5.17663
9.20323
11.4234
12.0465
12.0058
12.0484
11.8162
11.487
10.5497
8.86764
8.0753
7.57546
7.04031
6.33291
7.55857
0.00896113
0.158817
0.188312
0.273963
0.315209
0.369824
0.406947
0.444014
0.473343
0.501353
0.527589
0.553765
0.577057
0.598387
0.629629
0.672578
0.676984
0.648476
0.560375
0.409001
0.287944
0.310419
0.344444
0.474576
0.572907
0.681064
0.804193
0.958104
1.16313