/*--------------------------------*- C++ -*----------------------------------*\
| =========                 |                                                 |
| \\      /  F ield         | OpenFOAM: The Open Source CFD Toolbox           |
|  \\    /   O peration     | Version:  4.1                                   |
|   \\  /    A nd           | Web:      www.OpenFOAM.org                      |
|    \\/     M anipulation  |                                                 |
\*---------------------------------------------------------------------------*/
FoamFile
{
    version     2.0;
    format      ascii;
    class       surfaceScalarField;
    location    "18";
    object      phi;
}
// * * * * * * * * * * * * * * * * * * * * * * * * * * * * * * * * * * * * * //

dimensions      [0 3 -1 0 0 0 0];

internalField   nonuniform List<scalar> 
13220
(
-786.575
2086.47
-1230.37
1743.99
-1684.7
1754.23
-2018.33
1633.52
-2291.47
1573.35
-2487.84
1496.26
-2616.05
1428.11
-2676.02
1360.17
-2671.24
1295.12
-2595.76
1224.41
-2432.05
1136.49
-2143.82
1011.67
-1664.86
820.944
-945.059
580.395
354.841
-225.794
2312.27
-506.711
2024.91
-811.703
2059.22
-1061.8
1883.62
-1303.19
1814.74
-1502.85
1695.93
-1678.38
1603.63
-1823.45
1505.24
-1940.43
1412.11
-2012.27
1296.25
-1986.08
1110.3
-1743.36
768.951
-1176.01
253.588
-508.743
-86.873
-153.902
-154.028
2466.29
-373.208
2244.09
-529.853
2215.86
-631.427
1985.19
-719.938
1903.25
-765.6
1741.59
-789.981
1628.01
-786.653
1501.91
-760.256
1385.71
-711.256
1247.25
-639.851
1038.89
-533.264
662.357
-389.417
109.728
-276.719
-199.586
-430.62
97.5483
2368.74
53.3879
2288.25
80.9948
2188.26
130.514
1935.67
187.973
1845.79
262.544
1667.01
350.16
1540.4
454.996
1397.07
573.79
1266.91
691.306
1129.73
765.513
964.683
693.93
733.94
380.589
423.069
48.8092
132.193
-381.811
161.242
2207.5
164.257
2285.23
226.014
2126.5
293.792
1867.89
369.844
1769.73
445.816
1591.04
525.153
1461.06
603.879
1318.35
681.415
1189.38
747.518
1063.63
781.436
930.766
732.319
783.053
561.899
593.485
316.751
377.335
-65.0598
115.925
2091.58
164.164
2236.99
229.881
2060.78
302.117
1795.65
376.312
1695.54
455.676
1511.68
531.273
1385.46
604.714
1244.91
671.942
1122.15
728.356
1007.21
753.525
905.597
716.67
819.913
577.961
732.199
338.449
616.857
273.389
23.3451
2068.23
92.7841
2167.55
147.827
2005.74
185.874
1757.61
225.01
1656.4
274.404
1462.28
358.173
1301.69
501.141
1101.94
677.278
946.014
841.381
843.11
924.609
822.371
880.159
864.359
687.747
924.609
385.523
919.078
658.912
-107.495
2175.73
-127.716
2187.77
-163.017
2041.04
-253.963
1848.55
-349.751
1752.19
-444.713
1557.25
-474.784
1331.76
-415.551
1042.71
-279.462
809.925
-87.7511
651.401
125.61
609.01
290.791
699.183
324.527
890.877
205.856
1037.75
864.768
-97.8732
2273.6
-320.078
2409.98
-498.518
2219.48
-701.015
2051.05
-917.551
1968.72
-1152.89
1792.58
-1382.2
1561.08
-1590
1250.5
-1747.09
967.013
-1802.28
706.591
-1681.97
488.696
-1339.06
356.27
-823.253
375.071
-311.507
526.003
553.262
220.781
2052.82
28.1584
2602.6
-155.82
2403.46
-283.624
2178.86
-381.785
2066.89
-496.446
1907.25
-653.821
1718.45
-864.801
1461.48
-1101.19
1203.41
-1332.55
937.947
-1505.6
661.747
-1521.03
371.703
-1264.56
118.606
-686.735
-51.8144
-133.473
481.866
1570.95
528.083
2556.39
456.278
2475.26
452.716
2182.42
522.177
1997.43
597.417
1832.01
638.268
1677.6
607.219
1492.54
515.249
1295.38
366.566
1086.63
166.07
862.244
-75.7402
613.515
-264.751
307.621
-236.292
-80.2678
-369.765
420.331
1150.62
568.35
2408.37
594.982
2448.63
641.24
2136.16
739.599
1899.07
854.873
1716.74
964.351
1568.13
1038.98
1417.9
1073.09
1261.27
1060.7
1099.02
993.978
928.97
856.558
750.938
619.394
544.789
233.189
305.945
-136.576
255.888
894.738
394.636
2269.62
484.013
2359.26
584.134
2036.04
701.629
1781.57
809.455
1608.91
895.727
1481.85
950.665
1362.97
967.58
1244.35
942.702
1123.9
872.028
999.644
751.998
870.969
575.607
721.181
337.349
544.204
200.773
218.347
676.392
364.306
2123.66
380.494
2343.07
322.288
2094.25
280.936
1822.93
270.375
1619.47
285.042
1467.19
315.217
1332.79
350.45
1209.12
383.831
1090.52
410.682
972.794
416.763
864.888
361.158
776.786
221.062
684.302
421.835
223.993
1135.1
1956.39
2403.96
2500.45
2489.4
2365.74
2151.08
1903.78
1652.89
1380.14
1093.3
801.709
440.28
-4.26258e-06
-147.588
147.588
-147.588
-147.588
-147.588
226.579
-374.167
226.579
226.579
226.579
564.89
-338.311
564.89
564.89
849.937
-285.047
849.937
849.937
849.937
1073.35
-223.417
1073.35
1073.35
1229.11
-155.757
1229.11
1229.11
1229.11
1324.09
-94.9764
1324.09
1324.09
1324.09
1364.86
-40.7715
1364.86
1364.86
1352.45
12.4114
1352.45
1352.45
1352.45
1292.65
59.7995
1292.65
1292.65
1187.42
105.232
1187.42
1187.42
1187.42
1047.33
140.084
1047.33
1047.33
1047.33
951.53
95.8014
951.53
951.53
853.539
97.9912
853.539
853.539
853.539
637.429
216.11
637.429
637.429
637.429
317.345
320.084
317.345
317.345
6.73118
310.614
6.7312
6.73112
6.73119
-535.83
542.561
-535.83
-535.83
-1691.22
1155.39
-1691.22
-1691.22
-1691.22
-3336.05
1644.83
-3336.05
-3336.05
-3336.05
-5293.48
1957.43
-5293.48
-5293.48
-7502.43
2208.95
-7502.43
-7502.43
-7341.49
-7183.08
-7024.36
-9240.8
2375.4
-9071.96
-8884.99
-8688.21
-8491.43
-8294.71
-8098.07
-7902.49
-7704.82
-9971.06
2459.72
-9766.5
-9562.06
-9357.09
-9144.84
-8929.6
-8712.4
-8494.17
-8274.84
-10578.7
2522.72
-10344.5
-10109.1
-9873.48
-9637.64
-9396.26
-9144.31
-8890.75
-8634.95
-8378.41
-10581.9
2446.91
-10313.1
-10042.2
-9769.54
-9495.36
-9219.17
-8929.69
-8632.43
-8335.06
-10338.5
2283.62
-10049.9
-9757.07
-9455.35
-9156.18
-8858.44
-8562.66
-8267.06
-7952.27
-9387.13
1736.95
-9082.74
-8779.05
-8474.83
-8153.17
-7823.98
-7496.43
-7169.88
-6847.64
-7715.58
1186.91
-7390.16
-7075.87
-6769.98
-6473.77
-6186.88
-5892.09
-5605.28
-5323.41
-5047.75
-4764.21
7.02755
-4514.48
-4280.2
-4048.72
-3821.99
-3600.06
-3424.85
-3339.82
-3254.39
-2887.83
-276.068
-2811.55
-2738.3
-2738.3
-2524.61
-213.688
-2314.58
-210.033
-2314.58
-2135.64
-178.934
-2135.64
-1981.2
-154.44
-1853.13
-128.075
-1853.13
-1733.16
-119.966
-1632.32
-100.837
-1632.32
-1535.94
-96.3845
-1535.94
-1448.26
-87.6806
-1373.05
-75.2129
-1373.05
-1298.86
-74.1837
-1298.86
-1230.34
-68.5255
-1169.08
-61.2549
-1169.08
-1107.51
-61.5764
-1052.69
-54.8186
-1052.69
-997.515
-55.1724
-997.515
-945.137
-52.3784
-897.816
-47.3211
-897.816
-849.531
-48.2846
-849.531
-803.345
-46.1863
-760.187
-43.1581
-760.187
-715.264
-44.9229
-673.455
-41.8086
-673.455
-630.23
-43.2256
-630.23
-587.353
-42.8761
-547.213
-40.1402
-547.213
-505.707
-41.5061
-505.707
-463.947
-41.7606
-424.302
-39.6445
-424.302
-381.891
-42.4106
-342.682
-39.2091
-342.682
-303.425
-39.2578
-303.425
-263.704
-39.7207
-227.194
-36.5099
-227.194
-191.584
-35.6099
-191.584
-155.158
-36.4265
-119.655
-35.5028
-119.655
-83.191
-36.4638
-51.329
-31.862
-51.329
-27.6249
-23.704
-27.6249
-1.4669
-26.158
32.941
-34.4079
32.941
63.5852
-30.6442
63.5852
91.5151
-27.9299
129.658
-38.1428
129.658
169.952
-40.2943
226.532
-56.5793
226.532
291.559
-65.0276
291.559
-68.835
-114.842
-478.709
-115.235
-549.864
-116.066
-589.276
-117.085
-629.803
-118.382
-667.117
-119.874
-701.94
-121.58
-734.716
-123.474
-765.594
-125.556
-794.788
-127.816
-822.507
-130.25
-848.903
-132.855
-874.177
-135.631
-898.482
-138.575
-922
-141.686
-944.876
-144.965
-967.252
-148.411
-989.24
-152.024
-1010.94
-155.812
-1032.46
-159.79
-1054
-163.987
-1075.89
-168.436
-1098.66
-173.172
-1122.91
-178.222
-1149.16
-183.601
-1177.7
-189.307
-1208.63
-195.314
-1241.78
-201.57
-1276.74
-208
-1312.88
-214.53
-1349.3
-221.177
-1384.83
-228.23
-1417.84
-236.512
-1446.12
-247.627
-1466.79
-263.951
-1476.57
-288.149
-1472.61
-322.131
-1453.92
-365.83
-1422.73
-416.512
-1384.8
-469.234
-1347.86
-518.332
-1318.84
-559.06
-1301.45
-588.525
-1295.44
-605.612
-1297.36
-610.276
-1301.35
-603.019
-1299.49
-585.648
-1284.39
-561.436
-1257.86
-523.553
-1222.86
-434.248
-1067.06
-293.917
-416.293
-207.057
643.347
-174.408
1244.22
-144.6
1610.2
-113.735
1956.78
-82.9116
2295.28
-52.2685
2627.11
-22.0792
2948.92
5.07778
3224.06
26.1144
3424.08
39.4232
3549.87
46.5722
3642.95
49.864
3718.26
50.9914
3766.51
51.0965
3772.69
50.8692
3722.62
50.5691
3610.35
50.6251
3444.28
50.4515
3208.65
50.5251
2932.05
49.1558
2545.43
48.3189
2193.5
44.8859
1615.96
44.2535
1451.91
40.0368
370.822
44.5094
1076.97
44.4291
32.4529
42.5789
-758.421
3260.96
-121.182
-478.953
-121.412
-549.634
-122.183
-588.504
-123.158
-628.828
-124.443
-665.831
-125.94
-700.444
-127.669
-732.987
-129.6
-763.664
-131.732
-792.655
-134.056
-820.184
-136.569
-846.39
-139.267
-871.479
-142.149
-895.6
-145.214
-918.935
-148.46
-941.629
-151.886
-963.826
-155.49
-985.635
-159.276
-1007.15
-163.254
-1028.49
-167.451
-1049.81
-171.903
-1071.44
-176.655
-1093.9
-181.74
-1117.82
-187.177
-1143.72
-192.972
-1171.91
-199.102
-1202.5
-205.523
-1235.36
-212.155
-1270.11
-218.916
-1306.12
-225.799
-1342.42
-233.078
-1377.55
-241.63
-1409.29
-253.261
-1434.49
-270.752
-1449.3
-297.322
-1450
-335.366
-1434.56
-384.899
-1404.38
-442.608
-1365.02
-502.374
-1325.03
-557.259
-1292.97
-601.756
-1274.34
-632.994
-1270.21
-650.523
-1277.91
-655.284
-1292.6
-648.514
-1308.12
-631.138
-1316.86
-604.553
-1310.97
-572.476
-1289.94
-533.685
-1261.65
-451.796
-1148.95
-289.059
-579.03
-188.216
542.504
-168.371
1224.37
-141.85
1583.68
-111.333
1926.26
-81.2914
2265.24
-51.3288
2597.14
-21.8675
2919.46
4.56938
3197.62
25.0674
3403.58
38.0827
3536.86
45.0734
3635.96
48.3715
3714.96
49.5898
3765.29
49.86
3772.42
49.8554
3722.62
49.7942
3610.41
50.1014
3443.98
50.1777
3208.57
50.4818
2931.75
49.3709
2546.54
48.7054
2194.16
45.5432
1619.12
45.1769
1452.27
40.0796
375.919
48.5956
1068.45
40.6807
40.3677
33.3969
-751.137
3229.33
-124.62
-479.282
-124.787
-549.467
-125.527
-587.764
-126.483
-627.872
-127.766
-664.548
-129.269
-698.941
-131.016
-731.24
-132.972
-761.708
-135.138
-790.489
-137.503
-817.819
-140.065
-843.828
-142.82
-868.724
-145.768
-892.653
-148.906
-915.797
-152.233
-938.303
-155.745
-960.313
-159.443
-981.937
-163.33
-1003.27
-167.421
-1024.4
-171.747
-1045.48
-176.353
-1066.84
-181.285
-1088.97
-186.576
-1112.53
-192.24
-1138.06
-198.272
-1165.88
-204.64
-1196.13
-211.281
-1228.72
-218.112
-1263.28
-225.087
-1299.14
-232.378
-1335.13
-240.682
-1369.25
-251.601
-1398.37
-267.803
-1418.29
-292.61
-1424.49
-328.829
-1413.78
-377.138
-1386.25
-434.914
-1346.61
-496.432
-1303.5
-554.645
-1266.82
-603.546
-1244.07
-639.689
-1238.2
-662.223
-1247.67
-671.95
-1268.19
-670.264
-1294.29
-658.4
-1319.98
-637.069
-1338.2
-607.064
-1340.98
-571.417
-1325.59
-532.149
-1300.92
-460.861
-1220.24
-294.018
-745.873
-168.651
417.137
-154.072
1209.79
-137.753
1567.36
-107.935
1896.45
-78.8061
2236.11
-49.8626
2568.2
-21.3464
2890.94
4.12651
3172.15
23.8355
3383.87
36.3315
3524.36
43.009
3629.28
46.2064
3711.77
47.4984
3764
47.9663
3771.95
48.2603
3722.33
48.5471
3610.12
49.2237
3443.3
49.6713
3208.13
50.3314
2931.09
49.5789
2547.29
49.1793
2194.56
46.378
1621.92
45.8658
1452.79
40.8382
380.947
49.2426
1060.05
40.4175
49.1928
31.6266
-742.346
3204.38
-128.732
-479.687
-128.842
-549.357
-129.554
-587.052
-130.496
-626.93
-131.783
-663.261
-133.3
-697.424
-135.072
-729.469
-137.061
-759.718
-139.271
-788.279
-141.688
-815.402
-144.311
-841.205
-147.137
-865.897
-150.165
-889.625
-153.393
-912.569
-156.818
-934.877
-160.438
-956.694
-164.25
-978.125
-168.26
-999.257
-172.486
-1020.17
-176.965
-1041
-181.752
-1062.05
-186.898
-1083.83
-192.434
-1107
-198.368
-1132.12
-204.687
-1159.56
-211.34
-1189.48
-218.251
-1221.81
-225.351
-1256.18
-232.724
-1291.77
-240.906
-1326.95
-251.298
-1358.85
-266.462
-1383.2
-289.853
-1394.9
-324.734
-1389.61
-372.484
-1366.03
-431.173
-1327.56
-495.428
-1282.35
-557.957
-1240.97
-612.009
-1212.77
-653.304
-1202.78
-680.463
-1211.04
-694.175
-1233.96
-696.017
-1266.34
-687.609
-1302.69
-670.175
-1337.42
-644.339
-1364.03
-610.557
-1374.76
-571.187
-1364.96
-529.962
-1342.14
-466.604
-1283.6
-306.397
-906.08
-152.306
263.046
-133.032
1190.52
-130.31
1564.64
-103.904
1870.04
-75.4048
2207.61
-47.8023
2540.6
-20.4799
2863.62
3.78757
3147.88
22.4376
3365.22
34.1898
3512.61
40.3911
3623.08
43.3836
3708.77
44.7174
3762.66
45.4083
3771.26
46.0666
3721.67
46.8005
3609.39
47.9544
3442.15
48.8875
3207.19
50.0107
2929.96
49.7211
2547.58
49.6855
2194.6
47.2879
1624.32
46.8468
1453.23
41.6737
386.12
49.018
1052.7
38.9155
59.2953
29.6259
-733.057
3193.71
-132.71
-480.143
-132.783
-549.284
-133.475
-586.36
-134.411
-625.994
-135.707
-661.965
-137.244
-695.887
-139.045
-727.668
-141.072
-757.69
-143.329
-786.023
-145.802
-812.929
-148.49
-838.517
-151.389
-862.998
-154.5
-886.514
-157.82
-909.249
-161.346
-931.351
-165.075
-952.965
-169.004
-974.196
-173.138
-995.123
-177.499
-1015.81
-182.132
-1036.37
-187.099
-1057.08
-192.46
-1078.47
-198.242
-1101.21
-204.447
-1125.92
-211.048
-1152.96
-217.977
-1182.55
-225.159
-1214.62
-232.611
-1248.72
-240.718
-1283.66
-250.67
-1317
-264.868
-1344.66
-286.835
-1361.24
-320.227
-1361.51
-367.066
-1342.77
-426.086
-1307.01
-492.308
-1261.34
-558.36
-1216.3
-616.921
-1182.41
-662.943
-1166.74
-694.477
-1171.24
-712.024
-1193.49
-717.276
-1228.71
-712.089
-1271.53
-697.989
-1316.79
-676.03
-1359.38
-646.711
-1393.35
-610.218
-1411.25
-568.182
-1406.99
-524.93
-1385.39
-468.528
-1340
-328.317
-1046.29
-145.536
80.2653
-108.728
1153.71
-117.297
1573.21
-98.7648
1851.51
-71.1147
2179.96
-44.9814
2514.46
-19.1912
2837.83
3.6235
3125.06
20.9322
3347.91
31.6738
3501.87
37.2017
3617.55
39.8585
3706.12
41.1794
3761.34
42.1096
3770.33
43.1935
3720.59
44.4743
3608.11
46.2227
3440.4
47.7601
3205.66
49.4682
2928.26
49.7427
2547.31
50.1824
2194.16
48.2334
1626.27
48.005
1453.46
42.5946
391.53
49.0837
1046.21
37.5551
70.8239
27.9279
-723.43
3183.5
-136.742
-480.632
-136.794
-549.232
-137.475
-585.679
-138.413
-625.056
-139.724
-660.654
-141.286
-694.326
-143.122
-725.832
-145.193
-755.619
-147.502
-783.714
-150.036
-810.395
-152.794
-835.759
-155.773
-860.019
-158.972
-883.314
-162.39
-905.831
-166.023
-927.718
-169.867
-949.121
-173.919
-970.145
-178.183
-990.859
-182.685
-1011.31
-187.477
-1031.58
-192.632
-1051.93
-198.215
-1072.88
-204.252
-1095.18
-210.735
-1119.43
-217.621
-1146.07
-224.831
-1175.34
-232.339
-1207.12
-240.398
-1240.66
-249.981
-1274.08
-263.283
-1303.69
-283.838
-1324.1
-315.663
-1329.41
-361.427
-1315.74
-420.515
-1283.68
-488.337
-1239.19
-557.502
-1192.18
-620.258
-1153.54
-670.868
-1131.8
-706.757
-1130.85
-728.119
-1149.88
-736.673
-1184.94
-734.478
-1230.9
-723.288
-1282.72
-704.395
-1335.69
-678.653
-1385.12
-646.468
-1425.54
-607.914
-1449.81
-564.09
-1450.82
-519.166
-1430.32
-467.776
-1391.39
-352.805
-1161.26
-153.319
-119.221
-84.9783
1085.37
-98.1297
1586.36
-91.1811
1844.56
-66.0596
2154.84
-41.267
2489.67
-17.3686
2813.93
3.7327
3103.96
19.4347
3332.21
28.8801
3492.42
33.5131
3612.92
35.682
3703.95
36.9083
3760.12
38.0748
3769.17
39.6291
3719.03
41.543
3606.19
43.9951
3437.94
46.2497
3203.4
48.66
2925.85
49.598
2546.37
50.6156
2193.14
49.1683
1627.71
49.2073
1453.42
43.6226
397.115
49.3183
1040.52
36.004
84.1382
25.7108
-713.136
3181.28
-140.793
-481.138
-140.838
-549.188
-141.516
-585.001
-142.464
-624.108
-143.797
-659.321
-145.389
-692.733
-147.266
-723.955
-149.386
-753.498
-151.752
-781.348
-154.352
-807.795
-157.185
-832.926
-160.249
-856.955
-163.542
-880.021
-167.064
-902.31
-170.81
-923.972
-174.775
-945.156
-178.955
-965.965
-183.354
-986.459
-188.002
-1006.66
-192.958
-1026.62
-198.306
-1046.58
-204.117
-1067.07
-210.415
-1088.88
-217.178
-1112.67
-224.345
-1138.91
-231.86
-1167.83
-239.865
-1199.11
-249.117
-1231.41
-261.568
-1261.63
-280.692
-1284.57
-310.842
-1293.95
-355.373
-1284.88
-414.366
-1256.75
-483.581
-1214.47
-555.549
-1167.22
-622.124
-1125.6
-677.004
-1098.67
-717.045
-1091.76
-742.081
-1105.82
-753.776
-1138.19
-754.355
-1184.36
-745.799
-1239.46
-729.589
-1298.93
-706.749
-1358.53
-677.957
-1413.91
-643.56
-1459.93
-603.628
-1489.74
-558.94
-1495.51
-513.21
-1476.05
-465.476
-1439.12
-370.425
-1256.31
-166.386
-323.26
-65.2424
984.226
-74.1163
1595.23
-79.5207
1849.97
-60.0009
2135.32
-36.6032
2466.27
-14.8517
2792.18
4.20446
3084.91
18.0365
3318.38
25.8869
3484.57
29.3781
3609.43
30.8909
3702.43
31.9207
3759.09
33.3027
3767.78
35.3605
3716.97
37.9816
3603.57
41.2401
3434.69
44.3206
3200.32
47.5478
2922.62
49.2502
2544.67
50.9502
2191.44
50.0636
1628.6
50.4389
1453.04
44.7305
402.824
49.7089
1035.54
35.6273
98.2198
24.6063
-702.115
3175.24
-144.877
-481.646
-144.927
-549.139
-145.611
-584.317
-146.577
-623.141
-147.937
-657.961
-149.567
-691.103
-151.49
-722.032
-153.665
-751.323
-156.094
-778.919
-158.766
-805.124
-161.679
-830.013
-164.832
-853.802
-168.226
-876.628
-171.857
-898.678
-175.722
-920.107
-179.815
-941.064
-184.129
-961.651
-188.67
-981.918
-193.468
-1001.86
-198.592
-1021.5
-204.139
-1041.03
-210.185
-1061.03
-216.747
-1082.32
-223.786
-1105.63
-231.239
-1131.45
-239.161
-1159.9
-248.1
-1190.17
-259.729
-1219.78
-277.375
-1243.98
-305.677
-1256.27
-348.748
-1250.88
-407.496
-1226.13
-478.058
-1186.19
-552.751
-1139.78
-622.919
-1097.05
-681.739
-1066.78
-725.632
-1054.77
-754.133
-1063.26
-768.81
-1091.14
-771.985
-1135.01
-765.84
-1190.5
-752.042
-1253.26
-731.751
-1319.22
-705.752
-1384.53
-674.594
-1445.07
-638.62
-1495.91
-598.01
-1530.35
-553.467
-1540.05
-508.211
-1521.3
-463.82
-1483.51
-384.076
-1336.06
-182.641
-524.695
-52.7993
854.384
-48.0628
1590.5
-62.7826
1864.69
-52.1479
2124.68
-31.0078
2445.13
-11.4477
2772.62
5.15472
3068.3
16.8263
3306.7
22.771
3478.63
24.8433
3607.36
25.5113
3701.77
26.2254
3758.37
27.7838
3766.22
30.3688
3714.39
33.7613
3600.18
37.9238
3430.52
41.9371
3196.31
46.0959
2918.46
48.6665
2542.1
51.1593
2188.95
50.9009
1628.86
51.6924
1452.25
45.9181
408.598
50.2602
1031.2
36.2496
112.23
24.3402
-690.206
3165.17
-148.998
-482.143
-149.064
-549.072
-149.762
-583.619
-150.754
-622.149
-152.149
-656.566
-153.823
-689.43
-155.798
-720.057
-158.033
-749.087
-160.531
-776.421
-163.279
-802.376
-166.279
-827.013
-169.528
-850.553
-173.027
-873.129
-176.774
-894.931
-180.765
-916.116
-184.992
-936.837
-189.447
-957.196
-194.135
-977.23
-199.089
-996.906
-204.386
-1016.2
-210.136
-1035.28
-216.422
-1054.74
-223.244
-1075.5
-230.552
-1098.32
-238.343
-1123.66
-246.973
-1151.27
-257.804
-1179.34
-273.918
-1203.67
-300.14
-1217.76
-341.39
-1215.02
-399.632
-1192.64
-471.542
-1154.22
-549.124
-1108.61
-622.947
-1065.95
-685.524
-1034.47
-732.929
-1019.38
-764.56
-1023.14
-781.956
-1045.86
-787.51
-1085.59
-783.551
-1138.97
-771.915
-1202.14
-753.889
-1271.28
-730.343
-1342.77
-701.889
-1412.98
-669.013
-1477.94
-632.144
-1532.78
-591.691
-1570.8
-548.489
-1583.25
-505.371
-1564.42
-465.144
-1523.74
-398.386
-1402.81
-204.459
-718.622
-49.0294
698.955
-23.4488
1564.92
-41.2162
1882.45
-41.3132
2124.78
-24.4614
2428.28
-7.01775
2755.17
6.75515
3054.53
15.9111
3297.55
19.6238
3474.91
19.9706
3607.01
19.5791
3702.16
19.8415
3758.11
21.5175
3764.55
24.6421
3711.26
28.8604
3595.96
34.017
3425.37
39.0667
3191.26
44.27
2913.26
47.8145
2538.55
51.2147
2185.55
51.6603
1628.41
52.9486
1450.96
47.1934
414.353
50.9579
1027.43
38.5084
124.68
25.1873
-676.885
3164.2
-153.16
-482.616
-153.253
-548.979
-153.974
-582.898
-155
-621.124
-156.436
-655.129
-158.161
-687.705
-160.194
-718.024
-162.496
-746.785
-165.068
-773.849
-167.899
-799.544
-170.991
-823.922
-174.341
-847.202
-177.952
-869.518
-181.822
-891.062
-185.945
-911.992
-190.313
-932.469
-194.917
-952.592
-199.758
-972.389
-204.873
-991.791
-210.348
-1010.72
-216.306
-1029.32
-222.828
-1048.22
-229.9
-1068.42
-237.493
-1090.73
-245.808
-1115.35
-255.875
-1141.21
-270.428
-1164.79
-294.317
-1179.78
-333.252
-1178.83
-390.505
-1157.77
-463.643
-1119.5
-544.413
-1073.45
-622.289
-1030.73
-688.759
-999.482
-739.46
-983.77
-773.813
-985.024
-793.525
-1003.43
-801.136
-1038.25
-799.106
-1087.62
-789.388
-1148.69
-773.376
-1218.15
-752.009
-1292.65
-725.936
-1368.84
-695.675
-1443.24
-661.752
-1511.87
-624.801
-1569.73
-585.593
-1610.01
-545.233
-1623.61
-506.226
-1603.43
-471.615
-1558.35
-416.852
-1457.58
-233.719
-901.756
-53.5219
518.758
-3.50123
1514.9
-16.534
1895.49
-26.1691
2134.41
-16.598
2418.71
-1.53855
2740.11
9.2207
3043.77
15.4261
3291.34
16.5467
3473.79
14.8326
3608.72
13.1359
3703.85
12.7931
3758.45
14.5096
3762.83
18.1731
3707.6
23.263
3590.87
29.495
3419.14
35.6807
3185.07
42.0385
2906.9
46.6627
2533.93
51.0886
2181.12
52.3211
1627.18
54.1921
1449.09
48.5497
419.996
51.7847
1024.2
41.0328
135.432
26.6576
-662.51
3167.15
-157.369
-483.054
-157.499
-548.848
-158.252
-582.145
-159.32
-620.056
-160.804
-653.645
-162.586
-685.924
-164.684
-715.926
-167.059
-744.411
-169.711
-771.196
-172.631
-796.624
-175.82
-820.733
-179.279
-843.744
-183.008
-865.789
-187.007
-887.063
-191.27
-907.729
-195.788
-927.951
-200.547
-947.833
-205.549
-967.387
-210.83
-986.51
-216.487
-1005.07
-222.65
-1023.16
-229.398
-1041.47
-236.714
-1061.11
-244.69
-1082.75
-254.043
-1105.99
-267.057
-1128.19
-288.402
-1143.44
-324.441
-1143.74
-379.965
-1123.3
-453.923
-1083.81
-538.112
-1035.31
-620.695
-990.868
-691.62
-959.804
-745.738
-945.364
-782.51
-946.998
-804.039
-963.496
-813.229
-994.239
-812.749
-1038.73
-804.657
-1095.71
-790.403
-1162.94
-770.964
-1237.59
-747.005
-1316.61
-719.047
-1396.8
-687.618
-1474.67
-653.427
-1546.06
-617.466
-1605.69
-580.963
-1646.51
-545.296
-1659.28
-512.516
-1636.21
-485.048
-1585.82
-442.182
-1500.44
-276.226
-1067.71
-68.9762
311.508
8.95498
1436.96
8.35889
1896.08
-5.819
2148.59
-6.24995
2419.14
5.00247
2728.86
12.728
3036.05
15.5362
3288.53
13.6539
3475.68
9.51099
3612.87
6.22759
3707.14
5.10694
3759.57
6.76978
3761.17
10.9577
3703.41
16.9574
3584.87
24.3371
3411.76
31.7539
3177.65
39.3728
2899.28
45.1818
2528.12
50.7547
2175.55
52.8628
1625.07
55.4108
1446.54
49.9703
425.436
52.7266
1021.44
41.9007
146.258
26.6
-647.209
3161.89
-161.63
-483.447
-161.807
-548.671
-162.6
-581.352
-163.717
-618.939
-165.258
-652.104
-167.104
-684.078
-169.273
-713.757
-171.727
-741.957
-174.466
-768.457
-177.481
-793.609
-180.774
-817.439
-184.347
-840.171
-188.202
-861.934
-192.337
-882.927
-196.749
-903.317
-201.424
-923.276
-206.347
-942.909
-211.517
-962.218
-216.969
-981.057
-222.807
-999.231
-229.167
-1016.8
-236.124
-1034.51
-243.719
-1053.51
-252.407
-1074.07
-263.968
-1094.43
-282.658
-1109.5
-315.23
-1110.87
-368.064
-1090.91
-442.045
-1049.32
-529.595
-996.257
-617.593
-947.315
-693.92
-914.541
-752.057
-901.667
-791.275
-906.146
-814.203
-924.07
-824.38
-953.319
-824.898
-993.72
-818.004
-1045.63
-805.189
-1108.52
-787.417
-1180.71
-765.331
-1259.68
-739.42
-1342.52
-710.183
-1426.04
-678.313
-1506.54
-644.873
-1579.5
-611.357
-1639.2
-579.463
-1678.41
-550.622
-1688.12
-526.032
-1660.8
-506.755
-1605.09
-475.61
-1531.59
-337.88
-1205.44
-100.702
74.3296
12.2972
1323.97
29.66
1878.72
18.8865
2159.37
8.45681
2429.57
12.9673
2724.35
17.337
3031.68
16.4151
3289.46
11.0771
3481.01
4.09687
3619.85
-1.09327
3712.33
-3.1881
3761.67
-1.68787
3759.67
2.99629
3698.73
9.93721
3577.93
18.5282
3403.16
27.2653
3168.92
36.2484
2890.3
43.3451
2521.02
50.1888
2168.7
53.2658
1622
56.5933
1443.22
51.4534
430.576
53.7408
1019.15
42.5369
157.462
25.7566
-630.429
3151.18
-165.95
-483.786
-166.182
-548.439
-167.024
-580.51
-168.199
-617.763
-169.803
-650.5
-171.72
-682.161
-173.967
-711.509
-176.507
-739.418
-179.339
-765.625
-182.456
-790.493
-185.86
-814.035
-189.554
-836.478
-193.54
-857.947
-197.821
-878.647
-202.389
-898.749
-207.23
-918.434
-212.327
-937.812
-217.672
-956.873
-223.299
-975.43
-229.311
-993.219
-235.848
-1010.26
-243.011
-1027.35
-251.067
-1045.46
-261.307
-1063.83
-277.371
-1078.37
-306.022
-1080.85
-355.088
-1061.8
-427.884
-1018.11
-518.28
-958.924
-612.21
-902.327
-695.086
-864.439
-758.322
-851.305
-800.52
-859.469
-824.757
-881.909
-835.401
-913.425
-836.243
-952.477
-829.927
-1000.04
-818.075
-1057.48
-801.627
-1124.97
-781.148
-1201.19
-757.048
-1283.78
-729.757
-1369.81
-699.907
-1455.89
-668.54
-1537.9
-637.259
-1610.78
-608.133
-1668.33
-583.151
-1703.39
-563.297
-1707.97
-548.271
-1675.83
-537.243
-1616.12
-516.213
-1552.62
-407.823
-1313.83
-149.548
-183.945
7.19401
1167.22
44.5671
1841.35
44.7232
2159.21
28.5868
2445.71
23.4437
2729.49
23.1178
3032
18.2094
3294.36
8.96291
3490.26
-1.3042
3630.11
-8.76096
3719.79
-12.0574
3764.96
-10.8478
3758.46
-5.71147
3693.59
2.19776
3570.02
12.059
3393.3
22.1986
3158.78
32.6447
2879.85
41.1285
2512.54
49.3677
2160.46
53.5105
1617.85
57.7298
1439
53.0046
435.301
54.806
1017.35
44.1074
168.16
26.0528
-612.374
3141.73
-170.333
-484.061
-170.628
-548.144
-171.528
-579.611
-172.769
-616.522
-174.444
-648.825
-176.44
-680.165
-178.772
-709.177
-181.404
-736.786
-184.336
-762.693
-187.561
-787.268
-191.083
-810.513
-194.905
-832.655
-199.032
-853.82
-203.465
-874.214
-208.199
-894.016
-213.217
-913.416
-218.497
-932.533
-224.023
-951.346
-229.823
-969.63
-235.992
-987.05
-242.683
-1003.57
-250.13
-1019.9
-259.197
-1036.39
-272.798
-1050.23
-297.282
-1053.88
-341.534
-1036.6
-411.598
-991.74
-503.761
-925.95
-603.735
-858.95
-694.274
-811.787
-764.005
-794.708
-810.235
-805.075
-836.207
-833.498
-847.139
-870.977
-847.718
-912.846
-841.237
-958.959
-829.661
-1011.61
-814.006
-1073.13
-794.762
-1144.22
-772.203
-1223.75
-746.628
-1309.35
-718.556
-1397.88
-688.947
-1485.5
-659.408
-1567.44
-632.218
-1637.97
-609.921
-1690.63
-594.324
-1718.99
-585.197
-1717.1
-580.032
-1680.99
-575.907
-1620.25
-561.887
-1566.64
-472.557
-1403.16
-202.587
-453.914
-4.77609
969.412
52.7146
1783.85
67.7194
2144.2
53.1799
2460.25
37.8944
2744.78
30.451
3039.45
21.0364
3303.78
7.46324
3503.83
-6.57169
3644.15
-16.7022
3729.92
-21.4635
3769.73
-20.6903
3757.69
-15.1636
3688.07
-6.26751
3561.13
4.92338
3382.11
16.5431
3147.16
28.5456
2867.85
38.5117
2502.57
48.2704
2150.71
53.5777
1612.55
58.8112
1433.76
54.6155
439.497
55.9994
1015.97
45.8942
178.265
26.6264
-593.106
3131.93
-174.786
-484.263
-175.153
-547.777
-176.119
-578.644
-177.434
-615.207
-179.188
-647.072
-181.27
-678.083
-183.695
-706.752
-186.427
-734.055
-189.466
-759.654
-192.806
-783.927
-196.452
-806.867
-200.41
-828.698
-204.685
-849.546
-209.28
-869.619
-214.189
-889.107
-219.394
-908.211
-224.867
-927.06
-230.581
-945.633
-236.544
-963.668
-242.841
-980.753
-249.695
-996.718
-257.742
-1011.86
-269.14
-1024.99
-289.467
-1029.9
-328.061
-1015.29
-393.645
-971.016
-485.908
-899.477
-591.459
-820.399
-690.538
-759.871
-768.269
-734.056
-819.943
-743.034
-848.593
-776.425
-860.165
-821.926
-860.274
-870.868
-853.011
-920.108
-840.907
-971.062
-825.286
-1027.23
-806.683
-1091.74
-785.256
-1165.65
-761.113
-1247.89
-734.589
-1335.88
-706.489
-1425.98
-678.338
-1513.65
-652.497
-1593.28
-631.906
-1658.56
-619.187
-1703.34
-615.163
-1723.01
-617.502
-1714.76
-621.066
-1677.43
-621.188
-1620.12
-610.616
-1577.21
-534.84
-1478.94
-260.138
-728.616
-23.0466
732.32
55.7166
1705.09
85.1913
2114.73
79.4211
2466.02
57.1145
2767.09
40.183
3056.38
25.0678
3318.89
6.72305
3522.18
-11.5753
3662.45
-24.8352
3743.18
-31.3639
3776.25
-31.1929
3757.52
-25.3522
3682.23
-15.4605
3551.23
-2.88519
3369.54
10.2899
3133.98
23.9397
2854.2
35.4775
2491.03
46.8781
2139.31
53.4487
1605.97
59.8277
1427.38
56.2682
443.056
57.3337
1014.9
47.694
187.905
27.158
-572.57
3123.48
-179.314
-484.384
-179.76
-547.331
-180.802
-577.602
-182.2
-613.809
-184.041
-645.231
-186.217
-675.907
-188.742
-704.227
-191.58
-731.216
-194.734
-756.5
-198.196
-780.464
-201.975
-803.088
-206.077
-824.596
-210.508
-845.114
-215.274
-864.853
-220.369
-884.012
-225.773
-902.807
-231.448
-921.384
-237.349
-939.733
-243.452
-957.565
-249.853
-974.351
-257.018
-989.553
-266.543
-1002.33
-282.966
-1008.57
-315.396
-997.47
-374.763
-955.923
-464.919
-880.86
-574.873
-789.523
-682.957
-712.315
-770.151
-672.678
-828.844
-675.363
-861.438
-710.44
-874.501
-763.363
-874.501
-821.925
-866.295
-879.074
-853.054
-933.35
-836.608
-987.509
-817.801
-1046.04
-796.836
-1112.7
-773.67
-1188.81
-748.389
-1273.17
-721.555
-1362.71
-694.508
-1453.03
-669.576
-1538.58
-649.951
-1612.91
-638.927
-1669.59
-638.41
-1703.86
-647.208
-1714.21
-660.228
-1701.74
-669.922
-1667.73
-670.817
-1619.23
-660.026
-1588
-595.83
-1543.13
-328.317
-996.128
-49.6717
453.674
55.9082
1599.51
96.6815
2073.96
103.97
2458.73
80.4292
2790.63
53.3159
3083.49
30.6628
3341.55
6.89319
3545.95
-16.1791
3685.52
-33.071
3760.07
-41.7119
3784.89
-42.3305
3758.13
-36.2645
3676.16
-25.3792
3540.35
-11.3708
3355.53
3.43387
3119.18
18.8199
2838.81
32.0136
2477.84
45.175
2126.14
53.1064
1598.04
60.7693
1419.72
57.9478
445.878
58.7446
1014.11
49.8812
196.769
28.2607
-550.95
3115.23
-183.923
-484.416
-184.457
-546.797
-185.584
-576.475
-187.073
-612.321
-189.009
-643.295
-191.287
-673.629
-193.92
-701.594
-196.873
-728.263
-200.148
-753.226
-203.741
-776.871
-207.66
-799.169
-211.913
-820.343
-216.51
-840.517
-221.457
-859.906
-226.749
-878.72
-232.364
-897.192
-238.249
-915.499
-244.325
-933.657
-250.537
-951.353
-257.083
-967.804
-265.079
-981.558
-278.073
-989.338
-304.252
-982.387
-355.916
-945.806
-441.366
-870.473
-553.733
-768.493
-670.704
-672.551
-768.677
-614.342
-836.03
-605.325
-873.948
-637.445
-889.592
-694.796
-890.326
-762.629
-881.641
-830.61
-867.21
-893.506
-849.367
-951.192
-829.451
-1007.43
-808.011
-1067.48
-785.065
-1135.65
-760.514
-1213.36
-734.607
-1299.08
-708.384
-1388.94
-684
-1477.41
-664.749
-1557.83
-654.461
-1623.2
-656.04
-1668.01
-669.53
-1690.37
-690.793
-1692.95
-711.967
-1680.57
-724.119
-1655.58
-722.238
-1621.11
-707.859
-1602.38
-654.445
-1596.55
-417.437
-1233.14
-93.8891
130.126
54.3285
1451.29
103.478
2024.81
124.434
2437.77
105.794
2809.27
70.3626
3118.92
38.4174
3373.49
8.17353
3576.19
-20.2492
3713.94
-41.315
3781.13
-52.4564
3796.04
-54.0767
3759.75
-47.8848
3669.97
-36.0172
3528.48
-20.5371
3340.05
-4.03328
3102.67
13.1816
2821.6
28.1142
2462.91
43.1486
2111.11
52.5352
1588.66
61.6273
1410.63
59.6434
447.862
60.2393
1013.51
52.4772
204.531
29.365
-527.838
3104.88
-188.621
-484.35
-189.251
-546.167
-190.471
-575.255
-192.059