/*--------------------------------*- C++ -*----------------------------------*\
| =========                 |                                                 |
| \\      /  F ield         | OpenFOAM: The Open Source CFD Toolbox           |
|  \\    /   O peration     | Version:  4.1                                   |
|   \\  /    A nd           | Web:      www.OpenFOAM.org                      |
|    \\/     M anipulation  |                                                 |
\*---------------------------------------------------------------------------*/
FoamFile
{
    version     2.0;
    format      ascii;
    class       volScalarField;
    location    "1";
    object      p;
}
// * * * * * * * * * * * * * * * * * * * * * * * * * * * * * * * * * * * * * //

dimensions      [0 2 -2 0 0 0 0];

internalField   nonuniform List<scalar> 
6785
(
462.613
390.902
340.952
289.696
242.928
198.747
157.323
118.283
81.5051
46.6262
12.8099
-18.9286
-45.9872
-76.9677
-113.767
-119.071
-137.568
-131.442
-137.202
-139.215
-142.162
-144.307
-145.831
-146.463
-146.089
-144.763
-142.342
-138.043
-133.605
-131.271
-143.615
-149.426
-139.47
-142.442
-138.873
-138.251
-136.695
-135.669
-134.628
-133.775
-133.096
-132.581
-132.238
-131.367
-129.376
-101.272
-104.396
-98.7826
-103.286
-101.14
-102.531
-102.616
-102.926
-103.032
-102.93
-102.672
-102.259
-101.502
-100.26
-97.0883
-88.4747
-89.7007
-84.4669
-86.858
-83.3322
-82.6573
-80.8812
-79.069
-77.2698
-75.3305
-73.3133
-71.3542
-69.3058
-67.5883
-65.5878
-71.0747
-70.6235
-66.5575
-67.9652
-65.0968
-64.514
-63.2326
-62.0291
-61.0421
-60.0374
-59.0414
-58.1741
-57.3176
-56.6629
-55.5645
-56.1677
-55.6709
-53.3708
-54.8348
-52.827
-53.137
-52.5057
-52.0997
-51.8227
-51.4417
-51.0263
-50.6323
-50.2395
-49.8475
-49.1359
-49.2363
-49.5917
-48.1585
-49.498
-47.7313
-48.4448
-47.8028
-47.5734
-47.3609
-47.0083
-46.6479
-46.2802
-45.9705
-45.5722
-45.0094
-46.4112
-47.3218
-45.9449
-47.0845
-45.4278
-46.0387
-45.3147
-45.0342
-44.7571
-44.3477
-43.9854
-43.6039
-43.3374
-42.9357
-42.4204
-44.3211
-45.2583
-43.4277
-44.4153
-42.9521
-43.1832
-42.5132
-42.1123
-41.7882
-41.3071
-40.9393
-40.4947
-40.2313
-39.7827
-39.2142
-40.5872
-41.3156
-39.1449
-40.1346
-38.9212
-38.8558
-38.3263
-37.8711
-37.5849
-37.0731
-36.769
-36.2792
-36.0681
-35.5976
-35.0279
-36.899
-37.419
-35.2104
-36.206
-35.188
-35.0273
-34.6102
-34.157
-33.9439
-33.4064
-33.1979
-32.6474
-32.5208
-32.0027
-31.4765
-31.6158
-32.0389
-29.9928
-31.0272
-30.1859
-30.1098
-29.777
-29.3998
-29.291
-28.7469
-28.7006
-28.0893
-28.1294
-27.5739
-27.1627
-30.7067
-31.6312
-30.2115
-31.2385
-30.4163
-30.5068
-30.1575
-29.738
-29.63
-28.8031
-28.691
-27.7468
-27.5055
-26.7091
-25.7271
-28.9889
-29.0359
-25.1875
-25.4639
-23.4056
-22.5526
-20.6867
-19.1258
-17.5338
-15.635
-14.513
-12.8116
-12.5311
-11.2508
-11.2237
2.83454
2.8641
2.76943
2.71823
2.69098
2.59026
2.52114
2.49957
2.50168
2.43254
2.38388
2.43828
2.39753
2.31381
2.32512
2.37996
2.31441
2.24524
2.35034
2.29715
2.15943
2.16765
2.27116
2.22446
2.03768
2.04897
2.15901
2.03546
1.86727
2.05983
1.96173
1.65056
1.64187
1.79932
1.60562
1.30025
1.57751
1.44127
0.895795
0.817865
1.06853
0.95825
0.224405
0.123564
0.367699
0.0374938
-0.737669
-0.297137
-0.481203
-1.72338
-2.03385
-1.65517
-1.76685
-3.43273
-3.83111
-3.47345
-3.91351
-5.87529
-5.24005
-5.35741
-8.1621
-8.99839
-8.53004
-8.93527
-12.5139
-11.6878
-11.5809
-16.265
-17.9008
-17.2878
-16.8748
-22.9924
-24.9375
-24.296
-24.0338
-32.7507
-30.7113
-29.5434
-43.9177
-37.7861
-33.8498
-34.689
-35.6227
-43.6854
-34.3609
-33.7723
-34.1779
-34.8475
-35.2897
-35.9693
-37.254
-38.8362
-42.8482
-37.8044
-37.8603
-37.1666
-37.0352
-37.2735
-37.2821
-37.4099
-38.8919
-45.9872
-38.9632
-38.4375
-37.7648
-37.2265
-36.6494
-36.4547
-36.3088
-36.2733
-37.4684
-44.3577
-37.9238
-37.1388
-36.2839
-35.6805
-35.0989
-34.5542
-34.2816
-35.5417
-43.0754
-35.8997
-34.6382
-33.3669
-32.3452
-31.5064
-30.5955
-29.6399
-30.8238
-38.998
-31.3873
-29.6598
-28.1583
-26.8862
-25.6492
-24.3551
-23.217
-24.1904
-30.3155
-23.5051
-21.7174
-19.9935
-18.3618
-17.3951
-16.516
-15.5939
-15.0578
-16.7721
-24.8049
-15.398
-14.3789
-14.2737
-13.9702
-15.2979
-17.4156
-17.0448
-17.2027
-21.648
-20.3521
-23.5487
-26.1575
-22.7134
-30.6057
-26.5161
-29.2088
-23.3904
-21.0813
-25.9549
-20.2146
-18.3107
-20.7098
-18.0589
-18.1271
-15.2226
-13.6919
-14.2882
-12.7996
-12.7079
-11.6987
-11.5425
-12.4239
-12.4303
-12.4317
-13.1147
-13.6154
-13.2886
-13.3509
-13.3034
-12.838
-13.8119
-13.3301
-12.9242
-12.6715
-10.7226
-11.8401
-12.4951
-8.95486
-10.8213
-11.1558
-10.0472
-9.99715
-5.57274
-8.01137
-8.87533
-7.72044
-8.08827
-2.95784
-4.84755
-7.60599
-1.36623
-3.66531
-5.37127
-4.41189
-5.49183
0.37972
-2.10728
-3.78275
-2.98395
-4.51541
0.790429
-1.09109
-4.6353
1.33022
-0.890455
-2.44373
-1.06624
-2.70915
2.32065
-0.749923
-2.53489
-0.887681
-2.43453
2.39979
-0.155671
-4.06546
2.5759
-0.491832
-2.51344
-1.38047
-2.4691
2.11643e-06
5.3547e-06
9.49757e-06
1.36735e-05
1.85812e-05
2.3867e-05
2.97726e-05
3.6216e-05
4.33103e-05
5.10622e-05
5.95614e-05
6.88603e-05
7.90464e-05
9.0206e-05
0.00010244
0.000115861
0.000130594
0.000146776
0.000164562
0.000184121
0.00020564
0.000229326
0.000255408
0.000284135
0.000315787
0.000350666
0.000389109
0.000431485
0.0004782
0.0005297
0.000586475
0.000649064
0.000718057
0.000794103
0.00087791
0.000970258
0.001072
0.00118405
0.00130744
0.00144327
0.00159273
0.00175713
0.00193788
0.0021365
0.0023546
0.00259394
0.00285634
0.00314375
0.00345816
0.00380161
0.00417613
0.00458363
0.00502581
0.00550398
0.00601877
0.00656981
0.00715513
0.00777039
0.00840783
0.00905464
0.00969092
0.0102867
0.0107984
0.0111638
0.0112968
0.0110821
0.01037
0.00897614
0.00669066
0.00327982
-0.0013243
-0.00753283
-0.014356
-0.0220635
-0.029602
-0.033435
-0.0312476
-0.108947
0.0546172
6.21478e-06
1.5959e-05
2.84281e-05
4.10501e-05
5.57678e-05
7.1639e-05
8.93204e-05
0.000108613
0.000129833
0.000153016
0.000178425
0.00020622
0.000236662
0.000270011
0.000306568
0.00034667
0.000390687
0.000439035
0.00049217
0.000550599
0.000614881
0.000685632
0.000763533
0.000849332
0.000943855
0.00104801
0.0011628
0.00128931
0.00142877
0.00158249
0.00175194
0.00193871
0.00214457
0.00237144
0.00262142
0.00289683
0.00320019
0.00353426
0.00390204
0.0043068
0.0047521
0.00524178
0.00578001
0.00637128
0.00702038
0.00773244
0.00851289
0.00936742
0.0103019
0.0113223
0.0124347
0.0136445
0.0149568
0.0163755
0.0179025
0.0195366
0.0212722
0.0230969
0.0249881
0.0269089
0.0288018
0.0305803
0.0321179
0.0332351
0.0336824
0.0331243
0.031125
0.0271441
0.0205599
0.0106748
-0.00276099
-0.0209721
-0.0412364
-0.0644012
-0.0878566
-0.100049
-0.101844
-0.149292
0.0754537
9.90469e-06
2.60006e-05
4.69925e-05
6.81587e-05
9.27983e-05
0.00011935
0.000148908
0.000181148
0.000216598
0.00025532
0.00029775
0.000344163
0.000394991
0.000450668
0.000511699
0.000578645
0.000652126
0.000732834
0.000821533
0.000919067
0.00102637
0.00114447
0.00127451
0.00141773
0.0015755
0.00174936
0.00194096
0.00215214
0.00238492
0.00264151
0.00292435
0.00323611
0.00357973
0.00395841
0.00437567
0.00483538
0.00534174
0.00589935
0.00651323
0.00718883
0.0079321
0.00874945
0.00964784
0.0106347
0.0117182
0.0129067
0.0142094
0.0156358
0.0171956
0.0188988
0.0207555
0.022775
0.0249655
0.0273337
0.0298826
0.0326105
0.035508
0.0385543
0.041712
0.0449194
0.0480806
0.0510511
0.0536199
0.0554866
0.056234
0.0552999
0.0519528
0.0452848
0.0342461
0.0176635
-0.00492675
-0.0355315
-0.0697558
-0.109205
-0.149398
-0.171635
-0.181265
-0.205229
-0.103645
1.34979e-05
3.59745e-05
6.5472e-05
9.52337e-05
0.0001298
0.00016705
0.00020848
0.000253661
0.000303322
0.00035756
0.000416983
0.000481977
0.000553149
0.000631107
0.000716559
0.000810289
0.000913167
0.00102616
0.00115034
0.00128689
0.00143711
0.00160245
0.00178449
0.00198498
0.00220586
0.00244924
0.00271745
0.00301307
0.00333892
0.0036981
0.004094
0.00453039
0.00501134
0.00554137
0.00612539
0.00676879
0.00747747
0.00825786
0.00911697
0.0100624
0.0111026
0.0122463
0.0135034
0.0148843
0.0164002
0.0180631
0.0198857
0.0218811
0.0240632
0.0264459
0.0290431
0.0318679
0.0349321
0.0382446
0.0418101
0.0456262
0.0496799
0.0539426
0.0583624
0.0628539
0.0672837
0.0714512
0.0750629
0.0777004
0.078782
0.0775224
0.0728969
0.0636299
0.048238
0.0250618
-0.00662465
-0.0496137
-0.0980337
-0.154341
-0.21219
-0.24611
-0.267284
-0.288197
-0.302119
1.69115e-05
4.57659e-05
8.37981e-05
0.000122214
0.000166742
0.000214729
0.000268055
0.000326202
0.000390089
0.000459857
0.000536282
0.000619865
0.000711386
0.000811628
0.000921503
0.00104202
0.00117429
0.00131957
0.00147923
0.00165479
0.00184793
0.0020605
0.00229454
0.0025523
0.00283627
0.00314916
0.00349398
0.00387402
0.00429292
0.00475466
0.00526361
0.00582458
0.00644284
0.00712417
0.00787489
0.00870192
0.00961285
0.0106159
0.0117201
0.0129353
0.0142721
0.0157421
0.0173577
0.0191324
0.0210805
0.0232174
0.0255595
0.0281236
0.0309275
0.0339891
0.0373263
0.040956
0.0448933
0.0491498
0.0537317
0.0586361
0.0638469
0.0693277
0.0750126
0.0807932
0.0864996
0.0918761
0.0965482
0.099981
0.10143
0.0998864
0.0940327
0.0822207
0.0625217
0.0327743
-0.00806105
-0.0635713
-0.126585
-0.200513
-0.277074
-0.324722
-0.359706
-0.361766
-0.469579
2.02225e-05
5.54862e-05
0.000102036
0.000149149
0.00020365
0.000262395
0.000327621
0.000398735
0.000476843
0.000562131
0.000655541
0.000757693
0.000869538
0.000992035
0.0011263
0.00127356
0.00143519
0.00161271
0.00180779
0.00202231
0.0022583
0.00251803
0.00280399
0.00311894
0.00346589
0.00384818
0.00426948
0.00473381
0.0052456
0.00580973
0.00643152
0.00711686
0.00787218
0.00870452
0.00962163
0.0106319
0.0117447
0.01297
0.0143188
0.0158032
0.017436
0.0192315
0.0212047
0.0233722
0.0257515
0.0283613
0.0312215
0.0343528
0.0377769
0.0415157
0.045591
0.0500235
0.0548317
0.0600301
0.0656263
0.0716174
0.0779841
0.084683
0.0916348
0.0987088
0.1057
0.112299
0.118053
0.122313
0.124174
0.122406
0.115399
0.101129
0.0772102
0.0409598
-0.00903144
-0.0771701
-0.155176
-0.247515
-0.343987
-0.407301
-0.4563
-0.477188
-0.631209
2.34348e-05
6.51449e-05
0.000120195
0.000176041
0.000240526
0.000310047
0.000387177
0.00047126
0.000563581
0.000664378
0.000774755
0.000895454
0.0010276
0.00117232
0.00133094
0.00150491
0.00169585
0.00190555
0.00213601
0.00238941
0.00266819
0.002975
0.0033128
0.00368484
0.00409468
0.00454626
0.00504391
0.00559239
0.00619692
0.00686325
0.00759769
0.00840718
0.0092993
0.0102824
0.0113656
0.0125588
0.013873
0.0153201
0.016913
0.018666
0.0205942
0.0227145
0.0250446
0.0276041
0.0304135
0.0334951
0.0368722
0.0405695
0.0446124
0.0490268
0.0538385
0.0590721
0.0647496
0.0708883
0.0774976
0.0845745
0.0920972
0.100015
0.108238
0.116612
0.124899
0.132739
0.139602
0.144727
0.147051
0.145129
0.137055
0.120425
0.0923848
0.0497063
-0.00945049
-0.0903488
-0.183794
-0.295411
-0.413136
-0.494139
-0.558826
-0.554061
-0.614686
2.65758e-05
7.47784e-05
0.0001383
0.000202909
0.00027738
0.000357687
0.000446717
0.000543763
0.000650279
0.000766565
0.000893881
0.00103309
0.00118549
0.0013524
0.00153532
0.00173594
0.00195613
0.00219796
0.00246371
0.00275593
0.00307739
0.00343119
0.00382072
0.00424973
0.00472232
0.00524304
0.00581687
0.0064493
0.00714636
0.00791468
0.00876151
0.00969486
0.0107235
0.011857
0.0131058
0.0144815
0.0159967
0.017665
0.0195014
0.0215223
0.0237452
0.0261894
0.0288754
0.0318258
0.0350642
0.0386163
0.042509
0.0467706
0.0514305
0.0565188
0.062065
0.0680978
0.0746426
0.0817198
0.0893406
0.0975025
0.106181
0.115321
0.124818
0.1345
0.144096
0.153198
0.1612
0.167234
0.170085
0.16809
0.159051
0.14018
0.108137
0.0591271
-0.00918814
-0.102978
-0.212333
-0.344157
-0.484627
-0.585835
-0.669874
-0.6585
-0.899913
2.9659e-05
8.44045e-05
0.000156367
0.000229763
0.000314216
0.000405315
0.000506235
0.000616231
0.000736921
0.000868668
0.00101289
0.00117058
0.00134319
0.00153222
0.00173939
0.00196659
0.00221596
0.00248983
0.00279079
0.00312172
0.00348577
0.00388643
0.00432756
0.00481339
0.00534857
0.00593825
0.00658807
0.00730425
0.0080936
0.00896362
0.00992255
0.0109794
0.0121442
0.0134276
0.0148417
0.0163994
0.0181149
0.0200039
0.0220831
0.0243711
0.0268878
0.0296549
0.0326958
0.0360359
0.039702
0.0437231
0.0481298
0.052954
0.0582292
0.0639893
0.070268
0.0770978
0.0845079
0.0925217
0.101153
0.110399
0.120234
0.130597
0.141373
0.152372
0.163294
0.17368
0.182856
0.189851
0.193298
0.191321
0.181433
0.160456
0.124551
0.0693241
-0.00812857
-0.114946
-0.240708
-0.393738
-0.558585
-0.682464
-0.787213
-0.827592
-1.11881
3.26993e-05
9.40406e-05
0.00017441
0.000256611
0.000351039
0.000452929
0.000565724
0.000688651
0.000823485
0.000970659
0.00113174
0.00130785
0.00150062
0.00171172
0.00194306
0.00219678
0.00247523
0.00278105
0.00311712
0.00348664
0.00389315
0.00434055
0.00483312
0.0053756
0.00597319
0.00663162
0.00735721
0.00815687
0.00903823
0.0100097
0.0110803
0.0122604
0.0135608
0.0149938
0.0165725
0.0183116
0.0202269
0.0223357
0.024657
0.0272112
0.0300207
0.0331097
0.0365044
0.0402328
0.0443252
0.0488138
0.0537327
0.0591177
0.0650062
0.0714359
0.0784449
0.0860696
0.0943429
0.103291
0.112931
0.12326
0.134253
0.145842
0.157904
0.170231
0.182494
0.194192
0.204583
0.212595
0.216715
0.214861
0.204255
0.181326
0.141721
0.0804154
-0.00613411
-0.126111
-0.268791
-0.444095
-0.635073
-0.784223
-0.913976
-0.958877
-1.04449
3.57079e-05
0.000103699
0.000192441
0.000283462
0.000387852
0.000500526
0.000625175
0.000761008
0.000909952
0.00107251
0.0012504
0.00144488
0.00165774
0.00189083
0.00214627
0.00242641
0.00273385
0.00307151
0.00344256
0.00385055
0.00429938
0.00479335
0.00533719
0.00593613
0.00659592
0.00732288
0.00812396
0.00900683
0.00997989
0.0110524
0.0122344
0.0135372
0.0149728
0.0165548
0.0182977
0.0202175
0.0223318
0.0246598
0.0272221
0.0300416
0.0331429
0.0365526
0.0402996
0.044415
0.0489321
0.0538864
0.0593157
0.0652595
0.071759
0.0788562
0.0865932
0.0950103
0.104144
0.114026
0.124672
0.136085
0.148235
0.161054
0.174408
0.188074
0.201698
0.214737
0.226386
0.235477
0.240357
0.238742
0.227563
0.202854
0.159734
0.0925125
-0.00307093
-0.13633
-0.296445
-0.495165
-0.714093
-0.891898
-1.05472
-1.06723
-1.29784
3.86947e-05
0.000113388
0.000210471
0.000310321
0.000424656
0.000548103
0.00068458
0.000833288
0.000996299
0.0011742
0.00136884
0.00158163
0.0018145
0.0020695
0.00234894
0.00265539
0.00299173
0.00336109
0.003767
0.00421331
0.0047043
0.00524465
0.00583957
0.00649476
0.00721651
0.00801173
0.00888803
0.00985378
0.0109182
0.0120913
0.0133843
0.0148093
0.0163797
0.01811
0.0200164
0.0221163
0.0244288
0.026975
0.0297775
0.0328612
0.036253
0.0399821
0.0440801
0.0485809
0.0535209
0.0589391
0.0648767
0.0713771
0.0784854
0.0862476
0.0947099
0.103917
0.11391
0.124721
0.136374
0.148868
0.162178
0.176229
0.190883
0.205901
0.220907
0.235319
0.248272
0.258511
0.264245
0.262993
0.251402
0.225107
0.178679
0.105732
0.00120415
-0.145445
-0.323506
-0.546853
-0.795598
-1.00596
-1.2062
-1.28756
-1.67923
4.16676e-05
0.000123116
0.000228508
0.000337191
0.000461451
0.000595654
0.000743927
0.000905475
0.00108251
0.00127568
0.00148702
0.00171803
0.00197084
0.00224765
0.002551
0.00288366
0.00324875
0.0036497
0.00409031
0.00457478
0.00510774
0.0056943
0.00634008
0.00705127
0.00783472
0.00869791
0.00964911
0.0106974
0.0118528
0.0131261
0.0145296
0.0160763
0.0177808
0.0196589
0.021728
0.0240072
0.0265171
0.0292805
0.0323222
0.0356689
0.03935
0.0433971
0.0478445
0.0527289
0.0580901
0.0639702
0.070414
0.0774686
0.0851831
0.0936077
0.102793
0.112787
0.123636
0.135376
0.148032
0.161609
0.176079
0.191367
0.207328
0.223712
0.240121
0.25594
0.27025
0.281709
0.288399
0.287647
0.27582
0.248151
0.19865
0.120198
0.00684732
-0.153279
-0.349783
-0.59903
-0.879498
-1.12656
-1.37135
-1.43409
-1.92281
4.46334e-05
0.000132886
0.000246557
0.000364077
0.000498237
0.000643173
0.000803208
0.000977551
0.00116855
0.00137694
0.0016049
0.00185406
0.00212671
0.00242524
0.00275237
0.00311112
0.00350483
0.00393721
0.00441237
0.00493482
0.00550956
0.00614209
0.00683849
0.00760544
0.00845029
0.00938114
0.0104069
0.0115373
0.0127832
0.0141564
0.0156698
0.0173376
0.0191756
0.0212008
0.0234319
0.0258894
0.0285958
0.0315755
0.0348551
0.0384636
0.0424326
0.0467962
0.0515913
0.0568576
0.0626379
0.0689776
0.0759253
0.0835316
0.0918497
0.100934
0.110839
0.121618
0.133319
0.145986
0.159644
0.174302
0.189934
0.206462
0.223739
0.241504
0.25934
0.276603
0.292323
0.305079
0.312835
0.31273
0.300858
0.272048
0.219734
0.136031
0.0140148
-0.159647
-0.37507
-0.651544
-0.965677
-1.25375
-1.54202
-1.66358
-2.57705
4.75974e-05
0.000142702
0.000264624
0.000390978
0.000535012
0.000690655
0.000862408
0.0010495
0.0012544
0.00147795
0.00172244
0.00198965
0.00228205
0.00260218
0.00295298
0.00333768
0.00375987
0.00422352
0.00473304
0.00529327
0.00590958
0.00658786
0.00733463
0.00815704
0.00906299
0.0100612
0.0111611
0.0123732
0.0137092
0.0151816
0.0168044
0.0185928
0.0205636
0.0227351
0.0251273
0.0277624
0.0306642
0.033859
0.0373753
0.0412443
0.0454997
0.0501781
0.0553191
0.0609653
0.0671626
0.0739598
0.0814087
0.0895642
0.098483
0.108224
0.118846
0.130406
0.142958
0.156548
0.171207
0.186946
0.20374
0.221514
0.240115
0.259276
0.278564
0.297308
0.314495
0.328633
0.33757
0.33827
0.326558
0.29686
0.242025
0.15336
0.0228775
-0.164339
-0.399129
-0.704207
-1.05399
-1.38683
-1.72142
-1.95152
-2.37356
5.0564e-05
0.000152566
0.000282712
0.000417894
0.000571772
0.000738091
0.000921517
0.0011213
0.00134004
0.00157867
0.0018396
0.00212478
0.00243681
0.00277843
0.00315276
0.00356327
0.00401377
0.00450852
0.00505221
0.00565002
0.00630766
0.00703143
0.00782829
0.00870586
0.00967257
0.0107377
0.0119114
0.0132048
0.0146303
0.0162015
0.017933
0.0198413
0.0219442
0.0242612
0.0268137
0.0296252
0.0327214
0.0361301
0.0398818
0.0440098
0.04855
0.0535415
0.0590266
0.0650506
0.0716626
0.0789147
0.0868624
0.095564
0.105081
0.115475
0.12681
0.139149
0.152548
0.167059
0.182717
0.199536
0.217494
0.236518
0.256452
0.277024
0.297791
0.318057
0.336771
0.352376
0.362617
0.36429
0.352958
0.322649
0.26561
0.172312
0.0336095
-0.167135
-0.421697
-0.756802
-1.14426
-1.52618
-1.91655
-2.11748
-2.55452
5.35369e-05
0.000162479
0.000300822
0.000444826
0.000608514
0.000785472
0.00098052
0.00119294
0.00142545
0.00167906
0.00195636
0.00225939
0.00259093
0.00295391
0.00335164
0.00378778
0.00426643
0.00479209
0.00536975
0.0060049
0.00670363
0.00747263
0.00831927
0.00925167
0.0102788
0.0114104
0.0126574
0.0140317
0.0155463
0.0172155
0.0190552
0.0210827
0.0233168
0.0257784
0.0284903
0.0314773
0.0347666
0.038388
0.0423737
0.0467591
0.0515825
0.0568852
0.0627123
0.069112
0.0761363
0.0838407
0.0922843
0.101529
0.11164
0.122685
0.134731
0.147844
0.162087
0.177516
0.194171
0.212069
0.231193
0.25147
0.272747
0.294747
0.317018
0.338848
0.359151
0.376315
0.387988
0.390811
0.380095
0.349472
0.290581
0.19302
0.0463948
-0.167795
-0.442478
-0.809071
-1.23631
-1.67216
-2.12109
-2.32585
-3.35626
5.65187e-05
0.000172441
0.000318958
0.000471771
0.000645232
0.00083279
0.0010394
0.00126439
0.00151059
0.00177911
0.00207265
0.00239343
0.00274436
0.00312856
0.00354952
0.00401115
0.00451776
0.00507413
0.00568553
0.00635779
0.00709734
0.00791127
0.00880738
0.00979426
0.0108814
0.0120791
0.013399
0.0148536
0.0164566
0.0182234
0.0201705
0.0223164
0.024681
0.0272863
0.0301564
0.0333178
0.0367991
0.0406317
0.04485
0.0494912
0.0545959
0.060208
0.0663749
0.0731479
0.0805819
0.0887359
0.0976724
0.107457
0.11816
0.129851
0.142603
0.156488
0.171572
0.187916
0.205565
0.224542
0.244833
0.266368
0.288997
0.312442
0.336245
0.35968
0.381637
0.400454
0.413694
0.417853
0.408003
0.377385
0.317024
0.215617
0.0614237
-0.166065
-0.461145
-0.860722
-1.3299
-1.82421
-2.33328
-2.66489
-3.36537
5.95118e-05
0.000182451
0.000337117
0.000498726
0.000681922
0.000880033
0.00109815
0.00133564
0.00159544
0.00187877
0.00218846
0.00252685
0.00289705
0.00330231
0.00374635
0.00423329
0.00476766
0.00535452
0.00599943
0.00670854
0.00748863
0.00834718
0.00929242
0.0103334
0.0114801
0.0127436
0.0141358
0.0156701
0.017361
0.0192246
0.0212785
0.0235419
0.0260361
0.0287842
0.0318115
0.035146
0.038818
0.0428605
0.0473097
0.0522051
0.0575892
0.0635084
0.0700129
0.0771567
0.0849979
0.0935986
0.103025
0.113347
0.124637
0.136971
0.150426
0.165078
0.181
0.198256
0.216897
0.236951
0.258409
0.281208
0.305197
0.330103
0.355466
0.380551
0.404227
0.424794
0.439741
0.445432
0.436711
0.406439
0.345025
0.240236
0.0788941
-0.161668
-0.47734
-0.911418
-1.42469
-1.98233
-2.56927
-2.91194
-3.52716
6.25175e-05
0.000192507
0.000355301
0.000525687
0.000718575
0.000927192
0.00115675
0.00140666
0.00167997
0.00197801
0.00230373
0.00265962
0.00304893
0.0034751
0.00394205
0.0044541
0.00501603
0.00563315
0.00631133
0.00705702
0.00787735
0.00878019
0.0097742
0.0108689
0.0120748
0.0134034
0.0148675
0.0164809
0.0182591
0.0202189
0.0223787
0.0247589
0.0273816
0.0302714
0.0334549
0.0369613
0.0408225
0.0450734
0.0497519
0.0548995
0.0605611
0.0667854
0.0736251
0.0811371
0.0893826
0.098427
0.10834
0.119195
0.131069
0.144042
0.158196
0.173612
0.190367
0.208531
0.228162
0.249292
0.271919
0.295984
0.321344
0.347728
0.374678
0.401456
0.42692
0.449337
0.466135
0.473561
0.466246
0.436685
0.374669
0.267013
0.0990105
-0.154313
-0.490675
-0.96077
-1.52024
-2.14763
-2.82224
-3.20248
-4.13612
6.55372e-05
0.00020261
0.000373507
0.00055265
0.000755186
0.000974254
0.00121518
0.00147743
0.00176416
0.0020768
0.00241843
0.00279167
0.00319994
0.00364687
0.00413654
0.0046735
0.00526277
0.00590992
0.0066211
0.00740308
0.00826334
0.00921013
0.0102525
0.0114005
0.0126651
0.0140585
0.0155938
0.0172858
0.0191506
0.0212057
0.0234707
0.0259667
0.0287171
0.0317475
0.0350859
0.0387629
0.0428119
0.0472696
0.0521757
0.0575737
0.0635106
0.0700376
0.0772101
0.0850876
0.0937344
0.103219
0.113615
0.125
0.137454
0.151063
0.165911
0.182086
0.199671
0.21874
0.239357
0.261561
0.285357
0.310693
0.337433
0.365312
0.393877
0.422393
0.449712
0.47408
0.492878
0.50225
0.496633
0.468167
0.406036
0.296082
0.121983
-0.143685
-0.500724
-1.00833
-1.61606
-2.3205
-3.10193
-3.53235
-4.32683
6.85716e-05
0.000212756
0.000391733
0.000579611
0.000791745
0.00102121
0.00127343
0.00154794
0.00184798
0.0021751
0.0025325
0.00292296
0.00335004
0.00381754
0.00432974
0.00489141
0.00550779
0.00618472
0.00692862
0.00774659
0.00864645
0.00963683
0.0107272
0.0119281
0.0132509
0.0147084
0.0163144
0.0180844
0.020035
0.0221847
0.024554
0.0271649
0.030042
0.0332119
0.0367039
0.0405501
0.0447854
0.0494482
0.0545801
0.0602264
0.0664365
0.0732639
0.0807664
0.0890066
0.0980517
0.107974
0.118849
0.130759
0.14379
0.158029
0.173568
0.190498
0.208907
0.228878
0.250478
0.273755
0.298721
0.325331
0.353458
0.382848
0.413056
0.443355
0.472597
0.499021
0.51997
0.531505
0.527888
0.500926
0.439202
0.327576
0.148027
-0.129454
-0.507033
-1.05357
-1.71156
-2.50167
-3.39417
-3.86268
-4.71362
7.16211e-05
0.000222945
0.000409977
0.000606563
0.000828244
0.00106804
0.00133148
0.00161815
0.00193139
0.00227287
0.00264592
0.00305345
0.00349917
0.00398705
0.00452159
0.00510773
0.00575099
0.00645743
0.00723377
0.00808741
0.00902652
0.0100601
0.0111981
0.0124513
0.0138319
0.015353
0.0170291
0.0188763
0.020912
0.0231556
0.0256282
0.0283531
0.0313557
0.0346639
0.0383082
0.0423222
0.0467423
0.0516084
0.0569641
0.0628567
0.0693377
0.0764629
0.0842928
0.0928928
0.102333
0.112688
0.12404
0.136472
0.150074
0.16494
0.181165
0.198845
0.218075
0.238942
0.261522
0.285869
0.312004
0.339892
0.369415
0.400332
0.43221
0.464335
0.49557
0.524153
0.547408
0.561329
0.560027
0.534996
0.474238
0.361625
0.177362
-0.111269
-0.509117
-1.09593
-1.8062
-2.69003
-3.69175
-4.30966
-5.00714
7.46858e-05
0.000233172
0.000428235
0.0006335
0.000864674
0.00111473
0.0013893
0.00168804
0.00201438
0.00237009
0.00275864
0.00318307
0.00364725
0.00415534
0.004712
0.0053224
0.00599227
0.00672795
0.00753642
0.0084254
0.0094034
0.0104798
0.0116649
0.0129701
0.0144078
0.015992
0.0177375
0.0196612
0.0217813
0.0241179
0.026693
0.0295307
0.0326577
0.0361029
0.0398983
0.0440785
0.0486817
0.0537494
0.0593269
0.0654636
0.0722131
0.0796335
0.087788
0.0967445
0.106576
0.117362
0.129185
0.142135
0.156305
0.171792
0.188698
0.207123
0.227169
0.248928
0.272485
0.2979
0.325203
0.354371
0.385298
0.417757
0.451332
0.485327
0.518622
0.549469
0.575185
0.59172
0.593058
0.570408
0.51121
0.398354
0.210209
-0.0887615
-0.506435
-1.13475
-1.89923
-2.88504
-4.02314
-4.75929
-5.29325
7.77657e-05
0.000243437
0.000446504
0.000660416
0.000901025
0.00116128
0.00144689
0.00175758
0.0020969
0.00246672
0.00287062
0.00331178
0.00379425
0.00432233
0.00490089
0.00553531
0.00623154
0.00699616
0.00783645
0.00876043
0.00977694
0.0108957
0.0121275
0.0134841
0.0149785
0.0166251
0.0184394
0.020439
0.0226426
0.0250712
0.0277478
0.0306974
0.0339476
0.0375286
0.0414734
0.0458184
0.0506029
0.0558703
0.0616676
0.0680461
0.0750616
0.0827746
0.0912506
0.100561
0.110781
0.121992
0.134283
0.147746
0.162479
0.178583
0.196165
0.215331
0.236187
0.258834
0.283362
0.309843
0.338314
0.368763
0.401102
0.435117
0.470414
0.506321
0.541744
0.574959
0.603292
0.622674
0.626986
0.607183
0.550177
0.437884
0.246787
-0.0615467
-0.498406
-1.16927
-1.98983
-3.08741
-4.37695
-5.17563
-5.85078
8.08604e-05
0.000253736
0.00046478
0.000687303
0.000937285
0.00120766
0.00150422
0.00182677
0.00217894
0.00256271
0.00298181
0.00343954
0.0039401
0.00448797
0.0050882
0.00574638
0.00646869
0.00726197
0.00813375
0.00909237
0.010147
0.0113077
0.0125857
0.0139932
0.0155437
0.017252
0.0191345
0.0212091
0.0234954
0.0260153
0.0287923
0.0318526
0.0352247
0.0389401
0.0430331
0.0475411
0.0525052
0.0579703
0.0639852
0.0706031
0.0778821
0.0858848
0.0946793
0.104339
0.114944
0.126578
0.139333
0.153304
0.168595
0.185311
0.203563
0.223464
0.245126
0.268655
0.294151
0.321693
0.35133
0.383063
0.416818
0.452403
0.489447
0.527307
0.564924
0.600609
0.631718
0.65418
0.661808
0.645338
0.591189
0.480328
0.287316
-0.0292271
-0.48439
-1.19864
-2.07712
-3.29586
-4.74004
-5.68845
-6.39058
8.39695e-05
0.000264067
0.000483058
0.000714153
0.000973445
0.00125386
0.00156127
0.00189556
0.00226045
0.00265804
0.00309216
0.00356628
0.00408474
0.00465218
0.00527385
0.00595554
0.00670364
0.00752526
0.00842819
0.00942107
0.0105134
0.0117157
0.0130394
0.0144972
0.0161032
0.0178727
0.0198225
0.0219713
0.0243395
0.0269496
0.029826
0.0329958
0.0364887
0.0403371
0.0445766
0.049246
0.0543878
0.0600486
0.0662789
0.0731338
0.0806735
0.088963
0.0980729
0.108079
0.119065
0.131117
0.144331
0.158807
0.17465
0.191973
0.21089
0.231521
0.253982
0.278388
0.304847
0.333446
0.364247
0.397265
0.432442
0.469609
0.508422
0.548274
0.588149
0.626405
0.660445
0.686222
0.697515
0.68488
0.634288
0.525789
0.332007
0.00859943
-0.463687
-1.22191
-2.15995
-3.50913
-5.14641
-6.24737
-6.92589
8.70922e-05
0.000274427
0.000501334
0.00074096
0.00100949
0.00129986
0.00161802
0.00196393
0.0023414
0.00275266
0.00320164
0.00369196
0.00422811
0.0048149
0.00545776
0.00616268
0.00693629
0.00778592
0.00871965
0.00974641
0.010876
0.0121193
0.0134882
0.0149959
0.0166567
0.0184867
0.0205031
0.0227254
0.0251746
0.0278738
0.0308485
0.0341267
0.037739
0.041719
0.0461034
0.0509324
0.05625
0.0621043
0.0685477
0.0756371
0.0834348
0.0920081
0.10143
0.111779
0.123142
0.135608
0.149277
0.164251
0.180643
0.198567
0.218144
0.239497
0.262752
0.28803
0.315446
0.345098
0.377061
0.411363
0.447966
0.486725
0.527329
0.56921
0.611404
0.65233
0.689454
0.718783
0.734092
0.725808
0.679504
0.574358
0.381062
0.0523337
-0.435581
-1.23795
-2.2368
-3.72749
-5.59296
-6.83284
-7.61642
9.02279e-05
0.000284812
0.000519602
0.000767713
0.00104541
0.00134565
0.00167445
0.00203185
0.00242177
0.00284653
0.0033102
0.00381653
0.00437016
0.00497606
0.00563986
0.00636774
0.00716654
0.00804385
0.00900802
0.0100683
0.0112347
0.0125186
0.0139322
0.015489
0.0172041
0.0190938
0.0211761
0.023471
0.0260001
0.0287875
0.0318595
0.0352448
0.0389751
0.0430852
0.0476128
0.0525997
0.0580911
0.0641368
0.0707908
0.0781121
0.0861649
0.0950188
0.104749
0.115438
0.127173
0.140049
0.154168
0.169637
0.18657
0.20509
0.22532
0.247391
0.271433
0.297577
0.325944
0.356645
0.389765
0.425351
0.463383
0.503744
0.546158
0.590103
0.634674
0.678364
0.718723
0.751836
0.771518
0.768111
0.726856
0.626114
0.434669
0.102371
-0.399368
-1.24555
-2.30602
-3.95024
-6.08448
-7.46131
-8.33374
9.33756e-05
0.000295221
0.000537856
0.000794405
0.0010812
0.00139121
0.00173054
0.00209931
0.00250152
0.00293962
0.0034178
0.00393993
0.00451082
0.0051356
0.00582007
0.00657061
0.0073943
0.00829895
0.00929317
0.0103865
0.0115893
0.0129132
0.014371
0.0159764
0.0177451
0.0196938
0.0218412
0.0242078
0.026816
0.0296905
0.0328585
0.0363496
0.0401966
0.0444351
0.0491043
0.0542471
0.0599103
0.0661451
0.0730074
0.0805578
0.0888628
0.0979941
0.10803
0.119054
0.131158
0.144439
0.159003
0.17496
0.192431
0.21154
0.232417
0.255199
0.280022
0.307024
0.336337
0.368081
0.402355
0.439221
0.478685
0.520656
0.564896
0.610937
0.65794
0.704485
0.748224
0.785352
0.809761
0.811768
0.776348
0.681119
0.493002
0.159099
-0.354345
-1.24334
-2.36575
-4.17676
-6.60833
-8.1205
-9.07216
9.65343e-05
0.00030565
0.000556092
0.000821027
0.00111683
0.00143652
0.00178626
0.00216626
0.00258062
0.00303189
0.00352438
0.00406212
0.00465003
0.00529344
0.00599831
0.00677123
0.00761948
0.00855111
0.00957499
0.0107009
0.0119397
0.0133032
0.0148044
0.0164579
0.0182795
0.0202865
0.0224981
0.0249355
0.0276217
0.0305823
0.0338451
0.0374408
0.0414029
0.0457683
0.0505773
0.0558742
0.061707
0.0681286
0.0751965
0.0829733
0.0915274
0.100933
0.11127
0.122625
0.135094
0.148776
0.163779
0.18022
0.198222
0.217914
0.239433
0.262918
0.288516
0.316369
0.346621
0.379401
0.414824
0.452969
0.493864
0.537451
0.583533
0.631698
0.681184
0.730668
0.777927
0.819295
0.848785
0.856748
0.827973
0.739414
0.55621
0.222887
-0.299804
-1.22979
-2.41399
-4.40436
-7.15778
-8.8714
-9.95361
9.97029e-05
0.000316096
0.000574302
0.000847567
0.0011523
0.00148157
0.0018416
0.00223269
0.00265903
0.0031233
0.00362991
0.00418303
0.00478775
0.00544953
0.00617452
0.0069695
0.00784197
0.00880021
0.00985336
0.0110115
0.0122857
0.0136882
0.0152325
0.0169333
0.018807
0.0208715
0.0231466
0.0256538
0.0284171
0.0314626
0.034819