/*--------------------------------*- C++ -*----------------------------------*\
| =========                 |                                                 |
| \\      /  F ield         | OpenFOAM: The Open Source CFD Toolbox           |
|  \\    /   O peration     | Version:  4.1                                   |
|   \\  /    A nd           | Web:      www.OpenFOAM.org                      |
|    \\/     M anipulation  |                                                 |
\*---------------------------------------------------------------------------*/
FoamFile
{
    version     2.0;
    format      ascii;
    class       surfaceScalarField;
    location    "1";
    object      phi;
}
// * * * * * * * * * * * * * * * * * * * * * * * * * * * * * * * * * * * * * //

dimensions      [0 3 -1 0 0 0 0];

internalField   nonuniform List<scalar> 
13220
(
-898.327
2198.22
-1485.26
1887.13
-1948.13
1762.76
-2302.95
1654.72
-2568.36
1565.6
-2749.71
1481.25
-2848.68
1398.87
-2865.41
1316.93
-2799.12
1233.61
-2645.87
1146.65
-2398.93
1053.25
-2041.6
942.568
-1545.87
804.166
-901.511
655.837
398.389
389.877
1808.33
449.498
1827.48
469.149
1743.09
444.579
1679.26
413.85
1596.3
388.26
1506.81
369.858
1417.24
358.773
1327.99
351.083
1241.27
339.319
1158.38
315.486
1077.06
268.927
989.089
189.739
883.312
107.179
738.355
505.567
202.18
1606.12
45.9542
1983.67
-112.685
1901.69
-237.226
1803.77
-342.985
1702.03
-440.255
1604.04
-532.762
1509.71
-622.996
1418.18
-710.678
1328.92
-796.082
1243.74
-873.392
1154.33
-910.894
1026.55
-829.321
801.674
-512.463
421.418
-6.89747
409.565
1196.51
358.919
2034.28
157.752
2102.81
-9.11778
1970.58
-137.979
1830.83
-246.612
1712.61
-338.813
1601.86
-414.523
1493.84
-474.127
1388.46
-515.821
1285.38
-533.874
1172.34
-508.506
1001.1
-397.74
690.801
-199.289
222.837
-206.189
500.116
696.339
673.529
1860.82
589.927
2186.37
477.556
2082.9
401.179
1907.15
349.186
1764.55
309.639
1641.35
283.029
1520.39
270.785
1400.65
271.994
1284.11
282.385
1161.91
287.414
995.933
266.211
711.812
174.631
314.216
-31.5573
309.611
386.663
494.199
1676.18
484.427
2196.09
424.037
2143.23
385.177
1945.97
366.522
1783.15
355.986
1651.84
349.447
1526.88
348.576
1401.49
353.122
1279.54
356.673
1158.33
343.071
1009.58
287.377
767.555
182.986
418.658
151.426
27.4833
359.118
93.9021
1609.72
107.558
2182.41
99.6826
2151.08
99.4133
1946.21
104.02
1778.51
109.937
1645.9
116.03
1520.78
121.359
1396.13
126.608
1274.25
129.203
1155.75
121.451
1017.14
98.8348
789.946
75.8466
441.417
227.275
-105.673
464.76
-109.639
1613.66
-100.798
2173.55
-91.791
2142.05
-80.0938
1934.52
-69.3551
1767.77
-60.8862
1637.45
-52.9256
1512.81
-45.4125
1388.63
-39.4905
1268.36
-34.8456
1151.09
-31.3631
1013.85
-21.4447
780.258
28.1002
392.094
255.373
-47.3291
512.077
-37.2869
1603.61
-24.5599
2160.82
-20.3513
2137.84
-18.3472
1932.49
-16.9886
1766.4
-16.6926
1637.13
-17.9771
1514.1
-19.6428
1390.28
-21.7145
1270.38
-24.8518
1154.23
-28.2532
1017.02
-25.1288
776.852
16.2715
350.426
271.647
18.2174
493.884
72.3836
1549.46
103.528
2129.69
99.2187
2142.15
89.1868
1942.54
82.44
1773.15
76.4549
1643.13
69.7245
1520.82
61.7098
1398.32
53.9419
1278.2
46.5393
1161.64
37.3377
1026.48
23.9823
790.543
14.3189
360.417
285.966
45.8767
448.075
138.293
1457.09
193.832
2074.2
190.094
2145.94
170.79
1961.9
159.732
1784.27
151.316
1651.6
142.126
1530.08
131.979
1408.52
120.781
1289.45
109.902
1172.59
96.5927
1039.72
71.8763
815.223
27.192
405.071
313.161
50.5222
397.641
143.067
1364.6
210.487
2006.83
215.464
2141.02
190.11
1987.32
169.542
1804.9
156.277
1664.95
144.079
1542.33
132.484
1420.19
122.104
1299.92
112.246
1182.49
101.098
1051.12
75.3504
841.272
22.1105
458.613
335.272
18.8984
378.842
142.028
1241.54
239.419
1909.49
268.659
2111.82
263.909
1992.12
259.246
1809.61
258.478
1665.76
253.712
1547.15
242.295
1431.65
226.114
1316.14
206.364
1202.28
180.485
1077
140.727
881.055
66.0355
533.332
401.308
87.2679
291.646
181.721
1147.13
243.079
1848.17
233.313
2121.62
170.351
2055.11
101.924
1878.07
57.0344
1710.69
31.7431
1572.46
18.9634
1444.46
12.8249
1322.31
12.8521
1202.28
17.6575
1072.28
5.34958
893.45
-27.5485
566.313
373.759
-172.085
54.8333
518.901
963.643
1243.37
1381.21
1403.38
1371.69
1278.37
1147.56
978.111
778.831
551.282
252.785
-3.75544e-05
516.796
-516.796
516.796
516.796
516.796
522.265
-5.46849
522.265
522.265
522.264
291.265
230.999
291.265
291.265
138.482
152.783
138.482
138.482
138.482
139.031
-0.549022
139.03
139.03
220.809
-81.7788
220.809
220.809
220.809
347.394
-126.586
347.394
347.394
347.394
497.643
-150.249
497.643
497.643
646.168
-148.525
646.168
646.168
646.168
779.372
-133.205
779.372
779.372
882.278
-102.906
882.278
882.278
882.278
949.299
-67.0213
949.299
949.299
949.299
992.293
-42.9946
992.293
992.293
1072.37
-80.076
1072.37
1072.37
1072.37
1110.6
-38.2282
1110.6
1110.6
1110.6
955.789
154.808
955.788
955.788
614.658
341.13
614.658
614.657
614.658
196.514
418.143
196.514
196.513
-636.946
833.46
-636.948
-636.947
-636.949
-2234.86
1597.91
-2234.86
-2234.86
-2234.86
-4338.79
2103.94
-4338.8
-4338.79
-6729.58
2390.78
-6729.57
-6729.57
-6620.74
-6498.43
-6361.04
-8788.96
2543.33
-8676.86
-8534.14
-8370.02
-8205.23
-8043.44
-7883.34
-7703.58
-7490.21
-9838.44
2551.47
-9622.85
-9409.97
-9197.47
-8960.76
-8722.76
-8483.94
-8243.49
-8001.6
-10224
2465.64
-9965
-9706.1
-9448.05
-9190.4
-8926.95
-8652.56
-8377.72
-8101.95
-7826.83
-9839.33
2276.89
-9551.01
-9262.14
-8973.64
-8686.33
-8398.9
-8098.71
-7792.56
-7488.75
-9221.89
2027.74
-8924.15
-8619.45
-8302.08
-7984.58
-7666.98
-7350.54
-7036.14
-6705.4
-8071.4
1691.53
-7746.57
-7422.38
-7098.3
-6762.41
-6422.07
-6084.89
-5753.26
-5428.85
-6081.54
976.988
-5763.45
-5447.85
-5133.69
-4821.99
-4517.13
-4243.55
-3976.39
-3718.18
-3468.75
-3107.09
-107.375
-2903.98
-2725.86
-2551.92
-2379.95
-2211.27
-2070.64
-1986.07
-1904.68
-1317.27
-492.844
-1237.6
-1159.63
-1159.63
-946.029
-213.599
-755.796
-190.237
-755.795
-593.53
-162.269
-593.53
-452.461
-141.073
-334.815
-117.646
-334.818
-248.239
-86.5809
-182.302
-65.9401
-182.302
-119.105
-63.2003
-119.105
-69.0929
-50.0142
-42.5705
-26.5222
-42.5726
-31.6487
-10.9242
-31.6509
-11.2744
-20.3778
-7.70488
-3.5717
-7.70562
-19.897
12.1893
-55.3335
35.4358
-55.3349
-68.6188
13.2829
-68.6201
-79.1933
10.5721
-100.427
21.2324
-100.427
-106.19
5.76225
-106.19
-101.804
-4.38669
-95.8482
-5.95646
-95.8487
-90.7844
-5.06469
-92.592
1.80701
-92.5922
-84.1992
-8.39341
-84.1993
-76.8753
-7.3243
-75.0053
-1.8701
-75.0056
-66.2244
-8.78119
-66.2247
-53.8375
-12.3874
-41.333
-12.5047
-41.333
-31.2084
-10.1248
-26.0924
-5.11607
-26.0925
-20.3642
-5.72831
-20.3644
-17.3105
-3.05392
-19.159
1.84838
-19.1591
-22.4121
3.25296
-22.4121
-27.669
5.25684
-34.0423
6.37328
-34.0423
-48.5936
14.5512
-67.2459
18.6522
-67.2459
-88.8114
21.5655
-88.8114
-116.398
27.5869
-144.713
28.3148
-144.713
-173.519
28.8058
-173.519
-205.033
31.5142
-232.413
27.3805
-232.413
-270.463
38.0499
-306.523
36.06
-306.523
-344.078
37.5543
-344.078
46.0463
-169.242
-725.128
-169.829
-871.994
-170.665
-950.466
-171.496
-1027.19
-172.299
-1093.99
-172.996
-1153.3
-173.524
-1205.29
-173.814
-1250.28
-173.809
-1288.3
-173.427
-1319.41
-172.485
-1343.05
-170.86
-1358.51
-168.512
-1365.53
-165.384
-1363.41
-161.331
-1351.2
-156.145
-1326.94
-149.739
-1289.07
-142.07
-1235.42
-132.987
-1162.33
-122.414
-1065.46
-110.392
-938.06
-97.1345
-769.586
-83.2731
-542.605
-70.1002
-219.761
-61.2699
291.284
-63.8179
1206.08
40.9722
3262.32
-124.446
1302.53
-162.358
478.75
-130.32
986.652
-77.4982
705.426
-67.9773
2091.86
-79.2544
2442.21
-93.2469
3075.19
-114.985
3665.83
-147.124
3903.82
-276.62
3747.8
-577.984
6195.05
-720.177
10084.7
-848.174
10379.3
-902.167
16727.5
-745.698
19300.3
-1180.12
-4624.32
-1071.58
-600.661
-1043.19
-509.789
-1106.05
-1263
-1076.04
-1360.99
-1031.38
-2045.93
-975.741
-2655.88
-916.574
-3199.87
-845.481
-3678.56
-760.337
-3970.64
-665.91
-4124.54
-560.68
-4080.42
-447.141
-3795.22
-329.063
-3199.9
-208.857
-2188.11
-94.2375
-636.187
-19.0157
299.274
2.82912
255.89
38.2774
324.022
48.8795
1556.25
57.578
1074.72
77.797
1028.13
64.4063
-331.81
70.2221
-307.48
31.7094
-194.575
-10.0738
-1326.58
15.3968
-747.693
83.52
944.269
125.954
2505.14
56.0213
1595.77
-8.87803
132.578
-53.0411
-1751.39
90.579
-1003.23
139.09
3443.46
19.8632
2041.47
-34.4423
-313.735
-1313.13
-180.206
-726.365
-180.141
-872.058
-180.58
-950.027
-181.099
-1026.67
-181.634
-1093.46
-182.09
-1152.84
-182.388
-1204.99
-182.455
-1250.21
-182.219
-1288.53
-181.609
-1320.02
-180.445
-1344.22
-178.584
-1360.38
-175.965
-1368.15
-172.53
-1366.85
-168.155
-1355.58
-162.638
-1332.46
-155.858
-1295.85
-147.764
-1243.52
-138.214
-1171.88
-127.094
-1076.58
-114.415
-950.739
-100.32
-783.68
-85.3079
-557.617
-70.0887
-234.98
-55.3362
276.532
-38.4263
1189.17
139.542
3084.35
1.74964
1440.32
-51.7928
532.292
-10.467
945.327
-185.992
880.951
-61.1322
1967
-98.9363
2480.02
-134.634
3110.89
-164.738
3695.94
-174.715
3913.8
-326.189
3899.27
-626.543
6495.4
-654.656
10112.8
-848.72
10573.4
-1147.48
17026.3
-723.367
18876.2
-1195.9
-4151.79
-1091.42
-705.147
-1079.95
-521.252
-1153.42
-1189.53
-1133.54
-1380.88
-1103.14
-2076.33
-1045.02
-2714
-983.178
-3261.71
-910.056
-3751.68
-821.303
-4059.39
-721.753
-4224.09
-610.177
-4191.99
-489.043
-3916.35
-362.343
-3326.6
-233.074
-2317.38
-106.053
-763.208
-91.9456
285.166
0.139853
163.805
-14.77
338.931
19.983
1521.49
65.7791
1028.93
93.3598
1000.55
70.3651
-308.815
64.3415
-301.457
72.3123
-202.546
-59.4322
-1194.84
-0.725756
-806.4
98.9837
844.56
154.044
2450.08
81.3435
1668.47
-7.27309
221.195
-54.4113
-1704.25
55.991
-1113.63
136.921
3362.53
37.8348
2140.55
-40.0844
-235.816
-1315.66
-187.183
-728.304
-186.693
-872.548
-186.822
-949.898
-187.104
-1026.39
-187.436
-1093.13
-187.714
-1152.57
-187.844
-1204.86
-187.749
-1250.31
-187.351
-1288.93
-186.579
-1320.79
-185.262
-1345.53
-183.242
-1362.4
-180.445
-1370.94
-176.81
-1370.48
-172.215
-1360.17
-166.465
-1338.21
-159.425
-1302.89
-151.013
-1251.93
-141.097
-1181.8
-129.531
-1088.15
-116.275
-963.995
-101.372
-798.584
-85.0912
-573.898
-67.5475
-252.524
-47.3666
256.351
-16.1429
1157.95
115.74
2952.47
6.96023
1549.1
-39.9339
579.186
3.23588
902.157
-158.988
1043.17
-78.6304
1886.64
-121.586
2522.97
-159.936
3149.24
-188.198
3724.2
-197.168
3922.77
-361.606
4063.71
-634.913
6768.71
-636.108
10114
-865.535
10802.8
-1182.92
17343.6
-751.841
18445.1
-1154.11
-3749.52
-1091.99
-767.264
-1111.61
-501.639
-1180.28
-1120.86
-1178.58
-1382.58
-1145.29
-2109.62
-1089.04
-2770.25
-1026.04
-3324.71
-952.005
-3825.72
-861.543
-4149.85
-759.079
-4326.55
-643.81
-4307.26
-518.145
-4042.02
-386.359
-3458.39
-252.315
-2451.43
-115.005
-900.517
-88.8391
259
-2.59748
77.563
-32.7024
369.036
8.5335
1480.26
59.4951
977.964
87.5435
972.504
72.4527
-293.724
64.0531
-293.057
65.6022
-204.095
-36.6951
-1092.54
0.634389
-843.729
100.127
745.067
161.677
2388.53
115.029
1715.11
20.1005
316.124
-50.3608
-1633.79
36.8396
-1200.83
140.431
3258.94
50.0898
2230.9
-42.2304
-143.496
-1321.84
-194.791
-730.767
-193.948
-873.392
-193.799
-950.046
-193.864
-1026.32
-194.011
-1092.98
-194.124
-1152.45
-194.1
-1204.89
-193.858
-1250.55
-193.31
-1289.48
-192.386
-1321.71
-190.925
-1346.99
-188.756
-1364.56
-185.79
-1373.91
-181.96
-1374.31
-177.152
-1364.98
-171.175
-1344.19
-163.88
-1310.18
-155.159
-1260.65
-144.881
-1192.08
-132.881
-1100.15
-119.073
-977.802
-103.426
-814.231
-86.0195
-591.304
-66.4446
-272.099
-41.792
231.698
-0.957574
1117.12
101.687
2849.82
9.00356
1641.78
-38.0293
626.219
8.86269
855.265
-142.898
1194.94
-104.115
1847.86
-143.542
2562.4
-183.684
3189.38
-210.528
3751.05
-222.127
3934.36
-393.356
4234.94
-631.702
7007.05
-622.622
10105
-874.825
11055
-1182.24
17651.1
-745.414
18008.3
-1130.61
-3364.32
-1087.54
-810.335
-1132.22
-456.964
-1223.83
-1029.24
-1227.86
-1378.56
-1191.29
-2146.18
-1138.74
-2822.8
-1074.45
-3389
-999.34
-3900.83
-906.952
-4242.24
-801.395
-4432.11
-682.115
-4426.54
-551.443
-4172.69
-413.964
-3595.87
-275.386
-2590
-131.733
-1044.17
-84.6113
211.878
-5.07074
-1.97755
-40.2477
404.213
-2.5862
1442.6
53.4242
921.954
77.6651
948.263
74.8273
-290.886
59.1459
-277.376
66.1017
-211.051
-21.5464
-1004.89
1.76814
-867.044
100.814
646.022
166.265
2323.07
152.12
1729.26
70.8385
397.405
-44.2084
-1518.74
31.1514
-1276.19
143.65
3146.44
63.8737
2310.67
-35.8194
-43.8024
-1319.6
-202.283
-733.62
-201.137
-874.539
-200.74
-950.444
-200.606
-1026.46
-200.584
-1093
-200.547
-1152.49
-200.383
-1205.05
-200.009
-1250.93
-199.328
-1290.16
-198.268
-1322.77
-196.678
-1348.59
-194.38
-1366.86
-191.269
-1377.02
-187.271
-1378.31
-182.276
-1369.98
-176.098
-1350.36
-168.577
-1317.7
-159.579
-1269.65
-148.966
-1202.69
-136.563
-1112.55
-122.231
-992.134
-105.869
-830.593
-87.4045
-609.769
-66.0521
-293.451
-37.931
203.577
9.02763
1070.16
92.5369
2766.31
9.34422
1724.98
-39.4653
675.029
1.90934
813.89
-133.221
1330.07
-128.122
1842.76
-164.857
2599.13
-205.832
3230.36
-231.35
3776.56
-245.598
3948.61
-414.983
4404.33
-623.641
7215.71
-617.986
10099.3
-888.262
11325.3
-1173.8
17936.6
-740.708
17575.2
-1131.65
-2973.37
-1121.83
-820.154
-1156.52
-422.28
-1253.58
-932.182
-1268.36
-1363.78
-1238.42
-2176.12
-1187.59
-2873.63
-1122.8
-3453.79
-1046.75
-3976.87
-952.75
-4336.24
-844.453
-4540.41
-721.466
-4549.53
-585.993
-4308.16
-442.831
-3739.03
-299.55
-2733.29
-153.402
-1190.32
-82.7953
141.271
-16.0453
-68.7276
-48.2775
436.446
-13.1132
1407.43
46.4687
862.372
67.2296
927.502
75.6927
-299.35
53.2811
-254.964
66.1509
-223.921
-13.3303
-925.409
1.83492
-882.209
100.884
546.973
169.161
2254.8
151.335
1747.09
83.9604
464.779
-36.5348
-1398.25
35.5057
-1348.23
146.389
3035.56
73.6407
2383.42
-20.9623
50.8002
-1313.19
-209.781
-736.757
-208.381
-875.939
-207.769
-951.056
-207.462
-1026.76
-207.291
-1093.17
-207.119
-1152.66
-206.833
-1205.34
-206.343
-1251.42
-205.549
-1290.95
-204.368
-1323.95
-202.663
-1350.29
-200.255
-1369.27
-197.02
-1380.25
-192.877
-1382.45
-187.718
-1375.14
-181.36
-1356.72
-173.635
-1325.43
-164.384
-1278.9
-153.458
-1213.62
-140.673
-1125.33
-125.841
-1006.97
-108.797
-847.636
-89.3402
-629.226
-66.4366
-316.354
-35.6852
172.826
14.8843
1019.59
86.8497
2694.35
7.43629
1804.39
-43.686
726.151
-12.7649
782.969
-128.966
1446.27
-150.085
1863.88
-184.678
2633.73
-225.661
3271.34
-249.566
3800.47
-265.682
3964.73
-428.998
4567.64
-617.167
7403.88
-622.258
10104.4
-902.728
11605.8
-1161.82
18195.7
-758.923
17172.3
-1138.14
-2594.16
-1223.34
-734.949
-1215.49
-430.137
-1282.07
-865.6
-1306.87
-1338.98
-1286.72
-2196.27
-1236.87
-2923.48
-1172
-3518.67
-1095.13
-4053.73
-999.725
-4431.65
-888.942
-4651.19
-762.457
-4676.01
-622.284
-4448.34
-473.275
-3888.04
-324.169
-2882.39
-176.85
-1337.64
-94.3268
58.7475
-33.4912
-129.563
-57.4089
460.363
-23.1815
1373.21
38.8498
800.341
56.545
909.807
75.7506
-318.555
47.2934
-226.507
65.009
-241.636
-7.04381
-853.356
0.318489
-889.571
100.395
446.897
170.919
2184.27
145.665
1772.34
82.0983
528.346
-35.1663
-1280.98
39.1274
-1422.53
148.938
2925.75
83.0923
2449.27
-5.16596
139.059
-1286.84
-217.286
-740.098
-215.674
-877.551
-214.875
-951.855
-214.42
-1027.22
-214.119
-1093.47
-213.83
-1152.95
-213.436
-1205.73
-212.846
-1252.01
-211.956
-1291.84
-210.673
-1325.24
-208.868
-1352.1
-206.368
-1371.77
-203.034
-1383.59
-198.77
-1386.72
-193.471
-1380.43
-186.956
-1363.24
-179.05
-1333.33
-169.575
-1288.37
-158.362
-1224.83
-145.219
-1138.48
-129.917
-1022.27
-112.229
-865.323
-91.8524
-649.603
-67.6255
-340.581
-35.0305
140.231
17.4382
967.118
83.6777
2628.11
3.40251
1884.67
-50.9824
780.536
-35.2452
767.232
-130.202
1541.22
-169.757
1903.43
-202.458
2666.43
-242.572
3311.46
-264.886
3822.78
-283.575
3983.42
-439.73
4723.8
-612.883
7577.03
-628.748
10120.3
-914.016
11891.1
-1132.45
18414.1
-761.251
16801.1
-1095.03
-2260.38
-1316.74
-513.236
-1287.51
-459.37
-1322.48
-830.622
-1346.39
-1315.07
-1333.03
-2209.63
-1286.68
-2969.82
-1221.65
-3583.7
-1144.19
-4131.19
-1047.65
-4528.2
-934.694
-4764.14
-804.987
-4805.72
-660.283
-4593.04
-505.345
-4042.98
-349.774
-3037.96
-200.511
-1486.9
-113.578
-28.1855
-62.1957
-180.945
-67.2403
465.408
-32.8828
1338.85
30.8768
736.581
45.4632
895.22
75.4572
-348.549
42.2719
-193.322
67.5362
-266.901
4.93876
-790.759
-2.73545
-881.897
99.7513
344.41
171.991
2112.03
146.991
1797.34
84.8364
590.501
-34.2288
-1161.92
40.4366
-1497.19
151.427
2814.76
93.1372
2507.56
1.5844
230.611
-1256.45
-224.812
-743.576
-223.024
-879.339
-222.066
-952.812
-221.484
-1027.8
-221.075
-1093.88
-220.688
-1153.34
-220.205
-1206.21
-219.53
-1252.68
-218.56
-1292.81
-217.194
-1326.6
-215.307
-1353.98
-212.735
-1374.34
-209.324
-1387
-204.963
-1391.08
-199.548
-1385.85
-192.9
-1369.88
-184.838
-1341.39
-175.166
-1298.04
-163.694
-1236.3
-150.221
-1151.95
-134.479
-1038.01
-116.187
-883.616
-94.9499
-670.84
-69.5802
-365.951
-35.7802
106.431
17.3365
914.002
82.1123
2563.33
-2.51941
1969.3
-60.3619
838.378
-61.7916
768.662
-135.008
1614.44
-186.34
1954.77
-217.819
2697.91
-256.408
3350.05
-277.769
3844.14
-300.583
4006.23
-448.882
4872.1
-609.545
7737.7
-639.164
10149.9
-920.046
12171.9
-1089.74
18583.8
-825.328
16536.7
-1086.5
-1999.21
-1376.2
-223.537
-1360.23
-475.339
-1367.76
-823.1
-1384.15
-1298.68
-1379.05
-2214.73
-1336.74
-3012.13
-1271.62
-3648.82
-1193.82
-4208.99
-1096.43
-4625.6
-981.652
-4878.92
-849.037
-4938.34
-700.014
-4742.06
-539.103
-4203.89
-376.453
-3200.61
-224.516
-1638.84
-135.467
-117.235
-107.543
-208.869
-77.2617
435.126
-42.1549
1303.74
22.7692
671.657
33.9359
884.053
74.9921
-389.605
38.6982
-157.028
70.609
-298.811
20.6743
-740.824
-6.95062
-854.272
99.2376
238.222
172.502
2038.77
150.751
1819.09
90.4129
650.839
-30.3117
-1041.19
41.2383
-1568.74
153.348
2702.65
101.937
2558.97
6.07443
326.474
-1222.06
-232.372
-747.136
-230.443
-881.268
-229.35
-953.905
-228.661
-1028.49
-228.164
-1094.38
-227.701
-1153.8
-227.148
-1206.77
-226.404
-1253.43
-225.369
-1293.85
-223.938
-1328.03
-221.991
-1355.93
-219.366
-1376.97
-215.9
-1390.47
-211.467
-1395.51
-205.958
-1391.36
-199.202
-1376.64
-191.008
-1349.59
-181.168
-1307.88
-169.468
-1248
-155.692
-1165.73
-139.545
-1054.16
-120.69
-902.471
-98.6559
-692.874
-72.2909
-392.316
-37.6937
71.8336
15.2112
861.097
81.4781
2497.06
-9.7817
2060.56
-70.1906
898.787
-89.3028
787.774
-141.74
1666.88
-199.861
2012.89
-230.613
2728.66
-267.255
3386.69
-288.658
3865.55
-317.055
4034.63
-457.422
5012.46
-608.646
7888.92
-660.567
10201.8
-923.066
12434.4
-1042.87
18703.6
-921.553
16415.4
-1132.15
-1788.61
-1424.49
68.8002
-1427.82
-472.008
-1411.36
-839.561
-1424.04
-1286
-1425.37
-2213.4
-1386.51
-3050.99
-1321.75
-3713.58
-1243.84
-4286.89
-1145.93
-4723.51
-1029.72
-4995.14
-894.56
-5073.49
-741.489
-4895.13
-574.62
-4370.76
-404.19
-3371.04
-247.252
-1795.77
-147.372
-217.114
-141.703
-214.539
-86.661
380.085
-50.774
1267.85
14.7647
606.118
22.0529
876.765
74.269
-441.821
36.9133
-119.672
69.0117
-330.91
36.424
-708.237
-11.496
-806.352
98.8662
127.859
172.452
1965.18
155.107
1836.43
98.0207
707.926
-24.2347
-918.936
41.0762
-1634.05
154.304
2589.42
109.086
2604.18
11.2604
424.299
-1183.21
-239.976
-750.73
-237.942
-883.303
-236.735
-955.112
-235.959
-1029.27
-235.393
-1094.94
-234.873
-1154.32
-234.272
-1207.37
-233.478
-1254.22
-232.395
-1294.93
-230.918
-1329.51
-228.929
-1357.92
-226.27
-1379.63
-222.771
-1393.96
-218.291
-1399.99
-212.714
-1396.94
-205.871
-1383.48
-197.573
-1357.89
-187.595
-1317.86
-175.696
-1259.9
-161.65
-1179.77
-145.132
-1070.68
-125.759
-921.843
-102.994
-715.64
-75.7523
-419.557
-40.575
36.6562
11.629
808.893
81.1624
2427.53
-18.1357
2159.86
-73.6392
954.291
-110.502
824.636
-149.207
1705.58
-209.932
2073.61
-240.914
2759.64
-275.274
3421.05
-297.682
3887.96
-332.731
4069.68
-465.678
5145.41
-610.922
8034.16
-686.839
10277.7
-919.89
12667.5
-988.502
18772.2
-956.324
16383.2
-1146.65
-1598.28
-1460.39
382.534
-1477.41
-454.982
-1458.34
-858.638
-1470.65
-1273.69
-1469.85
-2214.2
-1435.9
-3084.94
-1371.81
-3777.67
-1294.05
-4364.65
-1195.99
-4821.57
-1078.76
-5112.36
-941.487
-5210.77
-784.706
-5051.91
-611.981
-4543.48
-433.121
-3549.9
-267.73
-1961.16
-157.137
-327.708
-156.736
-214.939
-94.5847
317.933
-58.428
1231.7
6.97511
540.715
9.87606
873.864
73.1372
-505.082
37.1093
-83.6442
59.2333
-353.034
49.2442
-698.247
-15.2734
-741.834
98.5792
14.0067
171.811
1891.95
159.274
1848.97
107.235
759.965
-14.3609
-797.34
41.27
-1689.68
154.375
2476.31
115.088
2643.47
14.6413
524.746
-1147
-247.635
-754.321
-245.529
-885.408
-244.231
-956.411
-243.386
-1030.11
-242.77
-1095.56
-242.214
-1154.88
-241.584
-1208
-240.762
-1255.04
-239.646
-1296.05
-238.142
-1331.02
-236.131
-1359.93
-233.455
-1382.3
-229.944
-1397.47
-225.444
-1404.49
-219.825
-1402.56
-212.921
-1390.39
-204.545
-1366.26
-194.456
-1327.95
-182.391
-1271.96
-168.109
-1194.05
-151.257
-1087.53
-131.411
-941.69
-107.98
-739.07
-79.9449
-447.593
-44.2665
0.977816
7.06462
757.562
81.0633
2353.53
-28.1372
2269.06
-67.0997
993.253
-117.199
874.735
-155.636
1744.02
-216.855
2134.83
-248.714
2791.5
-280.597
3452.93
-304.701
3912.06
-346.954
4111.93
-472.641
5271.1
-612.742
8174.27
-704.827
10369.8
-903.644
12866.3
-919.018
18787.6
-839.296
16303.5
-971.509
-1466.07
-1439.27
850.292
-1516.52
-377.73
-1506.41
-868.749
-1520.83
-1259.27
-1513.24
-2221.79
-1484.59
-3113.59
-1421.54
-3840.72
-1344.18
-4442.01
-1246.38
-4919.37
-1128.63
-5230.11
-989.72
-5349.68
-829.645
-5211.99
-651.274
-4721.85
-463.589
-3737.59
-287.473
-2137.28
-170.075
-445.106
-168.203
-216.812
-100.424
250.154
-64.7905
1196.06
-0.794153
476.719
-2.3595
875.43
72.0506
-579.493
38.2461
-49.8397
42.4511
-357.239
58.2335
-714.03
-18.0045
-665.596
98.413
-102.411
170.549
1819.82
162.724
1856.8
115.879
806.811
-2.07929
-679.382
41.3377
-1733.1
153.583
2364.07
120.266
2676.79
19.2203
625.791
-1109.13
-255.354
-757.878
-253.211
-887.551
-251.846
-957.776
-250.951
-1031.01
-250.303
-1096.21
-249.73
-1155.45
-249.092
-1208.63
-248.261
-1255.87
-247.134
-1297.17
-245.618
-1332.53
-243.603
-1361.95
-240.929
-1384.98
-237.427
-1400.98
-232.934
-1408.98
-227.301
-1408.19
-220.362
-1397.33
-211.933
-1374.69
-201.764
-1338.12
-189.566
-1284.16
-175.08
-1208.54
-157.935
-1104.67
-137.663
-961.961
-113.632
-763.101
-84.8502
-476.375
-48.6523
-35.2201
1.88046
707.029
81.6775
2273.74
-39.4747
2390.21
-70.7626
1024.54
-124.389
928.361
-164.956
1784.59
-224.482
2194.36
-253.66
2820.68
-283.418
3482.69
-309.545
3938.19
-358.747
4161.13
-476.648
5389
-609.602
8307.22
-710.78
10471
-874.128
13029.6
-843.57
18757
-757.629
16217.5
-779.623
-1444.07
-1387.14
1457.81
-1564.01
-200.861
-1549.92
-882.835
-1572.09
-1237.1
-1556.96
-2236.92
-1531.99
-3138.56
-1470.64
-3902.07
-1393.96
-4518.69
-1296.87
-5016.45
-1179.13
-5347.86
-1039.13
-5489.68
-876.257
-5374.86
-692.567
-4905.54
-495.885
-3934.27
-307.129
-2326.04
-181.937
-570.298
-176.775
-221.974
-104.345
177.724
-69.5865
1161.31
-8.91303
416.045
-13.785
880.302
71.6912
-664.969
38.4261
-16.5746
23.9268
-342.74
63.3622
-753.465
-19.809
-582.425
98.4849
-220.705
168.631
1749.67
164.833
1860.59
121.614
850.03
9.78251
-567.551
40.5482
-1763.87
151.763
2252.85
124.325
2704.23
26.1981
723.918
-1068.38
-263.143
-761.375
-260.994
-889.7
-259.59
-959.18
-258.664
-1031.93
-258.003
-1096.87
-257.43
-1156.02
-256.803
-1209.26
-255.984
-1256.69
-254.865
-1298.29
-253.358
-1334.04
-251.355
-1363.95
-248.702
-1387.63
-245.23
-1404.45
-240.768
-1413.45
-235.151
-1413.81
-228.208
-1404.27
-219.752
-1383.15
-209.53
-1348.34
-197.234
-1296.46
-182.579
-1223.2
-165.18
-1122.07
-144.532
-982.609
-119.962
-787.671
-90.4601
-505.877
-53.6513
-72.0289
-3.63625
657.014
82.6933
2187.41
-50.4387
2523.34
-90.6299
1064.73
-147.663
985.394
-186.77
1823.69
-233.855
2241.44
-255.798
2842.62
-283.956
3510.85
-312.263
3966.49
-367.512
4216.38
-476.516
5498
-599.659
8430.36
-707.927
10579.2
-835.821
13157.5
-783.808
18705
-966.655
16400.4
-1078.33
-1332.4
-1510.39
1889.87
-1605.96
-105.293
-1591.4
-897.393
-1623.42
-1205.08
-1600.63
-2259.71
-1577.76
-3161.44
-1518.73
-3961.09
-1443.02
-4594.41
-1347.16
-5112.31
-1230
-5465.01
-1089.55
-5630.13
-924.465
-5539.95
-735.899
-5094.11
-530.293
-4139.88
-327.291
-2529.04
-190.624
-706.965
-181.956
-230.642
-106.487
102.256
-72.1368
1126.96
-17.3681
361.277
-23.5222
886.456
72.246
-760.737
36.552
19.1194
8.44828
-314.636
65.2451
-810.262
-20.8883
-496.292
99.1573
-340.75
165.988
1682.84
164.975
1861.61
124.51
890.495
22.2844
-465.325
40.0369
-1781.62
148.904
2143.98
126.859
2726.27
30.6839
820.093
-1031.33
-271.011
-764.792
-268.884
-891.828
-267.469
-960.594
-266.531
-1032.87
-265.875
-1097.52
-265.32
-1156.58
-264.723
-1209.86
-263.938
-1257.48
-262.848
-1299.38
-261.368
-1335.52
-259.398
-1365.92
-256.785
-1390.24
-253.364
-1407.87
-248.956
-1417.86
-243.385
-1419.38
-236.467
-1411.19
-228.012
-1391.6
-217.767
-1358.59
-205.408
-1308.82
-190.62
-1237.98
-173.006
-1139.69
-152.033
-1003.58
-126.983
-812.72
-96.7813
-536.079
-59.2057
-109.605
-9.101
606.909
84.5388
2093.77
-57.2516
2665.13
-114.503
1121.98
-179.271
1050.16
-212.038
1856.46
-238.773
2268.18
-255.92
2859.77
-282.462
3537.39
-312.694
3996.73
-372.813
4276.5
-471.885
5597.08
-582.996
8541.47
-698.447
10694.7
-791.393
13250.5
-717.16
18630.8
-1046.52
16729.7
-1203.51
-1175.4
-1596.94
2283.3
-1614.05
-88.1797
-1636.44
-875.009
-1670.93
-1170.58
-1643.67
-2286.97
-1621.6
-3183.51
-1565.36
-4017.33
-1490.98
-4668.79
-1396.88
-5206.41
-1280.98
-5580.91
-1140.77
-5770.34
-974.15
-5706.57
-781.271
-5286.99
-567.091
-4354.06
-348.834
-2747.3
-195.237
-860.561
-183.128
-242.751
-107.407
26.5349
-72.2879
1091.84
-25.0966
314.085
-31.3793
892.738
73.807
-865.923
32.8587
60.0677
-2.05718
-279.72
64.404
-876.723
-20.8105
-411.077
101.389
-462.949
162.485
1621.74
162.968
1861.12
124.644
928.82
35.6268
-376.308
40.1532
-1786.15
145.203
2038.93
127.954
2743.52
35.0798
912.967
-990.988
-278.973
-768.113
-276.887
-893.914
-275.489
-961.992
-274.561
-1033.8
-273.928
-1098.16
-273.409
-1157.1
-272.859
-1210.41
-272.128
-1258.21
-271.091
-1300.42
-269.659
-1336.95
-267.74
-1367.84
-265.19
-1392.79
-261.841
-1411.22
-257.511
-1422.19
-252.014
-1424.87
-245.151
-1418.05
-236.726
-1400.03
-226.487
-1368.83
-214.098
-1321.2
-199.218
-1252.86
-181.43
-1157.47
-160.181
-1024.83
-134.712
-838.189
-103.844
-566.947
-65.2994
-148.15
-14.1299
555.74
87.1076
1992.53
-57.0683
2809.31
-125.731
1190.65
-185.42
1109.85
-208.332
1879.37
-231.948
2291.79
-254.293
2882.11
-279.179
3562.27
-310.449
4028
-374.065
4340.12
-463.088
5686.1
-560.359
8638.74
-683.365
10817.7
-740.987
13308.1
-600.448
18490.3
-675.011
16804.3
-939.496
-910.916
-1620.76
2964.56
-1576.36
-132.584
-1674.66
-776.708
-1710.72
-1134.52
-1685.38
-2312.31
-1663.24
-3205.65
-1609.97
-4070.6
-1537.38
-4741.38
-1445.64
-5298.16
-1331.7
-5694.85
-1192.53
-5909.51
-1025.15
-5873.94
-828.641
-5483.5
-606.426
-4576.27
-372.935
-2980.79
-198.949
-1034.55
-182.929
-258.771
-109.747
-46.6469
-70.824
1052.91
-30.851
274.112
-36.7202
898.608
77.2649
-979.908
28.0771
109.256
-7.59112
-244.052
61.5267
-945.841
-17.9141
-331.637
109.366
-590.23
157.859
1573.25
159.106
1859.87
121.466
966.46
47.4139
-302.256
40.9054
-1779.64
140.852
1938.99
127.731
2756.64
37.9509
1002.75
-949.785
-287.042
-771.328
-285.014
-895.942
-283.657
-963.349
-282.763
-1034.69
-282.17
-1098.75
-281.704
-1157.56
-281.219
-1210.89
-280.562
-1258.87
-279.601
-1301.38
-278.24
-1338.31
-276.394
-1369.68
-273.928
-1395.26
-270.672
-1414.47
-266.442
-1426.42
-261.046
-1430.27
-254.27
-1424.83
-245.907
-1408.39
-235.704
-1379.03
-223.32
-1333.59
-208.386
-1267.8
-190.467
-1175.39
-168.992
-1046.31
-143.167
-864.014
-111.695
-598.419
-72.0182
-187.826
-18.7357
502.457
88.6768
1885.12
-51.595
2949.58
-120.828
1259.88
-171.697
1160.72
-188.301
1895.98
-219.956
2323.45
-250.611
2912.77
-274.22
3585.88
-305.444
4059.22
-371.025
4405.7
-450.294
5765.37
-532.049
8720.5
-662.624
10948.3
-683.478
13329
-465.364
18272.1
-123.761
16462.7
-514.309
-520.368
-1172.6
3622.86
-1385.96
80.7697
-1701.9
-460.765
-1743.27
-1093.15
-1724.83
-2330.75
-1702.29
-3228.19
-1651.97
-4120.92
-1581.71
-4811.64
-1492.96
-5386.91
-1381.78
-5806.03
-1244.51
-6046.78
-1077.27
-6041.18
-877.924
-5682.85
-648.285
-4805.91
-400.304
-3228.77
-205.065
-1229.79
-182.386
-281.449
-116.601
-112.432
-68.8481
1005.16
-33.9891
239.253
-35.1982
899.817
77.3166
-1092.42
22.767
163.805
-8.72501
-212.56
57.7172
-1012.28
-6.14571
-267.774
113.605
-709.98
151.539
1535.32
153.834
1857.58
116.452
1003.84
55.9981
-241.802
41.9922
-1765.63
135.968
1845.01
126.402
2766.21
41.1614
1087.99
-906.774
-295.235
-774.427
-293.277
-897.9
-291.981
-964.645
-291.142
-1035.53
-290.61
-1099.28
-290.215
-1157.96
-289.812
-1211.29
-289.249
-1259.43
-288.388
-1302.24
-287.123
-1339.58
-285.372
-1371.43
-283.01
-1397.62
-279.87
-1417.61
-275.762
-1430.52
-270.492
-1435.54
-263.835
-1431.48
-255.566
-1416.66
-245.434
-1389.16
-233.087
-1345.93
-218.137
-1282.75
-200.129
-1193.4
-178.477
-1067.96
-152.361
-890.13
-120.367
-630.413
-79.5233
-228.67
-23.2886
446.223
87.5669
1774.26
-47.4709
3084.62
-110.747
1323.16
-167.981
1217.95
-183.488
1911.48
-214.423
2354.38
-246.254
2944.6
-267.861
3607.49
-297.843
4089.2
-363.733
4471.59
-433.268
5834.9
-497.483
8784.71
-634.694
11085.5
-619.416
13313.7
-350.255
18003
375.058
15737.4
-243.191
97.881
-764.626
4144.29
-1328.84
644.984
-1715.96
-73.6478
-1769.6
-1039.51
-1761.27
-2339.08
-1738.08
-3251.38
-1690.73
-4168.26
-1623.37
-4879.01
-1538.29
-5471.98
-1430.73
-5913.59
-1296.33
-6181.18
-1130.24
-6207.27
-929.011
-5884.08
-692.72
-5042.2
-430.997
-3490.49
-213.173
-1447.61
-177.085
-317.537
-129.816
-159.701
-66.5669
941.91
-34.5071
207.194
-27.8681
893.178
52.9588
-1173.25
17.7579
199.006
-5.941
-188.861
54.0163
-1072.24
8.64767
-222.405
93.6186
-794.951
143.797
1485.14
147.606
1853.77
110.927
1040.52
61.3758
-192.251
42.9408
-1747.2
130.617
1757.34
124.183
2772.64
46.189
1165.98
-863.639
-303.563
-777.4
-301.69
-899.774
-300.472
-965.863
-299.709
-1036.29