/*--------------------------------*- C++ -*----------------------------------*\
| =========                 |                                                 |
| \\      /  F ield         | OpenFOAM: The Open Source CFD Toolbox           |
|  \\    /   O peration     | Version:  4.1                                   |
|   \\  /    A nd           | Web:      www.OpenFOAM.org                      |
|    \\/     M anipulation  |                                                 |
\*---------------------------------------------------------------------------*/
FoamFile
{
    version     2.0;
    format      ascii;
    class       volScalarField;
    location    "18";
    object      p;
}
// * * * * * * * * * * * * * * * * * * * * * * * * * * * * * * * * * * * * * //

dimensions      [0 2 -2 0 0 0 0];

internalField   nonuniform List<scalar> 
6785
(
1.76663e+118
1.76663e+118
1.76662e+118
1.76664e+118
1.76664e+118
1.76663e+118
1.76663e+118
1.76663e+118
1.76663e+118
1.76663e+118
1.76663e+118
1.76663e+118
1.76663e+118
1.76663e+118
1.76664e+118
1.76664e+118
1.76664e+118
1.76664e+118
1.76664e+118
1.76664e+118
1.76664e+118
1.76664e+118
1.76664e+118
1.76664e+118
1.76664e+118
1.76664e+118
1.76664e+118
1.76664e+118
1.76665e+118
1.76665e+118
1.76667e+118
1.76667e+118
1.76667e+118
1.76667e+118
1.76667e+118
1.76667e+118
1.76666e+118
1.76666e+118
1.76667e+118
1.76667e+118
1.76667e+118
1.76667e+118
1.76667e+118
1.76667e+118
1.76667e+118
1.76668e+118
1.76668e+118
1.76668e+118
1.76668e+118
1.76668e+118
1.76668e+118
1.76668e+118
1.76668e+118
1.76668e+118
1.76668e+118
1.76668e+118
1.76668e+118
1.76668e+118
1.76668e+118
1.76669e+118
1.76668e+118
1.76668e+118
1.76668e+118
1.76669e+118
1.76669e+118
1.76669e+118
1.76669e+118
1.76669e+118
1.76669e+118
1.76669e+118
1.76669e+118
1.76669e+118
1.76669e+118
1.76669e+118
1.76669e+118
1.76669e+118
1.76669e+118
1.76669e+118
1.76669e+118
1.76669e+118
1.76669e+118
1.76669e+118
1.76669e+118
1.76669e+118
1.76669e+118
1.76669e+118
1.76669e+118
1.76669e+118
1.76669e+118
1.76669e+118
1.7667e+118
1.7667e+118
1.7667e+118
1.7667e+118
1.7667e+118
1.7667e+118
1.7667e+118
1.7667e+118
1.7667e+118
1.7667e+118
1.7667e+118
1.7667e+118
1.7667e+118
1.7667e+118
1.7667e+118
1.7667e+118
1.7667e+118
1.7667e+118
1.7667e+118
1.7667e+118
1.7667e+118
1.7667e+118
1.7667e+118
1.7667e+118
1.7667e+118
1.7667e+118
1.7667e+118
1.7667e+118
1.7667e+118
1.7667e+118
1.7667e+118
1.7667e+118
1.7667e+118
1.7667e+118
1.7667e+118
1.7667e+118
1.7667e+118
1.7667e+118
1.7667e+118
1.7667e+118
1.7667e+118
1.7667e+118
1.7667e+118
1.7667e+118
1.7667e+118
1.7667e+118
1.7667e+118
1.7667e+118
1.7667e+118
1.7667e+118
1.7667e+118
1.7667e+118
1.7667e+118
1.76669e+118
1.76669e+118
1.76669e+118
1.76669e+118
1.76669e+118
1.76669e+118
1.7667e+118
1.76668e+118
1.76668e+118
1.76668e+118
1.76668e+118
1.76668e+118
1.76668e+118
1.76668e+118
1.76668e+118
1.76668e+118
1.76668e+118
1.76668e+118
1.76668e+118
1.76668e+118
1.76668e+118
1.76668e+118
1.76667e+118
1.76667e+118
1.76667e+118
1.76666e+118
1.76666e+118
1.76666e+118
1.76666e+118
1.76666e+118
1.76667e+118
1.76667e+118
1.76667e+118
1.76667e+118
1.76667e+118
1.76668e+118
1.76668e+118
1.76663e+118
1.76662e+118
1.76662e+118
1.76662e+118
1.76663e+118
1.76665e+118
1.76666e+118
1.76667e+118
1.76669e+118
1.7667e+118
1.7667e+118
1.76671e+118
1.76671e+118
1.76671e+118
1.76671e+118
1.76656e+118
1.76661e+118
1.76666e+118
1.76669e+118
1.7667e+118
1.76669e+118
1.76667e+118
1.76663e+118
1.7666e+118
1.76656e+118
1.76653e+118
1.76649e+118
1.76647e+118
1.76646e+118
1.76647e+118
1.76742e+118
1.76733e+118
1.76708e+118
1.76683e+118
1.76656e+118
1.76629e+118
1.76602e+118
1.76576e+118
1.7655e+118
1.76526e+118
1.76503e+118
1.76476e+118
1.7644e+118
1.76387e+118
1.76334e+118
1.84071e+118
1.84058e+118
1.84106e+118
1.84089e+118
1.84124e+118
1.84161e+118
1.84225e+118
1.8423e+118
1.8423e+118
1.84202e+118
1.84264e+118
1.84258e+118
1.84203e+118
1.84272e+118
1.84242e+118
1.8418e+118
1.84049e+118
1.84086e+118
1.83988e+118
1.83793e+118
1.83791e+118
1.83641e+118
1.83453e+118
1.83207e+118
1.83193e+118
1.82998e+118
1.82763e+118
1.82499e+118
1.82509e+118
1.82253e+118
1.81934e+118
1.81919e+118
1.81652e+118
1.81341e+118
1.81081e+118
1.81137e+118
1.80824e+118
1.80506e+118
1.80533e+118
1.80232e+118
1.79879e+118
1.79668e+118
1.79751e+118
1.79452e+118
1.79097e+118
1.78919e+118
1.79075e+118
1.7873e+118
1.78477e+118
1.78581e+118
1.7827e+118
1.77899e+118
1.77784e+118
1.7795e+118
1.77652e+118
1.77291e+118
1.77208e+118
1.77446e+118
1.77099e+118
1.7692e+118
1.77085e+118
1.76779e+118
1.76415e+118
1.76378e+118
1.76652e+118
1.76308e+118
1.7617e+118
1.76357e+118
1.76059e+118
1.75698e+118
1.75706e+118
1.75942e+118
1.75658e+118
1.75309e+118
1.75336e+118
1.75625e+118
1.75286e+118
1.75176e+118
1.75463e+118
1.75087e+118
1.75371e+118
1.75887e+118
1.76264e+118
1.77069e+118
1.77088e+118
1.7702e+118
1.76949e+118
1.76887e+118
1.76832e+118
1.76777e+118
1.76725e+118
1.76663e+118
1.76618e+118
1.7682e+118
1.76815e+118
1.76783e+118
1.76743e+118
1.76701e+118
1.76655e+118
1.76612e+118
1.76558e+118
1.76522e+118
1.76744e+118
1.76746e+118
1.76721e+118
1.76686e+118
1.76648e+118
1.7661e+118
1.76569e+118
1.76529e+118
1.7648e+118
1.76439e+118
1.7666e+118
1.76663e+118
1.76638e+118
1.76604e+118
1.76567e+118
1.76527e+118
1.76491e+118
1.76446e+118
1.76405e+118
1.7662e+118
1.76623e+118
1.766e+118
1.76567e+118
1.76532e+118
1.76493e+118
1.76456e+118
1.76411e+118
1.76361e+118
1.76576e+118
1.7658e+118
1.76558e+118
1.76527e+118
1.7649e+118
1.7645e+118
1.76411e+118
1.76366e+118
1.76304e+118
1.76512e+118
1.76512e+118
1.76488e+118
1.76455e+118
1.76419e+118
1.76375e+118
1.7632e+118
1.76267e+118
1.76208e+118
1.76094e+118
1.76306e+118
1.763e+118
1.76266e+118
1.76219e+118
1.76166e+118
1.76093e+118
1.75966e+118
1.75775e+118
1.75236e+118
1.7539e+118
1.75314e+118
1.74903e+118
1.74651e+118
1.7517e+118
1.75172e+118
1.75043e+118
1.75035e+118
1.74974e+118
1.75405e+118
1.75425e+118
1.75277e+118
1.75603e+118
1.75574e+118
1.75462e+118
1.75448e+118
1.75395e+118
1.757e+118
1.75648e+118
1.75518e+118
1.75473e+118
1.75383e+118
1.75658e+118
1.75634e+118
1.75467e+118
1.75687e+118
1.75587e+118
1.75488e+118
1.75457e+118
1.75484e+118
1.76142e+118
1.76259e+118
1.7643e+118
1.76311e+118
1.75961e+118
1.76176e+118
1.75288e+118
1.73863e+118
1.73847e+118
1.73014e+118
1.71785e+118
1.71333e+118
1.70647e+118
1.71946e+118
1.73039e+118
1.73308e+118
1.74723e+118
1.75465e+118
1.78388e+118
1.8148e+118
1.83389e+118
1.87101e+118
1.88238e+118
1.88804e+118
1.91969e+118
1.94507e+118
1.98112e+118
2.0154e+118
2.03551e+118
2.08246e+118
2.09608e+118
2.0343e+118
2.06226e+118
2.01807e+118
1.75576e+118
1.68332e+118
1.57646e+118
1.54487e+118
1.40463e+118
7.01152e+117
5.15755e+117
3.09058e+117
2.62023e+117
9.50932e+116
-1.08015e+118
-1.07606e+118
-1.39453e+118
-3.19258e+118
-3.37194e+118
-3.24694e+118
-1.88368e+118
1.54119e+118
5.16857e+112
3.34191e+112
8.61534e+112
2.62818e+113
-1.68046e+113
-2.67103e+113
2.83284e+112
5.06056e+113
6.05735e+113
5.23593e+113
1.65016e+113
3.42041e+113
9.84911e+112
1.09996e+114
3.84282e+113
9.57351e+113
1.44127e+113
4.47427e+113
6.32584e+113
1.49835e+113
-3.94274e+113
-5.75441e+113
-1.24237e+113
-7.43201e+112
1.43903e+112
-8.82319e+112
-1.19409e+112
1.71433e+113
6.73399e+112
7.72461e+111
4.04259e+112
1.43271e+113
1.37047e+113
6.37911e+112
-2.03399e+113
-1.15904e+113
-7.52018e+111
1.32977e+113
-9.45392e+111
-4.25525e+113
-4.21919e+113
-2.32911e+113
-5.0532e+113
3.49438e+112
1.57884e+112
-3.62692e+112
9.62254e+112
1.66405e+113
1.92484e+113
2.2699e+113
1.76987e+113
2.0381e+113
3.59834e+112
-2.38574e+113
-2.58099e+113
-2.63268e+113
-2.50603e+113
-2.33843e+113
-2.24179e+113
-2.15707e+113
-2.09812e+113
-2.11376e+113
-2.25715e+113
-2.59215e+113
-3.21445e+113
-4.25341e+113
-5.93279e+113
-8.58179e+113
-1.27243e+114
-1.90015e+114
-2.8013e+114
-3.93101e+114
-4.59739e+114
-3.1233e+114
-6.17508e+113
7.36385e+114
-1.39762e+115
-3.0275e+116
-3.20889e+117
5.46327e+112
6.30782e+112
1.3746e+113
1.71914e+113
-2.09149e+113
-3.27056e+113
6.22018e+112
5.54441e+113
8.0005e+113
6.38827e+113
2.16968e+113
3.66773e+113
3.92043e+112
1.12537e+114
5.1103e+113
9.1972e+113
1.57963e+113
3.33595e+113
5.89471e+113
1.66864e+113
-4.99942e+113
-6.2382e+113
-2.03117e+113
-1.4831e+113
-3.95155e+112
-1.58277e+113
-1.82977e+112
2.2142e+113
1.33137e+113
5.05983e+112
5.07757e+112
1.8137e+113
1.21885e+113
-1.23247e+112
-2.17811e+113
-1.66851e+113
-1.16098e+113
3.90663e+112
-2.07989e+113
-5.56314e+113
-5.03963e+113
-3.16575e+113
-5.37502e+113
-5.05595e+112
-9.832e+112
-7.10188e+112
9.14086e+112
1.7767e+113
2.31742e+113
2.90212e+113
2.72668e+113
1.94451e+113
2.23619e+112
-3.19559e+113
-3.42906e+113
-3.46886e+113
-3.34867e+113
-3.15028e+113
-3.05843e+113
-3.02445e+113
-3.03234e+113
-3.13587e+113
-3.40809e+113
-3.94249e+113
-4.8822e+113
-6.42488e+113
-8.90521e+113
-1.28186e+114
-1.89506e+114
-2.82986e+114
-4.19189e+114
-5.96744e+114
-7.42258e+114
-6.56817e+114
-5.95193e+114
-3.03095e+115
-3.41826e+116
-1.75783e+117
-6.04293e+117
4.04599e+112
6.30253e+112
1.46277e+113
8.60716e+112
-1.8226e+113
-3.28469e+113
4.61344e+112
5.20768e+113
8.67916e+113
7.10804e+113
3.02155e+113
3.89527e+113
-2.53101e+112
1.01693e+114
5.81801e+113
7.57018e+113
1.76084e+113
2.62965e+113
5.07774e+113
2.00102e+113
-4.45119e+113
-5.70163e+113
-2.69037e+113
-2.07725e+113
-7.05534e+112
-1.87332e+113
1.6634e+112
2.31094e+113
1.79192e+113
9.27027e+112
6.67553e+112
2.05589e+113
9.99245e+112
-7.55141e+112
-1.90314e+113
-1.89967e+113
-1.92297e+113
-7.06224e+112
-3.78964e+113
-6.38114e+113
-5.12794e+113
-3.87052e+113
-5.67504e+113
-1.80738e+113
-1.84934e+113
-2.66647e+112
1.05485e+113
1.93346e+113
2.70046e+113
3.36788e+113
3.34005e+113
1.61021e+113
2.77585e+111
-3.47114e+113
-3.72304e+113
-3.79399e+113
-3.68575e+113
-3.46558e+113
-3.34341e+113
-3.295e+113
-3.29746e+113
-3.40363e+113
-3.69185e+113
-4.26397e+113
-5.27451e+113
-6.93875e+113
-9.62009e+113
-1.38604e+114
-2.05231e+114
-3.07391e+114
-4.58173e+114
-6.62288e+114
-8.71461e+114
-9.1332e+114
-9.89422e+114
-5.15654e+115
-4.958e+116
-2.07001e+117
-4.51717e+117
1.93467e+112
6.25068e+112
1.26765e+113
3.48535e+112
-1.41508e+113
-2.87525e+113
7.95594e+112
5.33507e+113
9.36074e+113
7.91514e+113
4.39725e+113
4.53979e+113
1.81005e+112
1.02528e+114
6.64031e+113
6.38154e+113
2.11139e+113
2.19847e+113
3.35345e+113
1.98889e+113
-3.735e+113
-5.21416e+113
-3.31911e+113
-2.54616e+113
-8.82867e+112
-1.96346e+113
5.59888e+112
2.39178e+113
2.2072e+113
1.27766e+113
9.33318e+112
2.40457e+113
8.4012e+112
-1.27788e+113
-1.6596e+113
-1.93848e+113
-2.32462e+113
-1.76918e+113
-5.11992e+113
-7.07456e+113
-5.02892e+113
-4.43132e+113
-6.15463e+113
-3.00405e+113
-2.37445e+113
2.07908e+112
1.23565e+113
2.20614e+113
3.20352e+113
3.81003e+113
3.74876e+113
1.27614e+113
-2.77777e+112
-3.72535e+113
-3.96549e+113
-4.06758e+113
-3.9751e+113
-3.732e+113
-3.56498e+113
-3.47831e+113
-3.45095e+113
-3.53425e+113
-3.809e+113
-4.38165e+113
-5.41125e+113
-7.1211e+113
-9.88853e+113
-1.42812e+114
-2.12116e+114
-3.19197e+114
-4.79906e+114
-7.07396e+114
-9.92908e+114
-1.21162e+115
-1.36603e+115
-6.48026e+115
-5.4638e+116
-1.60516e+117
-4.20368e+116
1.83174e+111
5.234e+112
9.07484e+112
8.2625e+111
-1.04712e+113
-2.41827e+113
1.1206e+113
5.22011e+113
9.86191e+113
8.66766e+113
5.7083e+113
5.25157e+113
1.24095e+113
1.09707e+114
7.70151e+113
5.52295e+113
1.66077e+113
1.2986e+113
1.00616e+113
1.141e+113
-3.92244e+113
-5.51451e+113
-3.9914e+113
-3.08093e+113
-1.14099e+113
-1.93555e+113
7.42505e+112
2.36801e+113
2.50216e+113
1.56427e+113
1.25808e+113
2.69983e+113
5.62068e+112
-1.6863e+113
-1.66534e+113
-2.03185e+113
-2.79704e+113
-2.82287e+113
-6.24673e+113
-7.80618e+113
-5.19402e+113
-4.95454e+113
-6.72761e+113
-4.33588e+113
-2.84404e+113
-1.35987e+111
1.29076e+113
2.50559e+113
3.68902e+113
4.18795e+113
3.90608e+113
9.52711e+112
-7.14643e+112
-4.04989e+113
-4.24371e+113
-4.35923e+113
-4.28266e+113
-4.01307e+113
-3.79588e+113
-3.66455e+113
-3.60067e+113
-3.6545e+113
-3.90958e+113
-4.47675e+113
-5.51914e+113
-7.26761e+113
-1.01134e+114
-1.46507e+114
-2.1845e+114
-3.30591e+114
-5.02106e+114
-7.55741e+114
-1.12569e+115
-1.5459e+115
-1.74846e+115
-7.4674e+115
-5.23723e+116
-6.93192e+116
3.85536e+117
-7.02471e+111
3.97038e+112
6.25666e+112
-1.43061e+111
-7.17136e+112
-1.91423e+113
1.49173e+113
5.15373e+113
1.02796e+114
9.51321e+113
7.1183e+113
6.14414e+113
2.86538e+113
1.22168e+114
9.17071e+113
5.0466e+113
1.01926e+113
-1.08584e+112
-1.01007e+113
-1.62052e+112
-4.69848e+113
-6.03684e+113
-4.66756e+113
-3.58756e+113
-1.43768e+113
-1.79645e+113
1.0057e+113
2.40579e+113
2.81038e+113
1.85569e+113
1.5834e+113
2.86084e+113
2.97867e+112
-2.02223e+113
-1.88853e+113
-2.21898e+113
-3.37509e+113
-3.74999e+113
-7.18449e+113
-8.52425e+113
-5.67235e+113
-5.35176e+113
-7.09111e+113
-5.59267e+113
-3.35652e+113
-7.35114e+112
1.19173e+113
2.80375e+113
4.13497e+113
4.55066e+113
3.92302e+113
6.9742e+112
-1.25119e+113
-4.44074e+113
-4.56342e+113
-4.6765e+113
-4.61109e+113
-4.30775e+113
-4.03605e+113
-3.85655e+113
-3.75168e+113
-3.77153e+113
-4.00325e+113
-4.5622e+113
-5.6155e+113
-7.40176e+113
-1.03271e+114
-1.50144e+114
-2.24872e+114
-3.42424e+114
-5.2566e+114
-8.071e+114
-1.25965e+115
-1.88692e+115
-2.15688e+115
-8.38157e+115
-4.40582e+116
4.74481e+116
8.1269e+117
-1.09466e+112
2.7969e+112
4.70208e+112
-1.78206e+111
-4.42829e+112
-1.36937e+113
1.88389e+113
5.13329e+113
1.06944e+114
1.05637e+114
8.57184e+113
7.16559e+113
4.81763e+113
1.37078e+114
1.07524e+114
4.74063e+113
2.43519e+112
-1.86348e+113
-2.75939e+113
-1.7823e+113
-5.66608e+113
-6.66167e+113
-5.38934e+113
-3.93517e+113
-1.7295e+113
-1.52787e+113
1.40296e+113
2.57148e+113
3.14585e+113
2.17115e+113
1.8945e+113
2.92457e+113
5.83768e+111
-2.30434e+113
-2.21833e+113
-2.4837e+113
-3.91292e+113
-4.65266e+113
-7.98202e+113
-9.22648e+113
-6.26596e+113
-5.61879e+113
-7.40617e+113
-6.67105e+113
-3.9348e+113
-1.70097e+113
9.31034e+112
3.079e+113
4.53246e+113
4.92495e+113
3.87024e+113
5.26381e+112
-1.83772e+113
-4.88794e+113
-4.921e+113
-5.01847e+113
-4.96046e+113
-4.61442e+113
-4.28293e+113
-4.05141e+113
-3.90075e+113
-3.88171e+113
-4.08609e+113
-4.63365e+113
-5.6951e+113
-7.51668e+113
-1.05198e+114
-1.5357e+114
-2.31122e+114
-3.54209e+114
-5.49485e+114
-8.58792e+114
-1.38622e+115
-2.2075e+115
-2.63172e+115
-9.29996e+115
-3.06146e+116
1.7153e+117
1.18196e+118
-1.23048e+112
1.89719e+112
4.30346e+112
3.52183e+111
-2.24902e+112
-7.73919e+112
2.27258e+113
5.20217e+113
1.10863e+114
1.17871e+114
1.00513e+114
8.2455e+113
6.92999e+113
1.53659e+114
1.22627e+114
4.57875e+113
-5.42602e+112
-3.68798e+113
-4.39805e+113
-3.46643e+113
-6.66465e+113
-7.21061e+113
-6.05262e+113
-4.05316e+113
-1.9054e+113
-1.16555e+113
1.90389e+113
2.8425e+113
3.47927e+113
2.50945e+113
2.17872e+113
2.9214e+113
-1.97239e+112
-2.5583e+113
-2.627e+113
-2.76607e+113
-4.39023e+113
-5.58711e+113
-8.65555e+113
-9.92978e+113
-6.97195e+113
-5.95703e+113
-7.91047e+113
-7.5519e+113
-4.50524e+113
-2.5422e+113
6.27856e+112
3.30802e+113
4.86991e+113
5.30444e+113
3.7667e+113
3.54888e+112
-2.46298e+113
-5.39101e+113
-5.31445e+113
-5.38438e+113
-5.33218e+113
-4.93323e+113
-4.53528e+113
-4.24684e+113
-4.04477e+113
-3.9813e+113
-4.15389e+113
-4.68641e+113
-5.75257e+113
-7.60581e+113
-1.06828e+114
-1.56663e+114
-2.37009e+114
-3.65592e+114
-5.72753e+114
-9.08852e+114
-1.50209e+115
-2.47889e+115
-3.23707e+115
-1.01178e+116
-1.18206e+116
3.00348e+117
1.48564e+118
-1.26563e+112
1.27474e+112
4.42157e+112
1.36601e+112
-7.15338e+111
-1.11245e+112
2.67576e+113
5.43132e+113
1.14579e+114
1.31725e+114
1.15463e+114
9.27385e+113
9.04034e+113
1.72099e+114
1.35964e+114
4.52023e+113
-1.25516e+113
-5.32733e+113
-5.94573e+113
-5.09323e+113
-7.68903e+113
-7.70991e+113
-6.63409e+113
-4.00493e+113
-1.95508e+113
-7.50282e+112
2.46572e+113
3.18466e+113
3.7981e+113
2.85642e+113
2.45554e+113
2.84873e+113
-4.6854e+112
-2.83549e+113
-3.10916e+113
-3.07624e+113
-4.84706e+113
-6.47503e+113
-9.1896e+113
-1.06245e+114
-7.7748e+113
-6.46742e+113
-8.56992e+113
-8.30062e+113
-5.02711e+113
-3.20063e+113
3.59596e+112
3.45539e+113
5.14158e+113
5.6805e+113
3.62113e+113
5.84517e+111
-3.154e+113
-5.95639e+113
-5.74387e+113
-5.77607e+113
-5.72982e+113
-5.26648e+113
-4.79461e+113
-4.44379e+113
-4.18436e+113
-4.07086e+113
-4.20739e+113
-4.72149e+113
-5.78906e+113
-7.67025e+113
-1.08169e+114
-1.59417e+114
-2.42493e+114
-3.76429e+114
-5.94994e+114
-9.56004e+114
-1.60792e+115
-2.68532e+115
-4.03677e+115
-1.05259e+116
1.3004e+116
4.31226e+117
1.73839e+118
-1.25071e+112
7.95854e+111
4.50168e+112
3.0163e+112
6.63826e+111
6.28754e+112
3.11227e+113
5.78338e+113
1.18513e+114
1.47092e+114
1.29919e+114
1.01789e+114
1.09741e+114
1.90901e+114
1.4567e+114
4.45975e+113
-1.87965e+113
-6.75993e+113
-7.53316e+113
-6.75893e+113
-8.72164e+113
-8.32832e+113
-7.15611e+113
-3.81565e+113
-1.88551e+113
-2.80187e+112
3.0599e+113
3.58184e+113
4.11035e+113
3.20456e+113
2.7422e+113
2.71707e+113
-7.01091e+112
-3.15679e+113
-3.64612e+113
-3.48797e+113
-5.2927e+113
-7.27743e+113
-9.65294e+113
-1.13135e+114
-8.66272e+113
-7.09434e+113
-9.27473e+113
-8.9393e+113
-5.47742e+113
-3.68848e+113
1.50027e+112
3.51586e+113
5.37648e+113
6.04266e+113
3.42203e+113
-3.53651e+112
-3.91389e+113
-6.59563e+113
-6.21065e+113
-6.19607e+113
-6.15715e+113
-5.61571e+113
-5.0611e+113
-4.64138e+113
-4.31779e+113
-4.14807e+113
-4.24402e+113
-4.73616e+113
-5.80163e+113
-7.70666e+113
-1.0918e+114
-1.61779e+114
-2.47488e+114
-3.8655e+114
-6.15792e+114
-9.99188e+114
-1.70547e+115
-2.83148e+115
-5.06585e+115
-1.0003e+116
4.40314e+116
5.54958e+117
1.90958e+118
-1.17272e+112
4.38068e+111
4.64775e+112
5.50153e+112
3.12184e+112
1.43974e+113
3.57704e+113
6.21531e+113
1.23606e+114
1.64019e+114
1.43802e+114
1.10336e+114
1.27587e+114
2.08454e+114
1.50164e+114
4.33002e+113
-2.49859e+113
-8.09735e+113
-9.20473e+113
-8.46703e+113
-9.66643e+113
-9.03768e+113
-7.58745e+113
-3.54583e+113
-1.75666e+113
2.41406e+112
3.65708e+113
4.00981e+113
4.42858e+113
3.54994e+113
3.02552e+113
2.56024e+113
-8.7735e+112
-3.51015e+113
-4.21926e+113
-4.02964e+113
-5.73657e+113
-8.07977e+113
-1.01498e+114
-1.19876e+114
-9.63568e+113
-7.84244e+113
-9.96787e+113
-9.45421e+113
-5.77841e+113
-3.94095e+113
1.11379e+111
3.51538e+113
5.5811e+113
6.37566e+113
3.15253e+113
-8.87091e+112
-4.72084e+113
-7.28742e+113
-6.71503e+113
-6.65082e+113
-6.62036e+113
-5.98423e+113
-5.33717e+113
-4.84158e+113
-4.44662e+113
-4.21443e+113
-4.26555e+113
-4.73259e+113
-5.79274e+113
-7.71766e+113
-1.09886e+114
-1.63769e+114
-2.51993e+114
-3.95898e+114
-6.34927e+114
-1.03775e+115
-1.7955e+115
-2.9341e+115
-6.31172e+115
-7.89463e+115
8.16025e+116
6.71737e+117
2.01619e+118
-1.00488e+112
2.11478e+111
4.99564e+112
8.94034e+112
7.4833e+112
2.30666e+113
4.07847e+113
6.77992e+113
1.30952e+114
1.82258e+114
1.57845e+114
1.19934e+114
1.46019e+114
2.23504e+114
1.5174e+114
4.11699e+113
-3.28528e+113
-9.40373e+113
-1.06873e+114
-1.00797e+114
-1.05156e+114
-9.75959e+113
-7.87214e+113
-3.24432e+113
-1.59806e+113
8.21549e+112
4.22992e+113
4.43955e+113
4.76605e+113
3.8916e+113
3.28413e+113
2.40471e+113
-1.02056e+113
-3.88414e+113
-4.79959e+113
-4.62509e+113
-6.1782e+113
-8.85904e+113
-1.07468e+114
-1.26388e+114
-1.06762e+114
-8.64257e+113
-1.07375e+114
-9.8383e+113
-5.89676e+113
-3.9462e+113
-3.87517e+111
3.55056e+113
5.73227e+113
6.66735e+113
2.77792e+113
-1.648e+113
-5.62796e+113
-7.99595e+113
-7.24769e+113
-7.15113e+113
-7.12521e+113
-6.37384e+113
-5.62279e+113
-5.04347e+113
-4.56887e+113
-4.26723e+113
-4.26898e+113
-4.7076e+113
-5.75899e+113
-7.69937e+113
-1.10241e+114
-1.65327e+114
-2.55924e+114
-4.04336e+114
-6.52125e+114
-1.07121e+115
-1.87558e+115
-3.02446e+115
-7.69406e+115
-3.46342e+115
1.25954e+117
7.81374e+117
2.07706e+118
-7.25535e+111
1.31883e+111
5.60642e+112
1.33142e+113
1.36843e+113
3.21105e+113
4.65853e+113
7.50632e+113
1.41083e+114
2.00845e+114
1.72433e+114
1.31404e+114
1.66273e+114
2.36351e+114
1.51636e+114
3.79404e+113
-4.2721e+113
-1.05469e+114
-1.17842e+114
-1.15528e+114
-1.13335e+114
-1.04719e+114
-8.02114e+113
-2.90974e+113
-1.3725e+113
1.46515e+113
4.77993e+113
4.87691e+113
5.12807e+113
4.24369e+113
3.5182e+113
2.27547e+113
-1.1456e+113
-4.25885e+113
-5.34627e+113
-5.13844e+113
-6.60176e+113
-9.59959e+113
-1.14597e+114
-1.33177e+114
-1.17865e+114
-9.47622e+113
-1.16208e+114
-1.0055e+114
-5.89537e+113
-3.59514e+113
4.79826e+111
3.72621e+113
5.84819e+113
6.88545e+113
2.29764e+113
-2.7501e+113
-6.74473e+113
-8.72367e+113
-7.80909e+113
-7.72043e+113
-7.68003e+113
-6.78896e+113
-5.9208e+113
-5.24965e+113
-4.68648e+113
-4.30828e+113
-4.2565e+113
-4.66384e+113
-5.70332e+113
-7.65492e+113
-1.10277e+114
-1.66484e+114
-2.59299e+114
-4.11861e+114
-6.67278e+114
-1.09971e+115
-1.93866e+115
-3.14545e+115
-9.05864e+115
4.08216e+115
1.77086e+117
8.80304e+117
2.07475e+118
-3.24543e+111
2.30168e+111
6.53006e+112
1.85098e+113
2.14987e+113
4.14304e+113
5.35605e+113
8.38764e+113
1.54126e+114
2.19221e+114
1.87777e+114
1.45193e+114
1.87482e+114
2.47548e+114
1.50654e+114
3.38254e+113
-5.32691e+113
-1.14346e+114
-1.26488e+114
-1.29926e+114
-1.21917e+114
-1.11431e+114
-8.02369e+113
-2.54668e+113
-1.0519e+113
2.15695e+113
5.31447e+113
5.32468e+113
5.50843e+113
4.60907e+113
3.74136e+113
2.19222e+113
-1.25758e+113
-4.619e+113
-5.85599e+113
-5.55523e+113
-7.04404e+113
-1.0407e+114
-1.22923e+114
-1.40669e+114
-1.29654e+114
-1.04425e+114
-1.228e+114
-9.9591e+113
-5.80379e+113
-2.87809e+113
2.37632e+112
3.93601e+113
6.04055e+113
6.99425e+113
1.78515e+113
-4.125e+113
-8.027e+113
-9.52425e+113
-8.44365e+113
-8.39121e+113
-8.2904e+113
-7.23023e+113
-6.23146e+113
-5.45932e+113
-4.79724e+113
-4.33459e+113
-4.22481e+113
-4.59788e+113
-5.62211e+113
-7.58018e+113
-1.09944e+114
-1.6718e+114
-2.62043e+114
-4.1838e+114
-6.80159e+114
-1.12376e+115
-1.97321e+115
-3.35446e+115
-1.0172e+116
1.54794e+116
2.34696e+117
9.69142e+117
2.04137e+118
2.05495e+111
5.50967e+111
7.79881e+112
2.43228e+113
3.04759e+113
5.09531e+113
6.19885e+113
9.41724e+113
1.69849e+114
2.37389e+114
2.04099e+114
1.61211e+114
2.07742e+114
2.56825e+114
1.49299e+114
2.93298e+113
-6.3449e+113
-1.223e+114
-1.34358e+114
-1.43444e+114
-1.30664e+114
-1.17079e+114
-7.85602e+113
-2.16382e+113
-6.41884e+112
2.86815e+113
5.83951e+113
5.75811e+113
5.90029e+113
4.95804e+113
3.96626e+113
2.14734e+113
-1.37059e+113
-4.96591e+113
-6.35465e+113
-5.97829e+113
-7.54137e+113
-1.12571e+114
-1.32176e+114
-1.49095e+114
-1.40727e+114
-1.16374e+114
-1.26728e+114
-9.55535e+113
-5.6035e+113
-2.20634e+113
4.49588e+112
4.09507e+113
6.35595e+113
6.99389e+113
1.32242e+113
-5.58891e+113
-9.27315e+113
-1.03891e+114
-9.19298e+113
-9.20704e+113
-8.96594e+113
-7.70167e+113
-6.55889e+113
-5.67567e+113
-4.90335e+113
-4.34825e+113
-4.1764e+113
-4.51273e+113
-5.51871e+113
-7.47875e+113
-1.0928e+114
-1.67454e+114
-2.64191e+114
-4.23953e+114
-6.90688e+114
-1.14475e+115
-1.96485e+115
-3.74402e+115
-1.06884e+116
3.13921e+116
2.98454e+117
1.04756e+118
1.9763e+118
8.71786e+111
1.13625e+112
9.43001e+112
3.0569e+113
4.01296e+113
6.05965e+113
7.16331e+113
1.05997e+114
1.87375e+114
2.5558e+114
2.21497e+114
1.78967e+114
2.25734e+114
2.63947e+114
1.47453e+114
2.43827e+113
-7.28484e+113
-1.31124e+114
-1.42015e+114
-1.54871e+114
-1.38988e+114
-1.21408e+114
-7.54965e+113
-1.78136e+113
-1.66425e+112
3.56569e+113
6.36051e+113
6.18842e+113
6.30145e+113
5.2749e+113
4.20504e+113
2.12447e+113
-1.49607e+113
-5.29991e+113
-6.84671e+113
-6.44154e+113
-8.08713e+113
-1.21443e+114
-1.41946e+114
-1.58224e+114
-1.49567e+114
-1.30814e+114
-1.29768e+114
-8.94757e+113
-5.37982e+113
-1.80686e+113
6.57479e+112
4.21867e+113
6.69181e+113
6.83259e+113
1.02229e+113
-6.9499e+113
-1.0454e+114
-1.12024e+114
-1.01694e+114
-1.02761e+114
-9.72157e+113
-8.2092e+113
-6.9042e+113
-5.89811e+113
-5.00241e+113
-4.34589e+113
-4.10762e+113
-4.40465e+113
-5.38923e+113
-7.34618e+113
-1.08232e+114
-1.67247e+114
-2.65677e+114
-4.28537e+114
-6.98664e+114
-1.16463e+115
-1.90132e+115
-4.40711e+115
-1.01492e+116
5.23851e+116
3.67874e+117
1.11779e+118
1.90847e+118
1.67686e+112
2.01121e+112
1.14376e+113
3.71697e+113
5.02368e+113
7.03792e+113
8.20189e+113
1.1921e+114
2.06231e+114
2.74335e+114
2.399e+114
1.97981e+114
2.41391e+114
2.68578e+114
1.45096e+114
1.89679e+113
-8.12236e+113
-1.41618e+114
-1.49801e+114
-1.64672e+114
-1.46311e+114
-1.24378e+114
-7.13651e+113
-1.43357e+113
3.55284e+112
4.22681e+113
6.87533e+113
6.62638e+113
6.69248e+113
5.5776e+113
4.45262e+113
2.1244e+113
-1.63592e+113
-5.61467e+113
-7.32227e+113
-6.92672e+113
-8.6708e+113
-1.30792e+114
-1.52098e+114
-1.6775e+114
-1.56358e+114
-1.45389e+114
-1.32774e+114
-8.14018e+113
-5.10145e+113
-1.59384e+113
8.79022e+112
4.21121e+113
6.83025e+113
6.44901e+113
7.7951e+112
-8.24422e+113
-1.1713e+114
-1.19887e+114
-1.14061e+114
-1.16562e+114
-1.05581e+114
-8.75954e+113
-7.27193e+113
-6.13057e+113
-5.09689e+113
-4.32974e+113
-4.02117e+113
-4.27698e+113
-5.23738e+113
-7.18646e+113
-1.06844e+114
-1.66607e+114
-2.66556e+114
-4.32243e+114
-7.04139e+114
-1.18559e+115
-1.79682e+115
-5.34063e+115
-8.02635e+115
7.89258e+116
4.42691e+117
1.18361e+118
1.8453e+118
2.61826e+112
3.1861e+112
1.38219e+113
4.40448e+113
6.07785e+113
8.03498e+113
9.30665e+113
1.33648e+114
2.26537e+114
2.94017e+114
2.59136e+114
2.17433e+114
2.54517e+114
2.70215e+114
1.42433e+114
1.32342e+113
-8.92346e+113
-1.53642e+114
-1.57567e+114
-1.73624e+114
-1.5316e+114
-1.2621e+114
-6.63847e+113
-1.13523e+113
9.09541e+112
4.84641e+113
7.37234e+113
7.05122e+113
7.04418e+113
5.90115e+113
4.69356e+113
2.15117e+113
-1.78432e+113
-5.90682e+113
-7.77429e+113
-7.42543e+113
-9.28809e+113
-1.40456e+114
-1.62409e+114
-1.77386e+114
-1.6242e+114
-1.5933e+114
-1.34871e+114
-7.29556e+113
-4.7613e+113
-1.44816e+113
1.04146e+113
4.09189e+113
6.4362e+113
5.90344e+113
5.05581e+112
-9.64568e+113
-1.31361e+114
-1.28607e+114
-1.26997e+114
-1.32552e+114
-1.14502e+114
-9.34918e+113
-7.66181e+113
-6.37275e+113
-5.18422e+113
-4.29615e+113
-3.91318e+113
-4.12591e+113
-5.05924e+113
-6.99513e+113
-1.05062e+114
-1.65478e+114
-2.6677e+114
-4.35053e+114
-7.07242e+114
-1.20743e+115
-1.70059e+115
-6.40895e+115
-3.72189e+115
1.11385e+117
5.22789e+117
1.25001e+118
1.78828e+118
3.69048e+112
4.65835e+112
1.65563e+113
5.10915e+113
7.18194e+113
9.05318e+113
1.04822e+114
1.49225e+114
2.48446e+114
3.1483e+114
2.78929e+114
2.36458e+114
2.64914e+114
2.68416e+114
1.39697e+114
7.24426e+112
-9.82153e+113
-1.66474e+114
-1.65351e+114
-1.82071e+114
-1.60399e+114
-1.27123e+114
-6.13556e+113
-8.7426e+112
1.48469e+113
5.41545e+113
7.85464e+113
7.48019e+113
7.37059e+113
6.27925e+113
4.92911e+113
2.212e+113
-1.91977e+113
-6.17592e+113
-8.19797e+113
-7.93004e+113
-9.94078e+113
-1.50296e+114
-1.72796e+114
-1.87001e+114
-1.69281e+114
-1.72862e+114
-1.36233e+114
-6.63946e+113
-4.39087e+113
-1.33614e+113
1.20706e+113
4.35412e+113
5.83791e+113
5.43077e+113
8.45941e+111
-1.09465e+114
-1.46262e+114
-1.38867e+114
-1.38691e+114
-1.49385e+114
-1.23762e+114
-9.97009e+113
-8.07627e+113
-6.62918e+113
-5.26718e+113
-4.24744e+113
-3.78658e+113
-3.95518e+113
-4.859e+113
-6.7766e+113
-1.02935e+114
-1.63914e+114
-2.66396e+114
-4.37067e+114
-7.08627e+114
-1.22487e+115
-1.68109e+115
-7.37251e+115
3.40173e+115
1.5005e+117
6.08013e+117
1.3208e+118
1.74154e+118
4.8817e+112
6.40994e+112
1.96052e+113
5.82995e+113
8.34467e+113
1.01104e+114
1.17305e+114
1.65842e+114
2.7203e+114
3.36906e+114
2.9913e+114
2.54541e+114
2.72417e+114
2.63087e+114
1.37012e+114
8.64228e+111
-1.08767e+114
-1.79534e+114
-1.73556e+114
-1.90375e+114
-1.68047e+114
-1.27186e+114
-5.70869e+113
-6.42027e+112
2.0624e+113
5.92872e+113
8.31781e+113
7.92896e+113
7.71942e+113
6.69402e+113
5.18152e+113
2.31024e+113
-2.02728e+113
-6.41958e+113
-8.59302e+113
-8.43539e+113
-1.06381e+114
-1.60193e+114
-1.83122e+114
-1.96369e+114
-1.76813e+114
-1.83125e+114
-1.37364e+114
-6.15696e+113
-3.92166e+113
-1.23915e+113
1.41646e+113
4.9483e+113
5.45319e+113
5.23429e+113
-8.32287e+112
-1.19573e+114
-1.60444e+114
-1.52217e+114
-1.49904e+114
-1.65642e+114
-1.33666e+114
-1.06168e+114
-8.51292e+113
-6.9e+113
-5.34304e+113
-4.17966e+113
-3.63735e+113
-3.76097e+113
-4.63274e+113
-6.52636e+113
-1.0041e+114
-1.61861e+114
-2.65395e+114
-4.38197e+114
-7.0927e+114
-1.22619e+115
-1.78782e+115
-7.95905e+115
1.39806e+116
1.95105e+117
6.96771e+117
1.39246e+118
1.71123e+118
6.17534e+112
8.4163e+112
2.29475e+113
6.57505e+113
9.57858e+113
1.12578e+114
1.30615e+114
1.83502e+114
2.97237e+114
3.60354e+114
3.20109e+114
2.71192e+114
2.76898e+114
2.54666e+114
1.34448e+114
-6.06944e+112
-1.20983e+114
-1.92197e+114
-1.82268e+114
-1.98845e+114
-1.75868e+114
-1.26711e+114
-5.35543e+113
-4.38722e+112
2.62321e+113
6.428e+113
8.73954e+113
8.37262e+113
8.09127e+113
7.08838e+113
5.45264e+113
2.4474e+113
-2.1049e+113
-6.63496e+113
-8.96198e+113
-8.94027e+113
-1.13819e+114
-1.70065e+114
-1.93201e+114
-2.05066e+114
-1.8314e+114
-1.8753e+114
-1.37919e+114
-5.78531e+113
-3.38339e+113
-1.08712e+113
1.77851e+113
5.52662e+113
5.40101e+113
5.31532e+113
-2.20355e+113
-1.27297e+114
-1.73236e+114
-1.69649e+114
-1.63539e+114
-1.83134e+114
-1.44827e+114
-1.13057e+114
-8.97603e+113
-7.19088e+113
-5.41463e+113
-4.09516e+113
-3.46865e+113
-3.54746e+113
-4.38513e+113
-6.24919e+113
-9.75386e+113
-1.59378e+114
-2.63863e+114
-4.38445e+114
-7.10698e+114
-1.20244e+115
-2.09338e+115
-7.81938e+115
2.86113e+116
2.46577e+117
7.86552e+117
1.45824e+118
1.69993e+118
7.55628e+112
1.06517e+113
2.65798e+113
7.35428e+113
1.0899e+114
1.25477e+114
1.44953e+114
2.02446e+114
3.23696e+114
3.85127e+114
3.41958e+114
2.86e+114
2.78405e+114
2.43935e+114
1.3205e+114
-1.37185e+113
-1.34748e+114
-2.03494e+114
-1.91572e+114
-2.07618e+114
-1.83708e+114
-1.25863e+114
-5.05324e+113
-2.61694e+112
3.15408e+113
6.94971e+113
9.12503e+113
8.78791e+113
8.47555e+113
7.46553e+113
5.73415e+113
2.61824e+113
-2.15234e+113
-6.82024e+113
-9.30729e+113
-9.4476e+113
-1.21582e+114
-1.79763e+114
-2.02985e+114
-2.13305e+114
-1.88944e+114
-1.89126e+114
-1.37681e+114
-5.45831e+113
-2.89585e+113
-8.81304e+112
2.30846e+113
5.91321e+113
5.6063e+113
5.53826e+113
-3.54547e+113
-1.33546e+114
-1.86007e+114
-1.9187e+114
-1.83358e+114
-2.05115e+114
-1.57405e+114
-1.20666e+114
-9.47232e+113
-7.50306e+113