/*--------------------------------*- C++ -*----------------------------------*\
| =========                 |                                                 |
| \\      /  F ield         | OpenFOAM: The Open Source CFD Toolbox           |
|  \\    /   O peration     | Version:  4.1                                   |
|   \\  /    A nd           | Web:      www.OpenFOAM.org                      |
|    \\/     M anipulation  |                                                 |
\*---------------------------------------------------------------------------*/
FoamFile
{
    version     2.0;
    format      ascii;
    class       volVectorField;
    location    "4";
    object      U;
}
// * * * * * * * * * * * * * * * * * * * * * * * * * * * * * * * * * * * * * //

dimensions      [0 1 -1 0 0 0 0];

internalField   nonuniform List<vector> 
6785
(
(1.21175e-14 -1.83068 16.3842)
(1.0859e-14 -7.58276 12.828)
(-3.11588e-15 -5.0484 13.5074)
(3.8868e-15 -4.83005 13.1055)
(9.18944e-16 -4.10633 12.9468)
(-1.52361e-16 -3.65076 12.683)
(2.47706e-15 -3.23589 12.4065)
(5.32214e-16 -2.92452 12.0959)
(-8.10972e-16 -2.71165 11.7711)
(1.29928e-15 -2.6206 11.4636)
(7.3483e-17 -2.61651 11.2466)
(-1.5004e-16 -2.77099 11.0623)
(5.01549e-16 -3.38877 10.4963)
(-1.20605e-16 -3.34381 9.48157)
(6.3078e-18 0.174742 7.60483)
(1.77824e-14 -9.58321 26.7489)
(1.27941e-14 -16.4208 23.0117)
(-3.1129e-15 -11.2819 23.4049)
(3.61604e-15 -11.9248 21.701)
(7.52133e-16 -10.3834 20.8228)
(5.67436e-16 -9.67361 19.6718)
(1.38649e-15 -8.7459 18.6175)
(-1.46795e-16 -7.95622 17.5614)
(-5.85393e-16 -7.20138 16.545)
(8.56932e-17 -6.47359 15.4831)
(-2.90755e-16 -5.58881 14.1248)
(-5.64978e-16 -4.35695 11.949)
(-3.15307e-16 -2.81388 8.29704)
(2.07326e-16 -1.0248 3.55868)
(1.63298e-17 -0.0218912 0.499838)
(2.06438e-14 -12.3396 28.5667)
(1.09032e-14 -17.322 25.1979)
(-2.0657e-15 -12.1089 25.3685)
(4.84829e-15 -13.3055 22.9016)
(5.06923e-16 -11.2362 21.8949)
(1.47117e-15 -10.7695 20.2223)
(2.11369e-15 -9.70264 18.8875)
(-5.06709e-16 -8.99087 17.4876)
(4.76444e-16 -8.24866 16.2193)
(1.90898e-15 -7.55714 14.8686)
(-3.05303e-16 -6.50838 12.9132)
(1.33494e-15 -4.273 8.83547)
(5.60952e-15 0.234763 0.870128)
(2.05505e-15 4.16658 -6.05103)
(-7.49062e-16 2.211 -4.91846)
(2.03412e-14 -12.9868 27.6571)
(1.18949e-14 -17.5569 25.5338)
(-1.93639e-15 -12.6176 25.0468)
(4.67349e-15 -14.1452 22.1655)
(1.63502e-15 -11.9295 21.1798)
(1.24e-15 -11.7221 19.2388)
(2.39808e-15 -10.6942 17.7854)
(1.02454e-15 -10.036 16.2044)
(2.21697e-16 -9.33128 14.7414)
(1.66912e-15 -8.68191 13.2934)
(1.41668e-15 -7.91116 11.6503)
(2.16423e-16 -6.57888 9.21471)
(1.40829e-15 -4.2482 5.21409)
(3.35113e-15 -1.42994 1.97013)
(-1.8693e-15 1.1642 -3.98424)
(1.97174e-14 -12.7202 26.0153)
(1.32658e-14 -17.2585 25.6487)
(-1.17659e-15 -12.7462 24.4337)
(3.75023e-15 -13.8574 21.4429)
(2.10548e-15 -11.79 20.3843)
(9.42186e-16 -11.4883 18.3875)
(2.28118e-15 -10.4587 16.8344)
(1.3967e-15 -9.70184 15.2084)
(-4.15907e-16 -8.9609 13.7213)
(-2.01451e-17 -8.24791 12.3359)
(1.77153e-16 -7.5286 10.9096)
(-9.01871e-16 -6.58551 9.28467)
(-9.20355e-16 -5.28752 7.03108)
(-1.13271e-16 -3.3323 4.7377)
(-1.87627e-15 -0.870253 -0.698428)
(1.97851e-14 -12.2864 24.7736)
(1.37893e-14 -16.5589 25.012)
(-6.97134e-16 -12.3054 23.6589)
(3.49029e-15 -13.2699 20.5544)
(1.91389e-15 -11.0364 19.5749)
(1.4881e-15 -10.8324 17.4137)
(2.14864e-15 -9.61896 15.9528)
(1.02437e-15 -8.9989 14.3827)
(1.03119e-16 -8.35163 13.0397)
(-2.30132e-16 -7.81373 11.7496)
(3.53574e-16 -7.30277 10.5485)
(3.56908e-16 -6.7451 9.50924)
(-8.5068e-16 -6.08183 8.46676)
(-1.85302e-16 -4.92348 7.27051)
(7.77859e-16 -2.63301 3.285)
(2.06429e-14 -12.421 24.5458)
(1.21253e-14 -15.6696 24.3292)
(2.7956e-16 -11.9469 23.0921)
(3.40456e-15 -12.6259 20.1589)
(1.57477e-15 -10.303 19.1757)
(2.36181e-15 -10.0277 16.9531)
(2.17203e-15 -8.37448 15.272)
(3.31338e-15 -7.31705 12.8438)
(3.70586e-15 -6.14628 10.7631)
(8.98603e-16 -5.85895 9.5662)
(9.12068e-16 -6.079 9.44355)
(1.39683e-15 -6.5845 9.91066)
(-1.50723e-15 -6.96423 10.6367)
(-2.22581e-15 -6.96797 10.6929)
(1.57231e-15 -4.82668 8.08249)
(2.03669e-14 -13.437 25.9952)
(8.90594e-15 -15.5205 24.9615)
(1.22606e-16 -12.3116 23.904)
(2.85471e-15 -12.5726 21.589)
(6.66041e-16 -10.5062 20.6308)
(1.38836e-15 -9.9319 18.7025)
(3.08641e-15 -7.91546 16.5666)
(6.33649e-15 -5.90361 13.0465)
(6.3035e-15 -3.5599 9.55674)
(3.74541e-15 -2.09142 6.9811)
(2.699e-15 -1.60398 6.01414)
(2.1258e-15 -2.59243 7.05067)
(5.66109e-16 -4.79143 9.74547)
(-4.76855e-16 -6.82353 11.9555)
(6.91443e-16 -5.24191 10.1088)
(1.98079e-14 -14.0635 26.8064)
(9.18579e-15 -17.2783 27.7181)
(2.15723e-16 -13.5021 25.7249)
(2.27806e-15 -13.8385 23.6069)
(1.84588e-16 -11.896 22.7479)
(1.46442e-15 -11.5537 20.9911)
(2.12159e-15 -9.70087 19.1052)
(6.21937e-15 -7.83086 15.7345)
(8.46035e-15 -5.18566 12.0803)
(5.96345e-15 -2.88543 8.57559)
(6.65446e-15 -0.665134 5.32609)
(7.05205e-15 1.02852 2.45153)
(4.79475e-15 1.314 1.48072)
(5.23573e-15 -0.406395 3.21204)
(3.22826e-15 -1.82039 4.79911)
(1.86454e-14 -13.005 24.1499)
(1.27158e-14 -18.7026 29.8485)
(2.2498e-15 -15.2351 27.3315)
(2.99699e-15 -14.948 24.5641)
(5.25464e-16 -13.294 23.3675)
(1.77848e-15 -13.0032 21.6675)
(2.32948e-15 -11.7704 20.1356)
(3.14467e-15 -10.5979 17.7638)
(6.18093e-15 -8.75729 15.0192)
(7.37814e-15 -6.75781 11.9568)
(6.28261e-15 -4.39339 8.58517)
(9.06019e-15 -1.7454 4.59317)
(1.05429e-14 1.44365 0.0774021)
(3.1363e-15 3.67983 -3.59496)
(1.95404e-15 1.59453 -3.60632)
(1.75326e-14 -11.0198 19.8135)
(1.52993e-14 -18.2952 29.5006)
(5.98257e-15 -16.0258 27.62)
(3.01696e-15 -14.9626 24.181)
(8.00307e-16 -13.4654 22.3185)
(3.12197e-15 -12.9082 20.5147)
(2.50277e-15 -12.0325 18.9654)
(1.10983e-15 -11.2029 17.1562)
(3.7137e-15 -10.1323 15.1789)
(4.49436e-15 -8.88599 13.0173)
(3.35051e-15 -7.45285 10.6618)
(5.74158e-15 -5.7139 8.05282)
(5.81946e-15 -3.68961 4.95629)
(9.32861e-15 -0.987553 1.77456)
(2.86781e-15 0.820132 -3.62278)
(1.60831e-14 -9.45353 16.5877)
(1.63982e-14 -17.1926 28.3164)
(7.04627e-15 -15.6515 26.8932)
(2.55905e-15 -14.1909 23.1574)
(1.00434e-15 -12.6571 20.9962)
(2.62681e-15 -11.9292 19.1628)
(2.05504e-15 -11.0661 17.6267)
(6.70241e-16 -10.2726 16.0144)
(1.9692e-15 -9.40423 14.3684)
(2.43987e-15 -8.45262 12.6663)
(1.74469e-15 -7.4259 10.8635)
(2.10637e-15 -6.19781 8.93044)
(2.29872e-15 -4.81196 6.6096)
(3.8547e-15 -2.69177 3.72743)
(-5.28386e-16 -0.461051 -1.66287)
(1.47278e-14 -8.76215 15.2997)
(1.6948e-14 -16.5597 27.6299)
(6.98153e-15 -15.2833 26.3773)
(2.69782e-15 -13.8306 22.7643)
(2.28972e-15 -12.3248 20.584)
(2.67389e-15 -11.5422 18.7457)
(1.65607e-15 -10.6192 17.2296)
(1.46004e-15 -9.80982 15.6974)
(1.48932e-15 -8.96646 14.2022)
(1.42108e-15 -8.11813 12.7298)
(1.09263e-15 -7.25299 11.2441)
(2.49922e-16 -6.28367 9.69349)
(5.53501e-16 -5.18855 7.88742)
(1.90365e-15 -3.6262 5.54546)
(-1.79432e-15 -1.60325 1.66017)
(1.24797e-14 -7.86645 13.3611)
(1.70276e-14 -16.1056 26.5951)
(5.29247e-15 -14.8472 25.3687)
(-4.28959e-16 -12.7268 21.1487)
(-2.08803e-17 -11.1327 19.4053)
(-4.34649e-16 -10.6216 17.9725)
(-6.63655e-16 -9.65394 16.7578)
(1.05544e-15 -8.97731 15.2795)
(4.58222e-16 -8.10994 13.9309)
(-2.76279e-16 -7.37984 12.5675)
(-5.30242e-16 -6.60737 11.2618)
(-1.36159e-15 -5.80211 9.8872)
(-4.87057e-16 -4.84395 8.23041)
(-5.09996e-16 -3.38645 5.85367)
(-5.74011e-15 -1.43408 2.49017)
(7.98134e-15 -6.14295 11.1569)
(1.7311e-14 -16.3923 25.7514)
(1.18884e-14 -18.8565 28.6125)
(6.94051e-15 -18.0407 25.8387)
(9.39191e-15 -15.7604 22.1995)
(9.12711e-15 -13.9424 19.3621)
(6.19837e-15 -12.572 17.3529)
(3.97213e-15 -11.6043 15.724)
(3.55624e-15 -10.6386 14.2466)
(4.32788e-15 -9.7035 12.83)
(4.31934e-15 -8.69756 11.4666)
(3.82603e-15 -7.63744 10.0798)
(4.60666e-15 -6.42658 8.63075)
(5.51152e-15 -4.86643 6.58356)
(6.76651e-15 -1.80171 2.75714)
(7.32526e-19 4.15113 16.6464)
(-1.04715e-17 -0.470921 1.97762)
(1.35574e-16 -0.117753 -1.08016)
(1.92798e-16 -0.117259 -0.766457)
(2.51733e-16 -0.00477852 -0.88192)
(4.27731e-16 0.224371 -1.22076)
(2.57082e-16 0.142735 -0.834219)
(2.03218e-16 0.232626 -0.824055)
(1.25275e-16 0.275099 -0.789709)
(2.61647e-16 0.487092 -1.11287)
(7.99257e-17 0.428658 -0.793081)
(2.19583e-17 0.494849 -0.732709)
(2.47889e-16 0.741264 -0.958336)
(1.47832e-16 0.611018 -0.610089)
(1.65786e-16 0.713861 -0.551836)
(2.39571e-16 0.701528 -0.467814)
(6.46421e-16 0.921819 -0.547647)
(6.49527e-16 0.789444 -0.294136)
(7.50679e-16 0.827797 -0.227317)
(1.31151e-15 1.08524 -0.222432)
(1.03503e-15 0.854468 -0.0804911)
(1.03525e-15 0.948952 -0.0502462)
(8.40384e-16 0.889374 -0.0324304)
(9.46519e-16 1.13889 0.0215954)
(1.61153e-16 0.893535 0.0688506)
(-3.36221e-16 0.980006 0.0843405)
(-9.00285e-16 0.916243 0.0805728)
(-1.88665e-15 1.11941 0.174151)
(-2.22854e-15 0.903677 0.162928)
(-2.48668e-15 0.923717 0.137451)
(-3.67454e-15 1.13766 0.240327)
(-3.03267e-15 0.85729 0.175326)
(-3.00001e-15 0.932853 0.15978)
(-2.71422e-15 0.873884 0.126394)
(-3.27012e-15 1.03966 0.221797)
(-2.12202e-15 0.818164 0.159814)
(-1.57422e-15 0.840711 0.127661)
(-1.40215e-15 1.00792 0.224574)
(-5.1877e-16 0.743789 0.135594)
(-1.01e-16 0.810008 0.112862)
(2.16678e-16 0.76192 0.0731246)
(6.73097e-16 0.903359 0.123666)
(6.02228e-16 0.674446 0.0391551)
(5.94461e-16 0.738979 0.0173629)
(5.00717e-16 0.70452 -0.0149232)
(5.7675e-16 0.810734 -0.00536605)
(3.43427e-16 0.623255 -0.0707736)
(3.09791e-16 0.658915 -0.10271)
(5.07883e-16 0.763133 -0.133412)
(4.85413e-16 0.558664 -0.179637)
(6.04539e-16 0.621763 -0.201591)
(6.97435e-16 0.609285 -0.211199)
(1.15205e-15 0.704143 -0.260895)
(9.34327e-16 0.532437 -0.244575)
(9.69222e-16 0.597446 -0.241933)
(8.41444e-16 0.584125 -0.214159)
(1.60813e-15 0.70928 -0.396896)
(1.15079e-15 0.623968 -0.316113)
(1.07985e-15 0.669741 -0.282017)
(1.58841e-15 0.728451 -0.385449)
(1.44057e-15 0.595892 -0.340819)
(1.65449e-15 0.644531 -0.323316)
(1.85983e-15 0.65865 -0.250563)
(3.14867e-15 0.577577 -0.490806)
(3.2325e-15 0.33901 -0.650515)
(2.96811e-15 0.355202 -0.427788)
(6.60684e-15 0.73892 -2.20584)
(5.94507e-15 -0.559793 -2.26987)
(5.12953e-15 -0.0508572 -1.91817)
(5.42036e-15 0.168315 -2.22677)
(-4.99518e-15 -0.0969319 2.19438)
(-8.87551e-15 -1.13802 4.56732)
(-8.93869e-15 -1.32001 4.35128)
(-9.67098e-15 -1.48393 4.68149)
(-1.55249e-14 -2.60864 8.06654)
(-1.36871e-14 -3.33308 7.57235)
(-1.42141e-14 -3.50585 7.85355)
(-1.98286e-14 -5.30182 11.7949)
(-1.49919e-14 -5.60131 9.56555)
(-1.50167e-14 -6.06151 10.0739)
(-1.56711e-14 -6.62908 11.7079)
(-1.49679e-14 -6.56161 11.4487)
(-1.4687e-14 -6.67182 11.6959)
(-1.78243e-14 -8.01812 14.19)
(-1.38654e-14 -7.36701 12.7537)
(-1.34861e-14 -7.59823 13.2518)
(-1.31998e-14 -7.58594 13.2479)
(-1.31339e-14 -7.6657 13.1993)
(-1.31722e-14 -7.73012 13.1634)
(-1.31754e-14 -7.79544 13.1537)
(-1.30513e-14 -7.8383 13.2818)
(-1.28644e-14 -7.928 13.5069)
(-1.51993e-14 -8.39202 14.8597)
(-1.14091e-14 -8.41026 13.9475)
(-1.0082e-14 -8.51615 14.0113)
(-9.02288e-15 -8.50005 14.02)
(-8.20726e-15 -8.6184 14.2015)
(-7.42477e-15 -8.60107 14.1049)
(-6.75315e-15 -8.66784 14.0977)
(-6.2277e-15 -8.67341 14.0843)
(-5.95575e-15 -8.741 14.1283)
(-8.71955e-15 -9.10365 15.3497)
(-6.83336e-15 -9.1494 14.5962)
(-7.34474e-15 -9.20784 14.6315)
(-8.15275e-15 -9.23275 14.6179)
(-9.11916e-15 -9.26449 14.6336)
(-1.00777e-14 -9.28208 14.7129)
(-1.07904e-14 -9.33559 14.815)
(-1.1048e-14 -9.32564 14.7846)
(-1.0674e-14 -9.33141 14.8302)
(-9.83589e-15 -9.40579 14.8976)
(-1.02423e-14 -9.44394 15.7127)
(-5.91913e-15 -9.67718 15.2834)
(-2.83014e-15 -9.68627 15.3821)
(-4.84964e-16 -9.69516 15.437)
(1.42728e-15 -9.71471 15.5316)
(2.7123e-15 -9.71693 15.671)
(3.37823e-15 -9.75061 15.9672)
(3.50477e-15 -9.71988 16.1551)
(3.14177e-15 -9.82374 16.3177)
(-1.5057e-15 -9.46082 16.6983)
(-1.19712e-15 -9.8223 16.543)
(-2.59924e-15 -9.78349 17.0102)
(-3.67659e-15 -9.79921 17.4112)
(-5.08684e-15 -9.76264 17.7122)
(-6.47036e-15 -9.79356 18.1295)
(-7.84436e-15 -9.80576 18.6054)
(-9.14387e-15 -9.78182 19.1862)
(-1.01708e-14 -10.0201 19.9683)
(-1.86865e-14 -8.72782 19.801)
(-1.5602e-14 -9.39405 20.0596)
(-1.84061e-14 -9.31788 20.7434)
(-2.08558e-14 -9.29363 21.2326)
(-2.38884e-14 -9.32236 21.9388)
(-2.67469e-14 -9.30976 22.2399)
(-2.86714e-14 -9.27688 22.3488)
(-2.89226e-14 -9.28304 22.329)
(-2.73936e-14 -9.39403 22.099)
(-2.35465e-14 -7.05748 19.3053)
(-1.27059e-14 -8.03419 19.6899)
(-3.86262e-15 -7.85512 18.7189)
(2.38967e-15 -7.9111 17.9349)
(6.56904e-15 -7.82007 17.0932)
(8.52951e-15 -7.73179 16.3684)
(8.96434e-15 -7.66125 16.0348)
(7.38252e-15 -7.44362 15.2205)
(5.75795e-15 -7.30599 14.6225)
(4.54959e-15 -7.20491 13.8613)
(2.63757e-15 -3.71128 8.14303)
(4.9684e-15 -5.45855 11.2113)
(5.45058e-15 -4.95853 9.81583)
(5.8258e-15 -5.06239 9.07779)
(5.75975e-15 -4.72754 7.92871)
(5.35039e-15 -4.66133 6.63643)
(4.17485e-15 -4.45749 4.55184)
(2.96546e-15 -4.05404 2.69761)
(2.9086e-15 -4.10142 2.75172)
(7.59501e-16 -3.36794 0.101215)
(1.80665e-15 -3.54143 1.768)
(1.47639e-15 -3.50263 0.951855)
(-1.13245e-17 -2.45578 -1.4521)
(1.00883e-15 -4.25546 -0.279425)
(7.02807e-16 -3.45626 -0.474264)
(6.48448e-16 -3.18927 -0.244406)
(8.95116e-16 -4.23321 -0.424274)
(6.03206e-16 -2.94153 -0.219207)
(9.00557e-16 -3.95906 -0.341547)
(7.03651e-16 -3.76747 -0.241005)
(5.6147e-16 -3.09613 -0.148381)
(9.08326e-16 -3.88578 -0.245733)
(8.28428e-16 -3.68775 -0.194105)
(6.87588e-16 -3.19428 -0.12786)
(9.12323e-16 -4.32651 -0.223662)
(6.01824e-16 -2.99063 -0.137102)
(7.73841e-16 -3.99065 -0.216971)
(5.81948e-16 -3.61127 -0.214328)
(4.97659e-16 -3.1688 -0.152081)
(6.51176e-16 -4.25462 -0.247176)
(4.02354e-16 -2.9167 -0.158848)
(6.93293e-16 -3.91632 -0.238591)
(6.36167e-16 -3.63057 -0.248605)
(5.41969e-16 -2.9752 -0.177341)
(7.54115e-16 -3.69407 -0.283666)
(5.92115e-16 -3.42548 -0.269651)
(3.76558e-16 -2.94295 -0.189806)
(4.93851e-16 -3.94249 -0.282219)
(2.74212e-16 -2.69791 -0.176948)
(3.1255e-16 -3.57716 -0.258715)
(6.92422e-17 -3.15712 -0.253012)
(4.17479e-17 -2.75559 -0.188683)
(2.90104e-17 -3.66479 -0.297006)
(4.92753e-17 -2.48628 -0.20191)
(1.50999e-16 -3.31882 -0.302625)
(1.98759e-16 -3.00141 -0.291782)
(6.34456e-17 -2.45164 -0.21082)
(1.80724e-16 -3.02408 -0.332521)
(1.00035e-16 -2.75238 -0.315069)
(1.74309e-18 -2.34722 -0.237959)
(-1.638e-17 -3.12937 -0.352925)
(-7.88728e-17 -2.10875 -0.235874)
(-2.35914e-16 -2.79362 -0.351724)
(-2.53838e-16 -2.42276 -0.327895)
(-1.64874e-16 -2.09498 -0.252836)
(-4.04299e-16 -2.78183 -0.366837)
(-3.6363e-16 -1.85398 -0.242368)
(-3.8049e-16 -2.48649 -0.340815)
(-1.37113e-16 -2.23448 -0.301496)
(-6.40717e-17 -1.80359 -0.229432)
(1.29723e-16 -2.24559 -0.335598)
(2.26096e-16 -2.06029 -0.281298)
(1.79105e-16 -1.74756 -0.184019)
(3.09742e-16 -2.38059 -0.195612)
(3.77007e-16 -1.59882 -0.09564)
(5.47848e-16 -2.16876 -0.0894713)
(4.32771e-16 -1.94538 -0.0842298)
(2.84357e-16 -1.68079 -0.0565991)
(4.03095e-16 -2.29445 -0.0636894)
(1.43803e-16 -1.53318 -0.0458894)
(1.2106e-16 -2.09353 -0.0509317)
(-2.59767e-17 -1.90042 -0.109897)
(-4.75191e-17 -1.51592 -0.0899803)
(-9.86286e-17 -1.91107 -0.155392)
(-1.46715e-16 -1.70758 -0.203141)
(-9.49437e-18 -1.42121 -0.165034)
(-4.34521e-17 -1.9326 -0.241295)
(-8.67089e-18 -1.23332 -0.169327)
(-4.00262e-17 -1.67985 -0.216605)
(-6.37773e-17 -1.39652 -0.216416)
(-8.85977e-17 -1.15922 -0.173913)
(-1.14701e-16 -1.5914 -0.265995)
(-6.49926e-17 -0.947751 -0.218339)
(-7.2058e-17 -1.34796 -0.312294)
(-9.14984e-17 -1.11 -0.353256)
(-1.23327e-16 -0.775294 -0.346426)
(-2.34445e-16 -1.0319 -0.590924)
(-3.29444e-16 -0.761881 -0.561388)
(-2.58052e-16 -0.51004 -0.407676)
(-3.7789e-16 -0.949654 -0.569178)
(-3.60528e-16 -0.155828 -0.429544)
(-4.05176e-16 -0.567784 -0.77963)
(1.83124e-71 0.0397942 0.0400689)
(8.32964e-71 0.0547749 0.0388955)
(2.13072e-70 0.0652275 0.0390685)
(-2.79099e-70 0.0750568 0.0389521)
(-7.23464e-69 0.0848242 0.0392507)
(-4.68028e-68 0.0941706 0.0395713)
(-1.62518e-67 0.103479 0.0401118)
(-4.57117e-68 0.112658 0.0407589)
(3.17192e-66 0.121851 0.0415731)
(2.07709e-65 0.131057 0.0425194)
(7.63946e-65 0.140346 0.0436168)
(2.50219e-64 0.149741 0.0448544)
(1.10324e-63 0.159285 0.0462385)
(-1.3238e-63 0.169008 0.0477658)
(-1.19772e-61 0.178944 0.049439)
(-1.25751e-60 0.18912 0.051258)
(-5.11036e-60 0.199566 0.0532248)
(2.06103e-59 0.210311 0.0553408)
(4.08983e-58 0.221381 0.0576085)
(2.20715e-57 0.232804 0.0600306)
(-1.23128e-57 0.244607 0.0626103)
(-9.93368e-56 0.256815 0.0653513)
(-6.38934e-55 0.269455 0.0682579)
(-4.95794e-55 0.282553 0.0713348)
(2.06185e-53 0.296137 0.0745872)
(1.51184e-52 0.310232 0.0780208)
(2.22e-52 0.324865 0.081642)
(-3.87601e-51 0.340064 0.0854573)
(-3.09331e-50 0.355857 0.0894742)
(-5.42544e-50 0.372272 0.0937002)
(6.84893e-49 0.389336 0.0981437)
(5.5362e-48 0.407081 0.102813)
(9.24998e-48 0.425534 0.107718)
(-1.15021e-46 0.444728 0.112868)
(-8.55406e-46 0.464692 0.118273)
(-1.04968e-45 0.485459 0.123944)
(1.799e-44 0.50706 0.12989)
(1.10738e-43 0.529527 0.136123)
(3.99643e-44 0.552893 0.142653)
(-2.53697e-42 0.577188 0.149489)
(-1.12732e-41 0.602441 0.156642)
(1.54191e-41 0.62868 0.164119)
(3.12139e-40 0.655926 0.171924)
(6.93914e-40 0.684196 0.18006)
(-5.00916e-39 0.713494 0.188524)
(-3.09442e-38 0.743813 0.197305)
(3.81513e-38 0.775127 0.206383)
(9.26503e-37 0.807386 0.215728)
(1.80364e-36 0.840507 0.225291)
(-1.97999e-35 0.874371 0.235002)
(-1.19887e-34 0.908809 0.244767)
(8.18819e-35 0.943599 0.25446)
(3.36348e-33 0.97846 0.263916)
(1.109e-32 1.01305 0.272927)
(-3.2892e-32 1.04696 0.281235)
(-3.6425e-31 1.07975 0.288523)
(-7.68001e-31 1.11089 0.294407)
(3.75222e-30 1.13985 0.298422)
(2.76444e-29 1.16602 0.3)
(4.60557e-29 1.18868 0.298441)
(-2.31426e-28 1.20693 0.292852)
(-1.49461e-27 1.2195 0.282114)
(-2.70965e-27 1.22459 0.264749)
(6.92276e-27 1.21936 0.238989)
(5.35161e-26 1.19994 0.202506)
(1.31102e-25 1.1599 0.153147)
(2.49373e-26 1.09188 0.0881027)
(-9.12789e-25 0.982471 0.00737692)
(-3.55023e-24 0.81717 -0.0887803)
(-5.84832e-24 0.56321 -0.187618)
(-1.57648e-23 0.145322 -0.308887)
(3.82635e-23 -0.455362 -0.322542)
(-1.18631e-22 -0.844961 -0.34726)
(5.9841e-22 -1.32385 -0.272944)
(-2.21598e-21 -1.65476 -0.343062)
(2.04478e-20 -2.23349 -0.163251)
(-2.97457e-19 -2.21795 -0.470525)
(7.45561e-18 -3.32346 0.0100291)
(-1.81626e-17 -3.60352 -1.22172)
(6.89753e-71 0.0400379 0.0459128)
(3.36066e-70 0.0549705 0.0442889)
(9.70586e-70 0.0652422 0.0444234)
(-2.81552e-70 0.0750425 0.0442156)
(-2.56019e-68 0.0847366 0.0445219)
(-1.8356e-67 0.0940405 0.0448546)
(-7.03217e-67 0.103295 0.0454482)
(-5.85036e-67 0.112429 0.0461637)
(1.1641e-65 0.121572 0.0470712)
(8.62145e-65 0.130732 0.0481281)
(3.34074e-64 0.139973 0.0493559)
(9.58028e-64 0.149321 0.0507409)
(3.15089e-63 0.158819 0.0522899)
(-7.37761e-63 0.168495 0.0539989)
(-4.12965e-61 0.178384 0.0558705)
(-4.435e-60 0.188512 0.0579043)
(-1.94864e-59 0.198911 0.0601022)
(6.07328e-59 0.209607 0.0624658)
(1.43515e-57 0.220629 0.0649974)
(8.3406e-57 0.232002 0.0676999)
(8.22758e-59 0.243753 0.0705767)
(-3.42408e-55 0.255908 0.0736316)
(-2.37611e-54 0.268494 0.0768692)
(-2.90977e-54 0.281538 0.0802945)
(6.92691e-53 0.295064 0.083913)
(5.51948e-52 0.3091 0.0877308)
(1.03804e-51 0.323672 0.0917545)
(-1.2584e-50 0.338808 0.0959914)
(-1.1086e-49 0.354535 0.100449)
(-2.42606e-49 0.370882 0.105136)
(2.13803e-48 0.387875 0.11006)
(1.95514e-47 0.405546 0.115231)
(4.24755e-47 0.423923 0.120659)
(-3.46741e-46 0.443037 0.126354)
(-2.99828e-45 0.462918 0.132326)
(-5.50693e-45 0.483598 0.138587)
(5.28138e-44 0.50511 0.145146)
(3.88735e-43 0.527484 0.152015)
(4.57427e-43 0.550754 0.159204)
(-7.22618e-42 0.57495 0.166723)
(-4.04962e-41 0.600101 0.174581)
(-2.1342e-42 0.626237 0.182783)
(8.42819e-40 0.653378 0.191332)
(2.95579e-39 0.681544 0.200228)
(-7.23212e-39 0.71074 0.209462)
(-7.73846e-38 0.740962 0.219018)
(-4.63909e-38 0.772189 0.228866)
(1.52123e-36 0.804373 0.238964)
(4.30998e-36 0.837439 0.249247)
(-2.82709e-35 0.871275 0.259627)
(-1.94943e-34 0.90572 0.269985)
(1.19445e-34 0.940566 0.280169)
(5.45705e-33 0.975542 0.289981)
(1.75544e-32 1.01032 0.299182)
(-5.78835e-32 1.04452 0.307478)
(-6.03506e-31 1.0777 0.314519)
(-1.20406e-30 1.10937 0.319889)
(6.53316e-30 1.13903 0.323091)
(4.62135e-29 1.1661 0.323518)
(7.40524e-29 1.18991 0.32042)
(-3.98385e-28 1.20963 0.312822)
(-2.51935e-27 1.22409 0.299484)
(-4.51897e-27 1.2316 0.278734)
(1.18319e-26 1.22944 0.248563)
(9.05933e-26 1.21383 0.206277)
(2.21421e-25 1.17841 0.149472)
(4.01972e-26 1.11548 0.0749739)
(-1.54428e-24 1.01117 -0.0170848)
(-5.9636e-24 0.849324 -0.125896)
(-1.01411e-23 0.598348 -0.238581)
(-2.56459e-23 0.174687 -0.378421)
(3.61966e-23 -0.478016 -0.379652)
(-1.18059e-22 -0.882931 -0.381359)
(5.96416e-22 -1.35671 -0.293419)
(-2.25607e-21 -1.69905 -0.357735)
(2.13644e-20 -2.25144 -0.17005)
(-3.14006e-19 -2.26707 -0.469)
(7.49123e-18 -3.2577 0.00907539)
(-1.56536e-17 -3.55178 -1.17726)
(2.20039e-70 0.0401855 0.0490675)
(1.15577e-69 0.0550847 0.0472668)
(3.72284e-69 0.0652506 0.0473793)
(1.98901e-69 0.0750309 0.0471241)
(-7.51601e-68 0.0846834 0.0474356)
(-6.09402e-67 0.0939625 0.0477768)
(-2.56914e-66 0.103187 0.048401)
(-3.43253e-66 0.112294 0.0491559)
(3.52149e-65 0.12141 0.0501164)
(3.00172e-64 0.130544 0.0512358)
(1.23679e-63 0.139759 0.0525368)
(3.27328e-63 0.149082 0.0540044)
(7.281e-63 0.158553 0.0556456)
(-3.3191e-62 0.168204 0.0574559)
(-1.21777e-60 0.178066 0.0594379)
(-1.32204e-59 0.188168 0.0615909)
(-6.22556e-59 0.19854 0.063917)
(1.44388e-58 0.20921 0.0664175)
(4.23389e-57 0.220204 0.069095)
(2.63994e-56 0.231549 0.0719523)
(1.36536e-56 0.243272 0.0749929)
(-9.88755e-55 0.255398 0.0782208)
(-7.38636e-54 0.267955 0.0816407)
(-1.19873e-53 0.280967 0.0852575)
(1.94492e-52 0.294462 0.0890772)
(1.67955e-51 0.308466 0.0931059)
(3.75706e-51 0.323005 0.0973505)
(-3.40474e-50 0.338106 0.101818)
(-3.29647e-49 0.353797 0.106518)
(-8.42248e-49 0.370106 0.111456)
(5.52538e-48 0.387061 0.116644)
(5.68994e-47 0.404692 0.12209)
(1.4772e-46 0.423027 0.127803)
(-8.55477e-46 0.442097 0.133796)
(-8.59076e-45 0.461934 0.140077)
(-2.02393e-44 0.482568 0.146659)
(1.25576e-43 0.504031 0.153553)
(1.10752e-42 0.526356 0.160768)
(2.04818e-42 0.549574 0.168316)
(-1.66762e-41 0.573717 0.176206)
(-1.16893e-40 0.598815 0.184447)
(-1.24767e-40 0.624897 0.193042)
(1.87423e-39 0.651985 0.201995)
(9.29905e-39 0.680098 0.211302)
(-1.88276e-39 0.709245 0.220951)
(-1.63146e-37 0.739422 0.230923)
(-4.11284e-37 0.77061 0.241183)
(1.57992e-36 0.802767 0.25168)
(8.70037e-36 0.835819 0.262342)
(-2.05226e-35 0.869659 0.27307)
(-2.20166e-34 0.904132 0.283731)
(1.48596e-34 0.939036 0.294157)
(6.58083e-33 0.974108 0.304137)
(1.89299e-32 1.00903 0.313412)
(-8.95818e-32 1.04342 0.321672)
(-7.76663e-31 1.07685 0.328554)
(-1.22243e-30 1.10885 0.333628)
(9.96089e-30 1.13892 0.336386)
(6.08284e-29 1.1665 0.336204)
(7.71893e-29 1.19096 0.33231)
(-6.06602e-28 1.21152 0.323688)
(-3.3895e-27 1.22705 0.30903)
(-5.29622e-27 1.23593 0.286554)
(1.88298e-26 1.23554 0.254107)
(1.25235e-25 1.22213 0.208779)
(2.85057e-25 1.18935 0.147999)
(-1.83056e-26 1.1293 0.0683587)
(-2.23877e-24 1.0277 -0.0301022)
(-8.11742e-24 0.867546 -0.146281)
(-1.34768e-23 0.617071 -0.26816)
(-3.4539e-23 0.186545 -0.411972)
(3.57142e-23 -0.46586 -0.453855)
(-1.1546e-22 -0.879741 -0.437865)
(5.92491e-22 -1.34744 -0.326534)
(-2.31129e-21 -1.6988 -0.378827)
(2.25831e-20 -2.22789 -0.179953)
(-3.33491e-19 -2.27337 -0.462322)
(7.49084e-18 -3.17022 0.0132799)
(-1.0925e-17 -3.48907 -1.11689)
(6.81478e-70 0.0404209 0.0526696)
(3.88541e-69 0.0552638 0.0507139)
(1.38238e-68 0.0652788 0.0508121)
(1.67423e-68 0.0750254 0.0505166)
(-2.08974e-67 0.0846156 0.0508395)
(-1.9774e-66 0.0938565 0.0511971)
(-9.18848e-66 0.103036 0.0518609)
(-1.66804e-65 0.112105 0.052666)
(1.00619e-64 0.12118 0.0536919)
(1.02333e-63 0.130276 0.054888)
(4.54271e-63 0.139452 0.0562779)
(1.16564e-62 0.148736 0.0578454)
(1.48746e-62 0.15817 0.0595977)
(-1.49819e-61 0.167782 0.0615296)
(-3.61499e-60 0.177606 0.063644)
(-3.87425e-59 0.18767 0.0659398)
(-1.93755e-58 0.198004 0.0684193)
(3.12543e-58 0.208634 0.0710836)
(1.22368e-56 0.219588 0.0739355)
(8.20401e-56 0.230893 0.0769778)
(8.31723e-56 0.242575 0.0802141)
(-2.78807e-54 0.254659 0.0836485)
(-2.26099e-53 0.267172 0.0872858)
(-4.59029e-53 0.280141 0.0911314)
(5.31765e-52 0.29359 0.0951913)
(5.04193e-51 0.307546 0.0994718)
(1.31328e-50 0.322036 0.10398)
(-8.94403e-50 0.337087 0.108724)
(-9.67594e-49 0.352726 0.113712)
(-2.83112e-48 0.36898 0.118952)
(1.37918e-47 0.385879 0.124454)
(1.63242e-46 0.403451 0.130227)
(4.91995e-46 0.421726 0.136283)
(-2.02035e-45 0.440733 0.142631)
(-2.41887e-44 0.460504 0.149283)
(-6.9117e-44 0.48107 0.15625)
(2.83405e-43 0.502463 0.163544)
(3.08867e-42 0.524715 0.171174)
(7.63288e-42 0.547858 0.179153)
(-3.65309e-41 0.571924 0.187488)
(-3.28238e-40 0.596945 0.196188)
(-6.22343e-40 0.622947 0.205257)
(4.01185e-39 0.649956 0.214696)
(2.74487e-38 0.677992 0.224498)
(3.15424e-38 0.707065 0.23465)
(-3.40198e-37 0.737175 0.245128)
(-1.59273e-36 0.768305 0.25589)
(-1.38435e-37 0.800417 0.266879)
(1.79918e-35 0.833444 0.278013)
(3.08847e-35 0.867284 0.289179)
(-1.30624e-34 0.901791 0.30023)
(1.18119e-34 0.936771 0.310981)
(5.8899e-33 0.971971 0.3212)
(1.16348e-32 1.00708 0.33061)
(-1.39319e-31 1.04174 0.338881)
(-8.92911e-31 1.07552 0.34563)
(-6.07485e-31 1.10798 0.350411)
(1.55431e-29 1.13863 0.3527)
(7.50984e-29 1.16695 0.351859)
(4.57197e-29 1.19235 0.347088)
(-9.58975e-28 1.21409 0.337328)
(-4.40986e-27 1.23116 0.321201)
(-4.95782e-27 1.24201 0.296801)
(3.19071e-26 1.24416 0.261811)
(1.72414e-25 1.23389 0.213067)
(3.41609e-25 1.20494 0.147771)
(-2.05624e-25 1.14909 0.0621865)
(-3.35762e-24 1.05158 -0.0438099)
(-1.09961e-23 0.894462 -0.168922)
(-1.70759e-23 0.645223 -0.302308)
(-4.45273e-23 0.213094 -0.45696)
(3.78647e-23 -0.459847 -0.528344)
(-1.11089e-22 -0.889382 -0.513461)
(5.86831e-22 -1.35138 -0.373473)
(-2.38195e-21 -1.70831 -0.405863)
(2.39946e-20 -2.21761 -0.192536)
(-3.52973e-19 -2.28665 -0.454407)
(7.43067e-18 -3.10846 0.0209269)
(-6.02668e-18 -3.4343 -1.03644)
(2.03213e-69 0.0406461 0.0560568)
(1.27151e-68 0.0554312 0.0540054)
(4.9711e-68 0.0653081 0.054095)
(8.9212e-68 0.0750189 0.0537708)
(-5.34348e-67 0.0845497 0.0541083)
(-6.23406e-66 0.093753 0.0544862)
(-3.20728e-65 0.102889 0.0551913)
(-7.32367e-65 0.111921 0.0560479)
(2.63031e-64 0.120958 0.0571395)
(3.39649e-63 0.130017 0.0584119)
(1.64471e-62 0.139156 0.0598898)
(4.28778e-62 0.148404 0.0615558)
(2.56483e-62 0.157801 0.0634173)
(-6.51131e-61 0.167377 0.0654685)
(-1.08781e-59 0.177165 0.0677124)
(-1.11506e-58 0.187193 0.0701479)
(-5.84899e-58 0.19749 0.072777)
(5.78365e-58 0.208083 0.075601)
(3.44998e-56 0.218999 0.0786226)
(2.49185e-55 0.230266 0.0818448)
(3.74672e-55 0.241909 0.0852714)
(-7.62346e-54 0.253953 0.0889065)
(-6.78125e-53 0.266425 0.0927551)
(-1.66245e-52 0.279352 0.0968228)
(1.40172e-51 0.292757 0.101116)
(1.48555e-50 0.306669 0.105641)
(4.44453e-50 0.321113 0.110405)
(-2.25102e-49 0.336116 0.115416)
(-2.79006e-48 0.351706 0.120684)
(-9.2387e-48 0.36791 0.126216)
(3.26822e-47 0.384756 0.132022)
(4.59697e-46 0.402273 0.138114)
(1.57959e-45 0.42049 0.144501)
(-4.46454e-45 0.439439 0.151194)
(-6.66387e-44 0.459148 0.158204)
(-2.2342e-43 0.479651 0.165544)
(5.88851e-43 0.500978 0.173225)
(8.38314e-42 0.523163 0.181258)
(2.57113e-41 0.546236 0.189653)
(-7.30304e-41 0.570232 0.19842)
(-8.89538e-40 0.59518 0.207566)
(-2.3381e-39 0.621109 0.217094)
(7.8632e-39 0.648047 0.227003)
(7.63437e-38 0.676013 0.237286)
(1.61919e-37 0.705021 0.247927)
(-6.58593e-37 0.735073 0.258895)
(-4.96141e-36 0.766155 0.270147)
(-8.30751e-36 0.798234 0.281615)
(3.50654e-35 0.831248 0.293209)
(2.07431e-34 0.865101 0.304804)
(3.50152e-34 0.899657 0.31624)
(-4.83412e-35 0.934727 0.327313)
(-7.85889e-34 0.97007 0.337774)
(-1.98078e-32 1.00538 0.347327)
(-2.11189e-31 1.04031 0.355623)
(-7.54694e-31 1.07445 0.362263)
(1.49227e-30 1.10736 0.366786)
(2.40192e-29 1.13858 0.368659)
(8.07015e-29 1.1676 0.367228)
(-6.27013e-29 1.19388 0.361675)
(-1.51984e-27 1.21676 0.350906)
(-5.34318e-27 1.23528 0.333478)
(-1.91191e-27 1.24802 0.307374)
(5.46922e-26 1.2526 0.270114)
(2.31131e-25 1.24539 0.21828)
(3.57648e-25 1.22014 0.148822)
(-6.34287e-25 1.1684 0.05763)
(-5.08068e-24 1.07488 -0.0556719)
(-1.45772e-23 0.920845 -0.189728)
(-2.01325e-23 0.672677 -0.335287)
(-5.36637e-23 0.239104 -0.50174)
(4.22799e-23 -0.455299 -0.599661)
(-1.06171e-22 -0.907977 -0.604217)
(5.80596e-22 -1.36855 -0.437997)
(-2.49042e-21 -1.73017 -0.440677)
(2.57276e-20 -2.21898 -0.209167)
(-3.72657e-19 -2.31043 -0.44711)
(7.29814e-18 -3.05568 0.0311659)
(-2.14529e-18 -3.39272 -0.986011)
(5.78665e-69 0.0408949 0.0593884)
(4.03987e-68 0.0556121 0.0572783)
(1.73182e-67 0.0653446 0.0573655)
(4.01113e-67 0.0750131 0.0570238)
(-1.18548e-66 0.0844786 0.05738)
(-1.90072e-65 0.0936393 0.0577833)
(-1.09071e-64 0.102727 0.0585329)
(-2.99916e-64 0.111718 0.0594447)
(5.8871e-64 0.120712 0.0606049)
(1.09275e-62 0.12973 0.0619568)
(5.84375e-62 0.138829 0.0635257)
(1.60823e-61 0.148037 0.0652931)
(4.02427e-62 0.157394 0.0672665)
(-2.68463e-60 0.166931 0.06944)
(-3.35096e-59 0.176678 0.0718162)
(-3.16697e-58 0.186666 0.0743941)
(-1.71061e-57 0.196923 0.0771756)
(7.73323e-58 0.207475 0.0801622)
(9.48939e-56 0.21835 0.0833566)
(7.38688e-55 0.229575 0.0867617)
(1.46635e-54 0.241175 0.0903815)
(-2.01392e-53 0.253175 0.0942204)
(-1.98909e-52 0.265603 0.0982835)
(-5.74562e-52 0.278483 0.102577)
(3.53257e-51 0.291841 0.107106)
(4.28743e-50 0.305704 0.111879)
(1.45939e-49 0.320098 0.116902)
(-5.34872e-49 0.335049 0.122185)
(-7.89037e-48 0.350585 0.127736)
(-2.93524e-47 0.366733 0.133564)
(7.18062e-47 0.383521 0.13968)
(1.2696e-45 0.400978 0.146094)
(4.91736e-45 0.419133 0.152816)
(-8.89188e-45 0.438017 0.159859)
(-1.79612e-43 0.457659 0.167233)
(-6.91963e-43 0.478093 0.174952)
(1.06534e-42 0.499348 0.183025)
(2.21394e-41 0.521459 0.191466)
(8.09149e-41 0.544457 0.200284)
(-1.24006e-40 0.568374 0.209489)
(-2.32422e-39 0.593244 0.219087)
(-7.71362e-39 0.619095 0.229081)
(1.29805e-38 0.645955 0.239469)
(2.00896e-37 0.673846 0.250242)
(5.89376e-37 0.702783 0.26138)
(-1.07217e-36 0.732773 0.27285)
(-1.36898e-35 0.763804 0.284602)