/*--------------------------------*- C++ -*----------------------------------*\
| =========                 |                                                 |
| \\      /  F ield         | OpenFOAM: The Open Source CFD Toolbox           |
|  \\    /   O peration     | Version:  4.1                                   |
|   \\  /    A nd           | Web:      www.OpenFOAM.org                      |
|    \\/     M anipulation  |                                                 |
\*---------------------------------------------------------------------------*/
FoamFile
{
    version     2.0;
    format      ascii;
    class       volScalarField;
    location    "24";
    object      p;
}
// * * * * * * * * * * * * * * * * * * * * * * * * * * * * * * * * * * * * * //

dimensions      [0 2 -2 0 0 0 0];

internalField   nonuniform List<scalar> 
225
(
523.378
469.981
418.149
369.738
324.847
282.83
243.475
206.471
171.377
138.013
107.071
78.9325
49.9036
14.9847
-14.1674
56.9434
34.6824
28.9237
25.2135
19.7394
14.0319
8.87905
4.49029
1.00637
-1.45238
-2.64368
-2.14202
-0.0455785
1.82595
2.08613
-45.839
-52.482
-46.7151
-42.5682
-39.4776
-35.8822
-31.9959
-28.0586
-24.1542
-20.4383
-17.0928
-14.0257
-10.9488
-8.29601
-7.06175
0.294739
-2.12329
2.4695
2.79366
2.84725
3.06245
2.97333
2.59603
2.01448
1.25532
0.298584
-0.810747
-1.72103
-1.87325
-1.56279
16.7226
14.3899
15.9436
13.8456
12.4268
11.1833
9.77331
8.39146
7.13403
6.04299
5.14199
4.42945
3.95187
3.91915
4.16401
7.49454
5.47153
6.44551
5.2262
5.0232
5.00744
4.91967
4.95299
5.10858
5.35208
5.67138
6.03425
6.35391
6.61062
6.78536
4.02311
2.8677
3.95328
3.63019
4.01702
4.41114
4.71013
5.06079
5.41735
5.74213
6.03183
6.28575
6.46398
6.545
6.56072
5.70094
5.14315
5.99749
5.76849
5.96701
6.07952
6.10343
6.14874
6.17334
6.16852
6.14483
6.11703
6.08338
6.03754
5.98906
6.00825
5.68286
6.19368
5.91781
5.96064
5.92983
5.85477
5.80768
5.75206
5.69149
5.63224
5.57913
5.53241
5.48633
5.43513
4.68864
4.48096
4.82664
4.65024
4.72302
4.73197
4.71908
4.72728
4.72469
4.71792
4.70833
4.69361
4.67141
4.63616
4.57844
3.31878
3.20262
3.50029
3.44636
3.56598
3.61267
3.64129
3.67625
3.69286
3.69972
3.69772
3.68517
3.66111
3.62285
3.5573
2.34496
2.28478
2.53903
2.54029
2.65861
2.69997
2.72904
2.75611
2.76365
2.76154
2.75009
2.72915
2.69925
2.66043
2.59575
1.56584
1.53084
1.73312
1.74687
1.84602
1.87238
1.8947
1.9118
1.9121
1.90522
1.89061
1.86833
1.83873
1.80397
1.74608
0.880919
0.868765
1.02963
1.03431
1.11132
1.12491
1.14273
1.1548
1.15424
1.14928
1.13837
1.12134
1.09636
1.06521
1.01099
0.438604
0.39928
0.455131
0.423049
0.459213
0.440546
0.434212
0.420171
0.399281
0.376612
0.350016
0.321349
0.290937
0.261001
0.217979
)
;

boundaryField
{
    inletFace
    {
        type            zeroGradient;
    }
    inlet
    {
        type            zeroGradient;
    }
    inletWalls
    {
        type            zeroGradient;
    }
    outletInlet
    {
        type            fixedValue;
        value           uniform 0;
    }
}


// ************************************************************************* //
