/*--------------------------------*- C++ -*----------------------------------*\
| =========                 |                                                 |
| \\      /  F ield         | OpenFOAM: The Open Source CFD Toolbox           |
|  \\    /   O peration     | Version:  4.1                                   |
|   \\  /    A nd           | Web:      www.OpenFOAM.org                      |
|    \\/     M anipulation  |                                                 |
\*---------------------------------------------------------------------------*/
FoamFile
{
    version     2.0;
    format      ascii;
    class       surfaceScalarField;
    location    "24";
    object      phi;
}
// * * * * * * * * * * * * * * * * * * * * * * * * * * * * * * * * * * * * * //

dimensions      [0 3 -1 0 0 0 0];

internalField   nonuniform List<scalar> 
420
(
-949.879
2249.78
-1573.95
1924.28
-2054
1779.95
-2424.23
1670.13
-2699.86
1575.82
-2888.37
1488.42
-2993.05
1404.58
-3013.85
1321
-2949.61
1235.66
-2797.23
1147.52
-2551.17
1054.13
-2193
941.735
-1687.17
794.064
-1012.68
625.702
287.237
373.334
1876.44
442.749
1854.86
437.303
1785.39
406.699
1700.74
380.582
1601.94
359.903
1509.1
345.295
1419.19
337.538
1328.76
333.486
1239.71
326.956
1154.05
309.61
1071.48
267.466
983.877
191.42
870.102
111.451
705.684
398.68
33.5752
1842.87
-97.3882
1985.83
-253.611
1941.62
-371.118
1818.24
-473.181
1704.01
-567.529
1603.45
-651.746
1503.4
-725.793
1402.8
-788.071
1301.99
-837.305
1203.28
-868.225
1102.4
-856.09
971.738
-740.339
754.349
-434.288
399.631
-35.6052
28.7734
1814.09
-100.653
2115.25
-225.559
2066.52
-304.495
1897.18
-368.156
1767.67
-416.952
1652.24
-446.229
1532.68
-457.017
1413.59
-451.856
1296.82
-430.159
1181.58
-387.231
1059.47
-311.878
896.384
-192.87
635.34
-48.411
255.173
-84.0137
169.623
1644.47
146.156
2138.72
123.732
2088.95
122.869
1898.04
126.94
1763.6
135.803
1643.38
149.1
1519.38
166.588
1396.1
186.938
1276.47
208.126
1160.4
229.127
1038.47
243.818
881.692
233.002
646.157
155.228
332.948
71.2168
223.072
1421.4
244.178
2117.62
234.742
2098.39
236.02
1896.76
240.368
1759.25
244.302
1639.45
246.545
1517.14
245.249
1397.4
241.16
1280.56
233.985
1167.57
221.38
1051.07
199.136
903.935
156.138
689.155
78.3014
410.787
149.517
203.312
1218.09
238.365
2082.57
213.614
2123.14
191.404
1918.97
177.198
1773.45
163.768
1652.88
150.033
1530.87
135.892
1411.54
121.066
1295.39
106.913
1181.72
92.8158
1065.17
75.7668
920.985
52.0239
712.901
19.0252
443.788
168.538
171.845
1046.24
221.971
2032.44
199.413
2145.7
170.399
1947.99
152.048
1791.8
137.666
1667.26
122.776
1545.76
108.576
1425.74
95.58
1308.38
83.101
1194.2
71.4822
1076.79
58.6341
933.832
40.3257
731.208
15.7494
468.359
184.286
146.088
900.152
210.044
1968.48
196.86
2158.88
170.041
1974.81
152.391
1809.45
139.521
1680.13
127.057
1558.22
113.852
1438.94
101.306
1320.93
89.4069
1206.1
76.9737
1089.22
63.0769
947.727
44.2952
749.988
19.1572
493.498
203.456
116.753
783.394
184.837
1900.39
179.613
2164.1
154.297
2000.12
137.208
1826.54
123.988
1693.35
111.358
1570.85
98.9489
1451.35
86.0952
1333.78
73.8527
1218.34
62.0835
1100.99
49.0002
960.813
32.8309
766.168
13.1668
513.179
216.647
83.1565
700.236
143.125
1840.43
144.683
2162.55
122.756
2022.05
106.151
1843.15
94.4653
1705.03
82.5865
1582.73
71.1767
1462.76
60.3981
1344.56
49.4703
1229.27
39.4369
1111.02
29.7489
970.504
18.0808
777.84
5.23598
526.029
221.891
51.2503
648.998
97.9295
1793.75
102.723
2157.76
87.3964
2037.37
73.1733
1857.37
63.1653
1715.04
54.273
1591.63
44.8947
1472.14
36.1874
1353.27
28.2138
1237.24
20.4687
1118.76
13.7297
977.234
6.77759
784.771
-0.380421
533.171
221.49
25.1463
623.872
57.728
1761.16
63.5175
2151.96
53.4812
2047.4
43.9046
1866.94
36.1918
1722.74
29.5646
1598.25
23.5212
1478.17
17.0779
1359.7
11.3344
1242.97
6.63744
1123.45
2.51193
981.344
-1.04272
788.297
-3.66636
535.773
217.807
1.4328
622.441
24.072
1738.51
33.3585
2142.66
27.7124
2053.04
20.3494
1874.3
15.0483
1728.05
9.50669
1603.78
4.55159
1483.13
0.00591337
1364.25
-4.86493
1247.84
-8.37529
1126.96
-9.68301
982.656
-9.7419
788.369
-7.15065
533.196
210.666
-11.7084
-3.0987
1.48119
-0.384203
-5.08314
-8.83247
-11.7851
-15.2265
-18.0911
-20.2244
-21.7896
-21.1269
-18.1335
-12.3887
)
;

boundaryField
{
    inletFace
    {
        type            calculated;
        value           nonuniform List<scalar> 
450
(
6.96208e-14
4.20786e-13
-2.96984e-13
-9.4092e-14
1.46029e-13
-2.09634e-13
-8.69633e-14
7.44489e-15
-1.97646e-13
5.79874e-15
8.62796e-14
-3.94189e-14
-1.1306e-14
7.66887e-15
1.36536e-16
-1.95086e-12
-1.38237e-12
4.9991e-14
-6.20753e-13
-2.81829e-13
9.90286e-15
-3.08265e-13
-1.78971e-13
-1.18039e-13
-3.21216e-13
-6.49627e-14
5.45804e-14
-3.54359e-15
-3.56402e-15
-2.31313e-15
-1.90841e-12
-1.51666e-12
-1.1632e-13
-6.57077e-13
-2.8586e-13
-1.14851e-13
-3.27406e-13
-1.97609e-13
-2.25743e-13
-2.25637e-13
-2.35748e-14
-2.02111e-14
-2.62025e-17
2.26878e-14
-1.94402e-15
-2.22519e-12
-1.62312e-12
-2.65049e-13
-8.19015e-13
-2.54001e-13
-2.53287e-13
-4.65501e-13
-2.41103e-13
-2.98691e-13
-2.58465e-13
-3.60865e-14
-6.6793e-14
-8.44064e-14
4.86127e-14
7.01283e-14
-2.15337e-12
-1.74074e-12
-3.56979e-13
-7.34397e-13
-2.26499e-13
-2.71418e-13
-4.30515e-13
-2.16827e-13
-2.71921e-13
-2.43194e-13
-7.37249e-14
-7.72082e-14
-9.86189e-14
-1.01547e-14
5.80499e-14
-1.88758e-12
-1.84724e-12
-4.73645e-13
-5.98555e-13
-2.22676e-13
-1.99469e-13
-3.68231e-13
-1.77557e-13
-1.82666e-13
-2.27996e-13
-6.43269e-14
-5.39487e-14
-7.92509e-14
-7.05514e-15
1.30215e-14
-1.69666e-12
-1.98609e-12
-6.84465e-13
-5.54156e-13
-2.69238e-13
-2.29522e-13
-3.51143e-13
-1.94738e-13
-2.02751e-13
-2.40195e-13
-1.04309e-13
-8.68748e-14
-1.68953e-14
-6.18841e-14
-1.25964e-13
-1.50074e-12
-2.06423e-12
-8.85365e-13
-5.37837e-13
-2.93062e-13
-2.58658e-13
-3.38549e-13
-2.05278e-13
-2.06752e-13
-2.19867e-13
-1.46213e-13
-1.65098e-13
-2.50564e-14
-7.17095e-15
-1.86151e-13
-1.25539e-12
-2.09257e-12
-1.05702e-12
-5.39316e-13
-3.0231e-13
-2.3271e-13
-3.28494e-13
-2.21042e-13
-1.77871e-13
-2.06971e-13
-1.49661e-13
-1.34828e-13
-9.75799e-14
-9.69073e-15
-4.43919e-14
-1.07821e-12
-2.08406e-12
-1.20886e-12
-5.79156e-13
-3.08e-13
-2.1068e-13
-3.03473e-13
-2.27549e-13
-1.82366e-13
-2.01184e-13
-1.46302e-13
-8.89568e-14
-8.62546e-14
-3.22792e-14
8.21825e-14
-9.07394e-13
-2.0567e-12
-1.31995e-12
-6.05498e-13
-3.21618e-13
-2.02111e-13
-2.83104e-13
-2.36166e-13
-1.78239e-13
-1.67459e-13
-1.42122e-13
-7.46817e-14
-2.76221e-14
-3.51415e-14
1.03161e-13
-7.88523e-13
-2.03266e-12
-1.3698e-12
-6.53632e-13
-3.38499e-13
-1.71951e-13
-2.75599e-13
-2.47178e-13
-1.32312e-13
-1.60295e-13
-1.49847e-13
-1.83137e-14
-3.32914e-14
9.02212e-14
1.41869e-13
-7.44158e-13
-2.00021e-12
-1.42003e-12
-6.89259e-13
-3.45509e-13
-1.75053e-13
-2.5513e-13
-2.4773e-13
-1.1536e-13
-1.54193e-13
-1.46255e-13
-7.89204e-15
-3.40472e-14
1.18865e-13
1.30363e-13
-7.14747e-13
-1.9821e-12
-1.46386e-12
-7.02694e-13
-3.55378e-13
-1.7739e-13
-2.43303e-13
-2.59893e-13
-1.10417e-13
-1.50723e-13
-1.48923e-13
-5.73579e-15
-1.89576e-14
1.00229e-13
1.14403e-13
-7.25111e-13
-1.94095e-12
-1.47295e-12
-7.2546e-13
-3.63352e-13
-1.85394e-13
-2.46661e-13
-2.55368e-13
-1.24361e-13
-1.53376e-13
-1.34917e-13
-9.68038e-15
-9.12851e-15
9.1495e-14
6.6252e-14
-6.96208e-14
-4.20786e-13
2.96984e-13
9.4092e-14
-1.46029e-13
2.09634e-13
8.69633e-14
-7.44489e-15
1.97646e-13
-5.79874e-15
-8.62796e-14
3.94189e-14
1.1306e-14
-7.66887e-15
-1.36536e-16
1.95086e-12
1.38237e-12
-4.9991e-14
6.20753e-13
2.81829e-13
-9.90286e-15
3.08265e-13
1.78971e-13
1.18039e-13
3.21216e-13
6.49627e-14
-5.45804e-14
3.54359e-15
3.56402e-15
2.31313e-15
1.90841e-12
1.51666e-12
1.1632e-13
6.57077e-13
2.8586e-13
1.14851e-13
3.27406e-13
1.97609e-13
2.25743e-13
2.25637e-13
2.35748e-14
2.02111e-14
2.62025e-17
-2.26878e-14
1.94402e-15
2.22519e-12
1.62312e-12
2.65049e-13
8.19015e-13
2.54001e-13
2.53287e-13
4.65501e-13
2.41103e-13
2.98691e-13
2.58465e-13
3.60865e-14
6.6793e-14
8.44064e-14
-4.86127e-14
-7.01283e-14
2.15337e-12
1.74074e-12
3.56979e-13
7.34397e-13
2.26499e-13
2.71418e-13
4.30515e-13
2.16827e-13
2.71921e-13
2.43194e-13
7.37249e-14
7.72082e-14
9.86189e-14
1.01547e-14
-5.80499e-14
1.88758e-12
1.84724e-12
4.73645e-13
5.98555e-13
2.22676e-13
1.99469e-13
3.68231e-13
1.77557e-13
1.82666e-13
2.27996e-13
6.43269e-14
5.39487e-14
7.92509e-14
7.05514e-15
-1.30215e-14
1.69666e-12
1.98609e-12
6.84465e-13
5.54156e-13
2.69238e-13
2.29522e-13
3.51143e-13
1.94738e-13
2.02751e-13
2.40195e-13
1.04309e-13
8.68748e-14
1.68953e-14
6.18841e-14
1.25964e-13
1.50074e-12
2.06423e-12
8.85365e-13
5.37837e-13
2.93062e-13
2.58658e-13
3.38549e-13
2.05278e-13
2.06752e-13
2.19867e-13
1.46213e-13
1.65098e-13
2.50564e-14
7.17095e-15
1.86151e-13
1.25539e-12
2.09257e-12
1.05702e-12
5.39316e-13
3.0231e-13
2.3271e-13
3.28494e-13
2.21042e-13
1.77871e-13
2.06971e-13
1.49661e-13
1.34828e-13
9.75799e-14
9.69073e-15
4.43919e-14
1.07821e-12
2.08406e-12
1.20886e-12
5.79156e-13
3.08e-13
2.1068e-13
3.03473e-13
2.27549e-13
1.82366e-13
2.01184e-13
1.46302e-13
8.89568e-14
8.62546e-14
3.22792e-14
-8.21825e-14
9.07394e-13
2.0567e-12
1.31995e-12
6.05498e-13
3.21618e-13
2.02111e-13
2.83104e-13
2.36166e-13
1.78239e-13
1.67459e-13
1.42122e-13
7.46817e-14
2.76221e-14
3.51415e-14
-1.03161e-13
7.88523e-13
2.03266e-12
1.3698e-12
6.53632e-13
3.38499e-13
1.71951e-13
2.75599e-13
2.47178e-13
1.32312e-13
1.60295e-13
1.49847e-13
1.83137e-14
3.32914e-14
-9.02212e-14
-1.41869e-13
7.44158e-13
2.00021e-12
1.42003e-12
6.89259e-13
3.45509e-13
1.75053e-13
2.5513e-13
2.4773e-13
1.1536e-13
1.54193e-13
1.46255e-13
7.89204e-15
3.40472e-14
-1.18865e-13
-1.30363e-13
7.14747e-13
1.9821e-12
1.46386e-12
7.02694e-13
3.55378e-13
1.7739e-13
2.43303e-13
2.59893e-13
1.10417e-13
1.50723e-13
1.48923e-13
5.73579e-15
1.89576e-14
-1.00229e-13
-1.14403e-13
7.25111e-13
1.94095e-12
1.47295e-12
7.2546e-13
3.63352e-13
1.85394e-13
2.46661e-13
2.55368e-13
1.24361e-13
1.53376e-13
1.34917e-13
9.68038e-15
9.12851e-15
-9.1495e-14
-6.6252e-14
)
;
    }
    inlet
    {
        type            calculated;
        value           nonuniform List<scalar> 
15
(
-1299.9
-1300.2
-1299.9
-1299.9
-1300.2
-1299.9
-1299.9
-1300.2
-1299.9
-1299.9
-1300.2
-1299.9
-1299.9
-1300.2
-1299.9
)
;
    }
    inletWalls
    {
        type            calculated;
        value           uniform 0;
    }
    outletInlet
    {
        type            calculated;
        value           nonuniform List<scalar> 
15
(
198.284
527.473
785.393
982.003
1128.54
1249.98
1367.12
1486.57
1606.74
1731.8
1879
2054.91
2138.07
1729.89
634.158
)
;
    }
}


// ************************************************************************* //
