/*--------------------------------*- C++ -*----------------------------------*\
| =========                 |                                                 |
| \\      /  F ield         | OpenFOAM: The Open Source CFD Toolbox           |
|  \\    /   O peration     | Version:  4.1                                   |
|   \\  /    A nd           | Web:      www.OpenFOAM.org                      |
|    \\/     M anipulation  |                                                 |
\*---------------------------------------------------------------------------*/
FoamFile
{
    version     2.0;
    format      ascii;
    class       volVectorField;
    location    "24";
    object      U;
}
// * * * * * * * * * * * * * * * * * * * * * * * * * * * * * * * * * * * * * //

dimensions      [0 1 -1 0 0 0 0];

internalField   nonuniform List<vector> 
225
(
(1.05491e-14 0.852191 15.7946)
(5.94264e-15 -4.89458 12.1215)
(-1.75392e-15 -4.19551 12.1321)
(4.0909e-15 -3.60119 11.9966)
(5.92595e-16 -3.00468 11.8778)
(-8.16218e-17 -2.55319 11.6992)
(2.09831e-15 -2.20881 11.4769)
(6.92979e-16 -1.96603 11.2116)
(6.1266e-16 -1.79856 10.916)
(1.52615e-15 -1.71238 10.5882)
(-1.81268e-16 -1.83746 10.1561)
(-1.84837e-16 -2.28567 9.53762)
(3.44842e-16 -2.51301 8.96377)
(-5.30902e-17 -1.06551 8.91357)
(-9.45215e-19 1.76576 7.47092)
(1.4195e-14 -5.35016 22.493)
(9.57097e-15 -14.6049 21.394)
(-3.46078e-16 -13.2708 20.3411)
(4.48418e-15 -11.7697 19.5066)
(1.95127e-15 -11.1561 18.5044)
(-6.85555e-17 -10.6595 17.5174)
(2.24481e-15 -10.0901 16.5714)
(1.23912e-15 -9.525 15.6236)
(8.17157e-16 -8.96544 14.6638)
(2.191e-15 -8.36731 13.6946)
(4.49776e-16 -7.75709 12.7179)
(-3.77849e-16 -7.30335 11.7194)
(2.38332e-17 -7.01704 10.6244)
(2.46758e-17 -5.73093 9.16114)
(1.60133e-17 -2.30503 4.58323)
(1.52573e-14 -7.71565 23.9801)
(1.04995e-14 -16.7731 24.6729)
(8.05356e-16 -13.7365 23.9372)
(6.06817e-15 -12.3062 22.6249)
(1.97896e-15 -11.6447 21.2414)
(7.95187e-16 -10.814 20.0013)
(3.40657e-15 -9.94025 18.7738)
(1.36801e-15 -9.10011 17.5247)
(1.56296e-15 -8.28338 16.2654)
(2.35119e-15 -7.47524 15.0263)
(1.63204e-16 -6.66761 13.8176)
(1.39934e-16 -5.84164 12.4301)
(4.83503e-16 -4.81388 10.2752)
(-1.57063e-16 -3.12625 6.68443)
(1.34596e-17 -0.832146 1.68993)
(1.53974e-14 -8.50259 22.0462)
(1.12367e-14 -16.621 24.332)
(1.8349e-15 -12.93 23.7971)
(5.6706e-15 -12.1536 21.9985)
(1.68721e-15 -11.4201 20.5028)
(1.80212e-15 -10.4936 19.1722)
(3.22298e-15 -9.63387 17.8167)
(1.59014e-15 -8.82358 16.459)
(2.09565e-15 -8.05362 15.123)
(1.77463e-15 -7.32376 13.8164)
(2.41691e-16 -6.55245 12.4394)
(4.53042e-16 -5.49085 10.583)
(5.59577e-16 -3.78522 7.50863)
(-1.4392e-16 -1.49361 2.76595)
(-6.77497e-16 0.153302 -1.77301)
(1.46959e-14 -8.47615 19.748)
(1.17063e-14 -16.3601 24.312)
(2.29298e-15 -13.099 23.6602)
(4.88947e-15 -12.628 21.5365)
(1.25711e-15 -11.8565 20.0248)
(1.65917e-15 -10.9574 18.6637)
(2.86349e-15 -10.1698 17.2587)
(1.25253e-15 -9.40276 15.8711)
(1.75011e-15 -8.65257 14.5235)
(1.61307e-15 -7.93049 13.2135)
(2.83183e-16 -7.16586 11.8292)
(4.49832e-16 -6.11612 9.99623)
(5.76381e-16 -4.42399 7.15549)
(-2.87871e-16 -2.30525 3.28784)
(-7.68044e-16 -0.787185 0.317718)
(1.32916e-14 -8.02193 17.5537)
(1.28301e-14 -16.0195 24.5277)
(3.4064e-15 -13.6434 24.0462)
(4.14373e-15 -12.9943 21.7651)
(1.59068e-15 -12.1264 20.2157)
(1.53712e-15 -11.2247 18.847)
(2.60462e-15 -10.4389 17.4341)
(1.2885e-15 -9.64886 16.0433)
(1.45599e-15 -8.86034 14.6933)
(1.64731e-15 -8.09323 13.3817)
(5.20806e-16 -7.29728 12.0171)
(6.3229e-16 -6.28456 10.2818)
(4.3844e-16 -4.73297 7.72084)
(4.06453e-16 -2.75609 4.3724)
(9.17764e-16 -0.949384 1.29734)
(1.18799e-14 -7.33745 15.2535)
(1.37707e-14 -15.491 24.355)
(4.82304e-15 -14.0225 24.4218)
(3.8368e-15 -13.1278 22.0675)
(1.91421e-15 -12.1447 20.4401)
(1.69667e-15 -11.2358 19.0547)
(2.4312e-15 -10.4361 17.6437)
(1.4109e-15 -9.61982 16.2576)
(1.54008e-15 -8.81014 14.9066)
(1.66303e-15 -8.02721 13.5918)
(8.86995e-16 -7.22392 12.2368)
(9.80417e-16 -6.24023 10.5488)
(1.16977e-16 -4.78748 8.10743)
(5.35943e-17 -2.91408 4.94708)
(1.79487e-15 -1.01086 1.79737)
(1.01281e-14 -6.55628 13.033)
(1.42916e-14 -14.847 23.8164)
(6.08695e-15 -14.2638 24.669)
(3.67679e-15 -13.2372 22.3215)
(2.02901e-15 -12.1674 20.5831)
(1.68222e-15 -11.2657 19.1667)
(2.40207e-15 -10.4651 17.7586)
(1.42123e-15 -9.64313 16.3766)
(1.29367e-15 -8.83492 15.0245)
(1.52206e-15 -8.05527 13.7073)
(1.0123e-15 -7.25497 12.3576)
(9.52672e-16 -6.28686 10.6995)
(2.93172e-16 -4.89096 8.33088)
(4.96479e-17 -3.08516 5.26756)
(7.9203e-16 -1.12216 2.04386)
(8.69093e-15 -5.77842 11.1239)
(1.44866e-14 -14.1745 23.0906)
(7.19258e-15 -14.4412 24.8462)
(3.73362e-15 -13.3963 22.6148)
(2.09286e-15 -12.2528 20.7553)
(1.44989e-15 -11.3493 19.2955)
(2.27412e-15 -10.5477 17.8904)
(1.53024e-15 -9.7254 16.5109)
(1.09559e-15 -8.91941 15.1561)
(1.43284e-15 -8.14019 13.8351)
(1.03609e-15 -7.33991 12.4863)
(6.52918e-16 -6.38009 10.8512)
(6.75534e-16 -5.02341 8.54658)
(6.70878e-17 -3.26566 5.55814)
(-6.29473e-16 -1.23746 2.24754)
(7.26544e-15 -5.08505 9.59941)
(1.44277e-14 -13.5192 22.3001)
(8.32661e-15 -14.5349 24.9522)
(3.87271e-15 -13.5531 22.9352)
(2.13225e-15 -12.3447 20.9698)
(1.40467e-15 -11.425 19.4566)
(1.98523e-15 -10.6173 18.0505)
(1.57529e-15 -9.79441 16.6721)
(1.19443e-15 -8.98822 15.3136)
(1.24415e-15 -8.20617 13.9873)
(1.01283e-15 -7.40466 12.6355)
(5.22224e-16 -6.45138 11.0131)
(3.65232e-16 -5.12511 8.75497)
(2.23465e-16 -3.40641 5.81937)
(-8.69142e-16 -1.31899 2.43083)
(6.07532e-15 -4.53877 8.46234)
(1.4289e-14 -12.9255 21.5504)
(8.9878e-15 -14.5349 24.9757)
(4.19167e-15 -13.6653 23.2209)
(2.27705e-15 -12.4128 21.1811)
(1.18176e-15 -11.4735 19.612)
(1.95984e-15 -10.659 18.2003)
(1.69836e-15 -9.83695 16.8209)
(9.58861e-16 -9.03205 15.4585)
(1.15927e-15 -8.24857 14.1269)
(1.06692e-15 -7.44649 12.7691)
(1.39241e-16 -6.49773 11.1498)
(1.91219e-16 -5.19258 8.91845)
(-4.2279e-16 -3.5018 6.01047)
(-1.27273e-15 -1.36373 2.54244)
(5.45885e-15 -4.17052 7.70283)
(1.40978e-14 -12.4378 20.9278)
(9.41854e-15 -14.4733 24.9365)
(4.52502e-15 -13.7315 23.4377)
(2.36879e-15 -12.4592 21.3593)
(1.13556e-15 -11.5039 19.7404)
(1.90794e-15 -10.6833 18.3206)
(1.77513e-15 -9.86362 16.9391)
(8.46603e-16 -9.06123 15.5729)
(1.1097e-15 -8.27769 14.2364)
(1.03737e-15 -7.475 12.871)
(3.15359e-17 -6.52694 11.2466)
(2.88962e-16 -5.23315 9.02655)
(-7.07599e-16 -3.55802 6.12612)
(-1.17411e-15 -1.37733 2.57264)
(5.05306e-15 -3.97351 7.27985)
(1.38203e-14 -12.0683 20.4614)
(9.85293e-15 -14.3843 24.8625)
(4.72536e-15 -13.7598 23.5826)
(2.39192e-15 -12.4875 21.4968)
(1.21187e-15 -11.5229 19.8405)
(1.73654e-15 -10.6965 18.4119)
(1.81185e-15 -9.8799 17.0278)
(7.63577e-16 -9.0805 15.6583)
(1.06758e-15 -8.29717 14.3169)
(1.05468e-15 -7.4931 12.942)
(6.68442e-18 -6.54209 11.306)
(2.35732e-16 -5.25089 9.08417)
(-7.40374e-16 -3.57872 6.17522)
(-1.05049e-15 -1.36514 2.53875)
(4.88364e-15 -3.90382 7.11049)
(1.37092e-14 -11.8314 20.1818)
(1.01112e-14 -14.2998 24.79)
(4.8527e-15 -13.7666 23.6684)
(2.44752e-15 -12.5017 21.5896)
(1.22801e-15 -11.5319 19.9094)
(1.69938e-15 -10.7002 18.4744)
(1.78308e-15 -9.88527 17.0881)
(7.64381e-16 -9.08769 15.717)
(1.06263e-15 -8.30383 14.3727)
(1.01001e-15 -7.49757 12.9904)
(3.9707e-17 -6.54285 11.343)
(1.60266e-16 -5.25308 9.11677)
(-7.3479e-16 -3.58341 6.20121)
(-7.91973e-16 -1.35004 2.50632)
(5.00505e-15 -4.03922 7.28639)
(1.34299e-14 -11.6269 19.9518)
(1.0204e-14 -14.1916 24.6679)
(5.02227e-15 -13.7464 23.7083)
(2.50893e-15 -12.5065 21.6737)
(1.29064e-15 -11.5392 19.9773)
(1.7076e-15 -10.6995 18.535)
(1.75979e-15 -9.8869 17.1437)
(8.69768e-16 -9.09043 15.7693)
(1.0618e-15 -8.30487 14.4182)
(9.28822e-16 -7.48982 13.0146)
(7.29103e-17 -6.51516 11.3279)
(6.31955e-17 -5.20579 9.06096)
(-6.43588e-16 -3.50155 6.08267)
(-4.39581e-16 -1.25253 2.3074)
)
;

boundaryField
{
    inletFace
    {
        type            zeroGradient;
    }
    inlet
    {
        type            fixedValue;
        value           uniform (0 8.7 15);
    }
    inletWalls
    {
        type            noSlip;
    }
    outletInlet
    {
        type            zeroGradient;
    }
}


// ************************************************************************* //
