/*--------------------------------*- C++ -*----------------------------------*\
| =========                 |                                                 |
| \\      /  F ield         | OpenFOAM: The Open Source CFD Toolbox           |
|  \\    /   O peration     | Version:  4.1                                   |
|   \\  /    A nd           | Web:      www.OpenFOAM.org                      |
|    \\/     M anipulation  |                                                 |
\*---------------------------------------------------------------------------*/
FoamFile
{
    version     2.0;
    format      ascii;
    class       surfaceScalarField;
    location    "17";
    object      phi;
}
// * * * * * * * * * * * * * * * * * * * * * * * * * * * * * * * * * * * * * //

dimensions      [0 3 -1 0 0 0 0];

internalField   nonuniform List<scalar> 
13220
(
-823.454
2123.36
-1279.95
1756.69
-1738.02
1757.97
-2076.16
1638.04
-2346.22
1570.26
-2537.53
1491.21
-2654.78
1417.14
-2697.25
1342.67
-2667.35
1270
-2564.1
1196.65
-2386.98
1123.09
-2128.46
1041.38
-1728.95
900.391
-1053.62
624.872
246.281
-116.476
2239.83
-279.956
1920.17
-487.14
1965.16
-633.733
1784.64
-772.15
1708.68
-867.495
1586.56
-932.911
1482.56
-965.175
1374.94
-973.043
1277.87
-963.587
1187.2
-935.957
1095.46
-874.828
980.251
-744.952
770.517
-476.852
356.775
-230.572
-103.861
2343.7
-264.773
2081.09
-380.471
2080.86
-438.114
1842.28
-485.505
1756.07
-492.126
1593.18
-480.36
1470.8
-440.24
1334.82
-359.274
1196.9
-222.129
1050.06
-48.6652
921.998
116.092
815.501
223.982
662.639
197.897
382.884
-32.6746
-20.5451
2364.24
-76.6549
2137.2
-112.243
2116.45
-144.138
1874.18
-180.154
1792.09
-211.094
1624.12
-251.536
1511.24
-279.861
1363.15
-252.147
1169.19
-102.626
900.538
161.3
658.074
442.332
534.467
604.882
500.087
488.584
499.18
455.91
-44.9181
2409.16
-164.819
2257.1
-250.217
2201.85
-349.868
1973.83
-459.437
1901.66
-573.044
1737.73
-706.647
1644.84
-844.468
1500.97
-968.972
1293.7
-1022.9
954.468
-944.693
579.865
-716.04
305.818
-394.865
178.914
-120.661
224.979
335.248
70.4462
2338.71
-74.4009
2401.95
-138.058
2265.5
-195.003
2030.78
-247.396
1954.05
-295.95
1786.29
-339.603
1688.5
-388.479
1549.84
-472.478
1377.69
-623.537
1105.52
-812.459
768.786
-934.98
428.333
-874.408
118.336
-570.296
-79.1391
-235.048
229.348
2109.37
173.044
2458.25
185.162
2253.39
225.197
1990.74
289.083
1890.17
352.065
1723.3
435.25
1605.31
519.239
1465.86
575.334
1321.6
540.055
1140.8
387.269
921.572
144.097
671.51
-105.391
367.831
-151.942
-32.5797
-386.99
239.917
1869.45
260.922
2437.25
299.841
2214.47
362.946
1927.64
449.16
1803.96
531.199
1641.26
623.812
1512.7
717.52
1372.15
803.22
1235.9
849.31
1094.71
830.513
940.369
731.777
770.242
539.79
559.812
207.911
299.291
-179.079
151.613
1717.84
199.623
2389.24
237.599
2176.49
286.836
1878.4
350.911
1739.88
408.113
1584.06
464.131
1456.68
512.173
1324.11
551.666
1196.41
574.568
1071.81
569.382
945.555
523.139
816.492
416.844
666.115
235.797
480.355
56.7176
65.246
1652.59
134.969
2319.52
190.872
2120.59
248.339
1820.93
312.969
1675.25
369.933
1527.1
420.053
1406.56
462.888
1281.27
498.614
1160.68
526.054
1044.37
534.151
937.457
502.249
848.386
403.78
764.576
225.059
659.059
281.777
-31.2474
1683.84
64.6978
2223.57
161.226
2024.06
231.117
1751.04
301.893
1604.47
386.724
1442.27
479.624
1313.66
580.608
1180.29
677.586
1063.7
755.024
966.932
782.737
909.742
727.519
903.607
564.728
927.368
316.625
907.164
598.402
-58.5797
1742.42
-57.8745
2222.86
-0.63201
1966.81
30.6632
1719.74
54.0622
1581.07
116.692
1379.63
228.016
1202.33
374.13
1034.17
530.211
907.618
663.375
833.764
724.236
848.88
674.456
953.379
504.355
1097.46
262.29
1149.22
860.692
163.027
1579.39
91.8372
2294.05
-61.8787
2120.53
-185.592
1843.45
-267.567
1663.04
-324.007
1436.07
-341.519
1219.84
-328.855
1021.5
-289.64
868.402
-223.002
767.124
-135.603
761.479
-47.3694
865.145
11.4387
1038.65
18.8685
1141.79
879.56
575.172
1004.21
815.314
2053.91
627.29
2308.55
274.887
2195.86
-63.9062
2001.84
-384.794
1756.96
-675.653
1510.7
-936.235
1282.08
-1149.23
1081.4
-1289.76
907.658
-1308.44
780.159
-1158.33
715.026
-837.647
717.97
-417.481
721.62
462.079
627.948
1645.85
2339.7
2746.44
2930.28
2889.65
2680.02
2378.2
1970.84
1518.23
1065.53
668.399
396.617
222.316
3.27003e-06
-222.08
222.08
-222.08
-222.08
-222.08
256.928
-479.008
256.928
256.928
256.928
691.392
-434.464
691.392
691.392
1056.16
-364.768
1056.16
1056.16
1056.16
1331.2
-275.044
1331.2
1331.2
1525.68
-194.473
1525.68
1525.68
1525.68
1640.61
-114.934
1640.61
1640.61
1640.61
1674.02
-33.4074
1674.02
1674.02
1633.68
40.3358
1633.68
1633.68
1633.68
1529.76
103.926
1529.76
1529.76
1388.09
141.663
1388.09
1388.09
1388.09
1254.53
133.561
1254.53
1254.53
1254.53
1238.22
16.3087
1238.22
1238.22
1159.46
78.7658
1159.46
1159.46
1159.46
954.345
205.113
954.345
954.345
954.345
630.16
324.185
630.16
630.16
245.364
384.796
245.364
245.364
245.364
-265.653
511.017
-265.653
-265.653
-1403.15
1137.5
-1403.15
-1403.15
-1403.15
-3028.18
1625.04
-3028.18
-3028.18
-3028.18
-5049.73
2021.55
-5049.73
-5049.73
-7355.11
2305.38
-7355.11
-7355.11
-7226.3
-7101.61
-6975.89
-9302.46
2453.33
-9168.12
-9013.37
-8845.4
-8677.25
-8507.61
-8338.22
-8166.76
-7984.96
-10374.8
2567.01
-10181.8
-9990.62
-9800.71
-9592.64
-9383.29
-9173.47
-8964.08
-8754.6
-11133.3
2592.78
-10901.3
-10668.5
-10435.1
-10201.9
-9961.16
-9705.83
-9449.16
-9189.98
-8929.86
-11209.7
2527.65
-10931.2
-10651.8
-10372.1
-10093.1
-9814.86
-9520.64
-9217.19
-8914.51
-10799.1
2174.1
-10505.5
-10202.5
-9882.03
-9560.52
-9237.19
-8913.47
-8587.75
-8236.15
-9651.84
1754.19
-9316.33
-8984.36
-8655.23
-8311.79
-7964.9
-7622.82
-7282.78
-6947.41
-7580.64
971.296
-7243.62
-6909.12
-6574.49
-6240.89
-5910.26
-5592.46
-5279.22
-4972.26
-4676.37
-4534.55
152.086
-4296.46
-4089.22
-3890.08
-3701.15
-3520.2
-3381.26
-3317.36
-3250.09
-2799.27
-371.666
-2734.22
-2666.95
-2666.95
-2443.83
-223.121
-2213.35
-230.48
-2213.35
-2021.76
-191.584
-2021.76
-1856.65
-165.118
-1695.07
-161.58
-1695.06
-1549.32
-145.741
-1405.07
-144.256
-1405.07
-1265.96
-139.108
-1265.96
-1130.07
-135.89
-995.026
-135.045
-995.026
-856.021
-139.004
-856.021
-712.583
-143.439
-572.336
-140.247
-572.336
-425.709
-146.627
-291.495
-134.214
-291.495
-163.252
-128.243
-163.252
-45.538
-117.714
47.4414
-92.9792
47.4414
125.677
-78.2355
125.677
191.409
-65.7318
273.722
-82.3133
273.722
344.695
-70.973
431.257
-86.562
431.257
516.323
-85.066
516.323
589.265
-72.9415
671.122
-81.8572
671.122
741.582
-70.4597
741.582
796.593
-55.0111
855.993
-59.4006
855.993
899.868
-43.8752
943.763
-43.8942
943.763
980.46
-36.6974
980.46
1006.69
-26.229
1033.34
-26.6462
1033.34
1057.91
-24.5701
1057.91
1075.58
-17.6739
1091.61
-16.0344
1091.61
1105.42
-13.8096
1115.44
-10.0124
1115.44
1129.12
-13.6859
1129.12
1141.88
-12.7543
1152.93
-11.0588
1152.93
1170.44
-17.501
1170.44
1190.56
-20.128
1212.96
-22.3963
1212.96
1245.38
-32.4194
1282.4
-37.0177
1282.4
1334.17
-51.7716
1334.17
-57.2677
-213.824
-771.492
-216.235
-870.512
-219.232
-912.559
-222.795
-967.031
-226.914
-1011.4
-231.566
-1057.54
-236.738
-1100.43
-242.475
-1143.6
-248.847
-1185.78
-256.049
-1227.87
-264.46
-1269.18
-274.789
-1309.03
-288.199
-1345.66
-306.353
-1376.67
-331.217
-1399.07
-364.52
-1410.28
-406.969
-1409.14
-457.548
-1396.79
-513.366
-1376.55
-570.258
-1352.78
-623.871
-1329.37
-670.702
-1308.74
-708.643
-1291.86
-736.956
-1279.16
-755.894
-1271.42
-766.273
-1270.03
-769.183
-1276.23
-765.836
-1290.02
-757.492
-1309.58
-745.391
-1331.52
-730.716
-1351.49
-714.561
-1364.71
-697.936
-1365.84
-681.936
-1349.31
-667.869
-1313.27
-653.89
-1261.24
-622.462
-1140.13
-549.976
-685.59
-478.422
279.311
-449.899
895.179
-426.424
1183.04
-403.668
1408.59
-381.719
1651.56
-360.041
1908.36
-338.294
2171.77
-316.497
2436.01
-294.516
2694.93
-272.3
2942.71
-249.651
3175.17
-226.63
3388.71
-203.035
3581.64
-178.924
3750.87
-154.177
3897.25
-128.402
4020.47
-101.987
4109.09
-75.1646
4163.62
-48.9819
4177.5
-22.8863
4166.02
-0.284233
4011.26
17.6956
3784.76
31.2965
3530.09
39.4758
3199.19
44.7645
2939.12
47.9672
2711.03
49.9776
2490.87
51.6333
2283.49
53.2162
2069.31
54.9845
1848.76
56.4839
1566.28
58.6522
1308.54
60.1022
875.596
73.8667
621.2
69.5524
-298.64
55.0942
-1244.6
32.1
-1872
23.7634
-2256.8
4.5251
-2599.92
15.9272
-2764.12
1972.38
-224.872
-770.334
-227.146
-868.238
-230.3
-909.404
-234.046
-963.286
-238.444
-1007
-243.437
-1052.54
-249.03
-1094.83
-255.311
-1137.32
-262.443
-1178.65
-270.824
-1219.49
-281.195
-1258.81
-294.833
-1295.39
-313.625
-1326.87
-339.897
-1350.4
-375.784
-1363.18
-422.218
-1363.84
-477.958
-1353.4
-539.308
-1335.44
-600.91
-1314.94
-657.286
-1296.4
-704.306
-1282.35
-739.917
-1273.13
-764.008
-1267.77
-777.759
-1265.41
-782.921
-1266.26
-781.291
-1271.66
-774.45
-1283.07
-763.722
-1300.74
-750.245
-1323.06
-735.075
-1346.69
-719.26
-1367.31
-703.845
-1380.12
-689.812
-1379.87
-678.128
-1360.99
-669.927
-1321.47
-663.687
-1267.48
-640.419
-1163.39
-560.571
-765.438
-464.295
183.035
-438.66
869.544
-421.321
1165.7
-399.129
1386.4
-377.266
1629.7
-356.365
1887.46
-335.488
2150.89
-314.492
2415.01
-293.238
2673.67
-271.622
2921.1
-249.455
3153.01
-226.809
3366.06
-203.497
3558.32
-179.588
3726.96
-154.976
3872.64
-129.289
3994.78
-102.921
4082.72
-76.1141
4136.82
-49.9369
4151.32
-23.8087
4139.89
-1.09991
3988.55
17.0267
3766.64
30.8267
3516.29
39.2323
3190.79
44.7811
2933.57
48.2764
2707.53
50.6219
2488.52
52.6654
2281.45
54.6846
2067.29
56.9023
1846.54
58.792
1564.39
61.4943
1305.84
63.0439
874.047
79.1006
605.144
72.3604
-291.9
54.5988
-1226.84
32.0676
-1849.46
22.5009
-2247.23
5.05801
-2582.47
15.54
-2774.6
1936.14
-231.073
-769.129
-233.26
-866.051
-236.529
-906.135
-240.384
-959.432
-244.963
-1002.42
-250.178
-1047.33
-256.073
-1088.94
-262.794
-1130.6
-270.642
-1170.8
-280.267
-1209.87
-292.806
-1246.27
-310.05
-1278.14
-334.342
-1302.58
-368.055
-1316.68
-412.586
-1318.65
-467.227
-1309.2
-528.635
-1291.99
-591.444
-1272.63
-649.833
-1256.55
-699.176
-1247.06
-736.977
-1244.55
-762.853
-1247.25
-777.921
-1252.7
-784.043
-1259.28
-783.221
-1267.08
-777.235
-1277.65
-767.511
-1292.79
-755.18
-1313.07
-741.223
-1337.01
-726.624
-1361.28
-712.438
-1381.49
-699.744
-1392.82
-689.495
-1390.12
-682.439
-1368.05
-679.281
-1324.63
-678.563
-1268.2
-662.765
-1179.19
-585.807
-842.396
-465.395
62.6226
-423.974
828.123
-411.623
1153.35
-393.268
1368.04
-371.532
1607.96
-351.154
1867.08
-331.393
2131.13
-311.528
2395.15
-291.314
2653.46
-270.596
2900.38
-249.171
3131.58
-227.105
3344
-204.239
3535.46
-180.658
3703.38
-156.262
3848.24
-130.712
3969.23
-104.406
4056.41
-77.6119
4110.02
-51.4027
4125.11
-25.1561
4113.64
-2.26526
3965.66
16.0917
3748.28
30.1855
3502.2
38.9012
3182.07
44.7851
2927.69
48.6657
2703.65
51.4609
2485.73
54.031
2278.88
56.6498
2064.67
59.4898
1843.7
61.9762
1561.9
65.247
1302.57
67.182
872.112
82.7176
589.608
74.5792
-283.761
55.4747
-1207.74
32.9009
-1826.89
21.9921
-2236.32
6.09259
-2566.58
12.8126
-2781.32
1911.94
-238.493
-767.84
-240.631
-863.912
-244.047
-902.719
-248.054
-955.425
-252.867
-997.606
-258.382
-1041.81
-264.705
-1082.62
-272.091
-1123.21
-281.069
-1161.82
-292.673
-1198.26
-308.584
-1230.36
-331.171
-1255.56
-363.064
-1270.69
-406.189
-1273.56
-460.482
-1264.36
-523.035
-1246.65
-588.427
-1226.59
-650.287
-1210.77
-703.208
-1203.63
-744.001
-1206.27
-771.872
-1216.68
-787.822
-1231.3
-793.84
-1246.68
-792.224
-1260.9
-785.144
-1274.16
-774.412
-1288.38
-761.416
-1305.79
-747.225
-1327.27
-732.779
-1351.46
-719.062
-1375
-707.147
-1393.41
-698.095
-1401.87
-692.701
-1395.52
-691.325
-1369.43
-694.082
-1321.87
-699.452
-1262.83
-691.499
-1187.15
-620.49
-913.404
-479.477
-78.3908
-412.866
761.512
-398.221
1138.71
-384.998
1354.82
-365.067
1588.03
-345.041
1847.05
-326.264
2112.36
-307.748
2376.63
-288.841
2634.55
-269.269
2880.81
-248.816
3111.13
-227.525
3322.71
-205.257
3513.19
-182.121
3680.24
-158.018
3824.14
-132.649
3943.86
-106.424
4030.19
-79.6414
4083.24
-53.3642
4098.83
-26.9543
4087.23
-3.81639
3942.52
14.845
3729.62
29.3124
3487.73
38.4309
3172.95
44.7255
2921.39
49.0712
2699.31
52.4085
2482.39
55.614
2275.67
58.9599
2061.32
62.5667
1840.09
65.7935
1558.67
69.7366
1298.62
72.0905
869.758
87.8663
573.832
78.7026
-274.597
57.2964
-1186.33
34.1101
-1803.7
21.5328
-2223.75
6.42979
-2551.47
10.7529
-2785.65
1890.27
-245.785
-766.436
-247.899
-861.798
-251.479
-899.139
-255.661
-951.244
-260.74
-992.527
-266.621
-1035.93
-273.51
-1075.73
-281.855
-1114.86
-292.534
-1151.14
-307.115
-1183.68
-327.911
-1209.56
-357.74
-1225.73
-399.015
-1229.41
-452.371
-1220.2
-515.479
-1201.25
-583.028
-1179.1
-648.187
-1161.44
-704.776
-1154.18
-748.884
-1159.53
-779.266
-1175.89
-796.761
-1199.19
-803.377
-1224.69
-801.539
-1248.52
-793.639
-1268.8
-781.805
-1285.99
-767.778
-1302.41
-752.894
-1320.67
-738.2
-1341.96
-724.65
-1365.01
-713.259
-1386.39
-705.105
-1401.56
-701.134
-1405.84
-701.812
-1394.84
-706.884
-1364.35
-715.666
-1313.09
-726.5
-1252
-725.644
-1188
-662.04
-977.008
-504.097
-236.333
-407.113
664.528
-383.486
1115.08
-373.456
1344.79
-357.038
1571.61
-338.174
1828.19
-320.202
2094.38
-303.061
2359.49
-285.729
2617.22
-267.58
2862.66
-248.352
3091.9
-228.06
3302.42
-206.573
3491.7
-184.017
3657.69
-160.304
3800.43
-135.178
3918.74
-109.061
4004.07
-82.2855
4056.46
-55.9111
4072.46
-29.2788
4060.6
-5.82
3919.06
13.2288
3710.57
28.1663
3472.79
37.7829
3163.34
44.5783
2914.6
49.4797
2694.41
53.4603
2478.41
57.4204
2271.71
61.6302
2057.11
66.1633
1835.56
70.2855
1554.55
75.0597
1293.85
77.8825
866.935
93.775
557.94
83.6645
-264.487
60.0174
-1162.68
35.8422
-1779.53
21.327
-2209.23
6.50014
-2536.65
6.54509
-2785.69
1874.42
-253.267
-764.879
-255.382
-859.682
-259.153
-895.368
-263.548
-946.849
-268.956
-987.119
-275.327
-1029.56
-283.035
-1068.02
-292.84
-1105.06
-306.125
-1137.85
-325.125
-1164.68
-352.741
-1181.94
-391.832
-1186.64
-443.766
-1177.48
-506.957
-1157.01
-576.399
-1131.81
-644.918
-1110.58
-705.539
-1100.82
-753.526
-1106.19
-787.09
-1125.96
-806.854
-1156.12
-814.809
-1191.23
-813.427
-1226.07
-805.17
-1256.78
-792.303
-1281.67
-776.837
-1301.46
-760.479
-1318.77
-744.608
-1336.54
-730.361
-1356.21
-718.785
-1376.58
-710.945
-1394.23
-707.841
-1404.66
-710.122
-1403.56
-717.682
-1387.28
-729.418
-1352.62
-743.71
-1298.79
-758.806
-1236.9
-763.766
-1183.04
-708.753
-1032.02
-538.546
-406.54
-407.28
533.261
-369.289
1077.09
-359.108
1334.61
-346.479
1558.98
-330.241
1811.95
-313.401
2077.54
-297.498
2343.59
-281.87
2601.59
-265.418
2846.21
-247.672
3074.16
-228.612
3283.36
-208.106
3471.2
-186.288
3635.87
-163.082
3777.22
-138.275
3893.93
-112.305
3978.1
-85.5451
4029.7
-59.0498
4045.96
-32.1389
4033.69
-8.28763
3895.21
11.2302
3691.05
26.73
3457.29
36.9355
3153.13
44.3162
2907.22
49.8585
2688.86
54.576
2473.69
59.4001
2266.89
64.5986
2051.91
70.2054
1829.95
75.3688
1549.39
81.1164
1288.1
84.4744
863.577
100.275
542.139
89.4806
-253.693
63.6356
-1136.84
38.0579
-1753.95
21.3467
-2192.52
6.27206
-2521.57
2.33688
-2781.76
1856.63
-260.886
-763.132
-263.026
-857.542
-267.022
-891.372
-271.685
-942.186
-277.52
-981.285
-284.588
-1022.49
-293.536
-1059.07
-305.592
-1093
-322.807
-1120.64
-348.119
-1139.37
-384.716
-1145.35
-434.712
-1136.64
-497.39
-1114.8
-568.277
-1086.12
-640.019
-1060.07
-704.854
-1045.75
-757.11
-1048.56
-794.338
-1068.96
-816.898
-1103.4
-826.783
-1146.24
-826.541
-1191.48
-818.654
-1233.96
-805.37
-1270.06
-788.741
-1298.29
-770.687
-1319.51
-752.966
-1336.49
-737.115
-1352.39
-724.456
-1368.87
-716.167
-1384.87
-713.295
-1397.11
-716.576
-1401.38
-726.1
-1394.04
-740.921
-1372.46
-758.921
-1334.62
-777.53
-1280.19
-795.019
-1219.41
-803.928
-1174.13
-759.088
-1076.86
-584.11
-581.518
-415.255
364.407
-357.163
1019
-343.222
1320.67
-333.039
1548.8
-320.488
1799.4
-305.794
2062.85
-291.193
2328.99
-277.224
2587.62
-262.664
2831.65
-246.662
3058.15
-229.072
3265.77
-209.762
3451.89
-188.859
3614.97
-166.291
3754.66
-141.896
3869.53
-116.131
3952.33
-89.4092
4002.98
-62.7796
4019.33
-35.5475
4006.46
-11.2419
3870.91
8.82008
3670.99
24.9679
3441.15
35.8515
3142.25
43.9006
2899.17
50.1666
2682.6
55.7103
2468.15
61.4997
2261.1
67.8021
2045.61
74.6183
1823.14
80.9562
1543.05
87.8128
1281.24
91.7643
859.626
107.316
526.588
96.0766
-242.453
68.0853
-1108.85
40.7821
-1726.65
21.5843
-2173.32
5.71888
-2505.71
-0.884359
-2775.15
1838.24
-268.675
-761.155
-270.865
-855.352
-275.134
-887.103
-280.151
-937.169
-286.582
-974.854
-294.7
-1014.37
-305.569
-1048.2
-321.07
-1077.5
-344.031
-1097.68
-377.898
-1105.5
-425.453
-1097.79
-486.958
-1075.14
-558.699
-1043.06
-633.371
-1011.45
-702.486
-990.953
-759.332
-988.899
-800.65
-1007.24
-826.445
-1043.17
-838.719
-1091.13
-840.155
-1144.8
-833.323
-1198.31
-820.417
-1246.86
-803.366
-1287.12
-784.029
-1317.63
-764.327
-1339.22
-746.199
-1354.62
-731.462
-1367.13
-721.69
-1378.64
-718.15
-1388.41
-721.69
-1393.57
-732.498
-1390.57
-749.789
-1376.75
-771.569
-1350.68
-794.693
-1311.49
-815.801
-1259.08
-833.362
-1201.85
-843.762
-1163.73
-810.405
-1110.22
-643.483
-748.44
-435.953
156.878
-348.511
931.557
-327.113
1299.27
-317.148
1538.83
-308.195
1790.45
-296.888
2051.54
-284.192
2316.29
-271.844
2575.28
-259.234
2819.04
-245.213
3044.13
-229.343
3249.9
-211.452
3434
-191.657
3595.17
-169.883
3732.88
-146.012
3845.66
-120.524
3926.85
-93.8784
3976.34
-67.1133
3992.57
-39.5289
3978.87
-14.716
3846.09
5.96043
3650.31
22.8385
3424.27
34.4878
3130.6
43.2903
2890.36
50.3646
2675.52
56.8242
2461.69
63.6787
2254.25
71.1978
2038.09
79.354
1814.98
86.9944
1535.41
95.0941
1273.14
99.6975
855.022
114.886
511.399
103.385
-230.952
73.334
-1078.8
44.0223
-1697.34
22.0241
-2151.32
4.76719
-2488.45
-6.60059
-2763.78
1820.59
-276.652
-758.903
-278.923
-853.081
-283.537
-882.489
-289.052
-931.654
-296.368
-967.538
-306.114
-1004.63
-319.961
-1034.36
-340.607
-1056.86
-371.573
-1066.71
-416.246
-1060.83
-475.886
-1038.15
-547.768
-1003.25
-624.907
-965.919
-698.228
-938.129
-759.907
-929.274
-805.691
-943.115
-835.093
-977.839
-850.088
-1028.17
-853.551
-1087.67
-848.225
-1150.12
-836.341
-1210.19
-819.684
-1263.52
-799.884
-1306.92
-778.718
-1338.8
-758.254
-1359.68
-740.766
-1372.1
-728.451
-1379.45
-723.122
-1383.97
-725.957
-1385.58
-737.284
-1382.24
-756.368
-1371.49
-781.28
-1351.83
-808.924
-1323.03
-835.336
-1285.08
-856.709
-1237.71
-871.851
-1186.71
-880.896
-1154.69
-858.662
-1132.45
-716.075
-891.028
-476.558
-82.6398
-344.745
799.745
-311.438
1265.96
-299.74
1527.14
-293.129
1783.84
-285.966
2044.38
-276.263
2306.59
-265.809
2564.82
-255.118
2808.35
-243.221
3032.23
-229.32
3236
-213.084
3417.76
-194.604
3576.69
-173.796
3712.07
-150.583
3822.45
-125.464
3901.73
-98.9465
3949.82
-72.058
3965.68
-44.1009
3950.92
-18.7365
3820.73
2.61925
3628.96
20.3049
3406.58
32.8031
3118.1
42.4438
2880.72
50.4115
2667.56
57.8769
2454.22
65.8954
2246.23
74.7421
2029.25
84.3636
1805.36
93.4296
1526.34
102.891
1263.68
108.212
849.701
122.922
496.689
111.296
-219.326
79.33
-1046.83
47.7861
-1665.79
22.7382
-2126.28
3.53533
-2469.25
-11.5427
-2748.71
1796.29
-284.846
-756.322
-287.245
-850.681
-292.322
-877.413
-298.575
-925.401
-307.258
-958.854
-319.553
-992.331
-337.931
-1015.98
-365.937
-1028.85
-407.359
-1025.29
-464.466
-1003.72
-535.68
-966.939
-614.657
-924.277
-691.95
-888.626
-758.605
-871.474
-809.193
-878.686
-842.55
-909.758
-860.539
-959.85
-866.246
-1022.46
-862.676
-1091.24
-852.198
-1160.6
-836.551
-1225.84
-817.125
-1282.94
-795.371
-1328.67
-773.146
-1361.02
-752.857
-1379.97
-737.267
-1387.69
-728.994
-1387.72
-729.932
-1383.03
-740.811
-1374.7
-760.982
-1362.07
-788.421
-1344.05
-819.939
-1320.32
-851.539
-1291.43
-878.869
-1257.75
-898.132
-1218.44
-908.522
-1176.32
-913.173
-1150.04
-898.647
-1146.98
-786.251
-1003.42
-531.341
-337.55
-347.884
616.288
-296.275
1214.35
-281.734
1512.59
-275.692
1777.79
-272.47
2041.16
-266.867
2300.98
-259.058
2557.01
-250.371
2799.66
-240.629
3022.49
-228.899
3224.27
-214.561
3403.42
-197.613
3559.74
-177.962
3692.42
-155.557
3800.04
-130.917
3877.09
-104.598
3923.5
-77.6116
3938.69
-49.2744
3922.58
-23.3243
3794.78
-1.23209
3606.86
17.331
3388.02
30.7568
3104.67
41.3182
2870.16
50.2636
2658.61
58.8243
2445.66
68.1044
2236.95
78.3887
2018.96
89.5946
1794.16
100.205
1515.73
111.123
1252.76
117.235
843.59
131.383
482.541
119.735
-207.678
86.0327
-1013.13
52.0738
-1631.83
23.8001
-2098
2.19111
-2447.64
-14.9074
-2731.61
1767.69
-293.296
-753.341
-295.903
-848.075
-301.638
-871.678
-309.034
-918.005
-319.868
-948.02
-336.104
-976.096
-361.129
-990.953
-399.06
-990.919
-453.012
-971.339
-522.711
-934.023
-602.744
-886.906
-683.6
-843.422
-755.255
-816.971
-810.94
-815.789
-848.592
-841.034
-869.833
-888.518
-877.944
-951.739
-876.249
-1024.16
-867.354
-1100.13
-853.057
-1174.9
-834.606
-1244.29
-813.117
-1304.43
-790.032
-1351.75
-767.508
-1383.55
-748.507
-1398.97
-736.408
-1399.79
-734.163
-1389.96
-743.376
-1373.82
-763.76
-1354.31
-793.181
-1332.65
-828.122
-1309.11
-864.305
-1284.13
-897.288
-1258.45
-922.904
-1232.14
-937.826
-1203.52
-941.582
-1172.56
-939.055
-1152.56
-926.933
-1159.1
-842.272
-1088.08
-592.582
-587.24
-360.598
384.304
-282.3
1136.06
-263.575
1493.87
-256.736
1770.95
-256.286
2040.71
-255.345
2300.04
-251.265
2552.93
-245.017
2793.41
-237.445
3014.92
-227.994
3214.81
-215.783
3391.21
-200.596
3544.56
-182.302
3674.13
-160.876
3778.62
-136.845
3853.05
-110.811
3897.47
-83.7671
3911.65
-55.0569
3893.87
-28.4985
3768.22
-5.62077
3583.99
13.8829
3368.52
28.3088
3090.25
39.87
2858.6
49.8761
2648.61
59.6213
2435.92
70.2606
2226.31
82.0922
2007.13
94.9984
1781.25
107.268
1503.46
119.72
1240.31
126.703
836.607
140.241
469.003
128.632
-196.069
93.3983
-977.894
56.8827
-1595.32
25.2724
-2066.39
0.772155
-2423.14
-20.5591
-2710.28
1737.12
-302.065
-749.865
-305.017
-845.123
-311.739
-864.955
-320.946
-908.799
-335.15
-933.815
-357.297
-953.949
-391.564
-956.687
-441.864
-940.619
-509.186
-904.016
-589.381
-853.828
-673.21
-803.077
-749.749
-766.883
-810.76
-755.96
-853.043
-773.506
-877.8
-816.276
-888.458
-877.861
-888.695
-951.501
-881.433
-1031.42
-868.623
-1112.94
-851.479
-1192.04
-830.875
-1264.89
-807.819
-1327.49
-783.967
-1375.61
-762.029
-1405.48
-745.753
-1415.25
-739.179
-1406.37
-745.28
-1383.86
-764.711
-1354.39
-795.462
-1323.56
-833.541
-1294.57
-874.06
-1268.59
-912.164
-1246.03
-943.594
-1227.02
-964.906
-1210.82
-973.589
-1194.84
-969.43
-1176.72
-957.718
-1164.27
-942.426
-1174.39
-881.159
-1149.35
-662.981
-805.417
-391.004
112.327
-271.2
1016.25
-245.206
1467.87
-237.101
1762.85
-237.806
2041.41
-241.214
2303.45
-241.876
2553.6
-238.918
2790.45
-233.706
3009.71
-226.566
3207.67
-216.656
3381.3
-203.462
3531.36
-186.738
3657.41
-166.475
3758.36
-143.201
3829.78
-117.557
3871.82
-90.5122
3884.61
-61.4516
3864.81
-34.2753
3741.04
-10.57
3560.28
9.93138
3348.02
25.4216
3074.76
38.0562
2845.97
49.2037
2637.46
60.2218
2424.9
72.3185
2214.21
85.8088
1993.64
100.53
1766.53
114.572
1489.42
128.624
1226.26
136.557
828.675
149.464
456.096
137.919
-184.524
101.385
-941.361
62.2123
-1556.15
27.2273
-2031.41
-0.639331
-2395.27
-24.3306
-2686.59
1698.98
-311.251
-745.751
-314.795
-841.578
-323.054
-856.696
-335.129
-896.724
-354.492
-914.452
-385.095
-923.346
-431.316
-910.466
-495.48
-876.455
-574.847
-824.649
-660.895
-767.78
-742.039
-721.933
-808.524
-700.398
-855.761
-708.723
-884.317
-744.95
-897.671
-802.922
-899.876
-875.655
-894.23
-957.148
-882.92
-1042.73
-867.217
-1128.64
-847.863
-1211.4
-825.518
-1287.24
-801.287
-1351.72
-777.303
-1399.59
-757.127
-1425.66
-745.489
-1426.88
-746.946
-1404.91
-763.841
-1366.97
-794.948
-1323.28
-835.875
-1282.64
-880.774
-1249.67
-923.963
-1225.4
-960.76
-1209.23
-987.706
-1200.07
-1002.43
-1196.1
-1003.4
-1193.88
-990.584
-1189.53
-968.686
-1186.17
-945.549
-1197.53
-899.212
-1195.69
-731.33
-973.299
-441.134
-177.869
-266.096
841.214
-226.413
1428.19
-217.209
1753.65
-217.784
2041.99
-224.418
2310.08
-230.287
2559.47
-231.703
2791.87
-229.386
3007.39
-224.625
3202.91
-217.107
3373.78
-206.118
3520.37
-191.189
3642.48
-172.285
3739.45
-149.934
3807.43
-124.802
3846.69
-97.8285
3857.63
-68.4567
3835.44
-40.6664
3713.25
-16.0976
3535.71
5.45223
3326.47
22.0597
3058.15
35.834
2832.19
48.2008
2625.09
60.5791
2412.52
74.2322
2200.56
89.4954
1978.38
106.149
1749.87
122.076
1473.49
137.788
1210.55
146.745
819.718
159.018
443.823
147.535
-173.042
109.952
-903.777
68.0687
-1514.26
29.7087
-1993.05
-2.03216
-2363.53
-29.134
-2659.48
1653.81
-321.017
-740.781
-325.587
-837.008
-336.271
-846.012
-352.814
-880.181
-379.755
-887.51
-421.687
-881.414
-481.948
-850.206
-559.493
-798.91
-646.842
-737.3
-732.145
-682.477
-804.15
-649.928
-856.645
-647.903
-889.296
-676.072
-905.513
-728.733
-909.72
-798.716
-905.641
-879.734
-895.772
-967.017
-881.518
-1056.99
-863.579
-1146.58
-842.384
-1232.59
-818.571
-1311.05
-793.581
-1376.71
-770.332
-1422.84
-753.558
-1442.44
-749.059
-1431.38
-761.422
-1392.55
-791.284
-1337.1
-834.48
-1280.08
-883.953
-1233.16
-932.6
-1201.02
-974.897
-1183.11
-1007.12
-1177.01
-1027.01
-1180.19
-1033.34
-1189.76
-1025.5
-1201.71
-1003.69
-1211.35
-971.534
-1218.33
-937.72
-1231.34
-895.315
-1238.09
-769.777
-1098.84
-489.049
-458.598
-268.452
620.618
-207.956
1367.7
-197.002
1742.69
-197.038
2042.03
-205.398
2318.44
-216.093
2570.16
-222.812
2798.59
-224.295
3008.88
-222.187
3200.8
-217.108
3368.71
-208.479
3511.74
-195.569
3629.57
-178.234
3722.12
-156.986
3786.18
-132.505
3822.21
-105.692
3830.82
-76.0647
3805.81
-47.6783
3684.87
-22.2188
3510.25
0.422294
3303.82
18.1891
3040.38
33.1621
2817.22
46.8228
2611.43
60.6466
2398.7
75.9564
2185.25
93.111
1961.22
111.817
1731.17
129.746
1455.57
147.175
1193.12
157.222
809.67
168.875
432.17
157.431
-161.597
119.057
-865.403
74.4671
-1469.67
32.7854
-1951.37
-3.1705
-2327.57
-33.101
-2629.55
1603.04
-331.637
-734.611
-337.968
-830.677
-352.457
-831.523
-375.72
-856.918
-413.159
-850.072
-468.992
-825.581
-543.681
-775.517
-631.312
-711.278
-720.139
-648.473
-797.594
-605.022
-855.621
-591.901
-892.689
-610.835
-911.958
-656.802
-918.203
-722.488
-915.63
-801.289
-907.1
-888.264
-894.217
-979.9
-877.719
-1073.48
-857.906
-1166.4
-835.073
-1255.42
-810.041
-1336.09
-784.869
-1401.88
-763.633
-1444.08
-752.541
-1453.53
-758.286
-1425.64
-784.472
-1366.36
-828.57
-1293.01
-882.665
-1225.99
-937.5
-1178.33
-985.92
-1152.6
-1023.63
-1145.4
-1048.4
-1152.24
-1059.25
-1169.34
-1055.94
-1193.06
-1038.6
-1219.06
-1007.67
-1242.28
-965.842
-1260.16
-920.801
-1276.39
-874.399
-1284.5
-777.25
-1195.99
-528.01
-707.838
-278.506
371.114
-191.824
1281.01
-176.415
1727.28
-176.059
2041.67
-184.96
2327.34
-199.294
2584.49
-211.668
2810.96
-218.024
3015.23
-219.185
3201.96
-216.663
3366.18
-210.482
3505.56
-199.795
3618.88
-184.248
3706.57
-164.293
3766.23
-140.617
3798.53
-114.072
3804.27
-84.2629
3776
-55.3127
3655.92
-28.9489
3483.89
-5.1834
3280.06
13.782
3021.42
30.0052
2801
45.0275
2596.41
60.3797
2383.34
77.4477
2168.18
96.6178
1942.05
117.504
1710.28
137.553
1435.52
156.762
1173.91
167.959
798.473
179.018
421.11
167.568
-150.147
128.662
-826.497
81.4296
-1422.44
36.4932
-1906.43
-3.91719
-2287.16
-35.3659
-2598.1
1543.1
-343.561
-726.692
-352.848
-821.39
-373.159
-811.212
-406.017
-824.06
-456.884
-799.204
-527.848
-754.617
-614.601
-688.764
-706.158
-619.722
-788.839
-565.791
-852.638
-541.224
-894.472
-550.066
-917.022
-588.286
-925.354
-648.469
-924.214
-723.629
-916.895
-808.607
-905.252
-899.907
-890.12
-995.032
-871.753
-1091.85
-850.23
-1187.92
-825.895
-1279.76
-799.985
-1362
-775.533
-1426.33
-758.199
-1461.41
-755.836
-1455.89
-775.351
-1406.12
-817.705
-1324.01
-875.661
-1235.05
-937.536
-1164.11
-993.277
-1122.59
-1037.2
-1108.67
-1067.04
-1115.56
-1082.17
-1137.12
-1082.68
-1168.82
-1069.06
-1206.68
-1041.92
-1246.19
-1002.02
-1282.18
-951.483
-1310.7
-896.467
-1331.4
-842.581
-1338.38
-762.34
-1276.23
-559.663
-910.515
-296.811
108.262
-180.204
1164.41
-155.955
1703.03
-154.918
2040.63
-163.912
2336.34
-180.36
2600.94
-197.902
2828.51
-210.003
3027.33
-215.38
3207.34
-215.762
3366.57
-212.099
3501.9
-203.787
3610.57
-190.249
3693.03
-171.791
3747.77
-149.087
3775.83
-122.933
3778.12
-93.0322
3746.1
-63.5653
3626.45
-36.2965
3456.62
-11.3798
3255.14
8.82174
3001.22
26.334
2783.48
42.7762
2579.97
59.7369
2366.38
78.666
2149.25
99.9827
1920.73
123.186
1687.08
145.481
1413.22
166.536
1152.86
178.934
786.076
189.437
410.607
177.918
-138.628
138.725
-787.304
88.9846
-1372.7
40.8641
-1858.31
-4.29194
-2242.01
-39.6816
-2562.72
1476.78
-357.509
-716.171
-371.589
-807.31
-400.427
-782.374
-446.038
-778.449
-512.329
-732.913
-597.1
-669.846
-690.368
-595.496
-777.903
-532.187
-847.644
-496.05
-894.635
-494.233
-920.75
-523.951
-931.249
-577.786
-931.461
-648.258
-925.2
-729.89
-914.631
-819.176
-900.722
-913.816
-883.743
-1012.01
-863.66
-1111.93
-840.492
-1211.09
-814.824
-1305.43
-788.606
-1388.21
-766.291
-1448.65
-755.557
-1472.14
-765.73
-1445.72
-802.47
-1369.38
-861.882
-1264.6
-931.048
-1165.88
-995.797
-1099.37
-1047.42
-1070.97
-1083
-1073.09
-1102.49
-1096.06
-1106.6
-1133.01
-1096.16
-1179.27
-1072.08
-1230.76
-1035.35
-1282.92
-987.031
-1330.5
-929.062
-1368.67
-866.289
-1394.18
-805.061
-1399.61
-732.817
-1348.47
-576.23
-1067.1
-318.339
-149.628
-173.161
1019.23
-136.817
1666.69
-133.644
2037.46
-142.681
2345.37
-160.088
2618.35
-181.544
2849.96
-199.66
3045.45
-210.327
3218.01
-214.303
3370.54
-213.325
3500.92
-207.485
3604.73
-196.157
3681.7
-179.412
3731.02
-157.857
3754.27
-132.231
3752.49
-102.348
3716.22
-72.4256
3596.53
-44.2627
3428.46
-18.1756
3229.06
3.29231
2979.75
22.1223
2764.65
40.0347
2562.05
58.6805
2347.74
79.575
2128.36
103.177
1897.13
128.844
1661.41
153.52
1388.55
176.492
1129.88
190.136
772.432
200.129
400.615
188.463
-126.963
149.201
-748.042
97.1666
-1320.66
45.9694
-1807.11
-4.22734
-2191.81
-42.9408
-2524
1407.61
-374.582
-701.765
-396.079
-785.813
-436.649
-741.805
-497.647
-717.451
-579.137
-651.424
-673.031
-575.951
-764.81
-503.717
-840.588
-456.409
-893.153
-443.485
-923.201