/*--------------------------------*- C++ -*----------------------------------*\
| =========                 |                                                 |
| \\      /  F ield         | OpenFOAM: The Open Source CFD Toolbox           |
|  \\    /   O peration     | Version:  4.1                                   |
|   \\  /    A nd           | Web:      www.OpenFOAM.org                      |
|    \\/     M anipulation  |                                                 |
\*---------------------------------------------------------------------------*/
FoamFile
{
    version     2.0;
    format      ascii;
    class       volVectorField;
    location    "17";
    object      U;
}
// * * * * * * * * * * * * * * * * * * * * * * * * * * * * * * * * * * * * * //

dimensions      [0 1 -1 0 0 0 0];

internalField   nonuniform List<vector> 
6785
(
(1.49983e-14 -1.83608 16.3865)
(1.08234e-14 -7.56444 12.8337)
(-2.92029e-15 -5.04009 13.5006)
(4.21744e-15 -4.81609 13.1001)
(8.82759e-16 -4.1014 12.9415)
(-2.27372e-17 -3.6497 12.6781)
(2.68626e-15 -3.23714 12.3884)
(6.27982e-16 -2.91701 12.0387)
(-5.24575e-16 -2.68056 11.6394)
(1.74489e-15 -2.55033 11.2183)
(1.76094e-16 -2.50163 10.8519)
(-4.64502e-16 -2.60605 10.5448)
(7.81599e-16 -3.15224 10.0285)
(-1.60318e-16 -3.06781 9.24737)
(-3.17966e-16 0.196445 7.38665)
(1.95153e-14 -9.4031 26.6977)
(1.39384e-14 -16.5512 22.7785)
(-3.16469e-15 -11.277 23.2165)
(4.8804e-15 -12.0961 21.4405)
(7.75962e-16 -10.5907 20.5345)
(1.03106e-15 -9.98513 19.3332)
(2.7393e-15 -9.14149 18.228)
(3.92304e-16 -8.45654 17.1182)
(3.47688e-16 -7.81118 16.068)
(1.53239e-15 -7.2274 15.0291)
(4.90183e-17 -6.61378 13.9268)
(3.17998e-16 -5.83187 12.5604)
(7.71473e-16 -4.60431 10.0668)
(-5.51082e-16 -2.16833 5.02519)
(-4.84628e-16 0.745748 -1.33424)
(2.04212e-14 -11.7776 27.6485)
(1.30162e-14 -17.0541 24.3164)
(-2.63632e-15 -11.6479 24.4392)
(4.51639e-15 -12.975 21.8264)
(8.529e-16 -10.8698 20.7723)
(1.27165e-15 -10.409 18.9933)
(1.83025e-15 -9.34112 17.5539)
(4.44786e-16 -8.61136 16.0695)
(3.61227e-16 -7.90657 14.7663)
(5.07698e-16 -7.39946 13.5857)
(-3.05285e-17 -6.9901 12.4368)
(-1.39499e-16 -6.39465 10.9763)
(-9.91172e-16 -5.18629 8.47116)
(-7.71565e-16 -2.41036 3.91927)
(-6.95383e-16 0.0733575 -3.12447)
(2.04882e-14 -12.6133 26.8864)
(1.08115e-14 -16.5011 24.1471)
(-1.44299e-15 -11.8225 23.9507)
(3.55888e-15 -13.1689 21.0601)
(-3.67365e-18 -10.7792 20.0735)
(1.78594e-15 -10.4754 18.081)
(6.14234e-16 -9.20555 16.6701)
(-4.97334e-16 -8.34588 14.9922)
(6.5047e-16 -7.17238 13.1162)
(-8.1304e-16 -6.06688 10.9445)
(-1.67107e-15 -5.44816 9.25729)
(2.4553e-16 -5.37955 8.33728)
(-2.30466e-15 -5.10014 7.25823)
(-5.46533e-15 -4.09913 5.49188)
(-1.23382e-15 -3.05217 3.52954)
(2.00654e-14 -13.4776 27.5704)
(8.36957e-15 -16.4625 25.0451)
(-9.23565e-16 -12.3976 24.7649)
(2.69097e-15 -13.449 22.0765)
(-4.97303e-16 -11.0033 21.1832)
(1.46145e-15 -10.7716 19.2995)
(-3.06942e-16 -9.36821 18.1282)
(-7.50715e-16 -8.4258 16.3985)
(1.59031e-16 -6.58502 13.7948)
(-3.57607e-16 -4.14183 9.75057)
(2.21125e-15 -1.78128 5.75322)
(5.41961e-15 -0.915072 3.80425)
(3.36904e-15 -1.69945 4.25871)
(-7.38664e-16 -3.27463 6.11518)
(-4.89585e-16 -3.2933 6.79586)
(1.97758e-14 -13.9551 27.8975)
(8.98967e-15 -17.4981 26.9163)
(-9.55623e-16 -13.1869 25.9079)
(2.79973e-15 -14.3689 23.3024)
(-3.59955e-16 -11.8583 22.5211)
(1.13955e-15 -11.9479 20.5917)
(-1.02386e-16 -10.5228 19.579)
(-7.12271e-16 -9.93391 17.9528)
(-3.50788e-16 -8.33316 15.718)
(-9.54022e-17 -6.01944 11.8493)
(2.02926e-15 -2.96533 7.11843)
(3.9539e-15 -0.196672 2.65362)
(3.18895e-15 2.11206 -0.901389)
(1.52659e-16 2.56179 -2.00864)
(-1.5084e-15 0.782787 -0.482476)
(1.89127e-14 -13.3926 25.9219)
(1.19879e-14 -18.2813 28.3604)
(-1.57767e-16 -14.0655 26.2323)
(2.52121e-15 -14.7367 23.4062)
(5.24809e-16 -12.6746 22.411)
(8.03068e-16 -12.6227 20.4784)
(6.97501e-16 -11.4873 19.2419)
(7.0538e-17 -10.9602 17.6735)
(-1.85183e-16 -9.99699 15.9667)
(2.39146e-16 -8.68813 13.5831)
(6.28858e-16 -6.80303 10.5578)
(8.5397e-16 -4.46616 7.11598)
(2.58327e-15 -1.74316 3.21397)
(3.34136e-15 2.53576 -1.58736)
(-4.46074e-15 1.74415 -5.30666)
(1.81868e-14 -12.1821 22.8057)
(1.50025e-14 -17.9977 28.4232)
(2.0714e-15 -14.3699 25.8309)
(2.07406e-15 -14.2184 22.6241)
(1.49545e-15 -12.5111 21.3095)
(1.62146e-15 -12.1436 19.4025)
(1.38033e-15 -11.1364 17.9389)
(1.08081e-15 -10.4442 16.3072)
(1.16071e-15 -9.632 14.6976)
(1.05873e-15 -8.71702 12.943)
(7.71545e-16 -7.62326 10.9506)
(1.03169e-15 -6.16376 8.69337)
(2.01235e-15 -4.47732 5.89908)
(2.24722e-15 -1.73703 2.58206)
(-5.04271e-15 0.366413 -2.83267)
(1.76382e-14 -11.1224 20.4167)
(1.68208e-14 -17.2657 27.891)
(3.20487e-15 -14.2741 25.3465)
(2.07944e-15 -13.5579 21.9289)
(2.09577e-15 -11.99 20.3975)
(1.23596e-15 -11.4427 18.5508)
(1.9901e-15 -10.4633 17.0373)
(1.98706e-15 -9.67632 15.4311)
(8.85717e-16 -8.85409 13.8951)
(1.67892e-15 -8.01462 12.3848)
(1.94383e-15 -7.16597 10.8233)
(6.84025e-17 -6.11729 9.16382)
(1.53279e-15 -4.95359 7.11986)
(2.55387e-15 -3.00681 4.50842)
(-8.47952e-15 -0.61541 -0.811091)
(1.70256e-14 -10.5123 19.1886)
(1.78506e-14 -16.5516 27.2069)
(4.40791e-15 -14.0539 24.8526)
(1.02737e-15 -13.0746 21.3832)
(2.07651e-15 -11.5919 19.7053)
(1.42272e-15 -11.001 17.9604)
(6.03979e-16 -10.1171 16.5294)
(1.80386e-15 -9.37692 15.0637)
(1.36025e-15 -8.62135 13.653)
(-7.4738e-17 -7.86166 12.2802)
(8.23877e-16 -7.13027 10.9129)
(2.32309e-16 -6.31079 9.58557)
(-1.16755e-15 -5.48022 8.13799)
(2.03944e-15 -4.09001 6.40927)
(-5.22761e-15 -1.63183 1.64012)
(1.56605e-14 -10.3921 18.9855)
(1.8456e-14 -15.8076 26.3554)
(2.13703e-15 -13.6194 24.1081)
(9.6428e-17 -12.6225 20.6744)
(3.33625e-15 -11.1485 18.9922)
(-2.0319e-15 -10.6388 17.3088)
(-1.11063e-15 -9.83684 15.9683)
(2.50717e-15 -9.22445 14.5451)
(-2.78214e-15 -8.57647 13.1703)
(-3.71728e-15 -7.96662 11.8719)
(2.74694e-16 -7.43402 10.7769)
(-3.29137e-15 -6.98944 10.0497)
(-4.14519e-15 -6.59769 9.57675)
(-4.8009e-15 -5.77046 8.89084)
(-8.99054e-15 -3.45917 5.05335)
(1.59633e-14 -11.0059 19.8528)
(1.65099e-14 -14.7965 24.9592)
(-2.49503e-15 -12.6044 22.6034)
(9.26379e-16 -11.8346 19.7351)
(2.80506e-15 -10.2651 18.0519)
(-5.67876e-15 -9.5759 16.0094)
(-3.05955e-16 -8.52235 14.3934)
(3.89591e-15 -7.92214 12.7645)
(-5.37711e-15 -7.33188 11.4578)
(-3.99196e-15 -7.03348 10.5151)
(-5.75945e-16 -7.03274 10.2848)
(-7.96582e-15 -7.42645 10.8626)
(-4.77548e-15 -7.79206 11.8697)
(-8.13348e-15 -7.68201 12.1036)
(-1.09637e-14 -5.33379 8.83277)
(1.40038e-14 -11.6514 20.5704)
(1.50868e-14 -16.0122 26.4843)
(-3.24009e-15 -12.9337 22.9497)
(-3.59708e-17 -11.7889 20.14)
(9.12158e-16 -10.2388 18.6292)
(-4.41069e-15 -8.99769 16.0471)
(1.12505e-15 -7.28338 13.5827)
(3.75985e-15 -6.11704 11.3291)
(-2.63541e-15 -5.15293 9.71561)
(-2.97127e-16 -4.83204 8.94774)
(-1.96412e-15 -5.26937 9.51726)
(-6.82661e-15 -6.48582 11.3425)
(-4.86265e-15 -7.87185 13.6366)
(-8.65189e-15 -8.74129 14.599)
(-1.12169e-14 -6.17649 11.2466)
(8.92236e-15 -9.21923 15.564)
(1.50428e-14 -16.6631 26.2838)
(2.4045e-15 -15.9191 25.8052)
(-1.91863e-15 -13.6996 22.2154)
(-1.72555e-15 -11.2885 19.5186)
(-3.75555e-15 -9.49407 16.8213)
(1.51511e-15 -7.41693 14.2945)
(2.65935e-15 -5.76913 11.9599)
(1.78499e-15 -4.22391 10.0289)
(2.28217e-15 -3.0636 8.4565)
(-1.52119e-16 -2.48711 7.75823)
(-1.79389e-15 -2.89418 8.32824)
(-3.36372e-15 -4.30384 10.0738)
(-6.38694e-15 -5.82546 11.5175)
(-6.34478e-15 -4.36005 8.69581)
(1.97718e-15 -4.83048 8.67481)
(1.19631e-14 -14.2254 21.5067)
(1.28793e-14 -19.0581 27.73)
(9.02012e-15 -20.5107 28.6636)
(5.12856e-15 -19.8365 26.9111)
(1.87534e-15 -18.2918 23.9258)
(7.81975e-16 -16.209 20.7261)
(4.36631e-16 -14.1016 17.7824)
(5.08448e-16 -11.9956 15.0669)
(8.39468e-16 -9.91019 12.6215)
(6.2058e-16 -7.9051 10.3873)
(8.13889e-16 -6.02046 8.29897)
(2.02916e-16 -4.48808 6.58001)
(-1.67329e-15 -3.50718 5.21123)
(-1.52093e-15 -0.979626 2.12378)
(2.51341e-19 22.1575 59.5863)
(-5.50284e-17 0.295412 5.49842)
(-2.32757e-16 -0.591246 -3.14281)
(-2.87527e-16 -0.327052 -2.07968)
(-3.52363e-16 -0.153488 -2.34789)
(-5.67113e-16 0.44084 -2.9045)
(-3.67954e-16 0.120671 -2.07323)
(-2.73103e-16 0.381888 -2.14369)
(-3.20845e-16 0.540223 -2.01368)
(5.78917e-16 1.00472 -2.61124)
(9.32702e-16 0.807634 -1.90219)
(1.0444e-15 0.994752 -1.84905)
(8.42455e-16 1.52258 -2.36147)
(5.41659e-16 1.2262 -1.65134)
(5.39861e-16 1.45782 -1.65581)
(5.98679e-16 1.49613 -1.61269)
(5.35081e-16 1.95842 -1.96288)
(6.02431e-16 1.64669 -1.40027)
(6.38596e-16 1.80536 -1.36403)
(7.23273e-16 2.33403 -1.61518)
(6.12421e-16 1.83882 -1.15251)
(5.95985e-16 2.08776 -1.15258)
(7.22393e-16 2.05605 -1.13168)
(8.80801e-16 2.56115 -1.27137)
(7.10243e-16 2.02174 -0.903911)
(7.51365e-16 2.26637 -0.878184)
(6.27399e-16 2.2143 -0.841622)
(8.1955e-16 2.64232 -0.856703)
(5.63559e-16 2.12367 -0.589975)
(5.30279e-16 2.2375 -0.550916)
(7.38835e-16 2.69859 -0.439969)
(4.65899e-16 2.03929 -0.30597)
(4.7586e-16 2.23806 -0.27157)
(3.31676e-16 2.16154 -0.258018)
(4.18504e-16 2.49601 -0.0645495)
(3.0305e-16 1.95053 -0.0546765)
(2.28409e-16 2.0287 -0.0723978)
(2.04992e-16 2.37667 0.167522)
(4.79341e-17 1.75248 0.0744226)
(-8.43158e-17 1.90154 0.0683797)
(-5.0855e-17 1.81868 0.0379422)
(-1.87776e-16 2.10601 0.252403)
(-2.82619e-16 1.58643 0.1395)
(-3.73517e-16 1.72057 0.131781)
(-4.42012e-16 1.63634 0.110052)
(-7.68882e-16 1.91668 0.228374)
(-8.29349e-16 1.6008 0.206219)
(-8.54276e-16 1.63888 0.172025)
(-1.44714e-15 1.88606 0.357424)
(-9.50036e-16 1.49006 0.23973)
(-1.00577e-15 1.58213 0.226654)
(-1.03911e-15 1.51817 0.201634)
(-1.56571e-15 1.60745 0.369381)
(-1.20416e-15 1.22317 0.125319)
(-1.31376e-15 1.2848 0.100047)
(-1.1382e-15 1.2627 0.11726)
(-1.60298e-15 1.1926 -0.0171619)
(-1.14424e-15 0.7942 -0.462215)
(-1.39972e-15 0.828205 -0.362509)
(-1.95433e-15 0.864494 -1.44682)
(-1.50949e-15 0.158934 -1.90505)
(-1.47458e-15 0.27056 -1.97443)
(-1.55037e-15 0.469857 -2.04572)
(-1.95021e-16 0.985969 -2.43708)
(-1.28323e-15 -0.701664 1.05814)
(-1.03756e-15 -0.178189 0.629822)
(-1.16998e-15 -0.830223 2.82909)
(-7.30645e-16 -1.71223 3.8566)
(-6.80141e-16 -1.88584 3.75593)
(-7.81816e-16 -1.88966 3.95184)
(-1.11779e-15 -3.23601 6.94396)
(-9.57833e-16 -3.73139 6.28314)
(-1.15669e-15 -4.24113 6.47606)
(-1.27143e-15 -4.20601 6.71672)
(-1.6492e-15 -6.50442 10.5571)
(-1.13467e-15 -6.56798 8.59697)
(-1.23545e-15 -6.70637 9.18571)
(-1.29847e-15 -9.47903 13.4773)
(-7.93804e-16 -9.11938 10.4241)
(-6.55748e-16 -9.63819 11.0658)
(-6.20601e-16 -10.3216 12.6493)
(-3.98833e-16 -10.2698 12.4437)
(-2.71117e-16 -10.3465 12.7024)
(5.23023e-16 -12.3595 15.5726)
(4.02556e-16 -11.1401 13.5933)
(5.52213e-16 -11.4504 14.1299)
(6.01325e-16 -11.4215 14.1642)
(6.70812e-16 -11.5402 14.2207)
(7.18176e-16 -11.6084 14.3068)
(7.5997e-16 -11.7126 14.4411)
(8.52699e-16 -11.8252 14.7102)
(1.00563e-15 -11.8644 15.0373)
(1.54539e-15 -12.9564 16.9629)
(1.41257e-15 -12.3761 15.6052)
(1.53429e-15 -12.5784 15.8013)
(1.57697e-15 -12.5387 15.8918)
(1.68191e-15 -12.7388 16.263)
(1.75697e-15 -12.7133 16.2325)
(1.84086e-15 -12.8414 16.3353)
(1.92362e-15 -12.911 16.4091)
(2.00696e-15 -12.9563 16.5299)
(2.6106e-15 -13.6775 18.1235)
(2.43951e-15 -13.1638 17.1372)
(2.60108e-15 -13.2984 17.3182)
(2.69415e-15 -13.3318 17.3812)
(2.78543e-15 -13.4059 17.5177)
(2.84883e-15 -13.4449 17.7796)
(2.92227e-15 -13.5567 18.1134)
(3.01532e-15 -13.5615 18.2351)
(3.0882e-15 -13.644 18.4216)
(3.14938e-15 -13.7281 18.5561)
(3.59352e-15 -13.5908 19.1449)
(2.97453e-15 -13.4438 18.7063)
(3.02516e-15 -13.5079 18.8033)
(3.02852e-15 -13.5247 18.7922)
(3.06508e-15 -13.5894 18.8124)
(3.10867e-15 -13.5885 18.8632)
(3.17764e-15 -13.6565 19.1503)
(3.28583e-15 -13.6319 19.2054)
(3.43058e-15 -13.7538 19.1391)
(4.19327e-15 -12.5763 17.9739)
(3.72008e-15 -12.8589 18.3589)
(4.07224e-15 -12.8059 18.6257)
(4.2818e-15 -12.8359 18.9615)
(4.44047e-15 -12.7631 19.0058)
(4.60441e-15 -12.7849 19.1617)
(4.76343e-15 -12.7579 19.2866)
(4.95851e-15 -12.6761 19.4298)
(5.28302e-15 -12.9198 19.7771)
(5.41292e-15 -10.22 16.4307)
(5.27379e-15 -11.3141 18.0206)
(5.25787e-15 -11.1403 17.6323)
(5.28459e-15 -11.1242 17.4098)
(5.59989e-15 -11.0639 17.328)
(5.57149e-15 -10.9804 16.9197)
(5.51457e-15 -10.8312 16.454)
(5.55766e-15 -10.7015 16.0421)
(5.65095e-15 -10.7548 15.5728)
(5.73795e-15 -7.39676 11.1625)
(6.71207e-15 -8.83332 14.5919)
(6.79233e-15 -8.43315 14.1819)
(6.99977e-15 -8.42852 14.2005)
(7.17651e-15 -8.20114 13.9866)
(7.38439e-15 -8.17226 13.6755)
(7.86515e-15 -7.90364 13.0503)
(7.33496e-15 -7.81931 12.559)
(6.98901e-15 -7.58289 11.7675)
(6.34453e-15 -7.45883 10.695)
(3.23974e-15 -3.82619 3.95765)
(4.94206e-15 -5.67308 7.55178)
(3.94944e-15 -5.13578 5.67443)
(3.48394e-15 -5.29826 4.99601)
(2.75254e-15 -4.94258 3.82046)
(1.9459e-15 -4.87577 2.69045)
(6.69441e-16 -4.68132 1.01582)
(-3.59135e-16 -4.33564 -0.310606)
(-5.08781e-17 -4.34889 0.0569611)
(-5.37762e-16 -3.69643 -1.92628)
(-3.91933e-16 -3.78563 -0.270725)
(-4.86423e-16 -3.69595 -0.435184)
(-5.64959e-16 -2.70586 -1.59001)
(-7.21171e-16 -4.10548 -1.52162)
(-8.78316e-16 -3.10695 -1.27927)
(-7.69871e-16 -2.78529 -0.912171)
(-1.04314e-15 -3.38209 -1.26811)
(-7.78763e-16 -2.3342 -0.816665)
(-1.07712e-15 -2.89321 -1.21135)
(-7.82887e-16 -2.52485 -0.961277)
(-6.6068e-16 -2.05852 -0.738942)
(-9.25042e-16 -2.37033 -1.08203)
(-8.56433e-16 -2.09641 -0.888622)
(-7.52615e-16 -1.75708 -0.691469)
(-9.997e-16 -2.16809 -0.962227)
(-8.3567e-16 -1.46564 -0.666879)
(-1.18416e-15 -1.79192 -1.00494)
(-7.84276e-16 -1.47958 -0.84297)
(-6.87249e-16 -1.2447 -0.669073)
(-9.18313e-16 -1.48991 -0.930073)
(-6.0877e-16 -0.970517 -0.659897)
(-9.67638e-16 -1.15772 -0.996587)
(-9.62422e-16 -0.91013 -0.862794)
(-8.97499e-16 -0.693871 -0.705044)
(-1.30329e-15 -0.720866 -1.03227)
(-1.44881e-15 -0.52951 -0.908421)
(-7.72938e-16 -0.378442 -0.750746)
(-1.27869e-15 -0.385477 -0.992221)
(-1.44981e-15 -0.158702 -0.746294)
(-1.11e-15 -0.191829 -1.03088)
(9.13067e-17 0.0437317 -0.864693)
(-1.13095e-16 0.185215 -0.738611)
(-4.33553e-17 -0.123481 -0.917325)
(-1.03912e-16 0.250608 -0.708985)
(3.38149e-16 0.209736 -0.913837)
(-2.16849e-15 0.260366 -1.20876)
(-2.7029e-15 0.38743 -0.879334)
(-2.96038e-15 0.453436 -1.07204)
(-3.14384e-15 0.449215 -1.29376)
(-1.85214e-15 0.532652 -0.895541)
(-2.1727e-15 0.688458 -1.25166)
(-1.69038e-15 0.675683 -0.906536)
(-2.18511e-15 0.834813 -1.09445)
(-1.15286e-15 0.856517 -1.24219)
(-2.78649e-16 0.809938 -0.801268)
(-2.75132e-17 1.10673 -1.0625)
(1.07127e-16 0.958477 -0.733717)
(5.59377e-16 1.14288 -0.879199)
(6.44048e-16 1.16961 -0.975148)
(3.27983e-16 1.05013 -0.629492)
(5.45202e-17 1.29382 -0.733864)
(-8.09227e-16 1.32619 -0.782937)
(-9.57299e-16 1.10701 -0.495587)
(-1.62263e-15 1.52744 -0.639228)
(-1.19723e-15 1.23311 -0.434595)
(-1.51085e-15 1.41573 -0.511191)
(-1.78963e-15 1.49444 -0.543215)
(-1.08642e-15 1.22164 -0.351672)
(-1.05301e-15 1.67408 -0.45217)
(-5.15569e-16 1.32787 -0.308392)
(-3.02396e-16 1.52334 -0.358661)
(-7.73705e-17 1.57769 -0.349489)
(-4.51015e-17 1.32814 -0.216582)
(-3.65036e-16 1.58886 -0.236579)
(-9.50437e-16 1.65555 -0.203995)
(-1.00676e-15 1.31291 -0.132265)
(-1.8127e-15 1.79189 -0.156394)
(-1.55265e-15 1.41183 -0.102076)
(-1.99498e-15 1.58055 -0.109462)
(-2.38985e-15 1.71092 -0.0715558)
(-1.5375e-15 1.36985 -0.0429027)
(-1.78886e-15 1.84892 -0.0490202)
(-1.06738e-15 1.46152 -0.0290345)
(-1.12646e-15 1.64836 -0.0393367)
(-7.5189e-16 1.7505 -0.0477053)
(-2.77394e-16 1.49139 -0.0378815)
(-6.20419e-17 1.74327 -0.0689507)
(4.02927e-16 1.87633 -0.133875)
(4.98473e-16 1.53049 -0.0995728)
(9.89621e-16 2.06426 -0.228729)
(8.98642e-16 1.66232 -0.166054)
(1.15951e-15 1.9496 -0.305795)
(1.02941e-22 1.02999 1.41772)
(4.78361e-22 1.16341 1.43305)
(1.55172e-21 1.22023 1.45028)
(4.89544e-21 1.29352 1.47271)
(1.52589e-20 1.35334 1.49796)
(4.72467e-20 1.41549 1.52753)
(1.44417e-19 1.4733 1.56004)
(4.30129e-19 1.53154 1.59646)
(1.23132e-18 1.58854 1.63654)
(3.34973e-18 1.64568 1.68141)
(8.58993e-18 1.70225 1.73258)
(2.06492e-17 1.75777 1.79355)
(4.63553e-17 1.81045 1.8703)
(9.6909e-17 1.85768 1.97235)
(1.88262e-16 1.89582 2.11236)
(3.39334e-16 1.92106 2.30386)
(5.67127e-16 1.93052 2.5564)
(8.79415e-16 1.9236 2.86984)
(1.26794e-15 1.90245 3.23079)
(1.70588e-15 1.87146 3.6141)
(2.1517e-15 1.83574 3.98936)
(2.55783e-15 1.79965 4.32895)
(2.88075e-15 1.76624 4.61377)
(3.08896e-15 1.73772 4.83482)
(3.16676e-15 1.7163 4.99128)
(3.11416e-15 1.70443 5.08732)
(2.94368e-15 1.70404 5.12966)
(2.67553e-15 1.71525 5.12611)
(2.33229e-15 1.73565 5.08504)
(1.93418e-15 1.76067 5.01485)
(1.49512e-15 1.78447 4.92369)
(1.02018e-15 1.80055 4.81918)
(5.0462e-16 1.8017 4.7083)
(-6.75399e-17 1.78059 4.59751)
(-7.36526e-16 1.73505 4.49492)
(-1.58254e-15 1.66634 4.40975)
(-2.57727e-15 1.48648 4.30941)
(-3.03434e-15 0.833043 3.99163)
(-1.99202e-15 -0.431598 3.32586)
(-1.17275e-15 -1.19359 3.07089)
(-5.79303e-16 -1.58511 2.92045)
(-2.10144e-17 -1.88417 2.76665)
(5.11838e-16 -2.20506 2.6163)
(1.02167e-15 -2.54621 2.47325)
(1.52131e-15 -2.89714 2.32735)
(1.99785e-15 -3.24988 2.18324)
(2.44305e-15 -3.59641 2.03668)
(2.83938e-15 -3.92873 1.89013)
(3.169e-15 -4.24122 1.74049)
(3.40818e-15 -4.52868 1.58814)
(3.53525e-15 -4.78902 1.43356)
(3.53849e-15 -5.01779 1.27354)
(3.41165e-15 -5.21618 1.11208)
(3.16163e-15 -5.38404 0.943612)
(2.80687e-15 -5.50529 0.76839)
(2.38093e-15 -5.58074 0.591449)
(1.91924e-15 -5.60074 0.410715)
(1.44948e-15 -5.58743 0.242484)
(9.82335e-16 -5.37976 0.0625491)
(5.46603e-16 -5.07515 -0.0587837)
(2.3863e-16 -4.73305 -0.177119)
(6.95937e-17 -4.28838 -0.24025)
(1.05054e-17 -3.94032 -0.286042)
(-4.40398e-19 -3.63524 -0.310805)
(-5.60456e-19 -3.3412 -0.328746)
(-1.06567e-19 -3.06451 -0.337601)
(-2.3369e-21 -2.77844 -0.350824)
(3.00779e-21 -2.48346 -0.358662)
(6.32218e-22 -2.10514 -0.374369)
(4.95551e-24 -1.76023 -0.378729)
(-4.67435e-23 -1.18076 -0.402998)
(5.32645e-23 -0.852619 -0.398598)
(-1.02245e-21 0.405148 -0.581291)
(3.86828e-21 1.67758 -0.350718)
(-1.54812e-20 2.52307 -0.385343)
(6.30424e-20 3.01935 -0.0407966)
(-7.8494e-20 3.48887 -0.278905)
(-6.86041e-19 3.67283 0.224579)
(-4.21207e-18 -2.68973 -0.4469)
(3.51258e-22 1.02764 1.4917)
(1.5204e-21 1.15852 1.50595)
(4.73441e-21 1.21394 1.52319)
(1.45152e-20 1.28602 1.54716)
(4.41386e-20 1.34463 1.57364)
(1.331e-19 1.40562 1.6055)
(3.94394e-19 1.46231 1.64038)
(1.133e-18 1.51931 1.68)
(3.11534e-18 1.57491 1.72416)
(8.11468e-18 1.63017 1.77507)
(1.98742e-17 1.68396 1.83592)
(4.5523e-17 1.73501 1.91333)
(9.71311e-17 1.78051 2.01776)
(1.92431e-16 1.81675 2.16391)
(3.53064e-16 1.83956 2.36807)
(5.98873e-16 1.84589 2.6424)
(9.387e-16 1.83547 2.9872)
(1.36142e-15 1.81169 3.3856)
(1.83283e-15 1.78081 3.80519)
(2.30147e-15 1.74965 4.20695)
(2.71132e-15 1.7232 4.55685)
(3.01516e-15 1.70349 4.83387)
(3.18348e-15 1.69028 5.03167)
(3.20702e-15 1.68282 5.15509)
(3.09409e-15 1.68129 5.21502)
(2.86527e-15 1.68714 5.22393)
(2.54707e-15 1.70188 5.19328)
(2.16605e-15 1.72552 5.13271)
(1.74395e-15 1.75569 5.05024)
(1.29391e-15 1.7879 4.95302)
(8.17816e-16 1.81643 4.84798)
(3.05154e-16 1.83494 4.74216)
(-2.65874e-16 1.83641 4.64245)
(-9.26309e-16 1.81333 4.55505)
(-1.72682e-15 1.763 4.48665)
(-2.76307e-15 1.69277 4.44539)
(-4.02462e-15 1.54706 4.4048)
(-4.61093e-15 0.980857 4.13844)
(-2.64633e-15 -0.357613 3.29269)
(-9.93078e-16 -1.2243 2.94476)
(-4.38585e-16 -1.58655 2.88445)
(5.87213e-17 -1.8816 2.7392)
(5.72709e-16 -2.20846 2.58427)
(1.07219e-15 -2.55213 2.44578)
(1.56179e-15 -2.9037 2.30597)
(2.02991e-15 -3.25579 2.16719)
(2.46777e-15 -3.59997 2.02585)
(2.85757e-15 -3.92862 1.88373)
(3.18115e-15 -4.23627 1.73767)
(3.4148e-15 -4.51842 1.58819)
(3.53721e-15 -4.77277 1.43573)
(3.53675e-15 -4.99546 1.27739)
(3.40735e-15 -5.18762 1.11701)
(3.15597e-15 -5.34866 0.94926)
(2.80108e-15 -5.4639 0.774531)
(2.37597e-15 -5.53395 0.597722)
(1.91562e-15 -5.55061 0.417139)
(1.44733e-15 -5.53319 0.24877)
(9.81617e-16 -5.32665 0.0684999)
(5.47004e-16 -5.02531 -0.0537718)
(2.39457e-16 -4.68641 -0.173205)
(7.01881e-17 -4.24637 -0.237826)
(1.06547e-17 -3.89962 -0.285205)
(-4.69019e-19 -3.59552 -0.311833)
(-5.86865e-19 -3.30184 -0.331814)
(-1.12364e-19 -3.02523 -0.343087)
(-2.27459e-21 -2.7399 -0.35902)
(3.32398e-21 -2.44663 -0.36988)
(7.04973e-22 -2.07128 -0.388341)
(6.63359e-24 -1.72886 -0.395514)
(-5.12799e-23 -1.15307 -0.422543)
(6.24083e-23 -0.806771 -0.420582)
(-9.6897e-22 0.394539 -0.623892)
(3.62346e-21 1.64545 -0.349396)
(-1.3785e-20 2.47547 -0.381563)
(4.78011e-20 3.00139 -0.0424523)
(-3.03558e-21 3.44973 -0.263494)
(-1.02294e-18 3.69658 0.209395)
(-8.98871e-18 -2.5866 -0.443335)
(9.08126e-22 1.02645 1.53292)
(3.73186e-21 1.15638 1.54695)
(1.12547e-20 1.21067 1.56408)
(3.3674e-20 1.28217 1.58911)
(1.00035e-19 1.34005 1.61633)
(2.93795e-19 1.40041 1.64966)
(8.43872e-19 1.45643 1.68613)
(2.33929e-18 1.51263 1.72813)
(6.1845e-18 1.56715 1.77581)
(1.5447e-17 1.62071 1.83273)
(3.61962e-17 1.67164 1.90416)
(7.91501e-17 1.71796 1.99991)
(1.60828e-16 1.75614 2.13409)
(3.02598e-16 1.7822 2.3238)
(5.25794e-16 1.79284 2.58361)
(8.42661e-16 1.78735 2.91756)
(1.24639e-15 1.76878 3.31217)
(1.7063e-15 1.74344 3.73633)
(2.1726e-15 1.71857 4.14963)
(2.58901e-15 1.69955 4.51483)
(2.90703e-15 1.68834 4.80752)
(3.09546e-15 1.68382 5.01883)
(3.14324e-15 1.6836 5.15253)
(3.05691e-15 1.68595 5.21975)
(2.85532e-15 1.69111 5.23416)
(2.56362e-15 1.70107 5.20879)
(2.20768e-15 1.71807 5.15434)
(1.80926e-15 1.74275 5.07914)
(1.38221e-15 1.77309 4.98993)
(9.29539e-16 1.80471 4.89305)
(4.41737e-16 1.83181 4.79527)
(-1.03081e-16 1.84794 4.7039)
(-7.36051e-16 1.84612 4.62603)
(-1.49256e-15 1.81899 4.56725)
(-2.4198e-15 1.76385 4.53193)
(-3.60798e-15 1.69023 4.52469)
(-5.06104e-15 1.5604 4.52402)
(-5.85858e-15 1.06502 4.32004)
(-3.65101e-15 -0.198191 3.43252)
(-1.00107e-15 -1.13143 2.83428)
(-2.38727e-16 -1.5443 2.79618)
(1.86226e-16 -1.83327 2.6995)
(6.52142e-16 -2.15749 2.54603)
(1.13632e-15 -2.50262 2.40749)
(1.61414e-15 -2.85433 2.27482)
(2.07115e-15 -3.20667 2.14374)
(2.49927e-15 -3.55152 2.00974)
(2.88061e-15 -3.88116 1.87412)
(3.19643e-15 -4.18984 1.73354)
(3.42304e-15 -4.47336 1.58849)
(3.53955e-15 -4.72893 1.43935)
(3.53443e-15 -4.95301 1.28364)
(3.40184e-15 -5.14635 1.12502)
(3.14878e-15 -5.30801 0.958387)
(2.79375e-15 -5.42434 0.784358)
(2.36968e-15 -5.49574 0.607679)
(1.91102e-15 -5.51516 0.427163)
(1.44457e-15 -5.49954 0.258233)
(9.80631e-16 -5.2999 0.0770348)
(5.47425e-16 -5.00709 -0.0467155)
(2.40432e-16 -4.67623 -0.167832)
(7.0903e-17 -4.24596 -0.234588)
(1.08383e-17 -3.90489 -0.284029)
(-5.02532e-19 -3.60485 -0.31307)
(-6.19276e-19 -3.31355 -0.335774)
(-1.19679e-19 -3.0376 -0.350306)
(-2.21823e-21 -2.75205 -0.36999)
(3.73284e-21 -2.45767 -0.385061)
(8.01983e-22 -2.08183 -0.407556)
(9.19374e-24 -1.73674 -0.418667)
(-5.74399e-23 -1.16198 -0.448885)
(7.20723e-23 -0.793425 -0.449639)
(-9.27041e-22 0.386035 -0.642058)
(3.41146e-21 1.62549 -0.361035)
(-1.25479e-20 2.45364 -0.383789)
(3.95454e-20 2.9906 -0.0488091)
(3.77143e-20 3.43449 -0.254334)
(-1.15126e-18 3.7042 0.191416)
(-1.21002e-17 -2.55545 -0.378973)
(2.26803e-21 1.02464 1.58208)
(8.95187e-21 1.15316 1.59625)
(2.62827e-20 1.2058 1.61341)
(7.6881e-20 1.27643 1.63979)
(2.231e-19 1.33322 1.66804)
(6.37658e-19 1.39262 1.70328)
(1.77426e-18 1.44759 1.74195)
(4.74471e-18 1.5025 1.78738)
(1.20607e-17 1.5552 1.84052)
(2.88854e-17 1.60586 1.90703)
(6.4742e-17 1.65204 1.99527)
(1.35059e-16 1.69078 2.11917)
(2.61049e-16 1.71788 2.29643)
(4.6579e-16 1.72961 2.54441)
(7.65466e-16 1.72451 2.87146)
(1.15821e-15 1.70522 3.26834)
(1.61696e-15 1.67843 3.7055)
(2.09229e-15 1.65276 4.14024)
(2.52518e-15 1.63537 4.5303)
(2.86286e-15 1.62952 4.84584)
(3.07034e-15 1.63426 5.07418)
(3.13425e-15 1.64591 5.21742)
(3.06035e-15 1.66036 5.28685)
(2.86786e-15 1.67507 5.29767)
(2.58297e-15 1.69011 5.26531)
(2.23293e-15 1.7077 5.20329)
(1.84104e-15 1.73046 5.12221)
(1.42266e-15 1.75931 5.03)
(9.82072e-16 1.79234 4.93299)
(5.10682e-16 1.82508 4.8374)
(-1.33301e-17 1.85161 4.7501)
(-6.2289e-16 1.8655 4.67854)
(-1.35631e-15 1.86002 4.6294)
(-2.24906e-15 1.82824 4.60663)
(-3.33858e-15 1.7676 4.61106)
(-4.70144e-15 1.69056 4.64294)
(-6.35224e-15 1.58135 4.68392)
(-7.39083e-15 1.17329 4.54374)
(-5.14221e-15 -0.00617011 3.67156)
(-1.30315e-15 -1.05481 2.79095)
(-9.86655e-17 -1.52709 2.68432)
(3.52483e-16 -1.81058 2.6335)
(7.53193e-16 -2.12593 2.50274)
(1.20579e-15 -2.47198 2.36455)
(1.67037e-15 -2.82469 2.23628)
(2.1161e-15 -3.17676 2.11389)
(2.53333e-15 -3.52114 1.98913)
(2.90527e-15 -3.85033 1.86169)
(3.21265e-15 -4.15849 1.72822)
(3.43167e-15 -4.44169 1.58903)
(3.54186e-15 -4.69688 1.44436)
(3.53179e-15 -4.92076 1.29217)
(3.39581e-15 -5.11382 1.13595)
(3.14099e-15 -5.27482 0.970843)
(2.78582e-15 -5.39099 0.797726)
(2.36287e-15 -5.46257 0.621226)
(1.906e-15 -5.48346 0.440672)
(1.4415e-15 -5.46852 0.270878)
(9.79438e-16 -5.27385 0.0883549)
(5.47748e-16 -4.98743 -0.0373183)
(2.41381e-16 -4.66254 -0.160627)
(7.16215e-17 -4.23969 -0.230136)
(1.10286e-17 -3.90272 -0.282184)
(-5.35212e-19 -3.60555 -0.314121)
(-6.52919e-19 -3.31581 -0.340131)
(-1.27544e-19 -3.04015 -0.358568)
(-2.18912e-21 -2.75436 -0.382812)
(4.18596e-21 -2.45933 -0.40297)
(9.13928e-22 -2.08352 -0.430559)
(1.26722e-23 -1.73681 -0.446454)
(-6.47031e-23 -1.16346 -0.480517)
(8.03337e-23 -0.777158 -0.483367)
(-8.76768e-22 0.373411 -0.676231)
(3.14346e-21 1.59684 -0.382197)
(-1.10417e-20 2.41999 -0.388632)
(2.97939e-20 2.97392 -0.0582808)
(8.58009e-20 3.41126 -0.241781)
(-1.12473e-18 3.71342 0.1779)
(-1.37676e-17 -2.53571 -0.349713)
(5.47904e-21 1.02293 1.63019)
(2.09119e-20 1.15048 1.64485)
(5.99345e-20 1.20133 1.66209)
(1.71468e-19 1.2712 1.68999)
(4.85624e-19 1.32688 1.71939)
(1.34901e-18 1.38533 1.75683)
(3.63167e-18 1.43916 1.79828)
(9.35876e-18 1.49248 1.84842)
(2.2848e-17 1.54271 1.90967)
(5.23998e-17 1.58921 1.99075)
(1.12128e-16 1.6286 2.10411)
(2.22597e-16 1.65704 2.26802)
(4.08013e-16 1.67027 2.50184)
(6.88124e-16 1.66616 2.81836)
(1.06626e-15 1.64668 3.21328)
(1.51975e-15 1.61865 3.65983)
(2.00042e-15 1.5918 4.11394)
(2.44691e-15 1.57503 4.52861)
(2.80226e-15 1.57314 4.86845)
(3.02769e-15 1.58576 5.11669)
(3.10766e-15 1.60863 5.27352)
(3.04742e-15 1.63593 5.34995)
(2.86675e-15 1.66259 5.36173)
(2.59281e-15 1.68598 5.32544)
(2.25386e-15 1.70657 5.25642)
(1.87412e-15 1.72721 5.16766)
(1.46977e-15 1.75118 5.06938)
(1.04586e-15 1.7799 4.9692)
(5.94381e-16 1.81166 4.87346)
(9.37416e-17 1.84193 4.78854)
(-4.89549e-16 1.86467 4.72159)
(-1.19629e-15 1.8735 4.67983)
(-2.06609e-15 1.86215 4.66864)
(-3.12641e-15 1.82443 4.68888)
(-4.39555e-15 1.75826 4.7363)
(-5.92584e-15 1.67773 4.80551)
(-7.73869e-15 1.58437 4.88136)
(-9.01221e-15 1.26129 4.80117)
(-6.90436e-15 0.205012 3.97752)
(-1.92175e-15 -0.948376 2.81202)
(-1.10307e-16 -1.5087 2.5807)
(5.11626e-16 -1.79988 2.54067)
(8.83864e-16 -2.10516 2.44305)
(1.28604e-15 -2.44982 2.31711)
(1.72816e-15 -2.80456 2.19215)
(2.16268e-15 -3.15738 2.0772)
(2.56896e-15 -3.50115 1.96326)
(2.93077e-15 -3.82908 1.84597)
(3.22924e-15 -4.1356 1.72135)
(3.44039e-15 -4.41712 1.58965)
(3.54404e-15 -4.67042 1.45082)
(3.52885e-15 -4.89254 1.30321)
(3.38938e-15 -5.08371 1.15016)
(3.13276e-15 -5.24245 0.987098)
(2.77746e-15 -5.35694 0.815172)
(2.35566e-15 -5.42726 0.638925)
(1.90062e-15 -5.44833 0.458235)
(1.43812e-15 -5.43271 0.28726)
(9.77996e-16 -5.24185 0.10296)
(5.47903e-16 -4.96086 -0.0251624)
(2.42238e-16 -4.64103 -0.151254)
(7.23079e-17 -4.22479 -0.224193)
(1.12182e-17 -3.89119 -0.279471)
(-5.65536e-19 -3.5963 -0.31487)
(-6.86629e-19 -3.30766 -0.34483)
(-1.35754e-19 -3.03202 -0.367878)
(-2.19847e-21 -2.74599 -0.397563)
(4.6753e-21 -2.45072 -0.423748)
(1.04078e-21 -2.07561 -0.457598)
(1.7392e-23 -1.72829 -0.479223)
(-7.31119e-23 -1.15735 -0.518167)
(8.64894e-23 -0.753931 -0.523076)
(-8.178e-22 0.361053 -0.713929)
(2.83931e-21 1.56738 -0.411589)
(-9.43954e-21 2.38991 -0.397222)
(2.0568e-20 2.95639 -0.0710645)
(1.30342e-19 3.39258 -0.229048)
(-6.52316e-19 3.71549 0.167862)
(-1.36293e-17 -2.50953 -0.273486)
(1.28625e-20 1.02094 1.67935)
(4.76839e-20 1.1476 1.69486)
(1.33612e-19 1.19636 1.71225)
(3.73772e-19 1.2654 1.74192)
(1.03198e-18 1.31981 1.77276)
(2.78248e-18 1.3771 1.81293)
(7.23833e-18 1.4294 1.85828)
(1.79536e-17 1.48044 1.91541)
(4.20401e-17 1.52694 1.98916)
(9.21635e-17 1.56721 2.09247)
(1.87847e-16 1.59685 2.24252)
(3.5383e-16 1.61154 2.46068)
(6.13024e-16 1.60818 2.76374)
(9.74201e-16 1.58778 3.15315)
(1.42009e-15 1.55682 3.60631)
(1.90483e-15 1.52589 4.07906)
(2.36517e-15 1.50576 4.51991)
(2.73959e-15 1.5033 4.88734)
(2.98472e-15 1.51957 5.15971)
(3.08219e-15 1.55068 5.33483)
(3.03644e-15 1.59002 5.42321)
(2.86784e-15 1.63076 5.44089)
(2.60481e-15 1.66764 5.40479)
(2.27695e-15 1.69825 5.3308)
(1.90959e-15 1.72341 5.23324)
(1.51968e-15 1.74642 5.1246)
(1.11285e-15 1.77102 5.01513)
(6.81418e-16 1.79895 4.91298)
(2.03875e-16 1.82856 4.82515)
(-3.53699e-16 1.85524 4.75864)
(-1.03343e-15 1.87291 4.72064)
(-1.8782e-15 1.87547 4.71727)
(-2.92079e-15 1.85747 4.75105)
(-4.17167e-15 1.81389 4.81807)
(-5.62186e-15 1.74332 4.90758)
(-7.29231e-15 1.66071 5.00818)
(-9.20926e-15 1.58234 5.10867)
(-1.068e-14 1.34371 5.08114)
(-8.85836e-15 0.435903 4.33624)
(-2.86627e-15 -0.798277 2.89904)
(-3.07151e-16 -1.46921 2.49651)
(6.00174e-16 -1.78733 2.43418)
(1.02895e-15 -2.0857 2.35978)
(1.38665e-15 -2.4258 2.25949)
(1.79066e-15 -2.78111 2.14396)
(2.20956e-15 -3.13549 2.03471)
(2.60548e-15 -3.4793 1.9315)
(2.95698e-15 -3.80607 1.82618)
(3.24603e-15 -4.11098 1.71224)
(3.44907e-15 -4.39088 1.58963)
(3.54604e-15 -4.64235 1.45813)
(3.52561e-15 -4.86281 1.31631)
(3.38257e-15 -5.05221 1.16732)
(3.1241e-15 -5.20885 1.00695)
(2.76866e-15 -5.3218 0.83659)
(2.34802e-15 -5.39106 0.660747)
(1.89486e-15 -5.4125 0.479884)
(1.43439e-15 -5.39635 0.307439)
(9.76237e-16 -5.2096 0.120915)
(5.47833e-16 -4.93443 -0.0101684)
(2.42963e-16 -4.62002 -0.139622)
(7.29446e-17 -4.21087 -0.216633)
(1.14038e-17 -3.88102 -0.275723)
(-5.92909e-19 -3.58862 -0.315121)
(-7.20009e-19 -3.30114 -0.349633)
(-1.44268e-19 -3.02545 -0.37794)
(-2.25639e-21 -2.73904 -0.413872)
(5.20124e-21 -2.44334 -0.446946)
(1.18475e-21 -2.06886 -0.488154)
(2.38561e-23 -1.72081 -0.516362)
(-8.28218e-23 -1.15284 -0.56122)