/*--------------------------------*- C++ -*----------------------------------*\
| =========                 |                                                 |
| \\      /  F ield         | OpenFOAM: The Open Source CFD Toolbox           |
|  \\    /   O peration     | Version:  4.1                                   |
|   \\  /    A nd           | Web:      www.OpenFOAM.org                      |
|    \\/     M anipulation  |                                                 |
\*---------------------------------------------------------------------------*/
FoamFile
{
    version     2.0;
    format      ascii;
    class       volScalarField;
    location    "27";
    object      p;
}
// * * * * * * * * * * * * * * * * * * * * * * * * * * * * * * * * * * * * * //

dimensions      [0 2 -2 0 0 0 0];

internalField   nonuniform List<scalar> 
6785
(
533.911
480.514
428.682
380.271
335.38
293.363
254.009
217.005
181.91
148.547
117.605
89.4661
60.4372
25.5184
-3.63355
67.4763
45.2154
39.4569
35.7466
30.2726
24.5652
19.4123
15.0236
11.5397
9.08104
7.88979
8.39148
10.4879
12.3595
12.6197
-35.3049
-41.9479
-36.1808
-32.0339
-28.9433
-25.3479
-21.4616
-17.5242
-13.6198
-9.90388
-6.55831
-3.49117
-0.414283
2.23858
3.47292
10.8309
8.41282
13.0055
13.3296
13.3831
13.5982
13.5089
13.1314
12.5497
11.7903
10.8334
9.72394
8.81361
8.66151
8.97206
27.2638
24.9304
26.4836
24.3851
22.9657
21.7217
20.3111
18.9287
17.6708
16.5792
15.6778
14.9649
14.4871
14.4544
14.6994
18.0481
16.0232
16.995
15.7742
15.5692
15.5519
15.4626
15.4945
15.6488
15.8912
16.2094
16.5715
16.8906
17.1471
17.3218
14.6058
13.4464
14.5256
14.198
14.5794
14.9692
15.2638
15.6104
15.9633
16.2847
16.5714
16.8228
16.9991
17.0792
17.0944
16.3329
15.7689
16.6084
16.3679
16.5537
16.6561
16.6702
16.7063
16.7227
16.7106
16.6804
16.647
16.6092
16.5608
16.5108
16.7399
16.4038
16.8823
16.5794
16.5945
16.5419
16.4457
16.3792
16.3062
16.2301
16.157
16.092
16.036
15.9836
15.928
15.5292
15.3086
15.5941
15.3635
15.3839
15.352
15.2996
15.2716
15.2369
15.2012
15.166
15.1292
15.0894
15.0423
14.976
14.4573
14.3128
14.4991
14.3415
14.3624
14.3293
14.2801
14.2435
14.1954
14.143
14.088
14.029
13.9669
13.9006
13.813
13.4998
13.4421
13.5439
13.3717
13.328
13.2439
13.1525
13.0672
12.9711
12.8729
12.773
12.6724
12.5753
12.4872
12.3828
14.3302
14.2018
14.0463
13.6784
13.4232
13.1282
12.8187
12.5195
12.2261
11.9493
11.6919
11.457
11.2524
11.0902
10.9405
11.8388
12.2878
12.6464
12.4734
12.1134
11.6769
11.2634
10.881
10.5038
10.1259
9.74813
9.37262
9.00685
8.6687
8.3314
28.665
28.279
27.4595
24.9303
21.4327
17.9291
14.6921
11.7915
9.15966
6.90934
4.98315
3.37767
2.10589
1.16201
0.378876
32.8277
31.7
32.3526
31.3207
30.5537
28.8278
29.0569
27.3273
26.0417
24.3955
24.6234
22.1242
19.2171
20.3716
18.1578
16.3701
16.0397
17.2626
13.9714
11.9095
14.5356
12.2719
10.3775
11.561
14.1592
11.3116
9.43918
11.3618
14.7859
11.8709
10.8467
15.1611
13.7542
12.2638
13.7096
17.3762
15.3945
14.6662
18.5706
17.7729
16.7562
17.7604
20.764
19.7945
18.9689
19.8623
22.4664
21.677
21.1618
23.2368
23.0225
22.6712
23.0563
24.6362
24.417
24.2143
24.6243
26.2907
26.3136
26.2366
27.9451
28.163
28.0049
27.8753
28.7784
28.8413
28.5651
28.7741
28.5421
29.0406
29.296
26.5406
25.643
25.856
22.903
17.4263
19.3776
12.6815
-4.39015
1.32037
5.18352
5.45046
6.03899
1.08174
3.24944
6.61015
7.43935
7.69194
7.62762
8.26133
10.0974
11.6977
13.0243
7.48558
8.10507
9.94791
11.4344
11.6258
11.9166
12.072
12.5625
16.4153
13.1276
13.328
13.1857
13.7951
15.0459
15.7629
15.7857
15.4342
15.1131
20.1168
18.1372
17.9486
17.3367
16.9314
17.7233
18.6269
17.8133
16.214
19.3266
20.7587
21.3745
21.2249
20.222
19.3087
18.4633
17.7026
16.8881
23.0065
22.5176
20.5293
19.7824
19.0384
17.809
15.9639
13.0861
11.0246
16.5948
18.5373
15.6422
13.5324
10.7927
7.46194
5.08909
3.46869
1.70559
1.2126
1.13742
4.18176
2.15714
1.77561
1.23275
-0.614078
-3.34697
-3.75698
-2.2578
-5.61619
1.45289
0.632843
-0.296931
1.63706
1.89714
2.58034
3.15413
3.77322
4.31862
4.53829
4.8845
5.09515
5.23264
5.37447
5.40039
5.48467
5.4564
5.53997
5.54845
5.39267
5.3961
5.28642
5.40073
5.26421
4.93129
5.16167
4.97171
4.62881
4.60349
4.49308
4.99261
4.58769
4.05923
4.0182
3.9008
4.6332
4.1482
3.28834
4.12721
3.66908
2.93503
2.85354
2.69318
3.852
3.15816
2.2703
2.21518
2.08504
3.38956
2.69894
1.46262
2.77348
2.19786
1.24003
1.16083
1.00303
2.6002
1.77415
0.707998
0.687474
0.602033
2.26102
1.48578
0.0726102
1.66923
1.06307
0.0192317
-0.0366371
-0.164888
1.67985
0.779892
-0.374484
-0.368684
-0.411848
1.45163
0.596104
-0.944477
0.823353
0.143285
-0.97272
-1.09584
-1.03507
-0.00382473
-0.00169238
0.00282228
0.0105593
0.0227573
0.043058
0.0778598
0.13931
0.223419
0.179242
0.120929
0.157154
0.0290164
0.0677219
0.0146903
0.00772406
0.058064
0.111788
0.083755
-0.0522097
-0.120215
-0.0947049
-0.00761367
-0.0352629
-0.0203896
0.0667816
0.0995191
0.104422
0.0808961
0.0772567
0.0220826
0.0516855
-0.0925417
-0.144785
-0.136921
-0.06573
0.0110742
0.104072
0.213069
0.29137
0.13718
0.0940929
0.0439345
0.0104096
0.0284154
0.0313378
0.0939782
0.0320907
0.0498096
0.0337228
0.037054
0.0348685
0.0380226
0.0715101
0.0947201
-0.40642
0.160389
0.197294
0.0887039
0.0372016
0.0603126
0.0758447
0.0821271
0.067055
0.0457696
0.0243316
0.0302421
0.101063
0.0254019
-0.0261799
-0.0611582
-0.0819548
-0.0771221
-0.0493413
-0.0153093
0.0123515
0.0167166
0.0156039
0.00955012
-0.00668667
-0.000291489
0.00985261
0.024937
0.046689
0.0796441
0.132924
0.223637
0.348019
0.251184
0.149339
0.178223
0.0652132
0.105519
0.0765593
0.0640226
0.108323
0.117806
0.166703
-0.0240271
-0.115224
-0.0953456
0.00844077
-0.0395959
-0.0365714
0.0450452
0.0740132
0.0935261
0.0821173
0.107145
0.0574793
0.249859
-0.0314886
-0.189656
-0.190919
-0.109276
-0.0124478
0.107184
0.241592
0.302335
0.126469
0.0659255
0.00684048
-0.0364235
0.0119476
0.00277468
0.0570407
0.0168357
0.0637329
0.0935317
0.12142
0.11142
0.0884816
0.155737
0.196098
-0.538964
0.257107
0.332241
0.16808
0.0918072
0.129226
0.124675
0.147245
0.0924854
0.0653987
0.0355163
0.0518351
0.150119
0.0441314
-0.0346559
-0.080036
-0.101658
-0.0946568
-0.0814548
-0.0334734
0.00374393
0.0192167
0.039383
0.054796
-0.00415507
0.00777085
0.0231514
0.0433928
0.0702065
0.107876
0.165735
0.260851
0.390241
0.289259
0.181983
0.173873
0.0862923
0.112758
0.128732
0.105194
0.119921
0.111977
0.165637
-0.0120748
-0.106677
-0.0972588
-0.00862053
-0.0441109
-0.0644413
-0.00144069
0.0300487
0.0633754
0.073323
0.136508
0.102745
0.319762
0.053807
-0.114781
-0.112119
-0.0438872
0.041259
0.14904
0.269635
0.28303
0.0777533
0.00809239
-0.0268566
-0.0820776
-0.0324295
-0.0360555
0.0247738
0.0119836
0.0832634
0.155503
0.201765
0.192559
0.154569
0.225229
0.324643
-0.284369
0.434222
0.398136
0.247499
0.131833
0.163075
0.156327
0.169404
0.112657
0.0800387
0.0537917
0.0652027
0.149497
0.0501468
-0.0205186
-0.060288
-0.0785905
-0.0743464
-0.0808354
-0.0650144
-0.0165806
0.0131209
0.058199
0.121596
-0.000139801
0.0170939
0.0367432
0.0607562
0.0906681
0.130518
0.189931
0.285959
0.411814
0.322433
0.22157
0.183073
0.108189
0.123221
0.17745
0.150705
0.138206
0.122588
0.160347
0.0121683
-0.0783869
-0.0827914
-0.0134018
-0.0285894
-0.0740236
-0.0336627
0.00110691
0.0455003
0.069305
0.155337
0.138502
0.347882
0.107247
-0.0289292
-0.0207248
0.0361724
0.10644
0.196359
0.299305
0.296985
0.0610578
-0.0141926
-0.0505839
-0.104564
-0.0605699
-0.0564217
0.010432
0.014611
0.105557
0.216329
0.286368
0.277166
0.225867
0.307093
0.458842
0.0061249
0.56494
0.443912
0.311592
0.175672
0.1976
0.193452
0.193084
0.142143
0.105413
0.0807202
0.0872482
0.151994
0.063569
0.00255552
-0.033952
-0.0537851
-0.0579972
-0.0836263
-0.0895973
-0.0355282
0.0109936
0.0844434
0.164757
0.00292472
0.0248817
0.0483113
0.075475
0.107775
0.149149
0.209934
0.309251
0.432491
0.341915
0.252877
0.198797
0.127159
0.139263
0.219025
0.192007
0.156879
0.128918
0.156586
0.0374135
-0.048179
-0.0660578
-0.0145991
-0.0167826
-0.0790624
-0.0576235
-0.022702
0.0278668
0.0661672
0.16727
0.170128
0.381759
0.129869
0.0290398
0.0411019
0.0952121
0.156741
0.233075
0.319485
0.317687
0.0692201
-0.00904139
-0.0605562
-0.113912
-0.0726143
-0.066356
0.00682647
0.0258096
0.132697
0.276707
0.372569
0.364971
0.303261
0.392904
0.572638
0.22629
0.654951
0.470056
0.359332
0.217572
0.230784
0.224433
0.216501
0.167669
0.13163
0.104972
0.108681
0.157587
0.0786021
0.022969
-0.0143879
-0.038528
-0.0511153
-0.0944978
-0.108888
-0.0540263
0.00980227
0.107476
0.240757
0.00539077
0.0319516
0.0592605
0.0896246
0.124468
0.167508
0.229914
0.334236
0.455587
0.358144
0.281853
0.219112
0.144548
0.15672
0.253341
0.225326
0.172131
0.13268
0.148237
0.0527534
-0.0278178
-0.0563807
-0.0210324
-0.01298
-0.0834684
-0.077194
-0.0433617
0.0110943
0.0623352
0.173752
0.19569
0.421704
0.150299
0.0771472
0.0902168
0.144105
0.199144
0.264841
0.336364
0.344465
0.0938499
0.0108898
-0.0575579
-0.114106
-0.0745904
-0.066277
0.0112915
0.043725
0.165689
0.338907
0.462136
0.457723
0.387316
0.477526
0.671363
0.403864
0.71891
0.469418
0.394577
0.253229
0.25966
0.247768
0.23429
0.185772
0.15243
0.123854
0.12527
0.161977
0.0923318
0.0409162
0.00206116
-0.0263538
-0.0461601
-0.105327
-0.126083
-0.0705126
0.0110287
0.138723
0.275194
0.00802453
0.0392716
0.0706145
0.104288
0.141792
0.186499
0.250173
0.359561
0.478328
0.370792
0.306571
0.240258
0.160511
0.172734
0.281666
0.250698
0.183435
0.132372
0.134866
0.0556559
-0.0198993
-0.0556756
-0.0332322
-0.017285
-0.0894683
-0.0945305
-0.0624569
-0.00518627
0.0579478
0.177243
0.215728
0.458464
0.181956
0.130713
0.141225
0.192839
0.239763
0.295612
0.353777
0.373706
0.126179
0.0365251
-0.0447139
-0.109613
-0.0709244
-0.0607715
0.0210471
0.0676506
0.204688
0.403345
0.552648
0.553922
0.478489
0.564119
0.767783
0.560921
0.747661
0.448529
0.420881
0.282048
0.282957
0.266018
0.247664
0.200271
0.169089
0.138926
0.138675
0.165521
0.10524
0.0582283
0.0184115
-0.014138
-0.0408876
-0.113617
-0.140841
-0.083782
0.0136611
0.175123
0.33164
0.0110241
0.0469773
0.0823774
0.119342
0.159484
0.205653
0.26997
0.383454
0.497992
0.3806
0.328136
0.260765
0.176949
0.186888
0.305313
0.268746
0.190686
0.127046
0.116568
0.0475522
-0.0234765
-0.0634643
-0.0502092
-0.0283027
-0.0979441
-0.110694
-0.0808196
-0.0213761
0.0526698
0.178905
0.23231
0.488605
0.217162
0.188156
0.195164
0.243362
0.280447
0.327017
0.372883
0.404469
0.162527
0.0658453
-0.0246086
-0.0990444
-0.0629103
-0.0516597
0.0350347
0.0967738
0.249912
0.471328
0.645062
0.655205
0.57685
0.656387
0.869986
0.70581
0.751822
0.413911
0.438854
0.305803
0.302102
0.282208
0.260043
0.214363
0.18388
0.152346
0.150986
0.169485
0.118098
0.0757979
0.0349603
-0.00163681
-0.0356082
-0.11851
-0.151283
-0.0926046
0.0197415
0.208475
0.418909
0.0140566
0.0544505
0.0938184
0.133861
0.1763
0.223371
0.287208
0.403285
0.51286
0.388202
0.34666
0.27918
0.194699
0.200037
0.322092
0.280617
0.194
0.116295
0.0944094
0.0313052
-0.0362567
-0.0782176
-0.0704181
-0.0441337
-0.1089
-0.126223
-0.0985878
-0.0370819
0.0469018
0.180036
0.247559
0.511186
0.247362
0.242458
0.246735
0.292506
0.319443
0.357535
0.391916
0.432695
0.198992
0.0977441
-0.0014624
-0.0841843
-0.0525239
-0.0414397
0.0515859
0.129922
0.299447
0.541702
0.73711
0.760125
0.680276
0.755752
0.981009
0.844618
0.753012
0.370842
0.448302
0.324974
0.317868
0.296719
0.271948
0.228102
0.197337
0.16484
0.162595
0.173996
0.130506
0.092968
0.0502438
0.00995746
-0.0318921
-0.121432
-0.158202
-0.0973338
0.02873
0.249379
0.469773
0.0168904
0.0613507
0.104545
0.147399
0.191818
0.239327
0.301888
0.419056
0.522908
0.394148
0.363026
0.294645
0.21271
0.211983
0.330805
0.288643
0.193046
0.0996576
0.0681388
0.00870334
-0.0565236
-0.0988873
-0.0937373
-0.0639035
-0.12245
-0.142072
-0.11633
-0.0529571
0.0397613
0.179705
0.261704
0.528743
0.27131
0.29267
0.295628
0.340733
0.357727
0.387989
0.411517
0.45683
0.235236
0.13232
0.024432
-0.0666897
-0.0397128
-0.0299281
0.0703732
0.166653
0.352537
0.61439
0.830496
0.870297
0.789422
0.865283
1.10212
0.985448
0.762605
0.325628
0.452715
0.341283
0.332626
0.310693
0.284442
0.242195
0.21054
0.1774
0.174031
0.179518
0.142825
0.109787
0.0651566
0.0211948
-0.0288563
-0.12095
-0.161403
-0.0978298
0.0421269
0.298198
0.54645
0.0194443
0.0676087
0.114525
0.159922
0.205955
0.253426
0.313829
0.430457
0.528221
0.398513
0.377042
0.307539
0.229985
0.221746
0.332518
0.292713
0.18801
0.0779427
0.0392608
-0.0179391
-0.0821442
-0.12364
-0.119075
-0.0860454
-0.138379
-0.15837
-0.133802
-0.0685621
0.0315408
0.177466
0.272848
0.543139
0.292476
0.340684
0.342903
0.388527
0.395609
0.41797
0.431213
0.477695
0.269985
0.166275
0.0515471
-0.0501023
-0.0265131
-0.0168954
0.0907131
0.206074
0.40806
0.687562
0.924024
0.984401
0.904696
0.986224
1.2337
1.13153
0.788409
0.284652
0.4551
0.355455
0.346856
0.324107
0.29736
0.256428
0.223512
0.189856
0.185088
0.185957
0.154862
0.125699
0.0802387
0.0318127
-0.0254558
-0.11677
-0.160717
-0.0946149
0.0590628
0.347019
0.648176
0.0219039
0.0735935
0.124181
0.171955
0.219431
0.26662
0.324416
0.438831
0.529181
0.401166
0.389095
0.318389
0.245853
0.228133
0.327689
0.289882
0.18035
0.0534983
0.00727628
-0.0482778
-0.112079
-0.15174
-0.146398
-0.110498
-0.156958
-0.175579
-0.151759
-0.0847001
0.0213861
0.172411
0.279879
0.553985
0.311895
0.389089
0.391404
0.438274
0.435129
0.449084
0.452201
0.498743
0.30519
0.198921
0.0800841
-0.0337434
-0.0118308
-1.9462e-05
0.114217
0.248934
0.466932
0.761563
1.02022
1.10459
1.02766
1.11955
1.37707
1.28571
0.829953
0.251707
0.456854
0.368911
0.36181
0.338167
0.31147
0.271515
0.236881
0.202502
0.196329
0.193796
0.167188
0.141236
0.0961145
0.0424103
-0.0197145
-0.108994
-0.155362
-0.0869795
0.0808456
0.403671
0.731205
0.0244118
0.079589
0.13392
0.184025
0.232835
0.279518
0.334038
0.444338
0.526142
0.40212
0.39917
0.327398
0.259082
0.230851
0.316473
0.278121
0.17406
0.0279823
-0.0276043
-0.0811699
-0.144686
-0.181757
-0.174685
-0.136233
-0.177696
-0.193483
-0.170051
-0.100952
0.00974175
0.165211
0.282809
0.55858
0.329147
0.437867
0.441284
0.489875
0.476211
0.480987
0.474115
0.520267
0.340061
0.229146
0.10845
-0.0140287
0.00336732
0.0202648
0.140738
0.294733
0.528074
0.83579
1.11773
1.22896
1.15877
1.26196
1.52784
1.44796
0.883059
0.227248
0.458027
0.381908
0.377613
0.352886
0.326266
0.286765
0.250546
0.215091
0.207546
0.202683
0.179551
0.156053
0.111765
0.0528459
-0.0122943
-0.0992386
-0.1461
-0.0752119
0.106333
0.460052
0.849004
0.0271375
0.0858786
0.144061
0.196539
0.246743
0.292861
0.343782
0.448176
0.519678
0.401428
0.407515
0.33439
0.26854
0.23195
0.299764
0.260946
0.169008
-0.000213106
-0.0653001
-0.117276
-0.179717
-0.213594
-0.204343
-0.163733
-0.200789
-0.212703
-0.189356
-0.118083
-0.00383062
0.155336
0.281115
0.555831
0.342847
0.487679
0.493745
0.544518
0.520067
0.515006
0.497891
0.543074
0.375517
0.259468
0.137622
0.0106064
0.0199271
0.0444741
0.170769
0.343803
0.590997
0.911806
1.21852
1.35783
1.29992
1.41268
1.68412
1.61871
0.954369
0.211484
0.461021
0.396025
0.39529
0.369286
0.34272
0.302634
0.265209
0.22804
0.218889
0.212789
0.192486
0.170419
0.127208
0.0648065
-0.00311731
-0.0875339
-0.133069
-0.0594666
0.13729
0.526762
0.931635
0.0300699
0.0924538
0.154658
0.209597
0.261244
0.306697
0.353412
0.450116
0.510319
0.399381
0.413728
0.340481
0.275028
0.232994
0.279727
0.240878
0.16091
-0.0320356
-0.103764
-0.155998
-0.216189
-0.246163
-0.234399
-0.192063
-0.225575
-0.232872
-0.209215
-0.135571
-0.0185759
0.143126
0.274823
0.543611
0.353215
0.538196
0.548224
0.601422
0.56606
0.550565
0.523114
0.566346
0.410158
0.289262
0.166777
0.0366773
0.0370501
0.0703272
0.202843
0.39384
0.65342
0.988655
1.32045
1.4883
1.44828
1.57053
1.85153
1.79644
1.05531
0.206556
0.46711
0.411336
0.413456
0.386858
0.360274
0.318808
0.280181
0.240954
0.229861
0.223534
0.205794
0.184408
0.142232
0.0780546
0.00755965
-0.0743485
-0.117342
-0.0413887
0.172563
0.60114
1.03772
0.0332303
0.0993257
0.165679
0.223162
0.276362
0.321155
0.363426
0.451029
0.498642
0.396127
0.417972
0.346641
0.280638
0.235207
0.256811
0.218438
0.147154
-0.0664692
-0.143107
-0.198511
-0.254525
-0.279771
-0.265355
-0.221853
-0.25242
-0.25467
-0.23038
-0.154374
-0.0351682
0.127829
0.264254
0.523018
0.360855
0.590795
0.605918
0.661606
0.615132
0.588771
0.550636
0.5909
0.44574
0.319679
0.197096
0.0654148
0.0560927
0.097423
0.237192
0.443699
0.715731
1.06782
1.42495
1.6213
1.60295
1.73891
2.03797
1.98531
1.19218
0.214198
0.476851
0.428034
0.432038
0.406232
0.379594
0.336382
0.295442
0.254402
0.241184
0.235034
0.219861
0.198761
0.157785
0.0927881
0.0204725
-0.0591795
-0.0989202
-0.0208608
0.21343
0.675503
1.17369
0.0365237
0.106361
0.177023
0.237132
0.291956
0.336048
0.373354
0.450542
0.485197
0.392266
0.419608
0.352242
0.286313
0.237717
0.233441
0.19522
0.127242
-0.101439
-0.182855
-0.243089
-0.293483
-0.313446
-0.296295
-0.2522
-0.280601
-0.277647
-0.252246
-0.173993
-0.053287
0.110189
0.24886
0.496988
0.366918
0.645242
0.666276
0.724274
0.666558
0.628946
0.580058
0.616097
0.480936
0.34987
0.227594
0.0953534
0.0764821
0.123472
0.272526
0.491982
0.777811
1.14839
1.53032
1.75413
1.7598
1.91452
2.24293
2.1865
1.36816
0.233553
0.487515
0.445074
0.450888
0.426608
0.399542
0.354936
0.311106
0.268253
0.252781
0.246664
0.233831
0.212774
0.173321
0.108378
0.0346827
-0.0425409
-0.0787216
0.00178607
0.259126
0.759369
1.27758
0.0399713
0.11358
0.188665
0.251472
0.308042
0.351509
0.383734
0.449631
0.470742
0.388147
0.419464
0.356557
0.291333
0.238477
0.210209
0.171955
0.101831
-0.136568
-0.222654
-0.289229
-0.333253
-0.34768
-0.327841
-0.284053
-0.310627
-0.302454
-0.275606
-0.195438
-0.0740996
0.0892673
0.227813
0.468306
0.37195
0.702751
0.730342
0.790411
0.721199
0.672001
0.611943
0.642413
0.516581
0.382068
0.259629
0.127598
0.0994555
0.149522
0.308771
0.540387
0.84164
1.23167
1.6379
1.88738
1.91891
2.09241
2.46095
2.39929
1.58217
0.264124
0.497763
0.462185
0.470904
0.448097
0.420559
0.37521
0.32844
0.282712
0.264805
0.258606
0.247931
0.226425
0.188495
0.124633
0.0498421
-0.024162
-0.057042
0.0276817
0.311247
0.853406
1.40726
0.0435152
0.120935
0.200606
0.266207
0.324633
0.367545
0.394302
0.448065
0.456073
0.38385
0.418522
0.360235
0.294947
0.236512
0.189207
0.147991
0.0710079
-0.171288
-0.260894
-0.335155
-0.372598
-0.381647
-0.359216
-0.31661
-0.341553
-0.328368
-0.299702
-0.218022
-0.0974948
0.0647968
0.203059
0.436714
0.37607
0.762586
0.7974
0.859221
0.778338
0.717214
0.645755
0.669036
0.550397
0.414563
0.292916
0.160708
0.12355
0.174488
0.34371
0.588732
0.906328
1.31493
1.7437
2.01954
2.07872
2.26977
2.68134
2.61784
1.82105
0.301981
0.506235
0.478742
0.491233
0.469873
0.441863
0.396096
0.347009
0.297417
0.276824
0.270217
0.261191
0.239163
0.202105
0.140251
0.0650001
-0.00575377
-0.0349891
0.0562013
0.368866
0.950078
1.56164
0.0472255
0.128526
0.21292
0.28142
0.341877
0.384444
0.405794
0.446946
0.442304
0.379059
0.417918
0.364267
0.297259
0.232955
0.171184
0.122111
0.0350811
-0.205673
-0.297258
-0.380977
-0.412076
-0.415946
-0.391278
-0.350857
-0.373989
-0.356037
-0.325521
-0.242782
-0.124464
0.0365451
0.174477
0.401654
0.379533
0.825938
0.868471
0.931744
0.838837
0.765409
0.681976
0.696685
0.583621
0.447645
0.327604
0.194968
0.149661
0.200832
0.378339
0.637769
0.972309
1.39816
1.84839
2.15339
2.24128
2.44926
2.8996
2.83785
2.07435
0.343094
0.512382
0.495354
0.511912
0.492392
0.464227
0.417785
0.366961
0.313163
0.289454
0.282185
0.274075
0.251451
0.214438
0.155157
0.0809766
0.0126123
-0.0119287
0.0883502
0.433901
1.05689
1.70104
0.0510664
0.136349
0.225652
0.297187
0.359849
0.402284
0.41806
0.44604
0.429605
0.373898
0.417259
0.367718
0.29824
0.228897
0.156212
0.0940897
-0.00483778
-0.23932
-0.332546
-0.425101
-0.450605
-0.449704
-0.423276
-0.385974
-0.407002
-0.384579
-0.352232
-0.268924
-0.154236
0.00663989
0.142696
0.362567
0.382431
0.892017
0.942984
1.00733
0.90211
0.815985
0.720253
0.725016
0.615423
0.479689
0.360221
0.227998
0.176962
0.228496
0.41183
0.685877
1.03783
1.47958
1.95005
2.28648
2.40501
2.62771
3.10591
3.05409
2.32369
0.37918
0.513618
0.512803
0.532241
0.515148
0.486825
0.43941
0.387314
0.329886
0.302609
0.294455
0.286623
0.263081
0.225305
0.168441
0.096994
0.0303366
0.0111688
0.123783
0.505699
1.16621
1.86874
0.055115
0.14451
0.238882
0.3136
0.378698
0.421346
0.431882
0.446478
0.418286
0.369505
0.415763
0.369607
0.299099
0.224996
0.142332
0.062785
-0.0470918
-0.272692
-0.369309
-0.467656
-0.488681
-0.48355
-0.456078
-0.422922
-0.441315
-0.414738
-0.380908
-0.297555
-0.18705
-0.0243489
0.108681
0.319923
0.385887
0.962246
1.02213
1.08713
0.969063
0.86975
0.761142
0.754594
0.647697
0.511454
0.391145
0.260655
0.206499
0.258412
0.445563
0.733791
1.10332
1.56021
2.05021
2.41903
2.57227
2.80686
3.29142
3.25481
2.56119
0.411462
0.510589
0.532978
0.552962
0.538608
0.510253
0.461898
0.408287
0.34788
0.317072
0.30748
0.299607
0.274711
0.235424
0.180515
0.112854
0.0478119
0.0345095
0.16447
0.58647
1.28731
2.0096
0.0593209
0.152986
0.252626
0.330701
0.398456
0.441656
0.447103
0.448077
0.40929
0.366444
0.413061
0.370622
0.300175
0.221049
0.128265
0.0304325
-0.0893029
-0.306139
-0.40859
-0.507464
-0.525226
-0.516661
-0.488934
-0.4606
-0.475908
-0.445486
-0.4105
-0.327881
-0.221116
-0.0554685
0.0742992
0.274312
0.390614
1.03586
1.10555
1.1706
1.03922
0.9262
0.804465
0.78467
0.679445
0.541491
0.419885
0.291751
0.236725
0.288385
0.478682
0.780399
1.1667
1.63778
2.14592
2.54718
2.73916
2.98358
3.45669
3.42764
2.7896
0.444382
0.504714
0.555003
0.57387
0.562176
0.533576
0.484564
0.429211
0.365952
0.332475
0.320594
0.312248
0.286055
0.244619
0.190994
0.126934
0.0639413
0.0568884
0.210135
0.675034
1.41715
2.16782
0.0637513
0.161864
0.266954
0.348576
0.419261
0.463469
0.464512
0.451978
0.403847
0.364995
0.410697
0.372156
0.301354
0.216538
0.11238
-0.00310757
-0.13119
-0.340027
-0.449363
-0.544793
-0.56093
-0.549754
-0.522627
-0.499606
-0.511425
-0.477613
-0.44188
-0.360783
-0.256671
-0.0882024
0.040103
0.227411
0.398706
1.11446
1.19457
1.25896
1.11348
0.986074
0.85075
0.816271
0.712227
0.57196
0.448109
0.321856
0.268091
0.318855
0.512173
0.826186
1.22804
1.71278
2.23741
2.67073
2.90422
3.15693
3.61401
3.58943
3.02076
0.486872
0.499567
0.578609
0.595546
0.586167
0.557406
0.508008
0.450423
0.383793
0.348094
0.333841
0.324511
0.297309
0.253668
0.200757
0.138782
0.0793855
0.0794053
0.262567
0.772343
1.54887
2.34906
0.0683407
0.171103
0.28184
0.367215
0.441078
0.486712
0.483901
0.457986
0.402303
0.364888
0.4089
0.37432
0.301509
0.210437
0.0950021
-0.0373799
-0.172836
-0.374154
-0.490219
-0.578168
-0.595148
-0.582232
-0.556167
-0.538557
-0.546591
-0.509915
-0.473592
-0.394763
-0.292895
-0.122107
0.00583294
0.178204
0.41089
1.19728
1.28896
1.35169
1.19146
1.049
0.899808
0.849229
0.745036
0.601997
0.474862
0.349405
0.298852
0.349106
0.544951
0.869429
1.28517
1.78305
2.32203
2.78544
3.06064
3.322
3.77014
3.76919
3.25537
0.541357
0.497503
0.60095
0.61688
0.60997
0.580848
0.531087
0.471097
0.401156
0.363171
0.346611
0.335752
0.307485
0.262348
0.209637
0.148645
0.0941389
0.101708
0.320698
0.876727
1.68951
2.50378
0.0731513
0.180782
0.297352
0.386704
0.464036
0.5116
0.505984
0.467184
0.404322
0.366176
0.40732
0.376598
0.300796
0.203558
0.0760012
-0.0716791
-0.213322
-0.408599
-0.529751
-0.608213
-0.628551
-0.615394
-0.589869
-0.577972
-0.581965
-0.543153
-0.506291
-0.430439
-0.330883
-0.157894
-0.0321157
0.123196
0.428867
1.28598
1.39008
1.44993
1.27398
1.11567
0.952098
0.884156
0.77888
0.632987
0.502042
0.376104
0.329079
0.380393
0.578039
0.910979
1.33892
1.8493
2.40096
2.89085
3.20775
3.47924
3.92387
3.97435
3.49209
0.617764
0.500604
0.620781
0.638966
0.63384
0.604417
0.554212
0.491458
0.418561
0.377665
0.35923
0.346873
0.317563
0.270919
0.218154
0.159464
0.110284
0.126552
0.385976
0.98894
1.83925
2.67535
0.07811
0.19085
0.313438
0.406991
0.488046
0.537959
0.53042
0.479422
0.409844
0.368739
0.404214
0.377642
0.298899
0.196345
0.056436
-0.104251
-0.251393
-0.442964
-0.566216
-0.635011
-0.659726
-0.648539
-0.621896
-0.616453
-0.616415
-0.576001
-0.538653
-0.466397
-0.369478
-0.196963
-0.0742526
0.0624091
0.453358
1.37988
1.4977
1.55313
1.36069
1.18583
1.00739
0.920879
0.811812
0.662965
0.528059
0.401156
0.356757
0.410818
0.609928
0.949938
1.38835
1.90937
2.47193
2.98419
3.34201
3.62522
4.0664
4.18928
3.72469
0.726509
0.508817
0.638501
0.662633
0.656984
0.627254
0.576338
0.510471
0.435256
0.391382
0.371428
0.357545
0.326292
0.277905
0.226876
0.171436
0.12838
0.154701
0.457137
1.10695
1.99053
2.86314
0.0832795
0.201391
0.330181
0.428186
0.513259
0.566005
0.557813
0.495724
0.419584
0.372926
0.399461
0.376801
0.296568
0.188918
0.0354945
-0.134788
-0.287574
-0.477453
-0.59944
-0.660285
-0.688738
-0.681071
-0.652644
-0.654498
-0.650664
-0.609111
-0.572086
-0.503665
-0.408263
-0.240526
-0.119621
-0.00282724
0.487294
1.48102
1.61311
1.66237
1.45233
1.26013
1.06593
0.960394
0.844856
0.692672
0.552983
0.425214
0.382535
0.440306
0.641043
0.987312
1.43534
1.96485
2.53561
3.06687
3.46443
3.76121
4.19815
4.40296
3.96356
0.8775
0.528306
0.655879
0.689191
0.679897
0.649905
0.598197
0.528216
0.450891
0.404869
0.383648
0.368284
0.334992
0.28556
0.237961
0.184627
0.149846
0.189774
0.535776
1.23138
2.1477
3.03753
0.0885789
0.212338
0.347488
0.450181
0.539514
0.595455
0.587661
0.515882
0.433979
0.379719
0.394784
0.375064
0.293728
0.180701
0.0148312
-0.161921
-0.321706
-0.511589
-0.629179
-0.684529
-0.714157
-0.711402
-0.682417
-0.69107
-0.683552
-0.641002
-0.605516
-0.541106
-0.445342
-0.285429
-0.164617
-0.0701948
0.531639
1.58927
1.73602
1.77705
1.54859
1.33836
1.12744
1.00244
0.8774
0.721268
0.575237
0.446622
0.405292
0.466621
0.670003
1.02176
1.47847
2.01411
2.59022
3.13789
3.57234
3.88502
4.31833
4.60819
4.19919
1.06985
0.564573
0.671076
0.71774
0.702863
0.671404
0.618936
0.544667
0.465484
0.418292
0.39556
0.378809
0.343628
0.294
0.249506
0.198402
0.172194
0.232041
0.620373
1.35944
2.30259
3.2231
0.0940673
0.223774
0.365453
0.473093
0.56697
0.626515
0.620415
0.540743
0.453191
0.390659
0.392024
0.373784
0.289917
0.172187
-0.00481106
-0.186376
-0.353684
-0.54473
-0.656271
-0.707289
-0.736267
-0.739901
-0.712765
-0.727137
-0.715749
-0.672336
-0.639541
-0.579612
-0.48269
-0.329779
-0.206892
-0.136553
0.588672
1.70636
1.86758
1.89822
1.65012
1.42104
1.19243
1.0475
0.911061
0.75021
0.596425
0.466795
0.42587
0.490112
0.697672
1.05452
1.51847
2.058
2.6372
3.19891
3.66668
3.99915
4.42678
4.79192
4.41647
1.3029
0.625045
0.685412
0.747341
0.727158
0.692325
0.638847
0.560984
0.480565
0.432532
0.407214
0.389158
0.353115
0.303474
0.260185
0.215112
0.195765
0.284143
0.712544
1.48985
2.45948
3.39061
0.0996536
0.235614
0.383939
0.496756
0.595393
0.65881
0.655404
0.569996
0.477231
0.405886
0.391539
0.373276
0.284459
0.162589
-0.0227761
-0.207633
-0.381897
-0.575153
-0.680521
-0.727487
-0.755519
-0.765364
-0.743053
-0.76155
-0.746112
-0.701692
-0.672415
-0.617248
-0.520594
-0.372137
-0.242003
-0.19709
0.658576
1.83177
2.00739
2.02525
1.75667
1.50799
1.26102
1.09489
0.945164
0.778449
0.615661
0.483493
0.442523
0.510058
0.722695
1.08481
1.55381
2.09509
2.67637
3.24974
3.74622
4.10415
4.52434
4.94012
4.59755
1.56943
0.715254
0.70239
0.775288
0.752469
0.711886
0.65727
0.577601
0.496924
0.447081
0.418048
0.398852
0.362762
0.311863
0.270353
0.233892
0.220303
0.345265
0.810344
1.61815
2.61434
3.55822
0.105395
0.247944
0.403055
0.521304
0.624962
0.692568
0.69294
0.604223
0.506557
0.4252
0.393103
0.373231
0.277977
0.151885
-0.0397689
-0.225838
-0.405718
-0.602543
-0.702567
-0.744823
-0.772981
-0.787951
-0.773552
-0.794867
-0.775168
-0.729617
-0.704921
-0.654508
-0.559965
-0.415531
-0.268061
-0.24774
0.743226
1.96755
2.1565
2.15912
1.86879
1.59964
1.33347
1.14499
0.980902
0.807049
0.634004
0.497192
0.455435
0.527612
0.745677
1.11342
1.58531
2.12643
2.70949
3.29213
3.81252
4.2022
4.61373
5.05078
4.74832
1.86625
0.836512
0.726705
0.800539
0.779054
0.731714
0.675088
0.594745
0.514511
0.461482
0.428625
0.408358
0.372877
0.319917
0.283241
0.255108
0.250507
0.416461
0.9141
1.74341
2.76009
3.72988
0.111193
0.260653
0.422611
0.54649
0.655346
0.727307
0.732154
0.642633
0.541375
0.447957
0.397012
0.373114
0.271209
0.140475
-0.0546183
-0.239995
-0.42465
-0.626855
-0.722766
-0.758902
-0.788618
-0.806268
-0.802861
-0.825703
-0.801862
-0.755298
-0.735489
-0.689529
-0.598448
-0.460447
-0.294503
-0.290004
0.842176
2.1139
2.31445
2.29916
1.98623
1.6958
1.40909
1.19737
1.01751
0.834197
0.650075
0.506788
0.46317
0.540751
0.764635
1.13781
1.61117
2.15109
2.73629
3.32668
3.86639
4.29124
4.6937
5.11767
4.85597
2.18479
0.98906
0.763477
0.821187
0.806752
0.752915
0.691876
0.611655
0.531915
0.475502
0.43968
0.417743
0.381655
0.328982
0.29885
0.276274
0.287984
0.495243
1.01962
1.86292
2.89849
3.88087
0.117108
0.273835
0.442733
0.572465
0.686734
0.763276
0.773269
0.685448
0.581535
0.474688
0.404371
0.372398
0.264062
0.128596
-0.0673365
-0.250643
-0.439061
-0.64828
-0.742717
-0.771455
-0.802116
-0.821361
-0.830926
-0.854849
-0.827073
-0.780157
-0.764914
-0.722779
-0.635624
-0.507188
-0.329605
-0.324155
0.956839
2.27265
2.48216
2.44626
2.1094
1.79665
1.48812
1.25253
1.05606
0.860543
0.664611
0.512999
0.467108
0.549851
0.77977
1.1575
1.63145
2.16951
2.75689
3.35472
3.91037
4.36812
4.76285
5.14321
4.92698
2.52398
1.176
0.81854
0.840305
0.835431
0.777313
0.708774
0.627807
0.548439
0.489614
0.451682
0.427005
0.390927
0.34167
0.31734
0.299526
0.336591
0.58167
1.12506
1.97611
3.02719
4.0236
0.123042
0.287355
0.463182
0.598908
0.718701
0.799904
0.815264
0.731654
0.624679
0.503657
0.416114
0.372453
0.2571
0.11716
-0.0770371
-0.257379
-0.448553
-0.665775
-0.761374
-0.783278
-0.815618
-0.835486
-0.856466
-0.881062
-0.850342
-0.803136
-0.791463
-0.752561
-0.669134
-0.552258
-0.369371
-0.34954
1.08707
2.44381
2.65903
2.59967
2.23807
1.90192
1.5708
1.31019
1.09592
0.885291
0.676344
0.514576
0.467094
0.55374
0.78916
1.17029
1.64433
2.18056
2.77138
3.37757
3.94614
4.42948
4.82511
5.13902
5.00742
2.87755
1.39466
0.89655
0.864219
0.863376
0.804047
0.72687
0.643595
0.564299
0.504118
0.463529
0.435018
0.400261
0.355868
0.334807
0.326316
0.394782
0.671771
1.22607
2.08009
3.14015
4.16235
0.129064
0.30132
0.484112
0.625997
0.751464
0.837508
0.858377
0.781641