/*--------------------------------*- C++ -*----------------------------------*\
| =========                 |                                                 |
| \\      /  F ield         | OpenFOAM: The Open Source CFD Toolbox           |
|  \\    /   O peration     | Version:  4.1                                   |
|   \\  /    A nd           | Web:      www.OpenFOAM.org                      |
|    \\/     M anipulation  |                                                 |
\*---------------------------------------------------------------------------*/
FoamFile
{
    version     2.0;
    format      ascii;
    class       surfaceScalarField;
    location    "27";
    object      phi;
}
// * * * * * * * * * * * * * * * * * * * * * * * * * * * * * * * * * * * * * //

dimensions      [0 3 -1 0 0 0 0];

internalField   nonuniform List<scalar> 
13220
(
-949.88
2249.78
-1573.96
1924.28
-2054.01
1779.95
-2424.24
1670.13
-2699.87
1575.83
-2888.39
1488.42
-2993.07
1404.58
-3013.87
1321
-2949.63
1235.66
-2797.25
1147.52
-2551.18
1054.13
-2193.02
941.735
-1687.18
794.065
-1012.69
625.703
287.215
373.332
1876.44
442.752
1854.87
437.291
1785.39
406.699
1700.73
380.567
1601.94
359.898
1509.1
345.276
1419.19
337.529
1328.76
333.468
1239.71
326.942
1154.05
309.592
1071.48
267.452
983.874
191.415
870.095
111.441
705.67
398.656
33.5736
1842.85
-97.3859
1985.83
-253.624
1941.61
-371.119
1818.24
-473.2
1704
-567.539
1603.44
-651.769
1503.4
-725.809
1402.8
-788.1
1301.98
-837.333
1203.28
-868.258
1102.39
-856.12
971.724
-740.355
754.315
-434.285
399.584
-35.6293
28.8104
1814.03
-100.604
2115.26
-225.533
2066.52
-304.445
1897.17
-368.131
1767.66
-416.902
1652.23
-446.205
1532.67
-456.973
1413.58
-451.831
1296.82
-430.123
1181.58
-387.208
1059.46
-311.845
896.367
-192.84
635.305
-48.3971
255.134
-84.0266
169.78
1644.23
146.365
2138.7
123.92
2088.93
123.1
1898.02
127.151
1763.56
136.065
1643.35
149.337
1519.36
166.862
1396.08
187.191
1276.46
208.391
1160.38
229.386
1038.46
244.035
881.698
233.144
646.179
155.265
332.996
71.2384
223.627
1420.59
244.942
2117.43
235.44
2098.37
236.753
1896.75
241.066
1759.19
245.072
1639.4
247.256
1517.11
246.002
1397.39
241.853
1280.56
234.68
1167.59
221.992
1051.12
199.69
904.047
156.542
689.363
78.4905
411.082
149.729
204.827
1215.72
240.621
2081.69
215.777
2123.17
193.497
1919.09
179.256
1773.37
165.89
1652.81
152.106
1530.86
137.958
1411.56
123.06
1295.45
108.834
1181.83
94.618
1065.35
77.2954
921.34
53.1004
713.528
19.5213
444.634
169.25
175.366
1040.31
227.673
2029.49
205.037
2145.69
175.69
1948.53
157.13
1791.83
142.785
1667.25
127.698
1545.87
113.408
1425.94
100.14
1308.67
87.4359
1194.58
75.4064
1077.34
62.0175
934.793
42.773
732.819
16.9495
470.5
186.199
153.248
887.003
222.574
1960.28
209.749
2158.43
181.948
1976.44
163.79
1809.88
150.835
1680.3
137.989
1558.63
124.424
1439.58
111.262
1321.76
98.7149
1207.15
85.3886
1090.64
70.1702
949.972
49.4246
753.525
21.7647
498.122
207.965
130.576
756.399
210.077
1881.09
206.371
2161.96
178.739
2004.36
159.701
1828.74
145.694
1694.59
131.863
1572.3
118.511
1453.15
104.285
1335.89
90.8085
1220.76
77.3194
1104.05
61.9423
965.483
42.0787
773.463
17.5799
522.688
225.546
107.426
649.078
190.968
1798.21
197.347
2155.46
172.572
2029.71
153.873
1847.3
141.853
1707.1
128.559
1585.48
115.498
1466.58
102.01
1349.33
88.0261
1234.94
73.9081
1118.18
58.7818
980.726
39.5207
792.827
16.8094
545.491
242.355
94.6581
554.356
179.807
1714.03
193.889
2140.89
168.845
2055.55
142.854
1872.81
126.32
1724.31
112.152
1599.26
99.0664
1480.16
86.3038
1361.8
75.0571
1246.41
63.1255
1129.93
50.1179
993.804
32.3855
810.545
11.1982
566.703
253.578
92.6129
459.957
225.662
1580.83
267.423
2097.78
261.258
2061.59
255.848
1877.24
254.285
1725.72
247.36
1605.71
234.757
1492.39
216.746
1379.83
195.579
1267.85
170.864
1154.84
142.008
1024.75
105.286
849.85
56.5023
617.961
310.099
137.507
318.989
250.16
1468.65
280.767
2064.96
223.637
2119.4
146.487
1952.66
94.0719
1779.21
66.1804
1632.55
56.7236
1503.63
54.8146
1381.79
56.9367
1266.69
59.4461
1153.41
55.4085
1028.49
38.2708
868.945
13.396
645.045
323.709
-153.501
318.33
920.702
1347.22
1549.68
1616.92
1579.74
1487.03
1351.33
1186.15
1002.55
799.654
580.573
310.677
0.95179
934.859
-932.592
936.408
938.005
938.605
1790.72
-851.553
1791.19
1791.55
1791.83
2476.2
-684.037
2476.59
2476.74
3000.4
-523.378
3000.53
3000.9
3000.95
3356.16
-354.869
3356.27
3356.63
3570.27
-213.565
3570.73
3570.97
3571.35
3624.48
-52.8779
3625
3625.29
3625.69
3554.45
71.7368
3555.09
3555.4
3394.04
161.805
3394.48
3394.99
3395.25
3147.73
247.937
3148.11
3148.51
2847.46
301.246
2848.02
2848.27
2848.69
2502.19
346.616
2502.71
2502.93
2503.32
2150.73
353.12
2151.34
2151.83
1873.12
278.996
1873.78
1874.19
1874.75
1558.04
316.865
1558.99
1559.21
1560.13
1125.97
434.218
1127.02
1126.74
576.223
551.588
576.528
577.46
577.084
-16.7343
595.442
-15.6763
-13.6779
-1016.51
1001.47
-1015.34
-1016.19
-1014.9
-2586.04
1570.09
-2584.78
-2585.56
-2583.74
-4545.43
1960.23
-4543.63
-4546.47
-6773.89
2229.02
-6776.94
-6775.29
-6669.92
-6553.7
-6427.57
-8721.27
2417.54
-8607.46
-8460.59
-8289.36
-8113.11
-7937.8
-7767.34
-7590.91
-7388.88
-9733.44
2546.78
-9520.73
-9312.83
-9106.67
-8879.19
-8648.47
-8416.85
-8184.89
-7951.12
-10292.6
2580.23
-10040.8
-9788.73
-9536.42
-9285.33
-9029.03
-8761.78
-8491.88
-8220.16
-7947.85
-10180.8
2494.71
-9896.57
-9611.26
-9324.32
-9039.61
-8754.94
-8458.14
-8151.57
-7846.65
-9782.36
2227.85
-9487.79
-9186.12
-8872.81
-8558.19
-8244.19
-7929.64
-7615.85
-7284.89
-8746.74
1781.02
-8426.82
-8108.26
-7792.3
-7462.95
-7128.18
-6793.87
-6461.95
-6137.91
-6890.52
1073.23
-6568.46
-6249.11
-5933.78
-5620.93
-5315.67
-5022.74
-4737.65
-4460.62
-4195.29
-3884.01
-42.7445
-3666.09
-3469.87
-3283.56
-3098.73
-2916.92
-2762.36
-2680.23
-2593.91
-1970.06
-524.525
-1886.38
-1798.6
-1797.67
-1492.62
-304.612
-1197.44
-293.357
-1196.12
-937.325
-257.106
-936.078
-709.021
-225.247
-513.302
-193.882
-512.182
-320.888
-188.696
-164.24
-155.066
-161.845
-14.4639
-145.737
-10.2853
114.661
-125.071
250.378
-133.298
249.889
369.206
-117.831
367.941
472.688
-104.217
580.61
-109.617
581.024
677.759
-98.4874
783.361
-104.928
781.594
883.234
-101.574
881.334
977.148
-96.983
1073.37
-98.2634
1072.11
1170.13
-99.6766
1168.7
1262.8
-95.8613
1352.18
-90.6458
1351.09
1441.89
-92.2678
1525.08
-84.0707
1523.92
1607.78
-84.4012
1606.59
1686.27
-80.2517
1751.49
-66.4111
1751.2
1820.16
-69.946
1820.09
1886.63
-67.4127
1938.25
-51.5258
1937.64
1996.1
-58.4302
2038.19
-42.7364
2038.26
2084.67
-46.9226
2084.77
2130.43
-45.9117
2158.58
-28.0047
2158.51
2194.21
-35.5935
2193.99
2230.38
-36.4341
2249.15
-19.1253
2249.12
2279.64
-30.7405
2294.5
-14.9064
2294.45
2317.27
-22.8647
2316.98
2342
-25.0877
2349.69
-8.1714
2349.65
2368.76
-19.4533
2368.83
2392.06
-23.3596
2400.22
-8.03129
2400.14
2423.82
-23.5859
2434.29
-10.6736
2434.33
2457.1
-22.8171
2457.08
-29.0853
-60.5493
561.721
-58.9859
631.402
-54.5341
685.088
-48.6113
740.493
-41.3914
806.528
-33.7944
874.537
-26.7927
941.5
-20.373
962.491
-10.9582
691.101
-23.0643
-852.349
-47.689
-927.268
-67.211
-999.003
-61.3531
-929.333
8.53729
-392.77
56.4422
501.662
63.5025
353.56
46.7299
218.086
52.2913
-209.631
54.6828
77.9479
84.0497
657.247
99.822
618.404
91.1575
433.29
77.8456
430.99
83.5694
740.319
31.0876
461.32
101.72
859.135
98.1829
453.819
90.2339
223.949
69.5605
-79.6883
18.4242
-348.54
-9.84368
-380.526
12.4245
1878.85
25.3423
4141.6
27.9961
3495.27
36.2337
2930.3
41.4455
2271.65
45.1544
1692.75
41.8635
1153.63
5.1643
388.133
-20.9303
765.836
-9.05681
876.105
-4.23257
884.536
-10.0784
671.402
-24.5194
297.172
-24.4615
632.921
-24.9093
-89.2132
-31.9857
-34.926
-74.3898
-713.101
-132.618
-1267.09
-165.681
-1671.48
-151.388
-1734.21
-102.746
-1350.97
-48.3301
-659.309
-33.3669
-35.2035
-46.4927
834.516
-18.0063
2633.13
-11.8099
3758.38
-89.671
-552.617
-134.318
-540.332
-149.292
-385.248
-154.957
-264.859
-155.207
-274.177
-147.79
-225.488
-134.417
34.9971
-114.059
166.867
-89.4917
272.778
-63.0033
335.163
-60.0186
219.367
-84.4983
163.697
-94.8098
500.38
-94.4326
708.873
-83.0471
828.644
-63.0431
822.449
-36.9741
583.492
-11.9207
-69.8751
-4.24824
-632.865
6.40129
-1166.63
18.4477
-1663.93
-2152.24
-59.7187
562.528
-57.8853
629.189
-53.3049
679.752
-47.4254
733.686
-40.6132
798.805
-34.067
867.105
-29.5129
935.789
-25.6272
957.308
-3.49173
666.841
-25.2134
-831.871
-50.0105
-903.288
-68.523
-981.166
-66.1937
-932.615
2.66397
-463.07
70.141
431.458
84.1261
335.513
40.4578
254.021
60.2691
-231.89
49.4875
81.9942
90.7003
613.009
97.6242
608.997
79.6795
448.391
84.5961
424.477
80.2938
743.972
22.3174
518.836
96.5445
784.125
93.5917
456.329
85.7718
231.47
65.2531
-58.141
18.6546
-300.541
-11.1503
-349.448
9.57566
1858.59
23.2306
4128.03
25.6932
3493.35
33.6696
2923.19
38.5361
2268.13
41.5191
1691.91
36.4763
1161.56
2.45178
427.891
-8.0559
780.356
-2.85422
875.522
0.678772
885.249
7.87779
669.211
-18.047
330.654
8.87272
611.209
-16.3476
-42.4428
-15.6578
-32.0392
-56.5596
-670.7
-120.783
-1202.28
-165.585
-1626.34
-158.534
-1740.7
-108.646
-1400.37
-28.319
-739.238
-32.7131
-27.7091
-39.82
842.389
-21.7791
2615.57
0.375475
3736.6
-72.9209
-478.483
-118.405
-494.196
-136.459
-366.68
-142.107
-257.54
-145.028
-267.096
-145.717
-219.501
-127.586
20.7861
-106.734
149.295
-83.199
251.789
-55.4006
309.357
-50.4235
216.413
-82.1515
196.973
-91.4023
510.362
-90.58
708.613
-80.9684
819.616
-62.7401
804.521
-32.2727
553.241
-10.0145
-92.0576
-3.50072
-639.415
6.13144
-1176.24
13.8253
-1671.63
-2160.92
-60.3868
563.377
-58.5222
627.169
-53.9702
674.858
-48.2713
727.564
-41.8253
791.921
-35.8544
860.76
-31.79
931.018
-26.2808
951.106
-4.48018
644.385
-29.8252
-806.231
-53.4054
-879.473
-70.7718
-963.444
-68.863
-934.032
-5.68425
-526.037
70.4462
353.85
90.2311
314.111
58.7842
282.22
60.0945
-233.319
50.2727
87.3132
92.334
569.093
98.7916
601.096
80.3062
464.889
80.193
423.609
78.1712
745.644
28.5523
568.118
89.1851
723.829
90.8826
455.319
83.7178
239.176
62.5533
-37.3701
19.5638
-258.218
-11.2474
-318.728
10.0828
1837.5
23.6211
4114.64
25.0581
3492.28
32.3241
2916.36
36.5616
2264.5
38.74
1690.69
33.6462
1167.74
4.53853
459.157
-1.52135
787.739
-0.39082
876.128
-0.252147
886.517
2.83373
667.867
-21.6568
357.175
8.84707
583.141
-15.1036
-14.3427
-10.4498
-38.1696
-46.4412
-635.455
-109.829
-1138.99
-161.232
-1574.73
-161.002
-1740.97
-112.891
-1448.67
-47.0246
-804.919
-35.5396
-36.9182
-39.1343
846.457
-22.2874
2598.96
2.1305
3712.15
-62.4075
-414.23
-99.9862
-457.652
-115.474
-352.22
-119.81
-255.649
-125.784
-262.325
-127.593
-218.332
-113.737
7.49051
-97.1326
133.661
-77.077
232.528
-52.4877
285.455
-49.0647
213.819
-79.1922
227.364
-89.4144
520.879
-88.6258
708.042
-79.2951
810.558
-60.4043
785.591
-27.0954
519.803
-8.40045
-110.844
-2.08826
-645.772
7.0539
-1185.48
17.0205
-1681.77
-2155.06
-61.0759
564.051
-59.1248
624.832
-54.5454
669.479
-48.9231
720.909
-42.6985
784.595
-37.1687
854.137
-33.6726
926.265
-27.7499
943.815
-3.13223
617.259
-29.7965
-781.188
-54.3426
-855.987
-71.9467
-946.668
-72.1043
-935.059
-14.2794
-585.676
69.4342
266.151
92.9649
285.387
70.7004
295.119
62.8116
-228.855
49.9462
90.6827
91.6404
523.09
100.028
589.081
83.034
477.839
78.2351
425.769
79.9875
742.908
39.0711
608.457
85.8718
676.07
89.9261
451.018
82.3014
246.724
60.1946
-13.9065
19.9415
-216.13
-10.385
-286.635
10.6895
1817.05
24.2977
4101.19
24.9773
3492.32
31.5194
2910.95
35.2429
2262.44
36.8274
1691.58
32.0455
1175.72
5.42307
491.772
1.04341
796.291
-0.790353
882.629
-1.44843
891.398
1.35781
670.087
-21.5206
386.755
8.2564
558.971
-12.0527
24.4649
-4.4818
-41.6068
-36.1311
-601.966
-98.0321
-1076.26
-156.165
-1516.03
-163.896
-1732.45
-118.594
-1493.32
-59.9112
-863.172
-37.0132
-57.1869
-40.0808
850.41
-22.1469
2581.48
2.17439
3688.07
-52.4285
-358.698
-81.7251
-428.064
-94.8298
-338.969
-96.6575
-252.943
-105.316
-250.432
-110.961
-208.023
-101.451
1.44284
-88.9444
123.953
-72.0739
217.799
-50.5504
265.64
-49.9871
214.99
-77.9552
256.349
-88.0147
531.5
-87.0725
707.546
-77.4928
801.475
-57.3887
765.8
-22.6732
485.439
-6.58192
-127.02
-0.381691
-652.066
8.13567
-1194.01
14.8351
-1688.56
-2163.6
-61.9246
564.684
-59.8384
622.664
-55.2137
664.63
-49.6506
715.072
-43.6361
778.29
-38.5468
848.844
-35.6919
922.885
-29.5425
937.202
-2.38204
589.826
-30.7299
-752.47
-54.824
-831.555
-72.6976
-928.373
-75.1379
-932.126
-23.6437
-637.061
68.2243
173.077
95.2361
257.083
80.0304
308.643
68.7477
-217.351
51.1515
103.797
89.8148
482.66
101.149
576.588
85.7488
491.678
77.8685
432.986
82.2802
738.22
49.25
641.145
85.1672
640.586
90.3001
446.57
82.0341
255.549
58.9914
8.96211
20.4164
-178.106
-9.59016
-256.603
11.3297
1796.31
24.9757
4087.69
25.0496
3492.55
30.934
2905.35
34.2618
2259.49
35.3658
1691.03
30.6302
1180.95
5.49951
517.762
2.84003
799.396
1.42813
884.843
0.600082
892.735
0.403688
670.93
-19.6756
407.161
8.1122
532.681
-7.96797
39.9551
0.246119
-51.3371
-26.9716
-575.414
-85.2608
-1018.02
-148.911
-1452.1
-165.644
-1715.69
-124.399
-1534.66
-68.2334
-918.955
-38.1443
-85.5049
-41.1276
853.984
-22.097
2562.65
-0.848835
3666.72
-45.09
-314.977
-64.2192
-410.029
-75.5759
-328.829
-76.5959
-254.336
-87.2829
-241.621
-96.6011
-200.139
-91.5982
-3.84656
-81.9462
114.683
-67.613
203.792
-49.2043
247.563
-51.338
217.596
-77.3485
282.302
-86.9291
541.228
-85.5472
706.288
-75.2959
791.428
-53.7433
744.129
-18.7403
450.22
-4.28259
-141.587
1.66967
-658.089
9.84983
-1202.3
18.7565
-1697.68
-2153.39
-62.9277
565.129
-60.6674
620.052
-55.9735
659.166
-50.4445
708.531
-44.6138
771.34
-39.9539
843.058
-37.6984
919.396
-31.0709
929.243
-2.18122
558.228
-31.3332
-725.188
-54.7436
-809.351
-72.8906
-911.156
-78.1141
-928.287
-35.9005
-681.363
67.9844
61.6258
95.2883
223.835
86.5291
307.812
75.1041
-209.852
54.9084
112.831
87.4443
444.596
101.673
558.059
88.683
500.171
78.9246
439.671
85.2718
730.633
61.0972
664.587
87.1831
613.349
91.7061
441.988
82.3699
265.099
58.3494
34.7729
20.8736
-138.295
-8.84367
-224.472
12.0518
1776.14
25.6937
4074.18
25.1732
3493.73
30.4637
2901.09
33.4772
2257.95
34.1872
1692.49
29.4154
1188.4
5.59425
546.342
4.5798
803.846
3.90064
889.489
3.10732
897.085
0.889569
677.351
-16.5459
429.94
9.58268
512.063
-2.98515
67.4023
4.02723
-53.9405
-19.1491
-550.082
-72.3855
-963.725
-139.995
-1383.68
-166.338
-1688.33
-130.347
-1569.79
-73.6803
-974.919
-39.1355
-117.155
-42.0952
858.158
-22.0406
2543.11
-4.11129
3648.82
-40.263
-277.899
-49.9267
-400.268
-59.4743
-319.372
-60.652
-252.727
-73.8136
-226.282
-85.6954
-184.669
-84.0613
-2.74843
-76.1635
109.117
-63.6432
193.108
-48.2592
233.698
-52.7735
223.641
-77.1005
307.33
-85.9649
550.53
-83.8765
704.582
-72.6314
780.622
-49.6258
721.428
-14.6318
415.688
-1.43871
-154.993
4.05497
-663.747
11.8377
-1210.16
19.1016
-1705.12
-2157.55
-64.0876
565.522
-61.6315
617.592
-56.8429
654.28
-51.3191
702.912
-45.6489
765.584
-41.3932
838.836
-39.6655
917.366
-32.3551
921.712
-1.84367
527.911
-31.3914
-695.1
-54.3612
-785.871
-72.6068
-892.381
-80.4084
-919.937
-54.9334
-706.541
68.8651
-62.8386
92.8144
199.272
90.8552
310.073
80.9869
-199.081
60.2565
130.893
84.8772
418.739
101.604
540.861
91.6795
509.322
80.9998
450.315
88.3693
723.173
71.8516
680.87
90.2861
595.559
93.4175
439.472
83.0954
275.838
58.2884
59.4942
21.527
-102.083
-7.97201
-194.967
12.7582
1755.47
26.4679
4060.58
25.3537
3495.01
30.107
2896.4
32.8756
2255.22
33.2745
1692.16
28.4793
1192.99
5.87114
568.557
6.32241
802.952
6.71303
889.011
6.17366
897.278
2.67666
680.434
-12.6578
444.317
11.3882
488.305
1.69366
73.113
7.36386
-61.3987
-12.6531
-530.724
-59.9539
-916.5
-129.474
-1313.89
-165.656
-1652.11
-136.439
-1599.06
-79.8176
-1031.09
-41.6433
-154.025
-43.1544
860.268
-21.6737
2521.77
-7.43018
3634.48
-39.0608
-247.642
-41.4912
-398.895
-48.6243
-313.59
-50.6117
-252.975
-64.9046
-214.235
-77.611
-174.198
-78.1207
-3.25974
-71.4714
102.374
-60.2827
181.88
-47.8566
221.31
-54.523
230.483
-77.2747
329.852
-85.0996
558.405
-82.0272
701.565
-69.4971
768.243
-45.1413
696.877
-10.3022
380.493
1.82405
-167.209
6.82315
-668.818
14.209
-1217.65
17.6103
-1708.75
-2159.92
-65.3915
565.686
-62.7166
614.625
-57.8115
648.686
-52.2679
696.464
-46.7344
759.034
-42.8633
833.948
-41.5487
914.985
-33.341
912.378
-1.6265
493.495
-31.1027
-667.53
-53.4084
-764.746
-71.2394
-875.45
-80.9456
-911.636
-64.8298
-724.71
49.254
-182.794
86.2537
155.022
92.4055
295.27
84.3767
-194.885
66.3041
138.739
82.3718
396.433
100.837
518.089
94.5176
511.378
83.8452
458.093
91.526
714.169
81.4618
690.134
94.0043
581.83
95.4343
438.197
84.1676
287.566
58.7796
87.0926
22.3781
-62.961
-6.93645
-162.541
13.4471
1735.84
27.2459
4046.87
25.5828
3497.23
29.8597
2892.97
32.4464
2253.82
32.6095
1693.74
27.8008
1199.83
6.27792
593.491
7.88456
803.904
9.6053
890.432
9.86564
899.754
5.62808
687.79
-8.07289
461.927
14.5527
470.407
6.65897
92.0268
10.8538
-61.3897
-7.2572
-510.357
-48.5455
-874.017
-117.679
-1243.74
-163.414
-1605.21
-142.375
-1619.08
-86.1048
-1086.42
-45.3248
-191.555
-44.2812
860.851
-20.8829
2498.97
-14.5966
3628.07
-47.2405
-213.924
-39.7862
-406.213
-44.3467
-309.234
-47.0558
-249.972
-61.1544
-198.57
-73.0316
-159.317
-73.5388
-0.798216
-67.4931
98.2365
-57.3972
173.347
-47.9921
213.232
-56.5957
240.409
-77.7737
351.5
-84.2624
565.226
-79.9421
697.592
-65.8939
754.605
-40.3436
671.614
-5.77024
346.514
5.3335
-178.62
9.94354
-673.66
17.2401
-1225.07
24.1197
-1715.87
-2143.93
-66.8507
565.76
-63.9349
611.778
-58.8877
643.663
-53.2962
690.956
-47.8755
753.739
-44.3436
830.699
-43.3139
913.901
-34.0921
903.221
-1.52188
461.629
-30.39
-637.849
-51.7539
-742.626
-68.7047
-857.795
-79.4323
-900.209
-64.6043
-738.789
30.2713
-275.684
81.2611
105.247
92.782
285.568
86.6362
-187.166
71.1287
154.272
80.1703
387.153
99.2133
499.396
96.7846
513.84
86.9941
468.544
94.5085
706.775
88.5452
696.008
97.0706
574.058
97.2456
438.585
85.4142
299.688
59.6718
112.794
23.362
-27.3018
-5.82816
-133.325
14.1085
1715.83
28.0092
4033.05
25.8696
3499.42
29.7285
2888.99
32.1976
2251.11
32.195
1693.41
27.421
1203.85
6.92309
612.687
9.3716
800.318
12.4531
886.599
13.952
897.27
9.37489
691.17
-2.89496
472.328
17.9103
448.685
11.131
92.4447
14.6367
-67.0272
-2.92291
-493.501
-38.7058
-838.353
-104.991
-1177.17
-159.495
-1550.6
-147.985
-1630.58
-93.2093
-1140.72
-50.0729
-233.774
-45.3909
856.857
-19.445
2473.14
-20.5842
3629.16
-63.9163
-173.216
-43.6229
-427.548
-45.8128
-308.5
-48.4684
-249.354
-60.3454
-189.118
-70.4126
-152.194
-69.7938
-2.85152
-64.0749
92.1091
-55.1741
164.142
-48.8947
206.759
-59.0787
250.549
-78.4958
370.592
-83.3883
570.106
-77.5859
691.807
-61.8386
738.992
-35.2768
644.81
-1.10013
311.87
9.07723
-188.869
13.4461
-678.108
20.5803
-1232.34
25.3295
-1720.88
-2144.21
-68.4471
565.583
-65.2653
608.366
-60.0542
637.847
-54.39
684.507
-49.0549
747.514
-45.8206
826.598
-44.9202
912.159
-34.5677
892
-1.56414
426.03
-29.2584
-612.003
-49.3607
-723.607
-65.3285
-842.658
-76.5446
-890.346
-62.7612
-754.32
17.1636
-358.695
80.0055
33.9294
90.8015
267.265
87.4463
-187.389
74.5708
158.594
78.7675
376.411
96.8565
477.179
98.3774
508.387
90.1968
474.183
97.3853
698.231
94.7084
697.816
100.184
567.442
99.1234
440.038
86.8297
312.726
60.9411
141.371
24.584
12.1352
-4.53176
-100.594
14.7782
1697.26
28.7226
4019.17
26.1905
3502.43
29.6978
2886.2
32.1117
2249.68
32.0259
1694.91
27.2942
1210.12
7.84071
634.578
11.171
798.911
15.6065
884.724
18.5255
896.501
14.1516
697.858
3.23945
486.123
22.5048
433.321
16.4273
106.432
19.0772
-65.6379
0.919411
-473.011
-30.4241
-805.656
-91.9626
-1114.36
-153.85
-1487.36
-152.89
-1630.36
-100.812
-1191.62
-55.6634
-275.432
-46.4313
849.802
-16.9869
2444.42
-14.3741
3626.44
-72.0673
-114.717
-49.8915
-449.485
-50.7469
-307.861
-52.6957
-246.999
-60.9084
-179.49
-68.7716
-141.669
-66.8017
-3.24579
-61.2083
88.1903
-53.7371
158.059
-50.5641
204.774
-61.8407
262.994
-79.2707
388.355
-82.3943
573.499
-74.9101
684.675
-57.3678
721.882
-29.9337
617.665
3.90551
278.794
13.0507
-198.384
17.332
-682.688
24.3547
-1239.56
25.6095
-1722.44
-2141.41
-70.1857
565.291
-66.7176
605.022
-61.3182
632.559
-55.5536
678.96
-50.2747
742.525
-47.2666
824.072
-46.3468
911.371
-34.858
880.772
-1.66265
393.991
-27.684
-584.934
-46.2576
-704.062
-61.1837
-826.861
-72.6405
-878.032
-60.2479
-765.617
5.38647
-421.724
81.6781
-37.9957
91.4875
261.306
91.4056
-185.176
79.4304
172.433
79.1283
377.812
93.7279
463.849
98.9298
503.935
92.8245
481.504
99.6621
691.726
98.9894
698.599
102.269
565.01
100.474
442.278
88.2166
324.97
62.5114
166.94
26.0602
47.7024
-3.07804
-71.7017
15.4161
1678.5
29.3854
4005.23
26.5488
3505.24
29.7695
2882.72
32.1897
2246.82
32.1018
1694.42
27.4254
1213.72
9.00979
651.261
13.2668
793.117
19.0753
877.794
23.5454
890.681
19.6612
700.136
9.92626
493.543
27.0382
414.352
21.6153
104.544
23.7544
-70.2268
4.60622
-454.618
-23.6154
-777.643
-79.1505
-1058.6
-146.545
-1419.85
-156.882
-1620.01
-108.987
-1239.18
-61.6657
-322.337
-47.3425
836.106
-13.6889
2410.88
-6.9154
3619.6
-74.8754
-49.0306
-56.4755
-468.883
-56.1234
-309.623
-57.0922
-247.784
-60.8555
-178.13
-66.6265
-138.998
-64.3841
-7.08652
-59.127
82.3195
-53.3516
151.776
-53.0306
204.068
-64.813
274.568
-80.0032
403.167
-81.2324
574.675
-71.915
675.34
-52.5277
702.604
-24.2514
589.099
9.16552
244.737
17.2131
-206.473
21.5953
-687.13
28.805
-1246.9
32.3704
-1726.28
-2124.45
-72.0468
564.723
-68.2705
601.074
-62.664
626.439
-56.7744
672.422
-51.5179
736.533
-48.6697
820.539
-47.561
909.679
-34.9108
867.577
-1.8857
358.623
-25.7412
-562.712
-42.512
-688.148
-56.2842
-813.751
-67.7437
-867.763
-57.0541
-777.673
-4.03441
-476.643
76.0767
-122.383
95.6609
234.711
95.3504
-188.107
83.1528
176.959
80.9398
374.367
90.7084
450.371
98.7255
492.428
94.9723
483.224
101.683
683.733
102.768
696.664
104.22
562.505
101.714
445.359
89.6384
337.989
64.387
195.225
27.9444
87.2887
-1.31871
-39.0675
16.0192
1661.72
29.9624
3991.34
26.9224
3508.69
29.9315
2880.32
32.4196
2245.14
32.4152
1695.56
27.8315
1219.43
10.3151
670.488
15.4607
789.391
22.7527
872.63
28.9696
886.186
26.0007
704.855
17.6574
504.042
32.8579
402.235
27.8709
115.092
28.9367
-67.4844
8.64391
-431.981
-17.9979
-749.561
-67.1687
-1007.95
-137.795
-1347.68
-159.743
-1596.77
-117.058
-1280.58
-67.6546
-368.439
-48.0226
819.144
-9.7758
2373.46
-1.34847
3611.15
-77.6189
27.4559
-62.5172
-483.772
-61.7299
-310.673
-61.8904
-247.091
-62.2128
-176.46
-65.5332
-133.404
-62.7418
-8.48751
-57.9149
79.0022
-53.9477
149.031
-56.0617
207.225
-67.7823
287.318
-80.5659
416.176
-79.8341
574.157
-68.5991
664.466
-47.3604
681.84
-18.236
560.258
14.6344
212.775
21.5049
-213.778
26.272
-692.258
33.7391
-1254.65
34.3569
-1727.28
-2120.73
-74.0384
563.983
-69.9355
597.139
-64.0991
620.79
-58.0566
666.717
-52.7842
731.7
-49.9945
818.413
-48.545
908.534
-34.8185
854.31
-2.0904
327.553
-23.4501
-539.992
-38.2237
-672.144
-50.5891
-800.31
-62.1608
-855.155
-54.3032
-784.163
-8.06022
-520.018
73.8122
-199.279
106.508
209.211
98.7153
-177.533
84.6488
193.932
83.0298
378.59
87.628
448.124
97.5712
483.882
96.2158
486.282
102.885
677.589
105.077
694.771
104.96
563.451
102.087
448.459
90.842
348.833
66.4358
219.295
30.3799
122.23
0.810831
-10.2692
16.5323
1645.63
30.4437
3977.42
27.3136
3511.73
30.187
2877.1
32.8058
2241.94
32.9623
1694.62
28.5403
1222.56
11.7641
685.269
18.0825
781.247
27.1113
862.256
34.8693
876.874
32.8217
705.106
25.904
508.44
38.7567
386.922
34.0852
112.301
34.2916
-70.3312
13.2022
-411.652
-13.2085
-723.419
-56.4475
-964.503
-127.845
-1276.06
-161.369
-1563.15
-125.344
-1316.36
-73.7329
-420.08
-48.349
794.279
-5.40295
2330.61
4.75878
3600.92
-78.9602
109.379
-67.8017
-495.909
-66.2938
-313.523
-65.734
-249.194
-63.6062
-180.959
-64.8577
-135.111
-61.8729
-13.1325
-57.7213
74.0985
-55.5662
146.218
-59.558
210.693
-70.6807
298.132
-80.9102
425.999
-78.1596
571.33
-65.0128
651.28
-41.9176
658.844
-11.8427
529.856
20.1863
179.914
25.8613
-219.488
31.3763
-697.853
39.3869
-1262.83
41.8478
-1730.06
-2098.56
-76.1457
562.917
-71.6953
592.561
-65.6112
614.267
-59.3903
659.966
-54.0574
725.767
-51.2315
815.068
-49.2703
906.229
-34.5122
839.308
-2.34514
293.378
-20.8935
-522.804
-33.4468
-660.19
-43.8934
-790.34
-55.5274
-844.54
-51.043
-789.714
-9.90083
-562.383
64.429
-275.429
114.464
153.755
99.4663
-165.736
84.6124
201.614
84.9602
374.017
85.3112
444.504
95.9166
470.066
96.889
483.715
103.784
669.461
107.117
690.561
105.555
563.941
102.234
452.43
91.929
360.249
68.5753
245.911
33.7931
160.048
3.44159
24.0583
16.9428
1632.41
30.7886
3963.65
27.697
3515.2
30.5219
2874.81
33.3383
2239.81
33.7366
1695.16
29.5357
1227.59
13.356
702.682
21.1632
774.543
32.2877
853.039
41.4727
869.208
40.4193
707.665
35.0723
515.6
45.9363
378.697
41.2437
121.36
40.1629
-65.3242
18.3369
-387.288
-8.86224
-694.62
-47.1066
-924.497
-117.051
-1204.21
-161.517
-1517.19
-133.437
-1343.01
-80.0144
-470.478
-48.1349
765.612
-0.601109
2284.01
11.6555
3588.74
-79.032
199.933
-72.3321
-502.445
-70.7768
-315.366
-69.7949
-249.538
-66.0201
-183.376
-65.227
-133.73
-61.9192
-15.0462
-58.4907
72.132
-57.9602
146.826
-63.2339
216.944
-73.3144
309.185
-80.9389
433.796
-76.1599
566.738
-61.1658
636.672
-36.2586
634.495
-5.13124
499.074
25.8151
149.984
30.2607
-224.405
36.9632
-705
45.4844
-1271.77
46.1294
-1731.21
-2088.76
-78.3804
561.615
-73.5637
587.939
-67.2082
608.138
-60.7786
653.942
-55.3329
720.845
-52.3393
812.838
-49.7235
903.995
-34.0772
824.215
-2.46068
263.786
-18.0616
-505.648
-28.1513
-648.704
-36.2876
-780.974
-47.7832
-831.897
-46.5447
-789.44
-11.3221
-594.727
49.7774
-331.644
113.173
99.2564
99.3671
-148.454
84.73
220.077
87.381
374.718
83.5581
451.66
93.5348
462.052
96.5677
482.66
103.662
663.031
107.761
686.94
104.699
567.78
101.116
455.974
92.5328
367.879
70.562
267.191
38.7405
190.374
6.44597
53.7337
17.1971
1621.22
30.9849
3949.79
28.0699
3517.98
30.9359
2871.52
34.0191
2236.05
34.7335
1693.57
30.8196
1230.12
15.1916
716.292
24.3056
763.47
37.5714
838.352
48.4137
856.748
48.5653
705.686
44.5713
517.066
53.2304
367.252
48.2329
119.397
46.1192
-66.0369
23.8605
-365.833
-4.60971
-666.533
-39.0991
-889.914
-105.841
-1137.21
-160.101
-1462.81
-141.214
-1361.83
-86.506
-525.53
-47.3702
726.872
4.57677
2232.15
19.422
3573.78
-77.9249
296.006
-76.2832
-504.981
-74.2367
-318.634
-72.9954
-252.121
-68.2081
-190.429
-66.0153
-138.732
-62.7942
-19.9552
-60.2295
68.7242
-61.0324
146.874
-66.9599
222.25
-75.6409
317.492
-80.6328
438.365
-73.8316
559.837
-57.1057
619.876
-30.5289
607.998
1.96442
466.178
31.3328
119.439
34.6431
-227.753
43.1009
-713.514
52.1863
-1281.04
48.8039
-1728.17
-2076.15
-80.7301
559.941
-75.526
582.642
-68.8804
601.124
-62.2134
646.862
-56.5968
714.768
-53.317
809.203
-49.8837
900.435
-33.4359
807.824
-2.56323
231.324
-15.0498
-494.155
-22.4553
-641.588
-28.1347
-775.531
-39.4608
-821.376
-41.6003
-788.076
-12.5348
-624.568
36.6777
-381.508
104.54
28.7103
97.4227
-143.808
84.265
227.859
90.0353
366.328
83.4117
455.722
91.2369
451.301
95.8684
476.894
103.328
654.424
108.313
681.096
103.79
571.148
99.6976
460.609
92.9097
375.687
72.3806
290.833
47.6332
217.952
10.1166
96.7057
17.2646
1614.35
30.9958
3936.14
28.4055
3520.92
31.4138
2868.98
34.84
2233.2
35.9496
1693.2
32.3849
1234.26
17.2645
732.269
27.2723
754.284
42.5157
824.858
55.3264
845.316
57.16
705.216
54.6651
521.162
61.6474
362.568
56.0796
128.643
52.7004
-58.6306
30.0382
-340.491
0.0890109
-634.887
-32.2919
-855.53
-94.7099
-1072.46
-157.054
-1398.72
-148.246
-1369.11
-93.0983
-578.03
-46.0596
683.558
10.1393
2176.92
28.0239
3556.03
-75.8558
399.58
-79.8944
-500.828
-77.6909
-321.166
-76.4844
-252.688
-71.1473
-194.491
-67.756
-140.019
-64.5229
-21.8218
-62.709
68.2973
-64.4581
149.666
-70.4939
229.204
-77.5221
325.455
-79.9246
440.893
-71.1541
551.23
-52.8271
601.957
-24.8071
580.62
9.20222
432.608
36.3423
93.3534
39.0113
-230.888
49.8239
-724.863
59.7534
-1291.54
58.944
-1728.02
-2045.17
-83.2067
557.977
-77.5949
577.246
-70.634
594.427
-63.6947
640.393
-57.8399
709.518
-54.1212
806.339
-49.742
896.511
-32.6568
791.384
-2.44682
203.55
-11.8998
-482.902
-16.8079
-635.11
-20.0692
-770.886
-30.763
-809.443
-35.9553
-781.288
-13.1981
-644.537
28.1731
-418.245
96.3827
-31.0314
94.964
-138.008
81.6207
247.211
91.3616
360.287
83.699
467.67
88.8109
448.84
94.3162
473.624
102.006
647.512
107.778
675.951
102.744
576.868
98.0563
464.86
92.6203
379.453
73.6824
308.711
54.9779
234.076
8.03994
139.109
17.0863
1604.85
30.8104
3922.3
28.6988
3522.83
31.9539
2865.25
35.8004
2228.6
37.3804
1690.65
34.2449
1235.95
19.6206
744.863
30.2172
741.593
47.2216
806.365
62.0596
828.819
65.8194
699.639
64.6523
519.855
69.957
354.39
63.7712
128.537
59.3972
-57.1934
36.5767
-318.454
5.58031
-604.296
-26.2097
-823.68
-84.0165
-1014.25
-152.448
-1330.01
-154.33
-1367.2
-99.4528
-633.359
-44.3098
628.899
16.0853
2116.63
37.3714
3534.64
-72.9241
509.071
-83.4905
-491.049
-80.3723
-325.416
-79.3226
-254.985
-73.8021
-202.257
-69.8434
-146.783
-66.8857
-26.5458
-65.7447
66.2058
-68.065
151.137
-73.7164
234.152
-78.9427
330.268
-78.8362
440.342
-68.1504
540.424
-48.378
582.075
-19.1769
551.461
16.1606
396.748
40.1174
67.4325
43.3424
-234.277
57.2289
-738.84
67.8925
-1302.43
64.3365
-1724.9
-2027.49
-85.7978
555.599
-79.7571
571.135
-72.4614
586.822
-65.2164
632.837
-59.0517
703.015
-54.7628
801.838
-49.2863
891.088
-31.6523
774.057
-2.18565
172.944
-8.68554
-477.017
-11.5724
-632.242
-12.488
-770.003
-21.7752
-800.813
-29.3036
-774.362
-13.5691
-660.853
21.4884
-453.411
87.5106
-97.8297
90.979
-142.638
78.2091
256.489
91.7347
345.265
84.8741
472.704
87.0368
443.999
92.6655
467.211
100.611
638.438
107.471
668.19
103.544
579.487
98.1033
470.489
92.1066
386.038
74.2757
329.441
56.839
254.535
4.63411
196.041
16.753
1593.35
30.4026
3908.77
28.9239
3524.65
32.5418
2862.05
36.8946
2224.74
39.0255
1689.11
36.397
1238.96
22.2652
759.605
33.1484
731.339
51.8103
789.409
68.7803
813.217
74.6002
695.208
74.8434
521.217
78.9696
352.524
72.2509
138.832
66.7746
-47.3569
43.6824
-292.363
11.9077
-570.562
-20.5713
-788.824