/*--------------------------------*- C++ -*----------------------------------*\
| =========                 |                                                 |
| \\      /  F ield         | OpenFOAM: The Open Source CFD Toolbox           |
|  \\    /   O peration     | Version:  4.1                                   |
|   \\  /    A nd           | Web:      www.OpenFOAM.org                      |
|    \\/     M anipulation  |                                                 |
\*---------------------------------------------------------------------------*/
FoamFile
{
    version     2.0;
    format      ascii;
    class       volVectorField;
    location    "25";
    object      U;
}
// * * * * * * * * * * * * * * * * * * * * * * * * * * * * * * * * * * * * * //

dimensions      [0 1 -1 0 0 0 0];

internalField   nonuniform List<vector> 
6785
(
(1.35388e-14 -2.25717 16.4074)
(1.13318e-14 -7.90756 12.8701)
(-3.26834e-15 -5.12565 13.659)
(4.03921e-15 -5.09168 13.1486)
(9.70015e-16 -4.31443 12.9911)
(-1.92932e-16 -3.91039 12.6859)
(2.61656e-15 -3.50993 12.3918)
(6.42797e-16 -3.23732 12.0742)
(-6.49827e-16 -3.05416 11.7557)
(1.83384e-15 -2.97786 11.4178)
(2.98225e-16 -2.95608 11.0654)
(-4.53881e-16 -2.97103 10.6927)
(9.26587e-16 -3.37093 10.0361)
(4.52564e-17 -3.42779 9.0389)
(-3.14032e-16 0.00148928 7.38839)
(1.92624e-14 -10.1438 26.5335)
(1.30739e-14 -16.0825 22.9317)
(-3.01211e-15 -11.0278 23.2801)
(4.15947e-15 -11.784 21.4483)
(8.86021e-16 -10.0473 20.6007)
(9.88437e-16 -9.39983 19.3747)
(1.90867e-15 -8.39573 18.3213)
(9.53261e-17 -7.60188 17.2398)
(-6.8538e-18 -6.80977 16.2145)
(7.61232e-16 -6.14166 15.198)
(-3.307e-16 -5.60581 14.1024)
(-3.25588e-16 -5.16931 12.719)
(1.57222e-16 -4.75619 10.7281)
(-3.66085e-16 -3.86896 7.39142)
(-3.92481e-16 -1.11036 1.92955)
(2.00019e-14 -12.9098 28.1374)
(1.06667e-14 -16.6592 25.1981)
(-1.76917e-15 -12.0402 25.1)
(3.5394e-15 -12.9268 22.7053)
(7.49046e-16 -10.8185 21.7304)
(1.40865e-15 -10.3149 20.1059)
(9.57182e-16 -9.17703 18.8941)
(-9.2603e-17 -8.3837 17.5566)
(3.71914e-16 -7.30037 15.9709)
(3.46613e-16 -5.70684 13.2937)
(2.91921e-16 -3.25367 8.91711)
(3.93151e-16 -0.790545 3.89138)
(-1.14046e-15 0.20775 0.985401)
(-1.80944e-15 0.0537544 0.32785)
(-1.98762e-15 -0.0569283 0.788975)
(2.02554e-14 -14.1034 28.819)
(1.00483e-14 -17.2632 26.1562)
(-1.58609e-15 -13.0148 25.8471)
(3.6174e-15 -14.3022 23.1663)
(8.5487e-16 -11.8927 22.317)
(1.21952e-15 -11.8775 20.4208)
(8.60877e-16 -10.6102 19.2879)
(4.90352e-16 -10.1048 17.8634)
(-8.75703e-17 -9.1046 16.3732)
(3.93099e-16 -7.67319 13.782)
(1.9512e-15 -4.88784 9.20237)
(8.99478e-16 -1.324 3.09737)
(5.66358e-15 1.27071 -0.818299)
(6.61359e-15 3.0498 -3.34893)
(6.1987e-16 2.23202 -4.08902)
(1.9919e-14 -14.1713 27.9148)
(1.2204e-14 -17.8829 27.3036)
(-8.63749e-16 -13.6305 26.004)
(3.73478e-15 -14.773 23.2007)
(1.9955e-15 -12.4775 22.2646)
(1.49748e-15 -12.5023 20.2216)
(1.47871e-15 -11.2874 18.9438)
(1.68073e-15 -10.7896 17.387)
(6.71243e-16 -9.98577 15.9228)
(7.27243e-16 -9.0378 14.0086)
(2.26356e-15 -7.44856 11.2117)
(1.50025e-15 -5.00029 7.40058)
(2.75042e-15 -2.44997 3.50532)
(4.31854e-15 1.33565 -0.751998)
(7.25193e-15 2.11469 -5.99778)
(1.84466e-14 -13.4323 25.5621)
(1.38455e-14 -17.7647 27.636)
(-8.87798e-17 -13.7241 25.3853)
(3.02745e-15 -14.2435 22.4071)
(2.28675e-15 -12.2331 21.2899)
(1.35169e-15 -12.0215 19.2135)
(1.49829e-15 -10.8519 17.7639)
(1.65988e-15 -10.1905 16.0772)
(9.07489e-16 -9.37189 14.5135)
(4.34767e-16 -8.53124 12.849)
(9.97912e-16 -7.54045 10.9149)
(1.25148e-15 -6.05319 8.56345)
(7.74453e-16 -4.34366 5.63785)
(3.01742e-17 -1.45487 2.01015)
(6.48801e-15 0.709227 -3.32925)
(1.83533e-14 -12.5305 23.2868)
(1.53928e-14 -17.2404 27.4663)
(2.00531e-15 -13.7057 24.7984)
(2.32919e-15 -13.5782 21.6754)
(2.68108e-15 -11.8423 20.3835)
(2.56715e-15 -11.4274 18.3943)
(1.84838e-15 -10.3256 16.876)
(1.888e-15 -9.56562 15.2058)
(2.44233e-15 -8.72756 13.6707)
(1.21223e-15 -7.90559 12.1712)
(1.18657e-15 -7.09558 10.6295)
(2.97424e-15 -6.05793 8.9845)
(2.06417e-15 -4.8906 6.91553)
(-1.37511e-15 -2.83355 4.19686)
(7.42774e-15 -0.491449 -0.774416)
(1.77172e-14 -11.8806 21.8919)
(1.65749e-14 -16.5972 26.9115)
(3.58026e-15 -13.5872 24.2809)
(1.86876e-15 -13.0786 21.0639)
(2.76927e-15 -11.5164 19.6334)
(3.19073e-15 -11.0364 17.7655)
(2.30081e-15 -10.0779 16.3282)
(2.15422e-15 -9.39283 14.8245)
(2.68363e-15 -8.6581 13.4128)
(2.20426e-15 -7.93619 12.0366)
(1.62871e-15 -7.24962 10.6962)
(1.97755e-15 -6.49227 9.46471)
(2.24444e-15 -5.71805 8.17785)
(-2.92207e-16 -4.35361 6.58203)
(1.83153e-15 -1.91998 2.20902)
(1.8404e-14 -11.601 21.409)
(1.66217e-14 -15.7533 25.9375)
(2.50417e-15 -13.0209 23.3908)
(2.2326e-15 -12.4188 20.1699)
(2.93941e-15 -10.7753 18.7574)
(1.5859e-15 -10.3433 16.8315)
(2.66438e-15 -9.33061 15.4164)
(2.23374e-15 -8.79054 13.8045)
(-3.03798e-16 -8.17386 12.379)
(1.2089e-15 -7.73653 11.1203)
(1.72731e-15 -7.42784 10.2891)
(-8.7579e-16 -7.28247 10.0191)
(8.95448e-16 -7.10033 10.091)
(3.19104e-16 -6.43719 9.7359)
(-2.70283e-15 -4.10686 6.37368)
(1.76832e-14 -12.2126 22.3583)
(1.29118e-14 -14.7322 24.9084)
(3.15048e-16 -12.3965 22.6233)
(1.09167e-15 -11.7071 20.0199)
(1.7581e-15 -9.96601 18.421)
(-5.31292e-17 -8.87102 15.8757)
(4.53221e-16 -7.14116 13.4061)
(8.81142e-16 -6.01751 10.9288)
(-9.96945e-16 -5.16171 9.27415)
(-7.72487e-16 -5.16447 8.71469)
(-6.01258e-16 -5.93597 9.59948)
(-4.30213e-15 -7.19928 11.3438)
(-3.18885e-15 -8.20226 13.2144)
(-1.08453e-15 -8.60246 13.7617)
(-4.92542e-15 -6.07311 10.6783)
(1.70324e-14 -13.6683 24.7799)
(1.01892e-14 -15.5943 26.3466)
(-2.88986e-15 -12.7457 23.7541)
(9.13979e-16 -12.2601 22.1393)
(6.93794e-16 -10.553 20.6696)
(-1.55937e-15 -8.89671 17.8152)
(7.29007e-16 -6.51965 14.6591)
(2.02802e-15 -4.56932 11.5916)
(1.69621e-15 -2.75681 9.01475)
(3.95105e-15 -1.46121 6.94022)
(4.21344e-15 -1.07069 6.17321)
(1.27449e-15 -2.26147 7.54586)
(-4.52397e-16 -4.85879 10.7683)
(-3.38488e-15 -7.3322 13.3808)
(-4.65441e-15 -5.70947 11.0635)
(1.57728e-14 -13.0727 23.1106)
(1.31319e-14 -18.4446 29.8588)
(3.51997e-16 -15.568 27.0675)
(5.2967e-16 -14.4145 24.5719)
(4.33973e-17 -12.8805 23.2159)
(-1.02957e-16 -11.5587 20.7687)
(7.57567e-16 -9.30898 17.8185)
(1.44711e-15 -7.26694 14.668)
(4.04709e-15 -5.09533 11.7118)
(5.29343e-15 -2.98618 8.64231)
(7.46593e-15 -0.858114 5.56147)
(6.51233e-15 0.854373 2.74707)
(1.98336e-15 1.28466 1.57901)
(8.70913e-16 -0.397029 3.24402)
(-8.49964e-16 -1.74459 4.46247)
(1.21267e-14 -9.19957 15.5099)
(1.66352e-14 -18.2466 28.3039)
(8.70322e-15 -18.6882 29.6233)
(4.21998e-15 -17.3116 27.091)
(1.07145e-15 -15.7374 24.7971)
(7.53277e-16 -14.6141 22.5506)
(1.3401e-15 -13.1831 20.2504)
(-6.04143e-17 -11.6752 17.775)
(1.96222e-15 -9.98761 15.2652)
(2.88033e-15 -8.17999 12.6336)
(3.2906e-15 -6.16902 9.81045)
(5.35188e-15 -3.87991 6.68011)
(3.59605e-15 -1.32261 3.13319)
(1.33805e-15 2.0274 -1.08498)
(2.05753e-15 1.41232 -3.6244)
(7.73612e-15 -2.86569 3.81275)
(1.71945e-14 -14.0438 21.8634)
(1.29212e-14 -17.8414 28.3605)
(5.63127e-15 -16.6504 26.3497)
(1.13271e-15 -14.5978 23.0913)
(5.41574e-16 -13.2778 20.691)
(1.14598e-15 -12.3035 18.9034)
(8.41252e-16 -11.4072 17.2019)
(1.5039e-15 -10.4458 15.4249)
(1.84063e-15 -9.36324 13.5406)
(1.49264e-15 -8.18261 11.5552)
(1.70249e-15 -6.79424 9.49085)
(1.83948e-15 -5.2839 7.10963)
(1.52934e-15 -2.99215 4.3688)
(3.28285e-16 -1.19655 0.581572)
(5.3704e-15 -2.17039 4.75148)
(1.86812e-14 -13.4187 22.1678)
(1.8282e-14 -18.7335 29.6034)
(1.18692e-14 -19.703 29.0708)
(5.25394e-15 -18.4654 25.598)
(1.83009e-15 -16.6731 21.9507)
(3.92994e-16 -15.0402 18.9977)
(-3.12813e-16 -13.6441 16.6368)
(-1.41687e-16 -12.2791 14.6161)
(2.77876e-16 -10.9595 12.9318)
(9.49092e-17 -9.6854 11.362)
(-2.41302e-16 -8.29331 9.75479)
(-4.96981e-16 -6.79256 8.1714)
(-1.12016e-15 -5.11738 6.30416)
(-1.99357e-15 -1.77567 2.36125)
(-1.10132e-17 16.3747 68.4588)
(-5.16908e-16 0.192486 8.36741)
(-5.42841e-16 -0.729832 -3.36842)
(-5.2607e-16 -0.492943 -2.16342)
(-5.30581e-16 -0.335052 -2.63366)
(-7.31927e-16 0.489973 -3.58646)
(-5.46402e-16 0.133981 -2.33718)
(-5.15909e-16 0.440545 -2.2308)
(-6.15718e-16 0.548883 -2.04343)
(7.51289e-17 1.19522 -2.9642)
(4.13745e-16 0.978974 -2.02849)
(5.38846e-16 1.16084 -1.86173)
(4.16772e-16 1.81465 -2.44788)
(3.41001e-16 1.46042 -1.62831)
(3.58495e-16 1.73483 -1.57827)
(3.92737e-16 1.72703 -1.51747)
(2.36768e-16 2.28704 -1.89836)
(3.04173e-16 1.93206 -1.27357)
(3.09817e-16 2.09581 -1.20923)
(2.49635e-16 2.67428 -1.41742)
(2.42436e-16 2.12357 -0.965998)
(2.50651e-16 2.40663 -0.949964)
(2.79233e-16 2.32286 -0.945118)
(3.3015e-16 2.88937 -1.03044)
(3.66217e-16 2.29143 -0.722312)
(4.39365e-16 2.55555 -0.71072)
(3.62004e-16 2.46847 -0.724823)
(4.40301e-16 2.92779 -0.718962)
(4.09889e-16 2.3665 -0.525132)
(3.7539e-16 2.50025 -0.541371)
(4.34777e-16 2.93459 -0.438067)
(3.52686e-16 2.24076 -0.368922)
(3.26595e-16 2.47261 -0.373484)
(2.88395e-16 2.38685 -0.408384)
(3.1031e-16 2.71827 -0.262057)
(2.32294e-16 2.12669 -0.256177)
(2.11777e-16 2.24426 -0.288732)
(2.73675e-16 2.54406 -0.079007)
(2.53113e-16 1.8881 -0.136681)
(2.60563e-16 2.07156 -0.127488)
(2.64326e-16 1.98984 -0.139057)
(4.41179e-16 2.26358 0.117791)
(3.8156e-16 1.7039 0.0525904)
(4.13675e-16 1.85688 0.0796696)
(4.05508e-16 1.76647 0.0793782)
(5.91053e-16 2.0118 0.345855)
(4.45901e-16 1.64014 0.333968)
(3.6988e-16 1.67182 0.324455)
(3.47097e-16 1.87492 0.662266)
(2.05947e-16 1.45262 0.510143)
(2.15525e-16 1.52899 0.534464)
(2.3633e-16 1.43846 0.526781)
(3.26586e-16 1.50198 0.817382)
(2.8008e-16 1.10649 0.50058)
(1.82743e-16 1.13991 0.497659)
(3.44997e-16 1.09022 0.537331)
(4.47094e-16 0.987795 0.350462)
(4.59782e-16 0.6165 -0.241192)
(3.36347e-16 0.578063 -0.0450512)
(1.4676e-16 0.925951 -1.79317)
(-3.13899e-17 -0.114732 -2.41759)
(-1.70418e-17 0.0364812 -2.3686)
(2.6541e-16 0.375495 -2.03402)
(-5.79134e-16 0.36527 -1.01811)
(-1.7672e-15 -0.942715 1.63041)
(-1.6112e-15 -0.591522 1.45998)
(-1.82269e-15 -1.48497 3.79764)
(-1.01202e-15 -2.13257 4.22238)
(-7.83619e-16 -2.41122 4.14729)
(-6.36744e-16 -2.38929 4.27469)
(-3.80806e-16 -3.87673 7.15968)
(-1.14051e-16 -4.21227 6.18756)
(-1.90784e-16 -4.79983 6.38785)
(-2.98966e-16 -4.70153 6.62677)
(-3.97419e-16 -6.96728 10.3963)
(-3.98339e-16 -7.06351 8.38832)
(-6.41241e-16 -7.18129 9.00769)
(-8.80183e-16 -9.81722 13.2679)
(-8.12576e-16 -9.54307 10.3846)
(-1.07263e-15 -10.0088 11.3193)
(-1.49518e-15 -10.7517 13.2707)
(-1.2988e-15 -10.6746 13.1238)
(-1.1853e-15 -10.7713 13.4249)
(6.44658e-17 -12.4474 15.9553)
(-2.92321e-16 -11.4174 14.256)
(1.73705e-16 -11.698 14.6949)
(3.36911e-16 -11.6801 14.6928)
(5.1077e-16 -11.7893 14.6784)
(6.33083e-16 -11.8523 14.6918)
(7.32298e-16 -11.9421 14.7495)
(8.45773e-16 -12.0309 14.9259)
(9.55053e-16 -12.082 15.1951)
(1.70564e-15 -12.8969 16.7509)
(1.25394e-15 -12.4162 15.7392)
(1.43591e-15 -12.5841 16.0046)
(1.58736e-15 -12.5497 16.1408)
(1.77991e-15 -12.7093 16.4732)
(1.85189e-15 -12.6978 16.5177)
(1.94883e-15 -12.7995 16.6286)
(2.0195e-15 -12.855 16.7043)
(2.11205e-15 -12.913 16.7936)
(3.07389e-15 -13.4109 17.9821)
(2.53967e-15 -12.9884 17.1177)
(2.6434e-15 -13.1078 17.289)
(2.70484e-15 -13.1253 17.398)
(2.80998e-15 -13.1943 17.5641)
(2.93047e-15 -13.2293 17.7834)
(3.05539e-15 -13.3162 18.0206)
(3.15405e-15 -13.3333 18.1051)
(3.27568e-15 -13.3955 18.2705)
(3.40405e-15 -13.4933 18.4473)
(4.31638e-15 -13.3708 19.1603)
(3.57459e-15 -13.1798 18.7468)
(3.65813e-15 -13.2486 19.0311)
(3.61935e-15 -13.262 19.1747)
(3.61953e-15 -13.3273 19.3002)
(3.61932e-15 -13.3474 19.3713)
(3.60533e-15 -13.414 19.5412)
(3.6118e-15 -13.3985 19.4961)
(3.61767e-15 -13.5162 19.3588)
(4.29867e-15 -12.5493 18.2418)
(3.50312e-15 -12.6702 18.1923)
(3.61585e-15 -12.6695 18.1618)
(3.75489e-15 -12.6953 18.2839)
(3.9068e-15 -12.6508 18.2038)
(4.10981e-15 -12.6702 18.26)
(4.32072e-15 -12.6603 18.3526)
(4.55834e-15 -12.5914 18.5453)
(4.95873e-15 -12.8172 19.0151)
(5.55037e-15 -10.5976 16.5056)
(5.29443e-15 -11.3041 17.8221)
(5.46116e-15 -11.1802 17.7187)
(5.50697e-15 -11.1575 17.6699)
(5.80086e-15 -11.1179 17.7538)
(5.71635e-15 -11.0488 17.3825)
(5.48052e-15 -10.9259 16.7803)
(5.24738e-15 -10.788 16.0996)
(5.02224e-15 -10.8226 15.3024)
(4.45585e-15 -7.70203 10.3142)
(5.34604e-15 -8.8819 13.3473)
(5.04613e-15 -8.52992 12.2927)
(5.03702e-15 -8.52049 11.9591)
(5.0618e-15 -8.2815 11.5647)
(5.29317e-15 -8.1893 11.3689)
(6.25876e-15 -7.95385 11.2836)
(5.83831e-15 -7.79272 11.0235)
(5.8945e-15 -7.58286 10.7992)
(5.69156e-15 -7.48557 10.3269)
(2.77935e-15 -3.69784 4.43871)
(5.2945e-15 -5.54234 8.65023)
(4.73282e-15 -4.98515 7.19379)
(4.39054e-15 -5.15963 6.63772)
(3.86501e-15 -4.807 5.50125)
(3.17013e-15 -4.74737 4.1213)
(1.762e-15 -4.52584 1.71405)
(4.72721e-16 -4.1534 -0.559489)
(8.33773e-16 -4.15577 -0.57982)
(-2.1707e-16 -3.57143 -2.81012)
(4.3291e-16 -3.49347 -1.05285)
(3.26403e-16 -3.42681 -1.80331)
(-5.34566e-16 -2.67586 -2.50893)
(-1.54391e-16 -3.38549 -2.90838)
(-3.56571e-16 -2.27174 -2.45614)
(-2.69321e-16 -1.93522 -1.76073)
(-3.16743e-16 -1.88623 -2.54476)
(-2.73048e-16 -1.21424 -1.6128)
(-3.95308e-16 -1.11118 -2.46271)
(-2.52065e-16 -0.604591 -1.74171)
(1.26489e-17 -0.381021 -1.28437)
(-4.05432e-17 -0.0363512 -1.93086)
(-3.33674e-17 0.142342 -1.59458)
(-1.2132e-17 0.327141 -0.868868)
(-5.04574e-17 0.668946 -0.96826)
(2.80804e-17 0.650254 -0.610061)
(-2.63838e-16 0.83963 -0.720684)
(-4.61698e-16 1.12835 -0.80175)
(-3.55171e-16 0.972967 -0.550149)
(-7.33892e-16 1.46931 -0.691297)
(-6.68827e-16 1.20821 -0.461105)
(-8.52089e-16 1.46456 -0.523291)
(-9.55224e-16 1.6537 -0.488539)
(-6.47548e-16 1.43172 -0.295177)
(-6.67294e-16 1.73041 -0.324019)
(-9.38003e-16 1.94591 -0.234052)
(-6.9951e-16 1.52592 -0.127533)
(-9.84735e-16 2.18336 -0.128158)
(-7.09641e-16 1.68003 -0.0594218)
(-8.39407e-16 1.91342 -0.0620627)
(-9.36127e-16 2.16538 0.0316638)
(-5.81977e-16 1.67008 0.0362402)
(-7.70354e-16 2.36431 0.0786416)
(-6.44598e-16 1.77566 0.0741438)
(-8.85982e-16 2.04998 0.082529)
(-1.47654e-15 2.17301 0.139173)
(-1.26011e-15 1.76707 0.0728419)
(-1.69229e-15 2.12305 0.050685)
(-2.40019e-15 2.20056 0.0525848)
(-1.71966e-15 1.66897 -0.0335532)
(-2.32475e-15 2.36957 -0.10979)
(-1.61496e-15 1.73931 -0.14523)
(-1.82467e-15 2.02489 -0.231968)
(-1.79347e-15 2.07042 -0.313856)
(-1.05049e-15 1.57902 -0.287259)
(-1.42024e-15 2.26649 -0.445317)
(-1.10387e-15 1.64968 -0.382798)
(-1.38154e-15 1.97174 -0.506571)
(-1.73735e-15 1.92434 -0.605787)
(-1.19918e-15 1.56152 -0.463099)
(-1.43067e-15 1.97799 -0.586532)
(-1.54917e-15 1.91735 -0.665626)
(-9.58861e-16 1.47184 -0.490233)
(-1.11892e-15 2.15207 -0.67601)
(-6.55644e-16 1.59162 -0.520079)
(-6.39673e-16 1.88301 -0.644709)
(-4.80597e-16 1.92312 -0.734693)
(-1.77056e-16 1.50237 -0.5296)
(-9.57839e-17 2.17286 -0.729407)
(-2.9266e-17 1.62535 -0.555738)
(-5.86899e-17 1.94712 -0.68522)
(-3.65799e-16 1.94407 -0.774135)
(-4.54922e-16 1.61216 -0.551665)
(-8.26257e-16 2.02608 -0.674252)
(-1.26072e-15 2.00567 -0.747479)
(-9.63042e-16 1.55908 -0.527997)
(-1.43409e-15 2.24003 -0.708908)
(-1.05765e-15 1.69584 -0.508107)
(-1.25285e-15 1.98041 -0.603251)
(-1.2648e-15 2.02621 -0.64413)
(-6.88829e-16 1.57917 -0.430056)
(-6.14536e-16 2.23558 -0.543098)
(-2.51527e-16 1.71646 -0.360427)
(-1.41499e-16 1.99721 -0.413774)
(-5.11897e-17 2.02748 -0.398561)
(-1.11136e-16 1.71175 -0.237564)
(-3.07699e-16 2.04062 -0.270497)
(-8.03645e-16 2.17365 -0.251296)
(-7.69561e-16 1.72594 -0.146914)
(-1.28945e-15 2.41471 -0.228673)
(-1.06265e-15 1.88614 -0.13389)
(-1.34019e-15 2.22541 -0.209872)
(-1.19418e-18 1.26569 1.94483)
(1.97808e-18 1.50428 1.98072)
(1.64403e-17 1.51658 2.01805)
(5.95648e-17 1.61371 2.10547)
(1.61815e-16 1.64691 2.23968)
(3.62626e-16 1.67877 2.47442)
(6.95684e-16 1.67327 2.8257)
(1.16414e-15 1.64731 3.29882)
(1.72495e-15 1.60601 3.85132)
(2.29556e-15 1.5684 4.4164)
(2.78292e-15 1.54816 4.92422)
(3.11482e-15 1.5536 5.32838)
(3.25743e-15 1.58453 5.61312)
(3.21502e-15 1.63534 5.78688)
(3.01876e-15 1.6978 5.86968)
(2.71324e-15 1.76351 5.88293)
(2.3458e-15 1.82495 5.84424)
(1.95949e-15 1.87608 5.76645)
(1.58854e-15 1.91258 5.65896)
(1.25503e-15 1.93237 5.52965)
(9.65965e-16 1.9359 5.38653)
(7.10487e-16 1.92589 5.23873)
(4.5781e-16 1.90582 5.09675)
(1.57423e-16 1.87733 4.97236)
(-2.55828e-16 1.83777 4.87807)
(-8.52358e-16 1.7803 4.82622)
(-1.70893e-15 1.70138 4.82905)
(-2.91941e-15 1.60322 4.89634)
(-4.43373e-15 1.41462 4.99104)
(-5.47851e-15 0.849441 4.8986)
(-4.84572e-15 -0.20818 4.37719)
(-3.99483e-15 -0.911651 4.07072)
(-3.45681e-15 -1.2629 3.91425)
(-2.97789e-15 -1.53496 3.76738)
(-2.52465e-15 -1.83173 3.62282)
(-2.09432e-15 -2.148 3.48501)
(-1.6822e-15 -2.47356 3.35183)
(-1.28442e-15 -2.8003 3.22195)
(-8.97233e-16 -3.12082 3.09457)
(-5.14973e-16 -3.42816 2.96798)
(-1.30841e-16 -3.71683 2.84026)
(2.58923e-16 -3.98313 2.71185)
(6.57463e-16 -4.22666 2.58339)
(1.0709e-15 -4.44716 2.45336)
(1.50205e-15 -4.6413 2.3197)
(1.94485e-15 -4.80667 2.18264)
(2.38465e-15 -4.94592 2.04373)
(2.80259e-15 -5.06338 1.90287)
(3.17455e-15 -5.15996 1.75878)
(3.47054e-15 -5.23291 1.60999)
(3.65738e-15 -5.2802 1.45681)
(3.70993e-15 -5.29949 1.29852)
(3.61355e-15 -5.29086 1.13651)
(3.37116e-15 -5.25575 0.970853)
(3.00583e-15 -5.18249 0.799448)
(2.55727e-15 -5.06985 0.626428)
(2.06273e-15 -4.92509 0.452636)
(1.5407e-15 -4.71378 0.282364)
(1.01847e-15 -4.29112 0.111353)
(5.38619e-16 -3.73529 -0.0258318)
(2.00207e-16 -3.05241 -0.151248)
(4.02489e-17 -2.24601 -0.233364)
(-1.89305e-18 -1.55139 -0.299157)
(-3.70497e-18 -0.978054 -0.344474)
(-9.76103e-19 -0.524942 -0.381591)
(-7.22332e-21 -0.219435 -0.40851)
(1.51857e-19 0.0862041 -0.451133)
(7.68604e-20 0.227146 -0.439079)
(1.93161e-20 0.231921 -0.407574)
(-5.70776e-22 -0.135802 -0.429127)
(-3.64348e-22 -0.324073 -0.456923)
(2.90612e-23 -0.277281 -0.445827)
(3.4619e-22 -0.25289 -0.472397)
(-2.71241e-21 -0.414653 -0.533676)
(1.18723e-20 1.10267 -0.65554)
(-6.91627e-20 2.63564 -0.174841)
(3.32781e-19 3.69713 -0.346962)
(1.21458e-17 3.44293 0.233586)
(3.31049e-18 -0.645031 -0.50731)
(1.85722e-19 1.25934 2.05392)
(1.48548e-17 1.49269 2.10007)
(5.78548e-17 1.4947 2.15716)
(1.63407e-16 1.57464 2.30863)
(3.77687e-16 1.58158 2.54523)
(7.41089e-16 1.57615 2.9319)
(1.25891e-15 1.53138 3.45342)
(1.87582e-15 1.47467 4.06771)
(2.48606e-15 1.42266 4.68317)
(2.97491e-15 1.39732 5.21478)
(3.26425e-15 1.40712 5.61158)
(3.33125e-15 1.45058 5.86736)
(3.19961e-15 1.5187 6.00425)
(2.91883e-15 1.6009 6.05328)
(2.54609e-15 1.68767 6.04119)
(2.13513e-15 1.77152 5.98617)
(1.73064e-15 1.84655 5.89877)
(1.36542e-15 1.90802 5.78486)
(1.0584e-15 1.95235 5.6487)
(8.12174e-16 1.97755 5.49548)
(6.10148e-16 1.98372 5.33321)
(4.13581e-16 1.97304 5.17368)
(1.60735e-16 1.94847 5.03231)
(-2.28631e-16 1.9113 4.92685)
(-8.39512e-16 1.85885 4.8745)
(-1.7406e-15 1.78456 4.88789)
(-2.97936e-15 1.68552 4.97264)
(-4.60618e-15 1.57191 5.127)
(-6.50691e-15 1.4085 5.30411)
(-7.62567e-15 0.944062 5.24935)
(-6.03812e-15 -0.0736923 4.54276)
(-3.91207e-15 -0.897633 3.96951)
(-3.26093e-15 -1.25165 3.8471)
(-2.86061e-15 -1.52259 3.72293)
(-2.44488e-15 -1.82497 3.58103)
(-2.03018e-15 -2.14547 3.44931)
(-1.6293e-15 -2.47334 3.32341)
(-1.24067e-15 -2.80084 3.2002)
(-8.60212e-16 -3.12061 3.07851)
(-4.82622e-16 -3.42574 2.95644)
(-1.01941e-16 -3.71144 2.83229)
(2.85138e-16 -3.97447 2.70683)
(6.81773e-16 -4.21433 2.58065)
(1.09383e-15 -4.43053 2.45227)
(1.52363e-15 -4.62002 2.31984)
(1.96467e-15 -4.78097 2.18371)
(2.40221e-15 -4.91607 2.04549)
(2.81734e-15 -5.02929 1.90512)
(3.18589e-15 -5.12135 1.76133)
(3.47791e-15 -5.18973 1.61274)
(3.66062e-15 -5.23249 1.45966)
(3.70931e-15 -5.24743 1.30142)
(3.60981e-15 -5.23477 1.13943)
(3.36546e-15 -5.19544 0.973673)
(2.99952e-15 -5.11832 0.802051)
(2.55149e-15 -5.00266 0.628615)
(2.05808e-15 -4.85578 0.454296)
(1.53759e-15 -4.64227 0.282725)
(1.01711e-15 -4.22096 0.109284)
(5.38929e-16 -3.66843 -0.0319478)
(2.01432e-16 -2.99081 -0.16306)
(4.11751e-17 -2.19 -0.252747)
(-1.7937e-18 -1.49924 -0.327592)
(-3.99569e-18 -0.931425 -0.383848)
(-1.19881e-18 -0.484465 -0.432749)
(-7.01225e-20 -0.184287 -0.471096)
(1.65505e-19 0.0914179 -0.541583)
(1.10732e-19 0.223359 -0.513327)
(3.67852e-20 0.227589 -0.441964)
(1.17829e-21 -0.0928275 -0.436198)
(-8.04672e-22 -0.312533 -0.474517)
(-6.38603e-23 -0.278848 -0.461276)
(4.66601e-22 -0.242785 -0.481456)
(-2.97436e-21 -0.408888 -0.545397)
(1.33551e-20 1.04384 -0.718394)
(-7.72695e-20 2.58396 -0.176249)
(4.52299e-19 3.63304 -0.364046)
(1.51536e-17 3.46786 0.286368)
(2.84429e-17 -0.535473 -0.509763)
(6.04993e-18 1.25364 2.11966)
(4.24579e-17 1.48328 2.18604)
(1.27704e-16 1.47161 2.27735)
(3.09313e-16 1.53255 2.50384)
(6.32515e-16 1.51569 2.84174)
(1.11218e-15 1.48639 3.33918)
(1.70618e-15 1.42925 3.93739)
(2.31449e-15 1.37779 4.56045)
(2.82052e-15 1.34753 5.11345)
(3.13908e-15 1.35124 5.54025)
(3.24055e-15 1.38761 5.8278)
(3.14369e-15 1.44972 5.99557)
(2.89496e-15 1.52836 6.0733)
(2.54969e-15 1.61548 6.08761)
(2.16062e-15 1.70445 6.05669)
(1.77232e-15 1.78975 5.99109)
(1.41854e-15 1.86641 5.89619)
(1.12054e-15 1.92983 5.77515)
(8.84911e-16 1.97605 5.63138)
(7.00449e-16 2.00235 5.47083)
(5.34114e-16 2.00794 5.30388)
(3.27941e-16 1.99407 5.14632)
(7.18041e-19 1.96304 5.01867)
(-5.40525e-16 1.91609 4.94299)
(-1.37641e-15 1.85152 4.93711)
(-2.54584e-15 1.76467 5.00799)
(-4.04295e-15 1.65471 5.14903)
(-5.86167e-15 1.53589 5.3446)
(-7.87325e-15 1.39193 5.54865)
(-9.06138e-15 1.00728 5.53155)
(-7.28104e-15 0.0834963 4.79881)
(-4.1408e-15 -0.776316 3.94191)
(-3.06923e-15 -1.20619 3.74439)
(-2.67423e-15 -1.48249 3.65087)
(-2.3274e-15 -1.77994 3.5249)
(-1.94691e-15 -2.10079 3.39992)
(-1.56116e-15 -2.42928 3.28216)
(-1.1836e-15 -2.75736 3.1681)
(-8.12057e-16 -3.07792 3.05477)
(-4.40837e-16 -3.38394 2.93953)
(-6.48006e-17 -3.67077 2.8209)
(3.18705e-16 -3.93525 2.69997)
(7.12795e-16 -4.17659 2.57734)
(1.12299e-15 -4.39401 2.45157)
(1.55094e-15 -4.5846 2.32107)
(1.98964e-15 -4.74686 2.18643)
(2.42423e-15 -4.88338 2.04931)
(2.83574e-15 -4.99781 1.90969)
(3.19995e-15 -5.09076 1.76636)
(3.48698e-15 -5.15986 1.61806)
(3.66454e-15 -5.20324 1.4651)
(3.70844e-15 -5.21883 1.3069)
(3.6051e-15 -5.20688 1.1449)
(3.35834e-15 -5.16799 0.978944)
(2.99169e-15 -5.09145 0.806965)
(2.54432e-15 -4.97678 0.632893)
(2.05231e-15 -4.83123 0.45771)
(1.53375e-15 -4.61889 0.284167)
(1.01545e-15 -4.20201 0.107293)
(5.3937e-16 -3.655 -0.039374)
(2.03014e-16 -2.98367 -0.178153)
(4.23705e-17 -2.18992 -0.278209)
(-1.64438e-18 -1.50311 -0.365522)
(-4.34715e-18 -0.937614 -0.43663)
(-1.47909e-18 -0.491585 -0.500743)
(-1.62667e-19 -0.186254 -0.551792)
(1.59669e-19 0.0836019 -0.622549)
(1.34809e-19 0.209171 -0.592585)
(5.32526e-20 0.208043 -0.513212)
(3.3954e-21 -0.107499 -0.468517)
(-1.29419e-21 -0.31602 -0.499645)
(-2.15e-22 -0.278162 -0.484534)
(6.18582e-22 -0.231491 -0.486174)
(-3.33053e-21 -0.37263 -0.563945)
(1.42093e-20 1.01821 -0.750468)
(-8.37911e-20 2.55437 -0.182062)
(6.71713e-19 3.59794 -0.352275)
(1.99327e-17 3.45302 0.328643)
(3.23989e-17 -0.508336 -0.145703)
(2.16082e-17 1.24327 2.20534)
(9.98137e-17 1.4645 2.31123)
(2.53918e-16 1.43115 2.46227)
(5.42441e-16 1.46447 2.79417)
(9.93122e-16 1.4177 3.25336)
(1.57632e-15 1.36295 3.85476)
(2.19936e-15 1.29618 4.49595)
(2.73816e-15 1.2524 5.08668)
(3.09386e-15 1.24287 5.55159)
(3.2251e-15 1.27226 5.87059)
(3.14607e-15 1.3333 6.0597)
(2.90424e-15 1.41626 6.15141)
(2.55838e-15 1.51154 6.17582)
(2.16484e-15 1.61176 6.15422)
(1.771e-15 1.71122 6.09873)
(1.41291e-15 1.80522 6.01497)
(1.11412e-15 1.88931 5.90505)
(8.8437e-16 1.95906 5.77029)
(7.17015e-16 2.01022 5.61371)
(5.84523e-16 2.0393 5.44256)
(4.33162e-16 2.0444 5.27065)
(1.80668e-16 2.02566 5.11931)
(-2.7607e-16 1.98478 5.0152)
(-1.03716e-15 1.92358 4.98385)
(-2.1623e-15 1.84246 5.03991)
(-3.6384e-15 1.73981 5.17893)
(-5.38972e-15 1.61721 5.37769)
(-7.35083e-15 1.49261 5.60711)
(-9.39774e-15 1.37129 5.82718)
(-1.06322e-14 1.08131 5.84519)
(-8.82287e-15 0.26707 5.12993)
(-4.69403e-15 -0.662211 3.99672)
(-3.02705e-15 -1.17414 3.65259)
(-2.48165e-15 -1.46486 3.55597)
(-2.17176e-15 -1.75776 3.45224)
(-1.84605e-15 -2.0779 3.3406)
(-1.48667e-15 -2.40708 3.23142)
(-1.12128e-15 -2.73533 3.12714)
(-7.58801e-16 -3.05546 3.02412)
(-3.94821e-16 -3.36072 2.91793)
(-2.41941e-17 -3.64692 2.80675)
(3.55261e-16 -3.91101 2.69191)
(7.46472e-16 -4.15197 2.57406)
(1.15451e-15 -4.3688 2.45186)
(1.58032e-15 -4.55878 2.32405)
(2.01636e-15 -4.72067 2.19146)
(2.44767e-15 -4.857 2.05583)
(2.85523e-15 -4.97116 1.91721)
(3.21475e-15 -5.06362 1.77446)
(3.49643e-15 -5.13215 1.6265)
(3.66853e-15 -5.17495 1.47366)
(3.70738e-15 -5.19004 1.31546)
(3.60002e-15 -5.17771 1.15337)
(3.35078e-15 -5.13821 0.987105)
(2.9834e-15 -5.06124 0.81463)
(2.53675e-15 -4.94659 0.639733)
(2.04623e-15 -4.80135 0.463396)
(1.52969e-15 -4.589 0.287448)
(1.01371e-15 -4.1748 0.106545)
(5.39852e-16 -3.63132 -0.0464127)
(2.0472e-16 -2.96416 -0.194187)
(4.36751e-17 -2.17503 -0.30669)
(-1.45147e-18 -1.4904 -0.40914)
(-4.70745e-18 -0.92646 -0.497986)
(-1.78843e-18 -0.481394 -0.579818)
(-2.84881e-19 -0.17288 -0.645496)
(1.35715e-19 0.0905603 -0.720378)
(1.54758e-19 0.207171 -0.688379)
(7.10886e-20 0.201041 -0.600165)
(6.44429e-21 -0.108265 -0.520958)
(-1.81342e-21 -0.316429 -0.535769)
(-4.38686e-22 -0.281487 -0.517556)
(7.50436e-22 -0.223621 -0.495469)
(-3.66595e-21 -0.344542 -0.583561)
(1.5397e-20 0.973817 -0.788322)
(-9.45069e-20 2.50661 -0.195757)
(1.15595e-18 3.54312 -0.327571)
(2.8389e-17 3.42879 0.386538)
(3.12546e-17 -0.435898 -0.106322)
(5.65558e-17 1.22762 2.30701)
(2.06553e-16 1.43487 2.4816)
(4.59228e-16 1.37261 2.72206)
(8.7458e-16 1.37433 3.18069)
(1.43929e-15 1.30186 3.75421)
(2.06788e-15 1.2357 4.41507)
(2.63376e-15 1.17896 5.03441)
(3.02396e-15 1.1609 5.5369)
(3.18515e-15 1.18306 5.88564)
(3.1261e-15 1.24079 6.09614)
(2.89509e-15 1.32258 6.20215)
(2.55402e-15 1.41868 6.2381)
(2.16217e-15 1.52168 6.22796)
(1.76888e-15 1.62667 6.18535)
(1.41139e-15 1.72979 6.11601)
(1.11453e-15 1.82738 6.02129)
(8.90368e-16 1.91531 5.90087)
(7.36565e-16 1.98885 5.75523)
(6.32312e-16 2.04292 5.58813)
(5.31637e-16 2.07267 5.40969)
(3.56616e-16 2.07454 5.23913)
(-1.77757e-18 2.04723 5.10514)
(-6.63939e-16 1.9922 5.04077)
(-1.71898e-15 1.91311 5.07153)
(-3.17623e-15 1.81421 5.20192)
(-4.94504e-15 1.69838 5.4093)
(-6.8739e-15 1.56963 5.65176)
(-8.85051e-15 1.4461 5.89015)
(-1.0786e-14 1.34581 6.09832)
(-1.20052e-14 1.14316 6.1417)
(-1.04148e-14 0.470574 5.50346)
(-5.59385e-15 -0.502969 4.1421)
(-3.17781e-15 -1.12059 3.58945)
(-2.36275e-15 -1.4466 3.45416)
(-2.00086e-15 -1.74058 3.36035)
(-1.71901e-15 -2.05989 3.26794)
(-1.40205e-15 -2.38968 3.17164)
(-1.05581e-15 -2.71877 3.07754)
(-7.02485e-16 -3.03872 2.98581)
(-3.45702e-16 -3.34287 2.89076)
(1.8918e-17 -3.62785 2.7892)
(3.93866e-16 -3.89084 2.68227)
(7.81935e-16 -4.13061 2.57063)
(1.18758e-15 -4.34598 2.45315)
(1.61098e-15 -4.53446 2.32893)
(2.04411e-15 -4.69514 2.19908)
(2.4719e-15 -4.83044 2.06542)
(2.87526e-15 -4.94347 1.9281)
(3.22985e-15 -5.03461 1.78612)
(3.50599e-15 -5.10175 1.63858)
(3.67245e-15 -5.14318 1.48586)
(3.70614e-15 -5.157 1.32762)
(3.59469e-15 -5.14353 1.16535)
(3.34294e-15 -5.10267 0.998639)
(2.97485e-15 -5.02452 0.825502)
(2.52895e-15 -4.90915 0.649571)
(2.03994e-15 -4.76349 0.4718)
(1.52547e-15 -4.55024 0.292994)
(1.01186e-15 -4.13784 0.107411)
(5.40303e-16 -3.59707 -0.052733)
(2.06464e-16 -2.93339 -0.210866)
(4.50475e-17 -2.1482 -0.337871)
(-1.21163e-18 -1.46533 -0.458095)
(-5.06681e-18 -0.903454 -0.567636)
(-2.1294e-18 -0.46122 -0.670035)
(-4.44198e-19 -0.153858 -0.753053)
(8.98344e-20 0.0908115 -0.832749)
(1.6849e-19 0.193095 -0.798226)
(8.99044e-20 0.177323 -0.699922)
(1.05243e-20 -0.113611 -0.589946)
(-2.33871e-21 -0.318015 -0.585041)
(-7.61623e-22 -0.287852 -0.560685)
(8.36962e-22 -0.217542 -0.517583)
(-3.95596e-21 -0.315536 -0.603762)
(1.67745e-20 0.937003 -0.822856)
(-1.10073e-19 2.45711 -0.21598)
(2.08014e-18 3.48728 -0.287456)
(4.24128e-17 3.37225 0.452392)
(2.32399e-17 -0.342477 0.308258)
(1.25932e-16 1.20228 2.44181)
(3.86439e-16 1.38618 2.72409)
(7.61852e-16 1.28918 3.08049)
(1.30028e-15 1.25953 3.66743)
(1.92971e-15 1.17097 4.31841)
(2.52029e-15 1.10819 4.97458)
(2.94767e-15 1.07349 5.51268)
(3.14309e-15 1.08488 5.89669)
(3.10792e-15 1.13466 6.13041)
(2.88998e-15 1.21332 6.25187)
(2.55435e-15 1.3094 6.29839)
(2.16361e-15 1.41518 6.29799)
(1.76945e-15 1.52537 6.26609)
(1.41047e-15 1.63649 6.2093)
(1.11264e-15 1.74549 6.12877)
(8.89812e-16 1.84896 6.02325)
(7.43273e-16 1.94267 5.89131)
(6.58842e-16 2.02134 5.7336)
(6.00291e-16 2.07876 5.55588)
(4.99542e-16 2.10833 5.37285)
(2.49436e-16 2.10441 5.21137)
(-2.86988e-16 2.06436 5.10901)
(-1.23542e-15 1.9905 5.10333)
(-2.64431e-15 1.89038 5.21298)
(-4.43845e-15 1.77403 5.4232)
(-6.43633e-15 1.64912 5.6887)
(-8.42833e-15 1.52053 5.95244)
(-1.02855e-14 1.40323 6.17284)
(-1.19749e-14 1.32185 6.34279)
(-1.30882e-14 1.19539 6.39415)
(-1.18821e-14 0.676133 5.87777)
(-6.87179e-15 -0.306626 4.39928)
(-3.51832e-15 -1.03339 3.55922)
(-2.36258e-15 -1.42002 3.35788)
(-1.86328e-15 -1.7224 3.25603)
(-1.57261e-15 -2.04201 3.17912)
(-1.29862e-15 -2.3712 3.10115)
(-9.84144e-16 -2.70059 3.01987)
(-6.44038e-16 -3.02055 2.93977)
(-2.9416e-16 -3.32372 2.85707)
(6.44158e-17 -3.60743 2.76718)
(4.34419e-16 -3.86926 2.67012)
(8.19042e-16 -4.10784 2.56628)
(1.22206e-15 -4.32184 2.45482)
(1.64283e-15 -4.509 2.33523)
(2.0728e-15 -4.66867 2.20891)
(2.49683e-15 -4.80316 2.0778)
(2.89576e-15 -4.91531 1.94219)
(3.24521e-15 -5.00537 1.80123)
(3.5156e-15 -5.07141 1.65423)
(3.67628e-15 -5.11174 1.50167)
(3.7047e-15 -5.12458 1.34338)
(3.58911e-15 -5.11024 1.18087)
(3.33483e-15 -5.06825 1.0136)
(2.96604e-15 -4.98913 0.839663)
(2.52089e-15 -4.87325 0.662532)
(2.0334e-15 -4.72722 0.48311)
(1.52102e-15 -4.51297 0.301081)
(1.00983e-15 -4.10226 0.110296)
(5.40651e-16 -3.56392 -0.0577322)
(2.0819e-16 -2.90327 -0.227316)
(4.64677e-17 -2.12165 -0.370495)
(-9.20804e-19 -1.44019 -0.510688)
(-5.42197e-18 -0.880257 -0.643385)
(-2.50737e-18 -0.441334 -0.76866)
(-6.4865e-19 -0.136774 -0.870665)
(1.67353e-20 0.091317 -0.952691)
(1.72319e-19 0.182003 -0.917524)
(1.09335e-19 0.154969 -0.812723)
(1.59504e-20 -0.126283 -0.674917)