/*--------------------------------*- C++ -*----------------------------------*\
| =========                 |                                                 |
| \\      /  F ield         | OpenFOAM: The Open Source CFD Toolbox           |
|  \\    /   O peration     | Version:  4.1                                   |
|   \\  /    A nd           | Web:      www.OpenFOAM.org                      |
|    \\/     M anipulation  |                                                 |
\*---------------------------------------------------------------------------*/
FoamFile
{
    version     2.0;
    format      ascii;
    class       volScalarField;
    location    "15";
    object      p;
}
// * * * * * * * * * * * * * * * * * * * * * * * * * * * * * * * * * * * * * //

dimensions      [0 2 -2 0 0 0 0];

internalField   nonuniform List<scalar> 
225
(
523.377
469.98
418.149
369.737
324.846
282.829
243.475
206.471
171.376
138.013
107.071
78.9319
49.903
14.9842
-14.1679
56.9429
34.6819
28.9232
25.213
19.7389
14.0314
8.87855
4.48979
1.00587
-1.45288
-2.64417
-2.14252
-0.0460783
1.82545
2.08563
-45.8395
-52.4825
-46.7156
-42.5687
-39.4781
-35.8827
-31.9964
-28.0591
-24.1547
-20.4388
-17.0933
-14.0262
-10.9494
-8.29655
-7.0623
0.294211
-2.12382
2.46896
2.79312
2.84671
3.0619
2.97278
2.59549
2.01393
1.25476
0.298028
-0.811302
-1.72159
-1.87382
-1.56336
16.7221
14.3893
15.943
13.8451
12.4262
11.1827
9.77274
8.39089
7.13347
6.04242
5.14143
4.42889
3.95131
3.91859
4.16345
7.49395
5.47093
6.44491
5.2256
5.02261
5.00685
4.91908
4.9524
5.108
5.3515
5.6708
6.03367
6.35333
6.61004
6.78477
4.02246
2.86704
3.95263
3.62955
4.01638
4.41051
4.70949
5.06015
5.41671
5.74148
6.03117
6.28507
6.4633
6.54432
6.56003
5.7003
5.14252
5.99686
5.76786
5.96637
6.07886
6.10276
6.14805
6.17263
6.16779
6.14408
6.11627
6.08261
6.03676
5.98827
6.00767
5.68227
6.19307
5.91715
5.95995
5.92911
5.85401
5.8069
5.75125
5.69067
5.63139
5.57826
5.53153
5.48543
5.43421
4.68778
4.48007
4.82569
4.64926
4.72201
4.73095
4.71805
4.72626
4.72366
4.7169
4.7073
4.69257
4.67036
4.63509
4.57737
3.31734
3.20116
3.49884
3.44498
3.56465
3.61139
3.64006
3.67507
3.69174
3.69865
3.69669
3.68419
3.66016
3.62193
3.5564
2.34341
2.28327
2.53763
2.53902
2.65742
2.69885
2.72796
2.75507
2.76263
2.76056
2.74915
2.72825
2.69839
2.65962
2.59498
1.56503
1.53009
1.73248
1.74628
1.84545
1.87183
1.89416
1.91126
1.91157
1.90468
1.89009
1.86781
1.83823
1.80348
1.7456
0.880918
0.868794
1.02965
1.03428
1.11125
1.12482
1.14263
1.15469
1.15411
1.14913
1.1382
1.12114
1.09612
1.06494
1.01072
0.438715
0.399385
0.455178
0.423044
0.459191
0.44051
0.434169
0.420118
0.39922
0.376533
0.349914
0.321222
0.290792
0.26085
0.217841
)
;

boundaryField
{
    inletFace
    {
        type            zeroGradient;
    }
    inlet
    {
        type            zeroGradient;
    }
    inletWalls
    {
        type            zeroGradient;
    }
    outletInlet
    {
        type            fixedValue;
        value           uniform 0;
    }
}


// ************************************************************************* //
