/*--------------------------------*- C++ -*----------------------------------*\
| =========                 |                                                 |
| \\      /  F ield         | OpenFOAM: The Open Source CFD Toolbox           |
|  \\    /   O peration     | Version:  4.1                                   |
|   \\  /    A nd           | Web:      www.OpenFOAM.org                      |
|    \\/     M anipulation  |                                                 |
\*---------------------------------------------------------------------------*/
FoamFile
{
    version     2.0;
    format      ascii;
    class       volVectorField;
    location    "15";
    object      U;
}
// * * * * * * * * * * * * * * * * * * * * * * * * * * * * * * * * * * * * * //

dimensions      [0 1 -1 0 0 0 0];

internalField   nonuniform List<vector> 
225
(
(1.1151e-14 0.852189 15.7946)
(9.23612e-15 -4.89458 12.1215)
(-2.24376e-15 -4.19551 12.1321)
(4.28654e-15 -3.60119 11.9966)
(5.61817e-16 -3.00468 11.8778)
(-1.96076e-16 -2.55319 11.6992)
(1.94065e-15 -2.20881 11.4769)
(2.70384e-16 -1.96603 11.2116)
(-2.50539e-17 -1.79856 10.916)
(1.01922e-15 -1.71239 10.5882)
(1.16345e-16 -1.83746 10.1561)
(-7.73448e-17 -2.28568 9.53761)
(-1.00164e-17 -2.51302 8.96377)
(-9.3309e-17 -1.06554 8.91357)
(6.56573e-18 1.76574 7.47093)
(1.53342e-14 -5.35016 22.493)
(1.56542e-14 -14.6049 21.394)
(3.17748e-16 -13.2708 20.3411)
(4.51465e-15 -11.7697 19.5066)
(1.86422e-15 -11.1561 18.5043)
(-1.86537e-16 -10.6594 17.5174)
(2.08518e-15 -10.0901 16.5714)
(1.01339e-15 -9.525 15.6236)
(5.46554e-18 -8.96544 14.6638)
(1.00861e-15 -8.36731 13.6946)
(4.93081e-16 -7.75709 12.7178)
(-8.01792e-17 -7.30335 11.7194)
(5.04099e-16 -7.01705 10.6244)
(8.25137e-17 -5.73096 9.16114)
(8.95446e-18 -2.30501 4.58322)
(1.78538e-14 -7.71565 23.9801)
(1.26386e-14 -16.7731 24.6729)
(1.63947e-15 -13.7365 23.9372)
(6.0035e-15 -12.3062 22.6249)
(-1.68447e-15 -11.6447 21.2414)
(6.81654e-16 -10.814 20.0013)
(3.09007e-15 -9.94025 18.7738)
(2.48746e-15 -9.10011 17.5247)
(6.36169e-16 -8.28338 16.2654)
(1.48749e-15 -7.47525 15.0263)
(3.38993e-16 -6.66762 13.8176)
(3.48157e-16 -5.84165 12.4301)
(6.99642e-16 -4.81389 10.2752)
(-3.58634e-17 -3.12625 6.68442)
(-3.44155e-17 -0.832127 1.68992)
(1.78634e-14 -8.50259 22.0462)
(1.61353e-14 -16.621 24.332)
(2.42364e-15 -12.93 23.7971)
(5.87247e-15 -12.1536 21.9985)
(1.89067e-15 -11.4201 20.5028)
(1.48306e-15 -10.4936 19.1722)
(2.70918e-15 -9.63388 17.8167)
(4.72247e-16 -8.82359 16.459)
(1.06298e-15 -8.05363 15.123)
(1.24107e-15 -7.32378 13.8165)
(3.23179e-16 -6.55248 12.4394)
(5.43836e-16 -5.49088 10.583)
(5.67135e-16 -3.78525 7.50867)
(-4.66306e-17 -1.49365 2.76602)
(-8.36467e-16 0.153274 -1.77299)
(1.64242e-14 -8.47615 19.748)
(1.45668e-14 -16.3601 24.312)
(3.12589e-15 -13.099 23.6602)
(5.28323e-15 -12.628 21.5365)
(1.69941e-15 -11.8565 20.0248)
(2.44652e-15 -10.9574 18.6637)
(2.37955e-15 -10.1698 17.2587)
(1.45669e-15 -9.40277 15.8711)
(8.26962e-16 -8.65258 14.5236)
(1.08081e-15 -7.9305 13.2135)
(2.66596e-16 -7.16587 11.8292)
(3.40926e-16 -6.11614 9.99626)
(3.94059e-16 -4.42401 7.15553)
(-3.67228e-16 -2.30528 3.28789)
(-7.96913e-16 -0.787202 0.317751)
(1.48608e-14 -8.02193 17.5537)
(1.69143e-14 -16.0195 24.5277)
(4.76913e-15 -13.6434 24.0462)
(4.78585e-15 -12.9943 21.7651)
(2.03479e-15 -12.1264 20.2158)
(9.34227e-16 -11.2247 18.847)
(2.1998e-15 -10.439 17.4341)
(5.19481e-16 -9.64887 16.0434)
(1.42174e-15 -8.86034 14.6933)
(1.71139e-15 -8.09323 13.3817)
(4.54591e-16 -7.29728 12.0171)
(5.29596e-16 -6.28455 10.2818)
(1.37383e-15 -4.73298 7.72085)
(2.70173e-16 -2.75611 4.37243)
(8.34861e-16 -0.949409 1.29738)
(1.32666e-14 -7.33745 15.2535)
(1.73207e-14 -15.4909 24.355)
(6.46706e-15 -14.0225 24.4218)
(4.61254e-15 -13.1278 22.0675)
(2.36869e-15 -12.1447 20.4401)
(1.65128e-15 -11.2358 19.0547)
(2.08661e-15 -10.4361 17.6437)
(8.96869e-16 -9.61984 16.2576)
(9.54055e-16 -8.81016 14.9066)
(9.9262e-16 -8.02723 13.5919)
(7.38681e-16 -7.22394 12.2368)
(9.29923e-16 -6.24025 10.5488)
(3.17925e-16 -4.7875 8.10746)
(6.73725e-17 -2.91412 4.94714)
(2.83169e-15 -1.01091 1.79744)
(1.17543e-14 -6.55628 13.033)
(1.73478e-14 -14.847 23.8163)
(7.88581e-15 -14.2638 24.669)
(5.08003e-15 -13.2372 22.3215)
(2.57787e-15 -12.1674 20.5832)
(1.65489e-15 -11.2657 19.1667)
(1.48688e-15 -10.4651 17.7586)
(1.08827e-15 -9.64316 16.3766)
(8.87866e-16 -8.83496 15.0246)
(1.06404e-15 -8.05532 13.7073)
(8.32143e-16 -7.25503 12.3576)
(8.47932e-16 -6.28693 10.6996)
(3.57825e-16 -4.89105 8.33099)
(1.06498e-16 -3.08526 5.26771)
(7.94729e-16 -1.12223 2.04399)
(9.6491e-15 -5.77842 11.1239)
(1.71096e-14 -14.1745 23.0906)
(8.55766e-15 -14.4412 24.8463)
(4.84838e-15 -13.3963 22.6148)
(2.74672e-15 -12.2528 20.7553)
(1.5324e-15 -11.3493 19.2955)
(2.04197e-15 -10.5477 17.8904)
(1.22061e-15 -9.72544 16.5109)
(6.87675e-16 -8.91944 15.1562)
(1.08712e-15 -8.14024 13.8351)
(8.90401e-16 -7.33997 12.4864)
(1.45887e-15 -6.38018 10.8513)
(4.51252e-16 -5.02354 8.54675)
(1.10664e-16 -3.2658 5.55835)
(-3.30999e-16 -1.23756 2.2477)
(7.50053e-15 -5.08505 9.59943)
(1.66617e-14 -13.5192 22.3001)
(9.94484e-15 -14.5349 24.9522)
(4.64067e-15 -13.5531 22.9352)
(2.88251e-15 -12.3447 20.9698)
(1.56692e-15 -11.425 19.4566)
(2.33621e-15 -10.6174 18.0506)
(1.269e-15 -9.79444 16.6721)
(1.28157e-15 -8.98824 15.3136)
(8.76562e-16 -8.20619 13.9873)
(8.82867e-16 -7.40469 12.6355)
(4.58667e-16 -6.45143 11.0132)
(9.24503e-17 -5.1252 8.75506)
(2.33735e-16 -3.40654 5.81953)
(-5.93942e-16 -1.31909 2.43096)
(6.48612e-15 -4.53879 8.46239)
(1.61676e-14 -12.9256 21.5504)
(1.07557e-14 -14.5349 24.9757)
(5.64331e-15 -13.6653 23.2209)
(3.06081e-15 -12.4128 21.1811)
(1.42729e-15 -11.4735 19.6121)
(1.11679e-15 -10.659 18.2004)
(1.34347e-15 -9.83696 16.8209)
(3.24537e-16 -9.03206 15.4585)
(1.5289e-15 -8.24857 14.1269)
(9.51614e-16 -7.44646 12.7691)
(7.73082e-17 -6.4977 11.1497)
(-2.30395e-17 -5.19258 8.91843)
(-5.33839e-16 -3.50191 6.01059)
(-1.11569e-15 -1.36385 2.54258)
(6.05426e-15 -4.17052 7.70288)
(1.56873e-14 -12.4378 20.9278)
(1.09205e-14 -14.4733 24.9365)
(5.72435e-15 -13.7315 23.4378)
(3.20516e-15 -12.4592 21.3593)
(1.37806e-15 -11.5039 19.7404)
(1.67879e-15 -10.6832 18.3206)
(1.44606e-15 -9.86359 16.9391)
(2.79562e-16 -9.06122 15.5729)
(7.19243e-16 -8.2777 14.2364)
(9.2292e-16 -7.475 12.871)
(-6.16791e-17 -6.52691 11.2466)
(-1.58003e-17 -5.23314 9.02659)
(-8.14138e-16 -3.55807 6.12626)
(-1.13084e-15 -1.37735 2.57269)
(5.52418e-15 -3.97353 7.27991)
(1.51971e-14 -12.0683 20.4614)
(1.12001e-14 -14.3843 24.8626)
(5.80776e-15 -13.7598 23.5827)
(3.29813e-15 -12.4874 21.4969)
(1.43106e-15 -11.5229 19.8405)
(1.61594e-15 -10.6964 18.4119)
(1.56106e-15 -9.87984 17.0278)
(2.86635e-16 -9.08044 15.6583)
(6.9173e-16 -8.29715 14.3169)
(9.33689e-16 -7.49312 12.9421)
(-1.11227e-16 -6.54213 11.3061)
(-5.57512e-17 -5.25093 9.08432)
(-7.49767e-16 -3.57873 6.17534)
(-1.01031e-15 -1.36506 2.53868)
(5.32125e-15 -3.90402 7.11071)
(1.48461e-14 -11.8315 20.1821)
(1.13164e-14 -14.2998 24.79)
(6.07935e-15 -13.7667 23.6685)
(3.3527e-15 -12.5018 21.5897)
(1.48733e-15 -11.5319 19.9095)
(1.60241e-15 -10.7002 18.4745)
(1.55356e-15 -9.8853 17.0882)
(3.12996e-16 -9.08768 15.7171)
(6.98819e-16 -8.3038 14.3727)
(8.84137e-16 -7.49755 12.9904)
(-9.83631e-17 -6.54287 11.3431)
(-6.36381e-17 -5.25312 9.11691)
(-7.53711e-16 -3.5834 6.20123)
(-7.56698e-16 -1.34996 2.50618)
(5.2401e-15 -4.03926 7.28641)
(1.4348e-14 -11.627 19.9521)
(1.12918e-14 -14.1917 24.6679)
(6.18592e-15 -13.7464 23.7082)
(3.37393e-15 -12.5066 21.6737)
(1.56623e-15 -11.5393 19.9773)
(1.5998e-15 -10.6995 18.535)
(1.48112e-15 -9.88699 17.1437)
(3.80669e-16 -9.09053 15.7694)
(6.83761e-16 -8.30494 14.4183)
(7.79836e-16 -7.48987 13.0146)
(-5.72052e-17 -6.51522 11.3279)
(-1.2853e-16 -5.20587 9.06105)
(-6.9753e-16 -3.50159 6.08272)
(-4.3761e-16 -1.25254 2.30733)
)
;

boundaryField
{
    inletFace
    {
        type            zeroGradient;
    }
    inlet
    {
        type            fixedValue;
        value           uniform (0 8.7 15);
    }
    inletWalls
    {
        type            noSlip;
    }
    outletInlet
    {
        type            zeroGradient;
    }
}


// ************************************************************************* //
