/*--------------------------------*- C++ -*----------------------------------*\
| =========                 |                                                 |
| \\      /  F ield         | OpenFOAM: The Open Source CFD Toolbox           |
|  \\    /   O peration     | Version:  4.1                                   |
|   \\  /    A nd           | Web:      www.OpenFOAM.org                      |
|    \\/     M anipulation  |                                                 |
\*---------------------------------------------------------------------------*/
FoamFile
{
    version     2.0;
    format      ascii;
    class       volScalarField;
    location    "14";
    object      epsilon;
}
// * * * * * * * * * * * * * * * * * * * * * * * * * * * * * * * * * * * * * //

dimensions      [0 2 -3 0 0 0 0];

internalField   nonuniform List<scalar> 
6785
(
0.0567065
0.313345
0.307502
0.307469
0.307502
0.307444
0.307483
0.307479
0.307412
0.307445
0.307437
0.307366
0.309221
0.519819
0.0801889
0.0829152
0.00949428
0.000179853
0.000168231
0.000160188
0.000152031
0.000144196
0.000136346
0.000128413
0.000120511
0.000113051
0.000109723
0.00113437
0.0206986
0.0142385
0.113569
0.00377439
1.16212e-06
1.22323e-06
1.7316e-05
4.55606e-05
5.21698e-05
6.25859e-05
6.64319e-05
6.91765e-05
0.000115578
0.000404788
0.00254313
0.00845847
0.00130957
0.153887
0.00433539
7.41837e-06
2.91803e-07
6.19442e-06
2.66656e-05
3.57503e-05
3.89597e-05
4.77151e-05
5.52427e-05
7.97502e-05
0.000215204
0.00107471
0.00307708
0.000514722
0.202296
0.00768939
4.41472e-05
8.81109e-07
4.15612e-06
2.32897e-05
4.11069e-05
5.60194e-05
6.64268e-05
7.32052e-05
9.75792e-05
0.000139832
0.000348021
0.00124492
0.00165767
0.258643
0.00731244
4.22749e-05
1.43647e-06
6.71327e-06
2.28161e-05
7.80577e-05
0.000240071
0.000854523
0.00108793
0.000332034
0.000119556
0.000336894
0.000997129
0.00202355
0.310043
0.0100703
9.32605e-05
1.32264e-08
1.74717e-05
8.48315e-05
0.000344026
0.00105114
0.00229929
0.00264845
0.00107328
0.000583282
0.00124394
0.00111901
0.000863621
0.344996
0.018605
0.000453609
2.09784e-05
2.90041e-05
9.18631e-05
0.000346627
0.000973766
0.00195371
0.00222741
0.00195112
0.00123501
0.000569127
0.000804505
0.000230846
0.359974
0.0402906
0.000921543
1.56716e-05
4.0881e-05
7.6185e-05
0.0002306
0.000612931
0.00122568
0.00147341
0.00164136
0.0017499
0.00208174
0.000460321
0.000202113
0.359844
0.0699736
0.00498696
0.000304191
6.06922e-05
7.5649e-05
0.000167618
0.000356913
0.000760943
0.000972032
0.00100936
0.00106395
0.0015016
0.00247013
0.000159946
0.353386
0.0920524
0.00935295
0.000925131
0.000140411
9.79903e-05
0.000147116
0.000277294
0.000565704
0.000749248
0.000782427
0.000777696
0.00102246
0.00248462
0.000191233
0.347508
0.110051
0.013417
0.00251727
0.000483483
0.000183184
0.000194013
0.000267545
0.000491797
0.000675675
0.000649547
0.000633737
0.000773715
0.0023391
0.000311418
0.35019
0.117561
0.0140608
0.00502
0.000827685
0.000245607
0.000215047
0.000243463
0.000432912
0.00053901
0.000610687
0.000535002
0.000642479
0.00183754
0.000685484
0.33456
0.144913
0.0248573
0.00671249
0.00799732
0.00536331
0.00338962
0.00229685
0.000591759
0.000671114
0.000391716
0.000468081
0.000423686
0.00193945
0.00210052
0.322551
0.873349
0.334277
0.0598586
0.01669
0.00420422
0.00387557
0.00291072
0.00193922
0.00112698
0.00086983
1.57212e-06
1.65459e-07
0.00165335
0.00304591
0.0381912
0.0228445
0.0371766
0.0364805
0.0362306
0.0215064
0.0351974
0.0345673
0.0343355
0.0203988
0.0337025
0.0332518
0.0194978
0.0319613
0.0312904
0.0309215
0.018177
0.0300107
0.0294876
0.0171497
0.0280752
0.0273767
0.0268737
0.0156073
0.0255152
0.024835
0.024312
0.0140679
0.0229544
0.0223314
0.0127906
0.0207706
0.0201571
0.0196441
0.0113271
0.0183464
0.0178176
0.0102557
0.0164592
0.015932
0.0154788
0.00898194
0.0143322
0.0138906
0.0135239
0.00797611
0.0127514
0.0124781
0.00754847
0.0120732
0.0119024
0.0118259
0.00752508
0.0115086
0.0110524
0.0106599
0.00652249
0.00964425
0.00921281
0.00542458
0.00776146
0.00725754
0.00684614
0.00382246
0.00564469
0.00538507
0.00299905
0.00515119
0.00522322
0.00536557
0.00316888
0.00573244
0.00581474
0.00591819
0.00337936
0.00603282
0.00608917
0.00343589
0.00609978
0.00613543
0.0133797
0.0131156
0.01319
0.0131824
0.0153367
0.0157084
0.0156666
0.0161588
0.0163273
0.0167549
0.0171248
0.0176154
0.0200418
0.0226932
0.0239367
0.0240546
0.0248572
0.0252583
0.0258976
0.0264111
0.0271354
0.0313846
0.0348684
0.0363838
0.0370582
0.0387062
0.0400189
0.041873
0.0435882
0.0457989
0.0484324
0.0642491
0.0669632
0.0702396
0.0751736
0.0814912
0.0889607
0.0977658
0.106657
0.116129
0.134667
0.139171
0.149588
0.153391
0.157169
0.153688
0.147947
0.157864
0.158689
0.166239
0.177608
0.184238
0.189918
0.206512
0.204112
0.211185
0.207399
0.217077
0.231396
0.230034
0.241609
0.24256
0.251275
0.258434
0.263814
0.262344
0.261967
0.261271
0.258934
0.258197
0.217557
0.186692
0.152271
0.111715
0.0723464
0.0465606
0.0504382
0.0263116
0.0210409
0.00762797
0.00141387
0.000873914
0.000709815
0.000911667
0.000560279
0.000755797
0.000474272
0.000409227
0.000572982
0.000361123
0.000325572
0.000476523
0.000300192
0.000449876
0.000287233
0.000270554
0.000413388
0.000262537
0.000406233
0.000260829
0.000252642
0.00039678
0.000253229
0.000248025
0.000394127
0.000251987
0.000402715
0.000259759
0.000259191
0.000419094
0.000268331
0.000435192
0.000280875
0.000282367
0.00045988
0.000295107
0.000297103
0.000483792
0.000309401
0.000504366
0.00032495
0.000328029
0.000535177
0.000341506
0.000558029
0.000358654
0.000362304
0.000592214
0.000379965
0.000383997
0.000627673
0.000398292
0.000652469
0.000416893
0.000420714
0.000688313
0.000434514
0.000712593
0.000452996
0.000455863
0.000746657
0.00047235
0.000474467
0.000776766
0.000485913
0.000797393
0.00050275
0.000503338
0.000824426
0.000513092
0.000842322
0.000528818
0.000527766
0.00086507
0.000538494
0.000536491
0.000878905
0.000543886
0.000892904
0.000558094
0.000353742
0.000332408
0.000292197
0.000274723
0.000258607
0.000243067
0.000225922
0.000208274
0.000199214
0.000203154
0.000222172
0.000251559
0.000296776
0.000356847
0.000427677
0.000512813
0.00061406
0.000705969
0.000763562
0.000882756
0.00106586
0.00125913
0.00142342
0.00143059
0.00157855
0.00206375
0.00277046
0.00375407
0.00432799
0.00457012
0.00442681
0.00384703
0.00296276
0.0022311
0.00177934
0.00154882
0.0014331
0.00133569
0.0012977
0.0013759
0.00156322
0.00188933
0.00245245
0.00331973
0.00459397
0.00632563
0.0084413
0.0109396
0.013972
0.0176942
0.02212
0.0272788
0.033201
0.039874
0.047198
0.0549677
0.0628548
0.0704056
0.0770692
0.0823041
0.0853854
0.0865369
0.0857683
0.0826879
0.0786547
0.0747767
0.0719456
0.0697508
0.064723
0.0544587
0.0403441
0.0272936
0.0182479
0.0117681
0.00912407
0.009894
0.00665243
0.00126029
0.000698804
0.000382777
0.000359404
0.000315457
0.000296152
0.000278169
0.000259669
0.000239136
0.000218228
0.00020623
0.000208277
0.000226958
0.000256613
0.000302923
0.000365507
0.000440425
0.000530762
0.000637824
0.000735198
0.000796489
0.00091404
0.00108623
0.00125801
0.00140715
0.00140723
0.00156524
0.00205517
0.00277376
0.00381287
0.00444858
0.00469764
0.00452527
0.0039045
0.00299376
0.00225093
0.00179765
0.00156648
0.00145059
0.00134539
0.00129817
0.0013681
0.00155236
0.0018776
0.00244142
0.00330934
0.00458196
0.00631143
0.00844142
0.0109998
0.0140863
0.017862
0.022352
0.0276028
0.0336485
0.0404825
0.0480098
0.0560264
0.064198
0.0720546
0.0790128
0.0844878
0.0877043
0.0889077
0.088022
0.0846421
0.0802288
0.0759845
0.0728656
0.0704595
0.0651472
0.0546207
0.0404324
0.0273467
0.0183273
0.0117832
0.00892058
0.00910582
0.00607699
0.00121712
0.000703468
0.000411985
0.000385241
0.000336544
0.000314601
0.000295168
0.000275387
0.000253294
0.000229763
0.000214142
0.000213153
0.000231455
0.000262871
0.00031174
0.000377537
0.000456433
0.000552174
0.000666342
0.000769728
0.000832452
0.000947093
0.00110916
0.00127193
0.00140123
0.00139019
0.00154302
0.00203158
0.00276851
0.00390719
0.00455637
0.00479102
0.00460556
0.00395488
0.00303103
0.00228268
0.00183011
0.00159894
0.0014842
0.0013698
0.00131163
0.00137079
0.00155052
0.00187913
0.00244779
0.00332188
0.0046038
0.00635533
0.00854491
0.0112007
0.0143974
0.0182629
0.0228754
0.028293
0.0345538
0.0416556
0.049507
0.0579015
0.0664925
0.0747824
0.0821391
0.0879114
0.0912559
0.0924835
0.0913969
0.0875891
0.082667
0.0779491
0.0744728
0.071807
0.0660825
0.0551237
0.0407335
0.0274841
0.0184199
0.0117672
0.0089766
0.00877705
0.00511686
0.00117203
0.000707174
0.000444276
0.000412892
0.000359239
0.000335058
0.00031455
0.000293412
0.000269444
0.000243503
0.00022394
0.000219383
0.000236409
0.000268778
0.000319961
0.000389049
0.000472241
0.000573811
0.000695536
0.000805549
0.000871015
0.000981015
0.00112904
0.00127302
0.00138817
0.0013676
0.00152058
0.00200742
0.00277595
0.00400423
0.00469911
0.00489488
0.00468921
0.0039971
0.00306216
0.00231382
0.00186483
0.00163434
0.00152127
0.00139911
0.00132948
0.00137634
0.0015502
0.00188131
0.00245686
0.00334129
0.00463927
0.00642446
0.00868968
0.0114552
0.0147661
0.0187486
0.023526
0.0291657
0.0357095
0.0431603
0.0514292
0.060305
0.0694241
0.0782539
0.0860999
0.0922227
0.0957009
0.0969438
0.0956117
0.0913065
0.0857962
0.0805252
0.0766304
0.0736664
0.0674405
0.0558997
0.0411613
0.027686
0.0185028
0.0117449
0.0090096
0.00834481
0.00423653
0.00114621
0.000706489
0.000481151
0.000443707
0.000383422
0.000356061
0.000333916
0.000311546
0.000286206
0.000258222
0.000234766
0.000226395
0.000241996
0.000275187
0.000328709
0.000401055
0.000488381
0.000595881
0.00072586
0.000842822
0.000910751
0.00101728
0.00114988
0.00127355
0.00137569
0.00134689
0.00149799
0.00198253
0.0027933
0.00411283
0.00484981
0.00499046
0.00476336
0.00403029
0.00309055
0.00234773
0.00190446
0.00167464
0.00156239
0.00143329
0.00135172
0.00138651
0.00155432
0.00188714
0.00246999
0.00336682
0.00468667
0.0065176
0.00887318
0.0117563
0.0151895
0.0193222
0.0243027
0.0302076
0.0370852
0.044942
0.0536903
0.0631116
0.0728214
0.082246
0.090617
0.097084
0.100651
0.101864
0.100235
0.0953896
0.0892483
0.0833783
0.0790304
0.0757709
0.0690413
0.0568411
0.0416746
0.0279234
0.0185615
0.0116891
0.00903668
0.00805317
0.0035995
0.00113311
0.000702464
0.000523674
0.000477917
0.000409269
0.000378062
0.000353904
0.000330082
0.000303449
0.000273851
0.000247109
0.000234536
0.000248139
0.000281659
0.000337482
0.000413131
0.000504614
0.000618196
0.000756986
0.00088138
0.000952352
0.00105465
0.00116906
0.00127682
0.00136096
0.00132614
0.0014788
0.0019603
0.00282436
0.0042215
0.00502467
0.00509364
0.00483283
0.00405477
0.0031157
0.00238336
0.00194759
0.00171791
0.00160516
0.00147033
0.0013762
0.00139886
0.00155976
0.00189456
0.00248541
0.00339695
0.00474364
0.00662795
0.00907871
0.0120824
0.0156571
0.0199694
0.0251823
0.0313886
0.0386428
0.0469539
0.056234
0.0662561
0.0766119
0.0866809
0.0956095
0.102404
0.106013
0.107154
0.105202
0.0997935
0.0929784
0.0864476
0.0815931
0.0780469
0.0708585
0.0579664
0.0422779
0.0281922
0.0185979
0.0116153
0.00905141
0.00770443
0.00321545
0.00111818
0.000696858
0.000571579
0.00051749
0.000437485
0.000401298
0.000374448
0.000348876
0.000320993
0.000290086
0.000260654
0.000243856
0.000255383
0.000288809
0.000346764
0.000425614
0.000521088
0.000640737
0.000788915
0.000921166
0.000995536
0.00109394
0.00118849
0.00127436
0.00134616
0.00130804
0.00146399
0.00194264
0.00286397
0.00433645
0.00520186
0.00520748
0.00489966
0.00407372
0.00314065
0.00242269
0.00199577
0.00176514
0.00164987
0.00151021
0.0014029
0.00141395
0.00156804
0.0019044
0.0025037
0.00343195
0.00481033
0.00675567
0.0093079
0.01244
0.016173
0.0206865
0.026158
0.0326963
0.040362
0.0491661
0.0590201
0.0696878
0.0807346
0.0914862
0.100992
0.108073
0.111662
0.112683
0.1104
0.104416
0.0968626
0.089572
0.0841299
0.0803142
0.0727695
0.0591941
0.0429439
0.0284847
0.0186165
0.0115351
0.00904127
0.00744024
0.0029868
0.00112231
0.000697078
0.000620735
0.000564532
0.00046869
0.00042609
0.000395704
0.000367886
0.000338525
0.000306538
0.000275185
0.00025403
0.000263611
0.000296641
0.000356612
0.000438567
0.00053787
0.000663487
0.000821528
0.000962126
0.00104059
0.00113505
0.00120842
0.00127327
0.00133095
0.00129262
0.00145336
0.00193347
0.00291131
0.00445789
0.00537844
0.00534117
0.00497075
0.00409335
0.00316862
0.00246697
0.00204955
0.0018163
0.001696
0.00155229
0.00143083
0.00143055
0.00157783
0.00191602
0.00252449
0.00347163
0.00488642
0.00689883
0.00955517
0.0128205
0.0167277
0.0214637
0.0272176
0.0341153
0.0422243
0.0515573
0.0620253
0.0733829
0.0851663
0.0966378
0.10674
0.114044
0.117558
0.118421
0.115837
0.109264
0.100862
0.0926527
0.0865082
0.0824483
0.0746978
0.0605131
0.0436631
0.0287888
0.0186188
0.0114618
0.00900714
0.00722379
0.00284952
0.00113133
0.000693626
0.000668823
0.000618614
0.000503935
0.000452925
0.00041788
0.000387312
0.00035615
0.000323082
0.000290336
0.00026513
0.000272002
0.00030554
0.000367355
0.000452242
0.000555115
0.000686452
0.000854748
0.0010042
0.00108749
0.00117849
0.00122973
0.00126932
0.00131628
0.0012812
0.00144804
0.00193182
0.00296848
0.00458995
0.00555875
0.00549603
0.0050567
0.00412371
0.00320451
0.00251841
0.00211023
0.00187215
0.00174373
0.00159636
0.00145982
0.00144897
0.00158962
0.00192957
0.00254794
0.00351627
0.00497204
0.00705662
0.00981979
0.0132263
0.0173227
0.0222985
0.0283564
0.0356381
0.0442191
0.0541139
0.0652337
0.0773247
0.0898896
0.102112
0.112812
0.120267
0.123652
0.124341
0.121524
0.114332
0.104903
0.0955521
0.0885636
0.0842928
0.0765242
0.0618632
0.0444084
0.0290936
0.0186054
0.0114173
0.00897928
0.00703733
0.00277097
0.00114112
0.000684094
0.000711486
0.000673034
0.000544784
0.000482493
0.000441189
0.000407257
0.000373861
0.000339552
0.000305763
0.000277775
0.000280575
0.000314275
0.000379231
0.000466882
0.00057301
0.000709684
0.000888523
0.00104744
0.00113642
0.00122464
0.00125325
0.00126698
0.00130296
0.00127497
0.00144754
0.00194013
0.00303769
0.00473598
0.0057455
0.00567584
0.00516839
0.00417744
0.00325418
0.0025793
0.00217884
0.00193322
0.00179306
0.00164184
0.00148955
0.00146828
0.0016028
0.00194501
0.00257432
0.00356636
0.00506738
0.00722781
0.0100996
0.0136542
0.0179521
0.0231851
0.0295677
0.0372572
0.0463379
0.0568271
0.0686377
0.0815084
0.0949016
0.1079
0.119174
0.126709
0.129929
0.130464
0.127514
0.11963
0.108925
0.098151
0.0901657
0.0857194
0.0781374
0.0632161
0.0451594
0.0293883
0.0185812
0.0113903
0.00893151
0.00686755
0.00272687
0.00115403
0.000680145
0.00074288
0.000723886
0.00059405
0.00051592
0.000466008
0.000427946
0.000391859
0.000355998
0.000321308
0.00029151
0.000289835
0.00032274
0.000390331
0.000482804
0.000591795
0.000733274
0.000922862
0.00109203
0.00118757
0.00127406
0.00128039
0.00127172
0.0012918
0.00127488
0.00145291
0.00196034
0.00312112
0.00490087
0.00594384
0.00588404
0.00531759
0.00426721
0.0033244
0.00265223
0.0022564
0.00200014
0.00184419
0.00168824
0.00151988
0.00148832
0.00161743
0.00196246
0.00260402
0.00362241
0.00517235
0.00741107
0.0103935
0.0141041
0.0186157
0.0241215
0.0308485
0.0389682
0.0485754
0.0596916
0.0722332
0.0859324
0.100201
0.113987
0.125779
0.13333
0.136391
0.136836
0.133861
0.125155
0.112853
0.100346
0.0911826
0.0865855
0.0794146
0.0645229
0.0458893
0.0296628
0.0185545
0.0113714
0.0088678
0.0067107
0.0027048
0.00116654
0.000672803
0.000754892
0.000764761
0.000643403
0.000555176
0.000492964
0.0004496
0.000410275
0.000372449
0.000336815
0.000305859
0.00029972
0.000331458
0.000400813
0.000497964
0.000611752
0.000757367
0.000957847
0.00113826
0.00124142
0.00132708
0.0013124
0.0012765
0.0012856
0.00128264
0.00146442
0.00199241
0.00322019
0.00509017
0.00616013
0.00609446
0.00550328
0.00440334
0.00342214
0.00273963
0.00234353
0.00207318
0.00189722
0.00173495
0.00155046
0.00150852
0.00163325
0.00198208
0.00263746
0.00368479
0.00528652
0.00760496
0.0107006
0.0145745
0.0193103
0.0251044
0.032195
0.0407678
0.0509283
0.0627048
0.0760201
0.0906
0.105789
0.120357
0.132572
0.140099
0.143067
0.143531
0.140619
0.130892
0.116633
0.102079
0.0915914
0.0868807
0.0802578
0.065725
0.0465732
0.0299082
0.0185161
0.0113525
0.00878928
0.00656354
0.00269631
0.00117766
0.000660383
0.000754916
0.00078432
0.000688105
0.000601276
0.000523192
0.000472627
0.00042934
0.000389055
0.000352237
0.000320425
0.000310611
0.000340553
0.000410749
0.000512386
0.000632724
0.000782141
0.00099364
0.00118655
0.00129863
0.0013841
0.00135103
0.00128669
0.00128657
0.00129752
0.00148461
0.00203641
0.00333658
0.00530391
0.00639891
0.00630698
0.00569726
0.00456835
0.0035537
0.00284345
0.00244031
0.00215231
0.00195216
0.00178142
0.00158108
0.00152862
0.00165018
0.00200406
0.00267502
0.00375357
0.00540909
0.00780818
0.0110201
0.0150644
0.0200347
0.0261319
0.0336052
0.0426535
0.0533945
0.0658657
0.0800001
0.0955156
0.111666
0.126983
0.13949
0.146995
0.150012
0.150637
0.147822
0.136825
0.120238
0.103344
0.0915661
0.0866354
0.0805974
0.06675
0.0471856
0.0301164
0.0184629
0.0113273
0.00869514
0.0064188
0.00269299
0.00118729
0.000650597
0.000732313
0.000787243
0.000719484
0.000644113
0.000558654
0.000497697
0.000449321
0.000405981
0.000367603
0.00033508
0.000322852
0.000350199
0.000420237
0.000525993
0.00065294
0.000807889
0.0010305
0.00123734
0.00136005
0.00144483
0.00139574
0.00130427
0.00129741
0.00132035
0.00151531
0.00209242
0.00345962
0.00549746
0.00661921
0.00652479
0.00590522
0.00475632
0.00370825
0.00296479
0.0025462
0.00223697
0.00200885
0.00182716
0.00161145
0.00154827
0.00166807
0.00202855
0.0027169
0.00382857
0.00553907
0.00801967
0.0113517
0.0155729
0.020787
0.0272019
0.0350768
0.0446238
0.0559727
0.0691747
0.0841765
0.100685
0.117825
0.133829
0.146476
0.154021
0.157306
0.15824
0.155491
0.142953
0.123675
0.104171
0.0909225
0.0857045
0.0804417
0.0675313
0.0477036
0.0302798
0.018395
0.0112908
0.00858484
0.0062729
0.00269335
0.00119722
0.000636092
0.000696178
0.000764301
0.000730895
0.000679036
0.00060062
0.000525954
0.000470638
0.00042346
0.000382996
0.000349775
0.000336859
0.000360493
0.000429486
0.000538733
0.000672599
0.000835135
0.00106876
0.00129104
0.00142633
0.0015083
0.00144646
0.00133066
0.0013175
0.00135231
0.0015578
0.00216026
0.00358173
0.0056647
0.00681938
0.00675898
0.00614065
0.00497491
0.00388497
0.0031046
0.00266003
0.00232614
0.00206702
0.00187168
0.00164139
0.00156725
0.00168677
0.00205563
0.00276317
0.00390937
0.00567551
0.00823869
0.0116947
0.0160987
0.021566
0.0283128
0.0366084
0.0466775
0.0586624
0.0726328
0.0885535
0.10611
0.124251
0.140843
0.153489
0.161205
0.165043
0.166413
0.163635
0.149298
0.126982
0.104583
0.0897208
0.084126
0.0797347
0.0679933
0.0481069
0.0303911
0.0183122
0.0112383
0.00845758
0.00612522
0.00268957
0.00119713
0.000625313
0.000653449
0.000720563
0.000729006
0.000695202
0.000636574
0.000559282
0.000493939
0.00044178
0.000398563
0.00036446
0.000351547
0.000371433
0.000438703
0.000550679
0.000691563
0.000864474
0.00110886
0.00134794
0.00149404
0.00157341
0.00150259
0.0013662
0.00134867
0.00139436
0.001613
0.00223951
0.00369852
0.00580183
0.0070006
0.00702387
0.00641943
0.00523674
0.00408784
0.0032628
0.00278006
0.00241828
0.00212627
0.00191445
0.00167074
0.00158539
0.00170612
0.00208525
0.00281374
0.00399552
0.00581763
0.00846476
0.0120485
0.016641
0.0223703
0.0294633
0.0381985
0.0488134
0.0614634
0.0762416
0.0931358
0.111793
0.130916
0.147962
0.160536
0.1686
0.173315
0.175208
0.172268
0.155908
0.130212
0.104712
0.088019
0.0819307
0.0784924
0.0680687
0.0483831
0.0304428
0.0182152
0.0111651
0.00831253
0.00597341
0.00268344
0.00120071
0.000613083
0.000609737
0.000667329
0.000699567
0.00069824
0.0006607
0.000597066
0.000520264
0.00046133
0.0004145
0.000379165
0.000366489
0.000383012
0.00044815
0.00056195
0.000709775
0.000896664
0.00115127
0.00140829
0.0015639
0.00163958
0.00156318
0.00141101
0.00139166
0.00144747
0.00168162
0.00232999
0.00380754
0.00591063
0.00716827
0.0073227
0.00675658
0.00555547
0.00432293
0.00343752
0.00290404
0.00251141
0.00218598
0.0019549
0.00169937
0.0016026
0.0017259
0.00211727
0.00286842
0.0040866
0.00596491
0.00869754
0.0124126
0.0171988
0.023199
0.030652
0.0398459
0.0510305
0.0643756
0.080003
0.0979271
0.117727
0.137777
0.155117
0.167628
0.176334
0.182203
0.184654
0.181419
0.162851
0.133421
0.104669
0.0858681
0.0791587
0.0767309
0.0677176
0.0485348
0.0304253
0.0180904
0.0110677
0.00814919
0.00581567
0.00267274
0.00120324
0.00059448
0.000569881
0.000613843
0.000657634
0.000683096
0.000668881
0.000627499
0.000551127
0.000482634
0.000431051
0.000393948
0.000381536
0.000395282
0.000458052
0.000572708
0.000727188
0.000928641
0.00119649
0.00147233
0.0016366
0.00170672
0.00162729
0.00146479
0.00144638
0.00151259
0.00176458
0.00243213
0.00390858
0.00599771
0.00732645
0.0076206
0.00713578
0.00592011
0.00459362
0.00362445
0.00302929
0.00260318
0.00224525
0.00199245
0.00172705
0.00161879
0.00174592
0.00215149
0.00292699
0.00418226
0.00611705
0.0089368
0.0127863
0.0177711
0.0240507
0.0318772
0.041549
0.0533274
0.0673988
0.0839191
0.10293
0.123897
0.144773
0.162238
0.1748
0.184561
0.191781
0.194773
0.191136
0.170207
0.136664
0.104343
0.0833173
0.0758616
0.074469
0.066902
0.0485265
0.0303533
0.0179277
0.0109418
0.00796739
0.00565141
0.0026549
0.00119402
0.000582131
0.000537083
0.000567251
0.000610919
0.000651298
0.000668438
0.000645996
0.000585601
0.0005064
0.000448536
0.000408921
0.000396606
0.0004083
0.000468619
0.000583146
0.000743843
0.000960391
0.00124539
0.00154028
0.00171319
0.00177543
0.00169442
0.00152702
0.00151219
0.00159059
0.00186313
0.00254699
0.00400362
0.00607181
0.00748337
0.00791113
0.00750999
0.0062963
0.00487911
0.003817
0.00315286
0.00269107
0.00230287
0.00202658
0.00175333
0.00163393
0.00176599
0.00218763
0.00298918
0.00428229
0.00627386
0.00918223
0.0131687
0.0183568
0.0249241
0.0331373
0.0433058
0.0557021
0.0705328
0.0879915
0.108144
0.130277
0.151831
0.169278
0.182132
0.193418
0.202096
0.205584
0.201486
0.178062
0.139998
0.103812
0.0804246
0.072106
0.0717314
0.065629
0.048352
0.0301848
0.0177187
0.0107836
0.00776664
0.00547456
0.00263616
0.00119393
0.000565939
0.000512887
0.000531402
0.000566828
0.000612372
0.000651222
0.000652187
0.000613473
0.000533621
0.000467367
0.000424238
0.000411671
0.000422103
0.000480026
0.000593467
0.000759879
0.00099184
0.00129903
0.00161239
0.00179485
0.00184681
0.00176469
0.00159722
0.00158821
0.00168212
0.00197845
0.00267619
0.00409645
0.00614298
0.00764883
0.00819818
0.00786638
0.00666311
0.00516288
0.00400797
0.00327172
0.00277267
0.00235736
0.00205681
0.00177752
0.00164794
0.00178596
0.00222545
0.00305476
0.00438651
0.00643524
0.00943347
0.0135591
0.0189548
0.0258177
0.0344303
0.0451141
0.0581532
0.0737767
0.0922212
0.113563
0.136826
0.15887
0.176222
0.189741
0.203009
0.213182
0.217115
0.212551
0.186513
0.143491
0.103148
0.0772544
0.0679757
0.0685547
0.0639017
0.0479225
0.0299162
0.0174583
0.0105902
0.0075465
0.00528622
0.00261689
0.00118587
0.000551139
0.000497615
0.000507631
0.000531062
0.00057269
0.000621995
0.000651933
0.000632628
0.000565386
0.000488092
0.000440108
0.000426746
0.0004367
0.000492347
0.000603873
0.000775537
0.00102291
0.00135869
0.00168894
0.00188286
0.00192223
0.00183883
0.00167523
0.00167363
0.00178722
0.00211147
0.00282186
0.00419198
0.00621931
0.00783256
0.00849417
0.00820849
0.00701085
0.00543288
0.00419052
0.00338286
0.00284583
0.00240705
0.00208269
0.00179887
0.00166077
0.00180571
0.00226474
0.00312349
0.00449474
0.006601
0.00969003
0.0139566
0.0195639
0.0267301
0.0357546
0.0469721
0.0606791
0.0771294
0.096608
0.119176
0.143489
0.165813
0.183097
0.197755
0.213397
0.22506
0.229409
0.224421
0.195665
0.147217
0.10242
0.0738748
0.0635485
0.0649763
0.061773
0.0472369
0.0295545
0.0171454
0.0103601
0.00730635
0.00508938
0.00259573
0.00118223
0.00053921
0.000490465
0.00049546
0.000506927
0.00053801
0.000588613
0.000639301
0.000639164
0.000592363
0.000511341
0.000456802
0.000441904
0.000452055
0.000505581
0.000614565
0.00079114
0.00105362
0.00141912
0.00177008
0.00197848
0.00200313
0.00191794
0.00176158
0.00176864
0.00190511
0.00226313
0.00298491
0.00429713
0.00630408
0.00804272
0.00881561
0.00855095
0.00734137
0.00568305
0.00435908
0.00348353
0.00290882
0.00245028
0.00210367
0.00181669
0.00167243
0.00182519
0.00230536
0.00319516
0.00460679
0.0067709
0.00995128
0.0143601
0.0201827
0.0276596
0.0371082
0.0488777
0.0632774
0.0805881
0.101149
0.124961
0.150198
0.172599
0.189976
0.2063
0.224605
0.237757
0.24252
0.237195
0.205637
0.151266
0.101693
0.0703584
0.0589255
0.0610554
0.0593279
0.0463218
0.0290989
0.0167885
0.0100932
0.0070484
0.00488636
0.00257077
0.0011748
0.00053001
0.000488265
0.000491079
0.000494791
0.000513039
0.000556464
0.000614534
0.000640524
0.000611976
0.000538531
0.000474696
0.000457247
0.000468078
0.000519634
0.000625763
0.000807093
0.00108419
0.00148065
0.00185669
0.00208286
0.00209085
0.00200326
0.0018568
0.00187278
0.00203509
0.00243506
0.00316592
0.00441878
0.00640071
0.00828446
0.00917823
0.00891328
0.00766488
0.00591355
0.0045102
0.00357134
0.00296037
0.0024855
0.00211923
0.00183037
0.00168304
0.00184444
0.00234727
0.00326958
0.00472238
0.00694454
0.0102165
0.0147685
0.0208097
0.0286043
0.0384891
0.050828
0.065944
0.0841498
0.10584
0.130886
0.156875
0.179195
0.196959
0.215476
0.236625
0.2513
0.256519
0.250974
0.216565
0.155736
0.101028
0.066785
0.0542369
0.0568919
0.0566751
0.0451866
0.0285513
0.0163862
0.00979033
0.00677489
0.0046794
0.00254173
0.001165
0.000518346
0.000489333
0.00049101
0.000490838
0.000499305
0.000529834
0.000585345
0.000635442
0.000620855
0.000564985
0.000494143
0.000472927
0.00048462
0.000534257
0.000637722
0.000823867
0.00111496
0.00154334
0.00194985
0.00219103
0.00218663
0.00209602
0.0019618
0.00198617
0.00217712
0.00262675
0.00336897
0.00456265
0.0065124
0.0085567
0.00959512
0.00931171
0.00799534
0.00612864
0.00464253
0.00364443
0.00299961
0.00251145
0.00212872
0.00183934
0.00169272
0.00186358
0.00239047
0.00334658
0.00484115
0.00712143
0.0104848
0.0151805
0.0214433
0.0295623
0.0398949
0.0528198
0.0686744
0.0878105
0.110668
0.136906
0.163442
0.1856
0.204167
0.22535
0.249427
0.265728
0.271482
0.265861
0.228598
0.160732
0.100509
0.0632435
0.0496405
0.0526189
0.0539767
0.0438483
0.0279186
0.015937
0.00945386
0.00648835
0.00447054
0.00250792
0.00115322
0.000510772
0.000494627
0.000495586
0.000492049
0.000494346
0.000511894
0.000557473
0.000618252
0.000623576
0.000585227
0.000515934
0.000489164
0.000501501
0.000549194
0.000650593
0.000841959
0.00114646
0.00160715
0.0020511
0.00230318
0.0022923
0.00219747
0.00207768
0.00210904
0.00233188
0.00283903
0.00359511
0.00473356
0.00664332
0.00885625
0.0100698
0.009759
0.00834308
0.00633306
0.00475612
0.00370148
0.00302573
0.00252678
0.0021322
0.00184329
0.00170155
0.00188289
0.00243503
0.00342599
0.00496264
0.0073009
0.0107552
0.015595
0.022082
0.0305316
0.0413229
0.0548494
0.0714645
0.0915655
0.115617
0.142964
0.169825
0.191853
0.21172
0.235946
0.262971
0.281083
0.287493
0.28196
0.241904
0.166371
0.100167
0.0598324
0.0453137
0.0484744
0.0512817
0.042485
0.0272122
0.0154402
0.00909213
0.0061917
0.00426167
0.00246919
0.00114083
0.000505562
0.000501826
0.000502619
0.000498984
0.000493886
0.000502364
0.000534994
0.00059521
0.000623472
0.000598818
0.000538962
0.00050618
0.000518381
0.000564128
0.000664544
0.000861882
0.00117932
0.00167215
0.00216259
0.00241915
0.00241091
0.00230896
0.00220555
0.00224156
0.00250054
0.00307353
0.00384579
0.00493569
0.00679915
0.00918237
0.0105698
0.0102643
0.00871183
0.00652898
0.00485141
0.00374157
0.00303779
0.00253219
0.00213024
0.00184233
0.00170952
0.00190276
0.00248108
0.00350761
0.0050863
0.00748217
0.0110267
0.0160105
0.0227237
0.0315098
0.0427702
0.056913
0.0743097
0.0954074
0.120661
0.148994
0.175973
0.198025
0.219722
0.247256
0.277218
0.297414
0.304635
0.299377
0.256667
0.172779
0.100059
0.0566612
0.0414361
0.0447253
0.0486966
0.0411232
0.026436
0.0148974
0.00872952
0.00588758
0.00405461
0.00242634
0.0011267
0.000495858
0.000509954
0.00051063
0.000507139
0.000498742
0.000499996
0.000520412
0.000569573
0.000617526
0.000602693
0.000558108
0.000524318
0.000534737
0.000578737
0.000679776
0.000884176
0.00121427
0.00173844
0.00228042
0.0025379
0.00254043
0.00243148
0.00234132
0.00238352
0.00268486
0.00333225
0.004124
0.0051726
0.00698692
0.00953853
0.011104
0.0108359
0.00909775
0.00671469
0.00492822
0.00376267
0.0030396
0.0025291
0.00212096
0.00183589
0.00171644
0.00192366
0.00252879
0.0035912
0.00521147
0.00766437
0.0112981
0.0164255
0.0233666
0.0324945
0.0442335
0.0590066
0.0772052
0.0993261
0.125768
0.154926
0.18186
0.204212
0.228251
0.259243
0.292131
0.314763
0.322991
0.318216
0.273086
0.179215
0.100021
0.0538305
0.0381636
0.0416907
0.0464346
0.0397853
0.0255884
0.0143097
0.00836132
0.00557711
0.00385159
0.0023797
0.0011117
0.000490834
0.000518415
0.000518916
0.00051546
0.000508026
0.000500343
0.000511282
0.000547188
0.000603515
0.000603578
0.000573123
0.000540516
0.00054962
0.00059279
0.000696375
0.000909545
0.00125212
0.00180625
0.00240402
0.00265976
0.00267125
0.00256128
0.00248213
0.00253505
0.00288709
0.00361732
0.00443364
0.00544725
0.00721418
0.00993124
0.0116847
0.0114268
0.00949227
0.00688534
0.0049855
0.0037688
0.00302974
0.0025142
0.00210446
0.0018243
0.00172212
0.00194608
0.00257839
0.00367647
0.00533744
0.00784652
0.0115681
0.0168384
0.0240087
0.0334829
0.0457096
0.0611259
0.0801454
0.10331
0.1309
0.1607
0.187503
0.210523
0.237353
0.271856
0.30768
0.333168
0.342644
0.338586
0.2904
0.185544
0.0996445
0.0514316
0.0356016
0.0395967
0.0447458
0.0384653
0.0246617
0.0136781
0.00798684
0.00528448
0.003654
0.00233014
0.00109619
0.000484217
0.00052681
0.000527108
0.000523668
0.000517417
0.000505367
0.000508273
0.000531506
0.000586043
0.000602991
0.000582432
0.000553729
0.000562491
0.000606205
0.000714308
0.000938815
0.00129369
0.00187593
0.00253339
0.00278539
0.0028041
0.00269384
0.00262693
0.00269684
0.00311028
0.00393107
0.00477932
0.00576198
0.00748814
0.0103688
0.0123276
0.0120351
0.00989238
0.00703478
0.00501927
0.00376104
0.00300464
0.00248824
0.00208085
0.00180795
0.00172647
0.00197047
0.00263017
0.00376305
0.00546345
0.00802758
0.0118356
0.0172475
0.0246477
0.0344725
0.0471948
0.0632666
0.083125
0.107346