/*--------------------------------*- C++ -*----------------------------------*\
| =========                 |                                                 |
| \\      /  F ield         | OpenFOAM: The Open Source CFD Toolbox           |
|  \\    /   O peration     | Version:  4.1                                   |
|   \\  /    A nd           | Web:      www.OpenFOAM.org                      |
|    \\/     M anipulation  |                                                 |
\*---------------------------------------------------------------------------*/
FoamFile
{
    version     2.0;
    format      ascii;
    class       volScalarField;
    location    "14";
    object      p;
}
// * * * * * * * * * * * * * * * * * * * * * * * * * * * * * * * * * * * * * //

dimensions      [0 2 -2 0 0 0 0];

internalField   nonuniform List<scalar> 
6785
(
1028.6
962.183
911.222
861.241
814.987
771.518
730.698
692.271
656.077
621.645
588.522
558.001
530.179
496.592
462.339
479.862
462.122
465.838
461.112
457.971
454.614
451.712
449.433
447.977
447.472
447.849
449.317
452.706
456.746
458.081
437.038
431.483
441.422
440.305
443.812
445.919
448.314
450.493
452.517
454.372
455.984
457.183
458.053
459.326
461.118
491.874
489.93
495.106
491.51
492.596
491.399
490.821
490.066
489.438
488.914
488.5
488.092
487.515
487.278
488.779
497.131
495.415
498.435
495.525
497.395
496.788
497.43
497.804
498.406
498.973
499.445
499.752
499.902
500.123
500.728
488.78
486.853
488.954
486.57
488.336
487.435
488.01
487.929
488.043
487.924
487.713
487.338
486.521
485.557
484.924
476.252
474.396
475.499
473.039
473.839
472.11
471.765
470.657
469.758
468.762
467.929
467.231
466.322
465.705
465.998
466.821
465.753
466.762
464.748
465.524
464.106
463.935
463.177
462.611
462.078
461.752
461.69
461.805
462.217
463.299
468.447
468.586
469.851
468.733
469.912
469.402
469.853
469.944
470.149
470.395
470.719
471.107
471.643
472.136
473.186
476.481
477.457
478.73
478.282
479.579
479.587
480.32
480.791
481.333
481.894
482.482
483.049
483.699
484.209
484.953
485.991
487.273
488.289
488.031
489.161
489.226
489.864
490.279
490.743
491.218
491.712
492.184
492.74
493.156
493.807
494.438
495.782
496.499
496.292
497.209
497.226
497.742
498.062
498.446
498.843
499.27
499.699
500.218
500.607
501.27
509.205
509.899
509.736
509.263
509.645
509.134
509.072
508.715
508.426
508.171
508.026
508.039
508.237
508.42
508.741
512.721
513.803
512.431
510.279
508.709
507.003
506.048
505.275
505.042
504.972
505.072
505.202
505.248
505.105
504.787
549.28
546.859
540.366
532.96
526.629
520.644
515.853
512.186
508.904
505.593
502.007
498.862
496.393
494.763
492.735
498.766
498.735
498.771
498.762
498.766
498.74
498.774
498.759
498.774
498.739
498.775
498.725
498.803
498.761
498.727
498.745
498.742
498.774
498.684
498.844
498.756
498.697
498.713
498.767
498.761
498.683
498.702
498.749
498.779
498.628
498.861
498.758
498.645
498.674
498.735
498.784
498.602
498.866
498.77
498.647
498.685
498.827
498.788
498.675
498.733
498.86
498.927
498.735
499.033
499.105
499.025
499.158
499.338
499.635
499.629
499.833
499.921
500.401
500.418
500.401
501.125
501.094
501.282
501.115
501.747
501.823
501.992
502.145
501.692
502.605
502.133
498.411
497.066
499.172
496.487
484.74
491.424
486.832
457.548
469.819
478.713
479.761
482.517
466.848
475.642
479.831
480.81
482.21
483.245
483.409
483.6
485.37
477.771
476.102
476.589
477.124
477.723
477.693
477.391
477.14
479.148
475.322
472.671
472.836
471.834
472.089
473.886
474.162
472.972
472.181
472.724
474.842
473.736
472.884
471.452
469.803
470.589
471.967
470.744
468.517
467.475
475.045
475.985
475.553
473.171
471.136
469.296
469.127
467.824
471.475
481.013
477.535
476.975
475.702
473.909
472.418
469.988
466.563
469.535
484.926
481.407
480.335
478.256
475.577
473.781
473.037
471.58
470.763
466.16
480.018
477.598
478.032
478.087
477.159
473.488
473.172
476.552
466.384
481.445
480.266
481.736
483.632
483.887
484.035
478.448
478.798
472.114
473.864
465.443
450.31
461.761
447.137
432.028
433.424
422.525
444.579
424.426
406.937
413.094
404.665
433.228
417.358
393.106
428.426
415.864
400.022
409.442
405.593
430.795
419.371
408.674
416.917
415.369
432.35
426.714
418.034
432.859
430.241
425.686
429.523
429.382
435.353
433.344
431.658
433.197
433.177
436.035
433.972
433.104
435.781
431.69
428.186
428.096
424.638
430.438
428.753
422.771
427.631
425.424
435.762
441.698
437.19
454.88
461.415
456.432
479.034
482.695
491.102
499.971
449.997
533.99
568.468
281.385
453.86
635.379
20.4508
-54.4493
-470.783
-368.436
611.948
-0.00102134
-0.00458432
-0.000215702
0.00141738
0.00289242
0.00456767
0.006299
0.00826948
0.0105132
0.0130651
0.0160184
0.0186413
0.0205385
0.0215539
0.0191067
0.0158823
0.0324468
0.0716233
0.112121
0.131544
0.142356
0.145439
0.116607
0.0736827
0.0522559
0.0443069
0.0354455
0.0303668
0.0343174
0.0498766
0.0855082
0.132183
0.170623
0.189531
0.205308
0.235261
0.260871
0.260336
0.242255
0.226561
0.225601
0.234015
0.24979
0.268376
0.28964
0.315287
0.352811
0.406732
0.483393
0.597278
0.752062
0.902387
0.971703
0.950685
0.917393
0.926767
0.962405
0.993087
1.01662
1.03531
1.0379
1.03116
1.21671
1.9837
3.11143
3.86499
3.83904
3.27773
2.63404
2.95817
2.93077
2.2612
2.24994
3.63904
7.72472
17.5635
40.9451
72.1197
110.917
-8.92704e-05
-0.00774969
0.00488038
0.00972068
0.0142835
0.0196114
0.0252472
0.0317467
0.039237
0.0476615
0.0570567
0.0657706
0.0721483
0.0773819
0.0853561
0.100041
0.128059
0.141339
0.15292
0.213514
0.291207
0.336125
0.347936
0.339949
0.31494
0.284285
0.245839
0.207456
0.193996
0.199736
0.242134
0.304279
0.374047
0.437225
0.484929
0.528521
0.569085
0.587515
0.592937
0.603595
0.63449
0.67712
0.731563
0.79402
0.870622
0.966352
1.09318
1.25869
1.47417
1.74737
2.05989
2.3609
2.60672
2.83454
3.14569
3.57493
4.0808
4.61122
5.10512
5.44585
5.49566
5.16346
5.00067
6.35486
8.84242
10.5875
10.6936
8.97918
5.02077
3.37653
4.61678
5.22061
5.18913
5.05637
5.17169
5.13633
4.7557
-8.86638
254.257
-0.001074
-0.0130717
0.00659756
0.0151206
0.0231189
0.0323597
0.0420453
0.0530835
0.0657054
0.0797929
0.095391
0.110226
0.121954
0.132215
0.144271
0.159747
0.19424
0.231081
0.280764
0.388886
0.519664
0.601804
0.620718
0.610713
0.572095
0.517246
0.44694
0.374141
0.354945
0.367915
0.44331
0.557941
0.687065
0.805162
0.902374
0.9921
1.06917
1.10773
1.12501
1.15387
1.21884
1.30695
1.41815
1.54483
1.69825
1.89154
2.14709
2.47566
2.89349
3.40777
3.99099
4.5707
5.06992
5.51775
6.04732
6.71504
7.46791
8.22077
8.88264
9.30265
9.30065
8.7645
8.71142
11.3978
16.0183
19.2905
19.5832
16.3946
9.17888
5.5871
7.50608
8.56861
8.90706
9.90037
11.3078
13.6704
20.4335
18.9297
446.364
-0.00106415
-0.0162633
0.0100843
0.0223924
0.0338353
0.0470607
0.0609439
0.0767065
0.0947167
0.114721
0.136606
0.157587
0.174507
0.189781
0.209559
0.235098
0.277662
0.319238
0.383624
0.532048
0.715239
0.836434
0.879186
0.882551
0.833574
0.754327
0.652633
0.542548
0.513223
0.529501
0.628483
0.779863
0.953338
1.11534
1.24714
1.36211
1.46282
1.52106
1.55776
1.61167
1.71139
1.83979
1.99886
2.18014
2.39993
2.67546
3.03524
3.49567
4.07905
4.78762
5.57602
6.3562
7.05631
7.73844
8.56051
9.56505
10.6734
11.7746
12.7432
13.3722
13.4141
12.7128
12.7075
16.4176
22.5981
26.9238
27.3906
23.1168
13.0939
7.63092
9.97804
11.6582
12.7911
15.3737
20.5418
31.8145
62.8191
103.547
526.512
-0.00141369
-0.0192783
0.0130362
0.0293098
0.0443827
0.0617427
0.0799884
0.100617
0.124136
0.150145
0.178315
0.205475
0.227976
0.248595
0.274258
0.306617
0.359936
0.419162
0.50765
0.691317
0.921684
1.08152
1.14282
1.15244
1.09139
0.987743
0.853324
0.70434
0.666784
0.693934
0.823942
1.0176
1.23529
1.43684
1.60297
1.74846
1.87767
1.95772
2.01583
2.09721
2.2341
2.40622
2.61736
2.85791
3.14877
3.51175
3.98202
4.58191
5.3382
6.24903
7.25467
8.25138
9.16227
10.0681
11.1475
12.4416
13.8565
15.2562
16.4859
17.3024
17.4073
16.6093
16.782
21.6135
29.3629
34.785
35.5323
30.3024
17.7651
10.5337
13.0162
15.1024
16.8501
20.6813
28.8475
47.2173
96.089
161.395
493.602
-0.00138044
-0.0212873
0.0166528
0.0370334
0.0558086
0.0773548
0.100079
0.125717
0.154902
0.187082
0.221628
0.255057
0.283276
0.309548
0.342409
0.384008
0.447999
0.522196
0.632316
0.848507
1.12307
1.32154
1.40524
1.42267
1.34946
1.22144
1.05188
0.861388
0.812964
0.853366
1.01516
1.24868
1.50613
1.74113
1.93465
2.10401
2.25854
2.36036
2.4422
2.55329
2.7276
2.94187
3.20221
3.49896
3.85732
4.30246
4.87516
5.60447
6.52129
7.61871
8.82028
10.0073
11.1099
12.2417
13.599
15.2091
16.9577
18.6854
20.2125
21.2665
21.4952
20.6643
21.0736
26.9606
36.0473
42.396
43.4756
37.5358
22.8465
13.8782
16.1859
18.605
21.2553
26.5857
37.9311
62.6836
124.735
209.721
490.305
-0.00138436
-0.0228135
0.0203784
0.0449969
0.0676161
0.0934488
0.120776
0.151564
0.186552
0.225041
0.266059
0.305865
0.340083
0.372309
0.41205
0.462697
0.539023
0.631537
0.764864
1.01089
1.3266
1.56337
1.66927
1.6921
1.60558
1.45339
1.2461
1.012
0.951296
1.00922
1.20706
1.4814
1.77581
2.03912
2.25667
2.44957
2.63071
2.75569
2.864
3.00745
3.22069
3.47821
3.78848
4.14223
4.56868
5.09627
5.77118
6.62878
7.7033
8.98276
10.3746
11.747
13.0391
14.3945
16.0225
17.9392
20.0136
22.0645
23.8918
25.2077
25.6084
24.8143
25.5481
32.481
42.787
50.0313
51.5572
45.1251
28.6123
17.9573
19.8572
22.4647
26.0682
33.2829
48.7118
81.0736
156.423
257.092
450.897
-0.00122773
-0.0237403
0.0244736
0.0534773
0.0800683
0.110269
0.142295
0.178346
0.219259
0.264204
0.311824
0.358153
0.398593
0.43713
0.484371
0.544887
0.633823
0.744775
0.901469
1.17596
1.53037
1.80498
1.93434
1.9612
1.86025
1.68404
1.43628
1.15566
1.08023
1.15762
1.39475
1.71031
2.03905
2.32557
2.56249
2.77626
2.98367
3.13237
3.26907
3.44642
3.69892
3.99904
4.35791
4.76723
5.25996
5.86734
6.64064
7.62142
8.8469
10.2994
11.8698
13.4142
14.8873
16.4676
18.3735
20.6059
23.0158
25.4005
27.5457
29.163
29.7949
29.1132
30.2523
38.1883
49.5592
57.6404
59.7205
53.0489
35.0751
22.7729
24.0082
26.7087
31.4441
40.8805
61.062
101.588
188.531
300.979
426.015
-0.00101646
-0.0242426
0.0287802
0.0623204
0.0930369
0.12772
0.164554
0.205967
0.252911
0.304444
0.358811
0.411827
0.458748
0.503912
0.558814
0.629554
0.731961
0.862361
1.04296
1.34491
1.73594
2.04774
2.20097
2.2295
2.11272
1.91251
1.6215
1.2914
1.19939
1.29768
1.57772
1.93568
2.29655
2.60164
2.85446
3.08825
3.32286
3.4964
3.66383
3.8769
4.16947
4.5124
4.91953
5.38405
5.94239
6.62861
7.49869
8.59976
9.97169
11.5907
13.3312
15.0396
16.6902
18.4954
20.6788
23.2269
25.9734
28.6947
31.169
33.1239
34.0454
33.5578
35.1876
44.0836
56.3977
65.3077
68.0783
61.4328
42.375
28.5071
28.8789
31.5525
37.594
49.6399
75.0294
123.437
219.295
341.802
397.733
-0.000622447
-0.0242924
0.0333284
0.071577
0.106582
0.145868
0.187619
0.234479
0.287537
0.345775
0.407063
0.466944
0.520578
0.572713
0.635714
0.717141
0.833403
0.983561
1.18845
1.51747
1.94342
2.29165
2.46925
2.49692
2.36314
2.13864
1.80096
1.41824
1.30775
1.42714
1.75308
2.15495
2.54642
2.86581
3.13118
3.38401
3.64652
3.84578
4.04581
4.2957
4.62859
5.01385
5.46824
5.98689
6.60946
7.37265
8.33689
9.55443
11.0676
12.8457
14.7471
16.6103
18.4341
20.465
22.929
25.7972
28.885
31.9478
34.7646
37.096
38.368
38.162
40.3654
50.1658
63.3124
73.0565
76.6611
70.3297
50.5951
35.2807
34.6246
37.1864
44.7587
59.8291
90.7677
146.508
248.606
377.481
374.26
5.68612e-05
-0.0238617
0.0380651
0.0811832
0.12066
0.164687
0.211482
0.263875
0.323118
0.38816
0.456548
0.523479
0.58407
0.643476
0.714895
0.807402
0.938024
1.1083
1.33787
1.69391
2.1534
2.53717
2.73932
2.76319
2.61171
2.36171
1.97348
1.53492
1.40469
1.54492
1.9191
2.36653
2.78757
3.11757
3.393
3.66471
3.95623
4.18229
4.41686
4.70469
5.07825
5.50561
6.0065
6.57848
7.26423
8.10306
9.15948
10.4903
12.14
14.0705
16.1246
18.1351
20.1291
22.386
25.1311
28.3209
31.752
35.1585
38.3288
41.0735
42.7554
42.9221
45.7773
56.4231
70.3201
80.9317
85.5289
79.8142
59.8336
43.2515
41.4825
43.86
53.1955
71.6625
108.26
170.505
275.865
404.894
383.22
0.00127617
-0.0227569
0.0430318
0.0911193
0.135271
0.184188
0.236166
0.294182
0.359678
0.431612
0.507254
0.581425
0.649231
0.716212
0.796415
0.900382
1.04571
1.23631
1.49094
1.87422
2.36623
2.78453
3.01113
3.02832
2.85902
2.58103
2.13787
1.63971
1.48919
1.65015
2.07393
2.56838
3.01849
3.35604
3.6397
3.93051
4.25213
4.506
4.77675
5.1032
5.51742
5.98634
6.53273
7.15702
7.90465
8.81749
9.96373
11.4043
13.1858
15.2618
17.4604
19.6112
21.7725
24.2554
27.2827
30.7963
34.5728
38.3242
41.8579
45.0494
47.1981
47.83
51.4071
62.8396
77.4326
88.9614
94.7162
89.9336
70.1586
52.5391
49.6487
51.8309
63.1568
85.2929
127.328
194.843
300.46
422.304
418.61
0.00335609
-0.0206685
0.0483331
0.101358
0.150378
0.204358
0.261671
0.325416
0.397234
0.476136
0.559154
0.640749
0.716044
0.790901
0.880201
0.995985
1.15637
1.3675
1.64759
2.0585
2.58225
3.03396
3.28472
3.2927
3.10538
2.79603
2.29285
1.73082
1.56035
1.74271
2.21676
2.75898
3.23784
3.5806
3.87159
4.18229
4.53516
4.81787
5.12632
5.49193
5.94674
6.45672
7.04769
7.7233
8.53161
9.51693
10.7508
12.2978
14.2062
16.4214
18.7568
21.0414
23.3676
26.0758
29.3851
33.2233
37.3459
41.4415
45.3455
49.0115
51.679
52.867
57.2263
69.3943
84.6594
97.1701
104.25
100.724
81.6169
63.2371
59.2828
61.3506
74.8574
100.787
147.708
218.965
322.656
428.836
442.303
0.00669367
-0.0171777
0.0541997
0.111946
0.16596
0.22519
0.288005
0.357596
0.435811
0.521745
0.61223
0.701422
0.784477
0.867535
0.966248
1.09416
1.2699
1.50176
1.80779
2.24676
2.80168
3.28573
3.56038
3.55711
3.35091
3.00668
2.43756
1.80711
1.61761
1.82273
2.34751
2.93736
3.44449
3.79075
4.08909
4.42089
4.80601
5.11851
5.46592
5.8709
6.36601
6.91636
7.55083
8.27671
9.14439
10.2005
11.5195
13.1696
15.2001
17.5481
20.0128
22.4252
24.9139
27.8462
31.4366
35.6001
40.0688
44.506
48.7837
52.9435
56.1758
58.0072
63.1994
76.0641
92.005
105.571
114.145
112.203
94.2216
75.3906
70.4772
72.6298
88.4447
118.108
169.066
242.254
342.212
429.267
453.281
0.0115433
-0.0118679
0.0609916
0.123025
0.182017
0.24667
0.315169
0.390734
0.475428
0.56845
0.666462
0.763403
0.85449
0.946086
1.05452
1.19484
1.38621
1.63903
1.97157
2.43902
3.02474
3.54019
3.83849
3.82244
3.59615
3.21331
2.5716
1.86802
1.66076
1.89056
2.46694
3.10338
3.63768
3.98634
4.29291
4.64743
5.0656
5.40887
5.79617
6.24057
6.77555
7.36553
8.04248
8.81753
9.74325
10.8684
12.2702
14.0198
16.1676
18.6421
21.2291
23.7639
26.4124
29.5668
33.4366
37.9249
42.7387
47.513
52.162
56.8249
60.6608
63.2181
69.2858
82.8251
99.4689
114.171
124.411
124.37
107.949
89.0004
83.2786
85.8098
103.977
137.109
190.995
264.171
359.159
428.893
454.03
0.0177914
-0.00440926
0.0691796
0.134875
0.198622
0.268787
0.34316
0.424837
0.5161
0.616265
0.721843
0.826659
0.926036
1.02652
1.14499
1.29797
1.50521
1.77928
2.13889
2.63527
3.2516
3.79769
4.11944
4.08967
3.84222
3.41664
2.69477
1.91294
1.6893
1.94654
2.57638
3.25758
3.8171
4.16752
4.48404
4.86315
5.31478
5.69014
6.11759
6.60122
7.17546
7.80419
8.52248
9.34557
10.3279
11.5203
13.0022
14.8477
17.1079
19.7028
22.4053
25.0574
27.8631
31.2367
35.3833
40.1953
45.3529
50.4576
55.4681
60.6322
65.1031
68.4631
75.4446
89.6542
107.046
122.969
135.05
137.201
122.735
104.016
97.6922
100.941
121.409
157.54
213.055
284.322
373.394
429.775
453.89
0.025051
0.00527789
0.0792373
0.147896
0.215958
0.291562
0.371966
0.459906
0.557837
0.665203
0.778374
0.891162
0.999066
1.1088
1.23762
1.40346
1.6268
1.92243
2.30965
2.83549
3.48244
4.05866
4.40366
4.35986
4.09065
3.61765
2.80697
1.94088
1.7026
1.99138
2.6774
3.40094
3.98285
4.33482
4.66371
5.06948
5.55447
5.96357
6.43076
6.95326
7.56599
8.23253
8.99106
9.86101
10.8985
12.1561
13.7154
15.6531
18.0208
20.7298
23.5418
26.3064
29.2662
32.8551
37.2751
42.409
47.9082
53.3339
58.6876
64.3399
69.4695
73.7032
81.6356
96.5293
114.726
131.954
146.055
150.656
138.473
120.334
113.679
117.974
140.597
179.069
234.802
302.465
384.92
431.57
452.764
0.0329279
0.0168951
0.0914852
0.162546
0.23431
0.315082
0.401575
0.495929
0.60064
0.715272
0.836061
0.956889
1.07353
1.19286
1.33238
1.51127
1.75089
2.0684
2.48376
3.03967
3.71742
4.32349
4.69161
4.63411
4.34331
3.81754
2.90816
1.95066
1.70031
2.02626
2.77138
3.53462
4.13538
4.48912
4.83337
5.26792
5.78579
6.23009
6.73624
7.29708
7.94737
8.65066
9.44826
10.3638
11.455
12.7756
14.4096
16.4356
18.9055
21.7227
24.6385
27.5111
30.6218
34.4213
39.11
44.5634
50.402
56.1361
61.8054
67.9219
73.726
78.8982
87.8213
103.43
122.499
141.118
157.411
164.672
155.015
137.795
131.139
136.767
161.303
201.307
255.812
318.412
394.085
435.597
449.588
0.0411198
0.0299045
0.105888
0.179204
0.254017
0.339516
0.432001
0.532887
0.644504
0.76648
0.894912
1.02383
1.1494
1.27867
1.4292
1.62133
1.87741
2.21711
2.66112
3.24774
3.95663
4.59256
4.98374
4.91358
4.6022
4.01767
2.99847
1.94138
1.68255
2.05268
2.85962
3.65974
4.2754
4.63167
4.99466
5.46
6.00992
6.49047
7.03462
7.63311
8.31989
9.05881
9.8943
10.8542
11.9973
13.3789
15.0845
17.1948
19.7616
22.6812
25.6954
28.6721
31.93
35.9342
40.8859
46.6559
52.8315
58.8575
64.8056
71.3533
77.8397
84.0076
93.9665
110.337
130.351
150.454
169.099
179.173
172.185
156.2
149.909
157.097
183.219
223.837
275.709
332.068
400.95
442.978
446.922
0.0494125
0.0437617
0.122072
0.197995
0.275409
0.365085
0.463302
0.570761
0.689416
0.818826
0.954936
1.09197
1.22661
1.36617
1.52807
1.73359
2.00627
2.36842
2.84159
3.45959
4.2001
4.86613
5.28049
5.19944
4.86944
4.2196
3.07853
1.91315
1.65022
2.07234
2.94343
3.77719
4.40377
4.76405
5.14935
5.64724
6.22807
6.74553
7.32654
7.96178
8.68382
9.45715
10.3293
11.3321
12.5255
13.9658
15.74
17.9302
20.5886
23.6048
26.7126
29.7902
33.1912
37.393
42.6007
48.6839
55.1937
61.4911
67.6729
74.6121
81.7801
88.9919
100.037
117.233
138.27
159.95
181.095
194.071
189.789
175.327
169.773
178.681
205.988
246.242
294.203
343.431
405.026
455.146
445.537
0.0576557
0.0580287
0.139529
0.218729
0.298682
0.392021
0.495585
0.60955
0.735361
0.872308
1.01614
1.1613
1.30516
1.4553
1.62891
1.84799
2.1374
2.5222
3.02498
3.67506
4.44773
5.14433
5.58222
5.49291
5.14716
4.42522
3.14988
1.86785
1.60574
2.08747
3.02405
3.8877
4.5215
4.88809
5.29921
5.83104
6.44166
6.99612
7.61266
8.28352
9.03946
9.84594
10.7536
11.7978
13.0397
14.5363
16.3759
18.6418
21.3861
24.4932
27.6903
30.8663
34.4055
38.7967
44.2522
50.6449
57.4853
64.0292
70.3935
77.6802
85.521
93.8136
106.001
124.097
146.242
169.599
193.373
209.271
207.626
194.962
190.487
201.189
229.232
268.145
311.051
352.424
405.906
467.049
442.994
0.0657593
0.072427
0.157766
0.241047
0.323829
0.420502
0.529003
0.649293
0.782322
0.926918
1.07852
1.23184
1.385
1.54604
1.7317
1.96449
2.27069
2.67827
3.21109
3.89388
4.69929
5.42706
5.88907
5.7951
5.43739
4.63686
3.21541
1.81
1.55375
2.10122
3.10294
3.99192
4.62976
5.00578
5.44604
6.01271
6.65231
7.24301
7.89362
8.59876
9.38712
10.2254
11.1672
12.2515
13.54
15.0904
16.9922
19.3291
22.1537
25.346
28.6288
31.9007
35.5729
40.1441
45.8381
52.536
59.7023
66.4638
72.956
80.5443
89.0418
98.4399
111.826
130.911
154.253
179.39
205.908
224.679
225.5
214.906
211.813
224.269
252.579
289.223
326.11
359.441
404.03
464.094
438.428
0.0736897
0.0868431
0.176397
0.264527
0.350694
0.450635
0.5637
0.690061
0.830287
0.982642
1.14209
1.30359
1.46614
1.63835
1.83638
2.08303
2.40603
2.83645
3.39966
4.11572
4.95444
5.714
6.201
6.10699
5.74189
4.85735
3.27982
1.74748
1.5016
2.11805
3.18191
4.09055
4.72984
5.11917
5.59152
6.19335
6.86136
7.48689
8.17002
8.90792
9.72709
10.5958
11.5705
12.6932
14.0264
15.6282
17.5888
19.9922
22.8915
26.1632
29.528
32.893
36.693
41.434
47.3564
54.3543
61.8394
68.7869
75.3518
83.1956
92.3282
102.845
117.486
137.655
162.29
189.316
218.673
240.201
243.217
234.929
233.529
247.573
275.684
309.218
339.266
364.54
401.759
453.507
434.48
0.0814622
0.101299
0.195217
0.288772
0.37902
0.482438
0.599794
0.731945
0.879267
1.03947
1.20684
1.37655
1.54857
1.7322
1.94289
2.20356
2.5433
2.99655
3.59032
4.34016
5.21269
6.00464
6.51768
6.42918
6.06208
5.09001
3.34997
1.69169
1.45941
2.14393
3.26317
4.18433
4.82326
5.23018
5.73729
6.37393
7.0697
7.72841
8.44246
9.2114
10.0597
10.9574
11.9638
13.1233
14.4991
16.1498
18.1658
20.6312
23.5992
26.9446
30.3877
33.843
37.7657
42.6651
48.805
56.0961
63.8898
70.9904
77.5755
85.6301
95.3726
107.013
122.959
144.307
170.334
199.364
231.644
255.756
260.606
254.743
255.392
270.773
298.244
327.936
350.499
367.804
400.442
442.865
431.066
0.0891295
0.115911
0.214191
0.313505
0.408506
0.515816
0.637368
0.775036
0.929297
1.09737
1.27277
1.45074
1.6323
1.82758
2.05121
2.32601
2.68236
3.15838
3.78265
4.56671
5.47344
6.29827
6.83853
6.76187
6.39883
5.33846
3.43505
1.65719
1.43974
2.18591
3.3492
4.27392
4.91182
5.34063
5.88511
6.5553
7.27811
7.96816
8.71146
9.50956
10.3852
11.3105
12.3472
13.5419
14.9583
16.6553
18.7233
21.2462
24.2772
27.6901
31.2076
34.7507
38.7907
43.8365
50.1819
57.7568
65.8451
73.0668
79.6246
87.8474
98.1731
110.934
128.23
150.851
178.365
209.516
244.789
271.277
277.582
274.092
277.112
293.586
320.004
345.247
359.928
369.576
399.271
432.998
428.045
0.0967653
0.130832
0.233412
0.338599
0.43888
0.550599
0.676453
0.819412
0.980432
1.15636
1.33986
1.52617
1.71736
1.92451
2.16127
2.45032
2.8231
3.32171
3.97618
4.79484
5.73594
6.59397
7.16268
7.10472
6.75229
5.60651
3.54626
1.66099
1.45658
2.25121
3.44229
4.35995
4.99771
5.45214
6.03649
6.73822
7.48722
8.20663
8.97748
9.80279
10.7039
11.6553
12.721
13.9492
15.4042
17.1448
19.2616
21.8375
24.9258
28.3998
31.9886
35.6167
39.7662
44.9476
51.4849
59.3306
67.6948
75.0083
81.4991
89.85
100.732
114.608
133.293
157.269
186.358
219.749
258.07
286.704
294.131
292.866
298.422
315.782
340.769
361.083
367.729
370.272
397.442
423.463
424.598
0.104449
0.146215
0.253031
0.36405
0.469954
0.586579
0.717011
0.86513
1.03274
1.21644
1.4081
1.60284
1.80379
2.02299
2.27305
2.57641
2.96537
3.48628
4.17041
5.02386
5.99929
6.89058
7.48898
7.45687
7.12175
5.89759
3.69599
1.72102
1.52368
2.34609
3.54379
4.44317
5.0833
5.56636
6.19201
6.92356
7.69751
8.44427
9.24096
10.0914
11.0161
11.9921
13.0856
14.3455
15.837
17.6187
19.7809
22.4054
25.5453
29.0742
32.7301
36.4384
40.6918
45.9983
52.7118
60.8104
69.4257
76.807
83.2003
91.6424
103.055
118.037
138.144
163.547
194.298
230.035
271.436
301.981
310.279
311.063
319.133
337.184
360.399
375.44
374.091
370.245
394.648
414.379
420.673
0.112254
0.162195
0.273203
0.389931
0.501643
0.623571
0.75895
0.912227
1.08626
1.27763
1.47746
1.68076
1.89162
2.12307
2.38652
2.70418
3.10903
3.65178
4.3648
5.25293
6.26236
7.18673
7.81601
7.81682
7.50547
6.21422
3.89614
1.85368
1.65244
2.47459
3.65352
4.52472
5.17079
5.68536
6.35161
7.11198
7.90937
8.68153
9.50228
10.3758
11.3221
12.3212
13.4411
14.731
16.2568
18.0771
20.2815
22.9504
26.136
29.7127
33.4291
37.2113
41.5691
46.9883
53.8604
62.1883
71.0238
78.454
84.7302
93.2297
105.149
121.225
142.781
169.675
202.174
240.345
284.818
317.044
326.061
328.713
339.135
357.657
378.807
388.369
379.249
369.77
390.715
405.903
416.147
0.120238
0.178881
0.29406
0.416348
0.533947
0.661441
0.802141
0.960703
1.14105
1.33995
1.54795
1.75995
1.98092
2.2248
2.50164
2.83353
3.2539
3.81786
4.55877
5.4811
6.52383
7.48083
8.14203
8.18244
7.90066
6.55726
4.15599
2.07063
1.84932
2.63747
3.76998
4.60629
5.26203
5.81086
6.51554
7.30389
8.12321
8.9188
9.76173
10.6562
11.6221
12.6429
13.7878
15.1059
16.664
18.5203
20.7637
23.473
26.6987
30.3147
34.087
37.939
42.4
47.9167
54.9274
63.4542
72.4735
79.9382
86.0898
94.6169
107.021
124.18
147.204
175.648
209.976
250.638
298.118
331.808
341.499
345.846
358.356
377.104
395.949
399.964
383.466
369.071
385.63
397.726
411.392
0.128445
0.196369
0.315707
0.443413
0.56691
0.700118
0.84645
1.01052
1.19711
1.40344
1.61955
1.84039
2.07174
2.32826
2.61839
2.96435
3.39979
3.98415
4.75168
5.7073
6.7822
7.77107
8.46501
8.55092
8.30345
6.92535
4.47976
2.37508
2.11347
2.83099
3.89208
4.69099
5.35903
5.94337
6.68458
7.49967
8.33938
9.15641
10.0196
10.9328
11.9163
12.9573
14.1259
15.4706
17.0587
18.9487
21.2281
23.9739
27.2343
30.8817
34.7108
38.6352
43.1799
48.7816
55.9078
64.5957
73.7564
81.2461
87.2774
95.8072
108.676
126.905
151.412
181.462
217.688
260.86
311.215
346.16
356.573
362.471
376.732
395.462
411.819
410.358
387.028
368.26
379.393
389.605
405.48
0.136906
0.214746
0.338224
0.471217
0.600608
0.739588
0.891774
1.06161
1.25446
1.46809
1.69225
1.92212
2.16417
2.43352
2.73676
3.09648
3.54647
4.15021
4.94284
5.9304
7.03584
8.05545
8.78263
8.91889
8.70912
7.31452
4.86475
2.75986
2.43744
3.04806
4.02011
4.78195
5.46386
6.08323
6.85924
7.6997
8.55815
9.39461
10.276
11.206
12.2051
13.2649
14.4557
15.8252
17.4414
19.3625
21.675
24.4537
27.7433
31.4171
35.3067
39.3085
43.8968
49.5832
56.7978
65.6014
74.8539
82.3604
88.2869
96.801
110.113
129.404
155.404
187.112
225.295
270.954
323.98
359.969
371.199
378.561
394.201
412.691
426.445
419.704
390.201
367.404
372.693
381.693
398.514
0.14564
0.2341
0.361674
0.499821
0.635121
0.779876
0.938042
1.11389
1.31306
1.53388
1.76602
2.00514
2.25828
2.54067
2.85672
3.22978
3.69366
4.31557
5.13147
6.14917
7.28294
8.33178
9.09232
9.2825
9.11243
7.71841
5.30106
3.21164
2.80566
3.28037
4.15294
4.88026
5.57727
6.23105
7.03979
7.9043
8.77975
9.63361
10.5311
11.4758
12.4886
13.5659
14.7775
16.17
17.8122
19.7621
22.105
24.9131
28.226
31.9257
35.8775
39.9551
44.55
50.325
57.5954
66.462
75.7484
83.2604
89.105
97.5931
111.33
131.674
159.179
192.591
232.777
280.865
336.303
373.151
385.248
394.035
410.712
428.77
439.879
428.18
393.239
366.551
366.051
374.061
391.513
0.154661
0.254521
0.386104
0.52927
0.67052
0.821023
0.98522
1.16726
1.37287
1.60077
1.8408
2.08946
2.35417
2.64979
2.97823
3.36405
3.84106
4.47969
5.31672
6.36222
7.52159
8.59774
9.39134
9.63767
9.50805
8.12897
5.77459
3.71039
3.1959
3.51915
4.28864
4.98596
5.69926
6.38731
7.22661
8.11373
9.00434
9.8735
10.7851
11.7424
12.7671
13.8604
15.0914
16.5053
18.1714
20.1479
22.5186
25.3528
28.6843
32.4119
36.4242
40.569
45.1596
51.01
58.3002
67.1707
76.4248
83.9221
89.7099
98.1714
112.312
133.709
162.737
197.893
240.113
290.54
348.103
385.685
398.64
408.787
426.222
443.693
452.194
435.967
396.368
365.84
360.051
366.958
385.242
0.163979
0.276109
0.411561
0.559588
0.70685
0.863072
1.0333
1.22166
1.4338
1.66867
1.91654
2.17509
2.45194
2.76095
3.10125
3.49906
3.98828
4.64193
5.49764
6.56807
7.74977
8.85099
9.67689
9.98029
9.89103
8.53798
6.27126
4.22666
3.59
3.75702
4.42667
5.09924
5.8302
6.55224
7.4201
8.32818
9.23201
10.1144
11.0379
12.0059
13.0408
14.1488
15.3977
16.8312
18.5194
20.5203
22.9163
25.7738
29.1208
32.8783
36.9469
41.1493
45.7453
51.631
58.9124
67.7239
76.8722
84.3208
90.0704
98.5128
113.038
135.495
166.073
203.012
247.282
299.927
359.316
397.569
411.36
422.741
440.708
457.469
463.475
443.246
399.771
365.513
355.259
360.888
379.475
0.173602
0.298972
0.438085
0.590789
0.744141
0.906064
1.08229
1.27701
1.49576
1.7375
1.99315
2.26205
2.5517
2.87422
3.22572
3.63457
4.13487
4.80161
5.67315
6.76506
7.96536
9.08917
9.94619
10.3065
10.2571
8.93864
6.775
4.73667
3.97619
3.9894
4.5671
5.22047
5.97056
6.726
7.62055
8.54775
9.46279
10.3562
11.2896
12.2663
13.3098
14.4312
15.6966
17.1481
18.8563
20.8796
23.2988
26.1766
29.5373
33.3267
37.4464
41.6972
46.3082
52.1726
59.4342
68.1226
77.0855
84.4342
90.148
98.5821
113.473
137.006
169.175
207.938
254.259
308.972
369.888
408.788
423.416
435.859
454.159
470.118
473.816
450.188
403.596
365.782
351.666
356.077
374.92
0.183536
0.32323
0.465714
0.622875
0.78241
0.950025
1.1322
1.33327
1.55863
1.80709
2.07054
2.3504
2.65358
2.9896
3.35153
3.77026
4.28032
4.95791
5.842
6.95144
8.16625
9.31008
10.1966
10.6128
10.6028
9.32556
7.26992
5.22941
4.347
4.21415
4.70983
5.35016
6.12048
6.9087
7.82807
8.77245
9.69661
10.5989
11.5401
12.5237
13.5742
14.7079
15.9882
17.456
19.1826
21.2262
23.6667
26.5616
29.9369
33.7592
37.9237
42.2143
46.8392
52.6325
59.8731
68.3737
77.0683
84.2477
89.9025
98.3332
113.572
138.203
172.028
212.662
261.016
317.624
379.775
419.317
434.805
448.128
466.579
481.666
483.313
456.939
407.958
366.866
349.186
352.502
371.856
0.193791
0.349016
0.494482
0.655844
0.821665
0.994959
1.18302
1.39038
1.62226
1.87728
2.14863
2.44021
2.75767
3.10708
3.47853
3.9058
4.424
5.10989
6.00275
7.12535
8.35039
9.51169
10.4259
10.8963
10.9255
9.69517
7.7461
5.69848
4.69899
4.43078
4.85508
5.4888
6.27981
7.10022
8.04255
9.00216
9.93332
10.8424
11.7893
12.7781
13.8343
14.9791
16.2728
17.7553
19.4983
21.5606
24.0205
26.9296
30.3228
34.1768
38.3799
42.7023
47.3328
53.036
60.2385
68.4889
76.8334
83.7597
89.3013
97.7158
113.279
139.035
174.603
217.171
267.525
325.843
388.939
429.127
445.514
459.553
477.978
492.15
492.056
463.625
412.956
368.899
347.62
350.167
371.136
0.204377
0.376474
0.524416
0.689691
0.8619
1.04085
1.23475
1.44828
1.6865
1.94784
2.2273
2.53159
2.86406
3.22657
3.6065
4.04075
4.56519
5.25648
6.15389
7.28497
8.51595
9.69233
10.6318
11.1548
11.2234
10.0464
8.19687
6.14127
5.03175
4.63972
5.0034
5.63675
6.44831
7.30021
8.26368
9.23664
10.1727
11.0866
12.0372
13.0294
14.0902
15.2449
16.5505
18.0461
19.8039
21.8832
24.3602
27.2828
30.6971
34.5799
38.8164
43.1635
47.7904
53.4104
60.5293
68.4838
76.404
82.9866
88.3315
96.6894
112.539
139.441
176.862
221.449
273.767
333.597
397.352
438.185
455.527
470.145
488.375
501.615
500.132
470.345
418.675
372.018
346.898
348.975
371.194
0.215309
0.405759
0.555537
0.724402
0.903097
1.08768
1.28735
1.50686
1.75115
2.01853
2.30647
2.62468
2.97277
3.3479
3.73514
4.17462
4.70301
5.39642
6.29383
7.42862
8.66141
9.85073
10.8127
11.3866
11.4952
10.379
8.62047
6.55894
5.34618
4.84179
5.15551
5.79426
6.6257
7.50808
8.49091
9.47556
10.4145
11.3312
12.2836
13.2775
14.3421
15.5055
16.8215
18.3286
20.0996
22.1942
24.6861
27.6244
31.0611
34.9694
39.2345
43.6005
48.2165
53.7609
60.7352
68.3782
75.8132
81.9649
87.0104
95.2415
111.313
139.365
178.762
225.477
279.735
340.868
404.994
446.452
464.82
479.915
497.796
510.122
507.623
477.177
425.19
376.362
347.142
348.929
373.128
0.226607
0.437035
0.587847
0.759948
0.945225
1.13539
1.34074
1.56599
1.81597
2.08906
2.38612
2.71962
3.0837
3.47075
3.86403
4.30676
4.83644
5.52835
6.42106
7.55491
8.78575
9.98616
10.9675
11.5907
11.7402
10.6919
9.01861
6.95395
5.6434
5.03774
5.3123
5.96157
6.81153
7.72306
8.72358
9.71851
10.6583
11.576
12.5285
13.5224
14.59
15.7608
17.0859
18.6029
20.3857
22.4934
25
27.957
31.4153
35.346