/*--------------------------------*- C++ -*----------------------------------*\
| =========                 |                                                 |
| \\      /  F ield         | OpenFOAM: The Open Source CFD Toolbox           |
|  \\    /   O peration     | Version:  4.1                                   |
|   \\  /    A nd           | Web:      www.OpenFOAM.org                      |
|    \\/     M anipulation  |                                                 |
\*---------------------------------------------------------------------------*/
FoamFile
{
    version     2.0;
    format      ascii;
    class       surfaceScalarField;
    location    "14";
    object      phi;
}
// * * * * * * * * * * * * * * * * * * * * * * * * * * * * * * * * * * * * * //

dimensions      [0 3 -1 0 0 0 0];

internalField   nonuniform List<scalar> 
13220
(
-893.653
2193.56
-1386.03
1792.58
-1854.26
1768.14
-2210.77
1656.41
-2486.73
1576.17
-2683.77
1496.95
-2803.72
1419.85
-2846.6
1343.08
-2811.54
1264.84
-2695.94
1184.3
-2502.43
1106.69
-2229.98
1027.46
-1830.44
900.366
-1164.3
634.072
135.597
-18.436
2212
-67.6106
1841.76
-203.532
1904.07
-302.475
1755.36
-403.251
1676.95
-483.04
1576.74
-543.3
1480.12
-581.1
1380.89
-600.123
1283.87
-607.139
1191.32
-606.307
1105.86
-598.237
1019.39
-543.926
846.058
-304.69
394.846
-169.092
-107.64
2319.64
-272.532
2006.66
-425.302
2056.84
-502.293
1832.36
-570.788
1745.45
-598.259
1604.21
-598.311
1480.18
-570.62
1353.2
-520.932
1234.19
-458.233
1128.63
-388.323
1035.95
-301.67
932.776
-195.593
740.03
-77.5697
276.926
-246.663
15.801
2303.83
-9.01877
2031.46
-20.6529
2068.46
1.21493
1810.47
18.7751
1727.88
59.9686
1563.01
109.368
1430.76
173.798
1288.76
260.394
1147.58
390.363
998.642
566.219
860.095
736.379
762.565
795.903
680.46
553.102
519.655
306.437
9.99484
2293.82
-19.3562
2060.79
-31.1137
2080.19
-46.9604
1826.3
-71.2925
1752.19
-90.3443
1582.03
-121.256
1461.65
-150.809
1318.29
-149.841
1146.59
-57.8996
906.669
142.683
659.476
367.362
537.838
478.111
569.658
332.389
665.318
638.826
-5.05977
2298.86
-133.983
2189.69
-207.754
2153.94
-293.342
1911.86
-388.424
1847.25
-482.387
1675.97
-590.479
1569.72
-702.616
1430.4
-804.928
1248.88
-855.894
957.617
-807.495
611.064
-621.749
352.07
-336.567
284.449
-99.6629
428.377
539.162
89.0694
2209.77
-51.4898
2330.24
-112.045
2214.48
-171.411
1971.21
-226.941
1902.76
-285.248
1734.27
-343.913
1628.37
-408.016
1494.5
-496.879
1337.73
-635.919
1096.63
-809.329
784.473
-922.894
465.558
-827.535
189.012
-469.264
70.0025
69.8979
187.814
2021.95
129.511
2388.53
124.815
2219.17
133.088
1962.93
160.486
1875.36
180.331
1714.41
209.81
1598.89
236.752
1467.55
244.347
1330.13
184.114
1156.87
31.7858
936.792
-180.55
677.937
-349.975
358.499
-298.801
18.8951
-228.906
194.277
1827.67
206.997
2375.81
231.372
2194.8
270.57
1923.73
328.073
1817.85
378.856
1663.63
437.348
1540.39
495.558
1409.34
548.221
1277.47
569.733
1135.34
534.562
971.967
429.059
783.358
242.439
545.004
7.73687
253.411
-221.165
133.548
1694.13
173.467
2335.89
201.268
2167
234.141
1890.86
281.441
1770.56
321.461
1623.61
362.478
1499.38
401.837
1369.98
436.265
1243.05
457.151
1114.47
452.458
976.662
409.544
826.353
314.237
640.411
156.793
411.115
-64.3722
73.8888
1620.25
136.593
2273.2
171.8
2131.8
200.871
1861.8
244.891
1726.55
283.641
1584.87
317.798
1465.24
345.36
1342.43
365.741
1222.68
375.607
1104.62
369.857
982.43
340.298
855.901
274.734
705.978
158.013
527.856
93.6444
56.4783
1563.79
142.218
2187.47
212.254
2061.78
258.094
1815.97
300.306
1684.36
337.003
1548.19
368.348
1433.91
390.375
1320.42
404.677
1208.39
410.123
1099.2
400.907
991.657
369.913
886.957
300.832
775.123
180.041
648.769
273.685
143.213
1420.59
202.21
2128.49
251.53
2012.47
329.757
1737.76
424.683
1589.44
516.113
1456.78
598.82
1351.21
673.182
1246.07
726.533
1155.05
751.98
1073.76
730.05
1013.6
644.83
972.177
494.647
925.31
290.291
853.134
563.977
472.905
947.69
658.907
1942.49
611.26
2060.13
474.161
1874.87
350.904
1712.71
250.01
1557.68
188.117
1413.12
173.992
1260.2
199.607
1129.44
241.477
1031.9
288.13
966.947
328.4
931.926
294.598
959.125
180.14
967.607
744.116
616.848
1602.33
2271.93
2605.99
2713.1
2652.88
2411.7
2079.03
1676.8
1277.16
917.932
622.462
389.687
219.122
-0.000188824
92.0216
-92.0221
92.0214
92.0212
92.0209
161.827
-69.8059
161.826
161.826
161.826
223.917
-62.0915
223.917
223.917
276.267
-52.3503
276.266
276.266
276.266
324.476
-48.2101
324.475
324.475
367.524
-43.0487
367.523
367.523
367.523
407.228
-39.7055
407.228
407.228
407.228
445.936
-38.7088
445.936
445.936
480.546
-34.6108
480.546
480.546
480.545
513.892
-33.3468
513.891
513.891
549.479
-35.5881
549.479
549.478
549.478
595.512
-46.0344
595.512
595.512
595.512
627.104
-31.5924
627.103
627.103
619.411
7.69121
619.411
619.411
619.41
530.086
89.3239
530.086
530.086
530.085
395.344
134.741
395.344
395.343
167.959
227.383
167.959
167.958
167.958
-185.995
353.953
-185.996
-185.996
-1151.66
965.664
-1151.66
-1151.66
-1151.66
-2703.24
1551.58
-2703.24
-2703.24
-2703.24
-4763.32
2060.08
-4763.33
-4763.32
-7169.45
2406.12
-7169.44
-7169.44
-6998.73
-6825.14
-6639.95
-9087.47
2637.4
-8906.04
-8707.73
-8498.08
-8286.72
-8071.14
-7851.62
-7634.06
-7415.59
-10077.6
2881.37
-9851.18
-9622.86
-9393.68
-9166.82
-8937.85
-8706.83
-8475.67
-8241.65
-10966.6
2958.13
-10719.9
-10470.2
-10218.8
-9965.65
-9706.17
-9436.3
-9164.88
-8891.82
-8617.56
-11160.4
2800.54
-10875.2
-10587.7
-10299.8
-10012.3
-9725.46
-9423.9
-9114.66
-8806.99
-10754.5
2234.27
-10461.9
-10162
-9848.44
-9536.18
-9225.25
-8917.2
-8611.64
-8290.33
-9418.85
1431.11
-9117.02
-8819.04
-8523.94
-8219.19
-7912.19
-7608.49
-7306.84
-7009.82
-7338.3
621.878
-7043.43
-6752.72
-6464.7
-6180.52
-5901.71
-5624.14
-5353.21
-5090.61
-4838.31
-4124.95
-461.4
-3911.67
-3720.59
-3537.22
-3362.51
-3193.93
-3063.37
-3005.04
-2943.49
-1648.72
-1224.48
-1593.2
-1541.5
-1541.5
-230.017
-1311.48
1044.65
-1274.67
1044.65
2213.94
-1169.29
2213.94
3252.97
-1039.03
4208.02
-955.042
4208.02
5016.65
-808.637
5698.98
-682.33
5698.98
6251.56
-552.575
6251.56
6682.48
-430.927
6950.65
-268.165
6950.65
7122.71
-172.062
7122.71
7208.64
-85.9351
7132.97
75.6704
7132.97
7028.63
104.346
6771.2
257.424
6771.2
6487.4
283.802
6487.4
6181.21
306.189
5760.85
420.36
5760.85
5351.18
409.669
5351.18
4948.71
402.471
4471.05
477.664
4471.05
4041.46
429.583
3558.61
482.854
3558.61
3119.52
439.086
3119.52
2726.49
393.036
2345.78
380.704
2345.78
2063.09
282.695
2063.09
1899.92
163.162
1963.4
-63.4744
1963.4
2427.3
-463.906
2913.5
-486.196
2913.5
3227.4
-313.896
3227.4
3329.4
-102.005
3298.38
31.0234
3298.38
3067.27
231.111
3067.26
2603.6
463.666
2012.07
591.53
2012.07
1138.41
873.66
-31.461
1169.87
-31.4615
-1967.2
1935.74
-1967.2
-4673.21
2706
-8096.4
3423.19
-8096.4
-12221.6
4125.23
-12221.6
-17245.6
5023.93
-22633.4
5387.82
-22633.4
-29090.6
6457.21
-35646.7
6556.14
-35646.7
-43059.3
7412.61
-43059.3
8573.27
248.242
-334.846
253.326
-326.515
258.7
-331.005
263.969
-342.948
269.153
-359.932
274.325
-382.39
279.574
-410.469
285.006
-444.943
290.713
-486.905
296.644
-537.104
302.446
-596.171
307.864
-662.338
312.699
-732.814
317.579
-804.182
327.996
-859.498
349.83
-911.291
369.13
-1090.14
357.454
-1550.2
315.907
-2190.03
273.847
-2716.79
242.938
-3041.56
219.798
-3263.82
211.215
-3379.07
219.724
-3261.12
235.986
-2992.92
254.567
-2714.17
274.748
-2483.14
293.585
-2297.6
307.14
-2147.86
312.535
-2069.92
304.814
-2118.32
279.922
-2290.83
243.381
-2497.47
204.007
-2568.81
160.202
-2424.62
103.066
-2189.95
36.2499
-2049.57
-26.2626
-2001.55
-76.6504
-1911.87
-116.782
-1819.78
-152.195
-1774.68
-186.678
-1760.86
-222.445
-1789.62
-259.186
-1849.5
-295.915
-1924.33
-332.679
-2014.34
-371.404
-2144.12
-414.095
-2332.88
-462.908
-2582.47
-523.388
-2869.92
-603.479
-3152.06
-701.437
-3415.84
-796.663
-3738.36
-864.026
-4239.39
-894.342
-4961.55
-891.459
-5845.53
-857.851
-6806.61
-793.264
-7771.08
-702.385
-8648.86
-596.541
-9320.08
-489.998
-9653.88
-402.387
-9512.8
-365.001
-8847.23
-408.28
-8034.09
-529.246
-7770.86
-673.03
-8317.1
-777.742
-9376.45
-863.231
-10160.8
-1028.92
-9105.03
-1319.91
-5352.51
-1643.31
-1716.7
-1861.76
-146.941
-2065.13
1370.66
-2468.49
3508.68
-3176.56
6756.2
-4303.47
12125.2
-5979.79
20914.9
-7990.9
33918.4
47836.2
265.431
-337.233
269.892
-330.976
274.598
-335.71
279.289
-347.639
283.989
-364.632
288.752
-387.153
293.68
-415.397
298.887
-450.149
304.442
-492.46
310.26
-542.923
315.961
-601.871
321.303
-667.68
326.288
-737.799
331.788
-809.683
342.796
-870.506
363.759
-932.255
381.749
-1108.13
370.853
-1539.31
330.154
-2149.33
286.829
-2673.46
254.389
-3009.12
229.64
-3239.07
218.385
-3367.82
224.797
-3267.53
240.968
-3009.09
261.503
-2734.7
284.826
-2506.46
306.228
-2319
321.003
-2162.64
326.628
-2075.54
318.429
-2110.12
292.248
-2264.65
253.305
-2458.53
210.395
-2525.9
163.182
-2377.41
104.354
-2131.12
37.3592
-1982.57
-25.1569
-1939.03
-75.7362
-1861.29
-116.418
-1779.1
-152.584
-1738.51
-187.77
-1725.68
-224.436
-1752.95
-262.415
-1811.52
-300.898
-1885.84
-339.94
-1975.29
-381.325
-2102.74
-426.91
-2287.3
-478.957
-2530.42
-543.507
-2805.37
-628.608
-3066.96
-730.973
-3313.48
-828.208
-3641.13
-896.127
-4171.47
-928.039
-4929.64
-927.98
-5845.59
-896.661
-6837.92
-833.66
-7834.08
-745.902
-8736.62
-646.918
-9419.07
-551.445
-9749.35
-480.449
-9583.8
-468.913
-8858.77
-543.112
-7959.89
-680.59
-7633.38
-811.655
-8186.03
-888.144
-9299.96
-957.488
-10091.5
-1115.86
-8946.66
-1351.08
-5117.28
-1598.31
-1469.48
-1837.32
92.0746
-2112.9
1646.24
-2561.47
3957.26
-3315.67
7510.39
-4517.89
13327.4
-6278.17
22675.1
-8143.82
35784.1
47105
275.576
-339.538
279.642
-335.042
284.003
-340.071
288.399
-352.035
292.843
-369.076
297.392
-391.702
302.165
-420.171
307.273
-455.257
312.746
-497.933
318.479
-548.656
324.14
-607.532
329.533
-673.072
334.729
-742.995
340.516
-815.47
351.198
-881.188
370.805
-951.862
387.997
-1125.32
378.565
-1529.87
339.667
-2110.43
296.14
-2629.93
262.681
-2975.66
236.987
-3213.38
223.774
-3354.61
227.994
-3271.75
243.712
-3024.81
266.026
-2757.02
292.099
-2532.53
315.509
-2342.41
330.962
-2178.09
336.152
-2080.73
327.069
-2101.04
299.959
-2237.54
259.732
-2418.3
214.636
-2480.81
164.906
-2327.68
104.688
-2070.9
37.4623
-1915.35
-25.265
-1876.3
-76.2835
-1810.27
-117.717
-1737.67
-154.902
-1701.33
-191.208
-1689.37
-229.15
-1715.01
-268.618
-1772.05
-308.942
-1845.52
-350.174
-1934.06
-393.857
-2059.05
-441.762
-2239.39
-496.657
-2475.52
-565.338
-2736.69
-655.133
-2977.17
-759.781
-3208.83
-855.446
-3545.46
-920.912
-4106
-952.472
-4898.08
-953.431
-5844.63
-923.072
-6868.28
-861.82
-7895.33
-778.671
-8819.77
-688.24
-9509.5
-604.829
-9832.76
-550.373
-9638.25
-561.862
-8847.28
-657.548
-7864.21
-797.377
-7493.55
-909.046
-8074.36
-965.171
-9243.84
-1030.98
-10025.7
-1195.17
-8782.46
-1422.44
-4890.02
-1644.76
-1247.16
-1877.02
324.329
-2184.11
1953.32
-2679.98
4453.13
-3501.29
8331.71
-4819.73
14645.8
-6650.84
24506.3
-8129.29
37262.5
45531.9
286.911
-341.778
290.639
-338.77
294.684
-344.116
298.805
-356.156
303.027
-373.298
307.406
-396.082
312.072
-424.837
317.116
-460.301
322.524
-503.341
328.173
-554.305
333.773
-613.133
339.169
-678.469
344.494
-748.319
350.525
-821.502
360.976
-891.638
379.313
-970.199
395.607
-1141.62
387.469
-1521.74
350.406
-2073.37
306.835
-2586.36
272.281
-2941.11
245.311
-3186.41
229.852
-3339.15
231.671
-3273.57
246.904
-3040.04
271.311
-2781.42
300.562
-2561.78
326.259
-2368.11
342.484
-2194.32
347.161
-2085.41
336.911
-2090.79
308.43
-2209.05
266.518
-2376.39
218.986
-2433.28
166.534
-2275.22
104.697
-2009.06
37.2061
-1847.85
-25.563
-1813.53
-76.797
-1759.04
-118.729
-1695.73
-156.722
-1663.33
-193.989
-1652.11
-233.071
-1675.93
-273.878
-1731.25
-315.806
-1803.59
-358.879
-1890.99
-404.538
-2013.39
-454.669
-2189.26
-512.519
-2417.67
-585.306
-2663.91
-679.388
-2883.08
-786.1
-3102.12
-881.172
-3450.39
-946.053
-4041.12
-978.762
-4865.37
-981.646
-5841.75
-953.14
-6896.79
-894.806
-7953.67
-817.832
-8896.75
-737.945
-9589.39
-668.785
-9901.92
-632.877
-9674.16
-667.911
-8812.25
-782.542
-7749.57
-921.598
-7354.49
-1014.66
-7981.3
-1054.55
-9203.95
-1119.63
-9960.58
-1286.61
-8615.48
-1500.32
-4676.3
-1703.1
-1044.38
-1938.41
559.642
-2276.72
2291.63
-2826.19
5002.6
-3737.85
9243.37
-5177.67
16085.7
-7007.02
26335.6
-8116.54
38372
43872.5
297.7
-343.946
301.127
-342.197
304.887
-347.876
308.785
-360.054
312.857
-377.369
317.155
-400.38
321.786
-429.468
326.808
-465.322
332.164
-508.697
337.725
-559.866
343.254
-618.662
348.642
-683.857
354.066
-753.743
360.251
-827.687
370.35
-901.737
387.324
-987.173
402.59
-1156.88
395.724
-1514.87
360.859
-2038.5
317.7
-2543.2
282.191
-2905.6
253.936
-3158.16
236.166
-3321.38
235.38
-3272.78
250.063
-3054.73
276.753
-2808.11
309.332
-2594.36
337.285
-2396.06
354.13
-2211.16
357.994
-2089.27
346.186
-2078.98
316.085
-2178.95
272.461
-2332.76
222.555
-2383.37
167.385
-2220.05
103.932
-1945.61
36.304
-1780.23
-26.3249
-1750.91
-77.6635
-1707.7
-120.03
-1653.37
-158.82
-1624.54
-197.146
-1613.78
-237.446
-1635.63
-279.523
-1689.17
-322.878
-1760.24
-367.612
-1846.25
-415.134
-1965.87
-467.429
-2136.97
-528.194
-2356.91
-604.979
-2587.12
-702.99
-2785.07
-811.282
-2993.83
-905.589
-3356.09
-970.1
-3976.61
-1004.26
-4831.22
-1009.35
-5836.65
-983.207
-6922.94
-928.865
-8008.01
-859.887
-8965.72
-792.899
-9656.37
-740.494
-9954.33
-725.377
-9689.28
-784.055
-8753.57
-913.343
-7620.29
-1045.72
-7222.12
-1118.59
-7908.43
-1146.03
-9176.5
-1214.73
-9891.88
-1384.52
-8445.69
-1582.43
-4478.39
-1767.28
-859.523
-2011.83
804.186
-2387.78
2667.58
-3004
5618.83
-4023.57
10262.9
-5564.67
17626.8
-7303.56
28074.5
-7931.68
39000.2
41328.7
308.348
-346.055
311.53
-345.378
315.06
-351.407
318.792
-363.787
322.78
-381.356
327.06
-404.659
331.699
-434.107
336.712
-470.335
342.014
-513.999
347.485
-565.337
352.944
-624.12
358.319
-689.232
363.803
-759.227
370.052
-833.936
379.746
-911.431
395.414
-1002.84
409.64
-1171.11
403.897
-1509.13
371.314
-2005.92
328.905
-2500.79
292.596
-2869.29
263
-3128.56
242.846
-3301.22
239.345
-3269.28
253.483
-3068.86
282.615
-2837.25
318.616
-2630.36
348.804
-2426.25
366.197
-2228.55
369.077
-2092.15
355.361
-2065.27
323.279
-2146.87
277.745
-2287.23
225.444
-2331.07
167.582
-2162.19
102.516
-1880.55
34.8323
-1712.54
-27.4821
-1688.59
-78.7936
-1656.39
-121.487
-1610.67
-160.926
-1585.1
-200.15
-1574.56
-241.524
-1594.26
-284.741
-1645.95
-329.395
-1715.58
-375.693
-1799.96
-425.002
-1916.56
-479.396
-2082.58
-543.03
-2293.27
-623.677
-2506.48
-725.242
-2683.51
-834.809
-2884.26
-928.649
-3262.25
-993.54
-3911.72
-1029.78
-4794.98
-1037.51
-5828.91
-1014.34
-6946.11
-965.13
-8057.22
-905.92
-9024.93
-854.04
-9708.25
-820.745
-9987.62
-828.323
-9681.7
-909.684
-8672.21
-1048.3
-7481.67
-1168.87
-7101.55
-1222.09
-7855.21
-1241.97
-9156.62
-1318.2
-9815.66
-1490.95
-8272.94
-1672.68
-4296.66
-1842.44
-689.763
-2100.77
1062.52
-2521.69
3088.5
-3218.05
6315.19
-4348.34
11393.2
-5944.52
19222.9
-7502.92
29632.9
-7665.69
39162.9
38686.9
318.8
-348.12
321.793
-348.37
325.151
-354.765
328.779
-367.415
332.741
-385.319
337.049
-408.968
341.718
-438.777
346.722
-475.338
351.966
-519.244
357.354
-570.724
362.748
-629.515
368.106
-694.59
373.615
-764.735
379.86
-840.181
389.098
-920.669
403.471
-1017.21
416.619
-1184.26
411.876
-1504.38
381.653
-1975.69
340.313
-2459.45
303.401
-2832.38
272.48
-3097.64
249.904
-3278.65
243.618
-3262.99
257.257
-3082.5
288.959
-2868.95
328.391
-2669.79
360.704
-2458.57
378.493
-2246.34
380.168
-2093.83
364.197
-2049.3
329.801
-2112.48
282.159
-2239.59
227.42
-2276.33
166.91
-2101.68
100.319
-1813.96
32.7371
-1644.96
-29.061
-1626.79
-80.2194
-1605.23
-123.185
-1567.71
-163.216
-1545.07
-203.267
-1534.51
-245.623
-1551.9
-289.888
-1601.69
-335.757
-1669.71
-383.518
-1752.2
-434.491
-1865.59
-490.864
-2026.2
-557.282
-2226.86
-641.625
-2422.13
-746.378
-2578.75
-856.958
-2773.68
-950.553
-3168.65
-1016.35
-3845.92
-1055.1
-4756.23
-1065.87
-5818.14
-1046.32
-6965.65
-1003.44
-8100.1
-955.807
-9072.56
-921.293
-9742.77
-909.52
-9999.4
-941.435
-9649.78
-1043.61
-8570.03
-1185.66
-7339.62
-1289.94
-6997.28
-1324.76
-7820.39
-1341.82
-9139.56
-1429.27
-9728.2
-1606.24
-8095.98
-1773.68
-4129.22
-1932.57
-530.877
-2210.45
1340.4
-2685.46
3563.5
-3470.89
7100.63
-4699.39
12621.7
-6295.23
20818.8
-7609.34
30947
-7295.51
38849.1
35516.6
329.09
-350.162
331.963
-351.244
335.224
-358.026
338.816
-371.007
342.8
-389.303
347.154
-413.322
351.85
-443.472
356.835
-480.324
362.024
-524.432
367.34
-576.041
372.683
-634.857
378.016
-699.923
383.507
-770.226
389.677
-846.351
398.432
-929.425
411.577
-1030.36
423.647
-1196.33
419.746
-1500.48
391.861
-1947.81
351.849
-2419.44
314.552
-2795.08
282.356
-3065.44
257.357
-3253.65
248.271
-3253.91
261.508
-3095.74
295.895
-2903.33
338.711
-2712.61
372.986
-2492.84
390.96
-2264.31
391.161
-2094.03
372.575
-2030.71
335.523
-2075.42
285.57
-2189.64
228.358
-2219.12
165.291
-2038.61
97.3196
-1745.98
30.0221
-1577.66
-31.0517
-1565.72
-81.9255
-1554.35
-125.097
-1524.54
-165.641
-1504.53
-206.428
-1493.72
-249.657
-1508.67
-294.861
-1556.48
-341.826
-1622.75
-390.926
-1703.1
-443.445
-1813.07
-501.708
-1967.94
-570.838
-2157.73
-658.689
-2334.28
-766.283
-2471.16
-877.709
-2662.25
-971.379
-3074.98
-1038.63
-3778.68
-1080.33
-4714.52
-1094.55
-5803.92
-1079.33
-6980.88
-1043.94
-8135.49
-1009.67
-9106.84
-994.696
-9757.74
-1006.66
-9987.43
-1063.82
-9592.62
-1183.66
-8450.19
-1322.82
-7200.46
-1407.39
-6912.71
-1426.2
-7801.58
-1445.39
-9120.37
-1547.69
-9625.9
-1731.12
-7912.54
-1888.76
-3971.58
-2043.35
-376.286
-2347.28
1644.33
-2883.71
4099.93
-3759.24
7976.16
-5060.43
13922.9
-6597.69
22356.1
-7616.83
31966.1
-6839.89
38072.2
32099.9
339.254
-352.199
342.079
-354.068
345.324
-361.271
348.941
-374.624
352.969
-393.331
357.363
-417.715
362.07
-448.18
367.032
-485.286
372.175
-529.576
377.439
-581.304
382.737
-640.155
388.031
-705.217
393.465
-775.66
399.503
-852.389
407.759
-937.68
419.735
-1042.34
430.739
-1207.33
427.532
-1497.28
401.915
-1922.19
363.429
-2380.96
325.971
-2757.62
292.595
-3032.07
265.21
-3226.26
253.357
-3242.05
266.315
-3108.7
303.48
-2940.5
349.584
-2758.71
385.59
-2528.85
403.449
-2282.17
401.831
-2092.41
380.263
-2009.14
340.24
-2035.4
287.791
-2137.19
228.086
-2159.41
162.591
-1973.12
93.4555
-1676.85
26.6713
-1510.88
-33.463
-1505.58
-83.9226
-1503.9
-127.239
-1481.22
-168.222
-1463.55
-209.642
-1452.3
-253.618
-1464.7
-299.647
-1510.46
-347.603
-1574.79
-397.939
-1652.76
-451.907
-1759.1
-511.982
-1907.86
-583.736
-2085.97
-674.889
-2243.13
-785
-2361.05
-897.157
-2550.1
-991.207
-2980.93
-1060.38
-3709.5
-1105.45
-4669.46
-1123.55
-5785.82
-1113.35
-6991.08
-1086.65
-8162.19
-1067.43
-9126.06
-1074.05
-9751.12
-1111.61
-9949.87
-1193.92
-9510.31
-1327.07
-8317.04
-1457.18
-7070.35
-1520.04
-6849.84
-1526.12
-7795.5
-1552.26
-9094.23
-1672.85
-9505.31
-1866.07
-7719.33
-2020.48
-3817.17
-2178.78
-217.984
-2515.13
1980.69
-3116.82
4701.61
-4074.35
8933.69
-5413.58
15262.1
-6837.83
23780.3
-7530.21
32658.5
-6322.65
36864.6
28483.3
349.346
-354.247
352.188
-356.91
355.493
-364.576
359.174
-378.304
363.248
-397.405
367.662
-422.129
372.366
-452.884
377.307
-490.227
382.422
-534.691
387.65
-586.531
392.903
-645.408
398.135
-710.449
403.471
-780.997
409.335
-858.253
417.089
-945.435
427.971
-1053.22
437.937
-1217.3
435.276
-1494.62
411.802
-1898.72
374.975
-2344.13
337.575
-2720.22
303.145
-2997.64
273.45
-3196.57
258.908
-3227.51
271.72
-3121.51
311.731
-2980.51
360.983
-2807.97
398.424
-2566.29
415.774
-2299.52
411.902
-2088.54
386.975
-1984.22
343.706
-1992.13
288.624
-2082.1
226.448
-2097.24
158.713
-1905.38
88.696
-1606.83
22.6906
-1444.87
-36.2885
-1446.61
-86.2023
-1453.98
-129.595
-1437.83
-170.939
-1422.2
-212.885
-1410.35
-257.478
-1420.1
-304.217
-1463.72
-353.062
-1525.95
-404.536
-1601.29
-459.862
-1703.78
-521.677
-1846.05
-595.956
-2011.69
-690.187
-2148.9
-802.511
-2248.72
-915.335
-2437.27
-1010.09
-2886.18
-1081.64
-3637.95
-1130.45
-4620.65
-1152.89
-5763.38
-1148.45
-6995.53
-1131.56
-8179.07
-1128.97
-9128.65
-1158.96
-9721.13
-1223.39
-9885.44
-1329.5
-9404.2
-1470.58
-8175.97
-1586.14
-6954.78
-1626.86
-6809.13
-1624.17
-7798.19
-1661.82
-9056.57
-1803.98
-9363.15
-2011.09
-7512.22
-2170.36
-3657.9
-2341.08
-47.2676
-2714.86
2354.47
-3380.77
5367.52
-4404.06
9956.97
-5742.27
16600.4
-7007
25045
-7356.89
33008.4
-5755.37
35263.1
24663.7
359.451
-356.315
362.352
-359.811
365.756
-367.98
369.511
-382.06
373.62
-401.514
378.039
-426.548
382.736
-457.581
387.667
-495.158
392.769
-539.793
397.967
-591.73
403.166
-650.606
408.311
-715.594
413.516
-786.202
419.175
-863.912
426.437
-952.696
436.298
-1063.08
445.263
-1226.26
443.012
-1492.37
421.519
-1877.23
386.418
-2309.03
349.272
-2683.08
313.937
-2962.3
282.046
-3164.68
264.929
-3210.39
277.727
-3134.31
320.609
-3023.39
372.817
-2860.17
411.32
-2604.79
427.667
-2315.87
421.024
-2081.9
392.358
-1955.55
345.633
-1945.41
287.851
-2024.32
223.287
-2032.67
153.563
-1835.66
83.0144
-1536.28
18.087
-1379.95
-39.5284
-1388.99
-88.7676
-1404.74
-132.156
-1394.44
-173.779
-1380.58
-216.145
-1367.99
-261.223
-1375.03
-308.562
-1416.38
-358.199
-1476.31
-410.717
-1548.77
-467.316
-1647.18
-530.8
-1782.57
-607.496
-1935
-704.568
-2051.83
-818.829
-2134.46
-932.295
-2323.81
-1028.07
-2790.41
-1102.4
-3563.62
-1155.32
-4567.73
-1182.57
-5736.12
-1184.61
-6993.49
-1178.59
-8185.09
-1194
-9113.24
-1248.78
-9666.35
-1340.53
-9793.7
-1467.81
-9276.92
-1610.87
-8032.91
-1707.57
-6858.08
-1727.23
-6789.47
-1720.16
-7805.26
-1773.4
-9003.33
-1940.07
-9196.48
-2165.66
-7286.63
-2338.49
-3485.08
-2529.85
144.097
-2943.85
2768.47
-3667.89
6091.56
-4734.54
11023.6
-6032.37
17898.2
-7102.38
26115
-7112.37
33018.4
-5170.34
33321.1
20663.2
369.67
-358.391
372.619
-362.761
376.113
-371.474
379.935
-385.881
384.067
-405.646
388.489
-430.97
393.186
-462.279
398.119
-500.091
403.214
-544.888
408.379
-596.895
413.508
-655.735
418.544
-720.63
423.594
-791.253
429.03
-869.347
435.815
-959.481
444.73
-1071.99
452.737
-1234.27
450.769
-1490.4
431.07
-1857.53
397.7
-2275.66
360.968
-2646.34
324.888
-2926.22
290.943
-3130.73
271.393
-3190.84
284.297
-3147.21
330.022
-3069.12
384.933
-2915.08
424.036
-2643.89
438.786
-2330.62
428.785
-2071.89
396.016
-1922.78
345.709
-1895.1
285.254
-1963.87
218.465
-1965.89
147.077
-1764.27
76.4084
-1465.61
12.8829
-1316.42
-43.1732
-1332.93
-91.6123
-1356.3
-134.902
-1351.15
-176.717
-1338.77
-219.397
-1325.31
-264.835
-1329.59
-312.668
-1368.55
-363.002
-1425.97
-416.469
-1495.3
-474.258
-1589.39
-539.346
-1717.48
-618.341
-1856
-718.012
-1952.16
-833.954
-2018.52
-948.067
-2209.69
-1045.15
-2693.32
-1122.63
-3486.14
-1180.02
-4510.33
-1212.59
-5703.55
-1221.82
-6984.26
-1227.62
-8179.29
-1262.13
-9078.73
-1342.59
-9585.89
-1461.16
-9675.13
-1605.83
-9132.25
-1744.96
-7893.78
-1819.99
-6783.05
-1821.04
-6788.42
-1814.03
-7812.27
-1886.24
-8931.12
-2079.9
-9002.81
-2328.59
-7037.94
-2523.12
-3290.55
-2742.01
362.987
-3196.37
3222.83
-3967.94
6863.13
-5052.06
12107.7
-6273.1
19119.2
-7122.31
26964.2
-6797.72
32693.8
-4596.07
31119.4
16940.8
380.098
-360.442
383.029
-365.692
386.558
-375.002
390.426
-389.749
394.583
-409.803
399.019
-435.406
403.728
-466.988
408.668
-505.031
413.751
-549.971
418.869
-602.013
423.912
-660.778
428.822
-725.54
433.705
-796.135
438.909
-874.552
445.237
-965.81
453.278
-1080.03
460.375
-1241.37
458.575
-1488.6
440.466
-1839.42
408.776
-2243.97
372.581
-2610.15
335.906
-2889.55
300.06
-3094.89
278.236
-3169.02
291.354
-3160.33
339.843
-3117.61
397.117
-2972.36
436.26
-2683.04
448.728
-2343.09
434.742
-2057.91
397.544
-1885.58
343.619
-1841.17
280.625
-1900.87
211.87
-1897.13
139.218
-1691.62
68.8949
-1395.29
7.10808
-1254.63
-47.2133
-1278.61
-94.7328
-1308.78
-137.818
-1308.06
-179.733
-1296.85
-222.625
-1282.41
-268.306
-1283.91
-316.531
-1320.32
-367.47
-1375.04
-421.789
-1440.98
-480.683
-1530.49
-547.309
-1650.85
-628.479
-1774.83
-730.499
-1850.14
-847.891
-1901.13
-962.676
-2094.91
-1061.35
-2594.65
-1142.3
-3405.18
-1204.54
-4448.1
-1242.93
-5665.17
-1260.06
-6967.13
-1278.48
-8160.87
-1332.82
-9024.39
-1439.17
-9479.54
-1583.1
-9531.2
-1740.67
-8974.68
-1870.56
-7763.89
-1922.8
-6730.82
-1908.69
-6802.53
-1905.85
-7815.11
-1999.52
-8837.45
-2222.09
-8780.24
-2497.99
-6762.04
-2720.75
-3067.79
-2972.04
614.277
-3464.34
3715.13
-4269.46
7668.26
-5344.16
13182.4
-6456.85
20231.9
-7068.55
27575.9
-6428.16
32053.4
-4033.54
28724.8
13498.8
390.79
-362.422
393.608
-368.51
397.096
-378.491
400.985
-393.637
405.175
-413.993
409.639
-439.87
414.368
-471.717
419.31
-509.973
424.365
-555.026
429.418
-607.066
434.361
-665.722
439.138
-730.317
443.851
-800.847
448.824
-879.525
454.717
-971.702
461.95
-1087.27
468.188
-1247.6
466.456
-1486.87
449.726
-1822.69
419.62
-2213.86
384.037
-2574.57
346.894
-2852.4
309.295
-3057.29
285.368
-3145.09
298.796
-3173.76
349.918
-3168.73
409.123
-3031.56
447.636
-2721.55
457.05
-2352.5
438.444
-2039.3
396.552
-1843.69
339.064
-1783.69
273.776
-1835.59
203.424
-1826.78
129.987
-1618.18
60.517
-1325.82
0.804717
-1194.92
-51.6321
-1226.18
-98.1188
-1262.3
-140.884
-1265.3
-182.807
-1254.93
-225.813
-1239.41
-271.626
-1238.09
-320.151
-1271.8
-371.599
-1323.59
-426.669
-1385.91
-486.581
-1470.58
-554.67
-1582.76
-637.884
-1691.62
-742.005
-1746.01
-860.635
-1782.5
-976.136
-1979.41
-1076.65
-2494.13
-1161.39
-3320.44
-1228.83
-4380.65
-1273.57
-5620.43
-1299.27
-6941.43
-1330.94
-8129.2
-1405.37
-8949.96
-1537.09
-9347.82
-1704.05
-9364.24
-1869.87
-8808.85
-1986.39
-7647.37
-2016.23
-6700.98
-1990.9
-6827.85
-1995.72
-7810.3
-2112.36
-8720.81
-2365.07
-8527.54
-2671.25
-6455.86
-2926.6
-2812.44
-3212.88
900.552
-3738.23
4240.49
-4560.98
8491
-5600.52
14222
-6579.23
21210.6
-6944.95
27941.7
-6012.97
31121.4
-3487.62
26199.5
10474.8
401.763
-364.302
404.388
-371.136
407.758
-381.861
411.631
-397.51
415.855
-418.217
420.355
-444.37
425.101
-476.464
430.031
-514.902
435.038
-560.032
440.009
-612.037
444.844
-670.557
449.489
-734.962
454.037
-805.395
458.785
-884.272
464.265
-977.183
470.756
-1093.76
476.186
-1253.03
474.434
-1485.11
458.876
-1807.13
430.221
-2185.21
395.276
-2539.62
357.75
-2814.88
318.53
-3018.07
292.67
-3119.23
306.503
-3187.59
360.081
-3222.31
420.686
-3092.17
457.784
-2758.65
463.294
-2358.01
439.452
-2015.46
392.671
-1796.91
331.764
-1722.78
264.558
-1768.38
193.097
-1755.32
119.426
-1544.51
51.3439
-1257.74
-5.97537
-1137.6
-56.4078
-1175.74
-101.757
-1216.95
-144.084
-1222.97
-185.925
-1213.09
-228.954
-1196.38
-274.798
-1192.25
-323.528
-1223.07
-375.388
-1271.73
-431.1
-1330.2
-491.936
-1409.75
-561.406
-1513.29
-646.514
-1606.51
-752.485
-1640.04
-872.165
-1662.82
-988.443
-1863.13
-1091.04
-2391.54
-1179.84
-3231.64
-1252.85
-4307.64
-1304.49
-5568.79
-1339.4
-6906.52
-1384.71
-8083.89
-1478.98
-8855.68
-1634.69
-9192.11
-1821.74
-9177.18
-1991.6
-8639
-2092.14
-7546.83
-2101.19
-6691.93
-2068.55
-6860.5
-2083.62
-7795.22
-2223.85
-8580.58
-2507.11
-8244.27
-2845.17
-6117.8
-3135.03
-2522.58
-3456.49
1222.02
-4008.19
4792.18
-4831.99
9314.8
-5813.23
15203.2
-6638.81
22036.2
-6758.44
28061.3
-5567.52
29930.5
-2959
23590.9
7746.93
413.003
-366.096
415.406
-373.539
418.587
-385.042
422.393
-401.316
426.632
-422.457
431.164
-448.901
435.917
-481.217
440.815
-519.8
445.753
-564.97
450.629
-616.913
455.354
-675.282
459.876
-739.483
464.272
-809.792
468.802
-888.803
473.893
-982.274
479.703
-1099.57
484.378
-1257.71
482.533
-1483.27
467.95
-1792.55
440.588
-2157.84
406.252
-2505.28
368.384
-2777.01
327.64
-2977.32
300.015
-3091.61
314.344
-3201.92
370.142
-3278.1
431.505
-3153.53
466.286
-2793.43
466.988
-2358.72
437.337
-1985.81
385.54
-1745.11
321.456
-1658.7
252.866
-1699.79
180.914
-1683.36
107.619
-1471.22
41.4687
-1191.59
-13.1724
-1082.96
-61.5104
-1127.41
-105.626
-1172.83
-147.398
-1181.2
-189.073
-1171.41
-232.043
-1153.41
-277.822
-1146.47
-326.665
-1174.22
-378.836
-1219.56
-435.075
-1273.96
-496.732
-1348.09
-567.479
-1442.55
-654.306
-1519.68
-761.864
-1532.49
-882.426
-1542.26
-999.561
-1746
-1104.46
-2286.64
-1197.59
-3138.52
-1276.55
-4228.68
-1335.65
-5509.69
-1380.36
-6861.81
-1439.47
-8024.78
-1552.72
-8742.43
-1730.26
-9014.57
-1934.1
-8973.35
-2104.69
-8468.41
-2188.4
-7463.11
-2179.08
-6701.25
-2142.4
-6897.18
-2169.35
-7768.28
-2332.94
-8416.99
-2646.24
-7930.97
-3016.03
-5748.02
-3340.01
-2198.6
-3694.73
1576.75
-4264.82
5362.27
-5073.61
10123.6
-5976.89
16106.5
-6636.71
22696
-6517.98
27942.6
-5105.22
28517.8
-2458
20943.7
5319.96
424.454
-367.845
426.665
-375.75
429.619
-387.996
433.301
-404.997
437.514
-426.67
442.055
-453.443
446.796
-485.957
451.642
-524.647
456.497
-569.825
461.273
-621.69
465.894
-679.903
470.303
-743.893
474.561
-814.05
478.886
-893.128
483.612
-987
488.798
-1104.75
492.77
-1261.68
490.775
-1481.27
476.986
-1778.76
450.739
-2131.6
416.936
-2471.48
378.708
-2738.78
336.496
-2935.11
307.265
-3062.38
322.165
-3216.82
379.853
-3335.79
441.197
-3214.88
472.658
-2824.89
467.637
-2353.69
431.663
-1949.84
374.789
-1688.24
307.911
-1591.82
238.668
-1630.55
166.966
-1611.66
94.6922
-1398.94
30.9974
-1127.89
-20.7296
-1031.23
-66.9075
-1081.23
-109.702
-1130.04
-150.809
-1140.09
-192.245
-1129.98
-235.079
-1110.58
-280.701
-1100.85
-329.566
-1125.36
-381.942
-1167.18
-438.589
-1217.31
-500.952
-1285.73
-572.843
-1370.66
-661.167
-1431.36
-770.021
-1423.63
-891.305
-1420.97
-1009.4
-1627.9
-1116.84
-2179.19
-1214.55
-3040.8
-1299.86
-4143.37
-1367.02
-5442.54
-1422.07
-6806.77
-1494.87
-7951.97
-1625.63
-8611.67
-1822.07
-8818.13
-2039.26
-8756.16
-2208.53
-8299.14
-2276.31
-7395.33
-2251.54
-6726.03
-2213.23
-6935.49
-2252.59
-7728.92
-2438.56
-8231.02
-2780.28
-7589.25
-3179.99
-5348.31
-3535.8
-1842.8
-3920.07
1961.01
-4499.9
5942.11
-5278.87
10902.6
-6088.58
16916.2
-6576.38
23183.8
-6233.24
27599.4
-4633.82
26918.3
-1976.31
18286.2
3241.64
436.037
-369.602
438.123
-377.836
440.862
-390.735
444.371
-408.506
448.501
-430.801
453.013
-457.955
457.718
-490.663
462.497
-529.426
467.262