/*--------------------------------*- C++ -*----------------------------------*\
| =========                 |                                                 |
| \\      /  F ield         | OpenFOAM: The Open Source CFD Toolbox           |
|  \\    /   O peration     | Version:  4.1                                   |
|   \\  /    A nd           | Web:      www.OpenFOAM.org                      |
|    \\/     M anipulation  |                                                 |
\*---------------------------------------------------------------------------*/
FoamFile
{
    version     2.0;
    format      ascii;
    class       volVectorField;
    location    "14";
    object      U;
}
// * * * * * * * * * * * * * * * * * * * * * * * * * * * * * * * * * * * * * //

dimensions      [0 1 -1 0 0 0 0];

internalField   nonuniform List<vector> 
6785
(
(2.09436e-14 -0.835788 16.1468)
(1.44826e-14 -6.69538 12.5221)
(-5.38594e-15 -4.778 12.9158)
(6.85235e-15 -4.28347 12.6614)
(3.19987e-15 -3.65902 12.4898)
(-3.75657e-15 -3.18245 12.2602)
(4.53242e-15 -2.78634 11.9979)
(1.39945e-15 -2.48702 11.6904)
(-3.67135e-16 -2.28912 11.3409)
(4.38202e-15 -2.17685 10.977)
(1.00101e-15 -2.14582 10.6297)
(-1.3843e-15 -2.36999 10.2123)
(4.47655e-15 -2.86039 9.61784)
(-8.58745e-16 -2.19442 9.09556)
(-8.54993e-15 0.772262 7.19407)
(3.90202e-14 -7.70561 26.2652)
(2.61408e-14 -16.605 21.9241)
(-6.01846e-15 -11.5438 22.4017)
(2.20743e-14 -11.9202 20.9358)
(2.3763e-15 -10.908 19.9553)
(2.2983e-15 -10.2175 18.8978)
(1.7933e-14 -9.50174 17.8486)
(6.91179e-16 -8.81562 16.7867)
(6.64887e-15 -8.15553 15.6989)
(1.80433e-14 -7.50848 14.5885)
(9.13329e-17 -6.84562 13.5252)
(7.83068e-15 -6.23077 12.4912)
(1.83873e-14 -5.49179 10.706)
(-9.57592e-15 -3.20874 6.25472)
(-8.13434e-15 0.806578 -1.35737)
(2.35774e-14 -10.3158 27.8903)
(2.8162e-14 -17.6699 24.074)
(-7.97423e-15 -11.7564 24.5988)
(1.29416e-15 -12.8584 22.315)
(3.52386e-15 -11.2455 21.2117)
(-6.48378e-16 -10.5548 19.7213)
(-2.81805e-15 -9.6735 18.3292)
(4.00766e-15 -8.8999 16.9273)
(1.05473e-15 -8.1923 15.5961)
(-6.88038e-15 -7.58089 14.3608)
(8.45571e-15 -7.02153 13.207)
(2.95285e-15 -6.35284 11.9211)
(-1.90671e-14 -4.84325 9.26304)
(-1.30584e-15 -1.20029 2.52963)
(-1.10588e-14 -0.0149871 -4.24661)
(3.5775e-14 -11.1972 26.7294)
(1.93971e-14 -17.2315 23.4069)
(2.55458e-16 -11.5286 23.8738)
(-9.69185e-16 -13.2851 20.973)
(-7.65798e-15 -11.2141 19.9858)
(9.43339e-15 -10.7834 18.1747)
(-8.25445e-15 -9.82058 16.6575)
(-1.03473e-14 -9.05703 15.0834)
(1.34371e-14 -8.33998 13.6433)
(-4.18539e-15 -7.80067 12.4174)
(-1.2302e-14 -7.42653 11.3971)
(1.67803e-14 -7.05009 10.2976)
(1.39166e-15 -6.24882 8.63282)
(-3.82566e-14 -4.358 5.47071)
(6.5755e-16 -3.14797 1.86423)
(2.89728e-14 -11.8573 26.3552)
(-4.0126e-16 -16.6967 23.3823)
(-6.33918e-15 -11.5909 23.7612)
(-1.0156e-14 -13.3311 20.7409)
(-2.3907e-14 -10.9214 19.8583)
(-1.91593e-15 -10.5871 17.8956)
(-1.92977e-14 -9.39016 16.4157)
(-2.85071e-14 -8.49631 14.7729)
(-9.96836e-15 -7.41843 13.0203)
(-3.97535e-14 -6.2627 10.9193)
(-6.69096e-14 -5.37777 8.95464)
(-3.61292e-14 -5.34767 8.1155)
(-4.74349e-14 -5.61332 7.96297)
(-9.34571e-14 -5.34228 7.48282)
(-5.76092e-14 -4.84625 6.40967)
(3.51517e-14 -12.5308 26.7092)
(1.02405e-16 -16.6451 24.338)
(2.08512e-15 -11.9105 24.397)
(-1.32091e-14 -13.4102 21.5565)
(-1.55287e-14 -10.838 20.7392)
(4.17875e-15 -10.5786 18.7705)
(-2.21116e-14 -9.19551 17.4558)
(-1.54993e-14 -8.25277 15.7827)
(-1.93762e-14 -6.71394 13.5526)
(-5.71413e-14 -4.57157 10.0763)
(-3.87723e-14 -2.32127 6.26804)
(2.17336e-14 -1.29315 4.22565)
(4.91271e-14 -2.18862 5.13601)
(2.91957e-14 -4.13045 7.80126)
(-7.95793e-15 -4.19939 8.01044)
(4.95267e-14 -12.7047 26.2788)
(1.07952e-14 -17.3648 26.1059)
(1.78603e-14 -12.4878 25.2015)
(-1.3533e-14 -13.9948 22.427)
(-6.02674e-15 -11.3545 21.7129)
(2.29653e-14 -11.3434 19.6998)
(-2.13214e-14 -9.92151 18.5214)
(-3.0689e-15 -9.17849 16.9204)
(1.20004e-14 -7.78644 14.9143)
(-4.96185e-14 -5.70212 11.5882)
(-1.63452e-14 -2.97038 7.2967)
(3.1303e-14 -0.318934 3.25444)
(-4.25332e-14 1.57897 0.601261)
(-6.58672e-14 0.990211 0.958887)
(-5.70824e-15 -0.842933 2.95026)
(3.87231e-14 -12.2311 24.4403)
(1.72102e-14 -17.7969 27.3905)
(1.76168e-14 -13.3695 25.5941)
(-9.653e-15 -14.2596 22.7301)
(-7.60785e-15 -12.0877 21.8491)
(1.91875e-14 -11.9621 19.9393)
(-9.02941e-15 -10.808 18.6659)
(-7.57931e-15 -10.1378 17.1554)
(9.35998e-15 -9.17905 15.5206)
(-1.75066e-14 -7.84024 13.2547)
(-2.12301e-14 -5.95592 10.2628)
(9.19628e-16 -3.55881 6.72657)
(-2.88195e-14 -0.320593 2.48061)
(-1.63571e-13 2.70217 -1.75914)
(-2.2154e-13 1.14067 -2.99816)
(3.76753e-14 -11.465 22.0543)
(2.13555e-14 -17.5586 27.5937)
(5.25656e-15 -13.886 25.4914)
(-2.31071e-15 -14.0248 22.4275)
(-7.69695e-15 -12.2603 21.2949)
(-1.25213e-15 -11.9172 19.4941)
(1.8059e-15 -10.94 18.0986)
(-5.07388e-15 -10.2202 16.591)
(-1.42319e-14 -9.42648 15.0667)
(-2.39754e-15 -8.48241 13.3404)
(-5.66391e-15 -7.30767 11.278)
(-2.27676e-14 -5.77287 8.85025)
(-1.53026e-14 -3.82205 5.78073)
(-1.92635e-14 -1.08634 2.27496)
(-1.72856e-13 0.295959 -2.56419)
(2.3558e-14 -10.8021 20.1189)
(2.19808e-14 -16.9658 27.2164)
(1.07713e-15 -13.9642 25.1672)
(-1.28607e-14 -13.5988 21.9851)
(-9.24389e-15 -12.0034 20.6681)
(-8.59781e-15 -11.5248 18.9308)
(-1.09878e-14 -10.5855 17.4934)
(-5.28569e-15 -9.80783 15.9788)
(-1.88523e-14 -9.01372 14.4832)
(-2.18688e-14 -8.16009 12.9475)
(-5.09046e-15 -7.23053 11.2611)
(-3.1271e-14 -6.07264 9.37875)
(-4.38951e-14 -4.72233 7.02258)
(7.14699e-15 -2.62324 4.08389)
(-1.08705e-13 -0.515135 -1.4585)
(6.50184e-15 -10.4148 19)
(2.6436e-14 -16.3485 26.7055)
(-1.82032e-14 -13.9405 24.8527)
(-1.55136e-14 -13.2579 21.6753)
(-5.01281e-15 -11.773 20.2148)
(-3.7993e-14 -11.2276 18.5542)
(-1.32436e-14 -10.3381 17.1336)
(5.40234e-15 -9.55648 15.6609)
(-4.97e-14 -8.7709 14.2202)
(-3.41959e-14 -7.95544 12.7938)
(5.54509e-15 -7.12112 11.2979)
(-6.0386e-14 -6.13002 9.70494)
(-4.66338e-14 -5.0494 7.77298)
(-7.23861e-14 -3.35074 5.41819)
(-2.17424e-13 -1.04324 0.0478925)
(8.95538e-15 -10.2421 18.2947)
(3.39831e-14 -15.5652 25.6987)
(-3.28497e-14 -13.8022 24.2928)
(-1.56877e-14 -12.9892 21.2238)
(3.98548e-15 -11.5561 19.5744)
(-5.53633e-14 -10.9472 17.9677)
(-2.08071e-14 -10.1344 16.621)
(1.96954e-14 -9.40689 15.2718)
(-4.08903e-14 -8.67912 13.9511)
(-4.11155e-14 -7.93112 12.6501)
(-5.01879e-15 -7.18697 11.332)
(-6.00077e-14 -6.35334 10.0036)
(-3.6342e-14 -5.4986 8.4696)
(-7.9206e-14 -4.1302 6.70519)
(-1.72066e-13 -1.89914 1.92028)
(-5.04012e-15 -10.3547 18.0171)
(2.67255e-14 -15.1298 24.9273)
(-2.9471e-14 -13.4448 23.4432)
(-2.93214e-14 -12.8413 20.8582)
(9.06511e-15 -11.657 19.4768)
(-5.18135e-14 -11.1681 17.9509)
(-5.03756e-14 -10.4696 16.6595)
(4.5715e-14 -9.86569 15.3811)
(-5.28169e-15 -9.25149 14.1158)
(-4.42919e-14 -8.61319 12.8955)
(-6.5522e-15 -7.9635 11.725)
(-4.57957e-14 -7.25855 10.6512)
(-4.75985e-14 -6.53875 9.62347)
(-4.36925e-14 -5.49242 8.51947)
(-1.28934e-13 -3.47255 4.91378)
(-2.28905e-14 -8.89259 14.3596)
(1.47063e-14 -15.1228 23.9949)
(-3.06609e-14 -13.8471 22.8047)
(-4.0699e-14 -12.1437 19.0537)
(-1.33974e-15 -10.3045 17.01)
(-5.63215e-14 -9.58811 15.4723)
(-3.35384e-14 -8.63125 14.3679)
(3.04765e-14 -8.07712 13.2717)
(-4.27895e-14 -7.58913 12.5038)
(-6.22075e-14 -7.31373 11.9335)
(-4.41082e-14 -7.24203 11.7814)
(-5.50951e-14 -7.35211 11.9218)
(-2.99642e-14 -7.32781 11.8609)
(-3.56132e-14 -6.82677 11.3057)
(-1.06801e-13 -4.95368 8.29499)
(-3.54451e-14 -5.76152 9.85905)
(-1.78865e-14 -14.3575 21.8171)
(-1.96064e-14 -17.6027 25.4832)
(-3.14283e-14 -18.2629 24.873)
(-2.50831e-14 -17.4009 23.1852)
(-3.61803e-14 -16.2902 21.0832)
(-3.1367e-14 -14.6615 18.8094)
(-2.08842e-14 -12.7938 16.3013)
(-5.35717e-14 -10.8073 13.9279)
(-7.48058e-14 -9.12333 12.0888)
(-9.88009e-14 -7.66399 10.6303)
(-9.98604e-14 -6.62075 9.56451)
(-6.76886e-14 -6.49068 10.1244)
(-8.27369e-14 -6.80246 10.7996)
(-9.64546e-14 -4.4702 8.54614)
(-1.71201e-15 -0.00968822 -0.0820032)
(-7.88945e-15 0.0794511 -0.35438)
(-6.63015e-15 0.0999196 -0.269303)
(-6.19863e-15 0.124867 -0.303276)
(-5.25302e-15 0.133551 -0.269233)
(-8.96497e-15 0.192442 -0.318496)
(-6.54109e-15 0.195885 -0.276419)
(-5.83812e-15 0.226422 -0.317752)
(-6.02981e-15 0.233165 -0.295024)
(2.95943e-14 0.295407 -0.314721)
(2.33867e-14 0.284571 -0.245975)
(1.76874e-14 0.311074 -0.225053)
(1.43946e-14 0.362037 -0.231206)
(7.27968e-15 0.3438 -0.174698)
(4.6966e-15 0.38291 -0.19274)
(3.27295e-15 0.36741 -0.174852)
(-9.12897e-16 0.453742 -0.168309)
(1.28429e-15 0.41733 -0.133991)
(2.11828e-15 0.437398 -0.135921)
(7.07187e-16 0.515338 -0.129378)
(-1.12996e-16 0.459398 -0.105501)
(-1.80827e-15 0.511082 -0.133168)
(-1.69283e-16 0.47628 -0.125079)
(-1.46492e-16 0.611621 -0.10064)
(5.29688e-17 0.513505 -0.0792742)
(2.04426e-16 0.56591 -0.111173)
(-7.07073e-15 0.533045 -0.1096)
(-8.32069e-15 0.650507 -0.0868142)
(-5.69089e-15 0.576155 -0.071663)
(-6.35356e-15 0.599492 -0.0888429)
(-9.34966e-15 0.699277 -0.0692738)
(-8.66037e-15 0.605245 -0.0655176)
(-8.56625e-15 0.668683 -0.0975049)
(-9.09143e-15 0.626064 -0.096056)
(-1.44878e-14 0.755241 -0.0577835)
(-1.10796e-14 0.664301 -0.0531472)
(-9.61048e-15 0.689084 -0.0757692)
(-1.2684e-14 0.803433 -0.0612972)
(-8.23165e-15 0.690955 -0.070069)
(-8.3601e-15 0.765184 -0.0939703)
(-6.50741e-15 0.712581 -0.0778417)
(-7.00626e-15 0.886181 -0.0611779)
(-3.21202e-15 0.75542 -0.0609705)
(-2.90519e-15 0.826622 -0.0759254)
(-2.97029e-15 0.779548 -0.0469167)
(-3.14948e-15 0.903371 0.00555048)
(-3.23544e-15 0.814821 -0.0328983)
(-4.42023e-15 0.844627 -0.02739)
(-9.79607e-15 0.93275 0.0684939)
(-5.30062e-15 0.780675 -0.0492805)
(-1.42584e-15 0.859598 -0.0382166)
(9.7772e-17 0.810515 0.0667157)
(7.50495e-16 0.857243 0.304769)
(-1.83329e-16 0.668408 0.000827475)
(-2.76071e-15 0.728144 -0.0561698)
(3.77939e-15 0.707618 0.0177101)
(8.08695e-15 0.667315 0.0665549)
(7.29126e-15 0.476311 -0.292673)
(2.21709e-15 0.576708 -0.145283)
(-3.05728e-15 0.369213 -0.441882)
(-2.94054e-15 0.125215 -0.85899)
(-2.00661e-15 0.232266 -1.01161)
(-1.05928e-16 0.311942 -1.07421)
(3.50853e-14 0.309505 -1.67348)
(-5.23715e-15 -0.392628 0.458453)
(-3.82972e-15 -0.117599 0.490622)
(-8.16126e-15 -0.838105 2.39105)
(-8.56473e-15 -1.36853 3.36394)
(-6.20391e-15 -1.53705 3.25327)
(-8.25627e-15 -1.55707 3.4784)
(-1.45544e-14 -2.83264 6.42008)
(-1.32613e-14 -3.3393 5.92685)
(-1.43608e-14 -3.74406 6.11566)
(-1.48805e-14 -3.7875 6.39917)
(-1.75672e-14 -6.14833 10.1806)
(-1.24879e-14 -6.14919 8.23309)
(-1.33437e-14 -6.29496 8.70738)
(-1.7299e-14 -9.29626 12.8604)
(-1.28481e-14 -8.99325 9.84157)
(-1.53052e-14 -9.30149 10.6893)
(-2.73319e-14 -10.1358 13.188)
(-2.46781e-14 -9.92023 13.0582)
(-2.57036e-14 -10.0527 13.4211)
(-1.37653e-14 -11.4314 15.4034)
(-2.94893e-14 -10.8532 14.015)
(-3.30059e-14 -11.0343 14.4738)
(-3.34064e-14 -11 14.625)
(-3.31653e-14 -11.0419 14.8409)
(-3.29539e-14 -11.0618 15.0926)
(-3.16831e-14 -11.1305 15.3806)
(-2.88733e-14 -11.1814 15.6351)
(-2.5508e-14 -11.1832 15.8592)
(-1.29409e-14 -12.3066 17.8326)
(-2.36696e-14 -11.9141 16.4146)
(-2.22135e-14 -12.0177 16.7863)
(-2.25411e-14 -12.031 16.9585)
(-2.71841e-14 -12.1117 17.0858)
(-2.78563e-14 -12.1514 17.2144)
(-2.79045e-14 -12.2586 17.4374)
(-2.72956e-14 -12.3335 17.666)
(-2.53954e-14 -12.3622 17.9642)
(-2.96124e-15 -13.3175 19.9773)
(-1.5543e-14 -12.8398 18.4057)
(-1.41557e-14 -12.9348 18.7543)
(-1.39067e-14 -12.9907 18.9318)
(-1.32851e-14 -13.0585 19.1936)
(-1.16911e-14 -13.1151 19.5127)
(-1.04575e-14 -13.227 19.8333)
(-1.25916e-14 -13.269 19.9664)
(-1.38922e-14 -13.3848 20.1578)
(-1.46672e-14 -13.4123 20.3309)
(-2.90117e-15 -13.601 21.2093)
(-1.33673e-14 -13.3008 20.0394)
(-1.42222e-14 -13.3388 20.1948)
(-1.54397e-14 -13.3988 20.2169)
(-1.6308e-14 -13.4735 20.2761)
(-1.6403e-14 -13.4831 20.3356)
(-1.31122e-14 -13.5866 20.5695)
(-1.19106e-14 -13.6078 20.5655)
(-1.14789e-14 -13.6415 20.4801)
(-6.96061e-15 -12.725 19.3404)
(-1.08121e-14 -12.7747 19.0898)
(-9.92311e-15 -12.7027 19.1687)
(-9.89906e-15 -12.7798 19.2489)
(-1.01253e-14 -12.7115 19.0157)
(-1.01484e-14 -12.7466 18.8444)
(-1.02614e-14 -12.7245 18.6141)
(-1.05934e-14 -12.6763 18.4024)
(-1.18552e-14 -12.7601 18.3913)
(-4.9143e-15 -10.4401 14.8338)
(-8.45357e-15 -11.1981 16.2753)
(-8.26696e-15 -10.989 15.7745)
(-7.90608e-15 -10.9963 15.5602)
(-6.32514e-15 -10.9358 15.4241)
(-5.23562e-15 -10.859 15.1102)
(-4.41055e-15 -10.7386 14.7537)
(-3.47783e-15 -10.668 14.4153)
(-2.55011e-15 -10.5869 14.0121)
(3.72162e-15 -7.74243 9.66119)
(-6.81553e-16 -8.72748 12.687)
(-1.30109e-16 -8.33859 12.0282)
(-3.18016e-16 -8.3493 11.7592)
(-4.89351e-16 -8.15924 11.2444)
(-7.2358e-16 -8.10071 10.697)
(-3.77391e-17 -7.87227 10.0902)
(-9.96606e-16 -7.74771 9.35151)
(-1.62417e-15 -7.52198 8.43748)
(-2.51897e-15 -7.24856 7.40321)
(7.22097e-16 -3.97561 0.735582)
(-5.32103e-15 -5.37926 5.05885)
(-4.03604e-15 -4.7502 3.334)
(-2.80126e-15 -4.8655 2.72389)
(-1.1923e-15 -4.48138 1.68733)
(6.80143e-16 -4.401 0.700705)
(1.70727e-15 -4.20308 -0.875941)
(1.68338e-15 -3.80649 -2.24494)
(2.55185e-15 -3.63743 -2.11495)
(1.66401e-14 -2.63699 -5.7319)
(1.81052e-14 -2.69889 -2.66373)
(2.10159e-14 -2.26539 -3.55256)
(2.50178e-14 -1.26656 -5.00948)
(2.64134e-14 -0.978511 -6.54379)
(2.49874e-14 0.155078 -6.36156)
(1.49232e-14 1.10286 -3.86937)
(1.56164e-14 2.83753 -5.19939)
(1.08741e-14 2.874 -3.56286)
(1.20324e-14 4.10621 -4.19824)
(1.1879e-14 5.60159 -4.37309)
(6.9833e-15 5.04602 -2.73228)
(1.03342e-14 6.67786 -3.13301)
(1.41995e-14 8.30674 -2.99402)
(8.94892e-15 6.45725 -1.82358)
(1.31286e-14 9.88131 -2.14652)
(9.26314e-15 7.73367 -1.37131)
(1.07118e-14 9.08947 -1.48585)
(1.37768e-14 10.5749 -1.02712)
(8.57215e-15 7.91926 -0.585463)
(1.19413e-14 11.6908 -0.453134)
(7.6893e-15 8.75866 -0.231156)
(9.74576e-15 10.1503 -0.124407)
(1.11969e-14 10.8977 0.461684)
(7.17088e-15 8.36245 0.388295)
(9.35949e-15 10.4125 0.637167)
(8.90412e-15 10.8375 1.29163)
(5.34476e-15 7.69183 0.835637)
(7.55972e-15 10.9905 1.37614)
(5.43708e-15 7.9703 0.982816)
(6.77685e-15 8.93344 1.30287)
(6.23149e-15 9.16574 1.88129)
(3.63076e-15 6.5778 1.19903)
(5.46869e-15 9.20043 1.7791)
(3.78322e-15 6.53657 1.24902)
(5.37202e-15 7.27512 1.57222)
(2.62308e-15 7.06898 1.97203)
(6.70572e-16 5.21309 1.29534)
(1.28825e-15 6.36918 1.60965)
(-2.64107e-15 5.92668 1.93974)
(-2.50301e-15 4.05491 1.21992)
(-2.59566e-15 5.54114 1.65024)
(-1.52743e-15 3.82531 1.13687)
(-2.13187e-15 4.1249 1.37394)
(2.09723e-15 3.84286 1.52279)
(1.86294e-15 2.68019 0.952885)
(-3.25183e-15 3.63069 1.2056)
(-3.23386e-15 2.52758 0.817092)
(-2.15868e-15 2.60944 1.00003)
(-9.84989e-15 2.97746 0.416759)
(-7.47947e-15 2.32989 0.428365)
(-1.05334e-14 2.97257 -1.07762)
(-1.37398e-14 4.05567 -3.09007)
(-1.00916e-14 3.33873 -2.2092)
(-8.90006e-15 4.9421 -3.62268)
(-5.09333e-15 4.02998 -2.6789)
(-8.68831e-15 4.79061 -3.50593)
(-1.52034e-14 4.87018 -4.62312)
(-1.06644e-14 3.77458 -3.18135)
(-1.77127e-14 5.21654 -4.79426)
(-1.32302e-14 3.89987 -3.62206)
(-1.51179e-14 4.51948 -5.00377)
(-1.99955e-14 3.36515 -6.9579)
(-1.23871e-14 2.11772 -4.9806)
(-2.53312e-14 3.04477 -7.35709)
(-2.6128e-14 2.36754 -8.57236)
(-1.2069e-14 -1.78947 -1.00714)
(-1.28736e-14 0.604588 -2.89456)
(3.97808e-15 -3.17229 1.09447)
(1.02385e-14 -2.72464 2.89887)
(3.21889e-14 -9.61206 8.04111)
(3.53501e-14 -10.0174 8.58479)
(5.31407e-14 -16.6368 13.2401)
(4.92104e-14 -14.3215 12.5558)
(7.99623e-14 -22.4168 20.6752)
(8.73988e-14 -30.6022 22.8893)
(7.59812e-14 -26.3834 20.5675)
(1.18969e-13 -38.2984 32.5469)
(1.17045e-13 -45.0029 33.0645)
(9.92252e-14 -42.7261 28.8428)
(1.42935e-13 -64.1781 41.7178)
(1.12577e-13 -51.6336 33.678)
(1.78821e-13 -72.5394 53.9385)
(1.55614e-37 0.443532 -1.63831)
(1.47937e-37 0.429668 -1.67124)
(1.47938e-37 0.435157 -1.70684)
(1.03872e-37 0.451193 -1.7424)
(1.50088e-37 0.473957 -1.77718)
(2.12893e-37 0.503935 -1.81154)
(-6.4096e-37 0.5413 -1.84612)
(2.65994e-36 0.58706 -1.88154)
(-5.02718e-36 0.642691 -1.91854)
(-2.75533e-36 0.709359 -1.95763)
(8.12773e-35 0.788259 -1.99765)
(-4.59919e-34 0.87696 -2.03497)
(1.93233e-33 0.971651 -2.06989)
(-8.47956e-33 1.06675 -2.0995)
(6.05135e-32 1.13408 -2.1349)
(-5.59898e-31 1.1901 -2.23802)
(4.81346e-30 1.43101 -2.42617)
(-3.81002e-29 2.07918 -2.49584)
(2.81409e-28 2.96695 -2.27053)
(-1.74742e-27 3.6704 -1.94158)
(7.23772e-27 4.09097 -1.7097)
(-1.55235e-26 4.37876 -1.52962)
(3.64044e-27 4.51617 -1.40092)
(4.1472e-26 4.33985 -1.41506)
(-7.47719e-26 3.97367 -1.51459)
(1.65128e-25 3.59926 -1.63196)
(-2.33881e-25 3.28918 -1.76222)
(-1.42221e-24 3.04315 -1.90104)
(8.09565e-24 2.84964 -2.0134)
(-1.6576e-23 2.75493 -2.08171)
(-2.88659e-23 2.8342 -2.08551)
(2.66131e-22 3.08365 -1.97889)
(-1.39262e-22 3.37257 -1.75358)
(-2.29173e-21 3.47139 -1.49143)
(-3.56927e-21 3.28481 -1.22852)
(-1.98958e-21 2.98747 -0.90762)
(3.75769e-21 2.81126 -0.466807)
(-2.04542e-19 2.74247 -0.0164605)
(-2.25461e-18 2.60958 0.366815)
(-2.17222e-18 2.47568 0.655289)
(-7.03819e-19 2.41063 0.901736)
(8.90419e-19 2.39158 1.12748)
(1.49366e-18 2.43182 1.36149)
(-3.1066e-18 2.51316 1.60441)
(-1.64249e-17 2.61332 1.85139)
(-4.27937e-17 2.7339 2.09415)
(-1.06332e-16 2.9098 2.34154)
(-2.49679e-16 3.16659 2.61048)
(-3.87454e-16 3.50672 2.91077)
(-2.48992e-17 3.90331 3.26121)
(1.54325e-15 4.30187 3.71696)
(3.90468e-15 4.67477 4.32912)
(4.6821e-15 5.10322 5.02348)
(1.81586e-15 5.74038 5.59905)
(-3.89895e-15 6.66056 5.92138)
(-1.04313e-14 7.80011 6.003)
(-1.71263e-14 9.04502 5.88296)
(-2.45415e-14 10.294 5.555)
(-3.22103e-14 11.4329 5.02179)
(-3.88212e-14 12.3097 4.34323)
(-4.35447e-14 12.7534 3.61062)
(-4.69153e-14 12.5867 2.92311)
(-5.04328e-14 11.7567 2.44269)
(-5.51818e-14 10.7656 2.42286)
(-5.97377e-14 10.5074 3.01911)
(-5.56852e-14 11.2654 4.03749)
(-3.42502e-14 12.6339 4.9379)
(-7.26073e-15 13.6551 5.4333)
(9.43987e-15 12.3299 6.07866)
(1.48966e-14 7.43945 7.63559)
(1.63283e-14 2.63016 9.96344)
(2.00875e-14 0.441847 11.9536)
(2.27305e-14 -1.5947 12.8713)
(2.74565e-14 -4.22978 14.6639)
(3.76022e-14 -8.23467 18.2512)
(5.54454e-14 -14.9408 24.1065)
(8.48315e-14 -26.0638 33.2617)
(1.28543e-13 -43.0287 46.4658)
(1.78271e-13 -63.1308 60.2176)
(1.26984e-37 0.448719 -1.75381)
(1.19378e-37 0.43955 -1.78453)
(1.23246e-37 0.445919 -1.81485)
(8.63449e-38 0.461764 -1.84625)
(8.74508e-38 0.484297 -1.87758)
(3.00666e-37 0.514184 -1.90895)
(-7.66042e-37 0.551658 -1.94107)
(2.31504e-36 0.597765 -1.97467)
(-2.71074e-36 0.65395 -2.0105)
(-1.01668e-35 0.721075 -2.04874)
(9.17845e-35 0.799693 -2.08812)
(-4.17789e-34 0.88751 -2.12473)
(1.48723e-33 0.980892 -2.1593)
(-6.06596e-33 1.07615 -2.19116)
(5.25968e-32 1.15494 -2.23265)
(-5.91107e-31 1.23391 -2.33786)
(5.85214e-30 1.47058 -2.51261)
(-5.11461e-29 2.05741 -2.5775)
(3.99148e-28 2.88444 -2.36664)
(-2.57818e-27 3.58576 -2.03557)
(1.12618e-26 4.02787 -1.7892)
(-2.66608e-26 4.33026 -1.60269)
(1.44241e-26 4.49595 -1.4591)
(6.69108e-26 4.35291 -1.45272)
(-1.25972e-25 4.00189 -1.54452)
(2.19309e-25 3.63255 -1.66839)
(-3.16772e-25 3.32628 -1.81828)
(-1.95718e-24 3.07784 -1.97924)
(1.08411e-23 2.87326 -2.10385)
(-2.0956e-23 2.76222 -2.17609)
(-4.20039e-23 2.81542 -2.17909)
(3.48146e-22 3.03034 -2.06675)
(-1.57405e-22 3.29526 -1.83002)
(-3.04434e-21 3.38696 -1.54746)
(-4.77101e-21 3.18971 -1.25777)
(-2.59374e-21 2.86461 -0.917987)
(1.61119e-21 2.669 -0.47356)
(-1.50262e-19 2.60845 -0.0245154)
(-2.17105e-18 2.49865 0.360038)
(-2.3009e-18 2.38379 0.649826)
(-7.83056e-19 2.32688 0.902319)
(8.05438e-19 2.30837 1.13208)
(1.60382e-18 2.34466 1.37144)
(-2.28347e-18 2.42281 1.62101)
(-1.46789e-17 2.52172 1.8778)
(-4.19191e-17 2.6406 2.13413)
(-1.12703e-16 2.8106 2.39832)
(-2.70224e-16 3.05748 2.68592)
(-3.97219e-16 3.38387 3.00608)
(8.46538e-17 3.75644 3.37978)
(1.89112e-15 4.11502 3.86669)
(4.33425e-15 4.44962 4.51456)
(4.71611e-15 4.87974 5.23182)
(1.18467e-15 5.57078 5.81108)
(-4.93528e-15 6.56649 6.13711)
(-1.15193e-14 7.77566 6.23642)
(-1.825e-14 9.08599 6.13635)
(-2.57397e-14 10.4013 5.81883)
(-3.31996e-14 11.5964 5.29627)
(-3.91374e-14 12.5056 4.64876)
(-4.30108e-14 12.9521 3.97672)
(-4.59792e-14 12.7478 3.37707)
(-4.99189e-14 11.8136 3.03106)
(-5.53796e-14 10.6513 3.21913)
(-5.97568e-14 10.2272 4.01877)
(-5.38912e-14 10.939 5.0555)
(-3.08261e-14 12.3944 5.76787)
(-3.51777e-15 13.4678 6.07497)
(1.25773e-14 12.0105 6.70107)
(1.63694e-14 6.9349 8.17503)
(1.58442e-14 2.05013 9.83111)
(1.91378e-14 -0.00586877 11.4792)
(2.33325e-14 -2.01091 13.0213)
(2.90075e-14 -4.98692 15.1516)
(4.00587e-14 -9.5087 19.0002)
(5.91522e-14 -16.9352 25.2087)
(9.04734e-14 -29.0022 35.0157)
(1.3618e-13 -46.5298 48.9096)
(1.79355e-13 -64.215 58.8913)
(1.12492e-37 0.450865 -1.82204)
(1.05379e-37 0.443598 -1.8512)
(1.09927e-37 0.44996 -1.87858)
(8.97412e-38 0.465855 -1.90784)
(4.83954e-38 0.488567 -1.93743)
(3.16356e-37 0.518679 -1.96718)
(-6.40851e-37 0.556482 -1.99803)
(1.65018e-36 0.603026 -2.03085)
(-7.46016e-37 0.659669 -2.06615)
(-1.298e-35 0.727116 -2.10381)
(8.13854e-35 0.805666 -2.14264)
(-2.98674e-34 0.893265 -2.17929)
(7.55684e-34 0.986717 -2.21447)
(-2.63221e-33 1.08301 -2.24854)
(4.24902e-32 1.16686 -2.2917)
(-6.37782e-31 1.25401 -2.39077)
(7.12268e-30 1.48688 -2.55348)
(-6.56617e-29 2.04639 -2.61997)
(5.2339e-28 2.84249 -2.42705)
(-3.44189e-27 3.53871 -2.10206)
(1.56326e-26 3.99259 -1.84699)
(-4.02624e-26 4.30395 -1.65557)
(3.27747e-26 4.48308 -1.50407)
(9.65966e-26 4.36 -1.4796)
(-2.03286e-25 4.02221 -1.56025)
(2.61039e-25 3.6599 -1.68923)
(-3.66886e-25 3.3576 -1.85772)
(-2.53467e-24 3.10614 -2.03657)
(1.34421e-23 2.89319 -2.17037)
(-2.33117e-23 2.77123 -2.2423)
(-5.90775e-23 2.80895 -2.23993)
(4.16114e-22 3.0042 -2.12124)
(-1.32253e-22 3.2548 -1.87846)
(-3.68235e-21 3.34194 -1.58474)
(-5.93322e-21 3.14186 -1.27703)
(-3.32735e-21 2.808 -0.92176)
(7.00938e-22 2.60609 -0.474314)
(-1.30416e-19 2.55088 -0.0250963)
(-2.11087e-18 2.45446 0.362138)
(-2.39713e-18 2.35088 0.655046)
(-8.16942e-19 2.2996 0.914341)
(8.2057e-19 2.28341 1.15091)
(1.67861e-18 2.31921 1.39837)
(-1.8805e-18 2.39673 1.65691)
(-1.38929e-17 2.49559 1.92459)
(-4.40524e-17 2.61468 2.19456)
(-1.2925e-16 2.7836 2.47426)
(-3.07478e-16 3.02764 2.77698)
(-3.95538e-16 3.34809 3.11293)
(2.88526e-16 3.70687 3.50878)
(2.36524e-15 4.04332 4.02857)
(4.7168e-15 4.36346 4.70615)
(4.45787e-15 4.80611 5.42426)
(2.93055e-16 5.53107 5.98183)
(-5.95339e-15 6.5608 6.29677)
(-1.2408e-14 7.79827 6.40237)
(-1.91086e-14 9.13836 6.30957)
(-2.65444e-14 10.4839 5.99763)
(-3.36538e-14 11.6997 5.4928)
(-3.89475e-14 12.6135 4.88901)
(-4.22713e-14 13.0493 4.28739)
(-4.53503e-14 12.811 3.77907)
(-5.00921e-14 11.804 3.56263)
(-5.60846e-14 10.5538 3.92512)
(-5.95775e-14 10.0943 4.83591)
(-5.14688e-14 10.8536 5.79522)
(-2.72529e-14 12.3775 6.32756)
(-4.408e-16 13.4286 6.54362)
(1.46917e-14 11.8399 7.21885)
(1.73032e-14 6.69005 8.71565)
(1.62602e-14 1.8362 10.2338)
(1.96873e-14 -0.256947 11.6973)
(2.43674e-14 -2.39781 13.3348)
(3.09994e-14 -5.6155 15.7851)
(4.31711e-14 -10.5941 19.9483)
(6.41099e-14 -18.7141 26.7399)
(9.81186e-14 -31.6245 37.5066)
(1.44212e-13 -49.1035 51.4771)
(1.74823e-13 -61.9093 56.0901)
(9.89359e-38 0.454392 -1.89811)
(9.28667e-38 0.449512 -1.92597)
(9.68237e-38 0.456491 -1.95076)
(9.02691e-38 0.472468 -1.97802)
(2.75088e-38 0.495196 -2.006)
(3.0581e-37 0.525405 -2.03441)
(-5.25705e-37 0.563503 -2.06433)
(1.17169e-36 0.610504 -2.09665)
(4.0936e-37 0.667639 -2.1316)
(-1.23674e-35 0.735434 -2.16875)
(5.54737e-35 0.813889 -2.20697)
(-1.04403e-34 0.9011 -2.24341)
(-3.63093e-34 0.99417 -2.27883)
(2.904e-33 1.09121 -2.31436)
(2.2484e-32 1.18228 -2.35935)
(-6.65509e-31 1.28273 -2.45357)
(8.68109e-30 1.51221 -2.60419)
(-8.4745e-29 2.03312 -2.67063)
(6.90499e-28 2.78691 -2.49492)
(-4.61963e-27 3.47622 -2.17745)
(2.17409e-26 3.94388 -1.91439)
(-6.03925e-26 4.26605 -1.7162)
(6.48517e-26 4.46282 -1.55441)
(1.33477e-25 4.36432 -1.51038)
(-3.35864e-25 4.04341 -1.57847)
(3.05249e-25 3.69155 -1.71354)
(-4.17102e-25 3.39509 -1.90388)
(-3.17764e-24 3.13952 -2.10306)
(1.6765e-23 2.9144 -2.2473)
(-2.64355e-23 2.77699 -2.31896)
(-7.92475e-23 2.79385 -2.31012)
(5.01905e-22 2.96317 -2.18234)
(-1.13959e-22 3.19502 -1.93038)
(-4.49914e-21 3.27473 -1.62338)
(-7.37916e-21 3.06686 -1.29642)
(-4.23027e-21 2.71687 -0.924045)
(-2.63114e-22 2.50452 -0.47218)
(-1.07805e-19 2.4555 -0.0238024)
(-2.04338e-18 2.37537 0.36483)
(-2.51191e-18 2.28492 0.659187)
(-8.90284e-19 2.2391 0.923634)
(7.96414e-19 2.22339 1.16585)
(1.77731e-18 2.25604 1.42046)
(-1.21169e-18 2.33067 1.68707)
(-1.26562e-17 2.42768 1.96452)
(-4.64306e-17 2.54473 2.24611)
(-1.47043e-16 2.70928 2.53871)
(-3.40927e-16 2.94634 2.85488)
(-3.73587e-16 3.25579 3.20699)
(5.16274e-16 3.59386 3.62604)
(2.80629e-15 3.89943 4.17743)
(4.98566e-15 4.198 4.88064)
(4.12262e-15 4.65319 5.60069)
(-5.33082e-16 5.42163 6.14834)
(-6.84593e-15 6.50178 6.46529)
(-1.32186e-14 7.78609 6.5842)
(-1.99253e-14 9.17364 6.50378)
(-2.72937e-14 10.5648 6.20415)
(-3.40093e-14 11.8123 5.72589)
(-3.86223e-14 12.7364 5.17787)
(-4.14595e-14 13.162 4.66119)
(-4.48983e-14 12.8816 4.2588)
(-5.06535e-14 11.7786 4.18395)
(-5.70125e-14 10.408 4.71625)
(-5.9186e-14 9.88661 5.7096)
(-4.87539e-14 10.6846 6.57795)
(-2.3598e-14 12.2833 6.95323)
(2.66594e-15 13.3194 7.11019)
(1.69012e-14 11.5972 7.84005)
(1.83881e-14 6.36253 9.31491)
(1.68758e-14 1.50045 10.6669)
(2.04641e-14 -0.601372 12.0428)
(2.56666e-14 -2.81853 13.809)
(3.32028e-14 -6.27997 16.5481)
(4.67237e-14 -11.6797 21.1381)
(6.98687e-14 -20.4532 28.7136)
(1.06093e-13 -33.9308 40.2985)
(1.49996e-13 -50.5819 53.3719)
(1.70994e-13 -59.54 54.3827)
(8.93934e-38 0.457066 -1.97056)
(8.46294e-38 0.45392 -1.99715)
(8.78129e-38 0.461229 -2.01965)
(9.24773e-38 0.477328 -2.04515)
(1.8088e-38 0.500271 -2.07191)
(2.87017e-37 0.530779 -2.09957)
(-3.93792e-37 0.569327 -2.12914)
(7.72857e-37 0.61687 -2.16136)
(8.04796e-37 0.674488 -2.19612)
(-7.27063e-36 0.742583 -2.23277)
(7.10188e-36 0.820994 -2.27033)
(2.01273e-34 0.908004 -2.30648)
(-2.06099e-33 1.00116 -2.34206)
(1.14969e-32 1.09925 -2.37875)
(-1.15007e-32 1.19532 -2.42465)
(-6.62371e-31 1.30464 -2.51325)
(1.05533e-29 1.53214 -2.65129)
(-1.0914e-28 2.02409 -2.71666)
(9.07396e-28 2.74091 -2.55892)
(-6.16373e-27 3.41989 -2.2528)
(2.99663e-26 3.89842 -1.98404)
(-8.92618e-26 4.23037 -1.77877)
(1.184e-25 4.44111 -1.60681)
(1.73316e-25 4.36492 -1.54221)
(-5.59752e-25 4.0631 -1.59607)
(3.48027e-25 3.72529 -1.73804)
(-4.20794e-25 3.43599 -1.95194)
(-3.82086e-24 3.17507 -2.17171)
(2.09147e-23 2.93656 -2.32574)
(-2.99177e-23 2.78329 -2.39582)
(-1.03546e-22 2.78043 -2.37779)
(6.04064e-22 2.92604 -2.23843)
(-9.53597e-23 3.14014 -1.97643)
(-5.4844e-21 3.21199 -1.65659)
(-9.11105e-21 2.99803 -1.3108)
(-5.31721e-21 2.63767 -0.921)
(-1.0306e-21 2.41971 -0.465089)
(-9.17378e-20 2.37719 -0.0188378)
(-1.97445e-18 2.31208 0.370042)
(-2.62853e-18 2.23371 0.665512)
(-9.85764e-19 2.19299 0.934588)
(7.6692e-19 2.17848 1.18284)
(1.89345e-18 2.20908 1.44551)
(-4.7906e-19 2.28172 1.72031)
(-1.14441e-17 2.37739 2.0065)
(-4.96248e-17 2.49314 2.29837)
(-1.66724e-16 2.65466 2.60284)
(-3.72989e-16 2.88613 2.93195)
(-3.38054e-16 3.1853 3.29993)
(7.63648e-16 3.50334 3.74196)
(3.2331e-15 3.78159 4.32368)
(5.18357e-15 4.0664 5.04899)
(3.72184e-15 4.53949 5.76807)
(-1.34959e-15 5.34653 6.30646)
(-7.66888e-15 6.46515 6.62765)
(-1.39481e-14 7.7854 6.76161)
(-2.0654e-14 9.21213 6.69565)
(-2.7906e-14 10.64 6.41304)
(-3.41488e-14 11.908 5.97097)
(-3.80568e-14 12.8313 5.49334)
(-4.05781e-14 13.2393 5.07836)
(-4.47188e-14 12.9118 4.7985)
(-5.16751e-14 11.7128 4.87832)
(-5.80943e-14 10.2447 5.56891)
(-5.84423e-14 9.71177 6.59953)
(-4.56221e-14 10.5875 7.34311)
(-1.98324e-14 12.2535 7.57391)
(5.67094e-15 13.2416 7.70998)
(1.89855e-14 11.3815 8.51323)
(1.94829e-14 6.10369 9.94849)
(1.7602e-14 1.27242 11.1233)
(2.14142e-14 -0.901515 12.4425)
(2.7159e-14 -3.29628 14.3886)
(3.56601e-14 -7.05745 17.4512)
(5.07845e-14 -12.9619 22.608)
(7.6263e-14 -22.4342 31.0574)
(1.13938e-13 -36.2921 43.1061)
(1.54071e-13 -51.7059 54.4297)
(1.62287e-13 -57.0137 50.7881)
(8.33384e-38 0.460051 -2.04197)
(8.00296e-38 0.45847 -2.06752)
(8.24496e-38 0.466282 -2.08816)
(9.59648e-38 0.482622 -2.11225)
(1.92419e-38 0.505833 -2.13821)
(2.63239e-37 0.536666 -2.16559)
(-2.76715e-37 0.575666 -2.19519)
(6.06952e-37 0.623714 -2.22748)
(-9.97307e-38 0.681744 -2.26206)
(4.21125e-36 0.750084 -2.29818)
(-7.21866e-35 0.828459 -2.33507)
(6.61804e-34 0.91531 -2.37095)
(-4.56591e-33 1.00853 -2.40663)
(2.4309e-32 1.10763 -2.444)
(-6.47719e-32 1.2089 -2.49008)
(-6.12795e-31 1.32719 -2.57312)
(1.27933e-29 1.55227 -2.69927)
(-1.40204e-28 2.01531 -2.76265)
(1.18789e-27 2.69508 -2.62186)
(-8.18016e-27 3.36207 -2.32925)
(4.0966e-26 3.84996 -2.05713)
(-1.30109e-25 4.19137 -1.8445)
(2.04447e-25 4.41569 -1.66193)
(2.06225e-25 4.36216 -1.57617)
(-9.31723e-25 4.08243 -1.61494)
(3.97197e-25 3.76259 -1.76477)
(-2.87201e-25 3.48183 -2.00336)
(-4.31268e-24 3.21395 -2.24387)
(2.62058e-23 2.95938 -2.4072)
(-3.39445e-23 2.78757 -2.4753)
(-1.32116e-22 2.76297 -2.44616)
(7.27356e-22 2.88391 -2.29247)
(-8.58089e-23 3.07991 -2.01838)
(-6.68997e-21 3.14297 -1.6851)
(-1.11829e-20 2.92143 -1.3208)
(-6.6008e-21 2.55008 -0.913601)
(-1.68302e-21 2.32708 -0.453664)
(-7.84307e-20 2.29138 -0.0106191)
(-1.90305e-18 2.24117 0.37725)
(-2.74336e-18 2.17453 0.673343)
(-1.10809e-18 2.13825 0.946133)
(7.12627e-19 2.12395 1.19933)
(2.02476e-18 2.15153 1.46901)
(3.96025e-19 2.22158 1.75116)
(-1.00938e-17 2.31531 2.04518)
(-5.34289e-17 2.42884 2.34655)
(-1.87712e-16 2.5862 2.66233)
(-4.01964e-16 2.81085 3.00395)
(-2.87097e-16 3.09803 3.38737)
(1.02697e-15 3.39378 3.85217)
(3.63205e-15 3.64339 4.46264)
(5.29837e-15 3.91533 5.20666)
(3.26332e-15 4.40809 5.92409)
(-2.13042e-15 5.25519 6.4578)
(-8.40299e-15 6.41474 6.78867)
(-1.46009e-14 7.77496 6.94069)
(-2.13116e-14 9.24445 6.89187)
(-2.84008e-14 10.7096 6.63176)
(-3.4104e-14 11.995 6.23564)
(-3.73052e-14 12.9129 5.84225)
(-3.97273e-14 13.2991 5.54454)
(-4.491e-14 12.9192 5.40299)
(-5.31311e-14 11.6202 5.6469)
(-5.92033e-14 10.0641 6.47392)
(-5.7297e-14 9.53864 7.49307)
(-4.21836e-14 10.4977 8.09186)
(-1.61002e-14 12.2169 8.20508)
(8.51515e-15 13.1409 8.35845)
(2.09789e-14 11.1484 9.24839)