/*--------------------------------*- C++ -*----------------------------------*\
| =========                 |                                                 |
| \\      /  F ield         | OpenFOAM: The Open Source CFD Toolbox           |
|  \\    /   O peration     | Version:  4.1                                   |
|   \\  /    A nd           | Web:      www.OpenFOAM.org                      |
|    \\/     M anipulation  |                                                 |
\*---------------------------------------------------------------------------*/
FoamFile
{
    version     2.0;
    format      ascii;
    class       surfaceScalarField;
    location    "8";
    object      phi;
}
// * * * * * * * * * * * * * * * * * * * * * * * * * * * * * * * * * * * * * //

dimensions      [0 3 -1 0 0 0 0];

internalField   nonuniform List<scalar> 
13220
(
-808.446
2108.35
-1263.64
1755.39
-1730.33
1766.59
-2075.33
1644.9
-2359.32
1584.19
-2565.43
1506.01
-2701.5
1435.97
-2766.53
1365.23
-2764.71
1298.08
-2695.15
1230.34
-2548.28
1153.33
-2288
1039.62
-1824.83
836.733
-1054.3
529.666
245.603
-220.241
2328.59
-479.366
2014.52
-763.005
2050.23
-985.145
1867.04
-1198.07
1797.11
-1364.61
1672.55
-1502.89
1574.25
-1603.84
1466.17
-1673.58
1367.83
-1710.01
1266.76
-1693.91
1137.23
-1572.76
918.476
-1263.67
527.638
-638.846
-95.1543
-393.243
-125.236
2453.82
-300.219
2189.5
-415.338
2165.35
-473.14
1924.84
-517.489
1841.46
-519.522
1674.58
-498.403
1553.13
-449.479
1417.25
-376.938
1295.29
-283.581
1173.4
-177.514
1031.16
-80.467
821.428
-19.5764
466.743
32.3645
-147.1
-360.878
83.5696
2370.25
94.8876
2178.18
153.308
2106.93
234.619
1843.53
318.722
1757.35
424.472
1568.83
536.995
1440.61
655.755
1298.49
773.892
1177.15
889.759
1057.54
988.501
932.417
1019.07
790.859
883.669
602.141
352.441
384.125
-8.43704
77.9434
2292.31
124.986
2131.14
193.033
2038.88
259.35
1777.21
324.512
1692.19
398.983
1494.36
476.9
1362.69
587.72
1187.67
726.414
1038.45
864.257
919.692
947.61
849.063
932.075
806.393
762.614
771.601
444.539
702.197
436.102
-26.5832
2318.89
-29.7461
2134.3
-38.252
2047.38
-81.5295
1820.49
-127.451
1738.11
-192.074
1558.98
-229.466
1400.08
-182.465
1140.66
-30.0086
885.997
195.543
694.139
427.536
617.07
578.511
655.418
553.15
796.963
338.986
916.36
775.088
-148.187
2467.08
-307.378
2293.49
-453.3
2193.31
-639.789
2006.98
-832.114
1930.44
-1053.29
1780.16
-1265.51
1612.31
-1435.34
1310.49
-1528.65
979.303
-1512.2
677.691
-1348.72
453.592
-1024.28
330.975
-594.666
367.344
-202.908
524.599
572.18
7.29701
2459.78
-208.413
2509.2
-340.738
2325.63
-462.731
2128.97
-575.07
2042.78
-692.952
1898.04
-834.147
1753.5
-1025.82
1502.16
-1259.77
1213.26
-1494.14
912.06
-1655.3
614.751
-1636.91
312.585
-1332.02
62.4624
-700.525
-106.894
-128.345
277.133
2182.65
174.142
2612.19
142.647
2357.13
171.358
2100.26
236.096
1978.04
308.514
1825.62
370.967
1691.05
365.912
1507.22
281.542
1297.63
128.614
1064.99
-68.0334
811.399
-273.917
518.465
-374.32
162.863
-329.104
-152.113
-457.449
326.655
1855.99
365.775
2573.07
402.943
2319.96
494.152
2009.05
623.781
1848.41
759.338
1690.06
897.885
1552.5
1006.08
1399.03
1065.08
1238.63
1061.47
1068.59
985.915
886.958
811.915
692.468
512.452
462.331
167.646
192.701
-289.803
194.158
1661.84
263.723
2503.51
311.855
2271.83
380.855
1940.05
469.859
1759.41
558.089
1601.84
641.092
1469.5
708.513
1331.61
750.252
1196.89
755.539
1063.3
718.09
924.408
630.267
780.289
481.47
611.126
269.537
404.633
-20.2664
84.5755
1577.26
158.448
2429.64
201.207
2229.07
237.134
1904.12
284.783
1711.76
329.682
1556.94
368.84
1430.34
396.841
1303.61
414.728
1179.01
422.119
1055.91
414.398
932.129
381.843
812.848
304.623
688.35
161.648
547.618
141.382
26.8558
1550.41
133.661
2322.83
264.651
2098.08
387.653
1781.12
502.982
1596.43
604.125
1455.79
684.476
1349.99
741.061
1247.02
772.717
1147.35
784.141
1044.49
766.612
949.659
698.437
881.023
552.38
834.407
321.95
778.048
463.331
128.577
1421.83
175.007
2276.4
122.838
2150.25
48.0937
1855.87
14.7744
1629.75
29.1066
1441.46
105.941
1273.16
246.534
1106.43
438.317
955.569
631.445
851.362
743.339
837.765
709.436
914.926
530.606
1013.24
273.888
1034.77
737.22
627.623
1548.96
2084.21
2173.17
1994.87
1731.37
1376.94
1033.46
728.568
533.377
362.106
254.115
170.146
130.719
-6.61281e-06
133.516
-133.516
133.516
133.516
133.516
304.217
-170.701
304.217
304.217
304.217
458.737
-154.52
458.737
458.737
590.887
-132.15
590.887
590.887
590.887
694.993
-104.106
694.993
694.993
763.63
-68.6367
763.63
763.63
763.63
780.371
-16.7408
780.371
780.371
780.371
752.699
27.6722
752.699
752.699
701.014
51.6843
701.014
701.014
701.014
614.702
86.3123
614.702
614.702
501.759
112.942
501.759
501.759
501.759
387.451
114.309
387.451
387.451
387.451
310.696
76.7542
310.696
310.696
251.316
59.38
251.316
251.316
251.316
160.15
91.1665
160.15
160.15
160.15
5.3035
154.846
5.30348
5.30349
-181.107
186.411
-181.107
-181.107
-181.107
-457.171
276.064
-457.171
-457.171
-1233.51
776.337
-1233.51
-1233.51
-1233.51
-2532.3
1298.79
-2532.3
-2532.3
-2532.3
-4209.28
1676.98
-4209.28
-4209.28
-6085.62
1876.34
-6085.62
-6085.62
-5927.57
-5768.51
-5604.7
-7496.39
2060.49
-7334.85
-7148.26
-6948.63
-6748.23
-6545.9
-6341.38
-6137.63
-5935.71
-7991.76
2263.8
-7786.17
-7578.88
-7371.85
-7185.15
-6996.64
-6805.48
-6612.66
-6416.41
-8675.57
2445.29
-8488.36
-8299.26
-8107.71
-7913.77
-7719.64
-7527.45
-7332.84
-7136.18
-6936.87
-9444.67
2706.25
-9217.36
-8985.04
-8748.42
-8509.11
-8267.4
-8005.77
-7733.14
-7458.54
-10005
2807.85
-9726.74
-9437.15
-9130.14
-8823.89
-8517.91
-8213.98
-7910.75
-7582.61
-9620.19
2346.8
-9299.64
-8978.67
-8657.34
-8318.52
-7972.73
-7629.2
-7286.79
-6948
-8358.62
1739.26
-8012.71
-7674.77
-7343.83
-7022.34
-6711.12
-6384.04
-6069.89
-5766.92
-5476.01
-5402.6
218.79
-5130.41
-4869.38
-4613.31
-4362.33
-4114.55
-3901.63
-3752.51
-3602.32
-3335.46
-106.529
-3195.08
-3062.07
-3062.07
-2965.08
-96.9972
-2833.5
-131.578
-2833.5
-2735.26
-98.2377
-2735.26
-2660.96
-74.2979
-2592.46
-68.504
-2592.46
-2541.02
-51.4339
-2490.61
-50.4099
-2490.61
-2448.68
-41.9311
-2448.68
-2417.33
-31.351
-2379.75
-37.5805
-2379.75
-2347.32
-32.4288
-2347.32
-2324.29
-23.028
-2291.92
-32.3762
-2291.92
-2271.54
-20.3778
-2245.89
-25.6533
-2245.89
-2229.42
-16.4661
-2229.42
-2226.1
-3.3241
-2218.04
-8.05722
-2218.04
-2219.04
0.997489
-2219.04
-2233.23
14.196
-2234.99
1.75272
-2234.99
-2251.06
16.0686
-2253.67
2.61967
-2253.67
-2264.09
10.4125
-2264.09
-2283.89
19.8012
-2284.84
0.949942
-2284.84
-2289.33
4.49414
-2289.33
-2299.23
9.89594
-2287.75
-11.4749
-2287.75
-2285.99
-1.76069
-2267.06
-18.9336
-2267.06
-2251.73
-15.332
-2251.73
-2240.8
-10.9292
-2211.33
-29.4701
-2211.33
-2179.66
-31.6682
-2179.66
-2145.94
-33.7224
-2092.42
-53.5211
-2092.42
-2037.2
-55.2191
-1967.99
-69.2081
-1967.99
-1892.87
-75.1156
-1892.87
-1812.39
-80.4794
-1721.43
-90.9659
-1721.43
-1622.15
-99.2817
-1622.15
-1517.1
-105.048
-1405.74
-111.363
-1405.74
-1283.88
-121.859
-1160.46
-123.416
-1160.46
-1027.38
-133.081
-1027.38
-142.017
-14.6433
-71.4027
-14.5544
-93.4838
-14.6131
-108.237
-14.7001
-122.401
-14.8559
-136.394
-15.053
-149.738
-15.3028
-162.979
-15.5972
-175.963
-15.9395
-188.899
-16.3272
-201.775
-16.7612
-214.688
-17.2405
-227.662
-17.7655
-240.755
-18.3358
-253.999
-18.9516
-267.435
-19.6131
-281.096
-20.3206
-295.015
-21.0744
-309.223
-21.8752
-323.75
-22.7236
-338.624
-23.6203
-353.872
-24.5664
-369.521
-25.5628
-385.598
-26.6107
-402.128
-27.7113
-419.137
-28.8661
-436.649
-30.0764
-454.689
-31.3438
-473.282
-32.6698
-492.451
-34.0557
-512.219
-35.5031
-532.607
-37.0131
-553.634
-38.5865
-575.315
-40.2239
-597.66
-41.9249
-620.672
-43.6883
-644.344
-45.512
-668.658
-47.392
-693.579
-49.3228
-719.053
-51.2965
-745.005
-53.3032
-771.335
-55.3301
-797.92
-57.3624
-824.616
-59.3825
-851.266
-61.3716
-877.709
-63.3089
-903.795
-65.1729
-929.398
-66.9409
-954.43
-68.5885
-978.839
-70.089
-1002.61
-71.4107
-1025.75
-72.5153
-1048.24
-73.3534
-1070.03
-73.8592
-1091.02
-73.9413
-1110.93
-73.4691
-1129.31
-72.2578
-1145.26
-70.0551
-1157.27
-66.5394
-1163.05
-61.3234
-1159.35
-53.9848
-1142.03
-44.1003
-1105.44
-31.3589
-1042.67
-15.6935
-943.275
2.47819
-791.927
23.063
-565.962
43.3985
-170.684
52.6657
428.681
56.7977
780.843
59.3096
1120.19
58.6005
1414.3
56.8477
1713.45
50.8052
1938.33
49.3727
2247.77
40.086
2340.37
50.0027
2785.17
44.0634
2553.65
69.1226
3368.8
3958.26
-16.2757
-71.624
-16.1275
-93.632
-16.1667
-108.197
-16.2428
-122.325
-16.4004
-136.237
-16.6058
-149.533
-16.8709
-162.714
-17.186
-175.648
-17.5543
-188.531
-17.9726
-201.357
-18.4416
-214.219
-18.9602
-227.144
-19.5284
-240.187
-20.1458
-253.381
-20.8125
-266.768
-21.5286
-280.38
-22.2943
-294.25
-23.11
-308.408
-23.9762
-322.884
-24.8935
-337.706
-25.8628
-352.903
-26.885
-368.499
-27.9611
-384.522
-29.0923
-400.997
-30.2799
-417.949
-31.5254
-435.403
-32.8301
-453.384
-34.1956
-471.916
-35.6233
-491.023
-37.1147
-510.728
-38.6711
-531.051
-40.2933
-552.012
-41.9821
-573.626
-43.7371
-595.905
-45.5576
-618.851
-47.4414
-642.461
-49.385
-666.715
-51.3829
-691.581
-53.4277
-717.008
-55.5096
-742.923
-57.6161
-769.228
-59.7323
-795.803
-61.8413
-822.507
-63.9243
-849.183
-65.9613
-875.672
-67.9323
-901.824
-69.8164
-927.514
-71.5926
-952.653
-73.2381
-977.193
-74.7267
-1001.12
-76.0264
-1024.45
-77.0962
-1047.17
-77.8818
-1069.25
-78.3088
-1090.59
-78.2708
-1110.97
-77.6122
-1129.97
-76.1111
-1146.76
-73.4688
-1159.92
-69.3157
-1167.2
-63.2187
-1165.44
-54.7215
-1150.53
-43.3815
-1116.78
-28.8964
-1057.15
-11.2771
-960.894
9.04697
-812.251
31.5284
-588.443
53.6126
-192.768
60.015
422.278
60.5382
780.319
61.3566
1119.37
59.7712
1415.89
57.1803
1716.05
50.7613
1944.75
48.8522
2249.68
39.6043
2349.62
49.0342
2775.74
43.1834
2559.5
68.2313
3343.75
3893.41
-17.1582
-71.8777
-16.9892
-93.801
-17.0162
-108.17
-17.0877
-122.254
-17.2461
-136.078
-17.4566
-149.322
-17.7303
-162.44
-18.0571
-175.321
-18.4399
-188.148
-18.8752
-200.922
-19.3636
-213.731
-19.9038
-226.604
-20.4959
-239.595
-21.1392
-252.738
-21.8339
-266.074
-22.58
-279.634
-23.3776
-293.452
-24.2272
-307.558
-25.1291
-321.982
-26.0842
-336.751
-27.0931
-351.894
-28.1568
-367.435
-29.2764
-383.402
-30.453
-399.82
-31.6881
-416.714
-32.9829
-434.108
-34.3391
-452.028
-35.758
-470.497
-37.2412
-489.54
-38.79
-509.179
-40.4056
-529.435
-42.0888
-550.329
-43.8401
-571.875
-45.6589
-594.086
-47.544
-616.966
-49.4927
-640.512
-51.5006
-664.707
-53.5616
-689.52
-55.667
-714.903
-57.8059
-740.784
-59.9645
-767.07
-62.127
-793.641
-64.2752
-820.359
-66.39
-847.068
-68.4515
-873.61
-70.4398
-899.836
-72.3353
-925.619
-74.118
-950.871
-75.7659
-975.545
-77.2534
-999.634
-78.5477
-1023.15
-79.6064
-1046.11
-80.3725
-1068.48
-80.7668
-1090.19
-80.6744
-1111.06
-79.925
-1130.72
-78.275
-1148.41
-75.3996
-1162.79
-70.9037
-1171.69
-64.33
-1172.02
-55.2035
-1159.66
-43.0698
-1128.91
-27.6228
-1072.6
-8.90088
-979.616
12.7163
-833.868
35.989
-611.716
61.5464
-218.325
70.2844
413.54
67.358
783.246
65.044
1121.68
61.8136
1419.12
58.0451
1719.81
50.8333
1951.96
48.3186
2252.2
38.8119
2359.12
47.73
2766.82
41.5279
2565.71
67.7914
3317.49
3837.78
-18.1852
-72.1608
-17.9977
-93.9885
-18.0146
-108.153
-18.083
-122.185
-18.2442
-135.917
-18.462
-149.105
-18.7471
-162.155
-19.0888
-174.979
-19.4896
-187.747
-19.946
-200.465
-20.4582
-213.218
-21.0249
-226.037
-21.646
-238.974
-22.3208
-252.063
-23.0495
-265.345
-23.8318
-278.851
-24.6681
-292.616
-25.5585
-306.668
-26.5037
-321.037
-27.5043
-335.751
-28.561
-350.837
-29.6748
-366.322
-30.8469
-382.23
-32.0783
-398.589
-33.3706
-415.422
-34.725
-432.754
-36.1431
-450.61
-37.6265
-469.014
-39.1765
-487.99
-40.7945
-507.561
-42.4817
-527.748
-44.2387
-548.572
-46.0657
-570.048
-47.9618
-592.19
-49.9255
-615.003
-51.9532
-638.484
-54.04
-662.62
-56.1786
-687.382
-58.3592
-712.722
-60.5693
-738.574
-62.794
-764.845
-65.0156
-791.419
-67.2151
-818.159
-69.3723
-844.911
-71.467
-871.516
-73.4798
-897.823
-75.392
-923.707
-77.1847
-949.078
-78.8373
-973.893
-80.3245
-998.147
-81.6135
-1021.86
-82.6605
-1045.06
-83.406
-1067.74
-83.7661
-1089.83
-83.6176
-1111.21
-82.7744
-1131.56
-80.9688
-1150.21
-77.8463
-1165.91
-72.9808
-1176.56
-65.8843
-1179.12
-56.0559
-1169.49
-43.0202
-1141.95
-26.4569
-1089.16
-6.41367
-999.659
16.7786
-857.06
41.6141
-636.551
70.0579
-246.769
81.9205
401.678
77.3998
787.766
70.8126
1128.27
64.8819
1425.05
59.4317
1725.26
51.1094
1960.28
47.7121
2255.6
37.8813
2368.95
46.0715
2758.63
39.5222
2572.26
63.7695
3293.24
3779.69
-19.161
-72.4635
-18.963
-94.1865
-18.9722
-108.144
-19.0395
-122.118
-19.2044
-135.752
-19.4304
-148.879
-19.7272
-161.858
-20.084
-174.622
-20.5029
-187.328
-20.9802
-199.988
-21.516
-212.682
-22.1088
-225.444
-22.7584
-238.324
-23.4642
-251.358
-24.2261
-264.583
-25.0439
-278.034
-25.9179
-291.742
-26.8483
-305.737
-27.8356
-320.049
-28.8805
-334.706
-29.9838
-349.734
-31.1464
-365.159
-32.3695
-381.007
-33.6543
-397.304
-35.0021
-414.074
-36.4145
-431.341
-37.8929
-449.131
-39.4388
-467.468
-41.0539
-486.375
-42.7392
-505.876
-44.496
-525.991
-46.3247
-546.743
-48.2253
-568.148
-50.1968
-590.218
-52.2369
-612.963
-54.3418
-636.379
-56.5056
-660.456
-58.72
-685.167
-60.9741
-710.468
-63.2541
-736.294
-65.5435
-762.556
-67.8234
-789.139
-70.0735
-815.909
-72.2728
-842.712
-74.4009
-869.388
-76.4387
-895.785
-78.3686
-921.777
-80.173
-947.274
-81.8325
-972.233
-83.3227
-996.657
-84.6108
-1020.57
-85.6518
-1044.02
-86.3841
-1067
-86.7204
-1089.5
-86.5298
-1111.4
-85.612
-1132.48
-83.6762
-1152.15
-80.3387
-1169.25
-75.1435
-1181.76
-67.572
-1186.69
-57.0968
-1179.96
-43.218
-1155.83
-25.5936
-1106.79
-4.25858
-1020.99
20.5206
-881.839
47.0387
-663.069
78.1937
-277.924
94.5218
385.35
90.3563
791.932
79.2571
1139.37
69.3449
1434.96
61.4884
1733.12
51.6273
1970.14
47.0798
2260.14
36.722
2379.31
44.1248
2751.23
37.0207
2579.36
61.7307
3268.53
3730.06
-20.1308
-72.7797
-19.9274
-94.39
-19.9313
-108.14
-19.9994
-122.05
-20.1695
-135.582
-20.4047
-148.643
-20.7143
-161.548
-21.0871
-174.25
-21.525
-186.89
-22.0241
-199.489
-22.5844
-212.122
-23.2041
-224.824
-23.8832
-237.645
-24.6207
-250.62
-25.4166
-263.787
-26.2708
-277.179
-27.1834
-290.829
-28.1546
-304.766
-29.185
-319.019
-30.2752
-333.616
-31.426
-348.583
-32.6383
-363.947
-33.9134
-379.732
-35.2525
-395.965
-36.657
-412.669
-38.1284
-429.87
-39.6682
-447.592
-41.278
-465.858
-42.9593
-484.694
-44.7133
-504.122
-46.541
-524.164
-48.4429
-544.841
-50.4187
-566.172
-52.4671
-588.17
-54.5855
-610.844
-56.7694
-634.195
-59.0122
-658.213
-61.3046
-682.875
-63.6346
-708.138
-65.987
-733.942
-68.3439
-760.199
-70.6848
-786.798
-72.9882
-813.606
-75.2323
-840.468
-77.3963
-867.224
-79.4617
-893.72
-81.4117
-919.827
-83.2303
-945.455
-84.8994
-970.564
-86.3957
-995.161
-87.6864
-1019.28
-88.726
-1042.98
-89.4513
-1066.28
-89.7722
-1089.18
-89.5513
-1111.62
-88.5753
-1133.45
-86.5302
-1154.19
-83.0033
-1172.78
-77.5075
-1187.25
-69.4926
-1194.7
-58.4017
-1191.05
-43.7051
-1170.53
-25.0307
-1125.46
-2.37893
-1043.65
24.0524
-908.271
52.3941
-691.411
86.3524
-311.882
107.579
364.123
105.213
794.298
90.5751
1154.01
75.6676
1449.87
64.4093
1744.38
52.5034
1982.05
46.4898
2266.16
35.3936
2390.41
41.8907
2744.73
34.0353
2587.22
56.3566
3246.21
3681.37
-21.0864
-73.1037
-20.8821
-94.5943
-20.883
-108.139
-20.9539
-121.979
-21.1302
-135.406
-21.3758
-148.398
-21.6991
-161.225
-22.0887
-173.86
-22.5463
-186.432
-23.0679
-198.968
-23.6532
-211.537
-24.3005
-224.177
-25.0095
-236.936
-25.7793
-249.85
-26.6099
-262.957
-27.5009
-276.288
-28.4526
-289.877
-29.4651
-303.753
-30.539
-317.945
-31.6749
-332.48
-32.8737
-347.384
-34.1363
-362.684
-35.4639
-378.405
-36.8578
-394.571
-38.3194
-411.208
-39.8504
-428.339
-41.4521
-445.99
-43.1263
-464.184
-44.8743
-482.946
-46.6975
-502.298
-48.5968
-522.264
-50.5726
-542.865
-52.6244
-564.12
-54.7507
-586.044
-56.9483
-608.647
-59.2123
-631.931
-61.5354
-655.89
-63.9073
-680.503
-66.3148
-705.731
-68.7413
-731.515
-71.1675
-757.773
-73.5714
-784.395
-75.9301
-811.247
-78.221
-838.177
-80.423
-865.022
-82.5178
-891.625
-84.49
-917.854
-86.325
-943.62
-88.0063
-968.883
-89.5118
-993.655
-90.8091
-1017.99
-91.8523
-1041.94
-92.5772
-1065.55
-92.892
-1088.86
-92.6542
-1111.86
-91.638
-1134.47
-89.5072
-1156.33
-85.8193
-1176.47
-80.056
-1193.01
-71.6342
-1203.12
-59.9656
-1202.72
-44.4863
-1186.01
-24.7871
-1145.16
-0.812574
-1067.62
27.3072
-936.391
57.6034
-721.707
94.5873
-348.866
120.698
338.013
121.015
793.98
104.552
1170.47
84.3352
1470.08
68.4968
1760.22
53.8848
1996.66
46.0396
2274
33.9813
2402.46
39.4229
2739.29
30.7524
2595.89
51.3265
3225.64
3633.41
-22.0312
-73.4309
-21.8296
-94.7958
-21.8298
-108.139
-21.9051
-121.904
-22.0891
-135.222
-22.3461
-148.141
-22.6839
-160.887
-23.0912
-173.453
-23.5693
-185.954
-24.1141
-198.423
-24.7251
-210.926
-25.4007
-223.501
-26.1403
-236.197
-26.943
-249.047
-27.8088
-262.091
-28.7373
-275.36
-29.7286
-288.886
-30.7831
-302.699
-31.9011
-316.827
-33.0834
-331.298
-34.3307
-346.137
-35.6442
-361.371
-37.0249
-377.024
-38.4742
-393.122
-39.9937
-409.688
-41.5848
-426.748
-43.2492
-444.326
-44.9884
-462.445
-46.8041
-481.13
-48.6973
-500.405
-50.6691
-520.293
-52.7197
-540.815
-54.8485
-561.991
-57.0537
-583.839
-59.3319
-606.368
-61.6774
-629.586
-64.0823
-653.485
-66.5354
-678.05
-69.0223
-703.244
-71.5251
-729.012
-74.0228
-755.275
-76.492
-781.925
-78.9084
-808.831
-81.2484
-835.837
-83.4906
-862.779
-85.6171
-889.498
-87.6137
-915.858
-89.4674
-941.766
-91.1637
-967.187
-92.6817
-992.137
-93.9897
-1016.68
-95.0416
-1040.88
-95.7732
-1064.82
-96.0916
-1088.54
-95.8509
-1112.1
-94.814
-1135.51
-92.6222
-1158.52
-88.8035
-1180.29
-82.8074
-1199.01
-74.017
-1211.91
-61.8101
-1214.93
-45.5844
-1202.23
-24.8865
-1165.86
0.414345
-1092.92
30.2515
-966.228
62.6399
-754.096
102.814
-389.041
133.848
306.979
137.212
790.616
120.618
1187.06
95.6549
1495.05
74.1718
1781.7
55.9553
2014.88
45.8417
2284.12
32.5616
2415.75
36.8314
2735.02
27.2046
2605.51
49.3832
3203.46
3591.83
-22.9657
-73.7575
-22.77
-94.9915
-22.7715
-108.138
-22.8531
-121.822
-23.0459
-135.029
-23.3154
-147.871
-23.6687
-160.534
-24.0945
-173.027
-24.5939
-185.455
-25.1626
-197.854
-25.8001
-210.288
-26.5045
-222.797
-27.2754
-235.426
-28.1117
-248.211
-29.0133
-261.189
-29.9798
-274.393
-31.0115
-287.854
-32.1084
-301.602
-33.2712
-315.664
-34.5004
-330.068
-35.7969
-344.84
-37.1618
-360.006
-38.5963
-375.589
-40.1018
-391.616
-41.6797
-408.11
-43.3317
-425.096
-45.0594
-442.598
-46.8645
-460.64
-48.7484
-479.246
-50.7126
-498.441
-52.7577
-518.248
-54.8841
-538.688
-57.0909
-559.784
-59.3762
-581.553
-61.7362
-604.008
-64.1647
-627.157
-66.6531
-650.997
-69.1892
-675.514
-71.7575
-700.676
-74.3387
-726.431
-76.9102
-752.703
-79.4472
-779.388
-81.9237
-806.354
-84.3152
-833.445
-86.5998
-860.495
-88.7603
-887.338
-90.7834
-913.835
-92.6582
-939.892
-94.3722
-965.473
-95.9061
-990.603
-97.229
-1015.36
-98.2952
-1039.82
-99.0406
-1064.08
-99.3727
-1088.21
-99.1438
-1112.33
-98.1068
-1136.54
-95.8804
-1160.74
-91.9627
-1184.2
-85.7706
-1205.2
-76.6518
-1221.03
-63.9487
-1227.63
-47.0165
-1219.16
-25.351
-1187.52
1.27166
-1119.54
32.841
-997.797
67.4479
-788.702
110.91
-432.503
147.156
270.733
153.547
784.225
138.034
1202.58
109.602
1523.48
81.8925
1809.41
58.9659
2037.8
46.0185
2297.06
31.2189
2430.54
34.1434
2732.1
23.3855
2616.27
42.4776
3184.37
3553.83
-23.8913
-74.0801
-23.7039
-95.1788
-23.7088
-108.133
-23.7983
-121.732
-24.0011
-134.826
-24.2842
-147.588
-24.6539
-160.164
-25.0991
-172.582
-25.6206
-184.933
-26.2139
-197.261
-26.8786
-209.624
-27.6126
-222.063
-28.4153
-234.623
-29.2859
-247.34
-30.2239
-260.251
-31.2292
-273.388
-32.3018
-286.782
-33.4419
-300.462
-34.65
-314.456
-35.9268
-328.792
-37.2731
-343.494
-38.6901
-358.589
-40.1791
-374.1
-41.7413
-390.054
-43.3784
-406.473
-45.0919
-423.382
-46.8837
-440.806
-48.7554
-458.768
-50.7085
-477.293
-52.7444
-496.405
-54.8638
-516.128
-57.067
-536.485
-59.3531
-557.498
-61.7197
-579.187
-64.1628
-601.565
-66.6759
-624.644
-69.2494
-648.424
-71.8705
-672.893
-74.5224
-698.024
-77.1843
-723.769
-79.8322
-750.056
-82.4394
-776.781
-84.9787
-803.815
-87.4241
-831
-89.7536
-858.165
-91.9503
-885.141
-94.0022
-911.783
-95.9006
-937.993
-97.6351
-963.738
-99.1884
-989.05
-100.531
-1014.01
-101.616
-1038.73
-102.383
-1063.31
-102.74
-1087.86
-102.538
-1112.53
-101.523
-1137.56
-99.2897
-1162.98
-95.307
-1188.19
-88.9576
-1211.55
-79.5531
-1230.44
-66.3987
-1240.79
-48.8033
-1236.76
-26.206
-1210.12
1.72618
-1147.48
35.0316
-1031.1
71.9829
-825.654
118.768
-479.288
160.68
228.822
169.919
774.986
156.163
1216.33
125.83
1553.81
92.0223
1843.22
63.2519
2066.57
46.7115
2313.6
30.0429
2447.21
31.4202
2730.72
19.5011
2628.19
36.6103
3167.26
3515.32
-24.8087
-74.3962
-24.6319
-95.3556
-24.6421
-108.123
-24.741
-121.634
-24.9551
-134.612
-25.2529
-147.29
-25.6399
-159.777
-26.1054
-172.116
-26.6497
-184.389
-27.2684
-196.642
-27.961
-208.931
-28.7253
-221.299
-29.5606
-233.788
-30.4661
-246.435
-31.4413
-259.276
-32.4859
-272.343
-33.6
-285.668
-34.7839
-299.278
-36.038
-313.202
-37.3631
-327.467
-38.7599
-342.097
-40.2297
-357.119
-41.7738
-372.556
-43.3935
-388.434
-45.0904
-404.776
-46.8664
-421.607
-48.723
-438.949
-50.6621
-456.829
-52.6853
-475.27
-54.7938
-494.297
-56.9885
-513.933
-59.2696
-534.204
-61.6359
-555.132
-64.0852
-576.737
-66.613
-599.038
-69.2122
-622.045
-71.8728
-645.763
-74.5809
-670.184
-77.3186
-695.286
-80.0638
-721.024
-82.7907
-747.329
-85.4709
-774.101
-88.0756
-801.21
-90.5777
-828.498
-92.9545
-855.788
-95.1897
-882.906
-97.2728
-909.7
-99.1972
-936.069
-100.955
-961.98
-102.531
-987.474
-103.897
-1012.65
-105.009
-1037.62
-105.804
-1062.51
-106.196
-1087.46
-106.038
-1112.69
-105.067
-1138.53
-102.857
-1165.19
-98.8453
-1192.2
-92.3796
-1218.02
-82.7347
-1240.08
-69.1769
-1254.34
-50.9659
-1254.97
-27.4777
-1233.61
1.74286
-1176.7
36.7794
-1066.14
76.1936
-865.068
126.198
-529.293
174.349
180.671
186.319
763.016
174.619
1228.03
143.787
1584.64
104.698
1882.31
69.2075
2102.07
48.0956
2334.72
29.1152
2466.19
28.7894
2731.05
15.6216
2641.36
35.0311
3147.85
3481.15
-25.7191
-74.7032
-25.5546
-95.5202
-25.5718
-108.106
-25.6816
-121.524
-25.9082
-134.385
-26.2218
-146.977
-26.6271
-159.372
-27.1137
-171.63
-27.6816
-183.821
-28.3266
-195.997
-29.0478
-208.21
-29.8431
-220.503
-30.7118
-232.919
-31.6528
-245.494
-32.6658
-258.263
-33.7504
-271.259
-34.9068
-284.511
-36.1352
-298.05
-37.436
-311.901
-38.81
-326.093
-40.258
-340.649
-41.7813
-355.596
-43.3812
-370.957
-45.0591
-386.756
-46.8167
-403.019
-48.6558
-419.767
-50.5781
-437.027
-52.5855
-454.822
-54.6796
-473.176
-56.8618
-492.114
-59.1328
-511.662
-61.4929
-531.844
-63.9408
-552.684
-66.4742
-574.204
-69.0881
-596.424
-71.7752
-619.358
-74.5248
-643.013
-77.3221
-667.387
-80.1481
-692.46
-82.9792
-718.193
-85.7879
-744.52
-88.544
-771.345
-91.2171
-798.537
-93.7785
-825.936
-96.2053
-853.362
-98.4813
-880.63
-100.598
-907.583
-102.551
-934.116
-104.335
-960.196
-105.938
-985.871
-107.332
-1011.25
-108.475
-1036.48
-109.307
-1061.68
-109.745
-1087.03
-109.648
-1112.79
-108.746
-1139.43
-106.591
-1167.34
-102.587
-1196.2
-96.0488
-1224.56
-86.2115
-1249.92
-72.3016
-1268.25
-53.5272
-1273.74
-29.1946
-1257.94
1.28435
-1207.18
38.043
-1102.9
80.0168
-907.042
132.818
-582.094
188.021
125.468
202.746
748.291
193.253
1237.52
162.883
1615.02
119.77
1925.42
77.2042
2144.63
50.3897
2361.53
28.5015
2488.08
26.2118
2733.33
11.5754
2655.99
26.8495
3132.58
3452.78
-26.6231
-74.9993
-26.4725
-95.6708
-26.4986
-108.079
-26.6206
-121.402
-26.861
-134.145
-27.1913
-146.647
-27.6159
-158.948
-28.1245
-171.121
-28.7169
-183.229
-29.3889
-195.325
-30.1395
-207.459
-30.9665
-219.676
-31.8692
-232.016
-32.8465
-244.517
-33.8981
-257.212
-35.0235
-270.133
-36.2228
-283.312
-37.4963
-296.776
-38.8446
-310.553
-40.2682
-324.669
-41.7682
-339.149
-43.3457
-354.018
-45.0022
-369.3
-46.7391
-385.019
-48.5581
-401.2
-50.4612
-417.864
-52.4501
-435.038
-54.5267
-452.745
-56.6927
-471.01
-58.9494
-489.858
-61.2979
-509.314
-63.7381
-529.404
-66.269
-550.153
-68.8878
-571.585
-71.5895
-593.722
-74.3664
-616.581
-77.2071
-640.173
-80.0959
-664.498
-83.0127
-689.543
-85.9325
-715.273
-88.826
-741.626
-91.6613
-768.51
-94.4056
-795.793
-97.0294
-823.313
-99.5087
-850.882
-101.828
-878.31
-103.981
-905.431
-105.965
-932.132
-107.779
-958.382
-109.412
-984.238
-110.839
-1009.83
-112.019
-1035.3
-112.896
-1060.81
-113.392
-1086.53
-113.372
-1112.81
-112.565
-1140.24
-110.498
-1169.41
-106.543
-1200.16
-99.9774
-1231.12
-89.9988
-1259.9
-75.7919
-1282.46
-56.5108
-1293.03
-31.3864
-1283.07
0.3109
-1238.87
38.7799
-1141.37
83.3708
-951.633
137.932
-636.655
201.449
61.9504
219.111
730.629
212.019
1244.62
182.622
1644.41
136.841
1971.2
87.4838
2193.99
53.8589
2395.15
28.2663
2513.67
23.7405
2737.86
7.64696
2672.09
24.222
3116
3423.48
-27.5217
-75.2828
-27.3863
-95.8063
-27.4228
-108.043
-27.5584
-121.266
-27.8137
-133.89
-28.1619
-146.298
-28.6067
-158.503
-29.1382
-170.59
-29.756
-182.611
-30.4558
-194.625
-31.2365
-206.679
-32.0961
-218.817
-33.0336
-231.079
-34.0479
-243.502
-35.1387
-256.121
-36.3056
-268.966
-37.5486
-282.069
-38.868
-295.457
-40.2644
-309.157
-41.7384
-323.195
-43.2911
-337.596
-44.9237
-352.385
-46.6375
-367.586
-48.4342
-383.223
-50.3156
-399.318
-52.2835
-415.897
-54.3398
-432.982
-56.4866
-450.598
-58.7254
-468.771
-61.0579
-487.525
-63.485
-506.887
-66.0066
-526.882
-68.6218
-547.538
-71.3276
-568.879
-74.1189
-590.931
-76.9874
-613.712
-79.9213
-637.239
-82.9042
-661.515
-85.9146
-686.533
-88.9261
-712.262
-91.9076
-738.645
-94.8251
-765.592
-97.6441
-792.974
-100.333
-820.624
-102.868
-848.348
-105.233
-875.945
-107.424
-903.24
-109.442
-930.114
-111.288
-956.536
-112.956
-982.57
-114.422
-1008.36
-115.645
-1034.07
-116.574
-1059.88
-117.139
-1085.96
-117.216
-1112.73
-116.53
-1140.92
-114.586
-1171.35
-110.722
-1204.02
-104.179
-1237.67
-94.1129
-1269.96
-79.6678
-1296.91
-59.9418
-1312.75
-34.085
-1308.92
-1.22207
-1271.74
38.934
-1181.52
86.1641
-998.863
142.07
-692.561
212.594
-8.57347
235.274
707.949
230.903
1248.99
202.688
1672.63
155.388
2018.5
100.08
2249.3
58.7863
2436.45
28.4848
2543.98
21.3482
2745
3.60836
2689.83
16.54
3103.07
3406.3
-28.4156
-75.5522
-28.2965
-95.9254
-28.345
-107.995
-28.4956
-121.115
-28.7669
-133.619
-29.134
-145.931
-29.5999
-158.037
-30.1552
-170.034
-30.7993
-181.967
-31.5278
-193.897
-32.3395
-205.867
-33.2323
-217.924
-34.2054
-230.106
-35.2575
-242.45
-36.3883
-254.99
-37.5974
-267.757
-38.8849
-280.781
-40.251
-294.091
-41.6963
-307.711
-43.2215
-321.67
-44.8276
-335.99
-46.516
-350.697
-48.2881
-365.814
-50.1455
-381.365
-52.09
-397.374
-54.1237
-413.863
-56.2484
-430.857
-58.4663
-448.38
-60.7791
-466.458
-63.1885
-485.116
-65.6953
-504.38
-68.2997
-524.278
-71.0006
-544.837
-73.795
-566.085
-76.6776
-588.048
-79.6399
-610.75
-82.6694
-634.209
-85.7488
-658.436
-88.8557
-683.426
-91.9621
-709.155
-95.0351
-735.572
-98.0384
-762.589
-100.935
-790.077
-103.693
-817.866
-106.286
-845.754
-108.7
-873.531
-110.932
-901.008
-112.986
-928.06
-114.868
-954.654
-116.574
-980.864
-118.083
-1006.85
-119.356
-1032.8
-120.345
-1058.89
-120.991
-1085.32
-121.183
-1112.54
-120.648
-1141.46
-118.863
-1173.14
-115.136
-1207.75
-108.666
-1244.14
-98.5706
-1280.06
-83.9499
-1311.53
-63.8459
-1332.86
-37.3255
-1335.44
-3.37122
-1305.69
38.4147
-1223.31
88.2645
-1048.71
146.239
-750.535
221.336
-83.6702
251.225
678.059
249.922
1250.29
222.944
1699.61
174.9
2066.55
114.802
2309.39
65.4165
2485.83
29.2644
2580.13
19.0069
2755.25
-0.384152
2709.22
10.4314
3092.25
3385.06
-29.3056
-75.8063
-29.2039
-96.0271
-29.2657
-107.933
-29.4324
-120.949
-29.721
-133.33
-30.1081
-145.544
-30.5962
-157.549
-31.1762
-169.454
-31.8473
-181.296
-32.6053
-193.139
-33.4489
-205.023
-34.3758
-216.997
-35.3852
-229.096
-36.476
-241.359
-37.6475
-253.818
-38.8997
-266.505
-40.2324
-279.449
-41.646
-292.677
-43.1409
-306.216
-44.7181
-320.092
-46.3786
-334.33
-48.1237
-348.952
-49.9549
-363.983
-51.8738
-379.446
-53.8824
-395.365
-55.9828
-411.763
-58.177
-428.663
-60.467
-446.09
-62.8549
-464.07
-65.3423
-482.628
-67.9302
-501.792
-70.6188
-521.589
-73.4069
-542.049
-76.2917
-563.2
-79.2675
-585.072
-82.3256
-607.692
-85.4531
-631.082
-88.6319
-655.257
-91.8384
-680.219
-95.0431
-705.951
-98.2111
-732.404
-101.304
-759.496
-104.283
-787.098
-107.112
-815.036
-109.767
-843.1
-112.232
-871.066
-114.507
-898.733
-116.6
-925.967
-118.521
-952.733
-120.27
-979.116
-121.827
-1005.29
-123.156
-1031.47
-124.213
-1057.83
-124.952
-1084.58
-125.279
-1112.21
-124.924
-1141.81
-123.338
-1174.72
-119.796
-1211.29
-113.454
-1250.48
-103.389
-1290.12
-88.6591
-1326.26
-68.2505
-1353.26
-41.1527
-1362.54
-6.22397
-1340.62
37.059
-1266.59
89.4028
-1101.06
149.845
-810.977
229.728
-163.553
266.988
640.799
269.088
1248.19
243.382
1725.31
194.983
2114.94
131.295
2373.08
73.894
2543.23
30.7613
2623.26
16.7441
2769.27
-4.30197
2730.26
9.7716
3078.18
3365.36
-30.1924
-76.0438
-30.1091
-96.1104
-30.1856
-107.856
-30.3696
-120.765
-30.6765
-133.023
-31.0846
-145.136
-31.5959
-157.037
-32.2016
-168.849
-32.9007
-180.597
-33.6891
-192.35
-34.5653
-204.147
-35.5272
-216.035
-36.5738
-228.05
-37.7039
-240.229
-38.9171
-252.605
-40.2131
-265.209
-41.5918
-278.07
-43.0537
-291.215
-44.5992
-304.671
-46.2293
-318.462
-47.945
-332.614
-49.7476
-347.149
-51.6388
-362.092
-53.6202
-377.465
-55.694
-393.291
-57.862
-409.594
-60.1267
-426.398
-62.49
-443.727
-64.9542
-461.606
-67.5208
-480.062
-70.191
-499.122
-72.9652
-518.815
-75.8422
-539.172
-78.8191
-560.223
-81.8902
-582.001
-85.0465
-604.536
-88.2745
-627.854
-91.5556
-651.976
-94.865
-676.91
-98.1715
-702.644
-101.438
-729.137
-104.625
-756.31
-107.689
-784.034
-110.594
-812.131
-113.314
-840.381
-115.833
-868.546
-118.154
-896.412
-120.289
-923.832
-122.252
-950.77
-124.048
-977.32
-125.659
-1003.68
-127.05
-1030.08
-128.182
-1056.7
-129.025
-1083.74
-129.508
-1111.73
-129.364
-1141.96
-128.021
-1176.07
-124.714
-1214.59
-118.556
-1256.64
-108.586
-1300.09
-93.8168