/*--------------------------------*- C++ -*----------------------------------*\
| =========                 |                                                 |
| \\      /  F ield         | OpenFOAM: The Open Source CFD Toolbox           |
|  \\    /   O peration     | Version:  4.1                                   |
|   \\  /    A nd           | Web:      www.OpenFOAM.org                      |
|    \\/     M anipulation  |                                                 |
\*---------------------------------------------------------------------------*/
FoamFile
{
    version     2.0;
    format      ascii;
    class       volVectorField;
    location    "8";
    object      U;
}
// * * * * * * * * * * * * * * * * * * * * * * * * * * * * * * * * * * * * * //

dimensions      [0 1 -1 0 0 0 0];

internalField   nonuniform List<vector> 
6785
(
(1.44876e-14 -2.33778 16.5627)
(1.11036e-14 -7.91516 13.0296)
(-2.67629e-15 -5.1125 13.8365)
(4.06329e-15 -5.03777 13.351)
(7.48122e-16 -4.22623 13.2179)
(-3.90107e-16 -3.78081 12.935)
(2.23137e-15 -3.33542 12.6569)
(6.89446e-16 -3.00975 12.3408)
(-4.09652e-16 -2.77239 12.017)
(1.33962e-15 -2.66447 11.7098)
(2.23802e-16 -2.66726 11.496)
(-3.91379e-16 -2.79696 11.3758)
(4.37506e-16 -3.38889 10.9153)
(-9.55656e-17 -3.56258 9.79717)
(-8.36965e-18 -0.171306 7.63402)
(1.85898e-14 -10.4382 27.197)
(1.25163e-14 -16.3569 23.4773)
(-2.55472e-15 -11.2778 23.8317)
(4.01502e-15 -12.0455 22.0139)
(5.21521e-16 -10.3211 21.1693)
(7.71975e-17 -9.68638 19.9469)
(7.62987e-16 -8.70373 18.8732)
(9.6092e-17 -7.93593 17.7698)
(-1.86856e-16 -7.18587 16.7251)
(-1.24724e-16 -6.49373 15.6479)
(-3.49993e-16 -5.65464 14.248)
(-9.18985e-16 -4.34343 11.8859)
(-1.02695e-15 -2.32328 7.79039)
(-1.45663e-16 0.223235 2.11548)
(-2.79617e-16 1.41209 -2.0778)
(2.06866e-14 -13.0391 28.7874)
(1.06382e-14 -17.1222 25.2427)
(-1.8973e-15 -12.1596 25.2723)
(4.80395e-15 -13.467 22.6554)
(3.56403e-16 -11.2287 21.6872)
(9.64539e-16 -10.9487 19.8773)
(2.00367e-15 -9.80213 18.534)
(-2.15426e-16 -9.16047 17.0212)
(4.21886e-16 -8.38531 15.6684)
(2.1025e-15 -7.73272 14.2666)
(-2.60765e-16 -6.86365 12.5289)
(-5.75671e-16 -5.31279 9.65667)
(3.98497e-15 -2.34755 4.41996)
(3.13514e-15 4.14982 -5.84138)
(-4.93209e-16 2.12238 -6.95373)
(2.06038e-14 -13.5559 27.9101)
(1.1123e-14 -17.143 25.3045)
(-1.8104e-15 -12.6077 24.6965)
(4.56236e-15 -14.0342 21.7424)
(1.50298e-15 -11.7568 20.7504)
(9.81347e-16 -11.6523 18.6939)
(2.53094e-15 -10.5498 17.2152)
(1.18953e-15 -9.93039 15.5707)
(8.41361e-17 -9.22238 14.109)
(1.5152e-15 -8.58323 12.7012)
(1.04902e-15 -7.89951 11.1677)
(-6.39183e-16 -6.83924 9.23618)
(5.43742e-16 -5.29465 6.39129)
(1.45461e-15 -2.78661 3.18239)
(-3.20894e-16 -0.410086 -1.18384)
(2.03493e-14 -13.3248 26.757)
(1.19001e-14 -16.6348 24.933)
(-2.02051e-15 -12.3631 23.9101)
(4.03694e-15 -13.5912 20.8169)
(1.6726e-15 -11.1715 19.8463)
(9.69035e-16 -11.1092 17.5736)
(2.32374e-15 -9.80836 16.1337)
(6.59172e-16 -9.26648 14.5305)
(-8.11387e-16 -8.61783 13.215)
(1.87432e-16 -8.08735 11.894)
(5.39499e-16 -7.53403 10.5627)
(-1.63078e-16 -6.81061 9.25289)
(-3.28707e-17 -5.93318 7.79908)
(-3.21498e-16 -4.44212 6.1199)
(-1.43829e-15 -2.01083 1.94357)
(2.10976e-14 -13.3577 26.1847)
(1.09579e-14 -15.7107 24.3172)
(-1.20979e-15 -11.9714 23.2077)
(3.68092e-15 -12.741 20.2587)
(1.63596e-15 -10.2794 19.2711)
(1.79233e-15 -10.0683 16.9772)
(1.56156e-15 -8.32646 15.366)
(1.96905e-15 -7.30785 12.9407)
(2.58859e-15 -6.04558 10.8308)
(1.43852e-15 -5.68134 9.46118)
(7.12367e-16 -5.83687 9.17135)
(1.18698e-17 -6.29033 9.41595)
(-1.073e-15 -6.64981 9.9859)
(-4.4943e-16 -6.65603 10.0115)
(1.26725e-16 -4.72295 7.81607)
(2.1124e-14 -14.3701 27.5162)
(7.72993e-15 -15.4378 25.112)
(-5.71453e-16 -12.4754 24.2169)
(2.58746e-15 -12.6086 21.9279)
(4.1293e-16 -10.5722 20.9965)
(8.19535e-16 -9.99519 19.1561)
(9.31436e-16 -7.96479 17.0927)
(2.81118e-15 -5.88835 13.5177)
(3.65449e-15 -3.33384 9.74735)
(7.26296e-16 -1.56805 6.66722)
(-1.28119e-15 -0.745107 5.14174)
(-8.70977e-16 -1.49326 5.77145)
(-2.36668e-15 -3.74623 8.51574)
(-3.74385e-15 -6.23609 11.3308)
(-1.85668e-15 -5.22134 10.2989)
(2.10833e-14 -15.5143 29.2528)
(6.97381e-15 -17.0122 27.6356)
(-1.12734e-15 -13.7694 26.1933)
(2.11313e-15 -14.0509 24.1768)
(-5.23492e-16 -12.2072 23.331)
(-2.7893e-16 -11.9067 21.6798)
(1.32636e-16 -10.1194 19.8649)
(1.62174e-15 -8.25784 16.4525)
(3.53733e-15 -5.47027 12.5559)
(1.86661e-15 -2.96584 8.66935)
(1.17334e-15 -0.457647 5.01903)
(4.81878e-15 1.63669 1.55018)
(5.95204e-15 2.59183 -0.386641)
(6.29786e-15 1.52619 0.311157)
(4.31736e-15 -0.402834 2.17135)
(1.9526e-14 -14.9185 27.3228)
(1.04138e-14 -18.7609 30.1173)
(9.81732e-16 -15.1549 27.3203)
(1.5331e-15 -15.0964 24.7786)
(-1.69565e-16 -13.5309 23.6548)
(8.97094e-16 -13.3145 21.9719)
(-9.38881e-17 -12.1517 20.4526)
(-4.27486e-17 -11.0544 18.0755)
(3.04751e-15 -9.25352 15.2823)
(2.23433e-15 -7.27593 12.1429)
(1.11716e-15 -4.97065 8.75732)
(6.84834e-15 -2.26541 4.81706)
(4.7457e-15 0.915992 0.145105)
(5.23921e-15 3.8591 -4.0097)
(8.39559e-15 2.34509 -5.91735)
(1.85078e-14 -13.0183 23.0745)
(1.40966e-14 -18.6593 30.1958)
(3.53329e-15 -15.6778 27.1401)
(2.0416e-15 -14.7518 23.7626)
(6.82375e-16 -13.3312 22.0628)
(1.46692e-15 -12.8397 20.2463)
(1.30479e-15 -11.9598 18.665)
(2.9048e-16 -11.1516 16.8021)
(1.71949e-15 -10.0982 14.783)
(2.56094e-15 -8.86458 12.5862)
(1.6564e-15 -7.46925 10.2087)
(3.3339e-15 -5.74401 7.64359)
(4.47897e-15 -3.84875 4.65835)
(3.62497e-15 -1.05703 1.45985)
(2.12213e-15 1.01315 -3.87753)
(1.77402e-14 -11.4017 19.9048)
(1.59131e-14 -17.7108 29.2883)
(5.53997e-15 -15.3863 26.4983)
(1.95354e-15 -13.9129 22.7242)
(1.07327e-15 -12.4641 20.7202)
(2.3299e-15 -11.7765 18.8786)
(2.0556e-15 -10.886 17.2999)
(1.08262e-15 -10.0794 15.6325)
(1.94114e-15 -9.20302 13.9616)
(2.36532e-15 -8.24751 12.2687)
(1.85466e-15 -7.24422 10.4961)
(2.26287e-15 -6.01915 8.63482)
(2.49167e-15 -4.70924 6.42523)
(2.39648e-15 -2.59841 3.66313)
(4.97719e-16 -0.275798 -1.60811)
(1.71532e-14 -10.5339 18.3882)
(1.69968e-14 -16.9019 28.4517)
(6.33447e-15 -14.9954 25.8889)
(1.95186e-15 -13.2328 21.9879)
(1.41341e-15 -11.7252 19.8284)
(2.56043e-15 -10.9598 18.028)
(2.27963e-15 -10.0604 16.5396)
(1.21295e-15 -9.2756 15.0245)
(1.2498e-15 -8.46892 13.576)
(1.18927e-15 -7.65531 12.1652)
(8.65379e-16 -6.85335 10.716)
(7.44598e-16 -5.89944 9.21797)
(9.67592e-16 -4.91892 7.46025)
(7.18418e-16 -3.31114 5.31962)
(-1.86326e-15 -0.693065 0.100315)
(1.6581e-14 -10.3055 18.0359)
(1.76963e-14 -16.2416 27.6193)
(7.55746e-15 -14.9037 25.5709)
(1.38488e-15 -13.3316 21.9736)
(1.27047e-15 -11.962 19.6844)
(1.59869e-15 -11.2367 17.9166)
(-5.55034e-18 -10.4842 16.4786)
(1.10637e-15 -9.78515 15.0569)
(1.69852e-15 -9.02662 13.631)
(1.13926e-15 -8.21754 12.1975)
(9.28566e-16 -7.42055 10.7846)
(2.72224e-16 -6.60481 9.53662)
(-1.84454e-16 -5.89712 8.42712)
(-1.38743e-16 -4.79769 7.32119)
(-2.7269e-15 -2.48709 3.2586)
(1.59529e-14 -10.4145 17.5829)
(1.76091e-14 -15.2854 25.9051)
(4.21744e-15 -13.2814 22.7644)
(-3.4317e-16 -11.2604 19.0713)
(1.60002e-15 -9.83818 17.1143)
(2.75496e-16 -9.13493 15.6567)
(-2.2235e-15 -8.54178 14.6933)
(-1.88661e-15 -8.22635 13.7638)
(-2.01849e-15 -7.95992 12.9005)
(-1.8301e-15 -7.73159 11.9716)
(-2.07841e-15 -7.55055 11.1984)
(-2.88348e-15 -7.42254 10.86)
(-3.35231e-15 -7.3126 10.9041)
(-4.25688e-15 -6.77503 10.7283)
(-7.23145e-15 -4.71356 7.60725)
(1.17931e-14 -9.40498 16.0519)
(1.80761e-14 -17.3068 27.0241)
(1.00914e-14 -18.4848 27.1537)
(2.32577e-15 -17.2686 23.9705)
(7.98516e-16 -15.1147 20.6876)
(2.00665e-15 -13.1065 17.7644)
(8.43706e-15 -10.8914 14.7985)
(1.55212e-14 -8.66472 11.832)
(1.87825e-14 -6.56209 9.17841)
(1.48617e-14 -5.35932 7.64286)
(7.33036e-15 -5.29072 8.10734)
(5.90384e-15 -6.35479 10.2029)
(2.05192e-15 -7.39528 12.4111)
(-4.69842e-15 -7.84389 13.063)
(-4.52184e-15 -5.12637 9.28081)
(4.48913e-16 1.63189 0.243722)
(5.26954e-15 0.46642 -0.701297)
(5.0892e-15 0.0406689 -0.849252)
(5.01521e-15 0.198716 -0.957626)
(4.03962e-15 0.249272 -1.02125)
(4.72818e-15 0.329604 -1.31953)
(3.39208e-15 0.340333 -0.980702)
(3.46497e-15 0.431591 -0.997191)
(3.14715e-15 0.4836 -0.974041)
(4.61621e-15 0.602472 -1.24477)
(3.29011e-15 0.56592 -0.909756)
(3.01539e-15 0.655052 -0.852764)
(4.03845e-15 0.798849 -1.10566)
(2.79958e-15 0.705716 -0.793917)
(2.67539e-15 0.811738 -0.776903)
(2.38861e-15 0.825947 -0.731886)
(3.53437e-15 0.98338 -0.937016)
(2.52173e-15 0.869025 -0.677389)
(2.09497e-15 0.948455 -0.626216)
(3.16158e-15 1.11494 -0.782137)
(1.98338e-15 0.929435 -0.560719)
(1.80421e-15 1.04165 -0.538066)
(1.67301e-15 1.02732 -0.495576)
(2.58156e-15 1.19241 -0.582659)
(1.66732e-15 0.970132 -0.412873)
(1.63083e-15 1.07042 -0.384515)
(1.38739e-15 1.05248 -0.349169)
(2.30914e-15 1.1763 -0.36918)
(1.44185e-15 0.953308 -0.26646)
(1.35394e-15 1.01716 -0.240354)
(2.16582e-15 1.12354 -0.191161)
(1.37763e-15 0.875289 -0.138242)
(1.41628e-15 0.955021 -0.114844)
(1.26649e-15 0.93159 -0.0972788)
(2.01283e-15 1.00341 0.0341941)
(1.55183e-15 0.778575 0.0349825)
(1.69719e-15 0.827624 0.0360949)
(2.96636e-15 0.86626 0.231054)
(2.41627e-15 0.638604 0.159783)
(2.76548e-15 0.682872 0.165582)
(3.191e-15 0.659794 0.141924)
(4.85649e-15 0.681167 0.373792)
(3.44852e-15 0.49428 0.25435)
(3.47858e-15 0.523105 0.235017)
(3.26708e-15 0.503022 0.175744)
(4.4386e-15 0.52887 0.442704)
(2.43141e-15 0.393857 0.34556)
(1.92476e-15 0.417471 0.25311)
(2.1353e-15 0.425738 0.553971)
(1.37347e-15 0.338483 0.418016)
(9.58901e-16 0.336996 0.345767)
(4.32217e-16 0.328644 0.2209)
(-1.89571e-16 0.298849 0.557071)
(-6.42372e-16 0.209769 0.431351)
(-1.09463e-15 0.199123 0.369069)
(-8.61417e-16 0.203725 0.235118)
(2.28782e-16 0.202776 0.362082)
(9.67425e-16 -0.105649 0.21727)
(-1.84229e-15 0.0405736 0.227133)
(6.77216e-15 0.02412 -0.832014)
(5.2387e-15 -0.383323 -0.765661)
(8.55023e-15 -0.229047 -1.38575)
(1.05866e-14 -0.0370632 -1.94025)
(5.06214e-15 -0.528299 -2.07459)
(-7.10175e-15 -0.723345 -0.797803)
(-1.06589e-14 -0.468177 -0.436091)
(-2.12424e-14 -1.20937 1.29343)
(-1.92014e-14 -1.53259 2.14044)
(-1.80557e-14 -1.67981 2.31067)
(-1.7897e-14 -1.63349 2.69401)
(-2.5595e-14 -2.81227 5.24097)
(-2.02764e-14 -3.12447 4.84281)
(-2.01313e-14 -3.55763 4.99956)
(-2.03268e-14 -3.50056 5.21816)
(-2.91098e-14 -5.39169 8.19437)
(-2.17573e-14 -5.50623 6.46997)
(-2.17093e-14 -5.55825 6.64475)
(-2.77847e-14 -7.80126 9.66096)
(-1.88609e-14 -7.69026 7.41094)
(-1.81355e-14 -7.93222 8.22641)
(-1.94229e-14 -8.55935 10.5986)
(-1.63254e-14 -8.36164 10.4893)
(-1.43725e-14 -8.433 10.6857)
(-1.37558e-14 -9.45042 11.5925)
(-1.07224e-14 -8.98855 10.9889)
(-9.34004e-15 -9.09205 11.5718)
(-9.41023e-15 -9.00517 11.7091)
(-1.01735e-14 -9.0173 11.8407)
(-1.17748e-14 -8.98606 12.0246)
(-1.388e-14 -8.99841 12.2085)
(-1.59526e-14 -8.9938 12.3486)
(-1.78806e-14 -8.95838 12.429)
(-2.73876e-14 -9.62525 13.1511)
(-2.35624e-14 -9.4634 12.8508)
(-2.46883e-14 -9.47436 12.9659)
(-2.333e-14 -9.50973 12.816)
(-2.09391e-14 -9.47986 12.446)
(-1.89235e-14 -9.5459 12.6987)
(-1.64581e-14 -9.55315 12.9205)
(-1.43678e-14 -9.62004 13.275)
(-1.29901e-14 -9.60566 13.6278)
(-1.6082e-14 -10.5623 15.0283)
(-1.23964e-14 -10.1954 13.9434)
(-1.3582e-14 -10.3041 14.2773)
(-1.54633e-14 -10.3089 14.4962)
(-1.7616e-14 -10.3815 14.7504)
(-1.9638e-14 -10.4331 14.8688)
(-2.14664e-14 -10.4995 14.9094)
(-2.37665e-14 -10.5683 15.0845)
(-2.53849e-14 -10.6881 15.399)
(-2.64337e-14 -10.7274 15.8914)
(-3.23424e-14 -11.7405 18.6844)
(-2.42171e-14 -11.1734 17.4533)
(-2.34549e-14 -11.3033 18.0414)
(-2.21479e-14 -11.3284 18.3937)
(-2.145e-14 -11.4525 18.8107)
(-2.12342e-14 -11.4905 19.2347)
(-2.20353e-14 -11.6452 19.8794)
(-2.34935e-14 -11.7267 20.2555)
(-2.52767e-14 -11.8356 20.6281)
(-3.23238e-14 -11.8876 22.096)
(-2.50371e-14 -11.5616 21.0313)
(-2.46166e-14 -11.6406 21.5686)
(-2.20428e-14 -11.7311 21.8177)
(-1.79093e-14 -11.7436 21.6914)
(-1.31039e-14 -11.8366 21.6006)
(-8.2062e-15 -11.9005 21.4727)
(-4.05927e-15 -11.892 21.4769)
(-1.84458e-15 -12.1343 21.9089)
(4.25858e-15 -10.6083 20.6977)
(4.54491e-15 -10.9849 20.9894)
(5.75843e-15 -10.9663 21.077)
(5.5722e-15 -10.9771 21.2164)
(5.77275e-15 -11.0226 21.5155)
(6.28829e-15 -11.0232 21.4732)
(7.05231e-15 -10.999 21.2761)
(7.82317e-15 -10.986 21.0317)
(8.49489e-15 -11.0797 20.698)
(1.00613e-14 -8.80849 17.8702)
(9.21004e-15 -9.40907 19.0648)
(9.2394e-15 -9.25736 18.1113)
(8.73615e-15 -9.32175 17.3288)
(8.13421e-15 -9.25399 16.3327)
(7.52099e-15 -9.16522 15.313)
(7.82271e-15 -9.11213 14.5438)
(6.94332e-15 -8.87287 13.114)
(6.46521e-15 -8.65678 11.8274)
(6.04681e-15 -8.51525 10.5644)
(4.37916e-15 -5.27761 4.51888)
(5.82452e-15 -6.67748 8.67758)
(5.45844e-15 -6.18609 7.33443)
(4.95397e-15 -6.22043 6.93128)
(4.62795e-15 -5.879 6.31392)
(4.3632e-15 -5.76496 5.75567)
(3.84486e-15 -5.5596 4.59411)
(3.29932e-15 -5.2024 3.4246)
(3.35968e-15 -5.20069 3.44505)
(1.14861e-15 -3.82406 -0.106461)
(2.74754e-15 -4.25003 2.41259)
(2.28091e-15 -4.22045 1.19687)
(-2.88779e-16 -2.79772 -2.43559)
(1.21957e-15 -5.14689 -0.715947)
(7.21496e-16 -3.75389 -0.955707)
(6.63757e-16 -3.56419 -0.547066)
(8.70664e-16 -4.48603 -0.869928)
(6.51059e-16 -3.17174 -0.483523)
(9.37753e-16 -4.06346 -0.753974)
(7.15042e-16 -3.76024 -0.528066)
(4.96663e-16 -3.13969 -0.347041)
(6.85728e-16 -3.7791 -0.547722)
(5.10105e-16 -3.55186 -0.386254)
(3.88342e-16 -3.05963 -0.244833)
(4.75289e-16 -4.06416 -0.388607)
(3.19008e-16 -2.84178 -0.214845)
(4.42433e-16 -3.69688 -0.341881)
(3.8733e-16 -3.33536 -0.277649)
(3.38728e-16 -2.92935 -0.181936)
(4.5367e-16 -3.88886 -0.297658)
(3.16113e-16 -2.71008 -0.171298)
(5.0261e-16 -3.54677 -0.259962)
(4.27629e-16 -3.32296 -0.241254)
(3.30463e-16 -2.76832 -0.158346)
(4.03483e-16 -3.36331 -0.261074)
(2.57865e-16 -3.20064 -0.236574)
(1.52473e-16 -2.75135 -0.158033)
(1.39763e-16 -3.69793 -0.244591)
(2.83315e-17 -2.58061 -0.148545)
(-2.8889e-17 -3.38208 -0.20873)
(-5.96015e-17 -3.10889 -0.199559)
(-2.33127e-17 -2.72305 -0.131649)
(3.9858e-17 -3.66687 -0.185663)
(1.01786e-16 -2.55738 -0.0980878)
(2.51998e-16 -3.37874 -0.0947385)
(3.1906e-16 -3.23934 -0.0895379)
(2.62004e-16 -2.69224 -0.0220159)
(4.39387e-16 -3.31232 0.0076073)
(3.86232e-16 -3.18804 0.0234635)
(2.88595e-16 -2.75088 0.07264)
(3.7523e-16 -3.73155 0.121087)
(2.31119e-16 -2.63121 0.131191)
(2.61612e-16 -3.47309 0.23044)
(9.77276e-17 -3.17543 0.160344)
(1.27109e-17 -2.80243 0.152053)
(-1.39103e-16 -3.7805 0.177089)
(-2.10332e-16 -2.65221 0.137796)
(-3.94274e-16 -3.51299 0.207253)
(-4.62203e-16 -3.2971 0.100616)
(-4.24623e-16 -2.76312 0.102351)
(-6.04947e-16 -3.3906 0.115659)
(-4.85951e-16 -3.20743 0.0484764)
(-3.53052e-16 -2.76966 0.06646)
(-4.01022e-16 -3.73605 0.0597)
(-2.11573e-16 -2.61198 0.0593004)
(-2.55993e-16 -3.4388 0.0837597)
(-1.1777e-16 -3.09236 0.00179581)
(-1.0855e-16 -2.71426 0.00916926)
(-1.306e-16 -3.63434 -0.0508033)
(-1.26567e-16 -2.51356 -0.0470616)
(-2.14426e-16 -3.31005 -0.103603)
(-2.36411e-16 -3.04984 -0.193044)
(-2.304e-16 -2.52303 -0.156393)
(-3.71533e-16 -3.06246 -0.296751)
(-2.98029e-16 -2.84404 -0.332199)
(-2.27648e-16 -2.40837 -0.263689)
(-3.29348e-16 -3.21963 -0.423216)
(-2.43445e-16 -2.17289 -0.316155)
(-3.6816e-16 -2.84049 -0.508292)
(-3.15285e-16 -2.47529 -0.516325)
(-2.68181e-16 -2.10952 -0.420582)
(-3.65882e-16 -2.80048 -0.632038)
(-2.69071e-16 -1.8296 -0.466124)
(-3.85404e-16 -2.40811 -0.718989)
(-3.21976e-16 -2.12574 -0.689524)
(-2.70691e-16 -1.66992 -0.563743)
(-4.14053e-16 -2.01938 -0.872456)
(-4.20463e-16 -1.78157 -0.810273)
(-3.54234e-16 -1.40383 -0.656416)
(-5.00023e-16 -1.94279 -0.946146)
(-3.9946e-16 -1.12728 -0.701024)
(-6.19744e-16 -1.39743 -1.08384)
(3.92819e-58 0.0949934 0.0985851)
(7.55833e-57 0.124508 0.0966921)
(3.07309e-56 0.144363 0.097354)
(3.37573e-56 0.163285 0.0974945)
(-3.74063e-55 0.182026 0.0985026)
(-2.47161e-54 0.199869 0.0995779)
(-4.72208e-54 0.217586 0.101128)
(2.63858e-53 0.234951 0.10291)
(2.14849e-52 0.252257 0.105052)
(4.16946e-52 0.269479 0.107475)
(-2.64178e-51 0.286751 0.110221)
(-2.00488e-50 0.304104 0.113262)
(-2.82745e-50 0.321615 0.116612)
(3.09845e-49 0.339327 0.120261)
(1.86432e-48 0.357296 0.124215)
(8.76414e-49 0.375565 0.128472)
(-3.61746e-47 0.394178 0.133035)
(-1.60224e-46 0.413177 0.137905)
(1.39372e-46 0.432602 0.143087)
(3.87009e-45 0.45249 0.148582)
(1.18247e-44 0.472879 0.154398)
(-3.42043e-44 0.493803 0.160539)
(-3.64628e-43 0.515298 0.167012)
(-6.73982e-43 0.537399 0.173825)
(4.59861e-42 0.56014 0.180984)
(2.95824e-41 0.583554 0.1885)
(2.1139e-41 0.607674 0.196381)
(-4.64659e-40 0.632532 0.204638)
(-2.03457e-39 0.658161 0.21328)
(9.01792e-40 0.68459 0.222317)
(3.78075e-38 0.711847 0.231759)
(1.17289e-37 0.739957 0.241615)
(-2.02376e-37 0.768941 0.251892)
(-2.53978e-36 0.79881 0.262595)
(-5.65307e-36 0.829569 0.273723)
(1.81613e-35 0.861207 0.285274)
(1.42731e-34 0.893698 0.297237)
(2.3298e-34 0.926994 0.30959)
(-1.1206e-33 0.961021 0.322304)
(-6.78274e-33 0.995675 0.335334)
(-8.85949e-33 1.03082 0.348621)
(5.15482e-32 1.06629 0.362089)
(2.74849e-31 1.1019 0.375647)
(3.48537e-31 1.13742 0.389185)
(-1.76189e-30 1.17264 0.402583)
(-9.46489e-30 1.20736 0.415706)
(-1.43938e-29 1.24142 0.428414)
(4.10225e-29 1.27468 0.440559)
(2.68106e-28 1.30708 0.451987)
(5.44875e-28 1.3386 0.462528)
(-4.02708e-28 1.36924 0.471992)
(-5.7205e-27 1.39897 0.480151)
(-1.61991e-26 1.42772 0.48672)
(-1.25314e-26 1.4553 0.491325)
(7.1809e-26 1.48136 0.493463)
(3.25757e-25 1.5052 0.492418)
(6.34421e-25 1.52559 0.487166)
(1.51063e-25 1.54044 0.476268)
(-3.11941e-24 1.54657 0.457798)
(-1.12079e-23 1.53962 0.429394)
(-2.17027e-23 1.51401 0.388253)
(-2.00326e-23 1.46218 0.33155)
(2.75614e-23 1.37507 0.256477)
(1.75711e-22 1.23901 0.161655)
(4.89649e-22 1.03399 0.0475955)
(9.42899e-22 0.729806 -0.0801245)
(9.45799e-22 0.19857 -0.238181)
(-1.84677e-22 -0.566312 -0.329762)
(-8.2414e-23 -1.02942 -0.372483)
(-2.43457e-23 -1.48136 -0.384811)
(-6.72539e-23 -1.87088 -0.406149)
(1.20189e-22 -2.26962 -0.374873)
(-4.44354e-22 -2.5667 -0.383742)
(2.02582e-21 -2.9856 -0.292886)
(-1.08964e-20 -3.10278 -0.366849)
(1.37745e-19 -3.71719 -0.165778)
(-2.20414e-18 -3.39315 -0.503224)
(4.04653e-17 -4.515 -0.0839364)
(-9.70944e-17 -5.34949 -0.829841)
(-7.31833e-58 0.0953853 0.109906)
(2.44881e-56 0.124764 0.107196)
(1.32053e-55 0.144273 0.107804)
(2.80128e-55 0.163127 0.107769)
(-9.03836e-55 0.181712 0.108792)
(-9.54807e-54 0.199462 0.109883)
(-2.84011e-53 0.217063 0.111524)
(5.34387e-53 0.23433 0.113422)
(8.04589e-52 0.251531 0.115723)
(2.47342e-51 0.268654 0.118334)
(-5.81026e-51 0.285826 0.1213)
(-7.59823e-50 0.303081 0.124588)
(-1.95098e-49 0.320494 0.128213)
(7.98291e-49 0.338108 0.132164)
(7.33977e-48 0.355979 0.136445)
(1.24289e-47 0.374149 0.141054)
(-1.05389e-46 0.392664 0.145993)
(-6.70161e-46 0.411564 0.151264)
(-3.911e-46 0.430888 0.156869)
(1.23048e-44 0.450674 0.162813)
(5.44406e-44 0.470958 0.1691)
(-4.35721e-44 0.491777 0.175737)
(-1.24096e-42 0.513165 0.182729)
(-3.7219e-42 0.535155 0.190085)
(1.01907e-41 0.557783 0.197812)
(1.0706e-40 0.581081 0.20592)
(1.97881e-40 0.605082 0.214418)
(-1.22561e-39 0.629819 0.223316)
(-7.85493e-39 0.655322 0.232625)
(-6.62074e-39 0.681623 0.242353)
(1.08909e-37 0.708749 0.25251)
(4.88835e-37 0.736726 0.263104)
(-3.98206e-38 0.765575 0.27414)
(-7.71532e-36 0.795308 0.28562)
(-2.59088e-35 0.825932 0.297541)
(2.39686e-35 0.857437 0.309893)
(4.47633e-34 0.889801 0.322658)
(1.1904e-33 0.922978 0.335807)
(-1.88657e-33 0.9569 0.349298)
(-2.15202e-32 0.991466 0.363072)
(-4.91638e-32 1.02655 0.377056)
(8.95409e-32 1.06198 0.391159)
(8.59362e-31 1.09758 0.405274)
(1.89781e-30 1.13313 0.419279)
(-2.67948e-30 1.16842 0.433047)
(-2.81328e-29 1.20326 0.446441)
(-6.83093e-29 1.23747 0.459326)
(3.26818e-29 1.27094 0.471563)
(7.20343e-28 1.3036 0.483008)
(2.1431e-27 1.33544 0.493502)
(1.2835e-27 1.36645 0.502855)
(-1.26291e-26 1.39665 0.510831)
(-5.23694e-26 1.42597 0.517118)
(-8.47967e-26 1.45426 0.521304)
(7.90697e-26 1.48123 0.522809)
(8.30996e-25 1.50626 0.520794)
(2.29194e-24 1.52825 0.514025)
(2.68743e-24 1.54525 0.500779)
(-4.03544e-24 1.55424 0.478798)
(-2.78986e-23 1.55097 0.445408)
(-7.32058e-23 1.52996 0.397507)
(-1.14649e-22 1.48364 0.332118)
(-6.35646e-23 1.4027 0.246348)
(2.63222e-22 1.27298 0.138937)
(1.14669e-21 1.07362 0.0114787)
(2.70765e-21 0.774662 -0.131012)
(3.52951e-21 0.24774 -0.305053)
(2.42519e-24 -0.584569 -0.394685)
(-1.06836e-22 -1.0568 -0.405007)
(-2.58871e-23 -1.50836 -0.401957)
(-6.68994e-23 -1.9017 -0.416506)
(1.19096e-22 -2.30028 -0.379621)
(-4.43684e-22 -2.601 -0.38433)
(2.03205e-21 -3.00901 -0.291048)
(-1.1082e-20 -3.13545 -0.362815)
(1.41862e-19 -3.71473 -0.162632)
(-2.27075e-18 -3.41494 -0.493831)
(4.04945e-17 -4.47911 -0.0813367)
(-9.40302e-17 -5.23672 -0.825673)
(-7.90215e-57 0.0956325 0.115971)
(5.61727e-56 0.124931 0.112946)
(4.02512e-55 0.144238 0.113518)
(1.1594e-54 0.16305 0.113393)
(-1.16948e-54 0.181549 0.114426)
(-2.66068e-53 0.199249 0.115527)
(-1.03841e-52 0.216787 0.117221)
(3.19977e-53 0.234002 0.119184)
(2.17664e-51 0.251148 0.121575)
(8.89525e-51 0.26822 0.12429)
(-5.94106e-51 0.285339 0.127378)
(-2.07292e-49 0.302543 0.130803)
(-7.34216e-49 0.319904 0.13458)
(1.31949e-48 0.337468 0.138697)
(2.05831e-47 0.355288 0.143158)
(5.39559e-47 0.373408 0.14796)
(-2.16689e-46 0.391872 0.153105)
(-1.95296e-45 0.41072 0.158595)
(-3.02243e-45 0.429993 0.164433)
(2.82853e-44 0.449726 0.170621)
(1.67073e-43 0.469958 0.177167)
(6.00255e-44 0.490722 0.184074)
(-3.05253e-42 0.512055 0.191349)
(-1.23547e-41 0.533989 0.199001)
(1.28919e-41 0.55656 0.207038)
(2.76596e-40 0.579798 0.215469)
(7.58556e-40 0.603739 0.224303)
(-2.23267e-39 0.628414 0.233551)
(-2.11681e-38 0.653854 0.243222)
(-3.65636e-38 0.68009 0.253326)
(2.23923e-37 0.707151 0.263873)
(1.37292e-36 0.735062 0.274868)
(1.22919e-36 0.763844 0.286316)
(-1.67936e-35 0.793511 0.298218)
(-7.59058e-35 0.824071 0.310567)
(-1.72263e-35 0.855515 0.323352)
(1.00074e-33 0.887823 0.33655)
(3.62369e-33 0.92095 0.350125)
(-8.07004e-34 0.954831 0.364029)
(-4.82949e-32 0.989368 0.378198)
(-1.52499e-31 1.02443 0.392548)
(5.21439e-32 1.05987 0.406981)
(1.88708e-30 1.09549 0.421381)
(5.75617e-30 1.13108 0.435625)
(-2.99381e-31 1.16643 0.44958)
(-5.83517e-29 1.20134 0.463112)
(-1.92777e-28 1.23565 0.476091)
(-1.109e-28 1.26924 0.488385)
(1.3287e-27 1.30203 0.499858)
(5.41313e-27 1.33403 0.510357)
(7.42278e-27 1.36524 0.51969)
(-1.73182e-26 1.39566 0.527614)
(-1.14273e-25 1.42527 0.533805)
(-2.60922e-25 1.45394 0.537826)
(-9.04114e-26 1.48139 0.539058)
(1.42005e-24 1.50709 0.536587)
(5.34318e-24 1.52999 0.529061)
(9.41964e-24 1.54824 0.514587)
(1.2659e-24 1.55888 0.490728)
(-4.60839e-23 1.55773 0.454648)
(-1.6064e-22 1.5393 0.403084)
(-3.21754e-22 1.49601 0.332976)
(-3.72312e-22 1.41838 0.241369)
(8.24374e-23 1.29185 0.126923)
(1.7389e-21 1.09521 -0.00807196)
(5.1703e-21 0.797777 -0.160111)
(8.06043e-21 0.269494 -0.334746)
(5.35797e-22 -0.557262 -0.472397)
(-1.59106e-22 -1.04129 -0.464011)
(-3.21953e-23 -1.49302 -0.433407)
(-6.60566e-23 -1.8899 -0.4343)
(1.17617e-22 -2.29083 -0.388897)
(-4.42743e-22 -2.59853 -0.386793)
(2.04009e-21 -3.00167 -0.289472)
(-1.13188e-20 -3.14026 -0.357285)
(1.47056e-19 -3.6945 -0.157807)
(-2.34859e-18 -3.41755 -0.481106)
(4.05478e-17 -4.43902 -0.0710059)
(-9.10941e-17 -5.14677 -0.833271)
(-3.9263e-56 0.0960268 0.122983)
(1.03267e-55 0.125192 0.11967)
(1.13573e-54 0.144207 0.120219)
(4.16423e-54 0.162949 0.120015)
(1.25633e-54 0.181317 0.121069)
(-6.81478e-53 0.198937 0.122195)
(-3.42208e-52 0.21638 0.123958)
(-2.71618e-52 0.233514 0.126005)
(5.40822e-51 0.250576 0.128508)
(2.88326e-50 0.267569 0.131353)
(1.44281e-50 0.284608 0.134591)
(-5.23183e-49 0.301734 0.138184)
(-2.43849e-48 0.319017 0.142146)
(8.98621e-49 0.336504 0.146465)
(5.3741e-47 0.354247 0.151144)
(1.92401e-46 0.37229 0.15618)
(-3.57104e-46 0.390676 0.161576)
(-5.30156e-45 0.409447 0.167331)
(-1.28903e-44 0.42864 0.173449)
(5.81493e-44 0.448294 0.179933)
(4.73688e-43 0.468445 0.186789)
(6.10979e-43 0.489127 0.194023)
(-6.938e-42 0.510376 0.20164)
(-3.69915e-41 0.532225 0.20965)
(-3.96611e-42 0.554708 0.21806)
(6.67025e-40 0.577857 0.22688)
(2.46002e-39 0.601706 0.236119)
(-3.03398e-39 0.626286 0.245788)
(-5.32443e-38 0.65163 0.255897)
(-1.36112e-37 0.677768 0.266455)
(4.00024e-37 0.704729 0.277471)
(3.57361e-36 0.732538 0.288951)
(6.1319e-36 0.761218 0.300898)
(-3.30268e-35 0.790784 0.31331)
(-2.03387e-34 0.821244 0.32618)
(-2.23487e-34 0.852593 0.339492)
(2.04646e-33 0.884812 0.353217)
(9.91324e-33 0.91786 0.367316)
(7.10605e-33 0.951674 0.381732)
(-9.92756e-32 0.986161 0.396391)
(-4.18696e-31 1.0212 0.411201)
(-2.60064e-31 1.05663 0.426054)
(3.77196e-30 1.09226 0.440824)
(1.54078e-29 1.1279 0.455381)
(1.29775e-29 1.16334 0.469588)
(-1.08106e-28 1.19836 0.483312)
(-4.85303e-28 1.23281 0.496426)
(-6.48644e-28 1.26656 0.508807)
(2.0511e-27 1.29956 0.520328)
(1.23455e-26 1.33179 0.530839)
(2.51079e-26 1.36329 0.540155)
(-1.08703e-26 1.39407 0.548025)
(-2.23623e-25 1.42411 0.554114)
(-6.77278e-25 1.45333 0.557962)
(-7.50857e-25 1.48151 0.55891)
(1.91583e-24 1.50819 0.555972)
(1.11275e-23 1.53245 0.54766)
(2.58369e-23 1.55253 0.531899)
(2.35777e-23 1.56559 0.506035)
(-5.8572e-23 1.56755 0.467033)
(-3.12411e-22 1.55294 0.411421)
(-7.66107e-22 1.51415 0.336007)
(-1.18703e-21 1.44149 0.237701)
(-8.27156e-22 1.3199 0.115018)
(1.81579e-21 1.12771 -0.029189)
(8.49591e-21 0.832757 -0.193125)
(1.60385e-20 0.310214 -0.37647)
(2.11345e-21 -0.541769 -0.544546)
(-1.9253e-22 -1.04448 -0.547068)
(-5.74345e-23 -1.49586 -0.483887)
(-6.54595e-23 -1.8925 -0.460854)
(1.15981e-22 -2.29369 -0.402992)
(-4.41559e-22 -2.60559 -0.391567)
(2.04874e-21 -3.00304 -0.288097)
(-1.1575e-20 -3.15034 -0.351021)
(1.52533e-19 -3.68225 -0.15126)
(-2.42378e-18 -3.42408 -0.466089)
(4.05976e-17 -4.40649 -0.0589212)
(-8.79945e-17 -5.07847 -0.783095)
(-1.54083e-55 0.0964047 0.129596)
(9.45434e-56 0.125442 0.126103)
(2.9333e-54 0.144191 0.126636)
(1.34869e-53 0.162863 0.126376)
(1.69345e-53 0.181109 0.127455)
(-1.56279e-52 0.198653 0.128614)
(-1.03294e-51 0.216007 0.130448)
(-1.7511e-51 0.233068 0.132583)
(1.1991e-50 0.250051 0.135198)
(8.56122e-50 0.266971 0.138173)
(1.23961e-49 0.283937 0.14156)
(-1.19709e-48 0.300992 0.145318)
(-7.35526e-48 0.318205 0.149463)
(-5.14068e-48 0.335621 0.15398)
(1.29174e-46 0.353294 0.158874)
(6.06777e-46 0.371266 0.164139)
(-2.87751e-46 0.389583 0.169778)
(-1.33503e-44 0.408282 0.175792)
(-4.45376e-44 0.427405 0.182184)
(9.92621e-44 0.446987 0.188957)
(1.24519e-42 0.467064 0.196116)
(2.6514e-42 0.487672 0.203667)
(-1.42028e-41 0.508845 0.211617)
(-1.01681e-40 0.530617 0.219975)
(-1.03201e-40 0.553021 0.228748)
(1.48389e-39 0.576089 0.237946)
(7.13891e-39 0.599855 0.247579)
(-6.41674e-40 0.624351 0.257658)
(-1.2441e-37 0.649608 0.268192)
(-4.25903e-37 0.675658 0.279191)
(5.39958e-37 0.702529 0.290664)
(8.63399e-36 0.730248 0.302615)
(2.15105e-35 0.758838 0.315047)
(-5.54756e-35 0.788315 0.327956)
(-5.03048e-34 0.818689 0.341333)
(-9.33621e-34 0.849957 0.355158)
(3.69425e-33 0.882101 0.369398)
(2.48317e-32 0.915085 0.384008)
(3.6772e-32 0.948849 0.398924)
(-1.81326e-31 0.983303 0.414064)
(-1.04492e-30 1.01833 0.429325)
(-1.44064e-30 1.05377 0.44459)
(6.62297e-30 1.08944 0.459726)
(3.738e-29 1.12514 0.474593)
(5.8279e-29 1.16066 0.489051)
(-1.67957e-28 1.1958 0.502969)
(-1.10827e-27 1.23038 0.516223)
(-2.21875e-27 1.26429 0.5287)
(2.08781e-27 1.29747 0.54028)
(2.54319e-26 1.32992 0.550824)
(6.91814e-26 1.36167 0.560147)
(3.86332e-26 1.39276 0.567996)
(-3.79602e-25 1.4232 0.574025)
(-1.555e-24 1.45292 0.577758)
(-2.65987e-24 1.48176 0.578502)
(1.17629e-24 1.50936 0.575204)
(2.0439e-23 1.53489 0.566255)
(6.12086e-23 1.55673 0.549395)
(8.93442e-23 1.57211 0.521766)
(-2.53825e-23 1.57705 0.480133)
(-5.22831e-22 1.56607 0.42082)
(-1.6056e-21 1.53154 0.340489)
(-3.05113e-21 1.46355 0.235877)
(-3.66507e-21 1.34657 0.105297)
(-6.11155e-22 1.15861 -0.0480311)
(1.06238e-20 0.865717 -0.224361)
(2.72506e-20 0.348146 -0.416751)
(6.29835e-21 -0.526293 -0.613551)
(6.49088e-23 -1.05391 -0.645956)
(-1.34558e-22 -1.51076 -0.557453)
(-7.05008e-23 -1.90554 -0.500009)
(1.14434e-22 -2.30502 -0.423076)
(-4.40026e-22 -2.62 -0.399254)
(2.05754e-21 -3.01038 -0.287109)
(-1.18417e-20 -3.16552 -0.34388)
(1.58043e-19 -3.67336 -0.142786)
(-2.49188e-18 -3.43443 -0.448898)
(4.06639e-17 -4.37488 -0.041865)
(-8.59126e-17 -5.00544 -0.785168)
(-5.27843e-55 0.0968262 0.136133)
(-3.3851e-55 0.125715 0.132527)
(6.81953e-54 0.144183 0.133052)
(4.00977e-53 0.162772 0.132756)
(8.24269e-53 0.180882 0.133869)
(-3.05254e-52 0.198341 0.13507)
(-2.88074e-51 0.215597 0.136981)
(-7.27804e-51 0.232574 0.139211)
(2.24304e-50 0.249471 0.141944)
(2.34968e-49 0.26631 0.145055)
(5.43207e-49 0.283195 0.148596)
(-2.40431e-48 0.300171 0.152526)
(-2.04438e-47 0.317304 0.156859)
(-3.27773e-47 0.334643 0.16158)
(2.82111e-46 0.352238 0.166693)
(1.7434e-45 0.370133 0.172193)
(9.82379e-46 0.388372 0.178082)
(-3.10965e-44 0.406993 0.184361)
(-1.3562e-43 0.426037 0.191032)
(1.0964e-43 0.445539 0.198099)
(3.04628e-42 0.465536 0.205568)
(9.01891e-42 0.486062 0.213443)
(-2.51274e-41 0.507152 0.221733)
(-2.59486e-40 0.528838 0.230445)
(-4.69364e-40 0.551154 0.239588)
(3.01136e-39 0.574134 0.249171)
(1.90128e-38 0.597808 0.259206)
(1.49971e-38 0.622211 0.269702)
(-2.69575e-37 0.647373 0.28067)
(-1.19192e-36 0.673325 0.292119)
(1.99187e-37 0.700098 0.304057)
(1.94297e-35 0.727718 0.316488)
(6.40242e-35 0.756208 0.329415)
(-6.85954e-35 0.785588 0.342832)
(-1.1576e-33 0.815868 0.356728)
(-2.98889e-33 0.847046 0.371078)
(5.49238e-33 0.87911 0.385846)
(5.76517e-32 0.912026 0.400982)
(1.25433e-31 0.945736 0.416413)
(-2.78588e-31 0.980156 0.432049)
(-2.40675e-30 1.01517 0.447779)
(-4.94325e-30 1.05062 0.463475)
(9.50576e-30 1.08634 0.478994)
(8.34171e-29 1.12212 0.494189)
(1.84833e-28 1.15774 0.508917)
(-1.81391e-28 1.193 0.523045)
(-2.31748e-27 1.22774 0.536456)
(-6.19187e-27 1.26182 0.549044)
(-1.09894e-27 1.2952 0.560701)
(4.71008e-26 1.32788 0.571297)
(1.6783e-25 1.35991 0.580649)
(2.0965e-25 1.39134 0.588504)
(-5.17612e-25 1.4222 0.594507)
(-3.22031e-24 1.45246 0.598171)
(-7.36219e-24 1.48203 0.598777)