/*--------------------------------*- C++ -*----------------------------------*\
| =========                 |                                                 |
| \\      /  F ield         | OpenFOAM: The Open Source CFD Toolbox           |
|  \\    /   O peration     | Version:  4.1                                   |
|   \\  /    A nd           | Web:      www.OpenFOAM.org                      |
|    \\/     M anipulation  |                                                 |
\*---------------------------------------------------------------------------*/
FoamFile
{
    version     2.0;
    format      ascii;
    class       volVectorField;
    location    "7";
    object      U;
}
// * * * * * * * * * * * * * * * * * * * * * * * * * * * * * * * * * * * * * //

dimensions      [0 1 -1 0 0 0 0];

internalField   nonuniform List<vector> 
6785
(
(1.24647e-14 -2.01702 16.4306)
(1.10441e-14 -7.71295 12.8958)
(-2.85489e-15 -5.07801 13.6225)
(3.71568e-15 -4.91273 13.1905)
(8.42315e-16 -4.1594 13.0402)
(-1.35011e-16 -3.70751 12.7705)
(2.51346e-15 -3.28285 12.4939)
(5.44581e-16 -2.96614 12.183)
(-7.91041e-16 -2.74507 11.8632)
(1.42862e-15 -2.65141 11.5653)
(2.59929e-16 -2.65456 11.361)
(-4.9373e-16 -2.8014 11.2036)
(6.70478e-16 -3.41456 10.6586)
(-1.22245e-16 -3.46263 9.58061)
(-1.20705e-16 0.0447665 7.63035)
(1.84118e-14 -9.8925 26.8572)
(1.3152e-14 -16.3865 23.1933)
(-2.57984e-15 -11.2722 23.5682)
(4.25146e-15 -11.9538 21.8264)
(5.80231e-16 -10.3401 20.9638)
(5.48634e-16 -9.65022 19.7925)
(1.43147e-15 -8.6999 18.7387)
(-3.50675e-17 -7.91471 17.6784)
(-5.85602e-16 -7.15683 16.6622)
(2.08431e-16 -6.42455 15.5841)
(-3.25193e-16 -5.51747 14.1547)
(-8.79271e-16 -4.19909 11.8207)
(-6.38673e-16 -2.47609 7.94347)
(-2.1621e-16 -0.540211 2.9621)
(-2.6919e-16 0.286628 -0.048143)
(2.02288e-14 -12.6095 28.6191)
(1.12848e-14 -17.2645 25.2831)
(-1.64844e-15 -12.1633 25.4007)
(4.83702e-15 -13.3847 22.892)
(2.75245e-16 -11.2545 21.898)
(1.37733e-15 -10.8463 20.1822)
(2.15035e-15 -9.75189 18.8508)
(-3.79704e-16 -9.06757 17.4294)
(3.49019e-16 -8.32065 16.1482)
(1.40508e-15 -7.63192 14.7631)
(-8.0097e-16 -6.59729 12.8092)
(6.32718e-16 -4.50161 8.96625)
(4.83454e-15 -0.166163 1.32205)
(9.49895e-16 4.21496 -6.22288)
(-7.31298e-16 2.31059 -5.48347)
(1.9495e-14 -13.2054 27.6762)
(1.18263e-14 -17.4846 25.6277)
(-1.41389e-15 -12.7053 25.0447)
(4.65687e-15 -14.1709 22.1534)
(1.14835e-15 -11.9388 21.1601)
(1.25802e-15 -11.7636 19.1849)
(2.46902e-15 -10.7065 17.7298)
(9.95955e-16 -10.0594 16.125)
(3.89249e-16 -9.34248 14.6489)
(1.54978e-15 -8.68271 13.1819)
(1.07234e-15 -7.90532 11.5267)
(1.71238e-16 -6.62246 9.17828)
(1.45856e-15 -4.40936 5.36633)
(2.69038e-15 -1.67468 2.16778)
(-1.54064e-15 1.0025 -3.60156)
(1.87653e-14 -12.8987 26.0525)
(1.2988e-14 -17.1582 25.6847)
(-1.01439e-15 -12.7816 24.4025)
(3.72807e-15 -13.8356 21.4049)
(1.58055e-15 -11.7383 20.3429)
(7.5887e-16 -11.4691 18.2994)
(2.19722e-15 -10.3985 16.7513)
(1.07165e-15 -9.66598 15.1191)
(-2.91365e-16 -8.93518 13.6522)
(4.04624e-16 -8.23291 12.2771)
(3.00298e-16 -7.51903 10.8503)
(-8.5296e-16 -6.58332 9.24905)
(-9.36255e-16 -5.33415 7.08903)
(-7.94101e-16 -3.45973 4.8985)
(-3.10564e-15 -0.898097 -0.517709)
(1.95527e-14 -12.4709 24.8718)
(1.39289e-14 -16.4069 24.9646)
(-2.6193e-16 -12.2913 23.5824)
(3.65416e-15 -13.2082 20.4767)
(2.00206e-15 -10.9068 19.4946)
(1.90176e-15 -10.7453 17.2593)
(2.20125e-15 -9.43478 15.8205)
(1.35616e-15 -8.84634 14.1946)
(1.30224e-15 -8.17121 12.8402)
(6.55948e-16 -7.68326 11.5498)
(9.52595e-16 -7.24673 10.416)
(1.29036e-15 -6.79344 9.49302)
(2.20716e-16 -6.21975 8.62713)
(-1.21282e-16 -5.17071 7.59869)
(1.7529e-15 -2.87694 3.83982)
(2.10918e-14 -12.7215 24.855)
(1.25092e-14 -15.5052 24.3887)
(8.32778e-16 -12.0149 23.1547)
(3.48723e-15 -12.5263 20.331)
(2.14217e-15 -10.2532 19.3153)
(2.63048e-15 -9.90151 17.1195)
(1.60321e-15 -8.13898 15.335)
(2.65558e-15 -6.88844 12.6432)
(2.63946e-15 -5.4645 10.24)
(5.0769e-16 -4.99193 8.7856)
(1.1641e-15 -5.35296 8.85075)
(1.21104e-15 -6.22588 9.78439)
(-1.71062e-15 -6.91592 10.916)
(-2.85008e-15 -7.22675 11.233)
(1.65826e-15 -5.09161 8.79265)
(2.09868e-14 -13.8321 26.528)
(9.41123e-15 -15.6938 25.4038)
(4.35801e-18 -12.5369 24.2681)
(2.7429e-15 -12.7464 22.0773)
(8.26775e-16 -10.737 21.1412)
(8.26464e-16 -10.1611 19.2804)
(6.83195e-16 -8.12995 17.1614)
(2.08515e-15 -6.05569 13.6001)
(1.83508e-15 -3.54072 9.97293)
(8.76711e-16 -1.7579 7.02249)
(1.2241e-15 -0.764891 5.37374)
(1.63302e-15 -1.25813 5.66167)
(7.81105e-16 -3.3607 8.11993)
(-3.78408e-16 -5.80272 10.8231)
(1.2729e-16 -4.82486 9.66516)
(1.99887e-14 -14.1652 26.6756)
(1.03922e-14 -17.7636 28.5059)
(2.84471e-18 -13.9314 26.1877)
(1.99668e-15 -14.1756 24.0106)
(-2.34099e-17 -12.3057 23.1546)
(7.75735e-16 -12.0335 21.4421)
(-3.27378e-16 -10.2878 19.6693)
(1.06712e-15 -8.5654 16.4499)
(2.82022e-15 -5.99047 12.8711)
(1.19179e-15 -3.67577 9.29329)
(3.2419e-15 -1.32336 5.86072)
(6.15681e-15 0.805473 2.36517)
(5.4672e-15 2.12299 -0.00428917)
(6.48209e-15 1.35383 0.396136)
(3.58354e-15 -0.444736 2.14597)
(1.82357e-14 -12.6365 23.0586)
(1.39835e-14 -18.8424 30.0904)
(2.97926e-15 -15.7174 27.6443)
(2.42455e-15 -15.13 24.6531)
(1.34791e-16 -13.5589 23.2703)
(1.26987e-15 -13.2166 21.5626)
(9.80896e-16 -12.1172 20.0421)
(2.19704e-16 -11.0698 17.8356)
(2.0666e-15 -9.45419 15.2966)
(2.71604e-15 -7.67072 12.4795)
(2.20829e-15 -5.6193 9.45929)
(4.79566e-15 -3.18738 5.9674)
(7.98519e-15 -0.0339648 1.6577)
(3.01226e-15 3.60946 -3.15724)
(1.29814e-15 1.76767 -4.881)
(1.6683e-14 -10.3659 18.3069)
(1.63366e-14 -18.0531 29.2384)
(6.49798e-15 -16.2323 27.7191)
(2.81205e-15 -14.9139 24.1096)
(4.98321e-16 -13.3948 22.0454)
(1.90086e-15 -12.7586 20.1945)
(1.79029e-15 -11.8998 18.6199)
(6.25338e-16 -11.0864 16.8532)
(1.62265e-15 -10.086 14.9562)
(2.22122e-15 -8.92805 12.9175)
(1.85395e-15 -7.636 10.7267)
(2.78789e-15 -6.06437 8.3693)
(3.48084e-15 -4.28718 5.56816)
(3.78441e-15 -1.67686 2.48113)
(-6.91252e-16 0.486026 -2.88118)
(1.55914e-14 -8.76942 15.2283)
(1.74976e-14 -16.8903 28.0478)
(7.69647e-15 -15.7939 27.0684)
(2.92429e-15 -14.1021 23.1922)
(1.06076e-15 -12.4801 20.7965)
(1.62279e-15 -11.6653 18.8928)
(2.16019e-15 -10.7908 17.341)
(1.51129e-15 -9.99295 15.7533)
(1.14404e-15 -9.1469 14.1587)
(1.57962e-15 -8.23451 12.5447)
(1.65376e-15 -7.28767 10.8579)
(7.93083e-16 -6.15332 9.09244)
(1.68224e-15 -4.93236 6.98768)
(9.32881e-16 -3.0192 4.41541)
(-2.86989e-15 -0.532149 -1.11006)
(1.47452e-14 -8.24444 14.2997)
(1.78501e-14 -16.1645 27.2694)
(8.82024e-15 -15.5065 26.5771)
(2.82053e-15 -13.9559 23.0118)
(1.47989e-15 -12.4358 20.5207)
(1.72262e-15 -11.5785 18.5888)
(1.3033e-15 -10.7262 17.0285)
(2.38985e-15 -9.92346 15.5194)
(1.60709e-15 -9.09307 14.037)
(1.08514e-15 -8.22339 12.5837)
(1.18553e-15 -7.35468 11.113)
(-9.23663e-18 -6.38499 9.64942)
(-4.39701e-18 -5.41574 8.03361)
(6.95189e-16 -3.99513 6.20752)
(-3.92923e-15 -1.5207 1.56907)
(1.33796e-14 -7.81222 12.958)
(1.81996e-14 -15.3309 25.795)
(6.79449e-15 -14.4606 24.5441)
(7.33946e-16 -12.4026 20.6867)
(1.58353e-15 -10.8335 18.4744)
(1.70157e-15 -10.1464 17.0404)
(2.84511e-16 -9.56361 16.0975)
(4.82662e-16 -9.15862 15.1373)
(1.92096e-16 -8.73667 14.1429)
(-2.46224e-17 -8.26571 13.04)
(-7.42558e-16 -7.76488 11.8766)
(-1.15089e-15 -7.13389 10.7353)
(-7.97103e-16 -6.47359 9.61437)
(-1.17914e-15 -5.42562 8.47235)
(-4.2953e-15 -3.1967 4.88445)
(8.86245e-15 -6.88085 12.164)
(1.79587e-14 -16.0224 25.3468)
(1.29399e-14 -18.3457 27.3291)
(4.69657e-15 -17.7511 24.7352)
(9.03859e-16 -15.8191 21.4246)
(-1.33491e-16 -13.9254 18.5065)
(5.4667e-16 -12.022 15.9131)
(4.0897e-15 -10.2056 13.5242)
(6.32249e-15 -8.5371 11.4849)
(4.15964e-15 -7.40664 10.104)
(-5.03646e-16 -6.78036 9.48116)
(-1.27212e-15 -6.7998 9.84984)
(-1.45994e-15 -7.04898 10.7868)
(-4.56759e-15 -7.17703 11.172)
(-6.21564e-15 -4.41463 7.97028)
(1.43733e-17 2.42081 9.95553)
(8.11329e-16 -0.593178 1.0779)
(1.09164e-15 -0.0648512 -0.956716)
(1.15218e-15 -0.0926586 -0.703017)
(1.21792e-15 0.0225403 -0.756097)
(1.68977e-15 0.126168 -0.971887)
(1.20772e-15 0.0931438 -0.726282)
(1.23358e-15 0.16134 -0.759598)
(9.13314e-16 0.214207 -0.770811)
(2.69156e-15 0.32605 -1.00824)
(2.6852e-15 0.29609 -0.776517)
(2.59942e-15 0.37276 -0.766989)
(2.79949e-15 0.49662 -0.989993)
(1.79012e-15 0.434311 -0.740182)
(1.62835e-15 0.518279 -0.752386)
(1.447e-15 0.548293 -0.736733)
(1.61986e-15 0.678003 -0.914836)
(1.36436e-15 0.590419 -0.683491)
(1.26137e-15 0.667393 -0.654789)
(1.59291e-15 0.808163 -0.798908)
(1.13553e-15 0.667348 -0.591173)
(1.04237e-15 0.761282 -0.587996)
(1.11606e-15 0.768686 -0.565234)
(1.50449e-15 0.909057 -0.660282)
(1.09068e-15 0.737169 -0.496797)
(1.08769e-15 0.828929 -0.494543)
(8.40133e-16 0.830997 -0.478839)
(1.21179e-15 0.948258 -0.54235)
(7.51962e-16 0.753201 -0.426266)
(6.41867e-16 0.821832 -0.406217)
(9.19061e-16 0.937157 -0.411813)
(3.9972e-16 0.708725 -0.30611)
(3.7976e-16 0.787655 -0.282672)
(1.75597e-16 0.781305 -0.253516)
(2.30636e-16 0.861917 -0.168469)
(1.47816e-16 0.657883 -0.0974675)
(1.66539e-16 0.703232 -0.0736084)
(3.06565e-16 0.772435 0.0844446)
(2.40259e-16 0.552958 0.0773021)
(2.02715e-16 0.597581 0.103831)
(3.85871e-16 0.575753 0.108351)
(4.62984e-16 0.620755 0.303386)
(1.83454e-16 0.438671 0.219898)
(5.08216e-18 0.469479 0.224536)
(-2.4704e-16 0.440302 0.193914)
(-6.28903e-16 0.502135 0.400656)
(-1.28571e-15 0.393932 0.347988)
(-1.47471e-15 0.391421 0.294638)
(-2.37368e-15 0.463594 0.4971)
(-1.55808e-15 0.371327 0.416287)
(-1.55571e-15 0.373833 0.394998)
(-1.48621e-15 0.339378 0.312299)
(-1.96592e-15 0.358932 0.463933)
(-1.33592e-15 0.265107 0.354007)
(-1.31842e-15 0.260537 0.34928)
(-6.35459e-16 0.230997 0.315311)
(-1.0944e-17 0.254305 0.0726957)
(9.13243e-16 0.056235 -0.101126)
(-1.02137e-15 0.0658435 0.10718)
(2.50833e-15 0.147168 -1.80911)
(2.88925e-15 -0.299905 -1.62323)
(3.42344e-15 -0.0841679 -2.1851)
(3.08428e-15 0.136462 -2.28487)
(5.78131e-16 -0.299566 -1.75838)
(-2.80941e-15 -0.666319 -0.117398)
(-2.84649e-15 -0.426332 0.0658431)
(-5.17441e-15 -1.09913 1.81537)
(-4.83776e-15 -1.53945 2.63038)
(-4.81061e-15 -1.7002 2.74585)
(-5.01645e-15 -1.67358 3.01064)
(-7.53499e-15 -2.83142 5.50293)
(-6.1194e-15 -3.18496 4.99338)
(-6.21499e-15 -3.60692 5.07417)
(-6.17993e-15 -3.54458 5.17726)
(-8.14475e-15 -5.45962 8.01859)
(-5.64126e-15 -5.5231 6.38902)
(-5.49135e-15 -5.55843 6.70084)
(-6.63404e-15 -7.85313 10.0648)
(-4.49768e-15 -7.69108 7.96897)
(-4.52913e-15 -7.92552 8.85249)
(-5.42124e-15 -8.62504 11.0608)
(-4.19126e-15 -8.41192 10.7029)
(-3.60301e-15 -8.47105 10.8063)
(-2.08769e-15 -9.55739 12.0301)
(-2.84913e-15 -9.04526 11.5482)
(-2.6756e-15 -9.14443 12.1422)
(-2.99593e-15 -9.0958 12.3014)
(-3.44115e-15 -9.11486 12.4404)
(-3.94206e-15 -9.11385 12.5799)
(-4.35379e-15 -9.14316 12.6634)
(-4.4757e-15 -9.15391 12.6592)
(-4.43595e-15 -9.11316 12.6268)
(-5.27072e-15 -9.88118 13.6332)
(-4.58778e-15 -9.66074 13.2026)
(-4.02439e-15 -9.70366 13.2146)
(-3.14672e-15 -9.73403 13.1399)
(-2.20082e-15 -9.74126 13.0843)
(-1.37428e-15 -9.79051 13.3975)
(-3.20755e-16 -9.8241 13.6143)
(7.09101e-16 -9.87747 13.8405)
(1.62767e-15 -9.8705 14.0077)
(2.92217e-15 -10.788 15.4264)
(2.66649e-15 -10.4051 14.5661)
(2.92923e-15 -10.5007 14.8931)
(2.88331e-15 -10.5121 15.0405)
(2.84591e-15 -10.5759 15.2078)
(2.83781e-15 -10.6156 15.388)
(2.69673e-15 -10.6843 15.6794)
(1.93742e-15 -10.738 16.0609)
(1.38932e-15 -10.8396 16.5694)
(8.69661e-16 -10.9093 17.1366)
(-1.09849e-15 -11.6059 19.4026)
(-6.97155e-16 -11.1961 18.3326)
(-2.09899e-15 -11.2989 18.9135)
(-3.37698e-15 -11.3202 19.2376)
(-4.92706e-15 -11.4246 19.6499)
(-6.54593e-15 -11.4593 20.0841)
(-8.34519e-15 -11.5918 20.7188)
(-9.84741e-15 -11.6638 21.1663)
(-1.08119e-14 -11.7954 21.5651)
(-1.22821e-14 -11.5823 22.5108)
(-8.86409e-15 -11.4006 21.4035)
(-7.51778e-15 -11.4722 21.7573)
(-5.41701e-15 -11.5538 21.8411)
(-2.78608e-15 -11.5661 21.6724)
(-3.4852e-16 -11.646 21.5997)
(1.71663e-15 -11.6952 21.5689)
(3.24656e-15 -11.6922 21.6902)
(4.20587e-15 -11.9309 22.1339)
(6.99502e-15 -10.2655 20.7314)
(5.79151e-15 -10.734 20.9097)
(5.97617e-15 -10.7061 20.8845)
(5.95189e-15 -10.717 20.871)
(6.39259e-15 -10.757 20.9949)
(6.82078e-15 -10.7445 20.7871)
(7.2981e-15 -10.6995 20.4443)
(7.72774e-15 -10.6738 20.0691)
(8.02517e-15 -10.7382 19.5966)
(8.76275e-15 -8.29244 16.1593)
(7.93171e-15 -9.07599 17.4401)
(7.53449e-15 -8.88481 16.2519)
(6.97132e-15 -8.93939 15.3767)
(6.44867e-15 -8.83506 14.3113)
(6.12811e-15 -8.74395 13.2797)
(6.85093e-15 -8.63362 12.4967)
(6.01403e-15 -8.40256 11.235)
(5.75809e-15 -8.18599 10.1974)
(5.44943e-15 -8.02419 9.20908)
(3.34093e-15 -4.78457 3.49508)
(5.28489e-15 -6.33436 7.68429)
(5.01037e-15 -5.78817 6.57453)
(4.70537e-15 -5.84679 6.37928)
(4.44628e-15 -5.49628 5.84631)
(4.09277e-15 -5.40143 5.24098)
(3.25141e-15 -5.20815 3.84509)
(2.40934e-15 -4.84724 2.41633)
(2.58066e-15 -4.83469 2.46283)
(9.27046e-16 -3.88356 -0.482737)
(2.20491e-15 -4.13508 1.51302)
(1.92447e-15 -4.07474 0.569939)
(-6.39085e-18 -2.85982 -2.04749)
(1.23817e-15 -4.83567 -0.838865)
(8.24967e-16 -3.67292 -0.966438)
(7.29144e-16 -3.40868 -0.59043)
(9.33139e-16 -4.3278 -0.883984)
(6.37443e-16 -3.01633 -0.503944)
(8.95165e-16 -3.91558 -0.761475)
(7.10097e-16 -3.60223 -0.539983)
(5.27032e-16 -2.97921 -0.367045)
(7.14155e-16 -3.62731 -0.557325)
(5.47673e-16 -3.38193 -0.403035)
(4.24546e-16 -2.91557 -0.269255)
(5.2633e-16 -3.88143 -0.4058)
(3.63216e-16 -2.68835 -0.233163)
(5.17157e-16 -3.53207 -0.360398)
(4.55813e-16 -3.17114 -0.288898)
(3.83225e-16 -2.78589 -0.195978)
(5.1455e-16 -3.71333 -0.301598)
(3.58273e-16 -2.56002 -0.176567)
(5.21194e-16 -3.40264 -0.264431)
(3.97271e-16 -3.18472 -0.237614)
(2.8631e-16 -2.62589 -0.16063)
(3.28882e-16 -3.24243 -0.253811)
(1.95736e-16 -3.07471 -0.223695)
(1.09416e-16 -2.65016 -0.150027)
(1.18083e-16 -3.58552 -0.219037)
(7.05006e-17 -2.48283 -0.129505)
(1.30601e-16 -3.29847 -0.171958)
(1.64282e-16 -3.02846 -0.156725)
(1.77257e-16 -2.65666 -0.093814)
(3.16721e-16 -3.59707 -0.117784)
(2.95603e-16 -2.48904 -0.0443202)
(5.06684e-16 -3.34271 -0.0127132)
(4.77183e-16 -3.18496 -0.0108311)
(3.61783e-16 -2.62955 0.0401232)
(5.27451e-16 -3.28441 0.0915725)
(4.0616e-16 -3.1267 0.0861536)
(2.73264e-16 -2.7098 0.112502)
(3.34056e-16 -3.68966 0.160018)
(1.92925e-16 -2.57815 0.143319)
(2.06729e-16 -3.44087 0.226084)
(6.06594e-17 -3.12579 0.142935)
(1.58027e-17 -2.75916 0.131458)
(-6.3881e-17 -3.73507 0.148435)
(-1.05018e-16 -2.58967 0.115314)
(-1.62387e-16 -3.47982 0.172941)
(-1.50654e-16 -3.25224 0.0832046)
(-1.40056e-16 -2.69657 0.0906342)
(-1.63117e-16 -3.35611 0.106451)
(-1.03189e-16 -3.14822 0.0487649)
(-6.61583e-17 -2.72236 0.0648342)
(-5.73096e-17 -3.68736 0.0590606)
(-2.27172e-17 -2.5519 0.0528773)
(-3.65049e-17 -3.39706 0.064193)
(-1.24949e-17 -3.03728 -0.0169752)
(-3.66678e-17 -2.66389 -0.00811628)
(-7.76518e-17 -3.58157 -0.0667514)
(-1.01759e-16 -2.44787 -0.0552632)
(-1.72713e-16 -3.2727 -0.111293)
(-1.8518e-16 -3.00232 -0.185138)
(-1.66712e-16 -2.45816 -0.149525)
(-2.47175e-16 -3.03057 -0.283566)
(-1.745e-16 -2.79029 -0.320685)
(-1.31286e-16 -2.36686 -0.259702)
(-1.78412e-16 -3.17984 -0.416949)
(-1.2176e-16 -2.12326 -0.314335)
(-1.83402e-16 -2.81184 -0.504181)
(-1.56183e-16 -2.4377 -0.503035)
(-1.38413e-16 -2.07794 -0.407406)
(-1.83667e-16 -2.77594 -0.60522)
(-1.36548e-16 -1.79365 -0.445123)
(-1.76318e-16 -2.40418 -0.688885)
(-1.25464e-16 -2.11516 -0.657892)
(-9.39012e-17 -1.6466 -0.540022)
(-1.51413e-16 -2.02975 -0.835607)
(-1.76989e-16 -1.77452 -0.775145)
(-1.47279e-16 -1.40955 -0.629404)
(-2.03718e-16 -1.9637 -0.904809)
(-1.58542e-16 -1.12818 -0.673835)
(-2.44127e-16 -1.4355 -1.04546)
(7.76391e-58 0.105434 0.110068)
(4.40077e-57 0.137188 0.108098)
(9.67958e-57 0.158292 0.108832)
(-1.85731e-56 0.178553 0.109039)
(-2.49956e-55 0.198525 0.110162)
(-8.74576e-55 0.217565 0.111377)
(4.22724e-55 0.236422 0.113095)
(1.80818e-53 0.254898 0.115074)
(7.04788e-53 0.273275 0.117437)
(-6.1169e-53 0.291543 0.12011)
(-1.72144e-51 0.309833 0.123129)
(-5.94776e-51 0.328182 0.12647)
(1.25547e-50 0.346668 0.130144)
(1.8501e-49 0.365337 0.134142)
(5.0177e-49 0.384246 0.138469)
(-2.02923e-48 0.403439 0.143122)
(-1.987e-47 0.422964 0.148105)
(-3.91319e-47 0.442861 0.153418)
(2.72607e-46 0.463173 0.159066)
(2.0049e-45 0.483938 0.165053)
(2.59313e-45 0.505195 0.171382)
(-3.14145e-44 0.52698 0.178061)
(-1.84601e-43 0.549329 0.185096)
(-1.27978e-43 0.572279 0.192494)
(3.13498e-42 0.595865 0.200265)
(1.53009e-41 0.620122 0.208417)
(2.80944e-42 0.645084 0.216961)
(-2.71066e-40 0.670784 0.225906)
(-1.13604e-39 0.697255 0.235263)
(2.26241e-40 0.724527 0.245042)
(2.02269e-38 0.752626 0.255252)
(7.56127e-38 0.781574 0.2659)
(-2.98353e-38 0.811387 0.276993)
(-1.29199e-36 0.842069 0.288532)
(-4.52565e-36 0.873613 0.300513)
(1.51309e-36 0.905995 0.312927)
(6.95925e-35 0.939171 0.325755)
(2.43335e-34 0.973072 0.338971)
(3.95437e-36 1.0076 0.352531)
(-3.07146e-33 1.04264 0.366384)
(-1.15744e-32 1.07804 0.38046)
(-7.16066e-33 1.11363 0.394677)
(1.0449e-31 1.14923 0.408938)
(4.6818e-31 1.18468 0.423137)
(6.48273e-31 1.21982 0.437158)
(-2.31921e-30 1.25454 0.450877)
(-1.49705e-29 1.28876 0.464162)
(-3.41217e-29 1.32246 0.476871)
(7.97988e-30 1.35565 0.488847)
(3.27794e-28 1.38832 0.499906)
(1.16057e-27 1.42049 0.509825)
(1.68457e-27 1.45207 0.518324)
(-2.791e-27 1.48292 0.525034)
(-2.32054e-26 1.51268 0.52945)
(-6.65532e-26 1.54066 0.53086)
(-8.63935e-26 1.56563 0.52825)
(1.24004e-25 1.58557 0.520227)
(1.01573e-24 1.59756 0.504984)
(3.01989e-24 1.59773 0.480281)
(5.3129e-24 1.58101 0.443524)
(3.02806e-24 1.54104 0.391864)
(-1.67787e-23 1.46945 0.322584)
(-7.81534e-23 1.35504 0.233532)
(-2.11997e-22 1.18225 0.124397)
(-4.20477e-22 0.926956 -0.00314784)
(-5.4327e-22 0.519213 -0.132599)
(-1.74607e-22 -0.261224 -0.316758)
(-1.08026e-23 -0.811872 -0.355078)
(-1.21332e-23 -1.29871 -0.387598)
(-1.37933e-23 -1.73677 -0.396416)
(-2.53697e-23 -2.11318 -0.411242)
(2.66168e-23 -2.48895 -0.379809)
(-1.02074e-22 -2.76205 -0.381509)
(4.04559e-22 -3.14867 -0.296635)
(-1.14545e-21 -3.24206 -0.357755)
(1.34273e-20 -3.81896 -0.170286)
(-2.45951e-19 -3.49482 -0.477435)
(4.61846e-18 -4.5961 -0.090443)
(3.87591e-18 -5.36346 -0.779023)
(2.04184e-57 0.10585 0.122198)
(1.46769e-56 0.13745 0.119365)
(4.076e-56 0.158186 0.120037)
(-1.54547e-56 0.178372 0.120058)
(-7.26508e-55 0.198176 0.121191)
(-3.16317e-54 0.217115 0.12242)
(-1.73493e-54 0.235846 0.12423)
(4.94563e-53 0.254216 0.126328)
(2.42783e-52 0.272479 0.128855)
(4.3038e-53 0.290641 0.131721)
(-4.76106e-51 0.308823 0.134967)
(-2.04326e-50 0.327066 0.138563)
(1.89007e-50 0.345446 0.142521)
(5.28132e-49 0.36401 0.14683)
(1.77315e-48 0.382814 0.151494)
(-4.42462e-48 0.401902 0.15651)
(-5.82659e-47 0.421321 0.161881)
(-1.46575e-46 0.441112 0.167607)
(6.67654e-46 0.461316 0.173692)
(5.99566e-45 0.481972 0.180139)
(1.08277e-44 0.503118 0.186955)
(-8.09953e-44 0.52479 0.194144)
(-5.60121e-43 0.547025 0.201714)
(-6.77227e-43 0.569857 0.209672)
(8.29428e-42 0.593323 0.218028)
(4.69336e-41 0.617456 0.226791)
(3.38958e-41 0.642291 0.235971)
(-7.26144e-40 0.667862 0.245578)
(-3.51001e-39 0.6942 0.255622)
(-1.28806e-39 0.721336 0.266113)
(5.43583e-38 0.749297 0.27706)
(2.34109e-37 0.778105 0.288467)
(4.35713e-38 0.807777 0.300339)
(-3.45343e-36 0.838318 0.312672)
(-1.39305e-35 0.869723 0.325459)
(-3.19403e-36 0.901972 0.338683)
(1.83101e-34 0.935022 0.352317)
(7.36564e-34 0.968808 0.366322)
(3.85502e-34 1.00324 0.380646)
(-7.83089e-33 1.0382 0.395222)
(-3.4019e-32 1.07354 0.409968)
(-3.55753e-32 1.10911 0.424791)
(2.50318e-31 1.14472 0.439586)
(1.31849e-30 1.18021 0.454241)
(2.29836e-30 1.21543 0.468642)
(-4.69067e-30 1.25027 0.482671)
(-3.97264e-29 1.28465 0.496204)
(-1.04338e-28 1.31856 0.509108)
(-3.18014e-29 1.35201 0.52123)
(7.87586e-28 1.38501 0.532383)
(3.21129e-27 1.41759 0.542332)
(5.63124e-27 1.44968 0.550775)
(-4.0571e-27 1.48118 0.557298)
(-5.76407e-26 1.51179 0.56132)
(-1.85496e-25 1.54091 0.561993)
(-2.87817e-25 1.5674 0.558103)
(1.72442e-25 1.58938 0.547998)
(2.47552e-24 1.60407 0.529588)
(8.08566e-24 1.60772 0.50035)
(1.54772e-23 1.59536 0.457439)
(1.26039e-23 1.56064 0.397794)
(-3.43276e-23 1.49508 0.318585)
(-1.89869e-22 1.38713 0.217781)
(-5.3988e-22 1.22051 0.0953954)
(-1.09812e-21 0.96883 -0.0467648)
(-1.45223e-21 0.573138 -0.186982)
(-5.10043e-22 -0.265642 -0.406006)
(-3.37285e-23 -0.836036 -0.406636)
(-8.87791e-24 -1.32719 -0.412988)
(-1.34926e-23 -1.76642 -0.410142)
(-2.54025e-23 -2.14631 -0.419031)
(2.62198e-23 -2.52164 -0.382234)
(-1.01716e-22 -2.79705 -0.380482)
(4.02787e-22 -3.17356 -0.293366)
(-1.15971e-21 -3.27424 -0.352985)
(1.38748e-20 -3.81931 -0.166399)
(-2.53284e-19 -3.51548 -0.468352)
(4.58447e-18 -4.56422 -0.0888778)
(4.69045e-18 -5.26118 -0.775869)
(3.94421e-57 0.106113 0.128701)
(3.79134e-56 0.13762 0.125533)
(1.25314e-55 0.158142 0.126165)
(6.94112e-56 0.17828 0.12609)
(-1.61803e-54 0.197992 0.127231)
(-8.66067e-54 0.216874 0.12847)
(-1.14058e-53 0.235539 0.130333)
(1.02576e-52 0.253851 0.132497)
(6.33648e-52 0.272055 0.135116)
(6.15552e-52 0.29016 0.138089)
(-1.01063e-50 0.308285 0.141461)
(-5.2824e-50 0.326473 0.145198)
(4.46589e-51 0.344797 0.149312)
(1.16939e-48 0.363306 0.153793)
(4.65103e-48 0.382055 0.158642)
(-7.01717e-48 0.401088 0.163857)
(-1.32897e-46 0.420451 0.16944)
(-3.96687e-46 0.440187 0.175392)
(1.27095e-45 0.460335 0.181716)
(1.39226e-44 0.480935 0.188416)
(3.08557e-44 0.502023 0.195496)
(-1.64116e-43 0.523637 0.202964)
(-1.31456e-42 0.545811 0.210826)
(-2.10775e-42 0.568583 0.21909)
(1.72626e-41 0.591986 0.227765)
(1.10809e-40 0.616056 0.23686)
(1.24163e-40 0.640826 0.246387)
(-1.52768e-39 0.66633 0.256354)
(-8.30472e-39 0.6926 0.266773)
(-6.43994e-39 0.719666 0.277651)
(1.14461e-37 0.747557 0.288998)
(5.52624e-37 0.776295 0.300818)
(3.30874e-37 0.805896 0.313112)
(-7.21643e-36 0.836369 0.325876)
(-3.26077e-35 0.867709 0.339098)
(-2.05049e-35 0.899896 0.352757)
(3.75906e-34 0.93289 0.366823)
(1.69572e-33 0.96663 0.38125)
(1.50651e-33 1.00103 0.395978)
(-1.55493e-32 1.03596 0.410935)
(-7.62721e-32 1.0713 0.426031)
(-1.04066e-31 1.10687 0.441168)
(4.64462e-31 1.1425 0.456239)
(2.84613e-30 1.17803 0.471131)
(5.76931e-30 1.21331 0.485734)
(-6.93668e-30 1.24822 0.499933)
(-8.12158e-29 1.2827 0.513612)
(-2.37889e-28 1.31672 0.526643)
(-1.59867e-28 1.3503 0.538875)
(1.45741e-27 1.38347 0.550119)
(6.76862e-27 1.41625 0.560134)
(1.35065e-26 1.44861 0.568603)
(-2.32269e-27 1.48046 0.575089)
(-1.10087e-25 1.51154 0.578967)
(-3.92113e-25 1.5413 0.57931)
(-6.8688e-25 1.56868 0.574787)
(7.53735e-26 1.59187 0.5636)
(4.64111e-24 1.60814 0.543511)
(1.65553e-23 1.6138 0.511849)
(3.38948e-23 1.60392 0.465638)
(3.3636e-23 1.57213 0.401707)
(-5.25229e-23 1.50986 0.317135)
(-3.59186e-22 1.40531 0.209946)
(-1.07182e-21 1.24175 0.0801296)
(-2.23688e-21 0.991228 -0.0706341)
(-3.03956e-21 0.599854 -0.21686)
(-1.38044e-21 -0.228417 -0.456438)
(-1.09828e-22 -0.824622 -0.484247)
(-1.12431e-24 -1.31345 -0.458213)
(-1.25691e-23 -1.75181 -0.43344)
(-2.54437e-23 -2.13557 -0.432437)
(2.56842e-23 -2.51342 -0.387427)
(-1.01237e-22 -2.79533 -0.37979)
(4.0057e-22 -3.16749 -0.28908)
(-1.17796e-21 -3.27977 -0.34561)
(1.44355e-20 -3.80104 -0.160059)
(-2.61771e-19 -3.51852 -0.455338)
(4.54236e-18 -4.52645 -0.0792334)
(5.40591e-18 -5.17366 -0.782523)
(5.87967e-57 0.106531 0.136226)
(9.3048e-56 0.137887 0.132753)
(3.63543e-55 0.158102 0.133355)
(4.71078e-55 0.178163 0.133198)
(-3.27208e-54 0.197735 0.134356)
(-2.25504e-53 0.216531 0.135621)
(-4.59509e-53 0.235094 0.137553)
(1.87734e-52 0.253319 0.139805)
(1.56963e-51 0.271433 0.142538)
(2.72156e-51 0.289454 0.145646)
(-1.9658e-50 0.307493 0.149173)
(-1.29706e-49 0.325597 0.153083)
(-8.74958e-50 0.343839 0.157389)
(2.45125e-48 0.362266 0.162078)
(1.15951e-47 0.380932 0.167152)
(-8.03475e-48 0.399883 0.172609)
(-2.91301e-46 0.419164 0.17845)
(-1.01647e-45 0.438817 0.184675)
(2.21767e-45 0.458882 0.191288)
(3.12693e-44 0.479397 0.198293)
(8.21629e-44 0.500399 0.205695)
(-3.16063e-43 0.521926 0.213499)
(-2.99201e-42 0.544012 0.221713)
(-5.93089e-42 0.566693 0.230346)
(3.45454e-41 0.590003 0.239406)
(2.53958e-40 0.613978 0.248903)
(3.78897e-40 0.63865 0.258848)
(-3.10547e-39 0.664055 0.26925)
(-1.90759e-38 0.690223 0.280121)
(-2.18982e-38 0.717186 0.291468)
(2.33402e-37 0.744972 0.303299)
(1.26621e-36 0.773604 0.315618)
(1.22732e-36 0.8031 0.328424)
(-1.46136e-35 0.833469 0.34171)
(-7.40855e-35 0.864709 0.355462)
(-7.3023e-35 0.896802 0.369655)
(7.47259e-34 0.929711 0.38425)
(3.79104e-33 0.963377 0.399197)
(4.61349e-33 0.997714 0.414429)
(-2.97794e-32 1.03261 0.429862)
(-1.66209e-31 1.06792 0.445402)
(-2.75642e-31 1.1035 0.460941)
(8.18014e-31 1.13916 0.476368)
(5.97529e-30 1.17474 0.49157)
(1.37541e-29 1.21009 0.506437)
(-8.1173e-30 1.24511 0.520859)
(-1.61246e-28 1.27971 0.534728)
(-5.23839e-28 1.31389 0.547922)
(-5.14643e-28 1.34767 0.560293)
(2.57861e-27 1.38109 0.571652)
(1.38582e-26 1.41418 0.581752)
(3.08883e-26 1.44693 0.590264)
(7.47935e-27 1.47929 0.596729)
(-2.03209e-25 1.51105 0.600476)
(-8.05726e-25 1.54175 0.600498)
(-1.56335e-24 1.57042 0.595333)
(-3.97212e-25 1.59534 0.583019)
(8.44041e-24 1.6139 0.56114)
(3.31407e-23 1.62247 0.526847)
(7.2173e-23 1.61618 0.476995)
(8.21945e-23 1.58867 0.408255)
(-7.35655e-23 1.53123 0.317569)
(-6.73216e-22 1.43177 0.202943)
(-2.11041e-21 1.2729 0.0641778)
(-4.50734e-21 1.02506 -0.0968035)
(-6.28457e-21 0.639266 -0.252499)
(-3.58952e-21 -0.194718 -0.508011)
(-3.27926e-22 -0.824409 -0.573366)
(1.76399e-23 -1.31766 -0.525592)
(-9.9296e-24 -1.752 -0.469161)
(-2.5501e-23 -2.13656 -0.451893)
(2.5048e-23 -2.51532 -0.39587)
(-1.0068e-22 -2.80107 -0.380158)
(3.9818e-22 -3.16828 -0.284206)
(-1.19781e-21 -3.28877 -0.336838)
(1.50235e-20 -3.78939 -0.151662)
(-2.69884e-19 -3.5239 -0.439914)
(4.49962e-18 -4.49573 -0.0672139)
(6.01584e-18 -5.10875 -0.736648)
(2.33208e-57 0.106936 0.143328)
(2.13496e-55 0.138144 0.139664)
(9.95782e-55 0.158079 0.140244)
(1.93515e-54 0.178061 0.140027)
(-5.56548e-54 0.197503 0.14121)
(-5.5357e-53 0.216216 0.142508)
(-1.53737e-52 0.234684 0.144512)
(2.63906e-52 0.252829 0.146855)
(3.64535e-51 0.270858 0.149704)
(9.25518e-51 0.2888 0.152946)
(-3.29188e-50 0.306761 0.156627)
(-2.99143e-49 0.324788 0.160708)
(-4.24131e-49 0.342953 0.165203)
(4.75105e-48 0.361304 0.170096)
(2.7264e-47 0.379895 0.175392)
(6.7304e-49 0.398771 0.181085)
(-6.05667e-46 0.417977 0.187178)
(-2.45801e-45 0.437554 0.193671)
(3.34442e-45 0.457542 0.200567)
(6.7254e-44 0.47798 0.207869)
(2.05289e-43 0.498904 0.215583)
(-5.6664e-43 0.520351 0.223715)
(-6.54638e-42 0.542356 0.232273)
(-1.54185e-41 0.564954 0.241264)
(6.55356e-41 0.588179 0.250699)
(5.60319e-40 0.612067 0.260587)
(1.03482e-39 0.636651 0.270939)
(-6.02528e-39 0.661965 0.281765)
(-4.21983e-38 0.688041 0.293075)
(-6.31462e-38 0.71491 0.304878)
(4.55531e-37 0.742601 0.31718)
(2.79387e-36 0.771139 0.329984)
(3.66369e-36 0.800541 0.343289)
(-2.83409e-35 0.830819 0.357085)
(-1.62083e-34 0.861972 0.371354)
(-2.1293e-34 0.893984 0.386066)
(1.42027e-33 0.926823 0.40118)
(8.16247e-33 0.96043 0.416635)
(1.24202e-32 0.994725 0.432359)
(-5.418e-32 1.0296 0.44826)
(-3.48918e-31 1.06491 0.464235)
(-6.76243e-31 1.1005 0.480171)
(1.33062e-30 1.1362 0.49595)
(1.20815e-29 1.17184 0.511459)
(3.11283e-29 1.20727 0.526589)
(-3.45869e-30 1.24239 0.541238)
(-3.07324e-28 1.27711 0.555303)
(-1.10626e-27 1.31144 0.568669)
(-1.3903e-27 1.3454 0.581194)
(4.26878e-27 1.37904 0.592689)
(2.72919e-26 1.4124 0.602902)
(6.72107e-26 1.44551 0.611495)
(3.86748e-26 1.47834 0.617991)
(-3.57431e-25 1.51073 0.621681)
(-1.59475e-24 1.54232 0.621483)
(-3.38611e-24 1.57222 0.615812)
(-1.8283e-24 1.59882 0.602547)
(1.47129e-23 1.61958 0.579102)
(6.42497e-23 1.63096 0.542453)
(1.481e-22 1.62812 0.48929)
(1.86317e-22 1.60468 0.416123)
(-9.01039e-23 1.55182 0.319733)
(-1.24353e-21 1.45717 0.198047)
(-4.08078e-21 1.3027 0.0505309)
(-8.86583e-21 1.05734 -0.120551)
(-1.26364e-20 0.675191 -0.287349)
(-8.93362e-21 -0.157864 -0.567932)
(-9.1954e-22 -0.829154 -0.66357)
(6.02085e-23 -1.33422 -0.615171)
(-2.22019e-24 -1.76551 -0.523275)
(-2.55887e-23 -2.1486 -0.479712)
(2.42826e-23 -2.52685 -0.408573)
(-1.00033e-22 -2.81508 -0.382243)
(3.95631e-22 -3.17589 -0.279006)
(-1.21849e-21 -3.30327 -0.326768)
(1.56112e-20 -3.78174 -0.141129)
(-2.77166e-19 -3.5331 -0.422304)
(4.45908e-18 -4.46635 -0.0506602)
(6.32408e-18 -5.04125 -0.738541)
(-2.88429e-56 0.107385 0.150353)
(4.49533e-55 0.138424 0.146568)
(2.57956e-54 0.158065 0.147137)
(6.58913e-54 0.177955 0.146882)
(-6.14123e-54 0.197253 0.148096)
(-1.27242e-52 0.215873 0.149437)
(-4.59345e-52 0.234236 0.151521)
(1.06494e-52 0.252291 0.153962)
(7.84366e-51 0.270228 0.156933)
(2.73422e-50 0.288083 0.160315)
(-3.99926e-50 0.305957 0.164157)
(-6.41996e-49 0.3239 0.168416)
(-1.4204e-48 0.341981 0.173105)
(8.27111e-48 0.360249 0.17821)
(6.02143e-47 0.378757 0.183733)
(4.15865e-47 0.39755 0.189669)
(-1.18625e-45 0.416673 0.19602)
(-5.61129e-45 0.436167 0.202786)
(3.78877e-45 0.456072 0.209971)
(1.38233e-43 0.476425 0.217577)
(4.83746e-43 0.497263 0.225611)
(-9.28616e-43 0.518623 0.234077)
(-1.37602e-41 0.540539 0.242985)
(-3.75207e-41 0.563046 0.252343)
(1.17133e-40 0.586179 0.26216)
(1.19011e-39 0.609972 0.272447)
(2.60567e-39 0.634459 0.283213)
(-1.11213e-38 0.659674 0.294471)
(-8.99285e-38 0.685649 0.30623)
(-1.64224e-37 0.712416 0.318497)
(8.48953e-37 0.740004 0.331281)
(5.93992e-36 0.768438 0.344581)
(9.68859e-36 0.797738 0.358395)
(-5.25228e-35 0.827916 0.372712)
(-3.41706e-34 0.858975 0.38751)
(-5.53381e-34 0.890902 0.402757)
(2.57366e-33 0.923664 0.418402)
(1.69386e-32 0.95721 0.434383)
(3.06282e-32 0.991461 0.450615)
(-9.30869e-32 1.02631 0.467002)
(-7.06105e-31 1.06162 0.48343)
(-1.55916e-30 1.09723 0.499779)
(1.94078e-30 1.13298 0.515929)
(2.35361e-29 1.16869 0.531762)
(6.72113e-29 1.20421 0.547173)
(1.8722e-29 1.23944 0.562065)
(-5.61997e-28 1.2743 0.576343)
(-2.24498e-27 1.30878 0.5899)
(-3.37762e-27 1.34293 0.602599)
(6.5099e-27 1.37681 0.614253)
(5.17488e-26 1.41047 0.624607)
(1.39768e-25 1.44396 0.633317)
(1.19151e-25 1.47729 0.639891)
(-5.97628e-25 1.51037 0.643591)