/*--------------------------------*- C++ -*----------------------------------*\
| =========                 |                                                 |
| \\      /  F ield         | OpenFOAM: The Open Source CFD Toolbox           |
|  \\    /   O peration     | Version:  4.1                                   |
|   \\  /    A nd           | Web:      www.OpenFOAM.org                      |
|    \\/     M anipulation  |                                                 |
\*---------------------------------------------------------------------------*/
FoamFile
{
    version     2.0;
    format      ascii;
    class       volScalarField;
    location    "28";
    object      p;
}
// * * * * * * * * * * * * * * * * * * * * * * * * * * * * * * * * * * * * * //

dimensions      [0 2 -2 0 0 0 0];

internalField   nonuniform List<scalar> 
225
(
523.378
469.981
418.149
369.738
324.847
282.83
243.475
206.471
171.377
138.013
107.071
78.9326
49.9037
14.985
-14.1672
56.9435
34.6826
28.9239
25.2136
19.7396
14.0321
8.87921
4.49046
1.00654
-1.45221
-2.6435
-2.14184
-0.0453921
1.82613
2.08631
-45.8388
-52.4818
-46.7149
-42.568
-39.4774
-35.8821
-31.9957
-28.0584
-24.154
-20.4381
-17.0926
-14.0255
-10.9486
-8.29581
-7.06155
0.294937
-2.12309
2.4697
2.79386
2.84745
3.06265
2.97352
2.59622
2.01466
1.25548
0.29874
-0.810601
-1.72089
-1.8731
-1.56264
16.7228
14.39
15.9437
13.8458
12.4269
11.1834
9.77341
8.39156
7.13412
6.04306
5.14205
4.4295
3.95191
3.9192
4.16406
7.49463
5.47161
6.44559
5.22628
5.02328
5.00751
4.91973
4.95305
5.10864
5.35214
5.67142
6.03429
6.35394
6.61064
6.78538
4.02318
2.86776
3.95335
3.63025
4.01708
4.4112
4.71017
5.06082
5.41738
5.74214
6.03183
6.28572
6.46394
6.54496
6.56067
5.701
5.14321
5.99755
5.76854
5.96705
6.07954
6.10345
6.14874
6.17332
6.16849
6.14479
6.11698
6.08332
6.03747
5.98899
6.00826
5.68287
6.19369
5.91779
5.9606
5.92977
5.85469
5.80758
5.75194
5.69136
5.6321
5.57898
5.53225
5.48616
5.43496
4.68855
4.48087
4.82654
4.65013
4.72289
4.73183
4.71893
4.72712
4.72452
4.71774
4.70814
4.69341
4.67121
4.63594
4.57821
3.31856
3.2024
3.50005
3.44613
3.56575
3.61243
3.64105
3.67602
3.69263
3.6995
3.6975
3.68496
3.66091
3.62265
3.55711
2.34458
2.28438
2.53862
2.5399
2.65823
2.69961
2.72869
2.75578
2.76333
2.76123
2.74981
2.72889
2.69901
2.66021
2.59554
1.56532
1.53032
1.73263
1.7464
1.84558
1.87197
1.89432
1.91145
1.91178
1.90492
1.89033
1.86808
1.83849
1.80374
1.74585
0.880445
0.868326
1.02926
1.03397
1.111
1.12461
1.14245
1.15453
1.15398
1.14903
1.13813
1.1211
1.09611
1.06495
1.01073
0.438408
0.39913
0.455038
0.422966
0.459123
0.440444
0.434103
0.42005
0.399142
0.376455
0.349842
0.321157
0.290732
0.2608
0.217794
)
;

boundaryField
{
    inletFace
    {
        type            zeroGradient;
    }
    inlet
    {
        type            zeroGradient;
    }
    inletWalls
    {
        type            zeroGradient;
    }
    outletInlet
    {
        type            fixedValue;
        value           uniform 0;
    }
}


// ************************************************************************* //
