/*--------------------------------*- C++ -*----------------------------------*\
| =========                 |                                                 |
| \\      /  F ield         | OpenFOAM: The Open Source CFD Toolbox           |
|  \\    /   O peration     | Version:  4.1                                   |
|   \\  /    A nd           | Web:      www.OpenFOAM.org                      |
|    \\/     M anipulation  |                                                 |
\*---------------------------------------------------------------------------*/
FoamFile
{
    version     2.0;
    format      ascii;
    class       surfaceScalarField;
    location    "28";
    object      phi;
}
// * * * * * * * * * * * * * * * * * * * * * * * * * * * * * * * * * * * * * //

dimensions      [0 3 -1 0 0 0 0];

internalField   nonuniform List<scalar> 
420
(
-949.879
2249.78
-1573.96
1924.28
-2054
1779.95
-2424.23
1670.13
-2699.86
1575.82
-2888.38
1488.42
-2993.05
1404.58
-3013.85
1321
-2949.6
1235.66
-2797.22
1147.52
-2551.16
1054.13
-2192.98
941.734
-1687.18
794.063
-1012.69
625.705
287.235
373.337
1876.44
442.747
1854.86
437.298
1785.39
406.694
1700.73
380.577
1601.94
359.899
1509.1
345.289
1419.19
337.534
1328.76
333.485
1239.71
326.959
1154.05
309.618
1071.48
267.472
983.874
191.452
870.098
111.459
705.679
398.682
33.5735
1842.87
-97.392
1985.83
-253.619
1941.62
-371.126
1818.24
-473.19
1704.01
-567.541
1603.45
-651.755
1503.4
-725.804
1402.8
-788.082
1301.99
-837.314
1203.28
-868.231
1102.4
-856.093
971.74
-740.346
754.344
-434.294
399.624
-35.6052
28.774
1814.09
-100.655
2115.25
-225.564
2066.52
-304.5
1897.18
-368.16
1767.67
-416.958
1652.24
-446.234
1532.68
-457.018
1413.59
-451.858
1296.83
-430.158
1181.58
-387.232
1059.47
-311.882
896.389
-192.876
635.342
-48.4219
255.17
-84.0116
169.622
1644.47
146.154
2138.72
123.731
2088.95
122.868
1898.04
126.941
1763.6
135.806
1643.38
149.105
1519.38
166.593
1396.1
186.95
1276.47
208.137
1160.4
229.14
1038.47
243.828
881.694
233.011
646.161
155.24
332.949
71.2173
223.072
1421.4
244.175
2117.62
234.738
2098.38
236.019
1896.76
240.368
1759.25
244.301
1639.44
246.546
1517.14
245.25
1397.4
241.16
1280.56
233.989
1167.57
221.383
1051.07
199.143
903.932
156.145
689.152
78.3018
410.787
149.518
203.31
1218.09
238.361
2082.57
213.606
2123.14
191.4
1918.97
177.193
1773.45
163.762
1652.87
150.03
1530.87
135.89
1411.54
121.066
1295.39
106.913
1181.72
92.8196
1065.17
75.7673
920.98
52.0185
712.895
19.0189
443.786
168.539
171.84
1046.25
221.968
2032.44
199.408
2145.69
170.396
1947.98
152.045
1791.8
137.665
1667.26
122.778
1545.76
108.579
1425.74
95.5876
1308.38
83.1095
1194.2
71.4886
1076.79
58.6403
933.833
40.3296
731.21
15.7518
468.364
184.291
146.083
900.161
210.043
1968.48
196.862
2158.88
170.045
1974.81
152.397
1809.45
139.53
1680.13
127.068
1558.22
113.865
1438.94
101.321
1320.92
89.4254
1206.1
76.9931
1089.22
63.0965
947.728
44.3101
749.992
19.1653
493.502
203.459
116.748
783.406
184.837
1900.4
179.615
2164.1
154.301
2000.12
137.215
1826.54
123.996
1693.35
111.366
1570.85
98.9579
1451.35
86.1034
1333.78
73.8616
1218.33
62.0995
1100.98
49.0202
960.8
32.8474
766.152
13.1777
513.167
216.644
83.1569
700.243
143.128
1840.43
144.679
2162.55
122.753
2022.04
106.148
1843.14
94.4595
1705.03
82.5774
1582.73
71.1657
1462.76
60.3812
1344.56
49.4497
1229.26
39.4151
1111.01
29.7313
970.48
18.0734
777.81
5.23434
526.011
221.891
51.2514
648.99
97.9406
1793.74
102.724
2157.76
87.3915
2037.37
73.1596
1857.37
63.1495
1715.04
54.2535
1591.62
44.8747
1472.14
36.1658
1353.26
28.1907
1237.24
20.4395
1118.76
13.6939
977.226
6.75376
784.761
-0.391689
533.172
221.499
25.1378
623.856
57.738
1761.14
63.5327
2151.96
53.4906
2047.42
43.9022
1866.96
36.1855
1722.76
29.5558
1598.26
23.5108
1478.18
17.0688
1359.71
11.3289
1242.98
6.63154
1123.47
2.50134
981.364
-1.04591
788.323
-3.66413
535.799
217.82
1.41276
622.452
24.051
1738.52
33.3676
2142.67
27.7376
2053.05
20.3788
1874.32
15.0779
1728.06
9.54037
1603.8
4.58379
1483.14
0.0354813
1364.27
-4.83426
1247.86
-8.34389
1126.98
-9.64982
982.68
-9.7208
788.4
-7.14375
533.216
210.664
-11.733
-3.14173
1.45707
-0.387662
-5.0674
-8.80992
-11.7552
-15.1922
-18.0579
-20.1924
-21.7589
-21.0947
-18.1122
-12.3835
)
;

boundaryField
{
    inletFace
    {
        type            calculated;
        value           nonuniform List<scalar> 
450
(
-1.69476e-13
6.31258e-13
-8.96983e-14
-1.50375e-13
1.87703e-13
6.53099e-14
-1.04136e-14
-1.8905e-14
-1.05374e-13
-3.41535e-14
4.19255e-14
-5.43749e-14
-1.70423e-15
1.29104e-14
-9.0028e-16
-2.04708e-12
-2.24073e-12
5.73671e-14
-2.3911e-13
-2.65919e-13
1.71033e-13
1.59328e-13
-6.03875e-14
1.95808e-14
-1.01971e-13
-1.05117e-13
5.05476e-15
-1.02044e-13
-1.87372e-14
-2.96913e-15
-1.98205e-12
-2.17009e-12
-9.08221e-14
-2.04058e-13
-7.91895e-14
1.04405e-13
-1.14989e-13
-1.35603e-13
-1.24795e-13
-1.45766e-13
3.91878e-14
-4.88045e-14
-1.91851e-14
-2.07735e-14
-2.98614e-16
-2.46661e-12
-1.98577e-12
-1.42673e-13
-4.77189e-13
2.67823e-14
-3.01062e-14
-3.04931e-13
-1.86544e-13
-2.07618e-13
-2.40203e-13
5.42664e-14
-6.26328e-14
-4.27777e-14
2.32041e-14
1.02303e-13
-2.30717e-12
-2.12037e-12
-2.522e-13
-4.22851e-13
-1.49513e-13
-1.38874e-13
-3.29774e-13
-1.09492e-13
-1.68444e-13
-1.429e-13
-5.85748e-14
-2.72079e-14
-6.29385e-14
-1.53052e-15
9.52205e-14
-2.03998e-12
-2.15197e-12
-4.42791e-13
-3.8391e-13
-1.63654e-13
-1.85486e-13
-2.89305e-13
-8.03907e-14
-8.44463e-14
-1.18838e-13
-4.71274e-14
-5.12603e-14
-5.82282e-14
4.61591e-15
8.509e-14
-1.82782e-12
-2.31165e-12
-7.11334e-13
-3.84783e-13
-2.08295e-13
-1.90102e-13
-2.75075e-13
-1.14843e-13
-1.56039e-13
-1.14445e-13
-7.39527e-14
-6.3583e-14
-1.66902e-14
-7.07486e-14
-1.21712e-13
-1.60609e-12
-2.35385e-12
-9.45947e-13
-4.10683e-13
-2.39023e-13
-1.9894e-13
-2.58364e-13
-1.46219e-13
-1.85125e-13
-1.5178e-13
-1.14111e-13
-1.02552e-13
-7.73894e-14
-2.98838e-14
-2.20557e-13
-1.348e-12
-2.34473e-12
-1.12968e-12
-4.52669e-13
-2.56304e-13
-1.86666e-13
-2.41146e-13
-1.60318e-13
-1.55915e-13
-1.83431e-13
-1.28559e-13
-1.11181e-13
-1.26489e-13
-3.30242e-14
-1.79766e-14
-1.16584e-12
-2.29802e-12
-1.27231e-12
-5.11896e-13
-2.69427e-13
-1.7139e-13
-2.58934e-13
-1.69581e-13
-1.05616e-13
-1.38432e-13
-1.52333e-13
-1.12772e-13
-8.3698e-14
-4.77777e-14
7.57919e-14
-9.64768e-13
-2.23111e-12
-1.37997e-12
-5.52429e-13
-2.76466e-13
-1.66039e-13
-2.42211e-13
-1.74216e-13
-1.30533e-13
-8.27019e-14
-1.09064e-13
-4.90868e-14
-3.28323e-14
-3.63905e-14
6.41859e-14
-8.28464e-13
-2.17234e-12
-1.44569e-12
-6.07184e-13
-3.13425e-13
-1.55652e-13
-2.16226e-13
-1.84672e-13
-1.14996e-13
-1.11546e-13
-8.7296e-14
3.7433e-14
-1.90124e-14
8.23413e-14
1.11179e-13
-7.83581e-13
-2.11866e-12
-1.49081e-12
-6.50524e-13
-3.42068e-13
-1.59946e-13
-2.11257e-13
-2.02308e-13
-8.71178e-14
-1.08285e-13
-1.15135e-13
1.14398e-14
-1.90538e-14
1.00321e-13
1.0625e-13
-7.4203e-13
-2.07389e-12
-1.51113e-12
-6.74523e-13
-3.43265e-13
-1.54945e-13
-2.0161e-13
-2.18163e-13
-8.25177e-14
-1.09491e-13
-1.23269e-13
8.32852e-15
-1.29364e-14
8.49178e-14
9.49373e-14
-7.38188e-13
-2.00498e-12
-1.50698e-12
-6.97516e-13
-3.48209e-13
-1.64983e-13
-2.03696e-13
-2.09727e-13
-9.07094e-14
-1.15899e-13
-1.14356e-13
-1.39421e-15
-6.69887e-15
8.13651e-14
5.65276e-14
1.69476e-13
-6.31258e-13
8.96983e-14
1.50375e-13
-1.87703e-13
-6.53099e-14
1.04136e-14
1.8905e-14
1.05374e-13
3.41535e-14
-4.19255e-14
5.43749e-14
1.70423e-15
-1.29104e-14
9.0028e-16
2.04708e-12
2.24073e-12
-5.73671e-14
2.3911e-13
2.65919e-13
-1.71033e-13
-1.59328e-13
6.03875e-14
-1.95808e-14
1.01971e-13
1.05117e-13
-5.05476e-15
1.02044e-13
1.87372e-14
2.96913e-15
1.98205e-12
2.17009e-12
9.08221e-14
2.04058e-13
7.91895e-14
-1.04405e-13
1.14989e-13
1.35603e-13
1.24795e-13
1.45766e-13
-3.91878e-14
4.88045e-14
1.91851e-14
2.07735e-14
2.98614e-16
2.46661e-12
1.98577e-12
1.42673e-13
4.77189e-13
-2.67823e-14
3.01062e-14
3.04931e-13
1.86544e-13
2.07618e-13
2.40203e-13
-5.42664e-14
6.26328e-14
4.27777e-14
-2.32041e-14
-1.02303e-13
2.30717e-12
2.12037e-12
2.522e-13
4.22851e-13
1.49513e-13
1.38874e-13
3.29774e-13
1.09492e-13
1.68444e-13
1.429e-13
5.85748e-14
2.72079e-14
6.29385e-14
1.53052e-15
-9.52205e-14
2.03998e-12
2.15197e-12
4.42791e-13
3.8391e-13
1.63654e-13
1.85486e-13
2.89305e-13
8.03907e-14
8.44463e-14
1.18838e-13
4.71274e-14
5.12603e-14
5.82282e-14
-4.61591e-15
-8.509e-14
1.82782e-12
2.31165e-12
7.11334e-13
3.84783e-13
2.08295e-13
1.90102e-13
2.75075e-13
1.14843e-13
1.56039e-13
1.14445e-13
7.39527e-14
6.3583e-14
1.66902e-14
7.07486e-14
1.21712e-13
1.60609e-12
2.35385e-12
9.45947e-13
4.10683e-13
2.39023e-13
1.9894e-13
2.58364e-13
1.46219e-13
1.85125e-13
1.5178e-13
1.14111e-13
1.02552e-13
7.73894e-14
2.98838e-14
2.20557e-13
1.348e-12
2.34473e-12
1.12968e-12
4.52669e-13
2.56304e-13
1.86666e-13
2.41146e-13
1.60318e-13
1.55915e-13
1.83431e-13
1.28559e-13
1.11181e-13
1.26489e-13
3.30242e-14
1.79766e-14
1.16584e-12
2.29802e-12
1.27231e-12
5.11896e-13
2.69427e-13
1.7139e-13
2.58934e-13
1.69581e-13
1.05616e-13
1.38432e-13
1.52333e-13
1.12772e-13
8.3698e-14
4.77777e-14
-7.57919e-14
9.64768e-13
2.23111e-12
1.37997e-12
5.52429e-13
2.76466e-13
1.66039e-13
2.42211e-13
1.74216e-13
1.30533e-13
8.27019e-14
1.09064e-13
4.90868e-14
3.28323e-14
3.63905e-14
-6.41859e-14
8.28464e-13
2.17234e-12
1.44569e-12
6.07184e-13
3.13425e-13
1.55652e-13
2.16226e-13
1.84672e-13
1.14996e-13
1.11546e-13
8.7296e-14
-3.7433e-14
1.90124e-14
-8.23413e-14
-1.11179e-13
7.83581e-13
2.11866e-12
1.49081e-12
6.50524e-13
3.42068e-13
1.59946e-13
2.11257e-13
2.02308e-13
8.71178e-14
1.08285e-13
1.15135e-13
-1.14398e-14
1.90538e-14
-1.00321e-13
-1.0625e-13
7.4203e-13
2.07389e-12
1.51113e-12
6.74523e-13
3.43265e-13
1.54945e-13
2.0161e-13
2.18163e-13
8.25177e-14
1.09491e-13
1.23269e-13
-8.32852e-15
1.29364e-14
-8.49178e-14
-9.49373e-14
7.38188e-13
2.00498e-12
1.50698e-12
6.97516e-13
3.48209e-13
1.64983e-13
2.03696e-13
2.09727e-13
9.07094e-14
1.15899e-13
1.14356e-13
1.39421e-15
6.69887e-15
-8.13651e-14
-5.65276e-14
)
;
    }
    inlet
    {
        type            calculated;
        value           nonuniform List<scalar> 
15
(
-1299.9
-1300.2
-1299.9
-1299.9
-1300.2
-1299.9
-1299.9
-1300.2
-1299.9
-1299.9
-1300.2
-1299.9
-1299.9
-1300.2
-1299.9
)
;
    }
    inletWalls
    {
        type            calculated;
        value           uniform 0;
    }
    outletInlet
    {
        type            calculated;
        value           nonuniform List<scalar> 
15
(
198.265
527.474
785.41
982.015
1128.55
1249.99
1367.13
1486.59
1606.75
1731.81
1879.01
2054.9
2138.08
1729.92
634.192
)
;
    }
}


// ************************************************************************* //
