/*--------------------------------*- C++ -*----------------------------------*\
| =========                 |                                                 |
| \\      /  F ield         | OpenFOAM: The Open Source CFD Toolbox           |
|  \\    /   O peration     | Version:  4.1                                   |
|   \\  /    A nd           | Web:      www.OpenFOAM.org                      |
|    \\/     M anipulation  |                                                 |
\*---------------------------------------------------------------------------*/
FoamFile
{
    version     2.0;
    format      ascii;
    class       volScalarField;
    location    "20";
    object      nut;
}
// * * * * * * * * * * * * * * * * * * * * * * * * * * * * * * * * * * * * * //

dimensions      [0 2 -1 0 0 0 0];

internalField   nonuniform List<scalar> 
6785
(
0.345135
4.98633e-08
4.61056e-08
4.61095e-08
4.61162e-08
4.61053e-08
4.61104e-08
4.61161e-08
4.61033e-08
4.61074e-08
4.61152e-08
4.60988e-08
4.62601e-08
2.1167e-07
0.392138
0.376681
2.25694e-05
5.54337e-10
5.15247e-10
4.91497e-10
4.67168e-10
4.4428e-10
4.21972e-10
3.98933e-10
3.75944e-10
3.54322e-10
3.34358e-10
3.56819e-09
6.99011e-06
0.248904
0.402223
0.00179197
7.95321e-11
1.51186e-11
2.6948e-11
1.17117e-10
6.49888e-08
1.52035e-05
0.000205334
0.000764867
0.00286124
0.0145292
0.0745768
0.0950764
0.155129
0.438279
0.0104143
4.81268e-06
1.57254e-11
1.79678e-11
8.53401e-11
5.19017e-09
1.27944e-06
7.75462e-05
0.000194892
0.00050326
0.00195757
0.0121517
0.0238653
0.0697386
0.467465
0.0543823
0.0323647
0.0610952
0.00222084
5.15527e-05
2.39652e-07
3.97406e-07
6.95344e-05
0.000208901
0.000432383
0.000963772
0.00360782
0.0810545
0.0629364
0.489099
0.0601987
0.0188686
0.00624271
0.00268435
0.000366617
9.02773e-06
9.13278e-07
8.05267e-05
0.000391126
0.000567267
0.00165757
0.00379275
0.0152895
0.0611112
0.502818
0.0824951
0.0223618
0.00723267
0.0036661
0.00283462
0.000133456
2.5238e-05
0.000104511
0.000442509
0.000886758
0.00254471
0.00433645
0.00879327
0.0557653
0.510193
0.097392
0.0306603
0.0113191
0.00521659
0.00160815
0.00123049
0.000376079
0.000215539
0.00053302
0.00117299
0.00292204
0.00417233
0.00599379
0.0520209
0.513769
0.0960251
0.0365657
0.0204608
0.0160093
0.00686476
0.0136134
0.0101808
0.00171507
0.00113149
0.00148796
0.00265324
0.00344451
0.00459315
0.059825
0.515984
0.0822483
0.0324421
0.0158393
0.0175066
0.0161514
0.197336
0.343742
0.043496
0.00908105
0.00287864
0.00218759
0.00262984
0.00475206
0.0724801
0.518217
0.0734655
0.0255855
0.0101416
0.0445643
0.195859
5.22941
1.20469
0.36417
0.0425836
0.00801512
0.00523751
0.00278824
0.0071786
0.0941516
0.527552
0.074112
0.0214942
0.00798332
0.0530058
0.183693
2.15025
1.78729
0.733388
0.159531
0.104296
0.172476
0.0287727
0.0185411
0.122227
0.528198
0.27278
0.0813151
0.016437
0.0962455
0.243397
4.35778
1.19838
1.64561
0.525694
0.55978
0.692229
0.394551
0.13987
0.143458
0.50439
1.13109
0.382218
0.080733
0.00531626
0.00580854
0.106697
0.0341916
0.120894
0.418744
3.76084
7.59196
2.19234
0.247556
0.154111
0.536633
1.49997
1.00025
1.28392
2.60642
2.13147
2.54764
3.31554
3.74395
3.13533
2.13267e-27
0.00688437
0.108036
0.445881
0.267975
2.16074
4.40797
2.40089
2.41731
2.46453
4.77207
2.57182
2.5664
2.59586
4.97974
2.69282
2.69033
5.0544
2.69728
2.65941
2.65217
4.97859
2.6679
2.6399
4.88037
2.59006
2.53683
2.50555
4.62715
2.45195
2.40026
2.36786
4.37693
2.32699
2.28932
4.21908
2.22775
2.18013
2.15055
4.01103
2.12425
2.09228
3.9067
2.05169
2.01027
1.98696
3.76849
1.97989
1.95317
1.9472
3.77479
2.02186
2.03498
3.98883
2.15554
2.17652
2.21338
4.39929
2.35747
2.36156
2.38291
4.68257
2.50696
2.51939
4.88663
2.56227
2.5376
2.53229
4.80367
2.45463
2.39351
4.30477
2.14522
2.06812
2.01353
3.62505
1.89102
1.8852
1.8907
3.46164
1.86825
1.87877
3.42288
1.85421
1.86635
0.307834
0.333127
0.317871
0.169298
0.0709384
0.0657593
0.0422866
0.02772
0.0183095
0.0131131
0.00815957
0.00644984
0.00457748
0.00104996
0.00121999
0.00195156
0.00737026
0.109947
1.52936
6.42255
10.7696
7.43578
4.88617
3.86032
3.75515
3.7495
3.65474
3.46218
3.27549
3.13406
3.06123
3.21659
2.72705
2.76865
2.83563
2.87629
2.92144
2.97343
3.05857
3.17548
3.0029
2.31011
2.33436
2.37209
2.42703
2.48318
2.53719
2.60869
2.66912
2.43223
2.05365
2.05177
2.09595
2.14126
2.23553
2.35115
2.47061
2.6042
2.25059
2.41568
2.47366
2.66499
2.86944
3.10635
3.38302
3.71224
4.08877
4.50966
5.56465
4.84496
5.05116
5.40535
5.84955
6.39076
7.08419
7.89653
8.68158
11.9658
9.16633
9.25428
9.63099
16.3624
16.531
10.0565
16.9312
10.335
17.5151
17.6718
10.7051
18.1651
18.3141
11.0104
18.5427
11.2364
19.0547
19.2927
11.611
19.5146
11.8234
19.9988
20.2965
12.2658
20.6055
20.8642
12.557
20.9414
12.6623
21.2072
21.4621
12.928
21.4894
12.9949
21.6631
21.9052
13.237
21.9436
22.13
13.3375
21.9957
13.3043
22.0037
22.1928
13.3939
22.0565
13.3514
22.0102
22.1876
13.4335
22.0593
22.1893
13.4116
21.9662
13.3116
21.7996
21.9103
13.2612
21.6896
13.1545
21.4643
21.5393
13.0643
21.2447
21.2662
12.8845
20.9513
12.714
20.6094
20.6145
12.5133
20.3369
12.3455
19.9644
19.944
12.1099
19.5609
19.5322
11.8697
19.2486
11.6991
18.9218
10.3202
10.1808
11.0607
11.6237
12.2682
12.8761
13.4654
13.9993
14.4454
14.7563
14.8812
14.8536
14.8214
14.7292
14.4377
13.9652
13.3122
12.65
12.1418
11.8187
11.6002
11.3687
11.1534
11.1353
11.4991
12.6093
15.9731
21.7377
16.8427
3.43318
0.615766
0.623531
0.393568
0.112591
0.0229763
0.00337146
0.00894978
0.010674
0.00840221
0.0314907
0.122816
0.163413
0.148543
0.185604
0.147975
0.00537098
0.0775632
14.1057
21.6962
17.2708
15.0973
8.88692
5.01955
7.81765
47.055
87.1227
133.787
182.136
210.19
223.218
231.635
232.134
219.832
195.798
163.474
130.045
102.044
83.1239
72.9187
68.2729
66.601
66.4186
66.4138
66.0744
65.6176
65.2103
64.116
60.6997
51.4387
10.2038
10.1338
11.0164
11.6016
12.2487
12.8467
13.4249
13.9467
14.379
14.675
14.7869
14.7115
14.6368
14.5983
14.3274
13.849
13.1949
12.5167
11.9894
11.6618
11.463
11.2366
10.9934
10.8864
11.0672
12.1692
15.6786
22.4132
18.5338
3.62493
0.605376
0.605776
0.38937
0.117326
0.0251012
0.00363424
0.00872632
0.0104372
0.00817908
0.0308405
0.124072
0.166123
0.149761
0.1852
0.104585
0.0152682
0.232107
16.9908
22.0836
18.4892
16.8747
10.2003
4.72394
6.6723
46.2557
86.3215
133.991
182.695
211.786
225.59
234.134
234.15
220.998
194.919
161.157
126.885
98.5934
79.9576
70.2876
66.0969
64.8214
64.9343
65.1172
64.9616
64.6957
64.5086
63.6706
60.3596
51.2847
10.3449
10.2077
11.1304
11.7277
12.3817
12.9712
13.5307
14.0292
14.4331
14.6947
14.7759
14.6822
14.5639
14.4974
14.2526
13.7853
13.1397
12.4753
11.978
11.6781
11.5221
11.3165
11.0875
10.9534
11.0346
11.8764
15.0889
23.0181
20.9849
4.01754
0.608942
0.599736
0.400418
0.126724
0.0285702
0.00408854
0.00867297
0.0103669
0.00817191
0.030491
0.12527
0.168719
0.151178
0.185336
0.0695174
0.0251566
0.415575
20.503
25.1933
22.4902
21.5617
14.0624
5.5649
5.27673
42.0873
84.4253
134.498
186.539
219.146
234.186
242.226
240.215
224.184
195.606
159.603
123.743
95.0661
77.1692
68.4811
65.0167
64.2694
64.7236
65.1341
65.1591
65.0436
64.9884
64.3373
61.2138
52.0205
10.2757
10.3327
11.2618
11.8813
12.5411
13.1263
13.6701
14.1462
14.5221
14.747
14.7838
14.6482
14.5181
14.4503
14.2193
13.7578
13.1191
12.4847
11.9979
11.7146
11.5902
11.4046
11.1864
11.0407
11.0524
11.681
14.568
22.9185
24.0224
4.58137
0.617069
0.604577
0.400871
0.136152
0.0321632
0.00464161
0.00862689
0.0102576
0.00821329
0.029916
0.124954
0.170738
0.152278
0.18415
0.0469837
0.0570603
0.720043
22.9718
28.4417
27.6773
27.7658
18.7115
8.58438
4.19803
35.5027
81.1475
134.657
193.269
231.349
248.474
256.294
250.676
229.889
196.939
157.83
120.579
92.0734
75.0438
67.1892
64.3165
64.1271
64.9042
65.56
65.7909
65.8544
65.9355
65.4425
62.4257
52.9699
10.5237
10.5194
11.4352
12.0699
12.7379
13.3223
13.8514
14.3037
14.6502
14.8369
14.8243
14.6365
14.5016
14.4567
14.2212
13.7778
13.1498
12.5462
12.0825
11.8215
11.7211
11.5531
11.3442
11.1917
11.1451
11.6231
13.9111
22.1271
26.9703
5.59856
0.639889
0.595153
0.402958
0.145214
0.0362389
0.00532116
0.00856081
0.010104
0.00816979
0.0293525
0.124574
0.173202
0.153555
0.180591
0.0258431
0.0808438
1.05171
26.0695
32.9038
34.6268
36.0463
26.2112
12.8513
4.23877
28.4888
75.649
135.481
202.628
248.113
268.562
274.019
262.474
235.617
198.029
155.827
117.513
89.6307
73.4719
66.1394
63.809
64.1014
65.2032
66.1069
66.5402
66.784
66.9893
66.608
63.6038
54.0267
10.7695
10.7011
11.6264
12.271
12.9455
13.5311
14.0461
14.472
14.7854
14.9302
14.8642
14.62
14.4753
14.4523
14.223
13.7964
13.1909
12.6239
12.1888
11.9495
11.8618
11.7063
11.5064
11.3525
11.2538
11.6219
13.3466
20.5107
29.3573
7.70537
0.688144
0.593853
0.407124
0.156342
0.0417148
0.00609935
0.00856551
0.00999723
0.00810794
0.0287877
0.124294
0.174905
0.154698
0.177917
0.0591939
0.187515
1.55408
30.5433
38.0736
43.07
46.3223
36.6984
19.4007
4.01871
24.2778
68.365
135.14
214.193
269.808
294.015
295.176
275.98
241.753
198.927
153.832
114.919
87.714
72.2347
65.193
63.4382
64.1484
65.5931
66.7562
67.406
67.8536
68.1961
67.8984
64.9982
55.1886
11.0456
10.8943
11.8237
12.4779
13.1572
13.745
14.2466
14.6434
14.9199
15.0195
14.8961
14.5913
14.4365
14.4438
14.2233
13.825
13.25
12.7149
12.3264
12.1089
12.0191
11.8701
11.6681
11.5195
11.3724
11.6682
12.8924
18.6136
30.9246
11.7449
0.755438
0.603691
0.410973
0.169287
0.0477549
0.00729729
0.00855522
0.00982458
0.00807622
0.0282328
0.12297
0.177768
0.155945
0.158325
0.0246443
0.182839
2.29688
35.6098
44.3852
53.0173
57.952
49.4343
29.4301
3.70534
14.4062
55.5705
132.839
225.737
293.847
321.636
317.906
289.891
247.664
199.605
152.029
112.835
86.2637
71.3061
64.3522
63.1266
64.2061
65.994
67.4192
68.2926
68.9628
69.4534
69.2081
66.2435
56.3924
11.3383
11.0959
12.0294
12.6899
13.3734
13.9627
14.452
14.8176
15.0531
15.1038
14.9197
14.5508
14.3842
14.4438
14.225
13.8645
13.3354
12.8041
12.4929
12.2963
12.1881
12.0428
11.8126
11.6822
11.4885
11.7512
12.5322
16.7945
31.6244
17.9245
0.848746
0.598607
0.416658
0.186343
0.0565558
0.0087011
0.00864574
0.00969243
0.00803009
0.0276372
0.122591
0.179235
0.157431
0.140063
0.0515105
0.338519
3.4127
41.1123
51.7099
64.1479
70.9417
64.9719
42.9838
4.46531
10.8376
45.8012
126.805
234.815
316.572
348.291
340.3
303.297
253.134
200.2
150.551
111.241
85.1864
70.5453
63.6537
62.8453
64.2769
66.4123
68.1018
69.2073
70.123
70.776
70.5597
67.6114
57.6509
11.6471
11.3061
12.2412
12.905
13.5928
14.1809
14.6593
14.992
15.1823
15.1805
14.9337
14.4983
14.3159
14.4604
14.2316
13.9176
13.4357
12.9224
12.6865
12.5097
12.3667
12.2188
11.9205
11.8331
11.5926
11.8686
12.2715
15.2465
31.5294
25.4945
0.945758
0.614942
0.43015
0.206697
0.0661709
0.0109309
0.00874892
0.00950023
0.00800146
0.0270214
0.120556
0.182244
0.158157
0.18196
0.0471326
0.640843
4.84033
47.2073
60.1099
76.0659
84.7262
81.1685
58.9558
6.77907
7.71877
33.6474
115.507
239.154
335.006
371.905
360.17
315.326
257.951
200.767
149.455
110.11
84.4272
69.9157
63.0994
62.5641
64.355
66.8403
68.7921
70.1343
71.3164
72.1499
71.9419
68.9621
58.7948
11.9729
11.5267
12.4589
13.1235
13.8159
14.399
14.8673
15.1665
15.3074
15.2496
14.9394
14.4376
14.2356
14.4891
14.2481
13.9926
13.5637
13.0653
12.9031
12.7447
12.5486
12.3899
12.0516
11.9575
11.6688
12.0166
12.1202
14.0068
30.2167
32.5908
1.27048
0.665488
0.441065
0.232808
0.0806392
0.0139693
0.00902449
0.00936308
0.0079445
0.0263694
0.119836
0.183671
0.160873
0.0623544
0.0706343
0.809757
6.89383
54.101
69.8241
88.1214
99.2784
98.5029
77.4437
13.1
6.64955
25.9418
100.274
236.057
346.154
390.328
375.765
325.249
261.933
201.3
148.72
109.374
83.911
69.3511
62.6775
62.2977
64.455
67.2905
69.4992
71.08
72.5515
73.5669
73.3693
70.2214
60.0277
12.3166
11.7592
12.6822
13.346
14.0424
14.617
15.0745
15.34
15.4273
15.3104
14.9383
14.3736
14.1535
14.4794
14.2825
14.0935
13.7287
13.2394
13.1292
12.9876
12.7229
12.5417
12.2545
12.2925
11.9308
12.1796
12.0908
13.0752
27.5291
37.0243
3.08686
0.780225
0.494655
0.26916
0.0975524
0.0181266
0.00938817
0.00918593
0.00791606
0.0256976
0.1173
0.186478
0.158959
0.0685588
0.124733
1.3676
9.63785
61.9513
80.9702
100.63
114.269
116.713
97.9413
31.7738
8.96341
19.3887
83.7615
224.446
348.569
401.664
386.44
332.489
264.931
201.75
148.281
108.933
83.5625
68.7757
62.3738
62.0747
64.5919
67.7739
70.2309
72.0496
73.8341
74.9857
74.8033
71.5854
61.2861
12.679
12.0055
12.9105
13.5743
14.2722
14.837
15.2801
15.5117
15.5419
15.3627
14.9323
14.3118
14.067
14.4917
14.3406
14.2214
13.9325
13.4484
13.3526
13.2137
12.861
12.665
12.433
12.4774
12.2003
12.4082
12.1866
12.4986
23.5254
37.8674
10.2424
1.05602
0.547886
0.317771
0.12358
0.0242827
0.0100308
0.00908954
0.00787047
0.0250082
0.116075
0.188112
0.160376
0.0640111
0.205643
2.10436
13.0028
70.6778
93.437
113.739
129.189
135.095
120.849
62.6091
12.5845
17.3017
70.7916
206.736
342.567
404.392
391.961
336.258
266.779
201.997
147.995
108.625
83.3037
68.2205
62.1166
61.9061
64.784
68.3069
71.0007
73.0558
75.1228
76.4006
76.2232
72.9617
62.4404
13.0601
12.2667
13.1436
13.8102
14.5054
15.0601
15.4833
15.6805
15.6506
15.4064
14.9232
14.2596
13.9904
14.52
14.4259
14.3765
14.1538
13.6783
13.5767
13.3954
12.9181
12.7443
12.5769
12.6414
12.4725
12.7635
12.483
12.2247
19.3603
35.9749
21.3347
2.06213
0.738768
0.391351
0.158376
0.0333386
0.0109747
0.00896365
0.00784266
0.0243091
0.113139
0.190364
0.165773
0.103495
0.366314
3.23736
16.9908
79.7421
106.725
127.405
143.343
153.042
145.811
97.8292
18.3269
18.1444
61.0808
186.578
328.814
398.735
392.217
336.729
267.102
201.763
147.603
108.225
82.896
67.6793
61.8151
61.8056
65.0504
68.9076
71.8248
74.1167
76.4188
77.8085
77.6254
74.2908
63.7013
13.4586
12.5427
13.3837
14.054
14.7421
15.2871
15.6848
15.8452
15.7529
15.4421
14.9147
14.2262
13.9377
14.5671
14.54
14.5529
14.3806
13.9053
13.7683
13.5053
12.9366
12.7632
12.673
12.7696
12.7395
13.1322
12.7744
12.2293
16.106
33.0695
31.266
5.71561
1.27752
0.548061
0.218281
0.0479887
0.0124503
0.00898319
0.00782068
0.0236136
0.11167
0.192534
0.152201
0.0537527
0.587453
4.56171
21.6061
89.0864
119.739
141.391
155.918
169.729
170.557
130.472
28.933
20.6698
58.7563
166.769
308.108
386.18
386.997
334.034
265.015
200.41
146.617
107.409
82.0864
67.1571
61.5427
61.8068
65.4143
69.5958
72.7223
75.2548
77.7275
79.2086
79.0083
75.73
64.8845
13.8726
12.8283
13.6352
14.3056
14.9826
15.5171
15.8853
16.004
15.8481
15.4703
14.9104
14.2208
13.9145
14.651
14.6814
14.739
14.5807
14.0911
13.9063
13.5308
12.9253
12.6912
12.7127
12.8414
12.9753
13.485
13.2272
12.4094
14.0095
30.2126
35.0531
14.7164
2.94904
0.886532
0.324305
0.0738624
0.0149533
0.00896266
0.00780181
0.0229251
0.10843
0.194108
0.153544
0.0820934
0.923895
7.17163
26.6175
98.7508
131.632
154.938
166.099
184.671
192.141
158.075
49.1268
27.284
49.3639
142.378
280.33
367.484
375.854
328.252
260.674
197.042
144.269
105.884
80.6867
66.6691
61.3226
61.9337
65.8975
70.3918
73.7137
76.4772
79.0549
80.6013
80.3734
77.0384
66.2322
14.3031
13.121
13.9
14.5647
15.2281
15.7487
16.0851
16.1556
15.9355
15.4923
14.9147
14.2533
13.9319
14.77
14.8386
14.916
14.7168
14.186
13.9129
13.4341
12.8096
12.6658
12.691
12.8326
13.1454
13.776
13.6624
12.8008
12.9658
27.0193
34.6192
22.6766
6.92915
1.89331
0.538149
0.124193
0.0191209
0.00925092
0.0078134
0.022245
0.106954
0.196886
0.153478
0.132897
1.6764
7.84979
31.9822
108.45
143.394
167.031
173.307
197.635
209.426
181.033
88.5285
34.0683
45.7986
118.914
246.992
342.679
359.128
319.05
254.027
191.958
140.644
103.466
79.0972
66.2542
61.2591
62.2206
66.5232
71.315
74.8196
77.7622
80.4074
81.9909
81.722
78.4329
67.5666
14.7525
13.4247
14.1799
14.8299
15.4802
15.9805
16.2841
16.3004
16.0151
15.5104
14.9335
14.3326
13.9967
14.9115
14.9918
15.0547
14.7497
14.1486
13.7649
13.2166
12.6183
12.4433
12.5366
12.7715
13.1259
13.7829
14.1601
13.2587
12.9441
21.9965
32.212
27.8836
13.3191
4.35162
1.11591
0.232519
0.0277636
0.00954901
0.00783351
0.021588
0.103694
0.198109
0.151145
0.196241
1.75843
10.2192
37.5782
118.082
154.212
176.503
177.029
208.338
223.616
205.45
140.976
43.5513
45.5241
98.09
208.729
311.133
337.547
305.784
244.808
185.108
136.005
100.271
77.8798
65.7686
61.3554
62.6902
67.3132
72.3838
76.0588
79.1172
81.7927
83.3819
83.0609
79.8274
68.6988
15.2231
13.7443
14.4775
15.1007
15.7404
16.2122
16.4819
16.4405
16.088
15.5273
14.9736
14.4668
14.1109
15.0519
15.1059
15.1067
14.641
13.9533
13.4465
12.8687
12.331
12.0505
12.2445
12.5392
12.9303
13.6319
14.3116
13.9413
13.3062
17.3919
29.5571
28.7947
17.9711
9.44632
2.52279
0.543622
0.0458827
0.0106578
0.00792796
0.0209378
0.102184
0.200965
0.17521
0.435278
3.01727
13.2386
43.6553
127.33
163.512
182.439
177.023
215.406
236.774
231.33
178.1
55.9176
49.6207
81.3374
169.738
274.035
311.325
287.692
232.463
176.304
130.369
96.7177
76.7768
65.3915
61.6401
63.3638
68.2875
73.6153
77.4522
80.5489
83.219
84.7829
84.3988
81.1223
70.0287
15.7167
14.0859
14.7947
15.3798
16.0093
16.4456
16.6781
16.5786
16.1576
15.5469
15.0426
14.6648
14.2903
15.154
15.1019
14.9953
14.3691
13.6059
12.9953
12.4138
11.9209
11.6579
11.8062
12.1318
12.6169
13.3142
14.1796
14.4718
13.8529
14.8413
27.3329
28.5775
20.2742
12.7455
6.36395
1.36022
0.0979633
0.0125205
0.00808078
0.0203022
0.0989658
0.202518
0.192416
0.350561
3.71914
16.8501
50.0588
135.815
170.689
186.675
173.954
217.887
249.219
253.383
198.174
79.0666
54.8935
75.5336
143.546
234.973
280.715
264.512
216.567
165.294
123.027
93.308
75.2126
65.0663
62.0968
64.2465
69.461
75.0266
79.0216
82.0596
84.6941
86.2052
85.742
82.4789
71.2739
16.2352
14.4585
15.1284
15.6738
16.2873
16.6844
16.8731
16.718
16.2322
15.5729
15.1514
14.9817
14.635
15.1823
14.9822
14.6965
13.9178
13.1242
12.4781
11.9429
11.4215
11.2578
11.2834
11.6855
12.2252
12.9321
13.853
14.5693
14.474
14.6165
24.1787
28.1641
20.6437
18.7811
9.90206
4.63652
0.299014
0.0182682
0.0085334
0.0197235
0.0973654
0.20493
0.121417
0.62637
6.59438
19.147
56.6362
142.98
174.869
187.171
169.019
215.56
261.358
270.583
217.264
119.914
61.047
78.0134
125.182
198.053
246.804
236.126
196.88
151.685
114.749
89.5696
73.3698
64.7484
62.6839
65.3214
70.8402
76.6365
80.715
83.6431
86.222
87.6579
87.0971
83.8213
72.3006
16.7793
14.8793
15.4731
15.9866
16.5747
16.933
17.0691
16.862
16.3248
15.6075
15.2185
15.3762
14.8164
15.032
14.6073
14.1125
13.2771
12.5289
11.9517
11.4952
11.08
10.9609
10.9258
11.3228
11.9093
12.6288
13.523
14.6074
15.1406
15.2964
20.2186
27.7116
20.492
18.7376
17.0636
8.33384
0.99966
0.0345223
0.0094694
0.0191901
0.0940813
0.206726
0.197779
1.26951
5.80356
24.398
63.2385
148.148
175.42
183.191
163.584
207.316
271.681
284.155
238.793
145.345
65.58
71.922
107.392
164.983
205.405
203.969
173.681
136.453
106.225
84.7422
71.1718
64.338
63.3225
66.5438
72.4194
78.4621
82.5057
85.2894
87.8015
89.1469
88.4679
85.0481
73.1484
17.3456
15.3751
15.8336
16.3219
16.8731
17.1959
17.2715
17.0129
16.4569
15.8008
15.376
15.5788
15.1993
14.7317
14.0266
13.3217
12.5415
11.8405
11.5047
11.1579
10.8353
10.8937
10.8617
11.1545
11.7257
12.4658
13.4471
14.7291
16.0998
16.0289
17.6873
27.134
20.4782
20.2962
16.6383
16.3424
5.72452
0.107929
0.0123603
0.0188176
0.0921072
0.208396
0.203981
1.04714
7.53678
24.2271
69.7364
150.619
172.104
175.435
158.724
197.303
277.038
292.744
258.696
159.792
77.6543
62.7231
88.0161
124.125
160.276
167.907
146.842
119.715
96.3157
79.2567
68.6295
63.7644
63.9302
67.8537
74.1841
80.5234
84.383
86.9873
89.4276
90.6705
89.8469
86.3491
73.6075
17.9192
15.888
16.2162
16.6837
17.1903
17.4788
17.4895
17.1676
16.6251
16.0988
15.6935
15.8611
15.2712
14.2411
13.2614
12.3946
11.7282
11.1907
11.0681
10.875
10.8052
10.9802
11.1044
11.4412
11.8341
12.3068
13.3845
14.9644
16.9532
16.8355
17.5293
25.5399
20.5684
20.4478
22.0901
16.3775
8.41394
0.38732
0.020735
0.0189881
0.0886532
0.209767
0.196379
1.66445
10.4658
32.6153
75.9401
150.871
165.31
164.466
155.337
188.404
277.506
295.663
275.633
179.738
90.5674
55.2271
64.9065
93.3179
115.604
127.015
119.277
102.093
85.8455
73.4626
65.8726
63.0409
64.471
69.209
76.1314
82.6935
86.3257
88.7247
91.0932
92.2198
91.2225
87.5218
74.3985
18.4962
16.4153
16.6288
17.0715
17.5386
17.7905
17.7376
17.3196
16.8076
16.4274
15.8971
15.8888
14.9907
13.5859
12.3738
11.4925
10.9412
10.613
10.6904
10.6903
10.8571
11.1865
11.582
11.9427
12.3308
12.5497
13.0401
14.7967
17.7057
18.5481
18.4777
23.6153
20.7178
19.9467
20.3971
22.2663
18.7409
1.70823
0.0512491
0.020326
0.0861199
0.211291
0.251446
2.64935
15.975
38.6166
81.6731
148.979
154.589
151.405
153.968
182.732
269.038
297.706
288.611
204.009
103.549
61.2229
53.2901
67.1825
86.8294
94.2596
93.1424
85.2606
75.7399
67.8352
63.1753
62.3116
65.0023
70.6276
78.287
84.9454
88.3071
90.4896
92.7914
93.7854
92.5748
88.7548
74.9717
19.0725
16.9561
17.089
17.4775
17.9296
18.1466
18.0394
17.4704
17.0041
16.7578
16.0907
15.6949
14.3298
12.7859
11.6099
10.8583
10.3117
10.0344
10.509
10.6994
10.9884
11.4886
12.0999
12.7002
13.0648
13.2537
13.2864
14.169
17.4158
20.0514
19.9674
22.3632
21.3698
19.4598
22.2458
20.2662
16.5164
4.42054
0.170313
0.0250828
0.0836585
0.208877
0.253655
3.93285
20.1714
44.4246
86.5612
144.706
141.696
138.371
151.915
181.137
259.65
293.923
296.226
221.142
138.198
64.9001
50.5975
55.2781
66.7643
74.095
73.5528
71.2103
66.8558
62.8537
60.8795
61.8235
65.6783
72.2139
80.5926
87.2494
90.3016
92.2693
94.5154
95.3536
93.8847
89.6558
75.2763
19.644
17.5067
17.6268
17.9098
18.3724
18.5755
18.4455
17.6106
17.205
17.035
16.4059
15.2787
13.5622
11.9563
10.8147
10.2233
10.0055
9.93152
10.4318
10.8745
11.2549
11.8404
12.6271
13.3574
13.8914
14.057
13.8704
14.0991
16.0086
19.8105
21.4464
22.0487
22.366
19.5742
21.8929
24.1559
24.1073
13.1566
0.713626
0.0403423
0.0821242
0.210139
0.257575
4.36323
23.6816
50.3432
90.5947
138.34
127.887
127.104
142.225
184.703
253.678
284.257
287.695
232.59
195.017
67.033
60.1985
49.9182
56.4361
63.0183
62.3912
61.0821
59.9255
58.9266
59.2541
61.8068
66.7018
74.1496
83.0429
89.5861
92.2837
94.0524
96.2599
96.9097
95.1395
90.5197
75.9269
20.2061
18.0537
18.1855
18.3779
18.868
19.1093
19.0525
17.8575
17.5992
17.4936
16.4194
14.8467
12.6063
11.0306
10.1486
9.8796
9.9674
10.1076
10.6139
11.2193
11.6761
12.3223
13.1227
14.0199
14.6942
15.0372
14.945
14.8494
15.6216
18.4283
21.426
22.0976
23.4574
19.2009
21.2595
24.0193
23.3761
16.8698
2.5159
0.0935613
0.084246
0.201563
0.263487
6.35694
27.8894
56.188
93.883
130.474
114.392
119.013
144.426
189.726
247.86
269.486
272.204
241.766
239.921
68.1
71.5854
54.8652
52.6322
56.0624
56.4717
54.8619
55.3985
56.3317
58.5091
62.4459
68.2737
76.5473
85.6865
91.9444
94.2319
95.8346
98.0464
98.4508
96.3316
90.9785
76.4672
20.7556
18.5917
18.7538
18.9003
19.4167
19.7873
19.3043
18.3897
18.2668
17.9492
16.3006
14.0026
11.6224
10.328
9.90055
9.84182
10.1258
10.5713
11.181
11.8317
12.3239
12.9454
13.6838
14.5726
15.3756
15.9
16.1238
16.0752
16.3271
18.0856
20.9776
21.9169
23.7901
19.3269
21.3128
24.6133
28.0162
27.2337
9.22124
0.301312
0.0960359
0.201809
0.22143
5.24932
30.4895
61.7341
96.4282
121.935
102.2
115.106
144.867
194.732
240.364
243.63
264.516
239.641
264.813
70.7697
80.2163
64.9075
54.6673
53.8876
54.1576
51.1894
52.4511
55.007
58.798
63.9014
70.6074
79.445
88.5561
94.311
96.1337
97.6523
99.7039
99.8297
97.257
91.5649
76.5193
21.2888
19.1153
19.3241
19.5079
20.0333
20.6403
20.0982
19.1552
18.7073
18.2161
15.9965
12.99
10.7857
10.1186
10.0456
10.2209
10.6648
11.3173
11.9933
12.7228
13.196
13.7637
14.3385
15.0452
15.8812
16.5488
16.9775
17.0867
17.2311
18.4043
20.8747
21.9931
23.618
20.3123
20.7301
23.7486
28.3005
28.4687
16.4116
1.0765
0.128712
0.192206
0.194778
6.39559
34.3054
66.9452
98.2041
113.573
92.1908
115.899
145.186
196.359
236.692
226.126
244.967
235.747
276.054
74.0632
85.5342
75.2091
60.1436
55.6628
53.8612
50.7476
51.0252
54.6711
59.7858
65.9583
73.5481
82.8468
91.6407
96.6653
97.9946
99.3646
101.114
101.008
98.0098
91.9479
76.9326
21.8016
19.6175
19.8771
20.1458
20.7356
20.9336
20.4947
19.9479
19.505
18.1803
15.1772
12.0088
10.4592
10.3007
10.5508
10.9669
11.5454
12.1681
13.0979
13.8643
14.2968
14.7839
15.1651
15.6168
16.2483
16.932
17.4156
17.6933
17.8017
18.595
20.8101
22.4797
23.5816
21.2447
20.2971
23.5206
28.861
34.575
29.9194
3.84651
0.239521
0.206291
0.181699
8.27892
37.2236
71.8005
99.2281
106.146
85.2298
119.331
149.9
200.56
237.597
213.643
219.763
226.603
269.148
81.806
91.686
84.3177
67.9575
59.1125
54.7257
52.3939
51.3299
55.657
61.5698
68.9233
77.1043
86.7213
94.8922
98.9886
99.8564
100.82
102.087
101.765
98.4678
92.285
76.7381
22.2904
20.0935
20.4
20.7783
21.6268
20.7596
20.7422
20.4225
20.2326
18.0191
14.1934
11.3468
10.5958
10.8095
11.3915
12.0445
12.7863
13.4923
14.4247
15.2616
15.6486
16.0081
16.2107
16.3684
16.593
17.0751
17.6179
17.8945
18.0733
18.5285
20.5171
23.1737
23.8157
22.4115
20.255
22.5462
28.4601
35.4798
32.9168
9.25064
0.54942
0.209347
0.21776
7.05514
39.174
76.2779
99.6268
100.162
82.1588
119.681
153.17
204.461
235.68
203.565
192.757
213.275
240.689
95.4953
101.612
92.4844
77.2284
63.4151
58.3538
55.3185
53.0984
57.4649
64.3223
72.0857
81.2906
91.0018
98.2388
101.274
101.73
101.864
103.292
102.665
98.9761
92.4231
76.9589
22.7542
20.5416
20.8865
21.3613
22.623
21.5254
21.2142
21.2424
20.2323
17.0885
13.1894
11.2524
11.0585
11.6208
12.5116
13.4326
14.3393
15.1265
15.9971
16.9075
17.2296
17.4184
17.436
17.3095
17.1696
17.209
17.571
17.9168
18.1954
18.3665
20.0611
23.7738
24.4779
23.7794
21.1123
21.2347
27.8016
37.2751
42.2863
21.8875
1.42891
0.298449
0.207537
7.85819
44.1045
80.2971
99.9134
95.5725
83.7086
118.332
161.676
206.163
231.993
189.848
166.758
196.374
215.155
112.226
113.779
101.036
87.5736
68.5265
62.5275
58.3441
56.3892
60.3108
67.8509
76.2128
86.1107
95.5951
101.596
103.544
103.196
103.096
104.419
103.457
99.3525
92.4597
77.1127
23.195
20.9657
21.3425
21.8458
23.0903
22.3208
21.9815
21.9334
20.2478
16.0825
12.6203
11.5928
11.7953
12.6661
13.8462
15.0535
16.1366
16.9778
17.6959
18.6681
18.9108
18.9618
18.8004
18.4393
17.9717
17.5945
17.4978
17.7356
18.1185
18.135
19.4651
24.0874
25.2874
25.4414
22.8394
20.821
27.7112
38.6737
43.1459
27.7495
3.62239
0.392098
0.22884
9.04764
39.2385
83.6027
99.8399
91.4443
90.2818
117.198
169.182
214.163
229.997
180.499
147.834
175.842
193.464
129.691
125.603
110.507
98.5606
74.36
67.4946
61.6503
60.5496
63.9527
72.0206
80.9558
91.4348
100.327
104.836
105.777
104.347
104.25
105.402
104.073
99.5511
92.3704
76.5552
23.6164
21.3734
21.7946
22.3477
23.3424
22.8163
22.8416
22.4924
19.3748
14.9947
12.6159
12.2306
12.7584
13.8799
15.3123
16.7809
18.0593
18.9553
19.4209
20.4455
20.5961
20.5418
20.2505
19.7234
19.001
18.2758
17.7561
17.5683
17.6756
17.8089
18.6667
23.859
26.5533
27.3999
25.2232
22.2631
26.197
38.5843
50.4785
43.574
7.85879
0.856547
0.282384
7.51654
42.8598
86.404
99.7519
85.9065
101.221
119.6
178.35
215.581
223.171
172.298
139.324
151.045
187.501
145.917
137.709
120.448
109.698
81.1003
72.6975
67.8157
66.3109
69.244
76.816
86.2597
97.0929
104.95
107.833
107.395
105.531
105.262
106.184
104.468
99.5428
92.0326
76.4047
24.0206
21.7675
22.2501
22.9654
23.5777
23.2246
23.6436
22.3286
18.3265
14.3403
13.0324
13.1011
13.9051
15.2214
16.839
18.4915
19.9261
20.8841
21.2475
22.1743
22.2237
22.0971
21.7266
21.0981
20.2344
19.2535
18.3846
17.7802
17.5116
17.3929
17.6815
23.0134
27.5155
29.4443
28.4547
25.1315
25.2172
38.667
53.65
52.0157
19.2714
1.55025
0.265682
7.57994
46.6961
87.5039
92.1147
77.381
112.886
130.57
190.774
226.475
216.507
175.749
141.733
123.411
174.196
152.814
146.427
130.596
120.374
88.7596
78.7326
73.7903
71.6845
74.9616
81.6361
91.851
102.819
109.182
110.332
108.561
106.525
106.085
106.726
104.604
99.2987
91.5106
76.1223
24.4079
22.1468
22.6874
23.6201
23.774
23.6222
23.9622
21.5192
17.061
14.2349
13.7299
14.173
15.2048
16.6711
18.3926
20.143
21.6612
22.6754
22.9778
23.8005
23.7844
23.5991
23.1868
22.5303
21.6172
20.4972
19.3813
18.4312
17.806
17.3975
17.0533
21.6927
27.4053
31.3558
32.1529
29.098
26.304
37.1804
60.4685
64.6638
27.5217
3.76171
0.35819
7.28187
41.331
86.8185
81.2889
66.2507
121.093
147.54
203.54
233.919
216.066
195.503
148.924
91.3219
148.267
153.196
151.697
140.602
130.377
97.2406
85.5649
79.9591
78.3212
81.0217
86.7707
97.6103
108.316
112.768
111.875
109.478
107.285
106.684
107.006
104.452
98.7841
90.8181
75.1154
24.7763
22.5117
23.0869
23.74
24.0122
24.1641
23.8198
20.3921
16.1611
14.5688
14.6469
15.4329
16.6458
18.2084
19.9604
21.7288
23.2631
24.3476
24.6046
25.3377
25.2731
25.0431
24.6131
23.9729
23.0816
21.9386
20.6959
19.5157
18.591
17.9213
17.2335
20.8135
26.3817
33.3756
35.9016
33.5964
30.1733
36.2875
60.8089
77.2699
55.6435
11.3699
0.577252
6.91895
44.4805
84.8807
71.6479
55.3602
129.636
165.403
216.247
234.51
235.463
190.118
119.505
81.2341
126.468
146.191
155.343
149.704
139.84
106.278
93.0746
86.4376
83.7014
86.4909
92.518
103.511
112.873
115.2
112.952
110.08
107.8
107.046
107.014
103.983
97.9729
89.8414
74.5559
25.1229
22.8673
23.5962
24.3513
24.4771
24.4902
23.105
18.9691
15.825
15.2269
15.7814
16.8773
18.2254
19.8071
21.5247
23.2436
24.7599
25.9313
26.1523
26.8082
26.7135
26.4473
26.0077
25.3998
24.5752
23.4938
22.2416
20.953
19.8213
18.9494
18.146
20.9206
25.695
34.9183
39.4761
39.1034
35.8402
37.6818
60.6092
87.0947
69.2508
24.1714
1.62227
6.39364
47.3377
82.0109
63.6346
50.2996
137.892
181.721
227.799
242.36
242.265
158.762
93.2769
107.566
116.103
148.481
156.26
157.882
148.774
115.607
101.045
93.0833
88.8479
91.3718
98.3088
109.133
116.636
116.777
113.621
110.431
108.071
107.173
106.749
103.172
96.8389
88.6686
73.1443
25.4433
23.1778
24.0127
24.3935
24.8236
24.3943
22.0148
17.8269
16.0086
16.1627
17.144
18.4919
19.9317
21.4437
23.0693
24.6832
26.1554
27.4331
27.6481
28.2403
28.126
27.8273
27.3791
26.8035
26.0596
25.0856
23.9128
22.6185
21.3815
20.3835
19.5112
21.917
26.3115
35.3021
43.2114
45.5354
42.0938
43.5974
61.0318
75.4447
83.9337
47.1025
4.0123
5.98627
49.3457
78.9263
58.7753
53.0175
153.372
201.531
237.209
272.996
232.407
127.682
84.9687
95.9946
107.289
144.438
155.939
165.152
157.161
124.999
109.264
99.72
93.7301
96.0677
103.97
114.117
119.335
117.75
113.972
110.549
108.104
107.08
106.209
101.999
95.3679
87.2137
72.2742
25.7476
23.438
23.8975
24.4069
24.9776
23.8353
20.5822