/*--------------------------------*- C++ -*----------------------------------*\
| =========                 |                                                 |
| \\      /  F ield         | OpenFOAM: The Open Source CFD Toolbox           |
|  \\    /   O peration     | Version:  4.1                                   |
|   \\  /    A nd           | Web:      www.OpenFOAM.org                      |
|    \\/     M anipulation  |                                                 |
\*---------------------------------------------------------------------------*/
FoamFile
{
    version     2.0;
    format      ascii;
    class       volScalarField;
    location    "20";
    object      p;
}
// * * * * * * * * * * * * * * * * * * * * * * * * * * * * * * * * * * * * * //

dimensions      [0 2 -2 0 0 0 0];

internalField   nonuniform List<scalar> 
6785
(
6798.87
6734.48
6683.15
6633.41
6587.19
6543.73
6502.86
6464.35
6427.96
6393.1
6359.41
6328.24
6299.14
6264.32
6229.68
6264.39
6246.43
6249.08
6244.5
6240.98
6237.44
6234.39
6232.07
6230.71
6230.35
6230.93
6233.19
6237.78
6241.05
6241.05
6206.96
6200.53
6210.2
6209.53
6212.92
6215.41
6218.14
6220.78
6223.33
6225.74
6228.01
6230.25
6232.01
6233.05
6234.16
6247.3
6244.29
6248.99
6244.86
6244.89
6242.84
6241.1
6239.08
6237.01
6234.88
6232.82
6231.32
6230.99
6231.48
6232.81
6244.62
6242.09
6245.11
6241.52
6242.73
6241.62
6241.32
6240.97
6240.74
6240.63
6240.66
6240.91
6241.68
6242.51
6243.78
6246.11
6244.9
6247.84
6245.99
6248.22
6248.32
6249.3
6250.18
6251.1
6252.05
6253
6253.9
6254.81
6255.42
6256.21
6256.14
6255.97
6258.46
6257.17
6259.1
6259.06
6259.85
6260.42
6260.97
6261.51
6262.04
6262.5
6263.01
6263.36
6263.89
6263.91
6264.31
6266.3
6265.18
6266.74
6266.58
6267.18
6267.54
6267.92
6268.3
6268.71
6269.11
6269.57
6269.93
6270.51
6271.4
6272.17
6273.78
6272.86
6274.24
6274.07
6274.62
6274.92
6275.27
6275.64
6276.04
6276.47
6276.95
6277.34
6277.94
6278.11
6279.27
6280.57
6279.95
6281.25
6281.15
6281.83
6282.16
6282.5
6282.77
6283.1
6283.5
6283.95
6284.32
6284.85
6288.74
6289.52
6290.28
6289.67
6290.68
6290.36
6290.72
6290.23
6290.08
6289.91
6289.83
6289.81
6289.88
6290.04
6290.18
6281.43
6282.06
6282.72
6282.24
6283.22
6282.93
6283.17
6282.77
6282.76
6282.69
6282.74
6282.88
6283.17
6283.55
6283.66
6299.24
6296.6
6295.53
6294.23
6294.22
6293.51
6293.54
6292.84
6292.18
6291.24
6290.35
6289.53
6288.85
6288.34
6287.85
6178.69
6178.92
6187.68
6193.79
6202.99
6211.4
6220.27
6228.1
6235.37
6241.91
6247.36
6253.32
6262.45
6269.74
6270.53
6241.32
6284.95
6307.76
6334.72
6359.38
6377.92
6391.66
6398.25
6399.95
6396.94
6388.13
6375.46
6362.41
6343.27
6315.6
5359.92
5359.04
5360.31
5359.44
5361.72
5349.17
5347.01
5346.57
5350.68
5331.42
5329.8
5339.28
5319.82
5307.72
5310.01
5321.22
5292.93
5286.97
5308.45
5283.04
5260.86
5266.02
5289.37
5262.94
5237.49
5246.39
5269.93
5230.03
5222.09
5260.92
5228.85
5199.87
5213.3
5244.53
5199.9
5193.98
5242.33
5210.03
5177.77
5192.79
5235.46
5204.05
5174.42
5192.31
5228.71
5181.12
5178.81
5227.42
5198.22
5180.22
5196.19
5237
5229.52
5227.77
5245.89
5283.58
5289.23
5317.07
5358.03
5389.97
5421.94
5437.19
5469.13
5507.33
5548.3
5572.25
5619.95
5650.25
5655.82
5667.15
5686.12
5728.86
5728.95
5731.04
5742.82
5772.04
5753.75
5787.33
5809.39
5736.39
5792.33
5851.91
5861.8
5689.59
5806.77
5779.58
5792.57
5819.2
5833.43
5843.2
5852.13
5853.38
5740.77
5828.78
5789.57
5801.04
5824.35
5828.36
5838.71
5869.73
5913.35
5982.3
5881.07
5801.6
5848.75
5897.07
5917.04
5941.47
5969.98
6000.69
6021.69
6070.57
5958.2
5875.66
5914.11
5957.51
5975.3
5993.17
6022.99
6039.67
6128.84
5955.79
5849.9
5877.55
5915.64
5928.67
5939.26
5970.76
5972.46
6037.09
5848.48
5712.19
5732.48
5767.99
5758.51
5748.9
5768.93
5758.98
5854.57
5598.73
5387.29
5384.57
5418.57
5407.25
5370.01
5317.19
5319.53
5284.49
5293.76
5103.53
4772.85
4719.78
4751.03
4719.3
4657.73
4587.72
4450.6
4336.28
4240.89
3795.34
3133.25
3952.08
5628.18
4094.52
3565
3814.99
3720.61
5284.85
4105.31
3009.43
5049.84
3851.96
3163.75
3412.25
3214.47
5054.01
3584.31
2850.28
3141.66
2950.49
4749.86
3490.12
2179.93
4341.53
3175.29
2333.89
2603.17
2368.96
4118.1
2787.8
1974.73
2243.63
2020.28
3552.93
2512.96
1341.32
3061.95
2159.3
1405.37
1621.12
1374.85
2703.98
1714.92
1023.12
1255.44
1014.47
2212.24
1456.94
449.946
1920.05
1244.21
516.67
827.919
540.089
1882.49
1043.98
275.39
646.686
344.575
1734.14
1009.24
-201.883
1553.06
859.444
-50.2409
334.165
-20.2349
1543.97
585.053
-323.196
61.8267
-274.024
1258.61
406.702
-899.016
952.789
129.089
-758.064
-488.529
-699.693
-1.90739
-6.36426
-9.70147
-13.2134
-17.3213
-19.9511
-50.9369
-130.281
-156.764
-173.673
-194.201
-198.253
-196.422
-191.431
-183.392
-153.302
-119.52
-104.226
-78.0594
-51.3581
-20.234
2.79988
24.272
48.1675
64.9262
73.8162
80.6262
80.6838
63.46
50.9772
33.6087
45.1405
66.9394
100.062
124.657
114.278
110.064
98.0377
76.4877
46.7183
23.0352
21.8441
10.8074
-30.0391
-22.2541
-5.82185
14.8823
-1.9952
67.4597
15.6356
-8.9747
2.39345
10.0108
-0.933182
-17.3679
3.49985
-9.13785
328.943
137.924
-34.2007
-35.8671
-27.1722
-21.2489
-14.8124
-8.6081
-2.07894
4.6524
10.927
15.9983
19.0949
20.7803
25.0223
18.3449
43.0726
54.6865
27.1931
-7.38562
-22.4052
2.39526
-4.43838
-16.9252
-28.1488
-39.4571
-51.4809
-58.3979
-105.181
-237.386
-283.756
-311.061
-344.899
-351.866
-342.414
-323.342
-296.999
-243.431
-186.948
-146.259
-93.4539
-41.4273
14.2618
59.9353
100.97
140.593
169.889
185.752
189.029
180.107
129.474
113.994
90.2017
113.259
163.828
214.602
247.203
229.316
222.519
204.899
171.373
116.789
67.2259
58.9753
35.0645
-33.5069
-54.5614
-19.8427
41.8789
13.0106
121.351
12.5282
-10.0697
7.49769
34.4082
27.9509
0.0270641
9.66162
-39.5739
484.891
195.228
-83.6587
-84.5845
-58.9628
-37.7188
-17.0828
-0.20008
14.7205
28.2722
39.9181
49.4415
56.6261
60.3091
69.0676
60.5035
75.4481
-63.788
-98.7655
42.6588
128.729
118.006
-8.38408
-29.5297
-48.6685
-67.8674
-88.3234
-100.855
-140.186
-268.025
-307.856
-334.33
-371.885
-377.011
-360.241
-332.641
-298.068
-239.523
-178.891
-127.35
-66.6008
-7.61156
52.916
104.458
150.755
192.816
223.777
241.166
242.387
231.01
174.567
162.679
151.491
193.322
243.738
265.774
287.789
266.851
259.484
240.914
206.92
150.666
95.3859
81.9915
56.9867
-12.2626
-65.0492
-22.6542
61.0063
19.3381
91.0834
-12.1006
2.64988
15.5885
57.9142
38.2273
-15.3082
6.57442
-37.0225
258.279
102.441
-64.5926
-59.2342
-33.711
-13.4833
8.00111
26.0968
42.7905
58.238
71.4742
82.6656
92.3257
98.6457
115.337
104.781
153.367
23.8357
-67.624
44.7417
162.828
193.034
-12.1234
-41.4347
-68.694
-95.7067
-123.857
-141.284
-173.586
-298.093
-339.998
-370.726
-412.07
-414.018
-390.759
-356.841
-316.09
-250.993
-183.536
-123.271
-54.9213
11.4563
78.179
135.723
188.102
235.049
269.19
289.431
293.022
283.538
229.436
215.103
209.491
264.629
325.303
321.677
327.464
302.509
293.986
273.14
237.237
179.822
121.221
103.674
77.3768
13.7461
-63.6976
-22.8524
78.7519
26.6479
62.8672
-36.245
13.7723
22.9458
80.5277
54.267
-16.7461
1.40306
-62.3788
100.448
22.5432
-51.4006
-38.8609
-13.8432
4.54765
27.0132
47.1247
66.6913
85.2116
101.121
114.897
127.555
135.808
158.196
146.962
210.427
63.5108
-35.8327
75.0854
233.616
253.406
-16.1937
-53.5359
-89.0493
-123.806
-159.359
-182.427
-211.332
-340.787
-395.806
-435.12
-479.361
-478.593
-450.172
-410.145
-361.566
-286.072
-207.806
-136.228
-56.3356
21.6436
99.1981
166.672
228.665
284.035
324.346
349.223
356.063
347.816
292.785
271.063
266.764
332.859
401.72
393.105
385.33
355.368
344.934
320.766
280.561
217.077
151.601
129.869
98.9594
41.7231
-50.7659
-17.0366
92.3674
30.0478
39.9963
-52.7967
22.6972
29.2292
101.571
67.0886
-21.8257
-6.73274
-82.2551
12.6046
-29.6055
-54.9062
-34.2933
-4.82332
15.9129
42.2436
66.1085
89.476
111.518
130.288
146.498
161.349
171.604
199.74
189.112
275.616
140.883
30.1729
106.001
289.513
342.093
-20.3676
-65.4712
-109.383
-151.826
-194.577
-223.412
-250.778
-388.121
-457.395
-502.423
-545.723
-541.852
-508.381
-461.538
-403.926
-317.731
-228.804
-145.435
-53.6905
36.0559
124.359
201.869
273.382
336.745
383.041
412.265
421.504
413.258
356.245
325.729
323.016
396.907
469.95
462.746
444.808
410.211
397.858
370.697
326.531
256.632
183.796
158.527
123.166
72.1198
-30.3888
-6.82192
104.264
29.6593
12.1267
-63.7991
31.9564
35.1233
120.331
79.52
-25.2363
-16.4105
-111.941
-80.0556
-77.7451
-60.9105
-30.69
4.37448
28.215
58.5132
85.9929
112.842
137.951
159.116
177.357
194.362
206.318
239.04
229.308
332.081
216.43
110.891
156.289
343.412
400.828
-24.7071
-77.3386
-129.79
-179.894
-229.762
-264.231
-290.26
-435.872
-519.098
-566.56
-606.547
-599.58
-560.852
-506.427
-439.413
-343.081
-244.196
-149.663
-46.9707
53.5647
151.456
238.033
318.164
388.644
440.28
473.43
485.04
476.876
419.566
379.726
379.323
458.716
531.05
525.512
499.584
461.013
447.012
417.295
369.998
295.044
215.978
187.904
149.353
104.76
-3.57692
8.09096
114.279
25.5693
-18.867
-70.6662
41.5202
41.6803
135.585
90.2539
-30.5303
-27.6003
-143.09
-166.385
-123.895
-68.9266
-28.2
12.7024
40.0294
74.4007
105.567
135.843
163.869
187.263
207.425
226.138
239.73
276.401
268.105
385.38
297.325
200.148
225.332
412.076
450.655
-29.1691
-89.0651
-150.196
-207.979
-265.069
-305.089
-330.35
-485.14
-583.486
-632.579
-668.955
-658.979
-614.478
-551.876
-475.383
-369.015
-260.047
-154.593
-41.1405
70.09
177.48
273.054
361.79
439.502
496.64
533.877
548.401
540.722
484.415
435.083
436.497
519.029
585.933
584.865
552.605
510.489
495.029
462.91
412.767
333.254
248.574
217.936
176.663
139.127
28.1405
27.2035
123.441
19.9335
-49.6306
-73.7697
50.9317
50.035
148.264
99.1409
-38.397
-39.7827
-178.89
-231.783
-163.956
-81.3322
-29.6386
18.2361
50.2687
89.3408
124.546
158.338
189.238
214.764
236.712
256.933
272.035
311.717
305.023
432.383
374.52
292.586
312.053
471.197
535.631
-33.7508
-100.637
-170.587
-236.126
-300.813
-347.22
-374.249
-540.254
-652.273
-702.968
-735.938
-722.206
-670.683
-599.32
-513.265
-396.687
-277.244
-160.803
-36.436
85.7445
202.885
307.708
405.285
490.504
553.444
594.986
612.772
605.695
550.795
492.916
495.239
578.59
636.157
642.842
605.559
560.206
543.425
509.007
456.164
372.154
282.077
248.969
204.939
174.672
63.5073
50.0978
132.264
13.0722
-78.8263
-73.3083
60.2972
60.7576
159.736
102.622
-51.6708
-52.9532
-220.068
-280.824
-198.176
-97.2393
-34.3169
21.6036
59.447
103.692
143.163
180.475
214.142
241.651
265.23
286.652
303.195
345.111
340.315
474.519
446.923
385.236
408.082
526.753
594.633
-38.435
-112.016
-190.922
-264.343
-337.272
-391.903
-424.476
-601.487
-724.647
-776.984
-806.421
-787.747
-727.857
-647.251
-551.485
-424.408
-294.186
-166.74
-31.421
101.803
228.689
342.809
449.266
542.021
610.855
656.775
677.979
671.574
618.298
554.1
555.584
637.835
683.728
699.645
658.032
609.74
591.798
555.24
499.97
411.717
316.532
281.12
234.255
210.617
101.013
76.1782
141.354
5.86422
-105.204
-69.609
69.7876
74.0657
171.052
95.296
-73.6077
-67.6756
-267.999
-321.533
-228.713
-115.646
-41.3752
23.2566
67.7397
117.479
161.386
202.207
238.544
267.906
292.981
315.382
333.302
376.651
374.034
511.931
512.762
475.194
506.097
603.319
639.715
-43.2099
-123.167
-211.164
-292.627
-374.581
-439.52
-481.016
-663.563
-799.489
-854.466
-879.474
-854.614
-785.578
-695.482
-589.687
-451.715
-310.486
-172.114
-25.8798
118.38
254.915
378.276
493.585
593.846
668.614
718.972
743.772
738.217
686.751
619.15
617.076
697.148
729.573
755.453
709.634
658.73
639.8
601.287
543.916
451.835
351.902
314.299
264.577
246.356
139.602
104.856
151.294
-0.271953
-126.868
-62.7487
79.6477
89.9047
182.03
79.473
-105.532
-85.2755
-323.629
-360.988
-257.608
-136.213
-50.527
23.2848
75.1099
130.631
179.144
223.485
262.423
293.543
319.987
343.15
362.399
406.46
406.381
545.508
572.086
560.007
600.951
683.078
705.927
-48.061
-134.052
-231.264
-320.946
-412.728
-489.822
-543.31
-724.112
-878.193
-936.804
-955.624
-923.057
-844.448
-744.674
-628.256
-478.897
-326.493
-177.305
-20.1352
135.161
281.328
413.898
538.089
645.873
726.662
781.558
810.158
805.65
755.977
687.3
679.361
756.476
773.029
810.47
760.365
707.229
687.477
647.195
588.035
492.551
388.21
348.362
295.851
281.624
178.834
135.635
162.676
-3.66375
-141.44
-52.2941
90.3903
108.121
191.646
66.2922
-145.247
-107.474
-387.383
-405.767
-286.705
-158.455
-61.3701
21.9572
81.6353
143.166
196.435
244.311
285.791
318.591
346.277
370.019
390.545
434.626
437.45
575.779
625.169
638.262
690.779
768.19
743.426
-52.9732
-144.628
-251.173
-349.254
-451.619
-542.293
-611.411
-788.224
-963.933
-1024.62
-1035.31
-993.537
-904.944
-795.148
-667.27
-505.992
-342.332
-182.413
-14.2074
152.142
307.938
449.715
582.838
698.16
785.066
844.613
877.186
873.859
825.787
757.124
742.561
815.301
812.429
864.59
810.221
755.3
734.878
693.019
632.38
533.917
425.497
383.211
327.997
316.513
218.537
168.141
175.973
-2.92207
-146.556
-37.5233
102.655
128.666
199.52
61.7372
-189.034
-135.036
-458.151
-460.055
-317.647
-181.702
-73.3986
19.6456
87.4546
155.14
213.285
264.714
308.679
343.084
371.89
396.047
417.787
461.242
467.306
603.162
672.586
709.53
774.516
854.234
798.678
-57.9299
-154.853
-270.834
-377.493
-491.144
-596.481
-684.456
-857.476
-1055.99
-1117.34
-1118.28
-1066.05
-967.121
-846.88
-706.595
-532.874
-357.943
-187.323
-7.93966
169.462
334.844
485.826
627.914
750.755
843.857
908.168
944.848
942.786
896.121
828.042
806.918
873.558
846.554
917.604
859.131
802.926
781.969
738.736
676.938
575.946
463.813
418.815
360.989
351.199
258.619
202.117
191.621
2.82469
-140.774
-17.8002
117.062
151.589
206.42
66.1409
-232.243
-167.187
-534.593
-525.509
-351.782
-205.345
-86.1168
16.7046
92.768
166.669
229.769
284.749
331.149
367.061
396.865
421.29
444.165
486.369
495.947
627.825
714.901
774.017
851.557
932.701
834.226
-62.9123
-164.68
-290.189
-405.599
-531.197
-651.99
-759.956
-924.893
-1150.34
-1215.52
-1205.18
-1140.57
-1030.88
-899.841
-746.213
-559.527
-373.313
-191.954
-1.23761
187.182
362.093
522.271
673.34
803.656
903.025
972.215
1013.12
1012.39
967.001
900.09
872.228
931.989
876.669
969.648
907.069
850.098
828.717
784.32
721.692
618.656
503.225
455.208
394.874
385.876
299.051
237.418
209.99
14.0816
-123.817
7.22632
134.146
176.976
214.017
80.5292
-268.933
-201.016
-616.389
-604.61
-390.07
-228.772
-98.9523
13.516
97.8649
177.973
246.045
304.521
353.285
390.569
421.244
445.793
469.706
510.06
523.349
649.816
752.656
832.195
922.53
1017.08
867.851
-67.9001
-174.061
-309.177
-433.497
-571.646
-708.369
-836.398
-991.473
-1250.18
-1321.77
-1297.23
-1217.29
-1096.21
-954.105
-786.216
-586.006
-388.459
-196.261
5.9391
205.315
389.7
559.07
719.121
856.855
962.555
1036.74
1081.98
1082.63
1038.42
972.987
938.071
991.784
907.238
1021.27
954.112
896.834
875.119
829.768
766.642
662.071
543.809
492.478
429.765
420.761
339.888
273.945
231.264
31.1147
-95.5833
37.5483
154.292
204.766
224.164
103.913
-293.007
-231.105
-700.925
-699.584
-432.729
-251.095
-111.153
10.5838
103.115
189.364
262.332
324.185
375.181
413.661
445.068
469.601
494.428
532.36
549.486
669.157
786.372
884.663
987.888
1089.14
942.292
-72.8703
-182.949
-327.734
-461.102
-612.333
-765.29
-914.396
-1065.9
-1361.48
-1437.08
-1394.19
-1296.04
-1163.12
-1009.78
-826.661
-612.335
-403.376
-200.195
13.6355
223.885
417.694
596.258
765.272
910.349
1022.44
1101.73
1151.42
1153.49
1110.37
1046.16
1004.1
1053.53
943.879
1072.45
1000.43
943.161
921.172
875.078
811.788
706.215
585.638
530.747
465.823
456.115
381.243
311.57
255.464
54.0591
-55.9043
72.6903
177.779
234.776
237.943
133.562
-299.491
-251.337
-782.797
-808.264
-478.591
-270.827
-121.718
8.64217
109.011
201.218
278.885
343.922
396.916
436.394
468.379
492.759
518.343
553.32
574.356
685.97
816.63
932.241
1048.81
1154.11
987.444
-77.7984
-191.298
-345.798
-488.329
-653.12
-822.617
-993.783
-1148.98
-1476.88
-1559.58
-1495.83
-1376.55
-1231.57
-1066.91
-867.524
-638.485
-418.056
-203.709
21.9027
242.933
446.112
633.888
811.813
964.132
1082.64
1167.16
1221.39
1224.93
1182.84
1119.14
1069.9
1116.12
988.875
1122.3
1046.38
989.104
966.867
920.24
857.122
751.105
628.777
570.161
503.23
492.259
423.179
350.162
282.492
82.9598
-5.40511
111.796
204.869
267.005
255.537
167.371
-287.248
-257.398
-857.225
-923.336
-524.474
-285.743
-129.268
8.7434
116.249
213.988
296
363.919
418.569
458.833
491.217
515.308
541.452
573.012
597.989
700.544
844.128
975.782
1106.88
1223.82
1047.49
-82.6577
-199.062
-363.303
-515.094
-693.901
-880.325
-1073.37
-1238.49
-1593.39
-1691.22
-1604.13
-1459.41
-1301.8
-1125.51
-908.715
-664.428
-432.505
-206.773
30.7854
262.495
474.988
672.004
858.755
1018.18
1143.14
1232.96
1291.8
1296.89
1255.9
1191.74
1135.18
1178.48
1038.97
1171.16
1092.51
1034.79
1012.2
965.238
902.631
796.747
673.278
610.875
542.168
529.517
465.733
389.601
312.117
117.635
54.2651
153.933
235.768
301.803
276.79
204.273
-260.698
-246.716
-919.53
-1030.98
-565.47
-293.276
-132.009
12.2661
125.736
228.239
314.038
384.355
440.25
481.046
513.62
537.273
563.754
591.538
620.461
713.368
869.71
1016.23
1163.29
1288.01
1155.36
-87.4203
-206.201
-380.186
-541.313
-734.583
-938.611
-1154.67
-1339.18
-1722.95
-1837.34
-1720.28
-1544.92
-1374.02
-1185.62
-950.138
-690.148
-446.754
-209.375
40.3208
282.6
504.352
710.639
906.101
1072.49
1203.9
1299.11
1362.57
1369.31
1329.58
1264.03
1200.01
1240.32
1089.44
1219.83
1139.44
1080.52
1057.17
1010.05
948.296
843.141
719.177
653.027
582.802
568.098
509.023
429.788
344.037
157.588
120.553
198.036
270.481
339.902
301.461
243.278
-224.811
-217.77
-962.793
-1113.17
-596.705
-291.303
-127.979
20.7673
138.526
244.637
333.388
405.416
462.092
503.1
535.618
558.669
585.244
609.04
641.895
725.116
894.356
1054.68
1219.45
1352.94
1232.31
-92.0571
-212.68
-396.383
-566.895
-775.055
-997.713
-1240.21
-1455.95
-1859.65
-1994.01
-1842.6
-1632.28
-1448.1
-1247.13
-991.722
-715.63
-460.832
-211.505
50.5404
303.272
534.233
749.825
953.857
1127.06
1264.88
1365.57
1433.62
1442.08
1403.89
1336.27
1264.8
1302.11
1138.23
1268.92
1187.6
1126.82
1101.91
1054.67
994.097
890.279
766.485
696.729
625.272
608.136
553.238
470.604
377.893
201.943
190.016
242.694
308.747
382.505
329.448
283.565
-182.173
-172.248
-979.737
-1157.32
-613.989
-277.999
-115.197
35.7285
155.71
263.863
354.4
427.306
484.209
525.051
557.226
579.503
605.929
625.702
662.463
736.581
919.119
1092.3
1276.7
1419.51
1370.87
-96.5383
-218.467
-411.832
-591.744
-815.159
-1057.49
-1329.68
-1585.76
-1988.25
-2155.81
-1971.89
-1722.19
-1524.23
-1310.03
-1033.38
-740.863
-474.758
-213.152
61.4704
324.532
564.662
789.596
1002.04
1181.95
1326.05
1432.3
1504.9
1515.13
1478.79
1408.73
1330
1364.62
1185.73
1318.34
1236.79
1174.16
1146.82
1099.05
1040.01
938.143
815.195
742.064
669.686
649.755
598.318
511.837
413.268
249.523
258.972
286.422
350.057
430.376
360.964
324.619
-134.415
-116.011
-967.531
-1161.58
-612.704
-250.749
-91.6079
58.4702
178.24
286.559
377.377
450.199
506.678
546.928
578.443
599.78
625.83
641.737
682.372
748.588
945.043
1130.34
1336.44
1485.02
1448.61
-100.834
-223.536
-426.476
-615.76
-854.705
-1117.51
-1421.2
-1723.96
-2118.71
-2331.36
-2111.52
-1815.92
-1602.8
-1374.45
-1075.09
-765.824
-488.538
-214.3
73.1311
346.4
595.68
829.988
1050.68
1237.18
1387.4
1499.23
1576.31
1588.39
1554.16
1481.47
1396.02
1427.98
1233.1
1367.36
1286.57
1222.39
1192.42
1143.2
1086
986.709
865.277
789.076
716.113
692.949
643.837
553.349
449.783
299.221
324.104
327.983
393.737
482.971
396.407
366.086
-82.5465
-55.5848
-929.169
-1128.68
-588.188
-206.882
-55.7669
89.9623
206.639
313.097
402.523
474.166
529.509
568.719
599.242
619.512
644.99
657.375
701.853
761.91
973.064
1169.93
1400.25
1563.25
1563.34
-104.913
-227.865
-440.259
-638.84
-893.485
-1177.29
-1513.2
-1865.76
-2253.78
-2520.57
-2259.78
-1912.07
-1683.45
-1440.37
-1116.83
-790.505
-502.162
-214.926
85.5367
368.9
627.337
871.044
1099.81
1292.8
1448.97
1566.31
1647.72
1661.69
1629.81
1554.22
1463.05
1491.82
1281.1
1415.53
1336.6
1271.01
1239.15
1187.15
1132.03
1035.94
916.681
837.747
764.586
737.641
689.388
595.068
487.07
350.002
382.064
366.402
438.926
538.731
436.012
407.935
-26.7849
5.893
-869.223
-1058.22
-538.433
-145.922
-8.06397
129.989
240.693
343.317
429.799
499.152
552.641
590.368
619.585
638.716
663.472
672.841
721.135
777.196
1003.94
1212
1468.36
1639.52
1739.77
-108.749
-231.438
-453.131
-660.883
-931.291
-1236.39
-1604.44
-2004.45
-2380.1
-2710
-2413.18
-2009.7
-1765.67
-1507.6
-1158.55
-814.93
-515.603
-214.991
98.7015
392.057
659.693
912.808
1149.47
1348.87
1510.81
1633.5
1718.99
1734.79
1705.34
1626.37
1530.93
1555.48
1330.65
1462.59
1386.55
1319.6
1286.75
1231.15
1178.05
1085.8
969.339
887.992
815.105
783.865
734.835
636.847
524.712
400.637
429.765
401.02
484.736
595.354
478.931
450.202
32.9689
68.8613
-789.048
-949.413
-465.046
-70.3855
49.3071
176.941
279.423
376.609
458.95
524.999
575.968
611.798
639.436
657.42
681.351
688.345
740.43
794.947
1038.2
1257.34
1541.24
1717.29
1840.75
-112.315
-234.249
-465.045
-681.786
-967.906
-1294.35
-1693.6
-2137.77
-2509.97
-2906.98
-2574.41
-2111.06
-1850.21
-1576.25
-1200.22
-839.11
-528.824
-214.435
112.643
415.908
692.813
955.322
1199.67
1405.42
1573
1700.84
1790.09
1807.52
1780.25
1697.13
1599.19
1618.46
1383.33
1508.55
1436.29
1367.97
1334.68
1275.73
1224.02
1136.23
1023.17
939.68
867.585
831.683
780.185
678.513
562.239
449.632
465.152
431.436
530.718
650.285
523.276
492.819
95.7148
133.318
-686.852
-809.705
-371.844
15.5571
113.597
228.741
321.449
412.118
489.514
551.493
599.375
632.939
658.78
675.656
698.71
704.071
759.924
815.516
1076.15
1306.42
1619.42
1807.5
1970.14
-115.589
-236.299
-475.958
-701.452
-1003.12
-1350.76
-1780.03
-2267.21
-2655.81
-3117.86
-2745.02
-2216.08
-1937.01
-1646.14
-1241.93
-863.09
-541.757
-213.182
127.384
440.496
726.763
998.623
1250.45
1462.48
1635.64
1768.37
1861.05
1879.91
1854.24
1765.92
1667.19
1680.28
1440.34
1553.57
1485.71
1416.17
1382.76
1321.29
1270.01
1187.19
1078.09
992.688
921.784
881.083
825.482
719.898
599.094
495.296
487.38
457.564
575.81
701.471
567.422
535.496
160.282
198.16
-562.54
-654.61
-263.494
107.697
182.388
283.702
365.597
449.045
520.934
578.386
622.745
653.741
677.631
693.463
715.631
720.184
779.781
839.123
1117.89
1359.4
1702.38
1896.79
2139.01
-118.554
-237.597
-485.832
-719.791
-1036.75
-1405.31
-1863.62
-2391.5
-2811.65
-3319.29
-2917.08
-2321.13
-2024.4
-1716.37
-1283.58
-886.944
-554.305
-211.145
142.95
465.88
761.617
1042.75
1301.82
1520.05
1698.73
1836.13
1931.96
1952.09
1927.35
1832.7
1734.5
1740.1
1501.2
1597.95
1534.7
1464.03
1430.87
1367.89
1316.28
1238.59
1134
1046.94
977.34
931.975
870.809
760.821
634.658
535.951
496.237
479.747
618.572
748.045
610.292
577.62
226.678
262.804
-421.555
-499.392
-144.436
202.536
253.812
340.715
411.168
486.903
552.846
605.462
645.972
674.17
696.024
710.884
732.2
736.834
800.173
865.901
1163.38
1416.28
1789.76
1988.59
2246.05
-121.199
-238.159
-494.638
-736.724
-1068.62
-1457.8
-1944.74
-2513.07
-2980.24
-3510.84
-3090.25
-2427.82
-2111.93
-1786.3
-1325
-910.68
-566.369
-208.225
159.377
492.131
797.458
1087.74
1353.82
1578.12
1762.23
1904.07
2002.81
2024.16
1999.73
1897.86
1801.05
1797.04
1564.41
1642.09
1583.24
1511.3
1478.83
1415.28
1363.31
1290.4
1190.78
1102.35
1033.96
983.965
916.201
801.035
668.297
570.111
491.427
498.656
658.489
789.963
650.592
618.675
293.756
326.875
-270.307
-351.874
-18.3183
297.688
326.562
399.033
457.743
525.44
585.111
632.591
668.986
694.211
714.004
727.968
748.52
754.169
821.309
895.96
1212.52
1476.92
1880.86
2082.59
2439.79
-123.52
-238.011
-502.351
-752.175
-1098.59
-1508
-2023.95
-2637.47
-3171.07
-3709.37
-3268.17
-2539.21
-2200.38
-1856.12
-1366.33
-934.266
-577.806
-204.33
176.697
519.343
834.379
1133.66
1406.47
1636.7
1826.08
1972.15
2073.56
2096.05
2071.34
1961.69
1866.74
1850.05
1628.84
1686.25
1631.34
1557.85
1526.29
1462.96
1411.47
1342.59
1248.32
1158.81
1091.48
1036.66
961.699
840.259
699.414
596.59
473.04
514.987
695.07
826.575
687.033
657.944
359.203
390.229
-116.21
-212.29
111.765
391.862
399.793
458.127
505.103
564.539
617.649
659.691
691.756
713.87
731.634
744.778
764.728
772.351
843.467
929.438
1265.14
1541.14
1975.03
2172.81
2534.09
-125.519
-237.182
-508.959
-766.079
-1126.48
-1555.67
-2101.24
-2764.89
-3377.4
-3891.2
-3442.94
-2651.48
-2287.73
-1924.98
-1407.7
-957.777
-588.447
-199.394
194.961
547.632
872.477
1180.56
1459.85
1695.79
1890.23
2040.3
2144.09
2167.62
2141.99
2024.31
1931.18
1898.39
1694.19
1730.5
1679.07
1603.63
1572.92
1510.59
1460.66
1395.2
1306.48
1216.17
1149.77
1090
1007.39
878.278
727.523
614.478
442.118
528.741
727.931
857.228
719.237
694.537
421.334
452.697
30.9644
-77.1054
242.74
484.292
472.979
517.706
553.143
604.13
650.374
686.71
714.281
733.194
748.996
761.405
781.011
791.566
867.037
966.456
1321.04
1608.68
2072.55
2276.94
2666.55
-127.207
-235.709
-514.455
-778.384
-1152.13
-1600.55
-2175.94
-2891.91
-3584.46
-4037.9
-3603.8
-2759.64
-2370.34
-1990.78
-1448.67
-981.202
-598.128
-193.347
214.227
577.119
911.859
1228.52
1514.03
1755.44
1954.65
2108.45
2214.39
2238.74
2211.47
2085.77
1993.69
1941.59
1760.45
1774.91
1726.59
1648.6
1618.57
1557.83
1510.43
1448.35
1365.11
1274.29
1208.68
1143.81
1053.51
915.029
752.462
623.082
400.77
539.401
757.101
881.635
747.533
728.168
479.117
513.846
165.438
57.295
371.406
574.271
545.774
577.634
601.797
644.172
683.219
713.61
736.57
752.271
766.209
778.003
797.644
812.052
892.535
1007.06
1380.06
1679.28
2172.32
2373.73
2850.27
-128.603
-233.633
-518.843
-789.055
-1175.42
-1642.37
-2247.08
-3014.03
-3783.6
-4174.94
-3755.84
-2868.48
-2448.68
-2052.87
-1488.84
-1004.19
-606.683
-186.117
234.542
607.939
952.634
1277.62
1569.1
1815.69
2019.35
2176.58
2284.5
2309.26
2279.63
2146.16
2053.72
1979.47
1827.3
1819.61
1774.08
1692.86
1663.17
1604.48
1560.4
1502.04
1424.02
1332.96
1268.02
1197.89
1100.33
950.596
774.649
621.873
352.304
547.081
782.76
899.377
772.528
759.115
532.088
573.001
286.544
191.924
494.609
661.078
617.921
637.819
651.037
684.669
716.182
740.427
758.715
771.247
783.447
794.818
814.995
834.086
920.478
1051.25
1442.07
1752.86
2274.18
2467.55
2956.49
-129.733
-230.996
-522.135
-798.066
-1196.26
-1680.85
-2313.74
-3127.68
-3965.28
-4311.71
-3904.3
-2982.49
-2525.21
-2112.72
-1528.59
-1026.39
-613.922
-177.68
255.96
640.232
994.892
1327.96
1625.17
1876.6
2084.32
2244.68
2354.39
2379.11
2346.32
2205.56
2110.88
2013
1894.01
1864.74
1821.66
1736.72
1706.64
1650.38
1610.39
1556.19
1482.99
1391.96
1327.6
1252.25
1147.67
985.196
794.761
610.34
301.268
553.261
805.521
910.942
795.353
787.629
580.374
629.388
396.431
324.41
609.416
744.083
689.228
698.19
700.879
725.625
749.3
767.247
780.928
790.366
800.977
812.193
833.479
857.968
951.272
1099.04
1507.02
1829.37
2378.53
2575.19
3097.47
-130.627
-227.843
-524.345
-805.393
-1214.58
-1715.78
-2375.1
-3229.99
-4117.88
-4422.4
-4037.64
-3093.77
-2598.38
-2170.29
-1568.4
-1047.73
-619.641
-168.078
278.589
674.113
1038.7
1379.64
1682.32
1938.21
2149.59
2312.75
2424.04
2448.23
2411.4
2264.02
2164.81
2043.78
1959.37
1910.43
1869.38
1780.6
1748.94
1695.29
1660.35
1610.67
1541.75
1451
1387.22
1306.72
1195.33
1019.34
813.066
587.667
253.553
560.81
825.95
917.153
817.177
814.642
625.286
681.401
494.107
450.321
713.344
822.799
759.545
758.716
751.394
767.093
782.717
794.264
803.468
809.914
819.082
830.494
853.499
883.991
985.234
1150.44
1574.89
1908.76
2484.91
2678.74
3271.5
-131.32
-224.216
-525.495
-811.036
-1230.34
-1746.9
-2430.31
-3318.61
-4237.79
-4499.05
-4143.45
-3193.95
-2664.04
-2222.94
-1607.24
-1068.17
-623.746
-157.337
302.574
709.635
1084.1
1432.73
1740.64
2000.58
2215.18
2380.78
2493.4
2516.58
2474.83
2321.55
2215.53
2073.35
2021.57
1956.75
1917.31
1824.84
1790.34
1739.01
1710.18
1665.2
1599.94
1509.76
1446.65
1361
1243.5
1053.66
830.049
552.724
216.047
573.34
844.831
919.939
838.398
841.772
667.983
726.793
575.268
566.424
804.961
896.958
828.76
819.43
802.713
809.264
816.704
821.827
826.619
830.178
838.103
850.123
875.446
912.431
1022.63
1205.49
1645.71
1991.12
2593.49
2783.78
3387.58
-131.851
-220.156
-525.612
-815.02
-1243.48
-1774.02
-2478.65
-3392.31
-4330.03
-4559.56
-4224.95
-3285.59
-2722.2
-2268.67
-1643.25
-1087.35
-626.308
-145.377
328.011
746.813
1131.16
1487.32
1800.22
2063.77
2281.09
2448.77
2562.38
2584.12
2536.57
2378.14
2263.35
2103.22
2079.46
2003.71
1965.41
1869.61
1831.46
1781.47
1759.56
1719.51
1657.05
1567.67
1505.7
1414.96
1292.15
1088.58
846.646
504.362
195.087
594.228
863.261
922.983
859.543
869.068
707.603
767.113
640.403
672.612
884.262
966.54
896.791
880.44
855.039
852.444
851.618
850.309
850.685
851.453
858.472
871.569
899.687
943.571
1063.68
1264.21
1719.53
2076.51
2704.02
2891.27
3590.09
-132.261
-215.7
-524.722
-817.375
-1253.98
-1796.94
-2519.65
-3450.95
-4399.06
-4616.38
-4293.37
-3372.26
-2776.25
-2308.2
-1675.83
-1104.82
-627.381
-132.02
354.924
785.685
1179.95
1543.5
1861.13
2127.83
2347.37
2516.68
2630.88
2650.72
2596.57
2433.59
2308.57
2135.13
2133.15
2051.22
2013.63
1915.03
1872.96
1823
1808.01
1773.16
1712.46
1624
1564.14
1468.44
1341.29
1124.51
862.491
442.463
195.184
625.465
882.5
927.535
882.012
894.723
743.814
808.667
693.856
770.177
952.088
1031.69
963.593
941.922
908.648
896.995
887.86
880.061
876
874.095
880.626
895.245
926.496
977.642
1108.52
1326.64
1796.37
2165.08
2816.25
2993.03
3708.42
-132.593
-210.887
-522.885
-818.162
-1261.82
-1815.6
-2553.12
-3494.87
-4444.48
-4661.26
-4347.83
-3451.06
-2826.55
-2342.84
-1705.54
-1120.4
-626.787
-117.071
383.327
826.331
1230.56
1601.34
1923.45
2192.83
2414.02
2584.5
2698.78
2716.19
2654.79
2487.59
2351.44
2170.52
2183.52
2099.07
2061.85
1961.22
1915.25
1864.46
1855.46
1825.43
1765.77
1677.67
1621.2
1521.28
1391.08
1161.82
875.804
370.731
219.639
666.903
903.24
933.236
906.47
917.468
777.437
853.359
739.19
860.246
1009.25
1092.6
1029.15
1004.09
963.865
943.302
925.826
911.442
902.907
898.534
905.017
921.463
956.063
1014.81
1157.22
1392.83
1876.27
2256.83
2930.63
3113.87
3873.57
-132.892
-205.763
-520.195
-817.456
-1267.02
-1829.99
-2579.07
-3524.81
-4466.73
-4684.58
-4378.36
-3515.22
-2870.06
-2372.09
-1732.61
-1134.18
-624.178
-100.386
413.278
868.834
1283.08
1660.94
1987.23
2258.82
2481.07
2652.18
2765.91