/*--------------------------------*- C++ -*----------------------------------*\
| =========                 |                                                 |
| \\      /  F ield         | OpenFOAM: The Open Source CFD Toolbox           |
|  \\    /   O peration     | Version:  4.1                                   |
|   \\  /    A nd           | Web:      www.OpenFOAM.org                      |
|    \\/     M anipulation  |                                                 |
\*---------------------------------------------------------------------------*/
FoamFile
{
    version     2.0;
    format      ascii;
    class       surfaceScalarField;
    location    "20";
    object      phi;
}
// * * * * * * * * * * * * * * * * * * * * * * * * * * * * * * * * * * * * * //

dimensions      [0 3 -1 0 0 0 0];

internalField   nonuniform List<scalar> 
13220
(
-897.05
2196.92
-1385.54
1788.67
-1842.38
1756.72
-2187.18
1644.68
-2447.59
1560.59
-2626.46
1478.76
-2725.41
1398.83
-2743.79
1318.57
-2680.92
1237.02
-2540.6
1159.57
-2335.67
1095.26
-2056.14
1020.35
-1624.59
868.332
-923.924
599.5
375.976
1.23073
2195.66
-37.5019
1827.35
-170.362
1889.53
-280.109
1754.38
-396.595
1677.04
-500.908
1583.03
-592.788
1490.68
-670.495
1396.24
-736.584
1303.08
-784.821
1207.78
-767.109
1077.54
-592.479
845.688
-248.062
523.87
9.40443
341.953
385.373
-175.997
2371.63
-414.469
2065.8
-647.504
2122.55
-812.712
1919.57
-970.872
1835.17
-1097.32
1709.45
-1205.58
1598.91
-1299.42
1490.06
-1383.56
1387.19
-1445.94
1270.11
-1428.83
1060.4
-1233.88
650.568
-836.243
126.004
-401.306
-93.3427
-15.9331
-6.35212
2377.97
-108.688
2168.12
-172.143
2185.99
-200.068
1947.47
-227.9
1862.98
-234.832
1716.36
-229.427
1593.48
-209.559
1470.15
-177.6
1355.18
-139.977
1232.45
-123.22
1043.59
-168.669
696.003
-241.373
198.656
-268.512
-66.2583
-284.447
139.132
2238.84
110.808
2196.45
148.299
2148.51
198.369
1897.41
246.733
1814.62
302.559
1660.54
361.611
1534.42
425.713
1406.07
496.374
1284.53
563.726
1165.1
588.648
1018.73
489.013
795.509
220.542
467.009
-9.25396
163.383
-293.694
152.789
2086.08
127.956
2221.31
157.426
2119.06
193.564
1861.3
227.075
1781.15
262.897
1624.75
298.061
1499.31
333.266
1370.88
371.407
1246.42
409.262
1127.31
427.495
1000.48
383.718
839.543
250.938
600.097
106.428
308.414
-187.263
127.099
1959.01
111.754
2236.69
125.225
2105.62
142.708
1843.86
164.197
1759.7
183.364
1605.62
202.13
1480.58
222.106
1350.94
243.325
1225.23
265.932
1104.73
282.852
983.59
272.674
849.733
212.752
660.065
116.785
404.517
-70.4741
99.4529
1859.59
112.198
2223.97
130.354
2087.5
147.038
1827.2
173.218
1733.55
192.875
1585.99
209.759
1463.72
223.141
1337.58
233.351
1215.04
240.572
1097.54
244.017
980.158
234.929
858.875
192.299
702.753
103.593
493.441
33.1242
66.0511
1793.56
116.367
2173.68
151.923
2051.96
185.693
1793.46
223.894
1695.38
258.919
1550.99
288.737
1433.93
306.439
1319.9
315.958
1205.54
320.399
1093.12
317.118
983.449
299.714
876.352
248.767
753.78
145.331
597.057
178.453
23.8518
1769.72
97.8021
2099.74
150.187
1999.59
201.818
1741.84
250.278
1646.93
302.487
1498.79
358.379
1378.05
434.083
1244.21
485.782
1153.85
511.49
1067.41
506.115
988.844
461.609
920.803
365.972
849.372
218.662
744.296
397.116
-37.313
1807.03
18.3452
2044.08
67.7558
1950.18
91.2195
1718.37
115.739
1622.4
160.276
1454.25
246.863
1291.45
399.921
1091.14
545.227
1008.54
636.802
975.835
659.472
966.155
598.872
981.445
451.111
997.16
248.824
946.62
645.939
-40.4107
1847.43
-116.655
2120.31
-127.413
1960.92
-162.525
1753.47
-197.291
1657.15
-247.385
1504.33
-282.442
1326.5
-267.737
1076.43
-183.277
924.068
-78.0146
870.551
15.8349
872.308
75.8692
921.333
78.8768
994.091
32.5475
992.874
678.486
143.828
1703.58
8.87854
2255.25
-140.026
2109.81
-317.829
1931.26
-468.046
1807.36
-559.22
1595.5
-578.774
1346.04
-554.644
1052.29
-462.258
831.675
-310.857
719.145
-130.939
692.377
30.4037
759.997
121.166
903.327
129.759
984.279
808.245
-925.219
2628.79
-1650.77
2980.79
-2069.89
2528.93
-2375.38
2236.74
-2507.82
1939.79
-2586.95
1674.63
-2628.3
1387.38
-2703.65
1127.64
-2815.34
943.357
-2902.14
805.949
-2892.6
682.839
-2489.67
357.061
-1563.07
-23.2847
-388.482
-190.31
419.765
-1511.34
-1960.46
-2328.94
-2764.79
-2927.88
-3108.5
-3037.83
-2939.35
-2615.09
-2084.84
-1581.16
-839.46
-612.608
264.041
0.000795794
-1906.66
1906.66
-1906.66
-1906.66
-1906.66
-3677.53
1770.87
-3677.53
-3677.53
-3677.53
-5222.75
1545.22
-5222.75
-5222.75
-6585.8
1363.06
-6585.8
-6585.8
-6585.8
-7752.9
1167.09
-7752.9
-7752.9
-8816.73
1063.83
-8816.73
-8816.72
-8816.72
-9776.04
959.313
-9776.04
-9776.04
-9776.04
-10526.1
750.017
-10526.1
-10526.1
-11140.1
614.054
-11140.1
-11140.1
-11140.1
-11544.2
404.076
-11544.2
-11544.2
-11817.7
273.51
-11817.7
-11817.7
-11817.7
-11990.9
173.207
-11990.9
-11990.9
-11990.9
-12060.7
69.7809
-12060.7
-12060.7
-11883.8
-176.905
-11883.8
-11883.8
-11883.8
-11206.6
-677.185
-11206.6
-11206.6
-11206.6
-9863.17
-1343.41
-9863.17
-9863.17
-7881.37
-1981.8
-7881.37
-7881.37
-7881.37
-5342.3
-2539.07
-5342.3
-5342.3
-2379.84
-2962.46
-2379.84
-2379.84
-2379.84
1086.43
-3466.28
1086.43
1086.44
1086.44
5067.31
-3980.88
5067.32
5067.31
9381.46
-4314.15
9381.45
9381.44
8849.52
8460.96
8908.59
14147.8
-4719.16
14475.8
14540.6
14317.2
14084.4
13877.4
13681.2
13522.4
13494.6
18149.7
-4685.35
18118.5
18113.2
17981.1
17914.4
17872.4
17797.6
17674.3
17581.9
21842.9
-4233.02
21941.6
22008.1
21976.1
21965.2
21982.5
22008.3
22036.1
22071.6
22134.8
25753.9
-3522.93
25887.2
26014.1
26097.8
26199.6
26323.9
26460.7
26610
26783.4
29371.9
-2402.85
29619.8
29869.2
30085.5
30317.9
30572.8
30831.6
31099.8
31414.2
33038.4
-1315.22
33428.1
33815.6
34148.3
34512.7
34910.2
35303.7
35700.5
36107.8
37144.8
-634.75
37689.2
38237.2
38701.9
39170.5
39665
40221.8
40767.1
41300.5
41835.1
42927.5
-586.066
43609.5
44344
44942.7
45524.9
46140.5
46788
47507.2
48226.5
49888.1
-1014.9
50717.4
51693.6
51693.6
52659.2
-965.573
53204.8
-545.598
53204.8
54058.3
-853.507
54058.3
55043.9
-985.624
55578.1
-534.138
55578.1
56485
-906.952
56882.4
-397.4
56882.4
57477
-594.56
57477
58164.7
-687.758
58291.5
-126.725
58291.4
58576
-284.568
58576
58905.5
-329.491
58619.9
285.653
58619.9
58640.3
-20.4836
57990.9
649.448
57990.9
57489.2
501.739
57489.2
57045.9
443.297
56000.1
1045.72
56000.1
55162.8
837.305
55162.8
54424.8
738.046
53190.5
1234.28
53190.5
52334.1
856.375
51001
1333.14
51001
49934.2
1066.82
49934.2
49031.8
902.378
47796.6
1235.13
47796.6
46903.6
892.996
46903.6
46250.7
652.947
45476.2
774.458
45476.2
45169.6
306.597
44815.2
354.394
44815.2
44881.5
-66.2361
44881.5
45171.6
-290.104
45457.7
-286.102
45457.7
46007
-549.303
46007
46616.5
-609.539
47158.1
-541.557
47158.1
47790.4
-632.279
48286.9
-496.522
48286.9
48875.3
-588.43
48875.3
49423.9
-548.574
49848.5
-424.63
49848.5
50373.6
-525.119
50373.6
50867.5
-493.858
51212.8
-345.34
51212.8
51662.2
-449.34
51875.7
-213.551
51875.7
52168.8
-293.047
52168.8
-246.37
-4131.97
-21653.7
-4035.4
-20823.5
-3969.51
-19220.7
-3910.73
-17005.1
-3743.29
-13082.8
-3307.89
-4125.26
-3015.54
9127.91
-2907.23
14916.7
-2750.6
20005.5
-2541.49
24863
-2299.82
29471.1
-2075.36
33597.6
-1821.52
37613.1
-1522.9
41516.6
-1166.66
45240.6
-844.822
47546.7
-586.678
49264.6
-278.442
52108.4
33.7223
53967.6
342.019
55249.6
624.22
55601.6
907.872
56372.2
1182
56579
1417.95
55371
1639.77
53955.7
1850.43
52584.9
1987.83
48895.6
2050.35
44482.2
1872.47
33259.8
1526.72
15790.7
628.198
-10579.7
-317.417
-27423.6
-374
-13583
-107.412
25122
-32.4949
25818.4
63.3266
25995.6
175.008
26246.2
327.713
33015.8
507.78
40762
673.475
38800.8
806.986
28095.2
939.963
17547.5
1150.57
10648.7
1560.91
6761.02
1776.95
-16830
1683.21
-36930.9
1607.82
-40517.9
1863.73
-27806.2
2400.84
-3945.75
2490.56
15038
2345.04
11189.2
2141.91
5234.48
2660.61
-293.612
4136.89
-13636.7
5494.55
-24950.4
5523.28
-29158.3
4651.17
-28816.9
4534.74
33497.7
4601.66
81363.6
4398.6
81527.2
4187.26
69534.6
4022.13
56649
3918.73
45398.7
3877.49
36067.5
3884.99
28334.4
3922.69
21702.4
3971.64
15715.9
4013.02
10121.7
4034.15
4641.35
4062.8
-797.713
4009.73
-6281.8
3736.22
-12719.6
3951.83
-15299.4
3680.36
-21886.5
618.693
-49434.7
-2520.41
-79750.1
-2789.64
-96639.8
-1219.43
-98562.1
-84308.9
-4090.42
-21715.2
-3996.41
-20917.5
-3932.62
-19284.5
-3876.99
-17060.7
-3706.57
-13253.2
-3124.61
-4707.22
-2796.59
8799.9
-2830.92
14951
-2715.96
19890.6
-2515.16
24662.2
-2289.71
29245.7
-2073.98
33381.8
-1822.72
37361.8
-1527.78
41221.7
-1178.59
44891.4
-858.755
47226.9
-598.284
49004.2
-291.784
51801.9
19.3811
53656.5
327.067
54941.9
610.589
55318.1
894.847
56088
1169.55
56304.3
1407.47
55133
1632.17
53731
1846.8
52370.3
1990.54
48751.8
2068.3
44404.4
1904.71
33423.4
1503.53
16191.9
585.36
-9661.5
-356.838
-26481.4
-462.658
-13477.1
-120.412
24779.8
-24.5718
25722.6
70.381
25900.6
184.317
26132.3
341.346
32858.7
526.606
40576.8
692.878
38634.6
817.424
27970.6
955.735
17409.2
1253.2
10351.2
1715.96
6298.26
2060.89
-17175
2005.28
-36875.2
1961.99
-40474.6
2058.01
-27902.2
2355.82
-4243.56
2539.47
14854.3
2395.65
11333.1
2201.72
5428.4
2921.78
-1013.67
4512.28
-15227.2
5651.02
-26089.2
5553.63
-29060.9
4652.02
-27915.3
4538.69
33611
4645.62
81256.6
4414.7
81758.1
4188.38
69761
4019.44
56818
3913.94
45504.2
3870.89
36110.5
3876.46
28328.8
3912
21666.8
3958.63
15669.2
3997.75
10082.6
4018.57
4620.52
4024.47
-803.605
3931.48
-6188.82
3605.53
-12393.7
3832.78
-15526.7
4340.1
-22393.8
2138.77
-47233.4
-1488.12
-76123.2
-2644.1
-95483.8
-1392.08
-99814.1
-85994
-4071.48
-21774.8
-3980.59
-21008.4
-3917.46
-19347.6
-3858.73
-17119.4
-3688.1
-13423.9
-3051.65
-5343.67
-2588.31
8336.56
-2645.4
15008.1
-2635.29
19880.5
-2482.2
24509.1
-2268.95
29032.4
-2065.85
33178.7
-1824.73
37120.7
-1536.08
40933
-1192.69
44548.1
-877.233
46911.4
-617.63
48744.6
-311.55
51495.8
-1.80419
53346.7
305.726
54634.4
590.028
55033.8
875.312
55802.7
1151.62
56028
1392.13
54892.5
1620.47
53502.6
1840.44
52150.3
1994.28
48598
2083.5
44315.2
1941.76
33565.1
1510.27
16623.4
577.641
-8728.87
-316.565
-25587.2
-372.779
-13420.9
-115.661
24522.6
-20.5487
25627.5
77.3998
25802.7
193.649
26016
356.323
32696.1
547.494
40385.6
714.509
38467.5
836.862
27848.3
987.956
17258.1
1355.89
9983.31
1899.78
5754.37
2212.35
-17487.6
2168.66
-36831.5
2183.5
-40489.5
2236.76
-27955.5
2405.91
-4412.71
2612
14648.2
2483.86
11461.2
2292.94
5619.32
3134.5
-1855.23
4716.96
-16809.6
5672.01
-27044.2
5588.76
-28977.7
4763.86
-27090.4
4544.69
33830.2
4669.3
81132
4431.92
81995.5
4190.93
70002
4016.69
56992.2
3908.24
45612.7
3862.39
36156.4
3865.15
28326.1
3897.8
21634.2
3941.17
15625.9
3976.86
10046.9
3989.96
4607.42
3973.68
-787.324
3871.66
-6086.8
3524
-12046
3618.64
-15621.3
4335.96
-23111.1
2938.45
-45835.9
-528.695
-72656
-2322.8
-93689.7
-1407.72
-100729
-87615.3
-4055.55
-21832.1
-3968.11
-21095.9
-3905.87
-19409.9
-3843.24
-17182.1
-3675.9
-13591.2
-3042.49
-5977.07
-2456.53
7750.6
-2442.18
14993.7
-2499.33
19937.6
-2430.53
24440.3
-2247.22
28849.1
-2054.8
32986.3
-1826.33
36892.2
-1546.69
40653.4
-1209.65
44211
-899.328
46601.1
-641.133
48486.4
-336.029
51190.7
-27.2282
53037.9
280.182
54327
565.344
54748.6
851.718
55516.3
1129.89
55749.9
1373.47
54648.9
1605.69
53270.4
1830.91
51925.1
1995.08
48433.8
2094.2
44216.1
1972.26
33687.1
1525.41
17070.2
581.231
-7784.69
-283.183
-24722.8
-284.941
-13419.2
-98.3386
24336
-11.4376
25540.6
86.7523
25704.5
204.723
25898.1
372.799
32528
570.023
40188.4
738.384
38299.2
861.177
27725.5
1017.31
17101.9
1453.73
9546.89
2093.52
5114.58
2391.26
-17785.3
2372.61
-36812.9
2418.28
-40535.1
2434.19
-27971.4
2502.04
-4480.57
2672.59
14477.7
2553.17
11580.6
2373.35
5799.15
3339.68
-2821.56
4923.09
-18393
5693.7
-27814.8
5553.03
-28837
4795.68
-26333
4556.65
34069.2
4676.62
81012
4441.67
82230.4
4194.38
70249.2
4015.04
57171.6
3902.96
45724.8
3853.37
36206
3852.36
28327.1
3881.31
21605.2
3920.38
15586.8
3950.87
10016.4
3954.17
4604.12
3915.85
-749.006
3802.31
-5973.26
3439.42
-11683.1
3430.73
-15612.6
4317.74
-23998.1
3684.01
-45202.2
513.164
-69485.2
-1873.81
-91302.7
-1403.77
-101199
-89468.4
-4046.98
-21885.9
-3963.63
-21179.2
-3902
-19471.5
-3833.21
-17250.9
-3661.87
-13762.6
-3037.63
-6601.32
-2358.69
7071.67
-2259.85
14894.9
-2324.76
20002.5
-2342.17
24457.7
-2218.64
28725.6
-2043.27
32810.9
-1827.06
36676
-1559.17
40385.5
-1230.71
43882.6
-926.005
46296.4
-669.622
48230
-366.042
50887.2
-57.9565
52729.8
249.49
54019.5
535.635
54462.5
823.27
55228.7
1103.68
55469.5
1350.84
54401.8
1587.34
53033.9
1818.13
51694.3
1992.76
48259.2
2103.15
44105.7
1997.49
33792.8
1550.37
17517.3
607.931
-6842.25
-228.659
-23886.2
-227.675
-13420.1
-77.0414
24185.4
1.57138
25462
98.2875
25607.8
217.742
25778.6
391.463
32354.3
595.612
39984.2
766.322
38128.5
890.895
27600.9
1049.26
16943.6
1526.2
9069.96
2243.26
4397.53
2553.62
-18095.7
2562.76
-36822
2634.32
-40606.7
2637.42
-27974.5
2614.1
-4457.24
2729.17
14362.6
2600.22
11709.6
2451.32
5948.05
3545.9
-3916.14
5097.87
-19945
5676.17
-28393.1
5479.96
-28640.8
4799.38
-25652.4
4566.36
34302.2
4675.55
80902.9
4445.45
82460.5
4197.1
70497.6
4013.14
57355.5
3897.02
45840.9
3843.07
36259.9
3837.66
28332.5
3862.3
21580.6
3896.31
15552.8
3920.81
9991.88
3915.1
4609.83
3857.93
-691.831
3736.64
-5851.97
3360.31
-11306.8
3233.77
-15486.1
4162.45
-24926.8
4199.54
-45239.3
1539.48
-66825.1
-1281.33
-88481.9
-1361.62
-101119
-91175.3
-4045.26
-21935.6
-3966.38
-21258.1
-3904.9
-19533
-3827.92
-17327.8
-3646.73
-13943.7
-3020.15
-7227.9
-2255.88
6307.39
-2105.01
14744
-2142.14
20039.6
-2215.52
24531.1
-2171.31
28681.4
-2030.49
32670.1
-1827.51
36473.1
-1572.42
40130.4
-1255.51
43565.6
-957.551
45998.4
-703.466
47975.9
-401.857
50585.5
-94.5358
52422.5
213.196
53711.8
500.426
54175.2
789.533
54939.6
1072.65
55186.3
1323.94
54150.5
1565.25
52792.6
1802.24
51457.3
1987.83
48073.6
2111.39
43982.2
2020.24
33883.9
1585.01
17952.6
659.186
-5916.43
-150.558
-23076.5
-172.748
-13398
-55.158
24067.8
16.8665
25389.9
111.697
25513
232.617
25657.7
412.476
32174.4
624.558
39772.2
798.913
37954.1
927.105
27472.7
1088.3
16782.4
1574.83
8583.43
2356.9
3615.46
2708.04
-18446.8
2748.45
-36862.4
2836.58
-40694.8
2836.45
-27974.3
2729.27
-4350.05
2790.64
14301.2
2635.89
11864.3
2532.26
6051.68
3748.89
-5132.77
5240.16
-21436.3
5634.64
-28787.6
5395.82
-28402
4793.16
-25049.8
4567.95
34527.5
4665.63
80805.2
4444.09
82682.1
4198.35
70743.3
4010.59
57543.3
3890.35
45961.1
3831.72
36318.6
3821.57
28342.7
3841.48
21560.7
3869.99
15524.3
3888.18
9973.7
3873.81
4624.19
3800.18
-618.202
3672.54
-5724.33
3290.37
-10924.6
3066.63
-15262.3
3956.18
-25816.3
4491.14
-45774.2
2454.26
-64788.2
-584.877
-85442.8
-1213.4
-100490
-92882.6
-4050.87
-21980.3
-3976.85
-21332.1
-3914.82
-19595
-3827.38
-17415.3
-3632.33
-14138.8
-2993.49
-7866.73
-2118.29
5432.19
-1957.75
14583.5
-1969.65
20051.5
-2065.24
24626.7
-2096.84
28713
-2010.56
32583.8
-1828.14
36290.6
-1586.07
39888.3
-1282.84
43262.4
-993.712
45709.3
-742.41
47724.6
-443.113
50286.2
-136.769
52116.2
171.417
53403.6
459.867
53886.8
750.629
54648.8
1036.84
54900.1
1292.78
53894.5
1539.43
52545.9
1783.17
51213.6
1980.23
47876.5
2118.45
43843.9
2042.24
33960.1
1629.89
18364.9
733.183
-5019.72
-51.3921
-22291.9
-113.826
-13335.5
-32.9218
23986.9
33.3048
25323.7
126.429
25419.8
248.976
25535.1
435.413
31988
656.245
39551.3
835.603
37774.8
969.108
27339.2
1136.24
16615.2
1611.85
8107.82
2448.16
2779.15
2852
-18850.7
2925.2
-36935.6
3020.48
-40790.1
3015.9
-27969.8
2836.75
-4170.91
2852.48
14285.5
2666.44
12050.4
2625.49
6092.63
3944.51
-6451.79
5344.31
-22836.1
5567.12
-29010.4
5294.62
-28129.5
4771.2
-24526.4
4561.49
34737.2
4646.24
80720.4
4437.55
82890.8
4197.9
70983
4007.52
57733.7
3883.24
46085.4
3819.72
36382.1
3804.61
28357.8
3819.47
21545.8
3842.19
15501.5
3854.12
9961.78
3831.99
4646.32
3744.02
-530.233
3611.46
-5591.78
3228.45
-10541.6
2929.37
-14963.3
3730.97
-26617.9
4585.33
-46628.6
3195.19
-63398.1
150.053
-82397.7
-1089.74
-99250.6
-94497.4
-4064.14
-22019.2
-3995.25
-21401
-3931.78
-19658.5
-3831.54
-17515.5
-3620.27
-14350.1
-2978.17
-8508.83
-1976.42
4430.44
-1808.7
14415.7
-1805.57
20048.4
-1906.56
24727.7
-1995.45
28801.9
-1974.57
32563
-1827.01
36143.1
-1600.72
39662
-1311.85
42973.6
-1033.96
45431.4
-786.334
47477
-489.594
49989.5
-184.509
51811.1
124.122
53095
413.934
53597
706.528
54356.2
996.141
54610.5
1257.21
53633.5
1509.68
52293.5
1760.64
50962.6
1969.54
47667.6
2123.66
43689.8
2064.56
34019.2
1686.43
18743
826.769
-4160.06
63.6367
-21528.8
-60.5627
-13211.3
-10.7459
23937.1
50.1306
25262.8
142.009
25328
266.471
25410.7
459.901
31794.5
690.202
39321
875.909
37589.1
1015.65
27199.5
1193.42
16437.5
1645.2
7656.04
2529.77
1894.59
2986.35
-19307.2
3091
-37040.3
3183.12
-40882.2
3169.45
-27956.1
2929.83
-3931.29
2906.3
14309
2694.02
12262.6
2733.58
6053.07
4125.81
-7844.02
5407.25
-24117.5
5475.07
-29078.2
5178.12
-27832.5
4730.5
-24078.7
4547.6
34920.1
4619.17
80648.8
4426.39
83083.5
4195.57
71213.8
4003.91
57925.3
3875.79
46213.5
3807.33
36450.5
3787.12
28378
3796.69
21536.2
3813.57
15484.7
3819.6
9955.76
3790.54
4675.38
3690.72
-430.415
3554.67
-5455.73
3175.9
-10162.9
2827.75
-14615.1
3518.38
-27308.6
4523.05
-47633.3
3714.25
-62589.3
854.845
-79538.3
-819.943
-97575.8
-95742
-4085.47
-22051.4
-4021.88
-21464.6
-3955.95
-19724.4
-3840.6
-17630.9
-3610.24
-14580.4
-2978.24
-9140.83
-1881.4
3333.6
-1671.94
14206.3
-1647.4
20023.9
-1746.7
24827
-1873.33
28928.5
-1916.2
32605.8
-1819.12
36046
-1616.44
39459.4
-1342.34
42699.5
-1077.49
45166.5
-835.128
47234.6
-541.321
49695.7
-237.744
51507.5
71.1636
52786.1
362.401
53305.7
657.02
54061.6
950.313
54317.2
1216.92
53366.9
1475.7
52034.7
1734.36
50704
1955.44
47446.6
2126.34
43518.9
2087.79
34057.8
1752.65
19078.2
932.672
-3340.09
188.509
-20784.6
-16.3026
-13006.5
10.458
23910.3
66.6722
25206.6
158.057
25236.6
284.823
25283.9
485.7
31593.7
726.151
39080.6
919.576
37395.6
1065.66
27053.4
1258.44
16244.7
1677.34
7237.15
2612.69
959.236
3111.4
-19806
3244.45
-37173.3
3322.5
-40960.3
3293.52
-27927.1
3008.31
-3646.08
2948.82
14368.5
2718
12493.5
2852.92
5918.15
4283.88
-9274.98
5425.09
-25258.7
5358.54
-29011.7
5047.84
-27521.8
4673.37
-23704.3
4526.49
35066.9
4586.77
80588.6
4411.68
83258.6
4191.42
71434.1
3999.74
58117
3868.1
46345.2
3794.82
36523.8
3769.45
28403.4
3773.62
21532.1
3784.88
15473.4
3785.58
9955.06
3750.4
4710.56
3640.93
-320.948
3502.41
-5317.2
3130.98
-9791.42
2757.3
-14241.4
3333.69
-27885
4351.09
-48650.7
3995.49
-62233.7
1457.23
-77000
-517.412
-95601.2
-96808
-4115.27
-22076.2
-4057.06
-21522.8
-3987.49
-19794
-3854.79
-17763.6
-3600.87
-14834.3
-2968.32
-9773.38
-1797.01
2162.29
-1542.75
13952
-1499.65
19980.8
-1591.12
24918.4
-1738.11
29075.5
-1834.68
32702.4
-1798.26
36009.6
-1631.17
39292.3
-1374.52
42442.8
-1123.58
44915.6
-888.395
46999.4
-598.345
49405.6
-296.482
51205.6
12.4819
52477.1
305.074
53013.1
601.894
53764.8
899.146
54020
1171.67
53094.3
1437.19
51769.2
1704.05
50437.1
1937.59
47213
2125.71
43330.8
2111.54
34071.9
1822.82
19366.9
1040.59
-2557.86
315.663
-20059.7
21.3753
-12712.2
30.0012
23901.7
82.3436
25154.3
174.247
25144.7
303.772
25154.4
512.575
31384.9
763.792
38829.4
966.305
37193.1
1118.25
26901.5
1328.64
16034.3
1726.47
6839.32
2688.44
-2.74303
3227.23
-20344.7
3384.37
-37330.5
3437.07
-41013
3385.75
-27875.8
3073.47
-3333.8
2981.88
14460.1
2741.04
12734.3
2978.17
5681.02
4411.05
-10707.9
5397.94
-26245.6
5219.9
-28833.6
4905.7
-27207.6
4600.94
-23399.5
4498.23
35169.7
4551.03
80535.8
4394.59
83415.1
4185.73
71642.9
3995.12
58307.6
3860.39
46479.9
3782.54
36601.7
3751.99
28433.9
3750.81
21533.3
3756.86
15467.3
3752.8
9959.13
3712.11
4751.24
3595.3
-204.13
3455.12
-5177.03
3092.14
-9428.44
2711.78
-13861.1
3181.3
-28354.5
4110.55
-49579.9
4055.81
-62179
1905.39
-74849.6
-277.072
-93418.7
-97673.5
-4154
-22092.8
-4101.15
-21575.7
-4026.69
-19868.4
-3874.55
-17915.7
-3593.69
-15115.2
-2949.15
-10417.9
-1694.86
908.004
-1381.89
13639
-1350.89
19949.8
-1444.09
25011.6
-1598.51
29229.9
-1733.84
32837.7
-1759.57
36035.3
-1640.57
39173.3
-1408.08
42210.3
-1171.98
44679.5
-945.513
46773
-660.574
49120.7
-360.746
50905.8
-51.9383
52168.3
241.817
52719.4
540.964
53465.6
842.444
53718.5
1121.2
52815.6
1393.86
51496.5
1669.38
50161.6
1915.64
46966.7
2120.92
43125.5
2134.48
34058.4
1888.43
19613
1148.49
-1817.92
440.667
-19351.9
54.4204
-12326
47.5229
23908.6
96.7503
25105
190.326
25051.1
323.09
25021.6
540.283
31167.7
802.792
38566.8
1015.69
36980.2
1172.79
26744.4
1401.03
15806.1
1802.2
6438.14
2744.47
-945.004
3333.54
-20933.8
3509.89
-37506.8
3525.69
-41028.8
3444.2
-27794.3
3124.08
-3013.68
3010.3
14573.9
2772.3
12972.3
3107.61
5345.72
4508.73
-12109
5336.7
-27073.6
5062.21
-28559.1
4754.59
-26900
4514.31
-23159.2
4462.05
35221.9
4513.2
80484.6
4376.12
83552.1
4178.94
71840.1
3990.31
58496.2
3852.99
46617.2
3770.82
36683.8
3735.18
28469.5
3728.86
21539.6
3730.19
15466
3721.85
9967.47
3676.1
4796.99
3554.15
-82.1755
3412.73
-5035.61
3057.07
-9072.78
2683.24
-13487.2
3057.91
-28729.2
3833.42
-50355.4
3931.28
-62276.8
2179.34
-73097.6
12.8763
-91252.3
-98157.1
-4202.16
-22100.5
-4154.56
-21623.3
-4073.97
-19949
-3900.62
-18089.1
-3590.04
-15425.8
-2931.98
-11076
-1599.15
-424.824
-1185.84
13225.7
-1180.43
19944.4
-1298.82
25130
-1461.93
29393
-1620.82
32996.6
-1701.38
36115.9
-1639.41
39111.3
-1441.4
42012.3
-1222.78
44460.9
-1005.95
46556.1
-727.688
48842.5
-430.571
50608.7
-122.14
51859.9
172.531
52424.7
474.047
53164.1
779.986
53412.6
1065.26
52530.3
1345.39
51216.4
1629.99
49877
1889.17
46707.6
2111.27
42903.4
2155.1
34014.5
1945.47
19822.6
1265.79
-1138.23
561.673
-18647.7
82.5025
-11846.8
62.6485
23928.5
109.71
25058
206.136
24954.7
342.602
24885.2
568.594
30941.7
842.831
38292.6
1067.31
36755.7
1229.13
26582.5
1472.48
15562.7
1873.75
6036.87
2792.82
-1864.08
3430.85
-21571.8
3620.41
-37696.4
3588.11
-40996.5
3468.73
-27674.9
3159.23
-2704.17
3038.78
14694.3
2818.83
13192.3
3242.15
4922.4
4582.99
-13449.8
5250.32
-27740.9
4885.25
-28194.1
4597.79
-26612.5
4415.56
-22977
4416.25
35221.2
4473.48
80427.4
4357.06
83668.6
4171.63
72025.5
3985.77
58682.1
3846.33
46756.7
3760.09
36770.1
3719.49
28510.1
3708.38
21550.7
3705.44
15468.9
3693.16
9979.75
3642.67
4847.47
3517.73
42.7677
3374.93
-4892.81
3023.72
-8721.57
2664.79
-13128.3
2957.01
-29021.4
3541.65
-50940.1
3666.05
-62401.2
2276.27
-71707.8
232.941
-89208.9
-98556.5
-4260.29
-22098.8
-4217.74
-21665.8
-4129.92
-20036.8
-3934.19
-18284.8
-3591.69
-15768.3
-2919.44
-11748.2
-1540.96
-1803.3
-1004.43
12689.2
-995.045
19935
-1146.52
25281.5
-1329.36
29575.9
-1503.54
33170.8
-1626.06
36238.4
-1623.58
39108.8
-1471.48
41860.2
-1275.84
44265.2
-1069.48
46349.8
-799.215
48572.2
-505.905
50315.4
-198.198
51552.2
97.1278
52129.4
400.969
52860.3
711.546
53102
1003.58
52238.3
1291.47
50928.5
1585.53
49582.9
1857.8
46435.3
2096.35
42664.9
2172.07
33938.8
1997.02
19997.6
1381.87
-523.088
677.81
-17943.7
102.139
-11271.1
74.8916
23955.7
121.207
25011.7
221.597
24854.3
362.172
24744.6
597.289
30706.6
883.598
38006.3
1120.72
36518.6
1287.47
26415.8
1541.54
15308.6
1937.17
5641.24
2838.33
-2765.23
3520.6
-22254.1
3715.7
-37891.5
3624.87
-40905.6
3462.2
-27512.3
3180.67
-2422.63
3068.18
14806.8
2880.38
13380.1
3379.77
4423.01
4635.44
-14705.5
5141.4
-28246.9
4692.96
-27745.6
4438.78
-26358.4
4307.1
-22845.3
4358.77
35169.6
4431.26
80354.9
4337.97
83761.9
4164.54
72199
3982.14
58864.5
3840.97
46897.8
3750.82
36860.2
3705.48
28555.5
3689.98
21566.2
3683.09
15475.8
3667.02
9995.81
3612.02
4902.48
3486
168.788
3341.02
-4747.82
2990.42
-8370.97
2651.5
-12789.4
2872.07
-29242
3249.85
-51317.8
3306.87
-62458.2
2218.42
-70619.4
372.935
-87363.5
-98725.1
-4328.96
-22086.9
-4291.22
-21703.6
-4195.2
-20132.8
-3976.78
-18503.2
-3602.25
-16142.8
-2910.74
-12439.7
-1491.2
-3222.84
-823.586
12021.6
-806.621
19918
-989.689
25464.6
-1199.33
29785.5
-1387.25
33358.7
-1539
36390.1
-1591.58
39161.4
-1494.58
41763.2
-1330.06
44100.7
-1136.14
46155.8
-874.75
48310.8
-586.528
50027.2
-280.175
51245.8
15.5182
51833.7
321.589
52554.2
636.913
52786.7
935.905
51939.3
1231.79
50632.6
1535.65
49279.1
1821.18
46149.8
2075.95
42410.1
2183.89
33830.9
2046.35
20135.2
1486.58
36.6817
788.636
-17245.7
107.748
-10590.2
83.7393
23979.7
131.323
24964.1
236.676
24748.9
381.689
24599.6
626.147
30462.1
924.775
37707.7
1175.49
36267.9
1348.16
26243.1
1608.64
15048.2
1995.7
5254.19
2883.76
-3653.3
3603.83
-22974.2
3795.64
-38083.3
3637.1
-40747.1
3430.22
-27305.4
3190.01
-2182.43
3095.01
14901.8
2952.33
13522.7
3517.08
3858.26
4667.68
-15856.1
5013.5
-28592.7
4494.37
-27226.5
4281.75
-26145.7
4190.85
-22754.4
4287.76
35072.6
4385.6
80257.1
4319.29
83828.2
4158.53
72359.7
3980.17
59042.8
3837.52
47040.5
3743.56
36954.2
3693.72
28605.3
3674.15
21585.8
3663.47
15486.5
3643.57
10015.7
3584.19
4961.86
3458.62
294.357
3309.94
-4599.15
2956.17
-8017.2
2640.84
-12474.1
2798.7
-29399.8
2968.56
-51487.7
2898.29
-62388
2045.76
-69766.9
476.53
-85794.2
-98858.1
-4408.79
-22064.4
-4375.56
-21736.8
-4270.6
-20237.8
-4029.85
-18744
-3624.92
-16547.8
-2914.57
-13150.1
-1434.85
-4702.57
-587.658
11174.4
-591.367
19921.7
-822.718
25695.9
-1071.05
30033.8
-1274.9
33562.6
-1446.35
36561.6
-1544.98
39260
-1507.31
41725.5
-1383.08
43976.5
-1205.75
45978.5
-954.163
48059.2
-672.113
49745.1
-368.093
50941.8
-72.4144
51538
235.789
52246
555.899
52466.5
861.98
51633.2
1166.08
50328.5
1480.04
48965.1
1779.01
45850.8
2049.91
42139.2
2188.94
33691.9
2089.94
20234.2
1577.3
549.315
891.942
-16560.4
97.5576
-9795.86
88.8831
23988.4
140.253
24912.7
251.375
24637.8
401.057
24449.9
654.942
30208.2
966.03
37396.6
1231.18
36002.7
1411.43
26062.9
1675.41
14784.2
2053.08
4876.52
2931.49
-4531.71
3681.1
-23723.8
3860.2
-38262.4
3626.36
-40513.2
3378.41
-27057.4
3186.85
-1990.87
3114.88
14973.8
3029.84
13607.8
3649.61
3238.49
4682.63
-16889.1
4874.85
-28784.9
4301.92
-26653.6
4131.16
-25975
4067.63
-22690.9
4201.21
34939.1
4335.35
80122.9
4301.31
83862.2
4154.48
72506.6
3980.68
59216.6
3836.67
47184.5
3738.89
37052
3684.74
28659.5
3661.26
21609.3
3646.7
15501.1
3622.73
10039.7
3559.01
5025.58
3434.87
418.498
3280.3
-4444.58
2920.63
-7657.52
2632.46
-12185.9
2735.46
-29502.8
2707.08
-51459.3
2481.24
-62162.1
1803.34
-69089
445.263
-84436.2
-98962.2
-4500.46
-22030.9
-4471.37
-21765.9
-4356.96
-20352.2
-4094.84
-19006.1
-3661.57
-16981
-2940.59
-13871.1
-1445.44
-6197.72
-371.318
10100.3
-355.589
19906
-631.198
25971.5
-936.975
30339.6
-1167.59
33793.2
-1353.77
36747.8
-1487.65
39393.9
-1507.74
41745.6
-1431.5
43900.3
-1277.42
45824.4
-1037.56
47819.3
-762.405
49470
-461.836
50641.2
-166.719
51242.9
143.479
51935.8
468.348
52141.7
781.582
51320
1094.07
50016
1418.43
48640.8
1731
45538.2
2018.09
41852.1
2186.19
33523.8
2123.97
20296.4
1654.3
1018.98
980.382
-15886.4
79.5076
-8894.99
90.3267
23977.6
148.396
24854.6
265.724
24520.5
420.188
24295.4
683.442
29945
1007.02
37073
1287.35
35722.4
1477.31
25872.9
1743.74
14517.7
2112.61
4507.65
2982.94
-5402.04
3752.34
-24493.2
3909.2
-38419.3
3594.58
-40198.6
3310.55
-26773.4
3171.16
-1851.48
3127.47
15017.5
3110.08
13625.2
3773.17
2575.41
4684.13
-17800.1
4737.32
-28838.1
4130.25
-26046.5
3987.72
-25832.5
3934.5
-22637.7
4096.21
34777.4
4278.92
79940.2
4284.01
83857.1
4153.17
72637.4
3984.44
59385.4
3839.04
47329.9
3737.38
37153.6
3678.93
28717.9
3651.43
21636.7
3632.68
15519.8
3604.23
10068.1
3536.1
5093.71
3413.68
540.915
3250.53
-4281.43
2884.18
-7291.18
2627.63
-11929.3
2683.66
-29558.9
2475.03
-51250.7
2091.77
-61778.9
1542.82
-68540
439.843
-83333.2
-98808.4
-4604.65
-21986
-4579.33
-21791.2
-4455.27
-20476.3
-4173.35
-19288
-3714.73
-17439.6
-2987.85
-14597.9
-1527.16
-7658.41
-218.61
8791.72
-143.578
19831
-426.478
26254.4
-789.882
30703
-1062.34
34065.7
-1265.48
36950.9
-1424.76
39553.2
-1495.96
41816.8
-1471.8
43876.1
-1349.14
45701.8
-1124.89
47595.1
-857.359
49202.4
-561.239
50345.1
-267.375
50949
44.6072
51623.8
374.137
51812.1
694.503
50999.6
1015.53
49695
1350.55
48305.7
1676.88
45211.9
1980.41
41548.6
2175.73
33328.4
2147.19
20325
1719.45
1446.71
1045.1
-15212.1
65.0558
-7914.95
88.5676
23954.1
156.249
24787
279.767
24397
438.995
24136.2
711.411
29672.5
1047.4
36737
1343.52
35426.3
1545.53
25670.9
1815.16
14248.1
2176.73
4146.08
3038.69
-6264
3816.95
-25271.4
3942.24
-38544.5
3544.09
-39800.5
3229.07
-26458.4
3145.88
-1768.28
3138.18
15025.2
3192.28
13571.1
3884.98
1882.71
4675.89
-18591
4609.06
-28771.3
3985.07
-25422.5
3844.18
-25691.6
3781.61
-22575.1
3969.04
34589.9
4214.07
79695.2
4266.89
83804.3
4155.02
72749.3
3992.01
59548.4
3845.17
47476.7
3739.42
37259.4
3676.44
28780.9
3644.52
21668.7
3620.99
15543.4
3587.5
10101.6
3514.73
5166.48
3393.59
662.051
3219.07
-4106.9
2847.84
-6919.95
2628.61
-11710.1
2646.5
-29576.7
2282.42
-50886.6
1759.1
-61255.6
1304.15
-68085.1
407.201
-82436.2
-98691.3
-4722.08
-21929.5
-4700.16
-21813.1
-4566.57
-20609.9
-4267.06
-19587.5
-3787.26
-17919.4
-3055.08
-15330.1
-1613.05
-9100.44
-14.5053
7193.17
68.2987
19748.2
-217.98
26540.7
-630.595
31115.6
-954.289
34389.4
-1182.68
37179.3
-1361.57
39732.1
-1474.16
41929.4
-1501.33
43903.3
-1417.94
45618.4
-1215.49
47392.6
-957.071
48944
-666.199
50054.2
-374.303
50657.1
-60.9133
51310.4
273.09
51478.1
600.556
50672.1
930.226
49365.3
1276.17
47959.8
1616.42
44871.6
1936.84
41228.2
2158.52
33106.7
2160.34
20323.1
1775.29
1831.76
1096.31
-14533.1
60.3542
-6878.99
85.5557
23928.9
164.054
24708.5
293.551
24267.5
457.389
23972.4
738.606
29391.3
1086.81
36388.8
1399.2
35113.9
1615.59
25454.5
1890.38
13973.3
2246.68
3789.78
3098.74
-7116.06
3874
-26046.7
3958.86
-38629.4
3477.6
-39319.2
3136.64
-26117.4
3116.55
-1748.19
3154.47
14987.2
3276.16
13449.4
3984.02
1174.85
4659.96
-19266.9
4490.62
-28601.9
3863.17
-24795
3689.03
-25517.4
3595
-22481.1
3817.21
34367.7
4138.42
79374
4248.93
83693.8
4159.97
72838.2
4003.61
59704.7
3855.31
47625
3745.17
37369.5
3677.14
28848.9
3640.07
21705.7
3610.93
15572.5
3571.69
10140.9
3493.86
5244.31
3372.92
782.989
3184.78
-3918.76
2813.2
-6548.37
2637.95
-11534.9
2627.94
-29566.7
2138.66
-50397.3
1505.97
-60622.9
1115.36
-67694.4
305.748
-81626.6