/*--------------------------------*- C++ -*----------------------------------*\
| =========                 |                                                 |
| \\      /  F ield         | OpenFOAM: The Open Source CFD Toolbox           |
|  \\    /   O peration     | Version:  4.1                                   |
|   \\  /    A nd           | Web:      www.OpenFOAM.org                      |
|    \\/     M anipulation  |                                                 |
\*---------------------------------------------------------------------------*/
FoamFile
{
    version     2.0;
    format      ascii;
    class       volScalarField;
    location    "19";
    object      p;
}
// * * * * * * * * * * * * * * * * * * * * * * * * * * * * * * * * * * * * * //

dimensions      [0 2 -2 0 0 0 0];

internalField   nonuniform List<scalar> 
6785
(
1.13942e+119
1.13942e+119
1.13942e+119
1.13942e+119
1.13942e+119
1.13942e+119
1.13942e+119
1.13942e+119
1.13942e+119
1.13942e+119
1.13942e+119
1.13942e+119
1.13942e+119
1.13942e+119
1.13942e+119
1.13942e+119
1.13942e+119
1.13942e+119
1.13942e+119
1.13942e+119
1.13942e+119
1.13942e+119
1.13942e+119
1.13942e+119
1.13942e+119
1.13942e+119
1.13942e+119
1.13942e+119
1.13942e+119
1.13942e+119
1.13942e+119
1.13942e+119
1.13942e+119
1.13942e+119
1.13942e+119
1.13942e+119
1.13942e+119
1.13942e+119
1.13942e+119
1.13942e+119
1.13942e+119
1.13942e+119
1.13942e+119
1.13942e+119
1.13942e+119
1.13942e+119
1.13942e+119
1.13942e+119
1.13942e+119
1.13942e+119
1.13942e+119
1.13942e+119
1.13942e+119
1.13942e+119
1.13942e+119
1.13942e+119
1.13942e+119
1.13942e+119
1.13942e+119
1.13942e+119
1.13942e+119
1.13942e+119
1.13942e+119
1.13942e+119
1.13942e+119
1.13942e+119
1.13942e+119
1.13942e+119
1.13942e+119
1.13942e+119
1.13942e+119
1.13942e+119
1.13942e+119
1.13942e+119
1.13942e+119
1.13942e+119
1.13942e+119
1.13942e+119
1.13942e+119
1.13942e+119
1.13942e+119
1.13942e+119
1.13942e+119
1.13942e+119
1.13942e+119
1.13942e+119
1.13942e+119
1.13942e+119
1.13942e+119
1.13942e+119
1.13942e+119
1.13942e+119
1.13942e+119
1.13942e+119
1.13942e+119
1.13942e+119
1.13942e+119
1.13942e+119
1.13942e+119
1.13942e+119
1.13942e+119
1.13942e+119
1.13942e+119
1.13942e+119
1.13942e+119
1.13942e+119
1.13942e+119
1.13942e+119
1.13942e+119
1.13942e+119
1.13942e+119
1.13942e+119
1.13942e+119
1.13942e+119
1.13942e+119
1.13942e+119
1.13942e+119
1.13942e+119
1.13942e+119
1.13942e+119
1.13942e+119
1.13942e+119
1.13942e+119
1.13942e+119
1.13942e+119
1.13942e+119
1.13942e+119
1.13942e+119
1.13942e+119
1.13942e+119
1.13942e+119
1.13942e+119
1.13942e+119
1.13942e+119
1.13942e+119
1.13942e+119
1.13942e+119
1.13942e+119
1.13942e+119
1.13942e+119
1.13942e+119
1.13942e+119
1.13942e+119
1.13942e+119
1.13942e+119
1.13942e+119
1.13942e+119
1.13942e+119
1.13942e+119
1.13941e+119
1.13941e+119
1.13941e+119
1.13941e+119
1.13941e+119
1.13941e+119
1.13941e+119
1.1394e+119
1.1394e+119
1.1394e+119
1.1394e+119
1.1394e+119
1.1394e+119
1.1394e+119
1.1394e+119
1.1394e+119
1.1394e+119
1.1394e+119
1.13939e+119
1.13939e+119
1.13939e+119
1.13939e+119
1.13939e+119
1.13939e+119
1.13939e+119
1.13939e+119
1.13939e+119
1.13939e+119
1.1394e+119
1.1394e+119
1.1394e+119
1.13937e+119
1.13937e+119
1.13937e+119
1.13937e+119
1.13937e+119
1.13938e+119
1.13939e+119
1.1394e+119
1.1394e+119
1.13941e+119
1.13941e+119
1.13942e+119
1.13942e+119
1.13942e+119
1.13942e+119
1.13932e+119
1.13935e+119
1.13939e+119
1.13941e+119
1.13941e+119
1.1394e+119
1.13939e+119
1.13937e+119
1.13934e+119
1.13932e+119
1.13929e+119
1.13927e+119
1.13925e+119
1.13924e+119
1.13925e+119
1.13986e+119
1.1398e+119
1.13964e+119
1.13948e+119
1.1393e+119
1.13912e+119
1.13894e+119
1.13877e+119
1.13861e+119
1.13845e+119
1.13829e+119
1.13812e+119
1.13788e+119
1.13753e+119
1.13718e+119
1.19e+119
1.18988e+119
1.19064e+119
1.19066e+119
1.19072e+119
1.19049e+119
1.19083e+119
1.19086e+119
1.19084e+119
1.19061e+119
1.191e+119
1.1909e+119
1.19042e+119
1.19078e+119
1.19046e+119
1.18995e+119
1.18895e+119
1.18912e+119
1.18837e+119
1.18695e+119
1.18689e+119
1.18582e+119
1.18451e+119
1.18284e+119
1.18271e+119
1.18134e+119
1.17971e+119
1.17791e+119
1.17794e+119
1.17617e+119
1.17399e+119
1.17386e+119
1.17204e+119
1.16994e+119
1.16821e+119
1.16859e+119
1.1665e+119
1.1644e+119
1.16458e+119
1.16259e+119
1.16025e+119
1.15889e+119
1.15945e+119
1.15749e+119
1.15516e+119
1.15402e+119
1.15505e+119
1.15279e+119
1.15114e+119
1.15183e+119
1.14979e+119
1.14737e+119
1.14663e+119
1.14773e+119
1.14579e+119
1.14344e+119
1.14292e+119
1.14447e+119
1.14221e+119
1.14105e+119
1.14212e+119
1.14014e+119
1.13777e+119
1.13754e+119
1.13931e+119
1.13708e+119
1.13619e+119
1.13739e+119
1.13546e+119
1.13311e+119
1.13317e+119
1.13469e+119
1.13285e+119
1.13059e+119
1.13076e+119
1.13262e+119
1.13041e+119
1.1297e+119
1.13153e+119
1.12908e+119
1.13093e+119
1.13429e+119
1.13675e+119
1.14199e+119
1.14208e+119
1.14164e+119
1.14117e+119
1.14076e+119
1.14039e+119
1.14002e+119
1.13968e+119
1.13927e+119
1.13896e+119
1.14027e+119
1.14024e+119
1.14004e+119
1.13978e+119
1.1395e+119
1.1392e+119
1.13892e+119
1.13857e+119
1.13834e+119
1.13977e+119
1.13979e+119
1.13963e+119
1.13941e+119
1.13916e+119
1.13891e+119
1.13865e+119
1.13839e+119
1.13807e+119
1.13781e+119
1.13925e+119
1.13927e+119
1.13911e+119
1.1389e+119
1.13866e+119
1.1384e+119
1.13816e+119
1.13788e+119
1.13762e+119
1.13902e+119
1.13905e+119
1.1389e+119
1.13869e+119
1.13846e+119
1.13821e+119
1.13797e+119
1.13769e+119
1.13737e+119
1.13877e+119
1.1388e+119
1.13867e+119
1.13847e+119
1.13823e+119
1.13797e+119
1.13772e+119
1.13743e+119
1.13704e+119
1.1384e+119
1.1384e+119
1.13825e+119
1.13804e+119
1.13781e+119
1.13753e+119
1.13718e+119
1.13683e+119
1.13646e+119
1.13573e+119
1.13712e+119
1.13709e+119
1.13688e+119
1.13658e+119
1.13624e+119
1.13577e+119
1.13495e+119
1.13371e+119
1.13024e+119
1.13123e+119
1.13074e+119
1.12809e+119
1.12645e+119
1.12982e+119
1.12982e+119
1.12898e+119
1.12891e+119
1.12851e+119
1.13132e+119
1.13145e+119
1.13049e+119
1.13262e+119
1.13244e+119
1.13172e+119
1.13164e+119
1.13129e+119
1.1333e+119
1.13297e+119
1.13214e+119
1.13186e+119
1.13128e+119
1.13307e+119
1.13293e+119
1.13185e+119
1.13329e+119
1.13267e+119
1.13201e+119
1.13179e+119
1.13193e+119
1.13605e+119
1.13674e+119
1.13788e+119
1.13724e+119
1.13515e+119
1.13658e+119
1.1309e+119
1.12178e+119
1.12164e+119
1.1162e+119
1.10828e+119
1.10531e+119
1.10088e+119
1.10915e+119
1.11606e+119
1.11774e+119
1.12675e+119
1.13148e+119
1.1502e+119
1.17004e+119
1.18226e+119
1.20608e+119
1.21272e+119
1.21587e+119
1.23595e+119
1.25217e+119
1.27562e+119
1.29779e+119
1.31091e+119
1.3412e+119
1.35018e+119
1.31122e+119
1.32928e+119
1.30109e+119
1.13329e+119
1.08682e+119
1.01812e+119
9.97693e+118
9.07322e+118
4.55129e+118
3.35554e+118
2.02167e+118
1.71443e+118
6.34076e+117
-6.93703e+118
-6.91777e+118
-8.97644e+118
-2.05692e+119
-2.17331e+119
-2.09346e+119
-1.21518e+119
9.92525e+118
6.48604e+112
3.79192e+113
3.78051e+113
5.65545e+113
1.3623e+114
1.34553e+114
2.73093e+114
-1.07468e+113
3.43658e+113
1.90358e+113
-1.10249e+112
-1.71947e+113
-2.1266e+114
-2.15976e+114
-1.47895e+114
-1.74284e+114
-2.7994e+114
-2.44329e+113
-4.94025e+113
2.90459e+113
2.87525e+114
1.8474e+114
2.01812e+114
1.16369e+114
4.47324e+114
9.9003e+113
2.0457e+114
5.2337e+114
3.25904e+114
1.84596e+114
-3.70188e+114
-2.62367e+114
3.56915e+114
1.91221e+114
1.09745e+114
-1.31721e+113
1.18232e+114
-1.0133e+113
7.6331e+112
5.60088e+113
-2.75468e+114
-1.71078e+114
-1.22914e+114
-2.2943e+114
-5.14734e+113
2.3312e+112
3.6287e+113
1.0988e+114
5.91541e+113
1.10743e+114
9.477e+113
-9.04617e+113
-4.95575e+112
1.7625e+112
-2.14411e+112
-7.02359e+112
-1.14272e+113
-1.75962e+113
-2.84104e+113
-4.28182e+113
-6.13764e+113
-8.42313e+113
-1.12779e+114
-1.49662e+114
-2.00803e+114
-2.7504e+114
-3.87655e+114
-5.60615e+114
-8.27675e+114
-1.23102e+115
-1.80229e+115
-2.52004e+115
-2.88345e+115
-1.94965e+115
-3.45479e+114
4.81777e+115
-9.13122e+115
-1.95859e+117
-2.06775e+118
4.2239e+112
4.35195e+113
3.17278e+113
5.77304e+113
1.44678e+114
1.56644e+114
2.89123e+114
-4.82836e+113
4.12864e+113
-3.58495e+113
-9.58186e+113
-1.47076e+114
-3.26399e+114
-2.70299e+114
-2.04449e+114
-2.95875e+114
-3.76661e+114
-8.06288e+113
-1.25171e+114
-1.5371e+113
2.28657e+114
2.00632e+114
2.56982e+114
1.56275e+114
4.83235e+114
1.94173e+114
2.73262e+114
6.32972e+114
4.4008e+114
5.44518e+113
-4.09571e+114
-1.96223e+114
4.68506e+114
4.02799e+114
1.12473e+114
5.02582e+113
1.88013e+113
-1.24478e+114
-1.53247e+114
-1.12168e+114
-3.60947e+114
-2.21075e+114
-2.68358e+114
-2.5064e+114
-1.0077e+114
-4.46057e+113
-8.67816e+112
9.82713e+113
5.04571e+113
7.71033e+113
1.10894e+114
-1.12963e+114
-2.99985e+113
-6.62265e+112
-6.7955e+112
-1.57196e+113
-2.40788e+113
-3.45071e+113
-5.12536e+113
-7.29627e+113
-9.97985e+113
-1.32196e+114
-1.72638e+114
-2.25451e+114
-2.99516e+114
-4.08073e+114
-5.7364e+114
-8.29e+114
-1.2247e+115
-1.82607e+115
-2.69216e+115
-3.82305e+115
-4.67504e+115
-4.12492e+115
-3.79431e+115
-1.98055e+116
-2.21939e+117
-1.13635e+118
-3.89293e+118
2.13686e+112
4.18738e+113
2.66178e+113
4.97372e+113
1.30091e+114
1.81509e+114
2.68076e+114
-5.60128e+113
7.61031e+113
-6.28766e+113
-1.70021e+114
-2.56058e+114
-4.16143e+114
-3.36776e+114
-2.58819e+114
-3.97487e+114
-4.32533e+114
-1.54388e+114
-1.83147e+114
-4.70811e+113
1.68448e+114
1.89931e+114
2.86354e+114
2.21058e+114
5.33214e+114
2.95329e+114
3.26017e+114
6.64282e+114
5.46662e+114
-2.87855e+113
-3.92912e+114
-1.52986e+114
5.03659e+114
5.73703e+114
8.97433e+113
6.32386e+113
-1.05376e+114
-2.49106e+114
-3.1219e+114
-2.10054e+114
-3.94117e+114
-2.77993e+114
-3.51336e+114
-2.38122e+114
-1.37778e+114
-5.23322e+113
-7.36967e+113
5.88262e+113
5.02987e+113
8.72935e+113
1.10015e+114
-1.15124e+114
-4.48506e+113
-1.35829e+113
-6.44954e+112
-1.58836e+113
-2.56028e+113
-3.71522e+113
-5.52095e+113
-7.88572e+113
-1.07979e+114
-1.42971e+114
-1.86533e+114
-2.43402e+114
-3.23199e+114
-4.40374e+114
-6.19392e+114
-8.96141e+114
-1.32621e+115
-1.98383e+115
-2.94411e+115
-4.24796e+115
-5.51416e+115
-5.75485e+115
-6.33123e+115
-3.36696e+116
-3.21773e+117
-1.33763e+118
-2.90491e+118
3.57824e+112
4.12647e+113
2.91473e+113
4.59134e+113
1.25961e+114
2.07952e+114
2.42169e+114
-4.26788e+113
9.75025e+113
-7.42776e+113
-2.30605e+114
-3.37986e+114
-4.8521e+114
-3.87136e+114
-3.18143e+114
-4.88241e+114
-4.67502e+114
-2.14329e+114
-2.13969e+114
-5.25684e+113
1.6534e+114
2.12001e+114
3.09873e+114
3.2859e+114
6.26941e+114
4.13884e+114
3.93828e+114
7.07604e+114
6.27407e+114
-5.48921e+113
-3.80485e+114
-1.29666e+114
5.71291e+114
7.11815e+114
5.01875e+113
6.49717e+113
-2.18828e+114
-3.66518e+114
-4.47107e+114
-2.88795e+114
-4.08342e+114
-3.13089e+114
-3.92431e+114
-2.09825e+114
-1.94963e+114
-6.31211e+113
-1.1123e+114
2.85215e+113
6.98298e+113
1.0197e+114
1.17619e+114
-1.04205e+114
-5.39881e+113
-2.2683e+113
-6.08986e+112
-1.47494e+113
-2.49958e+113
-3.68648e+113
-5.52314e+113
-7.97056e+113
-1.0994e+114
-1.46203e+114
-1.91203e+114
-2.49827e+114
-3.32014e+114
-4.52859e+114
-6.37844e+114
-9.2467e+114
-1.37214e+115
-2.06196e+115
-3.08709e+115
-4.54513e+115
-6.31565e+115
-7.65538e+115
-8.73182e+115
-4.22374e+116
-3.54319e+117
-1.03613e+118
-2.5798e+117
6.84576e+112
4.1637e+113
3.27687e+113
4.08025e+113
1.21744e+114
2.19626e+114
2.09111e+114
-4.37416e+113
8.13373e+113
-9.19611e+113
-2.86793e+114
-4.24011e+114
-5.5186e+114
-4.37985e+114
-3.80661e+114
-5.59002e+114
-4.9965e+114
-2.62248e+114
-2.375e+114
-4.62667e+113
1.76888e+114
2.43424e+114
3.423e+114
4.34485e+114
7.16874e+114
5.30077e+114
4.58783e+114
7.50898e+114
6.97511e+114
-6.47473e+113
-4.01206e+114
-1.30289e+114
6.51464e+114
8.03589e+114
2.1394e+112
5.12489e+113
-3.0919e+114
-4.77166e+114
-5.6719e+114
-3.7626e+114
-4.17453e+114
-3.38417e+114
-4.06487e+114
-2.01635e+114
-2.47199e+114
-7.86082e+113
-1.16731e+114
2.00085e+113
9.6585e+113
1.19492e+114
1.26235e+114
-9.92896e+113
-6.94965e+113
-3.64147e+113
-9.37956e+112
-1.61041e+113
-2.5941e+113
-3.74554e+113
-5.57243e+113
-8.07435e+113
-1.11864e+114
-1.49187e+114
-1.95385e+114
-2.55454e+114
-3.39645e+114
-4.63698e+114
-6.5413e+114
-9.50521e+114
-1.41515e+115
-2.13813e+115
-3.23399e+115
-4.86435e+115
-7.19574e+115
-9.78997e+115
-1.11571e+116
-4.85473e+116
-3.39188e+117
-4.45457e+117
2.50334e+118
1.13535e+113
4.31406e+113
3.61077e+113
3.59177e+113
1.16098e+114
2.21039e+114
1.77456e+114
-5.07656e+113
5.73494e+113
-1.21575e+114
-3.42342e+114
-5.07792e+114
-6.17532e+114
-4.89352e+114
-4.39404e+114
-6.15845e+114
-5.16616e+114
-2.95242e+114
-2.45696e+114
-2.85638e+113
2.03115e+114
2.85464e+114
3.84748e+114
5.34338e+114
8.04235e+114
6.46855e+114
5.26573e+114
7.94536e+114
7.57696e+114
-6.45879e+113
-4.37924e+114
-1.40806e+114
7.29749e+114
8.69805e+114
-5.72473e+113
-2.37572e+112
-3.81799e+114
-5.79787e+114
-6.63251e+114
-4.38758e+114
-4.0296e+114
-3.50347e+114
-4.05848e+114
-1.95013e+114
-2.74186e+114
-9.13789e+113
-1.13142e+114
2.85674e+113
1.28244e+114
1.43466e+114
1.30538e+114
-9.88523e+113
-9.34468e+113
-5.41287e+113
-1.61652e+113
-2.0246e+113
-2.87026e+113
-3.91449e+113
-5.69748e+113
-8.23604e+113
-1.14244e+114
-1.52526e+114
-1.99809e+114
-2.61183e+114
-3.47235e+114
-4.74393e+114
-6.70296e+114
-9.76558e+114
-1.45925e+115
-2.21766e+115
-3.39031e+115
-5.20334e+115
-8.08396e+115
-1.19773e+116
-1.37479e+116
-5.43183e+116
-2.84713e+117
3.10393e+117
5.26023e+118
1.65139e+113
4.53061e+113
3.77827e+113
3.05706e+113
1.07563e+114
2.13834e+114
1.47811e+114
-5.81584e+113
2.86955e+113
-1.59878e+114
-3.98578e+114
-5.86252e+114
-6.77522e+114
-5.41322e+114
-4.94558e+114
-6.64301e+114
-5.29267e+114
-3.1961e+114
-2.42157e+114
-8.48056e+111
2.41425e+114
3.35986e+114
4.35612e+114
6.27466e+114
8.92918e+114
7.63874e+114
5.98594e+114
8.3845e+114
7.98223e+114
-6.24481e+113
-4.5277e+114
-1.36632e+114
8.08002e+114
9.20688e+114
-1.1972e+114
-1.0268e+114
-4.3726e+114
-6.867e+114
-7.50866e+114
-4.88571e+114
-3.52846e+114
-3.53087e+114
-3.9853e+114
-1.33811e+114
-2.76988e+114
-9.80599e+113
-1.1138e+114
4.03548e+113
1.61711e+114
1.7271e+114
1.30609e+114
-9.97823e+113
-1.24063e+114
-7.53886e+113
-2.59784e+113
-2.71441e+113
-3.32746e+113
-4.1856e+113
-5.88694e+113
-8.44173e+113
-1.16929e+114
-1.56063e+114
-2.043e+114
-2.66802e+114
-3.545e+114
-4.84544e+114
-6.8574e+114
-1.00182e+115
-1.50281e+115
-2.29742e+115
-3.54896e+115
-5.54456e+115
-8.92096e+115
-1.40542e+116
-1.67683e+116
-6.00504e+116
-1.96904e+117
1.11327e+118
7.64166e+118
2.18944e+113
4.76262e+113
3.83261e+113
2.50195e+113
9.5947e+113
1.99969e+114
1.18334e+114
-6.27573e+113
-4.12654e+112
-2.053e+114
-4.53138e+114
-6.55035e+114
-7.26672e+114
-5.94728e+114
-5.46541e+114
-7.04085e+114
-5.3723e+114
-3.36213e+114
-2.30391e+114
3.52691e+113
2.88692e+114
3.93454e+114
4.94802e+114
7.15737e+114
9.83495e+114
8.81505e+114
6.83819e+114
8.77663e+114
7.8539e+114
-5.51557e+113
-4.4094e+114
-1.08854e+114
8.90664e+114
9.6856e+114
-1.59504e+114
-1.93984e+114
-4.85588e+114
-7.96918e+114
-8.36063e+114
-5.44155e+114
-2.95683e+114
-3.58868e+114
-3.89605e+114
-3.45121e+113
-2.69823e+114
-9.67229e+113
-1.09136e+114
5.19101e+113
1.93436e+114
2.06485e+114
1.27878e+114
-1.05401e+114
-1.61341e+114
-1.00779e+114
-3.83011e+113
-3.67364e+113
-3.96343e+113
-4.54951e+113
-6.12685e+113
-8.67354e+113
-1.19712e+114
-1.59567e+114
-2.086e+114
-2.72009e+114
-3.61079e+114
-4.93697e+114
-6.99863e+114
-1.02546e+115
-1.54452e+115
-2.375e+115
-3.70447e+115
-5.87531e+115
-9.68496e+115
-1.58311e+116
-2.06403e+116
-6.5058e+116
-7.43861e+116
1.94637e+118
9.59826e+118
2.72034e+113
4.93922e+113
3.81887e+113
1.98631e+113
8.19186e+113
1.81313e+114
8.7914e+113
-6.63832e+113
-4.1785e+113
-2.54792e+114
-5.03254e+114
-7.14757e+114
-7.66667e+114
-6.50512e+114
-5.97755e+114
-7.3532e+114
-5.36624e+114
-3.43024e+114
-2.1201e+114
7.87351e+113
3.41685e+114
4.56639e+114
5.62918e+114
8.02426e+114
1.07656e+115
9.99863e+114
7.7807e+114
9.0925e+114
7.29665e+114
-4.03641e+113
-4.07634e+114
-6.56917e+113
9.56121e+114
1.01425e+115
-1.76338e+114
-2.65984e+114
-5.38938e+114
-9.11035e+114
-9.05266e+114
-6.05472e+114
-2.508e+114
-3.78316e+114
-3.77551e+114
4.79269e+113
-2.62721e+114
-8.6599e+113
-8.06698e+113
7.58873e+113
2.2785e+114
2.45642e+114
1.2162e+114
-1.14569e+114
-2.04043e+114
-1.30863e+114
-5.25465e+113
-4.9041e+113
-4.78574e+113
-5.00879e+113
-6.41973e+113
-8.93457e+113
-1.22641e+114
-1.63108e+114
-2.1279e+114
-2.76891e+114
-3.67051e+114
-5.01919e+114
-7.12703e+114
-1.04743e+115
-1.5841e+115
-2.44947e+115
-3.8537e+115
-6.1875e+115
-1.03809e+116
-1.71947e+116
-2.57844e+116
-6.73406e+116
8.71899e+116
2.79235e+118
1.12245e+119
3.22089e+113
5.04284e+113
3.73807e+113
1.5441e+113
6.65748e+113
1.58816e+114
5.59385e+113
-7.33147e+113
-8.42944e+113
-3.04691e+114
-5.48959e+114
-7.67974e+114
-8.01976e+114
-7.06305e+114
-6.51948e+114
-7.5853e+114
-5.29363e+114
-3.40104e+114
-1.87476e+114
1.2822e+114
3.99357e+114
5.24835e+114
6.40417e+114
8.90279e+114
1.17346e+115
1.11901e+115
8.74854e+114
9.32425e+114
6.66388e+114
-1.8277e+113
-3.57961e+114
-1.69241e+113
9.85939e+114
1.04674e+115
-1.83228e+114
-3.35938e+114
-5.92411e+114
-1.01673e+115
-9.38457e+114
-6.39689e+114
-2.22695e+114
-4.02025e+114
-3.56531e+114
1.08511e+114
-2.5226e+114
-7.00685e+113
9.61829e+112
1.42707e+114
2.81714e+114
2.83491e+114
1.09906e+114
-1.19857e+114
-2.49822e+114
-1.62543e+114
-6.81839e+113
-6.40976e+113
-5.79621e+113
-5.55663e+113
-6.75469e+113
-9.21207e+113
-1.25575e+114
-1.66535e+114
-2.16708e+114
-2.81259e+114
-3.72196e+114
-5.08944e+114
-7.2393e+114
-1.06732e+115
-1.6209e+115
-2.5196e+115
-3.99382e+115
-6.47429e+115
-1.10211e+116
-1.81761e+116
-3.24224e+116
-6.35198e+116
2.88898e+117
3.59178e+118
1.23233e+119
3.67188e+113
5.12039e+113
3.61454e+113
1.20493e+113
5.17251e+113
1.33985e+114
2.54273e+113
-8.39533e+113
-1.30529e+114
-3.52659e+114
-5.914e+114
-8.14652e+114
-8.34666e+114
-7.59487e+114
-7.05008e+114
-7.74477e+114
-5.18973e+114
-3.29469e+114
-1.56445e+114
1.83048e+114
4.62362e+114
5.97788e+114
7.26193e+114
9.80352e+114
1.27463e+115
1.23882e+115
9.70876e+114
9.49009e+114
6.03853e+114
8.4461e+112
-2.99699e+114
3.30844e+113
9.96217e+114
1.05426e+115
-1.83893e+114
-4.00604e+114
-6.40401e+114
-1.10447e+115
-9.33585e+114
-6.05874e+114
-2.13547e+114
-4.17178e+114
-3.24573e+114
1.56947e+114
-2.3526e+114
-4.78835e+113
1.25432e+114
2.39728e+114
3.57814e+114
2.99859e+114
8.83559e+113
-1.20686e+114
-3.00653e+114
-1.94214e+114
-8.54065e+113
-8.21692e+113
-7.00852e+113
-6.19975e+113
-7.13819e+113
-9.51439e+113
-1.28625e+114
-1.69991e+114
-2.20514e+114
-2.85283e+114
-3.76682e+114
-5.14941e+114
-7.33711e+114
-1.08524e+115
-1.65493e+115
-2.58505e+115
-4.12336e+115
-6.73154e+115
-1.16107e+116
-1.88857e+116
-4.04618e+116
-4.93612e+116
5.32901e+117
4.3459e+118
1.3005e+119
4.05313e+113
5.19669e+113
3.49525e+113
1.03837e+113
3.94724e+113
1.09025e+114
-2.47573e+112
-1.01637e+114
-1.80371e+114
-3.98041e+114
-6.31003e+114
-8.55336e+114
-8.68284e+114
-8.10829e+114
-7.50917e+114
-7.83489e+114
-5.0827e+114
-3.13694e+114
-1.18476e+114
2.42765e+114
5.30474e+114
6.75152e+114
8.18853e+114
1.07285e+115
1.37899e+115
1.35907e+115
1.06454e+115
9.60428e+114
5.4287e+114
3.53766e+113
-2.4009e+114
8.25944e+113
1.00987e+115
1.04312e+115
-1.76833e+114
-4.61967e+114
-6.79894e+114
-1.1694e+115
-9.01761e+114
-5.34292e+114
-2.2133e+114
-4.14909e+114
-2.78283e+114
1.90028e+114
-2.13127e+114
-2.7089e+113
2.29616e+114
3.52908e+114
4.45832e+114
2.82764e+114
5.37617e+113
-1.21841e+114
-3.60066e+114
-2.26774e+114
-1.05228e+114
-1.0366e+114
-8.42614e+113
-6.92902e+113
-7.55724e+113
-9.82672e+113
-1.3163e+114
-1.73306e+114
-2.24023e+114
-2.88746e+114
-3.80255e+114
-5.19604e+114
-7.41671e+114
-1.10073e+115
-1.68554e+115
-2.6448e+115
-4.24043e+115
-6.95611e+115
-1.21341e+116
-1.95251e+116
-4.93723e+116
-2.01009e+116
8.2069e+117
5.05355e+118
1.33912e+119
4.33916e+113
5.25268e+113
3.42454e+113
1.11257e+113
3.11016e+113
8.55281e+113
-2.96258e+113
-1.29297e+114
-2.32982e+114
-4.41259e+114
-6.68551e+114
-8.90346e+114
-9.01452e+114
-8.61334e+114
-7.91086e+114
-7.87708e+114
-5.01565e+114
-2.93781e+114
-7.37951e+113
3.06091e+114
6.0309e+114
7.56629e+114
9.17121e+114
1.16933e+115
1.48551e+115
1.47904e+115
1.15458e+115
9.6695e+114
4.82783e+114
5.85043e+113
-1.83779e+114
1.30777e+114
1.03732e+115
1.03713e+115
-1.7232e+114
-5.25026e+114
-7.13096e+114
-1.21074e+115
-8.36652e+114
-4.83083e+114
-2.26816e+114
-3.98426e+114
-2.16604e+114
2.16359e+114
-1.88117e+114
6.15849e+112
3.31471e+114
4.73502e+114
5.25333e+114
2.47196e+114
6.58126e+112
-1.25045e+114
-4.30841e+114
-2.64505e+114
-1.29931e+114
-1.29366e+114
-1.00688e+114
-7.75206e+113
-8.02139e+113
-1.01606e+114
-1.34735e+114
-1.76659e+114
-2.27436e+114
-2.91855e+114
-3.83119e+114
-5.23138e+114
-7.48018e+114
-1.11399e+115
-1.71287e+115
-2.69887e+115
-4.34435e+115
-7.14882e+115
-1.25457e+116
-2.03611e+116
-5.81534e+116
2.93642e+116
1.15225e+118
5.69188e+118
1.33709e+119
4.51482e+113
5.27082e+113
3.42803e+113
1.4393e+113
2.6851e+113
6.41769e+113
-5.47547e+113
-1.65517e+114
-2.87841e+114
-4.81453e+114
-7.05043e+114
-9.2032e+114
-9.33433e+114
-9.09731e+114
-8.27318e+114
-7.90632e+114
-4.89073e+114
-2.69844e+114
-2.34599e+113
3.716e+114
6.79189e+114
8.4198e+114
1.01929e+115
1.27061e+115
1.5936e+115
1.59769e+115
1.23989e+115
9.68277e+114
4.23827e+114
7.48877e+113
-1.34255e+114
1.78289e+114
1.07152e+115
1.03412e+115
-1.7759e+114
-5.92371e+114
-7.58163e+114
-1.23625e+115
-7.41177e+114
-4.46714e+114
-2.17072e+114
-3.89587e+114
-1.37986e+114
2.51229e+114
-1.50616e+114
7.89285e+113
4.43028e+114
5.81998e+114
5.8196e+114
2.1595e+114
-5.89726e+113
-1.43202e+114
-5.12845e+114
-3.14392e+114
-1.63322e+114
-1.60165e+114
-1.19407e+114
-8.6559e+113
-8.51784e+113
-1.05009e+114
-1.37772e+114
-1.79877e+114
-2.3056e+114
-2.94383e+114
-3.85002e+114
-5.25214e+114
-7.52357e+114
-1.12454e+115
-1.73632e+115
-2.74655e+115
-4.43353e+115
-7.31291e+115
-1.27737e+116
-2.17817e+116
-6.52532e+116
1.03775e+117
1.52558e+118
6.26501e+118
1.3151e+119
4.57658e+113
5.23761e+113
3.51073e+113
1.98928e+113
2.6422e+113
4.55811e+113
-7.61991e+113
-2.05363e+114
-3.45498e+114
-5.19763e+114
-7.40969e+114
-9.46323e+114
-9.65531e+114
-9.55787e+114
-8.59483e+114
-7.92849e+114
-4.65053e+114
-2.42634e+114
3.15463e+113
4.38999e+114
7.58022e+114
9.32074e+114
1.12373e+115
1.37519e+115
1.70252e+115
1.71397e+115
1.31948e+115
9.64521e+114
3.69076e+114
8.22036e+113
-9.4467e+113
2.28594e+114
1.10502e+115
1.01082e+115
-1.95174e+114
-6.67427e+114
-8.25805e+114
-1.25225e+115
-6.50343e+114
-4.08828e+114
-1.93165e+114
-3.88987e+114
-3.67504e+113
2.93663e+114
-1.0262e+114
1.85448e+114
5.63465e+114
6.69724e+114
6.19162e+114
1.79725e+114
-1.42656e+114
-2.01176e+114
-6.12396e+114
-3.95199e+114
-2.14966e+114
-1.97463e+114
-1.40714e+114
-9.64975e+113
-9.06049e+113
-1.08627e+114
-1.40918e+114
-1.83178e+114
-2.33634e+114
-2.96571e+114
-3.86139e+114
-5.26074e+114
-7.54941e+114
-1.13266e+115
-1.75616e+115
-2.78826e+115
-4.50752e+115
-7.45731e+115
-1.27221e+116
-2.44042e+116
-6.83859e+116
2.07419e+117
1.93857e+118
6.77112e+118
1.27289e+119
4.53062e+113
5.1426e+113
3.66367e+113
2.72237e+113
2.95075e+113
3.06396e+113
-9.52062e+113
-2.43934e+114
-4.02315e+114
-5.56948e+114
-7.75729e+114
-9.69595e+114
-9.99319e+114
-9.99453e+114
-8.87437e+114
-7.938e+114
-4.44583e+114
-2.12794e+114
8.95484e+113
5.08488e+114
8.39316e+114
1.0273e+115
1.22992e+115
1.48111e+115
1.81187e+115
1.8269e+115
1.39284e+115
9.56684e+114
3.20448e+114
7.85841e+113
-6.62993e+113
2.91194e+114
1.13494e+115
9.47912e+114
-2.2433e+114
-7.51412e+114
-8.97505e+114
-1.25106e+115
-5.84905e+114
-3.62737e+114
-1.4961e+114
-3.73491e+114
8.79786e+113
3.43748e+114
-4.83053e+113
2.96225e+114
6.92058e+114
7.45927e+114
6.33763e+114
1.11777e+114
-2.15211e+114
-3.09787e+114
-7.41857e+114
-5.06786e+114
-2.91089e+114
-2.42166e+114
-1.64422e+114
-1.07186e+114
-9.63803e+113
-1.12303e+114
-1.43996e+114
-1.86385e+114
-2.36459e+114
-2.98171e+114
-3.86232e+114
-5.25359e+114
-7.55348e+114
-1.13787e+115
-1.77185e+115
-2.82359e+115
-4.56496e+115
-7.59422e+115
-1.23169e+116
-2.87819e+116
-6.45964e+116
3.43948e+117
2.38806e+118
7.2247e+118
1.22917e+119
4.39241e+113
4.97525e+113
3.86556e+113
3.5989e+113
3.58513e+113
1.99209e+113
-1.13489e+114
-2.79553e+114
-4.53901e+114
-5.91742e+114
-8.08368e+114
-9.91514e+114
-1.03424e+115
-1.04047e+115
-9.12528e+114
-7.93876e+114
-4.29136e+114
-1.80791e+114
1.48452e+114
5.79383e+114
9.22936e+114
1.1265e+115
1.33736e+115
1.58701e+115
1.92152e+115
1.93558e+115
1.4598e+115
9.45468e+114
2.75e+114
6.42405e+113
-4.62912e+113
3.65397e+114
1.15803e+115
8.70185e+114
-2.60259e+114
-8.41772e+114
-9.53751e+114
-1.21457e+115
-5.3863e+114
-2.91876e+114
-7.71675e+113
-3.35665e+114
2.18043e+114
3.98467e+114
1.55885e+113
4.06402e+114
8.20138e+114
8.11721e+114
6.22399e+114
2.87409e+113
-2.59391e+114
-4.59183e+114
-8.93188e+114
-6.10461e+114
-3.73299e+114
-2.91998e+114
-1.89835e+114
-1.18615e+114
-1.0268e+114
-1.16218e+114
-1.47213e+114
-1.89754e+114
-2.39307e+114
-2.99455e+114
-3.85542e+114
-5.23333e+114
-7.53863e+114
-1.14049e+115
-1.78377e+115
-2.8533e+115
-4.6063e+115
-7.73719e+115
-1.16612e+116
-3.48432e+116
-5.04729e+116
5.16375e+117
2.87229e+118
7.65022e+118
1.18876e+119
4.18683e+113
4.72882e+113
4.07887e+113
4.57576e+113
4.50751e+113
1.33942e+113
-1.30795e+114
-3.12432e+114
-4.98098e+114
-6.23389e+114
-8.38515e+114
-1.01301e+115
-1.06812e+115
-1.07747e+115
-9.3615e+114
-7.93327e+114
-4.12533e+114
-1.46728e+114
2.07423e+114
6.51008e+114
1.00828e+115
1.2284e+115
1.44514e+115
1.69171e+115
2.02909e+115
2.03912e+115
1.52003e+115
9.3104e+114
2.32468e+114
4.42608e+113
-2.47484e+113
4.40784e+114
1.16852e+115
7.93318e+114
-2.95585e+114
-9.2982e+114
-1.0062e+115
-1.14092e+115
-5.02178e+114
-1.99482e+114
6.75332e+112
-2.78598e+114
3.37871e+114
4.49659e+114
9.13528e+113
5.20682e+114
9.43266e+114
8.63557e+114
5.92647e+114
-3.8315e+113
-2.82724e+114
-6.25405e+114
-1.05219e+115
-7.07074e+114
-4.50463e+114
-3.44144e+114
-2.15527e+114
-1.30395e+114
-1.09388e+114
-1.20225e+114
-1.50404e+114
-1.93126e+114
-2.41988e+114
-3.00175e+114
-3.83761e+114
-5.19628e+114
-7.5006e+114
-1.14006e+115
-1.79147e+115
-2.87714e+115
-4.63238e+115
-7.88292e+115
-1.10793e+116
-4.16847e+116
-2.21432e+116
7.27081e+117
3.39051e+118
8.0806e+118
1.15276e+119
3.94796e+113
4.40965e+113
4.25757e+113
5.60362e+113
5.66298e+113
1.08083e+113
-1.45617e+114
-3.41707e+114
-5.34737e+114
-6.52138e+114
-8.66275e+114
-1.03443e+115
-1.10107e+115
-1.11012e+115
-9.59261e+114
-7.92607e+114
-3.95013e+114
-1.11324e+114
2.6633e+114
7.23016e+114
1.09463e+115
1.3322e+115
1.5524e+115
1.79471e+115
2.13079e+115
2.13607e+115
1.57347e+115
9.15048e+114
1.97876e+114
2.61232e+113
6.83642e+112
5.08881e+114
1.16941e+115
7.1785e+114
-3.22809e+114
-1.00974e+115
-1.0751e+115
-1.04086e+115
-4.63809e+114
-1.10554e+114
7.01299e+113
-2.09155e+114
4.51366e+114
5.08518e+114
1.81931e+114
6.25372e+114
1.06249e+115
9.03408e+114
5.51068e+114
-7.11793e+113
-3.09477e+114
-7.88411e+114
-1.22068e+115
-8.07107e+114
-5.26439e+114
-3.98525e+114
-2.40419e+114
-1.42352e+114
-1.16707e+114
-1.2455e+114
-1.53818e+114
-1.96806e+114
-2.44822e+114
-3.00631e+114
-3.8117e+114
-5.14532e+114
-7.44256e+114
-1.13697e+115
-1.79546e+115
-2.89577e+115
-4.64764e+115
-7.99468e+115
-1.10044e+116
-4.77718e+116
2.45069e+116
9.77879e+117
3.94178e+118
8.54077e+118
1.12343e+119
3.71276e+113
4.03792e+113
4.36423e+113
6.63464e+113
6.9941e+113
1.18281e+113
-1.56975e+114
-3.66399e+114
-5.6377e+114
-6.77958e+114
-8.91921e+114
-1.05593e+115
-1.13384e+115
-1.13962e+115
-9.82344e+114
-7.91888e+114
-3.77169e+114
-7.59002e+113
3.24798e+114
7.9504e+114
1.18154e+115
1.43683e+115
1.65839e+115
1.89647e+115
2.22599e+115
2.22411e+115
1.62103e+115
8.99823e+114
1.72048e+114
1.36653e+113
4.90452e+113
5.73361e+114
1.15784e+115
6.43871e+114
-3.50187e+114
-1.08362e+115
-1.15934e+115
-9.46568e+114
-4.18717e+114
-1.48571e+113
1.05808e+114
-1.21553e+114
5.72051e+114
5.97612e+114
2.93671e+114
7.14744e+114
1.16634e+115
9.25116e+114
5.26496e+114
-7.8422e+113
-3.58926e+114
-9.43398e+114
-1.40262e+115
-9.06608e+114
-6.11108e+114
-4.55255e+114
-2.64041e+114
-1.54278e+114
-1.24599e+114
-1.2908e+114
-1.57308e+114
-2.00664e+114
-2.4763e+114
-3.00571e+114
-3.77446e+114
-5.07655e+114
-7.3601e+114
-1.13074e+115
-1.79539e+115
-2.9085e+115
-4.65842e+115
-7.99623e+115
-1.17607e+116
-5.13589e+116
9.35685e+116
1.26996e+118
4.51568e+118
9.00549e+118
1.10427e+119
3.51699e+113
3.64802e+113
4.3789e+113
7.63207e+113
8.46185e+113
1.61168e+113
-1.64647e+114
-3.86123e+114
-5.85444e+114
-7.00573e+114
-9.155e+114
-1.07755e+115
-1.16532e+115
-1.16725e+115
-1.00499e+115
-7.913e+114
-3.59541e+114
-4.07795e+113
3.82519e+114
8.66672e+114
1.26899e+115
1.54127e+115
1.76288e+115
1.99887e+115
2.31789e+115
2.30111e+115
1.66417e+115
8.86959e+114
1.51453e+114
9.11843e+112
9.92447e+113
6.34059e+114
1.12837e+115
5.71871e+114
-3.85248e+114
-1.15082e+115
-1.2469e+115
-8.95818e+114
-3.59399e+114
9.31804e+113
1.3942e+114
-1.69937e+112
7.094e+114
7.12015e+114
4.15767e+114
8.20949e+114
1.25248e+115
9.28145e+114
5.48683e+114
-8.11122e+113
-4.46181e+114
-1.10502e+115
-1.57392e+115
-1.00124e+115
-7.21686e+114
-5.15509e+114
-2.87297e+114
-1.66801e+114
-1.33474e+114
-1.34118e+114
-1.61181e+114
-2.05068e+114
-2.50778e+114
-3.0032e+114
-3.72882e+114
-4.99296e+114
-7.25659e+114
-1.12177e+115
-1.79194e+115
-2.91536e+115
-4.67481e+115
-7.82973e+115
-1.38266e+116
-5.01768e+116
1.88892e+117
1.60346e+118
5.09564e+118
9.42963e+118
1.09732e+119
3.39084e+113
3.27429e+113
4.30402e+113
8.58106e+113
1.00481e+114
2.32805e+113
-1.68589e+114
-4.00453e+114
-6.00343e+114
-7.2006e+114
-9.37161e+114
-1.09934e+115
-1.19418e+115
-1.19358e+115
-1.02667e+115
-7.91198e+114
-3.4323e+114
-5.48494e+112
4.39219e+114
9.37597e+114
1.35728e+115
1.64555e+115
1.86608e+115
2.10248e+115
2.40972e+115
2.36997e+115
1.70472e+115
8.77752e+114
1.37726e+114
1.5565e+113
1.53312e+114
6.83745e+114
1.07668e+115
5.01599e+114
-4.20555e+114
-1.20218e+115
-1.32735e+115
-8.78802e+114
-2.84336e+114
1.99109e+114
1.77256e+114
1.54509e+114
8.62373e+114
8.2536e+114
5.32723e+114
9.38644e+114
1.32012e+115
9.37231e+114
5.77523e+114
-8.24707e+113
-5.47071e+114
-1.27569e+115
-1.73061e+115
-1.11302e+115