/*--------------------------------*- C++ -*----------------------------------*\
| =========                 |                                                 |
| \\      /  F ield         | OpenFOAM: The Open Source CFD Toolbox           |
|  \\    /   O peration     | Version:  4.1                                   |
|   \\  /    A nd           | Web:      www.OpenFOAM.org                      |
|    \\/     M anipulation  |                                                 |
\*---------------------------------------------------------------------------*/
FoamFile
{
    version     2.0;
    format      ascii;
    class       surfaceScalarField;
    location    "19";
    object      phi;
}
// * * * * * * * * * * * * * * * * * * * * * * * * * * * * * * * * * * * * * //

dimensions      [0 3 -1 0 0 0 0];

internalField   nonuniform List<scalar> 
13220
(
-8.68625e+57
8.99377e+57
-9.75467e+57
1.27334e+57
-4.27664e+57
-5.17475e+57
1.37967e+57
-5.47271e+57
2.03993e+57
-3.628e+56
-2.69158e+56
2.52228e+57
-1.26579e+57
1.24808e+57
-3.39965e+56
-7.26357e+56
2.22851e+57
-2.33718e+57
5.49182e+57
-3.0463e+57
8.25295e+57
-2.43399e+57
8.84045e+57
-5.36007e+56
8.41735e+57
8.02741e+56
6.3575e+57
2.81576e+57
6.38467e+57
-2.256e+57
1.18786e+58
-1.54483e+57
1.15358e+57
-7.67208e+56
-5.28147e+57
-5.60686e+57
-1.93409e+56
-1.1291e+58
5.75693e+57
-1.52777e+58
6.83327e+57
-1.7076e+58
3.54935e+57
-1.69885e+58
-3.52475e+56
-1.54956e+58
-3.24108e+57
-1.31225e+58
-4.86286e+57
-9.64013e+57
-5.58371e+57
-5.77799e+57
-3.58644e+57
-3.48581e+57
-6.48284e+56
-2.31745e+57
2.71485e+57
4.06686e+57
3.83652e+57
1.00682e+58
4.8085e+57
1.7979e+57
4.31438e+57
-3.69836e+57
3.93176e+57
9.51618e+56
5.84622e+57
4.48527e+57
8.49275e+57
4.83102e+57
1.03658e+58
2.46455e+57
1.10644e+58
-2.33805e+56
1.11207e+58
-2.34776e+57
1.0909e+58
-4.0639e+57
1.0436e+58
-4.56157e+57
9.43523e+57
-2.85442e+57
8.24877e+57
5.07925e+56
4.79256e+57
6.17093e+57
8.88623e+57
6.02927e+57
7.6488e+57
6.33613e+57
4.48326e+57
5.40838e+57
1.17707e+56
9.68669e+57
-1.3739e+57
1.71753e+58
-1.10212e+57
2.49182e+58
-1.41019e+57
3.13664e+58
-2.29875e+57
3.45759e+58
-2.09449e+57
3.43593e+58
-4.43631e+56
3.05384e+58
1.21901e+57
2.35786e+58
3.18397e+57
1.6248e+58
6.06408e+57
9.43038e+57
8.84759e+57
4.57257e+57
1.28514e+58
1.34851e+58
8.70094e+57
6.17408e+57
1.34598e+58
4.91189e+57
1.69948e+58
2.31627e+57
1.99776e+58
8.34093e+56
2.39642e+58
-2.59117e+55
2.69221e+58
-8.52795e+56
2.90561e+58
-1.58827e+57
2.88687e+58
-5.57424e+55
2.56753e+58
4.36388e+57
1.99822e+58
8.21999e+57
1.51082e+58
9.83508e+57
1.02735e+58
1.17062e+58
5.62339e+57
1.50831e+58
2.59232e+57
1.78567e+58
1.61494e+58
8.69259e+57
7.34817e+57
1.36591e+58
8.10153e+57
1.93707e+58
5.96776e+57
2.2871e+58
5.10842e+57
2.48223e+58
5.37604e+57
2.2701e+58
5.89321e+57
1.90753e+58
6.11213e+57
1.40111e+58
7.32405e+57
9.96512e+57
1.09203e+58
5.9265e+57
1.44517e+58
2.22169e+57
1.56913e+58
1.54497e+57
1.68207e+58
1.58257e+57
1.95009e+58
3.68358e+57
2.11781e+58
1.99045e+58
7.41406e+57
1.53985e+58
8.94362e+57
1.82994e+58
1.09545e+58
1.7002e+58
1.10842e+58
1.64502e+58
1.05209e+58
1.66291e+58
7.31066e+57
1.67703e+58
2.82615e+57
1.65672e+58
-2.12334e+57
1.58678e+58
-4.36169e+57
1.56884e+58
-4.40096e+57
1.67686e+58
-4.6233e+57
1.81002e+58
-4.0725e+57
1.92255e+58
-1.6311e+57
2.10753e+58
3.10547e+57
2.14784e+58
2.30768e+58
2.66658e+58
1.06972e+58
3.60185e+58
2.21861e+58
4.55351e+58
2.23668e+58
5.20531e+58
2.27722e+58
5.76251e+58
2.44109e+58
5.71174e+58
2.70447e+58
5.42384e+58
2.93803e+58
4.65468e+58
3.04106e+58
3.71505e+58
3.0886e+58
2.60838e+58
3.09855e+58
1.67233e+58
3.0004e+58
1.31102e+58
2.55074e+58
1.40809e+58
2.3328e+58
8.47357e+57
3.14305e+58
3.17272e+58
-5.11056e+56
4.25115e+58
-1.13588e+58
5.07982e+58
-2.73005e+58
5.39736e+58
-4.57954e+58
5.72972e+58
-6.56539e+58
6.1079e+58
-8.65459e+58
6.18598e+58
-1.03103e+59
5.50314e+58
-1.09567e+59
4.35977e+58
-1.03946e+59
2.98503e+58
-8.12326e+58
1.42313e+58
-4.6612e+58
-1.13764e+57
1.95521e+57
-1.27658e+58
4.37655e+58
-8.30167e+57
5.21718e+58
3.343e+58
8.39025e+58
-6.65109e+58
1.28766e+59
-1.28898e+59
1.27921e+59
-1.87158e+59
1.26197e+59
-2.43214e+59
1.24e+59
-2.91742e+59
1.19075e+59
-3.30251e+59
1.07437e+59
-3.56022e+59
8.79447e+58
-3.69319e+59
6.16012e+58
-3.66157e+59
3.23034e+58
-3.52319e+59
3.31546e+57
-3.20692e+59
-2.84816e+58
-2.7538e+59
-5.90529e+58
-1.97718e+59
-8.57839e+58
-8.39421e+58
-7.98364e+58
2.18016e+56
-5.09067e+57
1.48997e+59
-2.48165e+58
1.57524e+59
-5.03537e+58
1.60969e+59
-8.01767e+58
1.59112e+59
-1.01928e+59
1.4606e+59
-1.16648e+59
1.24188e+59
-1.24238e+59
9.75786e+58
-1.33974e+59
7.13892e+58
-1.52161e+59
4.99576e+58
-1.80179e+59
3.57306e+58
-2.27934e+59
1.40643e+58
-2.42471e+59
-2.3704e+58
-2.57355e+59
-5.63217e+58
-2.49783e+59
-7.09221e+58
-2.49919e+59
-7.19238e+58
2.25939e+59
-1.60584e+59
2.43173e+59
-2.44489e+59
2.48171e+59
-2.90562e+59
1.99493e+59
-2.81064e+59
1.33947e+59
-2.44475e+59
7.8452e+58
-1.87658e+59
3.13727e+58
-1.22074e+59
-7.79837e+57
-4.82188e+58
-3.84453e+58
3.19241e+58
-6.80677e+58
1.19418e+59
-8.10386e+58
1.14177e+59
-6.04501e+58
7.0531e+58
-4.87492e+58
8.8497e+57
-3.97281e+58
-2.40547e+59
-1.92858e+59
3.93913e+59
-1.55066e+59
1.70863e+59
5.88725e+58
7.14285e+57
3.69974e+59
-1.38443e+59
6.90018e+59
-1.99144e+59
9.7839e+59
-2.23347e+59
1.2266e+60
-2.22676e+59
1.41543e+60
-2.03171e+59
1.53844e+60
-1.65121e+59
1.58063e+60
-1.08242e+59
1.52155e+60
-2.96475e+58
1.41301e+60
7.21107e+58
1.18762e+60
1.94875e+59
7.98894e+59
3.70262e+59
5.57096e+59
9.20048e+59
-5.55156e+59
1.76924e+60
-7.01586e+59
2.31034e+60
-5.48026e+59
2.65585e+60
-5.0084e+59
2.89364e+60
-4.50276e+59
3.05937e+60
-4.04207e+59
3.15815e+60
-3.35015e+59
3.20762e+60
-2.6742e+59
3.19273e+60
-1.62699e+59
3.12057e+60
-5.74417e+58
2.98659e+60
9.55356e+58
2.72223e+60
2.90682e+59
2.28137e+60
5.87345e+59
1.40738e+60
1.18699e+60
1.96365e+60
-3.62132e+60
-5.04668e+60
-6.1133e+60
-6.70909e+60
-7.27524e+60
-7.55385e+60
-7.79847e+60
-7.8351e+60
-7.70208e+60
-7.49102e+60
-6.93915e+60
-6.31414e+60
-5.23037e+60
-3.69443e+60
-1.21994e+58
-7.7324e+60
7.71726e+60
-7.73627e+60
-7.74121e+60
-7.74279e+60
-1.93615e+60
-5.80804e+60
-1.93702e+60
-1.93875e+60
-1.93884e+60
5.19743e+60
-7.13723e+60
5.19711e+60
5.19618e+60
1.27873e+61
-7.59111e+60
1.27864e+61
1.27862e+61
1.27853e+61
2.03448e+61
-7.55948e+60
2.0344e+61
2.03441e+61
2.72596e+61
-6.91627e+60
2.72596e+61
2.72587e+61
2.72588e+61
3.34489e+61
-6.19094e+60
3.34488e+61
3.3448e+61
3.34481e+61
3.88632e+61
-5.41578e+60
3.88629e+61
3.88622e+61
4.34184e+61
-4.55614e+60
4.34175e+61
4.34174e+61
4.34165e+61
4.73305e+61
-3.91391e+60
4.73295e+61
4.73297e+61
5.05279e+61
-3.19913e+60
5.05279e+61
5.05269e+61
5.05271e+61
5.32438e+61
-2.71764e+60
5.3244e+61
5.32428e+61
5.32433e+61
5.55342e+61
-2.29207e+60
5.55344e+61
5.5533e+61
5.73276e+61
-1.79392e+60
5.7326e+61
5.73264e+61
5.73249e+61
5.88378e+61
-1.51218e+60
5.88359e+61
5.88364e+61
5.88343e+61
6.00988e+61
-1.26388e+60
6.00967e+61
6.00975e+61
6.10261e+61
-9.30897e+59
6.10263e+61
6.10237e+61
6.10246e+61
6.18302e+61
-8.08434e+59
6.18298e+61
6.18268e+61
6.23958e+61
-5.68201e+59
6.23922e+61
6.23925e+61
6.2389e+61
6.29215e+61
-5.31196e+59
6.29173e+61
6.29183e+61
6.29136e+61
6.34224e+61
-5.06272e+59
6.34171e+61
6.34232e+61
6.39196e+61
-5.00564e+59
6.39266e+61
6.39248e+61
6.37079e+61
6.31381e+61
6.27055e+61
6.15884e+61
7.7817e+59
6.13656e+61
6.12498e+61
6.11675e+61
6.10925e+61
6.10287e+61
6.09762e+61
6.09335e+61
6.08596e+61
5.99317e+61
8.44026e+59
5.98007e+61
5.96966e+61
5.96135e+61
5.95337e+61
5.94658e+61
5.94061e+61
5.93591e+61
5.93017e+61
5.81114e+61
1.11583e+60
5.79946e+61
5.78988e+61
5.78199e+61
5.7752e+61
5.7691e+61
5.76375e+61
5.75904e+61
5.75543e+61
5.75095e+61
5.60842e+61
1.36766e+60
5.59927e+61
5.59213e+61
5.5865e+61
5.58202e+61
5.57814e+61
5.57501e+61
5.57266e+61
5.56967e+61
5.40334e+61
1.62151e+60
5.39614e+61
5.39081e+61
5.38729e+61
5.38465e+61
5.38306e+61
5.382e+61
5.38197e+61
5.38145e+61
5.19436e+61
1.85274e+60
5.18937e+61
5.18616e+61
5.1846e+61
5.18448e+61
5.18577e+61
5.18771e+61
5.19075e+61
5.19298e+61
4.98861e+61
2.05628e+60
4.98692e+61
4.98753e+61
4.98976e+61
4.99315e+61
4.99766e+61
5.00545e+61
5.01506e+61
5.02601e+61
5.03634e+61
4.82978e+61
2.15154e+60
4.83513e+61
4.84435e+61
4.8566e+61
4.87098e+61
4.88873e+61
4.91726e+61
4.97199e+61
5.03082e+61
4.91372e+61
1.74589e+60
4.96596e+61
5.03182e+61
5.03162e+61
4.89312e+61
1.38837e+60
4.72288e+61
1.6972e+60
4.72292e+61
4.57383e+61
1.48555e+60
4.5738e+61
4.4457e+61
1.27588e+60
4.29067e+61
1.54949e+60
4.29024e+61
4.15793e+61
1.32041e+60
3.99819e+61
1.5932e+60
3.99801e+61
3.86135e+61
1.3631e+60
3.86116e+61
3.81419e+61
4.66193e+59
3.7837e+61
3.03099e+59
3.78344e+61
3.76624e+61
1.70044e+59
3.76603e+61
3.75011e+61
1.56604e+59
3.68527e+61
6.46513e+59
3.68511e+61
3.65612e+61
2.87948e+59
3.63547e+61
2.04796e+59
3.63534e+61
3.75574e+61
-1.20557e+60
3.75563e+61
4.07073e+61
-3.15266e+60
4.775e+61
-7.0433e+60
4.77488e+61
5.87138e+61
-1.09653e+61
5.87128e+61
6.68969e+61
-8.18434e+60
7.27829e+61
-5.8872e+60
7.27831e+61
7.61343e+61
-3.35228e+60
7.78931e+61
-1.75834e+60
7.78925e+61
7.73843e+61
5.08789e+59
7.73836e+61
7.41461e+61
3.2384e+60
6.90413e+61
5.10389e+60
6.90419e+61
6.07006e+61
8.34044e+60
6.07014e+61
4.9103e+61
1.15977e+61
3.52845e+61
1.38192e+61
3.52843e+61
1.72819e+61
1.80035e+61
-2.54807e+60
1.9831e+61
-2.54426e+60
-2.66201e+61
2.40747e+61
-2.66187e+61
-5.71383e+61
3.05192e+61
-9.33096e+61
3.61726e+61
-9.33098e+61
-1.34582e+62
4.12729e+61
-1.34582e+62
-1.81957e+62
4.73767e+61
-2.31324e+62
4.9366e+61
-2.31323e+62
-2.86942e+62
5.56197e+61
-3.42451e+62
5.55098e+61
-3.42451e+62
-4.02675e+62
6.0225e+61
-4.02675e+62
-4.68213e+62
6.55382e+61
-5.30529e+62
6.23168e+61
-5.30529e+62
-5.97908e+62
6.73789e+61
-5.97907e+62
-6.71107e+62
7.32e+61
-7.38346e+62
6.72394e+61
-7.38345e+62
-8.14412e+62
7.60669e+61
-8.82448e+62
6.80369e+61
-8.82448e+62
-9.57952e+62
7.55042e+61
-9.57952e+62
9.31616e+61
-6.33569e+59
-5.54412e+59
-5.77495e+59
-6.10794e+59
-5.29947e+59
-5.71049e+59
-4.41162e+59
-4.06644e+59
-5.30127e+59
-5.65828e+59
-5.76841e+59
-7.96548e+59
-5.72743e+59
-8.96637e+59
-6.1429e+59
-3.99074e+59
-5.44631e+59
1.71404e+60
-5.41393e+59
2.56126e+60
-5.69311e+59
2.82538e+60
-1.90369e+59
7.05133e+60
-4.72023e+59
1.85606e+60
-3.98874e+59
1.52771e+60
-4.06602e+59
1.64688e+60
-4.07025e+59
1.35203e+60
-4.09108e+59
1.26102e+60
-4.15225e+59
-2.5377e+59
-4.44015e+59
2.68079e+59
-3.59401e+59
1.81791e+60
-3.11181e+59
1.80487e+60
-3.80682e+59
-5.70683e+60
-3.11659e+59
-6.43116e+60
-3.56201e+59
-2.61427e+60
-1.32721e+59
1.41745e+60
-4.35494e+59
-6.55415e+60
-2.41421e+59
-2.27634e+60
-9.30033e+58
2.35116e+60
-2.59111e+59
-4.51873e+60
-2.37467e+58
5.61753e+59
1.41132e+59
5.83649e+60
4.32623e+59
5.77809e+60
1.50715e+59
4.72364e+60
1.38993e+59
1.19561e+60
1.91418e+59
3.04079e+59
-2.27929e+59
3.49045e+60
4.91452e+59
6.88492e+60
1.57317e+59
-2.24284e+59
8.44636e+57
2.15059e+60
-1.38334e+59
2.16942e+60
1.28097e+58
-5.23042e+59
3.39435e+59
1.19016e+60
8.00566e+59
8.9715e+59
-8.53746e+59
-8.5934e+60
1.13388e+59
-1.2805e+60
8.60784e+58
2.03886e+60
2.33013e+59
4.02325e+60
3.18347e+59
4.32144e+60
2.17787e+59
2.72957e+60
1.5026e+59
-1.64057e+60
1.70592e+59
2.47498e+60
1.45937e+59
2.63136e+59
4.96062e+58
1.44918e+60
3.51146e+56
1.35847e+60
1.25781e+56
1.52523e+60
3.82213e+57
1.62202e+60
4.94162e+57
1.62739e+60
5.78383e+57
1.71426e+60
7.34119e+57
1.93536e+60
8.10696e+57
2.1833e+60
8.66566e+57
2.43798e+60
9.74012e+57
2.70455e+60
1.17754e+58
3.00226e+60
1.51404e+58
3.3573e+60
2.00237e+58
3.81073e+60
2.65826e+58
4.40243e+60
3.48659e+58
5.18491e+60
4.46748e+58
6.20649e+60
5.49566e+58
7.5249e+60
6.24155e+58
9.17423e+60
5.4713e+58
1.11369e+61
2.3912e+57
1.32548e+61
-2.06249e+59
1.42769e+61
-9.37826e+59
1.09252e+61
-3.07907e+60
1.69986e+61
-9.41004e+60
6.12064e+61
-2.63999e+61
1.86937e+62
-5.99295e+61
4.54928e+62
8.78417e+62
-6.9866e+59
-5.13473e+59
-6.73165e+59
-6.3629e+59
-6.21573e+59
-6.22642e+59
-5.44385e+59
-4.83832e+59
-6.19561e+59
-4.90652e+59
-5.80376e+59
-8.35733e+59
-5.27899e+59
-9.49115e+59
-6.77507e+59
-2.49467e+59
-5.82372e+59
1.61891e+60
-5.21165e+59
2.50005e+60
-5.21899e+59
2.82612e+60
-8.66376e+57
6.53809e+60
-3.0603e+59
2.15342e+60
-4.12854e+59
1.63453e+60
-4.92768e+59
1.7268e+60
-4.86397e+59
1.34565e+60
-7.84724e+59
1.55934e+60
-7.0521e+59
-3.33302e+59
-7.32466e+59
2.95322e+59
-5.42582e+59
1.62802e+60
-1.9036e+59
1.45264e+60
-5.93131e+59
-5.30408e+60
-4.08979e+59
-6.61534e+60
-5.64829e+59
-2.45844e+60
7.93881e+58
7.73224e+59
-3.40517e+59
-6.13425e+60
-2.72354e+59
-2.3445e+60
-6.41723e+58
2.14297e+60
-1.2643e+59
-4.45648e+60
6.20137e+59
-1.84813e+59
1.85673e+59
6.27093e+60
3.42108e+59
5.62165e+60
-1.2358e+59
5.18931e+60
9.16745e+58
9.80342e+59
4.03116e+59
-7.37027e+57
-3.64641e+59
4.25819e+60
5.01226e+59
6.01903e+60
-5.81194e+58
3.35047e+59
-9.28806e+58
2.18533e+60
-1.51251e+57
2.07804e+60
-2.8036e+59
-2.44242e+59
3.04064e+59
6.05636e+59
7.43756e+59
4.57347e+59
-1.4059e+60
-6.44374e+60
2.01214e+58
-2.70771e+60
1.8347e+59
1.87521e+60
3.20878e+59
3.88566e+60
4.08573e+59
4.23358e+60
2.89881e+59
2.84782e+60
1.91979e+59
-1.54268e+60
5.04721e+59
2.16152e+60
-9.47392e+58
8.61755e+59
-1.98637e+59
1.55201e+60
-1.10895e+59
1.27003e+60
-8.34422e+58
1.49684e+60
-5.4903e+58
1.59274e+60
-2.8913e+58
1.60051e+60
-4.87671e+57
1.68943e+60
1.32941e+58
1.9164e+60
2.36651e+58
2.17228e+60
2.74202e+58
2.43355e+60
2.76937e+58
2.70372e+60
2.76929e+58
3.00164e+60
3.00627e+58
3.35444e+60
3.59921e+58
3.80429e+60
4.59294e+58
4.39213e+60
5.96297e+58
5.17084e+60
7.6604e+58
6.18928e+60
9.51458e+58
7.50602e+60
1.09962e+59
9.15921e+60
1.05772e+59
1.11408e+61
3.35474e+58
1.33268e+61
-2.41894e+59
1.4552e+61
-9.96984e+59
1.16798e+61
-2.9456e+60
1.89469e+61
-9.08333e+60
6.73442e+61
-2.70466e+61
2.049e+62
-6.12176e+61
4.89099e+62
8.92704e+62
-7.33419e+59
-4.70036e+59
-7.02674e+59
-6.67034e+59
-6.60247e+59
-6.65069e+59
-6.13937e+59
-5.30142e+59
-6.54402e+59
-4.50186e+59
-6.28033e+59
-8.62102e+59
-5.66099e+59
-1.01105e+60
-6.91098e+59
-1.24467e+59
-5.98008e+59
1.52582e+60
-5.09783e+59
2.41183e+60
-4.94252e+59
2.81059e+60
-8.04132e+58
6.12426e+60
-3.24457e+59
2.39746e+60
-4.22719e+59
1.73279e+60
-4.75777e+59
1.77985e+60
-4.62003e+59
1.33187e+60
-6.40792e+59
1.73813e+60
-6.8939e+59
-2.84703e+59
-7.44354e+59
3.50285e+59
-5.69117e+59
1.45278e+60
-2.46039e+59
1.12956e+60
-6.07143e+59
-4.94298e+60
-4.67848e+59
-6.75464e+60
-5.98386e+59
-2.3279e+60
1.57318e+57
1.73265e+59
-2.83674e+59
-5.84899e+60
-2.46681e+59
-2.38149e+60
-7.98155e+58
1.9761e+60
-2.96765e+58
-4.50661e+60
7.64906e+59
-9.79382e+59
2.06303e+59
6.82952e+60
3.43384e+59
5.48457e+60
5.36761e+58
5.47902e+60
7.98473e+58
9.54188e+59
3.05964e+59
-2.33469e+59
-1.93531e+59
4.75769e+60
3.60472e+59
5.46507e+60
-5.54745e+58
7.51e+59
-9.26837e+58
2.22254e+60
5.82969e+58
1.92706e+60
-2.05602e+59
1.96667e+58
2.5828e+59
1.41744e+59
5.28131e+59
1.87547e+59
-1.49194e+60
-4.42239e+60
-9.80395e+58
-4.1022e+60
1.76933e+59
1.6002e+60
3.17578e+59
3.74498e+60
4.21803e+59
4.12936e+60
3.15388e+59
2.95433e+60
2.30812e+59
-1.4578e+60
5.00615e+59
1.89171e+60
-2.62602e+58
1.38863e+60
-1.4866e+59
1.6746e+60
-9.2772e+58
1.21435e+60
-8.33606e+58
1.48752e+60
-5.92319e+58
1.5689e+60
-3.37742e+58
1.57529e+60
-8.20131e+57
1.66426e+60
1.2312e+58
1.89624e+60
2.47988e+58
2.16023e+60
3.02579e+58
2.42845e+60
3.1857e+58
2.70255e+60
3.30159e+58
3.00082e+60
3.66907e+58
3.35121e+60
4.43581e+58
3.79699e+60
5.66752e+58
4.38027e+60
7.35077e+58
5.15438e+60
9.43626e+58
6.16889e+60
1.17309e+59
7.48341e+60
1.36407e+59
9.14057e+60
1.33763e+59
1.11438e+61
5.84239e+58
1.34027e+61
-2.21336e+59
1.48321e+61
-9.30667e+59
1.23899e+61
-2.68325e+60
2.07001e+61
-9.26755e+60
7.39288e+61
-2.91375e+61
2.2477e+62
-6.28815e+61
5.22843e+62
8.9786e+62
-7.5814e+59
-4.24546e+59
-7.25334e+59
-6.9984e+59
-6.94061e+59
-6.96342e+59
-6.57813e+59
-5.6639e+59
-6.72316e+59
-4.35684e+59
-6.67359e+59
-8.67059e+59
-6.07909e+59
-1.0705e+60
-6.88212e+59
-4.41643e+58
-6.00498e+59
1.4381e+60
-5.12542e+59
2.32387e+60
-5.02571e+59
2.80062e+60
-1.54433e+59
5.77612e+60
-3.4584e+59
2.58886e+60
-4.43071e+59
1.83002e+60
-4.67879e+59
1.80466e+60
-4.91117e+59
1.35511e+60
-5.96453e+59
1.84346e+60
-6.97507e+59
-1.83655e+59
-7.45877e+59
3.98649e+59
-5.81364e+59
1.28826e+60
-2.8217e+59
8.30358e+59
-5.71164e+59
-4.65399e+60
-5.22991e+59
-6.80283e+60
-6.08651e+59
-2.24225e+60
-5.04211e+58
-3.84971e+59
-2.48732e+59
-5.65068e+60
-2.15933e+59
-2.41428e+60
-6.83619e+58
1.82853e+60
8.52914e+57
-4.5835e+60
3.70224e+59
-1.34107e+60
1.09019e+59
7.09071e+60
2.82881e+59
5.3107e+60
1.35271e+59
5.62662e+60
5.70315e+58
1.03242e+60
1.07988e+59
-2.84429e+59
-1.81761e+58
4.88384e+60
2.54559e+59
5.19233e+60
-6.78213e+58
1.07338e+60
-1.00174e+59
2.25489e+60
6.95373e+58
1.75734e+60
-1.77497e+59
2.66687e+59
2.2614e+59
-2.61941e+59
4.25994e+59
-1.2372e+58
-1.2638e+60
-2.73248e+60
-2.65197e+59
-5.10184e+60
1.70062e+59
1.16474e+60
3.08228e+59
3.60671e+60
4.22252e+59
4.0153e+60
3.45886e+59
3.03053e+60
2.56696e+59
-1.36854e+60
4.71816e+59
1.67631e+60
3.46729e+58
1.82554e+60
-1.05567e+59
1.8147e+60
-8.50315e+58
1.19378e+60
-7.54915e+58
1.47788e+60
-5.42028e+58
1.54777e+60
-3.062e+58
1.55185e+60
-5.51962e+57
1.63946e+60
1.52529e+58
1.87579e+60
2.79991e+58
2.14792e+60
3.36813e+58
2.42318e+60
3.56445e+58
2.70109e+60
3.74799e+58
2.99941e+60
4.22782e+58
3.34694e+60
5.16285e+58
3.78812e+60
6.62572e+58
4.36621e+60
8.60948e+58
5.13506e+60
1.10663e+59
6.14493e+60
1.37965e+59
7.45657e+60
1.61822e+59
9.11729e+60
1.63203e+59
1.11429e+61
9.32741e+58
1.34732e+61
-1.69451e+59
1.50953e+61
-8.09977e+59
1.30313e+61
-2.43753e+60
2.23283e+61
-9.93062e+60
8.14222e+61
-3.21585e+61
2.46998e+62
-6.62962e+61
5.56981e+62
9.07631e+62
-7.82712e+59
-3.77764e+59
-7.44741e+59
-7.3781e+59
-7.14596e+59
-7.26488e+59
-6.80069e+59
-6.00917e+59
-6.67543e+59
-4.48209e+59
-6.80504e+59
-8.54098e+59
-6.54427e+59
-1.09657e+60
-7.03403e+59
4.81181e+57
-6.08936e+59
1.34364e+60
-5.14429e+59
2.22937e+60
-5.05585e+59
2.79177e+60
-2.21013e+59
5.49155e+60
-3.70232e+59
2.73808e+60
-4.55222e+59
1.91501e+60
-4.66336e+59
1.81577e+60
-5.13696e+59
1.40247e+60
-5.98566e+59
1.92833e+60
-7.14327e+59
-6.78904e+58
-7.47901e+59
4.32225e+59
-5.93387e+59
1.13375e+60
-3.16557e+59
5.53529e+59
-5.39902e+59
-4.43064e+60
-5.84725e+59
-6.758e+60
-6.12705e+59
-2.21426e+60
-8.80559e+58
-9.09618e+59
-2.40519e+59
-5.49821e+60
-1.76555e+59
-2.47824e+60
-1.94555e+58
1.67144e+60
3.60029e+58
-4.63896e+60
-1.35617e+57
-1.3037e+60
5.08034e+58
7.03856e+60
2.10642e+59
5.15086e+60
1.80058e+59
5.65721e+60
4.31137e+58
1.16938e+60
-6.72816e+58
-1.74015e+59
4.75846e+59
4.34073e+60
1.92904e+59
5.47531e+60
-9.02234e+58
1.35652e+60
-1.20335e+59
2.285e+60
9.21132e+58
1.5449e+60
-1.60565e+59
5.19382e+59
1.97206e+59
-6.19689e+59
3.39242e+59
-1.54311e+59
-4.74022e+59
-1.91844e+60
-2.03008e+59
-5.37268e+60
1.70364e+59
7.91418e+59
2.98308e+59
3.47878e+60
4.23171e+59
3.89051e+60
3.77449e+59
3.07651e+60
2.82205e+59
-1.27306e+60
4.40741e+59
1.51801e+60
7.59477e+58
2.19057e+60
-6.33999e+58
1.95449e+60
-8.01532e+58
1.21091e+60
-7.11815e+58
1.4693e+60
-5.06118e+58
1.52779e+60
-2.765e+58
1.52946e+60
-2.18513e+57
1.61475e+60
1.92194e+58
1.85509e+60
3.22057e+58
2.13571e+60
3.78502e+58
2.41821e+60
3.98432e+58
2.69983e+60
4.20803e+58
2.99781e+60
4.78422e+58
3.34189e+60
5.88205e+58
3.77777e+60
7.578e+58
4.34995e+60
9.86973e+58
5.11274e+60
1.27136e+59
6.11717e+60
1.59152e+59
7.4251e+60
1.88717e+59
9.08838e+60
1.96988e+59
1.11351e+61
1.39237e+59
1.35317e+61
-9.29711e+58
1.53281e+61
-6.53826e+59
1.35931e+61
-2.27029e+60
2.39456e+61
-1.12158e+61
9.03681e+61
-3.61407e+61
2.71924e+62
-6.96699e+61
5.90511e+62
9.05201e+62
-8.12113e+59
-3.30891e+59
-7.71569e+59
-7.78354e+59
-7.37666e+59
-7.60391e+59
-6.97524e+59
-6.41059e+59
-6.60382e+59
-4.85352e+59
-6.67788e+59
-8.46692e+59
-6.73368e+59
-1.09099e+60
-7.19168e+59
5.06109e+58
-6.30883e+59
1.25535e+60
-5.2628e+59
2.12477e+60
-5.12327e+59
2.77782e+60
-2.79756e+59
5.25898e+60
-3.95108e+59
2.85343e+60
-4.66689e+59
1.98659e+60
-4.70023e+59
1.8191e+60
-5.31904e+59
1.46435e+60
-6.04849e+59
2.00128e+60
-7.2855e+59
5.58074e+58
-7.51542e+59
4.55214e+59
-6.06894e+59
9.89097e+59
-3.47308e+59
2.9394e+59
-5.13313e+59
-4.26464e+60
-6.3533e+59
-6.63599e+60
-6.1538e+59
-2.23422e+60
-1.18166e+59
-1.40684e+60
-2.40404e+59
-5.37597e+60
-9.44073e+58
-2.62424e+60
9.5242e+58
1.48179e+60
5.61446e+58
-4.59986e+60
-7.67986e+58
-1.17075e+60
1.62683e+58
6.94549e+60
1.49682e+59
5.01744e+60
2.04081e+59
5.60281e+60
3.91488e+58
1.33431e+60
-6.99596e+58
-6.49111e+58
5.946e+59
3.67617e+60
7.31993e+58
5.99671e+60
-1.30489e+59
1.56022e+60
-1.5049e+59
2.30499e+60
1.17278e+59
1.27713e+60
-1.16257e+59
7.5291e+59
1.72818e+59
-9.08788e+59
2.66083e+59
-2.47616e+59
-2.25295e+59
-1.42705e+60
-1.10881e+59
-5.48742e+60
1.69926e+59
5.10536e+59
2.82107e+59
3.36653e+60
4.18946e+59
3.75368e+60
4.02081e+59
3.09333e+60
3.25437e+59
-1.19634e+60
4.16318e+59
1.42705e+60
9.73594e+58
2.50951e+60
-2.96314e+58
2.08161e+60
-7.57654e+58
1.25717e+60
-6.78796e+58
1.46161e+60
-4.745e+58
1.50782e+60
-2.47573e+58
1.50724e+60
1.30753e+57
1.58936e+60
2.35129e+58
1.83358e+60
3.67733e+58
2.12327e+60
4.23062e+58
2.41345e+60
4.42071e+58
2.69877e+60
4.6742e+58
2.99601e+60
5.34296e+58
3.33604e+60
6.60651e+58
3.76592e+60
8.54402e+58
4.33144e+60
1.11579e+59
5.0874e+60
1.44122e+59
6.08549e+60
1.81301e+59
7.38865e+60
2.17601e+59
9.05291e+60
2.35507e+59
1.11179e+61
1.95122e+59
1.35729e+61
1.84169e+57
1.55222e+61
-4.69037e+59
1.40651e+61
-2.2533e+60
2.57306e+61
-1.31358e+61
1.01251e+62
-4.05811e+61
2.99369e+62
-7.32435e+61
6.23173e+62
9.05158e+62
-8.45574e+59
-2.85825e+59
-8.07172e+59
-8.16756e+59
-7.6967e+59
-7.97893e+59
-7.22805e+59
-6.87923e+59
-6.72547e+59
-5.3561e+59
-6.74602e+59
-8.44636e+59
-6.95292e+59
-1.0703e+60
-7.32239e+59
8.75584e+58
-6.50546e+59
1.17366e+60
-5.46263e+59
2.02049e+60
-5.26568e+59
2.75813e+60
-3.32325e+59
5.06475e+60
-4.20123e+59
2.94123e+60
-4.79658e+59
2.04613e+60
-4.80838e+59
1.82028e+60
-5.52354e+59
1.53587e+60
-6.16669e+59
2.06559e+60
-7.40935e+59
1.80078e+59
-7.55899e+59
4.7018e+59
-6.19607e+59
8.52807e+59
-3.77341e+59
5.16759e+58
-4.98309e+59
-4.14367e+60
-6.71921e+59
-6.46237e+60
-6.17226e+59
-2.28891e+60
-1.46787e+59
-1.87727e+60
-2.50311e+59
-5.27244e+60
1.81232e+59
-3.05577e+60
5.25172e+59
1.13787e+60
6.42563e+58
-4.13894e+60
-1.21227e+59
-9.8526e+59
-1.37313e+57
6.82564e+60
9.86001e+58
4.91747e+60
2.09849e+59
5.49157e+60
4.00882e+58
1.50409e+60
-1.14293e+59
8.94868e+58
5.4871e+59
3.01318e+60
-1.0413e+59
6.64962e+60
-1.9293e+59
1.64902e+60
-1.89018e+59
2.30109e+60
6.81218e+58
1.02001e+60
-4.74248e+58
8.68474e+59
1.58046e+59
-1.11422e+60
2.44434e+59
-3.33891e+59
-1.16743e+59
-1.06539e+60
-4.05044e+56
-5.60351e+60
1.69371e+59
3.40871e+59
2.60837e+59
3.27509e+60
4.09056e+59
3.60557e+60
4.17031e+59
3.08563e+60
3.86034e+59
-1.16517e+60
3.97524e+59
1.41588e+60
9.67835e+58
2.81053e+60
-5.96274e+57
2.18479e+60
-7.17298e+58
1.32329e+60
-6.50442e+58
1.45535e+60
-4.42193e+58
1.48759e+60
-2.14854e+58
1.48509e+60
5.27753e+57
1.56334e+60
2.8311e+58
1.81125e+60
4.17781e+58
2.11055e+60
4.7041e+58
2.40884e+60
4.86837e+58
2.69782e+60
5.14137e+58
2.99389e+60
5.90058e+58
3.32912e+60
7.33472e+58
3.75216e+60
9.52403e+58
4.31018e+60
1.24755e+59
5.05843e+60
1.61651e+59
6.04921e+60
2.04446e+59
7.34634e+60
2.48444e+59
9.00951e+60
2.78331e+59
1.10885e+61
2.58962e+59
1.35929e+61
1.07503e+59
1.56742e+61
-2.54868e+59
1.44283e+61
-2.46152e+60
2.79379e+61
-1.56918e+61
1.14481e+62
-4.54329e+61
3.2911e+62
-7.67378e+61
6.54478e+62
8.95799e+62
-8.81381e+59
-2.45107e+59
-8.48024e+59
-8.50113e+59
-8.07257e+59
-8.3866e+59
-7.53606e+59
-7.41574e+59
-6.95077e+59
-5.94139e+59
-6.91102e+59
-8.48613e+59
-7.20962e+59
-1.04044e+60
-7.44763e+59
1.11359e+59
-6.66561e+59
1.09546e+60
-5.69088e+59
1.92301e+60
-5.4396e+59
2.733e+60
-3.7845e+59
4.89924e+60
-4.44497e+59
3.00727e+60
-4.94219e+59
2.09585e+60
-4.9808e+59
1.82414e+60
-5.76142e+59
1.61393e+60
-6.35198e+59
2.12465e+60
-7.53895e+59
2.98773e+59
-7.61264e+59
4.77547e+59
-6.31932e+59
7.23474e+59
-4.06417e+59
-1.7384e+59
-4.94064e+59
-4.05602e+60
-6.96477e+59
-6.25996e+60
-6.17606e+59
-2.36778e+60
-1.74922e+59
-2.31996e+60
-2.79964e+59
-5.1674e+60
-3.07712e+58
-3.30497e+60
4.91386e+59
6.1571e+59
3.86281e+58
-3.68619e+60
-1.55971e+59
-7.90657e+59
-9.15359e+57
6.67883e+60
5.48788e+58
4.85344e+60
2.02201e+59
5.34424e+60
3.68087e+58
1.66947e+60
-1.47273e+59
2.73564e+59
4.10154e+59
2.45575e+60
-3.38852e+59
7.39865e+60
-2.61325e+59
1.5715e+60
-2.27144e+59
2.2669e+60
-1.10479e+58
8.03909e+59
1.38993e+58
8.43522e+59
1.48817e+59
-1.24914e+60
2.31596e+59
-4.16694e+59
-3.48847e+58
-7.98898e+59
1.05945e+59
-5.74449e+60
1.82273e+59
2.64546e+59
2.49009e+59
3.20829e+60
3.9136e+59
3.46327e+60
4.21546e+59
3.05547e+60
4.57899e+59
-1.20148e+60
3.81735e+59
1.49205e+60
7.57089e+58
3.11664e+60
4.65336e+57
2.25604e+60
-7.04051e+58
1.3985e+60
-6.3129e+58
1.44838e+60
-4.10367e+58
1.46604e+60
-1.78104e+58
1.46242e+60
9.7725e+57
1.53653e+60
3.36946e+58
1.78814e+60
4.73019e+58
2.09787e+60
5.21074e+58
2.4049e+60
5.32932e+58
2.69755e+60
5.60889e+58
2.9919e+60
6.45512e+58
3.32155e+60
8.06444e+58
3.73692e+60
1.05159e+59
4.2866e+60
1.38205e+59
5.02625e+60
1.79696e+59
6.00865e+60
2.28538e+59
7.29828e+60
2.81085e+59
8.95784e+60
3.24791e+59
1.10456e+61
3.29794e+59
1.35889e+61
2.09041e+59
1.57958e+61
-1.12676e+58
1.46498e+61
-2.97467e+60
3.0902e+61
-1.88885e+61
1.30396e+62
-5.05591e+61
3.60781e+62
-7.92311e+61
6.83151e+62
8.78885e+62
-9.18264e+59
-2.11766e+59
-8.92679e+59
-8.75698e+59
-8.48659e+59
-8.82681e+59
-7.89719e+59
-8.00513e+59
-7.25652e+59
-6.58206e+59
-7.15227e+59
-8.59037e+59
-7.48725e+59
-1.00695e+60
-7.59643e+59
1.22278e+59
-6.84118e+59
1.01993e+60
-5.95453e+59
1.83435e+60
-5.63225e+59
2.70077e+60
-4.17819e+59
4.75384e+60
-4.68337e+59
3.05779e+60
-5.108e+59
2.13831e+60
-5.21082e+59
1.83443e+60
-6.03e+59
1.69585e+60
-6.57564e+59
2.17921e+60
-7.67287e+59
4.08501e+59
-7.67948e+59
4.7821e+59
-6.4396e+59
5.99488e+59
-4.34854e+59
-3.82943e+59
-4.98275e+59
-3.99259e+60
-7.11938e+59
-6.04628e+60
-6.16773e+59
-2.46294e+60
-2.02821e+59
-2.73391e+60
-3.0775e+59
-5.06246e+60
-2.8117e+59
-3.33154e+60
1.55861e+59
1.78693e+59
-1.9806e+58
-3.51052e+60
-1.91984e+59
-6.18469e+59
1.61432e+57
6.48524e+60
1.64509e+58
4.8386e+60
1.84996e+59
5.1757e+60
2.85651e+58
1.82592e+60
-1.74076e+59
4.76221e+59
6.46431e+58
2.21705e+60
-5.21176e+59
7.98458e+60
-3.17529e+59
1.36786e+60
-2.61257e+59
2.21063e+60
-5.23521e+58
5.95023e+59
6.78234e+58
7.23365e+59
1.42741e+59
-1.32401e+60
2.02619e+59
-4.76444e+59
1.3912e+58
-6.09802e+59
2.0179e+59
-5.93208e+60
2.15095e+59
2.51376e+59
2.5136e+59
3.17208e+60
3.67364e+59
3.3474e+60
4.17785e+59
3.00532e+60
5.31638e+59
-1.31522e+60
3.64052e+59
1.65996e+60
3.76173e+58
3.44339e+60
1.64749e+57
2.29239e+60
-7.39671e+58
1.47442e+60
-6.25408e+58
1.43737e+60
-3.81159e+58
1.44215e+60
-1.3864e+58
1.43869e+60
1.47797e+58
1.50857e+60
3.96656e+58
1.76389e+60
5.33394e+58
2.08487e+60
5.74827e+58
2.40131e+60
5.79991e+58
2.69763e+60
6.07282e+58
2.98968e+60
7.0029e+58
3.31282e+60
8.79231e+58
3.71951e+60
1.15163e+59
4.25989e+60
1.51895e+59
4.98997e+60
1.98212e+59
5.96285e+60
2.53495e+59
7.2434e+60
3.15304e+59
8.89654e+60
3.74175e+59
1.09871e+61
4.06417e+59
1.35572e+61
3.09409e+59
1.58933e+61
2.50534e+59
1.47093e+61
-3.89055e+60
3.50435e+61
-2.2657e+61
1.49162e+62
-5.56551e+61
3.9378e+62
-8.15543e+61
7.0905e+62
8.62869e+62
-9.50464e+59
-1.92434e+59
-9.41099e+59
-8.85063e+59
-8.9269e+59
-9.31089e+59
-8.30794e+59
-8.62409e+59
-7.63269e+59
-7.25731e+59
-7.46249e+59
-8.76057e+59
-7.78817e+59
-9.74378e+59
-7.7705e+59
1.2051e+59
-7.03676e+59
9.4656e+59
-6.23838e+59
1.75451e+60
-5.84706e+59
2.66164e+60
-4.52119e+59
4.62125e+60
-4.92353e+59
3.09803e+60
-5.30015e+59
2.17597e+60
-5.48893e+59
1.8533e+60
-6.32492e+59
1.77945e+60
-6.82789e+59
2.22951e+60
-7.81406e+59
5.07117e+59
-7.76064e+59
4.72867e+59
-6.5623e+59
4.79654e+59
-4.63205e+59
-5.7597e+59
-5.08979e+59
-3.94682e+60
-7.21223e+59
-5.83404e+60
-6.15318e+59
-2.56885e+60
-2.3194e+59
-3.11729e+60
-3.39161e+59
-4.95524e+60
-3.56495e+59
-3.31421e+60
2.38892e+58
-2.01692e+59
-9.07824e+58
-3.39585e+60
-2.46276e+59
-4.62972e+59
2.39205e+58
6.21505e+60
-1.90523e+58
4.88157e+60
1.61577e+59
4.99507e+60
2.04841e+58
1.96701e+60
-2.18951e+59
7.15651e+59
-4.24264e+59
2.42236e+60
-5.90309e+59
8.15068e+60
-3.62099e+59
1.13964e+60
-2.84787e+59
2.13331e+60
-7.54934e+58
3.85729e+59
1.1426e+59
5.33609e+59
1.40627e+59
-1.35037e+60
1.76696e+59
-5.12527e+59
5.04992e+58
-4.83571e+59
2.90605e+59
-6.17222e+60
2.36855e+59
3.0517e+59
2.43674e+59
3.16521e+60
3.38019e+59
3.25316e+60
4.15667e+59
2.92776e+60
5.69551e+59
-1.4691e+60
3.33983e+59
1.89558e+60
-1.33709e+58
3.79091e+60
-1.21196e+58
2.29135e+60
-8.30957e+58
1.54554e+60
-6.37327e+58
1.41837e+60
-3.56804e+58
1.41465e+60
-9.76161e+57
1.41336e+60
2.02647e+58
1.47935e+60
4.62635e+58
1.73876e+60
5.99492e+58
2.07216e+60
6.32029e+58
2.39896e+60
6.28081e+58
2.69897e+60
6.53142e+58
2.98801e+60
7.54122e+58
3.30364e+60
9.51559e+58
3.70064e+60
1.25228e+59
4.23077e+60
1.65797e+59
4.95029e+60
2.17155e+59
5.91244e+60
2.79222e+59
7.18213e+60
3.50865e+59
8.82579e+60
4.25851e+59
1.09129e+61
4.87359e+59
1.34966e+61
4.16742e+59
1.59647e+61
4.86664e+59
1.46404e+61
-5.28834e+60
4.0819e+61
-2.69288e+61
1.70803e+62
-6.07062e+61
4.27557e+62
-8.34277e+61
7.31772e+62
8.39666e+62
-9.80146e+59
-1.90064e+59
-9.87516e+59
-8.77693e+59
-9.38088e+59
-9.80517e+59
-8.75587e+59
-9.2491e+59
-8.06486e+59
-7.94832e+59
-7.82965e+59
-8.99578e+59
-8.1094e+59
-9.46402e+59
-7.97161e+59
1.06733e+59
-7.25653e+59
8.75052e+59
-6.53442e+59
1.6823e+60
-6.09104e+59
2.61731e+60
-4.83406e+59
4.49556e+60
-5.17425e+59
3.13205e+60
-5.52644e+59
2.21119e+60
-5.80689e+59
1.88135e+60
-6.64101e+59
1.86286e+60
-7.10188e+59
2.2756e+60
-7.96521e+59
5.93453e+59
-7.85735e+59
4.62085e+59
-6.69577e+59
3.63498e+59
-4.91963e+59
-7.5358e+59
-5.24256e+59
-3.91452e+60
-7.26536e+59
-5.63175e+60
-6.13414e+59
-2.68196e+60
-2.61527e+59
-3.46917e+60
-3.69798e+59
-4.84696e+60
-3.95935e+59
-3.28807e+60
-5.95399e+58
-5.38076e+59
-1.75257e+59
-3.28013e+60
-3.36489e+59
-3.01731e+59
2.90977e+58