/*--------------------------------*- C++ -*----------------------------------*\
| =========                 |                                                 |
| \\      /  F ield         | OpenFOAM: The Open Source CFD Toolbox           |
|  \\    /   O peration     | Version:  4.1                                   |
|   \\  /    A nd           | Web:      www.OpenFOAM.org                      |
|    \\/     M anipulation  |                                                 |
\*---------------------------------------------------------------------------*/
FoamFile
{
    version     2.0;
    format      ascii;
    class       volScalarField;
    location    "24";
    object      p;
}
// * * * * * * * * * * * * * * * * * * * * * * * * * * * * * * * * * * * * * //

dimensions      [0 2 -2 0 0 0 0];

internalField   nonuniform List<scalar> 
6785
(
593.75
515.186
468.187
414.724
367.929
322.823
280.801
241.009
203.408
167.873
133.66
100.624
73.3108
45.2638
4.06999
-19.7099
-38.2082
-28.4776
-36.0703
-35.726
-38.5257
-39.4728
-40.2709
-40.0749
-38.9462
-36.8131
-33.8733
-29.2938
-24.6389
-22.7577
-16.2234
-21.384
-13.064
-18.5629
-15.786
-18.0279
-18.3411
-19.938
-21.3262
-23.1322
-25.0056
-26.7465
-27.4991
-27.357
-25.5175
-2.7532
-5.47341
-2.10132
-7.23923
-5.31338
-8.30379
-8.55597
-9.94552
-10.6355
-11.3218
-11.6226
-11.5825
-10.3275
-8.592
-5.33735
9.87962
9.52748
13.559
11.6526
15.8444
15.7564
18.3901
19.9572
22.0697
24.1713
26.4036
28.5953
31.0388
32.8706
35.2823
35.9031
36.7065
39.7752
38.7697
42.0691
41.8524
43.8982
44.4754
45.4434
45.9638
46.5571
47.3425
48.4432
49.2779
50.3136
48.6998
48.9969
50.6977
49.5786
51.6539
50.9032
52.1078
51.9302
52.2769
52.2455
52.2115
51.9222
51.3141
51.1997
50.7934
54.148
51.7676
52.8237
50.4848
51.3243
49.4741
49.4344
47.7978
46.4772
44.1465
41.5899
38.988
37.4331
36.7489
33.7931
17.411
12.1913
11.237
7.04323
5.51147
1.79757
-0.324875
-3.32562
-5.05996
-6.67219
-7.43921
-7.63624
-7.62561
-8.59695
-10.7732
-21.7849
-25.6266
-25.8407
-28.6311
-29.2537
-31.6258
-32.6044
-34.179
-34.8863
-35.6085
-36.1959
-36.7353
-37.2556
-37.6481
-35.8354
-19.3784
-19.2794
-18.0892
-18.6789
-17.6892
-18.0375
-17.6098
-17.7338
-17.6095
-17.538
-17.2059
-16.6356
-15.1632
-13.5847
-10.6214
2.32703
4.26419
5.88985
6.68573
8.35355
9.2707
10.6848
11.8536
13.1796
14.4831
15.9088
17.2914
18.8949
20.1467
21.8286
25.3922
26.5743
26.9529
27.0767
27.6731
27.6878
28.0498
28.2599
28.6025
28.9682
29.4465
29.9065
30.53
30.9642
31.6717
31.4064
33.8118
33.1749
32.5724
32.3785
32.3088
32.6426
32.9377
33.3933
33.7769
34.1171
34.2985
34.4431
34.4054
34.3769
82.338
80.3996
74.2114
65.9195
59.6771
54.2557
48.6223
44.0698
40.1897
36.7218
33.82
31.524
29.2858
27.7315
24.8658
37.5783
38.053
38.4504
38.42
38.5931
39.2122
39.9918
39.8042
39.716
39.6456
40.3044
39.7243
39.6266
39.9505
39.1151
38.9054
39.0622
39.2506
37.8221
38.4358
38.5162
37.1646
36.9877
37.8137
37.8483
36.4085
36.3059
37.2142
37.6856
35.9174
37.1436
37.7141
36.3835
36.3721
37.3874
38.1195
36.7502
37.7972
38.5272
37.6564
37.7016
38.5335
39.0784
38.4709
38.5298
39.1587
39.4782
38.9518
39.505
39.6781
39.4139
39.5048
39.8484
40.3256
40.2023
40.254
40.4057
41.1923
41.0932
41.2216
41.3642
41.3442
41.4253
41.3521
41.8267
42.2227
43.1847
41.6435
40.1119
42.01
44.0851
34.6321
30.7198
35.6565
40.7393
10.6277
24.065
32.1668
-22.3312
-5.38994
3.22879
0.476321
5.30496
-3.99792
-0.189539
4.32092
4.27876
4.86835
5.42547
5.95437
5.83702
9.05382
11.2821
5.70981
7.88079
8.74326
10.2805
11.1767
12.0048
12.0724
14.7079
21.7291
13.5848
15.1707
14.4756
15.2481
17.0592
17.8947
17.5102
16.8523
16.5636
25.5417
19.0458
18.7669
17.6043
16.151
16.2675
17.2761
15.8492
12.0986
16.6037
17.7614
18.6185
18.1945
16.376
14.9828
13.3897
14.4402
10.9337
11.8539
22.6962
19.6128
20.3797
20.2759
18.539
17.1353
15.7501
9.5928
13.5725
24.801
19.4893
17.5861
14.2868
12.081
9.91746
8.42272
7.07322
3.41571
-1.01122
13.4233
8.93308
8.65187
7.20135
5.22669
-0.657737
-2.36835
0.320234
-11.9004
5.81097
2.47468
0.445026
7.32252
4.59916
7.28632
7.8307
8.86032
10.3239
10.2598
10.8078
11.0841
11.2425
11.3198
11.2371
11.2706
11.0091
11.0609
10.7034
10.2834
10.2315
9.69288
10.1289
9.47912
8.61743
9.60413
8.61575
8.01378
8.16182
7.42198
8.63526
7.493
6.79188
7.07175
6.26531
7.5653
6.65276
5.31902
7.01154
6.05853
4.97291
5.53583
4.59915
5.95434
5.13418
4.06694
4.64692
3.75688
5.0066
4.38614
3.03587
4.62847
3.90087
2.82823
3.43037
2.54325
3.85865
3.06637
2.05632
2.61611
1.75336
3.02139
2.38566
0.987307
2.65545
1.9811
1.10761
1.61433
0.799277
2.36304
1.43749
0.679268
1.13819
0.423311
1.90146
1.00892
-0.202832
1.66225
0.369496
-0.304862
-0.135022
-0.780371
-0.00324297
0.0207059
0.0149002
0.0254696
0.0261489
0.0317603
0.0348138
0.039739
0.0456638
0.0549407
0.0679842
0.0838695
0.0989625
0.108761
0.110016
0.102369
0.0881491
0.0708889
0.0536258
0.0380676
0.0246772
0.0131795
0.00303724
-0.00626111
-0.015103
-0.0237835
-0.0325543
-0.0416028
-0.0509515
-0.060231
-0.0689256
-0.087633
-0.162317
-0.189764
-0.569216
-0.504507
-0.431228
-0.569246
-0.713975
-0.850482
-0.971916
-1.05935
-1.10553
-1.11441
-1.08712
-1.02524
-0.935722
-0.822833
-0.69276
-0.55159
-0.403254
-0.249071
-0.0935787
0.0568032
0.204966
0.352953
0.496724
0.639706
0.782504
0.906829
0.988102
1.00348
0.957055
0.860692
0.731208
0.587455
0.445421
0.329567
0.219794
0.148563
0.0610609
0.0432248
-0.000970837
0.00528192
0.029531
0.047438
0.136047
-0.118012
0.265343
-0.0146014
0.0528972
0.0342994
0.0636547
0.0639625
0.0784913
0.0847359
0.0928886
0.0960402
0.0949925
0.0877774
0.0759245
0.0622272
0.0508584
0.0450222
0.0456792
0.0513022
0.0590277
0.0659028
0.0696653
0.0689618
0.0633081
0.0529759
0.0388071
0.0217887
0.00241219
-0.0197689
-0.046046
-0.0781944
-0.11772
-0.161771
-0.214076
-0.364698
-0.441289
-0.888159
-0.730002
-0.629956
-0.889476
-1.14245
-1.38149
-1.58951
-1.73229
-1.79662
-1.78996
-1.71359
-1.57218
-1.37826
-1.14097
-0.871917
-0.580932
-0.275456
0.0368035
0.346014
0.648801
0.943888
1.22472
1.48618
1.72678
1.9296
2.06806
2.11709
2.06615
1.92657
1.7135
1.44995
1.16476
0.885028
0.655306
0.439419
0.298586
0.132046
0.0981373
0.0255085
0.0158493
0.0129062
0.0725664
0.284545
-0.265595
0.529508
-0.0247393
0.0899233
0.059674
0.109448
0.110817
0.136001
0.147941
0.164498
0.175436
0.183664
0.18647
0.185117
0.180538
0.17464
0.168546
0.162718
0.156906
0.150444
0.142274
0.131128
0.115833
0.0956934
0.070769
0.041871
0.0100424
-0.0243497
-0.0622065
-0.10548
-0.156524
-0.216613
-0.28059
-0.358047
-0.603206
-0.779702
-0.890056
-0.777378
-0.678433
-0.995315
-1.29757
-1.58279
-1.82973
-1.99739
-2.06972
-2.05674
-1.95925
-1.78308
-1.54367
-1.25167
-0.921202
-0.564075
-0.190196
0.190904
0.56853
0.938472
1.29729
1.63685
1.9504
2.23342
2.46388
2.61334
2.6552
2.57963
2.39982
2.13283
1.80552
1.45168
1.10469
0.816895
0.549589
0.373444
0.176617
0.130092
0.05571
0.0335928
0.0696749
0.15498
0.507897
-0.349605
0.645589
-0.0373694
0.124402
0.0816077
0.150863
0.152721
0.18737
0.203462
0.225183
0.23793
0.245044
0.242314
0.231836
0.216558
0.201639
0.190795
0.185343
0.183917
0.183613
0.181012
0.17304
0.157505
0.133449
0.101309
0.0627111
0.0195595
-0.0273632
-0.0792337
-0.138787
-0.209288
-0.292255
-0.380106
-0.481127
-0.785075
-1.08049
-0.838345
-0.940505
-0.810075
-1.19414
-1.57247
-1.92428
-2.22775
-2.43306
-2.51967
-2.50131
-2.37875
-2.15931
-1.86227
-1.50056
-1.09168
-0.650271
-0.189177
0.280171
0.745545
1.20086
1.64127
2.0578
2.44167
2.78655
3.06654
3.24933
3.3029
3.21266
2.9929
2.6639
2.25873
1.81879
1.38634
1.02476
0.691515
0.469528
0.231097
0.168333
0.086482
0.0557341
0.109892
0.223552
0.695131
-0.40802
0.818086
-0.0513706
0.160209
0.104342
0.193214
0.195756
0.23958
0.259384
0.28554
0.299851
0.307269
0.303647
0.292793
0.278482
0.265732
0.257064
0.252668
0.250608
0.247905
0.241169
0.227258
0.203831
0.169894
0.126147
0.0747895
0.0183158
-0.0423244
-0.108742
-0.18443
-0.273274
-0.376417
-0.483994
-0.604666
-0.943339
-1.31381
-0.710599
-1.09609
-0.938029
-1.39337
-1.85759
-2.28191
-2.6474
-2.8941
-2.99614
-2.97182
-2.8216
-2.55455
-2.19399
-1.75551
-1.26028
-0.725896
-0.168189
0.398824
0.960836
1.51064
2.04161
2.54288
3.00393
3.41636
3.74854
3.96337
4.02385
3.91322
3.64718
3.24873
2.75706
2.22161
1.69439
1.25135
0.845513
0.573401
0.289463
0.209204
0.120919
0.086403
0.170373
0.31099
0.895431
-0.299805
1.03453
-0.0678667
0.196132
0.125978
0.233992
0.236846
0.28873
0.310816
0.3392
0.352401
0.357046
0.349314
0.334687
0.317791
0.304144
0.296249
0.294006
0.294801
0.294691
0.289205
0.274249
0.246857
0.205899
0.152509
0.0897818
0.0211305
-0.0521411
-0.132037
-0.222807
-0.328908
-0.451162
-0.578069
-0.716819
-1.06094
-1.45619
-0.645094
-1.24707
-1.06129
-1.57668
-2.12752
-2.62053
-3.04396
-3.32845
-3.44274
-3.4109
-3.23271
-2.91911
-2.49733
-1.98538
-1.40795
-0.785382
-0.136355
0.522723
1.17572
1.81435
2.43028
3.011
3.5444
4.02012
4.40125
4.64627
4.71368
4.58478
4.27582
3.81173
3.23744
2.60991
1.99102
1.46866
0.99298
0.67241
0.34739
0.249363
0.158346
0.123399
0.234671
0.404194
1.08878
-0.115987
1.23124
-0.087045
0.233304
0.147393
0.274133
0.276828
0.335459
0.358283
0.386983
0.397605
0.399219
0.389102
0.374306
0.359441
0.349316
0.345356
0.346608
0.349849
0.350677
0.344171
0.325782
0.292206
0.242316
0.177782
0.102705
0.0214763
-0.0643173
-0.157229
-0.262332
-0.38454
-0.524261
-0.669198
-0.825516
-1.16112
-1.55325
-0.748919
-1.33968
-1.19407
-1.76136
-2.40665
-2.97013
-3.45164
-3.77376
-3.89908
-3.85862
-3.6513
-3.29025
-2.80659
-2.22081
-1.56116
-0.850692
-0.110949
0.63939
1.38247
2.10877
2.80846
3.46769
4.07287
4.61195
5.04327
5.32095
5.39881
5.25558
4.90684
4.37895
3.72266
3.00258
2.29108
1.68802
1.14192
0.772075
0.407766
0.290922
0.198739
0.166968
0.309338
0.509511
1.27974
0.0317544
1.42176
-0.109716
0.271783
0.168086
0.312779
0.314382
0.377944
0.399642
0.426672
0.433469
0.431908
0.42021
0.40615
0.393741
0.387099
0.387007
0.39208
0.398645
0.401716
0.395633
0.375101
0.33629
0.278048
0.202732
0.115732
0.0226368
-0.074693
-0.179534
-0.297878
-0.434978
-0.590894
-0.753495
-0.92823
-1.25242
-1.63204
-0.997504
-1.27146
-1.34015
-1.94721
-2.69423
-3.33124
-3.87168
-4.23177
-4.36728
-4.31725
-4.07939
-3.66939
-3.12236
-2.46133
-1.71818
-0.918668
-0.087223
0.755198
1.58902
2.40353
3.18747
3.92578
4.60351
5.20709
5.69023
6.00244
6.09284
5.93764
5.55065
4.95902
4.21947
3.40454
2.59786
1.91162
1.2936
0.87317
0.471013
0.334531
0.242674
0.217073
0.391779
0.624825
1.46488
0.366718
1.6072
-0.13666
0.312118
0.188005
0.349572
0.348768
0.415206
0.433995
0.45793
0.460806
0.457335
0.446172
0.435092
0.427151
0.425633
0.430608
0.440225
0.450373
0.455567
0.449507
0.426228
0.381435
0.314049
0.227337
0.128269
0.0237661
-0.0842528
-0.200156
-0.330979
-0.482124
-0.653294
-0.833315
-1.02751
-1.34385
-1.70075
-1.26018
-1.08406
-1.52463
-2.13812
-2.98788
-3.70162
-4.30105
-4.69825
-4.84219
-4.78119
-4.51116
-4.05076
-3.43913
-2.70194
-1.87472
-0.985873
-0.0627187
0.871554
1.79572
2.69791
3.56553
4.38248
5.13261
5.80096
6.33675
6.68471
6.78932
6.62462
6.20123
5.54641
4.72286
3.81137
2.90771
2.13651
1.44583
0.974161
0.536632
0.380492
0.290972
0.274635
0.483468
0.749935
1.64223
0.698983
1.76827
-0.169061
0.354585
0.206589
0.383526
0.378663
0.445826
0.460243
0.480484
0.480328
0.476652
0.467735
0.46082
0.457975
0.461844
0.472043
0.486435
0.500554
0.508365
0.502808
0.477104
0.4264
0.349756
0.25163
0.140951
0.026062
-0.0914739
-0.217592
-0.36035
-0.524992
-0.710875
-0.908323
-1.12274
-1.43645
-1.76506
-1.45948
-0.974258
-1.72943
-2.34127
-3.28866
-4.08396
-4.74303
-5.17623
-5.32647
-5.25282
-4.94878
-4.43629
-3.75857
-2.94408
-2.03205
-1.05347
-0.0385558
0.987339
2.00142
2.99068
3.94133
4.83641
5.65873
6.39213
6.98152
7.36656
7.48727
7.31604
6.85843
6.14097
5.23257
4.22264
3.22005
2.3621
1.59812
1.0747
0.604582
0.42951
0.344516
0.340444
0.584037
0.884174
1.81347
0.936623
1.8812
-0.208423
0.399453
0.223132
0.413575
0.402895
0.468843
0.478167
0.49524
0.493776
0.491805
0.486699
0.485024
0.488013
0.497826
0.513727
0.53332
0.55176
0.562425
0.557437
0.529142
0.472114
0.385708
0.275973
0.154221
0.0300918
-0.0959791
-0.231949
-0.386582
-0.564606
-0.765131
-0.980244
-1.21544
-1.53213
-1.84061
-1.63411
-1.08931
-1.83713
-2.56332
-3.59769
-4.48007
-5.20025
-5.66833
-5.8224
-5.73414
-5.39403
-4.82751
-4.0819
-3.18866
-2.19079
-1.12178
-0.0147949
1.10273
2.20651
3.28242
4.31561
5.28848
6.18298
6.98186
7.62596
8.04968
8.18857
8.01337
7.52362
6.74379
5.74914
4.63832
3.53449
2.58782
1.74988
1.17429
0.674545
0.482068
0.403976
0.415136
0.693505
1.02736
1.98155
1.3173
1.9708
-0.256644
0.446679
0.236647
0.438474
0.420359
0.483716
0.48828
0.503647
0.502834
0.504146
0.503871
0.507973
0.517065
0.532999
0.55481
0.579892
0.603018
0.616913
0.612764
0.58191
0.518314
0.421821
0.300603
0.168789
0.036779
-0.0971903
-0.243152
-0.409897
-0.601434
-0.816892
-1.05019
-1.30674
-1.63148
-1.93456
-1.8182
-1.37371
-1.75902
-2.82278
-3.91985
-4.89117
-5.6745
-6.17626
-6.33136
-6.22602
-5.84745
-5.22476
-4.40923
-3.43561
-2.3507
-1.19047
0.00896032
1.21814
2.41138
3.57349
4.6887
5.73899
6.70562
7.57041
8.2703
8.73445
8.89373
8.71663
8.19683
7.35464
6.27194
5.05737
3.84976
2.81237
1.8999
1.27203
0.745855
0.53832
0.469688
0.498924
0.811293
1.17835
2.13879
1.50609
2.03535
-0.315682
0.495719
0.246134
0.457069
0.430376
0.490753
0.491953
0.507517
0.509104
0.514831
0.520036
0.530257
0.545691
0.567999
0.596044
0.627007
0.655237
0.672722
0.669595
0.636063
0.56546
0.458455
0.32607
0.18551
0.0467343
-0.0952421
-0.251821
-0.43106
-0.636415
-0.867402
-1.11972
-1.39845
-1.73558
-2.04588
-2.00814
-1.66388
-1.60221
-3.1496
-4.26525
-5.31824
-6.16789
-6.702
-6.85522
-6.72985
-6.31
-5.62871
-4.74102
-3.68517
-2.51185
-1.25948
0.0328387
1.33372
2.61618
3.86399
5.06063
6.18791
7.22657
8.15768
8.91445
9.42075
9.60255
9.42565
8.87797
7.97322
6.80021
5.47856
4.1644
3.03427
2.04682
1.36685
0.817676
0.598159
0.541642
0.591653
0.936722
1.33692
2.30238
1.92315
2.13481
-0.386642
0.545058
0.25071
0.468431
0.432936
0.491098
0.490955
0.508487
0.513744
0.52456
0.535582
0.552081
0.573997
0.602879
0.637456
0.674697
0.708484
0.729973
0.728085
0.691732
0.613622
0.495755
0.352946
0.205188
0.0600972
-0.0907397
-0.258671
-0.450698
-0.670228
-0.917523
-1.18994
-1.49209
-1.8457
-2.17272
-2.20515
-1.9289
-1.58381
-3.53268
-4.64528
-5.76163
-6.68253
-7.24753
-7.396
-7.24734
-6.78288
-6.0402
-5.07784
-3.9377
-2.67442
-1.32881
0.0569457
1.44965
2.82109
4.15409
5.43157
6.63537
7.74596
8.74376
9.55849
10.1087
10.3151
10.1406
9.56708
8.5993
7.33315
5.90058
4.4768
3.25188
2.18908
1.45756
0.889008
0.661215
0.619518
0.692846
1.06888
1.5019
2.4581
2.12037
2.25804
-0.467916
0.591628
0.249742
0.472148
0.428936
0.486473
0.487024
0.507833
0.517555
0.533813
0.550829
0.573729
0.602301
0.638024
0.679513
0.723507
0.76337
0.789301
0.788824
0.749349
0.663015
0.534018
0.381985
0.228296
0.0762551
-0.0846862
-0.264448
-0.469401
-0.703506
-0.968011
-1.26184
-1.58908
-1.96349
-2.31513
-2.41791
-2.22879
-1.84229
-3.89749
-5.06749
-6.22155
-7.22032
-7.81479
-7.95556
-7.78021
-7.26739
-6.46007
-5.42019
-4.19351
-2.8385
-1.3984
0.0814479
1.56614
3.02636
4.44402
5.80167
7.08151
8.26386
9.32872
10.2025
10.7982
11.0313
10.8611
10.2641
9.2325
7.86975
6.32182
4.78511
3.46327
2.32488
1.54272
0.958693
0.726888
0.702764
0.801809
1.20684
1.67331
2.62271
2.4501
2.37222
-0.552846
0.630306
0.243004
0.468578
0.420002
0.478654
0.481529
0.506399
0.52102
0.542881
0.566007
0.595436
0.630873
0.673747
0.722578
0.77386
0.82037
0.851209
0.852241
0.809105
0.71359
0.573506
0.413824
0.25451
0.0939457
-0.0780428
-0.269643
-0.487537
-0.736648
-1.01934
-1.336
-1.69038
-2.09014
-2.47348
-2.6511
-2.58689
-2.34994
-4.15524
-5.5378
-6.69947
-7.78277
-8.40577
-8.53572
-8.3302
-7.76501
-6.88927
-5.76861
-4.45288
-3.00419
-1.46819
0.106513
1.68343
3.23221
4.73396
6.1711
7.5264
8.78031
9.91254
10.8464
11.4894
11.7509
11.5871
10.9688
9.87227
8.40873
6.74038
5.08716
3.66631
2.45219
1.62075
1.02545
0.794406
0.790668
0.917695
1.34956
1.84897
2.78691
2.77878
2.53283
-0.628708
0.654265
0.231027
0.458856
0.408012
0.469093
0.475401
0.504706
0.524447
0.552004
0.581373
0.617511
0.66009
0.710503
0.767188
0.826372
0.880167
0.916368
0.918823
0.87105
0.76516
0.614591
0.448623
0.282529
0.111745
-0.0714069
-0.274472
-0.505284
-0.769873
-1.07178
-1.41283
-1.79657
-2.22626
-2.64784
-2.90568
-2.99129
-2.97728
-4.25197
-6.06901
-7.20117
-8.37077
-9.02244
-9.13824
-8.89894
-8.27731
-7.32892
-6.1237
-4.71612
-3.17162
-1.53815
0.132304
1.80174
3.43888
5.02412
6.53999
7.97013
9.29532
10.4952
11.4902
12.1821
12.4744
12.3193
11.681
10.5179
8.94858
7.15409
5.38054
3.85861
2.56873
1.68984
1.08788
0.862862
0.88242
1.03959
1.49606
2.02772
2.95335
3.00434
2.70078
-0.679321
0.656811
0.215336
0.444502
0.394604
0.458773
0.469204
0.503061
0.528063
0.561417
0.597215
0.640314
0.690385
0.7488
0.81393
0.88171
0.943471
0.985413
0.988826
0.934794
0.817369
0.657553
0.485495
0.310409
0.128677
-0.0648883
-0.278887
-0.522623
-0.803205
-1.12539
-1.49242
-1.90783
-2.3719
-2.83779
-3.18042
-3.41665
-3.58878
-4.23799
-6.6889
-7.73764
-8.98435
-9.66628
-9.76485
-9.48797
-8.80583
-7.78031
-6.48621
-4.98357
-3.34089
-1.60821
0.158998
1.92132
3.64662
5.31471
6.9085
8.41276
9.80889
11.0765
12.1337
12.8762
13.202
13.0583
12.4003
11.1687
9.48751
7.56044
5.66254
4.03749
2.67198
1.74799
1.14449
0.931248
0.977159
1.16654
1.64541
2.20885
3.12625
3.31054
2.86401
-0.691231
0.634267
0.198179
0.426949
0.380944
0.448283
0.463267
0.501683
0.532093
0.571404
0.613895
0.664284
0.722278
0.789243
0.863501
0.94065
1.01107
1.0589
1.06211
0.999453
0.869909
0.702131
0.522379
0.336436
0.144562
-0.0582085
-0.282651
-0.539376
-0.836515
-1.18008
-1.57464
-2.024
-2.52662
-3.04252
-3.47338
-3.84551
-4.12052
-4.27274
-7.43156
-8.32488
-9.62349
-10.3383
-10.4172
-10.0987
-9.35205
-8.24477
-6.85701
-5.25564
-3.51211
-1.6783
0.186776
2.04242
3.85569
5.60596
7.27676
8.85437
10.321
11.6565
12.7768
13.5715
13.9337
13.8042
13.1265
11.8235
10.0233
7.95649
5.9301
4.20003
2.75915
1.79298
1.1937
0.99849
1.07401
1.29764
1.79666
2.39033
3.2992
3.59625
3.06962
-0.659858
0.588035
0.181817
0.407295
0.367746
0.437947
0.457809
0.500778
0.536804
0.582308
0.631837
0.689928
0.75636
0.832515
0.916671
1.00402
1.0837
1.13709
1.13782
1.06376
0.922518
0.746861
0.55674
0.359951
0.15992
-0.0508708
-0.285399
-0.555255
-0.86956
-1.23558
-1.65921
-2.14466
-2.68967
-3.26091
-3.78302
-4.27704
-4.61382
-4.52011
-8.29669
-8.9775
-10.2878
-11.0387
-11.0964
-10.7325
-9.91734
-8.72358
-7.23709
-5.53288
-3.68542
-1.74835
0.215832
2.1653
4.06636
5.89808
7.64493
9.295
10.8315
12.235
13.4193
14.2677
14.6691
14.5567
13.8588
12.481
10.5535
8.33889
6.17978
4.34295
2.82712
1.82236
1.23384
1.06347
1.17209
1.43203
1.949
2.57114
3.47535
3.83777
3.27425
-0.591308
0.524228
0.167848
0.386327
0.355402
0.427969
0.453025
0.50059
0.54252
0.594536
0.651533
0.717823
0.793296
0.879366
0.97427
1.07265
1.16195
1.21959
1.21422
1.12649
0.97451
0.789032
0.586883
0.381554
0.175627
-0.0422968
-0.286706
-0.569917
-0.90203
-1.29157
-1.74568
-2.26925
-2.86016
-3.49175
-4.10811
-4.71801
-5.14013
-5.09756
-9.23569
-9.70613
-10.9786
-11.7683
-11.8037
-11.3905
-10.503
-9.21793
-7.62747
-5.81591
-3.86102
-1.8183
0.246374
2.29025
4.27894
6.19132
8.01317
9.7347
11.3405
12.8117
14.0609
14.9646
15.4079
15.3156
14.5965
13.1397
11.0748
8.70372
6.4077
4.46261
2.87243
1.83338
1.26312
1.12504
1.27057
1.56894
2.10162
2.75
3.65334
4.09719
3.49412
-0.498968
0.451131
0.156984
0.364655
0.344124
0.418529
0.449142
0.50142
0.549624
0.608554
0.673534
0.748599
0.833797
0.930588
1.03713
1.1473
1.24596
1.30502
1.28895
1.18675
1.024
0.825794
0.612906
0.402632
0.1926
-0.031918
-0.286153
-0.583021
-0.9336
-1.34765
-1.83356
-2.39712
-3.03717
-3.73372
-4.44716
-5.17364
-5.73529
-6.02264
-10.182
-10.5087
-11.6962
-12.5277
-12.5399
-12.0734
-11.1101
-9.72889
-8.02907
-6.10545
-4.03921
-1.88809
0.278619
2.41756
4.4937
6.48593
8.38164
10.1735
11.8478
13.3866
14.7013
15.6617
16.1499
16.081
15.339
13.7975
11.5837
9.04641
6.60945
4.55492
2.8912
1.82302
1.27968
1.18205
1.36862
1.70772
2.25382
2.92552
3.82507
4.31171
3.73127
-0.397727
0.376248
0.149195
0.342803
0.33405
0.409845
0.446435
0.503618
0.558544
0.624871
0.698426
0.782921
0.878598
0.986969
1.10604
1.22843
1.33508
1.39075
1.3598
1.24362
1.06793
0.855903
0.636556
0.424702
0.211619
-0.0192445
-0.283384
-0.594273
-0.963964
-1.40343
-1.92236
-2.52769
-3.21989
-3.98559
-4.79868
-5.64724
-6.4095
-7.24193
-11.0608
-11.3843
-12.4429
-13.319
-13.3067
-12.7817
-11.7395
-10.2574
-8.44273
-6.40224
-4.22037
-1.95771
0.312788
2.54753
4.71099
6.78218
8.7505
10.6115
12.3534
13.9593
15.3402
16.3587
16.8945
16.8541
16.0873
14.4522
12.0755
9.36162
6.77995
4.61525
2.879
1.78788
1.28156
1.23336
1.46545
1.84757
2.40508
3.09668
3.99081
4.55389
3.94875
-0.299285
0.304637
0.144057
0.321249
0.325322
0.402182
0.44522
0.507573
0.569738
0.644019
0.72681
0.821448
0.928406
1.04924
1.18159
1.31601
1.42737
1.47334
1.42538
1.2951
1.10351
0.880647
0.660236
0.44897
0.233267
-0.00391826
-0.278145
-0.603448
-0.992855
-1.45857
-2.01163
-2.66039
-3.40757
-4.24623
-5.16128
-6.13957
-7.15248
-8.64489
-11.795
-12.3093
-13.2207
-14.1443
-14.1066
-13.516
-12.3919
-10.8042
-8.86909
-6.70689
-4.40492
-2.02722
0.349096
2.6805
4.93111
7.08034
9.11992
11.0487
12.8571
14.5295
15.9773
17.0551
17.6415
17.6357
16.8419
15.1009
12.5448
9.64304
6.91331
4.63823
2.83074
1.72411
1.26667
1.27786
1.56018
1.98638
2.55478
3.26219
4.14699
4.76681
4.19911
-0.210223
0.238631
0.141024
0.300441
0.31811
0.395853
0.445833
0.513686
0.583665
0.666519
0.759262
0.864799
0.983862
1.11798
1.26408
1.4091
1.51944
1.5497
1.4848
1.33816
1.13036
0.903153
0.685994
0.476205
0.2579
0.0142633
-0.270292
-0.610385
-1.02004
-1.51272
-2.10093
-2.79473
-3.59956
-4.5146
-5.53366
-6.64902
-7.93755
-10.0737
-12.3488
-13.2731
-14.0347
-15.006
-14.9428
-14.2774
-13.0675
-11.3699
-9.30868
-7.01991
-4.59324
-2.09672
0.387743
2.8168
5.15444
7.38071
9.4901
11.4852
13.3588
15.0971
16.6121
17.7503
18.3901
18.426
17.6023
15.74
12.9848
9.88306
7.0025
4.61752
2.74044
1.62732
1.23277
1.31443
1.65203
2.12173
2.7023
3.42186
4.29497
4.94643
4.44814
-0.132258
0.178622
0.139667
0.280806
0.312605
0.391179
0.448606
0.522338
0.600752
0.69285
0.796299
0.913507
1.04548
1.19359
1.35325
1.50534
1.60694
1.61823
1.53642
1.37043
1.15119
0.926766
0.715076
0.506781
0.285657
0.0353645
-0.259755
-0.614948
-1.04527
-1.56552
-2.18983
-2.93023
-3.7952
-4.78965
-5.91449
-7.17214
-8.7313
-11.3653
-12.7053
-14.2557
-14.8883
-15.9056
-15.8193
-15.0676
-13.7665
-11.9546
-9.76183
-7.34164
-4.78564
-2.16633
0.428901
2.95678
5.38132
7.68358
9.8612
11.9209
13.8585
15.6618
17.2443
18.4437
19.1396
19.2253
18.3681
16.3646
13.3871
10.0724
7.03897
4.5454
2.60091
1.49241
1.1775
1.34208
1.74068
2.25322
2.84758
3.57577
4.43703
5.13743
4.68581
-0.0642427
0.124044
0.139756
0.262725
0.309006
0.388464
0.45383
0.533861
0.621364
0.723413
0.838337
0.967984
1.11361
1.27612
1.44792
1.60079
1.68622
1.67851
1.57752
1.39253
1.17045
0.953788
0.747977
0.540759
0.316511
0.0593685
-0.246482
-0.616977
-1.06826
-1.6166
-2.27787
-3.06635
-3.9938
-5.07024
-6.30224
-7.70417
-9.50034
-12.3972
-12.9728
-15.2747
-15.7896
-16.8417
-16.7384
-15.8893
-14.4896
-12.5584
-10.2286
-7.67226
-4.98227
-2.2361
0.472737
3.10081
5.61217
7.98928
10.2334
12.3559
14.356
16.2231
17.8734
19.1347
19.8895
20.0341
19.1386
16.9684
13.7402
10.2006
7.01119
4.412
2.40324
1.31338
1.09825
1.35993
1.82606
2.38178
2.99077
3.72432
4.57474
5.31475
4.95896
-0.00427552
0.0742485
0.1412
0.246524
0.307482
0.387963
0.461733
0.548517
0.645779
0.758511
0.885683
1.0285
1.1884
1.36512
1.54552
1.69053
1.75579
1.72955
1.60622
1.40848
1.19212
0.985193
0.784688
0.577999
0.350356
0.0862599
-0.230366
-0.616227
-1.08865
-1.66548
-2.36452
-3.2025
-4.1945
-5.35503
-6.69488
-8.23926
-10.2238
-13.1627
-13.2811
-16.3264
-16.7506
-17.8163
-17.7021
-16.7447
-15.2382
-13.1812
-10.709
-8.01178
-5.18313
-2.30601
0.519436
3.24927
5.84739
8.29812
10.607
12.7904
14.8512
16.7809
18.4989
19.8225
20.6386
20.853
19.9136
17.5424
14.0424
10.2664
6.90577
4.20371
2.136
1.08294
0.992191
1.36723
1.90824
2.50785
3.13187
3.86825
4.71246
5.48679
5.20518
0.0492824
0.0287985
0.143965
0.232456
0.308157
0.389869
0.472475
0.566483
0.674183
0.798343
0.938522
1.09519
1.2697
1.45931
1.64183
1.77061
1.81598
1.76904
1.62391
1.42371
1.21843
1.02102
0.824934
0.618287
0.387112
0.116109
-0.211186
-0.61234
-1.10597
-1.71161
-2.44917
-3.33794
-4.39628
-5.64233
-7.08963
-8.77083
-10.8927
-13.7318
-13.7222
-17.423
-17.7705
-18.829
-18.713
-17.6362
-16.0137
-13.8234
-11.2024
-8.36002
-5.38808
-2.3759
0.569248
3.40258
6.08747
8.61049
10.9821
13.2243
15.344
17.3347
19.1205
20.5063
21.3861
21.6827
20.6927
18.0638
14.3153
10.2769
6.721
3.90321
1.78391
0.792094
0.856106
1.36339
1.98751
2.63175
3.27122
4.00825
4.85329
5.66889
5.49233
0.097615
-0.0125625
0.148057
0.220724
0.311112
0.394321
0.486146
0.587864
0.706676
0.84301
0.996923
1.16799
1.35696
1.55608
1.73165
1.8399
1.86656
1.79531
1.63553
1.44249
1.24987
1.06085
0.868367
0.661474
0.426825
0.149133
-0.188576
-0.604829
-1.11964
-1.75435
-2.5311
-3.4718
-4.59786
-5.93
-7.48274
-9.29126
-11.5067
-14.22
-14.4058
-18.4865
-18.8359
-19.8715
-19.7715
-18.5669
-16.8178
-14.4858
-11.7087
-8.71656
-5.59682
-2.44545
0.622521
3.56121
6.33294
8.92679
11.3589
13.6576
15.8344
17.8844
19.7377
21.1852
22.131
22.5242
21.4801
18.4905
14.5836
10.2436
6.46261
3.50162
1.32817
0.429123
0.686344
1.34796
2.06444
2.75405
3.40761
4.14452
4.99603
5.83618
5.75277
0.141571
-0.0499211
0.153473
0.211498
0.3164
0.401412
0.502783
0.612694
0.743276
0.892523
1.06084
1.24665
1.44889
1.65117
1.81097
1.89956
1.90547
1.8101
1.64709
1.46673
1.28603
1.1042
0.91474
0.707572
0.469715
0.185715
-0.16203
-0.593099
-1.129
-1.79299
-2.60951
-3.60308
-4.79773
-6.21534
-7.86933
-9.79162
-12.0653
-14.6781
-15.3458
-19.4443
-19.9347
-20.9362
-20.8713
-19.5373
-17.6522
-15.1691
-12.2275
-9.08082
-5.80888
-2.51426
0.679712
3.72571
6.58439
9.24748
11.7376
14.0905
16.3221
18.4294
20.3499
21.8583
22.872
23.3775
22.2927
18.8565
14.8192
10.1636
6.12815
3.00009
0.75429
-0.0204629
0.478258
1.32073
2.13993
2.87539
3.53812
4.27676
5.14038
6.01476
6.04171
0.181656
-0.0832152
0.160229
0.204942
0.324058
0.411211
0.522379
0.640949
0.783926
0.946799
1.13009
1.33056
1.54299
1.73935
1.87907
1.95005
1.93089
1.81881
1.66291
1.4965
1.32626
1.15067
0.964015
0.756808
0.516192
0.226386
-0.130936
-0.576484
-1.13333
-1.82675
-2.68353
-3.73064
-4.99402
-6.49505
-8.2434
-10.2625
-12.5702
-15.1363
-16.4771
-20.219
-21.051
-22.0164
-22.0011
-20.5456
-18.5177
-15.8745
-12.7592
-9.4522
-6.0236
-2.58174
0.741389
3.89674
6.84252
9.57313
12.1187
14.5229
16.8073
18.9697
20.9569
22.5244
23.608
24.2391
23.072
19.2548
14.985
10.0303
5.71324
2.39282
0.0497967
-0.57172
0.226158
1.28163
2.21538
2.99685
3.66163
4.40482
5.28551
6.18416
6.35839
0.218119
-0.112231
0.168351
0.201233
0.334118
0.423757
0.544876
0.672532
0.828483
1.00565
1.20433
1.41849
1.63514
1.81668
1.93791
1.98928
1.94449
1.82778
1.68459
1.53111
1.37003
1.20016
1.01641
0.809617
0.566815
0.271773
-0.0946269
-0.554291
-1.13193
-1.85489
-2.75225
-3.8532
-5.18457
-6.76512
-8.59817
-10.696
-13.0276
-15.6094
-17.6834
-20.7123
-22.1742
-23.1154
-23.1544
-21.587
-19.4129
-16.6022
-13.3041
-9.83027
-6.24019
-2.64718
0.808234
4.075
7.10811
9.90442
12.5023
14.9549
17.2897
19.5049
21.5582
23.1823
24.3381
25.1104
23.6512
19.7598
15.0917
9.84402
5.21448
1.67315
-0.799166
-1.23984
-0.07657
1.23078
2.29282
3.11991
3.77918
4.52889
5.43123
6.34461
6.64352
0.250992
-0.136597
0.177878
0.200552
0.346593
0.439045
0.57015
0.707266
0.876712
1.06879
1.28293
1.50815
1.72023
1.88284
1.9884
2.01498
1.95181
1.84129
1.71195
1.56988
1.41707
1.25281
1.07237
0.866581
0.622225
0.322539
-0.0524381
-0.525856
-1.12412
-1.87665
-2.81476
-3.96934
-5.36683
-7.02094
-8.92693
-11.0876
-13.4455
-16.0856
-18.7833
-20.9005
-23.3237
-24.2512
-24.3279
-22.654
-20.3344
-17.3511
-13.8621
-10.2148
-6.45787
-2.7097
0.881052
4.2613
7.38203
10.2421
12.8889
15.3867
17.7694
20.0347
22.1535
23.8307
25.0626
26.0431
24.0031
20.2866
15.1414
9.60621
4.62953
0.843716
-1.80217
-2.03739
-0.436511
1.16846
2.37517
3.24649
3.89088
4.64811
5.57721
6.50829
6.93972
0.280068
-0.155835
0.18884
0.203055
0.361457
0.457004
0.597999
0.744882
0.928287
1.13578
1.36479
1.59566
1.79448
1.94042
2.02826
2.02849
1.9594
1.86081
1.74424
1.61239
1.46748
1.30907
1.13248
0.928355
0.683075
0.379316
-0.00376175
-0.490587
-1.10929
-1.89136
-2.87016
-4.07756
-5.53788
-7.25763
-9.22457
-11.437
-13.8315
-16.5387
-19.6059
-20.9601
-24.5556
-25.45
-25.5253
-23.7429
-21.2776
-18.1189
-14.4329
-10.6057
-6.67596
-2.76835
0.96079
4.45652
7.66517
10.587
13.2792
15.8184
18.2463
20.5591
22.7424
24.4683
25.7798
27.1709
24.2597
20.7112
15.1373
9.31728
3.96272
-0.0915147
-2.9631
-2.97159
-0.857872
1.09553
2.46637
3.37922
3.9962
4.7602
5.7226
6.66109
7.24092
0.305023
-0.16945
0.201235
0.208845
0.378619
0.477485
0.628139
0.785029
0.982793
1.206
1.44781
1.67616
1.85794
1.99066
2.05459
2.0354
1.97161
1.88603
1.78088
1.65858
1.5216
1.36953
1.19743
0.995583
0.749964
0.44265
0.0519029
-0.448015
-1.08698
-1.89849
-2.9176
-4.17618
-5.69444
-7.4708
-9.48909
-11.7487
-14.1919
-16.9593
-20.1592
-21.2133
-25.8948
-26.7412
-26.754
-24.8565
-22.2405
-18.9028
-15.0149
-11.0024
-6.89387
-2.82215
1.04852
4.66164
7.95842
10.9401
13.6739
16.2504
18.7205
21.0778
23.3244
25.0933
26.4653
28.41
24.6062
21.0511
15.0964
8.97863
3.22136
-1.13261
-4.27633
-4.04334
-1.3411
1.01436
2.57181
3.52172
4.09489
4.86305
5.86735
6.80414
7.52148
0.325471
-0.177032
0.215017
0.217948
0.397928
0.500262
0.660215
0.82728
1.03972
1.27846
1.52848
1.74608
1.9137
2.03095
2.0683
2.04246
1.98982
1.91627
1.82162
1.7087
1.58001
1.43485
1.26782
1.06882
0.823378
0.512956
0.114906
-0.397836
-1.05688
-1.89763
-2.9563
-4.26335
-5.83321
-7.65785
-9.7221
-12.0294
-14.5332
-17.3611
-20.6292
-21.935
-27.2125
-28.1419
-28.0184
-25.9969
-23.2231
-19.7
-15.606
-11.404
-7.111
-2.87019
1.1454
4.87775
8.26269
11.3022
14.0735
16.6832
19.1923
21.5909
23.899
25.7054
27.0818
29.4623
25.1058
21.3361
15.032
8.59453
2.41539
-2.27153
-5.72728
-5.24767
-1.88226
0.929714
2.69904
3.6791
4.18732
4.95673
6.01191
6.94406
7.80447