/*--------------------------------*- C++ -*----------------------------------*\
| =========                 |                                                 |
| \\      /  F ield         | OpenFOAM: The Open Source CFD Toolbox           |
|  \\    /   O peration     | Version:  4.1                                   |
|   \\  /    A nd           | Web:      www.OpenFOAM.org                      |
|    \\/     M anipulation  |                                                 |
\*---------------------------------------------------------------------------*/
FoamFile
{
    version     2.0;
    format      ascii;
    class       surfaceScalarField;
    location    "24";
    object      phi;
}
// * * * * * * * * * * * * * * * * * * * * * * * * * * * * * * * * * * * * * //

dimensions      [0 3 -1 0 0 0 0];

internalField   nonuniform List<scalar> 
13220
(
-794.187
2094.09
-1245.05
1751.06
-1706.36
1761.21
-2046.84
1640.38
-2326.69
1580.05
-2529.58
1502.79
-2663.89
1434.2
-2729.37
1365.69
-2730.08
1300.6
-2662.1
1231.92
-2509.45
1147.55
-2231.31
1021.77
-1745.89
814.476
-983.684
537.99
316.216
-222.881
2316.97
-497.282
2025.46
-796.45
2060.38
-1038.03
1881.96
-1270.47
1812.48
-1458.74
1691.06
-1620.74
1596.21
-1749.42
1494.36
-1849.83
1401.01
-1911.89
1293.97
-1899.54
1135.21
-1726.75
848.97
-1262.91
350.637
-573.47
-151.454
-257.254
-133.939
2450.9
-337.716
2229.24
-476.954
2199.62
-560.104
1965.11
-629.12
1881.5
-655.394
1717.33
-658.723
1599.54
-632.408
1468.04
-580.123
1348.73
-504.369
1218.22
-413.939
1044.78
-318.567
753.591
-214.45
246.506
-166.805
-199.113
-424.059
108.518
2342.38
80.7563
2257
121.492
2158.88
182.906
1903.69
252.344
1812.06
336.581
1633.1
433.158
1502.96
542.657
1358.54
662.763
1228.62
782.284
1098.69
873.19
953.872
859.586
767.195
611.099
494.992
166.292
245.693
-257.767
140.949
2201.43
169.599
2228.35
240.097
2088.38
317.065
1826.72
396.636
1732.48
482.255
1547.48
565.364
1419.85
644.647
1279.26
716.521
1156.74
776.774
1038.44
809.938
920.708
775.908
801.222
614.177
656.72
357.114
502.75
99.3474
68.5773
2132.86
125.841
2171.08
186.658
2027.56
244.033
1769.34
301.06
1675.46
367.793
1480.74
446.23
1341.41
560.534
1164.95
694.84
1022.44
816.656
916.625
877.499
859.864
841.588
837.137
670.979
827.333
394.523
779.213
493.871
-47.5861
2180.44
-27.9098
2151.41
-28.2188
2027.87
-68.056
1809.18
-110.988
1718.39
-162.815
1532.57
-168.417
1347.01
-83.4133
1079.95
86.2422
852.783
303.026
699.841
504.769
658.122
606.717
735.184
536.307
897.74
312.385
1003.13
806.255
-129.462
2309.9
-299.559
2321.5
-439.96
2168.27
-623.722
1992.94
-818.216
1912.88
-1034.28
1748.63
-1230.46
1543.2
-1377
1226.48
-1447.93
923.714
-1413.34
665.251
-1236.65
481.44
-908.286
406.821
-497.475
486.934
-152.359
658.022
653.896
94.8784
2215.03
-135.451
2551.83
-308.942
2341.76
-453.484
2137.48
-585.955
2045.36
-732.167
1894.84
-911.031
1722.06
-1139.94
1455.4
-1392.7
1176.47
-1623.09
895.644
-1756.05
614.393
-1677.45
328.223
-1285.66
95.1376
-617.699
-9.93966
36.1974
390.354
1824.67
340.623
2601.56
248.344
2434.04
228.268
2157.56
265.055
2008.57
305.096
1854.8
319.017
1708.14
259.396
1515.02
133.574
1302.29
-40.6609
1069.88
-239.488
813.222
-432.212
520.955
-524.321
187.255
-413.602
-120.65
-377.405
414.683
1409.99
519.039
2497.21
532.47
2420.61
592.284
2097.75
710.714
1890.14
843.839
1721.68
971.667
1580.32
1060.43
1426.26
1098.74
1263.99
1075.3
1093.31
977.167
911.361
779.945
718.176
474.469
492.731
117.929
235.889
-259.475
231.227
1178.77
334.354
2394.08
387.593
2367.38
441.981
2043.36
516.443
1815.68
595.749
1642.37
672.452
1503.62
731.381
1367.33
765.09
1230.28
765.939
1092.47
726.842
950.459
640.394
804.628
494.075
639.056
285.233
444.742
25.7576
135.804
1042.96
242.872
2287.02
334.357
2275.89
431.992
1945.73
537.162
1710.51
627.577
1551.96
694.986
1436.21
735.15
1327.17
744.13
1221.3
721.184
1115.41
664.941
1006.7
574.089
895.48
443.201
769.945
261.917
626.029
287.674
215.159
827.805
369.218
2132.96
373.613
2271.5
304.858
2014.48
253.249
1762.12
229.489
1575.72
231.959
1433.74
256.059
1303.07
296.958
1180.4
351.404
1060.97
411.265
946.843
446.97
859.775
399.47
817.447
244.015
781.485
531.689
321.781
1264.41
2056.53
2429.7
2494.45
2463.34
2303.93
2070.95
1818.46
1564.06
1284.68
1002.06
717.603
389.783
-4.98017e-07
-273.1
273.1
-273.1
-273.1
-273.1
279.991
-553.091
279.991
279.991
279.991
764.812
-484.821
764.812
764.812
1157.12
-392.305
1157.12
1157.12
1157.12
1449.48
-292.365
1449.48
1449.48
1643.4
-193.919
1643.4
1643.4
1643.4
1752.64
-109.242
1752.64
1752.64
1752.64
1785.23
-32.5847
1785.23
1785.23
1742.54
42.6858
1742.54
1742.54
1742.54
1633.49
109.051
1633.49
1633.49
1462.37
171.126
1462.37
1462.37
1462.37
1248.62
213.742
1248.62
1248.62
1248.62
1089.2
159.42
1089.2
1089.2
946.827
142.376
946.827
946.827
946.827
693.54
253.287
693.54
693.54
693.54
338.94
354.6
338.94
338.94
-38.8078
377.748
-38.8078
-38.8078
-38.8078
-695.794
656.986
-695.794
-695.794
-1953.51
1257.71
-1953.51
-1953.51
-1953.51
-3686.85
1733.35
-3686.85
-3686.85
-3686.85
-5704.82
2017.96
-5704.82
-5704.82
-7918.02
2213.21
-7918.02
-7918.02
-7746.33
-7576.98
-7407.08
-9587.4
2352.03
-9409.03
-9212.16
-9005.09
-8796.93
-8587.57
-8377.04
-8169.86
-7965.99
-10252.3
2486.23
-10041.5
-9830.67
-9620.05
-9409.82
-9196.38
-8980.66
-8764.03
-8546.37
-10841.1
2509.54
-10610.7
-10378.5
-10145.6
-9913.07
-9675.57
-9427.88
-9179
-8928.25
-8676.89
-10825.5
2386.5
-10560.3
-10293.2
-10024.9
-9755.53
-9484.66
-9199.61
-8906.06
-8611.85
-10540.4
2206.74
-10252.4
-9958.6
-9655.25
-9354.72
-9056.3
-8760.83
-8466.67
-8155.03
-9497.45
1640.03
-9197.11
-8898.33
-8599.38
-8284.7
-7963.06
-7642.38
-7321.39
-7002.92
-7859.74
1173.06
-7535.93
-7221.82
-6915.92
-6619.97
-6334.46
-6042.3
-5760.54
-5486.52
-5220.65
-4730.65
-211.648
-4487.45
-4258.82
-4032.38
-3809.93
-3591.18
-3415.08
-3320.63
-3225.38
-2666.14
-458.518
-2578.06
-2494.38
-2494.38
-2117.35
-377.028
-1707.97
-409.376
-1707.97
-1318.37
-389.606
-1318.37
-934.988
-383.38
-591.257
-343.731
-591.257
-255.199
-336.057
17.0386
-272.238
17.0384
264.489
-247.451
264.489
465.219
-200.73
641.356
-176.136
641.356
792.653
-151.298
792.653
912.499
-119.845
1007.4
-94.9039
1007.4
1090.7
-83.2945
1152.13
-61.4295
1152.13
1200.73
-48.602
1200.73
1239.44
-38.7155
1254.72
-15.2803
1254.72
1265.06
-10.3353
1265.06
1271.5
-6.44177
1259.06
12.4392
1259.06
1246.82
12.2402
1220.79
26.0367
1220.79
1201.09
19.6958
1201.09
1185.68
15.4118
1169.5
16.1763
1169.5
1160.82
8.68004
1160.82
1157.47
3.35136
1155.84
1.62963
1155.84
1161.32
-5.47622
1166.25
-4.93438
1166.25
1177.85
-11.5973
1177.85
1197.63
-19.7797
1210.85
-13.2214
1210.85
1229.56
-18.7142
1229.56
1257.4
-27.8368
1259.68
-2.27782
1259.68
1285.17
-25.4909
1270.11
15.0635
1270.11
1305.5
-35.3952
1305.5
1321.41
-15.9117
1323.44
-2.03086
1323.44
1349.14
-25.6918
1349.14
1367.7
-18.5613
1383.75
-16.051
1383.75
1419.25
-35.503
1447.52
-28.2648
1447.52
1500.93
-53.4162
1500.93
-53.1322
-255.218
-864.518
-258.409
-998.161
-262.484
-1024.72
-267.335
-1093.38
-272.91
-1134.75
-279.815
-1186.79
-289.171
-1228.83
-303.751
-1267.6
-327.659
-1292.9
-365.667
-1301.29
-420.694
-1289.09
-491.358
-1260.63
-571.195
-1226.09
-650.729
-1198.25
-720.996
-1186.51
-776.273
-1193.92
-814.774
-1217.65
-837.701
-1251.58
-847.751
-1288.92
-847.927
-1323.9
-840.906
-1352.61
-828.843
-1373.32
-813.383
-1386.49
-795.736
-1394.18
-776.796
-1398.9
-757.321
-1402
-738.16
-1402.45
-720.438
-1396.34
-705.671
-1376.98
-695.943
-1337.56
-693.006
-1279.38
-690.54
-1198.68
-661.794
-968.348
-597.848
-295.84
-549.811
545.666
-525.17
936.152
-503.557
1155.25
-482.396
1374.84
-461.927
1613.96
-441.774
1863.17
-421.651
2116.79
-401.517
2367.51
-381.3
2609.13
-360.9
2837.99
-340.191
3051.34
-319.151
3246.65
-297.7
3423.11
-275.84
3579.54
-253.557
3716.76
-230.727
3835.22
-207.17
3933.51
-182.988
4007.03
-158.409
4057.2
-133.137
4089.93
-107.128
4095.74
-80.8942
4065.19
-54.7897
4002.23
-29.414
3887.2
-6.28687
3669.32
13.0279
3322.06
27.4184
2860.18
37.3932
2379.65
44.085
1936.49
48.6758
1557.15
52.1123
1246.54
54.9485
1005.44
57.3329
805.745
59.7027
692.691
61.5661
585.268
63.9188
559.011
64.6875
398.838
69.439
287.879
80.918
213.446
79.42
-280.741
46.5058
-1396.44
28.2847
-2098.93
5.43522
-2679.66
19.3978
-2763.26
492.934
-268.735
-862.379
-271.554
-995.341
-275.888
-1020.38
-281.105
-1088.16
-287.537
-1128.32
-296.645
-1177.68
-311.059
-1214.41
-335.729
-1242.93
-376.315
-1252.31
-436.776
-1240.83
-515.545
-1210.32
-604.348
-1171.82
-690.934
-1139.5
-764.288
-1124.9
-818.419
-1132.38
-852.782
-1159.56
-870.286
-1200.14
-874.943
-1246.92
-870.382
-1293.48
-859.357
-1334.92
-843.833
-1368.13
-825.257
-1391.9
-804.784
-1406.96
-783.405
-1415.56
-762.05
-1420.25
-741.74
-1422.31
-723.777
-1420.42
-709.816
-1410.3
-701.735
-1385.06
-701.515
-1337.78
-710.35
-1270.54
-720.496
-1188.53
-696.263
-992.581
-608.345
-383.758
-540.021
477.341
-516.665
912.797
-497.935
1136.52
-477.121
1354.03
-457.276
1594.12
-438.029
1843.92
-418.777
2097.54
-399.419
2348.15
-379.84
2589.55
-359.952
2818.1
-339.653
3031.04
-318.931
3225.92
-297.723
3401.91
-276.046
3557.86
-253.899
3694.61
-231.164
3812.48
-207.672
3910.01
-183.539
3982.89
-158.999
4032.66
-133.757
4064.68
-107.771
4069.76
-81.5567
4038.97
-55.4596
3976.13
-30.037
3861.77
-6.76847
3646.05
12.817
3302.48
27.6206
2845.38
38.1487
2369.12
45.5415
1929.1
50.9318
1551.76
55.1626
1242.31
58.6248
1001.98
61.2421
803.128
63.7237
690.209
65.2064
583.785
67.6349
556.582
67.3391
399.133
71.5191
283.699
85.9284
199.037
87.141
-281.954
49.9841
-1359.28
30.0378
-2078.98
6.04132
-2655.66
16.9241
-2774.14
456.442
-276.41
-859.953
-278.908
-992.843
-283.465
-1015.83
-289.127
-1082.5
-296.895
-1120.55
-309.333
-1165.24
-330.597
-1193.15
-366.774
-1206.75
-422.627
-1196.46
-498.212
-1165.25
-586.345
-1122.19
-674.868
-1083.3
-751.952
-1062.42
-810.622
-1066.23
-849.637
-1093.37
-871.552
-1137.64
-880.211
-1191.49
-879.131
-1248
-870.952
-1301.66
-857.512
-1348.36
-840.162
-1385.48
-820.045
-1412.02
-798.275
-1428.73
-776.013
-1437.82
-754.531
-1441.73
-735.314
-1441.52
-720.156
-1435.57
-711.041
-1419.42
-709.728
-1386.38
-717.369
-1330.14
-733.884
-1254.03
-751.191
-1171.23
-732.561
-1011.21
-632.935
-483.384
-536.902
381.308
-504.405
880.301
-489.125
1121.24
-470.144
1335.05
-450.883
1574.85
-432.603
1825.64
-414.539
2079.48
-396.311
2329.92
-377.697
2570.94
-358.596
2799
-338.934
3011.38
-318.712
3205.7
-297.889
3381.08
-276.503
3536.47
-254.569
3672.67
-231.98
3789.89
-208.586
3886.62
-184.524
3958.83
-160.033
4008.17
-134.819
4039.47
-108.851
4043.79
-82.6443
4012.77
-56.5253
3950.01
-31.0066
3836.25
-7.52259
3622.57
12.4372
3282.52
27.7949
2830.02
39.0681
2357.85
47.4147
1920.75
53.9234
1545.25
59.3162
1236.91
63.75
997.542
66.9562
799.922
69.6251
687.54
70.8865
582.523
72.9787
554.49
71.8437
400.268
75.4062
280.136
90.5883
183.855
91.7728
-283.139
52.7614
-1320.27
30.7277
-2056.95
5.7
-2630.64
-0.83646
-2767.61
427.34
-285.564
-857.191
-287.795
-990.611
-292.759
-1010.86
-299.439
-1075.82
-309.916
-1110.08
-328.362
-1146.8
-360.472
-1161.04
-412.363
-1154.86
-485.678
-1123.14
-574.771
-1076.15
-667.386
-1029.57
-750.252
-1000.43
-814.621
-998.049
-858.186
-1022.66
-883.301
-1068.25
-894.127
-1126.82
-894.593
-1191.02
-887.608
-1254.98
-875.079
-1314.19
-858.254
-1365.19
-838.105
-1405.63
-815.614
-1434.51
-791.957
-1452.39
-768.577
-1461.2
-747.22
-1463.09
-729.958
-1458.78
-719.089
-1446.44
-716.709
-1421.8
-723.98
-1379.11
-740.643
-1313.48
-765.034
-1229.64
-789.032
-1147.23
-776.387
-1023.86
-668.905
-590.866
-542.544
254.947
-493.429
831.186
-477.462
1105.28
-461.279
1318.87
-443.315
1556.89
-425.933
1808.26
-409.137
2062.68
-392.316
2313.1
-374.967
2553.59
-356.918
2780.95
-338.114
2992.58
-318.572
3186.16
-298.276
3360.79
-277.288
3515.48
-255.641
3651.03
-233.247
3767.5
-209.98
3863.35
-186.005
3934.86
-161.563
3983.73
-136.369
4014.28
-110.404
4017.82
-84.1861
3986.55
-58.0201
3923.84
-32.3739
3810.61
-8.63023
3598.82
11.773
3262.11
27.7967
2813.99
39.9746
2345.67
49.4879
1911.24
57.3866
1537.35
64.2603
1230.04
70.0008
991.801
74.0891
795.833
77.1609
684.468
78.2603
581.424
80.0496
552.701
77.7943
402.524
81.1673
276.763
97.1099
167.912
97.9152
-283.944
56.5449
-1278.9
31.3216
-2031.72
4.06564
-2603.38
-9.07108
-2754.47
382.766
-294.593
-854.04
-296.653
-988.551
-302.405
-1005.11
-311.189
-1067.03
-326.659
-1094.61
-354.832
-1118.62
-402.043
-1113.83
-472.068
-1084.84
-560.842
-1034.37
-656.62
-980.375
-744.774
-941.417
-814.672
-930.537
-862.751
-949.97
-891.137
-994.279
-904.359
-1055.03
-906.815
-1124.36
-901.703
-1196.13
-890.986
-1265.7
-875.778
-1329.39
-856.797
-1384.17
-834.74
-1427.69
-810.572
-1458.67
-785.706
-1477.26
-762.075
-1484.83
-742.114
-1483.05
-728.586
-1472.31
-724.14
-1450.89
-730.501
-1415.43
-747.499
-1362.11
-772.81
-1288.17
-803.003
-1199.44
-830.883
-1119.35
-824.379
-1030.36
-716.502
-698.743
-559.361
97.8054
-485.987
757.813
-464.422
1083.71
-449.974
1304.42
-434.227
1541.14
-418.145
1792.18
-402.598
2047.13
-387.335
2297.84
-371.545
2537.8
-354.842
2764.25
-337.149
2974.88
-318.495
3167.51
-298.894
3341.18
-278.432
3495.02
-257.166
3629.76
-235.028
3745.36
-211.926
3840.25
-188.057
3910.99
-163.667
3959.34
-138.481
3989.09
-112.499
3991.84
-86.2445
3960.29
-59.9987
3897.6
-34.1811
3784.79
-10.1197
3574.76
10.8074
3241.19
27.608
2797.19
40.8441
2332.43
51.7313
1900.35
61.288
1527.8
69.9618
1221.37
77.3471
984.416
82.6216
790.559
86.3275
680.762
87.3699
580.382
88.9035
551.167
85.3654
406.062
88.1708
273.958
103.908
152.175
104.042
-284.078
60.8302
-1235.69
31.607
-2002.5
1.22078
-2572.99
-27.8714
-2725.38
338.844
-303.917
-850.393
-306.077
-986.392
-313.466
-997.723
-326.339
-1054.16
-350.291
-1070.65
-392.694
-1076.22
-458.378
-1048.14
-545.815
-997.403
-644.036
-936.149
-737.499
-886.911
-813.411
-865.505
-866.576
-877.372
-898.613
-917.932
-914.384
-978.508
-918.835
-1050.58
-915.574
-1127.62
-906.733
-1204.97
-893.392
-1279.04
-876.071
-1346.71
-855.166
-1405.07
-831.294
-1451.56
-805.586
-1484.38
-779.898
-1502.95
-756.888
-1507.84
-739.845
-1500.1
-732.161
-1480
-736.389
-1446.66
-753.082
-1398.74
-779.956
-1335.23
-812.288
-1255.84
-845.22
-1166.51
-873.556
-1091.01
-872.604
-1031.31
-773.972
-797.375
-590.54
-85.627
-483.542
650.815
-451.565
1051.73
-436.612
1289.47
-423.117
1527.65
-409.13
1778.19
-395.043
2033.05
-381.349
2284.15
-367.307
2523.76
-352.237
2749.18
-335.92
2958.57
-318.381
3149.97
-299.661
3322.46
-279.872
3475.23
-259.097
3608.99
-237.293
3723.56
-214.406
3817.36
-190.67
3887.25
-166.34
3935.01
-141.156
3963.91
-115.141
3965.83
-88.8233
3933.98
-62.4642
3871.24
-36.4323
3758.76
-11.9989
3550.33
9.52095
3219.67
27.1879
2779.53
41.6052
2318.01
54.0358
1887.92
65.4767
1516.36
76.2297
1210.61
85.5656
975.08
92.3224
783.802
96.8945
676.19
98.0309
579.245
99.3511
549.847
94.6107
410.802
96.0186
272.55
110.784
137.41
110.579
-283.873
65.7372
-1190.85
31.8369
-1968.6
-2.5121
-2538.65
-40.7415
-2687.15
279.541
-313.619
-846.031
-316.513
-983.498
-327.162
-987.074
-347.308
-1034.01
-384.287
-1033.68
-445.059
-1015.45
-529.786
-963.416
-629.528
-897.661
-727.991
-837.686
-810.265
-804.638
-869.012
-806.758
-905.019
-841.365
-923.383
-899.568
-929.702
-972.189
-928.133
-1052.15
-921.101
-1134.66
-909.739
-1216.33
-894.443
-1294.34
-875.344
-1365.81
-852.682
-1427.74
-827.147
-1477.09
-800.22
-1511.31
-774.454
-1528.71
-753.48
-1528.82
-741.522
-1512.05
-742.258
-1479.26
-757.311
-1431.61
-785.072
-1370.98
-820.6
-1299.7
-857.038
-1219.4
-888.877
-1134.67
-913.75
-1066.14
-916.31
-1028.75
-832.891
-880.794
-632.875
-285.642
-486.858
504.798
-439.659
1004.53
-422.088
1271.9
-409.823
1515.38
-398.46
1766.83
-386.441
2021.03
-374.417
2272.12
-362.179
2511.52
-348.964
2735.96
-334.3
2943.9
-318.12
3133.79
-300.486
3304.83
-281.538
3456.29
-261.381
3588.83
-240.004
3702.18
-217.397
3794.75
-193.833
3863.69
-169.579
3910.76
-144.397
3938.73
-118.334
3939.76
-91.9315
3907.57
-65.4286
3844.74
-39.1445
3732.47
-14.2924
3525.48
7.87712
3197.5
26.4835
2760.92
42.1855
2302.31
56.3071
1873.8
69.8328
1502.83
82.9161
1197.53
94.4829
963.513
103
775.286
108.671
670.518
110.071
577.846
111.245
548.673
105.548
416.499
104.974
273.124
117.949
124.435
117.483
-283.407
71.2443
-1144.61
32.0724
-1929.43
-6.89542
-2499.68
-46.3192
-2647.72
207.53
-324.088
-840.485
-329.033
-978.553
-345.709
-970.399
-377.572
-1002.15
-432.307
-978.94
-513.326
-934.431
-613.203
-863.539
-716.159
-794.705
-804.977
-748.868
-869.882
-739.734
-910.315
-766.324
-931.45
-820.23
-939.574
-891.445
-939.52
-972.243
-934.12
-1057.55
-924.652
-1144.12
-911.469
-1229.52
-894.516
-1311.29
-873.713
-1386.62
-849.293
-1452.16
-822.193
-1504.19
-794.499
-1539
-769.764
-1553.45
-752.826
-1545.76
-748.684
-1516.2
-760.52
-1467.43
-787.821
-1404.31
-825.924
-1332.88
-867.32
-1258.31
-904.005
-1182.71
-930.864
-1107.81
-948.509
-1048.49
-951.235
-1026.03
-885.424
-946.605
-683.285
-487.781
-497.983
319.496
-428.939
935.49
-407.149
1250.11
-394.747
1502.98
-385.753
1757.83
-376.498
2011.77
-366.553
2262.18
-356.168
2501.14
-344.92
2724.72
-332.156
2931.14
-317.598
3119.23
-301.277
3288.51
-283.356
3438.37
-263.967
3569.44
-243.128
3681.34
-220.88
3772.51
-197.54
3840.35
-173.389
3886.6
-148.213
3913.55
-122.095
3913.65
-95.5879
3881.07
-68.9133
3818.06
-42.3412
3705.9
-17.0267
3500.16
5.84456
3174.63
25.4542
2741.31
42.5342
2285.23
58.4835
1857.85
74.2822
1487.03
89.9309
1181.88
103.989
949.455
114.521
764.753
121.516
663.524
123.353
576.009
124.457
547.569
118.118
422.838
115.46
275.782
126.031
113.864
124.953
-282.329
77.4002
-1097.05
32.4596
-1884.49
-12.1605
-2455.06
-69.682
-2590.2
135.817
-336.1
-832.833
-345.514
-969.139
-372.342
-943.57
-421.036
-953.457
-496.656
-903.32
-595.482
-835.605
-701.924
-757.097
-797.353
-699.276
-868.956
-677.264
-914.401
-694.289
-938.594
-742.132
-948.511
-810.313
-949.771
-890.185
-945.736
-976.277
-937.926
-1065.36
-926.733
-1155.32
-911.999
-1244.25
-893.415
-1329.87
-870.829
-1409.2
-844.614
-1478.37
-816.166
-1532.64
-788.492
-1566.68
-766.501
-1575.44
-756.322
-1555.93
-763.143
-1509.37
-788.32
-1442.25
-827.877
-1364.75
-873.788
-1286.97
-916.942
-1215.16
-949.719
-1149.94
-968.339
-1089.19
-975.767
-1041.06
-974.446
-1027.35
-925.962
-995.089
-741.467
-672.276
-521.604
99.6327
-420.222
834.107
-391.97
1221.85
-378.558
1489.57
-371.016
1750.29
-364.803
2005.56
-357.595
2254.97
-349.307
2492.85
-340.073
2715.48
-329.372
2920.44
-316.69
3106.55
-301.927
3273.75
-285.24
3421.68
-266.786
3550.99
-246.616
3661.17
-224.826
3750.72
-201.776
3817.3
-177.765
3862.59
-152.611
3888.39
-126.435
3887.47
-99.8087
3854.44
-72.9372
3791.19
-46.0438
3679.01
-20.2246
3474.34
3.39669
3151
24.0649
2720.64
42.6063
2266.69
60.5119
1839.95
78.7627
1468.78
97.1991
1163.44
113.988
932.666
126.767
751.974
135.285
655.006
137.727
573.566
138.827
546.469
132.141
429.524
127.638
280.284
135.379
106.123
133.035
-279.985
84.2265
-1048.25
33.4327
-1833.69
-16.9994
-2404.63
-78.7559
-2528.45
41.1497
-351.105
-821.418
-368.898
-951.346
-411.07
-901.398
-480.811
-883.716
-576.536
-807.595
-685.496
-726.644
-787.168
-655.426
-866.004
-620.439
-917.097
-626.171
-944.764
-666.622
-956.553
-730.343
-958.973
-807.893
-956.032
-893.126
-949.585
-982.725
-940.134
-1074.81
-927.494
-1167.96
-911.217
-1260.53
-890.877
-1350.21
-866.371
-1433.71
-838.374
-1506.37
-809.032
-1561.98
-782.679
-1593.03
-765.908
-1592.21
-765.888
-1555.96
-786.745
-1488.52
-826.255
-1402.74
-876.06
-1314.95
-925.504
-1237.52
-965.625
-1175.03
-990.728
-1124.83
-998.911
-1081.01
-994.377
-1045.6
-984.795
-1036.93
-948.735
-1031.15
-799.792
-821.219
-560.38
-139.779
-415.843
689.57
-376.324
1182.33
-361.673
1474.92
-354.644
1743.26
-351.096
2002.01
-347.197
2251.07
-341.534
2487.18
-334.445
2708.39
-325.879
2911.87
-315.276
3095.95
-302.323
3260.79
-287.093
3406.45
-269.761
3533.65
-250.413
3641.82
-229.195
3729.5
-206.517
3794.62
-182.697
3838.77
-157.59
3863.29
-131.362
3861.24
-104.608
3827.69
-77.5186
3764.1
-50.2733
3651.76
-23.9087
3447.98
0.506555
3126.59
22.28
2698.87
42.3602
2246.61
62.3466
1819.96
83.2247
1447.9
104.663
1142.01
124.405
912.924
139.633
736.746
149.845
644.794
153.04
570.372
154.18
545.329
147.357
436.347
141.362
286.279
146.042
101.443
141.732
-275.675
91.7214
-998.235
35.0509
-1777.02
-21.6326
-2347.94
-81.5455
-2468.53
-75.7911
-371.501
-803.575
-403.117
-919.73
-465.652
-838.863
-557.355
-792.013
-666.884
-698.067
-774.421
-619.107
-860.757
-569.089
-918.238
-562.958
-949.894
-594.516
-963.749
-652.766
-967.242
-726.85
-965.152
-809.983
-959.753
-898.525
-951.724
-990.753
-940.914
-1085.62
-926.814
-1182.06
-908.835
-1278.51
-886.536
-1372.51
-859.981
-1460.26
-830.377
-1535.97
-801.004
-1591.36
-778.013
-1616.02
-769.815
-1600.41
-783.721
-1542.05
-820.804
-1451.43
-873.545
-1350
-929.398
-1259.09
-976.982
-1189.94
-1009.46
-1142.56
-1024.03
-1110.26
-1020.68
-1084.37
-1003.73
-1062.55
-982.839
-1057.82
-950.795
-1063.19
-837.997
-934.017
-601.81
-375.966
-417.82
505.581
-360.483
1125
-344.064
1458.5
-337.104
1736.3
-335.442
2000.35
-334.989
2250.62
-332.611
2484.81
-328.032
2703.82
-321.672
2905.51
-313.263
3087.54
-302.346
3249.88
-288.814
3392.92
-272.809
3517.65
-254.451
3623.47
-233.941
3708.99
-211.733
3772.41
-188.169
3815.21
-163.146
3838.26
-136.882
3834.98
-109.998
3800.8
-82.6751
3736.78
-55.0512
3624.14
-28.104
3421.03
-2.85492
3101.34
20.0673
2675.95
41.7599
2224.92
63.9509
1797.77
87.634
1424.22
112.287
1117.35
135.19
890.022
153.044
718.892
165.086
632.752
169.15
566.308
170.34
544.138
163.481
443.207
156.29
293.47
157.824
99.9086
150.973
-268.824
99.8641
-947.126
37.4762
-1714.64
-26.1197
-2284.35
-103.711
-2390.94
-164.438
-400.728
-775.602
-452.351
-868.106
-537.789
-753.426
-646.858
-682.943
-758.922
-586.003
-853.081
-524.947
-917.596
-504.575
-953.907
-526.647
-970.109
-578.314
-974.668
-648.208
-973.23
-728.287
-968.591
-814.622
-961.651
-905.465
-952.337
-1000.07
-940.143
-1097.81
-924.407
-1197.79
-904.489
-1298.42
-880.016
-1396.99
-851.379
-1488.9
-820.636
-1566.72
-792.729
-1619.26
-776.081
-1632.67
-780.585
-1595.9
-811.853
-1510.78
-865.415
-1397.87
-927.657
-1287.75
-983.643
-1203.11
-1023.87
-1149.71
-1045.06
-1121.37
-1047.37
-1107.94
-1032.22
-1099.52
-1003.41
-1091.36
-970.09
-1091.14
-934.299
-1098.98
-847.545
-1020.77
-634.288
-589.224
-425.488
296.782
-346
1045.51
-325.645
1438.14
-318.61
1729.27
-318.182
1999.92
-320.786
2253.22
-322.17
2486.19
-320.704
2702.35
-316.768
2901.58
-310.615
3081.38
-301.893
3241.15
-290.293
3381.32
-275.836
3503.19
-258.656
3606.28
-239.008
3689.34
-217.387
3750.79
-194.158
3791.98
-169.269
3813.37
-142.996
3808.7
-115.987
3773.79
-88.4223
3709.21
-60.3985
3596.12
-32.8359
3393.47
-6.71441
3075.22
17.4001
2651.83
40.774
2201.54
65.2953
1773.25
91.9694
1397.55
120.056
1089.27
146.318
863.76
166.947
698.263
180.917
618.782
185.925
561.3
187.143
542.921
180.244
450.105
172.026
301.688
170.436
101.5
160.666
-259.055
108.609
-895.069
41.0294
-1647.06
-27.8194
-2215.5
-80.4137
-2338.35
-270.343
-442.866
-733.294
-519.396
-791.577
-625.141
-647.68
-741.117
-566.968
-842.65
-484.47
-915.022
-452.576
-956.676
-462.921
-975.652
-507.67
-981.327
-572.64
-980.401
-649.134
-976.268
-732.42
-970.109
-820.781
-961.946
-913.627
-951.311
-1010.7
-937.537
-1111.59
-919.904
-1215.43
-897.781
-1320.55
-870.962
-1423.8
-840.401
-1519.46
-809.474
-1597.64
-785.41
-1643.33
-779.137
-1638.94
-800.786
-1574.25
-851.404
-1460.16
-918.813
-1330.46
-984.364
-1222.2
-1033.95
-1153.52
-1062.28
-1121.38
-1069.96
-1113.69
-1059.38
-1118.53
-1032.74
-1126.16
-993.172
-1130.93
-948.232
-1136.08
-904.381
-1142.83
-833.172
-1091.98
-656.013
-766.383
-437.709
78.4782
-334.437
942.236
-306.849
1410.56
-299.183
1721.6
-299.697
2000.43
-304.694
2258.22
-309.87
2491.36
-312.164
2704.64
-311.114
2900.53
-307.337
3077.61
-300.898
3234.71
-291.423
3371.84
-278.745
3490.51
-262.946
3590.49
-244.33
3670.72
-223.43
3729.89
-200.634
3769.19
-175.943
3788.68
-149.699
3782.46
-122.583
3746.68
-94.7733
3681.4
-66.3343
3567.68
-38.1284
3365.26
-11.0974
3048.19
14.2521
2626.48
39.3736
2176.42
66.3556
1746.27
96.2208
1367.68
127.97
1057.52
157.787
833.943
181.316
674.734
197.272
602.825
203.259
555.313
204.443
541.736
197.419
457.129
188.215
310.893
183.584
106.13
170.708
-246.179
117.875
-842.235
45.648
-1574.83
-29.6659
-2140.18
-91.8211
-2276.19
-364.442
-501.396
-673.329
-603.508
-689.466
-720.487
-530.701
-829.611
-457.843
-910.166
-403.915
-958.125
-404.617
-980.359
-440.686
-987.31
-500.72
-986.78
-573.17
-982.942
-652.972
-977.288
-738.074
-969.957
-828.112
-960.523
-923.062
-948.352
-1022.87
-932.722
-1127.22
-912.897
-1235.25
-888.316
-1345.13
-859.096
-1453.02
-827.109
-1551.45
-797.68
-1627.07
-780.956
-1660.05
-789.975
-1629.92
-832.557
-1531.67
-901.752
-1390.97
-977.144
-1255.07
-1038.38
-1160.97
-1075.79
-1116.11
-1089.36
-1107.81
-1082.77
-1120.28
-1059.57
-1141.73
-1022.22
-1163.51
-973.321
-1179.82
-918.817
-1190.58
-866.32
-1195.33
-802.11
-1156.19
-662.377
-906.117
-449.233
-134.666
-325.25
818.253
-288.703
1374.01
-279.04
1711.94
-280.192
2001.59
-287.032
2265.06
-295.573
2499.91
-302.021
2711.09
-304.515
2903.02
-303.427
3076.52
-299.344
3230.63
-292.12
3364.62
-281.433
3479.83
-267.234
3576.29
-249.836
3653.33
-229.808
3709.86
-207.557
3746.94
-183.145
3764.27
-156.982
3756.3
-129.785
3719.48
-101.738
3653.36
-72.8756
3538.82
-44.0038
3336.39
-16.0275
3020.21
10.5986
2599.86
37.5316
2149.49
67.1125
1716.69
100.389
1334.4
136.051
1021.86
169.619
800.375
196.151
648.202
214.115
584.862
221.065
548.363
222.124
540.677
214.829
464.424
204.585
321.137
197.033
113.683
181.009
-230.155
127.578
-788.804
51.3854
-1498.64
-28.6292
-2060.17
-68.9307
-2235.89
-461.209
-577.195
-595.275
-698.916
-567.744
-813.158
-416.459
-903.022
-367.979
-957.982
-348.955
-984.263
-378.336
-992.684
-432.265
-992.505
-500.899
-988.757
-576.918
-983.37
-658.359
-976.59
-744.855
-968.027
-836.675
-957.082
-934.006
-943.08
-1036.88
-925.282
-1145.01
-902.97
-1257.56
-875.74
-1372.36
-844.279
-1484.49
-811.904
-1583.82
-786.671
-1652.3
-782.015
-1664.71
-811.494
-1600.44
-876.681
-1466.48
-959.924
-1307.73
-1034.88
-1180.12
-1084.38
-1111.46
-1105.69
-1094.81
-1103.51
-1109.99
-1083.14
-1140.64
-1048.34
-1176.53
-1001.54
-1210.32
-945.084
-1236.28
-883.657
-1252.01
-824.383
-1254.6
-762.188
-1218.39
-648.96
-1019.34
-449.333
-334.293
-315.019
683.939
-271.87
1330.86
-258.896
1698.97
-259.789
2002.48
-268.137
2273.41
-279.418
2511.19
-289.957
2721.63
-296.628
2909.69
-298.785
3078.68
-297.238
3229.08
-292.336
3359.72
-283.805
3471.29
-271.424
3563.91
-255.446
3637.35
-236.456
3690.87
-214.882
3725.36
-190.846
3740.23
-164.829
3730.28
-137.59
3692.24
-109.321
3625.09
-80.0362
3509.53
-50.4821
3306.84
-21.526
2991.26
6.41523
2571.92
35.2195
2120.69
67.5496
1684.36
104.488
1297.47
144.337
982.006
181.856
762.857
211.476
618.581
231.432
564.907
239.285
540.509
240.096
539.866
232.344
472.176
220.947
332.534
210.603
124.027
191.494
-211.046
137.606
-734.916
57.8797
-1418.91
-28.3413
-1973.95
-83.8867
-2180.34
-563.81
-666.645
-503.208
-795.416
-438.973
-892.525
-319.351
-956.261
-304.243
-987.214
-318.003
-997.582
-367.967
-997.7
-432.147
-993.879
-504.72
-988.519
-582.277
-982.045
-664.833
-974.066
-752.834
-964.005
-846.735
-951.235
-946.777
-935.077
-1053.03
-914.795
-1165.3
-889.731
-1282.63
-859.793
-1402.3
-826.619
-1517.66
-795.705
-1614.74
-778.656
-1669.35
-791.797
-1651.57
-845.88
-1546.36
-931.645
-1380.72
-1020.61
-1218.76
-1085.87
-1114.86
-1118.08
-1079.25
-1121.74
-1091.15
-1104.41
-1127.31
-1071.67
-1173.39
-1026.93
-1221.27
-972.515
-1264.73
-910.653
-1298.14
-845.122
-1317.54
-781.859
-1317.87
-720.212
-1280.03
-624.234
-1115.32
-438.711
-519.816
-299.887
545.115
-255.3
1286.27
-239.68
1683.35
-238.88
2001.68
-248.232
2282.76
-261.733
2524.69
-275.884
2735.78
-287.056
2920.86
-293.162
3084.78
-294.548
3230.47
-292.065
3357.23
-285.79
3465.02
-275.422
3553.54
-261.075
3623
-243.304
3673.1
-222.553
3704.61
-199.005
3716.69
-173.217
3704.49
-145.987
3665.01
-117.525
3596.63
-87.827
3479.83
-57.5819
3276.59
-27.6187
2961.29
1.66968
2542.63
32.4073
2089.95
67.6571
1649.11
108.541
1256.58
152.887
937.66
194.567
721.176
227.341
585.808
249.236
543.012
257.887
531.859
258.292
539.461
249.87
480.598
237.176
345.228
224.165
137.038
202.108
-188.989
147.903
-680.712
65.3949
-1336.4
-25.6841
-1882.87
-82.4574
-2123.57
-659.489
-761.361
-405.584
-881.438
-318.896
-951.688
-249.101
-989.372
-266.558
-1001.96
-305.414
-1002.57
-367.359
-998.463
-436.253
-992.922
-510.262
-986.507
-588.692
-978.867
-672.473
-969.392
-762.309
-957.493
-858.635
-942.559
-961.71
-923.919
-1071.67
-900.853
-1188.36
-872.852
-1310.63
-840.384
-1434.77
-806.614
-1551.43
-780.141
-1641.21
-776.669
-1672.83
-813.523
-1614.71
-893.49
-1466.39
-993.121
-1281.09
-1077.06
-1134.82
-1124.71
-1067.2
-1136.95
-1067.01
-1123.57
-1104.53
-1092.91
-1157.98
-1049.85
-1216.44
-997.37
-1273.75
-937.671
-1324.43
-872.858
-1362.96
-805.905
-1384.49
-741.282
-1382.49
-680.158
-1341.16
-596.238
-1199.24
-424.223
-691.832
-278.815
399.708
-236.649
1244.11
-221.587
1668.28
-218.269
1998.36
-227.548
2292.04
-242.854
2539.99
-259.985
2752.92
-275.506
2936.38
-286.175
3095.45
-291.126
3235.42
-291.301
3357.41
-287.357
3461.08
-279.144
3545.32
-266.634
3610.49
-250.276
3656.74
-230.509
3684.84
-207.579
3693.76
-182.116
3679.03
-154.961
3637.86
-126.345
3568.01
-96.2557
3449.74
-65.322
3245.66
-34.3382
2930.31
-3.67508
2511.96
29.0744
2057.2
67.4361
1610.74
112.587
1211.43
161.782
888.466
207.846
675.112
243.818
549.835
267.564
519.266
276.857
522.566
276.668
539.651
267.342
489.923
253.192
359.378
237.627
152.603
212.806
-164.168
158.383
-626.289
73.7321
-1251.75
-21.6592
-1787.48
-74.4174
-2070.81
-753.686
-850.41
-312.935
-948.12
-221.187
-989.266
-207.955
-1006.19
-249.636
-1007.13
-304.469
-1002.76
-371.73
-996.752
-442.261
-990.182
-516.832
-982.634
-596.239
-973.495
-681.612
-962.153
-773.651
-948.062
-872.726
-930.634
-979.138
-909.203
-1093.11