/*--------------------------------*- C++ -*----------------------------------*\
| =========                 |                                                 |
| \\      /  F ield         | OpenFOAM: The Open Source CFD Toolbox           |
|  \\    /   O peration     | Version:  4.1                                   |
|   \\  /    A nd           | Web:      www.OpenFOAM.org                      |
|    \\/     M anipulation  |                                                 |
\*---------------------------------------------------------------------------*/
FoamFile
{
    version     2.0;
    format      ascii;
    class       volSymmTensorField;
    location    "24";
    object      turbulenceProperties:R;
}
// * * * * * * * * * * * * * * * * * * * * * * * * * * * * * * * * * * * * * //

dimensions      [0 2 -2 0 0 0 0];

internalField   nonuniform List<symmTensor> 
6785
(
(0.753313 1.4695e-19 7.69195e-20 0.753188 0.000167074 0.753499)
(0.753354 -1.1152e-19 -5.13541e-20 0.75332 6.6684e-06 0.753325)
(0.753325 -4.04314e-20 -2.98047e-20 0.75336 3.8667e-05 0.753315)
(0.753334 2.13765e-20 1.54322e-20 0.753345 2.65174e-05 0.753321)
(0.753332 -2.4696e-20 -6.19135e-21 0.753347 2.70514e-05 0.753322)
(0.753333 1.41298e-20 -2.19956e-21 0.753343 2.40318e-05 0.753324)
(0.753332 7.90691e-22 6.19138e-21 0.753342 2.23089e-05 0.753326)
(0.753333 -2.20293e-20 -4.32236e-21 0.753339 2.05295e-05 0.753328)
(0.753333 8.21209e-21 -3.65813e-21 0.753337 1.91818e-05 0.753331)
(0.753333 3.64561e-21 9.27066e-21 0.753334 1.83986e-05 0.753334)
(0.753332 -1.39945e-20 -3.18454e-21 0.75333 1.76793e-05 0.753337)
(0.753334 5.40885e-21 -7.73843e-22 0.753325 1.24274e-05 0.753341)
(0.753334 1.69176e-22 5.07604e-21 0.753325 4.78217e-06 0.753341)
(0.753318 -8.0992e-21 -2.22517e-22 0.753358 9.0022e-06 0.753324)
(0.753347 3.45391e-21 -2.04009e-21 0.753393 -7.86555e-05 0.75326)
(0.75333 1.91282e-19 1.24344e-19 0.753005 0.000221472 0.753665)
(0.753351 -1.3218e-19 -7.65045e-20 0.75334 -1.51236e-05 0.753309)
(0.753325 -5.19732e-20 -3.11432e-20 0.753378 1.19997e-05 0.753297)
(0.75334 1.59741e-20 1.93251e-20 0.753353 -5.73797e-06 0.753307)
(0.753333 -2.00246e-20 -1.13916e-20 0.753362 1.59437e-06 0.753305)
(0.753336 6.02059e-21 2.26748e-21 0.753356 -2.1587e-06 0.753308)
(0.753334 -1.00179e-20 5.83608e-21 0.753356 -1.41524e-06 0.75331)
(0.753335 -1.16897e-20 -6.19721e-21 0.753354 -2.26892e-06 0.753312)
(0.753334 2.42723e-21 5.91121e-22 0.753353 -3.21698e-06 0.753313)
(0.753334 -6.28368e-21 7.61296e-21 0.753356 -6.59002e-06 0.75331)
(0.753334 -6.86962e-21 -3.05805e-21 0.753364 -1.42456e-05 0.753302)
(0.753334 -3.25516e-22 -5.99858e-22 0.753374 -2.8363e-05 0.753292)
(0.753334 8.32504e-22 2.87655e-21 0.753378 -4.45817e-05 0.753287)
(0.753333 9.36055e-23 5.9582e-23 0.753361 -4.38112e-05 0.753306)
(0.753332 5.08861e-21 4.15059e-21 0.75333 -1.72927e-05 0.753337)
(0.753329 2.10525e-19 5.96119e-20 0.752962 0.000225935 0.753709)
(0.753339 -1.30599e-19 -7.46637e-20 0.753349 -1.595e-05 0.753312)
(0.753325 -4.07776e-20 -2.47095e-20 0.75337 -1.13925e-06 0.753305)
(0.753338 3.43123e-20 -2.53744e-20 0.75335 -1.60292e-05 0.753312)
(0.75333 -1.7899e-20 -1.07246e-20 0.75336 -6.37457e-06 0.75331)
(0.753334 6.26814e-21 3.09211e-21 0.753352 -1.16863e-05 0.753314)
(0.753332 5.82447e-21 -3.12826e-20 0.753354 -8.64618e-06 0.753314)
(0.753333 -7.55432e-21 -4.99176e-21 0.75335 -9.66759e-06 0.753317)
(0.753333 7.22009e-21 3.66375e-21 0.753351 -9.66931e-06 0.753317)
(0.753333 3.85993e-21 -3.05386e-20 0.753356 -1.37156e-05 0.753311)
(0.753333 -5.53073e-21 -4.0899e-21 0.753375 -2.42934e-05 0.753293)
(0.753333 2.94744e-20 1.64035e-20 0.753413 -4.70221e-05 0.753254)
(0.753332 -2.19636e-21 -8.80976e-22 0.753436 -5.79452e-05 0.753232)
(0.753338 -3.54846e-20 -2.19992e-20 0.753369 -3.01158e-05 0.753293)
(0.753331 1.18303e-20 9.92122e-21 0.753246 4.96854e-05 0.753423)
(0.753332 1.83319e-19 1.27705e-19 0.752954 0.000218118 0.753714)
(0.753337 -1.09303e-19 -9.87993e-20 0.753346 -1.35826e-05 0.753317)
(0.753329 -5.77413e-20 -1.86112e-20 0.753367 -1.03145e-05 0.753305)
(0.753338 1.42759e-20 9.25201e-21 0.753349 -2.00338e-05 0.753313)
(0.75333 -3.83946e-21 -3.46805e-20 0.753359 -9.58607e-06 0.753311)
(0.753335 -3.82659e-21 1.15199e-20 0.753351 -1.62179e-05 0.753314)
(0.753332 -5.14297e-21 -2.96009e-21 0.753354 -1.19835e-05 0.753314)
(0.753334 3.30559e-21 -2.2247e-20 0.75335 -1.36977e-05 0.753316)
(0.753333 -1.18373e-21 1.08934e-20 0.753351 -1.28182e-05 0.753316)
(0.753334 8.15337e-22 1.26235e-21 0.753352 -1.43944e-05 0.753314)
(0.753333 9.46851e-22 -1.6927e-20 0.753361 -1.76579e-05 0.753305)
(0.753334 -8.81696e-22 7.49547e-21 0.753379 -2.44753e-05 0.753288)
(0.753333 1.05304e-20 7.10023e-21 0.753394 -2.10925e-05 0.753273)
(0.753338 -3.25289e-20 -1.86975e-20 0.753404 -2.88768e-05 0.753258)
(0.753331 1.68306e-20 1.63784e-20 0.753332 1.53189e-05 0.753337)
(0.753333 2.04174e-19 9.56525e-20 0.752963 0.000209846 0.753705)
(0.753336 -1.05683e-19 -9.70807e-20 0.753339 -9.43253e-06 0.753326)
(0.75333 -4.90302e-20 -4.24787e-20 0.753369 -1.60844e-05 0.753301)
(0.753337 1.92652e-20 -1.08167e-21 0.753352 -2.13234e-05 0.753311)
(0.75333 -6.85479e-21 -3.35313e-20 0.753359 -1.1816e-05 0.753311)
(0.753335 1.14961e-20 -1.48424e-20 0.753352 -1.79354e-05 0.753313)
(0.753332 1.22598e-21 -9.82572e-21 0.753355 -1.38807e-05 0.753313)
(0.753334 -1.8286e-21 -2.44809e-20 0.753352 -1.48304e-05 0.753314)
(0.753333 6.52921e-21 -9.6112e-21 0.753352 -1.32635e-05 0.753315)
(0.753333 4.20822e-21 -3.29021e-21 0.753352 -1.32433e-05 0.753315)
(0.753333 -2.38459e-21 -1.81414e-20 0.753355 -1.37007e-05 0.753312)
(0.753334 -1.17995e-21 -7.66423e-21 0.753362 -1.59109e-05 0.753304)
(0.753332 -3.35057e-21 -4.09085e-21 0.753373 -1.51701e-05 0.753294)
(0.753336 -3.33306e-20 -2.06725e-20 0.753392 -2.90501e-05 0.753272)
(0.75333 6.01458e-20 3.48671e-20 0.753374 -4.19504e-06 0.753296)
(0.753333 2.02455e-19 1.35533e-19 0.752978 0.000202338 0.753689)
(0.753335 -1.33568e-19 -5.56914e-20 0.753336 -7.21453e-06 0.75333)
(0.753331 -7.61596e-20 -1.3801e-20 0.75337 -1.85217e-05 0.7533)
(0.753336 5.3418e-21 1.1654e-20 0.753355 -2.10276e-05 0.753309)
(0.753331 -1.29147e-20 2.82407e-21 0.753359 -1.28885e-05 0.75331)
(0.753335 -8.32922e-21 1.68041e-20 0.753353 -1.83194e-05 0.753312)
(0.753332 -1.28505e-20 -4.68763e-21 0.753354 -1.38327e-05 0.753314)
(0.753334 -9.7906e-21 3.79572e-21 0.753349 -1.55764e-05 0.753318)
(0.753333 -8.89685e-21 8.86481e-21 0.753348 -1.42675e-05 0.753319)
(0.753334 -5.11749e-21 -3.05526e-21 0.753347 -1.3528e-05 0.75332)
(0.753333 -1.80087e-21 4.30551e-21 0.753347 -1.09691e-05 0.753319)
(0.753334 -7.90853e-21 3.86458e-21 0.753349 -8.16347e-06 0.753317)
(0.753333 -9.26196e-21 -5.447e-21 0.753356 -5.65253e-06 0.753311)
(0.753334 -1.12616e-20 -1.02821e-22 0.753378 -1.58265e-05 0.753288)
(0.753332 1.5402e-20 2.76709e-21 0.753422 -3.30215e-05 0.753245)
(0.753333 2.08738e-19 1.40713e-19 0.75299 0.000199998 0.753676)
(0.753334 -1.38374e-19 -6.33255e-20 0.753341 -7.47075e-06 0.753325)
(0.753332 -7.08665e-20 -1.75387e-20 0.753368 -1.67586e-05 0.7533)
(0.753336 -2.22902e-22 6.96165e-22 0.753358 -1.82576e-05 0.753306)
(0.753331 -4.70383e-21 1.87554e-20 0.753363 -1.19183e-05 0.753306)
(0.753335 -1.08307e-20 1.56917e-20 0.753361 -1.82211e-05 0.753304)
(0.753332 -1.00586e-20 -4.79786e-21 0.753366 -1.79387e-05 0.753302)
(0.753334 9.07102e-21 1.05458e-20 0.75336 -2.21723e-05 0.753306)
(0.753333 -1.67537e-20 1.91139e-21 0.753349 -1.77511e-05 0.753318)
(0.753333 -1.55764e-20 -8.84513e-21 0.753333 -1.19844e-05 0.753333)
(0.753333 1.30821e-20 1.73028e-20 0.753324 -5.0361e-06 0.753343)
(0.753333 -2.00461e-20 1.47175e-21 0.753321 1.0853e-06 0.753346)
(0.753334 -4.01635e-20 -2.19751e-20 0.753329 3.03245e-06 0.753338)
(0.753333 1.52213e-20 3.27151e-21 0.75336 -5.89925e-06 0.753307)
(0.753333 1.9292e-20 1.498e-20 0.75348 -7.1935e-05 0.753187)
(0.753333 2.01813e-19 1.04689e-19 0.752979 0.000210836 0.753689)
(0.753335 -1.32718e-19 -7.43698e-20 0.753351 -6.93307e-06 0.753314)
(0.753331 -3.43343e-20 -3.16411e-20 0.753366 -9.38923e-06 0.753303)
(0.753335 -2.27405e-21 2.21639e-21 0.753358 -1.12208e-05 0.753307)
(0.753332 -6.79535e-21 -2.90824e-21 0.753364 -7.40722e-06 0.753304)
(0.753334 1.14626e-21 -7.50379e-21 0.753371 -1.55451e-05 0.753295)
(0.753332 5.21989e-21 4.36611e-21 0.753385 -2.11892e-05 0.753282)
(0.753334 4.44311e-21 3.02288e-21 0.753387 -2.70667e-05 0.753279)
(0.753333 -1.03314e-20 -9.40025e-21 0.753377 -2.35692e-05 0.75329)
(0.753333 -9.29844e-21 -5.97215e-21 0.753356 -1.67812e-05 0.753311)
(0.753333 -5.42313e-21 -4.28387e-21 0.753325 -4.97557e-06 0.753342)
(0.753333 -7.2413e-21 -9.98352e-21 0.753291 6.98146e-06 0.753375)
(0.753334 -8.10727e-21 -7.35487e-21 0.753278 9.50069e-06 0.753387)
(0.75333 1.20155e-20 2.3073e-21 0.753322 -5.11582e-06 0.753347)
(0.753334 1.1569e-20 6.39292e-21 0.753486 -9.82389e-05 0.75318)
(0.753332 1.90244e-19 1.12522e-19 0.752943 0.000223975 0.753725)
(0.753336 -1.3127e-19 -7.92905e-20 0.753345 -1.38663e-06 0.753319)
(0.753331 -3.25527e-20 -6.31065e-20 0.753373 -1.07675e-05 0.753295)
(0.753335 1.87899e-21 1.45799e-21 0.753355 -8.85318e-06 0.75331)
(0.753332 -7.10652e-21 -3.44524e-21 0.753359 -5.52323e-06 0.753309)
(0.753334 7.37387e-21 -2.7637e-20 0.753365 -1.2781e-05 0.753301)
(0.753333 5.86398e-21 3.36972e-21 0.753383 -1.76912e-05 0.753285)
(0.753334 1.34616e-20 9.08831e-21 0.753392 -2.31638e-05 0.753274)
(0.753333 1.71256e-21 -1.41444e-20 0.753393 -2.131e-05 0.753274)
(0.753333 3.39727e-21 7.62443e-23 0.753389 -2.11628e-05 0.753277)
(0.753333 1.40433e-20 6.44889e-21 0.753382 -2.14212e-05 0.753285)
(0.753333 -3.69243e-21 -7.91283e-21 0.753358 -1.79668e-05 0.753308)
(0.753333 -7.97392e-21 -1.0767e-20 0.753316 -7.20625e-06 0.753351)
(0.753331 -7.19073e-21 -3.35013e-21 0.753291 -9.36023e-07 0.753378)
(0.753335 -1.50165e-20 -9.02129e-21 0.753353 -4.13154e-05 0.753312)
(0.753332 2.1261e-19 9.49041e-20 0.75294 0.00021361 0.753727)
(0.753335 -1.01369e-19 -6.37882e-20 0.753302 1.61958e-05 0.753362)
(0.753332 -6.34691e-20 -6.3049e-20 0.753377 -1.71129e-05 0.753291)
(0.753335 1.68748e-21 -3.40315e-20 0.753361 -1.62812e-05 0.753305)
(0.753332 -5.31912e-21 -3.00678e-21 0.753355 -1.01845e-05 0.753312)
(0.753334 1.05384e-20 -1.60414e-20 0.753354 -1.36869e-05 0.753311)
(0.753333 8.987e-21 -2.81216e-20 0.753364 -1.48239e-05 0.753303)
(0.753334 6.55019e-21 4.46594e-21 0.753373 -1.84078e-05 0.753293)
(0.753333 2.15008e-20 -1.20619e-22 0.753381 -1.80955e-05 0.753286)
(0.753333 7.49841e-21 -1.20254e-20 0.753387 -1.91592e-05 0.75328)
(0.753333 1.54731e-20 9.77156e-21 0.753394 -2.17033e-05 0.753272)
(0.753333 2.62562e-20 1.3366e-20 0.753403 -2.61634e-05 0.753264)
(0.753333 -5.07545e-20 -2.88976e-20 0.753401 -2.71495e-05 0.753267)
(0.75334 -7.15488e-20 -4.11786e-20 0.75335 -2.28947e-05 0.75331)
(0.753333 5.29199e-20 3.92759e-20 0.753264 2.91743e-05 0.753404)
(0.753333 1.98751e-19 1.1057e-19 0.752982 0.000186182 0.753685)
(0.753334 -6.97809e-20 -2.19951e-20 0.753258 3.71342e-05 0.753408)
(0.753333 -5.18616e-20 -1.02528e-19 0.753369 -1.88461e-05 0.753299)
(0.753334 -3.69599e-20 -2.17948e-20 0.75337 -2.50635e-05 0.753296)
(0.753333 -9.57236e-21 1.28942e-20 0.753359 -1.76305e-05 0.753309)
(0.753334 2.98541e-20 -3.82035e-20 0.753352 -1.72294e-05 0.753314)
(0.753333 -5.12951e-21 -1.16493e-20 0.753354 -1.62591e-05 0.753313)
(0.753334 -4.36323e-21 7.06296e-21 0.753358 -1.75295e-05 0.753309)
(0.753333 3.01407e-20 -2.90863e-20 0.753362 -1.72572e-05 0.753305)
(0.753333 1.18429e-21 -1.58234e-21 0.753366 -1.72271e-05 0.7533)
(0.753333 7.98235e-22 7.62731e-21 0.753372 -1.65984e-05 0.753295)
(0.753334 1.82814e-20 -8.91652e-21 0.753378 -1.71957e-05 0.753288)
(0.753332 -2.69523e-21 2.87698e-21 0.753388 -1.54784e-05 0.753279)
(0.753338 -5.24679e-20 -3.63114e-20 0.753397 -2.91711e-05 0.753265)
(0.75333 3.00088e-20 2.39165e-20 0.753335 1.24272e-05 0.753335)
(0.753334 1.92872e-19 1.14992e-19 0.753026 0.000166391 0.75364)
(0.753333 -5.94825e-20 -9.16941e-21 0.753237 5.15417e-05 0.75343)
(0.753333 -7.52862e-20 -8.76197e-20 0.753363 -1.84878e-05 0.753304)
(0.753334 -3.83597e-20 -2.19917e-20 0.753376 -2.82678e-05 0.75329)
(0.753333 -1.99781e-20 8.85651e-21 0.753364 -2.00656e-05 0.753303)
(0.753334 1.33744e-20 -2.37469e-20 0.753355 -1.68685e-05 0.753311)
(0.753333 8.09994e-21 5.74955e-21 0.753354 -1.48751e-05 0.753313)
(0.753333 -1.69844e-20 1.22026e-20 0.753354 -1.50987e-05 0.753313)
(0.753333 -5.63056e-21 -1.37707e-20 0.753356 -1.47279e-05 0.753311)
(0.753333 4.59093e-21 3.88234e-21 0.753357 -1.4622e-05 0.753309)
(0.753333 -3.11309e-21 -1.6395e-21 0.75336 -1.42266e-05 0.753307)
(0.753333 2.1032e-21 -7.9672e-21 0.753364 -1.50649e-05 0.753303)
(0.753333 -8.15434e-21 3.51237e-21 0.753373 -1.63281e-05 0.753294)
(0.753336 -5.04548e-20 -2.73005e-20 0.753391 -3.16788e-05 0.753273)
(0.753329 5.66612e-20 3.56294e-20 0.753369 -3.06204e-06 0.753302)
(0.753334 1.8749e-19 9.50579e-20 0.753044 0.000159725 0.753623)
(0.753333 -1.59478e-20 -3.08166e-20 0.753232 5.46837e-05 0.753435)
(0.753333 -1.02143e-19 -3.73591e-20 0.753356 -1.70439e-05 0.753311)
(0.753334 -2.30761e-20 -3.71215e-20 0.753373 -2.77771e-05 0.753294)
(0.753333 -8.66139e-21 -5.00424e-21 0.753363 -2.1004e-05 0.753304)
(0.753333 -1.07777e-20 -6.34681e-21 0.753355 -1.71642e-05 0.753312)
(0.753333 1.7188e-20 7.24342e-22 0.753353 -1.45538e-05 0.753314)
(0.753333 -9.94968e-21 2.81835e-20 0.753353 -1.38092e-05 0.753314)
(0.753333 -1.35906e-20 -1.96008e-20 0.753354 -1.29511e-05 0.753313)
(0.753333 1.3127e-21 6.91605e-22 0.753355 -1.23847e-05 0.753311)
(0.753333 -1.05858e-20 1.86268e-21 0.753357 -1.16744e-05 0.75331)
(0.753333 -1.09304e-20 -1.16217e-20 0.753359 -1.16517e-05 0.753307)
(0.753333 -7.9931e-22 1.18562e-21 0.753364 -1.18677e-05 0.753303)
(0.753334 -4.16998e-20 -2.03054e-20 0.753382 -2.27241e-05 0.753283)
(0.753333 5.82627e-20 2.92568e-20 0.753398 -2.4887e-05 0.753269)
(0.753336 1.6436e-19 1.01535e-19 0.753072 0.000140513 0.753593)
(0.753332 -6.68996e-21 -1.57732e-20 0.753228 5.89072e-05 0.75344)
(0.753334 -9.53986e-20 -9.37698e-20 0.753362 -1.49866e-05 0.753304)
(0.753334 -2.78022e-20 -3.17445e-20 0.753384 -2.36725e-05 0.753283)
(0.753333 1.18109e-20 -3.35286e-21 0.753367 -1.41589e-05 0.7533)
(0.753334 -1.04553e-20 -5.51703e-21 0.753353 -8.07468e-06 0.753313)
(0.753333 7.18929e-21 1.62248e-20 0.753348 -5.78802e-06 0.753319)
(0.753334 1.91149e-20 3.51688e-21 0.753346 -6.30358e-06 0.753321)
(0.753333 -1.33996e-20 -7.60828e-21 0.753345 -6.72279e-06 0.753322)
(0.753333 -1.87134e-20 -8.90361e-22 0.753345 -7.5811e-06 0.753322)
(0.753333 -9.02219e-21 -1.37398e-20 0.753345 -8.31271e-06 0.753321)
(0.753333 -5.7414e-21 -1.73895e-21 0.753347 -9.04361e-06 0.753319)
(0.753333 -2.64882e-21 6.25827e-21 0.753353 -9.01557e-06 0.753313)
(0.753333 -2.56019e-20 -1.59618e-20 0.753373 -1.5739e-05 0.753294)
(0.753333 5.03212e-20 3.03869e-20 0.753437 -5.01637e-05 0.75323)
(0.753332 1.19782e-19 7.67401e-20 0.753076 0.000135115 0.753593)
(0.753332 6.6343e-20 3.05686e-20 0.753177 5.12674e-05 0.75349)
(0.753333 -7.31425e-20 -1.77642e-20 0.753296 -1.06607e-05 0.753371)
(0.753333 -7.56166e-20 -4.87489e-20 0.753354 -2.89519e-05 0.753313)
(0.753333 -2.43125e-20 -3.17472e-20 0.753371 -2.47041e-05 0.753296)
(0.753333 -2.57254e-20 -5.6683e-21 0.753369 -1.88405e-05 0.753298)
(0.753333 -7.23091e-21 -8.86517e-21 0.753369 -1.39178e-05 0.753297)
(0.753333 2.03338e-20 -8.69209e-22 0.75337 -1.08324e-05 0.753297)
(0.753333 8.32003e-21 1.35704e-20 0.75337 -8.98054e-06 0.753297)
(0.753333 -1.43108e-20 -1.0722e-20 0.753368 -7.53833e-06 0.753299)
(0.753333 -2.03323e-20 -2.13876e-20 0.753362 -3.46607e-06 0.753304)
(0.753333 -2.13479e-20 -9.24186e-21 0.75335 4.77964e-06 0.753317)
(0.753334 -2.08203e-20 -1.4858e-20 0.753337 1.05778e-05 0.753329)
(0.753331 -2.87888e-20 -2.44136e-20 0.753362 3.34538e-06 0.753307)
(0.753335 9.68478e-20 5.63057e-20 0.753463 -5.85413e-05 0.753202)
(0.753791 8.6485e-21 5.27471e-22 0.752687 0.000512494 0.753522)
(0.753234 8.83039e-21 1.3344e-21 0.753484 0.000544876 0.753282)
(0.753332 2.42763e-21 2.69962e-21 0.753335 7.88786e-05 0.753333)
(0.753335 1.50084e-21 2.94851e-21 0.753317 -1.89595e-05 0.753349)
(0.753336 5.53985e-21 3.42426e-21 0.753313 1.71153e-05 0.753351)
(0.753333 1.09454e-22 1.31654e-21 0.753326 -4.56645e-06 0.753342)
(0.753331 -5.92024e-21 3.40902e-21 0.753324 -1.21374e-05 0.753345)
(0.753336 1.20118e-22 3.01156e-21 0.753317 -3.70878e-06 0.753347)
(0.753335 -7.63765e-21 2.2646e-21 0.753317 3.85564e-06 0.753348)
(0.753333 -1.22507e-20 -4.36021e-23 0.753326 -2.75481e-06 0.753341)
(0.753331 -7.39962e-21 -7.08181e-22 0.753326 -1.40757e-05 0.753343)
(0.753337 2.06503e-21 -9.21335e-22 0.753316 -5.65027e-07 0.753348)
(0.753333 2.67713e-21 1.68619e-21 0.753328 -3.77343e-06 0.753339)
(0.753332 -8.62855e-22 -2.33813e-22 0.753326 -1.21318e-05 0.753342)
(0.753335 -1.78181e-21 -3.56871e-22 0.753321 -5.48311e-06 0.753344)
(0.753334 2.02401e-21 -2.29294e-22 0.753323 -2.13826e-06 0.753343)
(0.753333 1.02698e-21 1.73544e-21 0.75333 -3.91741e-06 0.753337)
(0.753331 -3.21495e-21 -4.9611e-22 0.75333 -1.25629e-05 0.753339)
(0.753337 5.69007e-22 -1.76476e-22 0.753318 -4.76807e-06 0.753345)
(0.753333 5.64991e-22 1.58165e-21 0.753332 -3.77092e-06 0.753335)
(0.753332 -1.04262e-21 9.68063e-24 0.753329 -1.05679e-05 0.753339)
(0.753335 -3.92963e-21 -1.55744e-22 0.753324 -5.8314e-06 0.753341)
(0.753334 -2.46608e-21 -1.03538e-21 0.753326 -5.2467e-06 0.75334)
(0.753333 1.19832e-22 1.53472e-21 0.753334 -3.26723e-06 0.753333)
(0.753332 -1.37614e-21 -4.41244e-22 0.753331 -9.85597e-06 0.753337)
(0.753335 1.40533e-21 -4.85987e-22 0.753325 -6.10008e-06 0.75334)
(0.753334 1.82588e-21 2.80708e-22 0.753328 -6.16259e-06 0.753338)
(0.753333 9.17933e-22 1.40749e-21 0.753335 -2.69261e-06 0.753332)
(0.753331 -5.39445e-22 1.68659e-22 0.753335 -8.63293e-06 0.753334)
(0.753338 -1.31956e-22 -5.84196e-23 0.753321 -7.51838e-06 0.753341)
(0.753333 5.56875e-22 1.23142e-21 0.753337 -2.57041e-06 0.75333)
(0.753332 -1.37176e-21 9.6394e-23 0.753334 -7.8248e-06 0.753334)
(0.753335 1.10049e-21 9.03442e-23 0.753327 -5.97812e-06 0.753338)
(0.753334 1.95396e-21 3.59819e-22 0.753331 -7.93845e-06 0.753336)
(0.753333 -2.24358e-22 1.13928e-21 0.753338 -2.6127e-06 0.753329)
(0.753331 -1.7909e-21 2.41036e-22 0.753337 -6.51794e-06 0.753332)
(0.753337 -3.05904e-22 1.13133e-22 0.753325 -9.0634e-06 0.753338)
(0.753333 -4.58965e-22 8.80876e-22 0.753339 -2.69538e-06 0.753328)
(0.753332 -2.56613e-22 4.27427e-24 0.753337 -5.93228e-06 0.753332)
(0.753335 -2.50077e-21 -5.40464e-23 0.75333 -5.60371e-06 0.753335)
(0.753334 -3.64461e-21 -3.79268e-22 0.753333 -8.81589e-06 0.753333)
(0.753333 -1.38293e-22 2.42081e-22 0.753339 -2.06699e-06 0.753328)
(0.753332 7.1409e-22 -4.10816e-22 0.753337 -3.7388e-06 0.753331)
(0.753335 1.32761e-21 -3.10521e-22 0.753332 -3.89367e-06 0.753333)
(0.753334 5.43742e-22 -2.34147e-22 0.753334 -7.39629e-06 0.753332)
(0.753333 2.11899e-21 2.95997e-23 0.753337 -1.75726e-06 0.75333)
(0.753332 3.55358e-21 2.90742e-22 0.753338 -1.00053e-06 0.753329)
(0.753336 4.01278e-21 7.36025e-22 0.753331 -6.67066e-06 0.753333)
(0.753333 -4.05933e-22 1.59047e-21 0.753336 -1.16243e-06 0.753331)
(0.753333 -1.73427e-21 9.44139e-22 0.753338 -1.58712e-06 0.753329)
(0.753334 3.03795e-21 5.73948e-22 0.753335 -1.06163e-06 0.753331)
(0.753333 4.24032e-21 1.00313e-21 0.753337 -4.91789e-06 0.75333)
(0.753333 1.19722e-21 1.22473e-21 0.753339 1.45226e-06 0.753328)
(0.753333 2.88571e-21 1.18091e-21 0.753339 1.6335e-06 0.753329)
(0.753334 -5.75754e-22 1.35026e-21 0.753334 -4.85509e-07 0.753331)
(0.753333 -1.82217e-21 1.35668e-21 0.753337 4.40465e-08 0.753331)
(0.753334 -2.80104e-22 1.12984e-21 0.753342 8.13983e-06 0.753324)
(0.75333 1.35729e-20 1.27106e-21 0.75334 -2.63256e-07 0.75333)
(0.753336 1.96841e-20 3.2588e-21 0.753325 1.25164e-05 0.753338)
(0.753333 -4.61373e-21 1.23617e-21 0.753348 1.3116e-05 0.753319)
(0.753329 -2.42069e-20 2.41032e-21 0.753336 1.2275e-05 0.753335)
(0.753342 -2.86719e-20 -4.055e-22 0.753305 2.73777e-05 0.753352)
(0.753331 -1.06272e-20 -2.02668e-21 0.753327 -3.40684e-06 0.753342)
(0.753333 1.64872e-20 -2.81471e-22 0.753356 -2.3704e-05 0.753311)
(0.753334 1.58696e-20 2.45606e-21 0.753337 -2.11548e-05 0.75333)
(0.753335 5.91673e-21 3.69475e-21 0.75334 -2.29785e-05 0.753325)
(0.753333 2.6935e-21 1.93369e-22 0.753361 -1.84574e-05 0.753306)
(0.753332 -1.69977e-21 2.57688e-21 0.753359 -1.68654e-06 0.753309)
(0.753337 2.17685e-21 4.29409e-21 0.753351 -1.28632e-06 0.753313)
(0.753333 3.95662e-21 4.66551e-21 0.753365 -3.10353e-05 0.753302)
(0.753333 -4.05837e-21 -1.10133e-21 0.753366 -9.17792e-06 0.753301)
(0.753333 -1.2018e-20 3.75034e-21 0.753372 2.11632e-05 0.753295)
(0.753337 -1.11253e-20 2.45546e-21 0.753363 9.26727e-06 0.7533)
(0.753334 -1.24305e-20 1.1007e-21 0.753378 -2.26268e-05 0.753288)
(0.753331 -5.63939e-21 -6.20089e-21 0.753373 -1.1826e-06 0.753296)
(0.753348 -8.33097e-21 -7.46725e-22 0.753352 3.30335e-05 0.7533)
(0.753331 -7.62472e-21 -1.62584e-21 0.753392 -3.10094e-05 0.753278)
(0.75333 8.88728e-23 -3.7239e-21 0.753373 -1.9145e-06 0.753297)
(0.753349 1.60848e-20 -2.02358e-21 0.75336 3.1441e-05 0.753291)
(0.753329 5.71889e-20 8.5258e-22 0.753405 -8.31874e-05 0.753265)
(0.753328 2.38222e-20 -9.85297e-21 0.753362 -5.68861e-05 0.753311)
(0.753342 -2.42868e-20 -1.16513e-20 0.753329 1.41495e-05 0.753329)
(0.753326 -3.03807e-20 -1.31986e-20 0.753369 -2.75949e-05 0.753305)
(0.753334 -1.41771e-20 6.50534e-21 0.753345 -9.08798e-06 0.753321)
(0.753337 1.56218e-21 -1.13885e-20 0.753338 -2.32146e-05 0.753324)
(0.75333 -2.60451e-20 -7.26486e-21 0.753348 -4.82427e-05 0.753322)
(0.753335 -6.54632e-21 -7.60768e-21 0.753341 -1.89933e-05 0.753324)
(0.753333 -1.51986e-20 -7.79677e-21 0.753346 -1.50156e-05 0.753321)
(0.753334 -2.91042e-20 -8.47449e-21 0.753346 -5.56322e-06 0.75332)
(0.753332 -4.41725e-20 -9.94973e-21 0.75335 5.37844e-06 0.753318)
(0.753336 -5.17159e-20 -1.08033e-20 0.753342 7.76839e-06 0.753322)
(0.753333 -4.30412e-20 -9.87321e-21 0.753353 -1.21536e-05 0.753314)
(0.753333 -6.88314e-21 2.26122e-21 0.753341 -5.63426e-06 0.753326)
(0.753338 3.23425e-21 -7.54904e-21 0.753342 1.22446e-05 0.75332)
(0.753332 -1.17292e-20 -6.40813e-21 0.753352 1.03986e-06 0.753316)
(0.753334 -8.81562e-21 -6.98111e-21 0.753348 2.2196e-06 0.753318)
(0.753333 2.14879e-23 -5.76783e-21 0.753351 -1.87904e-05 0.753316)
(0.753334 4.02039e-21 -5.9061e-21 0.75335 -2.60538e-05 0.753316)
(0.753332 -1.22964e-20 -6.25111e-21 0.753356 -2.10193e-05 0.753312)
(0.753335 -2.1374e-20 -7.13042e-21 0.753352 -2.05579e-05 0.753313)
(0.753334 -3.30903e-20 -8.68186e-21 0.753355 -2.30129e-05 0.75331)
(0.753333 1.67842e-22 -1.96862e-20 0.753334 -5.58738e-06 0.753333)
(0.753338 5.50613e-21 -5.74904e-21 0.753341 2.1456e-06 0.753321)
(0.753331 -8.16592e-21 -4.6335e-21 0.753353 -1.36787e-05 0.753316)
(0.753334 -6.23195e-21 -4.994e-21 0.75335 5.68118e-07 0.753316)
(0.753334 -1.34762e-20 -5.09174e-21 0.753351 -4.59135e-06 0.753315)
(0.753333 -1.81321e-20 -4.53757e-21 0.753352 -1.31505e-05 0.753315)
(0.753333 4.369e-22 -2.57141e-21 0.753349 -1.11606e-05 0.753318)
(0.753334 7.33291e-21 -2.39914e-21 0.753349 -1.03601e-05 0.753317)
(0.753333 -7.20139e-21 -3.15128e-21 0.753353 -1.66471e-05 0.753314)
(0.753338 -1.56345e-20 -4.15889e-21 0.753344 -1.32565e-05 0.753318)
(0.753333 -1.1432e-20 1.27418e-20 0.753324 -4.69795e-06 0.753343)
(0.753337 -5.75866e-21 -2.9705e-21 0.753337 6.63542e-07 0.753326)
(0.753333 -2.19387e-20 -2.33263e-21 0.753344 -1.4017e-05 0.753323)
(0.753333 -2.31204e-20 -3.01693e-21 0.753345 -1.52795e-05 0.753322)
(0.753334 -2.34092e-20 -3.69734e-21 0.753345 -2.46192e-05 0.753321)
(0.753334 -5.22329e-21 -3.93999e-21 0.753347 -4.2701e-05 0.753319)
(0.753333 1.71945e-21 -5.56506e-21 0.753348 -4.50387e-05 0.753319)
(0.753332 -1.32633e-20 -7.28958e-21 0.75335 -2.67133e-05 0.753318)
(0.75334 -2.5495e-20 -8.76186e-21 0.753331 -3.74611e-06 0.753329)
(0.753333 -1.17908e-20 4.99139e-21 0.753312 -1.48829e-06 0.753356)
(0.753337 1.34273e-20 -8.11905e-21 0.753336 -4.31392e-06 0.753328)
(0.753333 1.08903e-20 -7.74718e-21 0.753341 -1.36105e-06 0.753326)
(0.753333 8.04749e-21 -7.94995e-21 0.753339 2.46099e-05 0.753328)
(0.753334 7.73683e-21 -7.58826e-21 0.753336 3.78184e-05 0.75333)
(0.753332 1.40038e-20 -7.31205e-21 0.753337 3.24887e-05 0.75333)
(0.753336 3.41692e-21 -7.32296e-21 0.753328 2.45409e-05 0.753336)
(0.753329 -2.80312e-20 -9.21457e-21 0.753343 1.14481e-06 0.753327)
(0.753341 -3.75337e-20 -8.42057e-21 0.753311 1.95852e-05 0.753349)
(0.753333 8.87105e-21 -1.65657e-20 0.7533 2.39169e-06 0.753367)
(0.753331 -8.398e-21 -5.56126e-21 0.753329 -1.08442e-05 0.753339)
(0.753337 -3.29325e-20 -4.35233e-21 0.75332 6.52481e-07 0.753343)
(0.753332 -4.05186e-20 -5.20144e-21 0.753328 -2.71089e-05 0.75334)
(0.753333 -4.24652e-20 -5.50696e-21 0.753323 -2.45668e-05 0.753344)
(0.753334 -3.29451e-20 -6.32352e-21 0.753319 -5.71543e-06 0.753347)
(0.753336 -2.73586e-20 -7.14768e-21 0.753316 2.9714e-06 0.753348)
(0.753329 -1.82549e-20 -7.47397e-21 0.753327 1.76803e-05 0.753344)
(0.753345 -1.30736e-20 -7.67865e-21 0.753286 5.436e-05 0.753368)
(0.753332 4.11783e-21 -5.16069e-21 0.753292 6.48571e-06 0.753376)
(0.753331 3.75114e-20 -4.38353e-21 0.75332 3.92001e-05 0.753349)
(0.753339 6.46556e-20 -4.91365e-21 0.753312 0.000122886 0.753349)
(0.753331 6.77014e-20 -3.05203e-21 0.753319 0.000117 0.75335)
(0.753335 5.47376e-20 -8.36836e-22 0.753304 0.000128896 0.753361)
(0.753333 -1.95451e-20 1.69599e-23 0.753299 0.00011226 0.753368)
(0.753334 2.23381e-20 1.1409e-20 0.753284 0.000116224 0.753382)
(0.753335 8.70029e-20 1.44765e-20 0.753275 0.000119193 0.753391)
(0.753331 5.20897e-20 1.49238e-20 0.753277 9.96879e-05 0.753392)
(0.753346 5.86291e-20 1.71346e-20 0.753237 0.000109767 0.753417)
(0.753332 1.36409e-21 8.48741e-21 0.75329 -2.23026e-06 0.753378)
(0.753331 -3.84511e-21 1.50831e-20 0.753291 -9.29935e-06 0.753378)
(0.753343 3.33712e-20 1.40749e-20 0.753276 5.96651e-05 0.753381)
(0.75333 2.63427e-20 1.53554e-20 0.753295 2.69792e-05 0.753375)
(0.753338 4.08858e-20 1.62245e-20 0.753278 6.30479e-05 0.753384)
(0.753328 9.29686e-20 1.89393e-20 0.75329 0.000126558 0.753382)
(0.753338 1.33134e-19 1.85011e-20 0.753268 0.000187672 0.753395)
(0.75334 3.8627e-20 6.00317e-21 0.753289 9.47133e-05 0.753371)
(0.753335 -1.80244e-20 2.95199e-21 0.753302 3.24004e-05 0.753363)
(0.753333 5.58538e-21 2.48115e-21 0.753314 3.92645e-06 0.753354)
(0.753331 1.3284e-21 4.49029e-21 0.753317 3.33606e-05 0.753351)
(0.753347 1.8651e-20 3.71033e-21 0.753293 0.000106804 0.753361)
(0.753336 1.12715e-20 1.23653e-21 0.753318 4.81927e-05 0.753346)
(0.753331 -1.74602e-21 -1.16411e-21 0.753333 -1.61933e-06 0.753336)
(0.753336 2.85901e-22 -2.62728e-22 0.753322 -2.59985e-06 0.753343)
(0.753331 2.05698e-22 1.6525e-21 0.753329 7.43684e-06 0.75334)
(0.753334 7.80556e-22 5.4863e-22 0.753326 1.06321e-06 0.75334)
(0.753334 -6.03369e-22 1.4341e-21 0.753323 5.29367e-06 0.753343)
(0.753333 -2.70386e-22 6.43334e-22 0.753328 3.11944e-06 0.753339)
(0.753334 -1.98306e-21 7.15634e-22 0.753326 -4.19668e-06 0.75334)
(0.753333 -1.71653e-21 4.6965e-22 0.753326 3.9973e-06 0.753341)
(0.753333 -1.11856e-22 8.06714e-24 0.753328 1.33733e-06 0.753339)
(0.753334 -3.73177e-23 1.33657e-23 0.753328 -6.02319e-06 0.753339)
(0.753334 9.25256e-23 3.28674e-22 0.753327 -1.64484e-07 0.753339)
(0.753333 -3.74118e-22 3.79512e-23 0.75333 9.72205e-07 0.753337)
(0.753333 9.10781e-21 9.62717e-22 0.753329 -3.92106e-06 0.753338)
(0.753334 8.41715e-21 1.10701e-21 0.753329 -5.48671e-07 0.753337)
(0.753333 -2.52296e-21 4.43452e-22 0.753331 -2.43699e-06 0.753336)
(0.753334 -2.98967e-21 3.14072e-21 0.753328 -3.31035e-06 0.753338)
(0.753333 -1.92174e-21 2.52083e-22 0.75333 -1.77845e-06 0.753336)
(0.753333 -3.50619e-21 2.17762e-21 0.753332 -5.18398e-06 0.753335)
(0.753334 7.99288e-22 6.7271e-23 0.75333 -1.58404e-06 0.753336)
(0.753333 -4.52935e-22 1.70486e-22 0.753333 -2.57118e-06 0.753334)
(0.753333 -1.14115e-21 2.123e-21 0.753332 -4.60879e-06 0.753335)
(0.753334 6.4437e-22 7.44083e-23 0.753329 -1.42222e-06 0.753336)
(0.753332 -2.48535e-21 3.66401e-22 0.753335 -2.31179e-06 0.753333)
(0.753334 -1.98099e-21 1.60702e-21 0.753331 -4.80429e-06 0.753335)
(0.753334 -1.01189e-22 1.09887e-22 0.753332 -2.12513e-06 0.753335)
(0.753332 2.30008e-21 1.58635e-21 0.753336 -4.78246e-06 0.753332)
(0.753335 5.02844e-21 3.65429e-22 0.75333 -1.91255e-06 0.753335)
(0.753332 1.36627e-21 4.22143e-22 0.753336 -2.0167e-06 0.753332)
(0.753334 2.31299e-21 4.07704e-21 0.753331 -4.14975e-06 0.753334)
(0.753334 1.04994e-21 5.62336e-22 0.753333 -1.85883e-06 0.753334)
(0.753332 -1.56236e-22 4.57001e-21 0.753336 -4.09685e-06 0.753332)
(0.753335 5.43459e-21 5.44211e-22 0.753331 -1.56827e-06 0.753335)
(0.753332 -1.28491e-21 7.8544e-22 0.753336 -1.89935e-06 0.753332)
(0.753333 -4.20822e-21 5.63264e-21 0.753333 -3.91236e-06 0.753334)
(0.753335 8.02149e-22 3.18162e-22 0.753331 -1.36228e-06 0.753334)
(0.753332 -6.366e-21 8.84605e-22 0.753337 -2.12353e-06 0.753331)
(0.753334 -5.14826e-21 3.6293e-21 0.753331 -3.38081e-06 0.753336)
(0.753334 1.37804e-22 2.18421e-22 0.753333 -1.69612e-06 0.753333)
(0.753331 2.15538e-21 3.38812e-21 0.753335 -3.95146e-06 0.753334)
(0.753335 5.16311e-21 5.07051e-22 0.753332 -8.39049e-07 0.753334)
(0.753332 -9.46758e-22 7.90229e-22 0.753337 -2.44996e-06 0.753331)
(0.753333 -5.51901e-22 4.60269e-21 0.75333 -3.89269e-06 0.753337)
(0.753334 -2.92233e-22 1.16469e-21 0.753333 -1.81717e-06 0.753333)
(0.753331 -1.40646e-21 4.54683e-21 0.753335 -4.44624e-06 0.753334)
(0.753335 3.51871e-21 8.19926e-22 0.753332 -6.89229e-07 0.753334)
(0.753332 -3.34748e-21 1.35436e-21 0.753336 -2.49084e-06 0.753331)
(0.753333 -4.4626e-21 4.49006e-21 0.753331 -4.84535e-06 0.753336)
(0.753335 -3.34208e-22 6.80933e-22 0.753331 -5.99795e-07 0.753334)
(0.753332 -5.47845e-21 9.0616e-22 0.753337 -2.43781e-06 0.753331)
(0.753333 -8.02851e-21 2.08436e-21 0.75333 -4.12532e-06 0.753337)
(0.753334 -3.00267e-21 -1.4247e-22 0.753333 -1.42204e-06 0.753333)
(0.753331 -2.96212e-21 -5.50798e-23 0.753334 -4.82713e-06 0.753335)
(0.753335 9.21595e-22 -2.92669e-23 0.753331 -2.15085e-07 0.753334)