/*--------------------------------*- C++ -*----------------------------------*\
| =========                 |                                                 |
| \\      /  F ield         | OpenFOAM: The Open Source CFD Toolbox           |
|  \\    /   O peration     | Version:  4.1                                   |
|   \\  /    A nd           | Web:      www.OpenFOAM.org                      |
|    \\/     M anipulation  |                                                 |
\*---------------------------------------------------------------------------*/
FoamFile
{
    version     2.0;
    format      ascii;
    class       volVectorField;
    location    "24";
    object      U;
}
// * * * * * * * * * * * * * * * * * * * * * * * * * * * * * * * * * * * * * //

dimensions      [0 1 -1 0 0 0 0];

internalField   nonuniform List<vector> 
6785
(
(1.33653e-14 -2.32142 16.4861)
(1.11427e-14 -7.91342 12.9929)
(-2.93067e-15 -5.12418 13.7946)
(3.81018e-15 -5.05438 13.3096)
(9.26132e-16 -4.24932 13.1756)
(8.9504e-17 -3.81028 12.894)
(2.90892e-15 -3.36974 12.6175)
(5.60627e-16 -3.0484 12.3066)
(-5.43708e-16 -2.81919 12.0023)
(1.74066e-15 -2.72918 11.7347)
(2.26415e-16 -2.75517 11.561)
(-3.90483e-16 -2.8964 11.4345)
(9.45436e-16 -3.48884 10.8959)
(-2.15786e-17 -3.68286 9.70331)
(-3.86635e-16 -0.156134 7.6873)
(1.9287e-14 -10.3814 26.9826)
(1.28568e-14 -16.288 23.4618)
(-2.45215e-15 -11.2513 23.7977)
(4.30932e-15 -11.966 22.0053)
(8.57525e-16 -10.2379 21.172)
(1.01594e-15 -9.57817 19.9732)
(1.84776e-15 -8.58557 18.9339)
(5.0463e-17 -7.80675 17.8798)
(-7.48049e-17 -7.03089 16.8662)
(4.49693e-16 -6.25791 15.7285)
(-4.26151e-16 -5.26215 14.1154)
(-6.80132e-16 -3.80703 11.4804)
(-4.79676e-16 -1.97525 7.37667)
(-3.72681e-16 -0.167646 2.5091)
(-4.64281e-16 0.364232 -0.146001)
(1.9942e-14 -13.0713 28.7269)
(1.12738e-14 -17.1475 25.4771)
(-1.53768e-15 -12.291 25.5025)
(4.56724e-15 -13.4865 22.9574)
(6.94918e-16 -11.2814 21.9822)
(1.62323e-15 -10.9484 20.2133)
(1.72582e-15 -9.80674 18.9073)
(-1.47275e-16 -9.17109 17.4815)
(4.83276e-16 -8.4109 16.2059)
(1.04019e-15 -7.68788 14.7249)
(-9.28254e-16 -6.51333 12.5326)
(1.30455e-16 -4.2347 8.39541)
(3.91931e-15 0.085259 0.644371)
(-2.85083e-17 4.27946 -6.3431)
(-1.91696e-15 2.67011 -5.96114)
(1.96955e-14 -13.6393 27.8645)
(1.18164e-14 -17.4395 25.9447)
(-1.01029e-15 -12.9147 25.2118)
(4.36539e-15 -14.2779 22.3261)
(1.33762e-15 -11.9974 21.3339)
(1.68768e-15 -11.89 19.2998)
(2.07247e-15 -10.7582 17.8697)
(8.41831e-16 -10.1495 16.2394)
(5.69849e-16 -9.40796 14.7641)
(1.32922e-15 -8.72457 13.237)
(7.03945e-16 -7.86224 11.4347)
(1.20735e-16 -6.42711 8.88244)
(1.24099e-15 -4.18382 4.99776)
(1.51155e-15 -1.38384 1.82322)
(-4.36506e-15 1.25834 -3.85482)
(1.94885e-14 -13.2687 26.1326)
(1.27294e-14 -17.1492 26.0824)
(-6.21381e-16 -13.0218 24.5673)
(3.30165e-15 -13.8926 21.5932)
(1.1832e-15 -11.8148 20.4965)
(8.09971e-16 -11.5678 18.4219)
(1.70984e-15 -10.4489 16.8862)
(3.29588e-16 -9.72691 15.2167)
(-6.37345e-16 -8.95377 13.7172)
(3.93297e-17 -8.21516 12.2845)
(-6.27262e-16 -7.45465 10.7771)
(-1.71715e-15 -6.42974 9.06133)
(-1.50338e-15 -5.1081 6.75815)
(-2.60923e-15 -3.08542 4.3868)
(-7.32623e-15 -0.526184 -1.12143)
(2.09222e-14 -12.7208 24.7651)
(1.37411e-14 -16.4491 25.4471)
(3.1853e-16 -12.6171 23.7319)
(3.26187e-15 -13.2466 20.6604)
(1.19696e-15 -11.1068 19.5821)
(1.8198e-15 -10.8977 17.3807)
(1.87358e-15 -9.66768 15.9518)
(3.88314e-16 -9.11647 14.3689)
(9.45353e-16 -8.46154 13.0235)
(2.89411e-16 -7.92066 11.7015)
(1.03685e-16 -7.38448 10.4754)
(6.75305e-16 -6.77938 9.41063)
(-1.73756e-16 -6.07994 8.344)
(-8.48019e-16 -4.8721 7.1181)
(-1.68491e-15 -2.4965 3.14393)
(2.31243e-14 -12.7159 24.4346)
(1.25678e-14 -15.507 24.6307)
(1.72983e-15 -12.171 23.0402)
(2.95824e-15 -12.4968 20.1542)
(1.69317e-15 -10.2944 19.0583)
(3.5489e-15 -9.918 16.7785)
(1.27617e-15 -8.19605 14.9993)
(1.8946e-15 -7.18294 12.525)
(3.45023e-15 -6.10496 10.6284)
(1.62399e-16 -5.91189 9.56461)
(8.88434e-16 -6.12484 9.47398)
(2.65512e-15 -6.69695 9.98205)
(-1.38525e-15 -7.11154 10.7906)
(-3.95045e-15 -7.13041 10.9016)
(4.36311e-16 -4.9272 8.2819)
(2.26011e-14 -13.791 26.0632)
(9.22899e-15 -15.302 25.1869)
(7.73405e-16 -12.4666 23.9147)
(2.21809e-15 -12.4344 21.7674)
(1.08155e-15 -10.5288 20.7626)
(1.10048e-15 -9.7379 18.7408)
(5.87975e-16 -7.53126 16.2422)
(1.95895e-15 -5.39009 12.5501)
(1.31872e-15 -3.12454 9.19168)
(8.91866e-17 -1.72718 6.70934)
(-2.10637e-16 -1.29217 5.79947)
(-8.02738e-16 -2.41205 7.0394)
(-1.74268e-15 -4.77013 10.0125)
(-2.13617e-15 -6.99395 12.4023)
(2.33472e-16 -5.43867 10.4953)
(2.16846e-14 -14.5805 27.1175)
(9.60606e-15 -17.3743 28.268)
(9.43922e-17 -13.8457 25.9841)
(1.52355e-15 -13.9311 24.0595)
(4.0336e-16 -12.2159 23.218)
(3.54699e-16 -11.6965 21.4369)
(-4.30385e-16 -9.67842 19.1749)
(1.31923e-15 -7.58196 15.552)
(1.78371e-15 -4.92998 11.917)
(9.18722e-16 -2.62749 8.43263)
(2.34253e-15 -0.335949 5.11047)
(3.22847e-15 1.41492 2.15432)
(1.99106e-15 1.74967 1.02207)
(1.91702e-15 0.0835045 2.51171)
(8.08419e-16 -1.49588 4.13988)
(1.93673e-14 -13.2019 23.8066)
(1.35513e-14 -18.9983 30.4632)
(2.69481e-15 -15.9081 27.9115)
(1.74793e-15 -15.2656 25.1135)
(2.43676e-16 -13.7799 23.8206)
(8.73148e-16 -13.3869 22.141)
(6.1276e-16 -12.1231 20.4169)
(3.04711e-16 -10.8013 17.864)
(1.69013e-15 -8.90029 15.0228)
(2.47679e-15 -6.88511 11.9193)
(1.90012e-15 -4.51163 8.4961)
(5.02179e-15 -1.85762 4.49296)
(6.04806e-15 1.17552 -0.0471839)
(-3.15511e-15 3.7434 -3.95621)
(-5.71949e-15 1.94183 -4.43629)
(1.65088e-14 -10.5207 18.3131)
(1.61811e-14 -18.3206 29.6027)
(6.39645e-15 -16.7511 28.2913)
(2.1948e-15 -15.3392 24.728)
(3.17531e-16 -13.8426 22.5876)
(1.30261e-15 -13.1961 20.7134)
(1.13513e-15 -12.3281 19.0668)
(4.58966e-16 -11.4567 17.1717)
(1.09967e-15 -10.3528 15.1138)
(1.32372e-15 -9.08101 12.8993)
(1.29446e-15 -7.65002 10.521)
(2.13715e-15 -5.91543 7.96505)
(2.25494e-15 -3.99292 5.01574)
(1.69388e-15 -1.30679 1.9652)
(-6.80063e-15 0.873058 -3.45542)
(1.43166e-14 -8.40214 14.2992)
(1.74063e-14 -16.9237 28.0769)
(7.26223e-15 -16.3063 27.627)
(2.29554e-15 -14.4992 23.7393)
(9.5326e-16 -12.828 21.1087)
(3.73903e-16 -11.9384 19.1061)
(1.10641e-15 -11.0633 17.4946)
(1.70611e-15 -10.2494 15.861)
(3.59345e-16 -9.369 14.1994)
(9.79022e-17 -8.40285 12.5029)
(1.11446e-15 -7.39382 10.7349)
(-4.14039e-16 -6.1903 8.89953)
(4.37116e-16 -4.90447 6.74447)
(-1.41422e-15 -2.87963 4.11522)
(-8.03165e-15 -0.390779 -1.41577)
(1.20683e-14 -7.67287 13.053)
(1.74019e-14 -16.152 27.222)
(8.0807e-15 -15.9477 27.0616)
(1.96636e-15 -14.2518 23.4702)
(1.55677e-15 -12.7105 20.8332)
(5.4179e-16 -11.8096 18.836)
(-2.15861e-16 -10.9615 17.2346)
(2.68648e-15 -10.1688 15.7033)
(8.75995e-16 -9.34129 14.1959)
(-2.30917e-16 -8.44982 12.6973)
(1.09189e-15 -7.53177 11.166)
(-1.28998e-15 -6.48368 9.62009)
(-1.38803e-15 -5.41783 7.92008)
(-1.42144e-15 -3.93086 5.99734)
(-7.9056e-15 -1.47556 1.58146)
(9.35229e-15 -6.59159 10.548)
(1.76806e-14 -15.1394 25.3789)
(6.88772e-15 -15.1548 25.2935)
(-7.38014e-16 -12.8748 21.281)
(9.50595e-16 -11.0436 18.4938)
(5.22347e-16 -10.1282 16.8393)
(-7.69036e-16 -9.45302 15.8042)
(2.38674e-15 -8.94925 14.8444)
(1.69259e-15 -8.46405 13.9272)
(1.82869e-16 -7.99593 13.0112)
(-7.0317e-16 -7.55284 12.0515)
(-1.98313e-15 -7.01867 11.0373)
(-1.64742e-15 -6.40706 9.85379)
(-2.07772e-15 -5.36021 8.45805)
(-6.19916e-15 -3.16409 5.04565)
(3.79665e-15 -5.70124 10.2902)
(1.59046e-14 -15.3236 24.4466)
(1.33444e-14 -18.4411 27.5529)
(5.23941e-15 -18.3281 25.5422)
(9.07729e-16 -16.753 22.4858)
(-1.23622e-16 -15.212 19.8123)
(-1.95891e-15 -13.7418 17.5311)
(-1.31283e-15 -12.2354 15.4313)
(7.03279e-16 -10.6992 13.477)
(7.37706e-16 -9.23549 11.5771)
(-1.65051e-15 -7.85393 9.87624)
(-3.28851e-15 -6.85321 8.86412)
(-4.47937e-15 -6.47848 9.05074)
(-6.71289e-15 -6.58609 9.63624)
(-9.55534e-15 -3.98486 7.23405)
(-1.74072e-17 13.7012 58.6213)
(-8.40058e-16 0.0322382 6.96618)
(-1.02909e-15 -0.608254 -3.17736)
(-1.04643e-15 -0.399142 -2.03349)
(-1.08819e-15 -0.249225 -2.38269)
(-1.51427e-15 0.451736 -3.16203)
(-1.10073e-15 0.157737 -2.12037)
(-1.0388e-15 0.422443 -2.09603)
(-1.10546e-15 0.534157 -2.02249)
(-2.17939e-16 1.09405 -2.77606)
(3.45872e-16 0.907075 -1.93537)
(4.03848e-16 1.08478 -1.83466)
(6.73752e-17 1.66468 -2.35501)
(9.71341e-17 1.34883 -1.60917)
(1.18792e-16 1.60595 -1.59351)
(1.67298e-16 1.61068 -1.56461)
(-1.42398e-16 2.13199 -1.90643)
(4.96382e-17 1.79977 -1.3084)
(9.67373e-17 1.96333 -1.26795)
(-7.11589e-17 2.51201 -1.46355)
(3.20073e-17 1.98763 -1.01528)
(3.03549e-17 2.26203 -1.01451)
(1.86748e-16 2.19362 -1.02437)
(1.35083e-16 2.73642 -1.12447)
(1.73019e-16 2.164 -0.800312)
(2.11504e-16 2.42496 -0.798594)
(1.1768e-16 2.35246 -0.821313)
(7.91003e-17 2.79812 -0.844234)
(1.2514e-17 2.25986 -0.619811)
(2.34259e-17 2.40264 -0.634818)
(9.61903e-18 2.82673 -0.552754)
(-4.03743e-17 2.16064 -0.435575)
(-3.55679e-18 2.39377 -0.431579)
(-8.37094e-17 2.31461 -0.456183)
(-1.67496e-16 2.64332 -0.282155)
(-5.80051e-17 2.06789 -0.216687)
(-3.281e-17 2.18798 -0.230099)
(-6.45731e-17 2.47379 0.0683066)
(1.97728e-17 1.83438 0.0295662)
(-5.03969e-18 2.00644 0.0576621)
(1.18248e-16 1.92103 0.0365479)
(1.67114e-16 2.13906 0.400365)
(1.34092e-16 1.57757 0.257938)
(1.19643e-16 1.70958 0.274604)
(8.18133e-17 1.62677 0.227668)
(1.21473e-16 1.7976 0.60127)
(-1.60956e-16 1.40093 0.472233)
(-2.02917e-16 1.44153 0.40101)
(-4.83255e-16 1.59761 0.813411)
(-1.5641e-16 1.23866 0.630576)
(-2.04477e-16 1.29424 0.620362)
(-2.76038e-16 1.22153 0.532604)
(-5.06519e-16 1.24367 0.887991)
(-4.13201e-16 0.899593 0.555295)
(-5.65466e-16 0.92291 0.519834)
(-3.90529e-16 0.895074 0.473764)
(-5.94008e-16 0.779996 0.355853)
(-3.58438e-16 0.422028 -0.13763)
(-9.90431e-16 0.378523 0.0239127)
(-1.34761e-15 1.01655 -1.69834)
(-4.61844e-16 -0.477871 -1.11086)
(1.24686e-16 0.00682272 -1.82208)
(6.67194e-16 0.25479 -2.18534)
(3.67591e-16 -0.181895 -1.03272)
(-1.22172e-15 -1.09346 1.2388)
(-1.18869e-15 -0.775915 1.2314)
(-1.83128e-15 -1.79777 3.69812)
(-1.49728e-15 -2.351 4.20783)
(-1.53072e-15 -2.64987 4.29103)
(-1.583e-15 -2.62004 4.54004)
(-1.83307e-15 -4.23333 7.70805)
(-1.11804e-15 -4.54485 6.60358)
(-9.40804e-16 -5.17536 6.71112)
(-6.79948e-16 -5.05064 6.7964)
(-1.27667e-16 -7.46664 10.3097)
(3.48443e-16 -7.47015 8.05538)
(4.794e-16 -7.53729 8.51481)
(8.88331e-16 -10.2765 12.5366)
(4.69218e-16 -9.9579 9.77009)
(9.33617e-18 -10.3127 10.7802)
(-1.23736e-15 -11.1083 13.1644)
(-9.0295e-16 -10.9246 12.8349)
(-8.62855e-16 -11.0021 13.0718)
(1.34947e-15 -12.3115 14.8676)
(-6.31587e-16 -11.5112 14.0852)
(-2.72038e-16 -11.6753 14.7372)
(-2.2997e-16 -11.6459 14.9304)
(-1.71074e-16 -11.7162 15.1239)
(4.27053e-18 -11.7469 15.2556)
(2.77578e-16 -11.8141 15.3069)
(6.8562e-16 -11.8834 15.2742)
(1.07524e-15 -11.8627 15.2878)
(2.49033e-15 -12.7874 16.7748)
(1.34049e-15 -12.1974 15.8216)
(1.51337e-15 -12.3405 15.9241)
(1.52145e-15 -12.3567 15.9037)
(1.64922e-15 -12.4467 15.9958)
(1.52104e-15 -12.4969 16.2946)
(1.58727e-15 -12.5741 16.5035)
(1.71068e-15 -12.6769 16.7303)
(1.91671e-15 -12.7043 16.9341)
(3.4869e-15 -13.392 18.3392)
(2.57323e-15 -12.758 17.2767)
(2.66524e-15 -12.8992 17.5417)
(2.69912e-15 -12.9256 17.5693)
(2.76131e-15 -13.0173 17.6228)
(2.907e-15 -13.0624 17.7327)
(3.04098e-15 -13.1598 17.9145)
(2.90035e-15 -13.1819 17.9795)
(2.928e-15 -13.2814 18.1537)
(3.01144e-15 -13.3363 18.3211)
(3.82578e-15 -13.3183 18.926)
(3.33848e-15 -12.9656 18.3154)
(3.52164e-15 -13.0336 18.467)
(3.67685e-15 -13.0521 18.5703)
(3.87823e-15 -13.124 18.7446)
(4.0377e-15 -13.1381 18.9938)
(3.95867e-15 -13.2248 19.4507)
(4.01122e-15 -13.2536 19.7202)
(4.16321e-15 -13.3623 19.8909)
(5.40832e-15 -12.4258 19.3686)
(4.52138e-15 -12.4452 19.324)
(4.48606e-15 -12.4338 19.4035)
(4.35344e-15 -12.5038 19.3372)
(4.36197e-15 -12.4758 18.9989)
(4.23414e-15 -12.5161 18.7314)
(4.14599e-15 -12.5118 18.475)
(4.1814e-15 -12.454 18.3273)
(4.57796e-15 -12.6165 18.4416)
(5.51745e-15 -10.5796 15.9187)
(4.8101e-15 -11.1762 17.2924)
(5.07655e-15 -11.0456 17.1172)
(5.31774e-15 -11.0483 17.2137)
(5.70116e-15 -11.0076 17.4587)
(5.97268e-15 -10.9701 17.4965)
(6.20931e-15 -10.8897 17.4381)
(6.39441e-15 -10.8203 17.3376)
(6.49067e-15 -10.8805 17.0563)
(7.03462e-15 -8.20431 13.4131)
(6.46677e-15 -9.11667 15.4687)
(5.99863e-15 -8.85065 14.2986)
(5.47013e-15 -8.9077 13.4152)
(4.95442e-15 -8.75443 12.3206)
(4.62581e-15 -8.66754 11.2546)
(5.2554e-15 -8.49635 10.4092)
(4.28099e-15 -8.28091 9.26854)
(3.91367e-15 -8.0313 8.36043)
(3.47759e-15 -7.86453 7.51036)
(1.06127e-15 -4.40901 1.73276)
(3.19091e-15 -5.99894 6.65908)
(2.83762e-15 -5.38307 5.66626)
(2.67614e-15 -5.48458 5.5852)
(2.43159e-15 -5.11144 5.06928)
(2.04587e-15 -5.02291 4.42796)
(9.97456e-16 -4.81993 2.91882)
(-7.57983e-18 -4.48255 1.37428)
(4.01612e-16 -4.42537 1.41414)
(-2.77584e-16 -3.42155 -1.61105)
(8.17074e-17 -3.58062 0.692623)
(-8.34317e-18 -3.44236 -0.30124)
(-6.67791e-16 -2.51168 -2.55547)
(-4.65221e-16 -3.76057 -2.00684)
(-6.37451e-16 -2.43103 -1.92375)
(-5.57659e-16 -2.21331 -1.34163)
(-6.6452e-16 -2.2888 -2.06447)
(-4.64966e-16 -1.54939 -1.34511)
(-5.85119e-16 -1.58463 -2.16615)
(-3.62579e-16 -0.999777 -1.63873)
(-1.31028e-16 -0.768193 -1.23685)
(-1.36684e-16 -0.516489 -1.88456)
(-1.03423e-16 -0.209076 -1.30918)
(-1.21914e-16 0.0802154 -0.683103)
(-1.15599e-16 0.261149 -1.29855)
(-5.74907e-17 0.33959 -0.90389)
(-1.31415e-15 0.557686 -0.922815)
(-1.60938e-15 0.826281 -0.910456)
(-9.53745e-16 0.740568 -0.624841)
(-1.21594e-15 1.18948 -0.777782)
(-7.36379e-16 0.994993 -0.495261)
(-7.54526e-16 1.22746 -0.491174)
(-9.14028e-16 1.42097 -0.3899)
(-7.16543e-16 1.22909 -0.230661)
(-7.63857e-16 1.49464 -0.266422)
(-8.48817e-16 1.7107 -0.199071)
(-4.70748e-16 1.33677 -0.123432)
(-5.8812e-16 1.93588 -0.115108)
(-4.53323e-16 1.47717 -0.0659206)
(-8.9081e-16 1.70487 -0.0697731)
(-1.61427e-15 1.90206 -0.0185195)
(-1.30757e-15 1.45677 -0.0435607)
(-1.91865e-15 2.0858 -0.0751443)
(-1.48837e-15 1.54495 -0.0939564)
(-1.89809e-15 1.82431 -0.148804)
(-2.60039e-15 1.86616 -0.186225)
(-1.85299e-15 1.50267 -0.189951)
(-2.04659e-15 1.87139 -0.272167)
(-1.97255e-15 1.83817 -0.340669)
(-1.04534e-15 1.39116 -0.308509)
(-1.29506e-15 2.02168 -0.471482)
(-1.06907e-15 1.46743 -0.412025)
(-1.5787e-15 1.74788 -0.540452)
(-2.08523e-15 1.74115 -0.648118)
(-1.42916e-15 1.33501 -0.495797)
(-2.0126e-15 1.95868 -0.690209)
(-1.4924e-15 1.42545 -0.544165)
(-1.82751e-15 1.73059 -0.676203)
(-2.18901e-15 1.67862 -0.767658)
(-1.45531e-15 1.36957 -0.560494)
(-1.60175e-15 1.76162 -0.679864)
(-1.32945e-15 1.70457 -0.76365)
(-5.90043e-16 1.32276 -0.556817)
(-2.72901e-16 1.94121 -0.764754)
(4.05883e-17 1.45144 -0.586389)
(1.16913e-16 1.72862 -0.709763)
(-1.96806e-16 1.77328 -0.79966)
(-3.27274e-16 1.39677 -0.564113)
(-8.53649e-16 2.01763 -0.760463)
(-8.62923e-16 1.52371 -0.557808)
(-1.25079e-15 1.82301 -0.667032)
(-1.69218e-15 1.82606 -0.752684)
(-1.19703e-15 1.51339 -0.521677)
(-1.47731e-15 1.88353 -0.619872)
(-1.38553e-15 1.88072 -0.681342)
(-7.74626e-16 1.46578 -0.45856)
(-6.80331e-16 2.0888 -0.59833)
(-2.41705e-16 1.62095 -0.406244)
(-1.2656e-17 1.86785 -0.477149)
(1.01284e-16 1.96064 -0.488761)
(5.45028e-17 1.54927 -0.307174)
(-1.75033e-16 2.16782 -0.388403)
(-3.60468e-16 1.67539 -0.246261)
(-7.42233e-16 1.93278 -0.288297)
(-1.1674e-15 1.9971 -0.281281)
(-9.14226e-16 1.69255 -0.163933)
(-1.14167e-15 1.99912 -0.197435)
(-1.22767e-15 2.14383 -0.195127)
(-7.41223e-16 1.70456 -0.116806)
(-7.89474e-16 2.37269 -0.208507)
(-4.57489e-16 1.85346 -0.129995)
(-2.56291e-16 2.18666 -0.238814)
(-3.23753e-21 1.1549 1.68929)
(-8.20393e-20 1.33454 1.71283)
(-3.16029e-19 1.3711 1.73318)
(-8.32933e-19 1.46357 1.7663)
(-1.46928e-18 1.51964 1.79832)
(-7.12536e-19 1.5907 1.8404)
(6.75167e-18 1.6499 1.8905)
(3.41386e-17 1.70825 1.9651)
(1.06695e-16 1.75373 2.08493)
(2.61158e-16 1.78239 2.28386)
(5.34717e-16 1.78677 2.59168)
(9.43613e-16 1.7672 3.01753)
(1.46372e-15 1.73114 3.53389)
(2.02941e-15 1.69236 4.08204)
(2.5541e-15 1.66448 4.59437)
(2.95928e-15 1.65578 5.01895)
(3.19537e-15 1.66723 5.3314)
(3.24783e-15 1.69409 5.53229)
(3.13145e-15 1.72888 5.63707)
(2.87988e-15 1.76412 5.66627)
(2.5355e-15 1.79414 5.63941)
(2.14159e-15 1.81598 5.57266)
(1.73683e-15 1.82967 5.47858)
(1.35101e-15 1.83747 5.36653)
(1.0017e-15 1.84237 5.24329)
(6.91089e-16 1.84603 5.11399)
(4.03389e-16 1.84721 4.98362)
(1.03873e-16 1.84103 4.85852)
(-2.59046e-16 1.81905 4.74732)
(-7.54028e-16 1.77281 4.66163)
(-1.48516e-15 1.70368 4.61753)
(-2.57013e-15 1.59716 4.62222)
(-3.77864e-15 1.25858 4.58593)
(-3.98752e-15 0.313897 4.23092)
(-3.00893e-15 -0.743508 3.75345)
(-2.42864e-15 -1.25674 3.57142)
(-1.96362e-15 -1.5509 3.42992)
(-1.53061e-15 -1.84149 3.28534)
(-1.12311e-15 -2.15822 3.14665)
(-7.3241e-16 -2.48942 3.0124)
(-3.462e-16 -2.82736 2.87796)
(4.14432e-17 -3.16209 2.74404)
(4.37111e-16 -3.48527 2.60948)
(8.45512e-16 -3.79183 2.4745)
(1.26974e-15 -4.07809 2.33748)
(1.70578e-15 -4.34048 2.19836)
(2.14311e-15 -4.57792 2.05697)
(2.56396e-15 -4.78868 1.91235)
(2.94058e-15 -4.97385 1.76551)
(3.24285e-15 -5.13411 1.61525)
(3.43887e-15 -5.26764 1.46111)
(3.50411e-15 -5.36801 1.30114)
(3.42205e-15 -5.43691 1.13868)
(3.19545e-15 -5.48282 0.973438)
(2.84521e-15 -5.49288 0.801726)
(2.41013e-15 -5.45388 0.626647)
(1.93172e-15 -5.37128 0.451953)
(1.42934e-15 -5.2187 0.278582)
(9.31876e-16 -4.92756 0.113574)
(4.84555e-16 -4.46248 -0.0297978)
(1.69435e-16 -3.84365 -0.143967)
(3.05358e-17 -3.20057 -0.221615)
(-2.16929e-18 -2.60836 -0.276939)
(-2.54111e-18 -2.10193 -0.310808)
(-4.68843e-19 -1.68718 -0.338119)
(3.0797e-20 -1.36443 -0.356619)
(2.71375e-20 -1.09602 -0.375834)
(3.33938e-21 -0.942516 -0.388807)
(-5.98523e-22 -0.79506 -0.406887)
(-2.48177e-22 -0.757125 -0.414689)
(-5.5733e-23 -0.53689 -0.436222)
(1.28126e-22 -0.39343 -0.428065)
(-6.98623e-22 -0.295884 -0.495813)
(-1.15002e-21 0.376065 -0.583938)
(5.83942e-21 1.90225 -0.475537)
(-4.82665e-20 2.82049 -0.144028)
(3.60572e-19 3.59999 -0.235487)
(3.20922e-18 3.66829 0.168378)
(-2.88744e-17 -0.718469 -0.449287)
(-4.74965e-20 1.15094 1.77862)
(-2.97718e-19 1.32801 1.80214)
(-8.3478e-19 1.36243 1.82019)
(-1.62297e-18 1.4532 1.85742)
(-1.36906e-18 1.50761 1.89111)
(5.04287e-18 1.57547 1.94247)
(3.12072e-17 1.62862 2.0129)
(1.04592e-16 1.67423 2.13449)
(2.6741e-16 1.69744 2.34191)
(5.64687e-16 1.69342 2.67562)
(1.01728e-15 1.65989 3.14809)
(1.59421e-15 1.60761 3.72588)
(2.20985e-15 1.5552 4.33213)
(2.75458e-15 1.5218 4.88033)
(3.13764e-15 1.51816 5.31016)
(3.31358e-15 1.54432 5.60206)
(3.28315e-15 1.59255 5.76833)
(3.07905e-15 1.65224 5.83546)
(2.74951e-15 1.71342 5.83043)
(2.34625e-15 1.76854 5.77466)
(1.91702e-15 1.81286 5.68344)
(1.50116e-15 1.84466 5.56768)
(1.12643e-15 1.86498 5.43576)
(8.06287e-16 1.87693 5.2947)
(5.37181e-16 1.88409 5.15071)
(2.96125e-16 1.88833 5.00996)
(3.91494e-17 1.88815 4.87991)
(-2.97146e-16 1.87803 4.77045)
(-7.88027e-16 1.8487 4.69375)
(-1.51284e-15 1.79062 4.66275)
(-2.57247e-15 1.70581 4.69076)
(-4.07588e-15 1.59705 4.77989)
(-5.67547e-15 1.3166 4.82826)
(-5.6306e-15 0.45548 4.44672)
(-3.24112e-15 -0.718386 3.68871)
(-2.25606e-15 -1.25514 3.49402)
(-1.85036e-15 -1.53956 3.39377)
(-1.46107e-15 -1.83405 3.24886)
(-1.06864e-15 -2.15532 3.11267)
(-6.8672e-16 -2.48864 2.98447)
(-3.07653e-16 -2.8271 2.85603)
(7.48078e-17 -3.16102 2.7276)
(4.66775e-16 -3.48216 2.59782)
(8.72429e-16 -3.78586 2.46661)
(1.29425e-15 -4.06854 2.33263)
(1.72783e-15 -4.32694 2.19595)
(2.16241e-15 -4.56006 2.05638)
(2.57991e-15 -4.76641 1.91318)
(2.95267e-15 -4.94714 1.76738)
(3.25069e-15 -5.1028 1.6179)
(3.44247e-15 -5.23147 1.46426)
(3.50382e-15 -5.32723 1.30467)
(3.4187e-15 -5.39211 1.14251)
(3.1902e-15 -5.43359 0.977476)
(2.83938e-15 -5.43918 0.805934)
(2.40485e-15 -5.39665 0.631003)
(1.92755e-15 -5.31117 0.456431)
(1.4266e-15 -5.15655 0.282987)
(9.30699e-16 -4.86561 0.117422)
(4.84724e-16 -4.40292 -0.0272685)
(1.70231e-16 -3.78776 -0.14368)
(3.10037e-17 -3.14725 -0.224544)
(-2.1688e-18 -2.55592 -0.284017)
(-2.65156e-18 -2.04944 -0.323023)
(-5.12379e-19 -1.635 -0.355788)
(3.04421e-20 -1.31437 -0.379397)
(3.13454e-20 -1.05013 -0.401593)
(4.35736e-21 -0.902504 -0.415718)
(-6.7435e-22 -0.763927 -0.432744)
(-3.263e-22 -0.732597 -0.439144)
(-7.07469e-23 -0.525978 -0.458101)
(1.31212e-22 -0.374868 -0.445498)
(-5.05493e-22 -0.27659 -0.503609)
(-1.92602e-21 0.373294 -0.645426)
(9.04334e-21 1.82949 -0.5155)
(-6.18671e-20 2.78126 -0.15063)
(3.96293e-19 3.55154 -0.255168)
(6.96071e-18 3.70007 0.186148)
(-1.86893e-17 -0.596066 -0.463183)
(-1.53267e-19 1.14853 1.82878)
(-6.49612e-19 1.32573 1.8527)
(-1.40959e-18 1.35802 1.86876)
(-1.73771e-18 1.44785 1.90929)
(2.02287e-18 1.50046 1.94652)
(2.06311e-17 1.5641 2.01169)
(7.769e-17 1.60872 2.11294)
(2.12659e-16 1.63877 2.29493)
(4.72726e-16 1.63983 2.59542)
(8.87542e-16 1.61189 3.0396)
(1.43788e-15 1.56209 3.60326)
(2.04546e-15 1.50939 4.2147)
(2.60024e-15 1.4735 4.78357)
(3.00603e-15 1.46672 5.24247)
(3.21145e-15 1.49037 5.56583)
(3.2129e-15 1.53797 5.76267)
(3.04019e-15 1.60004 5.85802)
(2.73957e-15 1.66743 5.87811)
(2.36136e-15 1.73258 5.84363)
(1.95265e-15 1.78981 5.76905)
(1.55288e-15 1.83544 5.66444)
(1.19085e-15 1.86804 5.53772)
(8.81976e-16 1.88862 5.39622)
(6.25575e-16 1.90011 5.24746)
(4.0219e-16 1.90582 5.0994)
(1.71512e-16 1.90731 4.96102)
(-1.27591e-16 1.90261 4.84317)
(-5.71886e-16 1.88582 4.75891)
(-1.23995e-15 1.84773 4.72164)
(-2.19703e-15 1.77935 4.74145)
(-3.5115e-15 1.68417 4.82339)
(-5.25859e-15 1.5741 4.96054)
(-7.06874e-15 1.33518 5.05753)
(-7.04147e-15 0.57617 4.70696)
(-3.85615e-15 -0.569609 3.74671)
(-2.18161e-15 -1.19412 3.39857)
(-1.67967e-15 -1.50145 3.32496)
(-1.35316e-15 -1.78898 3.20087)
(-9.97262e-16 -2.10985 3.06757)
(-6.28043e-16 -2.44377 2.94437)
(-2.57301e-16 -2.78219 2.82381)
(1.18267e-16 -3.11648 2.70331)
(5.0514e-16 -3.43834 2.58063)
(9.0707e-16 -3.74294 2.45521)
(1.32564e-15 -4.02664 2.32593)
(1.75593e-15 -4.2862 2.19304)
(2.18687e-15 -4.52049 2.05636)
(2.60001e-15 -4.72806 1.9154)
(2.9678e-15 -4.91 1.77124)
(3.26043e-15 -5.06667 1.62296)
(3.44687e-15 -5.19609 1.47008)
(3.50335e-15 -5.29271 1.31103)
(3.41442e-15 -5.35868 1.14928)
(3.18358e-15 -5.40076 0.98449)
(2.83206e-15 -5.40688 0.813087)
(2.39824e-15 -5.36555 0.638245)
(1.92232e-15 -5.28172 0.463682)
(1.42314e-15 -5.1296 0.289927)
(9.29178e-16 -4.8434 0.123403)
(4.84882e-16 -4.38786 -0.0232017)
(1.71178e-16 -3.78178 -0.14268)
(3.15725e-17 -3.14978 -0.227859)
(-2.16183e-18 -2.56524 -0.292948)
(-2.78368e-18 -2.06347 -0.339034)
(-5.66739e-19 -1.65168 -0.379613)
(2.91759e-20 -1.33192 -0.410876)
(3.65996e-20 -1.06766 -0.438333)
(5.78131e-21 -0.917551 -0.455225)
(-7.42843e-22 -0.776741 -0.471745)
(-4.37389e-22 -0.740067 -0.476143)
(-9.5562e-23 -0.53239 -0.492017)
(1.26337e-22 -0.375407 -0.471722)
(-2.53251e-22 -0.254477 -0.530098)
(-2.19445e-21 0.377898 -0.678932)
(1.04375e-20 1.79096 -0.545505)
(-6.78903e-20 2.7603 -0.156759)
(4.16024e-19 3.52728 -0.261604)
(9.30586e-18 3.69668 0.20243)
(-1.0264e-17 -0.59241 -0.19867)
(-3.76911e-19 1.1448 1.88852)
(-1.19677e-18 1.32202 1.91333)
(-1.84631e-18 1.35108 1.92771)
(5.6271e-20 1.43907 1.97368)
(1.2857e-17 1.48797 2.01994)
(5.65601e-17 1.54354 2.11173)
(1.67795e-16 1.57339 2.26667)
(3.95553e-16 1.57975 2.53949)
(7.79162e-16 1.55154 2.95873)
(1.31328e-15 1.49683 3.51696)
(1.92817e-15 1.43273 4.1467)
(2.51018e-15 1.38294 4.75182)
(2.95103e-15 1.36435 5.25158)
(3.18752e-15 1.38211 5.61006)
(3.21e-15 1.43099 5.83241)
(3.04782e-15 1.50096 5.94491)
(2.74974e-15 1.58148 5.97675)
(2.36935e-15 1.66363 5.95113)
(1.95662e-15 1.74046 5.88362)
(1.55341e-15 1.80685 5.78408)
(1.19065e-15 1.85949 5.65931)
(8.85962e-16 1.89712 5.51543)
(6.41062e-16 1.92076 5.35945)
(4.38951e-16 1.93327 5.20001)
(2.41276e-16 1.93781 5.0477)
(-1.26062e-17 1.93565 4.91524)
(-4.02214e-16 1.92442 4.81754)
(-1.01438e-15 1.89813 4.77031)
(-1.92101e-15 1.8482 4.78583)
(-3.15738e-15 1.76681 4.86732)
(-4.7422e-15 1.6593 5.00786)
(-6.70757e-15 1.54855 5.1911)
(-8.68867e-15 1.36104 5.33139)
(-8.73588e-15 0.719808 5.02402)
(-4.84827e-15 -0.439501 3.89371)
(-2.32119e-15 -1.14762 3.33787)
(-1.53802e-15 -1.48442 3.23589)
(-1.21025e-15 -1.76644 3.13556)
(-9.07541e-16 -2.08501 3.01477)
(-5.63636e-16 -2.41988 2.89625)
(-2.02319e-16 -2.75852 2.78302)
(1.66381e-16 -3.09238 2.67205)
(5.47412e-16 -3.41355 2.55857)
(9.44961e-16 -3.71743 2.44084)
(1.3598e-15 -4.00043 2.31789)
(1.78635e-15 -4.25938 2.19011)
(2.21318e-15 -4.49308 2.05739)
(2.62151e-15 -4.70017 1.9195)
(2.98388e-15 -4.88169 1.77759)
(3.27068e-15 -5.03784 1.6309)
(3.4514e-15 -5.16657 1.47902)
(3.50271e-15 -5.26271 1.32067)
(3.40977e-15 -5.32849 1.15938)
(3.17646e-15 -5.37003 0.994792)
(2.82424e-15 -5.37557 0.823449)
(2.39118e-15 -5.33433 0.648589)
(1.9167e-15 -5.25097 0.473892)
(1.4194e-15 -5.09996 0.299637)
(9.27467e-16 -4.81665 0.131912)
(4.84952e-16 -4.36585 -0.0169624)
(1.72104e-16 -3.76585 -0.140088)
(3.21512e-17 -3.13927 -0.230472)
(-2.14652e-18 -2.55864 -0.302402)
(-2.91731e-18 -2.05932 -0.357172)
(-6.25107e-19 -1.64893 -0.407576)
(2.67189e-20 -1.33026 -0.448727)
(4.2299e-20 -1.06736 -0.483662)
(7.54629e-21 -0.91752 -0.505088)
(-7.73104e-22 -0.777985 -0.522138)
(-5.75777e-22 -0.739526 -0.52444)
(-1.31782e-22 -0.535444 -0.537458)
(1.0848e-22 -0.371894 -0.505984)
(3.08397e-23 -0.234348 -0.572978)
(-2.53431e-21 0.377879 -0.722266)
(1.21503e-20 1.73201 -0.584689)
(-7.53981e-20 2.7262 -0.167521)
(4.49448e-19 3.48934 -0.261535)
(1.0633e-17 3.68753 0.228845)
(-8.29796e-19 -0.547315 -0.191646)
(-7.70608e-19 1.14102 1.94716)
(-1.77118e-18 1.31947 1.97332)
(-1.08305e-18 1.34442 1.98693)
(7.29059e-18 1.4296 2.04249)
(3.98091e-17 1.47203 2.10809)
(1.29278e-16 1.51436 2.24667)
(3.24591e-16 1.52246 2.48473)
(6.72704e-16 1.49958 2.87568)
(1.18283e-15 1.44312 3.41863)
(1.79673e-15 1.37235 4.05925)
(2.4001e-15 1.31189 4.69574)
(2.87315e-15 1.28347 5.23463)
(3.14012e-15 1.29508 5.62771)
(3.18466e-15 1.34247 5.87565)
(3.03559e-15 1.41494 6.00616)
(2.7442e-15 1.50129 6.05193)
(2.36694e-15 1.59239 6.0389)
(1.95598e-15 1.68137 5.98378)
(1.55471e-15 1.76298 5.89602)
(1.19543e-15 1.83309 5.78102)
(8.97546e-16 1.8887 5.64294)
(6.65285e-16 1.92837 5.48694)
(4.84784e-16 1.95264 5.32072)
(3.20659e-16 1.9638 5.15539)
(1.13672e-16 1.96441 5.00564)
(-2.17486e-16 1.95518 4.88922)
(-7.66215e-16 1.93357 4.82524)
(-1.61689e-15 1.89419 4.82995)
(-2.81458e-15 1.83031 4.91008)
(-4.34274e-15 1.73666 5.05669)
(-6.15453e-15 1.62046 5.24737)
(-8.23638e-15 1.51136 5.45771)
(-1.02784e-14 1.37097 5.6227)
(-1.04851e-14 0.86165 5.37795)
(-6.27821e-15 -0.26314 4.15313)
(-2.69003e-15 -1.07043 3.32176)
(-1.50685e-15 -1.46302 3.14795)
(-1.06666e-15 -1.74892 3.05085)
(-7.92156e-16 -2.06502 2.94891)
(-4.88963e-16 -2.40033 2.84091)
(-1.44531e-16 -2.74012 2.73457)
(2.17274e-16 -3.07417 2.63329)
(5.92537e-16 -3.39446 2.53085)
(9.85146e-16 -3.69706 2.42291)
(1.39578e-15 -3.97864 2.30812)
(1.81824e-15 -4.23616 2.18698)
(2.24062e-15 -4.4684 2.05948)
(2.64379e-15 -4.6741 1.92563)
(3.00043e-15 -4.85429 1.78669)
(3.28113e-15 -5.009 1.64211)
(3.45592e-15 -5.13614 1.49155)
(3.50189e-15 -5.23095 1.33409)
(3.40483e-15 -5.29573 1.17332)
(3.16902e-15 -5.3359 1.00889)
(2.81609e-15 -5.34007 0.837503)
(2.38381e-15 -5.29815 0.662473)
(1.91081e-15 -5.21452 0.48745)
(1.4154e-15 -5.0638 0.312443)
(9.25549e-16 -4.78256 0.143187)
(4.84877e-16 -4.33565 -0.00839727)
(1.72945e-16 -3.74083 -0.13579)
(3.27134e-17 -3.11867 -0.232247)
(-2.12233e-18 -2.5409 -0.312205)
(-3.04809e-18 -2.04315 -0.37723)
(-6.86479e-19 -1.63384 -0.439456)
(2.28374e-20 -1.31687 -0.492749)
(4.83871e-20 -1.05677 -0.537406)
(9.71686e-21 -0.909243 -0.56521)
(-7.37949e-22 -0.773549 -0.584003)
(-7.44599e-22 -0.735107 -0.584441)
(-1.83851e-22 -0.538078 -0.594961)
(7.60088e-23 -0.366294 -0.549723)
(3.12044e-22 -0.212948 -0.622826)
(-2.81967e-21 0.379123 -0.76224)
(1.36718e-20 1.67778 -0.627453)
(-8.21152e-20 2.6914 -0.181259)
(4.90807e-19 3.45261 -0.25349)
(9.4059e-18 3.65491 0.260997)
(-6.1136e-18 -0.48066 0.0837569)
(-1.31139e-18 1.13647 2.00713)
(-1.6711e-18 1.31667 2.03577)
(3.4976e-18 1.3359 2.0513)
(2.69269e-17 1.41584 2.12501)
(9.7209e-17 1.44694 2.22785)
(2.61123e-16 1.46866 2.44187)
(5.71371e-16 1.44779 2.79442)
(1.05144e-15 1.3934 3.3171)
(1.65819e-15 1.31537 3.96053)
(2.28038e-15 1.24231 4.62661)
(2.78761e-15 1.1991 5.2068)
(3.08934e-15 1.1988 5.63874)
(3.16004e-15 1.2393 5.91565)
(3.02674e-15 1.31031 6.06587)
(2.74306e-15 1.39994 6.1259)
(2.36866e-15 1.4984 6.1252)
(1.95824e-15 1.59849 6.08241)
(1.55692e-15 1.69476 6.00734)
(1.19844e-15 1.78272 5.90453)
(9.04036e-16 1.85844 5.77641)
(6.80719e-16 1.9187 5.62581)
(5.18537e-16 1.96152 5.45814)
(3.86489e-16 1.98671 5.28305)
(2.28336e-16 1.9957 5.11563)
(-3.82822e-17 1.9903 4.97623)
(-5.13899e-16 1.97087 4.88837)
(-1.29599e-15 1.93534 4.87376)
(-2.44649e-15 1.88018 4.94475)
(-3.95931e-15 1.80187 5.09637)
(-5.74958e-15 1.69838 5.30316)
(-7.70371e-15 1.578 5.52727)
(-9.77434e-15 1.47344 5.74077)
(-1.175e-14 1.37627 5.90839)
(-1.21552e-14 1.00138 5.7376)
(-8.17179e-15 -0.0273003 4.54696)
(-3.3062e-15 -0.945207 3.35888)
(-1.62116e-15 -1.42759 3.07252)
(-9.77282e-16 -1.72937 2.95602)
(-6.62097e-16 -2.04494 2.86589)
(-3.95511e-16 -2.37927 2.77571)
(-8.08986e-17 -2.71953 2.6796)
(2.69993e-16 -3.05423 2.5875)
(6.39915e-16 -3.37394 2.49675)
(1.02747e-15 -3.67525 2.40047)
(1.4334e-15 -3.95538 2.29577)
(1.8514e-15 -4.21149 2.18291)
(2.26902e-15 -4.44235 2.062)
(2.66673e-15 -4.6468 1.93331)
(3.01736e-15 -4.82583 1.7982)
(3.29173e-15 -4.9793 1.65633)
(3.46038e-15 -5.10509 1.50751)
(3.50087e-15 -5.19882 1.35118)
(3.39959e-15 -5.26287 1.19106)
(3.16124e-15 -5.30194 1.02679)
(2.80759e-15 -5.30501 0.855268)
(2.3761e-15 -5.26271 0.679923)
(1.9046e-15 -5.17905 0.504381)
(1.41112e-15 -5.02883 0.328369)
(9.23371e-16 -4.74985 0.157263)
(4.84608e-16 -4.30704 0.00256483)
(1.73665e-16 -3.71763 -0.129611)
(3.32463e-17 -3.10011 -0.232823)
(-2.08937e-18 -2.52533 -0.321765)
(-3.17473e-18 -2.02922 -0.398348)
(-7.5079e-19 -1.62105 -0.47411)
(1.72937e-20 -1.30596 -0.541546)
(5.48603e-20 -1.04906 -0.598015)
(1.23815e-20 -0.904036 -0.634015)
(-6.00557e-22 -0.772396 -0.655901)
(-9.46897e-22 -0.733408 -0.654991)