/*--------------------------------*- C++ -*----------------------------------*\
| =========                 |                                                 |
| \\      /  F ield         | OpenFOAM: The Open Source CFD Toolbox           |
|  \\    /   O peration     | Version:  4.1                                   |
|   \\  /    A nd           | Web:      www.OpenFOAM.org                      |
|    \\/     M anipulation  |                                                 |
\*---------------------------------------------------------------------------*/
FoamFile
{
    version     2.0;
    format      ascii;
    class       volScalarField;
    location    "12";
    object      p;
}
// * * * * * * * * * * * * * * * * * * * * * * * * * * * * * * * * * * * * * //

dimensions      [0 2 -2 0 0 0 0];

internalField   nonuniform List<scalar> 
6785
(
595.908
517.953
471.29
418.211
371.709
326.853
285.007
245.313
207.72
172.131
137.881
104.707
76.6623
47.8357
6.264
-6.19609
-24.2915
-14.2772
-21.503
-20.7425
-23.1458
-23.6462
-24.0178
-23.3669
-21.7867
-19.2171
-15.588
-10.083
-4.74398
-2.89396
-1.59098
-7.24314
0.789568
-5.06515
-2.58876
-5.13937
-5.75989
-7.67526
-9.3997
-11.5106
-13.6265
-15.0976
-15.5954
-16.187
-15.888
-4.30535
-8.01165
-5.8118
-11.6216
-10.8711
-14.8762
-16.2088
-18.8049
-20.6823
-22.6167
-24.0225
-24.7047
-23.7346
-22.9749
-21.2319
-5.1077
-6.4857
-3.1067
-5.49878
-1.90228
-2.71294
-0.563818
0.290285
1.8794
3.34389
5.06826
6.64833
8.79368
10.2172
12.9242
19.0675
19.5744
22.9545
21.9923
25.509
25.5544
27.8041
28.9638
30.5471
31.9887
33.5252
34.9454
36.6134
37.8113
39.5641
40.3437
41.2105
43.5936
42.7726
45.271
45.0288
46.5498
47.0519
47.9767
48.83
49.7804
50.7153
51.7772
52.5376
53.6858
53.2506
54.3229
55.9378
55.7238
57.7926
57.9659
59.4734
59.9055
60.5198
60.3978
59.9067
59.3783
59.1967
59.5375
59.8
64.991
64.239
65.1133
63.6747
64.3799
62.9168
62.597
60.9238
59.3987
57.3408
55.4556
53.8428
52.7925
52.6903
51.1612
46.0748
41.9743
41.578
38.4962
37.8154
35.4093
34.4397
32.7191
31.6025
30.0346
28.4553
26.9231
26.299
25.5144
21.9769
4.00117
-1.15705
-2.50766
-6.13826
-8.36967
-12.0161
-14.876
-18.2755
-21.1821
-23.9664
-25.9512
-26.8892
-27.4505
-28.3016
-28.1093
-20.36
-22.1909
-22.8107
-24.9277
-25.6868
-27.4999
-28.4812
-29.5721
-29.8559
-29.6059
-28.5783
-27.066
-25.0626
-23.5373
-20.9318
2.26981
3.45623
4.35427
4.5443
5.50331
5.84462
6.625
7.35957
8.33764
9.42582
10.7069
11.9232
13.4565
14.5458
16.8184
18.5807
21.5029
22.3021
22.6771
23.295
23.9665
25.0395
26.0195
27.0639
28.0217
28.9141
29.601
30.2664
30.6761
31.1648
61.3444
60.5989
56.9645
50.5655
44.9521
41.1436
37.1718
33.7893
31.5662
30.1547
28.8055
27.7304
26.6939
25.9174
24.1911
42.2207
42.3811
42.4449
42.4475
42.4748
42.5869
42.8913
42.798
42.7414
42.7322
42.8715
42.5927
42.6156
42.6106
42.2843
42.1729
42.2637
42.2303
41.735
41.9409
41.8512
41.4675
41.3667
41.5692
41.4768
41.1323
41.0526
41.2055
41.2249
40.864
41.008
41.0539
40.8225
40.7669
40.8414
40.9253
40.7251
40.7519
40.86
40.7409
40.7007
40.7047
40.7795
40.7036
40.6674
40.6655
40.6688
40.5933
40.5699
40.5042
40.4478
40.4001
40.397
40.3957
40.3793
40.3405
40.3718
40.4235
40.433
40.387
40.4826
40.4619
40.5236
40.4819
40.6498
40.9091
41.4095
40.2659
39.1404
40.3846
41.1749
35.2334
32.5039
35.8079
37.7595
18.7796
27.6264
31.5128
-4.78667
6.47311
11.8936
9.84671
13.5077
4.67551
8.15276
12.4085
12.7549
13.6158
14.3047
15.0538
15.938
18.9515
17.8487
14.9098
17.1504
19.234
21.6365
22.5285
23.8048
24.4592
26.6344
31.383
26.2318
28.6877
28.9875
30.6422
33.1635
34.6136
35.0063
35.4885
35.0218
44.1352
38.3591
39.5747
39.5177
39.449
40.6182
42.7282
43.0277
39.8967
45.7049
45.0538
46.8979
47.1655
46.3475
45.5735
44.6928
46.3931
42.7569
47.2498
51.3148
48.2907
48.8092
48.7279
46.427
44.6245
42.7749
35.9479
45.4678
48.2239
41.8013
38.7168
34.2841
30.6538
27.0064
24.1945
21.132
15.6236
14.0902
20.2208
14.8935
13.921
12.0007
9.42308
2.72115
0.608061
3.07147
-7.26671
6.66228
4.00225
2.95563
9.77376
3.48552
6.85203
5.52866
7.77083
10.9649
6.039
8.88808
10.9621
7.52032
8.90481
7.92481
8.98213
11.1867
7.79991
8.98674
7.93273
8.94813
11.0605
7.05435
8.98299
10.7367
7.4312
8.49225
7.39708
8.29907
10.6244
6.83607
8.03478
6.74522
7.86461
10.2838
5.52139
7.77049
9.75866
5.85005
7.0961
5.74695
6.83417
9.33232
5.10013
6.47812
5.0046
6.2752
8.63454
3.80589
6.11263
7.88873
4.18756
5.40122
4.13355
5.1428
7.19466
3.58334
4.76833
3.53426
4.55771
6.28624
2.58187
4.3092
5.4596
2.77331
3.61779
2.68895
3.3503
4.50893
2.12385
2.83687
1.99213
2.55825
3.31111
1.12691
2.00151
2.31005
0.780101
1.10588
0.449423
0.65279
1.32861
0.000540019
0.000919718
0.00152924
0.00196705
0.00248836
0.00296373
0.00347108
0.00397022
0.00448578
0.00500582
0.00553864
0.0060812
0.00663669
0.00720465
0.00778631
0.00838138
0.00898947
0.00960891
0.0102369
0.010869
0.0114986
0.012117
0.0127136
0.0132755
0.0137893
0.014242
0.0146228
0.0149254
0.0151497
0.015303
0.0154002
0.0154635
0.015519
0.0155927
0.0157047
0.0158657
0.0160789
0.0163521
0.0167162
0.0172388
0.0180175
0.0191438
0.0206438
0.0224093
0.0242016
0.0257742
0.0269114
0.0273877
0.0270892
0.0259071
0.0237483
0.0204708
0.0158034
0.00935959
0.000665662
-0.0107654
-0.0248563
-0.0423455
-0.0612169
-0.0788886
-0.126022
-0.191111
-0.350833
-0.460358
-0.588351
-0.712865
-0.775946
-0.776777
-0.71156
-0.59296
-0.422512
-0.269621
-0.0764471
0.00689513
0.180826
0.151475
0.233773
0.391773
-0.179093
0.00156028
0.00263264
0.00434903
0.00561629
0.00708202
0.00842821
0.00984577
0.0112393
0.0126682
0.0141053
0.0155706
0.0170578
0.0185745
0.0201204
0.0216982
0.023307
0.0249453
0.026608
0.0282868
0.0299681
0.0316331
0.0332566
0.0348074
0.0362495
0.0375443
0.0386554
0.0395533
0.0402217
0.0406623
0.0408985
0.0409762
0.0409606
0.0409292
0.040958
0.0411057
0.0414028
0.0418585
0.0424947
0.0434005
0.0447731
0.0468972
0.0500422
0.0542943
0.0593595
0.0645794
0.069304
0.0729927
0.0750968
0.0754142
0.0737768
0.0700864
0.0641223
0.0552893
0.0426112
0.0247233
-4.38141e-05
-0.0322229
-0.0755194
-0.126598
-0.183409
-0.326007
-0.405122
-0.690158
-0.88572
-1.13736
-1.37892
-1.50125
-1.49972
-1.38014
-1.15154
-0.850767
-0.551171
-0.226603
0.0039793
0.264255
0.378556
0.541362
0.711284
0.702364
0.00243204
0.00425033
0.0071738
0.00931993
0.0118095
0.014092
0.0164983
0.0188633
0.02129
0.0237313
0.0262217
0.0287505
0.0313309
0.0339621
0.036649
0.0393904
0.0421839
0.0450212
0.0478884
0.0507631
0.0536139
0.0563985
0.0590647
0.0615517
0.0637947
0.0657318
0.067313
0.0685099
0.0693246
0.0697954
0.0699984
0.0700429
0.0700585
0.0701729
0.0704846
0.0710442
0.0718653
0.0729826
0.0745443
0.0768817
0.0804761
0.0857843
0.0929527
0.101479
0.110238
0.118117
0.124176
0.12746
0.127585
0.124218
0.117136
0.105892
0.0894031
0.065934
0.0331066
-0.011884
-0.069929
-0.146874
-0.235923
-0.33354
-0.557209
-0.559158
-0.902341
-1.11106
-1.42196
-1.71818
-1.86424
-1.8556
-1.70424
-1.41706
-1.04855
-0.677523
-0.286724
0.00782899
0.317119
0.478566
0.709673
0.821999
1.08257
0.00326767
0.00582205
0.00990122
0.0129155
0.0163956
0.019591
0.0229528
0.0262572
0.0296445
0.0330514
0.036525
0.040051
0.0436477
0.0473142
0.0510574
0.0548758
0.0587659
0.0627164
0.0667077
0.070709
0.0746763
0.0785507
0.0822591
0.0857167
0.0888327
0.0915205
0.09371
0.0953613
0.0964772
0.0971115
0.0973707
0.0974083
0.0974064
0.0975446
0.0979608
0.0987248
0.0998526
0.101388
0.103536
0.10676
0.111743
0.119135
0.129155
0.141097
0.153374
0.164439
0.172976
0.177661
0.177978
0.173477
0.163875
0.148567
0.126043
0.0938407
0.0485412
-0.0138993
-0.0951079
-0.20354
-0.329429
-0.469431
-0.757524
-0.701725
-1.15218
-1.40356
-1.78943
-2.15604
-2.33304
-2.31589
-2.12369
-1.76177
-1.30238
-0.839713
-0.356198
0.0112036
0.393758
0.590739
0.897971
0.994964
1.30004
0.00402365
0.00733802
0.0125781
0.0164766
0.0209605
0.0250838
0.0294151
0.0336738
0.0380364
0.0424241
0.0468963
0.0514356
0.0560652
0.0607845
0.0656021
0.0705166
0.0755236
0.0806087
0.0857473
0.0908997
0.0960097
0.101002
0.105782
0.110241
0.114262
0.117732
0.120561
0.122696
0.124141
0.124963
0.125301
0.125352
0.125352
0.125533
0.126074
0.127063
0.128515
0.130478
0.133211
0.137315
0.143678
0.153163
0.166072
0.181491
0.197344
0.211639
0.222661
0.228705
0.229105
0.223282
0.210885
0.191133
0.162058
0.120422
0.0616899
-0.0194502
-0.125493
-0.267338
-0.431606
-0.615782
-0.954126
-0.850577
-1.43046
-1.72446
-2.19539
-2.6405
-2.85125
-2.82342
-2.58655
-2.14167
-1.5843
-1.02003
-0.437768
0.0152748
0.471907
0.72127
1.10312
1.18178
1.69322
0.00473157
0.0088161
0.0151908
0.0199767
0.025455
0.0305034
0.0357965
0.0410028
0.046332
0.0516914
0.0571518
0.0626933
0.0683439
0.0741031
0.0799818
0.0859782
0.0920874
0.0982922
0.104563
0.110851
0.117088
0.123183
0.12902
0.134465
0.139375
0.143612
0.147064
0.149666
0.151421
0.152412
0.152807
0.152849
0.152829
0.153034
0.153683
0.154882
0.15664
0.159007
0.162287
0.16722
0.174915
0.186462
0.202265
0.221199
0.240674
0.258258
0.271831
0.27931
0.279899
0.272909
0.25795
0.23409
0.198923
0.148411
0.0768522
-0.0223832
-0.152897
-0.328022
-0.530618
-0.761564
-1.14806
-1.01217
-1.74007
-2.04239
-2.5968
-3.11756
-3.35772
-3.31507
-3.03257
-2.50426
-1.85187
-1.18857
-0.512501
0.0241891
0.549087
0.850285
1.30182
1.36573
1.97045
0.00538625
0.0102598
0.0177519
0.0234337
0.0299049
0.035883
0.0421389
0.0482953
0.0545919
0.0609243
0.0673735
0.0739178
0.0805895
0.0873889
0.0943287
0.101407
0.10862
0.115945
0.123349
0.130776
0.138144
0.145346
0.152245
0.158684
0.164491
0.169501
0.173582
0.176654
0.17872
0.179877
0.180325
0.180352
0.180306
0.18053
0.181286
0.182695
0.184758
0.187513
0.191311
0.19703
0.206015
0.219606
0.238332
0.26085
0.28402
0.304969
0.321148
0.330098
0.330894
0.322742
0.305241
0.277318
0.23613
0.176805
0.0924174
-0.0249942
-0.180313
-0.389064
-0.630125
-0.910852
-1.3431
-1.1953
-2.0877
-2.37531
-3.01433
-3.61208
-3.87829
-3.81599
-3.48468
-2.86869
-2.11913
-1.35477
-0.584131
0.0367837
0.628937
0.980838
1.49798
1.54524
2.25396
0.00599823
0.0116766
0.0202617
0.026845
0.0343024
0.0412109
0.0484258
0.0555303
0.0627905
0.070092
0.0775253
0.0850674
0.0927547
0.100588
0.108583
0.116738
0.125047
0.133487
0.142019
0.150579
0.159074
0.16738
0.17534
0.18277
0.189471
0.195254
0.199959
0.203495
0.205863
0.207175
0.20766
0.207656
0.207568
0.207798
0.208652
0.210265
0.212622
0.215744
0.220017
0.226466
0.236683
0.252289
0.27397
0.300151
0.327099
0.351502
0.370362
0.380843
0.381904
0.372659
0.352733
0.320937
0.274006
0.206205
0.10934
-0.0258708
-0.205754
-0.447702
-0.726746
-1.05994
-1.5285
-1.41229
-2.45321
-2.72823
-3.45558
-4.13476
-4.42318
-4.3353
-3.95101
-3.24138
-2.39114
-1.52197
-0.655044
0.0530299
0.711223
1.11659
1.69483
1.72312
2.54728
0.00656997
0.0130713
0.022726
0.0302169
0.0386548
0.0464955
0.0546669
0.062719
0.0709404
0.0792091
0.0876236
0.0961604
0.10486
0.113725
0.122771
0.131998
0.1414
0.150952
0.16061
0.170303
0.179925
0.189336
0.198358
0.206783
0.214383
0.220939
0.226269
0.230268
0.232933
0.234389
0.2349
0.23485
0.234704
0.234928
0.235873
0.237687
0.240332
0.2438
0.248504
0.255617
0.267002
0.284595
0.309271
0.339212
0.37004
0.398004
0.419626
0.431693
0.43306
0.422764
0.40049
0.364963
0.31251
0.236506
0.127465
-0.0251709
-0.229272
-0.503643
-0.820008
-1.20734
-1.69876
-1.66767
-2.80899
-3.09828
-3.91969
-4.68651
-4.99141
-4.8702
-4.42819
-3.61854
-2.66462
-1.68744
-0.723533
0.0740905
0.795845
1.25776
1.89108
1.91918
2.78146
0.00710669
0.0144483
0.0251477
0.0335515
0.0429623
0.051736
0.0608601
0.0698581
0.0790371
0.0882698
0.0976613
0.107189
0.116896
0.126786
0.136879
0.147174
0.157664
0.168324
0.179105
0.189927
0.200674
0.211191
0.221277
0.230699
0.239199
0.24653
0.252486
0.256943
0.259896
0.261486
0.262006
0.26189
0.261669
0.261872
0.262899
0.26491
0.267835
0.271623
0.276706
0.284408
0.296885
0.316429
0.344149
0.377964
0.412789
0.444437
0.468911
0.482631
0.484349
0.473049
0.448521
0.409437
0.351736
0.267883
0.147103
-0.0223516
-0.249947
-0.555394
-0.908283
-1.35019
-1.85135
-1.95607
-3.13365
-3.48555
-4.40949
-5.27343
-5.58785
-5.42335
-4.91779
-4.00068
-2.93953
-1.85078
-0.789052
0.100597
0.883093
1.40488
2.08648
2.10781
3.0364
0.00761166
0.0158113
0.0275306
0.0368524
0.0472283
0.0569357
0.0670085
0.0769507
0.0870838
0.0972772
0.107642
0.118156
0.128865
0.139777
0.150912
0.16227
0.173845
0.185608
0.197509
0.209459
0.221332
0.232956
0.244109
0.254531
0.263936
0.272046
0.278627
0.283539
0.286774
0.288483
0.288994
0.288792
0.288474
0.288641
0.289742
0.291946
0.295145
0.299228
0.304633
0.312838
0.326319
0.347774
0.378594
0.416417
0.455372
0.490843
0.51827
0.533709
0.53582
0.523554
0.496849
0.454366
0.39168
0.300336
0.168308
-0.0172151
-0.267301
-0.602086
-0.990801
-1.48622
-1.99005
-2.28626
-3.41539
-3.8922
-4.92838
-5.90305
-6.21935
-5.99898
-5.42265
-4.3893
-3.21669
-2.0122
-0.851513
0.132956
0.973369
1.5586
2.28188
2.28902
3.31382
0.00808833
0.0171633
0.0298778
0.0401222
0.0514547
0.0620958
0.0731129
0.083997
0.0950801
0.106231
0.117564
0.129059
0.140767
0.152695
0.164866
0.177282
0.189936
0.2028
0.215817
0.228894
0.241893
0.254625
0.266849
0.278276
0.288591
0.297482
0.30469
0.310053
0.31356
0.315375
0.315857
0.315545
0.315108
0.315219
0.316385
0.318781
0.322248
0.326599
0.332262
0.340873
0.355255
0.378572
0.412558
0.454542
0.497778
0.537229
0.567719
0.584948
0.587491
0.574284
0.545467
0.499724
0.432303
0.333836
0.191121
-0.00955984
-0.28085
-0.642969
-1.06685
-1.61332
-2.12708
-2.67946
-3.65223
-4.32589
-5.47966
-6.58245
-6.89256
-6.60089
-5.94481
-4.78504
-3.49619
-2.17139
-0.910588
0.171954
1.06657
1.72047
2.4772
2.4994
3.54558
0.00853947
0.0185069
0.0321925
0.0433635
0.0556437
0.0672184
0.0791748
0.0909983
0.103027
0.115131
0.127428
0.1399
0.1526
0.165539
0.178741
0.19221
0.20594
0.2199
0.234031
0.248233
0.262358
0.276201
0.2895
0.301938
0.313167
0.322845
0.33068
0.336492
0.340262
0.342167
0.342598
0.34215
0.341567
0.341603
0.342824
0.345412
0.349144
0.353735
0.359586
0.368492
0.383657
0.408779
0.446008
0.492326
0.540012
0.583619
0.617289
0.636384
0.639386
0.625243
0.594334
0.545414
0.473446
0.36818
0.215361
0.000522254
-0.290513
-0.677906
-1.13624
-1.73084
-2.27652
-3.12444
-3.83519
-4.78673
-6.06646
-7.3193
-7.61494
-7.23363
-6.48667
-5.18858
-3.77815
-2.32801
-0.965492
0.217757
1.16396
1.89026
2.67233
2.68887
3.79583
0.00896767
0.0198445
0.0344772
0.0465788
0.0597975
0.0723049
0.0851953
0.0979554
0.110925
0.123978
0.137233
0.150677
0.164365
0.178309
0.192536
0.207053
0.221853
0.236905
0.252147
0.267473
0.282726
0.297683
0.312061
0.325516
0.337668
0.348137
0.356601
0.362858
0.366881
0.368858
0.369215
0.368603
0.367844
0.367783
0.369049
0.371831
0.375827
0.380631
0.386593
0.395669
0.41148
0.438338
0.478897
0.529746
0.582071
0.630028
0.667005
0.688043
0.691515
0.676395
0.643337
0.591217
0.51478
0.402956
0.240587
0.0126264
-0.296615
-0.707336
-1.19935
-1.83992
-2.43945
-3.5261
-3.94886
-5.27124
-6.69201
-8.122
-8.39485
-7.90266
-7.05128
-5.60088
-4.06281
-2.48243
-1.01478
0.269148
1.26953
2.06725
2.86788
2.89724
4.05111
0.0093751
0.0211779
0.0367348
0.0497703
0.0639179
0.077357
0.0911758
0.104869
0.118775
0.132772
0.14698
0.161391
0.176059
0.191003
0.20625
0.221808
0.237673
0.253814
0.270164
0.286614
0.302994
0.31907
0.334533
0.349013
0.362094
0.373361
0.382457
0.389156
0.393422
0.395453
0.395708
0.394899
0.393934
0.393751
0.395053
0.398032
0.402295
0.407284
0.413274
0.42238
0.43868
0.467193
0.511181
0.566781
0.623953
0.676476
0.716894
0.739947
0.743863
0.727643
0.692243
0.636728
0.555722
0.437437
0.266009
0.0259515
-0.299967
-0.732324
-1.25733
-1.94287
-2.60846
-3.79434
-4.04584
-5.80513
-7.3602
-8.99956
-9.24126
-8.614
-7.64231
-6.02299
-4.35055
-2.63524
-1.05753
0.325763
1.38528
2.2516
3.064
3.10012
4.26526
0.00976371
0.0225087
0.0389675
0.05294
0.0680068
0.0823761
0.0971174
0.11174
0.126576
0.141513
0.156669
0.17204
0.187684
0.20362
0.219881
0.236475
0.2534
0.270624
0.288081
0.305653
0.323163
0.340361
0.356917
0.372429
0.386449
0.39852
0.408252
0.415389
0.419886
0.421952
0.422077
0.421036
0.419829
0.419497
0.420825
0.424008
0.428545
0.433694
0.439621
0.4486
0.465206
0.495279
0.542809
0.603406
0.665657
0.722982
0.766982
0.7921
0.79636
0.77877
0.740624
0.681272
0.595367
0.470557
0.290501
0.0393605
-0.301774
-0.754396
-1.31195
-2.04276
-2.78393
-3.99775
-4.19406
-6.34501
-8.07859
-9.96197
-10.1636
-9.3741
-8.26403
-6.45616
-4.64164
-2.78621
-1.09338
0.38843
1.51116
2.4421
3.26406
3.2968
4.54514
0.0101352
0.0238383
0.0411776
0.0560898
0.072066
0.0873636
0.103021
0.11857
0.13433
0.150201
0.166298
0.182624
0.199236
0.21616
0.233427
0.251052
0.269031
0.287335
0.305894
0.324588
0.34323
0.361554
0.37921
0.395766
0.410733
0.423618
0.433988
0.441562
0.446279
0.448357
0.448321
0.44701
0.445521
0.445011
0.446355
0.449752
0.454576
0.459861
0.46563
0.474305
0.491006
0.522525
0.573726
0.639597
0.707183
0.769568
0.817281
0.844463
0.848824
0.829367
0.787776
0.723842
0.632455
0.500942
0.3127
0.051511
-0.30347
-0.775331
-1.36542
-2.14342
-2.96918
-4.19112
-4.48567
-6.87944
-8.86775
-11.0203
-11.1716
-10.1897
-8.92133
-6.90203
-4.93623
-2.93485
-1.12187
0.457816
1.64766
2.63864
3.47115
3.52669
4.8059
0.0104909
0.0251681
0.043367
0.0592213
0.0760969
0.0923207
0.108888
0.125358
0.142037
0.158836
0.175869
0.193143
0.210717
0.22862
0.246888
0.265536
0.284564
0.303943
0.323603
0.343418
0.363194
0.38265
0.401414
0.419023
0.43495
0.448657
0.459671
0.467678
0.472603
0.474671
0.47444
0.472818
0.471003
0.470282
0.471632
0.47526
0.480389
0.485789
0.491297
0.499471
0.516025
0.548855
0.603874
0.675326
0.748529
0.816245
0.867769
0.896896
0.900885
0.878738
0.832649
0.763067
0.665443
0.527068
0.331199
0.061058
-0.30649
-0.796893
-1.42001
-2.24838
-3.16636
-4.41341
-4.98276
-7.44725
-9.75901
-12.1862
-12.2748
-11.0677
-9.6195
-7.36274
-5.2346
-3.08078
-1.14246
0.534495
1.79548
2.84198
3.68569
3.74873
5.02386
0.0108322
0.0264991
0.0455376
0.0623362
0.0801011
0.0972485
0.114718
0.132105
0.149697
0.167419
0.18538
0.203595
0.222124
0.241
0.260261
0.279926
0.299997
0.320446
0.341203
0.362139
0.383051
0.403645
0.423526
0.4422
0.4591
0.473639
0.485303
0.493741
0.498862
0.500896
0.500434
0.498454
0.496267
0.495299
0.496645
0.500522
0.505985
0.511485
0.516621
0.524075
0.540201
0.574184
0.633189
0.710563
0.789692
0.863005
0.918346
0.949082
0.951878
0.925826
0.873821
0.797299
0.692694
0.547499
0.344766
0.0668615
-0.312051
-0.820581
-1.47777
-2.36059
-3.37739
-4.69428
-5.71211
-8.03097
-10.7599
-13.4712
-13.4822
-12.0148
-10.3642
-7.84064
-5.53718
-3.22362
-1.15464
0.619146
1.95512
3.05245
3.90868
3.96434
5.31204
0.01116
0.0278322
0.0476911
0.0654358
0.08408
0.102148
0.120514
0.138812
0.15731
0.175948
0.19483
0.21398
0.233456
0.253297
0.273544
0.294219
0.315327
0.336842
0.358693
0.380749
0.4028
0.424539
0.445547
0.465299
0.483184
0.498569
0.510889
0.519756
0.52506
0.527035
0.526303
0.523915
0.521302
0.520047
0.52138
0.525533
0.531365
0.536956
0.541607
0.548096
0.563468
0.598419
0.661603
0.745277
0.830656
0.909778
0.96875
1.00041
1.00075
0.969174
0.909574
0.824824
0.71276
0.561129
0.352542
0.0681605
-0.32098
-0.847454
-1.54021
-2.48219
-3.60441
-5.0424
-6.56951
-8.56802
-11.8578
-14.8862
-14.8033
-13.0375
-11.161
-8.33802
-5.84455
-3.36298
-1.1579
0.712499
2.12705
3.27091
4.14125
4.23018
5.58613
0.0114753
0.0291684
0.0498289
0.0685214
0.0880349
0.10702
0.126275
0.145479
0.164876
0.184424
0.20422
0.224296
0.244712
0.265511
0.286736
0.308414
0.330552
0.353127
0.376069
0.399245
0.422438
0.445328
0.467475
0.488318
0.507205
0.523448
0.536431
0.545726
0.551201
0.553089
0.552046
0.549195
0.546099
0.544514
0.545823
0.550284
0.556535
0.562215
0.566261
0.571512
0.585756
0.621456
0.689044
0.779428
0.871367
0.956365
1.01844
1.04985
1.04601
1.00698
0.938129
0.844191
0.724655
0.567365
0.354165
0.0646798
-0.333614
-0.87803
-1.60811
-2.61438
-3.84924
-5.44824
-7.391
-9.10324
-13.1073
-16.4451
-16.2492
-14.1422
-12.016
-8.8571
-6.1575
-3.49843
-1.15175
0.815296
2.31172
3.49756
4.38249
4.46965
5.81009
0.0117788
0.0305084
0.0519524
0.0715941
0.0919668
0.111866
0.132001
0.152107
0.172395
0.192846
0.213549
0.234544
0.255891
0.27764
0.299835
0.322508
0.34567
0.369299
0.393328
0.417623
0.441961
0.46601
0.489307
0.511258
0.531163
0.548279
0.561935
0.571657
0.577289
0.579063
0.577664
0.574291
0.570648
0.568682
0.569959
0.574768
0.581498
0.587277
0.590595
0.594306
0.606987
0.643181
0.715432
0.812948
0.911674
1.00231
1.06644
1.09588
1.08572
1.03734
0.958016
0.854519
0.728018
0.566201
0.349815
0.0566556
-0.349785
-0.912271
-1.68159
-2.75735
-4.11278
-5.90304
-8.16911
-9.74348
-14.5575
-18.1712
-17.8314
-15.3345
-12.9344
-9.3999
-6.47709
-3.62955
-1.13569
0.928295
2.50953
3.73276
4.63457
4.74013
6.1057
0.0120711
0.0318529
0.0540629
0.0746551
0.0958768
0.116686
0.137695
0.158695
0.179867
0.201214
0.222815
0.244721
0.266991
0.289681
0.312838
0.336498
0.360676
0.385355
0.410467
0.43588
0.461367
0.486582
0.511042
0.534117
0.555058
0.573065
0.587403
0.597553
0.603328
0.604959
0.603156
0.599197
0.594935
0.592535
0.59377
0.598975
0.606263
0.612163
0.614628
0.616464
0.627079
0.66347
0.74067
0.845709
0.951229
1.04677
1.11128
1.13644
1.11775
1.05866
0.968436
0.855653
0.72314
0.558191
0.340173
0.0447796
-0.36888
-0.949643
-1.76009
-2.91037
-4.39501
-6.40407
-8.95907
-10.6183
-16.1871
-20.1
-19.561
-16.6186
-13.9211
-9.96821
-6.80451
-3.75596
-1.10922
1.05226
2.72085
3.97698
4.8973
5.00387
6.31412
0.0123525
0.0332027
0.0561614
0.0777052
0.0997658
0.121481
0.143355
0.165243
0.187292
0.209527
0.232018
0.254827
0.278011
0.301633
0.325743
0.350382
0.375568
0.40129
0.427482
0.454013
0.480651
0.507041
0.532677
0.556895
0.578892
0.597807
0.61284
0.623418
0.629323
0.63078
0.628524
0.623909
0.61895
0.616054
0.617235
0.622897
0.630837
0.636897
0.638384
0.637974
0.645941
0.682177
0.764624
0.877442
0.989346
1.08838
1.15083
1.16912
1.14023
1.07013
0.969431
0.848134
0.710871
0.54435
0.326302
0.0300772
-0.389957
-0.989217
-1.84253
-3.07189
-4.69488
-6.94905
-9.78302
-11.7713
-17.9891
-22.2673
-21.4489
-17.9974
-14.9795
-10.5636
-7.14079
-3.87729
-1.07185
1.18793
2.94603
4.2305
5.1718
5.26272
6.60569
0.0126234
0.0345584
0.0582489
0.0807453
0.103635
0.126252
0.148982
0.171752
0.194669
0.217784
0.241157
0.26486
0.288949
0.313494
0.338548
0.364156
0.390344
0.417101
0.444369
0.472016
0.499809
0.527383
0.55421
0.579589
0.602665
0.622508
0.63825
0.649257
0.655279
0.65653
0.653766
0.64842
0.642678
0.639216
0.640333
0.646521
0.65523
0.661507
0.661895
0.658831
0.663473
0.69913
0.787077
0.907613
1.02486
1.12511
1.18242
1.19158
1.15213
1.07193
0.961809
0.833045
0.692458
0.525992
0.30949
0.013756
-0.411873
-1.02977
-1.92737
-3.2397
-5.01038
-7.53385
-10.649
-13.219
-19.9446
-24.7105
-23.5089
-19.4724
-16.112
-11.1871
-7.48647
-3.99324
-1.02313
1.33605
3.18536
4.49404
5.45933
5.57199
6.89108
0.0128841
0.0359206
0.0603263
0.083776
0.107484
0.130998
0.154577
0.178222
0.201999
0.225986
0.250231
0.274818
0.299804
0.325262
0.351249
0.377819
0.404998
0.432785
0.461124
0.489886
0.518837
0.547603
0.575636
0.602198
0.626377
0.647171
0.663635
0.675075
0.681201
0.682214
0.678886
0.672726
0.666105
0.662
0.663039
0.669835
0.679455
0.686031
0.685205
0.679037
0.679561
0.714103
0.807633
0.935306
1.05605
1.15424
1.20318
1.20234
1.15363
1.06512
0.946907
0.811789
0.669352
0.504543
0.291084
-0.00293152
-0.433384
-1.06989
-2.01271
-3.41096
-5.33831
-8.15061
-11.5576
-14.9797
-22.042
-27.4843
-25.7596
-21.0449
-17.3196
-11.8392
-7.84166
-4.10357
-0.962607
1.49728
3.4391
4.76798
5.75859
5.86074
7.09561
0.0131345
0.0372898
0.0623943
0.0867981
0.111314
0.13572
0.160139
0.184651
0.20928
0.23413
0.259239
0.284701
0.310572
0.336934
0.363845
0.391365
0.419528
0.448337
0.477741
0.507617
0.53773
0.567697
0.596953
0.62472
0.650027
0.671796
0.689
0.700876
0.707094
0.707836
0.703883
0.696821
0.689214
0.684377
0.685323
0.692824
0.703523
0.710509
0.708369
0.698601
0.694067
0.726763
0.825618
0.959188
1.08049
1.1725
1.21096
1.20141
1.146
1.05133
0.926319
0.785868
0.643017
0.481381
0.272358
-0.0187682
-0.453188
-1.10794
-2.09628
-3.58228
-5.67396
-8.78597
-12.504
-17.0684
-24.2567
-30.6546
-28.2249
-22.7159
-18.6023
-12.5192
-8.20606
-4.208
-0.889834
1.67224
3.70745
5.05253
6.071
6.13982
7.38504
0.0133748
0.0386668
0.0644535
0.089812
0.115127
0.140418
0.165669
0.191041
0.216512
0.242216
0.268179
0.294506
0.321253
0.348507
0.376332
0.404793
0.43393
0.463752
0.494217
0.525204
0.556481
0.58766
0.618156
0.647151
0.673615
0.696386
0.714348
0.726666
0.732963
0.7334
0.728761
0.7207
0.71199
0.70632
0.707155
0.715472
0.727452
0.734992
0.731455
0.717534
0.7068
0.736588
0.840078
0.977464
1.09484
1.17682
1.20525
1.19018
1.13117
1.03239
0.901653
0.756694
0.614772
0.457719
0.254457
-0.0325819
-0.469911
-1.14213
-2.17554
-3.74974
-6.01096
-9.42138
-13.4796
-19.4311
-26.4777
-34.2539
-30.9293
-24.4868
-19.9583
-13.2251
-8.57881
-4.30597
-0.804327
1.8615
3.99059
5.34853
6.39836
6.48024
7.68484
0.0136047
0.0400519
0.0665046
0.0928183
0.118921
0.145093
0.171166
0.19739
0.223694
0.250244
0.277051
0.304233
0.331844
0.35998
0.388707
0.418099
0.448199
0.479026
0.510545
0.542641
0.575086
0.607486
0.639239
0.669489
0.69714
0.720942
0.739683
0.75245
0.758815
0.758913
0.75352
0.744357
0.734414
0.727797
0.728496
0.737759
0.751256
0.759537
0.754546
0.735839
0.71745
0.742853
0.849959
0.987496
1.0953
1.16583
1.18745
1.17093
1.11125
1.0101
0.874341
0.725448
0.585702
0.434573
0.238414
-0.043201
-0.482079
-1.1705
-2.24767
-3.90903
-6.34158
-10.0374
-14.4823
-21.8806
-28.5954
-38.2978
-33.8931
-26.3587
-21.3845
-13.9533
-8.95848
-4.3966
-0.705501
2.06557
4.28861
5.65646
6.73766
6.78663
7.87904
0.0138241
0.0414458
0.0685478
0.0958173
0.122697
0.149744
0.176631
0.203698
0.230826
0.258211
0.285851
0.313878
0.342343
0.371349
0.400968
0.431278
0.462331
0.494155
0.52672
0.559922
0.593537
0.627168
0.660197
0.691729
0.7206
0.745465
0.765009
0.778232
0.784655
0.784379
0.778166
0.767789
0.756466
0.74877
0.749306
0.759662
0.774957
0.784208
0.777731
0.753466
0.725498
0.744941
0.853971
0.985372
1.07907
1.1406
1.16023
1.14613
1.08824
0.98599
0.845536
0.693014
0.556644
0.412799
0.225217
-0.0494002
-0.488123
-1.19103
-2.30986
-4.05591
-6.65786
-10.6198
-15.5111
-24.1901
-30.7224
-42.9043
-37.1329
-28.3318
-22.8774
-14.699
-9.34303
-4.4785
-0.592588
2.28494
4.60153
5.97652
7.0917
7.12578
8.19852
0.0140327
0.042849
0.0705837
0.0988092
0.126456
0.154372
0.182062
0.209964
0.237906
0.266116
0.29458
0.32344
0.352747
0.382612
0.41311
0.444327
0.476323
0.509132
0.542737
0.577041
0.611827
0.6467
0.681024
0.713867
0.743993
0.769957
0.790329
0.804018
0.81049
0.809806
0.802701
0.790991
0.778127
0.769202
0.769537
0.781156
0.798572
0.809074
0.801083
0.770172
0.730347
0.742883
0.849601
0.966831
1.04621
1.10413
1.12652
1.11801
1.06382
0.961308
0.816067
0.659992
0.528247
0.393175
0.215883
-0.0498866
-0.486465
-1.20186
-2.35972
-4.18684
-6.95289
-11.1588
-16.5628
-26.3028
-33.0658
-48.1621
-40.6655
-30.4035
-24.4326
-15.4566
-9.72965
-4.54979
-0.464527
2.52013
4.92932
6.3093
7.45939
7.45257
8.4151
0.0142302
0.0442621
0.0726124
0.101794
0.130197
0.158975
0.18746
0.216187
0.244933
0.273959
0.303235
0.332916
0.363054
0.393766
0.42513
0.457242
0.490167
0.523952
0.558588
0.59399
0.629949
0.666073
0.701713
0.735898
0.767317
0.794417
0.815646
0.829813
0.836325
0.835201
0.827131
0.813958
0.799374
0.789046
0.789135
0.80221
0.822119
0.834191
0.824555
0.785312
0.732023
0.736628
0.832237
0.929791
0.999754
1.05995
1.08889
1.08842
1.03932
0.936973
0.786484
0.626757
0.501049
0.376479
0.211481
-0.043366
-0.475739
-1.20172
-2.39591
-4.30008
-7.22251
-11.6516
-17.6404
-28.25
-35.8287
-53.9865
-44.5078
-32.5668
-26.0455
-16.2195
-10.1145
-4.60799
-0.319884
2.77177
5.27189
6.65502
7.84129
7.77687
8.71982
0.014416
0.0456855
0.0746341
0.104773
0.133921
0.163555
0.192824
0.222368
0.251907
0.281737
0.311814
0.342306
0.373261
0.404807
0.437025
0.470018
0.503861
0.53861
0.574268
0.610762
0.647895
0.685279
0.722255
0.757815
0.790569
0.818846
0.840962
0.855621
0.862168
0.860572
0.851461
0.836689
0.820185
0.808257
0.808041
0.822788
0.845607
0.859555
0.847703
0.79802
0.731808
0.723706
0.796781
0.876091
0.944162
1.01109
1.04943
1.05878
1.01575
0.913652
0.757117
0.593537
0.475552
0.363522
0.213094
-0.0287201
-0.455175
-1.19057
-2.41911
-4.39685
-7.46671
-12.1026
-18.749
-30.0458
-39.0829
-60.3031
-48.6723
-34.8111
-27.7107
-16.981
-10.4927
-4.65012
-0.156781
3.04063
5.62909
7.01405
8.23863
8.15518
9.03097
0.0145897
0.0471198
0.076649
0.107745
0.137627
0.168109
0.198153
0.228504
0.258826
0.28945
0.320316
0.351605
0.383366
0.415732
0.44879
0.482651
0.517399
0.553099
0.589768
0.627349
0.665656
0.704309
0.742643
0.779611
0.813744
0.843244
0.866282
0.881447
0.888025
0.885926
0.8757
0.859181
0.840537
0.826778
0.826183
0.84284
0.869011
0.88493
0.869339
0.808291
0.73123
0.700719
0.742924
0.809997
0.883127
0.959919
1.00965
1.03012
0.993861
0.891845
0.728153
0.560465
0.452257
0.355133
0.221696
-0.00532444
-0.425167
-1.17032
-2.43292
-4.4823
-7.6902
-12.5228
-19.8917
-31.7012
-42.9263
-67.023
-53.1629
-37.1222
-29.4208
-17.7338
-10.858
-4.67271
0.0270872
3.32779
6.00076
7.38646
8.64869
8.50925
9.26089
0.0147506
0.0485656
0.0786571
0.11071
0.141315
0.172639
0.203446
0.234594
0.265688
0.297094
0.328737
0.360812
0.393365
0.426538
0.460422
0.495137
0.530774
0.567413
0.605083
0.643742
0.683222
0.723154
0.762867
0.80128
0.836839
0.867609
0.891606
0.907296
0.913901
0.911272
0.899856
0.881434
0.860406
0.844553
0.843479
0.862297
0.892207
0.90943
0.887892
0.817236
0.726102
0.65264
0.672215
0.736855
0.819626
0.907794
0.970681
1.00323
0.97429
0.871966
0.699678
0.527604
0.431652
0.352084
0.237914
0.026463
-0.387968
-1.14567
-2.44463
-4.56548
-7.9016
-12.9277
-21.0684
-33.2343
-47.4657
-74.0295
-57.9735
-39.4821
-31.166
-18.4707
-11.2036
-4.67189
0.234407
3.63465
6.38674
7.77189
9.07271
8.85681
9.5858
0.0148981
0.0500234
0.0806583
0.113668
0.144985
0.177142
0.208703
0.240638
0.272493
0.304669
0.337077
0.369924
0.403256
0.437221
0.471917
0.50747
0.543982
0.581545
0.620203
0.659932
0.700583
0.741801
0.782916
0.822812
0.859847
0.891942
0.916937
0.933171
0.939805
0.936621
0.923939
0.903452
0.879767
0.861512
0.859828
0.881044
0.914724
0.931178
0.902579
0.824284
0.70663
0.575477
0.59395
0.655096
0.755415