/*--------------------------------*- C++ -*----------------------------------*\
| =========                 |                                                 |
| \\      /  F ield         | OpenFOAM: The Open Source CFD Toolbox           |
|  \\    /   O peration     | Version:  4.1                                   |
|   \\  /    A nd           | Web:      www.OpenFOAM.org                      |
|    \\/     M anipulation  |                                                 |
\*---------------------------------------------------------------------------*/
FoamFile
{
    version     2.0;
    format      ascii;
    class       volVectorField;
    location    "29";
    object      U;
}
// * * * * * * * * * * * * * * * * * * * * * * * * * * * * * * * * * * * * * //

dimensions      [0 1 -1 0 0 0 0];

internalField   nonuniform List<vector> 
6785
(
(1.05771e-14 0.684602 15.7418)
(9.54728e-15 -5.13029 12.0537)
(-2.12566e-15 -4.2925 12.1841)
(4.71437e-15 -3.72377 12.0221)
(1.3915e-15 -3.11932 11.901)
(-1.78396e-15 -2.66648 11.7153)
(2.07592e-15 -2.31763 11.4881)
(8.49257e-16 -2.07347 11.2168)
(-8.06458e-17 -1.90798 10.9138)
(1.98237e-15 -1.81724 10.5843)
(2.24062e-16 -1.92246 10.165)
(-1.61265e-16 -2.37184 9.56009)
(1.30718e-15 -2.68979 8.96979)
(-2.05008e-16 -1.33558 8.92614)
(-1.00844e-15 1.73304 7.64147)
(1.37587e-14 -5.63789 22.1817)
(1.58422e-14 -14.7671 21.3399)
(6.27533e-16 -13.2426 20.4984)
(2.26381e-15 -11.8214 19.6219)
(3.59564e-15 -11.2269 18.5971)
(-7.73266e-16 -10.7092 17.6048)
(1.88952e-15 -10.1209 16.6522)
(7.14814e-16 -9.54488 15.6955)
(4.01531e-17 -8.97914 14.7276)
(3.99807e-15 -8.37639 13.7517)
(1.32175e-15 -7.75133 12.7738)
(-9.1724e-17 -7.27683 11.7831)
(2.63562e-15 -7.01219 10.6939)
(1.73761e-15 -5.78433 8.97418)
(-8.55597e-16 -1.73336 4.85357)
(1.47012e-14 -7.89601 22.187)
(1.82539e-14 -16.7499 24.7016)
(7.71477e-16 -13.8115 23.9906)
(5.14596e-15 -12.4977 22.6552)
(6.82573e-16 -11.8331 21.2612)
(-1.52371e-15 -10.9891 20.0206)
(-9.09944e-16 -10.1075 18.7901)
(-1.25982e-15 -9.26115 17.5388)
(-6.44152e-16 -8.43701 16.2753)
(2.40947e-16 -7.62035 15.0228)
(9.27734e-16 -6.79725 13.8037)
(-2.66583e-15 -5.96884 12.4328)
(1.28719e-15 -4.99161 10.3272)
(8.22006e-15 -3.27613 6.89165)
(3.68752e-16 -0.663074 2.40063)
(1.86187e-14 -8.14299 17.9868)
(1.76847e-14 -16.3387 24.455)
(4.61144e-15 -13.4362 23.9539)
(5.05515e-15 -12.5307 22.1186)
(9.68688e-16 -11.7973 20.6141)
(-2.62662e-15 -10.8466 19.2822)
(2.49366e-15 -9.96779 17.922)
(1.39589e-15 -9.13831 16.5573)
(7.40863e-15 -8.34557 15.2041)
(-8.28451e-16 -7.59665 13.876)
(-1.35918e-15 -6.83631 12.5329)
(1.41394e-15 -5.8751 10.8643)
(-6.24378e-15 -4.38707 8.19881)
(-1.13092e-14 -2.24549 3.97774)
(-1.52774e-15 0.01289 -1.35117)
(1.49238e-14 -7.32251 13.9166)
(1.76151e-14 -15.3603 23.7137)
(7.00463e-15 -13.9048 24.0467)
(3.55816e-15 -13.0908 21.9525)
(-1.84582e-15 -12.2993 20.3348)
(-5.52558e-16 -11.3798 18.9615)
(5.51823e-16 -10.5632 17.552)
(-3.54148e-15 -9.77019 16.1493)
(-2.129e-15 -8.9847 14.7764)
(-1.84522e-15 -8.22706 13.4378)
(-8.1792e-15 -7.46158 12.0843)
(-6.90134e-15 -6.51746 10.4506)
(-4.58852e-15 -5.04711 8.04682)
(-2.20424e-14 -3.17317 4.57173)
(-2.29828e-14 -1.17775 1.48182)
(1.4531e-14 -6.12166 10.8664)
(1.78275e-14 -14.1687 22.6773)
(1.02489e-14 -14.3405 24.3343)
(6.5203e-15 -13.5268 22.4684)
(-1.69099e-15 -12.5726 20.7485)
(4.79594e-16 -11.6379 19.3228)
(-3.83965e-15 -10.817 17.9003)
(-2.73495e-15 -9.99807 16.4889)
(-6.09958e-15 -9.17204 15.1062)
(4.77078e-15 -8.36609 13.7565)
(-6.70913e-15 -7.55898 12.4015)
(2.11727e-15 -6.63411 10.8199)
(-4.13515e-15 -5.24002 8.63908)
(-5.98383e-15 -3.66797 5.60241)
(-2.54676e-15 -1.44599 3.03386)
(1.66869e-14 -5.11619 8.83141)
(1.96841e-14 -13.0034 21.5799)
(1.32591e-14 -14.3003 24.2373)
(4.32059e-15 -13.5824 22.8806)
(6.32009e-16 -12.5407 21.1366)
(2.94765e-15 -11.6031 19.6455)
(2.8792e-15 -10.7729 18.2091)
(3.951e-16 -9.93433 16.7939)
(8.84877e-15 -9.09505 15.4013)
(-1.65689e-15 -8.28163 14.039)
(5.7705e-16 -7.47084 12.6766)
(1.66945e-15 -6.5785 11.0976)
(-5.47781e-15 -5.18897 8.99036)
(-1.01961e-14 -3.9319 6.0952)
(1.58562e-14 -1.52364 3.98211)
(5.98884e-15 -4.63908 8.02879)
(1.97505e-14 -12.205 20.8392)
(1.42039e-14 -14.0443 23.8083)
(8.36939e-15 -13.4675 23.0233)
(1.70219e-15 -12.4696 21.3225)
(2.75552e-15 -11.5597 19.784)
(1.71684e-15 -10.7305 18.338)
(9.35435e-16 -9.89176 16.9203)
(9.70657e-16 -9.06138 15.521)
(-9.70807e-15 -8.25817 14.1517)
(3.25867e-16 -7.45141 12.7825)
(3.60594e-15 -6.57639 11.1729)
(-1.04361e-14 -5.10362 9.06616)
(-1.01776e-14 -4.07048 6.15813)
(2.60025e-15 -1.53848 4.35337)
(1.23202e-14 -4.51439 7.86195)
(1.89653e-14 -11.7277 20.3502)
(1.22764e-14 -13.8058 23.2581)
(4.93775e-15 -13.381 23.0328)
(2.57913e-15 -12.496 21.4188)
(4.00481e-16 -11.6025 19.8605)
(9.33843e-16 -10.7651 18.4128)
(9.5264e-16 -9.92754 16.9951)
(-4.58449e-15 -9.10328 15.5932)
(-8.09195e-16 -8.30408 14.222)
(-9.29904e-16 -7.49096 12.8488)
(-1.28699e-15 -6.62317 11.1922)
(1.36843e-15 -5.03668 9.07468)
(-8.141e-15 -4.2166 6.20824)
(-7.94332e-15 -1.61135 4.64886)
(1.02298e-14 -4.43245 7.6086)
(1.81762e-14 -11.3625 19.8655)
(1.06585e-14 -13.6267 22.7483)
(4.21802e-15 -13.357 23.0091)
(1.536e-15 -12.5975 21.517)
(-5.44031e-15 -11.6976 19.9561)
(-3.6309e-15 -10.8425 18.5062)
(8.69302e-16 -10.0029 17.088)
(-2.08505e-15 -9.17778 15.6859)
(-3.39882e-15 -8.37634 14.314)
(3.63084e-17 -7.54868 12.9377)
(-1.53152e-14 -6.68515 11.2273)
(-6.88698e-15 -4.99276 9.10197)
(-3.38574e-15 -4.38061 6.34215)
(-7.35215e-15 -1.73877 4.99212)
(-2.69674e-15 -4.22953 7.04267)
(1.5763e-14 -10.9601 19.2599)
(3.3455e-15 -13.4622 22.3262)
(3.77167e-15 -13.3635 23.0027)
(2.24751e-15 -12.7286 21.6691)
(-5.00024e-15 -11.8193 20.1138)
(-3.10452e-15 -10.9452 18.6516)
(-1.13498e-15 -10.1011 17.2268)
(-9.71587e-15 -9.27032 15.8215)
(-4.69157e-15 -8.46451 14.4446)
(5.46836e-15 -7.61618 13.0635)
(-1.87496e-14 -6.75736 11.3002)
(-3.49578e-16 -4.98042 9.16833)
(-8.92295e-15 -4.54568 6.51835)
(-1.10932e-14 -1.87307 5.34597)
(1.52984e-15 -3.92836 6.30774)
(1.64224e-14 -10.4956 18.5808)
(2.24332e-15 -13.2496 21.9495)
(3.10083e-15 -13.305 22.9714)
(2.52592e-15 -12.778 21.7926)
(-7.43465e-15 -11.8596 20.2599)
(-2.11098e-15 -10.9774 18.7933)
(3.25182e-15 -10.1341 17.3669)
(-1.24143e-14 -9.30239 15.9629)
(-5.88398e-15 -8.498 14.5804)
(-3.6409e-15 -7.63271 13.1849)
(-1.79637e-14 -6.76747 11.3541)
(-9.59259e-15 -4.92599 9.22046)
(-2.69903e-14 -4.6987 6.71961)
(-2.53322e-14 -1.99883 5.66402)
(2.08706e-15 -3.72281 5.80576)
(1.5687e-14 -10.1206 18.0069)
(7.85112e-15 -13.121 21.7327)
(-1.40931e-15 -13.3773 23.0827)
(7.88302e-15 -12.9769 22.0793)
(-6.93865e-15 -12.0631 20.5354)
(-4.76021e-15 -11.1447 19.0052)
(1.44839e-14 -10.2692 17.5328)
(-1.2886e-14 -9.40157 16.0939)
(-6.85664e-15 -8.57573 14.6809)
(5.00445e-16 -7.66216 13.2692)
(-1.40522e-14 -6.80417 11.3586)
(-1.04964e-14 -4.83714 9.18227)
(-2.23296e-14 -4.7199 6.69246)
(-2.44117e-14 -2.01781 5.777)
(-7.95867e-15 -3.27522 4.91141)
(1.24274e-14 -9.40726 17.2016)
(6.31743e-15 -12.408 21.1086)
(6.87619e-16 -12.6312 22.6868)
(3.57006e-15 -12.3026 21.8043)
(-7.0864e-15 -11.4275 20.4882)
(-1.85979e-15 -10.6289 19.1479)
(4.57871e-15 -9.8519 17.7944)
(-1.06606e-14 -9.06877 16.4292)
(-4.13238e-15 -8.28316 15.028)
(-2.87037e-15 -7.41057 13.5246)
(-1.66417e-14 -6.44938 11.5253)
(-1.07759e-14 -4.79933 9.36447)
(-2.31254e-14 -4.82213 7.3095)
(-1.9994e-14 -2.06694 6.0274)
(-1.44441e-14 -5.76879 9.76115)
(1.15577e-14 -11.4911 19.872)
(4.64665e-15 -14.4739 23.2561)
(5.03267e-16 -15.0331 24.5806)
(1.46839e-15 -14.5305 23.3799)
(-5.12522e-15 -13.2247 21.3071)
(-3.02706e-15 -11.7463 19.0775)
(2.96393e-15 -10.3375 17.1114)
(-7.34447e-15 -9.03224 15.2953)
(-4.80561e-15 -7.92082 13.6357)
(-6.12057e-15 -6.6753 11.877)
(-1.58945e-14 -5.41137 9.3737)
(-1.38018e-14 -3.26522 6.91529)
(-2.74546e-14 -3.08297 4.40545)
(-1.38788e-14 -0.598426 2.53096)
(-3.07592e-15 0.0205111 -0.801961)
(-4.26242e-15 0.095185 -0.967738)
(-2.99141e-15 0.144486 -0.247877)
(-2.91437e-15 0.162499 -0.35316)
(-2.83192e-15 0.142933 -0.454627)
(-4.21415e-15 0.225772 -0.925488)
(-2.66095e-15 0.248835 -0.44013)
(-1.95467e-15 0.337261 -0.351333)
(-1.23844e-15 0.336918 -0.342633)
(1.95032e-15 0.276458 -0.701692)
(2.03384e-15 0.333239 -0.476831)
(1.7083e-15 0.392207 -0.397677)
(5.9486e-16 0.407649 -0.64969)
(2.65594e-16 0.361382 -0.459244)
(4.36974e-16 0.517163 -0.409072)
(7.1722e-16 0.491407 -0.379924)
(1.70001e-15 0.442344 -0.652074)
(1.41915e-15 0.459834 -0.52365)
(1.31612e-15 0.557398 -0.474542)
(1.61848e-15 0.592763 -0.721929)
(1.91495e-15 0.501224 -0.612531)
(2.90813e-15 0.705774 -0.625512)
(3.00358e-15 0.662625 -0.608692)
(3.74503e-15 0.651685 -0.863839)
(3.02971e-15 0.606397 -0.748704)
(3.44124e-15 0.797182 -0.767655)
(2.68644e-15 0.722146 -0.75732)
(3.24863e-15 0.817761 -1.00187)
(3.2562e-15 0.758609 -0.828932)
(3.50959e-15 0.906498 -0.800408)
(4.30618e-15 0.987482 -0.999308)
(4.01267e-15 0.796847 -0.826602)
(3.53527e-15 1.06082 -0.824071)
(3.47882e-15 1.00366 -0.797833)
(3.74485e-15 1.09846 -0.940821)
(2.65046e-15 1.02868 -0.761738)
(2.39342e-15 1.17216 -0.725206)
(1.19014e-15 1.3026 -0.800625)
(4.99059e-16 1.073 -0.661217)
(-3.0303e-17 1.33519 -0.651772)
(-7.7514e-16 1.24933 -0.60898)
(-3.61865e-15 1.42401 -0.638627)
(-3.37629e-15 1.26839 -0.538067)
(-3.8677e-15 1.47441 -0.522555)
(-4.12872e-15 1.33366 -0.474524)
(-6.95557e-15 1.50214 -0.444249)
(-4.85084e-15 1.40343 -0.414173)
(-4.38155e-15 1.52392 -0.364664)
(-4.97447e-15 1.52287 -0.29046)
(-4.23571e-15 1.31213 -0.37462)
(-4.12729e-15 1.49463 -0.393582)
(-3.84364e-15 1.41645 -0.344609)
(-4.8932e-15 1.4107 -0.211815)
(-3.38258e-15 1.25969 -0.390226)
(-3.30774e-15 1.37938 -0.403547)
(-2.36286e-15 1.29941 -0.337287)
(-2.91672e-15 1.18104 -0.0741044)
(-2.31746e-15 1.11374 -0.401236)
(-1.53005e-15 1.20963 -0.358067)
(-5.27765e-16 0.874739 -0.0736831)
(-1.37993e-16 0.809529 -0.549855)
(-5.60303e-16 0.856245 -0.53477)
(-1.22522e-15 0.845401 -0.437491)
(3.63714e-15 0.66059 -0.0865704)
(5.19709e-15 0.438409 -0.658637)
(5.67095e-15 0.480336 -0.593403)
(6.91714e-15 0.23119 -0.335589)
(-2.15427e-15 0.0076741 -0.124169)
(-3.575e-15 -0.18806 0.516974)
(-4.1916e-15 -0.156506 0.638106)
(-6.36425e-15 -0.162241 1.2781)
(-7.15845e-15 -0.813523 1.47927)
(-7.59163e-15 -0.893619 1.55062)
(-7.79903e-15 -0.849508 1.62917)
(-1.08462e-14 -1.53644 3.58007)
(-7.31415e-15 -1.90556 3.27189)
(-7.83946e-15 -2.05306 3.52639)
(-1.10824e-14 -3.2535 5.88585)
(-8.61975e-15 -3.48684 4.92565)
(-9.42466e-15 -3.56702 5.32814)
(-1.21353e-14 -3.93438 6.39411)
(-1.16559e-14 -3.97407 6.50475)
(-1.14193e-14 -4.25497 6.76562)
(-9.93023e-15 -4.84614 9.24946)
(-1.22574e-14 -4.80231 8.61269)
(-1.31331e-14 -5.11567 9.06659)
(-1.29878e-14 -5.10196 9.25945)
(-1.24288e-14 -5.16227 9.45565)
(-1.19506e-14 -5.20835 9.67112)
(-1.13214e-14 -5.24438 9.91684)
(-1.00615e-14 -5.34448 10.2959)
(-8.61503e-15 -5.57497 10.7541)
(-7.15732e-15 -6.09108 12.952)
(-8.10343e-15 -6.21017 12.3665)
(-7.791e-15 -6.37638 12.6774)
(-7.63697e-15 -6.3266 12.8993)
(-7.67044e-15 -6.55134 13.4257)
(-7.38124e-15 -6.48298 13.5324)
(-7.13914e-15 -6.53641 13.7721)
(-6.85753e-15 -6.60505 14.0054)
(-6.50138e-15 -6.80706 14.2921)
(-2.73714e-15 -7.04438 16.7141)
(-2.58235e-15 -7.41501 16.1051)
(-2.44725e-15 -7.51824 16.3847)
(-2.30405e-15 -7.54893 16.5606)
(-2.15251e-15 -7.58324 16.7947)
(-1.94857e-15 -7.63418 17.116)
(-1.72697e-15 -7.71366 17.469)
(-1.63822e-15 -7.68818 17.6465)
(-1.50158e-15 -7.75655 17.8971)
(-1.38739e-15 -7.92728 18.1609)
(-1.1364e-15 -7.84597 19.9977)
(-2.22424e-15 -8.37667 19.405)
(-1.99393e-15 -8.42393 19.6815)
(-1.87557e-15 -8.46856 19.8575)
(-1.689e-15 -8.52459 20.0822)
(-1.40154e-15 -8.54034 20.3354)
(-4.3582e-16 -8.59969 20.7413)
(-3.09059e-16 -8.6145 20.9863)
(-4.68482e-16 -8.7481 21.1669)
(-1.43223e-15 -8.23584 21.892)
(-1.10914e-15 -8.80259 21.2457)
(-1.59376e-15 -8.79979 21.6044)
(-1.99498e-15 -8.87536 21.8593)
(-1.75592e-15 -8.86394 21.9373)
(-1.69926e-15 -8.92011 22.0707)
(-1.58279e-15 -8.91451 22.199)
(-1.51233e-15 -8.8715 22.366)
(-1.64127e-15 -9.01524 22.7251)
(2.20152e-16 -7.55813 21.4074)
(-3.79945e-16 -8.42295 21.3411)
(-6.24829e-17 -8.31427 21.3358)
(2.36841e-16 -8.31236 21.3275)
(1.0322e-15 -8.34251 21.4686)
(1.19364e-15 -8.31742 21.3848)
(1.16519e-15 -8.27944 21.2065)
(1.18295e-15 -8.23648 21.0016)
(1.10684e-15 -8.12747 20.7006)
(7.38442e-16 -6.12259 17.5556)
(1.24273e-15 -6.92236 18.5023)
(1.18117e-15 -6.64378 18.0348)
(1.14215e-15 -6.65133 17.6922)
(1.11655e-15 -6.57428 17.2437)
(1.10048e-15 -6.52154 16.7184)
(1.52918e-15 -6.38621 15.9902)
(1.22558e-15 -6.35226 15.4853)
(1.02219e-15 -6.21929 14.8109)
(7.41031e-16 -5.91214 14.0275)
(-8.05178e-16 -3.36836 8.8241)
(1.63319e-16 -4.44499 10.9478)
(-2.50229e-16 -3.89443 9.77623)
(-9.56584e-16 -3.92971 9.11897)
(-1.69911e-15 -3.67541 8.20344)
(-2.6698e-15 -3.60984 7.1191)
(-4.5868e-15 -3.50505 5.4559)
(-6.46158e-15 -3.14696 3.81479)
(-6.05168e-15 -2.89426 3.44926)
(-5.62662e-15 -2.66704 0.407972)
(-5.31084e-15 -2.5149 2.06733)
(-4.96164e-15 -2.0455 1.17307)
(-2.14721e-15 -1.2742 -1.32021)
(-4.08287e-15 -2.7915 -0.100541)
(-4.53656e-15 -2.0913 -0.356566)
(-3.08334e-15 -1.87749 -0.123804)
(-6.54622e-15 -2.49261 -0.203801)
(-4.15066e-15 -1.68968 -0.0516638)
(-5.49737e-15 -2.48812 -0.100166)
(-5.36489e-15 -2.17818 -0.00814543)
(-3.4512e-15 -1.75115 0.0467731)
(-4.68882e-15 -2.4949 0.0496566)
(-4.01726e-15 -2.27673 0.0785372)
(-3.31397e-15 -1.89149 0.114883)
(-4.56003e-15 -2.58897 0.138148)
(-3.36184e-15 -1.79036 0.129219)
(-4.66371e-15 -2.67913 0.178841)
(-3.45405e-15 -2.41872 0.135645)
(-3.05194e-15 -2.00766 0.141641)
(-3.79436e-15 -2.73699 0.173275)
(-2.39756e-15 -1.85989 0.129805)
(-3.84624e-15 -2.80176 0.185145)
(-3.26714e-15 -2.48095 0.104693)
(-2.76242e-15 -1.96246 0.0879687)
(-3.96169e-15 -2.8278 0.11563)
(-3.06696e-15 -2.56257 0.0380348)
(-2.33525e-15 -2.0984 0.0455281)
(-3.33344e-15 -2.85961 0.0438914)
(-2.90352e-15 -1.91752 0.0143534)
(-4.32347e-15 -2.88948 0.0127551)
(-2.29166e-15 -2.52741 -0.0584576)
(-2.15877e-15 -2.06862 -0.0300799)
(-3.01616e-15 -2.78621 -0.070227)
(-2.30964e-15 -1.80158 -0.0620555)
(-3.3847e-15 -2.72635 -0.110144)
(-2.66939e-17 -2.2966 -0.162496)
(-1.92477e-15 -1.76838 -0.136927)
(-3.5155e-15 -2.54657 -0.220988)
(-3.07076e-15 -2.20013 -0.252499)
(-1.07288e-15 -1.74726 -0.195124)
(-2.01123e-15 -2.34258 -0.292047)
(-1.31356e-15 -1.48365 -0.228326)
(-1.55657e-15 -2.25146 -0.356648)
(-1.08465e-15 -1.84451 -0.362369)
(-2.39195e-15 -1.45079 -0.27782)
(-2.55237e-15 -1.88083 -0.416057)
(-1.59347e-15 -1.13806 -0.302286)
(-2.58851e-15 -1.71344 -0.488435)
(-6.62146e-15 -1.29187 -0.460995)
(-2.26313e-15 -0.927949 -0.365715)
(-3.04629e-15 -1.30249 -0.586343)
(-3.44836e-15 -0.975643 -0.529129)
(-3.58793e-15 -0.643079 -0.404637)
(1.15447e-15 -0.759868 -0.606374)
(-3.51706e-15 -0.470186 -0.41102)
(1.50886e-15 -0.738984 -0.680674)
(-6.76483e-15 -0.489907 -0.54631)
(-3.90161e-15 0.00771127 -0.346394)
(-8.92436e-15 -6.15964e-05 -0.564979)
(-3.14335e-15 0.455226 -0.346937)
(-1.90349e-15 0.335591 -0.527292)
(-1.80851e-15 0.327558 -0.681333)
(-4.48916e-16 0.496318 -0.437266)
(-2.09965e-15 0.888429 -0.486983)
(2.37152e-15 1.06214 -0.59707)
(-1.05826e-15 0.942385 -0.364393)
(2.18652e-15 1.58689 -0.616646)
(-1.60862e-15 1.3521 -0.418819)
(-2.09165e-15 1.63601 -0.577842)
(-3.40249e-15 2.08276 -0.770716)
(-5.81274e-16 1.73474 -0.435921)
(-1.56676e-15 2.75683 -0.799467)
(-9.84602e-16 2.26729 -0.521041)
(-1.56549e-15 2.71929 -0.791366)
(-1.31492e-15 3.37299 -1.16228)
(-9.16697e-16 2.79445 -0.724558)
(-9.74847e-16 3.68324 -1.04596)
(-8.9815e-16 4.6274 -1.55196)
(-6.1494e-16 3.49891 -0.958529)
(-8.42238e-16 5.47281 -1.68924)
(-5.84139e-16 4.2944 -1.12298)
(-7.88385e-16 5.68336 -1.92096)
(9.04203e-17 -0.0484523 7.48936)
(8.87115e-17 -0.041498 7.50479)
(8.76113e-17 -0.0410911 7.51446)
(8.6366e-17 -0.0432632 7.52587)
(8.51039e-17 -0.0489018 7.53721)
(8.37626e-17 -0.057835 7.54925)
(8.23341e-17 -0.0705288 7.56199)
(8.07821e-17 -0.0872435 7.57576)
(7.9072e-17 -0.108414 7.59083)
(7.71606e-17 -0.134491 7.60754)
(7.49971e-17 -0.16597 7.62628)
(7.25208e-17 -0.20351 7.64751)
(6.96592e-17 -0.248006 7.67171)
(6.63245e-17 -0.300498 7.69953)
(6.24077e-17 -0.361982 7.73163)
(5.77753e-17 -0.433763 7.76881)
(5.22604e-17 -0.517399 7.81197)
(4.56519e-17 -0.614597 7.86216)
(3.76811e-17 -0.727303 7.92063)
(2.80031e-17 -0.8577 7.98875)
(1.61706e-17 -1.0083 8.06815)
(1.60352e-18 -1.18216 8.16057)
(-1.64616e-17 -1.38223 8.26796)
(-3.90251e-17 -1.61194 8.39252)
(-6.74064e-17 -1.8749 8.53664)
(-1.03346e-16 -2.17502 8.70303)
(-1.49138e-16 -2.51644 8.89456)
(-2.0781e-16 -2.90347 9.11444)
(-2.83326e-16 -3.34054 9.36622)
(-3.80835e-16 -3.83216 9.6537)
(-5.06905e-16 -4.38276 9.98105)
(-6.6965e-16 -4.99674 10.3526)
(-8.78595e-16 -5.67817 10.7727)
(-1.14397e-15 -6.43043 11.2452)
(-1.47515e-15 -7.25566 11.773)
(-1.87795e-15 -8.1539 12.3567)
(-2.35099e-15 -9.12202 12.9944)
(-2.88184e-15 -10.1521 13.6797)
(-3.44462e-15 -11.2303 14.4027)
(-4.00117e-15 -12.3366 15.1502)
(-4.50745e-15 -13.4456 15.9097)
(-4.92496e-15 -14.5287 16.671)
(-5.23324e-15 -15.5535 17.4254)
(-5.43639e-15 -16.4764 18.1546)
(-5.55592e-15 -17.2245 18.8109)
(-5.60782e-15 -17.6743 19.295)
(-5.57073e-15 -17.6588 19.4503)
(-5.36976e-15 -17.0316 19.0868)
(-4.91839e-15 -15.5654 17.9632)
(-4.10789e-15 -11.9101 15.2257)
(-2.43715e-15 -4.17554 8.86703)
(-3.39203e-16 -1.28173 4.0731)
(-5.6197e-16 -1.99211 6.2642)
(-6.16178e-16 -2.08741 5.42902)
(-1.3001e-15 -1.61422 8.23972)
(-2.43578e-15 -1.56623 12.876)
(-2.83001e-15 -1.25838 14.5054)
(-2.86035e-15 -0.650471 14.5661)
(-3.13274e-15 0.4818 15.3867)
(-3.27301e-15 1.93976 15.7526)
(-3.26273e-15 3.59798 15.5179)
(-3.22424e-15 4.99982 15.0533)
(-3.13906e-15 6.24278 14.3044)
(-3.00058e-15 7.22926 13.2674)
(-2.80145e-15 7.85818 11.9203)
(-2.53569e-15 7.97949 10.2454)
(-2.2069e-15 7.42508 8.24843)
(-1.8393e-15 6.07958 5.94563)
(-1.48839e-15 3.87828 3.40475)
(-1.25e-15 1.31984 0.768483)
(-1.30312e-15 -0.156313 -1.49974)
(-1.20968e-15 -2.4504 -1.44611)
(-1.33867e-15 -4.60277 -3.28126)
(-1.40484e-15 -5.8695 -4.76889)
(-1.31824e-15 -6.00305 -5.16408)
(-1.18103e-15 -5.20979 -5.02744)
(-1.08e-15 -3.73701 -4.76164)
(-1.02005e-15 -1.49932 -4.55105)
(-1.09226e-15 2.06533 -4.39867)
(8.28334e-17 -0.0490641 7.5678)
(8.08117e-17 -0.0412121 7.58477)
(7.95237e-17 -0.0400272 7.59511)
(7.80629e-17 -0.0418161 7.6079)
(7.65837e-17 -0.0469525 7.62041)
(7.50233e-17 -0.0555936 7.63363)
(7.33718e-17 -0.0680209 7.64747)
(7.15944e-17 -0.0846018 7.66221)
(6.9656e-17 -0.105793 7.67813)
(6.75119e-17 -0.132111 7.69554)
(6.51083e-17 -0.164121 7.71485)
(6.23796e-17 -0.202715 7.73654)
(5.92468e-17 -0.248648 7.76118)
(5.56153e-17 -0.302873 7.78939)
(5.13643e-17 -0.366576 7.82185)
(4.63484e-17 -0.441165 7.85934)
(4.03853e-17 -0.52815 7.9028)
(3.32455e-17 -0.629262 7.95331)
(2.46381e-17 -0.746546 8.01212)
(1.41925e-17 -0.882246 8.08061)
(1.42861e-18 -1.03892 8.16048)
(-1.42686e-17 -1.21972 8.25334)
(-3.37101e-17 -1.42771 8.36121)
(-5.79525e-17 -1.6664 8.48626)
(-8.83854e-17 -1.93954 8.63095)
(-1.26837e-16 -2.25111 8.79799)
(-1.75709e-16 -2.60538 8.99036)
(-2.3816e-16 -3.00672 9.21135)
(-3.18308e-16 -3.45957 9.46462)
(-4.21473e-16 -3.96843 9.7541)
(-5.54387e-16 -4.53763 10.0841)
(-7.25274e-16 -5.17131 10.459)
(-9.43634e-16 -5.87311 10.8832)
(-1.21941e-15 -6.64582 11.3605)
(-1.56127e-15 -7.49064 11.8936)
(-1.97384e-15 -8.40642 12.4828)
(-2.45406e-15 -9.38849 13.1255)
(-2.98755e-15 -10.4273 13.8151)
(-3.54676e-15 -11.5074 14.5406)
(-4.09285e-15 -12.6078 15.2891)
(-4.58279e-15 -13.7034 16.0476)
(-4.9809e-15 -14.7663 16.8061)
(-5.27065e-15 -15.7642 17.5547)
(-5.45933e-15 -16.6508 18.2709)
(-5.56854e-15 -17.3464 18.899)
(-5.60932e-15 -17.7206 19.331)
(-5.55169e-15 -17.6097 19.4196)
(-5.31777e-15 -16.8591 19.0022)
(-4.81371e-15 -15.0316 17.6667)
(-3.81835e-15 -10.5002 14.0638)
(-1.81897e-15 -2.97726 6.98276)
(-2.98812e-16 -2.63059 4.59206)
(-6.10577e-16 -2.38979 6.30912)
(-9.32844e-16 -2.60427 6.73877)
(-1.85761e-15 -2.58501 10.3229)
(-2.76913e-15 -2.42352 14.0154)
(-3.03547e-15 -1.87264 15.3087)
(-3.16567e-15 -1.02406 15.9105)
(-3.39615e-15 0.31269 16.6746)
(-3.47948e-15 2.04497 16.8311)
(-3.47674e-15 3.70699 16.6204)
(-3.43933e-15 5.17397 16.1785)
(-3.35257e-15 6.49624 15.4408)
(-3.20985e-15 7.56947 14.3971)
(-3.00201e-15 8.2786 13.0205)
(-2.72006e-15 8.48291 11.2843)
(-2.3643e-15 8.00059 9.19107)
(-1.95713e-15 6.67463 6.7639)
(-1.55669e-15 4.43799 4.09184)
(-1.25837e-15 1.57618 1.31423)
(-1.17924e-15 -0.775433 -1.18791)
(-1.20145e-15 -2.39645 -1.45459)
(-1.32444e-15 -4.36072 -3.07876)
(-1.40251e-15 -5.7247 -4.60431)
(-1.333e-15 -5.99782 -5.11413)
(-1.20025e-15 -5.26332 -5.03219)
(-1.09588e-15 -3.78592 -4.76286)
(-1.02905e-15 -1.42566 -4.55724)
(-1.10291e-15 1.72362 -3.83941)
(7.32354e-17 -0.0486832 7.6722)
(7.09138e-17 -0.0426071 7.6903)
(6.9444e-17 -0.0420137 7.70144)
(6.77695e-17 -0.044637 7.71523)
(6.60756e-17 -0.0506324 7.72863)
(6.42897e-17 -0.0602721 7.74274)
(6.24013e-17 -0.0738046 7.75744)
(6.03722e-17 -0.0915701 7.77299)
(5.81642e-17 -0.114003 7.78964)
(5.57285e-17 -0.14162 7.80771)
(5.30067e-17 -0.175176 7.8276)
(4.99272e-17 -0.215285 7.84985)
(4.64044e-17 -0.262424 7.87508)
(4.23353e-17 -0.318276 7.90378)
(3.75873e-17 -0.383723 7.93669)
(3.20011e-17 -0.460305 7.97459)
(2.53787e-17 -0.549493 8.01845)
(1.7469e-17 -0.653129 8.06934)
(7.95543e-18 -0.773212 8.12854)
(-3.56419e-18 -0.912041 8.19739)
(-1.76083e-17 -1.07224 8.27759)
(-3.48366e-17 -1.25702 8.37074)
(-5.61207e-17 -1.46949 8.47888)
(-8.25892e-17 -1.71317 8.60423)
(-1.15721e-16 -1.99185 8.74924)
(-1.57455e-16 -2.30955 8.9167)
(-2.1033e-16 -2.67059 9.10964)
(-2.77668e-16 -3.07943 9.33147)
(-3.63779e-16 -3.54057 9.58597)
(-4.74186e-16 -4.05853 9.87721)
(-6.15808e-16 -4.63769 10.2096)
(-7.96988e-16 -5.2822 10.5877)
(-1.02712e-15 -5.99568 11.0158)
(-1.31571e-15 -6.78064 11.4978)
(-1.67049e-15 -7.63788 12.0359)
(-2.09453e-15 -8.56562 12.6305)
(-2.58263e-15 -9.55834 13.2781)
(-3.1181e-15 -10.6054 13.9717)
(-3.67149e-15 -11.6904 14.7001)
(-4.20342e-15 -12.792 15.4501)
(-4.67241e-15 -13.8849 16.2096)
(-5.04654e-15 -14.9413 16.9684)
(-5.31408e-15 -15.9272 17.7144)
(-5.48576e-15 -16.7909 18.4189)
(-5.58245e-15 -17.4429 19.0144)
(-5.60831e-15 -17.7441 19.3825)
(-5.52368e-15 -17.5323 19.384)
(-5.24581e-15 -16.623 18.849)
(-4.65264e-15 -14.3516 17.123)
(-3.40926e-15 -9.00563 12.4946)
(-1.15612e-15 -1.79285 5.12485)
(-3.74451e-16 -2.32014 5.30832)
(-7.99729e-16 -2.6491 6.94159)
(-1.43468e-15 -2.52914 8.77083)
(-2.40757e-15 -2.76223 12.3926)
(-3.04212e-15 -2.45048 15.0251)
(-3.21021e-15 -1.70291 16.0252)
(-3.37609e-15 -0.824134 16.752)
(-3.54867e-15 0.407422 17.2621)
(-3.60601e-15 2.01041 17.3178)
(-3.60882e-15 3.74828 17.1432)
(-3.57299e-15 5.26145 16.7262)
(-3.48808e-15 6.63628 16.0218)
(-3.34694e-15 7.77293 15.0102)
(-3.13793e-15 8.55307 13.6554)
(-2.84951e-15 8.83122 11.9215)
(-2.47922e-15 8.42507 9.80128)
(-2.04753e-15 7.15462 7.31862)
(-1.61348e-15 4.96534 4.58233)
(-1.27585e-15 2.14844 1.77068)
(-1.138e-15 -0.449949 -0.656516)
(-1.18871e-15 -2.21823 -1.45121)
(-1.30618e-15 -4.07375 -2.85686)
(-1.39745e-15 -5.5332 -4.39922)
(-1.34917e-15 -5.96823 -5.04312)
(-1.22374e-15 -5.33042 -5.01743)
(-1.1162e-15 -3.89861 -4.72797)
(-1.04268e-15 -1.65179 -4.44628)
(-1.10436e-15 1.46255 -3.54072)
(6.21119e-17 -0.0491241 7.78948)
(5.94873e-17 -0.0436215 7.80854)
(5.7836e-17 -0.0431211 7.82012)
(5.59478e-17 -0.0459694 7.8345)
(5.40414e-17 -0.0522404 7.84842)
(5.20328e-17 -0.0621886 7.86306)
(4.99115e-17 -0.0762118 7.87826)
(4.76352e-17 -0.0946092 7.89438)
(4.5162e-17 -0.117836 7.91164)
(4.24379e-17 -0.146369 7.93039)
(3.93986e-17 -0.180916 7.95096)
(3.59661e-17 -0.221937 7.97385)
(3.20467e-17 -0.270223 7.9996)
(2.75248e-17 -0.327312 8.02878)
(2.2255e-17 -0.394125 8.06215)
(1.60624e-17 -0.472116 8.10049)
(8.72993e-18 -0.562989 8.14476)
(-1.72795e-20 -0.668538 8.19607)
(-1.05234e-17 -0.790733 8.25565)
(-2.32254e-17 -0.931904 8.32482)
(-3.8682e-17 -1.09468 8.40517)
(-5.7603e-17 -1.28233 8.49853)
(-8.09245e-17 -1.49802 8.60683)
(-1.09853e-16 -1.7453 8.73235)
(-1.45961e-16 -2.02796 8.87756)
(-1.91307e-16 -2.35003 9.04531)
(-2.48575e-16 -2.71589 9.2387)
(-3.2126e-16 -3.13006 9.46125)
(-4.13868e-16 -3.59713 9.71687)
(-5.32127e-16 -4.12158 10.0098)
(-6.83134e-16 -4.70781 10.3445)
(-8.7529e-16 -5.35997 10.7256)
(-1.11783e-15 -6.08157 11.1574)
(-1.41969e-15 -6.87494 11.6438)
(-1.78754e-15 -7.74046 12.1868)
(-2.2227e-15 -8.67578 12.7861)
(-2.71775e-15 -9.67474 13.438)
(-3.25364e-15 -10.726 14.1348)
(-3.79922e-15 -11.8127 14.8653)
(-4.31492e-15 -12.9137 15.6164)
(-4.7613e-15 -14.0044 16.3763)
(-5.11059e-15 -15.0573 17.1348)
(-5.35592e-15 -16.0368 17.8768)
(-5.51101e-15 -16.8858 18.5657)
(-5.59486e-15 -17.5067 19.1215)
(-5.60379e-15 -17.7568 19.4194)
(-5.48872e-15 -17.4746 19.3274)
(-5.1577e-15 -16.4092 18.6168)
(-4.44567e-15 -13.6837 16.3409)
(-2.95345e-15 -7.91223 10.776)
(-6.69928e-16 -2.24191 4.14467)
(-5.55579e-16 -3.13727 6.38387)
(-1.11389e-15 -3.06162 8.15567)
(-1.97143e-15 -2.91643 10.8975)
(-2.80917e-15 -3.2094 13.8802)
(-3.19592e-15 -2.77552 15.6531)
(-3.33617e-15 -1.91166 16.5495)
(-3.54056e-15 -0.890646 17.3639)
(-3.69599e-15 0.392078 17.7994)
(-3.75082e-15 2.05676 17.8558)
(-3.7558e-15 3.8191 17.6985)
(-3.7215e-15 5.38205 17.3137)
(-3.63991e-15 6.81152 16.654)
(-3.50185e-15 8.01359 15.6868)
(-3.2931e-15 8.87052 14.3647)
(-2.99907e-15 9.2311 12.6405)
(-2.61381e-15 8.90326 10.4949)
(-2.15511e-15 7.68724 7.95221)
(-1.68271e-15 5.53277 5.14249)
(-1.30253e-15 2.72743 2.27107)
(-1.12839e-15 0.197491 -0.186375)
(-1.17692e-15 -1.90283 -1.37556)
(-1.28692e-15 -3.77044 -2.64853)
(-1.38937e-15 -5.28981 -4.17179)
(-1.36312e-15 -5.86725 -4.94108)
(-1.24757e-15 -5.3302 -4.98171)
(-1.13811e-15 -3.94694 -4.6772)
(-1.05821e-15 -1.78103 -4.29278)
(-1.08311e-15 1.14624 -3.39194)
(4.95779e-17 -0.0510627 7.91719)
(4.66126e-17 -0.0458089 7.93744)
(4.47608e-17 -0.0451788 7.94932)
(4.26348e-17 -0.0479022 7.96425)
(4.04923e-17 -0.0540558 7.97859)
(3.82366e-17 -0.0639589 7.99365)
(3.5857e-17 -0.0779954 8.0092)
(3.33073e-17 -0.0965474 8.02567)
(3.05416e-17 -0.120115 8.0433)
(2.75009e-17 -0.149165 8.06244)
(2.41147e-17 -0.184113 8.08341)
(2.02996e-17 -0.22571 8.10661)
(1.59518e-17 -0.275122 8.1326)
(1.09429e-17 -0.333203 8.16204)
(5.11641e-18 -0.401208 8.19562)
(-1.71962e-18 -0.480565 8.2342)
(-9.80313e-18 -0.573081 8.27868)
(-1.94329e-17 -0.680497 8.33019)
(-3.0983e-17 -0.80485 8.38996)
(-4.49276e-17 -0.948449 8.45925)
(-6.18688e-17 -1.11391 8.53966)
(-8.25709e-17 -1.30451 8.63309)
(-1.08038e-16 -1.5235 8.74139)
(-1.39558e-16 -1.77451 8.86695)
(-1.78804e-16 -2.06137 9.01225)
(-2.27957e-16 -2.38812 9.18016)
(-2.89852e-16 -2.75914 9.37387)
(-3.68155e-16 -3.17904 9.59701)
(-4.6757e-16 -3.65249 9.85363)
(-5.9402e-16 -4.18405 10.1481)
(-7.54743e-16 -4.77805 10.485)
(-9.58147e-16 -5.43858 10.8689)
(-1.21322e-15 -6.16905 11.3043)
(-1.52825e-15 -6.97167 11.7947)
(-1.90867e-15 -7.84635 12.3421)
(-2.354e-15 -8.79009 12.9457)
(-2.85455e-15 -9.79607 13.6012)
(-3.38905e-15 -10.8525 14.3006)
(-3.92491e-15 -11.9422 15.0324)
(-4.42279e-15 -13.044 15.7839)
(-4.84575e-15 -14.1341 16.5439)
(-5.17039e-15 -15.185 17.3012)
(-5.39453e-15 -16.1589 18.0368)
(-5.53409e-15 -16.9927 18.7051)
(-5.60507e-15 -17.5815 19.2147)
(-5.5953e-15 -17.7817 19.4387)
(-5.44612e-15 -17.423 19.241)
(-5.05119e-15 -16.1562 18.2796)
(-4.19869e-15 -12.9613 15.3409)
(-2.49614e-15 -7.0546 9.13313)
(-4.67497e-16 -2.98673 4.46795)
(-8.2743e-16 -3.78466 7.85686)
(-1.50553e-15 -3.5682 9.62735)
(-2.43026e-15 -3.56038 12.5598)
(-3.06552e-15 -3.73795 14.835)
(-3.28805e-15 -3.18413 16.0584)
(-3.45318e-15 -2.20676 17.0031)
(-3.69185e-15 -1.02604 17.8783)
(-3.83929e-15 0.351553 18.2607)
(-3.89058e-15 2.06864 18.2796)
(-3.89503e-15 3.86361 18.1294)
(-3.86369e-15 5.47412 17.7868)
(-3.78793e-15 6.95881 17.1884)
(-3.65617e-15 8.2278 16.2887)
(-3.4513e-15 9.16536 15.026)
(-3.15518e-15 9.61542 13.3381)
(-2.75778e-15 9.37487 11.1899)
(-2.27354e-15 8.23137 8.60295)
(-1.76222e-15 6.12376 5.72405)
(-1.33709e-15 3.30759 2.77996)
(-1.12805e-15 0.668771 0.207396)
(-1.16828e-15 -1.55004 -1.22386)
(-1.26768e-15 -3.48665 -2.44815)
(-1.3785e-15 -5.0524 -3.93215)
(-1.37395e-15 -5.75904 -4.80819)
(-1.27046e-15 -5.32721 -4.92208)
(-1.1606e-15 -3.99698 -4.6132)
(-1.07893e-15 -1.90709 -4.1534)
(-1.04435e-15 0.833376 -3.04534)
(3.55825e-17 -0.0538075 8.05517)
(3.22272e-17 -0.0486134 8.07679)
(3.01496e-17 -0.0478789 8.08897)
(2.77553e-17 -0.0504611 8.1045)
(2.53468e-17 -0.0564907 8.11929)
(2.28127e-17 -0.0662538 8.13474)
(2.01427e-17 -0.080139 8.1506)
(1.72863e-17 -0.0985652 8.16727)
(1.41933e-17 -0.122074 8.18501)
(1.07998e-17 -0.15121 8.20418)
(7.02902e-18 -0.186466 8.22514)
(2.78851e-18 -0.228638 8.24831)
(-2.03605e-18 -0.278688 8.2743)
(-7.58319e-18 -0.337578 8.30373)
(-1.40226e-17 -0.406576 8.33723)
(-2.15639e-17 -0.487195 8.3757)
(-3.04659e-17 -0.581158 8.42005)
(-4.10518e-17 -0.690345 8.4714)
(-5.37267e-17 -0.816837 8.53101)
(-6.90045e-17 -0.962928 8.60014)
(-8.75299e-17 -1.13125 8.68039)
(-1.10126e-16 -1.32503 8.7736)
(-1.37866e-16 -1.54753 8.88168)
(-1.72123e-16 -1.8025 9.00703)
(-2.14674e-16 -2.09385 9.15219)
(-2.67829e-16 -2.42567 9.32008)
(-3.34573e-16 -2.80235 9.51395)
(-4.18748e-16 -3.22852 9.73752)
(-5.25245e-16 -3.70893 9.99496)
(-6.60162e-16 -4.24828 10.2908)
(-8.3084e-16 -4.85087 10.6296)
(-1.04563e-15 -5.52068 11.0162)
(-1.31319e-15 -6.26103 11.4548)
(-1.64103e-15 -7.07395 11.9489)
(-2.03326e-15 -7.95902 12.5002)
(-2.48752e-15 -8.91254 13.1074)
(-2.99189e-15 -9.92691 13.7658)
(-3.52302e-15 -10.9899 14.467)
(-4.04724e-15 -12.0842 15.1994)
(-4.5259e-15 -13.1888 15.9509)
(-4.92495e-15 -14.2802 16.7104)
(-5.22553e-15 -15.3303 17.4655)
(-5.42975e-15 -16.298 18.1923)
(-5.55489e-15 -17.1135 18.8353)
(-5.61276e-15 -17.6655 19.294)
(-5.58209e-15 -17.8082 19.4406)
(-5.39395e-15 -17.346 19.1132)
(-4.92379e-15 -15.813 17.814)
(-3.91936e-15 -12.1447 14.1707)
(-2.07141e-15 -6.28397 7.79164)
(-5.30777e-16 -3.41209 5.89079)
(-1.14815e-15 -4.25462 9.59126)
(-1.9025e-15 -4.1252 11.1173)
(-2.76777e-15 -4.19111 13.6607)
(-3.22032e-15 -4.20894 15.4672)