/*--------------------------------*- C++ -*----------------------------------*\
| =========                 |                                                 |
| \\      /  F ield         | OpenFOAM: The Open Source CFD Toolbox           |
|  \\    /   O peration     | Version:  4.1                                   |
|   \\  /    A nd           | Web:      www.OpenFOAM.org                      |
|    \\/     M anipulation  |                                                 |
\*---------------------------------------------------------------------------*/
FoamFile
{
    version     2.0;
    format      ascii;
    class       surfaceScalarField;
    location    "9";
    object      phi;
}
// * * * * * * * * * * * * * * * * * * * * * * * * * * * * * * * * * * * * * //

dimensions      [0 3 -1 0 0 0 0];

internalField   nonuniform List<scalar> 
13220
(
-773.994
2073.9
-1204.32
1730.52
-1645.22
1740.81
-1964.63
1619.31
-2222.99
1558.56
-2403.78
1480.69
-2515.97
1412.1
-2559.33
1343.56
-2536.63
1277.2
-2442.31
1205.58
-2265.36
1123.25
-1985.74
1020.28
-1560.69
874.856
-932.792
672.302
367.108
-217.61
2291.51
-496.655
2009.57
-798.247
2042.4
-1048.89
1869.95
-1291.8
1801.47
-1496.77
1685.66
-1680.35
1595.67
-1835.8
1499.01
-1959.12
1400.52
-2016.88
1263.33
-1923.55
1029.92
-1561.23
657.957
-963.368
276.998
-392.614
101.549
-25.5063
-185.701
2477.21
-426.156
2250.03
-610.889
2227.13
-743.462
2002.53
-866.64
1924.65
-949.542
1768.56
-1016.84
1662.97
-1061.96
1544.14
-1088.72
1427.28
-1084.7
1259.31
-1015.37
960.597
-827.47
470.057
-585.966
35.5007
-324.458
-159.948
-349.964
58.3254
2418.88
-11.4446
2319.8
-14.1005
2229.79
5.94015
1982.49
31.5604
1899.03
78.0276
1722.1
136.043
1604.96
211.503
1468.68
295.762
1343.03
363.958
1191.11
353.357
971.199
183.809
639.608
-60.417
279.732
-118.369
-101.991
-468.334
172.67
2246.21
150.183
2342.28
203.246
2176.73
265.556
1920.18
339.58
1825.01
416.576
1645.1
502.865
1518.67
598.139
1373.41
700.854
1240.31
789.485
1102.48
818.524
942.159
715.379
742.756
493.966
501.149
192.099
199.882
-276.235
166.042
2080.17
176.729
2331.6
227.504
2125.95
286.753
1860.93
357.477
1754.28
422.379
1580.2
490.473
1450.58
553.582
1310.3
613.016
1180.88
660.674
1054.83
677.183
925.65
629.435
790.501
503.279
627.3
284.437
418.714
8.20153
104.818
1975.35
164.964
2271.45
228.031
2062.89
297.828
1791.13
373.029
1679.08
446.781
1506.45
516.042
1381.32
582.048
1244.29
641.374
1121.55
690.185
1006.01
709.178
906.656
669.433
830.248
538.28
758.455
303.728
653.271
311.929
5.05822
1970.3
84.5255
2191.98
148.779
1998.63
191.548
1748.36
238.299
1632.33
305.838
1438.91
413.236
1273.92
569.896
1087.63
744.049
947.397
890.773
859.29
950.184
847.244
885.319
895.11
680.667
963.103
374.177
959.756
686.106
-121.697
2091.99
-125.541
2195.83
-142.689
2015.78
-222.386
1828.06
-304.223
1714.17
-361.012
1495.69
-340.442
1253.35
-244.485
991.674
-90.6471
793.559
102.081
666.562
291.614
657.71
407.539
779.188
382.482
988.162
219.654
1122.59
905.76
-102.538
2194.53
-323.443
2416.73
-509.834
2202.17
-721.542
2039.77
-948.386
1941.01
-1185.37
1732.68
-1402.42
1470.4
-1588.49
1177.75
-1716.65
921.711
-1734.34
684.257
-1577.92
501.293
-1220.21
421.469
-722.639
490.59
-262.12
662.062
643.64
257.159
1937.37
80.4994
2593.39
-140.175
2422.85
-302.396
2201.99
-436.687
2075.3
-598.044
1894.03
-805.025
1677.38
-1047.75
1420.47
-1298.27
1172.23
-1528.86
914.848
-1674.98
647.416
-1629.31
375.799
-1284.46
145.742
-633.826
11.4245
9.8135
574.874
1362.5
688.74
2479.52
583.381
2528.2
521.356
2264.01
537.713
2058.94
557.775
1873.97
537.993
1697.16
456.698
1501.76
330.27
1298.66
160.575
1084.54
-44.7436
852.733
-259.204
590.254
-390.755
277.286
-311.537
-67.8009
-301.723
565.366
797.129
806.591
2238.3
856.648
2478.15
923.335
2197.32
1048.6
1933.67
1177.46
1745.11
1277.32
1597.3
1327.86
1451.22
1328.03
1298.49
1275.72
1136.85
1162.31
966.138
964.716
787.85
659.513
582.489
237.515
354.196
-64.2079
336.431
460.697
493.972
2080.76
515.909
2456.21
473.042
2240.19
461.529
1945.19
501.695
1704.95
580.591
1518.4
671.395
1360.41
752.32
1217.57
797.641
1091.53
788.402
975.377
716.135
860.117
561.539
737.084
330.571
585.161
266.363
80.7027
913.571
1743.17
2303.63
2457.59
2384.88
2185.55
1941.63
1665.05
1435.08
1239.63
1039.77
796.813
470.874
4.46302e-06
-34.4861
34.4861
-34.4861
-34.4861
-34.4861
82.7999
-117.286
82.7999
82.7999
82.7999
203.555
-120.756
203.555
203.555
317.95
-114.394
317.95
317.95
317.95
421.086
-103.136
421.086
421.086
500.961
-79.875
500.961
500.961
500.961
554.851
-53.8898
554.851
554.851
554.851
580.082
-25.2314
580.082
580.082
579.709
0.372933
579.709
579.709
579.709
564.339
15.3698
564.339
564.339
542.358
21.9811
542.358
542.358
542.358
555.17
-12.8114
555.17
555.17
555.17
595.015
-39.8457
595.015
595.015
588.237
6.77793
588.237
588.237
588.237
497.182
91.0556
497.182
497.182
497.182
317.058
180.124
317.058
317.058
106.43
210.628
106.43
106.43
106.43
-239.175
345.605
-239.175
-239.175
-1108.22
869.043
-1108.22
-1108.22
-1108.22
-2388.98
1280.76
-2388.98
-2388.98
-2388.98
-4026.76
1637.78
-4026.76
-4026.76
-5993.86
1967.1
-5993.86
-5993.86
-5857.38
-5723.44
-5586.52
-7667.83
2220.01
-7524.69
-7361.61
-7188.74
-7017.08
-6846.35
-6676.72
-6505.49
-6325.85
-8508.91
2365.11
-8322.5
-8135.64
-7948.39
-7752.18
-7554.69
-7356.47
-7157.73
-6956.26
-9323.13
2575.58
-9107.29
-8889.24
-8668.41
-8443.87
-8212.06
-7970.09
-7724.07
-7473.55
-7218.88
-9880.16
2910.36
-9608.35
-9331.74
-9051.76
-8768.73
-8482.94
-8183.49
-7876.15
-7567.98
-10095
2817.38
-9795.48
-9489
-9169.3
-8848.66
-8525.97
-8202.46
-7877.01
-7526.71
-9475.61
2278.82
-9142.57
-8812.82
-8486.19
-8142.19
-7793.5
-7451.43
-7115.02
-6787.1
-7606.09
1141.69
-7277.49
-6960.22
-6649.34
-6345.2
-6046.29
-5737.43
-5432.43
-5128.9
-4830.29
-4791.2
272.361
-4527.98
-4284.11
-4044.78
-3811.9
-3585.85
-3411.62
-3340.03
-3270.01
-3010.71
-186.436
-2947.03
-2884.06
-2884.06
-2753.7
-130.369
-2613.7
-139.994
-2613.7
-2506.26
-107.446
-2506.26
-2425.11
-81.1474
-2351.51
-73.5981
-2351.51
-2295.59
-55.9158
-2242.75
-52.8415
-2242.75
-2200.57
-42.1859
-2200.57
-2172.35
-28.2124
-2144.47
-27.8799
-2144.47
-2126.64
-17.8316
-2126.64
-2123.46
-3.18357
-2116.24
-7.21489
-2116.24
-2123.06
6.81095
-2124.04
0.983995
-2124.04
-2132.07
8.02828
-2132.07
-2150.95
18.8831
-2158.81
7.86398
-2158.81
-2174.78
15.9684
-2174.78
-2203.45
28.6624
-2215.7
12.2517
-2215.7
-2241.77
26.0687
-2250.76
8.99831
-2250.76
-2263.66
12.9002
-2263.66
-2281.65
17.9819
-2280.89
-0.751509
-2280.89
-2283.52
2.62807
-2283.52
-2292.8
9.2813
-2282.43
-10.378
-2282.43
-2280.54
-1.88332
-2260.67
-19.8746
-2260.67
-2239.8
-20.8681
-2239.8
-2218.31
-21.4874
-2179.8
-38.516
-2179.8
-2138.36
-41.4403
-2138.36
-2096.29
-42.0651
-2039.15
-57.1396
-2039.15
-1980.52
-58.6302
-1911.4
-69.1179
-1911.4
-1837.44
-73.9624
-1837.44
-1760.64
-76.8008
-1677.03
-83.6078
-1677.03
-1587.42
-89.6082
-1587.42
-1494.19
-93.2344
-1396.49
-97.6986
-1396.49
-1290.54
-105.956
-1184.25
-106.29
-1184.25
-1070.48
-113.771
-1070.48
-120.402
-19.6493
-94.4538
-19.5603
-121.563
-19.6517
-139.367
-19.7806
-156.581
-19.9963
-173.524
-20.2647
-189.657
-20.5996
-205.621
-20.9909
-221.234
-21.4425
-236.742
-21.9512
-252.129
-22.5178
-267.507
-23.1412
-282.906
-23.8215
-298.389
-24.5583
-313.994
-25.3517
-329.768
-26.2017
-345.746
-27.1087
-361.966
-28.073
-378.462
-29.0953
-395.267
-30.1762
-412.412
-31.3165
-429.927
-32.5175
-447.842
-33.78
-466.185
-35.1055
-484.984
-36.4953
-504.266
-37.9506
-524.056
-39.4729
-544.378
-41.0633
-565.255
-42.7229
-586.704
-44.4522
-608.739
-46.2515
-631.367
-48.1201
-654.587
-50.0563
-678.385
-52.0574
-702.733
-54.1191
-727.587
-56.2352
-752.882
-58.3979
-778.533
-60.5972
-804.435
-62.8215
-830.467
-65.0577
-856.498
-67.2916
-882.4
-69.5086
-908.062
-71.6937
-933.4
-73.8324
-958.371
-75.9098
-982.981
-77.9106
-1007.27
-79.8175
-1031.33
-81.61
-1055.24
-83.2636
-1079.1
-84.747
-1102.99
-86.0182
-1126.96
-87.0164
-1151.04
-87.6487
-1175.1
-87.7761
-1198.68
-87.201
-1220.8
-85.6611
-1239.83
-82.827
-1253.51
-78.3074
-1258.79
-71.6654
-1251.81
-62.4471
-1227.59
-50.2573
-1179.77
-34.8455
-1099.16
-16.3599
-974.347
4.00044
-783.522
29.15
-486.072
48.7382
141.281
53.1024
611.274
56.5891
1006.35
58.8653
1351.2
60.2031
1672.77
58.6298
1934.32
56.4871
2187.61
50.3363
2344.03
48.9317
2601.24
40.5937
2617.33
48.5224
3019.98
46.955
2772.33
58.545
3416.26
4087.86
-21.6537
-94.7116
-21.4937
-121.723
-21.5612
-139.299
-21.676
-156.467
-21.8925
-173.307
-22.1695
-189.38
-22.5211
-205.269
-22.9353
-220.82
-23.4159
-236.261
-23.9587
-251.586
-24.5647
-266.901
-25.232
-282.238
-25.9608
-297.66
-26.7504
-313.205
-27.6008
-328.917
-28.5119
-344.835
-29.4841
-360.994
-30.5175
-377.429
-31.6128
-394.172
-32.7706
-411.254
-33.9919
-428.706
-35.2777
-446.556
-36.6291
-464.834
-38.0473
-483.566
-39.5337
-502.779
-41.0896
-522.5
-42.7162
-542.752
-44.4145
-563.556
-46.1853
-584.933
-48.0288
-606.895
-49.9445
-629.452
-51.931
-652.6
-53.9856
-676.33
-56.1041
-700.614
-58.2806
-725.41
-60.5074
-750.655
-62.7744
-776.266
-65.0702
-802.139
-67.3817
-828.155
-69.6947
-854.185
-71.995
-880.1
-74.2689
-905.788
-76.503
-931.166
-78.685
-956.189
-80.8024
-980.863
-82.8414
-1005.24
-84.7859
-1029.39
-86.6154
-1053.41
-88.3046
-1077.41
-89.8207
-1101.47
-91.1177
-1125.66
-92.1247
-1150.03
-92.729
-1174.49
-92.7593
-1198.65
-91.9784
-1221.58
-90.0803
-1241.73
-86.6913
-1256.9
-81.379
-1264.1
-73.67
-1259.52
-63.0818
-1238.18
-49.2132
-1193.64
-31.8339
-1116.54
-11.1971
-994.984
11.2882
-806.007
38.6531
-513.437
60.892
119.042
59.1132
613.052
59.5204
1005.94
60.5351
1350.18
60.9526
1672.35
58.7083
1936.56
56.0454
2190.27
49.686
2350.39
47.9932
2602.94
39.8239
2625.5
47.4391
3012.37
46.0334
2773.74
58.1134
3404.18
4032.21
-22.7348
-95.0083
-22.5498
-121.908
-22.6024
-139.247
-22.7111
-156.358
-22.928
-173.09
-23.2101
-189.098
-23.5711
-204.908
-23.9982
-220.393
-24.4949
-235.764
-25.0567
-251.024
-25.6843
-266.274
-26.3758
-281.547
-27.1312
-296.905
-27.9497
-312.386
-28.8314
-328.036
-29.776
-343.89
-30.7837
-359.986
-31.8548
-376.358
-32.99
-393.037
-34.1898
-410.054
-35.4552
-427.441
-36.7872
-445.225
-38.1869
-463.434
-39.6556
-482.097
-41.1946
-501.24
-42.8051
-520.889
-44.4884
-541.068
-46.2454
-561.799
-48.0765
-583.102
-49.9818
-604.99
-51.9605
-627.473
-54.0105
-650.55
-56.1287
-674.212
-58.31
-698.433
-60.5476
-723.172
-62.8328
-748.37
-65.1546
-773.944
-67.5006
-799.793
-69.8571
-825.799
-72.2097
-851.832
-74.5445
-877.765
-76.8484
-903.484
-79.1094
-928.905
-81.3166
-953.982
-83.4587
-978.721
-85.5229
-1003.17
-87.4934
-1027.42
-89.3496
-1051.56
-91.0659
-1075.7
-92.6088
-1099.93
-93.9305
-1124.34
-94.9544
-1149.01
-95.5555
-1173.89
-95.5437
-1198.66
-94.6595
-1222.46
-92.5743
-1243.82
-88.8915
-1260.58
-83.1581
-1269.84
-74.8808
-1267.8
-63.5601
-1249.5
-48.7858
-1208.42
-30.3272
-1135
-8.47848
-1016.83
15.3319
-829.817
42.389
-540.494
70.9658
90.4655
68.1823
615.836
64.5399
1009.59
63.2748
1351.45
62.3279
1673.3
58.9955
1939.9
55.5464
2193.72
48.7217
2357.22
46.6828
2604.98
38.5091
2633.67
45.8891
3004.99
44.3733
2775.25
58.3891
3390.17
3984.3
-23.9977
-95.3408
-23.7901
-122.116
-23.8301
-139.207
-23.9344
-156.253
-24.1538
-172.871
-24.4438
-188.808
-24.8173
-204.535
-25.2609
-219.949
-25.7778
-235.247
-26.3633
-250.439
-27.0176
-265.62
-27.7389
-280.826
-28.527
-296.117
-29.3809
-311.532
-30.3006
-327.116
-31.2859
-342.905
-32.3369
-358.935
-33.4539
-375.241
-34.6374
-391.853
-35.8881
-408.804
-37.207
-426.122
-38.5949
-443.837
-40.0532
-461.976
-41.583
-480.567
-43.1857
-499.638
-44.8625
-519.213
-46.6144
-539.316
-48.4425
-559.971
-50.3469
-581.197
-52.3274
-603.01
-54.3827
-625.418
-56.5104
-648.423
-58.7066
-672.016
-60.9653
-696.174
-63.2787
-720.859
-65.6368
-746.012
-68.0276
-771.553
-70.4375
-797.383
-72.8518
-823.384
-75.2558
-849.428
-77.6356
-875.385
-79.9788
-901.141
-82.2747
-926.609
-84.5138
-951.743
-86.6866
-976.548
-88.7814
-1001.08
-90.7829
-1025.42
-92.6709
-1049.67
-94.4193
-1073.95
-95.9946
-1098.35
-97.3474
-1122.99
-98.3957
-1147.96
-99.0017
-1173.29
-98.9546
-1198.71
-97.9697
-1223.45
-95.6913
-1246.09
-91.695
-1264.58
-85.5015
-1276.03
-76.5915
-1276.71
-64.4416
-1261.65
-48.6221
-1224.24
-28.8824
-1154.74
-5.54503
-1040.17
19.9504
-855.313
46.9364
-567.48
83.4218
53.9801
79.876
619.382
72.065
1017.4
67.3669
1356.15
64.404
1676.26
59.5925
1944.71
55.0298
2198.28
47.5602
2364.69
45.0044
2607.53
36.8384
2641.84
43.8937
2997.93
42.2638
2776.88
55.2728
3377.16
3933.62
-25.1989
-95.6972
-24.9781
-122.336
-25.0083
-139.177
-25.1106
-156.151
-25.3338
-172.648
-25.6326
-188.509
-26.0191
-204.148
-26.4797
-219.489
-27.0169
-234.71
-27.6259
-249.83
-28.3068
-264.939
-29.0576
-280.075
-29.8778
-295.297
-30.7665
-310.643
-31.7235
-326.159
-32.7487
-341.88
-33.842
-357.842
-35.0038
-374.079
-36.2345
-390.622
-37.5349
-407.503
-38.9059
-424.751
-40.3484
-442.394
-41.8638
-460.461
-43.4531
-478.978
-45.1179
-497.973
-46.8591
-517.471
-48.6781
-537.497
-50.5753
-558.074
-52.5511
-579.222
-54.6049
-600.956
-56.7351
-623.287
-58.9387
-646.219
-61.211
-669.743
-63.5454
-693.84
-65.9329
-718.471
-68.3626
-743.582
-70.8211
-769.095
-73.2938
-794.911
-75.7651
-820.913
-78.2198
-846.973
-80.6442
-872.961
-83.0265
-898.759
-85.3574
-924.278
-87.629
-949.472
-89.8333
-974.344
-91.96
-998.95
-93.9945
-1023.38
-95.9165
-1047.75
-97.7002
-1072.16
-99.312
-1096.74
-100.702
-1121.6
-101.784
-1146.88
-102.407
-1172.66
-102.343
-1198.77
-101.28
-1224.51
-98.8388
-1248.53
-94.567
-1268.85
-87.9603
-1282.64
-78.4738
-1286.19
-65.5578
-1274.57
-48.7572
-1241.04
-27.7856
-1175.71
-2.96996
-1064.99
24.3432
-882.626
53.0411
-596.178
94.341
12.6802
93.324
620.399
82.5914
1028.13
73.3559
1365.38
67.4044
1682.21
60.6235
1951.49
54.5894
2204.32
46.2147
2373.06
43.0016
2610.74
34.7419
2650.09
41.4999
2991.17
39.6463
2778.74
54.0741
3362.73
3890
-26.3948
-96.0703
-26.1668
-122.564
-26.19
-139.154
-26.2927
-156.048
-26.5212
-172.419
-26.8302
-188.2
-27.2311
-203.748
-27.7097
-219.01
-28.2684
-234.151
-28.9021
-249.196
-29.6106
-264.23
-30.3918
-279.294
-31.2452
-294.443
-32.1698
-309.719
-33.1653
-325.164
-34.2313
-340.814
-35.3681
-356.705
-36.5758
-372.871
-37.8549
-389.343
-39.2061
-406.152
-40.6304
-423.327
-42.1287
-440.896
-43.7023
-458.887
-45.3526
-477.328
-47.0807
-496.245
-48.8879
-515.664
-50.7752
-535.61
-52.7433
-556.106
-54.7921
-577.173
-56.9209
-598.827
-59.1278
-621.081
-61.4092
-643.938
-63.7598
-667.393
-66.1721
-691.428
-68.6363
-716.007
-71.1401
-741.078
-73.669
-766.566
-76.2071
-792.372
-78.7381
-818.382
-81.2461
-844.465
-83.7176
-870.49
-86.1414
-896.335
-88.5095
-921.91
-90.8158
-947.165
-93.054
-972.106
-95.2151
-996.789
-97.2852
-1021.31
-99.2443
-1045.79
-101.067
-1070.34
-102.72
-1095.09
-104.153
-1120.17
-105.278
-1145.76
-105.933
-1172.01
-105.868
-1198.84
-104.75
-1225.63
-102.171
-1251.11
-97.6535
-1273.37
-90.6663
-1289.62
-80.6374
-1296.22
-66.9874
-1288.22
-49.2271
-1258.8
-27.0194
-1197.92
-0.671453
-1091.33
28.6515
-911.949
59.9972
-627.524
103.414
-30.7365
107.551
616.261
95.9248
1039.76
81.7359
1379.57
71.5993
1692.35
62.2102
1960.88
54.3221
2212.21
44.7606
2382.62
40.7233
2614.78
32.2653
2658.55
38.7166
2984.72
36.5241
2780.93
49.7587
3349.5
3846.52
-27.5748
-96.4533
-27.3451
-122.794
-27.3641
-139.135
-27.4694
-155.943
-27.7048
-172.184
-28.0253
-187.88
-28.4415
-203.331
-28.9392
-218.512
-29.5203
-233.57
-30.1794
-248.537
-30.9164
-263.493
-31.7288
-278.481
-32.6162
-293.556
-33.5773
-308.758
-34.6118
-324.129
-35.7195
-339.706
-36.9003
-355.524
-38.1546
-371.617
-39.4827
-388.015
-40.8854
-404.749
-42.3636
-421.848
-43.9184
-439.341
-45.551
-457.254
-47.2628
-475.616
-49.055
-494.453
-50.9288
-513.79
-52.8853
-533.654
-54.925
-554.066
-57.0478
-575.05
-59.2526
-596.622
-61.5372
-618.796
-63.8977
-641.577
-66.3279
-664.963
-68.8197
-688.936
-71.3621
-713.465
-73.9417
-738.499
-76.5428
-763.965
-79.1483
-789.767
-81.7409
-815.79
-84.3042
-841.902
-86.8245
-867.969
-89.2916
-893.868
-91.6987
-919.503
-94.0414
-944.823
-96.3153
-969.832
-98.5131
-994.591
-100.621
-1019.2
-102.621
-1043.79
-104.486
-1068.48
-106.184
-1093.39
-107.669
-1118.68
-108.847
-1144.58
-109.548
-1171.31
-109.501
-1198.88
-108.351
-1226.78
-105.663
-1253.8
-100.932
-1278.1
-93.6014
-1296.95
-83.0708
-1306.75
-68.7283
-1302.56
-50.043
-1277.48
-26.6142
-1221.34
1.29526
-1119.24
32.7586
-943.412
66.7291
-661.495
112.671
-76.6789
122.09
606.843
111.409
1050.44
92.8531
1398.13
77.4068
1707.8
64.5057
1973.78
54.3201
2222.39
43.2715
2393.67
38.2225
2619.83
29.4621
2667.31
35.574
2978.61
33.0468
2783.46
45.6834
3336.86
3802.6
-28.7431
-96.8406
-28.5161
-123.021
-28.5336
-139.117
-28.6437
-155.833
-28.8874
-171.94
-29.2209
-187.546
-29.6536
-202.899
-30.1714
-217.995
-30.7757
-232.966
-31.4613
-247.852
-32.2276
-262.727
-33.0721
-277.637
-33.9942
-292.634
-34.9926
-307.759
-36.0671
-323.055
-37.2172
-338.556
-38.4429
-354.299
-39.7444
-370.315
-41.1223
-386.637
-42.5773
-403.294
-44.1102
-420.315
-45.7223
-437.729
-47.4148
-455.562
-49.1889
-473.842
-51.0461
-492.595
-52.9876
-511.849
-55.0142
-531.627
-57.1266
-551.954
-59.3245
-572.852
-61.6066
-594.34
-63.9703
-616.432
-66.4112
-639.136
-68.9228
-662.451
-71.4958
-686.363
-74.1184
-710.842
-76.7759
-735.841
-79.4514
-761.289
-82.1266
-787.092
-84.783
-813.133
-87.4037
-839.281
-89.975
-865.398
-92.4872
-891.356
-94.9352
-917.055
-97.3163
-942.441
-99.6282
-967.52
-101.865
-992.354
-104.014
-1017.05
-106.057
-1041.75
-107.968
-1066.57
-109.718
-1091.64
-111.26
-1117.14
-112.502
-1143.34
-113.265
-1170.54
-113.257
-1198.89
-112.1
-1227.94
-109.332
-1256.57
-104.423
-1283.01
-96.7885
-1304.59
-85.799
-1317.74
-70.8071
-1317.55
-51.2328
-1297.06
-26.6008
-1245.98
2.8964
-1148.74
36.6081
-977.124
73.2501
-698.137
122.071
-125.5
136.723
592.191
128.233
1058.93
106.722
1419.64
85.3387
1729.18
67.7584
1991.36
54.6876
2235.46
41.8141
2406.54
35.5498
2626.1
26.366
2676.5
32.1385
2972.84
29.2229
2786.37
44.3707
3321.71
3763.36
-29.9006
-97.2276
-29.6798
-123.242
-29.6984
-139.098
-29.8154
-155.716
-30.069
-171.686
-30.4167
-187.198
-30.8671
-202.448
-31.406
-217.456
-32.0347
-232.337
-32.7476
-247.139
-33.544
-261.93
-34.4215
-276.759
-35.3791
-291.676
-36.4158
-306.723
-37.531
-321.939
-38.7242
-337.363
-39.9956
-353.027
-41.3452
-368.966
-42.7737
-385.209
-44.2818
-401.786
-45.8703
-418.727
-47.5405
-436.059
-49.2936
-453.809
-51.131
-472.004
-53.0541
-490.672
-55.0641
-509.839
-57.162
-529.529
-59.3481
-549.768
-61.6222
-570.578
-63.9829
-591.979
-66.4271
-613.988
-68.9501
-636.613
-71.5446
-659.857
-74.2007
-683.707
-76.9055
-708.138
-79.6431
-733.104
-82.3954
-758.537
-85.1425
-784.345
-87.8651
-810.411
-90.5454
-836.601
-93.1697
-862.774
-95.7292
-888.796
-98.2199
-914.564
-100.641
-940.02
-102.993
-965.168
-105.272
-990.076
-107.465
-1014.86
-109.554
-1039.66
-111.515
-1064.61
-113.321
-1089.83
-114.928
-1115.53
-116.247
-1142.02
-117.087
-1169.7
-117.141
-1198.84
-116.003
-1229.08
-113.188
-1259.39
-108.136
-1288.06
-100.239
-1312.49
-88.8364
-1329.14
-73.242
-1333.15
-52.8192
-1317.48
-27.0092
-1271.79
4.09205
-1179.84
40.1284
-1013.16
79.4957
-737.504
131.523
-177.527
151.363
572.351
145.707
1064.58
122.944
1442.4
95.8071
1756.32
72.3421
2014.82
55.5619
2252.24
40.4592
2421.65
32.7536
2633.8
23.0091
2686.24
28.3975
2967.45
25.0174
2789.75
38.3474
3308.38
3724.91
-31.0485
-97.6102
-30.8372
-123.453
-30.8593
-139.076
-30.9851
-155.59
-31.2502
-171.421
-31.6134
-186.835
-32.0826
-201.979
-32.6438
-216.895
-33.2978
-231.683
-34.0389
-246.397
-34.8665
-261.103
-35.7778
-275.848
-36.7719
-290.682
-37.8475
-305.647
-39.0042
-320.783
-40.2415
-336.125
-41.5594
-351.71
-42.958
-367.567
-44.4379
-383.729
-45.9998
-400.224
-47.6448
-417.082
-49.3739
-434.329
-51.1886
-451.994
-53.0902
-470.103
-55.0802
-488.682
-57.1598
-507.759
-59.3299
-527.359
-61.591
-547.507
-63.9425
-568.226
-66.3831
-589.539
-68.9093
-611.462
-71.516
-634.007
-74.1953
-657.177
-76.9365
-680.965
-79.7256
-705.348
-82.5457
-730.284
-85.3771
-755.705
-88.1987
-781.523
-90.9899
-807.619
-93.7322
-833.859
-96.4118
-860.094
-99.0205
-886.188
-101.556
-912.029
-104.02
-937.556
-106.414
-962.774
-108.736
-987.753
-110.976
-1012.62
-113.115
-1037.52
-115.13
-1062.59
-116.997
-1087.97
-118.678
-1113.85
-120.085
-1140.61
-121.022
-1168.77
-121.159
-1198.7
-120.07
-1230.16
-117.24
-1262.22
-112.085
-1293.21
-103.97
-1320.6
-92.2022
-1340.91
-76.0554
-1349.29
-54.8294
-1338.71
-27.8742
-1298.74
4.83523
-1212.55
43.2394
-1051.56
85.3961
-779.661
140.885
-233.015
166.002
547.234
163.391
1067.19
140.838
1464.95
108.941
1788.21
78.7212
2045.04
57.1508
2273.81
39.2888
2439.51
29.8841
2643.21
19.4283
2696.7
24.3683
2962.51
20.5741
2793.55
33.0571
3295.9
3684
-32.1881
-97.9852
-31.9888
-123.653
-32.0168
-139.048
-32.1534
-155.454
-32.4314
-171.143
-32.8115
-186.455
-33.3007
-201.49
-33.8852
-216.31
-34.5655
-231.003
-35.3359
-245.627
-36.1955
-260.243
-37.1415
-274.902
-38.1729
-289.651
-39.2885
-304.531
-40.4876
-319.584
-41.7697
-334.843
-43.1349
-350.344
-44.5834
-366.119
-46.1156
-382.197
-47.7323
-398.608
-49.4345
-415.38
-51.2236
-432.54
-53.1008
-450.117
-55.0675
-468.136
-57.1254
-486.625
-59.2756
-505.609
-61.5191
-525.115
-63.8563
-545.17
-66.2867
-565.796
-68.8085
-587.017
-71.4183
-608.852
-74.1104
-631.315
-76.8764
-654.411
-79.7048
-678.137
-82.5807
-702.473
-85.4857
-727.379
-88.3988
-752.792
-91.2976
-778.624
-94.1599
-804.757
-96.9667
-831.052
-99.7038
-857.357
-102.364
-883.528
-104.946
-909.447
-107.454
-935.048
-109.893
-960.335
-112.262
-985.384
-114.552
-1010.33
-116.744
-1035.33
-118.817
-1060.52
-120.751
-1086.03
-122.513
-1112.09
-124.021
-1139.1
-125.073
-1167.72
-125.32
-1198.45
-124.309
-1231.18
-121.5
-1265.03
-116.283
-1298.43
-107.996
-1328.89
-95.9146
-1352.99
-79.2692
-1365.94
-57.291
-1360.68
-29.2366
-1326.8
5.06026
-1246.85
45.8262
-1092.33
90.8154
-824.65
149.982
-292.181
180.648
516.567
181.082
1066.76
159.693
1486.34
124.521
1823.39
87.3363
2082.23
59.7673
2301.38
38.4133
2460.86
27.0014
2654.62
15.6675
2708.03
20.1457
2958.03
15.9154
2797.78
31.5675
3280.25
3646.45
-33.3205
-98.3495
-33.1354
-123.838
-33.1715
-139.012
-33.3207
-155.304
-33.6132
-170.851
-34.0115
-186.057
-34.5218
-200.98
-35.1308
-215.701
-35.8384
-230.295
-36.6391
-244.826
-37.5317
-259.351
-38.5134
-273.92
-39.5831
-288.581
-40.7394
-303.375
-41.9818
-318.341
-43.3097
-333.515
-44.7231
-348.931
-46.2223
-364.62
-47.8076
-380.611
-49.48
-396.935
-51.2405
-413.619
-53.0904
-430.691
-55.0311
-448.176
-57.0641
-466.103
-59.1908
-484.498
-61.4128
-503.387
-63.7308
-522.797
-66.1454
-542.755
-68.656
-563.286
-71.2606
-584.412
-73.9556
-606.157
-76.7349
-628.535
-79.5897
-651.556
-82.5076
-675.219
-85.4726
-699.508
-88.4652
-724.386
-91.4628
-749.795
-94.4415
-775.645
-97.3779
-801.821
-100.252
-828.178
-103.049
-854.56
-105.762
-880.814
-108.393
-906.816
-110.947
-932.494
-113.433
-957.85
-115.851
-982.966
-118.195
-1007.99
-120.444
-1033.08
-122.579
-1058.38
-124.584
-1084.03
-126.437
-1110.24
-128.06
-1137.48
-129.248
-1166.53
-129.63
-1198.07
-128.73
-1232.08
-125.979
-1267.78
-120.744
-1303.67
-112.334
-1337.3
-99.9928
-1365.33
-82.9067
-1383.03
-60.237
-1383.35
-31.1538
-1355.88
4.65975
-1282.66
47.6987
-1135.37
95.5142
-872.465
158.621
-355.288
195.271
479.917
198.733
1063.3
178.974
1506.1
142.046
1860.32
98.4537
2125.82
63.8234
2336.01
37.9975
2486.69
24.1779
2668.44
11.7765
2720.43
15.6998
2954.11
10.9086
2802.57
23.8091
3267.35
3611.63
-34.4466
-98.7009
-34.2778
-124.006
-34.3241
-138.966
-34.4876
-155.141
-34.796
-170.543
-35.2139
-185.639
-35.7466
-200.447
-36.3812
-215.067
-37.1172
-229.559
-37.9492
-243.994
-38.8757
-258.424
-39.894
-272.902
-41.0029
-287.472
-42.201
-302.177
-43.4876
-317.055
-44.8622
-332.141
-46.3248
-347.468
-47.8755
-363.069
-49.515
-378.972
-51.2441
-395.206
-53.0638
-411.8
-54.9755
-428.779
-56.9807
-446.171
-59.0809
-464.003
-61.2777
-482.301
-63.5726
-501.092
-65.9664
-520.404
-68.4597
-540.262
-71.0519
-560.693
-73.7409
-581.723
-76.5229
-603.375
-79.3914
-625.667
-82.3371
-648.611
-85.3468
-672.209
-88.4036
-696.451
-91.4865
-721.303
-94.5716
-746.71
-97.6332
-772.584
-100.646
-798.808
-103.59
-825.234
-106.449
-851.701
-109.218
-878.045
-111.9
-904.134
-114.503
-929.891
-117.037
-955.315
-119.508
-980.495
-121.908
-1005.59
-124.219
-1030.77
-126.42
-1056.18
-128.503
-1081.95
-130.454
-1108.28
-132.207
-1135.73
-133.551
-1165.18
-134.096
-1197.53
-133.341
-1232.83
-130.69
-1270.43
-125.481
-1308.87
-117
-1345.78
-104.456
-1377.88
-86.9934
-1400.49
-63.7129
-1406.63
-33.7226
-1385.87
3.4382
-1319.82
48.5169
-1180.45
99.056
-923.004
166.467
-422.699
209.737
436.647
216.345
1056.69
198.399
1524.05
160.901
1897.81
112.062
2174.66
69.762
2378.31
38.286
2518.17
21.5035
2685.22
7.81606
2734.12
11.1168
2950.81
5.83
2807.86
21.1716
3252.01
3575.66
-35.5677
-99.0371
-35.4168
-124.157
-35.4752
-138.908
-35.6548
-154.961
-35.9806
-170.217
-36.4194
-185.2
-36.9757
-199.891
-37.6369
-214.405
-38.4024
-228.794
-39.2667
-243.13
-40.2282
-257.463
-41.2842
-271.846
-42.4332
-286.323
-43.674
-300.936
-45.0058
-315.723
-46.428
-330.718
-47.9407
-345.956
-49.5441
-361.465
-51.2387
-377.277
-53.0254
-393.42
-54.9054
-409.92
-56.8799
-426.804
-58.9507
-444.1
-61.1193
-461.834
-63.3873
-480.033
-65.7563
-498.723
-68.2272
-517.933
-70.8007
-537.688
-73.4759
-558.018
-76.251
-578.948
-79.1218
-600.504
-82.0816
-622.707
-85.1204
-645.572
-88.2245
-669.105
-91.3758
-693.299
-94.5521
-718.127
-97.7278
-743.534
-100.875
-769.436
-103.969
-795.714
-106.985
-822.218
-109.909
-848.776
-112.736
-875.218
-115.47
-901.4
-118.124
-927.237
-120.71
-952.729
-123.237
-977.968
-125.697
-1003.13
-128.073
-1028.39
-130.344
-1053.91
-132.509
-1079.78
-134.567
-1106.23
-136.465
-1133.83
-137.99
-1163.66
-138.728
-1196.79
-138.154
-1233.4
-135.644
-1272.94
-130.509
-1314.01
-122.01
-1354.28
-109.324
-1390.57
-91.5644
-1418.25
-67.7991
-1430.4
-37.126
-1416.54
1.03366
-1357.98
47.6809
-1227.1
100.676
-976
172.867
-494.89
223.733
385.78
233.86
1046.56
217.875
1540.03
180.534
1935.15
127.869
2227.32
77.9447
2428.24
39.6138
2556.5
19.0951
2705.74
3.84935
2749.37
6.43938
2948.22
0.538754
2813.76
13.7719
3238.77
3547.37
-36.6845
-99.3564
-36.5531
-124.289
-36.6256
-138.835
-36.8228
-154.764
-37.1675
-169.872
-37.6285
-184.739
-38.2096
-199.31
-38.8987
-213.716
-39.6948
-227.998
-40.5925
-242.232
-41.59
-256.465
-42.6846
-270.752
-43.8748
-285.133
-45.1593
-299.652
-46.5372
-314.345
-48.0082
-329.248
-49.572
-344.392
-51.229
-359.808
-52.9797
-375.527
-54.8251
-391.574
-56.7663
-407.978
-58.8049
-424.766
-60.9423
-441.963
-63.1804
-459.596
-65.5209
-477.692
-67.9653
-496.279
-70.5147
-515.383
-73.1697
-535.033
-75.9297
-555.258
-78.7926
-576.086
-81.7541
-597.543
-84.8073
-619.654
-87.9418
-642.437
-91.1429
-665.904
-94.3916
-690.051
-97.6644
-714.854
-100.934
-740.264
-104.171
-766.199
-107.348
-792.538
-110.44
-819.126
-113.431
-845.785
-116.319
-872.331
-119.108
-898.611
-121.814
-924.531
-124.455
-950.088
-127.04
-975.383
-129.565
-1000.6
-132.009
-1025.95
-134.356
-1051.56
-136.607
-1077.53
-138.781
-1104.05
-140.84
-1131.77
-142.569
-1161.93
-143.533
-1195.83
-143.18
-1233.76
-140.854
-1275.26
-135.843
-1319.02
-127.379
-1362.74
-114.622
-1403.32
-96.6838
-1436.19
-72.6566
-1454.43
-41.7119
-1447.49
-3.19027
-1396.5
44.2023
-1274.49
99.1435
-1030.94
176.645
-572.391
236.636
325.79
251.094
1032.11
237.395
1553.73
200.552
1972
145.392
2282.49
88.5414
2485.09
42.3816
2602.66
17.1121
2731.01
-0.0609994
2766.54
1.68727
2946.47
-4.75829
2820.2
7.79899
3226.22
3513.73
-37.7981
-99.657
-37.6875
-124.399
-37.7759
-138.747
-37.9922
-154.548
-38.3573
-169.507
-38.8419
-184.254
-39.449
-198.702
-40.1672
-212.998
-40.995
-227.17
-41.9272
-241.3
-42.9618
-255.431
-44.0961
-269.617
-45.3286
-283.9
-46.6578
-298.323
-48.0829
-312.92
-49.6035
-327.727
-51.2195
-342.776
-52.9311
-358.097
-54.7391
-373.719
-56.6442
-389.669
-58.6479
-405.975
-60.7515
-422.662
-62.9569
-439.758
-65.2657
-457.287
-67.6799
-475.278
-70.201
-493.758
-72.8304
-512.754
-75.5686
-532.295
-78.415
-552.412
-81.3675
-573.133
-84.4218
-594.488
-87.5707
-616.505
-90.8032
-639.205
-94.1042
-662.603
-97.4535
-686.701
-100.826
-711.481
-104.193
-736.897
-107.523
-762.869
-110.787
-789.275
-113.957
-815.955
-117.02
-842.722
-119.97
-869.381
-122.816
-895.764
-125.578
-921.77
-128.275
-947.39
-130.923
-972.736
-133.515
-998.009
-136.033
-1023.43
-138.459
-1049.14
-140.803
-1075.19
-143.101
-1101.75
-145.338
-1129.53
-147.298
-1159.97
-148.52
-1194.6
-148.428
-1233.85
-146.332
-1277.36
-141.493
-1323.86
-133.126
-1371.11
-120.401
-1416.05
-102.489
-1454.1
-78.6108
-1478.3
-48.1084
-1477.99
-10.2604
-1434.35
36.6179
-1321.37
92.7031
-1087.03
175.811
-655.499
247.22
254.381
267.664
1011.66
256.949
1564.45
220.739
2008.21
164.078
2339.15
101.469
2547.69
46.9857
2657.14
15.7715
2762.22
-3.84697
2786.16
-3.04837
2945.67
-9.99269
2827.15
6.95037
3209.27
3482.16
-38.9095
-99.9375
-38.8209
-124.488
-38.9269
-138.641
-39.1639
-154.311
-39.5508
-169.12
-40.0602
-183.745
-40.6947
-198.068
-41.4431
-212.25
-42.3039
-226.309
-43.2716
-240.332
-44.3445
-254.358
-45.5195
-268.442
-46.7953
-282.625
-48.1703
-296.948
-49.6437
-311.446
-51.2151
-326.156
-52.8843
-341.107
-54.6517
-356.329
-56.518
-371.852
-58.484
-387.703
-60.5513
-403.907
-62.7212
-420.492
-64.9957
-437.483
-67.3765
-454.906
-69.8658
-472.789
-72.4651
-491.158
-75.1759
-510.043
-77.9988
-529.472
-80.9334
-549.477
-83.9775
-570.089
-87.1267
-591.339
-90.3736
-613.258
-93.707
-635.872
-97.1108
-659.199
-100.564
-683.248
-104.04
-708.005
-107.508
-733.429
-110.935
-759.442
-114.289
-785.921
-117.542
-812.702
-120.678
-839.586
-123.693
-866.365
-126.599
-892.858
-129.418
-918.951
-132.175
-944.633
-134.888
-970.023
-137.554
-995.343
-140.15
-1020.83
-142.659
-1046.63
-145.1
-1072.74
-147.532
-1099.32
-149.963
-1127.1
-152.182
-1157.75
-153.699
-1193.08
-153.911
-1233.64
-152.088
-1279.18
-147.473
-1328.47
-139.286
-1379.29
-126.771
-1428.56
-109.277
-1471.59
-86.2791
-1501.3
-57.3558
-1506.91
-21.6604