/*--------------------------------*- C++ -*----------------------------------*\
| =========                 |                                                 |
| \\      /  F ield         | OpenFOAM: The Open Source CFD Toolbox           |
|  \\    /   O peration     | Version:  4.1                                   |
|   \\  /    A nd           | Web:      www.OpenFOAM.org                      |
|    \\/     M anipulation  |                                                 |
\*---------------------------------------------------------------------------*/
FoamFile
{
    version     2.0;
    format      ascii;
    class       volScalarField;
    location    "18";
    object      p;
}
// * * * * * * * * * * * * * * * * * * * * * * * * * * * * * * * * * * * * * //

dimensions      [0 2 -2 0 0 0 0];

internalField   nonuniform List<scalar> 
6785
(
588.803
510.141
463.24
409.785
363.028
317.943
275.943
236.166
198.576
163.052
128.848
95.8369
68.6085
40.6149
-0.674873
-24.2332
-42.8643
-33.0645
-40.7021
-40.3291
-43.1373
-44.071
-44.8642
-44.656
-43.5164
-41.3808
-38.4094
-33.7833
-29.2209
-27.3935
-21.4636
-26.7273
-18.4468
-24.0073
-21.2971
-23.6114
-24.0018
-25.6837
-27.1633
-29.067
-31.0415
-32.857
-33.5959
-33.5246
-31.686
-9.14681
-11.8445
-8.50558
-13.6604
-11.765
-14.7947
-15.0736
-16.5056
-17.2295
-17.9572
-18.285
-18.269
-16.9578
-15.2024
-11.9017
3.64377
3.26915
7.37349
5.4459
9.70582
9.62626
12.2969
13.8986
16.0443
18.1772
20.452
22.6833
25.1954
27.051
29.566
30.8335
31.5254
34.7013
33.6023
36.9746
36.7265
38.7698
39.3539
40.3264
40.9594
41.7236
42.6709
43.9098
44.8009
45.9643
44.0114
44.4228
46.295
45.3032
47.5638
47.0243
48.4066
48.4699
49.0067
49.1398
49.1383
48.7617
48.086
47.9877
47.7716
53.4219
51.3399
52.3883
50.1269
50.9765
49.1268
48.9667
47.1596
45.5261
42.8665
39.9768
37.1618
35.5135
34.8632
31.8654
14.0294
8.57851
7.83509
3.52006
1.94642
-1.77447
-3.87816
-6.72858
-8.32822
-9.82438
-10.5538
-10.7926
-10.9455
-12.2273
-14.8999
-30.3308
-34.7399
-34.8149
-37.91
-38.6976
-41.4037
-42.7398
-44.7026
-45.9541
-47.3351
-48.5836
-49.6149
-50.4182
-50.9834
-48.869
-31.6614
-31.9409
-30.6804
-31.6009
-30.6252
-31.2999
-31.0661
-31.4246
-31.4392
-31.3973
-30.8841
-29.8867
-27.8632
-25.9151
-22.5436
-6.23243
-4.19501
-2.47163
-1.69592
0.210559
1.22622
2.86339
4.2377
5.81015
7.3844
9.11087
10.7874
12.6945
14.1164
16.1825
18.9681
20.4208
21.1544
21.4442
22.3177
22.5359
23.1448
23.5916
24.1698
24.7641
25.4665
26.119
26.9544
27.5189
28.4465
30.3334
32.7531
32.0344
31.5986
31.7015
31.8841
32.4657
32.9502
33.5595
34.0578
34.4889
34.7352
34.9865
35.0325
35.2407
82.7811
80.1666
72.5765
64.1718
58.104
52.8759
47.5303
43.2269
39.7421
36.7032
34.1813
32.2394
30.4252
29.0496
26.5863
42.4718
42.4612
43.7083
42.4794
42.5624
42.8799
42.6251
42.284
42.2382
42.1192
42.0929
41.5006
41.5511
41.4887
40.7915
40.6504
40.7962
40.8549
39.8342
40.2537
40.3574
39.4469
39.3213
39.8311
40.0019
39.0702
39.0151
39.5884
40.043
38.9285
39.696
40.2419
39.3686
39.3944
40.0331
40.6738
39.7707
40.4046
41.0486
40.4526
40.4842
41.0405
41.4517
41.0367
41.0775
41.5356
41.6828
41.3277
41.7507
41.812
41.6549
41.717
41.9777
42.2353
42.1858
42.2096
42.3572
42.7443
42.7208
42.6776
42.928
42.899
43.0422
42.891
43.299
43.7525
44.3125
43.1519
41.8628
43.6679
45.2235
37.1746
33.7358
38.3207
42.4672
15.7828
28.058
34.8966
-14.3842
1.12216
8.97148
6.33021
10.7226
2.10931
5.27471
9.24635
9.10797
9.5654
9.99938
10.4096
10.2477
13.2123
15.0295
10.4797
12.9301
13.4685
14.8104
16.0682
16.9763
17.318
20.1587
27.1981
19.1129
21.1901
20.8073
21.9492
23.9705
25.1312
25.0625
24.6556
24.8869
34.4631
26.7584
27.1137
26.1808
25.1306
25.559
26.8629
25.6257
22.5776
28.8104
27.1148
28.4276
27.9975
26.3907
25.1087
23.5767
24.5734
21.576
24.8627
31.8428
28.9241
29.5543
29.5448
27.6376
26.0972
24.3574
18.3369
25.8305
32.8823
27.4028
24.9763
21.1085
19.2618
16.9929
14.6542
12.8607
8.15371
2.62006
16.8734
11.8092
10.9738
9.02833
6.45819
-0.048398
-1.85384
0.374754
-14.7881
5.41797
0.804113
-2.61709
6.41699
-1.37275
2.81307
1.30836
3.96609
7.38552
2.2482
5.43046
7.53678
4.16673
5.73708
4.87107
6.09546
8.02794
5.13284
6.36225
5.55032
6.55566
7.98971
5.26672
6.73379
7.67875
5.77816
6.50737
5.94198
6.51396
7.49376
5.79173
6.39451
5.86958
6.35606
7.12204
5.46173
6.22792
6.72214
5.51386
5.85376
5.46048
5.6974
6.21598
5.11495
5.38717
5.02215
5.21554
5.60316
4.54192
4.91513
5.13084
4.35024
4.49116
4.21752
4.28898
4.51312
3.81811
3.92018
3.66872
3.71801
3.86281
3.21528
3.36484
3.40967
2.92402
2.9498
2.76806
2.75744
2.82106
2.41508
2.42484
2.25758
2.27371
2.29119
1.82212
1.88614
1.70736
1.10482
0.984449
0.445931
0.393376
0.370366
0.00172886
0.00272908
0.0041434
0.00507715
0.00604963
0.00687221
0.00764685
0.00836455
0.00904376
0.00970858
0.0103689
0.0110476
0.0117529
0.0124964
0.0132786
0.0140988
0.014954
0.0158548
0.0168417
0.0180031
0.0194655
0.0213447
0.0236502
0.0262856
0.0291592
0.032136
0.0350371
0.0376794
0.0398155
0.0411889
0.0415662
0.0408376
0.0391764
0.037195
0.0359864
0.0368482
0.0406418
0.0470696
0.0542942
0.0593953
0.0596327
0.0536132
0.041623
0.0249425
0.00491576
-0.0170502
-0.0388376
-0.0619281
-0.101969
-0.163699
-0.0749505
-0.804641
-0.768652
-0.822612
-0.993035
-1.12684
-1.25321
-1.33977
-1.34399
-1.2238
-0.999543
-0.758016
-0.509408
-0.28158
-0.0756822
0.0972747
0.232304
0.3272
0.392149
0.418793
0.437175
0.409525
0.396601
0.342755
0.238337
0.348563
0.139158
0.112747
0.29104
0.00470401
0.00715557
0.0109339
0.0134282
0.0159041
0.0179997
0.0198987
0.0216427
0.0232512
0.0248155
0.0263544
0.02794
0.0295926
0.0313475
0.0332047
0.0351616
0.0372084
0.0393732
0.0417688
0.0446427
0.0483518
0.0532181
0.0592509
0.0661555
0.0736704
0.0814214
0.0889241
0.0957029
0.101119
0.104532
0.105337
0.103092
0.0976599
0.0892658
0.0784942
0.066122
0.0529035
0.0395717
0.0267934
0.0150717
0.00469446
-0.00461274
-0.0138631
-0.0247155
-0.0389709
-0.058226
-0.0853217
-0.126408
-0.173089
-0.192813
-0.094064
-1.13891
-1.18662
-1.2931
-1.56017
-1.76971
-1.97231
-2.10759
-2.12423
-1.97433
-1.67975
-1.32316
-0.913277
-0.515519
-0.136927
0.190414
0.450617
0.641611
0.765543
0.823388
0.844514
0.799672
0.762317
0.672632
0.528526
0.689609
0.423059
0.347311
0.573899
0.00735674
0.0117085
0.0182435
0.0225714
0.0268961
0.0305606
0.0339051
0.0369827
0.0398362
0.0426133
0.0453495
0.0481643
0.0510932
0.0541955
0.0574715
0.0609167
0.0645133
0.0683075
0.0724882
0.0774748
0.0838747
0.0922388
0.102586
0.114422
0.12731
0.140615
0.15352
0.165213
0.174602
0.180594
0.182185
0.17875
0.170387
0.158112
0.143808
0.129614
0.116989
0.10617
0.0960243
0.0845306
0.0697633
0.0502443
0.0249293
-0.00720058
-0.0472913
-0.0964334
-0.157085
-0.237446
-0.333391
-0.433981
-0.463119
-1.18434
-1.37047
-1.475
-1.7895
-2.03783
-2.28154
-2.44458
-2.47341
-2.31301
-1.98834
-1.57946
-1.09462
-0.617658
-0.156903
0.243997
0.56429
0.801673
0.955369
1.02953
1.05636
1.00201
0.96083
0.846131
0.7256
0.852477
0.698166
0.590941
0.936692
0.00978995
0.0159207
0.0250096
0.0310903
0.0371177
0.0422405
0.0468968
0.0511819
0.0551463
0.0590022
0.0627973
0.0667005
0.0707612
0.0750628
0.0796052
0.0843809
0.0893622
0.0946087
0.100381
0.107266
0.116123
0.127733
0.142117
0.15857
0.176487
0.19498
0.212924
0.229189
0.242263
0.250616
0.252832
0.248016
0.236277
0.219004
0.198714
0.178084
0.158628
0.140242
0.121545
0.100829
0.0769448
0.0489121
0.0154025
-0.0256553
-0.0768204
-0.140811
-0.222452
-0.331869
-0.458016
-0.6131
-0.893254
-1.21435
-1.71254
-1.78332
-2.16119
-2.46927
-2.77076
-2.97436
-3.01687
-2.82793
-2.43944
-1.94242
-1.34734
-0.759629
-0.189194
0.307903
0.705588
1.00105
1.1927
1.28632
1.322
1.25465
1.21013
1.06288
0.949651
1.05701
0.962298
0.841484
1.26131
0.0119798
0.0200452
0.0317121
0.0396262
0.0474174
0.0540667
0.0600969
0.0656521
0.0707873
0.0757815
0.0806946
0.0857457
0.090999
0.0965621
0.102435
0.108606
0.115034
0.121788
0.129196
0.138019
0.14938
0.164311
0.182831
0.204017
0.2271
0.250934
0.274085
0.295107
0.312044
0.322892
0.325759
0.319434
0.304089
0.281706
0.255846
0.230193
0.206664
0.184892
0.162854
0.138093
0.108702
0.072911
0.0287203
-0.0264906
-0.0957962
-0.182563
-0.292571
-0.436925
-0.607086
-0.845948
-1.31545
-1.11533
-2.10816
-2.12037
-2.554
-2.9281
-3.2928
-3.54078
-3.5997
-3.3814
-2.92753
-2.33695
-1.62248
-0.914125
-0.223523
0.378908
0.86126
1.22037
1.45283
1.56751
1.61131
1.53022
1.4806
1.30057
1.18576
1.28665
1.21798
1.09743
1.59468
0.0139711
0.0240102
0.0381531
0.0479078
0.0574225
0.0655842
0.0729582
0.0797588
0.0860348
0.0921375
0.098137
0.104304
0.110717
0.11751
0.12468
0.132211
0.140044
0.148251
0.157224
0.167896
0.181674
0.199854
0.222451
0.248302
0.276488
0.305595
0.3339
0.359638
0.3804
0.393667
0.397002
0.388826
0.369383
0.341325
0.309278
0.277772
0.248821
0.221647
0.193821
0.16272
0.126371
0.0827233
0.0292164
-0.0376287
-0.121938
-0.228385
-0.364285
-0.541144
-0.753072
-1.06066
-1.59606
-1.00331
-2.55089
-2.45738
-2.91899
-3.35651
-3.78326
-4.07417
-4.15071
-3.90367
-3.38836
-2.7081
-1.87907
-1.05562
-0.249993
0.45249
1.01509
1.43435
1.7051
1.83967
1.89138
1.79703
1.74396
1.53239
1.42049
1.51161
1.4646
1.35741
1.85093
0.0157722
0.0278889
0.0444423
0.0560789
0.0673144
0.0770098
0.0857351
0.0937933
0.101217
0.108437
0.115529
0.122819
0.1304
0.138431
0.146909
0.155809
0.165051
0.174701
0.185209
0.197685
0.213839
0.235261
0.261952
0.292491
0.325818
0.360242
0.393764
0.424288
0.44891
0.464519
0.468047
0.457531
0.433416
0.399251
0.360911
0.323793
0.289965
0.258307
0.226064
0.190261
0.148415
0.097735
0.0348472
-0.0445867
-0.145595
-0.273956
-0.438106
-0.649611
-0.90792
-1.27725
-1.79393
-1.04062
-3.05566
-2.83134
-3.28685
-3.78937
-4.28069
-4.61602
-4.712
-4.43364
-3.85435
-3.08092
-2.13466
-1.19461
-0.272925
0.52953
1.17195
1.65063
1.95904
2.11313
2.17302
2.06526
2.0098
1.76627
1.65837
1.73677
1.70243
1.61227
2.06092
0.0174033
0.0316795
0.0505476
0.064092
0.0770217
0.0882547
0.0983181
0.107627
0.116187
0.124511
0.132683
0.141084
0.149822
0.159081
0.168858
0.179117
0.18975
0.200809
0.212793
0.226993
0.245448
0.270076
0.300851
0.33607
0.374541
0.414292
0.453048
0.48836
0.516762
0.534449
0.537656
0.524117
0.494695
0.454072
0.40941
0.366756
0.327998
0.291658
0.254745
0.214024
0.166584
0.108971
0.0370313
-0.0545035
-0.171715
-0.321684
-0.514064
-0.76052
-1.06613
-1.48755
-1.97655
-1.35538
-3.57221
-3.25042
-3.66099
-4.23074
-4.79013
-5.17275
-5.29068
-4.97819
-4.33223
-3.46114
-2.3934
-1.33345
-0.292845
0.611062
1.33411
1.87237
2.21821
2.39168
2.45969
2.33831
2.28078
2.00478
1.90038
1.96502
1.93281
1.8659
2.28667
0.0188769
0.035412
0.0565014
0.0719867
0.0865887
0.0993691
0.110763
0.121323
0.131012
0.140435
0.149681
0.159187
0.169077
0.179562
0.190638
0.202255
0.21427
0.226712
0.240115
0.255958
0.276642
0.30445
0.339318
0.379231
0.42288
0.467988
0.512009
0.552077
0.584059
0.603351
0.605501
0.588143
0.552883
0.505745
0.455084
0.407318
0.364013
0.323442
0.282475
0.237565
0.185218
0.121164
0.0403626
-0.0634392
-0.197383
-0.369825
-0.591524
-0.874454
-1.22917
-1.6977
-2.1886
-1.97132
-4.05016
-3.70959
-4.03698
-4.67599
-5.3065
-5.7386
-5.88118
-5.53162
-4.81678
-3.84401
-2.65134
-1.4692
-0.307895
0.697802
1.50126
2.09847
2.48088
2.67336
2.74926
2.61422
2.55495
2.24623
2.14567
2.19487
2.15585
2.11975
2.54917
0.0202057
0.039097
0.0623056
0.0797616
0.0960061
0.110339
0.12305
0.134854
0.145661
0.156174
0.166481
0.177082
0.188114
0.199819
0.212189
0.225161
0.238547
0.252335
0.26709
0.284477
0.307301
0.338259
0.377229
0.42185
0.470707
0.52119
0.570453
0.61511
0.650229
0.670354
0.670494
0.648533
0.607183
0.553873
0.497822
0.44545
0.397913
0.353369
0.30863
0.259821
0.202832
0.13256
0.0430627
-0.0729314
-0.223679
-0.418857
-0.670345
-0.990697
-1.39463
-1.90666
-2.4447
-2.81898
-4.40248
-4.20174
-4.41254
-5.1272
-5.83283
-6.31647
-6.48661
-6.09636
-5.30975
-4.2303
-2.90864
-1.60158
-0.317556
0.790252
1.67381
2.32915
2.74715
2.95817
3.04168
2.893
2.83224
2.4905
2.3942
2.42641
2.37448
2.37241
2.76324
0.0213999
0.0427513
0.0679753
0.0874332
0.105289
0.12118
0.135194
0.148237
0.160148
0.171739
0.183096
0.194781
0.206949
0.219868
0.233531
0.247856
0.262602
0.277703
0.293735
0.312556
0.337423
0.371503
0.414593
0.463945
0.518045
0.573894
0.62828
0.67714
0.714635
0.734525
0.731605
0.704494
0.657301
0.598628
0.538033
0.48164
0.430257
0.382131
0.33408
0.281862
0.220677
0.144518
0.0464938
-0.0817281
-0.249538
-0.467915
-0.749812
-1.10854
-1.56122
-2.11565
-2.73603
-3.71418
-4.52572
-4.7217
-4.78937
-5.58597
-6.37147
-6.91008
-7.11201
-6.67585
-5.81387
-4.6217
-3.16618
-1.73077
-0.321532
0.888958
1.85238
2.56498
3.0175
3.24657
3.33733
3.17504
3.11281
2.73776
2.64593
2.66102
2.5918
2.62073
2.97706
0.0224686
0.046386
0.0735184
0.0950088
0.114441
0.131894
0.147193
0.161467
0.174468
0.187124
0.199516
0.212273
0.225564
0.239692
0.254646
0.270323
0.28642
0.302797
0.320022
0.34015
0.366948
0.404124
0.451358
0.505466
0.564827
0.625955
0.685145
0.737488
0.776222
0.79458
0.787667
0.75537
0.703206
0.640356
0.576133
0.516257
0.461365
0.41
0.359024
0.30379
0.238747
0.156954
0.0505451
-0.0898985
-0.274915
-0.516754
-0.82939
-1.2269
-1.72694
-2.32346
-3.03223
-4.41996
-4.43221
-5.26724
-5.17405
-6.05559
-6.93079
-7.52427
-7.76112
-7.27235
-6.33071
-5.01882
-3.42392
-1.8563
-0.319178
0.994504
2.03742
2.80628
3.29197
3.53853
3.63602
3.46025
3.39636
2.9878
2.90054
2.89877
2.80769
2.86749
3.20719
0.0234192
0.050013
0.0789454
0.102499
0.12347
0.142488
0.159053
0.174547
0.188622
0.202328
0.215739
0.229554
0.243959
0.259288
0.275533
0.292563
0.310003
0.327618
0.345946
0.367238
0.395843
0.436089
0.487497
0.546382
0.610973
0.677133
0.740492
0.795181
0.833674
0.84916
0.837768
0.801008
0.74533
0.679662
0.61266
0.549752
0.491658
0.437416
0.383939
0.326127
0.25761
0.170466
0.0558263
-0.0968393
-0.299209
-0.564727
-0.908262
-1.34452
-1.89012
-2.52877
-3.30736
-4.8201
-4.32867
-5.83613
-5.57566
-6.53585
-7.52148
-8.16741
-8.43764
-7.88855
-6.86216
-5.42243
-3.68214
-1.97795
-0.309829
1.1077
2.22946
3.05324
3.57063
3.83398
3.93757
3.74851
3.68259
3.24029
3.15767
3.13731
3.02029
3.11092
3.43967
0.0242579
0.0536419
0.0842647
0.109912
0.132382
0.152966
0.170776
0.18748
0.202608
0.217348
0.231761
0.246618
0.262124
0.278648
0.296182
0.314568
0.333346
0.352162
0.371491
0.393785
0.424056
0.467351
0.522965
0.586622
0.656296
0.726958
0.793423
0.848891
0.885449
0.897016
0.881469
0.841771
0.784379
0.717197
0.648092
0.58249
0.521456
0.46469
0.409135
0.349176
0.277554
0.18533
0.0626074
-0.102269
-0.322085
-0.61136
-0.985659
-1.46005
-2.04922
-2.73035
-3.55851
-5.03372
-4.4499
-6.37922
-6.00301
-7.02048
-8.14647
-8.84742
-9.14677
-8.52768
-7.41061
-5.83378
-3.94152
-2.09564
-0.292853
1.2295
2.42949
3.30628
3.85346
4.13289
4.24185
4.03974
3.97122
3.49487
3.41694
3.37441
3.22928
3.35229
3.685
0.0249898
0.0572822
0.0894845
0.117257
0.141183
0.163333
0.182365
0.200266
0.216428
0.232182
0.247576
0.26346
0.280053
0.297764
0.316587
0.336336
0.356451
0.376428
0.396651
0.419762
0.451543
0.497866
0.557708
0.626057
0.700439
0.774666
0.842703
0.897026
0.930034
0.937396
0.919012
0.878473
0.821197
0.753578
0.682841
0.614781
0.551037
0.492117
0.434935
0.373298
0.298966
0.201947
0.0712876
-0.105797
-0.34313
-0.656126
-1.06078
-1.57223
-2.20294
-2.92733
-3.79361
-5.20315
-4.98481
-6.82072
-6.46021
-7.50305
-8.80604
-9.5717
-9.89555
-9.19343
-7.97863
-6.25431
-4.20243
-2.20893
-0.267509
1.36067
2.63843
3.56619
4.14061
4.43516
4.54861
4.3338
4.26191
3.75116
3.6779
3.61033
3.43643
3.59218
3.91689
0.0256186
0.0609424
0.0946124
0.124541
0.14988
0.173595
0.193824
0.212905
0.230078
0.246826
0.263181
0.280071
0.297737
0.316627
0.336741
0.357861
0.379314
0.400417
0.421415
0.445137
0.478251
0.527579
0.591629
0.664428
0.742781
0.819157
0.886787
0.937886
0.966323
0.97032
0.95125
0.912133
0.856572
0.789302
0.717204
0.646833
0.580592
0.519909
0.46159
0.398777
0.322146
0.22061
0.0821297
-0.107193
-0.362105
-0.698673
-1.13303
-1.68009
-2.35042
-3.11868
-4.02055
-5.39399
-5.83555
-7.00151
-6.94001
-7.97936
-9.49824
-10.3471
-10.6923
-9.89048
-8.56905
-6.68538
-4.46514
-2.31731
-0.233004
1.50198
2.85687
3.8336
4.43238
4.74055
4.85757
4.63049
4.55425
4.00886
3.94005
3.84647
3.64401
3.82423
4.14537
0.0261471
0.0646304
0.0996553
0.131772
0.158478
0.183755
0.205154
0.225399
0.243558
0.261277
0.278569
0.296446
0.315168
0.335227
0.356634
0.379139
0.401939
0.424134
0.445781
0.469877
0.504122
0.556412
0.624544
0.701258
0.78239
0.859027
0.923921
0.970039
0.994041
0.996617
0.979378
0.943756
0.891157
0.824729
0.751368
0.678766
0.610233
0.548221
0.489306
0.425868
0.347366
0.241563
0.0953101
-0.10636
-0.378938
-0.738859
-1.20209
-1.7832
-2.49143
-3.30396
-4.2455
-5.60973
-6.64044
-6.8301
-7.45019
-8.45243
-10.2183
-11.1798
-11.5455
-10.6249
-9.18523
-7.12831
-4.72993
-2.42032
-0.188519
1.65427
3.08544
4.10891
4.72918
5.0491
5.16845
4.92957
4.84782
4.26768
4.20276
4.08316
3.85201
4.05248
4.36204
0.026577
0.0683542
0.10462
0.138957
0.166982
0.193817
0.216358
0.237749
0.256867
0.275532
0.293736
0.312576
0.332337
0.353556
0.376259
0.400164
0.424326
0.447584
0.469745
0.493949
0.529085
0.584233
0.656102
0.735788
0.81805
0.892606
0.952417
0.992836
1.01391
1.01764
1.00462
0.974177
0.925429
0.860078
0.785407
0.7106
0.639983
0.577131
0.518227
0.45476
0.374801
0.264908
0.110794
-0.103468
-0.393871
-0.776907
-1.26816
-1.88183
-2.62655
-3.48354
-4.46985
-5.82293
-7.08779
-6.60779
-8.01969
-8.94324
-10.9604
-12.0744
-12.463
-11.4036
-9.83136
-7.5846
-4.99718
-2.51748
-0.133176
1.81844
3.32481
4.39246
5.03132
5.36092
5.48076
5.23077
5.14216
4.52726
4.46528
4.31854
4.05878
4.28154
4.58875
0.026909
0.0721213
0.109511
0.146103
0.175397
0.203786
0.227439
0.249954
0.270003
0.289586
0.308675
0.328455
0.349234
0.371602
0.395605
0.420933
0.44648
0.470779
0.493309
0.517311
0.553032
0.610795
0.685704
0.767003
0.848299
0.918087
0.971202
1.00677
1.02738
1.03484
1.02803
1.00402
0.959704
0.895457
0.8193
0.742265
0.669787
0.606645
0.548429
0.485562
0.404505
0.290541
0.128264
-0.0990338
-0.407533
-0.813498
-1.33202
-1.977
-2.75718
-3.65876
-4.6942
-6.03636
-7.33314
-6.75552
-8.56867
-9.48366
-11.7194
-13.0347
-13.4519
-12.2339
-10.5127
-8.05613
-5.26738
-2.60828
-0.0660443
1.99542
3.57565
4.68453
5.33878
5.6759
5.79429
5.53377
5.43679
4.78715
4.72676
4.55083
4.26504
4.50302
4.83555
0.0271428
0.0759393
0.114335
0.153215
0.183728
0.213664
0.238397
0.262014
0.282963
0.303436
0.323379
0.344073
0.365849
0.389353
0.414662
0.44144
0.468405
0.493732
0.516476
0.539906
0.575785
0.635648
0.712511
0.793712
0.871403
0.933974
0.980398
1.01335
1.03617
1.04951
1.0504
1.03373
0.994181
0.930887
0.852951
0.773615
0.699511
0.636705
0.579918
0.518273
0.436335
0.318064
0.147014
-0.0940086
-0.421014
-0.849793
-1.39493
-2.07029
-2.88534
-3.83173
-4.92008
-6.26667
-7.59968
-7.52596
-8.87993
-10.078
-12.4898
-14.0634
-14.5182
-13.1225
-11.2351
-8.54532
-5.54109
-2.69217
0.013862
2.18617
3.83867
4.9854
5.65139
5.99399
6.10924
5.83825
5.7312
5.04691
4.98633
4.7804
4.47267
4.72019
5.07023
0.0272769
0.0798159
0.119096
0.1603
0.191978
0.223455
0.249235
0.273929
0.295745
0.317076
0.337843
0.359422
0.38217
0.406797
0.433418
0.46168
0.49011
0.516461
0.539247
0.561636
0.597012
0.658103
0.73558
0.814463
0.885557
0.93984
0.981399
1.01449
1.04181
1.06263
1.07229
1.06359
1.02898
0.966334
0.886201
0.804435
0.728957
0.66719
0.612619
0.552739
0.46988
0.346685
0.165875
-0.08982
-0.435844
-0.887335
-1.4585
-2.16354
-3.01325
-4.00474
-5.14862
-6.52122
-7.92469
-8.47965
-8.75052
-10.7453
-13.2697
-15.1629
-15.6672
-14.0754
-12.0051
-9.05519
-5.81907
-2.76864
0.107585
2.39172
4.11458
5.29535
5.96898
6.31497
6.42524
6.14381
6.02491
5.30612
5.24304
5.00752
4.6813
4.939
5.31996
0.0273091
0.0837589
0.123798
0.167363
0.200152
0.233162
0.259954
0.285699
0.308347
0.330502
0.352059
0.374492
0.398188
0.423921
0.45186
0.481648
0.511602
0.538985
0.561606
0.582305
0.616156
0.677386
0.753879
0.827413
0.889656
0.936763
0.976317
1.01199
1.04547
1.07487
1.09406
1.09381
1.0642
1.00174
0.918853
0.834459
0.757884
0.697936
0.646369
0.588603
0.50437
0.375139
0.183175
-0.0883291
-0.453845
-0.927794
-1.52432
-2.25846
-3.14289
-4.17989
-5.38092
-6.79708
-8.2649
-9.06039
-8.5072
-11.5693
-14.0872
-16.338
-16.9037
-15.098
-12.8287
-9.58934
-6.10232
-2.83712
0.216227
2.61315
4.4041
5.61458
6.29131
6.63855
6.74203
6.45015
6.31743
5.56435
5.49581
5.2311
4.89086
5.15535
5.56921
0.0272358
0.0877767
0.128445
0.17441
0.208253
0.242787
0.270554
0.297321
0.320765
0.343709
0.366019
0.389274
0.413888
0.440709
0.469973
0.501337
0.53289
0.561313
0.58348
0.601519
0.6325
0.692845
0.765928
0.830801
0.884148
0.926923
0.96723
1.00724
1.04795
1.08667
1.11598
1.12458
1.09993
1.03703
0.950681
0.863383
0.786026
0.728753
0.6809
0.62524
0.538596
0.401638
0.196787
-0.0916432
-0.476826
-0.972634
-1.59365
-2.35631
-3.27567
-4.35882
-5.61857
-7.09046
-8.61708
-9.44285
-8.68419
-12.4636
-14.9994
-17.5963
-18.2329
-16.1952
-13.7118
-10.1517
-6.39227
-2.8971
0.340948
2.85158
4.70801
5.94328
6.61808
6.96433
7.05973
6.75713
6.60832
5.82115
5.74354
5.45005
5.10206
5.36557
5.82407
0.0270523
0.0918779
0.13304
0.181447
0.216285
0.252332
0.281037
0.308797
0.332997
0.356689
0.379716
0.403757
0.429257
0.457145
0.487743
0.520737
0.553977
0.583426
0.604651
0.618633
0.645522
0.703667
0.769654
0.82411
0.871058
0.912696
0.955747
1.00116
1.04974
1.09832
1.13829
1.15613
1.13632
1.07216
0.981448
0.890886
0.813125
0.759445
0.715813
0.661675
0.570832
0.423896
0.204329
-0.101764
-0.506213
-1.02281
-1.66718
-2.45772
-3.41222
-4.54249
-5.86334
-7.40116
-9.00045
-9.93921
-9.67727
-13.2394
-16.0332
-18.947
-19.6613
-17.3711
-14.66
-10.7463
-6.6909
-2.94805
0.482972
3.10821
5.02706
6.28158
6.94889
7.29179
7.37797
7.06459
6.89723
6.07606
5.98509
5.66386
5.31347
5.57258
6.09555
0.0267527
0.096072
0.137586
0.188477
0.22425
0.2618
0.291403
0.320122
0.345038
0.369438
0.39314
0.417931
0.444283
0.473212
0.505148
0.539836
0.574847
0.605207
0.62461
0.633036
0.655101
0.708193
0.763383
0.808796
0.853034
0.895963
0.942931
0.994311
1.05118
1.11007
1.16122
1.18871
1.17356
1.10712
1.01092
0.916647
0.838968
0.789822
0.750522
0.696491
0.598802
0.439295
0.203558
-0.120147
-0.542714
-1.07854
-1.74488
-2.56245
-3.55223
-4.73093
-6.11635
-7.72929
-9.42294
-10.5915
-11.1277
-13.6521
-17.1737
-20.4023
-21.1973
-18.63
-15.6783
-11.377
-7.00037
-2.98945
0.643585
3.38426
5.36206
6.62958
7.28328
7.62038
7.69614
7.37233
7.18368
6.32862
6.21937
5.87233
5.52313
5.76595
6.35229
0.0263296
0.100369
0.142084
0.195507
0.23215
0.271191
0.301652
0.331297
0.356884
0.381949
0.406284
0.431784
0.458951
0.488891
0.522166
0.558603
0.595431
0.626295
0.642555
0.644628
0.66059
0.704083
0.747334
0.787583
0.832312
0.877961
0.92942
0.987043
1.05249
1.12214
1.18508
1.22269
1.21196
1.1419
1.03886
0.940377
0.863428
0.819705
0.784177
0.727707
0.619745
0.445288
0.192888
-0.147333
-0.586147
-1.13924
-1.82586
-2.66941
-3.69445
-4.92315
-6.37766
-8.07546
-9.88497
-11.3394
-12.4657
-13.7727
-18.4601
-21.9843
-22.8505
-19.9769
-16.7711
-12.0478
-7.32244
-3.02097
0.824128
3.68104
5.71383
6.98728
7.62069
7.94945
8.01358
7.68016
7.46713
6.57841
6.44542
6.07544
5.72898
5.93723
6.60673
0.0257741
0.10478
0.146537
0.20254
0.239988
0.280507
0.311784
0.342318
0.368532
0.394214
0.419137
0.445304
0.473244
0.504157
0.53876
0.57698
0.615508
0.645894
0.657871
0.653553
0.659378
0.689515
0.723986
0.763338
0.810334
0.859401
0.915581
0.979584
1.05388
1.13482
1.21026
1.25855
1.25191
1.17659
1.06507
0.961848
0.886515
0.848917
0.815489
0.752662
0.630755
0.440018
0.171845
-0.182783
-0.635397
-1.20344
-1.90836
-2.77651
-3.83663
-5.11713
-6.64613
-8.44015
-10.3862
-12.1309
-13.5119
-14.0113
-20.0031
-23.7276
-24.6274
-21.4172
-17.9423
-12.7621
-7.65871
-3.04265
1.02599
3.99988
6.08322
7.35465
7.96048
8.27825
8.32965
7.98782
7.74782
6.82498
6.66246
6.27347
5.92663
6.0707
6.85223
0.0250755
0.109317
0.150945
0.209582
0.247765
0.289748
0.321798
0.353183
0.379975
0.406226
0.431691
0.45848
0.487145
0.518983
0.554879
0.594827
0.634501
0.662881
0.670727
0.659625
0.650361
0.666004
0.696029
0.737645
0.787933
0.840697
0.901638
0.972148
1.05564
1.14847
1.23725
1.2969
1.29391
1.2113
1.08938
0.98092
0.908443
0.877198
0.8424
0.768126
0.629484
0.42292
0.141245
-0.224914
-0.688456
-1.26878
-1.98969
-2.88082
-3.97575
-5.31016
-6.91975
-8.82301
-10.9278
-12.9649
-14.5233
-14.7033
-21.7449
-25.6722
-26.5298
-22.9548
-19.195
-13.5233
-8.01085
-3.05476
1.2506
4.34216
6.47111
7.73153
8.30188
8.60596
8.64367
8.29505
8.02642
7.06794
6.86991
6.467
6.11209
6.15565
7.02243
0.0242211
0.113994
0.155308
0.216635
0.255483
0.298916
0.331694
0.363889
0.39121
0.417977
0.443934
0.471298
0.500633
0.533327
0.570429
0.611795
0.651333
0.676521
0.680946
0.65827
0.625942
0.636398
0.666114
0.711781
0.765372
0.822045
0.887797
0.964984
1.05807
1.16354
1.26666
1.3385
1.33864
1.2462
1.11162
0.997586
0.929757
0.903842
0.861721
0.770966
0.614989
0.394975
0.103085
-0.271235
-0.742501
-1.33213
-2.06643
-2.97878
-4.10843
-5.4993
-7.19621
-9.22256
-11.5091
-13.8472
-15.6355
-16.1132
-23.5965
-27.8626
-28.5568
-24.5899
-20.5312
-14.3342
-8.3805
-3.05764
1.49948
4.70932
6.87839
8.11771
8.64404
8.93163
8.95492
8.60175
8.30306
7.30696
7.06739
6.65691
6.28323
6.19115
7.15612
0.023196
0.118826
0.159628
0.223705
0.263141
0.308008
0.34147
0.374433
0.402229
0.429458
0.455855
0.483742
0.51368
0.547126
0.585213
0.627119
0.664809
0.686603
0.685745
0.643269
0.590725
0.604883
0.633541
0.685977
0.742923
0.803641
0.874287
0.958401
1.06157
1.18056
1.29925
1.38432
1.38692
1.28149
1.13156
1.01212
0.951354
0.926812
0.869339
0.759343
0.588218
0.358548
0.0602928
-0.318515
-0.794035
-1.38975
-2.13475
-3.06674
-4.23145
-5.68196
-7.47324
-9.63621
-12.1253
-14.7735
-16.8736
-18.2477
-25.5404
-30.3574
-30.714
-26.3198
-21.9503
-15.1968
-8.76939
-3.05147
1.77428
5.10283
7.30599
8.51285
8.98596
9.25421
9.2627
8.90805
8.5775
7.54164
7.25468
6.84454
6.44313
6.19527
7.24532
0.0219822
0.12383
0.163901
0.230795
0.270741
0.317026
0.351125
0.38481
0.413027
0.44066
0.467441
0.49579
0.526243
0.560272
0.598787
0.639586
0.674556
0.693735
0.683496
0.612187
0.554621
0.573383
0.600989
0.660664
0.720707
0.785753
0.861422
0.952772
1.06662
1.20019
1.33593
1.43553
1.43976
1.31731
1.14875
1.02552
0.973792
0.941777
0.861617
0.733738
0.55183
0.316981
0.0164527
-0.362993
-0.839149
-1.43772
-2.19096
-3.14156
-4.34239
-5.85622
-7.74876
-10.0604
-12.769
-15.7341
-18.2413
-20.9896
-27.45
-33.1965
-33.0217
-28.1425
-23.4493
-16.1111
-9.1794
-3.036
2.07689
5.52427
7.75487
8.9165
9.32653
9.57254
9.56623
9.21417
8.84955
7.7715
7.43166
7.03112
6.59894
6.19299
7.3646
0.0205588
0.129024
0.168128
0.237907
0.278282
0.325967
0.360657
0.395016
0.423597
0.451569
0.478673
0.507411
0.538255
0.572538
0.610301
0.648241
0.681847
0.70071
0.667078
0.575956
0.518113
0.539978
0.568419
0.635771
0.699047
0.768701
0.849557
0.948528
1.07377
1.22318
1.37777
1.49357
1.49832
1.35336
1.16258
1.03998
0.99524
0.942601
0.837445
0.69699
0.50959
0.274189
-0.0244704
-0.400676
-0.873949
-1.47249
-2.23217
-3.20115
-4.43983
-6.02079
-8.02069
-10.4907
-13.4305
-16.716
-19.7189
-23.9985
-29.0619
-36.3582
-35.5075
-30.0621
-25.0249
-17.0751
-9.61218
-3.01069
2.40959
5.9753
8.226
9.32803
9.66448
9.88532
9.86475
9.52045
9.11913
7.99592
7.59822
7.21702
6.75265
6.19824
7.52912
0.0189009
0.134432
0.172305
0.245046
0.285762
0.33483
0.370062
0.405046
0.433929
0.462172
0.489525
0.518557
0.549594
0.583448
0.618727
0.653475
0.68773
0.702678
0.639503
0.541373
0.479313
0.505591
0.536348
0.611566
0.67825
0.75283
0.839089
0.946143
1.08362
1.25041
1.42609
1.56018
1.56374
1.38829
1.17311
1.05817
1.00919
0.924292
0.799291
0.653404
0.465758
0.234314
-0.0584596
-0.427767
-0.895091
-1.49143
-2.25665
-3.24458
-4.52316
-6.17467
-8.28661
-10.9218
-14.0993
-17.7068
-21.2662
-26.8054
-30.2868
-39.8603
-38.1969
-32.0895
-26.676
-18.0852
-10.0688
-2.97419
2.77528
6.45782
8.72041
9.7467
9.9984
10.1912
10.1574
9.82731
9.38631
8.21426
7.75425
7.40163
6.90249
6.22019
7.65941
0.0169792
0.140078
0.176431
0.252213
0.293181
0.343611
0.379338
0.414894
0.444012
0.472445
0.499957
0.529146
0.560011
0.592236
0.623928
0.658425
0.696123
0.689001
0.61315
0.505573
0.439055
0.469973
0.505016
0.588329
0.658668
0.7385
0.830436
0.946135
1.09689
1.2829
1.48242
1.63739
1.63655
1.41914
1.18289
1.07931
1.00537
0.886602
0.75226
0.607714
0.424648
0.201373
-0.0818624
-0.44117
-0.900284
-1.49322
-2.26392
-3.27183
-4.59221
-6.31673
-8.54361
-11.3478
-14.7651
-18.6968
-22.8408
-29.1289
-31.4706
-43.9233
-41.1171
-34.2345
-28.4045
-19.1378
-10.5496
-2.92335
3.17753
6.97405
9.23922
10.1715
10.3267
10.4885
10.4434
10.1353
9.65125
8.42583
7.89966
7.58346
7.04757
6.25805
7.81058
0.0147589
0.14599
0.1805
0.259409
0.300536
0.352307
0.38848
0.424549
0.453829
0.482354
0.509904
0.539036
0.569048
0.598304
0.627255
0.665369
0.700057
0.669045
0.588808
0.467736
0.398298
0.432402
0.47491
0.566259
0.640671
0.726095
0.824047
0.949068
1.11432
1.32181
1.54853
1.72735
1.71541
1.44215
1.19731
1.09412
0.975623
0.834841
0.702133
0.564459
0.390267
0.178852
-0.0918565
-0.43894
-0.888579
-1.47778
-2.25445
-3.28335
-4.64676
-6.44546
-8.78824
-11.7624
-15.4183
-19.6788
-24.4254
-31.1214
-33.022
-48.7105
-44.3021
-36.4986
-30.2117
-20.229
-11.0534
-2.85333
3.62059
7.52673
9.7837
10.6014
10.6477
10.7757
10.7219
10.445
9.91421
8.62987
8.03436
7.76047
7.18764
6.30587
7.99227
0.012199
0.152201
0.18451
0.266636
0.307824
0.360912
0.397483
0.434
0.463351
0.491845
0.519263
0.547959
0.576129
0.602196
0.631996
0.676017
0.691446
0.65337
0.563211
0.429297
0.357657
0.392235
0.446641
0.545662
0.62465
0.715991
0.820385
0.955531
1.13676
1.36841
1.62642
1.83171
1.79524
1.45651
1.21929
1.08555
0.920516
0.777075
0.654027
0.527653
0.365941
0.169292
-0.0868471
-0.420513
-0.860326
-1.44604
-2.2292
-3.27958
-4.68622
-6.55883
-9.01659
-12.1593
-16.0507
-20.6496
-26.0204
-32.9967
-35.3574
-53.9857
-47.7784
-38.8721
-32.0934
-21.3539
-11.5774
-2.75957
4.10948
8.11928
10.3553
11.0348
10.9595
11.051
10.9917
10.7571
10.1754
8.82541
8.15827
7.92989
7.32219
6.36619
8.12122
0.00925025
0.158749
0.188453
0.273894
0.315041
0.369419
0.406335
0.443223
0.472534
0.500833
0.527859
0.55551
0.581106
0.605796
0.640571
0.68292
0.680835
0.639959
0.53652
0.39111
0.318172