/*--------------------------------*- C++ -*----------------------------------*\
| =========                 |                                                 |
| \\      /  F ield         | OpenFOAM: The Open Source CFD Toolbox           |
|  \\    /   O peration     | Version:  4.1                                   |
|   \\  /    A nd           | Web:      www.OpenFOAM.org                      |
|    \\/     M anipulation  |                                                 |
\*---------------------------------------------------------------------------*/
FoamFile
{
    version     2.0;
    format      ascii;
    class       surfaceScalarField;
    location    "18";
    object      phi;
}
// * * * * * * * * * * * * * * * * * * * * * * * * * * * * * * * * * * * * * //

dimensions      [0 3 -1 0 0 0 0];

internalField   nonuniform List<scalar> 
13220
(
-800.767
2100.67
-1250.28
1749.71
-1711.27
1760.9
-2051.37
1639.99
-2331.14
1579.97
-2534.11
1502.87
-2668.8
1434.59
-2735.04
1366.44
-2736.85
1301.71
-2669.93
1232.97
-2517.34
1147.61
-2237.21
1019.77
-1748.16
810.858
-984.069
536.104
315.831
-234.191
2334.86
-511.454
2026.97
-812.537
2061.98
-1056.23
1883.69
-1290.63
1814.36
-1481.05
1693.29
-1645.49
1599.03
-1777.09
1498.05
-1880.63
1405.26
-1944.75
1297.09
-1930.76
1133.62
-1748.61
837.613
-1269.53
331.78
-581.375
-152.051
-265.544
-151.747
2486.6
-353.233
2228.46
-493.036
2201.78
-576.753
1967.41
-646.435
1884.04
-673.025
1719.88
-676.542
1602.55
-650.14
1471.64
-597.708
1352.82
-521.793
1221.17
-430.883
1042.71
-333.748
740.476
-226.128
224.154
-175.271
-202.914
-440.815
85.9042
2400.7
63.0023
2251.36
105.673
2159.11
168.455
1904.62
238.91
1813.59
324.612
1634.17
423.031
1504.13
535.175
1359.5
658.822
1229.18
781.942
1098.05
874.251
950.402
855.994
758.732
597.979
482.167
164.494
230.569
-276.321
125.65
2275.05
154.783
2222.22
229.047
2084.84
308.686
1824.98
391.288
1730.98
478.689
1546.77
563.568
1419.25
643.751
1279.31
717.244
1155.68
779.31
1035.98
813.872
915.839
779.107
793.495
615.542
645.729
358.685
487.421
82.3637
68.866
2206.18
126.176
2164.91
193.286
2017.73
258.763
1759.51
324.315
1665.43
401.237
1469.85
490.049
1330.44
610.041
1159.32
741.177
1024.55
854.955
922.205
909.306
861.488
868.545
834.257
693.135
821.14
410.001
770.557
492.365
-34.7051
2240.88
-6.91906
2137.13
-0.745833
2011.56
-33.4114
1792.17
-67.9095
1699.93
-104.62
1506.56
-85.9091
1311.72
23.7038
1049.71
209.909
838.339
434.205
697.908
629.738
665.954
708.733
755.259
605.699
924.17
346.497
1029.76
838.862
-177.766
2418.65
-324.082
2283.44
-472.13
2159.61
-671.833
1991.87
-880.053
1908.15
-1104.93
1731.44
-1295
1501.79
-1424.24
1178.95
-1469.83
883.926
-1406.91
634.994
-1205.66
464.7
-864.983
414.585
-461.171
520.362
-135.126
703.716
703.736
-20.976
2439.63
-264.753
2527.22
-434.699
2329.55
-592.677
2149.85
-748.804
2064.27
-922.948
1905.58
-1130.49
1709.33
-1377.76
1426.22
-1635.13
1141.3
-1855.19
855.059
-1955.21
564.718
-1815.8
275.176
-1358.23
62.7879
-648.81
-5.70812
54.9258
294.667
2144.96
166.601
2655.28
86.8323
2409.32
80.6779
2156.01
116.917
2028.03
148.563
1873.94
143.285
1714.61
66.1506
1503.35
-66.8906
1274.34
-235.768
1023.94
-421.39
750.341
-595.364
449.156
-644.648
112.078
-487.738
-162.612
-432.812
387.182
1757.78
438.559
2603.91
458.528
2389.36
546.933
2067.6
689.709
1885.26
840.569
1723.08
977.055
1578.12
1065.72
1414.69
1098.29
1241.77
1061.93
1060.3
944.534
867.738
729.293
664.396
411.942
429.428
89.4056
159.924
-343.406
246.213
1511.57
341.195
2508.93
384.709
2345.84
446.587
2005.73
538.057
1793.79
634.012
1627.13
723.59
1488.55
789.599
1348.68
824.935
1206.43
822.483
1062.75
776.102
914.119
678.986
761.516
520.389
588.03
297.084
383.24
-46.3227
144.836
1366.73
261.995
2391.77
362.292
2245.55
469.093
1898.92
580.095
1682.79
674.522
1532.7
745.41
1417.66
787.104
1306.99
794.89
1198.65
768.243
1089.4
705.556
976.808
606.513
860.559
467.481
727.063
276.011
574.712
229.689
210.54
1156.19
332.647
2269.66
312.234
2265.96
243.831
1967.33
209.365
1717.26
208.356
1533.71
234.383
1391.63
282.174
1259.19
346.263
1134.56
420.962
1014.7
497.929
899.841
538.07
820.419
471.392
793.742
284.956
761.149
514.644
504.698
1457.58
2168.4
2470.51
2485.96
2425.97
2259.83
2022.83
1767.31
1520.68
1249.85
971.749
695.464
377.875
-5.48731e-06
249.885
-249.885
249.885
249.885
249.885
589.861
-339.976
589.861
589.861
589.861
891.927
-302.067
891.927
891.927
1116.87
-224.946
1116.87
1116.87
1116.87
1274.39
-157.517
1274.39
1274.39
1375.95
-101.556
1375.95
1375.95
1375.95
1433.87
-57.9261
1433.87
1433.87
1433.87
1449.89
-16.0234
1449.89
1449.89
1418
31.8935
1418
1418
1418
1338.12
79.8831
1338.12
1338.12
1208.48
129.642
1208.48
1208.48
1208.48
1039.4
169.074
1039.4
1039.4
1039.4
910.822
128.581
910.822
910.822
760.463
150.358
760.463
760.463
760.463
512.84
247.624
512.84
512.84
512.84
185.718
327.122
185.717
185.717
-94.6494
280.367
-94.6494
-94.6495
-94.6494
-674.4
579.751
-674.4
-674.4
-1821.46
1147.06
-1821.46
-1821.46
-1821.46
-3460.95
1639.49
-3460.95
-3460.95
-3460.95
-5400.73
1939.78
-5400.73
-5400.73
-7537.81
2137.08
-7537.81
-7537.81
-7372.02
-7208.17
-7043.87
-9173.69
2296.61
-9000.74
-8809.42
-8608.27
-8406
-8202.4
-7997.48
-7796.18
-7599.01
-9849.33
2444.44
-9644.62
-9439.6
-9234.25
-9033.03
-8827.85
-8620.01
-8411.27
-8201.67
-10514.3
2517.67
-10293.7
-10071.7
-9849.28
-9627.4
-9400.88
-9164.24
-8926.1
-8685.7
-8444.07
-10652.3
2437.22
-10395.5
-10136.6
-9876.19
-9614.74
-9351.71
-9074.22
-8788.11
-8501.19
-10514.2
2283.5
-10233.4
-9947.13
-9651.18
-9357.99
-9066.48
-8777.13
-8488.13
-8180.51
-9647.82
1760.95
-9349.75
-9052.3
-8754.23
-8439.38
-8116.93
-7795.06
-7472.65
-7152.68
-8162.75
1326.81
-7834.93
-7516.5
-7205.97
-6905.18
-6614.22
-6308.67
-6013.21
-5724.43
-5443.25
-5213.05
62.2956
-4949.35
-4696.4
-4446.25
-4200.2
-3958.13
-3757.28
-3633.01
-3509.09
-3121.64
-256.463
-3009.32
-2903.33
-2903.33
-2697.96
-205.365
-2482.82
-215.142
-2482.82
-2302.81
-180.008
-2302.81
-2149
-153.816
-2021.58
-127.417
-2021.58
-1904.13
-117.454
-1805.7
-98.4268
-1805.7
-1712.62
-93.0806
-1712.62
-1629.58
-83.0396
-1558.33
-71.2518
-1558.33
-1488.85
-69.4796
-1488.85
-1426.17
-62.6812
-1369.46
-56.7087
-1369.46
-1313.86
-55.5996
-1263.7
-50.1582
-1263.7
-1213.93
-49.7749
-1213.93
-1167.94
-45.988
-1125.35
-42.5883
-1125.35
-1082.63
-42.722
-1082.63
-1043.05
-39.5819
-1004.3
-38.7436
-1004.3
-965.277
-39.0245
-927.898
-37.3794
-927.898
-890.257
-37.6407
-890.257
-854.05
-36.2077
-818.846
-35.2041
-818.846
-783.278
-35.5678
-783.278
-749.006
-34.2717
-714.819
-34.1874
-714.819
-679.785
-35.0335
-645.624
-34.1607
-645.624
-611.726
-33.8979
-611.726
-578.261
-33.4657
-544.885
-33.3753
-544.885
-512.034
-32.8512
-512.034
-480.323
-31.7112
-448.112
-32.2111
-448.112
-416.35
-31.7616
-384.61
-31.7403
-384.61
-355.829
-28.7805
-355.829
-329.561
-26.2681
-301.338
-28.2238
-301.338
-276.748
-24.5897
-276.748
-248.362
-28.3862
-204.072
-44.2892
-204.072
-140.559
-63.5131
-68.4761
-72.0832
-68.4761
11.4144
-79.8905
11.4145
-59.2693
-114.917
-479.356
-115.308
-550.815
-116.138
-590.432
-117.159
-631.161
-118.458
-668.689
-119.954
-703.726
-121.667
-736.731
-123.569
-767.852
-125.662
-797.312
-127.935
-825.328
-130.386
-852.056
-133.012
-877.703
-135.811
-902.426
-138.782
-926.404
-141.924
-949.779
-145.235
-972.685
-148.714
-995.225
-152.364
-1017.5
-156.192
-1039.62
-160.214
-1061.82
-164.456
-1084.43
-168.948
-1107.96
-173.718
-1132.97
-178.787
-1159.84
-184.162
-1188.81
-189.836
-1219.92
-195.776
-1252.95
-201.926
-1287.48
-208.202
-1322.85
-214.519
-1358.13
-220.874
-1392.09
-227.509
-1423.11
-235.18
-1449.01
-245.407
-1467.03
-260.529
-1474.05
-283.295
-1467.34
-315.877
-1445.88
-358.568
-1411.79
-408.898
-1370.87
-461.922
-1331.21
-511.727
-1300.26
-553.252
-1282.05
-583.382
-1276.28
-600.918
-1279.13
-605.822
-1284.22
-598.707
-1283.2
-581.647
-1268.99
-557.699
-1244.48
-517.363
-1208.46
-420.69
-1026.24
-282.062
-317.867
-204.804
715.927
-173.474
1267.7
-143.686
1624.87
-112.853
1970.62
-82.0157
2310.29
-51.4766
2642.73
-21.7266
2962.34
5.37976
3240.57
26.5372
3439.07
39.6172
3553.6
46.6233
3640.99
49.9204
3714.12
51.0469
3760.57
51.188
3767.8
50.9586
3719.11
50.634
3608.57
50.6677
3443.71
50.4679
3208.48
50.5331
2929.22
49.1528
2540.17
48.3371
2179.3
44.863
1585.1
44.5467
1422.41
38.9833
86.3412
47.033
1082.99
43.5344
-488.242
43.0531
-830.083
3604.27
-121.271
-479.604
-121.499
-550.588
-122.271
-589.66
-123.246
-630.186
-124.535
-667.401
-126.036
-702.225
-127.773
-734.994
-129.713
-765.911
-131.858
-795.167
-134.198
-822.988
-136.731
-849.524
-139.453
-874.981
-142.362
-899.517
-145.457
-923.309
-148.736
-946.5
-152.197
-969.225
-155.838
-991.584
-159.663
-1013.67
-163.685
-1035.6
-167.93
-1057.57
-172.432
-1079.92
-177.227
-1103.17
-182.34
-1127.85
-187.784
-1154.4
-193.558
-1183.04
-199.635
-1213.84
-205.963
-1246.62
-212.46
-1280.98
-219.03
-1316.28
-225.645
-1351.51
-232.53
-1385.21
-240.475
-1415.16
-251.169
-1438.31
-267.314
-1450.88
-292.185
-1449.17
-328.476
-1431.05
-376.683
-1397.67
-433.908
-1354.56
-494.098
-1310.68
-549.987
-1275.32
-595.596
-1254.65
-627.729
-1249.91
-645.841
-1258.16
-650.926
-1274.04
-644.294
-1290.85
-626.955
-1300.54
-600.559
-1295.38
-568.978
-1276.06
-528.839
-1248.6
-439.694
-1115.39
-276.889
-480.672
-187.053
626.091
-168.345
1249
-140.919
1597.45
-110.459
1940.16
-80.3642
2280.19
-50.5096
2612.87
-21.4832
2933.31
4.89738
3214.18
25.5178
3418.45
38.3063
3540.81
45.1566
3634.14
48.4588
3710.82
49.6687
3759.36
49.9703
3767.5
49.953
3719.13
49.8588
3608.67
50.1326
3443.43
50.172
3208.44
50.4568
2928.93
49.3361
2541.29
48.6888
2179.94
45.6027
1588.18
45.9123
1422.1
37.9367
94.3168
50.1692
1070.75
38.6206
-476.694
35.208
-826.67
3559.59
-124.717
-479.937
-124.881
-550.424
-125.621
-588.92
-126.578
-629.228
-127.865
-666.114
-129.374
-700.716
-131.128
-733.24
-133.094
-763.945
-135.274
-792.987
-137.657
-820.606
-140.241
-846.94
-143.021
-872.201
-145.998
-896.54
-149.168
-920.139
-152.529
-943.139
-156.078
-965.676
-159.814
-987.848
-163.742
-1009.74
-167.879
-1031.47
-172.256
-1053.19
-176.913
-1075.27
-181.888
-1098.19
-187.203
-1122.54
-192.866
-1148.73
-198.867
-1177.04
-205.169
-1207.54
-211.706
-1240.08
-218.384
-1274.3
-225.142
-1309.52
-232.108
-1344.55
-239.896
-1377.42
-249.981
-1405.08
-264.908
-1423.39
-287.992
-1427.8
-322.272
-1414.9
-368.909
-1384.41
-425.811
-1340.77
-487.484
-1292.89
-546.646
-1251.51
-596.782
-1225.19
-634.008
-1217.43
-657.295
-1226.63
-667.478
-1247.98
-666.049
-1275.47
-654.306
-1302.59
-632.995
-1321.85
-603.084
-1325.29
-567.896
-1311.25
-528.128
-1288.37
-450.71
-1192.81
-279.565
-651.817
-166.586
513.112
-155.576
1237.99
-136.999
1578.87
-107.006
1910.17
-77.8494
2251.04
-48.9904
2584.01
-20.9163
2905.24
4.49208
3188.78
24.3272
3398.61
36.5999
3528.54
43.1404
3627.6
46.3436
3707.62
47.6221
3758.08
48.1157
3767
48.3868
3718.86
48.6297
3608.42
49.2605
3442.8
49.6586
3208.05
50.2902
2928.3
49.5215
2542.06
49.1569
2180.31
46.4793
1590.86
46.347
1422.23
39.1069
101.557
49.2543
1060.61
34.6536
-462.093
30.5002
-822.517
3518.01
-128.838
-480.347
-128.945
-550.317
-129.657
-588.208
-130.6
-628.285
-131.891
-664.823
-133.413
-699.194
-135.193
-731.46
-137.195
-761.944
-139.419
-790.762
-141.856
-818.169
-144.503
-844.293
-147.357
-869.347
-150.416
-893.481
-153.678
-916.877
-157.139
-939.678
-160.796
-962.019
-164.648
-983.996
-168.701
-1005.69
-172.976
-1027.19
-177.51
-1048.66
-182.351
-1070.43
-187.539
-1093.01
-193.095
-1116.98
-199.021
-1142.81
-205.297
-1170.76
-211.872
-1200.96
-218.662
-1233.29
-225.588
-1267.38
-232.698
-1302.41
-240.45
-1336.79
-250.116
-1367.75
-264.098
-1391.09
-285.772
-1401.71
-318.549
-1395.02
-364.26
-1369.18
-421.6
-1327.07
-485.626
-1276.74
-548.979
-1229.54
-604.402
-1196.09
-647.045
-1182.55
-675.209
-1189.26
-689.55
-1212.28
-691.756
-1245.78
-683.56
-1283.67
-666.234
-1319.92
-640.409
-1347.68
-606.645
-1359.06
-567.634
-1350.26
-526.439
-1329.56
-458.057
-1261.19
-288.955
-820.919
-148.555
372.711
-135.498
1224.93
-130.281
1573.65
-102.883
1882.77
-74.4121
2222.57
-46.8684
2556.47
-19.978
2878.35
4.21158
3164.59
22.991
3379.83
34.5265
3517.01
40.5947
3621.53
43.5952
3704.62
44.9097
3756.77
45.6186
3766.3
46.2412
3718.24
46.9172
3607.75
48.0095
3441.71
48.8778
3207.18
49.9596
2927.22
49.6461
2542.37
49.6534
2180.3
47.4111
1593.1
47.2828
1422.36
40.1053
108.734
49.2654
1051.45
32.1727
-445
25.8358
-816.18
3480.33
-132.824
-480.808
-132.894
-550.247
-133.586
-587.516
-134.523
-627.348
-135.823
-663.524
-137.365
-697.651
-139.175
-729.65
-141.216
-759.903
-143.489
-788.489
-145.982
-815.676
-148.696
-841.58
-151.625
-866.417
-154.77
-890.336
-158.126
-913.521
-161.69
-936.114
-165.457
-958.251
-169.427
-980.027
-173.606
-1001.51
-178.019
-1022.78
-182.71
-1043.97
-187.735
-1065.4
-193.138
-1087.6
-198.936
-1111.19
-205.125
-1136.62
-211.674
-1164.22
-218.512
-1194.12
-225.558
-1226.25
-232.802
-1260.13
-240.565
-1294.65
-249.909
-1327.45
-263.053
-1354.61
-283.377
-1370.77
-314.587
-1370.5
-359.09
-1350.52
-416.274
-1312
-481.771
-1261.57
-548.362
-1210.15
-608.318
-1169.58
-655.926
-1148.48
-688.75
-1149.72
-707.146
-1170.87
-712.896
-1206.54
-707.998
-1250.67
-694.083
-1297.58
-672.232
-1341.77
-642.926
-1376.98
-606.402
-1395.58
-564.594
-1392.07
-521.67
-1372.49
-461.263
-1321.6
-305.824
-976.358
-136.215
203.102
-111.032
1199.75
-118.499
1581.12
-97.7984
1862.07
-70.0447
2194.81
-43.9895
2530.42
-18.5987
2852.96
4.12295
3141.87
21.5629
3362.39
32.0951
3506.47
37.4937
3616.14
40.1608
3701.95
41.4557
3755.47
42.3942
3765.36
43.4267
3717.2
44.632
3606.54
46.2988
3440.04
47.7522
3205.72
49.4015
2925.57
49.6408
2542.13
50.1225
2179.82
48.3536
1594.87
48.4489
1422.26
40.9264
116.257
49.1541
1043.22
31.5689
-427.415
23.5716
-808.182
3459.61
-136.864
-481.303
-136.912
-550.199
-137.593
-586.835
-138.533
-626.408
-139.848
-662.209
-141.415
-696.084
-143.261
-727.804
-145.346
-757.818
-147.673
-786.162
-150.229
-813.119
-153.014
-838.794
-156.025
-863.406
-159.26
-887.101
-162.717
-910.065
-166.39
-932.441
-170.274
-954.367
-174.367
-975.934
-178.678
-997.201
-183.235
-1018.22
-188.089
-1039.11
-193.305
-1060.18
-198.931
-1081.98
-204.98
-1105.14
-211.441
-1130.16
-218.265
-1157.39
-225.372
-1187.02
-232.721
-1218.9
-240.514
-1252.34
-249.605
-1285.56
-262.002
-1315.05
-281.038
-1335.57
-310.69
-1341.12
-353.91
-1327.28
-410.718
-1293.71
-477.25
-1245.47
-546.503
-1192.32
-610.505
-1146.15
-662.858
-1117.23
-700.338
-1111
-722.83
-1127.23
-732.07
-1161.63
-730.273
-1208.33
-719.333
-1261.61
-700.614
-1316.3
-674.985
-1367.4
-642.825
-1409.14
-604.222
-1434.18
-560.524
-1435.77
-516.02
-1416.99
-461.828
-1375.79
-331.042
-1107.14
-136.741
8.8008
-86.0752
1149.08
-100.653
1595.7
-90.6359
1852.05
-64.8763
2169.05
-40.2225
2505.76
-16.6821
2829.42
4.31836
3120.86
20.1511
3346.56
29.3952
3497.23
33.903
3611.63
36.0843
3699.77
37.277
3754.28
38.4402
3764.19
39.9247
3715.72
41.7424
3604.72
44.089
3437.7
46.2372
3203.58
48.5667
2923.24
49.4544
2541.24
50.5063
2178.77
49.2522
1596.12
49.5783
1421.94
41.7975
124.038
48.6813
1036.33
31.5911
-410.325
22.6069
-799.198
3453.83
-140.923
-481.815
-140.963
-550.159
-141.641
-586.157
-142.59
-625.459
-143.927
-660.872
-145.526
-694.484
-147.413
-725.917
-149.548
-755.683
-151.933
-783.777
-154.557
-810.495
-157.419
-835.932
-160.517
-860.309
-163.849
-883.77
-167.411
-906.502
-171.198
-928.653
-175.205
-950.36
-179.428
-971.711
-183.875
-992.754
-188.58
-1013.52
-193.603
-1034.09
-199.016
-1054.77
-204.872
-1076.12
-211.179
-1098.83
-217.914
-1123.42
-225.01
-1150.3
-232.407
-1179.62
-240.211
-1211.09
-249.081
-1243.47
-260.783
-1273.85
-278.551
-1297.29
-306.608
-1307.51
-348.49
-1299.24
-404.848
-1270.92
-472.219
-1226.34
-543.709
-1173.98
-611.189
-1124.84
-667.808
-1089.53
-709.688
-1075.35
-736.168
-1084.52
-748.8
-1114.6
-749.931
-1160.5
-741.711
-1216.55
-725.733
-1277.59
-703.07
-1338.96
-674.403
-1396.06
-640.053
-1443.49
-600.085
-1474.15
-555.475
-1480.38
-510.206
-1462.26
-460.898
-1425.1
-355.077
-1212.96
-150.696
-195.58
-64.6374
1063.02
-77.5779
1608.64
-79.7915
1854.27
-58.7549
2148.02
-35.4963
2482.5
-14.0844
2808.01
4.87931
3101.9
18.8413
3332.6
26.5
3489.57
29.8719
3608.26
31.3987
3698.24
32.387
3753.29
33.7525
3762.83
35.7197
3713.75
38.2211
3602.22
41.3467
3434.57
44.2954
3200.63
47.4164
2920.12
49.0501
2539.61
50.7728
2177.04
50.0837
1596.81
50.6981
1421.32
42.7689
131.967
48.371
1030.73
31.5146
-393.468
21.8613
-789.545
3451.1
-145.013
-482.329
-145.059
-550.113
-145.742
-585.474
-146.71
-624.491
-148.074
-659.508
-149.711
-692.847
-151.645
-723.984
-153.835
-753.493
-156.285
-781.328
-158.982
-807.798
-161.927
-832.987
-165.116
-857.119
-168.55
-880.336
-172.224
-902.828
-176.132
-924.745
-180.268
-946.225
-184.626
-967.353
-189.216
-988.163
-194.075
-1008.66
-199.27
-1028.9
-204.887
-1049.15
-210.98
-1070.03
-217.549
-1092.26
-224.554
-1116.42
-231.927
-1142.92
-239.704
-1171.84
-248.359
-1202.44
-259.389
-1232.44
-275.865
-1257.38
-302.214
-1270.94
-342.617
-1267.11
-398.478
-1243.38
-466.717
-1202.68
-540.342
-1152.71
-610.922
-1103.4
-671.271
-1064.49
-717.107
-1043.69
-747.336
-1045.12
-763.241
-1068.62
-767.181
-1110.66
-761.499
-1166.18
-748.011
-1230.04
-727.954
-1297.65
-702.148
-1364.77
-671.139
-1427.07
-635.254
-1479.38
-594.662
-1514.74
-550.214
-1524.83
-505.442
-1507.03
-460.291
-1470.25
-372.666
-1300.59
-167.409
-400.837
-49.8143
945.429
-51.7336
1610.56
-64.0615
1866.6
-51.0158
2134.97
-29.8144
2461.3
-10.6237
2788.82
5.90934
3085.37
17.7152
3320.79
23.4803
3483.81
25.443
3606.29
26.1278
3697.56
26.7923
3752.63
28.3203
3761.3
30.7919
3711.28
34.0389
3598.98
38.0383
3430.57
41.8918
3196.77
45.9163
2916.09
48.397
2537.13
50.8999
2174.54
50.8379
1596.88
51.8375
1420.32
43.8647
139.94
48.2935
1026.3
31.4488
-376.624
21.3863
-779.482
3444.27
-149.14
-482.832
-149.202
-550.05
-149.9
-584.777
-150.893
-623.498
-152.292
-658.109
-153.973
-691.166
-155.96
-721.997
-158.211
-751.241
-160.73
-778.809
-163.506
-805.023
-166.539
-829.954
-169.826
-853.831
-173.368
-876.794
-177.16
-899.036
-181.196
-920.709
-185.467
-941.954
-189.967
-962.853
-194.706
-983.425
-199.723
-1003.64
-205.097
-1023.52
-210.924
-1043.33
-217.257
-1063.7
-224.086
-1085.43
-231.357
-1109.15
-239.052
-1135.23
-247.48
-1163.42
-257.854
-1192.06
-272.995
-1217.3
-297.446
-1232.93
-336.082
-1232.3
-391.273
-1211.92
-460.477
-1174.17
-536.463
-1126.7
-610.151
-1079.03
-673.87
-1039.68
-723.113
-1015.25
-756.627
-1010.18
-775.525
-1026.22
-782.098
-1062.04
-778.783
-1113.98
-767.569
-1177.39
-749.855
-1247.75
-726.566
-1320.94
-698.337
-1393
-665.659
-1459.75
-628.952
-1516.09
-588.619
-1555.08
-545.597
-1567.85
-503.001
-1549.63
-462.548
-1510.7
-389.586
-1373.55
-188.103
-602.32
-42.7261
800.051
-26.3826
1594.21
-43.3859
1883.6
-40.574
2132.16
-23.1741
2443.9
-6.15576
2771.8
7.56416
3071.65
16.8707
3311.49
20.4203
3480.26
20.6729
3606.04
20.3039
3697.93
20.5095
3752.42
22.1417
3759.67
25.1289
3708.29
29.1745
3594.93
34.1354
3425.61
38.9952
3191.91
44.0338
2911.06
47.4648
2533.7
50.8631
2171.14
51.5006
1596.24
52.9869
1418.84
45.1122
147.814
48.5978
1022.82
32.3986
-360.425
21.3359
-768.42
3439.33
-153.308
-483.312
-153.397
-549.961
-154.117
-584.057
-155.144
-622.471
-156.585
-656.668
-158.317
-689.434
-160.362
-719.952
-162.681
-748.923
-165.276
-776.214
-168.136
-802.163
-171.262
-826.828
-174.654
-850.44
-178.31
-873.138
-182.227
-895.119
-186.398
-916.538
-190.811
-937.54
-195.46
-958.204
-200.353
-978.532
-205.534
-998.46
-211.092
-1017.96
-217.133
-1037.29
-223.707
-1057.12
-230.787
-1078.35
-238.336
-1101.6
-246.52
-1127.04
-256.259
-1153.68
-270.036
-1178.29
-292.371
-1194.97
-328.807
-1196.49
-382.913
-1178.19
-453.036
-1141.8
-531.768
-1095.44
-609.018
-1049.45
-676.179
-1011.87
-728.425
-987.433
-764.607
-979.065
-785.971
-988.817
-794.837
-1017.35
-793.667
-1063.21
-784.532
-1123.11
-768.942
-1192.98
-747.915
-1268.78
-722.144
-1346.71
-692.169
-1422.97
-658.533
-1493.39
-621.873
-1552.75
-582.948
-1594
-542.919
-1607.88
-504.492
-1588.06
-469.987
-1545.21
-410.202
-1433.34
-216.635
-795.887
-45.0373
628.454
-4.86337
1554.04
-19.1003
1897.84
-26.1211
2139.18
-15.2947
2433.08
-0.636436
2757.14
10.0461
3060.97
16.4312
3305.1
17.4131
3479.27
15.6283
3607.83
13.9646
3699.59
13.5603
3752.83
15.2213
3758.01
18.7232
3704.79
23.6123
3590.04
29.6141
3419.61
35.5782
3185.95
41.7387
2904.9
46.2239
2529.21
50.6374
2166.73
52.0545
1594.82
54.1422
1416.75
46.5115
155.445
49.5057
1019.82
34.2403
-345.159
22.0525
-756.232
3432.61
-157.522
-483.757
-157.649
-549.834
-158.4
-583.306
-159.469
-621.402
-160.958
-655.179
-162.748
-687.645
-164.858
-717.842
-167.25
-746.53
-169.927
-773.538
-172.877
-799.212
-176.103
-823.601
-179.605
-846.938
-183.382
-869.361
-187.431
-891.07
-191.744
-912.226
-196.307
-932.976
-201.112
-953.399
-206.166
-973.478
-211.516
-993.11
-217.262
-1012.22
-223.518
-1031.03
-230.324
-1050.32
-237.649
-1071.03
-245.564
-1093.68
-254.702
-1117.9
-267.132
-1141.25
-287.167
-1158.25
-320.882
-1161.25
-373.225
-1144.15
-443.9
-1107.52
-525.664
-1060.03
-607.227
-1013.88
-678.458
-978.216
-733.759
-956.564
-772.108
-949.084
-795.223
-955.949
-805.775
-978.265
-806.346
-1016.78
-799.026
-1070.53
-785.347
-1136.79
-766.365
-1211.96
-742.804
-1292.34
-715.224
-1374.29
-684.19
-1454.01
-650.437
-1527.14
-614.966
-1588.22
-578.979
-1629.99
-543.848
-1643.01
-511.723
-1620.18
-484.558
-1572.37
-437.259
-1480.64
-257.113
-976.032
-58.6499
429.99
9.66984
1485.72
6.18557
1901.32
-6.57112
2151.94
-5.16436
2431.67
5.94768
2746.03
13.5305
3053.38
16.5504
3302.08
14.5647
3481.26
10.3846
3612.01
7.15232
3702.82
5.96885
3754.01
7.56738
3756.41
11.5699
3700.79
17.3405
3584.27
24.4546
3412.49
31.6165
3178.79
39.0036
2897.51
44.6459
2523.57
50.1981
2161.18
52.4811
1592.54
55.2955
1413.93
48.0309
162.71
50.8615
1016.99
35.7182
-330.016
22.4946
-743.008
3423.36
-161.789
-484.157
-161.961
-549.661
-162.753
-582.514
-163.871
-620.283
-165.416
-653.634
-167.27
-685.791
-169.452
-715.66
-171.924
-744.058
-174.688
-770.774
-177.735
-796.165
-181.068
-820.269
-184.687
-843.32
-188.592
-865.456
-192.78
-886.882
-197.242
-907.764
-201.965
-928.254
-206.934
-948.43
-212.155
-968.257
-217.68
-987.586
-223.615
-1006.28
-230.078
-1024.57
-237.102
-1043.29
-244.704
-1063.42
-253.282
-1085.1
-264.439
-1106.75
-282.082
-1123.6
-312.569
-1127.77
-362.256
-1111.56
-432.712
-1073.69
-517.454
-1022.78
-604.094
-973.394
-680.469
-937.503
-739.521
-919.164
-779.996
-916.089
-804.236
-924.845
-815.649
-944.536
-817.263
-976.651
-811.289
-1022.76
-799.223
-1082.6
-782.067
-1153.95
-760.508
-1233.52
-735.089
-1317.76
-706.358
-1403.02
-675.06
-1485.31
-642.296
-1559.9
-609.558
-1620.96
-578.477
-1661.07
-550.391
-1671.09
-526.505
-1644.07
-507.599
-1591.28
-472.18
-1516.06
-312.422
-1135.79
-83.375
200.943
15.6762
1386.67
28.6683
1888.33
17.6629
2162.94
9.00744
2440.32
13.8943
2741.14
18.0888
3049.19
17.3949
3302.78
11.9992
3486.66
5.02782
3618.98
-0.0842714
3707.94
-2.23811
3756.16
-0.806735
3754.98
3.66947
3696.31
10.3528
3577.59
18.6418
3404.2
27.0895
3170.34
35.8045
2888.79
42.7044
2516.67
49.5208
2154.36
52.7605
1589.3
56.4244
1410.27
49.6411
169.493
52.1832
1014.45
36.5045
-314.337
21.8836
-728.387
3413.48
-166.113
-484.503
-166.34
-549.434
-167.181
-581.674
-168.357
-619.107
-169.965
-652.025
-171.89
-683.866
-174.151
-713.399
-176.709
-741.5
-179.567
-767.915
-182.718
-793.015
-186.163
-816.823
-189.905
-839.577
-193.946
-861.416
-198.281
-882.547
-202.902
-903.143
-207.792
-923.364
-212.934
-943.288
-218.33
-962.86
-224.032
-981.884
-230.151
-1000.16
-236.805
-1017.91
-244.045
-1036.05
-252.089
-1055.38
-262.095
-1075.1
-277.382
-1091.46
-304.249
-1096.74
-350.296
-1081.72
-419.366
-1042.49
-506.533
-986.525
-598.743
-930.567
-681.497
-890.64
-745.557
-873.443
-788.821
-875.9
-814.033
-890.876
-825.565
-913.313
-827.289
-942.812
-821.868
-982.072
-810.879
-1033.75
-795.215
-1098.26
-775.433
-1173.73
-751.973
-1256.98
-725.322
-1344.41
-696.18
-1432.16
-665.66
-1515.83
-635.401
-1590.16
-607.43
-1648.93
-583.586
-1684.91
-564.658
-1690.02
-550.288
-1658.44
-539.562
-1602
-514.97
-1540.65
-386.217
-1264.54
-127.404
-57.8701
13.2541
1246.01
45.149
1856.43
43.711
2164.38
28.4622
2455.57
24.1757
2745.43
23.789
3049.57
19.1094
3307.45
9.85736
3495.91
-0.341101
3629.18
-7.68242
3715.28
-11.0276
3759.51
-9.88671
3753.84
-4.97865
3691.4
2.64475
3569.96
12.1666
3394.68
21.9809
3160.53
32.1207
2878.65
40.3749
2508.42
48.5814
2146.15
52.8716
1585.01
57.509
1405.63
51.3501
175.652
53.392
1012.41
37.1483
-298.093
21.8613
-713.1
3403.13
-170.5
-484.785
-170.791
-549.143
-171.689
-580.776
-172.931
-617.865
-174.61
-650.346
-176.614
-681.861
-178.96
-711.053
-181.611
-738.849
-184.57
-764.956
-187.831
-789.755
-191.396
-813.258
-195.269
-835.704
-199.452
-857.233
-203.943
-878.056
-208.731
-898.354
-213.798
-918.297
-219.122
-937.963
-224.701
-957.282
-230.579
-976.006
-236.867
-993.875
-243.691
-1011.09
-251.218
-1028.52
-260.206
-1046.39
-273.299
-1062.01
-296.354
-1068.4
-337.833
-1055.26
-404.053
-1015.5
-492.528
-954.018
-590.32
-888.733
-680.555
-840.332
-751.166
-820.028
-798.507
-826.102
-825.282
-849.126
-836.702
-879.455
-837.711
-912.304
-831.811
-948.713
-821.002
-992.881
-806.214
-1048.53
-787.834
-1116.64
-766.097
-1195.46
-741.328
-1281.75
-714.121
-1371.62
-685.531
-1460.75
-657.241
-1544.12
-631.532
-1615.87
-610.822
-1669.64
-596.646
-1699.09
-588.48
-1698.19
-583.763
-1663.15
-579.778
-1605.99
-563.161
-1557.27
-459.676
-1368.03
-183.369
-334.177
3.6824
1058.96
54.8282
1805.29
67.6274
2151.58
52.581
2470.62
38.2001
2759.81
30.9686
3056.81
21.8123
3316.61
8.28807
3509.43
-5.60477
3643.07
-15.5701
3725.24
-20.3633
3764.3
-19.6542
3753.13
-14.3737
3686.12
-5.79107
3561.38
5.02276
3383.87
16.2799
3149.27
27.9351
2867
37.6361
2498.72
47.3569
2136.43
52.7932
1579.57
58.5448
1399.88
53.1757
181.021
54.8267
1010.76
38.5334
-281.8
22.0508
-696.618
3393.47
-174.956
-484.995
-175.318
-548.78
-176.283
-579.811
-177.599
-616.549
-179.356
-648.589
-181.447
-679.771
-183.886
-708.614
-186.637
-736.097
-189.704
-761.889
-193.081
-786.378
-196.773
-809.566
-200.784
-831.693
-205.119
-852.898
-209.774
-873.4
-214.74
-893.388
-219.995
-913.043
-225.511
-932.447
-231.275
-951.518
-237.32
-969.961
-243.752
-987.444
-250.758
-1004.08
-258.86
-1020.42
-270.004
-1035.25
-289.295
-1042.71
-325.487
-1032.21
-387.255
-993.489
-475.381
-927.372
-578.149
-851.251
-676.616
-790.266
-755.323
-761.625
-808.363
-766.988
-837.933
-796.532
-849.801
-837.258
-849.861
-879.395
-842.618
-919.548
-830.86
-960.471
-815.934
-1007.81
-798.242
-1066.23
-777.798
-1137.09
-754.654
-1218.61
-729.178
-1307.23
-702.281
-1398.52
-675.6
-1487.43
-651.552
-1568.16
-632.991
-1634.43
-622.267
-1680.36
-619.796
-1701.56
-622.913
-1695.07
-626.53
-1659.54
-626.513
-1606.01
-614.099
-1569.68
-527.133
-1454.99
-241.405
-619.905
-12.2113
829.765
59.0983
1733.98
86.4487
2124.23
78.8198
2478.25
56.8511
2781.78
40.4072
3073.25
25.6688
3331.35
7.4373
3527.66
-10.6333
3661.14
-23.6659
3738.28
-30.2034
3770.84
-30.0873
3753.01
-24.5089
3680.55
-14.9584
3551.83
-2.79763
3371.71
9.97728
3136.49
23.2361
2853.74
34.4702
2487.48
45.8267
2125.08
52.5041
1572.89
59.5316
1392.85
55.1041
185.448
56.7466
1009.12
40.8603
-265.914
22.9607
-678.718
3383.58
-179.487
-485.123
-179.929
-548.338
-180.969
-578.772
-182.367
-615.151
-184.211
-646.744
-186.396
-677.587
-188.935
-706.075
-191.794
-733.238
-194.976
-758.707
-198.477
-782.877
-202.303
-805.74
-206.461
-827.535
-210.955
-848.404
-215.785
-868.571
-220.939
-888.234
-226.393
-907.589
-232.11
-926.73
-238.058
-945.569
-244.249
-963.77
-250.804
-980.89
-258.128
-996.76
-267.617
-1010.93
-283.402
-1019.46
-313.92
-1012.2
-369.699
-976.435
-455.369
-907.819
-561.814
-820.927
-668.769
-744.296
-756.937
-702.098
-817.353
-701.209
-851.247
-733.095
-864.748
-783.031
-864.483
-837.523
-855.751
-888.127
-842.192
-933.107
-825.907
-976.756
-807.754
-1025.96
-787.772
-1086.21
-765.749
-1159.11
-741.709
-1242.65
-716.276
-1332.66
-690.923
-1423.87
-668.084
-1510.27
-650.923
-1585.32
-642.482
-1642.87
-644.21
-1678.63
-654.43
-1691.34
-667.796
-1681.71
-677.003
-1650.33
-677.41
-1605.6
-665.49
-1581.6
-592.232
-1528.25
-308.462
-903.675
-36.1785
557.482
60.2689
1637.53
99.3551
2085.14
103.898
2473.71
79.6479
2806.03
53.0789
3099.82
31.0171
3353.41
7.45671
3551.22
-15.2908
3683.89
-31.8803
3754.86
-40.5005
3779.46
-41.1612
3753.67
-35.3718
3674.76
-24.8565
3541.32
-11.3004
3358.15
3.06667
3122.13
18.0159
2838.79
30.8642
2474.63
43.9733
2111.97
51.984
1564.88
60.4597
1384.38
57.093
188.815
59.0365
1007.17
43.3313
-250.209
24.1531
-659.54
3374.36
-184.099
-485.163
-184.628
-547.809
-185.752
-577.648
-187.241
-613.662
-189.181
-644.805
-191.467
-675.3
-194.114
-703.429
-197.088
-730.263
-200.393
-755.403
-204.026
-779.244
-207.994
-801.771
-212.307
-823.223
-216.97
-843.741
-221.984
-863.556
-227.338
-882.879
-233.003
-901.924
-238.927
-920.807
-245.049
-939.447
-251.357
-957.463
-258.072
-974.174
-266.199
-988.634
-278.917
-998.214
-303.748
-994.632
-352.283
-963.661
-433.109
-895.609
-541.203
-799.725
-656.272
-705.858
-755.008
-645.561
-824.413
-632.692
-864.152
-661.469
-880.658
-716.589
-881.283
-782.406
-871.858
-846.948
-856.528
-903.457
-838.098
-951.537
-818.187
-996.666
-797.37
-1046.78
-775.498
-1108.08
-752.298
-1182.31
-727.974
-1266.97
-703.66
-1356.97
-681.654
-1445.88
-665.288
-1526.64
-658.182
-1592.43
-662.751
-1638.31
-678.425
-1662.96
-700.644
-1669.12
-721.532
-1660.82
-732.623
-1639.24
-729.906
-1608.32
-715.025
-1596.48
-654.55
-1588.73
-393.561
-1164.66
-74.7743
238.695
60.0053
1502.75
107.403
2037.75
125.294
2455.81
104.743
2826.58
69.5572
3135
38.4218
3384.55
8.54039
3581.1
-19.4419
3711.87
-40.1175
3775.54
-51.2023
3790.55
-52.8484
3755.32
-46.9461
3668.85
-35.4788
3529.85
-20.49
3343.16
-4.46123
3106.1
12.2694
2822.06
26.8123
2460.09
41.7825
2097
51.2149
1555.45
61.309
1374.28
59.1055
191.019
61.274
1005
45.3507
-234.285
24.2316
-638.421
3365.13
-188.799