/*--------------------------------*- C++ -*----------------------------------*\
| =========                 |                                                 |
| \\      /  F ield         | OpenFOAM: The Open Source CFD Toolbox           |
|  \\    /   O peration     | Version:  4.1                                   |
|   \\  /    A nd           | Web:      www.OpenFOAM.org                      |
|    \\/     M anipulation  |                                                 |
\*---------------------------------------------------------------------------*/
FoamFile
{
    version     2.0;
    format      ascii;
    class       volScalarField;
    location    "7";
    object      p;
}
// * * * * * * * * * * * * * * * * * * * * * * * * * * * * * * * * * * * * * //

dimensions      [0 2 -2 0 0 0 0];

internalField   nonuniform List<scalar> 
6785
(
5144.5
5080.31
5029.19
4979.68
4933.75
4890.61
4850.09
4811.99
4776.12
4742.01
4709.29
4679.32
4651.7
4617.77
4583.33
4612.39
4594.61
4597.29
4593.12
4589.74
4586.31
4583.27
4580.84
4579.23
4578.57
4578.83
4580.24
4583.54
4587.37
4588.37
4561.9
4556.44
4566.13
4565.84
4569.33
4571.95
4574.74
4577.38
4579.87
4582.19
4584.24
4585.87
4587.39
4589.28
4590.44
4619.03
4616.94
4622.07
4618.64
4619.28
4618
4617.07
4615.96
4614.88
4613.88
4613.06
4612.32
4611.48
4610.93
4611.44
4619.47
4617.32
4619.85
4616.54
4617.6
4616.58
4616.55
4616.4
4616.46
4616.56
4616.63
4616.47
4616.09
4615.84
4616
4605.9
4603.83
4605.72
4603.3
4604.79
4603.99
4604.4
4604.39
4604.49
4604.44
4604.24
4603.75
4602.93
4602.13
4601.64
4594.46
4592.76
4593.99
4591.75
4592.63
4591.23
4590.99
4590.2
4589.48
4588.71
4588.05
4587.45
4586.77
4586.43
4586.7
4586.18
4585.15
4586.18
4584.25
4584.97
4583.68
4583.43
4582.74
4582.13
4581.57
4581.18
4581.02
4581.01
4581.33
4582.18
4585.73
4585.66
4586.83
4585.63
4586.62
4586.02
4586.27
4586.21
4586.22
4586.27
4586.4
4586.62
4586.98
4587.41
4588.22
4592.05
4592.68
4593.79
4593.19
4594.3
4594.13
4594.71
4594.97
4595.32
4595.7
4596.11
4596.52
4597
4597.38
4597.98
4597.73
4598.81
4599.84
4599.48
4600.54
4600.47
4601.13
4601.44
4601.89
4602.31
4602.76
4603.17
4603.63
4603.97
4604.46
4606.2
4607.09
4607.45
4607.11
4607.93
4607.87
4608.49
4608.88
4609.35
4609.71
4610.07
4610.4
4610.79
4611.09
4611.54
4601.55
4602.66
4603.55
4603.61
4604.98
4605.75
4607.1
4608.33
4609.83
4611.17
4612.37
4613.49
4614.68
4615.74
4617.04
4611.79
4614.72
4619.98
4625.35
4631.65
4637.08
4641.85
4644.99
4646.88
4647.57
4647.41
4646.93
4646.93
4646.85
4646.23
4519.22
4509.55
4512.25
4514.52
4518.52
4521.37
4525.08
4529.49
4535.34
4542.21
4552.33
4566.13
4580.27
4596.56
4608.02
5599.12
5593.49
5597.4
5598.26
5599.32
5589.03
5593.77
5596.04
5597.71
5589.34
5601.58
5610.95
5620.64
5634.8
5641.25
5649.19
5658.08
5674.86
5678.18
5694.33
5698.02
5693.75
5701.56
5724.66
5711.89
5694.39
5700.37
5734.17
5713.47
5670.81
5701.49
5686.09
5642.75
5633.49
5685.18
5659.55
5584.63
5614.88
5603.95
5542.64
5518.3
5582.63
5551.17
5474.89
5447.81
5514.27
5495.26
5396.02
5423.19
5422.98
5351.96
5316.9
5384.09
5359.59
5278.2
5245.45
5311.98
5298.22
5199.19
5226.09
5228.97
5161.22
5128.76
5188.28
5178.69
5089
5113.35
5118.81
5059.42
5030.72
5086
5072.13
5008.81
4984.39
5035.97
5031.32
4960.78
4974.43
4994.09
4935.78
4954.97
4983.83
4973.56
5019.2
4960.17
4954.71
4949.2
4942.89
4937.54
4931.99
4928.99
4922.01
4987.65
4912.49
4904.54
4899.71
4897.77
4895.83
4886.26
4874.69
4847.11
4868.25
4840.59
4823.32
4798.79
4781.84
4765.4
4750.16
4733.89
4719.75
4699.43
4700.47
4661.29
4645.29
4627.45
4609.93
4592.98
4574
4554.05
4532.37
4507.09
4484.76
4466.24
4448.19
4429.05
4413.28
4395.85
4380.96
4358.05
4283.33
4284.41
4259.07
4243.91
4226.36
4202
4178.87
4158.58
4133.79
4038.08
4030.12
3981.27
3955.27
3927.43
3897.87
3861.72
3815.78
3778.29
3732.03
3550.13
3574.34
3477.2
3416.36
3356.53
3290.77
3217.92
3137.21
3037.17
2687.11
2849.74
2666.12
2479.36
2771.67
2789.08
2668.34
2655.35
2647.41
2623.06
2672.92
2657.36
2598.49
2687.79
2666.3
2613.04
2637.9
2596.76
2692
2636.11
2572.62
2596.96
2544.66
2673.08
2599.93
2460.99
2678.24
2556.26
2435.05
2487.54
2391.94
2675.45
2444.8
2267.32
2332.52
2214.65
2586.2
2312.68
1936.29
2483.55
2160.26
1870.46
1959.65
1809.57
2360.92
1921.02
1601.53
1706.19
1552.85
2148.17
1737.46
1194.37
1977.38
1552.04
1163.56
1287.34
1110.02
1837.38
1286.71
881.84
1021.26
844.134
1593.96
1095.55
431.24
1395.65
888.953
417.13
569.917
365.538
1250.89
588.337
97.0112
263.758
58.007
965.35
360.172
-448.454
716.976
92.911
-475.502
-341.124
-481.297
-0.274429
0.466353
-0.306654
-0.574236
-1.04848
-1.45887
-1.90126
-2.30429
-2.66526
-2.90631
-2.91365
-2.41854
-2.4854
-13.4464
-26.1992
-33.8081
-40.3621
-45.4967
-47.4448
-46.3586
-43.3128
-38.4269
-32.0823
-24.7867
-16.6335
-7.98463
0.595765
8.6081
15.7702
26.2008
33.8907
39.7532
44.904
49.0598
52.7544
55.7982
58.7041
56.6388
57.9293
62.5439
65.1892
70.8905
66.7078
108.738
17.8366
14.6443
7.13615
2.15957
-0.379417
-1.81033
-3.39263
-6.75403
-8.81196
-75.2995
-277.264
-439.963
-251.682
-0.857632
-0.493385
28.2351
-18.6486
-13.6313
-12.8563
-13.0443
-12.5588
-10.5253
-3.03453
20.2361
21.6108
0.814961
6.83883
8.27978
17.808
25.9907
33.1133
38.375
41.4718
37.5203
34.6113
-1.64794
-0.424733
-2.00057
-2.43802
-3.29531
-4.04851
-5.0137
-6.0515
-7.16968
-8.16345
-8.70122
-8.09595
-8.91004
-29.2272
-50.2464
-62.6175
-73.9064
-83.0046
-86.6286
-85.1301
-79.9276
-71.0132
-58.9839
-44.6442
-28.447
-11.0058
6.64688
23.073
36.6126
53.1588
67.8784
79.8627
90.0245
98.0374
104.647
109.172
113.459
112.877
111.407
115.55
119.322
127.465
113.99
182.075
51.2818
37.7106
20.8107
8.09447
4.01059
-3.13489
-11.5003
-22.8485
-25.4613
-127.171
-495.199
-846.368
-620.264
-100.183
-74.8852
19.5854
-47.7862
-33.4955
-30.033
-29.7008
-28.6325
-25.0415
0.471107
38.1914
52.8405
27.9818
58.6762
57.5622
71.0523
80.7786
90.3422
99.2916
105.527
106.565
98.9504
-2.11856
-0.428031
-2.93586
-3.83068
-5.48129
-7.03988
-8.98242
-11.0698
-13.3075
-15.3781
-16.8526
-16.9727
-18.5954
-39.7056
-59.3383
-70.903
-82.9244
-92.7401
-96.3429
-94.4718
-88.4325
-77.9698
-63.7973
-46.8248
-27.7362
-7.21197
13.5225
32.7459
47.9274
64.7414
81.3564
95.1105
106.564
115.419
122.474
126.816
130.518
131.037
128.525
130.755
132.855
141.572
121.748
192.2
86.5913
60.926
31.2642
12.7283
5.03625
-9.52257
-26.1601
-47.2673
-57.6088
-170.353
-591.659
-1021.5
-853.674
-225.826
-123.98
-13.8283
-65.8758
-42.1319
-36.6038
-35.8039
-33.9149
-28.9777
9.35764
51.87
87.1525
37.252
89.0877
91.255
118.493
139.367
158.445
175.188
186.497
188.706
195.45
-2.70547
-1.03965
-4.2161
-5.52434
-7.82003
-10.0654
-12.8778
-15.949
-19.2813
-22.4565
-24.9527
-25.8846
-28.0613
-49.4464
-69.0923
-81.648
-94.9239
-105.387
-108.883
-106.536
-99.5265
-87.3806
-70.9862
-51.3818
-29.4202
-5.86453
17.8765
40.0863
57.4516
74.8539
93.3004
108.741
121.524
131.334
139.079
143.767
147.152
147.751
145.572
147.034
147.178
156.475
132.08
199.82
115.237
83.6403
41.2434
19.6052
6.97779
-16.5521
-42.4858
-75.5016
-101.061
-240.614
-731.227
-1240.8
-1075.65
-353.731
-173.597
-41.8609
-86.493
-54.4752
-46.7303
-45.5625
-42.877
-36.5568
12.5928
58.6729
111.589
47.8133
124.354
130.452
168.018
196.85
222.567
245.417
260.989
266.053
265.754
-3.01251
-1.62775
-5.31998
-7.10392
-10.0945
-13.1328
-16.9308
-21.1138
-25.6713
-30.093
-33.7861
-35.8194
-38.6945
-60.5686
-81.557
-96.5627
-111.711
-123.352
-127.36
-124.864
-116.861
-102.757
-83.6403
-60.6685
-34.883
-7.15891
20.8587
47.3467
68.1443
87.1982
108.64
126.783
141.801
153.341
162.417
167.963
171.526
172.092
170.055
171.093
169.728
179.413
150.596
216.5
144.533
107.192
50.0702
25.889
8.78563
-25.5159
-61.5519
-111.203
-154.624
-336.823
-912.741
-1513.08
-1319.85
-481.815
-234.74
-69.9423
-108.837
-68.4942
-58.017
-56.5344
-53.7181
-47.0356
11.1968
56.191
129.994
53.3669
154.839
167.665
216.654
254.815
287.823
317.143
337.055
346.005
361.009
-3.21061
-2.40764
-6.46559
-8.7633
-12.4318
-16.285
-21.0933
-26.4331
-32.2768
-38.0325
-43.048
-46.3882
-50.136
-72.6276
-95.0758
-112.128
-128.661
-141.325
-145.916
-143.225
-134.105
-117.927
-95.949
-69.4281
-39.6308
-7.55667
24.8893
55.6744
80.0682
100.705
125.206
146.081
163.314
176.55
186.86
193.109
196.772
197.42
195.076
195.416
192.647
202.467
169.289
234.13
171.905
131.653
58.4325
32.7365
11.277
-35.2858
-82.5215
-151.839
-220.581
-456.212
-1115.88
-1800.02
-1577.23
-630.498
-300.539
-101.919
-131.442
-82.1366
-68.5711
-66.7623
-64.4387
-58.4953
6.20532
45.6745
140.036
56.6683
183.861
205.736
265.57
312.752
352.387
387.798
411.659
420.608
431.651
-3.2553
-3.25369
-7.54968
-10.4057
-14.7606
-19.4824
-25.3595
-31.9318
-39.1474
-46.3418
-52.8099
-57.6457
-62.4654
-85.3926
-109.22
-127.722
-145.208
-158.73
-163.741
-160.608
-150.205
-131.891
-107.033
-76.995
-43.2911
-7.0514
29.5543
64.2641
92.2147
114.343
141.466
164.784
183.938
198.643
209.975
216.773
220.391
221.091
218.394
217.971
213.742
223.556
186.414
250.643
196.47
157.087
66.6323
40.1019
13.3444
-46.2194
-106.408
-199.69
-304.232
-603.765
-1347.91
-2099.68
-1839.67
-783.679
-365.872
-136.579
-154.61
-96.2576
-79.3551
-77.22
-76.0138
-71.6843
-3.40533
26.393
142.297
57.0201
210.05
243.687
314.399
370.923
417.016
458.419
486.25
504.128
508.971
-3.19174
-4.17269
-8.60866
-12.066
-17.1119
-22.743
-29.7312
-37.5944
-46.252
-54.9758
-63.0107
-69.4928
-75.5864
-98.686
-124.062
-143.841
-162.227
-176.637
-181.989
-178.269
-166.522
-146.059
-118.298
-84.7384
-47.144
-6.77414
33.948
72.52
104.184
128.114
157.409
183.127
204.147
220.317
232.677
240.074
243.668
244.368
241.435
240.355
234.677
244.345
203.593
267.653
217.962
183.154
75.5396
48.3504
14.8879
-58.1243
-134.048
-258.113
-411.457
-789.477
-1624.42
-2424.67
-2110.55
-943.562
-432.466
-173.006
-178.061
-110.666
-90.2303
-87.8531
-88.6107
-86.8397
-18.361
-2.47963
135.353
54.738
233.815
281.945
363.366
429.307
481.506
528.642
560.189
581.943
605.004
-3.03533
-5.12129
-9.62491
-13.7223
-19.4677
-26.05
-34.1934
-43.4077
-53.5793
-63.9242
-73.6364
-81.8906
-89.4751
-112.669
-139.727
-160.734
-180.043
-195.326
-200.962
-196.584
-183.46
-160.814
-130.08
-92.9313
-51.3725
-6.79148
38.147
80.6743
116.243
142.569
173.453
201.657
224.584
242.269
255.709
263.763
267.373
268.057
264.923
263.224
256.131
265.453
221.204
284.68
236.022
209.28
85.6917
57.4446
15.4172
-71.951
-168.113
-332.819
-551.288
-1026.49
-1962.58
-2790.26
-2393.88
-1105.96
-500.587
-210.997
-201.53
-124.964
-100.863
-98.3535
-102.029
-103.776
-39.0832
-41.204
117.524
49.9008
255.05
320.457
412.515
488.003
546.02
598.712
633.63
656.544
677.104
-2.81403
-6.07829
-10.6051
-15.3769
-21.8315
-29.4025
-38.7402
-49.3606
-61.114
-73.1685
-84.6637
-94.7972
-104.089
-127.505
-156.15
-178.38
-198.635
-214.682
-220.534
-215.428
-200.84
-175.917
-142.101
-101.271
-55.6547
-6.78135
42.4449
88.969
128.527
158.018
189.762
220.499
245.326
264.501
279.012
287.715
291.325
291.979
288.616
286.262
277.76
286.503
238.74
301.024
250.344
234.44
97.0339
66.9743
14.3851
-89.2696
-212.047
-430.924
-736.022
-1334.71
-2384.52
-3214.85
-2696.85
-1271.16
-570.807
-250.59
-224.947
-139.008
-111.2
-108.679
-116.276
-122.416
-66.4257
-89.9104
86.8533
42.6947
274.02
359.395
462.001
547.083
610.6
668.634
706.772
737.8
754.674
-2.55013
-7.01911
-11.5484
-17.0222
-24.197
-32.7905
-43.3595
-55.4392
-68.8423
-82.6952
-96.0783
-108.189
-119.357
-143.033
-173.167
-196.747
-217.987
-234.688
-240.699
-234.8
-218.619
-191.296
-154.291
-109.683
-59.9204
-6.69162
46.8562
97.3853
140.905
174.304
206.325
239.546
266.244
286.852
302.394
311.718
315.297
315.911
312.302
309.259
299.34
307.283
255.987
316.384
260.714
257.767
109.057
76.6727
11.4538
-112.217
-270.035
-560.496
-980.009
-1735.48
-2915.47
-3723.34
-3033.3
-1442.02
-644.851
-292.115
-248.219
-152.603
-121.133
-118.737
-131.306
-142.626
-100.521
-149.626
42.3285
33.234
291.048
398.91
511.98
606.645
675.339
738.451
779.53
815.452
845.914
-2.26492
-7.92623
-12.4579
-18.6546
-26.5612
-36.2069
-48.0418
-61.6323
-76.7524
-92.4926
-107.868
-122.048
-135.194
-158.912
-190.721
-215.948
-238.178
-255.433
-261.557
-254.796
-236.885
-207.034
-166.738
-118.254
-64.254
-6.60008
51.3078
105.872
153.254
191.09
223.4
258.747
287.308
309.295
325.829
335.761
339.288
339.864
336.014
332.26
320.919
327.87
273.053
330.328
266.406
278.205
121.037
86.2279
6.27926
-143.104
-346.238
-728.961
-1295.84
-2244.05
-3574.39
-4343.8
-3423.35
-1625.19
-725.212
-336.124
-271.253
-165.53
-130.497
-128.351
-146.948
-164.323
-140.386
-221.756
-16.0508
21.7631
306.6
439.224
562.647
666.792
740.319
808.229
851.957
892.283
916.856
-1.97556
-8.78559
-13.3356
-20.2684
-28.9186
-39.6426
-52.7763
-67.928
-84.8331
-102.55
-120.023
-136.363
-151.525
-174.787
-208.737
-236.088
-259.282
-277.002
-283.188
-275.491
-255.712
-223.205
-179.503
-127.03
-68.6916
-6.52622
55.7983
114.447
165.554
208.086
241.594
278.179
308.58
331.885
349.372
359.899
363.357
363.911
359.821
355.326
342.567
348.364
290.081
343.466
267.202
295.208
132.209
95.2152
-1.6653
-184.054
-443.855
-940.761
-1688.36
-2873.6
-4371.96
-5100.93
-3889.81
-1831.31
-814.881
-383.236
-293.967
-177.609
-139.108
-137.303
-162.952
-187.418
-185.303
-306.408
-87.4451
8.81665
321.244
480.588
614.209
727.639
805.627
878.028
924.07
969.386
1007.39
-1.69569
-9.58757
-14.183
-21.8582
-31.2635
-43.0883
-57.5526
-74.3157
-93.0744
-112.859
-132.536
-151.131
-168.328
-190.839
-227.543
-257.408
-281.468
-299.48
-305.642
-296.931
-275.152
-239.851
-192.606
-136.011
-73.2214
-6.44636
60.3626
123.153
177.854
225.102
261.325
298.087
330.141
354.681
373.064
384.154
387.516
388.075
383.736
378.46
364.293
368.814
307.168
355.786
263.546
308.69
141.948
103.041
-13.0258
-236.389
-563.497
-1194.19
-2151.09
-3622.75
-5305.93
-6008.87
-4453.68
-2073.11
-917.353
-434.075
-316.325
-188.701
-146.75
-145.314
-178.983
-211.691
-234.814
-402.496
-170.441
-4.7585
335.661
523.287
666.889
789.304
871.351
947.946
995.839
1041.56
1076.6
-1.43513
-10.3261
-15.0008
-23.4179
-33.5896
-46.5345
-62.3604
-80.7844
-101.466
-123.409
-145.4
-166.354
-185.666
-207.847
-247.653
-280.085
-304.957
-323.037
-328.987
-319.149
-295.257
-257.016
-206.07
-145.203
-77.8358
-6.34268
65.0265
132.018
190.235
242.045
282.31
318.945
352.118
377.734
396.922
408.517
411.754
412.356
407.754
401.651
386.095
389.254
324.448
367.874
256.743
319.502
149.867
109.252
-28.2724
-299.947
-701.688
-1479.29
-2663.83
-4457.88
-6351.5
-7061.39
-5128.58
-2362.42
-1036.3
-489.275
-338.404
-198.691
-153.181
-152.056
-194.612
-236.823
-288.228
-508.215
-263.457
-17.9307
350.641
567.632
720.909
851.903
937.577
1018.06
1067.58
1121.02
1151.23
-1.2003
-10.9979
-15.7883
-24.9411
-35.8898
-49.9712
-67.1893
-87.3232
-109.997
-134.191
-158.611
-182.042
-203.611
-226.233
-269.053
-303.963
-329.766
-347.832
-353.342
-342.191
-316.074
-274.75
-219.929
-154.622
-82.5377
-6.2069
69.8101
141.071
202.792
258.901
303.833
341.172
374.764
401.124
420.966
432.982
436.059
436.758
431.875
424.895
407.987
409.727
342.097
379.55
249.823
329.132
155.826
113.781
-47.2033
-372.667
-851.02
-1779.88
-3196.24
-5325.02
-7460.81
-8222.88
-5914.92
-2707.74
-1174.91
-549.452
-360.368
-207.45
-158.137
-157.164
-209.361
-262.336
-344.69
-621.117
-364.807
-29.6094
367.043
613.958
776.488
915.545
1004.39
1088.39
1139.13
1195.79
1241.08
-0.994502
-11.6015
-16.5438
-26.421
-38.1565
-53.3886
-72.0287
-93.9207
-118.656
-145.196
-172.165
-198.213
-222.185
-245.782
-291.426
-328.957
-355.891
-373.984
-378.861
-366.153
-337.647
-293.1
-234.221
-164.289
-87.3286
-6.03016
74.738
150.346
215.621
275.686
325.351
364.672
398.416
425.052
445.25
457.571
460.43
461.295
456.105
448.194
429.992
430.264
360.342
391.565
245.921
339.358
160.113
117.01
-68.9803
-451.053
-1003.7
-2081.57
-3721.45
-6175.67
-8571.25
-9434.19
-6798.59
-3112.94
-1334.95
-615.009
-382.301
-214.767
-161.287
-160.23
-222.705
-287.462
-403.377
-738.097
-472.131
-38.5579
385.729
662.607
833.837
980.328
1071.86
1159.06
1210.51
1267.35
1310.65
-0.818508
-12.1358
-17.2641
-27.8503
-40.3814
-56.7763
-76.8677
-100.565
-127.43
-156.412
-186.059
-214.885
-241.411
-266.208
-314.584
-355.12
-383.424
-401.59
-405.689
-391.167
-360.04
-312.094
-248.981
-174.221
-92.2084
-5.80088
79.8358
159.889
228.802
292.444
346.654
388.897
423.212
449.808
469.913
482.328
484.864
485.982
480.452
471.547
452.129
450.878
379.419
405.029
248.148
352.358
163.659
119.502
-93.2661
-531.841
-1157.18
-2379.36
-4228.39
-6981.48
-9626.45
-10635
-7754.11
-3576.85
-1515.79
-685.771
-403.994
-220.29
-162.21
-160.818
-234.073
-311.068
-463.724
-855.865
-582.123
-43.1223
407.502
713.894
893.154
1046.34
1140.08
1230.14
1281.95
1344.84
1384.8
-0.671272
-12.5996
-17.9453
-29.2212
-42.5558
-60.1237
-81.6951
-107.244
-136.308
-167.829
-200.294
-232.085
-261.357
-287.659
-338.976
-382.6
-412.41
-430.701
-433.915
-417.365
-383.34
-331.773
-264.244
-184.443
-97.1821
-5.50881
85.1246
169.744
242.4
309.317
367.735
413.322
448.888
475.59
495.192
507.356
509.361
510.83
504.916
494.944
474.412
471.562
399.513
421.245
258.722
368.964
168.094
120.952
-121.067
-614.899
-1315.66
-2676.28
-4721.84
-7735.18
-10606.5
-11778.5
-8747.1
-4094.41
-1714.6
-760.729
-424.82
-223.483
-160.4
-158.47
-242.899
-331.832
-525.411
-971.391
-692.246
-41.2254
433.135
768.073
954.617
1113.67
1209.11
1301.66
1353.39
1419.43
1470.12
-0.550455
-12.9913
-18.5823
-30.5255
-44.6706
-63.4198
-86.499
-113.945
-145.276
-179.435
-214.866
-249.849
-282.144
-310.678
-365.167
-411.352
-442.701
-461.29
-463.588
-444.866
-407.662
-352.208
-280.05
-194.986
-102.263
-5.14874
90.6222
179.944
256.483
326.533
388.703
437.728
475.018
502.41
521.371
532.868
533.936
535.848
529.499
518.376
496.853
492.296
420.692
440.006
279.316
388.865
175.597
119.066
-153.854
-704.366
-1483.53
-2976.57
-5213.42
-8452.91
-11530
-12841
-9737.01
-4656.02
-1927.73
-838.126
-443.969
-223.699
-155.316
-152.741
-248.688
-348.61
-588.024
-1081.51
-804.501
-31.0743
463.483
825.33
1018.38
1182.38
1279.02
1373.71
1424.88
1493.19
1538.34
-0.452693
-13.3075
-19.1699
-31.7546
-46.7161
-66.6532
-91.2673
-120.655
-154.32
-191.22
-229.772
-268.198
-303.873
-335.609
-392.859
-441.089
-474.133
-493.309
-494.759
-473.785
-433.144
-373.499
-296.456
-205.895
-107.473
-4.7207
96.3461
190.518
271.129
344.306
409.791
462.101
501.299
530.022
548.642
559.212
558.721
561.049
554.204
541.831
519.453
513.053
442.904
460.951
309.284
412.399
188.2
111.448
-193.396
-803.077
-1661
-3281.47
-5710.24
-9163.02
-12437
-13842.9
-10687.6
-5243.84
-2150.3
-915.688
-460.811
-220.309
-146.445
-143.235
-251.009
-360.545
-651.283
-1184.81
-926.562
-12.1743
499.563
885.816
1084.54
1252.54
1349.87
1446.36
1496.46
1567.87
1622.09
-0.374227
-13.5432
-19.702
-32.8998
-48.6825
-69.812
-95.987
-127.358
-163.426
-203.178
-245.011
-287.123
-326.566
-362.268
-421.089
-471.524
-506.738
-526.783
-527.511
-504.242
-459.946
-395.767
-313.534
-217.223
-112.847
-4.23395
102.315
201.505
286.42
362.784
431.263
486.511
527.627
558.038
576.849
586.711
584.036
586.448
579.031
565.296
542.209
533.801
465.979
483.694
346.428
439.98
206.748
97.8561
-241.867
-911.036
-1846.59
-3589.28
-6208.82
-9887.64
-13367.6
-14838.4
-11576.2
-5833.78
-2374.87
-990.558
-474.78
-212.8
-133.425
-129.629
-249.487
-367.021
-714.762
-1276.87
-1062.25
14.701
542.442
949.667
1153.18
1324.21
1421.74
1519.69
1568.09
1638
1689.1
-0.311666
-13.6949
-20.172
-33.9516
-50.5592
-72.8839
-100.644
-134.04
-172.582
-215.306
-260.585
-306.602
-350.15
-390.265
-449.393
-502.672
-540.692
-561.84
-561.943
-536.353
-488.222
-419.148
-331.376
-229.029
-118.426
-3.71111
108.533
212.937
302.43
382.092
453.309
511.186
553.992
586.273
605.695
615.28
610.288
612.073
603.98
588.753
565.107
554.503
489.646
507.613
388.857
471.95
230.02
79.3923
-300.073
-1029.83
-2042.74
-3898.95
-6699.47
-10632.4
-14339.7
-15867.8
-12397.8
-6405.93
-2593.23
-1059.22
-484.933
-200.957
-116.19
-111.856
-243.86
-367.757
-777.82
-1354.96
-1197.01
49.2094
592.995
1017
1224.34
1397.42
1494.67
1593.78
1640.03
1714.74
1758.98
-0.261765
-13.761
-20.5724
-34.9007
-52.3346
-75.8553
-105.225
-140.686
-181.772
-227.592
-276.476
-326.583
-374.455
-419.185
-478.405
-534.937
-576.084
-598.57
-598.134
-570.218
-518.104
-443.772
-350.067
-241.364
-124.253
-3.18544
114.967
224.793
319.178
402.361
476.13
536.475
580.416
614.635
634.964
644.583
637.851
637.979
629.047
612.188
588.125
575.129
513.568
531.987
434.614
507.132
254.732
56.9536
-368.885
-1160.95
-2255
-4214.5
-7175.75
-11389
-15347.4
-16929.8
-13161.3
-6948.79
-2800.12
-1118.68
-489.804
-184.744
-95.0139
-90.2161
-233.989
-362.649
-836.919
-1417.29
-1310.46
92.348
651.797
1087.9
1298
1472.2
1568.72
1668.67
1712.2
1787.92
1839.44
-0.220974
-13.7402
-20.8944
-35.7376
-53.9961
-78.7116
-109.713
-147.276
-190.979
-240.013
-292.657
-346.981
-399.284
-448.718
-508.37
-568.417
-612.873
-636.965
-636.147
-605.931
-549.703
-469.749
-369.676
-254.256
-130.346
-2.67977
121.57
236.976
336.559
423.642
499.98
562.563
607.109
643.043
664.455
674.323
666.634
664.368
654.229
635.583
611.234
595.656
537.356
556.155
479.748
542.632
276.712
30.4472
-449.716
-1305.64
-2486.42
-4540.83
-7639.98
-12142.6
-16365.2
-17981.3
-13879.4
-7453.97
-2993.6
-1167.6
-488.12
-163.774
-70.18
-65.0982
-219.734
-351.696
-886.659
-1455.83
-1391.53
145.096
719.059
1162.36
1374.12
1548.56
1643.93
1744.45
1784.58
1858.25
1905.41
-0.185525
-13.6316
-21.1276
-36.4522
-55.5302
-81.4378
-114.087
-153.791
-200.186
-252.549
-309.099
-367.712
-424.475
-478.59
-538.334
-602.516
-651.068
-677.145
-676.087
-643.608
-583.128
-497.188
-390.263
-267.714
-136.686
-2.17575
128.344
249.409
354.35
445.748
524.981
589.441
634.508
671.521
694.09
704.361
696.284
691.612
679.549
658.923
634.401
616.073
560.576
579.523
518.891
575.448
292.788
-1.65024
-543.151
-1467.23
-2738.77
-4880.25
-8099.99
-12877.8
-17352.2
-18967.1
-14554.4
-7911.63
-3172.22
-1205.81
-479.366
-137.413
-41.6226
-36.6986
-200.954
-335.055
-923.262
-1462.93
-1436.32
208.2
794.67
1240.32
1452.62
1626.49
1720.34
1821.19
1857.39
1933.75
1971.78
-0.151427
-13.4351
-21.2624
-37.0337
-56.9226
-84.0166
-118.326
-160.211
-209.377
-265.185
-325.758
-388.699
-449.893
-508.524
-567.614
-636.962
-690.954
-719.468
-718.154
-683.396
-618.506
-526.202
-411.901
-281.747
-143.239
-1.61032
135.374
262.153
372.416
468.34
550.917
617.134
662.99
700.161
723.813
734.711
726.692
719.994
705.142
682.196
657.593
636.387
582.819
601.47
548.174
602.886
301.524
-41.6807
-649.772
-1649.96
-3015.08
-5235.66
-8560.08
-13579.6
-18265.8
-19858.5
-15177.3
-8311.21
-3332.42
-1232.96
-463.099
-105.353
-8.98731
-4.94502
-177.494
-313.085
-945.133
-1436.76
-1444.91
282.067
878.308
1321.66
1533.38
1705.97
1797.99
1898.93
1930.61
2007.02
2044.08
-0.114315
-13.1511
-21.2901
-37.4697
-58.1582
-86.4226
-122.409
-166.514
-218.537
-277.896
-342.573
-409.851
-475.452
-538.392
-597.105
-672.842
-733.022
-764.24
-762.58
-725.463
-655.983
-556.915
-434.677
-296.378
-149.979
-0.915515
142.79
275.399
390.89
491.27
577.419
645.609
692.585
729.165
753.579
765.258
757.79
749.567
731.345
705.402
680.775
656.623
603.764
621.232
566.391
622.571
302.542
-91.5604
-771.631
-1857.5
-3319.36
-5610.83
-9020.53
-14228.1
-19088.8
-20644.1
-15732.3
-8642.93
-3468.43
-1248.02
-438.688
-67.5638
28.1099
30.4032
-149.09
-286.357
-952.81
-1383
-1418.3
366.808
969.522
1406.21
1616.25
1786.96
1876.88
1977.7
2004.3
2079.38
2104.88
-0.0694484
-12.7797
-21.2027
-37.7465
-59.222
-88.6317
-126.307
-172.679
-227.643
-290.643
-359.474
-431.085
-501.175
-568.393
-628.093
-710.938
-777.392
-811.52
-809.537
-769.985
-695.711
-589.461
-458.696
-311.655
-156.902
-0.0522459
150.669
289.306
410.014
514.693
604.35
674.719
723.045
758.822
783.433
795.815
789.441
780.159
758.643
728.6
703.917
676.814
623.254
638.029
574.506
632.529
295.392
-152.467
-911.814
-2093.18
-3656
-6010.66
-9481.92
-14805.3
-19844.9
-21313.7
-16210.6
-8898.22
-3573.5
-1249.45
-405.271
-23.8928
69.8631
69.621
-115.453
-255.538
-948.196
-1311.53
-1356.72
462.052
1067.7
1493.76
1701.04
1869.41
1956.98
2057.5
2078.51
2153
2168.71
-0.0120226
-12.3204
-20.9926
-37.8503
-60.0963
-90.6401
-130
-178.676
-236.666
-303.373
-376.38
-452.385
-527.204
-598.856
-660.726
-750.403
-823.771
-861.38
-859.234
-817.157
-737.846
-623.979
-484.075
-327.643
-164.024
0.986044
159.014
303.904
429.902
538.801
631.809
704.401
754.156
789.307
813.465
826.289
821.394
811.477
787.44
751.972
727
697.007
641.312
651.263
574.702
632.51
279.446
-225.217
-1073.32
-2360.25
-4030.04
-6440.5
-9943.32
-15308.3
-20543.1
-21829.8
-16611
-9069.57
-3640.61
-1235.87
-361.853
25.8878
116.372
112.948
-76.3265
-220.785
-932.181
-1230.52
-1259.25
566.942
1172.03
1584.09
1787.59
1953.18
2038.2
2138.3
2153.22
2222.79
2227.52
0.0622675
-11.7725
-20.6531
-37.7686
-60.7517
-92.4432
-133.475
-184.486
-245.57
-316.027
-393.232
-473.816
-553.726
-630.078
-694.859
-791.069
-872.44
-914.162
-911.962
-867.202
-782.561
-660.608
-510.937
-344.424
-171.371
2.193
167.801
319.147
450.525
563.642
659.898
734.737
785.878
820.633
843.829
856.662
853.419
843.291
817.678
775.947
750.021
717.247
658.094
660.768
570.325
623.815
253.915
-311.473
-1258.52
-2661.7
-4446.69
-6905.97
-10405.8
-15741.9
-21130.2
-22167.9
-16911.8
-9147.24
-3663.7
-1204.49
-307.659
81.8126
167.729
160.403
-31.5962
-181.827
-905.13
-1145
-1123.71
680.54
1281.45
1676.94
1875.72
2038.15
2120.51
2220.11
2228.59
2297.38
2279.3
0.156781
-11.135
-20.1789
-37.4933
-61.1599
-94.003
-136.712
-190.082
-254.312
-328.537
-410.019
-495.493
-580.903
-662.372
-731.163
-834.581
-924.212
-970.214
-967.929
-920.316
-830.029
-699.486
-539.397
-362.087
-178.98
3.56008
177.014
335.002
471.848
589.194
688.644
765.823
818.261
852.797
874.717
886.924
885.397
875.413
848.961
801.153
773.046
737.584
673.839
666.742
562.361
606.86
218.039
-413.08
-1469
-3000.28
-4911.16
-7413.29
-10872.9
-16108.9
-21552.3
-22309.6
-17070.8
-9117.19
-3637.74
-1149.72
-242.01
143.749
223.932
211.688
18.6922
-138.799
-867.735
-1063.34
-949.011
802.338
1394.83
1772.06
1965.22
2124.16
2203.85
2302.88
2304.72
2369.69
2331.03
0.273876
-10.4055
-19.5645
-37.0208
-61.3166
-95.2772
-139.678
-195.432
-262.84
-340.861
-426.785
-517.518
-608.859
-696.099
-770.753
-881.566
-979.068
-1029.58
-1027.26
-976.655
-880.392
-740.74
-569.561
-380.72
-186.885
5.09222
186.659
351.466
493.864
615.457
718.057
797.694
851.358
885.833
906.31
917.178
917.295
907.723
880.98
827.965
796.229
758.072
688.783
669.584
548.826
581.168
169.909
-531.337
-1705.46
-3378.72
-5428.93
-7969.33
-11351.1
-16415.9
-21797
-22216.2
-17064.5
-8971.92
-3555
-1065.96
-164.251
211.519
284.752
266.367
74.5145
-92.0955
-821.182
-1001.77
-738.523
932.287
1511.09
1869.14
2055.83
2211.08
2288.12
2386.55
2381.57
2440.18
2380.81
0.415099
-9.58076
-18.8022
-36.3395
-61.2269
-96.2504
-142.338
-200.499
-271.109
-352.986
-443.59
-539.948
-637.683
-731.531
-814.108
-930.834
-1036.58
-1092.32
-1090.12
-1036.37
-933.766
-784.472
-601.514
-400.393
-195.116
6.80214
196.773
368.561
516.562
642.443
748.15
830.336
885.243
919.787
938.763
947.717
949.068
940.125
913.602
856.511
819.939
778.776
703.12
669.789
528.934
546.592
108.261
-668.51
-1968.18
-3800.31
-6005.91
-8581.8
-11849.4
-16673.6
-21866.5
-21872.6
-16892.8
-8712.22
-3405.18
-949.695
-73.7401
284.949
349.789
324.125
135.738
-42.5651
-763.658
-976.487
-500.593
1070.34
1629.32
1967.76
2147.33
2298.68
2373.15
2470.99
2459.13
2513.83
2422.84
0.581274
-8.6564
-17.8832
-35.4279
-60.8833
-96.9159
-144.665
-205.254
-279.089
-364.928
-460.474
-562.802
-667.436
-768.804
-860.923
-982.28
-1097.32
-1158.8
-1156.71
-1099.58
-990.229
-830.757
-635.318
-421.159
-203.697
8.71739
207.42
386.343
539.955
670.156
778.918
863.69
919.978
954.701
972.219
978.928
980.701
972.476
946.799
886.917
844.818
799.8
717.036
667.856
503.986
503.117
32.363
-828.289
-2256.82
-4269.36
-6649.35
-9259.93
-12378.8
-16894.4
-21765.8
-21282.3
-16546.4
-8339.59
-3180.26
-799.04
30.1222
363.837
418.579
384.733
202.152
9.6614
-692.234
-986.686
-245.696
1215.87
1748.74
2067.42
2239.42
2386.7
2458.74
2555.95
2537.32
2586.49
2465.84
0.772491
-7.62802
-16.8012
-34.2733
-60.271
-97.257
-146.641
-209.675
-286.771
-376.708
-477.442
-586.083
-698.15
-807.956
-910.776
-1037
-1161.84
-1229.07
-1227.1
-1166.34
-1049.84
-879.641
-671.012
-443.052
-212.637
10.8859
218.688
404.92
564.137
698.634
810.378
897.678
955.494
990.589
1006.81
1011.13
1012.42
1004.64
980.486
919.07
871.607
821.357
730.73
664.26
474.418
450.694
-58.7191
-1014.8
-2571.13
-4790.69
-7368.12
-10014.3
-12949
-17087.7
-21496.4
-20484.8
-16011.4
-7852.38
-2875.91
-612.271
147.934
447.882
490.563
447.771
273.093
67.1954
-605.744
-1011.7
16.2393
1367.37
1868.68
2167.6
2331.76
2474.84
2544.63
2641.14
2615.93
2659.08
2510.95
0.988003
-6.49013
-15.5466
-32.872
-59.3694
-97.2479
-148.258
-213.756
-294.158
-388.331
-494.479
-609.789
-729.836
-848.945
-963.333
-1094.79
-1229.53
-1302.98
-1301.37
-1236.77
-1112.68
-931.163
-708.612
-466.08
-221.925
13.3706
230.683
424.432
589.271
727.987
842.632
932.293
991.61
1027.46
1042.61
1044.53
1044.73
1036.59
1014.37
952.984
901.334
843.969
744.439
659.515
440.617
389.352
-165.845
-1232.94
-2914.91
-5368.73
-8172.48
-10855.3
-13569
-17258.5
-21066.4
-19555.8
-15291.9
-7248.58
-2490.31
-386.823
280.557
536.791
565.049
512.47
347.133
133.306
-494.511
-1017.46
277.996
1522.44
1988.47
2267.77
2423.97
2562.75
2630.54
2726.17
2694.71
2733.13
2551.6
1.22603
-5.23651
-14.1031
-31.2124
-58.1508
-96.8693
-149.516
-217.501
-301.249
-399.783
-511.561
-633.906
-762.475
-891.673
-1018.24
-1154.56
-1300.19
-1380.81
-1379.76
-1310.99
-1178.82
-985.352
-748.117
-490.227
-231.532
16.2536
243.527
445.039
615.545
758.382
875.861
967.679
1028.25
1065.3
1079.66
1079.29
1078.13
1068.54
1047.99
988.32
934.691
868.516
758.457
654.079
404.055
319.255
-289.968
-1486.82
-3294.01
-6008.82
-9073.98
-11793
-14251.1
-17416.9
-20502.5
-18548.2
-14406.7
-6530.16
-2022.83
-119.026
429.668
630.64
641.604
578.252
422.635
211.192
-335.154
-959.21
537.42
1678.27
2107.38
2367.35
2515.63
2650.1
2716.18
2810.58
2773.45
2806.54
2601.53
1.48402
-3.86512
-12.472
-29.2941
-56.595
-96.1216
-150.427
-220.912
-308.029
-411.033
-528.663
-658.407