/*--------------------------------*- C++ -*----------------------------------*\
| =========                 |                                                 |
| \\      /  F ield         | OpenFOAM: The Open Source CFD Toolbox           |
|  \\    /   O peration     | Version:  4.1                                   |
|   \\  /    A nd           | Web:      www.OpenFOAM.org                      |
|    \\/     M anipulation  |                                                 |
\*---------------------------------------------------------------------------*/
FoamFile
{
    version     2.0;
    format      ascii;
    class       surfaceScalarField;
    location    "7";
    object      phi;
}
// * * * * * * * * * * * * * * * * * * * * * * * * * * * * * * * * * * * * * //

dimensions      [0 3 -1 0 0 0 0];

internalField   nonuniform List<scalar> 
13220
(
-898.81
2198.73
-1400.28
1801.69
-1866.81
1766.45
-2223.79
1656.89
-2497.06
1573.49
-2690.31
1493.17
-2805.26
1414.85
-2841.92
1336.87
-2798.74
1256.73
-2671.42
1172.6
-2459.9
1088.69
-2162.78
1002.8
-1747.78
884.917
-1128.46
680.909
171.437
31.0657
2167.7
9.43035
1823.36
-90.1588
1866.08
-157.772
1724.54
-227.299
1643.06
-279.717
1545.62
-314.39
1449.57
-328.918
1351.43
-327.831
1255.68
-320.686
1165.48
-314.786
1082.8
-317.235
1005.28
-313.166
880.883
-170.852
538.689
0.592349
-92.9411
2260.66
-253.193
1983.63
-410.075
2022.98
-496.262
1810.75
-572.254
1719.08
-611.286
1584.68
-623.49
1461.8
-609.121
1337.09
-570.528
1217.11
-514.291
1109.29
-450.247
1018.8
-376.194
931.343
-293.251
798.097
-192.934
438.799
-192.345
-3.96834
2264.63
-50.204
2029.87
-82.8315
2055.61
-82.2125
1810.14
-83.294
1720.16
-61.235
1562.63
-29.3127
1429.89
19.3992
1288.4
101.693
1134.85
249.479
961.508
455.143
813.177
648.382
738.021
736.95
709.471
570.121
605.544
377.776
-3.1276
2267.75
-42.8257
2069.56
-67.284
2080.06
-91.9555
1834.8
-126.891
1755.09
-154.996
1590.72
-193.356
1468.23
-226.839
1321.86
-217.923
1125.91
-98.9612
842.524
124.098
590.053
324.453
537.686
406.831
627.076
288.433
723.923
666.208
-7.4605
2275.19
-132.069
2194.15
-209.554
2157.53
-294.11
1919.33
-391.569
1852.52
-486.293
1685.42
-593.559
1575.47
-704.116
1432.4
-805.613
1227.38
-857.009
893.881
-801.771
534.808
-606.117
341.912
-322.86
343.709
-93.1958
494.117
573.011
77.2178
2197.95
-55.6832
2327.03
-120.173
2221.99
-183.357
1982.49
-245.275
1914.41
-310.367
1750.49
-377.163
1642.24
-452.446
1507.66
-561.886
1336.8
-734.816
1066.79
-928.373
728.344
-1001.62
415.138
-821.913
163.96
-423.413
95.5639
149.598
170.282
2027.65
114.59
2382.7
105.992
2230.57
107.125
1981.34
125.624
1895.89
136.718
1739.38
155.174
1623.77
168.642
1494.17
153.885
1351.54
57.3359
1163.32
-133.876
919.546
-347.447
628.665
-460.281
276.734
-363.601
-1.1899
-214.005
191.119
1836.52
201.367
2372.44
225.66
2206.27
263.838
1943.15
316.197
1843.52
363.066
1692.5
416.165
1570.66
468.854
1441.48
511.037
1309.35
512.431
1161.91
445.22
986.76
299.776
774.047
80.071
496.323
-83.06
161.779
-297.064
151.533
1684.98
177.288
2346.68
195.744
2187.81
224.82
1914.07
264.534
1803.8
301.985
1655.04
342.515
1530.12
382.791
1401.2
418.524
1273.61
439.654
1140.79
431.946
994.453
379.519
826.526
269.444
606.456
104.201
327.12
-192.864
109.306
1575.68
142.54
2313.45
164.147
2166.2
186.484
1891.73
211.633
1778.65
236.871
1629.8
258.713
1508.28
273.571
1386.34
280.624
1266.56
282.165
1139.24
275.255
1001.37
251.225
850.524
199.226
658.427
113.93
412.348
-78.9323
62.102
1513.58
71.885
2303.67
45.3237
2192.77
22.9552
1914.11
25.5362
1776.08
36.8139
1618.53
64.1993
1480.9
106.353
1344.19
143.122
1229.79
163.61
1118.76
165.727
999.254
149.128
867.156
115.243
692.346
64.7984
462.916
-14.1339
254.956
1258.63
393.706
2164.93
485.623
2100.85
522.229
1877.5
551.401
1746.91
556.117
1613.82
548.866
1488.15
540.861
1352.2
535.573
1235.08
520.454
1133.88
474.251
1045.46
384.434
956.971
222.768
854.012
40.0944
645.594
25.9612
-976.397
2235.03
-1418.94
2607.48
-1646.87
2328.78
-1812.2
2042.84
-1826.7
1761.41
-1658.91
1446.03
-1314.2
1143.45
-869.305
907.303
-437.656
803.436
-102.5
798.731
157.188
785.772
358.092
756.075
481.227
730.888
538.8
588.043
564.762
-1856.92
-2928.93
-3647.01
-4264.93
-4563.89
-4734.31
-4727.76
-4605.6
-4411
-4147.61
-3557.74
-2612.47
-1821.76
-1026.43
0.000220667
-1594.04
1594.04
-1594.03
-1594.03
-1594.03
-2920.58
1326.54
-2920.58
-2920.58
-2920.58
-3351.96
431.388
-3351.96
-3351.96
-2130.28
-1221.69
-2130.28
-2130.28
-2130.28
379.393
-2509.67
379.393
379.393
3391.2
-3011.81
3391.2
3391.2
3391.2
6257.9
-2866.7
6257.9
6257.9
6257.9
8751.74
-2493.84
8751.74
8751.74
10869.6
-2117.88
10869.6
10869.6
10869.6
12500.7
-1631.05
12500.7
12500.7
13738.5
-1237.89
13738.5
13738.5
13738.5
14572.1
-833.517
14572.1
14572.1
14572.1
15072.2
-500.113
15072.2
15072.2
15302
-229.774
15302
15302
15302
15284.2
17.7687
15284.2
15284.2
15284.2
15083.5
200.706
15083.5
15083.5
14743.6
339.864
14743.6
14743.6
14743.6
14297.4
446.25
14297.4
14297.4
13769.2
528.138
13769.2
13769.2
13769.2
13167.7
601.529
13167.7
13167.7
13167.7
12502.9
664.76
12502.9
12502.9
11747.8
755.099
11747.8
11747.8
11615.3
11508.4
11434.7
10530.5
819.639
10486.5
10443.8
10407.6
10370.3
10331
10287.9
10256.1
10231.2
9411.84
794.923
9418.44
9416.64
9408.82
9397.87
9394.79
9359.9
9287.59
9234.89
8969.78
224.707
8967.03
9001.62
9065.07
9146.11
9235.93
9328.58
9430.36
9543.05
9653.47
7795.02
1949.26
7908.3
8020.12
8131.12
8244.85
8362
8495.84
8644.62
8793.9
6752.2
2167.72
6913.81
7090.58
7295.43
7504.08
7717.42
7937.32
8161.37
8442.99
6240.36
2474.23
6554.57
6878.52
7198.22
7553.56
7931.12
8313.59
8704.38
9102.26
6527.69
2981.75
7024.72
7535.53
8039.44
8541.62
9039.27
9589.23
10149.6
10718.5
11295.6
8385.91
3475.44
9059.54
9777.99
10471.4
11151.8
11826.9
12527.2
13281
14039.3
11945.3
2805.44
12716.3
13551.5
13551.5
10843.9
2707.65
8578.86
2264.99
8578.86
7377.36
1201.5
7377.36
7126.06
251.293
7499.84
-373.78
7499.84
8080.89
-581.045
8886.24
-805.354
8886.24
9660.9
-774.658
9660.9
10377.9
-716.965
11214.3
-836.48
11214.3
12066.8
-852.424
12066.8
12987.3
-920.544
14138.5
-1151.16
14138.5
15440.8
-1302.32
16982.9
-1542.08
16982.9
18672.3
-1689.41
18672.3
20389.9
-1717.64
22139.4
-1749.51
22139.4
23827.6
-1688.17
23827.6
25390.3
-1562.66
26797.5
-1407.23
26797.5
28110.3
-1312.78
29201.7
-1091.45
29201.7
30232.1
-1030.42
30232.1
31180.6
-948.445
31903.3
-722.668
31903.3
32645.4
-742.091
32645.4
33370.2
-724.826
33883.4
-513.251
33883.4
34518.9
-635.431
34931.8
-412.921
34931.8
35450.7
-518.876
35450.7
36014.6
-563.925
36377
-362.452
36377
36875
-497.927
36875
37433.6
-558.605
37799.9
-366.353
37799.9
38363.2
-563.243
38713.9
-350.761
38713.9
39221.3
-507.414
39221.3
39803.9
-582.534
40190.5
-386.606
40190.5
40751.6
-561.08
40751.6
41394.3
-642.775
41853.8
-459.444
41853.8
42547.4
-693.632
43046.7
-499.323
43046.7
43751
-704.229
43751
-837.025
-2422.38
-5727.17
-2566.24
-6248.24
-2620.26
-6323.23
-2623.13
-6608.45
-2566.38
-6781.37
-2465.15
-6912.18
-2330.36
-6893.97
-2174.6
-6700.26
-2008.86
-6264.91
-1845.89
-5536.81
-1691.96
-4386.55
-1532.53
-2322.07
-1371.42
1571.36
-1310.49
4511.04
-1223.07
6884.37
-1111.64
9113.56
-989.704
11207.8
-869.125
13104.3
-758.757
14729.8
-667.212
16067.3
-592.418
17182.2
-529.846
18115.8
-473.667
18916.2
-416.308
19605.5
-354.579
20169.2
-284.564
20538
-202.165
20619.4
-115.185
20200.1
-34.461
19946.9
10.2738
19996.6
56.7455
20685.3
110.303
20933.3
165.556
21091.3
219.572
21325.3
264.589
21509.8
289.364
20893.7
301.549
20592.8
361.646
24830.9
351.35
23893.8
274.406
20231.4
215.334
22764.7
136.297
27238.8
2.13148
29290.5
-213.859
25895.8
-785.9
-13870.5
-769.027
-15758.2
-557.375
-8566.09
-266.618
-4839.84
508.357
-5416.42
1083.71
-6194.44
1406.6
-5327.37
1596.42
-2642.29
2283.96
2306.17
3401.2
14073
4449.87
25572.7
5183.29
30523.9
4838.9
22310.8
3275.95
3153.68
1927.84
4707.26
1733.87
27693
1700.79
32962.3
1667.28
32019
1644.87
29843.7
1625.85
27543.8
1597.24
24951.6
1534.79
21532.6
1529.02
15402.8
665.952
2877.42
192.301
-14492.2
1040.25
-29425.4
1843.93
-39015.4
2427.33
-42758.7
2674.08
-44067.3
2631.77
-44297.9
2370.58
-44256.7
1982.39
-44439.5
1534.54
-44828.4
1166.71
-45515.5
-46549.8
-2550.76
-5624.36
-2660.08
-6138.92
-2671.41
-6311.9
-2632.12
-6647.74
-2536.34
-6877.15
-2402.9
-7045.62
-2242.36
-7054.51
-2066.64
-6875.98
-1885.59
-6445.96
-1711.72
-5710.68
-1555.26
-4543.01
-1401.88
-2475.45
-1238.58
1408.07
-1227.96
4500.41
-1179.97
6836.38
-1085.97
9019.56
-974.176
11096
-862.189
12992.3
-758.486
14626.1
-671.514
15980.3
-600.167
17110.8
-539.907
18055.6
-485.065
18861.4
-428.495
19548.9
-367.02
20107.7
-296.609
20467.6
-212.996
20535.8
-124.836
20111.9
-45.0872
19867.1
0.218525
19951.3
48.763
20636.7
103.731
20878.4
160.279
21034.8
215.35
21270.2
261.488
21463.6
286.996
20868.2
300.757
20579
362.099
24769.6
349.428
23906.5
271.511
20309.3
211.53
22824.7
137.798
27312.6
-12.608
29440.9
-194.42
26077.6
-801.752
-13263.2
-653.283
-15906.7
-365.715
-8853.66
-57.4787
-5148.07
808.985
-6282.89
1493.23
-6878.69
1940.09
-5774.23
2022.02
-2724.22
2465.56
1862.63
3548.71
12989.8
4502.86
24618.6
5140.65
29886.1
4712.32
22739.1
3161.21
4704.79
1855.78
6012.7
1734.26
27814.5
1702.09
32994.4
1666.4
32054.7
1644.91
29865.2
1626.77
27562
1596.02
24982.3
1521.23
21607.4
1482.84
15441.1
502.165
3858.1
85.6183
-14075.6
1096.56
-30436.3
1950.6
-39869.4
2541.16
-43349.3
2765.56
-44291.7
2696.69
-44229
2413.86
-43973.8
2008.99
-44034.6
1544.88
-44364.3
1073.07
-45043.7
-46180.9
-2604.72
-5538.29
-2679.42
-6064.22
-2660.29
-6331.03
-2594.92
-6713.12
-2478.98
-6993.09
-2331.26
-7193.34
-2160.88
-7224.89
-1978.43
-7058.43
-1792.31
-6632.09
-1613.38
-5889.6
-1450.61
-4705.79
-1288.2
-2637.86
-1119
1238.87
-1122.09
4503.5
-1104.77
6819.06
-1042.27
8957.05
-949.098
11002.8
-847.692
12890.9
-753.189
14531.6
-673.558
15900.7
-607.457
17044.7
-551.202
17999.3
-499.273
18809.5
-444.636
19494.3
-384.32
20047.4
-314.119
20397.4
-229.484
20451.1
-139.948
20022.4
-59.7813
19787
-14.6743
19906.2
35.9517
20586.1
93.1836
20821.1
151.733
20976.2
208.819
21213.1
256.73
21415.7
284.303
20840.6
299.653
20563.7
362.306
24706.9
349.479
23919.3
270.252
20388.5
210.509
22884.4
132.182
27390.9
-15.1668
29588.3
-226.753
26289.2
-836.14
-12653.8
-682.944
-16059.9
-287.548
-9249.06
146.822
-5582.44
1020.48
-7156.54
1726.74
-7584.95
2279.8
-6327.3
2491.18
-2935.59
2819.67
1534.14
3738.45
12071
4618.25
23738.8
5236.88
29267.5
4874.14
23101.9
3270.79
6308.14
1860.71
7422.78
1737.34
27937.9
1706.5
33025.3
1666.92
32094.3
1645.08
29887
1626.39
27580.7
1588.6
25020.1
1494.24
21701.8
1398.61
15536.8
373.559
4883.15
48.9053
-13751
1129.05
-31516.5
2009.88
-40750.3
2595.48
-43934.9
2801.98
-44498.2
2717.66
-44144.7
2426.53
-43682.7
2017.61
-43625.7
1548.99
-43895.7
1085.01
-44579.7
-45595.2
-2657.88
-5470.26
-2697.76
-6024.34
-2648.43
-6380.36
-2557.7
-6803.85
-2422.24
-7128.55
-2260.78
-7354.8
-2081.15
-7404.52
-1892.66
-7246.92
-1702.08
-6822.67
-1518.44
-6073.24
-1349.28
-4874.95
-1177.59
-2809.55
-1002.2
1063.48
-1012.19
4513.49
-1015.53
6822.41
-982.41
8923.93
-914.873
10935.3
-828.465
12804.5
-744.488
14447.7
-673.693
15829.9
-614.331
16985.4
-563.145
17948.1
-515.113
18761.4
-463.233
19442.4
-404.687
19988.8
-335.179
20327.9
-249.843
20365.8
-158.421
19931
-76.9571
19705.5
-32.1216
19861.3
20.4253
20533.5
80.2877
20761.3
141.346
20915.1
200.975
21153.5
251.211
21365.5
281.359
20810.5
298.961
20546.1
362.69
24643.2
351.174
23930.9
271.727
20468
212.288
22943.9
129.872
27473.3
-19.4747
29737.6
-256.126
26525.9
-860.147
-12049.8
-714.917
-16205.1
-222.817
-9741.16
308.951
-6114.21
1178.9
-8026.49
1922.26
-8328.3
2566.23
-6971.27
3016.17
-3385.53
3337.37
1212.94
4052.09
11356.3
4921.51
22869.4
5532.66
28656.3
5151.69
23482.9
3449.6
8010.23
1923.69
8948.69
1760.01
28101.5
1714.78
33070.5
1669.87
32139.2
1645.5
29911.4
1624.21
27602
1574.99
25069.3
1455.67
21821.1
1286.54
15705.9
217.841
5951.85
2.94219
-13536.1
1169.35
-32682.9
2082.25
-41663.2
2660.87
-44513.5
2845.13
-44682.5
2741.55
-44041.1
2439.86
-43381
2025.65
-43211.5
1551.87
-43421.9
1084.79
-44112.6
-45204.1
-2692.03
-5423.46
-2696.43
-6019.94
-2619.67
-6457.11
-2507.56
-6915.97
-2357.33
-7278.78
-2186.88
-7525.24
-2002.47
-7588.94
-1811.85
-7437.54
-1619.95
-7014.57
-1433.77
-6259.42
-1259.08
-5049.65
-1076.85
-2991.78
-886.563
873.193
-897.486
4524.41
-917.4
6842.33
-907.997
8914.53
-867.624
10894.9
-802.308
12739.2
-732.011
14377.4
-671.386
15769.3
-620.472
16934.5
-575.731
17903.4
-532.698
18718.4
-484.555
19394.2
-428.541
19932.8
-360.335
20259.7
-274.739
20280.2
-181.195
19837.4
-97.6446
19622
-52.9976
19816.7
1.5349
20479
64.4384
20698.4
128.534
20851.1
191.245
21090.8
244.456
21312.3
277.805
20777.1
298.136
20525.7
363.302
24578.1
354.063
23940.1
275.285
20546.8
216.994
23002.2
132.726
27557.6
-22.1005
29892.4
-286.361
26790.1
-894.743
-11441.4
-773.459
-16326.4
-191.962
-10322.7
429.498
-6735.67
1282.31
-8879.31
2093.49
-9139.48
2854.58
-7732.36
3561.7
-4092.64
4036.03
738.604
4660.03
10732.3
5501.45
22028
6031.5
28126.3
5532.4
23981.9
3696.16
9846.47
2040.16
10604.7
1803.68
28338
1728.61
33145.6
1674.86
32192.9
1645.4
29940.9
1619.48
27627.9
1554.9
25133.9
1407.19
21968.8
1155.65
15957.4
62.8799
7044.63
-24.4792
-13448.7
1212.66
-33920
2152.12
-42602.6
2717.44
-45078.9
2876.54
-44841.6
2753.82
-43918.4
2443.82
-43071
2027.57
-42795.2
1551.72
-42946.1
1055.14
-43616.1
-44608.4
-2711.51
-5399.08
-2682.2
-6049.25
-2581.99
-6557.32
-2452.75
-7045.2
-2291.97
-7439.56
-2116.22
-7700.99
-1930.06
-7775.1
-1739.66
-7627.94
-1548.11
-7206.12
-1360.38
-6447.15
-1180.71
-5229.31
-987.977
-3184.51
-774.358
659.575
-778.454
4528.5
-813.093
6876.96
-823.331
8924.76
-806.838
10878.4
-766.421
12698.7
-714.405
14325.3
-665.881
15720.7
-624.943
16893.5
-588.336
17866.8
-551.564
18681.6
-508.276
19350.9
-455.723
19880.3
-389.544
20193.5
-304.217
20194.9
-208.634
19741.8
-122.412
19535.7
-77.765
19772.1
-21.1575
20422.4
45.2039
20632
112.892
20783.4
179.27
21024.4
236.121
21255.4
273.37
20739.9
296.786
20502.3
363.991
24510.8
357.943
23946.1
280.588
20624.1
224.447
23058.3
140.171
27641.9
-19.9874
30052.6
-312.244
27082.4
-933.422
-10820.2
-846.831
-16413
-205.013
-10964.5
490.309
-7430.99
1337.75
-9726.75
2253.7
-10055.4
3203.44
-8682.11
4157.63
-5046.83
4917.41
-21.1791
5663.73
9986
6424.72
21267
6749.34
27801.6
6022.79
24708.5
3992.34
11876.9
2197.16
12399.9
1864.23
28670.9
1747.2
33262.6
1680.95
32259.2
1644.56
29977.3
1612.44
27660
1529.3
25217
1352.38
22145.7
1005.88
16303.9
-96.6782
8147.18
-39.2372
-13506.2
1260.26
-35219.5
2222.16
-43564.5
2768.82
-45625.5
2899.99
-44972.8
2757.71
-43776.1
2440.54
-42753.9
2024.13
-42378.8
1549.4
-42471.3
1091.68
-43158.3
-44159.5
-2716.99
-5397.47
-2656.77
-6109.47
-2537.56
-6676.54
-2395.45
-7187.32
-2228.07
-7606.94
-2050.26
-7878.79
-1864.83
-7960.53
-1676.28
-7816.49
-1486
-7396.4
-1297.17
-6635.98
-1112.81
-5413.67
-910.929
-3386.4
-669.711
418.356
-656.475
4515.27
-702.866
6923.36
-732.015
8953.91
-735.307
10881.7
-719.506
12682.9
-689.869
14295.7
-656.537
15687.4
-626.923
16863.9
-600.107
17840
-570.987
18652.5
-533.693
19313.6
-485.593
19832.2
-422.215
20130.2
-337.796
20110.4
-240.553
19644.6
-151.363
19446.6
-106.289
19727
-47.5736
20363.7
22.6039
20561.8
94.386
20711.6
164.984
20953.8
226.085
21194.3
267.888
20698.1
294.782
20475.4
364.517
24441.1
362.586
23948.1
287.476
20699.2
234.361
23111.4
151.381
27724.8
-12.4561
30216.4
-334.106
27404
-973.572
-10180.8
-930.042
-16456.5
-275.283
-11619.2
479.704
-8185.98
1369.09
-10616.1
2432.56
-11118.9
3631.47
-9881.01
4905.04
-6320.4
6034.85
-1150.99
7008.72
9012.14
7663.92
20611.8
7680.37
27785.2
6622.78
25766.1
4333.74
14166
2382.6
14351
1937.02
29116.5
1769.53
33430.1
1688.5
32340.2
1644.51
30021.3
1604.9
27699.6
1500.5
25321.4
1294.4
22351.8
836.735
16761.6
-265
9248.92
-41.822
-13729.3
1312.65
-36574
2290.62
-44542.5
2812.62
-46147.5
2913.48
-45073.6
2751.86
-43614.5
2429.1
-42431.1
2014.98
-41964.7
1541.57
-41997.9
1010.96
-42627.7
-43709.6
-2710.61
-5417.77
-2623.46
-6196.61
-2489.95
-6810.05
-2339.04
-7338.23
-2168.55
-7777.43
-1991.21
-8056.13
-1808.05
-8143.69
-1621.96
-8002.58
-1432.94
-7585.42
-1242.71
-6826.21
-1053.43
-5602.94
-843.903
-3595.93
-575.878
150.332
-535.109
4474.5
-586.15
6974.4
-634.792
9002.56
-656.296
10903.2
-661.957
12688.6
-656.521
14290.3
-642.259
15673.1
-625.8
16847.4
-610.178
17824.3
-590.24
18632.6
-560.137
19283.5
-517.52
19789.5
-457.793
20070.4
-375.063
20027.7
-276.782
19546.3
-184.664
19354.4
-138.419
19680.7
-77.6262
20302.9
-3.37195
20487.6
72.9533
20635.3
148.265
20878.5
214.179
21128.4
261.16
20651.1
291.964
20444.6
364.636
24368.4
367.697
23945
295.713
20771.2
246.414
23160.7
165.752
27805.5
0.695272
30381.5
-352.704
27757.4
-1017.31
-9516.15
-1017.77
-16456.1
-398.225
-12238.8
410.694
-8994.9
1408.5
-11613.9
2666.39
-12376.8
4163.87
-11378.5
5825.3
-7981.84
7361.78
-2687.47
8591.01
7782.9
9147.41
20055.4
8802.44
28130.2
7332.08
27236.4
4721.99
16776.1
2587.9
16485.1
2018.32
29686.1
1796.66
33651.8
1700.07
32436.8
1647.89
30073.4
1599.07
27748.4
1471
25449.5
1234.97
22587.9
650.179
17346.4
-440.087
10339.2
-32.5734
-14136.9
1369.78
-37976.3
2356.83
-45529.5
2848.32
-46639
2916.91
-45142.2
2736.48
-43434.1
2409.72
-42104.3
2000.68
-41555.7
1532.93
-41530.2
1032.73
-42127.5
-43063.5
-2694.86
-5458.2
-2585.43
-6306.05
-2442.14
-6953.34
-2286.04
-7494.33
-2115.21
-7948.25
-1940.03
-8231.32
-1759.81
-8323.91
-1575.94
-8186.45
-1387.39
-7773.96
-1195
-7018.61
-1000.23
-5797.71
-783.847
-3812.31
-493.964
-139.552
-420.531
4401.07
-465.129
7018.99
-531.077
9068.5
-571.786
10943.9
-595.57
12712.4
-613.189
14307.9
-621.376
15681.3
-620.918
16847
-617.75
17821.2
-608.567
18623.4
-586.97
19261.9
-550.925
19753.5
-495.791
20015.3
-415.671
19947.6
-317.173
19447.8
-222.494
19259.8
-174.02
19632.3
-111.281
20240.1
-32.8234
20409.1
48.4791
20554
128.936
20798
200.201
21057.1
252.969
20598.3
288.109
20409.5
364.144
24292.4
373.007
23936.1
305.043
20839.2
260.303
23205.5
182.86
27883
19.7493
30544.6
-368.209
28145.4
-1064.41
-8819.95
-1103.03
-16417.5
-543.431
-12798.4
326.715
-9865.05
1487.5
-12774.7
2978.59
-13867.9
4810.22
-13210.1
6889.89
-10061.5
8854.85
-4652.42
10361.7
6276.1
10834.7
19582.4
10094.1
28870.8
8141.05
29189.5
5157.33
19759.8
2810.42
18832
2107.81
30388.7
1831.65
33927.9
1718.05
32550.4
1655.69
30135.8
1595.28
27808.8
1441.67
25603.1
1175.32
22854.2
447.573
18074.1
-618.979
11405.7
-9.81012
-14746
1432.09
-39418.2
2420.27
-46517.7
2875.34
-47094.1
2910.11
-45177
2711.73
-43235.7
2382.59
-41775.2
1980.61
-41153.7
1522.2
-41071.8
1059.85
-41665.2
-42586.2
-2672.45
-5516.29
-2545.64
-6432.86
-2396.63
-7102.35
-2238.29
-7652.68
-2069.15
-8117.4
-1897.01
-8403.46
-1719.64
-8501.28
-1537.11
-8368.98
-1347.86
-7963.21
-1152.33
-7214.14
-951.422
-5998.62
-728.114
-4035.62
-421.178
-446.487
-315.282
4295.17
-343.6
7047.31
-420.972
9145.88
-482.169
11005.1
-522.695
12752.9
-560.026
14345.2
-592.182
15713.5
-611.326
16866.1
-622.164
17832
-625.178
18626.4
-613.518
19250.3
-585.194
19725.2
-535.672
19965.8
-459.201
19871.1
-361.486
19350.1
-264.824
19163.1
-212.884
19580.3
-148.426
20175.7
-65.8028
20326.5
20.9028
20467.2
106.88
20712
183.994
20980
243.137
20539.2
283.018
20369.6
362.865
24212.6
378.294
23920.7
315.254
20902.2
275.759
23245
202.512
27956.2
44.8637
30702.3
-375.559
28565.8
-1106.07
-8089.44
-1176.17
-16347.4
-675.169
-13299.4
271.709
-10811.9
1626.27
-14129.3
3373.75
-15615.4
5555.63
-15392
8056.89
-12562.8
10458.2
-7053.78
12263.7
4470.59
12683
19163.1
11526.8
30026.9
9034.37
31681.9
5635.05
23159.1
3049.58
21417.5
2206.74
31231.6
1875.19
34259.5
1740.49
32685.1
1664.54
30211.7
1590.32
27883
1410.84
25782.6
1114.46
23150.6
232.787
18955.8
-795.798
12434.3
26.4763
-15568.3
1500.27
-40892
2480.79
-47498.2
2893.7
-47507
2893.47
-45176.8
2678.22
-43020.4
2348.33
-41445.3
1955.7
-40761
1507.11
-40623.2
985.679
-41143.7
-42107.9
-2645.99
-5589.17
-2506.6
-6572.25
-2355.23
-7253.71
-2196.87
-7811.04
-2030.64
-8283.63
-1861.71
-8572.39
-1686.55
-8676.44
-1504.21
-8551.32
-1313.02
-8154.4
-1113.45
-7413.71
-905.942
-6206.12
-675.398
-4266.16
-354.503
-767.383
-217.718
4158.39
-224.619
7054.21
-305.721
9226.98
-386.88
11086.3
-445.025
12811.1
-498.497
14398.7
-553.597
15768.6
-595.7
16908.2
-622.844
17859.2
-639.29
18642.8
-639.041
19250
-619.656
19705.8
-576.829
19923
-505.15
19799.4
-409.361
19254.3
-311.322
19065.1
-254.837
19523.8
-188.933
20109.8
-102.291
20239.8
-9.79582
20374.8
82.0098
20620.2
165.448
20896.6
231.517
20473.1
276.521
20324.6
360.634
24128.4
383.351
23898
326.146
20959.4
292.512
23278.6
224.515
28024.2
75.7553
30851
-369.32
29010.9
-1132.13
-7326.63
-1227.17
-16252.3
-772.473
-13754.1
265.204
-11849.6
1827.86
-15691.9
3837.08
-17624.6
6354.17
-17909.1
9244.77
-15453.4
12062.5
-9871.53
14183.7
2349.47
14600.7
18746.1
13047.6
31580.1
9990.86
34738.6
6147.63
27002.3
3302.72
24262.4
2312.19
32222.1
1921.12
34650.5
1759.21
32847
1666.65
30304.3
1577.87
27971.8
1374.39
25986.1
1043.67
23481.3
14.1062
19985.4
-954.568
13403
76.798
-16599.7
1575.31
-42390.5
2538.55
-48461.5
2903.83
-47872.2
2867.82
-45140.8
2636.9
-42789.5
2307.87
-41116.3
1927.14
-40380.3
1491.92
-40188
1002.53
-40654.3
-41456.1
-2617.82
-5673.78
-2470.23
-6719.85
-2319.08
-7404.86
-2162.19
-7967.92
-1999.39
-8446.43
-1833.29
-8738.49
-1659.39
-8850.34
-1476.08
-8734.63
-1281.91
-8348.57
-1077.65
-7617.96
-863.347
-6420.43
-625.469
-4504.04
-292.671
-1100.18
-124.277
3989.99
-109.16
7039.09
-187.203
9305.02
-285.501
11184.6
-362.992
12888.6
-430.691
14466.4
-505.605
15843.5
-572.581
16975.2
-619.118
17905.7
-650.193
18673.9
-662.783
19262.6
-653.608
19696.6
-618.621
19888
-552.961
19733.8
-460.33
19161.7
-361.457
18966.2
-299.963
19462.3
-232.63
20042.5
-142.222
20149.4
-43.6014
20276.1
54.2875
20522.3
144.484
20806.4
217.979
20399.6
268.459
20274.1
357.29
24039.6
387.975
23867.3
337.504
21009.9
310.282
23305.8
248.653
28085.8
111.941
30987.7
-346.671
29469.5
-1136.05
-6537.26
-1246.95
-16141.4
-828.509
-14172.5
306.605
-12984.7
2078.03
-17463.4
4322.02
-19868.6
7107.56
-20694.6
10309.4
-18655.2
13491.2
-13053.4
15940.8
-100.159
16443.5
18243.4
14578
33445.5
10981
38335.7
6683.83
31299.5
3562.8
27383.4
2414.7
33370.2
1957.18
35108.1
1762.44
33041.7
1652.52
30414.2
1550.69
28073.7
1327.08
26209.7
953.466
23854.9
-198.422
21137.3
-1078.63
14283.2
142.944
-17821.2
1658.16
-43905.8
2593.99
-49397.3
2906.57
-48184.8
2834.44
-45068.6
2589.15
-42544.2
2262.46
-40789.6
1895.51
-40013.4
1476.09
-39768.6
1013.34
-40191.6
-41006
-2589.88
-5767.16
-2437.86
-6871.87
-2288.71
-7554.01
-2134.15
-8122.48
-1974.73
-8605.85
-1810.74
-8902.49
-1637.08
-9023.99
-1451.82
-8919.9
-1253.94
-8546.45
-1044.65
-7827.26
-823.561
-6641.51
-578.493
-4749.11
-235.839
-1442.83
-31.7085
3785.86
3.65455
7003.73
-66.3501
9375.03
-178.037
11296.3
-276.283
12986.8
-358.466
14548.6
-449.35
15934.4
-540.87
17066.7
-610.077
17974.9
-657.289
18721.1
-684.002
19289.3
-686.327
19698.9
-660.371
19862
-602.015
19675.4
-513.846
19073.5
-414.743
18867.1
-348.505
19396.1
-279.184
19973.1
-185.441
20055.7
-80.4576
20171.2
23.7194
20418.2
121.044
20709.1
202.406
20318.2
258.674
20217.9
352.682
23945.6
391.972
23828
349.097
21052.8
328.768
23326.1
274.619
28140
152.85
31109.5
-302.447
29924.8
-1111.17
-5728.53
-1228.08
-16024.5
-839.309
-14561.3
388.511
-14212.5
2340.68
-19415.5
4730.63
-22258.5
7642.87
-23606.9
11024.3
-22036.6
14484.3
-16513.3
17293.8
-2909.7
18037.9
17499.3
16022.5
35460.9
11964.2
42393.9
7226.7
36037
3819.07
30791
2501.89
34687.4
1970.52
35639.4
1739.83
33272.4
1614.47
30539.6
1503.23
28184.9
1264.85
26448.1
842.246
24277.5
-395.603
22375.1
-1159.46
15047.1
227.594
-19208.3
1749.83
-45428
2647.76
-50295.2
2903.17
-48440.2
2794.99
-44960.4
2536.68
-42285.9
2213.71
-40466.6
1862.25
-39661.9
1460.26
-39366.6
991.622
-39723
-40380.8
-2563.63
-5866.6
-2410.24
-7025.26
-2264.21
-7700.05
-2112.33
-8274.35
-1955.91
-8762.26
-1793.15
-9065.25
-1618.81
-9198.33
-1430.88
-9107.83
-1228.87
-8748.45
-1014.36
-8041.78
-786.599
-6869.27
-534.552
-5001.15
-187.436
-1789.95
54.344
3544.08
110.958
6947.12
55.9467
9430.04
-63.7195
11416
-183.983
13107.1
-282.906
14647.5
-386.815
16038.3
-500.304
17180.2
-594.61
18069.2
-660.082
18786.6
-701.984
19331.2
-717.084
19714
-701.38
19846.3
-651.646
19625.7
-569.324
18991.2
-470.853
18768.6
-400.472
19325.7
-328.254
19900.9
-231.69
19959.1
-120.322
20059.8
-9.68669
20307.5
95.1137
20604.3
184.708
20228.7
247.021
20155.5
346.675
23846
395.159
23779.5
360.685
21087.3
347.652
23339.2
301.925
28185.7
197.819
31213.6
-234.45
30357.1
-1058.12
-4904.87
-1166.98
-15915.7
-798.355
-14929.9
497.764
-15508.7
2543.78
-21461.5
4900.26
-24615
7716.28
-26422.9
11106.3
-25426.6
14756.6
-20163.7
17981.8
-6134.9
19189.6
16291.5
17267.5
37383
12886.1
46775.3
7752.87
41170.2
4059.43
34484.5
2563.65
36183.2
1952.99
36250.1
1686.22
33539.2
1549.13
30676.7
1433.32
28300.7
1186.27
26695.1
713.192
24750.6
-570.445
23658.7
-1192.51
15669.1
333.663
-20734.5
1851.37
-46945.7
2700.74
-51144.6
2895.12
-48634.6
2751.44
-44816.8
2481.48
-42016
2163.43
-40148.6
1828.57
-39327
1446.23
-38984.2
1036.99
-39313.7
-39902.4
-2540.09
-5969.75
-2387.67
-7177.68
-2245.32
-7842.39
-2096.16
-8423.52
-1942.19
-8916.24
-1779.83
-9227.6
-1604.07
-9374.1
-1413
-9298.9
-1206.64
-8954.81
-986.809
-8261.61
-752.467
-7103.62
-493.335
-5260.29
-145.987
-2137.3
130.357
3267.74
208.818
6868.66
175.208
9463.65
56.9207
11534.2
-84.3295
13248.3
-203.912
14767.1
-320.128
16154.5
-451.625
17311.7
-571.636
18189.2
-658.107
18873.1
-716.125
19389.3
-745.18
19743.1
-740.948
19842.1
-701.168
19585.9
-626.167
18916.2
-529.491
18671.9
-455.406
19251.6
-379.7
19825.2
-280.577
19860
-163.101
19942.3
-45.8706
20190.3
66.7383
20491.7
164.832
20130.6
233.37
20087
339.15
23740.2
397.372
23721.3
372.024
21112.6
366.599
23344.6
329.885
28222.4
246.09
31297.4
-142.655
30745.8
-986.537
-4060.98
-1067.24
-15834.9
-701.554
-15295.6
604.833
-16815
2566.81
-23423.5
4622.28
-26670.5
7085.13
-28885.7
10324.1
-28665.6
14089.7
-23929.2
17771.6
-9816.82
19683.4
14379.7
18171.5
38895
13677.7
51269.1
8234.66
46613.3
4272.36
38446.8
2594.6
37860.9
1902.85
36941.8
1602.25
33839.8
1457.8
30821.1
1342.58
28415.9
1092.52
26945.2
571.688
25271.4
-717.848
24948.3
-1176.19
16127.5
463.838
-22374.5
1963.87
-48445.7
2753.97
-51934.7
2884.17
-48764.8
2705.92
-44638.5
2425.69
-41735.7
2113.54
-39836.4
1796.01
-39009.5
1431.7
-38619.9
975.563
-38857.6
-39424.7
-2519.85
-6074.69
-2370.08
-7327.46
-2231.64
-7980.83
-2085.06
-8570.1
-1932.94
-9068.35
-1770.28
-9390.26
-1592.56
-9551.82
-1398.1
-9493.35
-1187.26
-9165.65
-961.981
-8486.89
-721.113
-7344.48
-454.598
-5526.8
-105.424
-2486.47
203.033
2959.28
298.11
6773.58
286.614
9475.14
179.973
11640.9
23.7048
13404.6
-119.998
14910.8
-250.743
16285.3
-396.373
17457.3
-540.469
18333.3
-650.748
18983.4
-726.025
19464.5
-770.005
19787.1
-778.425
19850.5
-749.906
19557.4
-683.756
18850
-590.171
18578.3
-512.62
19174.1
-433.419
19746
-331.679
19758.3
-208.571
19819.2
-84.7091
20066.4
35.9982
20370.9
142.738
20023.8
217.605
20012.1
330.01
23627.8
398.466
23652.9
382.873
21128.2
385.253
23342.2
357.664
28250
297.162
31357.9
-22.8374
31065.8
-907.432
-3176.39
-942.812
-15799.6
-559.306
-15679.1
651.089
-18025.4
2252.77
-25025.2
3727.71
-28145.4
5676.43
-30834.4
8698.7
-31687.9
12513.2
-27743.7
16608
-13911.7
19376
11611.7
18597.4
39673.6
14263.7
55602.8
8640.22
52236.8
4446.9
42640.1
2593.22
39714.6
1823.07
37712
1492.58
34170.3
1345.11
30968.6
1235.22
28525.8
986.366
27194
423.556
25834.2
-834.664
26206.5
-1111.09
16403.9
620.324
-24105.9
2088.36
-49913.8
2808.63
-52655
2872.16
-48828.3
2660.6
-44426.9
2371.39
-41446.5
2065.9
-39530.9
1766.44
-38710
1421.76
-38275.2
1008.66
-38444.5
-38778.5
-2503.22
-6179.89
-2357.2
-7473.47
-2222.67
-8115.36
-2078.47
-8714.31
-1927.68
-9219.14
-1764.17
-9553.77
-1584.13
-9731.86
-1386.14
-9691.34
-1170.73
-9381.06
-939.82
-8717.8
-692.417
-7591.89
-418.548
-5800.67
-66.0944
-2838.93
278.62
2614.57
384.101
6668.1
389.62
9469.62
300.083
11730.4
138.627
13566
-29.277
15078.7
-178.862
16434.8
-336.479
17615
-501.244
18498.1
-637.157
19119.3
-731.488
19558.9
-791.137
19846.7
-813.271
19872.6
-797.237
19541.4
-741.435
18794.2
-652.179
18489.1
-571.554
19093.5
-489.135
19663.6
-384.714
19653.8
-256.442
19690.9
-126.03
19936
2.96723
20241.9
118.374
19908.4
199.631
19930.9
319.179
23508.2
398.317
23573.7
392.996
21133.5
403.258
23332
384.449
28268.8
349.928
31392.4
117.401
31298.3
-866.978
-2192.01
-817.548
-15849
-410.443
-16086.2
542.817
-18978.7
1469.16
-25951.5
2245.15
-28921.4
3776.59
-32365.9
6651.49
-34562.8
10430.8
-31523
14742.3
-18223.3
18310.9
8043.15
18485.3
39499.2
14581.8
59506.3
8935.35
57883.3
4571.44
47004
2559.44
41726.6
1718.58
38552.9
1363.67
34525.2
1217.19
31115.1
1116.4
28626.6
870.98
27439.4
274.535
26430.7
-919.856
27400.9
-999.99
16484
804.8
-25910.7
2225.8
-51334.8
2865.94
-53295.1
2860.92
-48823.3
2617.45
-44183.5
2320.41
-41149.5
2022.06
-39232.6
1740.13
-38428.1
1415.93
-37951
1055.82
-38084.4
-38286.6
-2490.26
-6284.2
-2348.73
-7615
-2218.01
-8246.08
-2075.96
-8856.35
-1926.01
-9369.09
-1761.23
-9718.55
-1578.64
-9914.45
-1377.05
-9892.93
-1157
-9601.11
-920.24
-8954.56
-666.244
-7845.88
-385.381
-6081.53
-31.0293
-3193.28
358.959
2224.58
470.116
6556.94
487.81
9451.93
414.289
11803.9
256.596
13723.7
68.9861
15266.3
-103.513
16607.3
-273.682
17785.1
-455.046
18679.4
-616.485
19280.7
-732.338
19674.7
-808.38
19922.8
-845.11
19909.4
-842.639
19538.9
-798.523
18750.1
-714.66
18405.2
-631.759
19010.6
-546.434
19578.3
-439.4
19546.8
-306.382
19557.9
-169.607
19799.2
-32.247
20104.6
91.764
19784.4
179.387
19843.3
306.606
23381
396.832
23483.5
402.176
21128.2
420.271
23313.9
409.6
28279.5
401.451
31400.6
232.307
31467.5
-736.505
-1223.2
-715.469
-15870
-330.036
-16471.6
167.535
-19476.3
221.907
-26005.9
519.234
-29218.8
1995.15
-33841.8
4831.67
-37399.3
8449.52
-35140.8
12606.2
-22380
16655.5
3993.89
17853.1
38301.6
14600.6
62758.7
9091.75
63392.1
4634.13
51461.6
2492.84
43867.9