/*--------------------------------*- C++ -*----------------------------------*\
| =========                 |                                                 |
| \\      /  F ield         | OpenFOAM: The Open Source CFD Toolbox           |
|  \\    /   O peration     | Version:  4.1                                   |
|   \\  /    A nd           | Web:      www.OpenFOAM.org                      |
|    \\/     M anipulation  |                                                 |
\*---------------------------------------------------------------------------*/
FoamFile
{
    version     2.0;
    format      ascii;
    class       volVectorField;
    location    "7";
    object      U;
}
// * * * * * * * * * * * * * * * * * * * * * * * * * * * * * * * * * * * * * //

dimensions      [0 1 -1 0 0 0 0];

internalField   nonuniform List<vector> 
6785
(
(8.35512e-14 -0.576135 16.0764)
(1.17123e-13 -6.44583 12.3869)
(-1.93592e-14 -4.69878 12.7414)
(3.33182e-14 -4.16548 12.5035)
(1.55902e-14 -3.55349 12.3329)
(-4.22858e-15 -3.08109 12.107)
(2.99445e-14 -2.69126 11.8479)
(9.26082e-15 -2.39986 11.5406)
(-1.00754e-14 -2.2099 11.186)
(2.80096e-14 -2.10244 10.8136)
(6.06315e-15 -2.08964 10.4506)
(-1.81328e-14 -2.3695 9.99391)
(2.556e-14 -2.8903 9.37309)
(-4.11465e-15 -2.09501 8.99691)
(-6.77026e-14 0.966931 7.35487)
(2.18692e-13 -7.2637 25.8042)
(1.6141e-13 -16.4827 21.7256)
(-1.34598e-14 -11.6559 22.0281)
(2.2272e-13 -11.8324 20.6538)
(1.74163e-14 -10.9753 19.6464)
(2.98199e-14 -10.3044 18.6075)
(1.6368e-13 -9.63899 17.5691)
(3.20328e-15 -8.99343 16.523)
(3.37021e-14 -8.37362 15.4522)
(1.71402e-13 -7.75706 14.3467)
(-2.14568e-15 -7.07907 13.2478)
(6.01832e-14 -6.44758 12.206)
(2.54168e-13 -6.05621 10.8648)
(-4.9094e-14 -4.53995 7.89762)
(-7.75989e-14 -0.535748 1.41447)
(7.86777e-14 -9.84986 27.3985)
(1.57485e-13 -17.6609 23.9584)
(-3.56085e-14 -11.7788 24.3547)
(-4.20673e-16 -12.6649 22.1878)
(2.72157e-14 -11.2174 21.0454)
(1.24343e-14 -10.461 19.6106)
(-5.83497e-14 -9.59836 18.2298)
(2.10228e-14 -8.81 16.8511)
(7.40819e-15 -8.10614 15.5501)
(-2.52007e-14 -7.5262 14.3771)
(5.42272e-14 -6.99871 13.311)
(3.61701e-14 -6.39203 12.2147)
(2.17088e-14 -5.39783 10.2359)
(-5.25722e-15 -2.70253 4.63499)
(-8.4965e-14 0.894708 -3.71187)
(1.53855e-13 -10.8669 26.1933)
(7.17377e-14 -17.1321 23.3335)
(-1.43229e-14 -11.5144 23.6555)
(-5.07037e-14 -12.9982 20.9064)
(-6.90502e-14 -11.1385 19.8351)
(8.70732e-14 -10.5775 18.1108)
(-4.31717e-14 -9.65762 16.5922)
(-7.45953e-14 -8.8698 15.0402)
(2.96574e-14 -8.13445 13.5608)
(-5.51445e-14 -7.57819 12.2525)
(-1.38959e-13 -7.2102 11.18)
(1.36744e-13 -6.87557 10.1816)
(7.37285e-15 -6.3863 9.10789)
(-2.71806e-13 -5.14732 6.7534)
(-6.46624e-14 -3.78637 3.13603)
(1.24248e-13 -11.6638 26.0108)
(-1.0386e-13 -16.6989 23.4478)
(-2.59807e-14 -11.6785 23.7078)
(-1.13702e-13 -13.2227 20.8303)
(-1.96197e-13 -11.0086 19.8651)
(-9.54593e-14 -10.552 17.9978)
(-1.51664e-13 -9.42703 16.515)
(-2.73022e-13 -8.48964 14.8657)
(-1.21996e-13 -7.28139 12.8679)
(-4.36188e-13 -5.88307 10.3017)
(-6.40265e-13 -5.01439 8.23802)
(-2.77823e-13 -5.36116 7.93802)
(-3.6106e-13 -5.93169 8.39573)
(-7.50712e-13 -5.94483 8.36552)
(-4.72879e-13 -5.23162 7.10797)
(1.82852e-13 -12.3268 26.454)
(-7.06602e-14 -16.7779 24.4847)
(1.9731e-14 -12.0041 24.4681)
(-1.26326e-13 -13.4572 21.6958)
(-1.34526e-13 -10.9836 20.84)
(9.65381e-15 -10.645 18.925)
(-1.86685e-13 -9.31852 17.575)
(-1.59655e-13 -8.29724 15.8468)
(-1.43326e-13 -6.59921 13.3069)
(-5.67597e-13 -4.13264 9.29613)
(-3.14929e-13 -1.87763 5.49711)
(3.00883e-13 -1.53482 4.57419)
(2.80854e-13 -2.92736 6.22067)
(1.59926e-13 -4.52077 8.45335)
(1.10729e-13 -4.26847 8.15297)
(3.18702e-13 -12.4633 26.036)
(-1.45067e-14 -17.4185 26.1153)
(1.35179e-13 -12.5153 25.2711)
(-1.024e-13 -14.0147 22.5226)
(-7.59882e-14 -11.4325 21.7913)
(2.23137e-13 -11.3339 19.8243)
(-1.56063e-13 -9.97029 18.5939)
(-8.74055e-14 -9.11947 16.957)
(1.24656e-14 -7.61313 14.7173)
(-4.61729e-13 -5.2247 10.9513)
(-3.49894e-14 -2.27751 6.37173)
(-5.03578e-14 0.160962 2.76149)
(-1.30677e-12 1.3428 1.0017)
(-1.46777e-12 0.363792 1.96237)
(1.77758e-13 -1.16359 3.70421)
(2.26284e-13 -12.0506 24.3867)
(4.42343e-14 -17.7763 27.2807)
(1.55649e-13 -13.3375 25.6655)
(-8.48668e-14 -14.2775 22.8521)
(-9.96326e-14 -12.1291 21.9848)
(1.90377e-13 -11.95 20.1235)
(-5.95314e-14 -10.8345 18.8333)
(-1.13653e-13 -10.0969 17.3243)
(3.1315e-14 -9.06843 15.5785)
(-1.99955e-13 -7.52927 13.0546)
(-1.54563e-13 -5.35622 9.67796)
(-1.25852e-13 -2.57008 5.68867)
(-1.23593e-12 0.967973 1.02162)
(-2.95607e-12 3.06732 -2.45206)
(-2.69061e-12 1.19638 -2.6006)
(2.16572e-13 -11.3573 22.1598)
(8.98247e-14 -17.5895 27.499)
(6.68676e-14 -13.8668 25.6037)
(-3.05674e-14 -14.1267 22.638)
(-9.53889e-14 -12.3821 21.5383)
(-3.44943e-14 -12.0152 19.7854)
(1.60264e-14 -11.0747 18.3981)
(-8.74212e-14 -10.3406 16.9236)
(-1.81827e-13 -9.53438 15.3837)
(-4.49071e-14 -8.51779 13.5637)
(-8.25029e-14 -7.20046 11.3185)
(-3.06961e-13 -5.42513 8.55098)
(-3.94859e-13 -3.06432 5.00713)
(-5.36232e-13 -0.245914 1.38268)
(-2.94418e-12 0.803528 -3.22938)
(1.21284e-13 -10.7106 20.2311)
(9.39823e-14 -17.1449 27.2439)
(-6.3731e-15 -13.948 25.3278)
(-1.63987e-13 -13.7811 22.2286)
(-1.01305e-13 -12.1595 21.026)
(-6.88673e-14 -11.7247 19.3158)
(-9.13994e-14 -10.7849 17.9043)
(-1.02611e-13 -10.019 16.4043)
(-1.84084e-13 -9.23912 14.9241)
(-1.8087e-13 -8.3801 13.3704)
(-6.931e-14 -7.40347 11.607)
(-3.05401e-13 -6.13828 9.52529)
(-4.99722e-13 -4.52297 6.78986)
(3.38939e-14 -2.20672 3.41029)
(-2.81856e-12 0.318546 -2.47489)
(-5.16257e-14 -10.1227 18.652)
(1.117e-13 -16.6708 26.9183)
(-1.91852e-13 -13.9931 25.1675)
(-1.67444e-13 -13.5083 21.9649)
(-5.75044e-14 -11.9342 20.6285)
(-2.9863e-13 -11.3999 18.8951)
(-1.73671e-13 -10.4033 17.4286)
(-5.30939e-14 -9.63526 15.9551)
(-4.81198e-13 -8.81935 14.4989)
(-2.70849e-13 -7.95513 13.0069)
(3.98774e-14 -7.05877 11.4049)
(-6.60399e-13 -5.9625 9.6186)
(-6.06307e-13 -4.66304 7.30104)
(-7.39278e-13 -2.63522 4.30655)
(-4.35507e-12 -0.101681 -1.5395)
(-6.91087e-14 -9.81986 17.8922)
(1.8469e-13 -16.1725 26.5896)
(-3.50942e-13 -13.7965 24.937)
(-1.6413e-13 -13.148 21.8053)
(6.02533e-14 -11.5748 20.5376)
(-5.32775e-13 -11.0554 18.82)
(-2.41183e-13 -10.0859 17.4489)
(1.38583e-13 -9.44074 16.1103)
(-5.13133e-13 -8.74858 14.8105)
(-3.63834e-13 -7.9479 13.3648)
(-1.28767e-14 -7.08012 11.7866)
(-7.89349e-13 -6.03502 10.081)
(-5.79639e-13 -4.8609 7.95291)
(-9.70946e-13 -3.03462 5.26031)
(-2.66092e-12 -0.7597 -0.135017)
(-2.22315e-13 -9.4292 16.5914)
(1.80058e-13 -16.2101 26.2635)
(-2.12656e-13 -14.8153 25.3382)
(-3.14071e-13 -13.7821 21.9647)
(3.27164e-14 -12.1704 19.9892)
(-4.02131e-13 -11.374 18.1046)
(-3.11891e-13 -10.2694 16.3566)
(4.11402e-13 -9.24335 14.5106)
(-1.42737e-13 -8.40279 13.1159)
(-3.94134e-13 -7.70787 11.9583)
(-2.84633e-14 -7.015 10.7615)
(-4.4143e-13 -6.14695 9.42849)
(-4.7801e-13 -4.94887 7.46353)
(-5.7705e-13 -2.83724 4.64387)
(-1.86044e-12 0.478197 -3.32134)
(-2.59483e-13 -6.57405 13.3538)
(-4.52053e-15 -12.4805 24.3365)
(-3.19381e-13 -11.3699 23.8295)
(-2.70255e-13 -10.4014 22.1802)
(-2.30988e-13 -9.4859 21.2519)
(-4.48224e-13 -9.13455 20.1971)
(-3.57645e-13 -8.8971 19.2197)
(-2.71539e-13 -8.97241 18.1983)
(-4.88723e-13 -9.1141 17.2289)
(-5.28756e-13 -9.12245 16.1068)
(-5.01138e-13 -8.80197 14.7888)
(-5.04275e-13 -8.58897 13.8583)
(-2.60993e-13 -8.72904 13.6204)
(-3.18173e-13 -7.89205 12.1789)
(-1.15318e-12 -6.26706 8.94197)
(-3.44832e-13 -22.878 45.3379)
(-2.83175e-13 -19.5997 39.513)
(-4.90513e-13 -13.2562 31.8028)
(-6.27061e-13 -9.09546 25.9777)
(-8.15456e-13 -4.65473 19.6847)
(-8.71609e-13 -0.544739 12.9862)
(-7.80029e-13 3.36049 6.47259)
(-6.11827e-13 6.03804 1.502)
(-5.08923e-13 6.94241 -0.534238)
(-5.37459e-13 6.26111 0.13405)
(-5.12137e-13 5.20564 1.14031)
(-4.4278e-13 4.27315 0.981254)
(-4.69557e-13 3.59834 -0.273881)
(-4.49075e-13 4.05677 -3.8154)
(-2.67956e-13 2.82217 -4.79195)
(-2.31171e-15 0.418883 0.124859)
(-2.35696e-14 -1.51487 4.50373)
(-2.62982e-14 -2.27059 0.617122)
(-2.45661e-14 -2.01466 0.69519)
(-2.01007e-14 -1.92206 0.555829)
(-2.16705e-15 -3.87257 0.801918)
(2.07496e-14 -4.07725 -1.93257)
(3.95417e-14 -3.88158 -1.55805)
(4.85021e-14 -3.779 -1.26577)
(1.87989e-14 -5.32409 -1.9248)
(-3.28273e-14 -4.58092 -4.58292)
(-5.34589e-14 -4.0927 -4.96902)
(-9.0803e-14 -4.36187 -7.25067)
(-4.47002e-14 -3.36692 -6.29405)
(-3.41018e-14 -2.64749 -5.80099)
(-3.52677e-14 -2.38635 -6.2501)
(-8.45865e-14 -0.83691 -13.3781)
(-4.61575e-14 0.0990091 -9.63286)
(-3.49254e-14 0.62842 -7.72747)
(-6.97674e-14 3.18288 -14.6734)
(-4.73733e-14 3.47319 -9.71623)
(-4.23494e-14 4.81186 -8.37554)
(-2.79528e-14 4.63665 -6.68699)
(-5.38815e-14 8.08627 -12.0447)
(-3.5742e-14 7.43221 -7.54654)
(-3.01809e-14 8.89424 -6.47411)
(-2.72108e-14 8.53635 -5.18273)
(-3.48278e-14 12.2638 -9.03082)
(-2.27934e-14 11.0115 -5.37285)
(-1.91362e-14 11.763 -4.2223)
(-3.93839e-14 16.6413 -6.87532)
(-2.77172e-14 13.4001 -3.79475)
(-2.46886e-14 15.0015 -3.18478)
(-2.19696e-14 14.3816 -2.53967)
(-3.91923e-14 19.0838 -4.16402)
(-2.48257e-14 15.8779 -2.01707)
(-2.01061e-14 16.3962 -1.53745)
(-3.57831e-14 22.4499 -2.3322)
(-2.16265e-14 17.2398 -0.841651)
(-2.04734e-14 18.8468 -0.61992)
(-1.56988e-14 17.9237 -0.445774)
(-2.92846e-14 23.7188 -0.64604)
(-1.71592e-14 18.2799 0.192269)
(-1.58875e-14 20.0167 0.332793)
(-1.33967e-14 19.0288 0.373614)
(-2.42148e-14 24.3614 0.640204)
(-1.51214e-14 19.303 1.07389)
(-1.19257e-14 19.5267 1.04637)
(-2.19619e-14 26.2249 1.82881)
(-8.77651e-15 19.4327 1.77805)
(-6.64489e-15 20.9217 1.79084)
(-4.0665e-15 19.8004 1.67279)
(-9.76288e-15 25.7524 2.71078)
(-1.83015e-15 19.2793 2.31826)
(-1.57543e-15 20.9043 2.34024)
(6.79913e-16 19.7721 2.18037)
(-5.36956e-15 25.0136 3.3665)
(-6.51315e-16 19.3363 2.81237)
(-2.32111e-15 19.437 2.5734)
(-1.02954e-14 25.8378 4.03702)
(-5.27972e-15 18.7643 3.12018)
(-5.68888e-15 20.1098 3.02478)
(-6.15934e-15 19.0228 2.73459)
(-7.99804e-15 24.0728 4.17101)
(-8.83514e-16 18.3552 3.22387)
(7.54803e-16 18.4378 2.84695)
(-4.44704e-16 24.4998 4.48692)
(2.78322e-15 17.5467 3.3174)
(3.68808e-15 18.8301 3.15265)
(4.90159e-15 17.7557 2.78142)
(4.09077e-15 22.9182 4.41272)
(8.44909e-15 16.5868 3.20989)
(9.96398e-15 18.0022 3.08106)
(1.31408e-14 16.9946 2.70508)
(8.65746e-15 21.4345 4.37156)
(7.73875e-15 15.9334 3.28872)
(1.01997e-14 16.1487 2.8448)
(1.45521e-14 20.9499 4.8844)
(9.69145e-15 15.2825 3.58909)
(3.31979e-14 14.688 3.29408)
(-1.75471e-14 16.0483 2.9214)
(-2.19346e-14 15.2269 2.69642)
(-2.34715e-14 14.3776 2.16373)
(5.22036e-14 18.3219 4.04581)
(2.28769e-14 14.2731 1.99158)
(1.0896e-14 14.083 1.77067)
(2.37296e-15 13.9893 1.57805)
(-1.10771e-15 13.8907 1.29534)
(-6.83757e-15 13.8621 1.05416)
(-1.42955e-14 13.6694 0.815908)
(-2.24996e-14 13.8317 0.963359)
(-3.81294e-14 12.9832 1.05655)
(5.53828e-14 16.4484 2.57696)
(-1.87871e-14 12.7825 1.83073)
(-1.9241e-14 12.8023 1.53518)
(-1.38031e-14 12.5979 1.34002)
(3.78591e-15 12.6074 0.0185664)
(1.14332e-14 12.5506 0.373477)
(8.36836e-14 12.5374 -3.88428)
(8.43782e-14 13.1319 -9.38082)
(2.45734e-14 12.4945 -6.52375)
(8.75401e-14 15.1676 -4.20922)
(-1.07629e-13 11.9988 -0.499515)
(-1.55082e-13 12.1013 2.45267)
(-1.70717e-13 12.4278 5.24797)
(-1.60737e-13 12.4048 7.34011)
(-1.39911e-13 12.3264 8.60017)
(-1.29195e-13 12.3041 9.57464)
(-1.29794e-13 12.0639 10.5125)
(-1.33822e-13 12.1293 11.4212)
(-1.45987e-13 11.498 11.6665)
(-4.67839e-14 14.3279 15.0175)
(-1.44523e-13 11.3627 12.6719)
(-1.59133e-13 11.2254 12.0557)
(-1.68182e-13 11.1841 11.7648)
(-1.74964e-13 11.0404 11.9663)
(-1.74322e-13 10.9951 12.168)
(-2.01991e-13 10.7732 12.8818)
(-2.30541e-13 10.7783 13.8638)
(-2.57566e-13 10.242 14.363)
(-1.54116e-13 13.6908 17.1613)
(-3.26855e-13 10.1061 15.7078)
(-3.66449e-13 10.2757 15.668)
(-3.80123e-13 10.1323 16.2618)
(-3.58621e-13 10.1181 16.5957)
(-3.38123e-13 10.0619 17.0299)
(-3.24413e-13 9.81286 17.6567)
(-3.28465e-13 10.0098 17.8495)
(-3.2399e-13 9.26456 19.3251)
(-2.49967e-13 14.9709 20.8504)
(-4.50949e-13 9.95851 22.8922)
(-4.43303e-13 10.4173 23.4185)
(-4.10932e-13 10.4125 23.1183)
(-3.565e-13 10.1894 23.3542)
(-3.13895e-13 10.2486 23.8399)
(-2.9408e-13 10.2197 24.3979)
(-2.84855e-13 10.2521 25.1058)
(-2.87751e-13 9.9318 25.6851)
(-2.36354e-13 17.2823 26.568)
(-3.41391e-13 10.9207 31.5076)
(-3.26592e-13 11.9844 31.997)
(-2.97947e-13 11.9357 31.6717)
(-2.71037e-13 11.6824 31.1838)
(-2.45621e-13 11.9079 30.3118)
(-2.12358e-13 11.7001 30.9539)
(-2.07392e-13 11.8566 31.6297)
(-2.05314e-13 11.9974 32.2509)
(-2.09078e-13 11.6465 32.9168)
(-1.70336e-13 21.7468 32.2363)
(-2.25305e-13 13.2904 39.0037)
(-2.04682e-13 14.7002 39.1476)
(-1.8128e-13 14.6632 37.3829)
(-1.61503e-13 14.6547 35.3111)
(-1.44653e-13 14.8652 33.6676)
(-1.28902e-13 15.0421 32.968)
(-1.26617e-13 15.4235 31.9124)
(-1.38386e-13 15.4803 31.9626)
(-1.15342e-13 27.8484 26.726)
(-1.98038e-13 17.8568 33.9413)
(-2.11992e-13 19.2077 34.995)
(-1.53215e-13 21.8449 25.4093)
(-1.8106e-13 14.0654 25.1714)
(-1.83458e-13 13.3442 18.9551)
(-1.13436e-13 10.3254 10.8789)
(-1.32701e-13 13.0453 6.15189)
(-7.11163e-14 8.81868 1.26016)
(-5.96992e-14 10.1003 -4.99761)
(-5.39877e-14 11.416 -12.1404)
(-2.69399e-14 8.40124 -9.52827)
(-3.27709e-14 11.9776 -13.0106)
(-6.3373e-14 13.4559 -14.8495)
(-4.99712e-14 9.22432 -9.71208)
(-8.55668e-14 16.209 -12.4685)
(-6.4646e-14 11.8419 -8.50667)
(-9.21969e-14 14.4768 -9.88599)
(-1.00536e-13 17.0787 -10.3039)
(-6.25606e-14 12.2638 -6.4282)
(-7.79104e-14 20.0549 -8.50369)
(-5.61378e-14 14.817 -5.94928)
(-5.97983e-14 17.9976 -7.43683)
(-5.51364e-14 20.7869 -9.13883)
(-3.35427e-14 16.5573 -6.27476)
(-3.39167e-14 21.4093 -8.26372)
(-3.37982e-14 25.4886 -10.4269)
(-2.32907e-14 18.8317 -6.99436)
(-2.72587e-14 29.923 -10.4089)
(-1.83992e-14 23.0504 -7.40188)
(-2.15731e-14 27.3209 -9.5448)
(-2.71408e-14 33.1906 -10.7994)
(-1.78166e-14 25.0236 -6.85011)
(-2.50598e-14 38.5526 -9.3691)
(-1.94433e-14 29.4384 -6.24272)
(-2.44986e-14 34.8273 -7.73936)
(-3.49735e-14 39.7933 -7.93836)
(-2.44964e-14 31.634 -4.74566)
(-2.92372e-14 39.7299 -5.72844)
(-3.90138e-14 45.1224 -5.51116)
(-2.64216e-14 32.9432 -3.27332)
(-3.63779e-14 49.3669 -4.36097)
(-2.68439e-14 37.279 -2.68042)
(-3.28717e-14 42.7668 -3.41387)
(-3.78028e-14 49.1403 -3.0933)
(-2.37664e-14 36.2254 -1.77306)
(-3.34352e-14 53.7071 -2.53433)
(-2.46113e-14 40.1511 -1.48192)
(-2.91614e-14 46.3688 -2.16656)
(-3.52547e-14 51.2899 -1.94419)
(-2.42651e-14 39.8602 -0.969471)
(-2.9057e-14 49.4899 -1.48699)
(-3.35008e-14 54.8659 -1.18152)
(-2.22351e-14 39.4809 -0.663793)
(-3.01143e-14 58.3775 -1.31885)
(-2.11865e-14 43.6644 -0.737052)
(-2.52339e-14 49.746 -1.36255)
(-3.04015e-14 56.4132 -1.15369)
(-1.98311e-14 41.2834 -0.655032)
(-2.68837e-14 60.913 -1.35125)
(-1.94756e-14 45.3254 -0.765828)
(-2.35058e-14 52.1651 -1.50205)
(-2.7063e-14 57.4062 -1.41707)
(-1.82186e-14 44.4084 -0.687522)
(-2.2286e-14 55.1259 -1.28647)
(-2.33113e-14 60.9626 -1.09302)
(-1.48088e-14 43.7202 -0.640086)
(-1.95651e-14 64.6501 -1.44996)
(-1.38125e-14 48.3101 -0.851795)
(-1.61399e-14 55.0093 -1.60828)
(-1.8131e-14 62.3715 -1.53411)
(-1.21183e-14 45.5686 -0.907788)
(-1.59769e-14 67.321 -1.84646)
(-1.13987e-14 50.1021 -1.11313)
(-1.39922e-14 57.66 -2.04126)
(-1.43871e-14 63.5671 -2.17916)
(-9.39967e-15 49.1432 -1.18852)
(-1.13306e-14 61.0299 -2.0199)
(-1.26257e-14 67.8096 -2.18181)
(-8.19755e-15 48.4997 -1.34996)
(-1.07795e-14 72.3681 -2.74304)
(-7.48217e-15 53.3704 -1.75354)
(-9.23092e-15 63.7129 -3.32848)
(-7.00625e-33 7.77047 15.406)
(-1.57788e-32 8.50431 16.8856)
(-2.71114e-32 8.49817 17.3373)
(-4.66849e-32 8.82049 17.5982)
(-8.24837e-32 8.98068 17.3777)
(-1.5066e-31 9.10339 16.8407)
(-2.78333e-31 9.03915 16.0282)
(-4.96221e-31 8.75466 15.0433)
(-7.99853e-31 8.15818 13.9512)
(-1.05066e-30 7.18069 12.833)
(-9.3385e-31 5.63187 11.7773)
(-6.07952e-31 2.79248 10.7649)
(-1.876e-30 -2.37757 9.5574)
(-3.68564e-30 -5.64966 9.00281)
(-4.27948e-30 -8.84723 8.47571)
(-3.96127e-30 -11.9008 7.81429)
(-3.2966e-30 -14.718 7.00781)
(-2.4202e-30 -17.2712 6.18746)
(-1.40558e-30 -19.468 5.39662)
(-5.86761e-31 -21.274 4.71598)
(-1.79767e-31 -22.7863 4.17741)
(-4.88568e-32 -24.064 3.71862)
(-2.36764e-32 -25.1698 3.34356)
(-1.45591e-32 -26.133 2.97054)
(-8.71986e-33 -26.9307 2.57904)
(-4.98565e-33 -27.47 2.14786)
(-2.51307e-33 -27.626 1.64608)
(-1.16462e-33 -27.0996 1.04995)
(-6.65477e-34 -26.7818 0.489993)
(-4.55361e-34 -26.8585 -0.0345768)
(-3.00553e-34 -27.8045 -0.100798)
(-1.73759e-34 -28.1594 -0.653898)
(-5.98649e-35 -28.3866 -0.816104)
(1.14751e-34 -28.7074 -1.39002)
(3.93147e-34 -28.9527 -1.537)
(7.34281e-34 -28.1247 -1.9898)
(3.16253e-34 -27.7254 -1.87183)
(-4.1009e-35 -33.3823 -2.1432)
(-1.37861e-33 -32.0622 -2.67808)
(3.71224e-31 -27.1668 -2.0104)
(-1.20999e-28 -30.5544 -1.64506)
(7.24833e-26 -36.4805 -1.2352)
(-7.72239e-23 -39.1127 -0.546529)
(1.85798e-21 -34.6727 0.410367)
(-3.29466e-18 19.379 2.73787)
(-4.22115e-18 21.0313 7.50999)
(-8.45631e-18 11.1925 2.74206)
(3.56694e-19 6.11095 4.6761)
(-1.49978e-18 6.34893 -1.11774)
(-1.6179e-18 7.59021 -5.66316)
(-1.52467e-18 6.73104 -8.78351)
(-1.39897e-18 3.28928 -9.97028)
(-8.64816e-19 -3.79615 -11.5149)
(-4.96166e-19 -19.8068 -18.8788)
(-2.18253e-19 -34.5281 -26.2997)
(-8.7548e-21 -40.385 -32.8522)
(6.29825e-20 -28.3127 -36.3212)
(3.39362e-20 -2.96274 -28.9324)
(-2.55545e-21 -4.72656 -14.2339)
(1.96895e-22 -36.8211 -11.5658)
(2.07135e-22 -43.8855 -11.4967)
(-8.51028e-24 -42.6428 -11.2042)
(-4.94648e-24 -39.755 -11.025)
(-3.46811e-25 -36.692 -10.9063)
(6.11464e-25 -33.2202 -10.7707)
(7.94561e-24 -28.6149 -10.5221)
(-1.35219e-22 -20.4905 -9.93053)
(3.55185e-21 -2.94943 -10.5208)
(-1.17235e-19 19.8782 1.66265)
(-2.12741e-18 38.2474 -4.16484)
(-8.34082e-18 51.0968 -9.73671)
(1.19518e-17 56.353 -14.8392)
(6.07946e-17 58.4888 -17.5325)
(-7.94756e-19 59.1319 -18.122)
(-6.98707e-16 59.3293 -16.969)
(-2.90056e-15 59.7186 -14.6392)
(-5.67261e-15 60.3058 -11.7961)
(-5.9662e-15 61.1589 -8.65883)
(-1.70293e-15 62.4925 -7.24323)
(-6.87946e-33 7.52893 16.3329)
(-1.48034e-32 8.21528 17.6612)
(-2.50694e-32 8.39299 17.815)
(-4.55939e-32 8.82243 17.8012)
(-9.0225e-32 9.10811 17.295)
(-1.88128e-31 9.32533 16.5231)
(-3.91048e-31 9.33455 15.5168)
(-7.70706e-31 9.09968 14.3822)
(-1.37778e-30 8.5337 13.1737)
(-2.0954e-30 7.5667 11.9673)
(-2.36966e-30 6.03126 10.8526)
(-1.47062e-30 3.3078 9.85086)
(-9.55983e-31 -1.79881 8.70281)
(-3.27794e-30 -6.1082 8.27269)
(-4.32082e-30 -9.39364 8.05935)
(-3.9116e-30 -12.3454 7.61366)
(-3.25451e-30 -15.1186 6.87509)
(-2.37896e-30 -17.6486 6.10394)
(-1.37419e-30 -19.8128 5.368)
(-5.71854e-31 -21.5887 4.726)
(-1.74954e-31 -23.0648 4.21208)
(-4.78362e-32 -24.2937 3.77366)
(-2.34601e-32 -25.338 3.41163)
(-1.44635e-32 -26.2276 3.04659)
(-8.66854e-33 -26.946 2.65989)
(-4.95772e-33 -27.4012 2.22968)
(-2.50037e-33 -27.4702 1.72357)
(-1.16091e-33 -26.8775 1.11852)
(-6.64728e-34 -26.5153 0.559989)
(-4.55251e-34 -26.5636 0.039726)
(-3.00653e-34 -27.4533 -0.0386669)
(-1.74007e-34 -27.7576 -0.602468)
(-6.03291e-35 -27.9475 -0.774601)
(1.13663e-34 -28.2448 -1.3551)
(3.91141e-34 -28.483 -1.51208)
(7.33099e-34 -27.6576 -1.96728)
(3.20928e-34 -27.2482 -1.86343)
(-3.50549e-35 -32.9069 -2.14408)
(-2.29891e-33 -31.6965 -2.6709)
(3.10701e-31 -26.8083 -1.9976)
(2.08885e-28 -30.1839 -1.61836)
(-3.03147e-25 -36.1787 -1.24469)
(3.77788e-22 -38.9701 -0.450595)
(-1.04031e-20 -34.317 0.288298)
(-3.69444e-18 18.0263 2.91021)
(-3.48457e-18 21.1636 7.41172)
(-5.65192e-18 11.7055 1.28785)
(-3.19297e-19 6.71331 3.56539)
(-1.24396e-18 7.93225 -2.82591)
(-1.6612e-18 8.86539 -7.94455)
(-1.74241e-18 7.58508 -11.9412)
(-1.63444e-18 3.95406 -13.8958)
(-1.08554e-18 -2.24618 -13.468)
(-5.49982e-19 -18.2523 -19.6982)
(-2.40358e-19 -34.1412 -27.0701)
(-2.10413e-20 -41.252 -32.4658)
(6.71609e-20 -30.5201 -35.9405)
(3.37919e-20 -5.13321 -28.0254)
(-3.08216e-21 -7.11449 -13.4835)
(-2.01018e-23 -36.9109 -11.4526)
(2.32055e-22 -43.9931 -11.5556)
(-3.6535e-24 -42.7497 -11.1928)
(-6.10749e-24 -39.8413 -11.021)
(-4.72203e-25 -36.7774 -10.9112)
(5.73069e-25 -33.3316 -10.7759)
(8.57329e-24 -28.7999 -10.4845)
(-1.48058e-22 -20.5961 -9.79519)
(2.84471e-21 -4.45566 -10.0199)
(-1.62074e-19 18.9119 3.32038)
(-4.57835e-18 40.0318 -4.37456)
(-7.44254e-18 52.7245 -10.3153)
(2.176e-17 57.5148 -15.6606)
(6.13943e-17 58.9533 -18.233)
(-3.58586e-17 59.0047 -18.6384)
(-8.58048e-16 58.7581 -17.3175)
(-3.58765e-15 58.8912 -14.8687)
(-7.20419e-15 59.3573 -11.9194)
(-7.58191e-15 60.2822 -8.68099)
(-2.29162e-15 61.7609 -5.97245)
(-5.25948e-33 7.44619 16.8069)
(-1.11657e-32 8.14832 17.9038)
(-2.00025e-32 8.4354 17.8344)
(-4.28915e-32 8.91425 17.633)
(-1.02768e-31 9.25101 16.9685)
(-2.4865e-31 9.49556 16.0855)
(-5.70146e-31 9.52109 15.0002)
(-1.20001e-30 9.29015 13.8131)
(-2.26623e-30 8.71763 12.5672)
(-3.69825e-30 7.72918 11.3297)
(-4.76436e-30 6.15377 10.1774)
(-3.82554e-30 3.3716 9.12427)
(-1.2093e-30 -1.8505 7.91221)
(-2.48583e-30 -6.07246 7.47364)
(-4.30207e-30 -9.1631 7.4306)
(-3.87199e-30 -12.0339 7.24525)
(-3.18479e-30 -14.7857 6.66969)
(-2.32657e-30 -17.3274 5.97166)
(-1.33609e-30 -19.5192 5.30249)
(-5.52153e-31 -21.3349 4.71957)
(-1.69101e-31 -22.8503 4.24402)
(-4.65437e-32 -24.113 3.83653)
(-2.31868e-32 -25.1828 3.49788)
(-1.43408e-32 -26.0872 3.14866)
(-8.60211e-33 -26.8159 2.7725)
(-4.92129e-33 -27.2748 2.34751)
(-2.48359e-33 -27.341 1.83911)
(-1.1559e-33 -26.7592 1.22236)
(-6.63656e-34 -26.4254 0.658627)
(-4.55025e-34 -26.5402 0.143232)
(-3.0071e-34 -27.4345 0.0544618)
(-1.74262e-34 -27.7385 -0.52398)
(-6.0853e-35 -27.9348 -0.711417)
(1.12398e-34 -28.241 -1.30335)
(3.88766e-34 -28.4988 -1.47644)
(7.31675e-34 -27.7129 -1.939)
(3.26483e-34 -27.329 -1.85206)
(-2.31396e-35 -32.8958 -2.14574)
(-4.44518e-33 -31.8009 -2.67075)
(2.64622e-31 -27.0361 -1.99767)
(8.67957e-28 -30.3767 -1.59734)
(-1.01406e-24 -36.3831 -1.26399)
(1.00521e-21 -39.2712 -0.335008)
(-2.94483e-20 -34.7295 0.244981)
(-3.69765e-18 17.3911 3.25961)
(-3.398e-18 21.3679 7.60285)
(-2.2337e-18 12.0551 1.50069)
(-4.79877e-19 7.06084 2.26545)
(-9.25709e-19 8.95587 -4.24433)
(-1.45853e-18 9.65936 -9.3303)
(-1.73124e-18 8.09646 -13.6579)
(-1.75538e-18 3.81698 -16.6942)
(-1.3639e-18 -1.80144 -16.8942)
(-6.39881e-19 -16.4552 -21.1004)
(-2.78658e-19 -32.2808 -28.1474)
(-4.41716e-20 -39.6046 -32.9265)
(6.62422e-20 -30.7044 -36.6583)
(3.78266e-20 -7.08835 -29.488)
(-2.45573e-21 -8.8466 -13.5361)
(-2.30913e-22 -37.1513 -11.4433)
(2.58216e-22 -44.0085 -11.6153)
(2.62778e-24 -42.7747 -11.1976)
(-7.54822e-24 -39.8435 -11.0196)
(-6.71221e-25 -36.7722 -10.9147)
(5.29971e-25 -33.3437 -10.7663)
(9.2239e-24 -28.8761 -10.3849)
(-1.51813e-22 -20.6327 -9.54875)
(1.66792e-21 -5.8233 -9.10452)
(-2.7489e-19 18.5804 4.0404)
(-7.15862e-18 41.2384 -4.51243)
(-4.73478e-18 53.6877 -10.66)
(3.07331e-17 58.1589 -16.0879)
(5.35337e-17 59.1891 -18.5386)
(-7.15723e-17 58.9328 -18.818)
(-9.73337e-16 58.4692 -17.4178)
(-4.14346e-15 58.4798 -14.9383)
(-8.51834e-15 58.884 -11.9655)
(-8.97804e-15 59.7868 -8.67976)
(-2.78555e-15 61.2155 -5.46926)
(-1.59001e-33 7.32396 17.2834)
(-3.5404e-33 8.04727 18.1358)
(-9.04416e-33 8.46333 17.8476)
(-3.33496e-32 9.00658 17.4618)
(-1.13077e-31 9.41526 16.6443)
(-3.29371e-31 9.70631 15.6539)
(-8.36791e-31 9.76631 14.4931)
(-1.87672e-30 9.55542 13.258)
(-3.71482e-30 8.99213 11.9795)
(-6.35947e-30 7.99955 10.7146)
(-8.83051e-30 6.41156 9.52593)
(-8.2657e-30 3.65415 8.42079)
(-2.86861e-30 -1.52535 7.13588)
(-1.62336e-30 -5.99381 6.69172)
(-4.09723e-30 -9.02548 6.75079)
(-3.91911e-30 -11.8344 6.74106)
(-3.08569e-30 -14.5476 6.377)
(-2.26378e-30 -17.0686 5.80319)
(-1.29821e-30 -19.2696 5.21082)
(-5.31325e-31 -21.1131 4.69384)
(-1.62744e-31 -22.6572 4.26943)
(-4.52405e-32 -23.9462 3.90017)
(-2.28876e-32 -25.0375 3.59185)
(-1.42085e-32 -25.9557 3.26471)
(-8.5287e-33 -26.6958 2.90367)
(-4.88064e-33 -27.1612 2.48747)
(-2.46453e-33 -27.2277 1.97994)
(-1.15004e-33 -26.6569 1.35196)
(-6.62323e-34 -26.3515 0.775545)
(-4.54662e-34 -26.5365 0.262316)
(-3.00672e-34 -27.4399 0.166653)
(-1.74457e-34 -27.7488 -0.428258)
(-6.13313e-35 -27.9552 -0.634232)
(1.11181e-34 -28.2721 -1.24095)
(3.86419e-34 -28.5489 -1.4336)
(7.30234e-34 -27.7977 -1.90834)
(3.32043e-34 -27.4379 -1.84115)
(-7.13693e-36 -32.923 -2.14728)
(-7.68001e-33 -31.9256 -2.67604)
(5.39226e-31 -27.2711 -2.01547)
(1.36174e-27 -30.5817 -1.59243)
(-1.5704e-24 -36.601 -1.30217)
(1.44713e-21 -39.5705 -0.256344)
(-5.04401e-20 -35.2014 0.271611)
(-3.63797e-18 16.4224 3.4839)
(-3.42258e-18 21.5611 7.78344)
(-1.27503e-19 12.676 1.77781)
(-1.895e-19 7.79294 1.07374)
(-6.66885e-19 10.1617 -5.20509)
(-1.28204e-18 10.6622 -10.4635)
(-1.62095e-18 8.93144 -15.1338)
(-1.6945e-18 4.38111 -19.0223)
(-1.6294e-18 -1.56083 -21.5828)
(-8.34382e-19 -15.3298 -23.342)
(-3.6817e-19 -30.8764 -30.0061)
(-9.34581e-20 -38.367 -35.0335)
(4.93102e-20 -30.9107 -38.5032)
(3.56522e-20 -9.43434 -31.3167)
(-1.67861e-21 -10.7608 -14.1647)
(-3.37883e-22 -37.3415 -11.656)
(2.8041e-22 -44.0489 -11.7014)
(8.58994e-24 -42.8242 -11.2293)
(-9.02021e-24 -39.8687 -11.0249)
(-9.15171e-25 -36.7928 -10.9145)
(4.91091e-25 -33.3924 -10.7364)
(9.54352e-24 -29.0044 -10.2239)
(-1.29087e-22 -20.7976 -9.20741)
(-9.69767e-22 -7.18359 -7.91579)
(-5.35727e-19 18.1441 4.86616)
(-1.00425e-17 42.8037 -4.65641)
(-4.56917e-19 54.9544 -11.0964)
(4.12781e-17 58.9881 -16.5993)
(3.9589e-17 59.4711 -18.9045)
(-1.19735e-16 58.798 -19.0269)
(-1.12294e-15 58.0402 -17.527)
(-4.86058e-15 57.8831 -15.0077)
(-1.01819e-14 58.2013 -12.0032)
(-1.07061e-14 59.1197 -8.6857)
(-3.36823e-15 60.5325 -6.22187)
(5.68482e-33 7.25391 17.6515)
(1.14315e-32 8.02687 18.2266)
(1.36776e-32 8.55659 17.7384)
(-7.59093e-33 9.14968 17.1886)
(-1.0914e-31 9.61113 16.2498)
(-4.23343e-31 9.93002 15.1838)
(-1.21481e-30 10.0086 13.9789)
(-2.9191e-30 9.80516 12.724)
(-6.06297e-30 9.24198 11.4367)
(-1.08303e-29 8.23933 10.1624)
(-1.58733e-29 6.63326 8.94845)
(-1.6449e-29 3.88257 7.79542)
(-7.20143e-30 -1.29492 6.40749)
(-1.0562e-30 -5.98421 5.8847)
(-3.58089e-30 -9.04628 6.04116)
(-4.0887e-30 -11.8344 6.14675)
(-2.98909e-30 -14.5089 5.97477)
(-2.18616e-30 -16.9928 5.57162)
(-1.25468e-30 -19.1896 5.09042)
(-5.14452e-31 -21.0489 4.64496)
(-1.55151e-31 -22.6061 4.28393)
(-4.40984e-32 -23.9035 3.96387)
(-2.25723e-32 -24.9971 3.69327)
(-1.40685e-32 -25.9085 3.39558)
(-8.45054e-33 -26.6378 3.0556)
(-4.83638e-33 -27.0865 2.65263)
(-2.44339e-33 -27.1291 2.14987)
(-1.14333e-33 -26.5455 1.51299)
(-6.6069e-34 -26.2503 0.918137)
(-4.5413e-34 -26.4837 0.403154)
(-3.00507e-34 -27.3749 0.30272)
(-1.74559e-34 -27.6717 -0.310963)
(-6.17247e-35 -27.8745 -0.538725)
(1.10087e-34 -28.1912 -1.16397)
(3.84217e-34 -28.4782 -1.37965)
(7.28844e-34 -27.7504 -1.87157)
(3.37408e-34 -27.4054 -1.82883)
(4.80063e-36 -32.8341 -2.14776)
(-9.93259e-33 -31.9316 -2.68405)
(9.11544e-31 -27.3628 -2.04698)
(1.4228e-27 -30.6498 -1.60339)
(-1.65803e-24 -36.705 -1.36317)
(1.48697e-21 -39.7682 -0.22548)
(-6.86399e-20 -35.5435 0.302529)
(-3.58227e-18 15.681 3.76715)
(-3.44125e-18 21.7251 8.0147)
(-1.0007e-18 13.3691 2.37138)
(5.27887e-20 8.53088 0.0187035)
(-6.41403e-19 11.2891 -5.75314)
(-1.27143e-18 11.662 -11.2719)
(-1.51775e-18 9.81901 -16.6208)
(-1.49401e-18 5.04894 -21.3572)
(-1.59596e-18 -1.20325 -26.5917)
(-1.12781e-18 -14.6358 -27.6582)
(-5.65562e-19 -29.8712 -33.7183)
(-1.84738e-19 -37.6769 -38.9078)
(1.34809e-20 -31.442 -41.3288)
(2.42735e-20 -11.5639 -33.5489)
(-1.75571e-21 -12.8984 -15.2909)
(-3.02339e-22 -37.5909 -12.0957)
(3.05199e-22 -44.1306 -11.8355)
(1.31024e-23 -42.8951 -11.286)
(-1.05046e-23 -39.9108 -11.033)
(-1.17301e-24 -36.8314 -10.9045)
(4.4095e-25 -33.4758 -10.6819)
(1.0255e-23 -29.1908 -10.001)
(-1.0993e-22 -21.085 -8.79856)
(-5.97725e-21 -8.6405 -6.52846)
(-1.07088e-18 17.9719 5.46783)
(-1.3001e-17 44.3886 -4.82081)
(5.94626e-18 56.1667 -11.5483)
(5.25202e-17 59.7341 -17.0653)
(1.58922e-17 59.6937 -19.197)
(-1.80791e-16 58.6509 -19.1531)
(-1.29555e-15 57.6444 -17.5637)
(-5.71246e-15 57.3464 -15.0248)
(-1.2147e-14 57.5876 -12.0107)
(-1.27064e-14 58.4959 -8.66933)
(-4.01658e-15 59.8633 -5.03225)
(1.89972e-32 7.20366 17.9282)
(3.93167e-32 8.03951 18.2157)
(5.84759e-32 8.67235 17.5571)
(5.20051e-32 9.309 16.8691)
(-6.56966e-32 9.81812 15.8394)
(-5.07359e-31 10.1616 14.724)
(-1.7208e-30 10.2574 13.4977)
(-4.48207e-30 10.0619 12.2408)
(-9.80707e-30 9.50129 10.9582)
(-1.82812e-29 8.49352 9.68338)
(-2.80845e-29 6.87674 8.44864)
(-3.14187e-29 4.1466 7.25254)
(-1.65851e-29 -1.00177 5.75527)
(-1.38397e-30 -5.97655 5.05569)
(-2.7081e-30 -9.09779 5.28861)
(-4.3075e-30 -11.8654 5.50797)
(-2.97778e-30 -14.5016 5.47933)
(-2.09447e-30 -16.9484 5.25504)
(-1.19623e-30 -19.1342 4.92591)
(-5.03545e-31 -21.0036 4.57108)
(-1.46761e-31 -22.5711 4.2806)
(-4.30341e-32 -23.8729 4.02321)
(-2.22715e-32 -24.9649 3.79926)
(-1.39142e-32 -25.8651 3.53893)
(-8.36858e-33 -26.5788 3.22712)
(-4.78858e-33 -27.0057 2.84272)
(-2.42002e-33 -27.0188 2.34905)
(-1.13563e-33 -26.418 1.70668)
(-6.58695e-34 -26.1322 1.08974)
(-4.53392e-34 -26.4142 0.56945)
(-3.00189e-34 -27.2868 0.465173)
(-1.7454e-34 -27.5678 -0.16925)
(-6.20061e-35 -27.7656 -0.422332)
(1.09157e-34 -28.0815 -1.07013)
(3.82219e-34 -28.3791 -1.31258)
(7.27539e-34 -27.6754 -1.82667)
(3.42462e-34 -27.3464 -1.81275)
(1.35519e-35 -32.721 -2.14615)
(-9.84363e-33 -31.9176 -2.69432)
(8.83856e-31 -27.4388 -2.08937)
(1.22211e-27 -30.7005 -1.62843)
(-1.35031e-24 -36.7975 -1.44652)
(1.14457e-21 -39.9628 -0.234797)
(-8.23589e-20 -35.8946 0.302421)
(-3.48421e-18 14.7643 4.03981)
(-3.2475e-18 21.8371 8.29002)
(-1.09277e-18 14.1851 3.13689)
(-1.03893e-19 9.42904 -0.618402)
(-9.25703e-19 12.4383 -5.91781)
(-1.42309e-18 12.808 -11.8294)
(-1.46294e-18 10.946 -18.2086)
(-1.28881e-18 6.11879 -24.4218)
(-1.20716e-18 -0.397352 -31.4838)
(-1.22684e-18 -13.8276 -34.5546)
(-7.84057e-19 -28.8488 -40.1705)
(-3.01974e-19 -37.1412 -44.6224)
(-3.69422e-20 -32.269 -45.2365)
(3.75259e-21 -14.2332 -36.133)
(-3.46999e-21 -15.2346 -16.7554)
(-1.25066e-22 -37.9676 -12.7194)
(3.45267e-22 -44.2573 -12.0153)
(1.57651e-23 -42.9738 -11.358)
(-1.21378e-23 -39.9538 -11.0406)
(-1.42768e-24 -36.869 -10.8853)
(3.68393e-25 -33.5734 -10.6061)