/*--------------------------------*- C++ -*----------------------------------*\
| =========                 |                                                 |
| \\      /  F ield         | OpenFOAM: The Open Source CFD Toolbox           |
|  \\    /   O peration     | Version:  4.1                                   |
|   \\  /    A nd           | Web:      www.OpenFOAM.org                      |
|    \\/     M anipulation  |                                                 |
\*---------------------------------------------------------------------------*/
FoamFile
{
    version     2.0;
    format      ascii;
    class       surfaceScalarField;
    location    "9";
    object      phi;
}
// * * * * * * * * * * * * * * * * * * * * * * * * * * * * * * * * * * * * * //

dimensions      [0 3 -1 0 0 0 0];

internalField   nonuniform List<scalar> 
13220
(
-830.396
2130.3
-1282.97
1752.77
-1725.72
1742.65
-2051.37
1625.55
-2303.4
1552.22
-2476.1
1472.6
-2573.12
1396.92
-2595.09
1322.18
-2545.92
1250.73
-2430.46
1184.44
-2254.27
1124.02
-2004.87
1050.49
-1625.48
920.513
-1020.84
695.564
279.06
-90.5972
2220.9
-239.013
1901.19
-448.609
1952.25
-617.453
1794.4
-785.705
1720.47
-927.348
1614.25
-1050.07
1519.64
-1151.99
1424.1
-1231.13
1329.87
-1260.83
1214.14
-1174.92
1038.11
-918.565
794.14
-549.608
551.557
-198.237
344.196
80.8225
-194.542
2415.44
-445.813
2152.46
-660.298
2166.74
-815.782
1949.88
-965.404
1870.1
-1078.49
1727.34
-1177.98
1619.13
-1262.4
1508.52
-1331.4
1398.86
-1353.4
1236.14
-1257.9
942.616
-969.371
505.611
-540.167
122.362
-153.832
-42.1192
-73.0095
3.35809
2412.08
-99.5903
2255.41
-149.601
2216.75
-173.349
1973.63
-198.122
1894.87
-202.495
1731.71
-199.004
1615.64
-181.566
1491.09
-157.331
1374.63
-143.526
1222.34
-172.292
971.385
-248.161
581.485
-291.413
165.621
-257.606
-75.9182
-330.616
152.652
2259.43
115.147
2292.92
153.78
2178.12
204.644
1922.77
262.407
1837.11
326.058
1668.06
397.977
1543.72
479.897
1409.17
571.613
1282.91
645.259
1148.7
640.089
976.556
480.036
741.543
194.707
450.96
-10.0274
128.829
-340.643
169.457
2089.98
168.681
2293.7
216.165
2130.64
272.933
1866.01
339.46
1770.59
402.201
1605.32
470.751
1475.17
540.329
1339.59
612.694
1210.55
675.687
1085.7
699.312
952.931
638.474
802.375
477.844
611.582
236.867
369.793
-103.776
113.802
1976.18
159.676
2247.82
212.301
2078.01
272.401
1805.91
336.809
1706.18
398.695
1543.44
457.802
1416.07
511.056
1286.34
556.886
1164.72
594.69
1047.9
611.123
936.498
579.697
833.806
471.933
719.352
274.77
566.969
170.994
34.0415
1942.13
107.072
2174.79
168.019
2017.06
224.826
1749.1
279.16
1651.84
344.683
1477.92
415.809
1344.94
507.404
1194.74
603.326
1068.8
684.346
966.877
720.283
900.561
681.925
872.157
543.535
857.733
313.997
796.495
484.991
-56.6456
1998.78
-14.098
2132.25
18.3253
1984.64
15.6463
1751.78
11.8104
1655.68
21.0334
1468.69
75.205
1290.77
197.243
1072.7
359.861
906.179
522.865
803.875
633.113
790.313
637.646
867.63
508.468
986.917
281.055
1023.91
766.046
-97.5867
2096.37
-211.666
2246.32
-291.46
2064.43
-412.737
1873.06
-538.441
1781.38
-665.629
1595.88
-754.889
1380.03
-786.103
1103.92
-759.932
880.007
-670.796
714.737
-506.097
625.613
-280.203
641.727
-70.6004
777.306
24.2535
929.051
790.3
77.642
2018.72
-129.345
2453.31
-306.815
2241.9
-462.805
2029.04
-614.115
1932.69
-783.317
1765.08
-975.844
1572.55
-1181.44
1309.51
-1369.6
1068.17
-1495.92
841.06
-1496.09
625.782
-1292.29
437.931
-857.982
342.995
-328.705
399.777
461.594
355.824
1662.9
304.924
2504.21
145.302
2401.52
35.7764
2138.57
-22.6713
1991.14
-86.8511
1829.26
-182.063
1667.76
-330.89
1458.33
-505.608
1242.88
-684.914
1020.36
-845.402
786.268
-935.669
528.19
-846.434
253.75
-507.49
60.8179
-45.8954
527.407
1135.49
713.352
2318.26
700.811
2414.06
714.884
2124.49
798.068
1907.95
882.133
1745.19
940.1
1609.79
937.365
1461.06
878.209
1302.04
765.848
1132.72
598.747
953.367
366.452
760.485
88.367
531.831
-111.341
260.517
-157.236
496.935
638.549
727.252
2087.94
731.199
2410.11
658.505
2197.18
635.975
1930.48
664.45
1716.71
724.617
1549.63
785.014
1400.67
828.752
1258.3
841.842
1119.63
816.798
978.412
743.91
833.371
593.908
681.832
345.071
509.351
187.835
231.448
1087.88
1856.28
2344.31
2520.36
2561.43
2500.79
2367.97
2173.73
1949.7
1679.16
1352.44
985.276
539.868
7.54841e-06
-291.463
291.463
-291.463
-291.463
-291.463
247.226
-538.69
247.226
247.226
247.226
683.426
-436.2
683.426
683.426
1013.4
-329.971
1013.4
1013.4
1013.4
1251.33
-237.934
1251.33
1251.33
1397.79
-146.462
1397.79
1397.79
1397.79
1450.29
-52.4971
1450.29
1450.29
1450.29
1417.3
32.9894
1417.3
1417.3
1320.51
96.7941
1320.51
1320.51
1320.51
1160.25
160.255
1160.25
1160.25
964.886
195.366
964.886
964.886
964.886
773.36
191.526
773.36
773.36
773.36
703.243
70.1174
703.243
703.243
657.848
45.3944
657.848
657.848
657.848
519.685
138.163
519.685
519.685
519.685
291.819
227.866
291.819
291.819
63.6107
228.208
63.6107
63.6108
63.6107
-387.759
451.37
-387.759
-387.759
-1354.53
966.767
-1354.53
-1354.53
-1354.53
-2765.6
1411.07
-2765.6
-2765.6
-2765.6
-4569.49
1803.9
-4569.49
-4569.49
-6716.1
2146.61
-6716.1
-6716.1
-6583.2
-6450.81
-6314.86
-8609.05
2429.98
-8465.69
-8299.7
-8120.59
-7941.07
-7761.02
-7581.14
-7398.17
-7204.45
-9591.12
2576.39
-9389.48
-9187.88
-8986.03
-8769.86
-8552.05
-8333.44
-8114.69
-7895.13
-10283.7
2609.56
-10048.9
-9813.69
-9578.03
-9341.91
-9100.04
-8847.66
-8594.09
-8338.53
-8082.12
-10378.1
2541.24
-10109.6
-9838.98
-9566.52
-9292.97
-9018.43
-8731.32
-8436.84
-8142.66
-10204.5
2340.93
-9919.77
-9629.37
-9327.51
-9025.89
-8723.82
-8422.1
-8119.2
-7794.92
-9368.37
1885.03
-9055.64
-8743.87
-8432.57
-8103.24
-7767.13
-7433.98
-7103.01
-6778.1
-7624.56
1170.12
-7294.01
-6971.46
-6653.82
-6341.66
-6034.52
-5718.43
-5407.18
-5099.37
-4799.03
-4686.41
196.301
-4423.59
-4181.55
-3945.67
-3716.97
-3494.88
-3322.18
-3246.79
-3172.27
-2769
-322.718
-2701.03
-2633.8
-2633.8
-2402.61
-231.188
-2184.58
-218.027
-2184.58
-2002.79
-181.799
-2002.79
-1853
-149.788
-1733.18
-119.822
-1733.18
-1629.54
-103.64
-1546.6
-82.9355
-1546.6
-1474.37
-72.2291
-1474.37
-1417.1
-57.2742
-1371.09
-46.0103
-1371.09
-1330.86
-40.2297
-1330.86
-1299.79
-31.0704
-1271.88
-27.9056
-1271.88
-1248.23
-23.6486
-1225.86
-22.3701
-1225.86
-1203.74
-22.1225
-1203.74
-1184.48
-19.2587
-1164.31
-20.1739
-1164.31
-1143.09
-21.2126
-1143.09
-1123.79
-19.3024
-1102.05
-21.7446
-1102.05
-1080.71
-21.3345
-1057.86
-22.8475
-1057.86
-1033.67
-24.1925
-1033.67
-1010.45
-23.2233
-984.974
-25.4749
-984.974
-957.56
-27.414
-957.56
-930.373
-27.1874
-899.773
-30.6001
-899.773
-867.659
-32.1142
-833.074
-34.5842
-833.074
-795.736
-37.3386
-795.736
-756.756
-38.9796
-714.962
-41.7943
-714.962
-669.434
-45.5279
-669.434
-620.859
-48.5748
-569.168
-51.6915
-569.168
-512.192
-56.9756
-453.908
-58.2845
-453.908
-391.545
-62.3628
-391.545
-324.567
-66.9783
-257.022
-67.5442
-257.022
-185.625
-71.3971
-185.625
-107.379
-78.2458
-25.7093
-81.6701
-25.7093
58.2946
-84.0039
169.271
-110.977
169.271
274.961
-105.69
274.961
-93.4648
-75.8487
-331.159
-75.9792
-390.59
-76.4947
-425.475
-77.1547
-461.018
-78.0441
-494.776
-79.0968
-526.817
-80.3324
-557.851
-81.7306
-587.78
-83.2932
-616.897
-85.0113
-645.238
-86.8822
-672.924
-88.9001
-700.007
-91.0613
-726.551
-93.3619
-752.602
-95.7988
-778.212
-98.3694
-803.433
-101.072
-828.322
-103.904
-852.939
-106.866
-877.347
-109.955
-901.603
-113.171
-925.759
-116.511
-949.855
-119.974
-973.92
-123.559
-997.982
-127.266
-1022.08
-131.096
-1046.25
-135.051
-1070.59
-139.131
-1095.16
-143.337
-1120.05
-147.663
-1145.28
-152.104
-1170.85
-156.644
-1196.69
-161.267
-1222.65
-165.95
-1248.55
-170.665
-1274.15
-175.387
-1299.16
-180.094
-1323.27
-184.785
-1346.16
-189.487
-1367.56
-194.283
-1387.29
-199.33
-1405.26
-204.875
-1421.54
-211.253
-1436.21
-218.849
-1449.27
-228.009
-1460.41
-238.909
-1468.82
-251.392
-1473.32
-264.834
-1472.42
-278.074
-1464.3
-289.464
-1446.4
-297.042
-1414.52
-298.97
-1362.94
-293.819
-1289.96
-273.979
-1189.94
-208.01
-928.066
-101.272
-122.037
-45.9549
783.75
-10.3157
1224.15
16.3381
1552.6
32.0638
1885.06
44.7072
2242.41
52.2356
2573.2
54.8822
2866.42
55.3097
3126.12
55.5907
3340.89
55.5011
3478.06
55.4171
3535
55.8267
3522.61
55.2188
3405.27
54.3939
3233.43
51.6048
2964.39
49.2496
2711.76
43.5785
2324.92
42.9544
2235.18
35.9448
1655.44
41.8784
2173.02
48.0864
1474.62
61.0242
2304.32
4020
-80.638
-331.509
-80.6434
-390.585
-81.1148
-425.004
-81.7507
-460.382
-82.6442
-493.883
-83.7161
-525.745
-84.9861
-556.581
-86.4296
-586.337
-88.0472
-615.28
-89.8283
-643.456
-91.7691
-670.983
-93.8631
-697.913
-96.1061
-724.307
-98.4942
-750.214
-101.024
-775.682
-103.694
-800.763
-106.503
-825.514
-109.448
-849.994
-112.53
-874.265
-115.746
-898.387
-119.094
-922.411
-122.574
-946.375
-126.181
-970.312
-129.918
-994.246
-133.783
-1018.21
-137.779
-1042.26
-141.909
-1066.46
-146.174
-1090.9
-150.572
-1115.65
-155.096
-1140.76
-159.735
-1166.21
-164.472
-1191.95
-169.285
-1217.84
-174.148
-1243.69
-179.035
-1269.27
-183.923
-1294.28
-188.805
-1318.39
-193.709
-1341.26
-198.717
-1362.55
-204.001
-1382
-209.85
-1399.42
-216.685
-1414.7
-225.037
-1427.86
-235.455
-1438.86
-248.344
-1447.52
-263.757
-1453.41
-281.185
-1455.89
-299.44
-1454.16
-316.706
-1447.03
-330.741
-1432.36
-339.167
-1406.1
-339.96
-1362.15
-332.051
-1297.87
-309.955
-1212.04
-241.026
-996.996
-103.577
-259.486
-37.2194
717.392
-7.12663
1194.06
19.138
1526.34
33.9809
1870.22
45.6409
2230.75
52.275
2566.57
54.1404
2864.56
54.05
3126.21
53.9744
3340.96
53.6642
3478.37
53.5789
3535.09
54.0557
3522.13
53.6239
3405.7
53.0684
3233.98
50.5395
2966.91
48.5035
2713.79
43.0676
2330.35
42.6478
2235.6
35.6129
1662.48
41.5174
2167.12
47.4583
1468.68
60.9159
2290.86
3975.22
-83.2296
-331.938
-83.1916
-390.623
-83.6366
-424.559
-84.2643
-459.754
-85.1611
-492.986
-86.2462
-524.66
-87.5366
-555.291
-89.0067
-584.866
-90.6561
-613.63
-92.4732
-641.639
-94.4538
-669.003
-96.5909
-695.776
-98.8805
-722.018
-101.318
-747.776
-103.902
-773.099
-106.629
-798.036
-109.499
-822.644
-112.51
-846.983
-115.66
-871.114
-118.949
-895.098
-122.374
-918.985
-125.933
-942.817
-129.624
-966.621
-133.447
-990.423
-137.403
-1014.25
-141.495
-1038.16
-145.727
-1062.23
-150.099
-1086.52
-154.608
-1111.14
-159.245
-1136.12
-163.997
-1161.46
-168.846
-1187.1
-173.768
-1212.91
-178.737
-1238.72
-183.73
-1264.28
-188.731
-1289.27
-193.752
-1313.36
-198.854
-1336.15
-204.177
-1357.23
-209.986
-1376.2
-216.693
-1392.71
-224.87
-1406.53
-235.178
-1417.55
-248.227
-1425.81
-264.333
-1431.41
-283.268
-1434.47
-304.072
-1435.09
-325.042
-1433.19
-343.936
-1428.14
-358.281
-1418.02
-365.69
-1398.69
-364.26
-1363.58
-353.328
-1308.8
-329.899
-1235.46
-264.84
-1062.06
-112.085
-412.24
-24.4073
629.714
-0.628371
1170.28
23.1474
1502.56
37.3266
1856.04
47.536
2220.54
52.891
2561.22
53.5823
2863.87
52.5847
3127.21
51.8923
3341.66
51.1936
3479.07
50.9862
3535.3
51.5262
3521.59
51.3043
3405.93
51.0871
3234.2
48.9338
2969.07
47.3107
2715.41
42.2299
2335.44
42.0119
2235.82
35.1653
1669.32
40.6418
2161.64
46.968
1462.35
59.5212
2278.31
3923.77
-86.3059
-332.439
-86.2277
-390.701
-86.6506
-424.136
-87.2738
-459.131
-88.1794
-492.08
-89.2838
-523.556
-90.6022
-553.973
-92.1076
-583.361
-93.7982
-611.94
-95.6617
-639.776
-97.6931
-666.972
-99.8851
-693.584
-102.233
-719.67
-104.734
-745.276
-107.384
-770.449
-110.182
-795.238
-113.127
-819.699
-116.218
-843.892
-119.453
-867.879
-122.832
-891.72
-126.351
-915.467
-130.007
-939.16
-133.8
-962.828
-137.728
-986.495
-141.795
-1010.19
-146.005
-1033.96
-150.36
-1057.87
-154.862
-1082.02
-159.506
-1106.5
-164.283
-1131.34
-169.176
-1156.57
-174.166
-1182.11
-179.227
-1207.85
-184.335
-1233.61
-189.471
-1259.14
-194.633
-1284.11
-199.86
-1308.14
-205.264
-1330.75
-211.073
-1351.42
-217.676
-1369.59
-225.655
-1384.73
-235.758
-1396.42
-248.781
-1404.53
-265.333
-1409.26
-285.518
-1411.23
-308.659
-1411.33
-333.206
-1410.54
-356.885
-1409.51
-377.07
-1407.95
-391.176
-1403.91
-396.925
-1392.94
-392.626
-1367.88
-378.037
-1323.39
-352.151
-1261.35
-289.413
-1124.79
-127.913
-573.74
-13.6618
515.462
10.3653
1146.25
28.4058
1484.52
41.9053
1842.54
50.4728
2211.98
54.1366
2557.55
53.262
2864.74
51.011
3129.46
49.4434
3343.22
48.1836
3480.33
47.7583
3535.72
48.3278
3521.02
48.3432
3405.91
48.5174
3234.02
46.8374
2970.75
45.7118
2716.54
41.1032
2340.04
41.1468
2235.77
34.5839
1675.89
39.6771
2156.55
45.9475
1456.08
56.9787
2267.28
3896.74
-89.2635
-332.99
-89.1616
-390.803
-89.5683
-423.729
-90.1926
-458.507
-91.1104
-491.163
-92.2373
-522.429
-93.586
-552.624
-95.1287
-581.818
-96.8622
-610.206
-98.7735
-637.864
-100.857
-664.888
-103.105
-691.336
-105.513
-717.262
-108.076
-742.712
-110.794
-767.731
-113.663
-792.369
-116.684
-816.678
-119.856
-840.72
-123.177
-864.557
-126.646
-888.251
-130.259
-911.853
-134.014
-935.405
-137.908
-958.934
-141.943
-982.46
-146.122
-1006.01
-150.448
-1029.63
-154.928
-1053.39
-159.561
-1077.39
-164.342
-1101.71
-169.259
-1126.43
-174.297
-1151.53
-179.431
-1176.97
-184.639
-1202.65
-189.897
-1228.36
-195.196
-1253.84
-200.558
-1278.75
-206.065
-1302.63
-211.902
-1324.91
-218.417
-1344.91
-226.165
-1361.85
-235.922
-1374.97
-248.619
-1383.73
-265.126
-1388.02
-285.916
-1388.47
-310.684
-1386.46
-338.122
-1383.89
-365.996
-1382.67
-391.52
-1383.99
-411.87
-1387.6
-424.573
-1391.21
-427.648
-1389.86
-419.716
-1375.81
-400.888
-1342.22
-371.851
-1290.39
-311.963
-1184.68
-149.345
-736.358
-4.73222
370.85
24.6979
1116.82
36.076
1473.15
47.8012
1830.82
54.6337
2205.14
56.1672
2556.02
53.2296
2867.68
49.3083
3133.38
46.5571
3345.97
44.5296
3482.36
43.7716
3536.48
44.3355
3520.46
44.6121
3405.63
45.2487
3233.39
44.1399
2971.86
43.6401
2717.04
39.6009
2344.08
40.0638
2235.31
33.798
1682.15
38.6829
2151.66
44.6026
1450.16
55.0599
2256.82
3870.13
-92.243
-333.575
-92.1285
-390.918
-92.5256
-423.332
-93.1564
-457.876
-94.0906
-490.229
-95.244
-521.275
-96.627
-551.241
-98.2107
-580.235
-99.9908
-608.426
-101.954
-635.902
-104.093
-662.749
-106.4
-689.028
-108.872
-714.791
-111.502
-740.081
-114.291
-764.943
-117.236
-789.424
-120.337
-813.577
-123.593
-837.464
-127.004
-861.146
-130.568
-884.688
-134.28
-908.141
-138.138
-931.547
-142.14
-954.932
-146.286
-978.313
-150.58
-1001.71
-155.03
-1025.18
-159.64
-1048.78
-164.41
-1072.62
-169.335
-1096.79
-174.402
-1121.36
-179.592
-1146.34
-184.883
-1171.68
-190.252
-1197.28
-195.685
-1222.92
-201.187
-1248.34
-206.817
-1273.12
-212.722
-1296.73
-219.195
-1318.44
-226.741
-1337.36
-236.121
-1352.47
-248.325
-1362.77
-264.427
-1367.63
-285.258
-1367.19
-310.958
-1362.77
-340.59
-1356.83
-372.069
-1352.41
-402.494
-1352.24
-428.745
-1357.74
-448.047
-1368.3
-458.26
-1381
-457.831
-1390.29
-445.733
-1387.91
-422.294
-1365.66
-389.383
-1323.3
-332.764
-1241.3
-180.79
-888.333
-0.624795
190.685
39.8233
1076.37
46.7767
1466.19
55.2207
1822.37
60.0747
2200.29
59.132
2556.96
53.615
2873.2
47.5737
3139.42
43.3003
3350.25
40.2759
3485.38
39.0509
3537.71
39.5574
3519.95
40.1092
3405.08
41.2683
3232.23
40.8226
2972.3
41.0714
2716.79
37.6993
2347.46
38.731
2234.28
32.8039
1688.08
37.6128
2146.85
43.2596
1444.51
53.0227
2247.06
3844.91
-95.2169
-334.18
-95.1002
-391.034
-95.4939
-422.939
-96.1367
-457.233
-97.0915
-489.274
-98.2754
-520.091
-99.6962
-549.82
-101.324
-578.606
-103.155
-606.596
-105.172
-633.884
-107.371
-660.551
-109.741
-686.658
-112.279
-712.253
-114.98
-737.38
-117.843
-762.08
-120.867
-786.4
-124.051
-810.393
-127.396
-834.119
-130.901
-857.642
-134.563
-881.026
-138.378
-904.326
-142.343
-927.582
-146.456
-950.819
-150.717
-974.052
-155.133
-997.299
-159.71
-1020.6
-164.455
-1044.04
-169.368
-1067.7
-174.444
-1091.71
-179.668
-1116.14
-185.021
-1140.99
-190.482
-1166.22
-196.032
-1191.73
-201.67
-1217.28
-207.433
-1242.57
-213.432
-1267.12
-219.912
-1290.25
-227.315
-1311.04
-236.351
-1328.32
-248.012
-1340.8
-263.487
-1347.29
-283.897
-1347.22
-309.843
-1341.24
-340.88
-1331.73
-375.238
-1322.47
-410.007
-1317.65
-441.778
-1320.47
-467.374
-1332.14
-484.343
-1351.33
-491.048
-1374.29
-486.434
-1394.91
-469.811
-1404.53
-441.583
-1393.88
-404.33
-1360.55
-350.903
-1294.73
-225.121
-1014.12
-17.398
-17.0375
53.3696
1005.61
60.0096
1459.55
64.604
1817.78
66.8644
2198.03
63.1287
2560.7
54.55
2881.78
45.921
3148.05
39.7647
3356.4
35.4952
3489.65
33.6529
3539.55
34.0316
3519.58
34.8594
3404.25
36.5867
3230.5
36.887
2972
37.9956
2715.68
35.39
2350.06
37.1289
2232.54
31.6027
1693.61
36.4459
2142.01
41.8632
1439.1
50.4845
2238.44
3824
-98.1952
-334.794
-98.0854
-391.144
-98.4822
-422.542
-99.1422
-456.573
-100.122
-488.294
-101.341
-518.873
-102.803
-548.358
-104.48
-576.93
-106.364
-604.712
-108.44
-631.807
-110.701
-658.29
-113.138
-684.22
-115.746
-709.645
-118.521
-734.605
-121.462
-759.139
-124.568
-783.294
-127.839
-807.121
-131.277
-830.681
-134.879
-854.039
-138.644
-877.261
-142.566
-900.403
-146.643
-923.505
-150.871
-946.591
-155.253
-969.67
-159.794
-992.758
-164.504
-1015.89
-169.39
-1039.15
-174.453
-1062.64
-179.687
-1086.48
-185.078
-1110.75
-190.606
-1135.46
-196.253
-1160.58
-202.012
-1185.97
-207.905
-1211.39
-214.015
-1236.46
-220.54
-1260.6
-227.86
-1282.93
-236.618
-1302.28
-247.765
-1317.18
-262.531
-1326.04
-282.229
-1327.59
-307.85
-1321.59
-339.498
-1309.6
-375.892
-1295.33
-414.304
-1284.06
-451.118
-1280.83
-482.71
-1288.88
-506.179
-1308.67
-519.622
-1337.89
-521.993
-1371.92
-512.722
-1404.18
-491.414
-1425.84
-458.432
-1426.87
-416.584
-1402.4
-364.248
-1347.06
-258.282
-1120.08
-42.678
-232.642
64.654
898.274
74.7849
1449.42
76.4093
1816.15
75.2325
2199.21
68.2389
2567.69
56.1464
2893.87
44.4436
3159.75
36.0132
3364.84
30.2276
3495.44
27.6013
3542.17
27.7664
3519.41
28.859
3403.16
31.1921
3228.17
32.3137
2970.88
34.3908
2713.6
32.6489
2351.8
35.2408
2229.95
30.1749
1698.67
35.175
2137.01
40.3566
1433.91
47.9086
2230.88
3804.36
-101.18
-335.404
-101.085
-391.239
-101.491
-422.136
-102.174
-455.89
-103.183
-487.284
-104.441
-517.616
-105.949
-546.85
-107.677
-575.201
-109.619
-602.77
-111.758
-629.669
-114.085
-655.962
-116.592
-681.713
-119.274
-706.963
-122.127
-731.752
-125.149
-756.117
-128.341
-780.102
-131.704
-803.759
-135.238
-827.147
-138.942
-850.335
-142.813
-873.39
-146.848
-896.368
-151.041
-919.312
-155.39
-942.242
-159.897
-965.163
-164.569
-988.086
-169.416
-1011.04
-174.449
-1034.12
-179.67
-1057.42
-185.071
-1081.08
-190.639
-1105.18
-196.357
-1129.74
-202.215
-1154.72
-208.224
-1179.96
-214.446
-1205.17
-221.037
-1229.87
-228.322
-1253.31
-236.869
-1274.38
-247.571
-1291.58
-261.643
-1303.1
-280.498
-1307.18
-305.416
-1302.68
-336.992
-1290.02
-374.537
-1272.05
-415.736
-1254.14
-456.956
-1242.84
-494.16
-1243.63
-523.898
-1259.14
-543.845
-1288.72
-552.781
-1328.95
-550.236
-1374.47
-536.052
-1418.36
-510.074
-1451.81
-472.563
-1464.38
-426.116
-1448.85
-372.548
-1400.63
-277.736
-1214.89
-60.0953
-450.282
73.2175
764.961
90.5233
1432.12
90.8045
1815.87
85.5245
2204.49
74.5823
2578.63
58.4949
2909.96
43.2275
3175.02
32.1011
3375.96
24.505
3503.04
20.9133
3545.77
20.7662
3519.56
22.1017
3401.83
25.0714
3225.2
27.0835
2968.87
30.2348
2710.45
29.4512
2352.59
33.0474
2226.35
28.499
1703.22
33.7849
2131.72
38.7953
1428.9
44.8697
2224.81
3782.25
-104.174
-336.001
-104.101
-391.312
-104.523
-421.714
-105.234
-455.18
-106.278
-486.24
-107.578
-516.315
-109.136
-545.292
-110.921
-573.416
-112.924
-600.768
-115.129
-627.464
-117.526
-653.565
-120.108
-679.132
-122.867
-704.204
-125.801
-728.818
-128.909
-753.009
-132.191
-776.82
-135.649
-800.301
-139.283
-823.513
-143.094
-846.525
-147.077
-869.406
-151.229
-892.217
-155.543
-914.998
-160.018
-937.767
-164.655
-960.526
-169.463
-983.278
-174.455
-1006.05
-179.642
-1028.93
-185.027
-1052.03
-190.606
-1075.5
-196.364
-1099.42
-202.293
-1123.81
-208.397
-1148.61
-214.718
-1173.64
-221.382
-1198.51
-228.659
-1222.6
-237.052
-1244.92
-247.377
-1264.05
-260.812
-1278.14
-278.81
-1285.11
-302.834
-1283.16
-333.865
-1271.65
-371.778
-1252.11
-414.824
-1229.01
-459.623
-1209.34
-501.894
-1200.57
-537.607
-1207.91
-563.872
-1232.88
-579.138
-1273.46
-582.873
-1325.22
-575.094
-1382.24
-555.954
-1437.5
-525.476
-1482.29
-483.828
-1506.02
-433.15
-1499.52
-377.025
-1456.76
-289.508
-1302.41
-76.9057
-662.885
78.5786
609.477
107.14
1403.55
107.527
1815.48
98.0508
2213.96
82.3776
2594.31
61.6812
2930.65
42.3543
3194.35
28.0884
3390.23
18.3654
3512.76
13.6136
3550.52
13.0445
3520.13
14.5909
3400.28
18.2206
3221.57
21.1862
2965.9
25.5115
2706.13
25.7784
2352.32
30.5318
2221.6
26.5581
1707.19
32.2593
2126.02
37.1599
1424
41.5714
2220.4
3761.46
-107.181
-336.578
-107.137
-391.356
-107.581
-421.27
-108.325
-454.436
-109.408
-485.157
-110.756
-514.967
-112.368
-543.68
-114.213
-571.571
-116.282
-598.699
-118.557
-625.189
-121.029
-651.093
-123.688
-676.473
-126.529
-701.363
-129.548
-725.799
-132.746
-749.812
-136.122
-773.444
-139.679
-796.744
-143.419
-819.773
-147.34
-842.603
-151.44
-865.306
-155.714
-887.943
-160.156
-910.556
-164.761
-933.162
-169.534
-955.754
-174.483
-978.328
-179.625
-1000.91
-184.974
-1023.58
-190.534
-1046.47
-196.302
-1069.73
-202.27
-1093.45
-208.439
-1117.64
-214.839
-1142.21
-221.568
-1166.91
-228.85
-1191.22
-237.121
-1214.32
-247.126
-1234.91
-259.985
-1251.19
-277.157
-1260.97
-300.225
-1262.04
-330.452
-1252.93
-368.174
-1233.92
-412.211
-1208.07
-459.641
-1181.58
-506.219
-1162.76
-547.461
-1159.32
-579.817
-1175.56
-601.239
-1211.45
-610.997
-1263.7
-609.154
-1327.06
-596.08
-1395.32
-572.132
-1461.45
-537.465
-1516.96
-492.196
-1551.29
-437.942
-1553.78
-378.76
-1515.94
-296.333
-1384.84
-95.818
-863.401
82.2373
431.422
124.411
1361.38
125.944
1813.95
112.954
2226.95
91.9525
2615.31
65.8242
2956.78
41.8966
3218.28
24.0365
3408.09
11.8488
3524.95
5.7288
3556.64
4.61854
3521.24
6.33472
3398.56
10.6398
3217.26
14.6168
2961.93
20.2099
2700.54
21.6165
2350.91
27.6811
2215.53
24.337
1710.54
30.5969
2119.76
35.4225
1419.18
38.5409
2217.28
3741.72
-110.204
-337.127
-110.195
-391.365
-110.667
-420.798
-111.45
-453.653
-112.576
-484.031
-113.977
-513.567
-115.647
-542.01
-117.557
-569.66
-119.695
-596.561
-122.045
-622.839
-124.595
-648.542
-127.337
-673.731
-130.264
-698.436
-133.373
-722.69
-136.663
-746.521
-140.138
-769.969
-143.799
-793.083
-147.648
-815.924
-151.686
-838.566
-155.908
-861.083
-160.31
-883.542
-164.883
-905.983
-169.626
-928.419
-174.54
-950.84
-179.638
-973.231
-184.937
-995.612
-190.455
-1018.06
-196.201
-1040.73
-202.174
-1063.76
-208.375
-1087.25
-214.827
-1111.19
-221.604
-1135.44
-228.888
-1159.62
-237.056
-1183.06
-246.776
-1204.6
-259.104
-1222.59
-275.485
-1234.81
-297.586
-1238.87
-326.891
-1232.74
-364.097
-1215.72
-408.505
-1189.52
-457.68
-1158.89
-507.648
-1131.61
-553.747
-1116.66
-591.832
-1121.24
-619.218
-1148.17
-634.809
-1195.86
-638.606
-1259.9
-631.107
-1334.56
-612.904
-1413.52
-584.473
-1489.88
-546.065
-1555.37
-497.791
-1599.57
-440.795
-1610.77
-378.74
-1577.99
-300.446
-1463.13
-122.892
-1040.95
85.1494
223.38
141.325
1305.2
145.346
1809.93
130.188
2242.11
103.663
2641.83
71.1147
2989.33
41.9255
3247.46
20.0023
3430.01
4.9937
3539.96
-2.71554
3564.35
-4.49433
3523.02
-2.65818
3396.73
2.33273
3212.27
7.37497
2956.88
14.3214
2693.59
16.9539
2348.28
24.4865
2208
21.8223
1713.2
28.7927
2112.79
33.6267
1414.34
34.8912
2216.01
3719.63
-113.247
-337.641
-113.278
-391.333
-113.784
-420.293
-114.61
-452.827
-115.786
-482.855
-117.243
-512.11
-118.977
-540.276
-120.956
-567.681
-123.169
-594.348
-125.597
-620.41
-128.23
-645.909
-131.058
-670.903
-134.075
-695.419
-137.278
-719.487
-140.667
-743.133
-144.244
-766.392
-148.013
-789.313
-151.978
-811.96
-156.136
-834.407
-160.487
-856.733
-165.022
-879.007
-169.734
-901.27
-174.619
-923.534
-179.681
-945.778
-184.933
-967.978
-190.398
-990.147
-196.096
-1012.37
-202.041
-1034.78
-208.239
-1057.56
-214.71
-1080.78
-221.51
-1104.39
-228.786
-1128.16
-236.855
-1151.55
-246.31
-1173.6
-258.134
-1192.78
-273.742
-1206.98
-294.864
-1213.69
-323.178
-1210.56
-359.697
-1196.22
-404.113
-1171.31
-454.392
-1139.24
-506.88
-1106.41
-556.975
-1081.51
-600.197
-1073.44
-633.237
-1088.2
-654.468
-1126.94
-663.677
-1186.65
-661.413
-1262.17
-648.444
-1347.53
-625.476
-1436.49
-593.049
-1522.31
-551.485
-1596.93
-500.919
-1650.13
-442.124
-1669.57
-378.025
-1642.09
-303.507
-1537.65
-163.618
-1180.84
70.2889
-10.5273
155.604
1219.89
165.115
1800.42
149.621
2257.6
117.758
2673.7
77.8212
3029.26
42.5347
3282.75
16.0364
3456.51
-2.15672
3558.15
-11.689
3573.88
-14.2767
3525.6
-12.3772
3394.83
-6.70139
3206.6
-0.542317
2950.72
7.84201
2685.2
11.7854
2344.34
20.9432
2198.84
19.0028
1715.14
26.848
2104.95
31.7597
1409.43
31.5241
2216.25
3699.46
-116.312
-338.113
-116.389
-391.256
-116.935
-419.747
-117.811
-451.951
-119.04
-481.625
-120.559
-510.591
-122.36
-538.475
-124.413
-565.628
-126.705
-592.056
-129.217
-617.898
-131.938
-643.188
-134.857
-667.984
-137.968
-692.308
-141.269
-716.186
-144.76
-739.641
-148.445
-762.707
-152.328
-785.431
-156.412
-807.876
-160.698
-830.121
-165.181
-852.249
-169.856
-874.332
-174.713
-896.413
-179.748
-918.499
-184.965
-940.561
-190.379
-962.564
-196.018
-984.508
-201.908
-1006.48
-208.069
-1028.62
-214.523
-1051.11
-221.316
-1073.99
-228.565
-1097.14
-236.532
-1120.19
-245.734
-1142.35
-257.069
-1162.27
-271.903
-1177.95
-292.011
-1186.87
-319.254
-1186.45
-354.96
-1174.85
-399.185
-1151.99
-450.211
-1120.28
-504.606
-1084.84
-557.871
-1053.14
-605.427
-1033.96
-643.58
-1035.28
-670.155
-1061.62
-684.555
-1112.54
-687.252
-1183.96
-679.133
-1270.29
-661.097
-1365.56
-633.896
-1463.69
-598.108
-1558.09
-554.109
-1640.93
-502.07
-1702.17
-442.484
-1729.16
-377.48
-1707.1
-305.519
-1609.61
-189.806
-1296.56
43.2121
-243.545
166.277
1096.83
185.041
1781.65
171.01
2271.64
134.273
2710.43
86.2523
3077.29
43.8737
3325.13
12.1914
3488.19
-9.55803
3579.9
-21.164
3585.49
-24.7127
3529.15
-22.8119
3392.93
-16.4647
3200.25
-9.1326
2943.39
0.775807
2675.3
6.10683
2339.01
17.0458
2187.9
15.8667
1716.32
24.7711
2096.04
29.8133
1404.39
27.8004
2218.26
3678.69
-119.403
-338.539
-119.531
-391.128
-120.123
-419.155
-121.053
-451.021
-122.342
-480.337
-123.927
-509.005
-125.801
-536.601
-127.933
-563.496
-130.308
-589.681
-132.909
-615.298
-135.722
-640.376
-138.736
-664.969
-141.947
-689.097
-145.351
-712.782
-148.949
-736.043
-152.747
-758.91
-156.748
-781.429
-160.957
-803.666
-165.376
-825.703
-169.999
-847.625
-174.821
-869.511
-179.83
-891.404
-185.021
-913.308
-190.4
-935.183
-195.985
-956.979
-201.808
-978.685
-207.905
-1000.38
-214.308
-1022.22
-221.06
-1044.35
-228.257
-1066.79
-236.113
-1089.29
-245.067
-1111.24
-255.924
-1131.49
-269.978
-1148.21
-289.02
-1158.9
-315.078
-1160.81
-349.812
-1151.71
-393.681
-1130.98
-445.277
-1100.4
-501.286
-1064.27
-557.18
-1028.95
-608.295
-1002.03
-650.788
-991.463
-682.172
-1003.9
-701.446
-1042.35
-708.838
-1105.15
-705.25
-1187.54
-691.724
-1283.81
-669.2
-1388.09
-638.449
-1494.44
-600.073
-1596.47
-554.493
-1686.51
-501.913
-1754.75
-442.612
-1788.46
-377.935
-1771.77
-307.737
-1679.81
-203.737
-1400.56
26.6703
-473.953
174.015
949.48
205.005
1750.67
193.891
2282.75
153.03
2751.29
96.6986
3133.62
46.1718
3375.66
8.53058
3525.83
-17.1725
3605.6
-31.1124
3599.43
-35.7839
3533.82
-33.9511
3391.09
-26.9534
3193.25
-18.3848
2934.82
-6.89316
2663.8
-0.0951669
2332.21
12.7986
2175.01
12.4081
1716.71
22.5696
2085.88
27.8237
1399.14
24.0056
2222.08
3657.17
-122.523
-338.912
-122.708
-390.943
-123.351
-418.512
-124.341
-450.031
-125.694
-478.984
-127.352
-507.348
-129.303
-534.65
-131.519
-561.28
-133.983
-587.217
-136.676
-612.604
-139.586
-637.466
-142.702
-661.854
-146.017
-685.782
-149.528
-709.27
-153.239
-732.332
-157.154
-754.995
-161.279
-777.304
-165.619
-799.326
-170.177
-821.145
-174.947
-842.855
-179.922
-864.536
-185.091
-886.236
-190.447
-907.952
-195.996
-929.634
-201.761
-951.214
-207.781
-972.665
-214.105
-994.055
-220.785
-1015.54
-227.902
-1037.24
-235.631
-1059.06
-244.34
-1080.58
-254.733
-1100.85
-268.006
-1118.22
-285.926
-1130.29
-310.658
-1134.17
-344.203
-1127.27
-387.491
-1108.43
-439.505
-1078.97
-497.042
-1042.86
-555.389
-1005.92
-609.609
-974.728
-655.696
-955.94
-691.102
-956.057
-714.68
-980.322
-726.404
-1030.63
-727.031
-1104.52
-717.659
-1196.92
-699.363
-1302.11
-673.08
-1414.37
-639.59
-1527.93
-599.526
-1636.53
-553.349
-1732.69
-501.285
-1806.82
-443.439
-1846.3
-380.452
-1834.76
-312.346
-1747.91
-215.631
-1497.27
9.68802
-699.272
178.778
780.39
224.362
1705.08
217.658
2289.45
173.763
2795.19
109.375
3198
49.7317
3435.3
5.15323
3570.41
-24.9644
3635.72
-41.505
3615.97
-47.4697
3539.79
-45.7813
3389.41
-38.1584
3185.63
-28.2936
2924.96
-15.1903
2650.7
-6.81305
2323.83
8.23019
2159.97
8.62678
1716.32
20.2541
2074.25
25.7912
1393.6
20.8224
2227.05
3636.2
-125.677
-339.228
-125.922
-390.698
-126.623
-417.811
-127.678
-448.976
-129.101
-477.561
-130.835
-505.613
-132.87
-532.616
-135.174
-558.975
-137.732
-584.659
-140.525
-609.812
-143.537
-634.453
-146.758
-658.632
-150.182
-682.358
-153.807
-705.646
-157.635
-728.504
-161.673
-750.958
-165.927
-773.05
-170.405
-794.849
-175.108
-816.442
-180.032
-837.93
-185.169
-859.399
-190.505
-880.899
-196.034
-902.423
-201.763
-923.905
-207.72
-945.257
-213.955
-966.43
-220.534
-987.476
-227.543
-1008.53
-235.127
-1029.65
-243.59
-1050.6
-253.534
-1070.63
-266.038
-1088.34
-282.797
-1101.46
-306.06
-1107.03
-338.153
-1102.08
-380.538
-1084.88
-432.727
-1056.24
-491.731
-1019.96
-552.604
-981.986
-609.902
-948.627
-659.204
-925.426
-697.872
-917.272
-724.898
-929.03
-740.312
-964.908
-744.734
-1026.2
-739.157
-1110.1
-724.705
-1211.37
-702.423
-1324.39
-673.233
-1443.56
-637.935
-1563.23
-597.204
-1677.27
-551.543
-1778.35
-501.186
-1857.18
-446.067
-1901.42
-386.183
-1894.64
-320.993
-1813.1
-229.856
-1588.41
-12.1371
-916.991
180.436
587.817
242.237
1643.28
241.797
2289.89
196.247
2840.74
124.365
3269.89
54.8865
3504.78
2.22442
3623.07
-32.8948
3670.84
-52.3131
3635.38
-59.7479
3547.22
-58.2881
3387.95
-50.067
3177.41
-38.8555
2913.75
-24.1245
2635.97
-14.0158
2313.72
3.36213
2142.59
4.49221