/*--------------------------------*- C++ -*----------------------------------*\
| =========                 |                                                 |
| \\      /  F ield         | OpenFOAM: The Open Source CFD Toolbox           |
|  \\    /   O peration     | Version:  4.1                                   |
|   \\  /    A nd           | Web:      www.OpenFOAM.org                      |
|    \\/     M anipulation  |                                                 |
\*---------------------------------------------------------------------------*/
FoamFile
{
    version     2.0;
    format      ascii;
    class       volVectorField;
    location    "9";
    object      U;
}
// * * * * * * * * * * * * * * * * * * * * * * * * * * * * * * * * * * * * * //

dimensions      [0 1 -1 0 0 0 0];

internalField   nonuniform List<vector> 
6785
(
(1.4104e-14 -1.39414 16.2413)
(1.07966e-14 -7.26331 12.631)
(-3.29472e-15 -4.97483 13.1938)
(3.05094e-15 -4.66151 12.8455)
(9.2969e-16 -4.01026 12.6644)
(-2.04373e-16 -3.56911 12.403)
(2.51653e-15 -3.19303 12.1178)
(6.82708e-16 -2.91672 11.794)
(-4.04436e-16 -2.73781 11.431)
(2.25143e-15 -2.64322 11.0379)
(2.3047e-16 -2.5774 10.6628)
(-4.12038e-16 -2.65816 10.2533)
(1.08007e-15 -3.12883 9.57531)
(-2.56675e-17 -2.73694 8.84057)
(-3.93815e-16 0.536302 7.24122)
(1.84318e-14 -8.71995 26.2666)
(1.41315e-14 -16.424 22.2927)
(-3.29864e-15 -11.2344 22.7292)
(4.38386e-15 -11.8228 21.0838)
(7.47046e-16 -10.4572 20.1546)
(8.15761e-16 -9.73737 19.0145)
(2.38144e-15 -8.86497 17.9294)
(1.91165e-16 -8.07864 16.8421)
(1.73249e-16 -7.35449 15.83)
(1.30354e-15 -6.76948 14.9634)
(-2.47763e-16 -6.31104 14.2034)
(5.24725e-17 -5.93721 13.1854)
(9.59741e-16 -5.61166 11.3169)
(-1.00998e-16 -4.63921 8.03351)
(-2.95538e-16 -1.42968 2.42362)
(2.06356e-14 -11.5993 28.0001)
(1.18463e-14 -17.1181 24.7504)
(-1.70521e-15 -11.8248 24.9508)
(4.08256e-15 -12.7562 22.6484)
(6.08224e-16 -10.8629 21.6002)
(1.37562e-15 -10.1696 20.0654)
(1.2517e-15 -9.12814 18.7635)
(6.92446e-17 -8.29146 17.4792)
(3.83527e-16 -7.3921 16.152)
(1.51583e-16 -6.16886 14.1898)
(-5.09621e-17 -4.20742 10.7737)
(1.57201e-16 -1.83061 6.10025)
(-1.31779e-15 -0.247447 2.35071)
(-2.05203e-15 0.133785 0.786984)
(-1.47939e-15 0.207004 0.167643)
(2.19006e-14 -12.7347 28.1365)
(1.06872e-14 -17.4498 25.2755)
(-1.03952e-15 -12.3681 25.3048)
(4.42748e-15 -13.9469 22.5659)
(2.06669e-16 -11.6279 21.6827)
(1.7737e-15 -11.4031 19.86)
(1.23653e-15 -10.2868 18.5893)
(-3.80871e-17 -9.663 17.2296)
(5.96103e-16 -8.88465 15.9493)
(2.93506e-16 -7.81979 14.0606)
(4.16198e-16 -5.73714 10.5682)
(4.41737e-16 -2.42853 4.9016)
(1.12395e-15 1.3305 -0.832485)
(1.6019e-15 3.18295 -3.36234)
(-1.42598e-16 1.62735 -3.75913)
(2.13683e-14 -12.8507 27.1113)
(1.2179e-14 -17.8873 26.3128)
(-8.19997e-16 -12.9509 25.4075)
(4.14235e-15 -14.429 22.5264)
(8.83348e-16 -12.1736 21.6154)
(1.49752e-15 -12.0262 19.6724)
(1.62273e-15 -10.9681 18.295)
(6.571e-16 -10.3363 16.8036)
(5.08928e-16 -9.64134 15.4202)
(5.53983e-16 -8.85755 13.8359)
(7.58914e-16 -7.63996 11.5755)
(4.84604e-16 -5.59206 8.24756)
(5.39399e-16 -3.05382 4.34535)
(1.21674e-16 0.222397 0.805929)
(5.80342e-15 1.27955 -4.38235)
(2.02946e-14 -12.3642 25.0667)
(1.40014e-14 -17.6823 26.6576)
(7.1372e-17 -13.1415 24.9374)
(3.29927e-15 -14.0025 21.9344)
(1.60918e-15 -12.0133 20.8835)
(1.39701e-15 -11.6957 18.9444)
(1.6186e-15 -10.6764 17.4552)
(1.29638e-15 -9.92115 15.8622)
(8.48729e-16 -9.15746 14.3451)
(5.31523e-16 -8.37936 12.8397)
(8.26048e-16 -7.52592 11.1639)
(1.09428e-15 -6.28531 9.13266)
(3.77652e-16 -4.74052 6.49544)
(7.63241e-17 -2.15593 3.24378)
(8.17165e-15 -0.0748895 -2.40731)
(2.08745e-14 -11.7729 23.2483)
(1.58364e-14 -17.0843 26.3385)
(2.19795e-15 -13.0883 24.3164)
(2.62343e-15 -13.4184 21.2151)
(2.50045e-15 -11.6665 20.0482)
(2.89979e-15 -11.224 18.1836)
(2.16431e-15 -10.2645 16.665)
(2.32539e-15 -9.48211 15.1197)
(2.96389e-15 -8.73362 13.663)
(1.47322e-15 -7.98172 12.2837)
(1.96191e-15 -7.2511 10.8865)
(3.42804e-15 -6.37096 9.44608)
(2.21547e-15 -5.3663 7.67833)
(-8.09466e-16 -3.60246 5.37095)
(1.00257e-14 -1.26343 0.247651)
(2.01025e-14 -11.4067 22.3843)
(1.64671e-14 -16.3805 25.567)
(2.43831e-15 -12.7219 23.6616)
(2.40716e-15 -12.9458 20.4922)
(3.03076e-15 -11.144 19.3596)
(2.7469e-15 -10.778 17.4591)
(2.55782e-15 -9.79233 16.0475)
(2.95703e-15 -9.15995 14.5995)
(2.69073e-15 -8.51954 13.2432)
(2.50818e-15 -7.90459 11.9356)
(2.25425e-15 -7.34646 10.7619)
(2.28657e-15 -6.80438 9.83076)
(2.92247e-15 -6.22877 8.96357)
(-2.16637e-16 -5.12714 7.76076)
(3.05737e-15 -2.86108 3.72948)
(2.02744e-14 -11.6096 22.4561)
(1.46001e-14 -15.5224 24.6666)
(3.0924e-16 -12.2146 22.9268)
(3.27117e-15 -12.4028 19.9149)
(2.70463e-15 -10.4296 18.8189)
(6.88382e-16 -10.05 16.7198)
(2.51587e-15 -8.67991 15.0741)
(2.26221e-15 -7.93096 13.1056)
(-3.29391e-16 -7.19532 11.5966)
(1.97345e-15 -6.89607 10.5639)
(1.48957e-15 -6.87152 10.2058)
(-1.29889e-15 -7.12546 10.4625)
(2.09498e-15 -7.27277 10.9685)
(-2.56934e-16 -6.98088 10.7823)
(-2.67819e-15 -4.75476 7.69705)
(1.9492e-14 -12.5506 23.8653)
(1.11176e-14 -15.2038 24.7118)
(-1.13159e-15 -12.1364 23.0547)
(1.91579e-15 -12.1414 20.704)
(1.35636e-15 -10.2485 19.5714)
(-6.41946e-16 -9.43346 17.3651)
(5.64649e-17 -7.44672 14.9062)
(4.41911e-16 -5.79869 11.8438)
(-1.00922e-15 -4.33272 9.51178)
(-7.45008e-16 -3.69048 8.16653)
(-6.79876e-16 -3.84351 8.17599)
(-2.63985e-15 -5.04524 9.68305)
(-2.1127e-15 -6.7576 11.9444)
(-1.55594e-15 -7.86968 13.0414)
(-4.50875e-15 -5.59996 10.2043)
(1.83899e-14 -13.045 24.5763)
(1.16929e-14 -16.8151 27.1778)
(-2.52233e-15 -13.0539 24.606)
(1.8416e-15 -13.0773 22.5444)
(9.09634e-16 -11.276 21.5564)
(-1.79882e-15 -10.4921 19.4674)
(-4.5312e-16 -8.3577 16.951)
(1.85065e-16 -6.37846 13.638)
(-7.21678e-16 -4.28651 10.7966)
(6.42195e-16 -2.65068 8.33154)
(9.65034e-16 -1.28694 6.26653)
(-8.70332e-16 -0.800824 5.15142)
(-1.5643e-15 -1.8712 6.08271)
(-3.52767e-15 -4.04272 8.5063)
(-3.9199e-15 -3.793 8.10573)
(1.69159e-14 -11.7875 21.7856)
(1.52388e-14 -18.3105 29.2695)
(1.33639e-15 -15.216 26.9467)
(1.52291e-15 -14.4486 24.0662)
(8.20771e-16 -12.7853 22.8242)
(-5.29726e-16 -12.2261 21.0203)
(-9.8555e-17 -10.5902 19.0453)
(-1.55161e-16 -8.9727 16.2274)
(1.81225e-16 -6.94563 13.4185)
(9.80428e-16 -5.05213 10.5674)
(1.53102e-15 -3.05507 7.59911)
(2.03752e-15 -1.02156 4.30176)
(2.22074e-16 1.1336 1.02593)
(-1.10325e-15 1.71924 -0.416506)
(-1.37447e-15 -0.0336558 0.940018)
(1.40444e-14 -9.22692 16.4331)
(1.7832e-14 -17.8838 28.411)
(7.63106e-15 -17.0841 28.3921)
(3.12209e-15 -15.7766 25.1941)
(1.20186e-15 -14.2267 23.0194)
(6.55366e-16 -13.4795 21.0969)
(4.88474e-16 -12.4712 19.3468)
(2.46359e-16 -11.4098 17.3297)
(5.83372e-16 -10.1044 15.1824)
(6.16912e-16 -8.66895 12.9105)
(8.20765e-16 -7.07919 10.501)
(1.52182e-15 -5.25411 7.86089)
(9.36739e-16 -3.10208 4.78166)
(1.04623e-15 -0.270693 1.43643)
(-6.9454e-16 0.761939 -3.10001)
(1.04948e-14 -5.85476 9.37349)
(1.84587e-14 -15.6479 24.9584)
(9.97834e-15 -16.6746 27.223)
(2.73896e-15 -14.883 23.7762)
(6.44131e-16 -12.998 20.9815)
(9.29471e-16 -12.069 19.1768)
(1.18585e-15 -11.3473 17.8561)
(1.30573e-15 -10.6619 16.488)
(1.42426e-15 -9.89467 15.0045)
(1.30853e-15 -9.0148 13.4209)
(7.24696e-16 -8.06236 11.7427)
(6.11258e-16 -6.93841 9.9879)
(1.10402e-15 -5.67451 7.89988)
(7.94379e-16 -3.72325 5.4217)
(-7.56794e-16 -1.8189 1.3533)
(5.96473e-15 -4.08887 7.74308)
(1.7948e-14 -14.9637 23.902)
(1.62668e-14 -18.8413 28.8248)
(9.29288e-15 -19.0306 27.2108)
(3.36215e-15 -17.4939 23.793)
(9.1334e-16 -15.7775 20.6017)
(-9.83793e-17 -14.2482 18.0075)
(-7.53295e-16 -12.8809 15.9025)
(-1.18322e-16 -11.5723 14.0624)
(6.12982e-16 -10.295 12.4192)
(-1.04135e-16 -9.0176 10.8346)
(-6.45576e-16 -7.66053 9.24289)
(-9.01532e-16 -6.32771 7.84891)
(-1.4644e-15 -4.9709 6.40797)
(-3.00962e-16 -2.07472 3.04754)
(-5.8493e-17 30.8927 115.412)
(-2.77768e-15 0.75332 8.30032)
(-2.95005e-15 -0.761222 -3.18435)
(-2.8583e-15 -0.380969 -2.02193)
(-2.85019e-15 -0.257545 -2.30099)
(-3.79173e-15 0.29165 -3.27191)
(-2.85707e-15 0.165993 -2.03717)
(-2.85711e-15 0.3544 -2.05496)
(-2.97926e-15 0.524371 -2.17902)
(-2.6208e-15 0.943814 -2.98309)
(-1.44594e-15 0.804937 -1.99458)
(-1.2387e-15 1.00012 -1.90302)
(-1.83885e-15 1.41502 -2.46549)
(-1.42543e-15 1.1794 -1.71664)
(-1.47234e-15 1.38862 -1.70461)
(-1.41083e-15 1.4594 -1.68602)
(-2.08263e-15 1.82245 -2.07373)
(-1.37781e-15 1.54367 -1.43622)
(-1.24293e-15 1.7043 -1.3467)
(-1.83939e-15 2.14229 -1.57469)
(-1.30155e-15 1.69134 -1.07802)
(-1.32167e-15 1.90091 -1.02227)
(-1.08401e-15 1.8917 -0.954683)
(-1.58376e-15 2.28302 -1.03343)
(-9.98003e-16 1.79632 -0.677458)
(-8.18803e-16 1.99209 -0.596985)
(-7.09839e-16 1.95105 -0.525744)
(-8.08181e-16 2.26865 -0.446987)
(-3.66374e-16 1.80581 -0.24652)
(-1.20857e-16 1.87907 -0.187635)
(1.04827e-16 2.24023 0.0306791)
(3.02837e-16 1.67407 0.0781536)
(5.70822e-16 1.79924 0.136814)
(6.69841e-16 1.72969 0.16042)
(1.23699e-15 1.95318 0.455287)
(1.30477e-15 1.49519 0.361176)
(1.4108e-15 1.52349 0.348474)
(2.1592e-15 1.75413 0.673468)
(1.75485e-15 1.25109 0.462573)
(1.76901e-15 1.31796 0.470543)
(1.94711e-15 1.24987 0.443828)
(2.75632e-15 1.39692 0.731702)
(1.96083e-15 0.995153 0.47001)
(1.93474e-15 1.05375 0.459535)
(1.80189e-15 0.985761 0.416151)
(2.57101e-15 1.15756 0.654121)
(1.37747e-15 0.922487 0.511379)
(1.12419e-15 0.905191 0.451861)
(1.18228e-15 1.11405 0.610013)
(1.05787e-15 0.876432 0.487863)
(9.909e-16 0.902986 0.496631)
(8.88342e-16 0.831387 0.485011)
(1.10683e-15 0.921993 0.636478)
(7.9788e-16 0.68984 0.430465)
(6.0274e-16 0.698182 0.425544)
(9.20151e-16 0.641596 0.473457)
(1.25855e-15 0.613261 0.162913)
(1.50374e-15 0.406097 -0.326116)
(5.43996e-16 0.298901 -0.110781)
(6.77084e-16 0.748815 -1.94072)
(1.22724e-15 0.0500511 -2.21712)
(1.71757e-15 -0.186613 -1.93152)
(1.91683e-15 0.383264 -1.7376)
(1.89681e-15 0.207295 -1.81188)
(-6.81201e-16 -0.728918 0.409582)
(-4.95462e-16 -0.355221 0.24593)
(-1.10151e-15 -1.08199 1.98602)
(-1.09571e-15 -1.70165 2.78391)
(-1.08086e-15 -1.8324 2.73724)
(-1.22969e-15 -1.7562 2.88459)
(-1.91052e-15 -3.0691 5.33624)
(-1.69656e-15 -3.47092 4.87861)
(-1.99835e-15 -3.83811 5.01571)
(-2.31101e-15 -3.75613 5.23813)
(-3.63245e-15 -6.00258 8.56444)
(-3.10133e-15 -5.95856 7.11244)
(-3.73461e-15 -6.00144 7.6961)
(-5.41234e-15 -8.72761 11.728)
(-4.39194e-15 -8.38024 9.31643)
(-4.99149e-15 -8.71215 10.2039)
(-5.85397e-15 -9.48115 12.1215)
(-5.73655e-15 -9.35412 12.0462)
(-5.69203e-15 -9.4692 12.4398)
(-5.00186e-15 -11.1621 15.2092)
(-4.43856e-15 -10.2259 13.7755)
(-3.86722e-15 -10.4769 14.367)
(-3.3754e-15 -10.4698 14.4761)
(-2.77679e-15 -10.5613 14.5689)
(-2.20534e-15 -10.6326 14.6395)
(-1.68416e-15 -10.7218 14.7255)
(-1.18574e-15 -10.8039 14.9011)
(-7.33032e-16 -10.8641 15.1729)
(6.47012e-16 -11.8048 16.9923)
(2.58424e-16 -11.3216 15.7838)
(5.79637e-16 -11.4919 16.0297)
(7.08541e-16 -11.4708 16.1663)
(9.41298e-16 -11.6276 16.4897)
(1.06774e-15 -11.6313 16.5646)
(1.18619e-15 -11.7306 16.6629)
(1.2792e-15 -11.7978 16.7547)
(1.37323e-15 -11.8595 16.866)
(2.39119e-15 -12.4763 18.2472)
(1.92115e-15 -12.0276 17.1398)
(2.00941e-15 -12.1653 17.2736)
(2.06533e-15 -12.191 17.3164)
(2.19227e-15 -12.2618 17.4544)
(2.38149e-15 -12.3037 17.6785)
(2.56865e-15 -12.3959 17.9364)
(2.65622e-15 -12.4113 18.0226)
(2.8202e-15 -12.4866 18.1592)
(2.95338e-15 -12.5722 18.281)
(3.66907e-15 -12.5332 18.9757)
(3.0566e-15 -12.3582 18.3658)
(3.27443e-15 -12.4293 18.5933)
(3.36644e-15 -12.4471 18.748)
(3.43556e-15 -12.5134 18.9502)
(3.43357e-15 -12.5308 19.1572)
(3.36714e-15 -12.6024 19.4849)
(3.43032e-15 -12.6211 19.6067)
(3.51387e-15 -12.7365 19.6274)
(4.39862e-15 -11.9022 19.0348)
(3.44238e-15 -12.0246 18.7638)
(3.52651e-15 -12.0331 18.8514)
(3.61647e-15 -12.0748 18.9548)
(3.71777e-15 -12.0456 18.8796)
(3.88113e-15 -12.0791 18.8937)
(4.12336e-15 -12.0722 18.914)
(4.40284e-15 -12.0398 19.002)
(4.77704e-15 -12.233 19.3372)
(5.55812e-15 -10.2019 17.1187)
(5.21575e-15 -10.9163 18.0626)
(5.44901e-15 -10.8101 17.9759)
(5.54025e-15 -10.7856 18.0098)
(5.83505e-15 -10.7748 18.2182)
(5.8837e-15 -10.7126 18.081)
(5.80282e-15 -10.6118 17.7659)
(5.69783e-15 -10.554 17.3687)
(5.59222e-15 -10.5682 16.8216)
(5.50831e-15 -7.70346 12.6816)
(5.81804e-15 -8.84624 14.8894)
(5.53153e-15 -8.538 13.8542)
(5.4652e-15 -8.54601 13.3078)
(5.48336e-15 -8.37233 12.6678)
(5.69616e-15 -8.2699 12.1715)
(6.67028e-15 -8.08874 11.903)
(6.11064e-15 -7.89062 11.3061)
(6.09411e-15 -7.71709 10.8387)
(5.81696e-15 -7.54408 10.2064)
(3.11654e-15 -3.92274 4.50038)
(5.37528e-15 -5.79908 8.5767)
(4.89319e-15 -5.20373 7.32672)
(4.52864e-15 -5.31734 6.89144)
(4.00033e-15 -4.95791 5.97294)
(3.30311e-15 -4.89695 4.85797)
(2.01357e-15 -4.69911 2.79389)
(8.332e-16 -4.28462 0.801835)
(1.03764e-15 -4.28624 0.787482)
(-3.63688e-16 -3.65302 -1.68073)
(6.88708e-16 -3.7554 0.105138)
(4.28974e-16 -3.64457 -0.655924)
(-7.47537e-16 -2.68469 -2.1383)
(-2.62979e-16 -4.06619 -1.68732)
(-6.18435e-16 -3.05761 -1.47938)
(-4.99934e-16 -2.73845 -0.985372)
(-7.45396e-16 -3.39287 -1.38184)
(-5.81022e-16 -2.2678 -0.818077)
(-8.96365e-16 -2.95059 -1.22547)
(-6.31922e-16 -2.55836 -0.845898)
(-5.26425e-16 -2.06371 -0.604126)
(-8.3511e-16 -2.52703 -0.883005)
(-7.77553e-16 -2.23411 -0.614174)
(-6.63267e-16 -1.90423 -0.427096)
(-9.49737e-16 -2.52151 -0.597305)
(-7.85267e-16 -1.66832 -0.343674)
(-1.04352e-15 -2.24348 -0.52353)
(-8.15045e-16 -1.92917 -0.361552)
(-7.44589e-16 -1.68402 -0.248911)
(-8.67241e-16 -2.26064 -0.359791)
(-5.66832e-16 -1.48977 -0.206285)
(-8.94618e-16 -2.06089 -0.324918)
(-7.7636e-16 -1.86409 -0.246725)
(-6.62176e-16 -1.49733 -0.175995)
(-9.20323e-16 -1.91111 -0.285457)
(-6.79776e-16 -1.74882 -0.232118)
(-5.52932e-16 -1.49675 -0.168146)
(-7.86741e-16 -2.05469 -0.258492)
(-5.76997e-16 -1.35164 -0.168253)
(-8.62223e-16 -1.86081 -0.270072)
(-4.88022e-16 -1.64152 -0.235304)
(-4.53994e-16 -1.42287 -0.17619)
(-6.21706e-16 -1.95473 -0.262732)
(-4.80727e-16 -1.26626 -0.174762)
(-7.1487e-16 -1.78273 -0.271881)
(-5.78888e-16 -1.63434 -0.243358)
(-3.55593e-16 -1.28548 -0.183346)
(-5.83103e-16 -1.66163 -0.283864)
(-4.46631e-16 -1.52386 -0.248355)
(-2.03306e-16 -1.28493 -0.184112)
(-3.45827e-16 -1.79192 -0.261791)
(-2.58048e-16 -1.14645 -0.175566)
(-3.9446e-16 -1.60531 -0.26616)
(-3.83721e-16 -1.40042 -0.237564)
(-4.83284e-16 -1.19598 -0.178532)
(-5.90854e-16 -1.67068 -0.252123)
(-2.98969e-16 -1.04371 -0.170624)
(-4.75914e-16 -1.50349 -0.258499)
(-3.99031e-16 -1.35147 -0.238958)
(-2.0375e-16 -1.03647 -0.183102)
(-3.61426e-16 -1.36374 -0.279708)
(-3.68282e-16 -1.21909 -0.25618)
(-3.68273e-16 -1.00124 -0.195456)
(-4.65408e-16 -1.43396 -0.274215)
(-4.35858e-16 -0.856548 -0.193535)
(-5.17133e-16 -1.25123 -0.296238)
(-2.3065e-16 -1.03782 -0.278828)
(-1.19878e-16 -0.853356 -0.21819)
(-1.21706e-16 -1.24327 -0.306769)
(1.53267e-16 -0.688502 -0.221121)
(2.33622e-16 -1.07487 -0.341596)
(3.20717e-16 -0.895239 -0.327257)
(3.13546e-16 -0.618078 -0.261647)
(3.46888e-16 -0.89044 -0.400203)
(4.94422e-16 -0.711955 -0.372679)
(-1.38285e-16 -0.513136 -0.290409)
(-1.12613e-16 -0.86857 -0.403007)
(-1.04724e-16 -0.328717 -0.292127)
(-1.31497e-16 -0.698994 -0.454892)
(-8.79035e-17 -0.42243 -0.425679)
(1.62817e-16 -0.241065 -0.326551)
(1.94609e-16 -0.647375 -0.452399)
(2.4399e-16 0.043862 -0.320489)
(6.1614e-16 -0.592175 -0.528764)
(1.13985e-15 -0.452236 -0.51646)
(4.36912e-16 0.539001 -0.314875)
(5.48026e-16 -0.270068 -0.624104)
(2.80382e-16 -0.679991 -0.925154)
(-5.47684e-17 0.631243 -0.650829)
(8.11486e-17 -0.18274 -0.838044)
(1.77781e-16 0.485203 -0.572897)
(2.39125e-16 0.439034 -0.665781)
(-1.70732e-34 0.44124 0.506767)
(-4.80457e-34 0.520859 0.504647)
(-1.11124e-33 0.567839 0.508376)
(-2.57157e-33 0.615405 0.51157)
(-5.90571e-33 0.660691 0.51715)
(-1.34385e-32 0.703609 0.523441)
(-3.02446e-32 0.745207 0.531181)
(-6.72093e-32 0.785307 0.539918)
(-1.47221e-31 0.824328 0.549822)
(-3.17332e-31 0.862302 0.560753)
(-6.71669e-31 0.899401 0.572731)
(-1.39231e-30 0.935688 0.585698)
(-2.81694e-30 0.971252 0.599637)
(-5.53968e-30 1.00615 0.614515)
(-1.05344e-29 1.04046 0.630311)
(-1.92184e-29 1.07425 0.647006)
(-3.30736e-29 1.10759 0.664585)
(-5.11987e-29 1.14056 0.683037)
(-5.90921e-29 1.17326 0.702354)
(1.86586e-29 1.20575 0.722525)
(5.13804e-28 1.23811 0.743544)
(2.81377e-27 1.27038 0.765399)
(1.25576e-26 1.30261 0.78808)
(5.19124e-26 1.33484 0.811575)
(2.04512e-25 1.36711 0.835882)
(7.72819e-25 1.39949 0.861003)
(2.81143e-24 1.43208 0.886949)
(9.89655e-24 1.46499 0.91373)
(3.39005e-23 1.49832 0.941352)
(1.13455e-22 1.53211 0.969802)
(3.71279e-22 1.56634 0.999043)
(1.18534e-21 1.60091 1.02901)
(3.67629e-21 1.63564 1.05959)
(1.1022e-20 1.67026 1.09065)
(3.17959e-20 1.70444 1.12202)
(8.79088e-20 1.73781 1.15352)
(2.32221e-19 1.76995 1.18497)
(5.84786e-19 1.80047 1.21629)
(1.40173e-18 1.82905 1.24751)
(3.1953e-18 1.85548 1.27898)
(6.92393e-18 1.87978 1.31146)
(1.42606e-17 1.90211 1.34627)
(2.79198e-17 1.92272 1.38539)
(5.19747e-17 1.94165 1.43131)
(9.20399e-17 1.95845 1.48667)
(1.55163e-16 1.97185 1.55345)
(2.49298e-16 1.97983 1.632)
(3.82352e-16 1.97984 1.7199)
(5.60933e-16 1.96881 1.81122)
(7.8897e-16 1.94274 1.89644)
(1.0661e-15 1.89567 1.9631)
(1.3864e-15 1.82009 1.99748)
(1.74482e-15 1.71431 1.98874)
(2.15233e-15 1.56425 1.92886)
(2.54161e-15 1.15814 1.72534)
(2.42089e-15 -0.020037 1.00097)
(1.7209e-15 -1.03922 0.407827)
(1.25142e-15 -1.63479 0.19354)
(8.25058e-16 -2.06409 -0.0542717)
(4.26087e-16 -2.49747 -0.163346)
(1.78117e-16 -2.97301 -0.264046)
(6.14656e-17 -3.41142 -0.33207)
(1.50242e-17 -3.80093 -0.364575)
(2.34389e-18 -4.14924 -0.367413)
(2.11553e-19 -4.43977 -0.370123)
(7.70109e-25 -4.62664 -0.371199)
(-4.1125e-21 -4.70695 -0.368996)
(-6.31522e-22 -4.69487 -0.369875)
(2.63916e-23 -4.54122 -0.374601)
(1.20919e-23 -4.31543 -0.361641)
(-1.51097e-23 -3.95803 -0.363656)
(6.90778e-24 -3.62473 -0.324303)
(-3.91435e-23 -3.10905 -0.332505)
(2.52761e-22 -2.99626 -0.248188)
(-1.92866e-21 -2.22226 -0.324821)
(3.31289e-20 -2.92212 -0.154278)
(-6.07044e-19 -1.9965 -0.40326)
(6.75275e-18 -3.10638 -0.240646)
(-6.15315e-18 -5.40139 -0.570191)
(-4.29186e-34 0.441811 0.53968)
(-1.20265e-33 0.520743 0.535769)
(-2.76817e-33 0.566854 0.539383)
(-6.37324e-33 0.614099 0.542192)
(-1.45583e-32 0.658884 0.547797)
(-3.29408e-32 0.701447 0.554134)
(-7.36946e-32 0.742652 0.562076)
(-1.62724e-31 0.782403 0.571073)
(-3.54033e-31 0.821073 0.58132)
(-7.57629e-31 0.858717 0.592644)
(-1.59156e-30 0.895492 0.605068)
(-3.27364e-30 0.931467 0.618521)
(-6.57086e-30 0.966728 0.632987)
(-1.28154e-29 1.00133 0.648429)
(-2.41496e-29 1.03536 0.664828)
(-4.35733e-29 1.06886 0.682165)
(-7.37812e-29 1.10192 0.700428)
(-1.1037e-28 1.13462 0.71961)
(-1.10584e-28 1.16704 0.739702)
(1.40718e-28 1.19926 0.760696)
(1.58652e-27 1.23135 0.782581)
(8.13712e-27 1.26336 0.805344)
(3.54093e-26 1.29534 0.828969)
(1.4347e-25 1.3273 0.85345)
(5.54245e-25 1.35931 0.878784)
(2.05608e-24 1.39143 0.904984)
(7.35662e-24 1.42376 0.932068)
(2.55134e-23 1.45641 0.960051)
(8.61902e-23 1.48947 0.988934)
(2.8452e-22 1.52301 1.01869)
(9.17898e-22 1.557 1.04926)
(2.88605e-21 1.59136 1.08054)
(8.80355e-21 1.62592 1.11242)
(2.59207e-20 1.66041 1.14472)
(7.33202e-20 1.69453 1.17726)
(1.9847e-19 1.72789 1.20987)
(5.12582e-19 1.76006 1.24244)
(1.26038e-18 1.7906 1.27498)
(2.94643e-18 1.81912 1.30782)
(6.54322e-18 1.84531 1.34176)
(1.37979e-17 1.86898 1.37827)
(2.76252e-17 1.89012 1.41973)
(5.25165e-17 1.90875 1.4694)
(9.48134e-17 1.92484 1.53109)
(1.62631e-16 1.93802 1.6083)
(2.65225e-16 1.94744 1.70296)
(4.11749e-16 1.95186 1.81383)
(6.09581e-16 1.94978 1.93533)
(8.62597e-16 1.93931 2.05723)
(1.16974e-15 1.91748 2.16555)
(1.52369e-15 1.87892 2.24435)
(1.91014e-15 1.81584 2.2779)
(2.31543e-15 1.72544 2.25495)
(2.7474e-15 1.60449 2.17241)
(3.1443e-15 1.29365 1.96007)
(2.91905e-15 0.244676 1.19966)
(1.68129e-15 -1.06109 0.278232)
(1.24453e-15 -1.64289 0.177074)
(8.26225e-16 -2.08124 -0.0738393)
(4.28917e-16 -2.53195 -0.180307)
(1.79903e-16 -3.00906 -0.273126)
(6.21874e-17 -3.45141 -0.335323)
(1.52388e-17 -3.84268 -0.36222)
(2.3599e-18 -4.18676 -0.360688)
(2.02779e-19 -4.46943 -0.360524)
(-2.76976e-21 -4.64873 -0.359613)
(-4.52636e-21 -4.72059 -0.356633)
(-6.69189e-22 -4.70003 -0.357817)
(2.84385e-23 -4.54055 -0.363208)
(1.37754e-23 -4.30804 -0.351896)
(-1.4928e-23 -3.94726 -0.355484)
(6.73835e-24 -3.60707 -0.318402)
(-3.93034e-23 -3.08988 -0.327922)
(2.55183e-22 -2.96542 -0.246239)
(-1.99605e-21 -2.19111 -0.321466)
(3.44057e-20 -2.87656 -0.154426)
(-6.26542e-19 -1.9404 -0.396017)
(6.71927e-18 -3.04523 -0.242234)
(-6.9303e-18 -5.32958 -0.566424)
(-9.00868e-34 0.442234 0.557375)
(-2.51158e-33 0.520781 0.552767)
(-5.74899e-33 0.566384 0.556299)
(-1.31604e-32 0.613451 0.55893)
(-2.98822e-32 0.657962 0.564559)
(-6.7191e-32 0.700337 0.570938)
(-1.49331e-31 0.741335 0.579002)
(-3.27445e-31 0.780907 0.588155)
(-7.07164e-31 0.819397 0.598599)
(-1.50157e-30 0.856873 0.61015)
(-3.12881e-30 0.893484 0.622828)
(-6.38188e-30 0.929303 0.636558)
(-1.27004e-29 0.964411 0.651323)
(-2.45495e-29 0.99887 0.667085)
(-4.58013e-29 1.03275 0.683828)
(-8.15797e-29 1.06611 0.701532)
(-1.35182e-28 1.09902 0.720189)
(-1.9154e-28 1.13158 0.739792)
(-1.41695e-28 1.16386 0.760333)
(5.41249e-28 1.19594 0.781802)
(4.13328e-27 1.22789 0.804187)
(1.99208e-26 1.25977 0.827471)
(8.42067e-26 1.29161 0.85164)
(3.33371e-25 1.32345 0.876684)
(1.26019e-24 1.35532 0.902609)
(4.5819e-24 1.3873 0.92943)
(1.6101e-23 1.41949 0.957173)
(5.49443e-23 1.45199 0.985852)
(1.82842e-22 1.48492 1.01546)
(5.94673e-22 1.51832 1.04597)
(1.88904e-21 1.5522 1.0773)
(5.84163e-21 1.58647 1.10934)
(1.75006e-20 1.62096 1.14195)
(5.05298e-20 1.65542 1.17497)
(1.39957e-19 1.68952 1.20821)
(3.7047e-19 1.72288 1.24153)
(9.34535e-19 1.75504 1.2749)
(2.24214e-18 1.78552 1.30849)
(5.10974e-18 1.81383 1.34292)
(1.1053e-17 1.83953 1.37947)
(2.26854e-17 1.86228 1.42036)
(4.41715e-17 1.88188 1.46889)
(8.15972e-17 1.89826 1.52936)
(1.43028e-16 1.9114 1.60633)
(2.37994e-16 1.9212 1.70334)
(3.76261e-16 1.92738 1.8211)
(5.66019e-16 1.9295 1.95583)
(8.1193e-16 1.92694 2.09849)
(1.11358e-15 1.91848 2.23545)
(1.46458e-15 1.90146 2.35041)
(1.85204e-15 1.87043 2.42671)
(2.25645e-15 1.817 2.44923)
(2.6587e-15 1.73682 2.40768)
(3.06271e-15 1.62953 2.30275)
(3.43469e-15 1.36925 2.09509)
(3.25467e-15 0.450939 1.40217)
(1.73953e-15 -0.893905 0.169429)
(1.22454e-15 -1.57941 0.116309)
(8.29641e-16 -2.02186 -0.0987739)
(4.33465e-16 -2.48933 -0.208357)
(1.82447e-16 -2.9724 -0.290049)
(6.31615e-17 -3.42351 -0.343533)
(1.55192e-17 -3.82394 -0.362217)
(2.38029e-18 -4.17354 -0.353453)
(1.91493e-19 -4.45892 -0.348337)
(-6.27632e-21 -4.64138 -0.344089)
(-5.03027e-21 -4.71579 -0.339322)
(-7.1163e-22 -4.69707 -0.340574)
(3.14082e-23 -4.54158 -0.346712)
(1.58608e-23 -4.31175 -0.337521)
(-1.46991e-23 -3.95629 -0.343279)
(6.53904e-24 -3.61761 -0.309348)
(-3.95019e-23 -3.10806 -0.320742)
(2.58209e-22 -2.97747 -0.242474)
(-2.07723e-21 -2.21707 -0.316573)
(3.5945e-20 -2.88092 -0.15291)
(-6.49119e-19 -1.94831 -0.387818)
(6.67795e-18 -3.04005 -0.238436)
(-7.56824e-18 -5.2637 -0.558069)
(-1.89646e-33 0.442905 0.578267)
(-5.26069e-33 0.520859 0.573014)
(-1.19758e-32 0.565756 0.576479)
(-2.72593e-32 0.612545 0.578961)
(-6.15287e-32 0.656658 0.584641)
(-1.37491e-31 0.698753 0.591103)
(-3.03581e-31 0.739447 0.599335)
(-6.61101e-31 0.778753 0.608698)
(-1.41734e-30 0.816978 0.619401)
(-2.98639e-30 0.854206 0.631244)
(-6.1727e-30 0.890576 0.644247)
(-1.24864e-29 0.926164 0.65833)
(-2.46386e-29 0.961047 0.673473)
(-4.72043e-29 0.995287 0.689639)
(-8.7179e-29 1.02895 0.706811)
(-1.53121e-28 1.0621 0.724973)
(-2.47112e-28 1.0948 0.744116)
(-3.24024e-28 1.12715 0.764237)
(-1.07855e-28 1.15923 0.785327)
(1.68946e-27 1.1911 0.807379)
(1.05319e-26 1.22286 0.830375)
(4.83079e-26 1.25453 0.854298)
(1.98791e-25 1.28618 0.879131)
(7.69785e-25 1.31782 0.904866)
(2.85055e-24 1.3495 0.931512)
(1.01686e-23 1.38128 0.959091)
(3.51227e-23 1.41326 0.987634)
(1.17999e-22 1.44555 1.01716)
(3.86937e-22 1.47828 1.04766)
(1.24009e-21 1.5115 1.07909)
(3.87885e-21 1.54521 1.11135)
(1.17961e-20 1.57933 1.14433)
(3.47024e-20 1.61371 1.17788)
(9.82417e-20 1.6481 1.21183)
(2.66413e-19 1.68216 1.246)
(6.89542e-19 1.7155 1.2803)
(1.69882e-18 1.74761 1.31482)
(3.97664e-18 1.77794 1.35)
(8.83397e-18 1.80586 1.38688)
(1.86108e-17 1.83075 1.42745)
(3.71695e-17 1.85204 1.47492)
(7.03641e-17 1.86929 1.53382)
(1.26255e-16 1.88232 1.6096)
(2.14761e-16 1.89123 1.70745)
(3.46488e-16 1.89644 1.8303)
(5.30788e-16 1.89854 1.9766)
(7.73471e-16 1.89821 2.13889)
(1.0749e-15 1.89585 2.30391)
(1.42896e-15 1.89096 2.45462)
(1.82306e-15 1.88106 2.57304)
(2.23846e-15 1.86051 2.64269)
(2.65086e-15 1.8202 2.64975)
(3.03626e-15 1.75397 2.58539)
(3.39251e-15 1.66425 2.45372)
(3.7076e-15 1.46233 2.2398)
(3.56734e-15 0.683259 1.60789)
(1.95623e-15 -0.731697 0.147666)
(1.20938e-15 -1.53904 0.00143645)
(8.31374e-16 -1.98342 -0.131986)
(4.39374e-16 -2.45979 -0.24428)
(1.85824e-16 -2.94928 -0.315413)
(6.43332e-17 -3.40719 -0.357268)
(1.58305e-17 -3.8145 -0.365138)
(2.40176e-18 -4.16745 -0.346526)
(1.79079e-19 -4.45378 -0.334378)
(-1.00341e-20 -4.63768 -0.32547)
(-5.54216e-21 -4.71295 -0.317948)
(-7.5003e-22 -4.69476 -0.318892)
(3.50225e-23 -4.54166 -0.325782)
(1.80033e-23 -4.31323 -0.318999)
(-1.44607e-23 -3.96158 -0.327426)
(6.34522e-24 -3.62353 -0.29732)
(-3.97098e-23 -3.11982 -0.311276)
(2.61393e-22 -2.98404 -0.236858)
(-2.15979e-21 -2.23413 -0.310927)
(3.75078e-20 -2.88179 -0.149859)
(-6.7087e-19 -1.94968 -0.380171)
(6.63151e-18 -3.03341 -0.22671)
(-9.35564e-18 -5.20896 -0.541203)
(-3.97493e-33 0.443595 0.598238)
(-1.09698e-32 0.520986 0.592574)
(-2.4834e-32 0.565226 0.595987)
(-5.62012e-32 0.611745 0.598379)
(-1.2609e-31 0.655486 0.604129)
(-2.7998e-31 0.697318 0.610699)
(-6.14105e-31 0.73773 0.619115)
(-1.32798e-30 0.776791 0.628703)
(-2.82603e-30 0.814774 0.639676)
(-5.90802e-30 0.851776 0.651822)
(-1.21116e-29 0.887928 0.665159)
(-2.42932e-29 0.923307 0.679603)
(-4.75219e-29 0.957987 0.695131)
(-9.0216e-29 0.992029 0.711707)
(-1.64828e-28 1.02549 0.729313)
(-2.84868e-28 1.05845 0.747936)
(-4.44169e-28 1.09097 0.767571)
(-5.16334e-28 1.12312 0.788213)
(1.90832e-28 1.15501 0.809859)
(4.8025e-27 1.1867 0.832496)
(2.63047e-26 1.21827 0.856108)
(1.15688e-25 1.24977 0.880674)
(4.64008e-25 1.28123 0.906175)
(1.75837e-24 1.3127 0.932604)
(6.38222e-24 1.34419 0.959973)
(2.23494e-23 1.37579 0.988312)
(7.59066e-23 1.40757 1.01766)
(2.51109e-22 1.43967 1.04804)
(8.11363e-22 1.47221 1.07943)
(2.5618e-21 1.50526 1.11179)
(7.88707e-21 1.53882 1.14501)
(2.35765e-20 1.57282 1.17895)
(6.80679e-20 1.60711 1.21347)
(1.88816e-19 1.64143 1.24839)
(5.00979e-19 1.67546 1.28359)
(1.26696e-18 1.70875 1.31906)
(3.04631e-18 1.74074 1.35509)
(6.9518e-18 1.77074 1.39248)
(1.50403e-17 1.79798 1.43292)
(3.08288e-17 1.82156 1.47935)
(5.98461e-17 1.84065 1.53621)
(1.10002e-16 1.85458 1.60943)
(1.91439e-16 1.86315 1.70547)
(3.15511e-16 1.86684 1.8295)
(4.92775e-16 1.8669 1.98268)
(7.30379e-16 1.86513 2.15978)
(1.02969e-15 1.86342 2.34856)
(1.38497e-15 1.86311 2.53145)
(1.78337e-15 1.86394 2.6889)
(2.20599e-15 1.86317 2.80278)
(2.6291e-15 1.85459 2.85827)
(3.02533e-15 1.82824 2.84384)
(3.36798e-15 1.77595 2.75246)
(3.64831e-15 1.70029 2.59077)
(3.86966e-15 1.54395 2.3656)
(3.76272e-15 0.897209 1.8016)
(2.30129e-15 -0.597207 0.193818)
(1.24689e-15 -1.51251 -0.137402)
(8.28796e-16 -1.96874 -0.18863)
(4.45092e-16 -2.44661 -0.288396)
(1.90249e-16 -2.94316 -0.350192)
(6.58106e-17 -3.40746 -0.377943)
(1.61737e-17 -3.82032 -0.371581)
(2.4217e-18 -4.17439 -0.340001)
(1.65513e-19 -4.45901 -0.318335)
(-1.39106e-20 -4.64172 -0.303132)
(-6.03408e-21 -4.71503 -0.291754)
(-7.81773e-22 -4.69477 -0.291926)
(3.9103e-23 -4.54167 -0.299562)
(2.00668e-23 -4.31235 -0.29552)
(-1.42294e-23 -3.96254 -0.307184)
(6.16822e-24 -3.62323 -0.281694)
(-3.99172e-23 -3.12357 -0.299043)
(2.64602e-22 -2.98154 -0.229075)
(-2.24011e-21 -2.2395 -0.304339)
(3.90365e-20 -2.87284 -0.145311)
(-6.90902e-19 -1.93823 -0.373029)
(6.59926e-18 -3.01671 -0.21379)
(-1.31586e-17 -5.17453 -0.531174)
(-8.29726e-33 0.444365 0.618269)
(-2.2779e-32 0.521133 0.612348)
(-5.12781e-32 0.564685 0.61573)
(-1.15368e-31 0.610899 0.618086)
(-2.57246e-31 0.654237 0.62393)
(-5.67544e-31 0.695779 0.630639)
(-1.23648e-30 0.735887 0.639263)
(-2.65492e-30 0.774681 0.649102)
(-5.60752e-30 0.812402 0.660369)
(-1.16301e-29 0.84916 0.672844)
(-2.3644e-29 0.885077 0.68654)
(-4.70173e-29 0.920231 0.701369)
(-9.11611e-29 0.954693 0.717308)
(-1.71425e-28 0.988521 0.734318)
(-3.09553e-28 1.02178 0.752384)
(-5.24787e-28 1.05452 0.771495)
(-7.80953e-28 1.08683 0.791647)
(-7.38831e-28 1.11878 0.812839)
(1.31902e-27 1.15046 0.835067)
(1.29084e-26 1.18195 0.858319)
(6.45718e-26 1.21332 0.882578)
(2.73741e-25 1.24462 0.907818)
(1.0712e-24 1.2759 0.934019)
(3.97447e-24 1.30717 0.961175)
(1.41474e-23 1.33847 0.989301)
(4.86584e-23 1.36986 1.01844)
(1.62561e-22 1.40144 1.04862)
(5.29611e-22 1.43332 1.07989)
(1.68607e-21 1.46566 1.11223)
(5.24339e-21 1.49851 1.14557)
(1.58828e-20 1.53191 1.1798)
(4.66433e-20 1.56578 1.21478)
(1.3208e-19 1.59996 1.25035)
(3.58771e-19 1.63422 1.28637)
(9.30738e-19 1.66818 1.32278)
(2.29832e-18 1.70135 1.35975)
(5.38914e-18 1.73308 1.39786)
(1.19797e-17 1.76252 1.43848)
(2.52188e-17 1.78863 1.48417)
(5.02418e-17 1.81024 1.5391)
(9.46846e-17 1.82617 1.60922)
(1.68755e-16 1.83558 1.7018)
(2.84429e-16 1.83845 1.82388)
(4.535e-16 1.83595 1.97952)
(6.84691e-16 1.83057 2.16655)
(9.80724e-16 1.82557 2.37466)
(1.3365e-15 1.8241 2.58631)
(1.73898e-15 1.82803 2.78035)
(2.16847e-15 1.83693 2.93634)
(2.6006e-15 1.8474 3.03771)
(3.00826e-15 1.85247 3.0725)
(3.36323e-15 1.84142 3.03206)
(3.63894e-15 1.80412 2.91106)
(3.82153e-15 1.74177 2.71744)
(3.91844e-15 1.62105 2.47407)
(3.8033e-15 1.0927 1.97966)
(2.67577e-15 -0.468765 0.341333)
(1.37901e-15 -1.47117 -0.260568)
(8.35698e-16 -1.9596 -0.274229)
(4.48605e-16 -2.43426 -0.343701)
(1.95102e-16 -2.93688 -0.394109)
(6.77323e-17 -3.40858 -0.406555)
(1.65952e-17 -3.82733 -0.38252)
(2.43846e-18 -4.18226 -0.33459)
(1.49639e-19 -4.4647 -0.300738)
(-1.7892e-20 -4.64589 -0.277411)