/*--------------------------------*- C++ -*----------------------------------*\
| =========                 |                                                 |
| \\      /  F ield         | OpenFOAM: The Open Source CFD Toolbox           |
|  \\    /   O peration     | Version:  4.1                                   |
|   \\  /    A nd           | Web:      www.OpenFOAM.org                      |
|    \\/     M anipulation  |                                                 |
\*---------------------------------------------------------------------------*/
FoamFile
{
    version     2.0;
    format      ascii;
    class       volScalarField;
    location    "24";
    object      p;
}
// * * * * * * * * * * * * * * * * * * * * * * * * * * * * * * * * * * * * * //

dimensions      [0 2 -2 0 0 0 0];

internalField   nonuniform List<scalar> 
6785
(
593.909
515.337
468.34
414.875
368.079
322.973
280.951
241.16
203.561
168.027
133.816
100.783
73.4765
45.4311
4.24575
-19.6341
-38.1422
-28.411
-36.0083
-35.6664
-38.4697
-39.4204
-40.2223
-40.0305
-38.9063
-36.7769
-33.8415
-29.2746
-24.625
-22.7355
-16.1421
-21.2996
-12.9761
-18.4713
-15.6913
-17.93
-18.2399
-19.8332
-21.2175
-23.0197
-24.8892
-26.6273
-27.3828
-27.2366
-25.3805
-2.55012
-5.25509
-1.86998
-7
-5.06099
-8.04029
-8.28065
-9.65724
-10.3345
-11.0074
-11.2951
-11.2423
-9.98208
-8.23956
-4.97124
10.2497
9.90741
13.9476
12.0438
16.2441
16.1606
18.8007
20.373
22.4911
24.5982
26.8349
29.0304
31.4756
33.3126
35.7267
36.2912
37.0986
40.1677
39.1665
42.4711
42.2574
44.3108
44.8867
45.8512
46.3507
46.9143
47.6755
48.7631
49.5949
50.6233
49.0636
49.3281
51.0229
49.8753
51.9359
51.1519
52.3303
52.1134
52.4258
52.3643
52.318
52.0348
51.4325
51.3141
50.8796
54.0768
51.643
52.6863
50.3208
51.144
49.2845
49.2405
47.6064
46.2925
43.9659
41.4046
38.7933
37.2426
36.5455
33.5431
16.6273
11.3779
10.4155
6.19834
4.6368
0.889849
-1.27687
-4.32332
-6.10203
-7.74642
-8.52446
-8.7036
-8.68261
-9.64815
-11.7625
-22.5584
-26.3703
-26.5549
-29.3346
-29.929
-32.2839
-33.2349
-34.7784
-35.439
-36.0978
-36.6087
-37.0813
-37.5488
-37.9253
-36.0899
-19.4644
-19.3158
-18.0848
-18.6379
-17.5994
-17.9049
-17.4302
-17.5083
-17.345
-17.2432
-16.8961
-16.3394
-14.8964
-13.3295
-10.3593
2.42625
4.3764
6.00174
6.79772
8.47053
9.38676
10.8014
11.9671
13.2884
14.5849
16.0021
17.3752
18.97
20.2196
21.8925
25.4219
26.6028
26.9816
27.0999
27.6949
27.7042
28.0634
28.2697
28.6096
28.9736
29.4521
29.9131
30.5409
30.9798
31.6971
31.5678
33.9742
33.3208
32.7155
32.5289
32.464
32.8031
33.1033
33.5652
33.954
34.2993
34.4847
34.6349
34.601
34.5839
82.8204
80.8508
74.5619
66.2287
59.9831
54.5301
48.8776
44.3221
40.4326
36.958
34.0545
31.7554
29.5129
27.9493
25.072
37.0313
37.4992
37.9181
37.8833
38.0667
38.723
39.5007
39.3176
39.2317
39.1636
39.8415
39.2703
39.1689
39.5067
38.6801
38.4716
38.6269
38.8228
37.4045
38.0141
38.0995
36.7568
36.5827
37.4067
37.4423
36.0122
35.9132
36.82
37.2895
35.5338
36.7582
37.3283
36.0073
36.001
37.0144
37.7477
36.3899
37.4358
38.1692
37.3062
37.3576
38.1882
38.7391
38.1388
38.2037
38.8321
39.1585
38.642
39.1942
39.3729
39.1146
39.2109
39.5529
40.0342
39.9146
39.9692
40.1226
40.9017
40.8071
40.9242
41.0742
41.0523
41.1332
41.0558
41.5404
41.9375
42.9067
41.3762
39.8504
41.7556
43.8406
34.3972
30.4945
35.4436
40.5423
10.4341
23.8992
31.999
-22.495
-5.51148
3.14078
0.398027
5.23245
-4.13029
-0.245059
4.24923
4.20784
4.79539
5.35491
5.88148
5.74961
8.96069
11.1403
5.65735
7.85338
8.69399
10.2195
11.147
11.9845
12.0714
14.7379
21.7302
13.6058
15.2202
14.5403
15.3331
17.1631
18.0199
17.6512
17.0054
16.7562
25.7423
19.2022
18.9431
17.7848
16.3405
16.4706
17.4929
16.0685
12.3451
16.8642
17.9616
18.8377
18.413
16.5962
15.2058
13.6115
14.6674
11.1878
12.1469
22.9281
19.8433
20.6055
20.5025
18.7677
17.3658
15.9802
9.82867
13.857
25.0559
19.7453
17.8338
14.52
12.3433
10.1904
8.67604
7.33383
3.65471
-0.802802
13.735
9.215
8.91004
7.43113
5.42617
-0.490508
-2.21943
0.437222
-11.8592
5.95279
2.52436
0.359933
7.35458
4.51347
7.20145
7.73359
8.73113
10.2411
10.1337
10.6876
10.9848
11.151
11.2374
11.1738
11.2137
10.987
11.0215
10.7044
10.3049
10.2543
9.76611
10.132
9.55724
8.77053
9.63493
8.77526
8.20364
8.34924
7.67871
8.71627
7.78165
7.08107
7.38185
6.62991
7.72664
7.03143
5.81583
7.22186
6.53242
5.51898
6.05002
5.23778
6.32997
5.72749
4.77856
5.29127
4.52705
5.52732
5.04218
3.87108
5.16154
4.59563
3.60836
4.0837
3.31184
4.38818
3.72922
2.87909
3.30072
2.52318
3.75464
3.09306
1.84311
3.49877
2.64756
1.75441
2.25295
1.47298
2.9497
1.94525
1.20923
1.60194
0.888948
2.2543
1.29278
0.0946599
1.84279
0.504833
-0.184964
-0.0731277
-0.731994
-0.00327147
0.0207168
0.0148935
0.025492
0.0261746
0.0318109
0.0348842
0.039838
0.04579
0.0550925
0.0681555
0.0840549
0.0991597
0.10897
0.110232
0.102576
0.0883213
0.0709932
0.0536345
0.03797
0.0244862
0.0129314
0.00278593
-0.00645144
-0.0151677
-0.0236718
-0.0322377
-0.0410716
-0.0502039
-0.0592392
-0.0676344
-0.0861261
-0.161345
-0.19178
-0.554062
-0.502662
-0.429846
-0.569491
-0.716663
-0.853608
-0.974981
-1.06221
-1.108
-1.1183
-1.09279
-1.0308
-0.939755
-0.827063
-0.698989
-0.558906
-0.410322
-0.256411
-0.100584
0.0526285
0.2045
0.353816
0.497801
0.639006
0.790386
0.911412
0.986444
1.00172
0.950952
0.849242
0.716229
0.573227
0.435523
0.323721
0.215476
0.145712
0.0593849
0.0438947
0.00707506
0.00714445
0.0413687
0.0505427
0.149033
-0.105431
0.273461
-0.0146757
0.0529509
0.0342924
0.0637291
0.0640381
0.0786319
0.0849302
0.0931732
0.0964285
0.0954995
0.0883927
0.0766165
0.0629485
0.0515637
0.0456809
0.0462751
0.0518186
0.0594273
0.0661156
0.0695955
0.0685165
0.0624421
0.0517388
0.0373641
0.0203784
0.00124553
-0.0205888
-0.0465202
-0.0783481
-0.117451
-0.160824
-0.212313
-0.362301
-0.444261
-0.858059
-0.724812
-0.625315
-0.887567
-1.14394
-1.38382
-1.59205
-1.73623
-1.8021
-1.79776
-1.72312
-1.582
-1.38869
-1.1532
-0.885472
-0.594473
-0.288525
0.024642
0.337159
0.645113
0.944004
1.22746
1.4903
1.73696
1.94402
2.07663
2.12047
2.0619
1.91512
1.69123
1.42099
1.13729
0.865776
0.643671
0.430902
0.293033
0.129207
0.0994943
0.0402488
0.0216337
0.0422392
0.0813553
0.326873
-0.241639
0.59781
-0.0248675
0.0900091
0.0596599
0.10957
0.110943
0.136235
0.148263
0.164962
0.176057
0.184452
0.187402
0.186143
0.181602
0.175696
0.169569
0.163685
0.157769
0.151109
0.142601
0.13096
0.115046
0.0942676
0.0688453
0.0397672
0.00816865
-0.0256536
-0.0627864
-0.105347
-0.155724
-0.215022
-0.27793
-0.3542
-0.597083
-0.77928
-0.84936
-0.771055
-0.672833
-0.993007
-1.29917
-1.58537
-1.83261
-2.00225
-2.0764
-2.06605
-1.97082
-1.79569
-1.55741
-1.26733
-0.938028
-0.580825
-0.206111
0.176644
0.558362
0.934007
1.29719
1.64068
1.95697
2.24804
2.48157
2.62428
2.66154
2.57619
2.38666
2.10652
1.77106
1.41872
1.08122
0.802426
0.539195
0.36688
0.173987
0.132734
0.074281
0.0441469
0.119207
0.170263
0.577448
-0.350536
0.714599
-0.0375495
0.124527
0.0815913
0.151034
0.152897
0.187694
0.203905
0.225819
0.238771
0.246104
0.243556
0.233204
0.217986
0.203079
0.192214
0.186705
0.18515
0.184579
0.181504
0.172822
0.156385
0.131386
0.0985088
0.0596452
0.0168328
-0.029261
-0.0800953
-0.138646
-0.208229
-0.290147
-0.376691
-0.476239
-0.774827
-1.06978
-0.787784
-0.933995
-0.804203
-1.19131
-1.57428
-1.92731
-2.23117
-2.43905
-2.52778
-2.51256
-2.39296
-2.17517
-1.87948
-1.51983
-1.11227
-0.670894
-0.208596
0.263015
0.733209
1.19517
1.64108
2.06289
2.45071
2.805
3.08855
3.26327
3.31187
3.21011
2.97757
2.63246
2.21715
1.77862
1.35737
1.00666
0.678681
0.461601
0.22848
0.172536
0.109971
0.0719356
0.177369
0.245652
0.794222
-0.437462
0.889111
-0.051607
0.160373
0.104322
0.193434
0.195981
0.239993
0.259945
0.286335
0.300887
0.308549
0.305122
0.2944
0.280158
0.267439
0.258781
0.254356
0.252169
0.249144
0.241802
0.226962
0.202352
0.16719
0.122511
0.0708691
0.014924
-0.0445542
-0.109568
-0.183923
-0.271556
-0.373376
-0.479462
-0.598461
-0.928759
-1.2916
-0.665562
-1.09046
-0.932202
-1.38974
-1.8593
-2.28505
-2.65102
-2.90109
-3.00579
-2.9852
-2.83851
-2.57366
-2.21495
-1.77888
-1.28499
-0.750564
-0.191317
0.37863
0.946503
1.50409
2.04154
2.54941
3.01557
3.4397
3.77524
3.98046
4.03593
3.91123
3.62935
3.21141
2.70733
2.17317
1.65909
1.22908
0.829902
0.563937
0.286833
0.214893
0.149035
0.108518
0.255948
0.340738
1.025
-0.419667
1.15491
-0.0681622
0.196338
0.125957
0.234262
0.237122
0.289229
0.311487
0.340136
0.353597
0.358497
0.350965
0.33648
0.319678
0.306102
0.298262
0.296026
0.296698
0.296211
0.289982
0.273868
0.244991
0.202495
0.147953
0.0849225
0.0170084
-0.0547476
-0.132871
-0.222002
-0.326644
-0.44737
-0.572716
-0.709744
-1.04378
-1.42747
-0.620879
-1.23756
-1.05572
-1.57259
-2.12938
-2.62392
-3.04782
-3.33648
-3.45391
-3.42636
-3.25226
-2.94142
-2.52195
-2.01273
-1.43667
-0.813993
-0.163092
0.499581
1.15942
1.80689
2.43025
3.01891
3.55861
4.04824
4.43248
4.66647
4.72904
4.58367
4.25589
3.76901
3.18009
2.55365
1.94966
1.44238
0.974801
0.661632
0.345073
0.256714
0.190738
0.15144
0.33793
0.443234
1.25186
-0.307527
1.41892
-0.0874046
0.233555
0.147372
0.274453
0.277155
0.33604
0.359052
0.388033
0.398915
0.400776
0.390852
0.376204
0.361459
0.351449
0.3476
0.348909
0.352044
0.352455
0.345076
0.325296
0.289923
0.238175
0.172281
0.0969206
0.0166945
-0.0671878
-0.157954
-0.261141
-0.38168
-0.519717
-0.663081
-0.817751
-1.14328
-1.52392
-0.748299
-1.31351
-1.18939
-1.75728
-2.40888
-2.97387
-3.45581
-3.78291
-3.91181
-3.87622
-3.67355
-3.31579
-2.83488
-2.25213
-1.59391
-0.883321
-0.141375
0.613193
1.36403
2.10026
2.80842
3.47698
4.08969
4.64476
5.0792
5.34446
5.41777
5.25581
4.88523
4.33119
3.65793
2.93858
2.24365
1.65771
1.12124
0.760111
0.406068
0.300235
0.235632
0.201376
0.430623
0.559855
1.48316
-0.183548
1.69861
-0.110145
0.272082
0.168068
0.313151
0.31476
0.378601
0.40049
0.427799
0.434836
0.433503
0.421989
0.40809
0.395839
0.389371
0.389455
0.394644
0.40113
0.403745
0.396656
0.374491
0.333551
0.273111
0.19623
0.109006
0.0172335
-0.0777641
-0.180115
-0.296327
-0.431616
-0.585758
-0.746815
-0.920012
-1.23506
-1.60341
-1.00511
-1.22322
-1.33879
-1.94377
-2.69689
-3.33534
-3.87617
-4.24208
-4.38161
-4.33705
-4.10438
-3.6982
-3.15437
-2.49667
-1.75504
-0.955389
-0.121423
0.725853
1.56837
2.39392
3.18742
3.93647
4.62304
5.24471
5.73107
6.02949
6.11578
5.93958
5.52767
4.90636
4.14734
3.33262
2.54414
1.87709
1.27037
0.860089
0.47024
0.346218
0.284587
0.258705
0.531372
0.688933
1.7165
0.0711793
2.00214
-0.137165
0.312468
0.187992
0.349999
0.349197
0.415928
0.434896
0.459087
0.462169
0.458899
0.447911
0.43701
0.42927
0.427988
0.433214
0.443013
0.453118
0.457827
0.450631
0.425469
0.378197
0.308263
0.219801
0.120628
0.0178323
-0.0874275
-0.20056
-0.329116
-0.478374
-0.647735
-0.826243
-1.01896
-1.3274
-1.67292
-1.25935
-1.03536
-1.52977
-2.13665
-2.99101
-3.7061
-4.30587
-4.70977
-4.85816
-4.80322
-4.53891
-4.08285
-3.47487
-2.74132
-1.91571
-1.02672
-0.100734
0.839012
1.77281
2.68716
3.56548
4.3946
5.15495
5.84349
6.38265
6.71545
6.8166
6.62857
6.17716
5.48896
4.64328
3.73136
2.84744
2.09757
1.42002
0.960062
0.537131
0.395127
0.338664
0.324668
0.641618
0.830982
1.94853
0.394102
2.31726
-0.169648
0.354994
0.206587
0.38401
0.379137
0.446594
0.461159
0.481617
0.481623
0.478119
0.469373
0.462661
0.460066
0.46424
0.474769
0.48942
0.503541
0.510845
0.504021
0.476169
0.422615
0.34306
0.243029
0.132443
0.0197051
-0.0946804
-0.217846
-0.358288
-0.521025
-0.705109
-0.901078
-1.11403
-1.42109
-1.73978
-1.45265
-0.953822
-1.72996
-2.34202
-3.29226
-4.08878
-4.74823
-5.18905
-5.34411
-5.27714
-4.97934
-4.47168
-3.79806
-2.98753
-2.07721
-1.0985
-0.0804468
0.951529
1.97617
2.97873
3.94124
4.84999
5.68401
6.43964
7.03263
7.40113
7.51927
7.32235
6.83356
6.07885
5.14546
4.13428
3.15294
2.31851
1.56968
1.05968
0.606701
0.447757
0.398872
0.400106
0.760705
0.985041
2.17509
0.701454
2.63746
-0.209104
0.399931
0.223145
0.414118
0.403405
0.469629
0.479052
0.496291
0.49494
0.493117
0.488181
0.486736
0.490025
0.500215
0.516532
0.536467
0.554965
0.565109
0.558724
0.528001
0.467728
0.378044
0.266304
0.144943
0.0234418
-0.0991808
-0.232139
-0.384472
-0.560605
-0.759373
-0.973048
-1.20679
-1.51801
-1.81951
-1.62991
-1.10173
-1.8128
-2.56821
-3.60214
-4.48521
-5.20586
-5.68254
-5.84179
-5.76081
-5.42744
-4.86625
-4.12518
-3.23623
-2.24017
-1.17107
-0.0606435
1.06356
2.17882
3.26918
4.31548
5.30356
6.21133
7.03445
7.68245
8.08834
8.22566
8.02238
7.49824
6.67707
5.65435
4.54129
3.46016
2.53929
1.7187
1.15843
0.678603
0.504595
0.465857
0.485533
0.8884
1.15061
2.39733
1.10922
2.96313
-0.257435
0.447243
0.236681
0.439075
0.420887
0.484486
0.489084
0.50456
0.503814
0.50525
0.505146
0.509507
0.518951
0.535337
0.557653
0.583169
0.60642
0.619788
0.614108
0.58053
0.513267
0.413137
0.2899
0.158883
0.0299524
-0.10042
-0.243413
-0.407897
-0.597571
-0.811337
-1.04326
-1.29838
-1.61864
-1.91734
-1.81566
-1.39293
-1.71532
-2.83574
-3.92598
-4.89659
-5.68057
-6.19196
-6.35259
-6.25512
-5.88378
-5.2669
-4.45637
-3.48734
-2.40438
-1.2441
-0.0409349
1.17551
2.38115
3.55888
4.6885
5.7556
6.73718
7.62819
8.33235
8.77754
8.93626
8.72869
8.17123
7.28336
6.16923
4.95122
3.76773
2.75852
1.86582
1.25539
0.75214
0.565742
0.539857
0.580944
1.02385
1.32616
2.61187
1.49007
3.26735
-0.316613
0.496398
0.246188
0.457723
0.430895
0.491465
0.492626
0.508243
0.50985
0.515678
0.521058
0.531565
0.547404
0.570238
0.598882
0.630381
0.658814
0.675776
0.67098
0.634403
0.559689
0.448714
0.314422
0.175155
0.0397951
-0.0986026
-0.252303
-0.429313
-0.632834
-0.862207
-1.11323
-1.39061
-1.72411
-2.03194
-2.00662
-1.67848
-1.57141
-3.17098
-4.2747
-5.32373
-6.17446
-6.71927
-6.87837
-6.76149
-6.3493
-5.67432
-4.79207
-3.74114
-2.56991
-1.31753
-0.0212016
1.28753
2.5833
3.84793
5.06035
6.20611
7.26153
8.22077
8.98224
9.46864
9.65092
9.44111
8.85241
7.89737
6.68924
5.36276
4.0741
2.97465
2.00962
1.34946
0.826443
0.631007
0.620722
0.685945
1.16612
1.51044
2.82132
1.93637
3.5472
-0.387769
0.545894
0.250782
0.469126
0.433411
0.491709
0.491452
0.50898
0.514212
0.525108
0.536304
0.553116
0.575487
0.604971
0.640248
0.678137
0.712219
0.733195
0.729493
0.68975
0.607059
0.484953
0.340509
0.194557
0.05302
-0.0943738
-0.259502
-0.449313
-0.66704
-0.912804
-1.18403
-1.48497
-1.83574
-2.16173
-2.20565
-1.94634
-1.59078
-3.5526
-4.65865
-5.76691
-6.68961
-7.26646
-7.42114
-7.28163
-6.82526
-6.08937
-5.13288
-3.99798
-2.73694
-1.39139
-0.00135027
1.39977
2.78545
4.13648
5.43118
6.65522
7.78449
8.8123
9.63224
10.1617
10.3697
10.1598
9.54183
8.51882
7.2135
5.77447
4.37757
3.18596
2.14849
1.43941
0.900474
0.699922
0.707984
0.799836
1.31412
1.70125
3.02158
2.35424
3.79132
-0.469328
0.592681
0.249818
0.472863
0.429327
0.486943
0.487305
0.508055
0.517705
0.534019
0.551207
0.574442
0.603519
0.63992
0.682216
0.726983
0.767246
0.792684
0.790238
0.74699
0.655592
0.522206
0.368977
0.217497
0.0689298
-0.0887199
-0.265706
-0.468449
-0.700788
-0.963847
-1.25659
-1.58281
-1.95513
-2.30687
-2.42108
-2.2542
-1.88948
-3.89949
-5.08515
-6.22634
-7.22795
-7.8355
-7.98278
-7.81727
-7.31295
-6.51287
-5.47932
-4.25819
-2.90558
-1.46563
0.0187728
1.51245
2.98781
4.42475
5.80116
7.10307
8.30616
9.40283
10.2824
10.8569
11.0926
10.8845
10.2394
9.14728
7.74087
6.18463
4.67614
3.39044
2.28057
1.52379
0.973035
0.771792
0.800942
0.921718
1.46676
1.89709
3.21534
2.67504
3.9682
-0.554662
0.631644
0.243059
0.469286
0.420269
0.478948
0.481559
0.506314
0.520813
0.542702
0.565995
0.595779
0.631767
0.6754
0.725152
0.777344
0.824376
0.854748
0.85364
0.806302
0.70525
0.560815
0.400471
0.243531
0.0862375
-0.0825392
-0.271359
-0.487057
-0.734445
-1.01577
-1.33147
-1.68502
-2.08337
-2.46771
-2.65679
-2.61818
-2.41875
-4.12929
-5.56122
-6.70411
-7.79085
-8.4284
-8.56511
-8.37013
-7.81385
-6.94582
-5.83191
-4.52206
-3.07595
-1.5402
0.0393215
1.62577
3.19062
4.71293
6.17044
7.54976
8.82659
9.99236
10.9327
11.5542
11.8193
11.6149
10.9449
9.78216
8.26998
6.59121
4.96756
3.58588
2.40373
1.60095
1.04281
0.845753
0.898739
1.05056
1.62293
2.09641
3.4046
3.10072
4.09295
-0.631051
0.655942
0.231022
0.459528
0.408122
0.46918
0.475148
0.504279
0.523844
0.551396
0.580922
0.617434
0.660611
0.711866
0.769596
0.829844
0.884299
0.920065
0.920176
0.867715
0.755883
0.601237
0.435074
0.271258
0.103575
-0.0763577
-0.276643
-0.505291
-0.768207
-1.06883
-1.40903
-1.79214
-2.22101
-2.64427
-2.91337
-3.02363
-3.04404
-4.20252
-6.09878
-7.20703
-8.37904
-9.04713
-9.16993
-8.94185
-8.32954
-7.38936
-6.19129
-4.7899
-3.24818
-1.61507
0.0604456
1.73995
3.39408
5.00121
6.53917
7.99537
9.34578
10.5808
11.5831
12.2536
12.5503
12.352
11.6581
10.4228
8.7992
6.99192
5.24931
3.76977
2.51566
1.66907
1.10836
0.92081
1.00043
1.18527
1.7816
2.29704
3.58288
3.34855
4.17287
-0.682261
0.658846
0.215226
0.445113
0.394527
0.458628
0.468638
0.502259
0.527025
0.560338
0.59628
0.639768
0.690484
0.749829
0.816139
0.885156
0.947735
0.989271
0.990081
0.930818
0.807214
0.643784
0.471747
0.298725
0.120069
-0.0702392
-0.28149
-0.523111
-0.802077
-1.12307
-1.48933
-1.90428
-2.368
-2.83611
-3.18947
-3.44581
-3.6365
-4.18085
-6.72839
-7.74664
-8.99256
-9.6931
-9.79903
-9.534
-8.86157
-7.84476
-6.55822
-5.06209
-3.42238
-1.69019
0.0823036
1.85521
3.59845
5.28979
6.90749
8.43998
9.86375
11.1682
12.2336
12.9548
13.2858
13.0965
12.3786
11.0682
9.32659
7.38408
5.51854
3.9394
2.61376
1.72609
1.16816
0.995878
1.10503
1.32474
1.94182
2.49801
3.763
3.65767
4.22864
-0.694753
0.636624
0.197925
0.427473
0.380656
0.447878
0.462359
0.50047
0.53058
0.569808
0.612427
0.66322
0.721909
0.7899
0.865489
0.944069
1.01548
1.06292
1.06318
0.994732
0.859037
0.68811
0.508313
0.32432
0.135619
-0.0638934
-0.285659
-0.540332
-0.835914
-1.17835
-1.57223
-2.02125
-2.52389
-3.04236
-3.48319
-3.86991
-4.14808
-4.23292
-7.48944
-8.33911
-9.63131
-10.3671
-10.454
-10.148
-9.41143
-8.31337
-6.93358
-5.33903
-3.59868
-1.76552
0.105063
1.9718
3.80396
5.57889
7.27555
8.88367
10.3805
11.7543
12.8838
13.6579
14.0256
13.8484
13.1062
11.7173
9.84983
7.76465
5.77209
4.09171
2.69515
1.76977
1.22061
1.06981
1.21154
1.46789
2.10268
2.69783
3.94023
4.01593
4.3205
-0.663865
0.590637
0.181387
0.407708
0.367222
0.437256
0.456527
0.499118
0.534774
0.58015
0.62979
0.688302
0.755484
0.832769
0.918426
1.00743
1.08829
1.14125
1.13856
1.05825
0.911143
0.732581
0.542251
0.347518
0.150769
-0.0568343
-0.288787
-0.556663
-0.869467
-1.23442
-1.6574
-2.1426
-2.68789
-3.26196
-3.79316
-4.29758
-4.63584
-4.52632
-8.37009
-8.99846
-10.2953
-11.0696
-11.1361
-10.7853
-9.98049
-8.79648
-7.31837
-5.62129
-3.77724
-1.84099
0.128899
2.08996
4.01087
5.86872
7.6435
9.3265
10.8959
12.3391
13.5338
14.3626
14.7695
14.6076
13.8401
12.3687
10.3662
8.13009
6.00637
4.22336
2.75667
1.79762
1.26401
1.14142
1.319
1.61371
2.26335
2.89483
4.11168
4.2607
4.4369
-0.595664
0.526982
0.167222
0.386606
0.35462
0.426967
0.451339
0.498448
0.539932
0.591773
0.648865
0.715595
0.79188
0.879201
0.975799
1.07608
1.16675
1.22382
1.21445
1.12024
0.962771
0.774357
0.57201
0.368993
0.16637
-0.0485038
-0.290457
-0.571764
-0.902428
-1.29093
-1.74441
-2.26777
-2.85915
-3.49368
-4.11822
-4.73635
-5.16967
-5.17103
-9.3092
-9.73338
-10.9855
-11.801
-11.8464
-11.4469
-10.57
-9.29529
-7.7136
-5.90951
-3.95827
-1.91654
0.154001
2.20994
4.21945
6.15953
8.01149
9.76853
11.4099
12.9223
14.1831
15.0686
15.5172
15.3739
14.5796
13.0209
10.8723
8.47632
6.21738
4.33059
2.79478
1.80687
1.29657
1.20951
1.42645
1.76128
2.4231
3.08812
4.28471
4.54498
4.55293
-0.503552
0.453955
0.156151
0.364771
0.343062
0.417188
0.447022
0.498759
0.546438
0.605144
0.670205
0.745739
0.831822
0.930003
1.03847
1.1508
1.25099
1.30916
1.28852
1.17991
1.01187
0.810628
0.597845
0.390119
0.183288
-0.038356
-0.290263
-0.585303
-0.934474
-1.3475
-1.83277
-2.39613
-3.03676
-3.73626
-4.45693
-5.19089
-5.77585
-6.15172
-10.2362
-10.5399
-11.7034
-12.5624
-12.5859
-12.1335
-11.1813
-9.81088
-8.12022
-6.20441
-4.14208
-1.99215
0.180565
2.33202
4.43
6.45154
8.37969
10.2098
11.9226
13.5037
14.8317
15.7755
16.2684
16.1475
15.3239
13.6716
11.3643
8.7986
6.40053
4.40921
2.8055
1.79448
1.31643
1.27289
1.53301
1.9098
2.58123
3.2761
4.45077
4.75731
4.69806
-0.402468
0.379078
0.148147
0.34273
0.332686
0.408138
0.44385
0.500404
0.554723
0.620779
0.694408
0.779409
0.876061
0.985987
1.10723
1.23207
1.34029
1.3946
1.35866
1.23626
1.05523
0.840333
0.621561
0.412339
0.202262
-0.0259237
-0.287863
-0.596994
-0.965305
-1.40375
-1.92201
-2.5271
-3.21993
-3.9885
-4.80786
-5.66399
-6.45998
-7.40315
-11.0812
-11.412
-12.4503
-13.3557
-13.3564
-12.8458
-11.815
-10.3442
-8.53905
-6.50673
-4.32907
-2.06783
0.208794
2.45649
4.64279
6.745
8.74826
10.6504
12.4337
14.0832
15.4791
16.483
17.0227
16.9294
16.0738
14.3184
11.8375
9.09134
6.55057
4.45442
2.78431
1.75703
1.32163
1.33039
1.63782
2.0586
2.73711
3.45808
4.61529
5.01454
4.83052
-0.304151
0.307433
0.142787
0.320958
0.323637
0.400084
0.442143
0.503774
0.565249
0.639216
0.722085
0.817284
0.92533
1.04791
1.18271
1.31985
1.43266
1.47666
1.42357
1.28717
1.09017
0.864929
0.645502
0.436776
0.223836
-0.0108682
-0.283016
-0.60662
-0.99466
-1.45932
-2.01166
-2.66014
-3.40796
-4.24932
-5.16969
-6.15601
-7.20889
-8.80678
-11.765
-12.3308
-13.2295
-14.1831
-14.1605
-13.5842
-12.4718
-10.8961
-8.97076
-6.81709
-4.51968
-2.14365
0.238878
2.58363
4.85814
7.04019
9.11737
11.0903
12.9432
14.6605
16.125
17.1906
17.7797
17.7205
16.8297
14.9581
12.2858
9.34792
6.66133
4.46063
2.72597
1.69066
1.31011
1.38085
1.74006
2.20676
2.89031
3.63228
4.76767
5.23967
4.99652
-0.215201
0.241336
0.139527
0.299903
0.316086
0.39334
0.442242
0.509276
0.578484
0.660988
0.753829
0.860002
0.98029
1.11638
1.26523
1.41315
1.52459
1.55236
1.48236
1.32949
1.11649
0.887577
0.671599
0.464142
0.248343
0.00700048
-0.275583
-0.614021
-1.0223
-1.51388
-2.1013
-2.79477
-3.6002
-4.5177
-5.54122
-6.66503
-7.99332
-10.2032
-12.2576
-13.284
-14.045
-15.0468
-15.0013
-14.3499
-13.1519
-11.467
-9.41592
-7.13601
-4.7143
-2.21975
0.270987
2.71378
5.07638
7.33738
9.48719
11.5296
13.4509
15.2352
16.769
17.8978
18.5388
18.5212
17.5913
15.5868
12.7022
9.56027
6.72536
4.42117
2.6243
1.59096
1.27967
1.42318
1.83885
2.35202
3.0403
3.79803
4.90762
5.42094
5.17188
-0.137307
0.181191
0.137937
0.279995
0.310227
0.388232
0.444482
0.517296
0.594864
0.686587
0.790172
0.908118
1.04148
1.19182
1.35453
1.50954
1.61172
1.62022
1.53328
1.36093
1.13707
0.911523
0.700995
0.494772
0.275909
0.0277436
-0.265493
-0.619057
-1.04798
-1.56708
-2.19051
-2.93051
-3.79601
-4.79265
-5.92121
-7.1874
-8.77957
-11.4309
-12.5731
-14.2643
-14.9034
-15.948
-15.8826
-15.1447
-13.8557
-12.0572
-9.87486
-7.46385
-4.91324
-2.29625
0.305265
2.84723
5.29784
7.63684
9.85791
11.9684
13.9569
15.8072
17.4108
18.604
19.2992
19.332
18.358
16.199
13.0774
9.71764
6.73311
4.3277
2.47179
1.45283
1.22798
1.45633
1.93357
2.49206
3.18648
3.95495
5.03599
5.61117
5.33384
-0.069318
0.126411
0.137796
0.261618
0.306266
0.385068
0.449161
0.528176
0.614762
0.716427
0.831551
0.962065
1.10928
1.2743
1.44939
1.60499
1.69045
1.67986
1.57354
1.3823
1.15637
0.938925
0.734125
0.528715
0.306508
0.0513515
-0.252683
-0.621557
-1.07141
-1.61851
-2.27883
-3.06682
-3.9947
-5.07304
-6.30819
-7.71846
-9.53658
-12.3921
-12.833
-15.2878
-15.8123
-16.8856
-16.8066
-15.9713
-14.5839
-12.6667
-10.3477
-7.8008
-5.11668
-2.37324
0.341845
2.98433
5.52288
7.93886
10.2297
12.4066
14.4609
16.3762
18.05
19.3085
20.0604
20.1533
19.129
16.7874
13.4
9.81452
6.67226
4.16938
2.25908
1.27021
1.15255
1.47937
2.0242
2.62685
3.32894
4.10301
5.15193
5.77192
5.52931
-0.0093139
0.0763596
0.139014
0.245099
0.304376
0.38411
0.456516
0.542183
0.638467
0.750822
0.878285
1.02213
1.18385
1.36337
1.5472
1.69453
1.75942
1.73022
1.6013
1.39778
1.17826
0.970653
0.770958
0.565835
0.340046
0.0778252
-0.23703
-0.621263
-1.09221
-1.66772
-2.36571
-3.2031
-4.19542
-5.35756
-6.70014
-8.25242
-10.2475
-13.1035
-13.1716
-16.3569
-16.7856
-17.862
-17.7751
-16.8317
-15.3376
-13.2954
-10.8342
-8.14689
-5.32464
-2.45072
0.380879
3.12542
5.75188
8.24377
10.6027
12.8444
14.9629
16.9419
18.686
20.0107
20.8214
20.9858
19.9036
17.3402
13.6803
9.85263
6.53364
3.93165
1.97413
1.03579
1.05063
1.49155
2.11091
2.7574
3.46793
4.24318
5.2598
5.91077
5.71763
0.0443213
0.0306027
0.141561
0.230697
0.304687
0.385554
0.466708
0.559499
0.666168
0.789977
0.930569
1.08846
1.26506
1.45774
1.64365
1.77424
1.81906
1.76893
1.61811
1.41281
1.20481
1.0067
0.811222
0.605939
0.37647
0.107257
-0.218295
-0.617801
-1.1099
-1.71414
-2.45054
-3.33861
-4.39713
-5.64454
-7.09431
-8.78297
-10.907
-13.6551
-13.665
-17.4699
-17.8188
-18.8759
-18.7907
-17.7284
-16.1184
-13.9436
-11.3341
-8.50193
-5.53699
-2.52853
0.42258
3.27087
5.98529
8.55187
10.9772
13.2817
15.4628
17.5039
19.3184
20.7096
21.5813
21.8302
20.6822
17.8178
13.945
9.84113
6.31907
3.59912
1.60077
0.74043
0.91915
1.49226
2.19403
2.88413
3.60375
4.37662
5.3646
6.05448
5.93208
0.0927866
-0.0111172
0.145447
0.218615
0.307281
0.389538
0.479827
0.580225
0.697963
0.833997
0.988483
1.16102
1.35236
1.55479
1.7335
1.84309
1.86914
1.79433
1.62903
1.43153
1.23643
1.04664
0.854596
0.648906
0.415849
0.139885
-0.196095
-0.610676
-1.12389
-1.75712
-2.5326
-3.47249
-4.59859
-5.93185
-7.48695
-9.30251
-11.5152
-14.1515
-14.4243
-18.5323
-18.8952
-19.9188
-19.8531
-18.6642
-16.9279
-14.6121
-11.8469
-8.86545
-5.75344
-2.60641
0.467262
3.42109
6.22356
8.86355
11.3534
13.7187
15.9605
18.062
19.9468
21.4044
22.3391
22.6872
21.4753
18.2118
14.1981
9.78646
6.03027
3.16661
1.12154
0.372243
0.754598
1.48113
2.27421
3.00754
3.73584
4.50458
5.4706
6.18973
6.13238
0.136929
-0.0488846
0.150669
0.209021
0.312208
0.396153
0.495907
0.604393
0.73387
0.882894
1.05199
1.23955
1.4445
1.65021
1.81271
1.90239
1.90752
1.80823
1.64008
1.45573
1.27269
1.09001
0.900868
0.694782
0.458431
0.176114
-0.169911
-0.599283
-1.13353
-1.79595
-2.61109
-3.60373
-4.79826
-6.21682
-7.87317
-9.80203
-12.0702
-14.6242
-15.4192
-19.4743
-20.0015
-20.9827
-20.9553
-19.6393
-17.7675
-15.3017
-12.3724
-9.23686
-5.97351
-2.68396
0.515346
3.57658
6.46725
9.17923
11.7314
14.1554
16.4561
18.616
20.5708
22.094
23.094
23.5555
22.2756
18.5859
14.3928
9.68026
5.66285
2.63348
0.523661
-0.0826187
0.55249
1.45798
2.35245
3.12839
3.86161
4.62769
5.58156
6.33913
6.35694
0.177254
-0.0826418
0.157241
0.202076
0.319503
0.405464
0.514935
0.631976
0.77383
0.936589
1.12091
1.32347
1.53897
1.73872
1.88063
1.95262
1.93233
1.8161
1.6555
1.48544
1.31295
1.13647
0.950035
0.743823
0.504647
0.216484
-0.139126
-0.582955
-1.1381
-1.82986
-2.68514
-3.7312
-4.99432
-6.49618
-8.24698
-10.2721
-12.5733
-15.0984
-16.5799
-20.2214
-21.1229
-22.0613
-22.0864
-20.6517
-18.6378
-16.0133
-12.9109
-9.61556
-6.1965
-2.76061
0.567362
3.73793
6.71696
9.49941
12.1115
14.5918
16.9493
19.1656
21.1897
22.7772
23.845
24.433
22.9644
19.0408
14.5217
9.51913
5.21397
1.99255
-0.205405
-0.638249
0.307536
1.42284
2.43025
3.24798
3.97903
4.74611
5.69495
6.48042
6.62199
0.214021
-0.112186
0.165186
0.197952
0.329195
0.417509
0.536855
0.662876
0.817701
0.994905
1.19492
1.41161
1.63166
1.81628
1.93932
1.9917
1.9452
1.82431
1.67684
1.51996
1.3567
1.18592
1.00234
0.796484
0.555065
0.26163
-0.103072
-0.561002
-1.13689
-1.85809
-2.75385
-3.85361
-5.18461
-6.76594
-8.60154
-10.7047
-13.0298
-15.5843
-17.7853
-20.6844
-22.2486
-23.1598
-23.24
-21.6962
-19.5372
-16.7469
-13.4626
-10.0011
-6.42164
-2.83566
0.623952
3.90579
6.9734
9.82468
12.4941
15.0281
17.4403
19.7106
21.8032
23.4527
24.5916
25.3374
23.4145
19.573
14.5946
9.30452
4.67992
1.23779
-1.07938
-1.30893
0.0137297
1.37591
2.50977
3.36793
4.0889
4.86039
5.81105
6.61543
6.86551
0.247269
-0.137148
0.174541
0.19683
0.341299
0.432285
0.561544
0.696917
0.865253
1.05755
1.27343
1.50168
1.71739
1.88255
1.98987
2.01721
1.9517
1.83716
1.70389
1.55863
1.40373
1.23857
1.05827
0.853361
0.610334
0.312211
-0.061089
-0.532764
-1.12922
-1.87992
-2.81631
-3.96958
-5.36661
-7.0215
-8.93009
-11.0952
-13.4474
-16.0682
-18.8568
-20.8543
-23.4012
-24.2973
-24.4141
-22.7656
-20.4622
-17.5015
-14.0273
-10.3932
-6.6481
-2.90823
0.685892
4.0809
7.23733
10.1557
12.8795
15.4643
17.929
20.2508
22.4109
24.1194
25.3346
26.3717
23.7099
20.051
14.6093
9.03623
4.05784
0.372125
-2.10764
-2.10634
-0.334742
1.31763
2.59408
3.49022
4.19192
4.9698
5.92985
6.75447
7.12709
0.276806
-0.15706
0.185338
0.198875
0.355792
0.449729
0.588805
0.733837
0.916162
1.12412
1.35536
1.58985
1.79221
1.94024
2.03
2.03031
1.95843
1.8561
1.7359
1.60105
1.45414
1.29488
1.11841
0.915113
0.671103
0.368855
-0.0125768
-0.497659
-1.11452
-1.89467
-2.87162
-4.07761
-5.53741
-7.25796
-9.22746
-11.4436
-13.833
-16.5256
-19.6453
-20.9269
-24.6377
-25.4996
-25.6129
-23.8575
-21.4086
-18.2745
-14.6046
-10.7917
-6.8752
-2.97735
0.754099
4.26407
7.50952
10.4933
13.2683
15.9008
18.4154
20.7861
23.0123
24.7757
26.0614
27.5813
24.0107
20.4178
14.5762
8.7142
3.35215
-0.598884
-3.29339
-3.03701
-0.741317
1.24912
2.68732
3.61751
4.28766
5.07184
6.0504
6.88508
7.39777
0.302307
-0.17141
0.197579
0.204199
0.372595
0.4697
0.618362
0.773285
0.970016
1.194
1.43868
1.6712
1.85605
1.99082
2.0566
2.03655
1.96984
1.88083
1.7723
1.64718
1.50833
1.35545
1.18345
0.982378
0.737962
0.432097
0.0429547
-0.455227
-1.09231
-1.90181
-2.91896
-4.17604
-5.69375
-7.4709
-9.49155
-11.754
-14.1933
-16.95
-20.1819
-21.2175
-25.9744
-26.7951
-26.8427
-24.974
-22.3748
-19.0633
-15.1927
-11.1959
-7.10229
-3.04204
0.829622
4.4562
7.79079
10.8382
13.6612
16.3378
18.8997
21.3165
23.6067
25.4201
26.7375
28.7206
24.4692
20.7192
14.5113
8.34033
2.57122
-1.67381
-4.63003
-4.10081
-1.20563
1.17301
2.7951
3.75344
4.37599
5.16428
6.17254
7.00826
7.65516
0.323376
-0.179766
0.211224
0.212841
0.391565
0.491984
0.649864
0.814837
1.02631
1.26623
1.51995
1.74194
1.9121
2.03175
2.07028
2.04278
1.98735
1.91065
1.81286
1.6973
1.56686
1.42093
1.25399
1.05571
0.811387
0.502341
0.105844
-0.405176
-1.0623
-1.90095
-2.95756
-4.26304
-5.83231
-7.65761
-9.72395
-12.0336
-14.5346
-17.356
-20.6514
-21.9873
-27.2743
-28.1997
-28.108
-26.1171
-23.3606
-19.8651
-15.7896
-11.6049
-7.3287
-3.10135
0.913601
4.65834
8.08194
11.1912
14.0588
16.7759
19.3822
21.8422
24.1931
26.0541
27.3383
29.5067
25.0296
20.9518
14.4231
7.91997
1.72619
-2.84496
-6.1021
-5.29148
-1.72288
1.09443
2.92521
3.90304
4.45743
5.24747
6.29659