/*--------------------------------*- C++ -*----------------------------------*\
| =========                 |                                                 |
| \\      /  F ield         | OpenFOAM: The Open Source CFD Toolbox           |
|  \\    /   O peration     | Version:  4.1                                   |
|   \\  /    A nd           | Web:      www.OpenFOAM.org                      |
|    \\/     M anipulation  |                                                 |
\*---------------------------------------------------------------------------*/
FoamFile
{
    version     2.0;
    format      ascii;
    class       surfaceScalarField;
    location    "24";
    object      phi;
}
// * * * * * * * * * * * * * * * * * * * * * * * * * * * * * * * * * * * * * //

dimensions      [0 3 -1 0 0 0 0];

internalField   nonuniform List<scalar> 
13220
(
-794.715
2094.61
-1245.65
1751.13
-1707.08
1761.33
-2047.66
1640.48
-2327.62
1580.16
-2530.62
1502.9
-2665.03
1434.31
-2730.62
1365.79
-2731.43
1300.71
-2663.59
1232.07
-2511.16
1147.77
-2233.24
1021.98
-1747.75
814.41
-984.776
537.219
315.124
-223.246
2317.86
-497.584
2025.47
-796.662
2060.4
-1038.1
1881.92
-1270.38
1812.44
-1458.45
1690.97
-1620.22
1596.08
-1748.61
1494.17
-1848.71
1400.81
-1910.53
1293.89
-1898.24
1135.47
-1726.33
850.072
-1264.55
352.632
-575.141
-152.197
-260.017
-134.386
2452.24
-337.683
2228.76
-476.545
2199.26
-559.301
1964.67
-627.91
1881.05
-653.783
1716.84
-656.678
1598.97
-629.893
1467.39
-577.087
1348
-500.788
1217.58
-409.888
1044.57
-314.473
754.649
-211.068
249.211
-164.445
-198.837
-424.462
107.535
2344.71
80.4998
2255.8
121.667
2158.1
183.475
1902.86
253.261
1811.26
337.86
1632.24
434.778
1502.05
544.51
1357.65
664.728
1227.78
784.304
1098.01
875.385
953.487
862.571
767.464
615.514
496.268
169.017
247.66
-255.445
139.5
2205.21
168.862
2226.43
239.736
2087.22
317.072
1825.53
396.849
1731.48
482.882
1546.21
566.261
1418.67
645.841
1278.07
717.928
1155.7
778.381
1037.55
811.774
920.095
778.01
801.225
616.332
657.942
358.63
505.356
103.185
67.2354
2137.97
124.354
2169.31
184.952
2026.62
241.718
1768.76
298.102
1675.09
364.071
1480.24
442.293
1340.45
557.56
1162.81
694.179
1019.08
818.735
912.996
881.399
857.431
845.83
836.798
674.334
829.443
396.494
783.204
499.679
-49.3236
2187.29
-31.5873
2151.58
-33.9069
2028.94
-76.1294
1810.98
-121.439
1720.4
-176.002
1534.8
-183.922
1348.37
-100.648
1079.53
68.337
850.092
285.713
695.62
489.8
653.345
596.031
730.563
530.528
894.943
310.155
1003.57
809.834
-131.105
2318.4
-303.173
2323.64
-445.619
2171.39
-631.157
1996.52
-827.384
1916.63
-1045.26
1752.68
-1244.11
1547.22
-1394.62
1230.04
-1470.6
926.072
-1440.68
665.701
-1266.31
478.98
-935.999
400.253
-518.004
476.954
-162.115
647.691
647.719
94.3367
2224.06
-136.081
2554.06
-307.983
2343.29
-450.572
2139.11
-580.826
2046.89
-724.475
1896.33
-900.997
1723.74
-1128.43
1457.48
-1380.95
1178.59
-1612.8
897.545
-1749.72
615.904
-1677.53
328.062
-1291.99
91.4109
-624.957
-19.3479
22.762
388.494
1835.57
338.092
2604.47
249.042
2432.34
232.648
2155.51
272.77
2006.77
316.147
1852.95
333.556
1706.33
277.319
1513.71
154.248
1301.67
-18.3673
1070.16
-217.469
815.007
-412.374
522.976
-507.816
186.861
-404.81
-122.346
-382.048
410.371
1425.2
512.637
2502.2
527.431
2417.55
589.209
2093.73
708.876
1887.1
842.816
1719.01
971.402
1577.75
1061.28
1423.84
1101.07
1261.88
1079.55
1091.68
984.186
910.37
789.279
717.882
483.034
493.106
123.619
237.069
-258.429
227.941
1197.26
330.185
2399.96
383.313
2364.42
437.812
2039.23
512.271
1812.64
591.351
1639.94
667.687
1501.42
726.308
1365.22
759.871
1228.32
760.825
1090.73
722.229
948.967
636.681
803.434
491.529
638.264
284.083
444.527
25.654
133.935
1063.33
240.989
2292.9
332.937
2272.47
430.991
1941.18
536.401
1707.23
626.945
1549.39
694.427
1433.93
734.635
1325.01
743.649
1219.3
720.794
1113.58
664.716
1005.05
574.053
894.098
443.296
769.022
261.916
625.909
287.57
215.284
848.045
368.335
2139.85
371.548
2269.26
302.817
2009.91
251.849
1758.2
228.748
1572.5
231.9
1430.78
256.8
1300.11
298.744
1177.36
354.506
1057.82
415.77
943.782
452.23
857.638
403.976
817.277
246.606
783.28
534.177
332.489
1277.66
2066.9
2435.43
2498.31
2466.1
2304.92
2070.81
1817.73
1562.89
1282.95
1000.27
715.917
388.851
-5.26212e-07
-284.565
284.565
-284.565
-284.565
-284.565
270.322
-554.887
270.322
270.322
270.322
756.489
-486.167
756.489
756.489
1150.01
-393.521
1150.01
1150.01
1150.01
1443.36
-293.348
1443.36
1443.36
1637.94
-194.579
1637.94
1637.94
1637.94
1747.45
-109.512
1747.45
1747.45
1747.45
1780.12
-32.6705
1780.12
1780.12
1737.51
42.6069
1737.51
1737.51
1737.51
1628.65
108.861
1628.65
1628.65
1457.7
170.951
1457.7
1457.7
1457.7
1243.86
213.845
1243.86
1243.86
1243.86
1083.36
160.492
1083.36
1083.36
940.682
142.683
940.682
940.682
940.682
687.054
253.627
687.054
687.054
687.054
332.448
354.606
332.448
332.448
-38.7353
371.183
-38.7352
-38.7353
-38.7352
-695.772
657.036
-695.772
-695.772
-1954.21
1258.44
-1954.21
-1954.21
-1954.21
-3688.49
1734.28
-3688.49
-3688.49
-3688.49
-5706.99
2018.5
-5706.99
-5706.99
-7919.01
2212.02
-7919.01
-7919.01
-7747.04
-7577.4
-7407.2
-9585.48
2350.32
-9406.86
-9209.79
-9002.55
-8794.21
-8584.65
-8373.89
-8166.57
-7962.77
-10248.5
2485.57
-10037.7
-9826.92
-9616.36
-9406.55
-9193.52
-8978.18
-8761.94
-8544.65
-10840.5
2510.19
-10610.5
-10378.8
-10146.4
-9914.28
-9677.26
-9430.06
-9181.7
-8931.48
-8680.63
-10831
2387.75
-10566.2
-10299.6
-10031.7
-9762.83
-9492.45
-9207.85
-8914.72
-8620.89
-10552
2208.89
-10264.2
-9970.6
-9667.44
-9367.1
-9068.89
-8773.67
-8479.78
-8168.46
-9512.21
1640.97
-9212.25
-8913.9
-8615.4
-8301.21
-7980.05
-7659.81
-7339.2
-7021.03
-7882
1177
-7558.27
-7244.14
-6938.18
-6642.15
-6356.57
-6064.03
-5782.04
-5507.89
-5241.99
-4753.19
-210.493
-4509.61
-4280.3
-4053.1
-3829.81
-3610.11
-3432.79
-3336.54
-3239.49
-2683.42
-453.47
-2593.55
-2508.14
-2508.14
-2135.96
-372.175
-1730.26
-405.702
-1730.26
-1345.29
-384.968
-1345.29
-965.984
-379.306
-624.876
-341.109
-624.876
-291.28
-333.596
-18.9688
-272.311
-18.9689
227.927
-246.896
227.927
423.744
-195.817
597.411
-173.667
597.411
741.545
-144.134
741.545
854.194
-112.649
944.334
-90.1404
944.334
1022.23
-77.8971
1075.6
-53.3685
1075.6
1114.34
-38.7439
1114.34
1143.4
-29.059
1149.81
-6.409
1149.81
1151.06
-1.24587
1151.06
1146.9
4.16256
1126.59
20.3084
1126.59
1107.31
19.2752
1081.61
25.7048
1081.61
1064.81
16.7996
1064.81
1053.56
11.2453
1045.19
8.37605
1045.19
1044.04
1.14459
1044.04
1050.17
-6.12412
1057.84
-7.67376
1057.84
1075.06
-17.2175
1084.43
-9.36994
1084.43
1111.26
-26.8367
1111.26
1148.26
-37.0018
1163.43
-15.1634
1163.43
1204.73
-41.2969
1204.73
1227.24
-22.5128
1244.93
-17.6903
1244.93
1266.18
-21.2556
1280.6
-14.4155
1280.6
1303.77
-23.1744
1303.77
1317.43
-13.6605
1329.98
-12.5448
1329.98
1352.03
-22.0465
1352.03
1370.89
-18.8631
1390.28
-19.3943
1390.28
1420.93
-30.6516
1448.6
-27.6697
1448.6
1494.02
-45.4163
1494.02
-48.0875
-255.105
-864.296
-258.289
-997.913
-262.362
-1024.39
-267.213
-1093.06
-272.791
-1134.44
-279.698
-1186.54
-289.054
-1228.68
-303.624
-1267.63
-327.507
-1293.18
-365.465
-1301.92
-420.415
-1290.17
-490.981
-1262.24
-570.71
-1228.28
-650.146
-1201
-720.336
-1189.73
-775.554
-1197.45
-814.001
-1221.25
-836.865
-1254.93
-846.839
-1291.6
-846.934
-1325.43
-839.852
-1352.5
-827.783
-1371.23
-812.405
-1382.36
-794.948
-1388.3
-776.312
-1391.82
-757.254
-1394.34
-738.625
-1394.66
-721.551
-1388.6
-707.537
-1369.32
-698.632
-1329.99
-696.524
-1272.01
-694.788
-1192.16
-666.352
-966.042
-601.712
-304.171
-552.55
533.854
-527.528
927.871
-505.609
1148.55
-484.021
1369.07
-463.049
1609.39
-442.461
1859.45
-421.974
2113.21
-401.667
2363.85
-381.496
2605.98
-361.125
2836.47
-340.312
3051.23
-319.172
3246.33
-297.843
3421.69
-276.215
3579.25
-254.036
3719.33
-231.191
3839.8
-207.641
3939.07
-183.425
4015.38
-158.671
4068.37
-133.202
4099.59
-107.154
4101.08
-80.9157
4071.23
-54.8497
4015.15
-29.008
3912.28
-5.88888
3664.6
13.4097
3318.95
28.1346
2879.85
37.9482
2363.25
44.6946
1914.42
49.2284
1527.22
52.5669
1204.13
55.3258
954.928
57.6873
759.182
60.066
657.901
61.8895
558.072
64.2318
535.583
64.8754
370.13
69.5375
248.357
81.6482
165.391
80.6462
-351.967
47.2165
-1447.42
29.0226
-2130.29
7.41853
-2706.55
19.1321
-2789.5
1001.32
-268.609
-862.159
-271.423
-995.099
-275.755
-1020.05
-280.973
-1087.84
-287.406
-1128.01
-296.512
-1177.44
-310.914
-1214.28
-335.556
-1242.99
-376.094
-1252.64
-436.483
-1241.53
-515.166
-1211.49
-603.886
-1173.52
-690.412
-1141.75
-763.74
-1127.67
-817.872
-1135.6
-852.239
-1163.08
-869.724
-1203.76
-874.323
-1250.33
-869.665
-1296.26
-858.521
-1336.57
-842.894
-1368.12
-824.28
-1389.85
-803.885
-1402.76
-782.739
-1409.45
-761.792
-1412.77
-742.067
-1414.07
-724.86
-1411.86
-711.8
-1401.66
-704.707
-1376.42
-705.456
-1329.24
-715.132
-1262.33
-725.921
-1181.37
-701.921
-990.042
-612.974
-393.118
-542.655
463.535
-518.733
903.949
-499.824
1129.64
-478.627
1347.87
-458.304
1589.07
-438.647
1839.79
-419.056
2093.62
-399.551
2344.35
-380.028
2586.46
-360.165
2816.6
-339.763
3030.83
-318.948
3225.52
-297.869
3400.61
-276.424
3557.81
-254.377
3697.28
-231.628
3817.05
-208.146
3915.59
-183.982
3991.21
-159.269
4043.65
-133.828
4074.15
-107.802
4075.05
-81.586
4045.02
-55.5347
3989.1
-29.631
3886.37
-6.35688
3641.32
13.2172
3299.37
28.3762
2864.69
38.7572
2352.87
46.2386
1906.94
51.5935
1521.86
55.7214
1200
59.0867
951.562
61.6716
756.597
64.182
655.39
65.6069
556.647
68.0421
533.148
67.5288
370.644
71.5609
244.325
86.6189
150.333
88.1641
-353.512
51.0484
-1410.31
31.1687
-2110.41
9.03339
-2684.42
17.9081
-2798.38
973.812
-276.278
-859.734
-278.77
-992.607
-283.326
-1015.5
-288.987
-1082.18
-296.752
-1120.24
-309.179
-1165.01
-330.419
-1193.04
-366.556
-1206.85
-422.353
-1196.85
-497.874
-1166.01
-585.949
-1123.41
-674.438
-1085.03
-751.521
-1064.67
-810.218
-1068.98
-849.267
-1096.55
-871.198
-1141.15
-879.834
-1195.13
-878.684
-1251.48
-870.391
-1304.55
-856.817
-1350.14
-839.352
-1385.59
-819.196
-1410
-797.526
-1424.43
-775.556
-1431.42
-754.584
-1433.74
-736.101
-1432.55
-721.873
-1426.09
-713.818
-1409.71
-713.574
-1376.66
-722.138
-1320.67
-739.314
-1245.15
-757.057
-1163.63
-738.704
-1008.4
-638.322
-493.5
-539.775
364.988
-506.186
870.36
-490.726
1114.18
-471.47
1328.62
-451.783
1569.38
-433.122
1821.13
-414.754
2075.25
-396.417
2326.01
-377.87
2567.91
-358.792
2797.52
-339.025
3011.06
-318.722
3205.21
-298.039
3379.93
-276.885
3536.66
-255.047
3675.45
-232.446
3794.45
-209.066
3892.21
-184.977
3967.12
-160.313
4018.99
-134.903
4048.74
-108.894
4049.04
-82.6937
4018.82
-56.6224
3963.02
-30.6031
3860.35
-7.10147
3617.82
12.8532
3279.42
28.5939
2848.95
39.7515
2341.71
48.2212
1898.47
54.7264
1515.36
60.0239
1194.7
64.3551
947.231
67.5257
753.427
70.2252
652.691
71.4063
555.466
73.4816
531.073
72.0123
372.113
75.4709
240.866
91.1819
134.622
92.4948
-354.825
54.0447
-1371.86
32.3597
-2088.73
9.67393
-2661.73
7.08523
-2795.79
953.228
-285.423
-856.972
-287.648
-990.382
-292.61
-1010.54
-299.285
-1075.51
-309.751
-1109.77
-328.175
-1146.58
-360.249
-1160.97
-412.093
-1155.01
-485.358
-1123.58
-574.412
-1076.96
-667.014
-1030.81
-749.901
-1002.14
-814.325
-1000.25
-857.958
-1025.34
-883.133
-1071.37
-893.985
-1130.3
-894.43
-1194.68
-887.37
-1258.54
-874.719
-1317.2
-857.751
-1367.11
-837.479
-1405.86
-814.956
-1432.52
-791.437
-1447.95
-768.434
-1454.42
-747.734
-1454.44
-731.402
-1448.88
-721.665
-1435.83
-720.489
-1410.89
-728.846
-1368.3
-746.283
-1303.24
-771.049
-1220.39
-795.203
-1139.47
-782.92
-1020.68
-675.32
-601.1
-546.076
235.745
-495.075
819.359
-478.721
1097.82
-462.347
1312.24
-444.052
1551.09
-426.335
1803.41
-409.276
2058.19
-392.388
2309.12
-375.117
2550.64
-357.086
2779.49
-338.179
2992.15
-318.572
3185.61
-298.427
3359.78
-277.669
3515.9
-256.116
3653.89
-233.713
3772.05
-210.467
3868.96
-186.468
3943.12
-161.856
3994.38
-136.469
4023.36
-110.469
4023.04
-84.2666
3992.62
-58.1495
3936.91
-31.9838
3834.19
-8.20845
3594.05
12.196
3259.02
28.6341
2832.51
40.74
2329.6
50.4186
1888.79
58.3545
1507.42
65.1527
1187.9
70.7952
941.589
74.8478
749.374
77.9481
649.591
78.9336
554.48
80.6669
529.339
77.943
374.837
81.0534
237.756
97.3425
118.333
98.2565
-355.739
58.0375
-1331.64
33.5993
-2064.29
9.19329
-2637.33
0.6353
-2787.23
923.212
-294.444
-853.82
-296.495
-988.332
-302.242
-1004.79
-311.014
-1066.74
-326.462
-1094.33
-354.601
-1118.45
-401.77
-1113.8
-471.756
-1085.02
-560.508
-1034.83
-656.293
-981.174
-744.491
-942.611
-814.467
-932.167
-862.646
-952.067
-891.13
-996.858
-904.426
-1058.08
-906.913
-1127.81
-901.78
-1199.82
-890.985
-1269.33
-875.651
-1332.54
-856.519
-1386.24
-834.342
-1428.04
-810.166
-1456.7
-785.504
-1472.61
-762.381
-1477.54
-743.272
-1473.55
-730.899
-1461.25
-727.774
-1438.95
-735.399
-1403.27
-753.36
-1350.34
-779.147
-1277.45
-809.321
-1190.21
-837.01
-1111.78
-830.925
-1026.76
-724.008
-708.017
-564.122
75.8588
-487.653
742.89
-465.335
1075.51
-450.729
1297.64
-434.75
1535.11
-418.408
1787.07
-402.65
2042.44
-387.362
2293.84
-371.662
2534.94
-354.973
2762.8
-337.181
2974.36
-318.481
3166.91
-299.044
3340.35
-278.81
3495.66
-257.634
3632.72
-235.493
3749.91
-212.419
3845.89
-188.53
3919.24
-163.974
3969.82
-138.602
3997.98
-112.593
3997.03
-86.3665
3966.39
-60.1727
3910.71
-33.8133
3807.83
-9.70713
3569.94
11.2256
3238.08
28.4789
2815.26
41.6948
2316.39
52.7977
1877.69
62.4409
1497.78
71.0699
1179.28
78.3695
934.289
83.6101
744.134
87.3398
645.861
88.2283
553.592
89.6535
527.914
85.5559
378.934
87.6782
235.633
103.494
102.517
103.968
-356.213
62.4801
-1290.15
34.6196
-2036.43
7.73419
-2610.44
-12.2835
-2767.21
891.534
-303.759
-850.172
-305.906
-986.185
-313.283
-997.411
-326.133
-1053.89
-350.051
-1070.41
-392.413
-1076.08
-458.065
-1048.14
-545.492
-997.596
-643.737
-936.584
-737.265
-887.647
-813.277
-866.598
-866.567
-878.877
-898.736
-919.898
-914.622
-980.972
-919.155
-1053.54
-915.93
-1131.04
-907.07
-1208.68
-893.649
-1282.75
-876.199
-1349.99
-855.143
-1407.3
-831.164
-1452.02
-805.494
-1482.37
-780.117
-1497.98
-757.8
-1499.86
-741.859
-1489.49
-735.572
-1467.54
-741.246
-1433.28
-759.123
-1385.39
-786.669
-1322.8
-819.057
-1245.06
-851.529
-1157.74
-879.308
-1084.01
-878.701
-1027.37
-781.842
-804.876
-596.502
-109.482
-485.387
631.775
-452.169
1042.29
-437.04
1282.51
-423.383
1521.45
-409.219
1772.91
-394.998
2028.21
-381.322
2280.16
-367.377
2521
-352.318
2747.75
-335.912
2957.95
-318.348
3149.34
-299.805
3321.8
-280.243
3476.1
-259.555
3612.03
-237.754
3728.11
-214.904
3823.04
-191.154
3895.49
-166.663
3945.33
-141.302
3972.62
-115.269
3971
-88.997
3940.12
-62.6941
3884.41
-36.0964
3781.23
-11.6068
3545.45
9.92077
3216.56
28.0835
2797.09
42.5402
2301.93
55.2431
1864.99
66.8274
1486.19
77.5762
1168.53
86.8459
925.019
93.5729
737.407
98.1611
641.273
99.1006
552.652
100.248
526.767
94.9207
384.262
95.2057
235.348
109.759
87.9639
110.119
-356.573
67.4559
-1247.49
35.5343
-2004.51
5.31427
-2580.22
-23.2669
-2738.63
849.404
-313.448
-845.809
-316.322
-983.312
-326.949
-986.784
-347.059
-1033.78
-383.996
-1033.47
-444.737
-1015.34
-529.463
-963.42
-629.244
-897.815
-727.79
-838.038
-810.184
-805.253
-869.079
-807.704
-905.243
-842.713
-923.757
-901.384
-930.202
-974.527
-928.722
-1055.02
-921.731
-1138.03
-910.351
-1220.06
-894.976
-1298.13
-875.747
-1369.22
-852.937
-1430.11
-827.321
-1477.63
-800.512
-1509.18
-775.222
-1523.28
-755.197
-1519.89
-744.633
-1500.06
-746.976
-1465.2
-763.467
-1416.79
-792.139
-1356.72
-827.883
-1287.05
-863.892
-1209.05
-894.861
-1126.77
-918.829
-1060.04
-921.496
-1024.7
-840.172
-886.2
-639.573
-310.08
-489.133
481.334
-440.026
993.182
-422.236
1264.72
-409.829
1509.04
-398.348
1761.42
-386.285
2016.15
-374.326
2268.2
-362.189
2508.86
-348.983
2734.54
-334.242
2943.21
-318.062
3133.17
-300.619
3304.36
-281.897
3457.38
-261.826
3591.96
-240.46
3706.74
-217.899
3800.48
-194.327
3871.91
-169.92
3920.92
-144.571
3947.27
-118.503
3944.93
-92.1665
3913.78
-65.725
3857.97
-38.8507
3754.36
-13.9332
3520.53
8.24344
3194.38
27.3924
2777.95
43.2009
2286.12
57.657
1850.53
71.39
1472.46
84.5188
1155.4
96.0454
913.493
104.538
728.914
110.215
635.595
111.373
551.494
112.302
525.838
106.026
390.537
104.097
237.278
116.606
75.4554
116.701
-356.669
72.9039
-1203.69
36.3906
-1968
2.13567
-2545.97
-30.1959
-2706.3
797.162
-323.9
-840.266
-328.813
-978.399
-345.453
-970.143
-377.271
-1001.96
-431.972
-978.77
-512.992
-934.323
-612.919
-863.492
-715.976
-794.758
-804.934
-749.08
-870.004
-740.182
-910.616
-767.091
-931.929
-821.4
-940.214
-893.099
-940.294
-974.447
-934.991
-1060.33
-925.568
-1147.45
-912.371
-1233.25
-895.338
-1315.16
-874.401
-1390.15
-849.845
-1454.66
-822.715
-1504.76
-795.267
-1536.63
-771.246
-1547.3
-755.584
-1535.55
-753.14
-1502.5
-766.685
-1451.65
-795.207
-1388.27
-833.736
-1318.19
-874.778
-1246.01
-910.569
-1173.26
-936.248
-1101.09
-952.705
-1043.58
-955.154
-1022.26
-891.614
-949.74
-690.913
-510.781
-501.251
291.672
-429.201
921.132
-407.046
1242.56
-394.527
1496.53
-385.444
1752.34
-376.213
2006.92
-366.383
2258.37
-356.106
2498.58
-344.865
2723.3
-332.038
2930.39
-317.509
3118.64
-301.393
3288.24
-283.697
3439.68
-264.394
3572.66
-243.575
3685.92
-221.384
3778.29
-198.043
3848.57
-173.747
3896.63
-148.418
3921.94
-122.311
3918.82
-95.893
3887.36
-69.2859
3831.36
-42.0992
3727.17
-16.7129
3495.15
6.16176
3171.5
26.3644
2757.74
43.6239
2268.86
59.9757
1834.18
76.0526
1456.38
91.8049
1139.65
105.854
899.444
116.367
718.4
123.353
628.609
124.902
549.945
125.681
525.06
118.774
397.444
114.765
241.287
124.665
65.5558
123.887
-355.891
78.8371
-1158.64
37.2372
-1926.4
-1.91134
-2506.82
-45.6246
-2662.59
738.992
-335.887
-832.623
-345.252
-969.034
-372.033
-943.362
-420.686
-953.306
-496.304
-903.153
-595.187
-835.44
-701.745
-756.934
-797.332
-699.171
-869.119
-677.293
-914.76
-694.541
-939.15
-742.701
-949.256
-811.294
-950.686
-891.669
-946.794
-978.338
-939.088
-1068.03
-927.947
-1158.59
-913.2
-1248
-894.533
-1333.83
-871.815
-1412.87
-845.489
-1480.99
-817.097
-1533.16
-789.865
-1563.86
-768.912
-1568.25
-760.39
-1544.07
-769.151
-1493.74
-795.935
-1424.87
-836.237
-1347.97
-881.915
-1272.51
-924.128
-1203.8
-955.641
-1141.75
-972.913
-1083.82
-978.984
-1037.51
-976.892
-1024.35
-930.352
-996.28
-750.135
-690.997
-527.175
68.7116
-420.78
814.736
-391.579
1213.36
-378.154
1483.1
-370.543
1744.73
-364.373
2000.75
-357.323
2251.32
-349.157
2490.42
-339.932
2714.07
-329.184
2919.64
-316.564
3106.02
-302.021
3273.7
-285.556
3423.22
-267.19
3554.29
-247.053
3665.78
-225.33
3756.56
-202.287
3825.53
-178.14
3872.48
-152.848
3896.65
-126.703
3892.68
-100.192
3860.85
-73.3948
3804.56
-45.8623
3699.64
-19.9686
3469.25
3.64919
3147.89
24.9641
2736.43
43.7634
2250.06
62.1448
1815.8
80.7516
1437.78
99.3568
1121.04
116.171
882.63
128.935
705.636
137.425
620.119
139.531
547.839
140.22
524.371
132.955
404.709
127.239
247.003
134.142
58.6529
131.683
-353.433
85.2668
-1112.22
38.3368
-1879.47
-6.30612
-2462.17
-56.3921
-2612.5
668.939
-350.856
-821.225
-368.582
-951.308
-410.707
-901.237
-480.436
-883.576
-576.218
-807.371
-685.308
-726.35
-787.156
-655.086
-866.193
-620.134
-917.496
-625.99
-945.376
-666.662
-957.374
-730.703
-959.992
-808.676
-957.231
-894.431
-950.936
-984.633
-941.597
-1077.37
-929.015
-1171.17
-912.725
-1264.29
-892.301
-1354.25
-867.67
-1437.5
-839.611
-1509.05
-810.463
-1562.3
-784.835
-1589.49
-769.516
-1583.57
-771.533
-1542.05
-794.403
-1470.87
-835.123
-1384.15
-884.947
-1298.14
-933.427
-1224.03
-972.107
-1165.12
-995.72
-1118.13
-1002.52
-1077.02
-996.589
-1043.44
-985.803
-1035.13
-950.718
-1031.37
-807.027
-834.687
-567.141
-171.175
-416.993
664.588
-375.703
1172.07
-361.078
1468.47
-354.031
1737.68
-350.517
1997.24
-346.79
2247.59
-341.271
2484.9
-334.205
2707.01
-325.613
2911.05
-315.103
3095.51
-302.386
3260.98
-287.38
3408.21
-270.139
3537.05
-250.834
3646.48
-229.697
3735.43
-207.033
3802.87
-183.087
3848.53
-157.861
3871.43
-131.686
3866.5
-105.075
3834.24
-78.068
3777.56
-50.1599
3671.73
-23.7224
3442.82
0.678967
3123.48
23.156
2713.95
43.577
2229.64
64.1179
1795.26
85.4365
1416.46
107.116
1099.36
126.919
862.826
142.133
690.422
152.292
609.96
155.101
545.031
155.736
523.736
148.295
412.15
141.242
254.056
144.934
54.961
140.056
-348.555
92.1996
-1064.37
39.8116
-1827.08
-10.8668
-2411.5
-61.0448
-2562.32
584.72
-371.203
-803.409
-402.741
-919.769
-465.253
-838.725
-557.006
-791.823
-666.671
-697.706
-774.405
-618.617
-860.961
-568.529
-918.667
-562.428
-950.546
-594.111
-964.623
-652.584
-968.334
-726.992
-966.451
-810.559
-961.243
-899.639
-953.378
-992.499
-942.688
-1088.06
-928.651
-1185.21
-910.659
-1282.28
-888.277
-1376.64
-861.62
-1464.16
-832.038
-1538.63
-803.074
-1591.27
-781.191
-1611.37
-774.917
-1589.84
-791.142
-1525.83
-830.013
-1432
-883.234
-1330.93
-938.225
-1243.15
-984.184
-1178.07
-1014.89
-1134.41
-1027.89
-1105.13
-1023.2
-1081.72
-1004.93
-1061.71
-982.604
-1057.46
-950.422
-1063.55
-841.615
-943.494
-607.734
-405.056
-419.89
476.744
-359.927
1112.11
-343.23
1451.78
-336.357
1730.81
-334.73
1995.61
-334.414
2247.27
-332.197
2482.68
-327.672
2702.48
-321.32
2904.69
-313.037
3087.22
-302.371
3250.32
-289.063
3394.91
-273.154
3521.14
-254.853
3628.18
-234.436
3715.01
-212.251
3780.68
-188.573
3824.86
-163.451
3846.3
-137.264
3840.32
-110.556
3807.53
-83.322
3750.32
-55.0127
3643.42
-27.9986
3415.8
-2.77744
3098.26
20.9077
2690.27
43.0288
2207.52
65.8584
1772.43
90.0741
1392.24
115.047
1074.39
138.048
839.825
155.881
672.589
167.838
598.003
171.46
541.409
172.05
523.146
164.505
419.695
156.353
262.208
156.748
54.5663
148.909
-340.716
99.6148
-1015.07
41.7654
-1769.23
-15.6114
-2354.12
-76.0267
-2501.91
494.278
-400.371
-775.468
-451.927
-868.213
-537.402
-753.25
-646.609
-682.616
-758.888
-585.427
-853.289
-524.215
-918.044
-503.775
-954.587
-525.885
-971.019
-577.679
-975.808
-647.796
-974.597
-728.203
-970.176
-814.979
-963.44
-906.375
-954.303
-1001.64
-942.239
-1100.13
-926.569
-1200.88
-906.64
-1302.21
-882.092
-1401.18
-853.398
-1492.85
-822.817
-1569.21
-795.628
-1618.46
-780.574
-1626.43
-787.462
-1582.95
-821.082
-1492.21
-875.812
-1377.27
-937.53
-1269.21
-991.786
-1188.89
-1029.93
-1139.93
-1049.22
-1115.12
-1049.99
-1104.36
-1033.58
-1098.12
-1003.59
-1091.7
-968.878
-1092.16
-932.256
-1100.17
-848.198
-1027.55
-639.538
-613.716
-428.627
265.833
-345.703
1029.19
-324.618
1430.69
-317.727
1723.92
-317.361
1995.25
-320.033
2249.95
-321.563
2484.21
-320.196
2701.12
-316.32
2900.82
-310.328
3081.23
-301.871
3241.86
-290.497
3383.53
-276.142
3506.78
-259.035
3611.07
-239.491
3695.46
-217.902
3759.09
-194.574
3801.53
-169.608
3821.34
-143.44
3814.15
-116.641
3780.73
-89.1711
3722.85
-60.4411
3614.69
-32.8223
3388.18
-6.74544
3072.19
18.1935
2665.33
42.0879
2183.63
67.3379
1747.18
94.6452
1364.94
123.136
1045.9
149.533
813.428
170.127
651.995
183.967
584.163
188.473
536.902
188.989
522.63
181.315
427.37
172.151
271.372
169.261
57.4555
158.139
-329.594
107.474
-964.406
44.3971
-1706.15
-19.7051
-2290.02
-80.2921
-2441.32
392.73
-442.453
-733.181
-518.964
-791.702
-624.842
-647.372
-741.047
-566.411
-842.849
-483.625
-915.481
-451.584
-957.376
-461.879
-976.587
-506.674
-982.497
-571.769
-981.81
-648.483
-977.916
-732.097
-971.989
-820.905
-964.045
-914.319
-953.599
-1012.08
-939.966
-1113.76
-922.403
-1218.44
-900.272
-1324.34
-873.4
-1428.06
-842.864
-1523.39
-812.316
-1599.76
-789.391
-1641.38
-785.261
-1630.56
-809.609
-1558.61
-862.211
-1439.61
-929.762
-1309.72
-993.684
-1205.29
-1040.87
-1141.71
-1066.92
-1113.88
-1072.75
-1109.29
-1060.73
-1116.38
-1032.95
-1125.9
-992.376
-1132.27
-946.301
-1138.24
-901.447
-1145.02
-831.737
-1097.26
-660.205
-785.249
-441.662
47.2899
-334.612
922.139
-305.846
1401.93
-298.151
1716.22
-298.76
1995.85
-303.789
2254.98
-309.051
2489.48
-311.481
2703.55
-310.559
2899.9
-306.984
3077.66
-300.82
3235.7
-291.573
3374.28
-279.005
3494.22
-263.295
3595.36
-244.796
3676.97
-223.938
3738.23
-201.058
3778.65
-176.317
3796.6
-150.207
3788.04
-123.336
3753.86
-95.6269
3695.15
-66.4636
3585.53
-38.2174
3359.94
-11.2493
3045.22
14.9886
2639.09
40.7264
2157.89
68.5342
1719.37
99.1432
1334.33
131.389
1013.65
161.374
783.442
184.842
628.527
200.611
568.395
206.027
531.486
206.405
522.252
198.498
435.276
188.294
281.576
182.201
63.549
167.652
-315.044
115.721
-912.475
47.7249
-1638.16
-23.604
-2218.69
-91.8031
-2373.12
283.237
-500.957
-673.197
-603.144
-689.515
-720.365
-530.15
-829.786
-456.991
-910.628
-402.783
-958.84
-403.371
-981.312
-439.407
-988.499
-499.487
-988.213
-572.055
-984.626
-652.071
-979.225
-737.498
-972.143
-827.987
-962.943
-923.52
-950.974
-1024.05
-935.494
-1129.24
-915.746
-1238.19
-891.168
-1348.92
-861.936
-1457.29
-830.106
-1555.22
-801.372
-1628.49
-786.318
-1656.44
-798.004
-1618.87
-843.27
-1513.34
-913.579
-1369.3
-987.815
-1235.48
-1046.46
-1146.65
-1081.11
-1107.05
-1092.46
-1102.54
-1084.2
-1117.54
-1059.72
-1140.86
-1021.38
-1164.25
-971.706
-1181.95
-916.433
-1193.51
-863.172
-1198.29
-799.65
-1160.78
-664.237
-920.662
-452.347
-164.6
-325.721
795.513
-287.949
1364.15
-277.879
1706.15
-279.097
1997.07
-286.004
2261.88
-294.566
2498.04
-301.153
2710.13
-303.838
2902.58
-302.996
3076.81
-299.2
3231.9
-292.205
3367.29
-281.638
3483.65
-267.546
3581.27
-250.279
3659.7
-230.303
3718.26
-207.988
3756.33
-183.553
3772.16
-157.557
3762.04
-130.641
3726.95
-102.698
3667.2
-73.0968
3555.92
-44.2062
3331.05
-16.3114
3017.32
11.2699
2611.51
38.9186
2130.24
69.4304
1688.86
103.574
1300.18
139.831
977.395
173.597
749.677
200.029
602.095
217.731
550.693
224.032
525.185
224.176
522.108
215.881
443.572
204.538
292.918
195.36
72.7273
177.37
-297.054
124.299
-859.405
51.8812
-1565.74
-26.2154
-2140.59
-95.6153
-2303.72
165.109
-576.794
-595.054
-698.716
-567.593
-813.29
-415.576
-903.473
-366.807
-958.709
-347.547
-985.231
-376.849
-993.887
-430.752
-993.951
-499.423
-990.459
-575.548
-985.337
-657.192
-978.826
-744.009
-970.53
-836.283
-959.835
-934.215
-946.049
-1037.84
-928.41
-1146.88
-906.183
-1260.42
-878.976
-1376.13
-847.576
-1488.69
-815.564
-1587.23
-791.455
-1652.6
-789.066
-1658.83
-821.546
-1586.39
-888.895
-1445.99
-971.916
-1286.28
-1044.41
-1162.99
-1090.71
-1100.35
-1109.28
-1088.48
-1105.1
-1106.72
-1083.31
-1139.34
-1047.46
-1176.72
-999.891
-1211.81
-942.933
-1238.91
-881.138
-1255.31
-821.504
-1257.92
-759.74
-1222.55
-649.373
-1031.03
-451.146
-362.827
-315.074
659.441
-271.228
1320.31
-257.737
1692.66
-258.496
1997.83
-266.968
2270.35
-278.277
2509.35
-288.92
2720.78
-295.817
2909.48
-298.262
3079.26
-297.017
3230.66
-292.346
3362.62
-283.945
3475.25
-271.691
3569.01
-255.858
3643.87
-236.932
3699.33
-215.314
3734.72
-191.286
3748.13
-165.473
3736.23
-138.551
3700.03
-110.389
3639.04
-80.3547
3525.89
-50.809
3301.5
-21.9517
2988.47
7.01513
2582.54
36.6373
2100.62
70.0135
1655.48
107.957
1262.24
148.51
936.843
186.251
711.936
215.715
572.63
235.315
531.093
242.428
518.072
242.209
522.328
233.333
452.448
220.716
305.535
208.589
84.854
187.235
-275.7
133.144
-805.313
56.7595
-1489.35
-27.993
-2055.84
-93.5632
-2238.15
30.249
-666.376
-502.803
-795.471
-438.498
-892.953
-318.095
-956.992
-302.768
-988.196
-316.343
-998.796
-366.249
-999.153
-430.395
-995.586
-502.989
-990.497
-580.637
-984.305
-663.384
-976.614
-751.7
-966.837
-846.06
-954.333
-946.719
-938.404
-1053.77
-918.289
-1166.99
-893.321
-1285.39
-863.442
-1406.01
-830.445
-1521.68
-800.191
-1617.48
-784.805
-1667.99
-800.77
-1642.86
-857.786
-1529.37
-944.596
-1359.18
-1031.77
-1199.1
-1093.57
-1101.19
-1122.43
-1071.48
-1123.64
-1087.28
-1104.67
-1125.68
-1070.79
-1173.21
-1025.26
-1222.25
-970.37
-1266.7
-908.336
-1300.94
-842.82
-1320.82
-779.571
-1321.17
-718.331
-1283.79
-624.614
-1124.75
-440.897
-546.544
-299.725
518.27
-254.38
1274.96
-238.599
1676.88
-237.417
1996.65
-246.863
2279.8
-260.488
2522.97
-274.722
2735.01
-286.108
2920.86
-292.531
3085.68
-294.233
3232.36
-291.988
3360.37
-285.857
3469.12
-275.634
3558.79
-261.448
3629.68
-243.755
3681.64
-222.983
3713.94
-199.478
3724.63
-173.932
3710.68
-147.057
3673.15
-118.701
3610.68
-88.2483
3495.44
-58.0446
3271.3
-28.1951
2958.62
2.19346
2552.15
33.855
2068.95
70.2785
1619.06
112.326
1220.19
157.494
891.675
199.414
670.016
231.953
540.091
253.377
509.669
261.18
510.269
260.436
523.071
250.764
462.12
236.719
319.58
221.782
99.7913
197.208
-251.127
142.204
-750.308
62.3273
-1409.48
-29.0745
-1964.44
-113.3
-2153.93
-98.2146
-761.323
-404.903
-881.805
-318.016
-952.415
-247.485
-990.366
-264.817
-1003.19
-303.52
-1004.03
-365.41
-1000.17
-434.251
-994.899
-508.262
-988.771
-586.764
-981.431
-670.724
-972.264
-760.868
-960.666
-857.657
-946.014
-961.371
-927.613
-1072.17
-904.722
-1189.88
-876.832
-1313.28
-844.478
-1438.36
-811.062
-1555.1
-785.653
-1642.89
-784.444
-1669.2
-824.454
-1602.85
-906.691
-1447.13
-1005.75
-1260.12
-1086.45
-1118.41
-1130.18
-1057.46
-1139.34
-1062.32
-1123.99
-1102.64
-1092.07
-1157.6
-1048.21
-1217.08
-995.254
-1275.2
-935.409
-1326.55
-870.749
-1365.6
-804.125
-1387.45
-739.783
-1385.51
-679.017
-1344.55
-596.83
-1206.93
-427.385
-715.989
-278.982
369.867
-235.405
1231.39
-220.442
1661.92
-216.742
1992.95
-225.95
2289.01
-241.484
2538.51
-258.743
2752.27
-274.438
2936.56
-285.419
3096.66
-290.698
3237.64
-291.124
3360.8
-287.338
3465.33
-279.29
3550.74
-266.958
3617.35
-250.694
3665.38
-230.932
3694.18
-208.083
3701.78
-182.904
3685.51
-156.14
3646.39
-127.628
3582.17
-96.7853
3464.59
-65.9318
3240.44
-35.0734
2927.76
-3.23237
2520.31
30.5533
2035.17
70.2334
1579.38
116.732
1173.69
166.88
841.528
213.19
623.705
248.825
504.456
271.957
486.537
280.275
501.951
278.813
524.533
268.113
472.82
252.48
335.213
234.86
117.411
207.259
-223.526
151.44
-694.489
68.7305
-1326.77
-27.3215
-1868.38
-92.8728
-2088.37
-228.089
-850.676
-311.913
-948.812
-219.879
-990.27
-206.027
-1007.43
-247.661
-1008.6
-302.348
-1004.47
-369.54
-998.723
-439.996
-992.438
-514.548
-985.195
-594.007
-976.375
-679.544
-965.359
-771.884
-951.587
-871.43
-934.453
-978.505
-913.267
-1093.35