/*--------------------------------*- C++ -*----------------------------------*\
| =========                 |                                                 |
| \\      /  F ield         | OpenFOAM: The Open Source CFD Toolbox           |
|  \\    /   O peration     | Version:  4.1                                   |
|   \\  /    A nd           | Web:      www.OpenFOAM.org                      |
|    \\/     M anipulation  |                                                 |
\*---------------------------------------------------------------------------*/
FoamFile
{
    version     2.0;
    format      ascii;
    class       volVectorField;
    location    "24";
    object      U;
}
// * * * * * * * * * * * * * * * * * * * * * * * * * * * * * * * * * * * * * //

dimensions      [0 1 -1 0 0 0 0];

internalField   nonuniform List<vector> 
6785
(
(1.25164e-14 -2.32136 16.489)
(1.20679e-14 -7.9133 12.9936)
(-3.02112e-15 -5.12364 13.7956)
(4.01245e-15 -5.05384 13.3106)
(9.20585e-16 -4.24861 13.1767)
(-1.11383e-16 -3.80947 12.8951)
(2.51122e-15 -3.36882 12.6187)
(6.19862e-16 -3.04736 12.308)
(-5.18762e-16 -2.81796 12.0036)
(1.68612e-15 -2.7277 11.7358)
(1.97976e-16 -2.75349 11.5623)
(-3.43699e-16 -2.89489 11.4367)
(9.3077e-16 -3.48788 10.8992)
(-2.05362e-17 -3.68179 9.70726)
(-3.81629e-16 -0.156772 7.68906)
(1.80185e-14 -10.3842 26.991)
(1.32207e-14 -16.2888 23.4626)
(-2.55463e-15 -11.2513 23.7992)
(4.26053e-15 -11.9666 22.0065)
(8.57162e-16 -10.2384 21.1731)
(8.98821e-16 -9.57898 19.9741)
(1.54696e-15 -8.58651 18.9346)
(4.26485e-17 -7.80796 17.8803)
(-9.98455e-17 -7.03264 16.8668)
(4.27614e-16 -6.26066 15.7301)
(-4.19471e-16 -5.26611 14.1185)
(-6.86206e-16 -3.8101 11.4825)
(-5.12766e-16 -1.9704 7.37056)
(-4.70761e-16 -0.148724 2.48451)
(-4.56298e-16 0.38318 -0.180193)
(1.95631e-14 -13.0764 28.7388)
(1.11544e-14 -17.1474 25.476)
(-1.86211e-15 -12.2899 25.5012)
(4.55117e-15 -13.4866 22.9552)
(7.21973e-16 -11.2811 21.9799)
(1.52259e-15 -10.949 20.2103)
(1.68625e-15 -9.80724 18.9038)
(-2.54114e-16 -9.17188 17.4768)
(4.37922e-16 -8.41204 16.2008)
(1.09639e-15 -7.69069 14.7213)
(-7.71325e-16 -6.52068 12.5354)
(1.75754e-16 -4.25415 8.41791)
(4.21273e-15 0.0524686 0.694038)
(7.81707e-19 4.28103 -6.34444)
(-1.80738e-15 2.66778 -5.99009)
(1.98373e-14 -13.6478 27.8838)
(1.18539e-14 -17.4343 25.9352)
(-1.42138e-15 -12.9103 25.2053)
(4.17055e-15 -14.2743 22.3189)
(1.40634e-15 -11.9944 21.3263)
(1.6307e-15 -11.8868 19.2921)
(1.96909e-15 -10.7558 17.861)
(6.87256e-16 -10.1464 16.2297)
(4.83428e-16 -9.4049 14.7534)
(1.31132e-15 -8.72181 13.227)
(7.80601e-16 -7.8618 11.4284)
(2.34763e-16 -6.43326 8.88617)
(1.41846e-15 -4.19797 5.01437)
(1.746e-15 -1.40357 1.84112)
(-4.22921e-15 1.24122 -3.82921)
(1.95623e-14 -13.2835 26.1676)
(1.29512e-14 -17.1406 26.0647)
(-8.3952e-16 -13.0124 24.5563)
(3.10015e-15 -13.8875 21.582)
(1.21178e-15 -11.8084 20.4862)
(8.01195e-16 -11.5621 18.4104)
(1.68729e-15 -10.4434 16.8745)
(2.42734e-16 -9.72238 15.2062)
(-7.19538e-16 -8.95107 13.7089)
(-8.24073e-17 -8.21403 12.2787)
(-6.37414e-16 -7.45571 10.7746)
(-1.65844e-15 -6.43418 9.06372)
(-1.41765e-15 -5.11765 6.76998)
(-2.54784e-15 -3.10437 4.41137)
(-7.34287e-15 -0.541496 -1.0927)
(2.03376e-14 -12.7434 24.8169)
(1.39579e-14 -16.4374 25.4208)
(2.1066e-16 -12.6 23.7162)
(2.97021e-15 -13.2395 20.6443)
(1.24452e-15 -11.0909 19.5694)
(2.214e-15 -10.8861 17.3634)
(1.80731e-15 -9.65059 15.937)
(3.88073e-16 -9.10264 14.3527)
(9.33381e-16 -8.44865 13.0081)
(3.50362e-17 -7.91324 11.6869)
(-2.40354e-17 -7.38225 10.4637)
(6.8398e-16 -6.78565 9.40823)
(-1.83385e-16 -6.09515 8.36007)
(-6.25191e-16 -4.89809 7.15316)
(-2.01153e-15 -2.52682 3.20052)
(2.21923e-14 -12.7509 24.5016)
(1.27e-14 -15.4957 24.6168)
(1.58094e-15 -12.1621 23.0347)
(2.98745e-15 -12.4869 20.1571)
(1.78764e-15 -10.2847 19.0625)
(3.46075e-15 -9.90245 16.7836)
(1.12989e-15 -8.1701 14.9908)
(1.94124e-15 -7.13741 12.4896)
(3.19885e-15 -6.04022 10.5632)
(-6.35662e-17 -5.84743 9.4962)
(8.11313e-16 -6.08192 9.43525)
(2.60256e-15 -6.67888 9.98049)
(-1.17757e-15 -7.11786 10.825)
(-3.83196e-15 -7.16173 10.9597)
(1.04531e-15 -4.96472 8.36103)
(2.15863e-14 -13.8392 26.1543)
(9.17143e-15 -15.3085 25.2051)
(7.50918e-16 -12.4786 23.9449)
(2.34557e-15 -12.4447 21.8062)
(1.12318e-15 -10.5423 20.8049)
(9.75814e-16 -9.74864 18.7876)
(4.70973e-16 -7.53717 16.2829)
(1.74465e-15 -5.38198 12.577)
(1.18576e-15 -3.09703 9.19652)
(-3.62079e-17 -1.67323 6.68296)
(-1.63804e-16 -1.2065 5.72982)
(-6.03975e-16 -2.30472 6.93432)
(-1.60333e-15 -4.67557 9.91351)
(-2.16719e-15 -6.94091 12.3558)
(3.05408e-16 -5.42958 10.5014)
(2.0961e-14 -14.6341 27.2175)
(9.35518e-15 -17.3883 28.2945)
(1.15158e-16 -13.865 26.0208)
(1.51177e-15 -13.9553 24.0982)
(3.78312e-16 -12.2423 23.2567)
(2.44715e-16 -11.7286 21.4775)
(-6.02077e-16 -9.71613 19.2202)
(1.03884e-15 -7.62462 15.5992)
(1.62883e-15 -4.97022 11.9579)
(7.66724e-16 -2.65974 8.46043)
(2.24846e-15 -0.35141 5.11448)
(3.25523e-15 1.44049 2.09885)
(2.08097e-15 1.83998 0.8796)
(2.09651e-15 0.22299 2.30372)
(9.53039e-16 -1.39928 3.96607)
(1.93347e-14 -13.2626 23.9142)
(1.35056e-14 -19.0088 30.4874)
(2.75469e-15 -15.9026 27.9093)
(1.838e-15 -15.2689 25.1118)
(1.78565e-16 -13.7872 23.8174)
(7.34787e-16 -13.3968 22.1357)
(4.77228e-16 -12.1408 20.4128)
(1.08043e-16 -10.8279 17.869)
(1.5906e-15 -8.9398 15.038)
(2.48332e-15 -6.93503 11.9473)
(1.73385e-15 -4.57944 8.54599)
(4.3829e-15 -1.9133 4.54629)
(5.55805e-15 1.15472 -0.034089)
(-2.90443e-15 3.77306 -3.98263)
(-4.95892e-15 1.95582 -4.54845)
(1.7159e-14 -10.6051 18.4625)
(1.66162e-14 -18.3403 29.6495)
(6.57207e-15 -16.7208 28.2585)
(2.25687e-15 -15.3113 24.687)
(2.79974e-16 -13.8197 22.5542)
(1.1582e-15 -13.1756 20.6812)
(1.01434e-15 -12.3088 19.0343)
(3.45821e-16 -11.4394 17.1416)
(1.02656e-15 -10.3407 15.0883)
(1.20487e-15 -9.07461 12.8804)
(1.14696e-15 -7.65304 10.5114)
(1.95579e-15 -5.92688 7.96555)
(2.04094e-15 -4.01194 5.02505)
(1.64021e-15 -1.33233 1.98213)
(-6.71143e-15 0.86048 -3.44085)
(1.54304e-14 -8.51295 14.4997)
(1.82607e-14 -16.9585 28.1448)
(7.68193e-15 -16.2757 27.5884)
(2.40487e-15 -14.464 23.6864)
(9.58158e-16 -12.7988 21.0704)
(2.33842e-16 -11.9144 19.0748)
(1.02709e-15 -11.0394 17.4653)
(1.6228e-15 -10.2254 15.8322)
(2.6781e-16 -9.34579 14.1726)
(-5.78251e-17 -8.38178 12.48)
(9.27544e-16 -7.37634 10.717)
(-5.51977e-16 -6.17705 8.88721)
(3.10324e-16 -4.89686 6.73833)
(-1.46908e-15 -2.87938 4.1148)
(-8.03128e-15 -0.390985 -1.41762)
(1.36281e-14 -7.79483 13.2741)
(1.85025e-14 -16.1884 27.2878)
(8.64581e-15 -15.9257 27.0306)
(2.04165e-15 -14.2256 23.4263)
(1.56375e-15 -12.6893 20.7999)
(4.93304e-16 -11.7935 18.8097)
(-1.899e-16 -10.9472 17.2117)
(2.67136e-15 -10.1556 15.6821)
(8.29819e-16 -9.32905 14.1762)
(-3.70813e-16 -8.43841 12.679)
(8.78005e-16 -7.52115 11.1486)
(-1.43993e-15 -6.47381 9.60395)
(-1.43909e-15 -5.41061 7.90708)
(-1.38585e-15 -3.92665 5.99157)
(-8.04853e-15 -1.47381 1.5737)
(1.09125e-14 -6.737 10.8044)
(1.89097e-14 -15.1801 25.4493)
(7.43108e-15 -15.1233 25.2455)
(-6.51209e-16 -12.8369 21.2198)
(9.64333e-16 -11.0161 18.4517)
(5.9333e-16 -10.1084 16.8072)
(-6.17927e-16 -9.43564 15.7757)
(2.40468e-15 -8.93421 14.8173)
(1.65776e-15 -8.45155 13.9025)
(6.62963e-17 -7.98686 12.9892)
(-8.96501e-16 -7.54789 12.0329)
(-2.12497e-15 -7.01859 11.0239)
(-1.67217e-15 -6.41228 9.8482)
(-2.00935e-15 -5.36828 8.46449)
(-6.30479e-15 -3.17764 5.05887)
(5.20572e-15 -5.82372 10.474)
(1.73234e-14 -15.3919 24.5345)
(1.41165e-14 -18.4585 27.5503)
(5.51398e-15 -18.316 25.499)
(9.357e-16 -16.7316 22.4389)
(-7.8926e-17 -15.1933 19.7712)
(-1.79187e-15 -13.7224 17.492)
(-1.16353e-15 -12.2124 15.3907)
(7.34497e-16 -10.6721 13.4318)
(6.54489e-16 -9.20507 11.5266)
(-1.81012e-15 -7.822 9.82459)
(-3.43181e-15 -6.82972 8.82894)
(-4.50991e-15 -6.47769 9.0535)
(-6.68023e-15 -6.60358 9.67232)
(-9.79259e-15 -4.00898 7.27907)
(-7.87476e-18 14.0266 60.2141)
(-4.47093e-16 0.0739153 7.12292)
(-5.66963e-16 -0.629196 -3.20886)
(-5.80421e-16 -0.412433 -2.04427)
(-6.03264e-16 -0.265475 -2.39927)
(-8.36822e-16 0.443183 -3.17904)
(-6.16951e-16 0.141698 -2.13039)
(-5.65039e-16 0.409333 -2.1054)
(-6.68529e-16 0.522601 -2.03029)
(4.55063e-16 1.08559 -2.78698)
(8.28731e-16 0.895699 -1.94272)
(8.12244e-16 1.0735 -1.84085)
(5.63643e-16 1.65451 -2.36289)
(3.48897e-16 1.33932 -1.61422)
(3.42745e-16 1.5961 -1.59826)
(3.96872e-16 1.60164 -1.56877)
(2.92151e-16 2.12261 -1.9112)
(4.201e-16 1.79166 -1.31082)
(4.602e-16 1.95521 -1.26954)
(4.76467e-16 2.50337 -1.46474)
(4.23288e-16 1.98063 -1.01462)
(4.07092e-16 2.25457 -1.01303)
(5.31373e-16 2.18636 -1.02209)
(6.27574e-16 2.72813 -1.12064)
(5.21054e-16 2.15755 -0.796282)
(5.53591e-16 2.4178 -0.794341)
(4.4103e-16 2.34536 -0.8172)
(5.50058e-16 2.78991 -0.838564)
(3.6107e-16 2.25336 -0.615498)
(3.48886e-16 2.39582 -0.631393)
(4.81518e-16 2.81847 -0.548353)
(3.06107e-16 2.15435 -0.432897)
(3.44345e-16 2.38682 -0.429875)
(2.51485e-16 2.30804 -0.455502)
(3.14792e-16 2.63554 -0.280983)
(3.01615e-16 2.06147 -0.216479)
(3.01949e-16 2.1818 -0.230854)
(4.03637e-16 2.46582 0.0680639)
(3.48006e-16 1.82828 0.0289322)
(3.11421e-16 1.99988 0.0563488)
(4.1035e-16 1.91524 0.0346808)
(5.61813e-16 2.13119 0.400176)
(4.02739e-16 1.57134 0.25787)
(3.78978e-16 1.70285 0.274008)
(3.25145e-16 1.6209 0.226422)
(4.66004e-16 1.78931 0.603154)
(8.93635e-17 1.39288 0.472982)
(3.80309e-17 1.43426 0.40036)
(-1.18683e-16 1.58754 0.816553)
(1.14002e-16 1.23069 0.632334)
(7.77221e-17 1.28552 0.620304)
(1.19506e-17 1.21398 0.530481)
(-8.96122e-17 1.23359 0.889695)
(-9.55642e-17 0.890859 0.55607)
(-2.33359e-16 0.91391 0.518476)
(-4.68752e-17 0.886862 0.469813)
(-1.15056e-16 0.774023 0.351557)
(2.29301e-17 0.411113 -0.140786)
(-6.12357e-16 0.372905 0.0257794)
(-8.17408e-16 1.002 -1.78562)
(-1.20829e-16 -0.509303 -1.50759)
(3.23843e-16 0.0119829 -1.97617)
(5.89871e-16 0.26323 -2.19959)
(4.22081e-16 -0.178809 -1.03696)
(-1.24637e-15 -1.09453 1.24074)
(-1.2235e-15 -0.775334 1.23316)
(-1.87911e-15 -1.79872 3.70337)
(-1.51959e-15 -2.35183 4.21099)
(-1.54949e-15 -2.65084 4.29467)
(-1.59365e-15 -2.62118 4.54506)
(-1.8081e-15 -4.23538 7.71641)
(-1.07766e-15 -4.54667 6.61038)
(-9.02124e-16 -5.17777 6.71881)
(-6.55379e-16 -5.05327 6.80387)
(-1.23537e-16 -7.47055 10.3158)
(3.91537e-16 -7.47297 8.05557)
(5.22039e-16 -7.53992 8.51097)
(9.39538e-16 -10.2797 12.5256)
(4.95445e-16 -9.96013 9.75967)
(9.02155e-18 -10.3137 10.7707)
(-1.28923e-15 -11.1096 13.1599)
(-9.63005e-16 -10.9249 12.8305)
(-9.31341e-16 -11.002 13.0658)
(1.31557e-15 -12.3077 14.8492)
(-7.17488e-16 -11.5098 14.0736)
(-3.30509e-16 -11.6727 14.7257)
(-2.84292e-16 -11.643 14.919)
(-2.30486e-16 -11.7128 15.1137)
(-5.22911e-17 -11.7429 15.2474)
(2.29736e-16 -11.8098 15.3003)
(6.45677e-16 -11.8787 15.266)
(1.03197e-15 -11.8571 15.2759)
(2.46046e-15 -12.7835 16.7622)
(1.33006e-15 -12.1932 15.8132)
(1.52389e-15 -12.3356 15.9147)
(1.54433e-15 -12.353 15.8908)
(1.66422e-15 -12.4416 15.9757)
(1.54572e-15 -12.4932 16.2778)
(1.62176e-15 -12.57 16.488)
(1.75654e-15 -12.6735 16.7166)
(1.97451e-15 -12.7004 16.9213)
(3.58467e-15 -13.3959 18.3337)
(2.63981e-15 -12.7581 17.2649)
(2.73887e-15 -12.9002 17.5318)
(2.7727e-15 -12.9266 17.5602)
(2.83677e-15 -13.0189 17.613)
(2.98679e-15 -13.0644 17.7204)
(3.12696e-15 -13.1621 17.8992)
(2.98542e-15 -13.1845 17.9621)
(3.00911e-15 -13.2844 18.1358)
(3.08312e-15 -13.3391 18.3046)
(3.89663e-15 -13.331 18.9234)
(3.39655e-15 -12.9737 18.3025)
(3.56614e-15 -13.0428 18.4529)
(3.7081e-15 -13.0612 18.5548)
(3.89709e-15 -13.1337 18.7277)
(4.04922e-15 -13.1477 18.976)
(3.97784e-15 -13.235 19.4338)
(4.0258e-15 -13.2641 19.7055)
(4.16533e-15 -13.3728 19.8806)
(5.35186e-15 -12.445 19.3773)
(4.49345e-15 -12.4602 19.3259)
(4.46406e-15 -12.4495 19.4102)
(4.34127e-15 -12.5197 19.3455)
(4.35143e-15 -12.4921 19.007)
(4.22841e-15 -12.5328 18.7376)
(4.14088e-15 -12.529 18.4784)
(4.17197e-15 -12.4715 18.3274)
(4.54655e-15 -12.6336 18.4386)
(5.47277e-15 -10.6034 15.9175)
(4.79051e-15 -11.1967 17.2814)
(5.07003e-15 -11.0672 17.1013)
(5.32203e-15 -11.07 17.1956)
(5.70859e-15 -11.0296 17.4396)
(5.99012e-15 -10.9923 17.4793)
(6.23383e-15 -10.9123 17.4256)
(6.42194e-15 -10.8437 17.3322)
(6.52223e-15 -10.9044 17.0595)
(7.07109e-15 -8.23648 13.4443)
(6.51735e-15 -9.14374 15.4928)
(6.04576e-15 -8.8786 14.3328)
(5.50981e-15 -8.93569 13.4534)
(4.99017e-15 -8.78383 12.362)
(4.66873e-15 -8.69637 11.296)
(5.35887e-15 -8.52761 10.4502)
(4.34678e-15 -8.31056 9.29608)
(3.96314e-15 -8.06097 8.37559)
(3.50755e-15 -7.89359 7.51472)
(9.62941e-16 -4.43969 1.72881)
(3.26367e-15 -6.02834 6.65775)
(2.94721e-15 -5.41233 5.67267)
(2.80059e-15 -5.51181 5.5986)
(2.57622e-15 -5.13861 5.09335)
(2.19855e-15 -5.04923 4.46395)
(1.14713e-15 -4.84616 2.97118)
(1.39217e-16 -4.50887 1.44092)
(5.53199e-16 -4.45206 1.48167)
(-3.46042e-16 -3.42667 -1.56694)
(2.53281e-16 -3.59771 0.755104)
(1.44689e-16 -3.45985 -0.24104)
(-7.86433e-16 -2.51657 -2.53846)
(-4.88107e-16 -3.79814 -1.94997)
(-6.95902e-16 -2.45128 -1.87591)
(-6.05497e-16 -2.24165 -1.29775)
(-7.52526e-16 -2.32778 -2.00979)
(-5.73421e-16 -1.58337 -1.30711)
(-7.25591e-16 -1.63218 -2.12228)
(-5.22202e-16 -1.04084 -1.61124)
(-1.57155e-16 -0.811345 -1.21526)
(-1.95044e-16 -0.570845 -1.86751)
(-1.43056e-16 -0.253948 -1.31685)
(-1.42126e-16 -0.0692486 -0.91266)
(-1.3655e-16 0.213694 -1.31561)
(-1.79523e-16 0.292255 -0.880027)
(-1.21699e-15 0.505749 -0.903908)
(-1.20209e-15 0.758722 -0.928296)
(-5.78786e-16 0.687317 -0.638408)
(-8.38294e-16 1.11714 -0.738082)
(-5.90836e-16 0.929631 -0.451829)
(-8.2266e-16 1.14953 -0.45718)
(-1.10764e-15 1.33074 -0.389738)
(-7.81213e-16 1.1502 -0.247541)
(-6.69938e-16 1.40887 -0.278636)
(-6.89659e-16 1.59847 -0.195095)
(-4.60619e-16 1.24587 -0.123822)
(-5.60738e-16 1.80634 -0.118542)
(-4.44427e-16 1.36819 -0.0899529)
(-9.20636e-16 1.59151 -0.109328)
(-1.64527e-15 1.73975 -0.0933766)
(-1.30768e-15 1.33112 -0.113095)
(-1.93369e-15 1.91191 -0.188355)
(-1.53126e-15 1.40545 -0.200963)
(-1.96967e-15 1.68067 -0.290008)
(-2.47904e-15 1.66528 -0.374935)
(-1.60113e-15 1.33606 -0.333905)
(-1.54395e-15 1.69964 -0.446803)
(-1.56646e-15 1.60856 -0.554141)
(-9.89181e-16 1.22181 -0.452967)
(-1.46362e-15 1.79728 -0.660782)
(-1.18757e-15 1.30233 -0.544746)
(-1.57867e-15 1.57155 -0.687667)
(-1.71832e-15 1.53705 -0.810348)
(-1.06683e-15 1.18973 -0.59444)
(-1.35604e-15 1.75712 -0.818123)
(-9.56083e-16 1.288 -0.632078)
(-1.0514e-15 1.57604 -0.772602)
(-1.13399e-15 1.5197 -0.888327)
(-6.50056e-16 1.25613 -0.64313)
(-6.29482e-16 1.62571 -0.780476)
(-3.54566e-16 1.56385 -0.904636)
(-5.65838e-17 1.23312 -0.645004)
(2.50036e-16 1.79731 -0.879996)
(2.72456e-16 1.38036 -0.650442)
(2.24917e-16 1.63696 -0.786002)
(-3.21188e-16 1.68966 -0.902825)
(-5.03218e-16 1.35375 -0.611952)
(-1.13666e-15 1.93274 -0.820094)
(-1.05837e-15 1.50276 -0.576908)
(-1.4587e-15 1.78177 -0.696764)
(-1.81416e-15 1.77953 -0.773336)
(-1.22703e-15 1.507 -0.508688)
(-1.49018e-15 1.84991 -0.604605)
(-1.29705e-15 1.86613 -0.638789)
(-6.53287e-16 1.48899 -0.413389)
(-4.47718e-16 2.08736 -0.530905)
(-8.2202e-17 1.62292 -0.349673)
(1.53133e-16 1.85271 -0.404212)
(8.05927e-17 1.96028 -0.389823)
(-8.7882e-17 1.56677 -0.239333)
(-5.43154e-16 2.16273 -0.295834)
(-7.23136e-16 1.6812 -0.182443)
(-1.25384e-15 1.92591 -0.211018)
(-1.74496e-15 2.00304 -0.190348)
(-1.27348e-15 1.70612 -0.104931)
(-1.50942e-15 1.99862 -0.1263)
(-1.49765e-15 2.14299 -0.121172)
(-8.43209e-16 1.71392 -0.0734125)
(-8.27043e-16 2.35832 -0.157006)
(-4.34374e-16 1.8474 -0.100499)
(-1.79597e-16 2.16849 -0.209234)
(-3.09266e-21 1.1546 1.68856)
(-8.5213e-20 1.3342 1.71205)
(-3.30425e-19 1.37065 1.73237)
(-8.74165e-19 1.46315 1.76549)
(-1.54892e-18 1.51922 1.79751)
(-7.75137e-19 1.59037 1.83961)
(7.0136e-18 1.6497 1.88973)
(3.56785e-17 1.70828 1.9643)
(1.11726e-16 1.75407 2.08403)
(2.73773e-16 1.78317 2.28272)
(5.6101e-16 1.78811 2.59013)
(9.90809e-16 1.76923 3.01537)
(1.53834e-15 1.73393 3.53101)
(2.13528e-15 1.69591 4.07845)
(2.6912e-15 1.66868 4.59019)
(3.1238e-15 1.66042 5.01433)
(3.38084e-15 1.67197 5.32643)
(3.44665e-15 1.69849 5.52695)
(3.33626e-15 1.73237 5.63127)
(3.0845e-15 1.76606 5.65992)
(2.73533e-15 1.79391 5.63253)
(2.33359e-15 1.81319 5.56549)
(1.91914e-15 1.82426 5.47161)
(1.5225e-15 1.82986 5.36045)
(1.16136e-15 1.83331 5.23886)
(8.37592e-16 1.83633 5.11197)
(5.34834e-16 1.83747 4.98475)
(2.17796e-16 1.83151 4.86358)
(-1.65158e-16 1.80976 4.75709)
(-6.8158e-16 1.76371 4.67674)
(-1.43226e-15 1.69485 4.63827)
(-2.52902e-15 1.58934 4.64839)
(-3.73927e-15 1.25593 4.6164)
(-3.95093e-15 0.324541 4.26164)
(-2.96744e-15 -0.729018 3.77372)
(-2.38213e-15 -1.246 3.58793)
(-1.91159e-15 -1.54224 3.44475)
(-1.46965e-15 -1.83418 3.29788)
(-1.04931e-15 -2.15258 3.15578)
(-6.44204e-16 -2.48485 3.01821)
(-2.43755e-16 -2.82293 2.8813)
(1.58544e-16 -3.15734 2.74501)
(5.66046e-16 -3.48095 2.6105)
(9.8581e-16 -3.78969 2.47609)
(1.42271e-15 -4.07799 2.33888)
(1.87244e-15 -4.34011 2.19858)
(2.32081e-15 -4.57583 2.05702)
(2.74911e-15 -4.78798 1.9142)
(3.13336e-15 -4.97709 1.76866)
(3.44353e-15 -5.14016 1.61848)
(3.64505e-15 -5.27498 1.46406)
(3.71128e-15 -5.3791 1.30447)
(3.62592e-15 -5.45193 1.14118)
(3.39048e-15 -5.4959 0.974437)
(3.02731e-15 -5.50003 0.801589)
(2.57692e-15 -5.46194 0.627125)
(2.07848e-15 -5.38844 0.451759)
(1.55115e-15 -5.25264 0.279599)
(1.02309e-15 -4.92136 0.1071)
(5.37814e-16 -4.45837 -0.0286132)
(1.96638e-16 -3.87014 -0.150219)
(3.77281e-17 -3.17857 -0.224943)
(-2.04852e-18 -2.57907 -0.281002)
(-2.9922e-18 -2.06201 -0.314859)
(-5.70437e-19 -1.6307 -0.341417)
(3.52127e-20 -1.29737 -0.359379)
(3.26556e-20 -1.03442 -0.378124)
(3.97126e-21 -0.896561 -0.39128)
(-7.53193e-22 -0.759003 -0.40922)
(-2.93728e-22 -0.726023 -0.416698)
(-4.75271e-23 -0.498533 -0.438274)
(7.03503e-23 -0.341078 -0.428564)
(-4.77756e-24 -0.233462 -0.49687)
(-1.49652e-21 0.470454 -0.592007)
(7.61988e-21 1.97067 -0.484487)
(-4.91064e-20 2.86227 -0.144238)
(3.02106e-19 3.63424 -0.245296)
(2.96884e-18 3.70586 0.151756)
(-2.33536e-17 -1.38138 -0.420268)
(-4.90521e-20 1.15065 1.77781)
(-3.10975e-19 1.32768 1.80128)
(-8.7589e-19 1.36199 1.8193)
(-1.71051e-18 1.45278 1.85654)
(-1.46612e-18 1.50718 1.89024)
(5.21578e-18 1.57514 1.9416)
(3.25988e-17 1.62843 2.012)
(1.09536e-16 1.67428 2.13347)
(2.80415e-16 1.69784 2.34064)
(5.92695e-16 1.69432 2.67394)
(1.06864e-15 1.66141 3.14586)
(1.67626e-15 1.60986 3.72305)
(2.32632e-15 1.55822 4.3288)
(2.90418e-15 1.52554 4.87671)
(3.31461e-15 1.52251 5.30648)
(3.50954e-15 1.54907 5.59845)
(3.48924e-15 1.5974 5.76471)
(3.28742e-15 1.65677 5.83159)
(2.9542e-15 1.71708 5.82603)
(2.54329e-15 1.77066 5.76949)
(2.10417e-15 1.81279 5.67746)
(1.67736e-15 1.84189 5.56114)
(1.29117e-15 1.8594 5.42928)
(9.58915e-16 1.86891 5.2892)
(6.7644e-16 1.87435 5.14733)
(4.19838e-16 1.87769 5.0099)
(1.44326e-16 1.8772 4.88433)
(-2.13626e-16 1.86703 4.78047)
(-7.28054e-16 1.83771 4.71021)
(-1.47497e-15 1.77968 4.68592)
(-2.54872e-15 1.69517 4.72013)
(-4.04853e-15 1.58767 4.81428)
(-5.62783e-15 1.31328 4.86616)
(-5.58355e-15 0.46789 4.48501)
(-3.20474e-15 -0.700555 3.71085)
(-2.2068e-15 -1.2439 3.50781)
(-1.79494e-15 -1.53041 3.40729)
(-1.39747e-15 -1.82601 3.26059)
(-9.92562e-16 -2.14891 3.12104)
(-5.96647e-16 -2.48342 2.98977)
(-2.0358e-16 -2.82212 2.85895)
(1.93054e-16 -3.15608 2.7284)
(5.96587e-16 -3.47807 2.59879)
(1.01355e-15 -3.78392 2.46816)
(1.44803e-15 -4.06838 2.33394)
(1.89512e-15 -4.32651 2.1961)
(2.34049e-15 -4.55831 2.05645)
(2.76538e-15 -4.76626 1.91506)
(3.14575e-15 -4.95071 1.77054)
(3.4516e-15 -5.10897 1.62112)
(3.64874e-15 -5.23896 1.46723)
(3.71097e-15 -5.33841 1.30803)
(3.62244e-15 -5.40693 1.14506)
(3.38504e-15 -5.44636 0.97852)
(3.02129e-15 -5.44626 0.805848)
(2.57145e-15 -5.40471 0.631501)
(2.07413e-15 -5.32844 0.456344)
(1.54829e-15 -5.18967 0.284048)
(1.02185e-15 -4.85921 0.110909)
(5.38022e-16 -4.39871 -0.0262024)
(1.97529e-16 -3.81385 -0.150093)
(3.8309e-17 -3.12544 -0.228195)
(-2.02306e-18 -2.52635 -0.28851)
(-3.12335e-18 -2.00946 -0.327753)
(-6.26015e-19 -1.57826 -0.359816)
(3.4128e-20 -1.24656 -0.382805)
(3.79644e-20 -0.987379 -0.404423)
(5.28433e-21 -0.855557 -0.418748)
(-8.47783e-22 -0.727365 -0.435701)
(-3.94213e-22 -0.701156 -0.441623)
(-6.55286e-23 -0.487683 -0.460727)
(6.29417e-23 -0.321572 -0.445427)
(1.22079e-22 -0.210798 -0.505368)
(-1.91886e-21 0.468888 -0.651027)
(9.44755e-21 1.89711 -0.52518)
(-5.66391e-20 2.82308 -0.154279)
(3.11967e-19 3.58864 -0.26727)
(6.81857e-18 3.73185 0.158954)
(-1.84147e-17 -1.29526 -0.428989)
(-1.59619e-19 1.14824 1.82791)
(-6.81017e-19 1.32541 1.85179)
(-1.48453e-18 1.35758 1.86783)
(-1.84756e-18 1.44743 1.90837)
(2.05782e-18 1.50004 1.94558)
(2.15209e-17 1.56378 2.01072)
(8.13405e-17 1.60856 2.11185)
(2.23021e-16 1.63887 2.29364)
(4.96284e-16 1.6403 2.5938)
(9.3259e-16 1.61287 3.03756)
(1.51225e-15 1.56369 3.60078)
(2.15367e-15 1.51168 4.21189)
(2.74177e-15 1.47649 4.78064)
(3.1757e-15 1.47039 5.23965)
(3.40122e-15 1.49461 5.56326)
(3.41405e-15 1.54263 5.76031)
(3.24493e-15 1.60486 5.85566)
(2.94185e-15 1.67201 5.87544)
(2.55708e-15 1.73635 5.84033)
(2.13939e-15 1.79209 5.76487)
(1.72943e-15 1.8355 5.65935)
(1.35662e-15 1.86534 5.53202)
(1.03633e-15 1.88297 5.39062)
(7.67277e-16 1.89181 5.24308)
(5.29023e-16 1.89558 5.09767)
(2.80273e-16 1.89593 4.96345)
(-4.04888e-17 1.8907 4.85122)
(-5.0904e-16 1.8737 4.77375)
(-1.20093e-15 1.83557 4.74383)
(-2.17592e-15 1.76739 4.77055)
(-3.49384e-15 1.6728 4.85788)
(-5.21895e-15 1.56428 4.99846)
(-6.98788e-15 1.33172 5.09776)
(-6.96213e-15 0.589221 4.74947)
(-3.82013e-15 -0.550738 3.77416)
(-2.13159e-15 -1.18177 3.41083)
(-1.62019e-15 -1.49212 3.33608)
(-1.28538e-15 -1.78046 3.21117)
(-9.18018e-16 -2.10274 3.07494)
(-5.35529e-16 -2.43795 2.94894)
(-1.51118e-16 -2.77672 2.82613)
(2.37993e-16 -3.1113 2.70385)
(6.36091e-16 -3.43425 2.5815)
(1.04925e-15 -3.74096 2.45666)
(1.48046e-15 -4.02627 2.3271)
(1.92402e-15 -4.28559 2.19309)
(2.36543e-15 -4.51886 2.05644)
(2.78587e-15 -4.72816 1.91732)
(3.16128e-15 -4.91364 1.77441)
(3.46162e-15 -5.07276 1.62617)
(3.65325e-15 -5.20353 1.47308)
(3.71046e-15 -5.30378 1.31444)
(3.61799e-15 -5.3732 1.15191)
(3.37817e-15 -5.41324 0.985595)
(3.01373e-15 -5.4139 0.813092)
(2.56459e-15 -5.37361 0.638817)
(2.06867e-15 -5.29904 0.463791)
(1.54468e-15 -5.16204 0.291072)
(1.02024e-15 -4.83708 0.116853)
(5.38222e-16 -4.38373 -0.0222194)
(1.98589e-16 -3.80726 -0.14924)
(3.90142e-17 -3.12821 -0.231929)
(-1.98449e-18 -2.53562 -0.298015)
(-3.27976e-18 -2.02362 -0.34464)
(-6.9527e-19 -1.59533 -0.384638)
(3.16588e-20 -1.26475 -0.415267)
(4.45497e-20 -1.00562 -0.442101)
(7.12319e-21 -0.871096 -0.459198)
(-9.28803e-22 -0.740606 -0.475641)
(-5.37039e-22 -0.708827 -0.479272)
(-9.62287e-23 -0.494598 -0.49527)
(4.83031e-23 -0.323041 -0.47064)
(2.8033e-22 -0.18918 -0.533537)
(-2.06419e-21 0.473306 -0.681111)
(1.02565e-20 1.85921 -0.555174)
(-6.02247e-20 2.8023 -0.162782)
(3.19054e-19 3.56688 -0.278669)
(9.49402e-18 3.73055 0.167949)
(-1.26396e-17 -1.28249 -0.271554)
(-3.94359e-19 1.14451 1.8876)
(-1.25932e-18 1.32171 1.91237)
(-1.95701e-18 1.35064 1.92672)
(2.56903e-21 1.43865 1.97268)
(1.33753e-17 1.48756 2.01888)
(5.91828e-17 1.54324 2.11058)
(1.75963e-16 1.57327 2.26533)
(4.15334e-16 1.57992 2.53786)
(8.18905e-16 1.5521 2.95676)
(1.38153e-15 1.49789 3.51467)
(2.03056e-15 1.43439 4.14421)
(2.64712e-15 1.38526 4.74935)
(3.11772e-15 1.36735 5.24938)
(3.37579e-15 1.38576 5.60831)
(3.41071e-15 1.43522 5.83113)
(3.25269e-15 1.50564 5.94395)
(2.95234e-15 1.58637 5.97582)
(2.56531e-15 1.66833 5.94988)
(2.14342e-15 1.74441 5.8817)
(1.72988e-15 1.80932 5.78122)
(1.35636e-15 1.85972 5.65546)
(1.04054e-15 1.89446 5.51094)
(7.83553e-16 1.91494 5.35517)
(5.67281e-16 1.9245 5.19735)
(3.52081e-16 1.92676 5.04846)
(7.6488e-17 1.92312 4.92134)
(-3.38445e-16 1.91107 4.83068)
(-9.76682e-16 1.88441 4.79152)
(-1.90469e-15 1.83447 4.81502)
(-3.15022e-15 1.75356 4.90301)
(-4.72235e-15 1.64706 5.04737)
(-6.64227e-15 1.53817 5.23182)
(-8.55661e-15 1.357 5.3729)
(-8.60361e-15 0.733346 5.07028)
(-4.81185e-15 -0.417829 3.93044)
(-2.27125e-15 -1.13349 3.3506)
(-1.47578e-15 -1.4748 3.24459)
(-1.13765e-15 -1.75768 3.14372)
(-8.24223e-16 -2.07744 3.02084)
(-4.68274e-16 -2.41362 2.89996)
(-9.38705e-17 -2.7527 2.78465)
(2.87718e-16 -3.0871 2.67228)
(6.79629e-16 -3.40955 2.55929)
(1.08833e-15 -3.71547 2.44214)
(1.51575e-15 -3.99992 2.31885)
(1.95528e-15 -4.25867 2.19002)
(2.39225e-15 -4.49163 2.05748)
(2.8078e-15 -4.70055 1.92144)
(3.17777e-15 -4.88544 1.78074)
(3.47217e-15 -5.0439 1.63408)
(3.65789e-15 -5.17402 1.48205)
(3.70979e-15 -5.27374 1.32414)
(3.61315e-15 -5.3428 1.16209)
(3.3708e-15 -5.38226 0.995984)
(3.00565e-15 -5.38255 0.823592)
(2.55726e-15 -5.3424 0.649302)
(2.06281e-15 -5.26835 0.474275)
(1.54076e-15 -5.13175 0.300934)
(1.01843e-15 -4.81032 0.125383)
(5.38325e-16 -4.36173 -0.015999)
(1.99627e-16 -3.79081 -0.146733)
(3.97305e-17 -3.11781 -0.234973)
(-1.93521e-18 -2.52885 -0.308125)
(-3.43732e-18 -2.01944 -0.363769)
(-7.69483e-19 -1.59271 -0.413795)
(2.75225e-20 -1.26327 -0.454382)
(5.16503e-20 -1.00543 -0.488709)
(9.4072e-21 -0.871065 -0.510329)
(-9.5491e-22 -0.741981 -0.527248)
(-7.14732e-22 -0.708327 -0.528406)
(-1.42338e-22 -0.498162 -0.54138)
(2.48983e-23 -0.319637 -0.503878)
(4.46267e-22 -0.168542 -0.575417)
(-2.26553e-21 0.473479 -0.720168)
(1.12947e-20 1.80128 -0.594123)
(-6.49865e-20 2.76892 -0.17605)
(3.40217e-19 3.53247 -0.285414)
(1.13034e-17 3.72738 0.186798)
(-5.75955e-18 -1.25714 -0.24224)
(-8.09538e-19 1.14073 1.94617)
(-1.8741e-18 1.31917 1.9723)
(-1.18554e-18 1.34399 1.98586)
(7.54364e-18 1.4292 2.04139)
(4.16113e-17 1.47164 2.10687)
(1.35542e-16 1.51409 2.24527)
(3.40858e-16 1.52239 2.48306)
(7.07181e-16 1.49981 2.87372)
(1.24463e-15 1.44373 3.41644)
(1.89258e-15 1.37343 4.05699)
(2.53147e-15 1.31353 4.69364)
(3.03576e-15 1.28571 5.23295)
(3.32573e-15 1.29795 5.62665)
(3.38375e-15 1.34597 5.8753)
(3.23947e-15 1.41904 6.00642)
(2.94611e-15 1.5059 6.05257)
(2.56234e-15 1.59728 6.03958)
(2.14228e-15 1.68615 5.98412)
(1.73076e-15 1.76708 5.89566)
(1.36094e-15 1.83575 5.77968)
(1.0524e-15 1.88909 5.64059)
(8.0886e-16 1.92575 5.484)
(6.15286e-16 1.94661 5.31825)
(4.34703e-16 1.95447 5.15516)
(2.06489e-16 1.95239 5.00993)
(-1.5075e-16 1.94129 4.90036)
(-7.27963e-16 1.9186 4.84495)
(-1.60388e-15 1.87882 4.8587)
(-2.81553e-15 1.81521 4.94664)
(-4.33786e-15 1.72258 5.09826)
(-6.11548e-15 1.60801 5.29029)
(-8.12613e-15 1.50105 5.49907)
(-1.00754e-14 1.36641 5.66297)
(-1.02728e-14 0.87463 5.4252)
(-6.22957e-15 -0.235551 4.20394)
(-2.63706e-15 -1.05246 3.33686)
(-1.44135e-15 -1.45262 3.15443)
(-9.8992e-16 -1.73992 3.05661)
(-7.04157e-16 -2.05707 2.95321)
(-3.90125e-16 -2.39366 2.84351)
(-3.36743e-17 -2.73398 2.73545)
(3.40274e-16 -3.06883 2.63313)
(7.26116e-16 -3.39059 2.53135)
(1.12979e-15 -3.69513 2.42398)
(1.55292e-15 -3.97801 2.3088)
(1.98804e-15 -4.23539 2.18672)
(2.42022e-15 -4.46716 2.05955)
(2.83053e-15 -4.6748 1.92757)
(3.19475e-15 -4.85817 1.7898)
(3.48293e-15 -5.01506 1.64525)
(3.66252e-15 -5.14364 1.49461)
(3.70892e-15 -5.24195 1.33761)
(3.60801e-15 -5.30981 1.17611)
(3.36308e-15 -5.34788 1.01019)
(2.99722e-15 -5.347 0.837824)
(2.5496e-15 -5.30625 0.663387)
(2.05665e-15 -5.23197 0.48819)
(1.53658e-15 -5.09488 0.313963)
(1.0164e-15 -4.77616 0.136735)
(5.38267e-16 -4.33151 -0.00737626)
(2.0057e-16 -3.76523 -0.142448)
(4.04246e-17 -3.09727 -0.237173)
(-1.87581e-18 -2.51083 -0.318637)
(-3.59085e-18 -2.00317 -0.384912)
(-8.47389e-19 -1.57765 -0.44704)
(2.14182e-20 -1.24991 -0.499908)
(5.9192e-20 -0.994777 -0.544008)
(1.2222e-20 -0.862665 -0.571988)
(-8.88643e-22 -0.737676 -0.590562)
(-9.30895e-22 -0.703987 -0.589429)
(-2.10137e-22 -0.50149 -0.599623)
(-7.62637e-24 -0.314488 -0.547333)
(5.95829e-22 -0.146496 -0.620763)
(-2.45334e-21 0.474971 -0.755718)
(1.22792e-20 1.74905 -0.636262)
(-6.96706e-20 2.73551 -0.191995)
(3.70998e-19 3.49994 -0.286044)
(1.10881e-17 3.70498 0.211484)
(-3.79544e-18 -1.21197 -0.0710945)
(-1.38427e-18 1.13618 2.00608)
(-1.79569e-18 1.31638 2.03468)
(3.57194e-18 1.33548 2.05012)
(2.80951e-17 1.41545 2.12375)
(1.01871e-16 1.44658 2.22638)
(2.74207e-16 1.46845 2.44014)
(6.00774e-16 1.44777 2.79242)
(1.10668e-15 1.39367 3.31493)
(1.74712e-15 1.31598 3.9584)
(2.40572e-15 1.24335 4.62477)
(2.94579e-15 1.20065 5.20551)
(3.27216e-15 1.2009 5.63824)
(3.35759e-15 1.24202 5.91604)
(3.22984e-15 1.31368 6.06712)
(2.94458e-15 1.40395 6.12783)
(2.56381e-15 1.50298 6.12754)
(2.14429e-15 1.60342 6.08481)
(1.73271e-15 1.69966 6.00942)
(1.36378e-15 1.787 5.90589)
(1.05905e-15 1.86131 5.77676)
(8.25189e-16 1.91924 5.62516)
(6.51159e-16 1.95888 5.45705)
(5.04186e-16 1.98034 5.28291)
(3.26038e-16 1.98559 5.11869)
(3.32911e-17 1.97699 4.98533)
(-4.73019e-16 1.95527 4.90611)
(-1.28484e-15 1.91848 4.9015)
(-2.4551e-15 1.8631 4.98177)
(-3.96797e-15 1.7856 5.1399)
(-5.73135e-15 1.68389 5.34913)
(-7.62685e-15 1.56585 5.57156)
(-9.60229e-15 1.4636 5.78067)
(-1.14628e-14 1.37118 5.94514)
(-1.18397e-14 1.01274 5.782)
(-8.05582e-15 0.00554175 4.60768)
(-3.24153e-15 -0.921991 3.37834)
(-1.55103e-15 -1.41594 3.07719)
(-8.96934e-16 -1.72017 2.95941)
(-5.70072e-16 -2.03674 2.86822)
(-2.92482e-16 -2.3723 2.77685)
(3.2732e-17 -2.71314 2.67961)
(3.94709e-16 -3.04888 2.58693)
(7.74916e-16 -3.37019 2.49695)
(1.1735e-15 -3.67333 2.40122)
(1.59179e-15 -3.95461 2.29612)
(2.02209e-15 -4.21067 2.18245)
(2.44918e-15 -4.44134 2.06202)
(2.85395e-15 -4.64781 1.93522)
(3.21213e-15 -4.82983 1.80124)
(3.49383e-15 -4.98535 1.65941)
(3.66708e-15 -5.11262 1.51058)
(3.70784e-15 -5.2098 1.35476)
(3.60257e-15 -5.27673 1.19394)
(3.35501e-15 -5.31367 1.02821)
(2.98843e-15 -5.31191 0.855799)
(2.5416e-15 -5.27085 0.681092)
(2.05015e-15 -5.19657 0.505559)
(1.53208e-15 -5.05917 0.330182)
(1.01407e-15 -4.74339 0.150946)
(5.37989e-16 -4.30289 0.0037356)
(2.01377e-16 -3.7414 -0.136194)
(4.10803e-17 -3.07871 -0.238146)
(-1.80694e-18 -2.49494 -0.328924)
(-3.73882e-18 -1.98911 -0.407168)
(-9.28912e-19 -1.56492 -0.483178)
(1.30274e-20 -1.23914 -0.550391)
(6.7159e-20 -0.987138 -0.606387)
(1.56827e-20 -0.857456 -0.64254)
(-6.79213e-22 -0.736775 -0.664096)
(-1.18855e-21 -0.702485 -0.661156)