/*--------------------------------*- C++ -*----------------------------------*\
| =========                 |                                                 |
| \\      /  F ield         | OpenFOAM: The Open Source CFD Toolbox           |
|  \\    /   O peration     | Version:  4.1                                   |
|   \\  /    A nd           | Web:      www.OpenFOAM.org                      |
|    \\/     M anipulation  |                                                 |
\*---------------------------------------------------------------------------*/
FoamFile
{
    version     2.0;
    format      ascii;
    class       volScalarField;
    location    "5";
    object      p;
}
// * * * * * * * * * * * * * * * * * * * * * * * * * * * * * * * * * * * * * //

dimensions      [0 2 -2 0 0 0 0];

internalField   nonuniform List<scalar> 
225
(
523.365
469.968
418.136
369.725
324.834
282.817
243.462
206.458
171.364
138
107.058
78.9196
49.8907
14.9719
-14.1803
56.931
34.6694
28.9092
25.1985
19.7255
14.0186
8.86565
4.47696
0.993255
-1.46536
-2.65664
-2.15508
-0.058737
1.81281
2.07299
-45.8588
-52.5024
-46.732
-42.5801
-39.4876
-35.8927
-32.0064
-28.069
-24.1644
-20.4487
-17.1038
-14.0375
-10.9612
-8.30868
-7.07413
0.300043
-2.11334
2.48193
2.80223
2.84975
3.0621
2.97133
2.59187
2.0081
1.24836
0.291693
-0.81823
-1.72979
-1.88277
-1.57266
16.7298
14.3933
15.9342
13.8238
12.4004
11.1577
9.74825
8.36687
7.11012
6.02124
5.12387
4.41511
3.9395
3.90669
4.15084
7.43536
5.4047
6.37421
5.16247
4.9743
4.96971
4.88879
4.92839
5.0902
5.33671
5.6563
6.01854
6.33645
6.59127
6.76576
3.96985
2.82017
3.92507
3.62661
4.02779
4.42324
4.71983
5.06841
5.42248
5.74156
6.02359
6.27032
6.44475
6.52485
6.54099
5.73885
5.19271
6.06105
5.83313
6.01566
6.10817
6.11696
6.15121
6.16582
6.15335
6.1253
6.09664
6.06356
6.01828
5.97018
6.05208
5.72337
6.21688
5.91098
5.92512
5.87976
5.8011
5.75427
5.69923
5.64322
5.59141
5.5472
5.50705
5.46415
5.4124
4.62284
4.4019
4.72262
4.52683
4.5989
4.62261
4.62791
4.65052
4.65947
4.6638
4.66394
4.6545
4.63513
4.60083
4.54253
3.20229
3.08279
3.38132
3.34341
3.49151
3.56564
3.61269
3.65748
3.68042
3.69123
3.68982
3.67449
3.64658
3.60625
3.54086
2.3045
2.25407
2.5312
2.56188
2.70379
2.75425
2.78043
2.79973
2.7997
2.78965
2.76922
2.73913
2.70371
2.6639
2.60101
1.61211
1.58675
1.80742
1.83342
1.93042
1.94214
1.94612
1.94825
1.9384
1.92359
1.90328
1.8774
1.84661
1.81217
1.75593
0.94051
0.930337
1.0924
1.08808
1.14704
1.14153
1.14627
1.1534
1.15255
1.14889
1.14068
1.12896
1.10794
1.07826
1.02417
0.470407
0.424516
0.466779
0.416862
0.438366
0.413477
0.409672
0.402819
0.3888
0.371132
0.348925
0.324707
0.297164
0.267712
0.223703
)
;

boundaryField
{
    inletFace
    {
        type            zeroGradient;
    }
    inlet
    {
        type            zeroGradient;
    }
    inletWalls
    {
        type            zeroGradient;
    }
    outletInlet
    {
        type            fixedValue;
        value           uniform 0;
    }
}


// ************************************************************************* //
