/*--------------------------------*- C++ -*----------------------------------*\
| =========                 |                                                 |
| \\      /  F ield         | OpenFOAM: The Open Source CFD Toolbox           |
|  \\    /   O peration     | Version:  4.1                                   |
|   \\  /    A nd           | Web:      www.OpenFOAM.org                      |
|    \\/     M anipulation  |                                                 |
\*---------------------------------------------------------------------------*/
FoamFile
{
    version     2.0;
    format      ascii;
    class       surfaceScalarField;
    location    "5";
    object      phi;
}
// * * * * * * * * * * * * * * * * * * * * * * * * * * * * * * * * * * * * * //

dimensions      [0 3 -1 0 0 0 0];

internalField   nonuniform List<scalar> 
420
(
-949.88
2249.78
-1573.95
1924.27
-2054
1779.94
-2424.23
1670.13
-2699.86
1575.83
-2888.38
1488.42
-2993.06
1404.58
-3013.86
1321
-2949.62
1235.66
-2797.24
1147.52
-2551.17
1054.13
-2193
941.733
-1687.16
794.064
-1012.67
625.703
287.234
373.345
1876.43
442.736
1854.88
437.271
1785.41
406.653
1700.75
380.537
1601.95
359.865
1509.09
345.264
1419.18
337.51
1328.75
333.462
1239.71
326.939
1154.04
309.606
1071.47
267.473
983.872
191.434
870.106
111.448
705.694
398.682
33.6567
1842.79
-97.333
1985.88
-253.551
1941.64
-371.031
1818.24
-473.059
1703.98
-567.381
1603.43
-651.584
1503.39
-725.607
1402.79
-787.869
1301.98
-837.085
1203.28
-867.96
1102.39
-855.858
971.755
-740.177
754.449
-434.278
399.821
-35.5953
28.7009
1814.09
-100.646
2115.27
-225.507
2066.49
-304.333
1897.12
-367.994
1767.63
-416.756
1652.24
-446.046
1532.68
-456.797
1413.6
-451.642
1296.84
-429.941
1181.62
-387.111
1059.52
-311.698
896.47
-192.697
635.545
-48.2578
255.479
-83.8526
169.494
1644.55
146.096
2138.67
123.691
2088.86
122.837
1897.99
126.84
1763.62
135.674
1643.43
148.935
1519.42
166.4
1396.14
186.717
1276.52
207.89
1160.46
228.796
1038.55
243.566
881.793
232.85
646.308
155.268
333.107
71.4149
223.345
1421.23
244.433
2117.55
234.922
2098.41
235.984
1896.87
240.251
1759.38
244.072
1639.54
246.314
1517.2
244.928
1397.46
240.86
1280.61
233.681
1167.58
221.251
1051.06
198.935
903.927
155.944
689.176
78.1356
410.801
149.55
203.535
1217.78
238.442
2082.64
213.565
2123.35
191.215
1919.19
177.062
1773.57
163.67
1652.89
150.037
1530.86
135.927
1411.54
121.197
1295.36
107.112
1181.65
93.1195
1065.09
76.0458
920.956
52.2209
712.969
19.0786
443.911
168.629
171.258
1046.51
221.212
2032.76
198.679
2145.84
169.991
1947.97
151.829
1791.68
137.731
1667.09
122.9
1545.64
108.89
1425.65
95.9197
1308.3
83.5182
1194.12
71.776
1076.77
58.9372
933.905
40.5683
731.399
15.9273
468.608
184.559
145.237
901.15
209.166
1968.88
196.14
2158.74
169.761
1974.45
152.191
1809.15
139.468
1679.96
126.837
1558.17
113.683
1438.94
100.898
1320.95
88.9614
1206.19
76.1275
1089.38
62.552
947.951
44.0491
750.251
19.245
493.732
203.801
116.854
784.153
185.101
1900.56
179.937
2163.83
154.529
1999.8
137.228
1826.42
123.694
1693.42
110.87
1571
98.2486
1451.49
85.3457
1333.91
72.9376
1218.49
61.4648
1101.12
47.9975
960.879
31.7785
766.098
12.2913
512.883
216.09
84.061
700.076
144.091
1840.38
145.479
2162.46
123.032
2022.06
106.138
1843.33
94.054
1705.29
82.1509
1582.92
70.5846
1462.84
59.9377
1344.58
48.9946
1229.24
39.3202
1110.91
29.5398
970.262
17.8441
777.451
4.97895
525.438
221.071
51.5945
648.49
98.0486
1793.86
102.484
2157.99
86.8298
2037.63
72.4899
1857.64
62.4868
1715.22
53.7342
1591.66
44.4864
1472.06
35.8676
1353.15
28.047
1237.08
20.31
1118.54
13.8846
976.952
7.13562
784.468
-0.0386712
532.85
221.03
24.725
623.85
56.926
1761.72
62.6056
2152.35
52.7185
2047.55
43.4221
1866.96
36.0551
1722.62
29.7246
1598
23.9182
1477.89
17.666
1359.44
12.0303
1242.71
7.54173
1123.18
3.13587
981.065
-0.66608
788.025
-3.52024
535.486
217.513
0.461625
623.396
22.7074
1739.55
32.0665
2142.96
26.9546
2052.75
19.9787
1873.91
15.0954
1727.62
9.70631
1603.38
4.92273
1482.8
0.338836
1363.99
-4.44639
1247.63
-8.20081
1126.8
-9.26851
982.548
-9.21488
788.314
-6.61525
533.198
210.899
-12.4234
-3.98047
0.730882
-0.758546
-5.17369
-8.64458
-11.4665
-14.7964
-17.6497
-19.7793
-21.3621
-20.7066
-17.7083
-12.075
)
;

boundaryField
{
    inletFace
    {
        type            calculated;
        value           nonuniform List<scalar> 
450
(
-1.13933e-13
4.14879e-13
7.09787e-15
-6.59974e-14
9.49034e-14
-1.96965e-13
-6.58092e-14
7.277e-14
-1.08707e-13
-4.38206e-14
5.07877e-14
-5.9899e-14
-1.71155e-14
1.63582e-14
1.40537e-15
-2.16113e-12
-2.46766e-12
3.7406e-14
-2.11835e-13
-2.58528e-13
2.60985e-14
-2.81764e-13
-1.30141e-13
1.52981e-14
-8.43869e-14
-5.05164e-14
2.70048e-14
-5.52072e-14
-8.55119e-15
-2.07477e-15
-2.39502e-12
-2.20828e-12
-2.56835e-14
-3.31842e-13
-2.11098e-13
-1.23884e-13
-2.85717e-13
-8.51484e-14
-1.2438e-13
-1.75064e-13
-3.84632e-16
-6.47017e-14
-7.27853e-14
2.26934e-14
5.33648e-15
-2.57646e-12
-1.99973e-12
-1.53477e-13
-6.30821e-13
-1.1261e-13
-2.40717e-13
-4.14031e-13
-1.08369e-13
-2.05722e-13
-2.80697e-13
-4.74005e-14
-8.82053e-14
-1.25221e-13
3.77212e-14
1.17719e-13
-2.37497e-12
-2.06027e-12
-2.88263e-13
-6.03767e-13
-1.55107e-13
-2.38533e-13
-3.90836e-13
-1.12575e-13
-1.50258e-13
-1.8027e-13
-1.60744e-14
-5.67716e-14
-7.72555e-14
-4.57111e-15
8.88474e-14
-2.0808e-12
-2.11551e-12
-4.78801e-13
-4.62082e-13
-1.87297e-13
-1.82118e-13
-3.47198e-13
-9.52794e-14
-8.1415e-14
-1.50344e-13
1.48894e-14
-1.47589e-14
-5.86361e-14
8.35984e-15
4.82713e-14
-1.84953e-12
-2.18227e-12
-6.96045e-13
-4.63486e-13
-2.18407e-13
-2.13875e-13
-3.25963e-13
-1.47701e-13
-1.70969e-13
-1.40605e-13
-5.5361e-14
-7.76183e-14
-2.04532e-14
-6.97474e-14
-2.06591e-13
-1.63654e-12
-2.21768e-12
-9.08648e-13
-4.64945e-13
-2.45239e-13
-2.36144e-13
-3.42985e-13
-2.16848e-13
-1.97436e-13
-1.85355e-13
-1.02673e-13
-1.22294e-13
-9.6369e-14
-3.93926e-14
-2.62903e-13
-1.37787e-12
-2.20539e-12
-1.08401e-12
-4.97945e-13
-2.66635e-13
-2.18071e-13
-3.29432e-13
-2.36183e-13
-1.76712e-13
-1.99065e-13
-1.13865e-13
-1.43522e-13
-1.68703e-13
-4.03429e-14
-6.76434e-14
-1.17939e-12
-2.16141e-12
-1.19458e-12
-5.36091e-13
-2.78948e-13
-2.07485e-13
-2.94234e-13
-2.40095e-13
-1.85777e-13
-1.64579e-13
-1.19308e-13
-1.39796e-13
-4.20895e-14
-3.76979e-14
7.67593e-14
-9.92449e-13
-2.11163e-12
-1.29547e-12
-5.73204e-13
-3.00707e-13
-1.78225e-13
-2.78329e-13
-2.54113e-13
-1.65024e-13
-1.42955e-13
-1.209e-13
-5.22857e-14
3.81698e-14
-1.45419e-14
1.02993e-13
-8.38683e-13
-2.05711e-12
-1.34533e-12
-6.38357e-13
-3.35634e-13
-1.54233e-13
-2.64755e-13
-2.44312e-13
-1.16874e-13
-1.36343e-13
-1.25904e-13
-9.53701e-15
-6.2365e-15
1.0643e-13
1.30043e-13
-7.6999e-13
-1.99739e-12
-1.37576e-12
-6.64744e-13
-3.54472e-13
-1.64853e-13
-2.51479e-13
-2.45379e-13
-1.21305e-13
-1.27246e-13
-1.25419e-13
-8.71747e-15
2.27271e-15
1.19877e-13
1.26476e-13
-7.18673e-13
-1.96071e-12
-1.4182e-12
-6.87458e-13
-3.60232e-13
-1.67537e-13
-2.43678e-13
-2.72727e-13
-1.03031e-13
-1.2749e-13
-1.33865e-13
1.72594e-14
9.92597e-15
1.05289e-13
1.20546e-13
-7.17707e-13
-1.90254e-12
-1.42258e-12
-7.09337e-13
-3.67472e-13
-1.82064e-13
-2.45343e-13
-2.60221e-13
-1.13956e-13
-1.32448e-13
-1.17773e-13
1.1254e-14
1.34898e-14
1.01424e-13
6.83277e-14
1.13933e-13
-4.14879e-13
-7.09787e-15
6.59974e-14
-9.49034e-14
1.96965e-13
6.58092e-14
-7.277e-14
1.08707e-13
4.38206e-14
-5.07877e-14
5.9899e-14
1.71155e-14
-1.63582e-14
-1.40537e-15
2.16113e-12
2.46766e-12
-3.7406e-14
2.11835e-13
2.58528e-13
-2.60985e-14
2.81764e-13
1.30141e-13
-1.52981e-14
8.43869e-14
5.05164e-14
-2.70048e-14
5.52072e-14
8.55119e-15
2.07477e-15
2.39502e-12
2.20828e-12
2.56835e-14
3.31842e-13
2.11098e-13
1.23884e-13
2.85717e-13
8.51484e-14
1.2438e-13
1.75064e-13
3.84632e-16
6.47017e-14
7.27853e-14
-2.26934e-14
-5.33648e-15
2.57646e-12
1.99973e-12
1.53477e-13
6.30821e-13
1.1261e-13
2.40717e-13
4.14031e-13
1.08369e-13
2.05722e-13
2.80697e-13
4.74005e-14
8.82053e-14
1.25221e-13
-3.77212e-14
-1.17719e-13
2.37497e-12
2.06027e-12
2.88263e-13
6.03767e-13
1.55107e-13
2.38533e-13
3.90836e-13
1.12575e-13
1.50258e-13
1.8027e-13
1.60744e-14
5.67716e-14
7.72555e-14
4.57111e-15
-8.88474e-14
2.0808e-12
2.11551e-12
4.78801e-13
4.62082e-13
1.87297e-13
1.82118e-13
3.47198e-13
9.52794e-14
8.1415e-14
1.50344e-13
-1.48894e-14
1.47589e-14
5.86361e-14
-8.35984e-15
-4.82713e-14
1.84953e-12
2.18227e-12
6.96045e-13
4.63486e-13
2.18407e-13
2.13875e-13
3.25963e-13
1.47701e-13
1.70969e-13
1.40605e-13
5.5361e-14
7.76183e-14
2.04532e-14
6.97474e-14
2.06591e-13
1.63654e-12
2.21768e-12
9.08648e-13
4.64945e-13
2.45239e-13
2.36144e-13
3.42985e-13
2.16848e-13
1.97436e-13
1.85355e-13
1.02673e-13
1.22294e-13
9.6369e-14
3.93926e-14
2.62903e-13
1.37787e-12
2.20539e-12
1.08401e-12
4.97945e-13
2.66635e-13
2.18071e-13
3.29432e-13
2.36183e-13
1.76712e-13
1.99065e-13
1.13865e-13
1.43522e-13
1.68703e-13
4.03429e-14
6.76434e-14
1.17939e-12
2.16141e-12
1.19458e-12
5.36091e-13
2.78948e-13
2.07485e-13
2.94234e-13
2.40095e-13
1.85777e-13
1.64579e-13
1.19308e-13
1.39796e-13
4.20895e-14
3.76979e-14
-7.67593e-14
9.92449e-13
2.11163e-12
1.29547e-12
5.73204e-13
3.00707e-13
1.78225e-13
2.78329e-13
2.54113e-13
1.65024e-13
1.42955e-13
1.209e-13
5.22857e-14
-3.81698e-14
1.45419e-14
-1.02993e-13
8.38683e-13
2.05711e-12
1.34533e-12
6.38357e-13
3.35634e-13
1.54233e-13
2.64755e-13
2.44312e-13
1.16874e-13
1.36343e-13
1.25904e-13
9.53701e-15
6.2365e-15
-1.0643e-13
-1.30043e-13
7.6999e-13
1.99739e-12
1.37576e-12
6.64744e-13
3.54472e-13
1.64853e-13
2.51479e-13
2.45379e-13
1.21305e-13
1.27246e-13
1.25419e-13
8.71747e-15
-2.27271e-15
-1.19877e-13
-1.26476e-13
7.18673e-13
1.96071e-12
1.4182e-12
6.87458e-13
3.60232e-13
1.67537e-13
2.43678e-13
2.72727e-13
1.03031e-13
1.2749e-13
1.33865e-13
-1.72594e-14
-9.92597e-15
-1.05289e-13
-1.20546e-13
7.17707e-13
1.90254e-12
1.42258e-12
7.09337e-13
3.67472e-13
1.82064e-13
2.45343e-13
2.60221e-13
1.13956e-13
1.32448e-13
1.17773e-13
-1.1254e-14
-1.34898e-14
-1.01424e-13
-6.83277e-14
)
;
    }
    inlet
    {
        type            calculated;
        value           nonuniform List<scalar> 
15
(
-1299.9
-1300.2
-1299.9
-1299.9
-1300.2
-1299.9
-1299.9
-1300.2
-1299.9
-1299.9
-1300.2
-1299.9
-1299.9
-1300.2
-1299.9
)
;
    }
    inletWalls
    {
        type            calculated;
        value           uniform 0;
    }
    outletInlet
    {
        type            calculated;
        value           nonuniform List<scalar> 
15
(
198.824
527.703
785.466
981.982
1128.46
1249.84
1366.9
1486.23
1606.23
1731.19
1878.36
2054.33
2138.29
1731.18
635.882
)
;
    }
}


// ************************************************************************* //
