/*--------------------------------*- C++ -*----------------------------------*\
| =========                 |                                                 |
| \\      /  F ield         | OpenFOAM: The Open Source CFD Toolbox           |
|  \\    /   O peration     | Version:  4.1                                   |
|   \\  /    A nd           | Web:      www.OpenFOAM.org                      |
|    \\/     M anipulation  |                                                 |
\*---------------------------------------------------------------------------*/
FoamFile
{
    version     2.0;
    format      ascii;
    class       volSymmTensorField;
    location    "13";
    object      R;
}
// * * * * * * * * * * * * * * * * * * * * * * * * * * * * * * * * * * * * * //

dimensions      [0 2 -2 0 0 0 0];

internalField   nonuniform List<symmTensor> 
225
(
(1e-15 -6.61237e-14 9.16764e-14 1e-15 1.14294 0.710525)
(1e-15 5.22664e-19 2.41139e-18 1e-15 2.97596e-05 4.88445e-12)
(1e-15 4.03251e-24 3.1334e-22 1e-15 1.17899e-13 1e-15)
(1e-15 4.06931e-28 3.56724e-26 1e-15 1.31317e-12 1e-15)
(1e-15 -1.66437e-29 2.47293e-30 1e-15 1.37618e-14 1e-15)
(1e-15 1.17311e-27 3.38377e-27 1e-15 1.90783e-14 1e-15)
(1e-15 2.7702e-28 5.30446e-27 1e-15 9.82639e-15 1e-15)
(1e-15 -2.10144e-28 4.94868e-28 1e-15 3.58278e-16 1e-15)
(1e-15 -4.82846e-26 3.34026e-26 1e-15 3.03165e-13 1e-15)
(1.30366e-14 -4.31516e-22 2.6506e-22 1.01049e-14 3.53801e-09 2.51462e-15)
(0.000852537 -3.49984e-16 5.46441e-16 0.000689797 0.00235954 0.000157551)
(0.00446893 -1.84503e-15 1.09138e-14 0.00562944 0.0132268 1e-15)
(0.0125974 2.25301e-14 6.27382e-14 0.0255139 0.0596493 1e-15)
(0.0697241 6.94644e-13 1.6676e-13 0.126906 0.376669 0.105646)
(0.410983 3.54054e-13 -6.57158e-12 0.272863 1.60084 1.63468)
(1e-15 8.10951e-14 5.37539e-15 1e-15 0.0432042 1e-15)
(1e-15 -7.0106e-24 1.74506e-24 1e-15 -2.08441e-09 1e-15)
(1e-15 -9.79534e-23 1.49747e-23 1e-15 1.92035e-13 1e-15)
(0.00528987 -1.64452e-17 2.20186e-17 1e-15 0.000672519 0.00217567)
(1e-15 9.70295e-26 4.70384e-26 1e-15 1.54883e-09 1e-15)
(1e-15 8.94031e-23 1.66936e-22 1e-15 1.39843e-09 1e-15)
(1e-15 1.45845e-23 1.54011e-22 1e-15 5.36298e-10 1e-15)
(1e-15 -2.07348e-23 1.7302e-22 1e-15 3.05914e-12 1e-15)
(1e-15 6.76197e-23 1.38767e-22 1e-15 4.083e-16 1e-15)
(1e-15 7.33248e-23 8.99342e-23 1e-15 9.18211e-17 1e-15)
(1e-15 2.32377e-19 5.90159e-21 1e-15 9.44237e-10 1e-15)
(0.0394474 3.08336e-12 9.43898e-13 0.0488381 0.00383206 0.0584963)
(0.0360697 5.65461e-12 2.3593e-12 0.0553487 0.0157532 0.0353478)
(0.0766285 1.11893e-11 7.76871e-12 0.0896986 0.0304275 0.139712)
(0.319077 1.55814e-11 -1.69433e-12 0.00702352 0.557666 1.11618)
(1e-15 1.35649e-10 1.24768e-11 1e-15 0.0620869 1e-15)
(0.269065 1.31489e-12 -8.58113e-13 0.271212 -0.13819 0.309103)
(1e-15 5.32288e-20 1.9221e-21 1e-15 1.40938e-09 1e-15)
(0.0149533 -6.73797e-18 1.09806e-17 1e-15 0.00360759 1e-15)
(0.0306909 1.9937e-16 2.05503e-16 0.0200915 0.0104361 0.0374241)
(0.0282882 6.02589e-16 2.3903e-16 0.0239815 0.0086379 0.0365829)
(0.0260957 6.38004e-17 6.09682e-16 0.0247502 0.0036606 0.0328925)
(0.0248241 -1.10223e-16 1.01843e-15 0.0245316 -0.00154729 0.0312098)
(0.0217117 5.60173e-16 8.01344e-16 0.0240509 -0.00368719 0.0217266)
(0.0185543 2.39804e-15 7.39064e-16 0.0223666 -0.00477612 0.0117527)
(0.0184741 4.29614e-14 -7.32206e-15 0.0336133 -0.00713989 1e-15)
(0.00723096 -1.76387e-14 -1.07569e-13 0.0118216 -0.0089146 1e-15)
(0.00213344 1.7641e-14 -3.86637e-13 0.00231162 -0.0196738 1e-15)
(0.0792872 1.07586e-12 -4.33695e-12 0.0560325 -0.244998 0.171222)
(0.804615 2.04125e-11 -2.00066e-11 1e-15 -1.0662 3.12509)
(1e-15 1.75068e-10 3.2004e-11 2.6778 8.90415 1e-15)
(3.87925 2.6734e-12 2.19707e-12 4.64805 -8.16456 9.63577)
(1e-15 8.04752e-21 2.20866e-20 1e-15 -1.52795e-09 1e-15)
(1e-15 2.68959e-21 9.58462e-21 1e-15 1.30375e-11 1e-15)
(1e-15 1.43831e-21 6.57586e-22 1e-15 1.16195e-09 1e-15)
(0.0235511 2.4781e-15 7.42984e-16 0.0236239 0.00348262 1e-15)
(0.0296393 1.15292e-15 5.99966e-16 0.0473344 0.00214323 1e-15)
(0.0244311 -1.09533e-15 -1.07536e-16 0.0547886 -0.00306638 1e-15)
(0.0184346 4.84108e-16 1.93618e-15 0.0560886 -0.00692978 1e-15)
(0.0227003 2.01228e-15 4.93481e-15 0.0618587 -0.0150827 1e-15)
(0.0314426 5.46795e-15 1.58234e-14 0.0507462 -0.0169389 0.00775661)
(0.0517931 1.10091e-14 3.19534e-14 0.0479756 0.0106128 0.0919728)
(0.0315368 2.41954e-15 6.82113e-14 0.00747704 0.00593958 0.0403505)
(0.0443367 8.50978e-14 4.33006e-13 1e-15 0.0221384 0.0778659)
(0.164837 5.05982e-12 8.90957e-12 1e-15 -1.38375 0.606282)
(4.90885 1.87059e-10 6.98878e-11 1e-15 11.8657 23.6774)
(7.06135 3.24077e-12 6.89309e-12 7.06914 -1.65071 19.0593)
(3.80404 5.40551e-13 2.88537e-12 5.50828 -0.965562 7.89493)
(2.17058 1.74145e-13 9.97801e-13 3.73909 -1.07643 3.55778)
(1.79718 4.97046e-14 5.58383e-13 3.05247 -0.534683 2.99789)
(1.48755 2.57772e-14 2.98844e-13 2.42017 -0.28833 2.59379)
(1.25606 3.19734e-14 1.80609e-13 1.92575 -1.22829 2.32177)
(0.957057 5.0118e-14 1.06938e-13 1.34884 -0.437585 1.90255)
(0.7364 7.8005e-14 6.4548e-14 0.947019 -0.111652 1.6009)
(0.740274 1.46621e-13 7.05711e-14 0.880243 -0.0598554 1.79798)
(0.885309 2.67828e-13 1.34987e-13 1.05317 0.246237 2.26997)
(0.390454 4.16949e-13 1.80165e-13 0.475876 0.226892 0.92847)
(0.205347 6.47099e-13 1.99517e-13 0.228825 0.0877305 0.46766)
(0.0521639 1.45093e-12 1.24315e-14 0.0634173 0.0700808 0.0948376)
(1e-15 4.633e-12 -1.34156e-13 1e-15 0.748771 1e-15)
(25.1068 3.16011e-10 6.58559e-11 1e-15 13.2063 99.4648)
(3.98767 1.23908e-12 1.89702e-13 1e-15 -1.46298 15.5224)
(1e-15 3.70922e-13 2.40174e-13 3.70632 -0.734793 1e-15)
(1e-15 3.39163e-13 2.24533e-13 3.46365 -0.662897 1e-15)
(0.415555 1.62258e-13 2.32901e-13 3.42372 -0.78537 1e-15)
(0.565648 1.99604e-14 2.37775e-13 1.71532 0.239029 0.0700244)
(0.437811 -6.01866e-14 2.27978e-13 1.29629 0.00035094 0.0622637)
(0.421065 -1.05367e-13 2.22761e-13 1.22843 -0.320741 0.142441)
(0.374646 -8.40541e-14 2.12317e-13 1.069 0.171338 0.188097)
(0.21507 -3.18121e-14 1.78116e-13 0.900586 0.456148 1e-15)
(0.0479276 -2.35238e-15 7.53894e-14 0.794763 0.256157 1e-15)
(0.0910343 1.11077e-14 3.06229e-14 0.480597 0.0671841 1e-15)
(0.0808252 2.759e-14 3.94741e-15 0.166526 -0.0606985 0.0952866)
(0.0117129 -5.01775e-14 -3.95104e-14 0.0765877 -0.0293729 1e-15)
(1e-15 -2.95759e-12 -7.8951e-13 0.23985 0.840632 1e-15)
(1e-15 1.89562e-10 7.70343e-11 1e-15 7.49794 1e-15)
(1.70332 5.51071e-12 2.23384e-11 1e-15 -0.296491 4.85335)
(2.41617 3.34951e-13 9.20327e-12 2.88757 -0.880909 4.12368)
(1e-15 1.54746e-13 3.60176e-12 2.76691 -0.276968 1e-15)
(0.875515 -1.29773e-13 2.27018e-12 5.50902 -0.350903 1e-15)
(1.82921 -2.83358e-13 1.62695e-12 4.32352 1.931 2.0261)
(1.66216 -4.38838e-13 1.3029e-12 2.75086 -0.896983 3.15089)
(1.47154 -4.12837e-13 1.0743e-12 2.14975 -0.991901 3.13986)
(0.735831 -2.49177e-13 8.05335e-13 1.0583 0.498383 1.4471)
(0.33864 -1.59675e-13 5.45644e-13 0.586433 0.249938 0.407068)
(0.0292015 -2.00166e-14 2.07932e-13 0.135181 0.0495933 1e-15)
(0.150266 -5.7923e-15 1.31046e-13 0.278949 0.0444648 0.132423)
(0.213017 2.86504e-14 1.08535e-13 0.201155 0.0230872 0.449209)
(0.188152 5.89823e-14 7.02614e-14 0.211034 -0.0547446 0.336286)
(1e-15 1.36009e-13 7.58249e-14 1e-15 -0.0148577 1e-15)
(0.349035 1.82081e-10 8.93814e-11 1e-15 8.68285 4.25838)
(3.33923 4.12177e-11 4.19635e-12 1e-15 -0.827724 18.2116)
(1.1321 3.80806e-14 3.08697e-13 1.08134 -0.200978 0.734884)
(1e-15 1.42094e-22 9.21298e-22 1e-15 -1.0851e-10 1e-15)
(1e-15 3.67278e-20 3.2528e-20 1e-15 5.75409e-10 1e-15)
(0.437602 1.77442e-13 1.91915e-13 0.0978726 0.193065 1.15638)
(0.553047 2.54735e-13 1.83258e-13 0.295968 0.117114 1.44219)
(0.902925 2.72908e-13 1.59416e-13 0.976244 -0.626482 2.19297)
(0.736783 2.60855e-13 1.35035e-13 0.839092 0.245773 1.71065)
(0.307466 1.72778e-13 7.01974e-14 0.37457 0.183882 0.517048)
(0.0730366 7.28229e-14 2.95311e-14 0.119658 0.0304259 1e-15)
(0.150451 6.69843e-14 1.88442e-14 0.266241 -0.0504379 0.174542)
(0.264543 3.7472e-14 1.17886e-14 0.341272 -0.215318 0.437376)
(0.096178 1.22608e-14 1.56498e-14 1e-15 -0.0472065 0.0920606)
(1e-15 2.2178e-13 5.06307e-14 1e-15 -0.0431629 1e-15)
(1e-15 1.64965e-10 8.02882e-11 1e-15 7.27495 1e-15)
(5.33169 8.79664e-11 4.32656e-11 4.06502 -2.77931 12.5813)
(1e-15 3.71744e-19 8.06363e-20 1e-15 5.05209e-10 1e-15)
(1e-15 8.25542e-20 3.71179e-20 1e-15 -1.26229e-07 1e-15)
(4.41734 6.68453e-13 2.19544e-12 4.6013 -2.12259 11.6591)
(4.02521 7.16181e-13 9.3102e-13 4.18162 -1.54666 10.8518)
(1.02651 4.75839e-13 5.70489e-13 0.4229 -0.324237 2.84189)
(0.906065 3.55454e-13 3.17932e-13 0.545597 -0.121279 2.41952)
(0.750397 2.96802e-13 2.12064e-13 1e-15 -0.0571631 2.49271)
(0.110848 9.79244e-14 3.68124e-14 1e-15 -0.0082831 0.256081)
(0.0530931 2.75629e-14 2.28866e-14 0.0546343 -0.00999185 1e-15)
(0.019668 1.21714e-14 6.04117e-15 0.0266627 -0.0139635 1e-15)
(1e-15 8.36086e-22 3.23581e-22 1e-15 -2.58052e-09 1e-15)
(1e-15 2.29438e-21 6.06831e-22 1e-15 5.55124e-08 1e-15)
(1e-15 3.23215e-13 4.55454e-14 1e-15 4.57378 1e-15)
(1e-15 1.50507e-11 5.12652e-11 1e-15 1.409 1e-15)
(5.34189 1.88144e-11 3.70687e-11 4.41388 -2.36782 11.6873)
(1.75689 8.47049e-12 1.85937e-11 1.26781 -1.92722 2.67219)
(1.22219 4.468e-12 9.36928e-12 0.862725 -0.812092 1.83662)
(1.10873 2.48932e-12 5.46318e-12 0.959826 -0.870748 1.84947)
(0.731182 1.4515e-12 3.21658e-12 0.646601 -0.516367 1.04429)
(0.515581 7.75567e-13 1.72217e-12 0.432842 -0.102878 0.686409)
(0.434879 4.65239e-13 9.04969e-13 0.305126 -0.0915511 0.697957)
(0.560984 2.34103e-13 6.23627e-13 0.310427 -0.16737 1.34322)
(1e-15 7.07746e-21 1.84232e-20 1e-15 -2.6787e-09 1e-15)
(1e-15 2.49768e-21 2.74436e-22 1e-15 -1.31639e-10 1e-15)
(1e-15 3.98779e-22 3.17072e-23 1e-15 -1.50467e-10 1e-15)
(1e-15 4.95195e-26 2.99082e-27 1e-15 1.86437e-13 1e-15)
(1e-15 -4.28407e-23 9.2337e-22 1e-15 2.3364e-10 1e-15)
(8.44186 -8.83419e-13 2.75434e-13 0.34893 5.622 23.2405)
(9.02949 9.35059e-13 -1.20019e-12 1e-15 -4.48783 1e-15)
(3.97084 1.10492e-14 4.39767e-14 1e-15 -0.830206 3.6177)
(2.01197 6.435e-14 5.38037e-14 1.31351 -1.43275 2.61535)
(1.27563 8.05638e-14 4.52375e-14 1.0843 -1.0317 1.66753)
(0.917166 8.40672e-14 5.45318e-14 0.797843 -0.738738 1.18031)
(0.677732 7.40034e-14 4.47026e-14 0.579632 -0.513693 0.851977)
(0.509272 6.5394e-14 2.79171e-14 0.446398 -0.357985 0.632786)
(0.40349 5.73268e-14 1.31361e-14 0.34235 -0.24611 0.528749)
(0.21891 3.07081e-14 4.20408e-15 0.133902 -0.153879 0.130403)
(1e-15 2.37976e-25 -1.66712e-26 1e-15 -3.30452e-08 1e-15)
(1e-15 6.60384e-26 5.05048e-27 1e-15 -5.44379e-12 1e-15)
(1e-15 1.5648e-25 1.65962e-26 1e-15 -3.88319e-14 1e-15)
(1e-15 6.84168e-25 5.2951e-26 1e-15 -1.1637e-14 1e-15)
(1e-15 -3.85908e-23 -1.25795e-21 1e-15 -1.82642e-10 1e-15)
(5.23069 -2.20125e-13 -3.47331e-13 0.334968 3.60809 15.028)
(1e-15 6.30124e-17 1.90408e-18 1e-15 -4.34142 1e-15)
(1e-15 4.94717e-24 5.23438e-25 1e-15 -9.74201e-10 1e-15)
(1e-15 1.89457e-23 -8.52248e-22 1e-15 -1.39338e-08 1e-15)
(1e-15 4.60245e-22 -1.44549e-21 1e-15 2.53423e-08 1e-15)
(1e-15 3.13219e-22 -4.80643e-21 1e-15 1.99604e-08 1e-15)
(1e-15 2.15379e-23 -1.97221e-22 1e-15 2.34003e-09 1e-15)
(1e-15 2.4285e-24 6.18881e-24 1e-15 2.61644e-11 1e-15)
(1e-15 4.6656e-25 1.08027e-24 1e-15 2.16589e-11 1e-15)
(1e-15 9.66359e-26 2.7039e-26 1e-15 -9.25584e-12 1e-15)
(1e-15 9.21138e-26 -2.0408e-26 1e-15 3.57967e-13 1e-15)
(1e-15 4.405e-26 -1.03831e-26 1e-15 1.3387e-14 1e-15)
(1e-15 3.66301e-26 -4.688e-27 1e-15 9.43996e-14 1e-15)
(1e-15 9.19153e-26 1.62078e-26 1e-15 2.63425e-11 1e-15)
(1e-15 -6.94716e-25 -6.93059e-25 1e-15 2.638e-07 1e-15)
(0.146967 -1.67022e-13 -4.84106e-13 1e-15 4.21818 1e-15)
(1e-15 2.00864e-16 2.90561e-18 1e-15 -0.800234 1e-15)
(1e-15 -2.71216e-22 -1.41648e-21 1e-15 -1.33881e-08 1e-15)
(1e-15 -7.41566e-14 -8.61668e-14 12.5558 -0.667391 1e-15)
(1.31446 -1.5545e-13 -1.96196e-13 3.94945 0.733313 1e-15)
(2.22191 -3.2612e-13 -4.06614e-13 2.83005 0.916765 4.44982)
(4.73638 -1.36588e-12 -5.13871e-13 7.95599 2.84666 11.3548)
(1e-15 -4.87347e-20 -2.1674e-21 1e-15 4.26975e-08 1e-15)
(1e-15 5.76168e-25 -4.20589e-26 1e-15 4.48964e-12 1e-15)
(1e-15 4.16047e-25 -3.13475e-26 1e-15 1.12838e-12 1e-15)
(1e-15 3.34679e-25 -2.425e-26 1e-15 1.21734e-12 1e-15)
(1e-15 2.06163e-25 -1.42933e-26 1e-15 1.658e-13 1e-15)
(1e-15 1.38696e-25 -6.26342e-27 1e-15 2.00187e-14 1e-15)
(1e-15 4.11192e-26 -1.0122e-26 1e-15 8.08371e-12 1e-15)
(1e-15 1.12163e-25 -1.40589e-25 1e-15 2.85759e-08 1e-15)
(1e-15 6.98689e-18 -4.31524e-15 1e-15 1.93177 1e-15)
(1e-15 1.45019e-15 6.38395e-16 1e-15 2.59947 1e-15)
(1e-15 8.90958e-24 9.89994e-24 1e-15 2.759e-07 1e-15)
(1e-15 4.05031e-18 5.32299e-18 1e-15 -1.54948e-10 1e-15)
(1e-15 1.67448e-24 2.05791e-25 1e-15 -7.50799e-11 1e-15)
(1e-15 9.03972e-19 1.18802e-18 1e-15 -7.85209e-11 1e-15)
(1e-15 -1.26819e-17 -5.63985e-19 1e-15 4.11823e-11 1e-15)
(1e-15 -2.4945e-18 -1.10934e-19 1e-15 4.44145e-11 1e-15)
(1e-15 6.22176e-25 -1.83121e-26 1e-15 3.20748e-11 1e-15)
(1e-15 5.63254e-25 -1.27521e-26 1e-15 2.376e-11 1e-15)
(1e-15 3.50402e-25 -1.93744e-26 1e-15 1.40275e-11 1e-15)
(1e-15 1.45962e-26 -9.98645e-27 1e-15 1.37315e-12 1e-15)
(1e-15 1.57422e-26 2.32425e-27 1e-15 7.4958e-12 1e-15)
(1e-15 -3.55215e-26 -9.54595e-27 1e-15 4.53152e-10 1e-15)
(1e-15 -6.62648e-26 -3.19943e-26 1e-15 6.62501e-07 1e-15)
(1e-15 6.18825e-18 6.01784e-19 1e-15 1.7362 1e-15)
(6.0731 2.36396e-13 9.71539e-13 2.84502 3.28201 19.2248)
(1e-15 2.3037e-23 3.04179e-23 1e-15 3.86235e-10 1e-15)
(1e-15 7.29275e-17 9.58428e-17 1e-15 -2.79562e-09 1e-15)
(1e-15 4.20644e-17 5.52818e-17 1e-15 -1.62089e-09 1e-15)
(1e-15 1.57301e-17 2.06728e-17 1e-15 -6.06136e-10 1e-15)
(1e-15 -1.35413e-16 -6.02205e-18 1e-15 9.86442e-10 1e-15)
(1e-15 -4.27883e-17 -1.90286e-18 1e-15 3.11699e-10 1e-15)
(1e-15 -1.86349e-17 -8.28725e-19 1e-15 1.39654e-10 1e-15)
(1e-15 -6.58434e-19 -2.92816e-20 1e-15 5.14025e-12 1e-15)
(1e-15 -2.96302e-20 -1.3177e-21 1e-15 2.69864e-13 1e-15)
(1e-15 -2.15096e-22 -9.56394e-24 1e-15 1.35301e-14 1e-15)
(1e-15 -5.72271e-24 -2.40966e-25 1e-15 2.55375e-15 1e-15)
(1e-15 1.46728e-25 2.30056e-26 1e-15 2.89753e-14 1e-15)
(1e-15 9.15405e-26 -1.65532e-27 1e-15 6.05909e-11 1e-15)
(1e-15 8.97802e-17 8.54785e-18 1e-15 0.544854 1e-15)
)
;

boundaryField
{
    inletFace
    {
        type            zeroGradient;
    }
    inlet
    {
        type            fixedValue;
        value           uniform (0.432 0 0 0.432 0 0.432);
    }
    inletWalls
    {
        type            kqRWallFunction;
        value           nonuniform List<symmTensor> 
30
(
(0.410983 -0 -0 0.272863 -0 1.63468)
(0.319077 -0 -0 0.00702352 -0 1.11618)
(0.804615 -0 -0 1e-15 -0 3.12509)
(0.164837 -0 -0 1e-15 -0 0.606282)
(1e-15 -0 -0 1e-15 -0 1e-15)
(1e-15 -0 -0 0.23985 -0 1e-15)
(1e-15 -0 -0 1e-15 -0 1e-15)
(1e-15 -0 -0 1e-15 -0 1e-15)
(1e-15 -0 -0 1e-15 -0 1e-15)
(8.44186 -2.60614e-09 -1.50639e-09 0.34893 -71.0722 23.2405)
(5.23069 -1.27169e-09 -7.34997e-10 0.334968 -45.6988 15.028)
(0.146967 -0 -0 1e-15 -0 1e-15)
(1e-15 -0 -0 1e-15 -0 1e-15)
(1e-15 -0 -0 1e-15 -0 1e-15)
(1e-15 -0 -0 1e-15 -0 1e-15)
(6.0731 2.72066e-09 1.57259e-09 2.84502 61.4161 19.2248)
(1e-15 0 0 1e-15 0 1e-15)
(1e-15 0 0 1e-15 0 1e-15)
(1e-15 0 0 1e-15 0 1e-15)
(9.02949 0 0 1e-15 0 1e-15)
(1e-15 0 0 1e-15 0 1e-15)
(1e-15 0 0 1e-15 0 1e-15)
(0.349035 0 0 1e-15 -0 4.25838)
(1e-15 0 0 1e-15 -0 1e-15)
(25.1068 3.28452e-09 1.8985e-09 1e-15 25.0377 99.4648)
(4.90885 1.77688e-09 1.02698e-09 1e-15 -30.5351 23.6774)
(1e-15 0 0 2.6778 -0 1e-15)
(1e-15 0 0 1e-15 -0 1e-15)
(1e-15 0 0 1e-15 0 1e-15)
(1e-15 0 0 1e-15 0 0.710525)
)
;
    }
    outletInlet
    {
        type            zeroGradient;
    }
}


// ************************************************************************* //
