/*--------------------------------*- C++ -*----------------------------------*\
| =========                 |                                                 |
| \\      /  F ield         | OpenFOAM: The Open Source CFD Toolbox           |
|  \\    /   O peration     | Version:  4.1                                   |
|   \\  /    A nd           | Web:      www.OpenFOAM.org                      |
|    \\/     M anipulation  |                                                 |
\*---------------------------------------------------------------------------*/
FoamFile
{
    version     2.0;
    format      ascii;
    class       volVectorField;
    location    "13";
    object      U;
}
// * * * * * * * * * * * * * * * * * * * * * * * * * * * * * * * * * * * * * //

dimensions      [0 1 -1 0 0 0 0];

internalField   nonuniform List<vector> 
225
(
(1.08249e-08 15030.3 10885.4)
(2.78892e-08 -4402.07 -3371.32)
(3.11515e-08 2681.76 -488.79)
(3.0678e-08 3997.56 -1142.52)
(2.69543e-08 3101.69 -2258.42)
(2.80932e-08 1441.63 -3053.2)
(2.70132e-08 1309.69 -3012.31)
(2.06627e-08 1469.62 -2857.8)
(3.83858e-09 2105.35 -2259.23)
(7.22794e-09 -1489.5 -113.74)
(2.42389e-08 -1313.19 419.558)
(2.94767e-08 -655.488 713.71)
(2.64155e-08 -762.363 836.963)
(2.49625e-08 -455.075 532.848)
(1.85581e-08 -579.615 499.532)
(1.81898e-08 -130.975 548.747)
(3.16635e-08 1687.43 -1560.43)
(3.27683e-08 -565.127 -1749.91)
(3.47201e-08 -546.556 -1641.23)
(3.53943e-08 -588.85 -1255.92)
(3.69014e-08 -718.765 -1286.23)
(3.91675e-08 -435.37 -1721.45)
(4.0605e-08 -165.485 -1865.37)
(3.51581e-08 963.211 -1209.8)
(3.33375e-08 -298.714 10.4102)
(3.6516e-08 -998.615 -109.344)
(3.83443e-08 -292.998 -314.935)
(3.88484e-08 -432.625 -121.412)
(3.62733e-08 -485.807 450.313)
(2.78468e-08 -656.042 707.034)
(2.74046e-08 -1018.33 -820.488)
(4.1211e-08 -151.452 1100.93)
(4.01158e-08 429.428 198.767)
(3.83126e-08 539.665 85.8182)
(3.82775e-08 603.06 262.734)
(3.80419e-08 711.496 353.19)
(3.69006e-08 611.166 251.445)
(3.50257e-08 489.361 230.222)
(3.30405e-08 759.609 716.214)
(3.32331e-08 576.44 1196.72)
(3.0084e-08 -695.121 791.225)
(3.33707e-08 294.256 1011.81)
(4.20306e-08 -30.2069 1310.7)
(3.76116e-08 -565.553 1315.08)
(2.52668e-08 -948.503 2072.8)
(2.49547e-08 -963.274 -189.685)
(3.1841e-08 0.549425 -180.134)
(3.66714e-08 -77.2373 440.888)
(3.58282e-08 -122.632 -74.8013)
(3.53625e-08 57.2419 -400.885)
(3.47799e-08 169.442 -349.947)
(3.39757e-08 365.578 -285.522)
(3.4051e-08 171.027 -772.108)
(3.41114e-08 167.834 -898.274)
(3.32536e-08 337.956 -499.821)
(3.287e-08 202.451 321.209)
(3.43295e-08 -207.26 994.994)
(3.47382e-08 -62.9158 1470.53)
(2.97307e-08 -21.2136 1536.95)
(2.32681e-08 -308.071 2802.85)
(3.72215e-08 -1030.46 -44.0669)
(3.4338e-08 238.17 429.346)
(3.38551e-08 238.353 181.955)
(3.34995e-08 200.943 149.596)
(3.32597e-08 206.88 73.8512)
(3.31296e-08 248.29 31.8243)
(3.2946e-08 295.696 39.8535)
(3.26795e-08 366.068 106.014)
(3.24936e-08 344.159 93.2623)
(3.23112e-08 324.838 285.996)
(3.2432e-08 214.235 376.978)
(3.17146e-08 284.469 492.789)
(2.95615e-08 344.635 200.849)
(2.73379e-08 249.363 455.964)
(1.72384e-08 -224.984 4634.52)
(2.00175e-08 37.0029 131.204)
(3.67405e-08 84.4498 -657.491)
(3.60033e-08 162.516 -546.485)
(3.56474e-08 120.744 -631.654)
(3.56319e-08 -19.5449 -506.518)
(3.58354e-08 -54.5666 -577.09)
(3.59743e-08 27.7383 -626.47)
(3.61778e-08 64.0626 -644.305)
(3.63096e-08 110.99 -618.656)
(3.64679e-08 162.231 -503.975)
(3.66741e-08 222.477 -542.877)
(3.83313e-08 9.15685 -716.38)
(3.7959e-08 285.477 -385.093)
(3.30873e-08 157.214 151.292)
(2.12187e-08 71.2926 5611.46)
(3.20362e-08 -146.834 -1165.97)
(4.00277e-08 783.559 -983.055)
(4.20383e-08 898.16 -119.241)
(4.11612e-08 511.322 217.658)
(4.01926e-08 393.989 501.516)
(4.00835e-08 1050.04 1516.15)
(3.96741e-08 1370.29 2777.08)
(3.86006e-08 815.994 2386.98)
(3.84715e-08 1015.19 1322.83)
(3.83678e-08 1070.47 825.846)
(3.81143e-08 853.363 362.614)
(3.42844e-08 814.844 312.696)
(2.77288e-08 731.115 610.206)
(2.03391e-08 450.156 1389.55)
(1.40768e-08 1045.89 5366.7)
(4.18096e-08 -413.131 -182.887)
(4.04843e-08 713.944 831.955)
(3.79354e-08 800.424 917.38)
(3.85941e-08 808.303 1111)
(3.76186e-08 776.875 931.067)
(3.66271e-08 779.511 801.082)
(3.61281e-08 537.146 544.157)
(3.57475e-08 540.602 465.424)
(3.56156e-08 525.766 355.774)
(3.55911e-08 386.791 238.388)
(3.53435e-08 352.036 203.879)
(3.51694e-08 567.512 -33.7328)
(3.81645e-08 781.582 -578.759)
(3.64325e-08 710.462 -560.139)
(2.22697e-08 666.876 1070.18)
(3.6806e-08 -350.306 771.837)
(4.03848e-08 153.133 366.96)
(3.82518e-08 263.626 240.809)
(3.8583e-08 302.7 167.959)
(3.85326e-08 306.569 127.739)
(3.86525e-08 305.714 187.167)
(3.87877e-08 289.502 152.934)
(3.88372e-08 344.411 123.524)
(3.8873e-08 424.464 66.0353)
(3.94292e-08 488.847 -78.9254)
(4.04557e-08 534.45 -41.4141)
(4.13075e-08 650.471 245.372)
(4.34695e-08 792.134 1562.07)
(4.52482e-08 661.01 920.623)
(4.59852e-08 538.223 581.39)
(2.08458e-08 -394.065 1301.06)
(3.89509e-08 -540.501 905.12)
(4.07264e-08 -314.058 804.042)
(4.04539e-08 -185.836 603.724)
(4.03719e-08 -75.6763 592.554)
(4.14795e-08 12.0078 358.884)
(4.22658e-08 105.23 -82.4174)
(4.20053e-08 225.943 -96.3261)
(4.19135e-08 218.852 -103.557)
(4.20748e-08 250.11 -81.556)
(4.20655e-08 303.881 77.0672)
(4.2141e-08 287.327 82.38)
(4.28475e-08 173.286 168.521)
(4.30348e-08 128.266 686.266)
(4.79558e-08 243.871 1166.84)
(1.88735e-08 -176.873 574.491)
(3.03237e-08 -484.538 806.087)
(3.57745e-08 -467.802 1021.31)
(3.77935e-08 -450.329 965.715)
(3.80623e-08 -343.281 1124.94)
(4.65418e-08 189.454 433.366)
(5.04229e-08 486.529 22.8375)
(5.16295e-08 528.86 -40.1511)
(5.29583e-08 588.055 -48.6133)
(5.55184e-08 697.787 -90.8841)
(5.85461e-08 757.115 -145.65)
(5.98051e-08 738.364 -97.7643)
(6.20988e-08 607.205 13.8496)
(6.23048e-08 595.919 887.735)
(4.18432e-08 681.788 1109.6)
(3.55213e-08 -430.928 769.851)
(4.17939e-08 -266.081 845.355)
(4.01039e-08 -266.939 794.933)
(4.0596e-08 -282.647 901.614)
(4.35414e-08 -311.464 1041.89)
(4.85947e-08 -202.838 445.866)
(5.2033e-08 -132.511 296.611)
(5.58995e-08 -76.7008 237.826)
(6.10942e-08 116.791 -39.1134)
(6.83083e-08 360.847 -395.916)
(7.18926e-08 574.92 -316.295)
(7.30971e-08 811.771 -648.888)
(7.27756e-08 885.303 -1118.93)
(6.27631e-08 866.793 -453.104)
(4.72928e-08 686.321 -52.6582)
(2.80847e-08 -423.749 1007.09)
(3.66785e-08 -147.804 1613.55)
(3.72264e-08 -576.87 348.418)
(3.80984e-08 -330.076 -291.064)
(4.10006e-08 -217.85 303.947)
(4.58968e-08 -136.583 502.942)
(5.07784e-08 -169.479 416.157)
(5.59638e-08 -207.583 444.587)
(6.1857e-08 7.05833 289.586)
(6.76071e-08 -134.195 819.376)
(7.06008e-08 104.928 299.942)
(7.19264e-08 490.862 -436.599)
(6.77164e-08 689.116 -487.09)
(5.85283e-08 642.244 -603.817)
(4.63889e-08 545.061 -13.2661)
(2.61447e-08 -77.6728 835.765)
(3.47377e-08 -192.75 786.191)
(3.59562e-08 -783.021 1099.59)
(3.66104e-08 -515.073 761.517)
(4.13845e-08 -431.913 1147.82)
(4.54121e-08 -359.949 1312.44)
(4.99643e-08 -291.836 1268.3)
(5.43631e-08 -279.259 1267.74)
(5.84917e-08 -293.815 916.839)
(6.23674e-08 -219.519 746.298)
(6.79713e-08 75.3765 130.629)
(7.07152e-08 497.146 -692.821)
(6.81359e-08 704.608 -1102.64)
(5.59132e-08 741.48 -1111.49)
(5.09064e-08 803.051 -388.165)
(5.80684e-08 -540.677 1623.35)
(5.722e-08 -146.479 1195.11)
(5.76982e-08 -35.5666 1006.18)
(6.03885e-08 149.22 675.981)
(6.4633e-08 371.779 483.86)
(6.79047e-08 549.414 315.904)
(7.04709e-08 733.958 155.024)
(7.24661e-08 807.246 -414.463)
(7.36925e-08 869.987 -757.981)
(7.39282e-08 906.727 -978.413)
(7.34644e-08 954.639 -1256.92)
(7.11057e-08 1025.87 -1453.23)
(6.34394e-08 1010.92 -1574.25)
(4.32817e-08 775.616 -1199.45)
(1.30846e-08 256.881 -27.5385)
)
;

boundaryField
{
    inletFace
    {
        type            zeroGradient;
    }
    inlet
    {
        type            fixedValue;
        value           uniform (0 8.7 15);
    }
    inletWalls
    {
        type            noSlip;
    }
    outletInlet
    {
        type            zeroGradient;
    }
}


// ************************************************************************* //
