/*--------------------------------*- C++ -*----------------------------------*\
| =========                 |                                                 |
| \\      /  F ield         | OpenFOAM: The Open Source CFD Toolbox           |
|  \\    /   O peration     | Version:  4.1                                   |
|   \\  /    A nd           | Web:      www.OpenFOAM.org                      |
|    \\/     M anipulation  |                                                 |
\*---------------------------------------------------------------------------*/
FoamFile
{
    version     2.0;
    format      ascii;
    class       surfaceScalarField;
    location    "4";
    object      phi;
}
// * * * * * * * * * * * * * * * * * * * * * * * * * * * * * * * * * * * * * //

dimensions      [0 3 -1 0 0 0 0];

internalField   nonuniform List<scalar> 
13220
(
-888.716
2188.55
-1377.41
1788.84
-1831.97
1754.4
-2175.61
1643.49
-2434.76
1559.31
-2612.23
1477.32
-2709.18
1396.82
-2724.77
1315.76
-2659.07
1234.16
-2516.41
1157.21
-2306.4
1090.17
-2018.36
1011.81
-1591.26
872.739
-960.581
669.452
339.316
37.1525
2151.3
27.6827
1798.19
-63.3397
1845.3
-125.742
1705.77
-192.635
1626.08
-244.394
1528.97
-280.935
1433.25
-299.505
1334.23
-297.511
1232.08
-263.074
1122.68
-176.645
1003.67
-54.1733
889.213
17.0415
801.37
-9.878
696.122
329.418
-164.29
2315.52
-392.652
2026.48
-620.944
2073.53
-789.93
1874.69
-951.471
1787.54
-1082.45
1659.88
-1195.73
1546.45
-1292.91
1431.33
-1361.94
1301.03
-1345.77
1106.35
-1138.48
796.276
-706.004
456.252
-264.223
358.863
-33.2993
463.972
296.12
-79.2268
2394.71
-228.564
2175.77
-348.728
2193.66
-437.61
1963.52
-530.398
1880.29
-605.014
1734.43
-674.14
1615.52
-737.082
1494.18
-796.388
1360.23
-837.375
1147.29
-808.783
767.565
-629.465
277.008
-337.21
66.6501
-25.3467
152.15
270.767
75.4776
2319.22
4.19678
2247.05
-9.0347
2206.88
-12.6757
1967.15
-19.902
1887.5
-21.6514
1736.17
-23.2582
1617.12
-24.3989
1495.34
-35.3286
1371.17
-92.7543
1204.67
-249.108
924.045
-475.492
502.907
-558.219
148.997
-420.658
14.1936
-149.883
154.599
2164.64
116.817
2284.84
141.478
2182.23
173.583
1935.06
209.039
1852.08
245.664
1699.57
286.456
1576.37
329.466
1452.35
370.962
1329.72
382.226
1193.47
300.684
1005.55
73.3678
730.644
-168.709
392.112
-146.38
-7.00206
-296.267
163.919
2000.74
154.348
2294.44
183.584
2153.02
222.685
1895.99
266.099
1808.7
310.051
1655.66
356.175
1530.27
406.072
1402.49
457.302
1278.52
498.289
1152.49
498.229
1005.68
414.117
814.566
252.929
553.071
36.2649
209.345
-259.992
139.257
1861.52
139.61
2294.12
158.976
2133.69
186.067
1868.95
215.539
1779.28
245.923
1625.32
273.921
1502.33
303.791
1372.66
334.764
1247.58
361.291
1126.03
371.042
995.928
341.337
844.549
257.714
637.034
112.938
354.784
-147.053
111.626
1749.93
118.218
2287.56
125.952
2126
138.896
1856.04
157.354
1760.85
173.939
1608.77
189.597
1486.7
204.622
1357.67
219.673
1232.56
233.836
1111.89
241.667
988.139
232.075
854.109
191.978
677.145
110.445
436.39
-36.5951
85.4251
1664.54
110.662
2262.35
120.002
2116.69
128.416
1847.66
150.363
1738.94
166.603
1592.56
182.193
1471.14
192.358
1347.53
197.543
1227.41
200.551
1108.94
199.672
989.042
188.382
865.531
154.976
710.7
83.0371
508.936
46.4467
51.479
1613.09
108.356
2205.51
137.674
2087.4
161.873
1823.49
198.376
1702.47
229.892
1561.07
256.764
1444.29
275.284
1329.04
284.322
1218.4
285.289
1108.01
278.339
996.034
259.916
883.978
215.241
755.433
125.739
598.579
172.188
37.9052
1575.21
144.298
2099.14
232.168
1999.56
294.66
1761.03
351.918
1645.24
403.135
1509.88
445.208
1402.24
481.398
1292.87
502.179
1197.65
507.515
1102.7
491.916
1011.65
438.735
937.219
327.634
866.595
176.618
749.698
348.806
-9.76211
1585
-44.9392
2134.33
-54.4088
2009.05
-56.4777
1763.12
-49.4238
1638.21
-29.3863
1489.85
15.0682
1357.8
64.31
1243.64
126.246
1135.73
210.405
1018.56
347.691
874.386
434.639
850.287
484.33
816.926
354.279
879.777
703.086
320.469
1264.54
361.754
2093.05
272.805
2098.01
153.97
1881.96
55.3321
1736.86
-51.8307
1597.02
-137.846
1443.83
-170.452
1276.26
-168.064
1133.35
-53.5807
904.084
117.309
703.496
-37.4752
1005.07
191.26
588.188
388.536
682.496
1091.62
383.082
1088.59
1512.96
1648.89
1608.71
1434.54
1150.25
809.913
429.724
-148.106
-853.214
-559.411
93.5527
-94.8609
-0.00114279
175.911
-175.914
175.91
175.909
175.907
347.881
-171.975
347.88
347.879
347.878
513.803
-165.926
513.801
513.8
653.463
-139.664
653.462
653.461
653.46
761.615
-108.156
761.614
761.613
830.672
-69.0598
830.67
830.669
830.668
864.064
-33.3967
864.063
864.062
864.061
863.449
0.610059
863.448
863.447
830.693
32.7523
830.692
830.691
830.689
773.564
57.1242
773.562
773.561
683.534
90.0255
683.533
683.531
683.53
564.257
119.272
564.256
564.254
564.253
412.411
151.84
412.41
412.408
269.32
143.086
269.318
269.317
269.316
178.414
90.9005
178.412
178.411
178.409
72.9221
105.486
72.9195
72.9191
-71.0278
143.945
-71.0283
-71.0306
-71.0305
-399.951
328.918
-399.951
-399.954
-1337.97
938.017
-1337.97
-1337.97
-1337.98
-2767.56
1429.59
-2767.57
-2767.56
-2767.57
-4521.06
1753.5
-4521.07
-4521.06
-6297.73
1776.66
-6297.72
-6297.72
-6092.3
-5945.51
-5848.94
-7348.25
1725.64
-7116.68
-6884.25
-6619.81
-6262.24
-5885.47
-5807.76
-6424.3
-7368.27
-10162
2622.94
-9072.1
-8516.6
-9182.07
-9498.41
-9222.68
-8962.96
-8793.58
-8544.19
-10253.6
1924.64
-9975.92
-9696.45
-9446.09
-9156.2
-8864.7
-8574.61
-8278.58
-7990.71
-7710.39
-10423.2
2943.88
-10148.7
-9866.11
-9579.7
-9292.45
-9005.6
-8706.08
-8397.19
-8086.4
-10275.2
2484.76
-9975.25
-9666.92
-9341
-9015.35
-8690.27
-8368.45
-8046.22
-7704.26
-9231.88
1861.28
-8900.27
-8572.73
-8247.66
-7911.84
-7573.59
-7239.68
-6906.6
-6578.99
-7447.98
1200.53
-7114.64
-6786.81
-6461.37
-6138.91
-5820.48
-5492.09
-5171.49
-4856.33
-4553.8
-4393.49
147.454
-4109.7
-3840.83
-3577.17
-3319.45
-3067.17
-2844.61
-2675.59
-2515.34
-1659.55
-688.424
-1502.35
-1350.56
-1350.56
-554.53
-796.019
130.105
-684.635
130.106
747.208
-617.104
747.208
1306.8
-559.596
1789.31
-482.511
1789.31
2219.91
-430.599
2625.12
-405.214
2625.12
2984.79
-359.671
2984.79
3336.83
-352.043
3686.67
-349.84
3686.67
4014.25
-327.577
4014.25
4334.16
-319.917
4653.3
-319.138
4653.3
4974.05
-320.752
5283.2
-309.147
5283.2
5610.21
-327.014
5610.21
5939.5
-329.29
6246.33
-306.831
6246.33
6569.89
-323.56
6569.89
6903.81
-333.914
7207.63
-303.824
7207.63
7532.19
-324.562
7819.36
-287.172
7819.36
8126.82
-307.459
8126.82
8448.53
-321.707
8733.54
-285.011
8733.54
9041.9
-308.354
9041.9
9365.14
-323.24
9647.13
-281.995
9647.13
9972.73
-325.595
10251.1
-278.344
10251.1
10563.8
-312.749
10563.8
10897.1
-333.258
11179.6
-282.546
11179.6
11496.7
-317.104
11496.7
11833.4
-336.633
12111.1
-277.695
12111.1
12440.9
-329.869
12696.9
-255.933
12696.9
12986.2
-289.393
12986.2
13288.6
-302.373
13510.2
-221.546
13510.2
13766
-255.801
13766
14037.5
-271.503
14230.9
-193.44
14230.9
14491.4
-260.499
14671.9
-180.511
14671.9
14911.3
-239.344
14911.3
-288.631
-493.804
-2276.49
-504.879
-2913.65
-514.214
-3270.39
-523.046
-3640.28
-531.263
-3983.81
-538.791
-4310.71
-546.66
-4626.16
-554.864
-4933.68
-562.694
-5231.83
-569.234
-5511.77
-574.191
-5763.61
-578.002
-5972.27
-582.01
-6129.64
-587.096
-6258.56
-592.687
-6369.56
-598.344
-6429.37
-604.018
-6420.68
-609.378
-6336.17
-614.001
-6180.91
-617.819
-5959.01
-620.798
-5674.69
-622.62
-5346.52
-622.784
-4968.94
-620.63
-4522.41
-607.754
-3967.76
-542.004
-3069.19
-361.534
-1201.01
-171.59
1545.23
-67.5119
3710.27
-21.65
5505.86
35.3935
7000.88
102.139
8264.73
169.634
9645.22
237.061
11402
290.589
13241.1
288.787
14455.6
297.537
16018.5
415.463
19701.1
405.535
20969.3
292.794
21266.6
240.837
25243
188.939
30434.7
105.434
34127.5
-14.6795
36195.4
-176.55
33876.5
-417.14
29033.2
-449.675
17436.6
-1237.11
-12040.7
-2227.62
-13092.2
-2419.2
-10905.9
-2143.19
-13470.5
-1699.35
-14442.1
-909.678
-12271.5
-48.5057
-4393.98
456.301
13967.1
923.066
19576
1296.27
19571.4
1563.29
17927.5
1699.34
16303.8
1744.05
13902.4
1745.41
10777.1
1725.99
7468.18
1693.86
4300.84
1653.13
1257.41
1603.6
-1864.73
1560.45
-4809.37
1525.29
-7503.53
1482.8
-9819.66
1419.12
-11652
1341.15
-12957.7
1265.74
-13724.8
1195.57
-13988.1
1113.51
-13888.5
1004.01
-13606.6
863.44
-13301.2
695.471
-13119.6
514.693
-13233.9
385.883
-13700.5
-14730.6
-524.676
-2271.96
-534.014
-2904.32
-543.203
-3261.21
-552.558
-3630.92
-561.825
-3974.55
-570.325
-4302.21
-578.929
-4617.56
-587.679
-4924.93
-595.728
-5223.78
-601.912
-5505.59
-606.009
-5759.52
-609.136
-5969.14
-613.42
-6125.36
-619.94
-6252.04
-627.907
-6361.59
-636.738
-6420.54
-646.256
-6411.16
-655.819
-6326.61
-664.729
-6172
-672.694
-5951.04
-679.511
-5667.87
-684.705
-5341.33
-687.225
-4966.42
-685.337
-4524.3
-669.817
-3983.28
-601.728
-3137.28
-406.592
-1396.15
-179.386
1318.02
-49.5765
3580.46
-5.31793
5461.6
49.3642
6946.2
116.906
8197.19
184.614
9577.51
252.038
11334.6
305.307
13187.9
304.822
14456.1
313.605
16009.7
422.624
19592
409.039
20982.9
297.194
21378.4
241.666
25298.6
183.519
30492.8
92.7211
34218.3
-40.3235
36328.4
-205.572
34041.7
-502.38
29330
-459.203
17393.5
-1425.19
-11074.7
-2443.89
-12073.5
-2630.78
-10719
-2314.45
-13786.8
-1841.14
-14915.4
-1069.57
-13043.1
-248.086
-5215.46
551.135
13167.9
1023.68
19103.4
1354.29
19240.7
1601.46
17680.3
1716.78
16188.5
1740.44
13878.8
1727.96
10789.6
1700.43
7495.71
1662.35
4338.92
1620.18
1299.58
1574.37
-1818.92
1543.14
-4778.14
1527.37
-7487.76
1508.64
-9800.93
1466.96
-11610.3
1402.54
-12893.2
1331.1
-13653.4
1259.8
-13916.8
1175.18
-13803.9
1062.22
-13493.6
918.904
-13157.9
747.822
-12948.6
555.266
-13041.3
371.387
-13516.6
-14598.5
-547.685
-2269.28
-555.005
-2897
-563.615
-3252.59
-572.982
-3621.56
-582.872
-3964.66
-592.186
-4292.89
-601.433
-4608.31
-610.562
-4915.8
-618.655
-5215.69
-624.412
-5499.83
-627.757
-5756.17
-630.543
-5966.36
-635.591
-6120.31
-643.978
-6243.66
-654.711
-6350.86
-667.117
-6408.14
-680.829
-6397.45
-694.841
-6312.6
-708.15
-6158.69
-720.032
-5939.16
-729.943
-5657.96
-737.389
-5333.88
-741.056
-4962.75
-738.281
-4527.08
-718.411
-4003.15
-643.586
-3212.11
-445.912
-1593.82
-196.122
1068.23
-39.7354
3424.07
8.04774
5413.82
64.6744
6889.58
133.671
8128.19
202.533
9508.65
271.299
11265.8
326.139
13133
327.353
14454.8
332.849
16004.2
436.265
19488.6
419.308
20999.9
304.128
21493.6
243.368
25359.3
177.452
30558.7
75.7889
34320
-69.2467
36473.4
-259.649
34232.1
-561.708
29632.1
-549.739
17381.5
-1586.78
-10037.6
-2562.64
-11097.7
-2719.08
-10562.6
-2331.26
-14174.6
-1795.28
-15451.4
-1149.98
-13688.4
-255.377
-6110.07
733.738
12178.8
1193.22
18644
1478.13
18955.8
1675.46
17483
1733.58
16130.4
1710.77
13901.6
1669.91
10830.4
1628.33
7537.29
1586.1
4381.15
1548.96
1336.71
1517.89
-1787.85
1506.63
-4766.87
1514.19
-7495.32
1519.81
-9806.55
1499.23
-11589.7
1447.8
-12841.8
1380.76
-13586.3
1309.46
-13845.5
1223.85
-13718.3
1108.78
-13378.5
962.296
-13011.4
788.916
-12775.2
591.533
-12843.9
397.834
-13322.9
-14381.2
-571.054
-2267.75
-577.037
-2891.01
-585.223
-3244.41
-594.617
-3612.16
-605.13
-3954.14
-615.375
-4282.65
-625.476
-4598.21
-635.213
-4906.07
-643.575
-5207.32
-649.119
-5494.29
-651.946
-5753.34
-654.72
-5963.58
-661.09
-6113.94
-672.229
-6232.52
-686.894
-6336.19
-704.242
-6390.79
-723.556
-6378.14
-743.326
-6292.83
-762.188
-6139.83
-778.806
-5922.54
-792.182
-5644.58
-801.83
-5324.23
-806.183
-4958.4
-801.878
-4531.38
-777.752
-4027.28
-696.929
-3292.93
-495.231
-1795.52
-227.714
800.717
-47.4047
3243.76
19.3583
5347.05
80.7108
6828.22
152.007
8056.9
222.641
9438.01
293.86
11194.6
350.819
13076.1
353.819
14451.8
356.559
16001.5
453.75
19391.4
433.59
21020.1
314.28
21612.9
246.464
25427.1
171.662
30633.5
57.7358
34433.9
-100.977
36632.2
-320.386
34451.6
-627.347
29939.1
-660.349
17414.5
-1766.73
-8931.24
-2714.43
-10150
-2826.87
-10450.2
-2342.44
-14659
-1720.55
-16073.3
-1132.58
-14276.4
-170.081
-7072.57
992.201
11016.5
1429.97
18206.2
1644.58
18741.2
1755.18
17372.4
1736.45
16149.1
1664.79
13973.2
1603.19
10892
1558.36
7582.12
1521.34
4418.17
1492.16
1365.89
1474.64
-1770.33
1482.17
-4774.4
1511.58
-7524.74
1539.85
-9834.82
1539.39
-11589.3
1500.84
-12803.3
1438.04
-13523.5
1365.82
-13773.3
1277.8
-13630.3
1159.37
-13260.1
1008.65
-12860.7
831.243
-12597.8
628.164
-12640.8
433.197
-13128
-14208.5
-593.536
-2267.09
-598.498
-2886.05
-606.318
-3236.59
-615.693
-3602.79
-626.763
-3943.07
-637.993
-4271.42
-649.121
-4587.08
-659.665
-4895.52
-668.49
-5198.5
-674.006
-5488.77
-676.558
-5750.79
-679.737
-5960.4
-688.125
-6105.55
-703.046
-6217.59
-722.951
-6316.29
-746.714
-6367.03
-773.08
-6351.77
-799.895
-6266.01
-825.376
-6114.35
-847.393
-5900.52
-864.364
-5627.61
-875.842
-5312.75
-880.069
-4954.17
-873.115
-4538.34
-843.768
-4056.62
-756.446
-3380.25
-550.117
-2001.85
-270.59
521.19
-63.2383
3036.41
32.3832
5251.43
97.7829
6762.82
172.736
7981.94
246.192
9364.56
321.106
11119.7
380.823
13016.4
385.719
14446.9
385.739
16001.4
476.047
19301.1
452.167
21043.9
327.8
21737.3
251.486
25503.5
166.352
30718.7
38.46
34561.8
-136.002
36806.6
-385.479
34701
-703.249
30256.8
-784.963
17496.2
-1957.49
-7758.71
-2866.21
-9241.23
-2921.75
-10394.6
-2318.02
-15262.8
-1582.42
-16808.9
-989.975
-14868.8
-22.4845
-8040.06
1325.76
9668.24
1733.66
17798.3
1842.96
18631.9
1839.16
17376.2
1736.09
16252.2
1616.49
14092.8
1535.68
10972.8
1487.71
7630.09
1455.89
4449.99
1436.53
1385.25
1434.68
-1768.49
1461.92
-4801.64
1512.99
-7575.81
1563.38
-9885.21
1583.01
-11608.9
1557.59
-12777.8
1498.87
-13464.8
1425.03
-13699.4
1333.64
-13538.9
1210.92
-13137.4
1054.94
-12704.7
872.774
-12415.6
664.541
-12432.6
442.725
-12906.1
-13959.2
-615.655
-2267.04
-619.856
-2881.85
-627.365
-3229.08
-636.691
-3593.46
-648.236
-3931.53
-660.448
-4259.21
-672.747
-4574.78
-684.336
-4883.93
-693.897
-5188.94
-699.68
-5482.99
-702.344
-5748.13
-706.534
-5956.21
-717.857
-6094.23
-737.833
-6197.62
-764.54
-6289.58
-796.402
-6335.17
-831.397
-6316.77
-866.575
-6230.83
-899.685
-6081.24
-927.647
-5872.56
-948.152
-5607.11
-960.793
-5300.11
-963.751
-4951.21
-952.801
-4549.29
-917.298
-4092.13
-823.599
-3473.95
-612.769
-2212.68
-319.953
228.375
-77.8089
2794.26
50.5504
5123.07
115.501
6697.87
195.819
7901.62
274.014
9286.36
354.03
11039.7
417.162
12953.2
423.864
14440.2
420.689
16004.6
503.757
19218.1
475.543
21072.1
344.843
21868
258.626
25589.7
161.738
30815.5
18.1455
34705.4
-173.926
36998.7
-454.233
34981.3
-786.676
30589.3
-925.151
17634.7
-2156.49
-6527.37
-3021.31
-8376.41
-3012.84
-10403.1
-2275.08
-16000.5
-1394.46
-17689.5
-684.551
-15578.7
261.615
-8986.23
1723.78
8206.08
2102.15
17419.9
2073.1
18661
1935.08
17514.2
1743.91
16443.3
1575.73
14261
1475.05
11073.5
1424.09
7681.06
1398.37
4475.71
1389.83
1393.79
1403.77
-1782.43
1450.16
-4848.03
1521.61
-7647.26
1592.64
-9956.23
1631.48
-11647.8
1618.97
-12765.3
1564.16
-13410
1487.99
-13623.3
1392.18
-13443.1
1264.15
-13009.4
1101.84
-12542.4
913.784
-12227.6
700.923
-12219.7
491.418
-12696.6
-13739.3
-637.373
-2267.44
-640.989
-2878.23
-648.252
-3221.82
-657.538
-3584.18
-669.495
-3919.57
-682.654
-4246.05
-696.234
-4561.2
-709.122
-4871.05
-719.767
-5178.29
-726.24
-5476.52
-729.578
-5744.79
-735.601
-5950.19
-751.023
-6078.81
-777.582
-6171.06
-812.879
-6254.28
-854.659
-6293.38
-899.913
-6271.52
-944.72
-6186.03
-986.3
-6039.66
-1020.54
-5838.32
-1044.28
-5583.37
-1057.14
-5287.26
-1057.38
-4950.97
-1040.85
-4565.82
-998.056
-4134.92
-898.01
-3574
-683.317
-2427.37
-374.811
-80.1313
-92.2538
2511.71
71.0137
4959.81
133.582
6635.3
220.558
7814.65
306.259
9200.66
393.053
10952.9
460.076
12886.2
468.307
14432
461.413
16011.5
536.75
19142.7
503.665
21105.2
365.427
22006.2
267.837
25687.3
157.892
30925.5
-2.89816
34866.2
-214.165
37210
-525.94
35293.1
-876.209
30939.5
-1082.84
17841.3
-2356.56
-5253.65
-3170.46
-7562.51
-3089.44
-10484.1
-2207.08
-16882.9
-1165.24
-18731.4
-260.974
-16483
671.514
-9918.71
2178.22
6699.37
2533.8
17064.3
2338.83
18855.9
2050.01
17803
1767.3
16726.1
1548.04
14480.3
1424.79
11196.8
1369.58
7736.27
1349.93
4495.35
1352.93
1390.8
1383.08
-1812.58
1448.12
-4913.07
1538.44
-7737.58
1628.32
-10046.1
1685.15
-11704.6
1685.07
-12765.3
1633.77
-13358.7
1554.44
-13544
1452.98
-13341.6
1318.55
-12874.9
1148.98
-12372.8
953.933
-12032.5
735.523
-12001.3
489.978
-12451.1
-13505.1
-658.77
-2268.16
-661.952
-2875.05
-669.029
-3214.74
-678.296
-3574.91
-690.612
-3907.26
-704.666
-4231.99
-719.606
-4546.27
-734.056
-4856.59
-746.216
-5166.13
-753.969
-5468.76
-758.796
-5739.96
-767.776
-5941.21
-788.768
-6057.82
-823.715
-6136.11
-869.58
-6208.42
-923.154
-6239.81
-980.249
-6214.43
-1035.78
-6130.49
-1086.36
-5989.08
-1126.9
-5797.78
-1153.29
-5556.98
-1165.11
-5275.44
-1160.97
-4955.11
-1137.17
-4589.62
-1085.96
-4186.13
-979.651
-3680.3
-761.406
-2645.62
-435.597
-405.94
-118.405
2194.52
82.1714
4759.23
152.612
6564.86
246.533
7720.73
342.754
9104.44
438.408
10857.2
509.793
12814.8
519.201
14422.6
508.062
16022.7
574.892
19075.9
536.358
21143.8
389.511
22153.1
279.044
25797.7
154.744
31049.8
-24.5798
35045.5
-256.593
37442
-600.428
35637
-972.124
31311.2
-1253.93
18123.1
-2550.87
-3956.71
-3304.84
-6808.54
-3139.14
-10649.8
-2096.78
-17925.2
-883.642
-19944.5
239.67
-17606.3
1174.97
-10854
2688.81
5185.54
3028.62
16724.5
2646.87
19237.7
2191.13
18258.8
1811.85
17105.3
1537.17
14755
1387.77
11346.2
1327.15
7796.88
1314.02
4508.48
1329.22
1375.6
1375.59
-1858.95
1458.23
-4995.7
1565.33
-7844.68
1671.74
-10152.5
1744.69
-11777.5
1756.09
-12776.7
1707.73
-13310.3
1624.2
-13460.4
1515.69
-13233.1
1373.63
-12732.9
1195.94
-12195.1
993.364
-11829.9
769.52
-11777.5
522.781
-12204.3
-13203.9
-679.879
-2269.1
-682.74
-2872.19
-689.692
-3207.79
-698.973
-3565.63
-711.614
-3894.61
-726.515
-4217.09
-742.876
-4529.9
-759.157
-4840.31
-773.344
-5151.95
-783.17
-5458.94
-790.618
-5732.52
-804.064
-5927.77
-832.471
-6029.41
-877.888
-6090.7
-936.424
-6149.88
-1003.6
-6172.64
-1073.91
-6144.11
-1140.96
-6063.44
-1200.6
-5929.45
-1247.03
-5751.35
-1275.18
-5528.82
-1284.47
-5266.14
-1274.14
-4965.45
-1241.46
-4622.3
-1180.88
-4246.71
-1068.5
-3792.69
-847.182
-2866.94
-503.57
-749.552
-166.172
1857.12
74.7111
4518.35
174.199
6465.38
274.36
7620.57
383.185
8995.62
490.048
10750.4
566.552
12738.3
576.887
14412.3
560.92
16038.6
618.244
19018.6
573.58
21188.4
417.094
22309.5
292.217
25922.6
152.243
31189.8
-46.8712
35244.6
-301.239
37696.3
-677.65
36013.4
-1074.62
31708.2
-1433.41
18481.9
-2731.49
-2658.64
-3412.91
-6127.12
-3147.05
-10915.7
-1922.38
-19149.9
-523.69
-21343.2
766.91
-18896.9
1720.09
-11807.2
3254.63
3650.99
3589.97
16389.2
3009.61
19818.1
2368.56
18899.8
1883.86
17590
1547.52
15091.3
1367.88
11525.8
1300.77
7863.98
1294.49
4514.77
1322.31
1347.77
1384.57
-1921.2
1483.19
-5094.32
1604.4
-7965.89
1724.46
-10272.6
1811.09
-11864.2
1832.5
-12798.1
1786.12
-13264
1696.93
-13371.2
1579.52
-13115.7
1428.51
-12581.8
1242.05
-12008.7
1031.39
-11619.3
802.599
-11548.7
567.997
-11969.7
-12938.3
-700.727
-2270.16
-703.366
-2869.55
-710.257
-3200.9
-719.603
-3556.28
-732.563
-3881.65
-748.275
-4201.38
-766.109
-4512.07
-784.492
-4821.93
-801.306
-5135.13
-814.238
-5446.01
-825.833
-5720.92
-845.728
-5907.87
-883.824
-5991.31
-942.048
-6032.47
-1015.36
-6076.57
-1097.7
-6090.29
-1182.21
-6059.61
-1261.07
-5984.58
-1329.23
-5861.28
-1380.6
-5699.98
-1409.35
-5500.07
-1414.48
-5261.02
-1396.23
-4983.7
-1353.38
-4665.15
-1282.83
-4317.26
-1164.72
-3910.8
-941.135
-3090.52
-580.079
-1110.61
-232.203
1509.24
51.6559
4234.49
199.898
6317.13
305.983
7514.48
427.56
8874.04
547.53
10630.4
630.253
12655.6
641.591
14400.9
620.264
16060
666.906
18971.9
615.328
21240
448.196
22476.7
307.356
26063.4
150.402
31346.7
-69.6826
35464.7
-348.003
37974.7
-757.439
36422.8
-1183.29
32134.1
-1614.64
18913.3
-2890.55
-1382.73
-3486.35
-5531.32
-3103.28
-11298.7
-1668.62
-20584.6
-53.1149
-22958.7
1345.6
-20295.6
2304.26
-12765.9
3871.04
2084.21
4224.05
16036.2
3446.85
20595.3
2597.71
19748.9
1992.08
18195.7
1585.18
15498.2
1370.61
11740.4
1295.6
7939
1296.16
4514.2
1336.84
1307.1
1414.16
-1998.53
1526.29
-5206.45
1658.25
-8097.85
1788.6
-10402.9
1885.81
-11961.4
1915.09
-12827.4
1869.07
-13217.9
1772.15
-13274.3
1643.65
-12987.2
1482.23
-12420.4
1286.54
-11813
1067.69
-11400.4
833.494
-11314.5
567.06
-11703.3
-12660.6
-721.349
-2271.27
-723.849
-2867.05
-730.75
-3194
-740.237
-3546.8
-753.552
-3868.34
-770.068
-4184.87
-789.427
-4492.71
-810.185
-4801.17
-830.317
-5115
-847.661
-5428.66
-865.404
-5703.18
-894.293
-5878.98
-944.804
-5940.8
-1018.34
-5958.94
-1108.38
-5986.53
-1207
-5991.67
-1306.05
-5960.56
-1396.38
-5894.25
-1471.84
-5785.82
-1526.55
-5645.27
-1554.41
-5472.22
-1553.84
-5261.59
-1526.32
-5011.22
-1472.54
-4718.93
-1391.86
-4397.94
-1268.57
-4034.09
-1043.93
-3315.16
-666.577
-1487.96
-306.82
1149.48
22.5886
3905.08
230.759
6108.96
344.378
7400.86
477.184
8741.23
610.724
10496.9
700.438
12565.9
713.178
14388.2
686.198
16086.9
720.906
18937.2
661.532
21299.4
482.786
22655.4
324.437
26221.8
149.247
31521.9
-92.9034
35706.9
-396.705
38278.5
-839.63
36865.7
-1297.23
32591.7
-1790.91
19406.9
-3024.89
-148.74
-3526.3
-5029.91
-3009.15
-11815.9
-1336.11
-22257.6
541.463
-24836.3
2030.37
-21784.5
2998.83
-13734.3
4552.06
530.981
4940.33
15647.9
3985.12
21550.5
2901.94
20832.1
2149.88
18947.7
1659.03
15989
1403.09
11996.3
1317.91
8024.18
1325.11
4507
1378.64
1253.57
1469.32
-2089.21
1591.38
-5328.52
1730.09
-8236.56
1866.79
-10539.6
1970.78
-12065.4
2004.89
-12861.5
1956.75
-13169.8
1849.37
-13166.9
1707.2
-12845
1533.87
-12247.1
1328.69
-11607.8
1102.42
-11174.2
863.351
-11075.4
595.615
-11435.6
-12320.9
-741.785
-2272.37
-744.219
-2864.62
-751.208
-3187.01
-760.943
-3537.06
-774.698
-3854.58
-792.061
-4167.5
-813.015
-4471.76
-836.447
-4777.74
-860.692
-5090.76
-884.062
-5405.29
-910.501
-5676.74
-951.548
-5837.93
-1017.62
-5874.73
-1109
-5867.56
-1217.31
-5878.22
-1332.64
-5876.34
-1445.72
-5847.48
-1546.31
-5793.66
-1627.15
-5704.97
-1682.92
-5589.51
-1708.01
-5447.13
-1700.6
-5268.99
-1663.25
-5048.58
-1598.51
-4783.67
-1508.14
-4488.3
-1380.5
-4161.73
-1156.48
-3539.18
-764.942
-1879.5
-383.738
768.279
-3.52118
3524.86
267.877
5837.57
391.151
7277.59
533.449
8598.94
679.939
10350.4
776.613
12469.2
791.157
14373.6
758.548
16119.5
780.159
18915.6
712.022
21367.5
520.733
22846.7
343.39
26399.1
148.777
31716.5
-116.452
35972.1
-447.209
38609.2
-924.17
37342.7
-1414.89
33082.4
-1953.65
19945.7
-3132.43
1030.04
-3542.3
-4620.04
-2874.56
-12483.6
-936.574
-24195.6
1253.83
-27026.7
2864.33
-23395
3868.5
-14738.5
5326.31
-926.836
5751.76
15222.5
4656.69
22645.5
3315.86
22173
2378.17
19885.4
1781.92
16585.3
1474.53
12303.7
1375.59
8123.12
1388.84
4493.75
1454.61
1187.79
1555.6
-2190.19
1682.89
-5455.81
1823.81
-8377.47
1962.38
-10678.2
2068.45
-12171.4
2103.25
-12896.3
2049.47
-13116
1928.27
-13045.7
1769.58
-12686.3
1582.76
-12060.3
1367.98
-11393
1135.01
-10941.2
891.919
-10832.3
632.214
-11175.9
-12018.6
-762.069
-2273.41
-764.507
-2862.18
-771.676
-3179.84
-781.785
-3526.95
-796.117
-3840.25
-814.432
-4149.19
-837.108
-4449.08
-863.569
-4751.28
-892.862
-5061.46
-924.22
-5373.93
-962.51
-5638.45
-1019.53
-5780.92
-1104.64
-5789.61
-1216.17
-5756.03
-1343.62
-5750.77
-1475.11
-5744.85
-1600.57
-5722.02
-1709.12
-5685.11
-1792.66
-5621.43
-1846.62
-5535.56
-1866.85
-5426.89
-1852.03
-5283.81
-1805.27
-5095.34
-1730.51
-4858.43
-1631.6
-4587.21
-1500.85
-4292.48
-1279.87
-3760.15
-878.068
-2281.31
-462.367
352.579
-39.1161
3101.61
293.452
5505
443.624
7127.42
596.028
8446.53
754.81
10191.6
858.276
12365.7
874.883
14357
836.863
16157.6
844.457
18908
766.555
21445.4
561.815
23051.4
364.1
26596.9
148.968
31931.6
-140.266
36261.3
-499.424
38968.4
-1011.12
37854.4
-1535.19
33606.5
-2106.3
20516.8
-3224.82
2148.56
-3544.36
-4300.5
-2707.28
-13320.7
-481.589
-26421.3
2062.98
-29571.3
3864.32
-25196.4
4952.33
-15826.5
6230.48
-2204.99
6676.93
14776
5498.79
23823.7
3887.23
23784.5
2708.6
21064
1972.17
17321.7
1597.35
12678.5
1478.88
8241.59
1496.33
4476.29
1572.34
1111.78
1678.99
-2296.83
1805.92
-5582.75
1944.13
-8515.68
2079.48
-10813.6
2181.92
-12273.9
2211.91
-12926.3
2147.85
-13052
2008.89
-12906.8
1830.61
-12508.1
1628.66
-11858.3
1404.2
-11168.6
1165.37
-10702.3
918.37
-10585.3
635.46
-10893
-11660.8
-782.237
-2274.35
-784.738
-2859.68
-792.189
-3172.39
-802.811
-3516.33
-817.89
-3825.17
-837.335
-4129.74
-861.949
-4424.47
-891.908
-4721.32
-927.394
-5025.98
-969.106
-5332.22
-1023.03
-5584.52
-1100.41
-5703.54
-1208.16
-5681.86
-1341.65
-5622.55
-1488.12
-5604.3
-1633.96
-5599.01
-1768.76
-5587.22
-1881.67
-5572.2
-1964.34
-5538.76
-2013.29
-5486.61
-2026.66
-5413.52
-2004.37
-5306.1
-1949.58
-5150.12
-1866.8
-4941.21
-1761.33
-4692.68
-1629.29
-4424.51
-1414.87
-3974.57
-1010.4
-2685.78
-547.628
-110.193
-106.065
2660.05
284.476
5114.46
500.243
6911.65
667.435
8279.34
836.753
10022.3
945.343
12257.2
963.634
14338.7
920.514
16200.7
913.494
18915
824.856
21534.1
605.774
23270.5
386.442
26816.2
149.811
32168.3
-164.254
36575.4
-553.242
39357.4
-1100.58
38401.7
-1658.07
34163.9
-2257.53
21116.3
-3319.16
3210.2
-3543.17
-4076.49
-2506.94
-14356.9
27.0859
-28955.3
2944.6
-32488.8
5028.48
-27280.2
6250.93
-17048.9
7302.7
-3256.76
7741.45
14337.3
6553.03
25012.1
4676.72
25660.8
3187.98
22552.8
2257.78
18251.9
1790.28
13146
1641.68
8390.19
1658.16
4459.81
1739.66
1030.28
1845.76
-2402.94
1966.37
-5703.35
2096.79
-8646.11
2223.13
-10939.9
2314.91
-12365.7
2333.02
-12944.4
2252.89
-12971.8
2091.78
-12745.7
1890.67
-12306.9
1671.79
-11639.4
1437.52
-10934.3
1193.75
-10458.6
943.46
-10335.1
673.352
-10622.9
-11324.1
-802.341
-2275.17
-804.942
-2857.08
-812.767
-3164.56
-824.045
-3505.05
-840.063
-3809.15
-860.883
-4108.92
-887.775
-4397.58
-921.88
-4687.22
-964.998
-4982.86
-1019.9
-5277.32
-1093.83
-5510.59
-1196.36
-5601.02
-1330.14
-5548.07
-1486.5
-5466.2
-1650.54
-5440.25
-1807.46
-5442.1
-1947.02
-5447.66
-2059.32
-5459.9
-2136.7
-5461.38
-2177.31
-5446.01
-2181.99
-5408.84
-2152.42
-5335.67
-2091.55
-5210.99
-2003.58
-5029.18
-1894.42
-4801.85
-1763.72
-4555.21
-1560.51
-4177.79
-1163.1
-3083.19
-646.115
-627.176
-193.094
2207.03
245.981
4675.38
554.321
6603.31
753.87
8079.79
932.093
9844.06
1039.37
12149.9
1056.86
14321.3
1008.83
16248.7
986.946
18936.9
886.672
21634.3
652.362
23504.8
410.322
27058.2
151.343
32427.3
-188.262
36915
-608.472
39777.6
-1192.48
38985.7
-1783.81
34755.3
-2412.89
21745.4
-3428.88
4226.19
-3550.64
-3954.74
-2268.05
-15639.5
601.659
-31825
3889.98
-35777.1
6343.09
-29733.4
7738.72
-18444.6
8571.55
-4089.59
8969.77
13939
7852.04
26129.8
5748.27
27764.6
3880.3
24420.7
2682.3
19449.9
2082.47
13745.9
1883.17
8589.5
1886.13
4456.85
1964.2
952.213
2062.38
-2501.12
2170.99
-5811.96
2288.52
-8763.64
2399.2
-11050.6
2471.74
-12438.2
2469.13
-12941.8
2365.95
-12868.6
2177.86
-12557.6
1950.58
-12079.7
1712.83
-11401.7
1468.41
-10689.9
1219.97
-10210.1
965.536
-10080.6
661.722
-10319
-10979.5
-822.461
-2275.85
-825.165
-2854.37
-833.419
-3156.31
-845.486
-3492.98
-862.656
-3791.98
-885.161
-4086.42
-914.819
-4367.92
-953.975
-4648.06
-1006.56
-4930.28
-1078.02
-5205.86
-1176.81
-5411.8
-1309.29
-5468.54
-1471.78
-5385.58
-1650.57
-5287.41
-1829.16
-5261.66
-1992.28
-5278.97
-2130.52
-5309.42
-2236.09
-5354.33
-2303.11
-5394.36
-2331.8
-5417.32
-2325.73
-5414.9
-2288.63
-5372.77
-2223.44
-5276.18
-2133.49
-5119.13
-2024.33
-4911.01
-1898.51
-4681.03
-1712.1
-4364.19
-1332.09
-3463.2
-759.976
-1199.29
-274.938
1721.99
182.887
4217.56
575.868
6210.33
847.535
7808.12
1044.1
9647.49
1143.16
12050.8
1154.99
14309.4
1101.37
16302.3
1064.55
18973.7
951.822
21747.1
701.404
23755.3
435.706
27323.9
153.677
32709.3
-212.038
37280.7
-664.824
40230.4
-1286.53
39607.4
-1912.51
35381.2
-2576.59
22409.4
-3560.65
5210.26
-3572.11
-3943.28
-1995.09
-17216.6
1251.51
-35071.6
4920.66
-39446.2
7796.29
-32609
9415.57
-20063.8
10066.4
-4740.47
10375.8
13629.7
9397.95
27107.6
7150.32
30012.3
4862.57
26708.5
3310.46
21002
2517.74
14538.6
2228.32
8878.91
2192.35
4492.82
2252.76
891.801
2335.2
-2583.56
2426.92
-5903.67
2526.41
-8863.13
2613.82
-11138
2656.92
-12481.3
2623
-12907.8
2488.6
-12734.2
2268.33
-12337.3
2011.47
-11822.8
1752.82
-11143
1497.63
-10434.7
1244.85
-9957.35
985.269
-9821.04
674.609
-10008.4
-10587.4
-842.687
-2276.37
-845.483
-2851.58
-854.176
-3147.62
-867.136
-3480.02
-885.688
-3773.43
-910.264
-4061.84
-943.353
-4334.83
-988.791
-4602.62
-1053.16
-4865.91
-1145.11
-5113.91
-1273.85
-5283.06
-1440.56
-5301.83
-1633.01
-5193.12
-1832.04
-5088.38
-2020.36
-5073.34
-2183.24
-5116.09
-2312.92
-5179.74
-2404.99
-5262.26
-2456.15
-5343.2
-2468.78
-5404.69
-2448.91
-5434.77
-2402.43
-5419.25
-2333.08
-5345.53
-2243.59
-5208.62
-2138.51
-5016.1
-2022.07
-4797.46
-1858.99
-4527.28
-1510.33
-3811.86
-891.794
-1817.83
-339.922
1170.12
112.366
3765.27
546.065
5776.63
912.703
7441.48
1157.57
9402.63
1256.77
11951.6
1259.86
14306.3
1198.36
16363.8
1146.19
19025.9
1020.25
21873
752.833
24022.7
462.646
27614.1
157.02
33014.9
-235.215
37673
-721.858
40717
-1382.32
40267.9
-2044.18
36043.1
-2749.52
23114.8
-3705.92
6166.65
-3599.39
-4049.81
-1705.34
-19110.6
1957.21
-38734.2
6049.67
-43538.7
9373.26
-35932.6
11288.4
-21979
11832.4
-5284.52
11969.4
13492.7
11145.8
27931.3
8876.16
32281.8
6189.93
29394.7
4206.86
22985.1
3141.41
15604
2702.48
9317.84
2588.08
4607.23
2610.87
869.002
2669.66
-2642.34
2740.41
-5974.43
2816.6
-8939.33
2872.29
-11193.7
2874.39
-12483.4
2797.13
-12830.6
2622.39
-12559.5
2364.44
-12079.4
2074.66
-11533
1793
-10861.4
1526.11
-10167.8
1268.27
-9699.51
1002.36
-9555.12
698.047
-9704.07
-10222.6
-863.105
-2276.7
-865.996
-2848.69
-875.111
-3138.5
-889.03
-3466.1
-909.203
-3753.26
-936.325
-4034.72
-973.725
-4297.43
-1027.07
-4549.27
-1106.12
-4786.87
-1223.01
-4997.02
-1386.72
-5119.35
-1590.73
-5097.81
-1812.3
-4971.55
-2027.17
-4873.51
-2218.54
-4881.97
-2373.4
-4961.24
-2486.81
-5066.33
-2558.61
-5190.46
-2588.33
-5313.48
-2579.97
-5413.05
-2541.38
-5473.36
-2480.76
-5479.88
-2403.89
-5422.39
-2314.44
-5298.07
-2216.34
-5114.2
-2114.07
-4899.73
-1981.35
-4660
-1682.95
-4110.26
-1048.19
-2452.58
-396.965