/*--------------------------------*- C++ -*----------------------------------*\
| =========                 |                                                 |
| \\      /  F ield         | OpenFOAM: The Open Source CFD Toolbox           |
|  \\    /   O peration     | Version:  4.1                                   |
|   \\  /    A nd           | Web:      www.OpenFOAM.org                      |
|    \\/     M anipulation  |                                                 |
\*---------------------------------------------------------------------------*/
FoamFile
{
    version     2.0;
    format      ascii;
    class       volVectorField;
    location    "4";
    object      U;
}
// * * * * * * * * * * * * * * * * * * * * * * * * * * * * * * * * * * * * * //

dimensions      [0 1 -1 0 0 0 0];

internalField   nonuniform List<vector> 
6785
(
(3.16053e-14 -0.575696 16.0377)
(4.05598e-14 -6.49425 12.395)
(-1.13988e-14 -4.75214 12.7266)
(1.54681e-14 -4.23713 12.497)
(3.41951e-15 -3.64764 12.3245)
(-9.58444e-16 -3.19699 12.0989)
(1.3254e-14 -2.83353 11.8366)
(2.17318e-15 -2.57121 11.5168)
(-2.26029e-15 -2.40261 11.1251)
(1.32529e-14 -2.28306 10.6822)
(1.75078e-15 -2.20555 10.2317)
(-1.16475e-15 -2.40935 9.69925)
(1.14171e-14 -2.96695 9.01346)
(-6.10585e-16 -2.27395 8.68654)
(-1.65134e-14 1.15252 7.63271)
(6.78863e-14 -7.20715 25.7059)
(4.34657e-14 -16.5552 21.5086)
(-8.62531e-15 -11.6346 21.8674)
(4.0968e-14 -11.8912 20.4652)
(3.09856e-15 -10.9951 19.4523)
(8.07693e-15 -10.313 18.3838)
(3.5929e-14 -9.60871 17.3043)
(2.33969e-15 -8.91817 16.2031)
(1.26268e-14 -8.29452 15.1336)
(3.7657e-14 -7.80413 14.2488)
(1.19204e-14 -7.41437 13.6174)
(2.89227e-14 -7.12327 12.9027)
(7.29806e-14 -6.97605 11.5463)
(-2.10865e-16 -5.97472 9.04721)
(-2.39025e-14 -1.70482 3.66447)
(3.0372e-14 -10.13 27.467)
(3.86972e-14 -17.4166 24.028)
(-1.0452e-14 -11.719 24.4314)
(-2.45546e-15 -12.4202 22.3345)
(6.12716e-15 -10.8557 21.2006)
(-2.62841e-15 -9.96508 19.7729)
(-7.64003e-15 -8.95663 18.4084)
(5.92821e-15 -8.00114 17.0316)
(-4.91738e-15 -7.0068 15.5545)
(-1.99966e-14 -5.85947 13.7199)
(-1.90927e-14 -4.66583 11.4472)
(-4.29804e-14 -4.05364 9.46485)
(-4.66479e-14 -4.53013 8.79882)
(-4.33597e-15 -5.08084 8.30195)
(-5.13883e-14 -2.55165 4.21824)
(4.80338e-14 -11.5153 27.385)
(1.54809e-14 -17.132 24.1794)
(4.70528e-15 -11.8023 24.63)
(-1.18763e-14 -13.0531 22.0586)
(-1.15711e-14 -11.1045 21.0286)
(1.3658e-14 -10.4579 19.3912)
(-1.75628e-14 -9.42779 18.016)
(-1.16809e-14 -8.56243 16.6126)
(-6.99759e-16 -7.52218 14.9933)
(-4.19646e-14 -5.87216 12.2745)
(-6.9928e-14 -3.10516 7.38588)
(-5.39333e-14 0.0914312 1.61937)
(-3.51317e-14 0.907301 0.238794)
(6.80647e-14 -1.06175 3.25124)
(5.37372e-14 -1.58935 3.99984)
(3.53539e-14 -12.0741 27.2125)
(-1.60779e-14 -17.551 25.2563)
(-9.97719e-15 -12.3648 25.2161)
(-2.40518e-14 -13.9735 22.4588)
(-4.87693e-14 -11.8264 21.5681)
(-6.43157e-15 -11.4396 19.8257)
(-3.08888e-14 -10.4509 18.474)
(-5.82423e-14 -9.69097 17.0874)
(-3.38905e-14 -8.82596 15.6266)
(-4.95905e-14 -7.50756 13.4391)
(-1.19945e-13 -5.06009 9.41952)
(-1.31967e-13 -0.980923 3.24443)
(-1.56328e-13 3.14414 -1.2243)
(-6.96587e-15 3.48776 -2.6297)
(1.83122e-13 0.898972 -1.341)
(5.01865e-14 -12.0252 25.9302)
(-7.33709e-15 -17.7781 26.2066)
(7.37154e-15 -12.8957 25.3358)
(-2.13254e-14 -14.1795 22.5345)
(-3.72683e-14 -12.1954 21.6)
(5.2799e-15 -11.8094 19.8474)
(-2.14612e-14 -10.8968 18.4429)
(-4.86128e-14 -10.1521 17.0245)
(-8.71124e-15 -9.408 15.6177)
(-2.6717e-14 -8.4819 13.9446)
(-7.14207e-14 -7.01262 11.4217)
(-5.54487e-14 -4.5306 7.57408)
(-1.07486e-13 -1.08716 3.1897)
(1.15584e-13 2.56262 -1.23225)
(2.73692e-13 1.07474 -3.71467)
(8.55673e-14 -11.632 24.0028)
(1.70436e-14 -17.601 26.4847)
(3.91295e-14 -13.1048 25.0134)
(-1.67288e-14 -13.9477 22.1131)
(-1.81441e-14 -12.1131 21.1176)
(5.88531e-14 -11.6922 19.3595)
(-6.78341e-15 -10.7887 17.9179)
(-1.11004e-14 -10.0249 16.4621)
(3.83215e-14 -9.29689 15.0431)
(9.45192e-17 -8.51009 13.5705)
(-1.83168e-14 -7.5295 11.7555)
(3.39527e-14 -6.01275 9.2671)
(-1.93347e-14 -3.9367 5.94281)
(-1.03746e-13 -1.06418 1.89301)
(-2.39386e-13 0.500476 -2.93618)
(5.77043e-14 -11.151 22.2051)
(2.44808e-14 -17.2589 26.4934)
(3.57447e-14 -13.1422 24.7004)
(-1.31635e-14 -13.6392 21.6872)
(-1.59721e-14 -11.8425 20.6729)
(4.07212e-14 -11.4281 18.8994)
(-2.32301e-16 -10.4701 17.4672)
(-2.17016e-14 -9.68538 15.9877)
(2.82424e-14 -8.92247 14.5554)
(6.12246e-15 -8.14119 13.1465)
(-5.38859e-15 -7.31372 11.6014)
(2.1863e-14 -6.1806 9.7181)
(-1.57735e-14 -4.69935 7.11105)
(-6.67607e-14 -2.35323 3.6097)
(-6.38306e-13 0.0649201 -1.99589)
(5.54824e-14 -10.71 20.7608)
(2.63861e-14 -16.8933 26.4599)
(5.81853e-15 -13.2062 24.5572)
(-1.24479e-15 -13.3868 21.4563)
(-1.51012e-14 -11.6069 20.4115)
(-4.42095e-15 -11.2063 18.6366)
(7.3527e-15 -10.1955 17.2264)
(-1.6331e-14 -9.39535 15.7237)
(-2.48674e-14 -8.59039 14.2732)
(2.65196e-15 -7.78176 12.8724)
(-1.1366e-15 -6.98901 11.4211)
(-5.36573e-14 -6.00495 9.80925)
(6.72609e-15 -4.81195 7.62476)
(-2.73424e-14 -2.7691 4.61137)
(-6.75423e-13 -0.180008 -1.1694)
(2.53346e-14 -10.3286 19.5966)
(2.3964e-14 -16.469 26.292)
(-1.8676e-15 -13.3439 24.4837)
(-2.44509e-14 -13.1788 21.3544)
(-2.07604e-14 -11.4981 20.1854)
(-2.31672e-14 -11.0503 18.4598)
(-2.41315e-14 -10.0645 17.0479)
(-1.69682e-14 -9.25937 15.5567)
(-4.6247e-14 -8.44468 14.1191)
(-6.03918e-14 -7.62067 12.7235)
(-8.44765e-15 -6.82278 11.3)
(-9.65638e-14 -5.8895 9.80616)
(-7.18761e-14 -4.85604 7.88051)
(-7.12578e-15 -3.00058 5.25943)
(-3.95667e-13 -0.24876 -0.707488)
(-2.79938e-14 -10.0571 18.7743)
(3.22798e-14 -15.9638 25.88)
(-5.69633e-14 -13.4359 24.3244)
(-3.35827e-14 -12.9981 21.2534)
(-8.27213e-15 -11.4783 19.9083)
(-7.57348e-14 -10.9446 18.2541)
(-5.60446e-14 -10.0951 16.8788)
(-1.50003e-15 -9.35195 15.5157)
(-1.19758e-13 -8.58369 14.1655)
(-6.98471e-14 -7.79249 12.8199)
(5.52378e-15 -7.01865 11.4592)
(-1.38083e-13 -6.15515 10.0787)
(-9.82209e-14 -5.2612 8.41093)
(-1.87887e-13 -3.71914 6.32628)
(-4.0535e-13 -1.33347 1.15995)
(-2.49603e-14 -10.0622 18.1631)
(4.97413e-14 -15.2926 24.8248)
(-1.02798e-13 -13.3146 23.6505)
(-3.53232e-14 -12.8004 20.5963)
(1.70245e-14 -11.3377 19.1507)
(-1.1078e-13 -10.8301 17.5659)
(-5.96586e-14 -10.0189 16.2738)
(3.74516e-14 -9.3921 14.9905)
(-7.55904e-14 -8.75529 13.7748)
(-8.51455e-14 -8.10053 12.5783)
(-1.07606e-14 -7.42655 11.3866)
(-1.05866e-13 -6.69844 10.2186)
(-8.01323e-14 -5.93763 8.95535)
(-1.54986e-13 -4.67224 7.46654)
(-2.9556e-13 -2.46842 2.84737)
(-3.71371e-14 -10.6674 19.1701)
(3.63326e-14 -14.6107 24.2976)
(-8.32017e-14 -12.6996 23.1745)
(-4.85748e-14 -12.3765 20.7698)
(1.15048e-14 -10.8862 19.5251)
(-1.15195e-13 -10.3315 17.857)
(-4.9348e-14 -9.30493 16.5174)
(9.40181e-14 -8.74677 15.2443)
(-9.66466e-14 -8.25822 14.3214)
(-8.49806e-14 -7.92245 13.3703)
(1.06268e-14 -7.74687 12.4378)
(-1.10902e-13 -7.73402 11.8374)
(-7.15973e-14 -7.49945 11.3641)
(-6.09156e-14 -6.81057 10.1077)
(-2.18021e-13 -4.90893 5.77102)
(-8.11572e-14 -9.75691 16.9993)
(9.18699e-15 -15.0988 24.6039)
(-7.66343e-14 -13.1506 22.7813)
(-7.58554e-14 -11.839 19.444)
(-1.82209e-14 -10.2019 17.7729)
(-9.16037e-14 -9.44093 16.0471)
(-4.06527e-14 -8.07491 14.4253)
(2.71362e-14 -7.14909 13.1844)
(-1.25411e-13 -6.03356 11.7583)
(-1.46552e-13 -5.24015 10.0774)
(-1.71439e-13 -5.09684 7.93236)
(-1.77056e-13 -4.59438 8.12909)
(-1.11246e-13 -5.31995 7.88982)
(-8.71342e-14 -7.19792 11.3452)
(-1.77165e-13 -6.43919 12.1582)
(-8.86777e-14 -7.1506 15.3527)
(-4.56394e-14 -15.1111 25.148)
(-5.36141e-14 -16.8104 26.7929)
(-6.77045e-14 -16.52 25.0555)
(-6.0537e-14 -15.0281 23.105)
(-5.8734e-14 -13.0226 21.015)
(-4.6216e-14 -11.2993 18.5686)
(-5.5115e-14 -9.42214 15.5212)
(-9.91652e-14 -6.90478 12.9107)
(-1.6148e-13 -4.62823 9.75005)
(-2.39332e-13 -5.40288 11.3032)
(-1.57951e-13 -18.8761 20.1011)
(-1.1541e-13 -21.0205 6.99431)
(-1.34282e-13 -19.4381 10.6259)
(-1.10851e-13 -8.82103 16.0999)
(-6.89704e-16 -0.0144475 -0.056744)
(-7.63862e-15 0.134457 -0.795081)
(-4.51863e-15 0.184592 -0.608444)
(-2.43945e-15 0.252344 -0.376834)
(-1.26974e-15 0.226033 -0.1805)
(-5.20242e-15 0.446142 -0.491292)
(-3.36051e-15 0.430891 -0.329124)
(-2.3932e-15 0.487992 -0.281873)
(-3.93052e-15 0.455298 -0.187465)
(4.51559e-14 0.710451 -0.448578)
(4.15611e-14 0.668371 -0.218674)
(3.31738e-14 0.671421 -0.147562)
(2.94882e-14 0.982651 -0.348018)
(1.61938e-14 0.819542 -0.179095)
(1.1531e-14 0.906159 -0.134692)
(8.44573e-15 0.834289 -0.0783979)
(4.23841e-15 1.19054 -0.200739)
(7.26436e-15 0.98591 -0.0408081)
(5.50823e-15 0.990072 0.00825267)
(4.83078e-15 1.3654 -0.0252793)
(2.84002e-15 1.05548 0.0546144)
(9.70888e-16 1.15276 0.0790807)
(4.99403e-15 1.04534 0.0988098)
(4.55416e-15 1.49533 0.12186)
(3.39049e-15 1.10879 0.15563)
(4.42967e-15 1.18924 0.169225)
(-4.61072e-15 1.08889 0.173106)
(-6.76775e-15 1.50594 0.246663)
(-7.62278e-15 1.11967 0.240233)
(-5.2801e-15 1.11831 0.217685)
(-5.46849e-15 1.50776 0.328974)
(-9.1788e-15 1.07588 0.262239)
(-6.65412e-15 1.14961 0.230384)
(-1.03047e-14 1.0493 0.200464)
(-1.22649e-14 1.47368 0.354258)
(-8.33709e-15 1.00759 0.288139)
(-6.86098e-15 1.00991 0.229045)
(-8.16695e-15 1.37665 0.437214)
(-4.59929e-15 0.902075 0.304217)
(-4.53605e-15 0.955803 0.231821)
(1.81845e-15 0.866102 0.182823)
(1.54246e-15 1.28846 0.480564)
(1.89638e-15 0.753795 0.300028)
(1.58074e-15 0.783609 0.19598)
(1.00796e-15 0.727599 0.154784)
(1.94411e-15 1.10246 0.574062)
(-7.30212e-15 0.529573 0.299723)
(-4.75101e-15 0.556418 0.28913)
(-5.04805e-15 0.90382 0.821014)
(7.34159e-15 0.365257 0.150935)
(4.13752e-15 0.390003 -0.0149833)
(2.92767e-15 0.369502 0.119094)
(3.701e-15 0.863591 0.776567)
(3.28316e-15 0.239936 -0.0985334)
(3.83672e-15 0.261918 -0.364955)
(1.74097e-14 0.343745 -0.26085)
(1.43034e-14 0.722466 0.187116)
(8.14958e-15 0.0215215 -0.597392)
(-7.09151e-16 0.309258 -0.499517)
(9.21944e-15 0.481395 -0.974922)
(9.41261e-15 -0.156416 -1.37549)
(1.16289e-14 -0.0223975 -1.15669)
(2.11956e-14 0.217228 -0.785079)
(6.06809e-14 0.111826 -1.2484)
(1.93866e-15 -0.563853 -0.17766)
(-1.14813e-14 -0.158465 0.8955)
(-3.07713e-14 -0.682578 2.95615)
(-2.59185e-14 -1.57013 3.11508)
(-2.19401e-14 -1.59861 3.36442)
(-2.81176e-14 -1.40183 3.89169)
(-4.65796e-14 -2.78387 6.3637)
(-3.85238e-14 -3.36524 5.66407)
(-4.046e-14 -3.5917 6.14465)
(-4.22882e-14 -3.55143 6.3937)
(-5.93948e-14 -6.25438 9.76249)
(-4.25576e-14 -5.75196 7.58858)
(-4.6291e-14 -5.33874 7.81023)
(-6.39823e-14 -8.98496 11.1399)
(-4.53787e-14 -7.06022 7.53886)
(-4.52773e-14 -6.92074 7.68248)
(-5.5981e-14 -9.17128 10.5352)
(-5.18012e-14 -9.15592 10.4837)
(-5.19302e-14 -9.84889 10.9572)
(-4.99895e-14 -15.7557 12.4961)
(-5.89764e-14 -6.54516 13.421)
(-6.8717e-14 -7.0347 15.4192)
(-6.90607e-14 -6.8942 16.076)
(-6.81704e-14 -7.11785 16.7869)
(-6.90332e-14 -10.1277 17.2478)
(-7.06135e-14 -16.1196 16.3015)
(-7.15331e-14 -17.5988 11.8454)
(-6.78077e-14 -3.2795 4.42484)
(-4.39957e-14 -14.4909 -2.12547)
(-6.45929e-14 -9.7517 12.2953)
(-6.62165e-14 -15.1965 15.4836)
(-6.84479e-14 -19.1773 15.2495)
(-7.20669e-14 -14.0854 12.1946)
(-6.71525e-14 -11.5513 13.3209)
(-6.2812e-14 -13.0778 13.6006)
(-6.83416e-14 -14.2771 13.6454)
(-7.83799e-14 -12.1514 13.9933)
(-6.17712e-14 -16.9451 14.5365)
(-6.88765e-14 -12.3005 14.6319)
(-6.92366e-14 -11.6025 14.8548)
(-6.86134e-14 -12.2159 15.0494)
(-7.00082e-14 -11.7212 15.253)
(-6.87554e-14 -11.6737 15.5724)
(-6.3827e-14 -11.5366 16.099)
(-5.9343e-14 -11.6361 16.7737)
(-4.9761e-14 -11.7654 17.6143)
(-3.75219e-14 -11.4752 18.3232)
(1.44743e-16 -11.9243 20.5353)
(-1.87808e-14 -12.5046 19.8708)
(-1.5953e-14 -12.4071 20.1149)
(-1.53192e-14 -12.4279 20.2225)
(-1.53721e-14 -12.5416 20.351)
(-1.56665e-14 -12.591 20.4297)
(-1.28697e-14 -12.7102 20.6057)
(-1.0812e-14 -12.6721 20.508)
(-1.07241e-14 -12.703 20.2817)
(-1.21579e-15 -11.2169 19.901)
(-1.14449e-14 -12.1334 20.0589)
(-1.04332e-14 -12.0892 20.1573)
(-9.29195e-15 -12.1125 20.259)
(-9.51986e-15 -12.0772 20.069)
(-1.02475e-14 -12.1187 19.9211)
(-1.1119e-14 -12.1069 19.7335)
(-1.21943e-14 -12.0237 19.5666)
(-1.39997e-14 -12.1933 19.5633)
(-5.3873e-15 -9.86979 16.8629)
(-7.87786e-15 -10.6917 18.4819)
(-8.71619e-15 -10.6042 18.1608)
(-9.97555e-15 -10.5421 17.9957)
(-1.16881e-14 -10.5293 17.9256)
(-1.24606e-14 -10.4706 17.5909)
(-1.30151e-14 -10.3566 17.2016)
(-1.36909e-14 -10.2599 16.8135)
(-1.40321e-14 -10.347 16.3046)
(-3.15167e-15 -7.59984 12.6239)
(-8.10219e-15 -8.48456 15.4488)
(-7.2371e-15 -8.24556 14.8391)
(-6.84289e-15 -8.23825 14.6139)
(-6.12262e-15 -8.06992 14.2319)
(-5.087e-15 -7.98373 13.833)
(-2.98067e-15 -7.83891 13.4145)
(-3.97871e-15 -7.66843 12.6334)
(-4.18744e-15 -7.41327 11.7602)
(-4.80714e-15 -7.36845 10.5555)
(1.42231e-15 -3.93011 4.56307)
(-8.6571e-15 -5.22495 9.23744)
(-8.18567e-15 -4.77098 7.89491)
(-8.01222e-15 -4.84166 7.47971)
(-8.17207e-15 -4.4909 6.66998)
(-9.35101e-15 -4.36562 5.7113)
(-1.38275e-14 -4.08768 3.86436)
(-2.11294e-14 -3.72131 1.89518)
(-2.70301e-14 -3.62182 1.23781)
(-1.75775e-14 -1.58544 -3.05545)
(-1.17364e-14 -2.09395 0.657117)
(-1.15942e-14 -2.02303 -0.733576)
(6.78807e-15 -0.687709 -4.37911)
(2.96131e-15 -1.72856 -4.75921)
(-1.44393e-14 0.104351 -3.80282)
(-1.88337e-14 -0.00345289 -2.21926)
(-3.61213e-14 1.11753 -3.63604)
(-2.32518e-14 0.983109 -2.06804)
(-4.49869e-14 1.68583 -3.44311)
(-4.75077e-14 2.34833 -2.84819)
(-2.09213e-14 2.20972 -1.53421)
(-1.31515e-14 2.96681 -2.42541)
(-8.8573e-15 3.56722 -2.39778)
(-5.29441e-15 3.09217 -1.35837)
(-6.54833e-15 4.54985 -1.84616)
(-2.81201e-15 3.7394 -1.19068)
(-1.76779e-14 4.52649 -1.73612)
(-2.32265e-14 5.26623 -1.93379)
(-1.21105e-14 4.33618 -1.15591)
(-2.06758e-14 6.29025 -1.50564)
(-1.7042e-14 4.99563 -0.916034)
(-1.9504e-14 5.97464 -1.28971)
(-1.58532e-14 6.66022 -1.53997)
(-8.56841e-15 5.64592 -0.952045)
(-5.23595e-15 6.92692 -1.25605)
(-1.01912e-14 7.76083 -1.45986)
(-8.2657e-15 6.1348 -0.974267)
(-1.27744e-14 8.88702 -1.42695)
(-8.89188e-15 6.94085 -0.930266)
(-1.29592e-14 8.11443 -1.22912)
(-1.26573e-14 9.27736 -1.36323)
(-8.48247e-15 7.25031 -0.861487)
(-1.10767e-14 10.5092 -1.28631)
(-8.20392e-15 8.10845 -0.833787)
(-8.05477e-15 9.54478 -1.1686)
(-1.13163e-14 10.5579 -1.27219)
(-7.51311e-15 8.64645 -0.755618)
(-6.2428e-15 10.5991 -1.03771)
(-9.55567e-15 11.7856 -1.15103)
(-6.82557e-15 8.99933 -0.739812)
(-9.46372e-15 13.0843 -1.1297)
(-6.81381e-15 10.0198 -0.711446)
(-8.66816e-15 11.5842 -1.00994)
(-6.84258e-15 13.1858 -1.1245)
(-4.08144e-15 10.0625 -0.706691)
(-7.6565e-15 14.6389 -1.08742)
(-5.61041e-15 11.1253 -0.667423)
(-5.36288e-15 12.9845 -0.96116)
(-5.25728e-15 14.3104 -1.03739)
(-3.76843e-15 11.4998 -0.607794)
(-3.79846e-15 14.1206 -0.886741)
(-3.7083e-15 15.6649 -0.954954)
(-2.52929e-15 11.7332 -0.605356)
(-1.78456e-15 17.1377 -0.994029)
(-8.67267e-16 13.0097 -0.613032)
(-1.73091e-15 14.9664 -0.910231)
(-3.91856e-15 17.033 -0.970773)
(-2.95914e-15 12.8224 -0.593285)
(-4.3936e-15 18.7271 -0.986188)
(-3.73087e-15 14.13 -0.601045)
(-4.65634e-15 16.4287 -0.934897)
(-5.30831e-15 18.1028 -1.022)
(-3.36469e-15 14.3688 -0.599084)
(-5.31482e-15 17.7076 -0.91452)
(-3.01951e-15 19.5846 -0.933745)
(-1.66296e-15 14.4698 -0.584551)
(-6.53182e-16 21.1996 -0.982864)
(-4.42979e-18 15.9821 -0.600992)
(7.37254e-16 18.3396 -0.910556)
(-1.89014e-16 20.7344 -0.881913)
(-2.83003e-16 15.4355 -0.522814)
(-5.22959e-16 22.5701 -0.874219)
(-4.58196e-16 16.9064 -0.507833)
(-1.26778e-15 19.5789 -0.823781)
(-1.01677e-15 21.4394 -0.864996)
(-4.60443e-16 16.8106 -0.488375)
(-6.52591e-16 20.7484 -0.783151)
(-8.5104e-16 22.8401 -0.831297)
(-6.06566e-16 16.6402 -0.529408)
(-7.87928e-16 24.5912 -1.0178)
(-5.45321e-16 18.1356 -0.638468)
(-5.52647e-16 21.8216 -1.19891)
(-3.72719e-42 3.0447 3.25061)
(-1.62537e-41 3.90003 3.33321)
(-4.77221e-41 4.3739 3.39887)
(-1.28865e-40 4.866 3.45701)
(-3.16407e-40 5.3232 3.51689)
(-7.37986e-40 5.75807 3.5665)
(-1.81333e-39 6.17903 3.6173)
(-5.24957e-39 6.58947 3.67141)
(-1.78397e-38 6.98668 3.72673)
(-6.34278e-38 7.3586 3.77585)
(-2.1349e-37 7.6928 3.81401)
(-6.56881e-37 7.96991 3.84197)
(-1.87985e-36 8.17995 3.86484)
(-5.18402e-36 8.35283 3.89523)
(-1.38103e-35 8.50138 3.93268)
(-3.44833e-35 8.58138 3.96992)
(-7.94003e-35 8.57012 4.00813)
(-1.66054e-34 8.4578 4.04568)
(-3.10479e-34 8.2508 4.07971)
(-5.11736e-34 7.95467 4.10723)
(-7.46476e-34 7.57527 4.1306)
(-9.92504e-34 7.13821 4.14714)
(-1.26429e-33 6.63591 4.1552)
(-1.72051e-33 6.04199 4.14947)
(-2.95635e-33 5.29653 4.12661)
(-5.15286e-33 4.04469 3.97976)
(-5.41071e-33 1.41535 3.23737)
(-1.86275e-33 -2.15758 1.60733)
(-6.83659e-34 -4.91659 0.698785)
(-4.57557e-34 -7.20608 0.19478)
(-2.96552e-34 -9.17179 0.103855)
(-1.65995e-34 -10.852 -0.574512)
(-4.68366e-35 -12.6753 -0.784518)
(1.42671e-34 -15.0056 -1.47472)
(4.3904e-34 -17.4317 -1.6819)
(7.5462e-34 -18.977 -2.19597)
(2.2171e-34 -21.0552 -1.6589)
(-8.0002e-35 -26.0695 -2.28799)
(-1.89697e-34 -27.6403 -3.26103)
(-6.80446e-35 -27.9498 -2.15647)
(1.15137e-35 -33.3489 -1.73894)
(-2.13972e-32 -40.3139 -1.47044)
(-1.2589e-29 -45.2497 -1.04965)
(4.30617e-25 -48.0211 -0.352255)
(5.31866e-22 -44.9874 0.530467)
(-2.26868e-20 -38.5014 1.877)
(-9.14392e-19 -23.8284 3.44876)
(4.25345e-21 17.0195 2.99693)
(-4.1797e-21 18.6629 13.2073)
(-3.2949e-21 14.8709 16.5878)
(-3.12117e-21 17.7502 15.6247)
(-2.24766e-21 18.82 12.9397)
(-8.75658e-22 16.1946 9.95539)
(1.09984e-23 9.02927 2.09044)
(1.34491e-26 -19.229 -1.31101)
(7.37679e-27 -26.6114 -4.74054)
(9.67741e-27 -26.3083 -7.53078)
(7.72053e-27 -23.999 -9.76534)
(5.37872e-27 -21.7362 -11.08)
(2.88906e-27 -18.4902 -11.5815)
(2.37773e-27 -14.3502 -11.6799)
(-9.0664e-27 -9.9863 -11.599)
(7.1896e-26 -5.80909 -11.4238)
(-4.73997e-25 -1.81108 -11.178)
(2.56213e-24 2.41798 -10.8528)
(-9.90772e-24 6.40003 -10.5253)
(1.4613e-23 10.0278 -10.28)
(1.09065e-22 13.149 -10.0583)
(-8.30408e-22 15.6258 -9.71434)
(1.79009e-21 17.3843 -9.20939)
(4.23974e-21 18.4029 -8.67419)
(-1.07216e-20 18.7468 -8.20313)
(-6.16267e-20 18.6271 -7.73846)
(-3.99776e-20 18.2825 -7.10881)
(-9.2096e-20 17.9112 -6.27814)
(-4.23565e-19 17.7014 -5.23438)
(1.45651e-18 17.8691 -4.03997)
(-4.16766e-17 18.4419 -2.81921)
(1.98736e-16 19.7738 -2.43473)
(-5.6413e-42 3.02605 3.46689)
(-2.50254e-41 3.87205 3.52926)
(-7.36005e-41 4.34823 3.59144)
(-2.00511e-40 4.84096 3.65059)
(-4.95731e-40 5.29893 3.71676)
(-1.1524e-39 5.73496 3.77395)
(-2.79742e-39 6.15493 3.83024)
(-8.0928e-39 6.56438 3.88862)
(-2.8069e-38 6.96225 3.94698)
(-1.02622e-37 7.33702 3.99604)
(-3.53984e-37 7.67502 4.02967)
(-1.10874e-36 7.95522 4.05075)
(-3.20632e-36 8.16547 4.07142)
(-8.90139e-36 8.33648 4.1074)
(-2.39106e-35 8.48451 4.15839)
(-6.01371e-35 8.56521 4.21401)
(-1.39076e-34 8.55487 4.27618)
(-2.91252e-34 8.44421 4.34118)
(-5.44283e-34 8.23985 4.40396)
(-8.94512e-34 7.94666 4.45972)
(-1.2969e-33 7.57051 4.5101)
(-1.71129e-33 7.13764 4.55111)
(-2.16272e-33 6.64137 4.58018)
(-2.89185e-33 6.05576 4.5852)
(-4.8658e-33 5.33661 4.55544)
(-8.55436e-33 4.2053 4.38106)
(-9.4012e-33 1.8884 3.6345)
(-3.20517e-33 -1.77052 1.84636)
(-6.01934e-34 -4.93522 0.537301)
(-4.57147e-34 -7.37849 0.111822)
(-2.968e-34 -9.36787 0.0134761)
(-1.66733e-34 -11.0566 -0.660601)
(-4.8143e-35 -12.9076 -0.877705)
(1.39952e-34 -15.26 -1.56748)
(4.34888e-34 -17.7366 -1.77747)
(7.53184e-34 -19.4025 -2.29019)
(2.29617e-34 -21.5015 -1.78209)
(-7.77019e-35 -26.376 -2.36084)
(-1.89633e-34 -28.1388 -3.28559)
(-6.9701e-35 -28.5838 -2.19339)
(-1.21912e-34 -33.8386 -1.75923)
(5.10278e-32 -40.7412 -1.45719)
(-4.66318e-28 -45.6555 -0.992358)
(4.51481e-24 -48.396 -0.224869)
(6.92109e-22 -45.2626 0.679757)
(-4.98123e-20 -38.8059 2.30208)
(-1.25504e-18 -22.7103 3.47528)
(5.15171e-22 15.4088 3.79337)
(-7.29545e-21 16.6547 14.7343)
(-6.40991e-21 14.5004 18.0306)
(-6.48621e-21 18.3844 16.947)
(-4.92724e-21 19.894 13.9176)
(-2.08581e-21 17.6974 11.1443)
(5.40936e-24 13.302 4.05887)
(-2.59654e-26 -17.6626 -1.91492)
(-1.67581e-26 -25.9033 -5.5237)
(7.32799e-27 -26.117 -7.98627)
(7.44684e-27 -23.8972 -10.0746)
(5.66987e-27 -21.7318 -11.2772)
(3.11842e-27 -18.5017 -11.6186)
(2.60518e-27 -14.2531 -11.5981)
(-1.04206e-26 -9.74671 -11.4487)
(8.64503e-26 -5.4528 -11.2344)
(-5.95765e-25 -1.39089 -10.9592)
(3.3333e-24 2.6665 -10.6317)
(-1.32499e-23 6.51573 -10.3571)
(2.14132e-23 10.0525 -10.2195)
(1.30117e-22 13.0889 -10.149)
(-1.02243e-21 15.4818 -9.97064)
(2.14107e-21 17.187 -9.59336)
(5.62216e-21 18.1942 -9.11096)
(-1.39135e-20 18.536 -8.63951)
(-7.67583e-20 18.3827 -8.15924)
(-8.63896e-20 17.976 -7.51046)
(-8.5231e-20 17.5382 -6.65252)
(-7.00677e-19 17.2702 -5.59895)
(3.99513e-18 17.4101 -4.37207)
(-5.54677e-17 18.0573 -3.02997)
(2.43117e-16 19.4894 -2.00037)
(-8.95231e-42 3.03027 3.63166)
(-3.89413e-41 3.87065 3.67243)
(-1.13258e-40 4.34546 3.72833)
(-3.06664e-40 4.83752 3.78551)
(-7.53224e-40 5.29518 3.8541)
(-1.7271e-39 5.73236 3.91709)
(-4.12069e-39 6.15286 3.97852)
(-1.19896e-38 6.56277 4.0403)
(-4.30311e-38 6.96199 4.10039)
(-1.63165e-37 7.33937 4.14835)
(-5.77455e-37 7.67977 4.17755)
(-1.8369e-36 7.96008 4.19314)
(-5.35841e-36 8.16724 4.21472)
(-1.49582e-35 8.33403 4.25959)
(-4.03691e-35 8.47878 4.32663)
(-1.01793e-34 8.55671 4.40333)
(-2.35094e-34 8.54376 4.4921)
(-4.90034e-34 8.4315 4.5866)
(-9.10351e-34 8.22648 4.67934)
(-1.48614e-33 7.93316 4.76364)
(-2.13653e-33 7.55728 4.8377)
(-2.7963e-33 7.12513 4.89664)
(-3.51088e-33 6.63072 4.93839)
(-4.66957e-33 6.04935 4.94628)
(-7.83635e-33 5.34478 4.90177)
(-1.3937e-32 4.26108 4.6863)
(-1.59652e-32 2.03002 3.90435)
(-5.97339e-33 -1.59264 2.10636)
(-5.7796e-34 -4.65052 0.47133)
(-4.58182e-34 -7.24322 0.0465637)
(-2.96973e-34 -9.21826 -0.0858756)
(-1.67804e-34 -10.8836 -0.764768)
(-4.99611e-35 -12.7293 -0.992571)
(1.3626e-34 -15.0772 -1.68842)
(4.29259e-34 -17.5686 -1.91293)
(7.51156e-34 -19.3086 -2.42593)
(2.40246e-34 -21.3874 -1.94362)
(-7.4509e-35 -26.1029 -2.46952)
(-1.89528e-34 -28.0523 -3.34988)
(-7.14327e-35 -28.652 -2.26025)
(-1.09723e-33 -33.8331 -1.79214)
(2.03226e-30 -40.7539 -1.44645)
(-4.40799e-27 -45.7343 -0.922058)
(2.02412e-23 -48.5563 -0.0617402)
(1.77885e-21 -45.5146 0.879409)
(-8.38631e-20 -39.2665 2.88188)
(-1.99978e-18 -22.8422 3.60661)
(6.40011e-22 14.2217 4.92275)
(-1.13106e-20 15.593 15.7145)
(-1.10121e-20 14.2845 18.738)
(-1.18611e-20 18.6869 17.3646)
(-9.40665e-21 20.4139 13.7795)
(-4.41172e-21 18.4238 10.7901)
(-2.45436e-22 10.3806 5.16769)
(3.49609e-25 -16.7396 -3.14321)
(-3.55589e-26 -25.175 -6.79461)
(1.8831e-27 -25.477 -8.93922)
(1.02499e-26 -23.4451 -10.7604)
(8.73465e-27 -21.5576 -11.5765)
(4.82874e-27 -18.5578 -11.5443)
(3.71061e-27 -14.4928 -11.2763)
(-1.31224e-26 -10.1443 -10.9959)
(1.10171e-25 -5.95776 -10.7253)
(-7.47971e-25 -1.86159 -10.4483)
(4.10922e-24 2.36174 -10.1971)
(-1.59366e-23 6.35838 -10.0421)
(2.4227e-23 10.0036 -10.0515)
(1.58508e-22 13.0945 -10.145)
(-1.1738e-21 15.4901 -10.1274)
(2.25136e-21 17.1771 -9.87039)
(6.98053e-21 18.1764 -9.44008)
(-1.55862e-20 18.5222 -8.97435)
(-8.79878e-20 18.3619 -8.4876)
(-1.31298e-19 17.931 -7.83155)
(-9.05216e-20 17.4664 -6.95221)
(-9.87547e-19 17.1721 -5.87755)
(5.82103e-18 17.2795 -4.64153)
(-6.15378e-17 17.9083 -3.24047)
(2.60197e-16 19.3322 -1.95287)
(-1.41e-41 3.02355 3.79465)
(-6.04227e-41 3.85742 3.82152)
(-1.74123e-40 4.3302 3.8731)
(-4.68154e-40 4.82107 3.92857)
(-1.13971e-39 5.27764 3.99941)
(-2.5674e-39 5.71529 4.06841)
(-5.98258e-39 6.13572 4.13632)
(-1.74718e-38 6.54574 4.20297)
(-6.52736e-38 6.94645 4.26634)
(-2.58229e-37 7.32729 4.31469)
(-9.40859e-37 7.67132 4.34081)
(-3.04319e-36 7.95244 4.35266)
(-8.95212e-36 8.15617 4.37783)
(-2.51154e-35 8.31798 4.43637)
(-6.80571e-35 8.45927 4.52646)
(-1.71981e-34 8.53481 4.63282)
(-3.96695e-34 8.52017 4.75779)
(-8.23291e-34 8.40784 4.89095)
(-1.52192e-33 8.20436 5.02197)
(-2.47249e-33 7.91395 5.14185)
(-3.53295e-33 7.54206 5.24351)
(-4.59673e-33 7.11447 5.32139)
(-5.74208e-33 6.6265 5.37414)
(-7.59342e-33 6.05561 5.38041)
(-1.26626e-32 5.37674 5.31721)
(-2.27439e-32 4.37323 5.06571)
(-2.72373e-32 2.32487 4.25008)
(-1.13501e-32 -1.19335 2.40642)
(-8.37169e-34 -4.40963 0.597535)
(-4.55002e-34 -7.12408 0.00634693)
(-2.97517e-34 -9.08345 -0.184029)
(-1.69081e-34 -10.7255 -0.878655)
(-5.20968e-35 -12.5651 -1.11917)
(1.31965e-34 -14.9069 -1.8267)
(4.22697e-34 -17.4071 -2.07467)
(7.48659e-34 -19.2053 -2.58992)
(2.525e-34 -21.2695 -2.13059)
(-7.06515e-35 -25.8509 -2.60381)
(-1.89379e-34 -27.9516 -3.44557)
(-7.26505e-35 -28.682 -2.35259)
(-2.58822e-33 -33.8076 -1.83792)
(5.38628e-30 -40.7523 -1.44154)
(-1.29006e-26 -45.7998 -0.850327)
(6.65237e-23 -48.7044 0.11463)
(1.42657e-21 -45.7707 1.10583)
(-1.41048e-19 -39.7073 3.50301)
(-1.5123e-18 -23.1279 3.84317)
(-5.63179e-21 12.6722 6.13532)
(-1.74379e-20 14.2252 16.9105)
(-1.85952e-20 14.0747 19.6338)
(-2.11571e-20 19.2758 17.8552)
(-1.73659e-20 21.1499 13.4872)
(-8.90639e-21 19.0916 10.1497)
(-1.21627e-21 10.5209 5.36554)
(7.63447e-25 -15.67 -4.82935)
(4.99734e-25 -24.633 -8.51399)
(1.20202e-26 -25.1026 -10.3235)
(2.08204e-26 -23.1663 -11.5841)
(1.74607e-26 -21.4422 -11.8137)
(9.27604e-27 -18.5039 -11.3467)
(6.08391e-27 -14.3956 -10.8626)
(-1.64201e-26 -9.98751 -10.5255)
(1.39381e-25 -5.78481 -10.2717)
(-9.27784e-25 -1.73061 -10.0335)
(5.02531e-24 2.42439 -9.85414)
(-1.92308e-23 6.39668 -9.81106)
(2.86884e-23 10.0354 -9.95992)
(1.87064e-22 13.1032 -10.2054)
(-1.33847e-21 15.4493 -10.3381)
(2.35027e-21 17.0847 -10.1988)
(8.61751e-21 18.056 -9.82166)
(-1.74791e-20 18.3909 -9.3582)
(-1.01484e-19 18.2061 -8.85618)
(-1.82786e-19 17.729 -8.1825)
(-1.07373e-19 17.2155 -7.27548)
(-1.28476e-18 16.8817 -6.17175)
(7.32682e-18 16.958 -4.91167)
(-6.60491e-17 17.6094 -3.45867)
(2.72755e-16 19.0403 -2.42539)
(-2.20881e-41 3.02381 3.94996)
(-9.37482e-41 3.852 3.9664)
(-2.68207e-40 4.32136 4.01449)
(-7.15546e-40 4.81036 4.06826)
(-1.72263e-39 5.26506 4.14064)
(-3.79357e-39 5.70288 4.21545)
(-8.55314e-39 6.12365 4.2908)
(-2.49664e-38 6.53443 4.36366)
(-9.78379e-38 6.93727 4.43163)
(-4.06872e-37 7.32221 4.48161)
(-1.53224e-36 7.67001 4.50589)
(-5.04644e-36 7.9507 4.51601)
(-1.49639e-35 8.14846 4.54831)
(-4.21457e-35 8.30264 4.62624)
(-1.14553e-34 8.43814 4.74737)
(-2.89887e-34 8.50912 4.89286)
(-6.67709e-34 8.4911 5.0642)
(-1.38014e-33 8.37778 5.2452)
(-2.54067e-33 8.17538 5.42244)
(-4.11411e-33 7.88826 5.58418)
(-5.85734e-33 7.52137 5.71603)
(-7.5943e-33 7.09938 5.81199)
(-9.4544e-33 6.61925 5.87158)
(-1.24357e-32 6.06098 5.86954)
(-2.05526e-32 5.40944 5.77946)
(-3.71843e-32 4.47966 5.48712)
(-4.66001e-32 2.57892 4.63439)
(-2.18003e-32 -0.86224 2.73531)
(-1.69922e-33 -4.1729 0.854916)
(-4.34749e-34 -7.03398 -0.0573606)
(-2.99004e-34 -9.00373 -0.28153)
(-1.70628e-34 -10.6307 -1.005)
(-5.45225e-35 -12.4718 -1.26464)
(1.27054e-34 -14.8135 -1.99187)
(4.15157e-34 -17.3344 -2.27138)
(7.45603e-34 -19.2035 -2.79042)
(2.66309e-34 -21.2734 -2.35425)
(-6.60517e-35 -25.7379 -2.77103)
(-1.8917e-34 -27.9873 -3.57326)
(-7.33299e-35 -28.8458 -2.47228)
(-4.13197e-33 -33.9077 -1.9008)
(7.36061e-30 -40.8629 -1.44463)
(-1.51531e-26 -45.963 -0.777229)
(1.05658e-22 -48.9264 0.305335)
(4.32311e-22 -46.0795 1.36283)
(-1.96221e-19 -40.1212 4.14378)
(-8.93102e-19 -23.2103 4.18141)
(-1.31768e-20 11.2621 7.48084)
(-2.66211e-20 13.0166 18.1011)
(-3.08529e-20 13.9559 20.5183)
(-3.68351e-20 19.9873 18.2)
(-3.09015e-20 22.0078 12.8375)
(-1.71597e-20 19.6736 8.96366)
(-4.47784e-21 11.491 4.77482)
(-2.11435e-23 -14.1236 -6.88229)
(6.31986e-24 -24.148 -10.7631)
(2.5711e-25 -24.9368 -12.0587)
(4.63214e-26 -23.1404 -12.4856)
(3.47228e-26 -21.5732 -12.0307)
(1.77883e-26 -18.6861 -11.1249)
(1.01343e-26 -14.5537 -10.4393)
(-1.99505e-26 -10.1205 -10.0504)
(1.73467e-25 -5.89817 -9.812)
(-1.13254e-24 -1.81411 -9.61958)
(6.07078e-24 2.38735 -9.5288)
(-2.30298e-23 6.41392 -9.60741)
(3.39463e-23 10.094 -9.8974)
(2.18865e-22 13.1665 -10.2906)
(-1.50665e-21 15.4757 -10.571)
(2.32994e-21 17.0564 -10.5513)
(1.07034e-20 17.9894 -10.2285)
(-1.91018e-20 18.3089 -9.76411)
(-1.17224e-19 18.1042 -9.24065)
(-2.41354e-19 17.589 -8.5428)
(-1.39436e-19 17.0351 -7.60227)
(-1.58354e-18 16.6677 -6.46169)
(8.51087e-18 16.7073 -5.17468)
(-6.82037e-17 17.3463 -3.67941)
(2.65658e-16 18.7692 -2.10877)
(-3.44838e-41 3.02257 4.10126)
(-1.4559e-40 3.84509 4.11028)
(-4.14169e-40 4.31036 4.15548)
(-1.09657e-39 4.79715 4.20771)
(-2.60705e-39 5.24923 4.28109)
(-5.58466e-39 5.68647 4.36115)
(-1.20296e-38 6.10725 4.44445)
(-3.48264e-38 6.51888 4.52494)
(-1.44592e-37 6.9242 4.59924)
(-6.37973e-37 7.31387 4.65277)
(-2.49425e-36 7.6658 4.67724)
(-8.3779e-36 7.9452 4.68876)
(-2.50335e-35 8.13491 4.73312)
(-7.06861e-35 8.27911 4.83771)
(-1.92454e-34 8.40695 4.9996)
(-4.87211e-34 8.47201 5.19533)
(-1.12029e-33 8.45013 5.42432)
(-2.30719e-33 8.33634 5.66294)
(-4.23224e-33 8.13612 5.8942)
(-6.84182e-33 7.85464 6.10346)
(-9.73242e-33 7.49601 6.26715)
(-1.26075e-32 7.08277 6.37873)
(-1.56724e-32 6.61378 6.43871)
(-2.05138e-32 6.07214 6.41953)
(-3.35162e-32 5.45182 6.29351)
(-6.08863e-32 4.59917 5.95673)
(-7.98002e-32 2.85286 5.06875)
(-4.20547e-32 -0.487658 3.11066)
(-3.87532e-33 -3.87654 1.16338)
(-3.86453e-34 -6.89976 -0.190967)
(-2.96978e-34 -8.92471 -0.378004)
(-1.72757e-34 -10.5364 -1.13974)
(-5.71196e-35 -12.3821 -1.43301)
(1.21467e-34 -14.7231 -2.19105)
(4.06413e-34 -17.2677 -2.51004)
(7.41806e-34 -19.2142 -3.03291)
(2.81835e-34 -21.2976 -2.61921)
(-6.05384e-35 -25.6472 -2.97518)
(-1.88874e-34 -28.0487 -3.73555)
(-7.39318e-35 -29.0431 -2.62114)
(-5.06033e-33 -34.0411 -1.98261)
(8.26855e-30 -41.0066 -1.45728)
(-1.64319e-26 -46.1628 -0.703842)
(1.7046e-22 -49.1846 0.508608)
(-6.24403e-21 -46.438 1.64899)
(-2.34156e-19 -40.5517 4.79458)
(-4.87773e-19 -23.3076 4.62642)
(-2.20783e-20 9.62294 8.92467)
(-4.02439e-20 11.8228 19.3041)
(-5.03366e-20 13.9 21.4164)
(-6.26603e-20 20.8587 18.4921)
(-5.29967e-20 23.0574 11.9762)
(-3.14484e-20 20.3673 7.26945)
(-1.2869e-20 11.5913 2.56834)
(-1.89991e-22 -12.2862 -9.19563)
(3.45609e-23 -23.6342 -13.5453)
(2.03523e-24 -24.8779 -14.111)
(1.00528e-25 -23.225 -13.4917)
(5.75874e-26 -21.7601 -12.3025)
(3.01603e-26 -18.8672 -10.9567)
(1.55693e-26 -14.6614 -10.0641)
(-2.39596e-26 -10.17 -9.62008)
(2.12165e-25 -5.91697 -9.40096)
(-1.36108e-24 -1.81666 -9.26326)