/*--------------------------------*- C++ -*----------------------------------*\
| =========                 |                                                 |
| \\      /  F ield         | OpenFOAM: The Open Source CFD Toolbox           |
|  \\    /   O peration     | Version:  4.1                                   |
|   \\  /    A nd           | Web:      www.OpenFOAM.org                      |
|    \\/     M anipulation  |                                                 |
\*---------------------------------------------------------------------------*/
FoamFile
{
    version     2.0;
    format      ascii;
    class       volScalarField;
    location    "21";
    object      p;
}
// * * * * * * * * * * * * * * * * * * * * * * * * * * * * * * * * * * * * * //

dimensions      [0 2 -2 0 0 0 0];

internalField   nonuniform List<scalar> 
6785
(
1.57274e+19
1.57274e+19
1.57274e+19
1.57274e+19
1.57274e+19
1.57274e+19
1.57274e+19
1.57274e+19
1.57274e+19
1.57274e+19
1.57274e+19
1.57274e+19
1.57274e+19
1.57274e+19
1.57274e+19
1.57274e+19
1.57274e+19
1.57274e+19
1.57275e+19
1.57275e+19
1.57275e+19
1.57275e+19
1.57275e+19
1.57275e+19
1.57275e+19
1.57275e+19
1.57275e+19
1.57275e+19
1.57275e+19
1.57275e+19
1.57284e+19
1.57284e+19
1.57284e+19
1.57283e+19
1.57283e+19
1.57282e+19
1.57281e+19
1.57281e+19
1.5728e+19
1.57279e+19
1.57279e+19
1.57278e+19
1.57278e+19
1.57278e+19
1.57278e+19
1.57294e+19
1.57294e+19
1.57294e+19
1.57293e+19
1.57292e+19
1.57291e+19
1.5729e+19
1.57288e+19
1.57287e+19
1.57286e+19
1.57285e+19
1.57284e+19
1.57284e+19
1.57284e+19
1.57284e+19
1.57301e+19
1.57301e+19
1.573e+19
1.57299e+19
1.57298e+19
1.57297e+19
1.57295e+19
1.57294e+19
1.57293e+19
1.57291e+19
1.5729e+19
1.57289e+19
1.57288e+19
1.57288e+19
1.57288e+19
1.57301e+19
1.57301e+19
1.573e+19
1.573e+19
1.57298e+19
1.57297e+19
1.57295e+19
1.57294e+19
1.57292e+19
1.57291e+19
1.57289e+19
1.57288e+19
1.57288e+19
1.57287e+19
1.57287e+19
1.57301e+19
1.57302e+19
1.57302e+19
1.57303e+19
1.57302e+19
1.573e+19
1.57297e+19
1.57293e+19
1.57288e+19
1.57284e+19
1.5728e+19
1.57277e+19
1.57275e+19
1.57274e+19
1.57273e+19
1.57365e+19
1.57366e+19
1.57363e+19
1.57359e+19
1.57352e+19
1.57343e+19
1.57329e+19
1.57311e+19
1.57288e+19
1.57259e+19
1.57233e+19
1.57208e+19
1.57174e+19
1.5716e+19
1.57155e+19
1.57848e+19
1.57809e+19
1.57767e+19
1.57713e+19
1.57637e+19
1.57572e+19
1.57492e+19
1.57396e+19
1.57277e+19
1.5705e+19
1.56744e+19
1.56537e+19
1.56491e+19
1.56468e+19
1.56449e+19
1.62705e+19
1.62511e+19
1.62017e+19
1.61414e+19
1.60789e+19
1.60119e+19
1.59476e+19
1.58827e+19
1.5801e+19
1.57084e+19
1.56126e+19
1.55082e+19
1.53695e+19
1.51229e+19
1.49296e+19
1.89982e+19
1.90413e+19
1.90612e+19
1.90088e+19
1.88734e+19
1.86972e+19
1.84411e+19
1.83104e+19
1.78808e+19
1.61387e+19
1.2579e+19
5.55656e+18
-9.43286e+17
-6.65903e+18
-1.02218e+19
4.04354e+19
4.10267e+19
4.18301e+19
4.26137e+19
4.36811e+19
4.50188e+19
4.72093e+19
5.02674e+19
6.09045e+19
4.80343e+18
-6.25723e+19
-1.69826e+20
-2.66876e+20
-3.16097e+20
-3.3218e+20
7.29796e+19
7.38411e+19
7.53093e+19
7.8181e+19
8.34982e+19
9.93409e+19
1.25045e+20
1.50468e+20
4.80343e+18
4.80343e+18
4.80342e+18
-1.988e+21
-2.39288e+21
-2.38819e+21
-2.30566e+21
2.90126e+19
2.92411e+19
2.97169e+19
2.99072e+19
2.99225e+19
2.96477e+19
2.85648e+19
2.45839e+19
1.07216e+19
4.80341e+18
-3.19534e+20
-6.92569e+20
-9.09256e+20
-9.94206e+20
-1.01126e+21
9.15983e+18
9.06275e+18
8.7829e+18
8.2286e+18
7.53815e+18
5.52167e+18
2.9725e+18
-5.29343e+17
-5.16098e+18
-1.38869e+19
-3.44136e+19
-5.975e+19
-7.9858e+19
-9.31897e+19
-9.93037e+19
-1.15201e+20
1.48985e+18
-4.28172e+17
-4.47897e+17
-4.55924e+17
-4.73823e+17
-5.02676e+17
-5.22375e+17
-5.41824e+17
-5.69166e+17
-5.91243e+17
-6.05202e+17
-6.24712e+17
-6.43578e+17
-6.55824e+17
-6.67844e+17
-6.84317e+17
-7.06474e+17
-7.21307e+17
-7.41504e+17
-7.65898e+17
-7.82239e+17
-7.98359e+17
-8.20293e+17
-8.45099e+17
-8.61563e+17
-8.77891e+17
-9.00088e+17
-9.28085e+17
-9.46327e+17
-9.71298e+17
-1.00798e+18
-1.03191e+18
-1.05562e+18
-1.088e+18
-1.14143e+18
-1.1765e+18
-1.22417e+18
-1.29892e+18
-1.3476e+18
-1.39543e+18
-1.46009e+18
-1.54909e+18
-1.60661e+18
-1.66324e+18
-1.73967e+18
-1.84351e+18
-1.90988e+18
-2.00004e+18
-2.11481e+18
-2.18789e+18
-2.25992e+18
-2.35792e+18
-2.48366e+18
-2.56257e+18
-2.64057e+18
-2.74613e+18
-2.87713e+18
-2.9567e+18
-3.0635e+18
-3.20104e+18
-3.28667e+18
-3.37066e+18
-3.48322e+18
-3.63395e+18
-3.73149e+18
-3.86299e+18
-4.04104e+18
-4.16586e+18
-4.2907e+18
-4.46058e+18
-4.68547e+18
-4.84209e+18
-4.99994e+18
-5.21801e+18
-5.52712e+18
-5.75211e+18
-6.06114e+18
-6.46106e+18
-6.74481e+18
-7.08237e+18
-7.20233e+18
-7.25554e+18
-7.3493e+18
-7.4984e+18
-7.56874e+18
-7.63635e+18
-7.67618e+18
-7.64004e+18
-7.50691e+18
-7.32037e+18
-7.10678e+18
-6.40331e+18
-5.7525e+18
-5.46811e+18
-5.13096e+18
-4.79474e+18
-4.49563e+18
-4.24792e+18
-4.0365e+18
-3.83345e+18
-3.18346e+18
-2.56123e+18
-2.32674e+18
-2.08987e+18
-1.84245e+18
-1.58375e+18
-1.32869e+18
-1.10276e+18
-8.83503e+17
-6.9321e+17
-1.48882e+17
4.65364e+17
6.63714e+17
8.52445e+17
1.04043e+18
1.20953e+18
1.37911e+18
1.5287e+18
1.64955e+18
1.93434e+18
2.25849e+18
2.38005e+18
2.49954e+18
2.60549e+18
2.69143e+18
2.72966e+18
2.75283e+18
2.75452e+18
2.75584e+18
2.82765e+18
2.84889e+18
2.866e+18
2.87878e+18
2.88682e+18
2.89333e+18
2.90107e+18
2.90933e+18
2.93382e+18
2.95191e+18
2.95542e+18
2.96182e+18
2.96964e+18
2.97859e+18
2.98704e+18
2.99413e+18
2.99895e+18
3.00077e+18
2.9957e+18
3.0303e+18
3.0365e+18
3.03649e+18
3.02828e+18
3.00836e+18
2.97223e+18
2.91798e+18
2.84407e+18
2.58679e+18
2.33579e+18
2.22517e+18
1.96606e+18
1.84221e+18
1.75555e+18
1.65885e+18
1.56236e+18
1.47516e+18
1.38846e+18
1.32584e+18
1.25508e+18
1.18497e+18
1.13463e+18
1.07754e+18
1.01971e+18
9.66936e+17
9.13922e+17
8.75516e+17
8.3227e+17
7.89927e+17
7.51535e+17
7.13157e+17
6.84533e+17
6.51128e+17
6.17277e+17
5.92584e+17
5.6464e+17
5.37073e+17
5.11934e+17
4.87048e+17
4.68642e+17
4.47172e+17
4.25452e+17
4.05178e+17
3.85011e+17
3.70042e+17
3.52693e+17
3.35537e+17
3.22873e+17
3.08127e+17
2.9318e+17
2.79177e+17
2.65157e+17
2.54758e+17
2.42784e+17
2.31115e+17
2.20316e+17
2.09651e+17
2.0161e+17
1.9214e+17
1.82615e+17
1.75636e+17
1.67703e+17
1.59533e+17
1.51943e+17
1.43878e+17
1.37456e+17
1.2962e+17
1.21138e+17
1.13158e+17
1.04657e+17
9.81051e+16
9.0587e+16
8.28174e+16
7.71386e+16
7.08318e+16
6.43842e+16
5.86486e+16
5.28335e+16
4.86276e+16
4.39682e+16
3.93724e+16
3.52469e+16
3.11203e+16
2.80096e+16
2.43773e+16
2.06401e+16
1.78022e+16
1.45278e+16
1.12751e+16
8.14111e+15
3.32202e+15
-9.3969e+07
-3.75244e+08
-9.07848e+08
-1.64499e+09
-2.57477e+09
-3.69603e+09
-5.0204e+09
-6.56432e+09
-8.35618e+09
-1.04317e+10
-1.28438e+10
-1.56599e+10
-1.8973e+10
-2.28915e+10
-2.75299e+10
-3.2964e+10
-3.89827e+10
-4.37058e+10
-4.72204e+10
-5.34794e+10
-6.2278e+10
-7.45533e+10
-9.23707e+10
-1.12589e+11
-1.32032e+11
-1.51002e+11
-1.71365e+11
-1.9456e+11
-2.21057e+11
-2.51376e+11
-2.86296e+11
-3.26665e+11
-3.73521e+11
-4.27818e+11
-4.90661e+11
-5.62942e+11
-6.45655e+11
-7.39446e+11
-8.45114e+11
-9.62926e+11
-1.09332e+12
-1.23598e+12
-1.39098e+12
-1.55786e+12
-1.73677e+12
-1.92732e+12
-2.13011e+12
-2.34455e+12
-2.5708e+12
-2.8055e+12
-3.04515e+12
-3.28015e+12
-3.49858e+12
-3.67848e+12
-3.79558e+12
-3.81463e+12
-3.69169e+12
-3.3552e+12
-2.69004e+12
-1.52517e+12
3.9525e+11
3.55578e+12
9.64352e+12
2.49308e+13
3.80401e+13
5.50875e+13
6.79063e+13
7.36767e+13
9.38457e+13
1.10983e+14
1.80638e+14
2.96606e+14
3.27245e+14
3.56893e+14
3.9852e+14
1.6244e+15
2.54397e+15
3.8849e+15
4.80837e+15
-2.88943e+08
-1.14007e+09
-2.74133e+09
-4.95734e+09
-7.75059e+09
-1.11192e+10
-1.50969e+10
-1.97344e+10
-2.51158e+10
-3.13499e+10
-3.85941e+10
-4.7053e+10
-5.7005e+10
-6.87799e+10
-8.2721e+10
-9.90222e+10
-1.17093e+11
-1.3138e+11
-1.42394e+11
-1.61154e+11
-1.8747e+11
-2.23833e+11
-2.76808e+11
-3.37416e+11
-3.95857e+11
-4.52886e+11
-5.14066e+11
-5.83821e+11
-6.63471e+11
-7.54585e+11
-8.59478e+11
-9.80714e+11
-1.12137e+12
-1.28436e+12
-1.47294e+12
-1.68982e+12
-1.93793e+12
-2.21927e+12
-2.53613e+12
-2.88943e+12
-3.28032e+12
-3.70809e+12
-4.17281e+12
-4.67322e+12
-5.20965e+12
-5.78101e+12
-6.38886e+12
-7.03172e+12
-7.70958e+12
-8.41302e+12
-9.13089e+12
-9.8351e+12
-1.0489e+13
-1.10277e+13
-1.13772e+13
-1.14327e+13
-1.10618e+13
-1.00561e+13
-8.07687e+12
-4.60422e+12
1.15386e+12
1.06985e+13
2.87403e+13
7.45008e+13
1.13679e+14
1.65126e+14
2.02603e+14
2.15779e+14
2.79233e+14
3.28261e+14
5.01294e+14
5.90093e+14
7.09523e+14
8.5872e+14
1.22354e+15
3.57466e+15
6.10157e+15
8.49879e+15
1.03094e+16
-4.9805e+08
-1.93534e+09
-4.61384e+09
-8.31807e+09
-1.29834e+10
-1.86091e+10
-2.52502e+10
-3.29929e+10
-4.19762e+10
-5.23838e+10
-6.44771e+10
-7.86005e+10
-9.52181e+10
-1.14885e+11
-1.38172e+11
-1.65333e+11
-1.95268e+11
-2.19176e+11
-2.38539e+11
-2.69904e+11
-3.13779e+11
-3.73749e+11
-4.60891e+11
-5.61466e+11
-6.59032e+11
-7.54313e+11
-8.56506e+11
-9.73048e+11
-1.10607e+12
-1.25819e+12
-1.43325e+12
-1.63554e+12
-1.87015e+12
-2.14198e+12
-2.4564e+12
-2.818e+12
-3.23157e+12
-3.70053e+12
-4.22857e+12
-4.81735e+12
-5.46864e+12
-6.18146e+12
-6.95575e+12
-7.78961e+12
-8.6834e+12
-9.63556e+12
-1.06484e+13
-1.17197e+13
-1.28493e+13
-1.4022e+13
-1.52187e+13
-1.63934e+13
-1.74839e+13
-1.83834e+13
-1.89676e+13
-1.90629e+13
-1.84487e+13
-1.67863e+13
-1.35211e+13
-7.77482e+12
1.81489e+12
1.7824e+13
4.77247e+13
1.23436e+14
1.91584e+14
2.7611e+14
3.37075e+14
3.62007e+14
4.67342e+14
5.50817e+14
7.97882e+14
8.42124e+14
1.02429e+15
1.28515e+15
2.08519e+15
5.02311e+15
8.9438e+15
1.19328e+16
1.43317e+16
-7.20286e+08
-2.76303e+09
-6.52701e+09
-1.17272e+10
-1.82711e+10
-2.6161e+10
-3.54727e+10
-4.63284e+10
-5.89219e+10
-7.35124e+10
-9.04662e+10
-1.10269e+11
-1.33572e+11
-1.61154e+11
-1.93808e+11
-2.31826e+11
-2.7342e+11
-3.06788e+11
-3.35093e+11
-3.79207e+11
-4.4088e+11
-5.24275e+11
-6.44469e+11
-7.84535e+11
-9.21259e+11
-1.05481e+12
-1.19803e+12
-1.36146e+12
-1.54794e+12
-1.76113e+12
-2.00639e+12
-2.28977e+12
-2.61835e+12
-2.99903e+12
-3.43926e+12
-3.94556e+12
-4.52453e+12
-5.18108e+12
-5.92021e+12
-6.74437e+12
-7.65587e+12
-8.65356e+12
-9.73715e+12
-1.09042e+13
-1.2155e+13
-1.34878e+13
-1.49053e+13
-1.64053e+13
-1.79868e+13
-1.96299e+13
-2.13069e+13
-2.29548e+13
-2.44857e+13
-2.57521e+13
-2.65787e+13
-2.67251e+13
-2.58819e+13
-2.35836e+13
-1.9066e+13
-1.10896e+13
2.30382e+12
2.48016e+13
6.65714e+13
1.71319e+14
2.74489e+14
3.89074e+14
4.72544e+14
5.14738e+14
6.58735e+14
7.82055e+14
1.08913e+15
1.0801e+15
1.38214e+15
1.78064e+15
3.00705e+15
6.58289e+15
1.19631e+16
1.56405e+16
1.8667e+16
-9.55294e+08
-3.62486e+09
-8.48321e+09
-1.51863e+10
-2.3614e+10
-3.37736e+10
-4.57608e+10
-5.97347e+10
-7.59437e+10
-9.47234e+10
-1.16545e+11
-1.42038e+11
-1.72037e+11
-2.07545e+11
-2.49568e+11
-2.98444e+11
-3.51661e+11
-3.94417e+11
-4.32033e+11
-4.88958e+11
-5.68668e+11
-6.75386e+11
-8.27557e+11
-1.00656e+12
-1.18247e+12
-1.35431e+12
-1.53858e+12
-1.74905e+12
-1.98909e+12
-2.26346e+12
-2.57899e+12
-2.94353e+12
-3.36612e+12
-3.85572e+12
-4.42183e+12
-5.07291e+12
-5.81733e+12
-6.66157e+12
-7.61184e+12
-8.67147e+12
-9.84318e+12
-1.11258e+13
-1.25186e+13
-1.40189e+13
-1.56267e+13
-1.734e+13
-1.91624e+13
-2.10917e+13
-2.3126e+13
-2.52414e+13
-2.74014e+13
-2.95271e+13
-3.15045e+13
-3.31469e+13
-3.42274e+13
-3.44406e+13
-3.3389e+13
-3.04805e+13
-2.47518e+13
-1.46021e+13
2.54631e+12
3.15105e+13
8.50583e+13
2.18261e+14
3.60942e+14
5.03932e+14
6.09648e+14
6.71356e+14
8.54407e+14
1.02203e+15
1.3889e+15
1.32375e+15
1.78667e+15
2.3392e+15
3.99253e+15
8.20889e+15
1.51079e+16
1.96242e+16
2.33425e+16
-1.20302e+09
-4.52209e+09
-1.04846e+10
-1.86969e+10
-2.90124e+10
-4.14454e+10
-5.6111e+10
-7.32058e+10
-9.30326e+10
-1.16004e+11
-1.42698e+11
-1.73887e+11
-2.10587e+11
-2.54018e+11
-3.05395e+11
-3.65128e+11
-4.2996e+11
-4.82259e+11
-5.29362e+11
-5.99025e+11
-6.96988e+11
-8.27173e+11
-1.01021e+12
-1.22746e+12
-1.44261e+12
-1.65274e+12
-1.87805e+12
-2.13573e+12
-2.42946e+12
-2.76512e+12
-3.15102e+12
-3.59681e+12
-4.11351e+12
-4.71215e+12
-5.40425e+12
-6.20025e+12
-7.11031e+12
-8.14246e+12
-9.30409e+12
-1.05994e+13
-1.20316e+13
-1.35993e+13
-1.53017e+13
-1.71353e+13
-1.91002e+13
-2.11946e+13
-2.34223e+13
-2.57817e+13
-2.82703e+13
-3.08606e+13
-3.35074e+13
-3.6117e+13
-3.85491e+13
-4.05792e+13
-4.19292e+13
-4.22298e+13
-4.09965e+13
-3.75121e+13
-3.06215e+13
-1.83664e+13
2.46562e+12
3.78433e+13
1.03176e+14
2.64094e+14
4.50345e+14
6.20948e+14
7.49102e+14
8.33903e+14
1.05445e+15
1.27179e+15
1.70002e+15
1.6604e+15
2.22807e+15
2.94571e+15
5.01193e+15
9.9342e+15
1.8374e+16
2.38656e+16
2.82628e+16
-1.46324e+09
-5.45517e+09
-1.25323e+10
-2.22599e+10
-3.44661e+10
-4.91744e+10
-6.65193e+10
-8.67352e+10
-1.10179e+11
-1.37343e+11
-1.6891e+11
-2.05794e+11
-2.49192e+11
-3.00525e+11
-3.61215e+11
-4.31762e+11
-5.08318e+11
-5.70488e+11
-6.27105e+11
-7.09268e+11
-8.25629e+11
-9.79551e+11
-1.1925e+12
-1.44707e+12
-1.70149e+12
-1.9499e+12
-2.21619e+12
-2.52125e+12
-2.86882e+12
-3.26586e+12
-3.72219e+12
-4.24932e+12
-4.8602e+12
-5.56797e+12
-6.38618e+12
-7.32728e+12
-8.40316e+12
-9.62346e+12
-1.09967e+13
-1.25281e+13
-1.42209e+13
-1.60741e+13
-1.80862e+13
-2.02535e+13
-2.25757e+13
-2.50515e+13
-2.76851e+13
-3.04757e+13
-3.34202e+13
-3.64885e+13
-3.96268e+13
-4.27276e+13
-4.56247e+13
-4.80568e+13
-4.9695e+13
-5.01083e+13
-4.87265e+13
-4.47106e+13
-3.67154e+13
-2.24342e+13
1.98716e+12
4.3686e+13
1.20776e+14
3.08595e+14
5.4142e+14
7.39692e+14
8.90613e+14
9.99855e+14
1.25932e+15
1.52922e+15
2.02738e+15
2.01082e+15
2.70928e+15
3.59271e+15
6.06427e+15
1.17019e+16
2.17611e+16
2.83692e+16
3.35492e+16
-1.73599e+09
-6.42464e+09
-1.46276e+10
-2.5876e+10
-3.99745e+10
-5.69587e+10
-7.69817e+10
-1.00317e+11
-1.27376e+11
-1.58729e+11
-1.95166e+11
-2.37743e+11
-2.87822e+11
-3.4702e+11
-4.16952e+11
-4.98245e+11
-5.86647e+11
-6.59328e+11
-7.25395e+11
-8.19636e+11
-9.54354e+11
-1.13244e+12
-1.37454e+12
-1.66531e+12
-1.95897e+12
-2.24566e+12
-2.55282e+12
-2.90547e+12
-3.307e+12
-3.76552e+12
-4.29237e+12
-4.9009e+12
-5.60605e+12
-6.42307e+12
-7.36754e+12
-8.45393e+12
-9.69589e+12
-1.11047e+13
-1.26899e+13
-1.44577e+13
-1.64117e+13
-1.85508e+13
-2.0873e+13
-2.33744e+13
-2.60543e+13
-2.89119e+13
-3.19521e+13
-3.51753e+13
-3.85777e+13
-4.21276e+13
-4.57633e+13
-4.9364e+13
-5.27383e+13
-5.5589e+13
-5.75375e+13
-5.80931e+13
-5.66022e+13
-5.21061e+13
-4.3072e+13
-2.68573e+13
1.03288e+12
4.89185e+13
1.37674e+14
3.51249e+14
6.32572e+14
8.59944e+14
1.03459e+15
1.17141e+15
1.46911e+15
1.79608e+15
2.36565e+15
2.40727e+15
3.213e+15
4.26841e+15
7.12382e+15
1.35775e+16
2.52801e+16
3.31396e+16
3.9217e+16
-2.02113e+09
-7.43042e+09
-1.67711e+10
-2.95454e+10
-4.5537e+10
-6.4796e+10
-8.74941e+10
-1.13944e+11
-1.44613e+11
-1.8015e+11
-2.21452e+11
-2.69709e+11
-3.26444e+11
-3.93448e+11
-4.72522e+11
-5.64439e+11
-6.64872e+11
-7.48901e+11
-8.24376e+11
-9.30119e+11
-1.08295e+12
-1.28562e+12
-1.55638e+12
-1.88213e+12
-2.21484e+12
-2.53981e+12
-2.88769e+12
-3.28811e+12
-3.74373e+12
-4.26381e+12
-4.86123e+12
-5.55121e+12
-6.35069e+12
-7.27705e+12
-8.34792e+12
-9.57981e+12
-1.09881e+13
-1.25857e+13
-1.43833e+13
-1.6388e+13
-1.86035e+13
-2.1029e+13
-2.36618e+13
-2.64976e+13
-2.95358e+13
-3.27757e+13
-3.62232e+13
-3.98802e+13
-4.37429e+13
-4.77785e+13
-5.19183e+13
-5.60288e+13
-5.98943e+13
-6.31824e+13
-6.54661e+13
-6.61979e+13
-6.46429e+13
-5.9726e+13
-4.97274e+13
-3.16859e+13
-4.72338e+11
5.34122e+13
1.53563e+14
3.91787e+14
7.22712e+14
9.81074e+14
1.18039e+15
1.34618e+15
1.68349e+15
2.0695e+15
2.7148e+15
2.8071e+15
3.74703e+15
4.97642e+15
8.23627e+15
1.55174e+16
2.88973e+16
3.81685e+16
4.53096e+16
-2.31874e+09
-8.47281e+09
-1.89632e+10
-3.32681e+10
-5.11525e+10
-7.26836e+10
-9.80522e+10
-1.27611e+11
-1.61883e+11
-2.01597e+11
-2.47755e+11
-3.01674e+11
-3.65024e+11
-4.39757e+11
-5.27845e+11
-6.30221e+11
-7.42827e+11
-8.39215e+11
-9.2439e+11
-1.04083e+12
-1.21119e+12
-1.43879e+12
-1.73818e+12
-2.09753e+12
-2.46888e+12
-2.83223e+12
-3.2206e+12
-3.66898e+12
-4.17881e+12
-4.76053e+12
-5.42856e+12
-6.20001e+12
-7.09386e+12
-8.12966e+12
-9.32708e+12
-1.07047e+13
-1.22796e+13
-1.40664e+13
-1.60768e+13
-1.83188e+13
-2.07965e+13
-2.35089e+13
-2.64529e+13
-2.96237e+13
-3.30204e+13
-3.66432e+13
-4.04986e+13
-4.4591e+13
-4.89168e+13
-5.34427e+13
-5.80939e+13
-6.27254e+13
-6.70978e+13
-7.08446e+13
-7.34916e+13
-7.44366e+13
-7.28679e+13
-6.75971e+13
-5.67168e+13
-3.69691e+13
-2.6069e+12
5.70341e+13
1.6821e+14
4.29822e+14
8.10814e+14
1.10267e+15
1.32827e+15
1.52592e+15
1.90235e+15
2.35117e+15
3.07322e+15
3.24831e+15
4.30761e+15
5.71113e+15
9.37676e+15
1.75326e+16
3.26036e+16
4.34561e+16
5.19783e+16
-2.62873e+09
-9.55155e+09
-2.12041e+10
-3.70438e+10
-5.68196e+10
-8.06188e+10
-1.08652e+11
-1.41311e+11
-1.79178e+11
-2.2306e+11
-2.74059e+11
-3.33613e+11
-4.03524e+11
-4.85891e+11
-5.82838e+11
-6.95459e+11
-8.20244e+11
-9.30235e+11
-1.02574e+12
-1.15192e+12
-1.33891e+12
-1.59168e+12
-1.91996e+12
-2.31146e+12
-2.72083e+12
-3.12273e+12
-3.55132e+12
-4.04785e+12
-4.61196e+12
-5.25535e+12
-5.994e+12
-6.84693e+12
-7.83518e+12
-8.98047e+12
-1.03046e+13
-1.18281e+13
-1.35699e+13
-1.55462e+13
-1.777e+13
-2.02499e+13
-2.29903e+13
-2.59902e+13
-2.92459e+13
-3.27521e+13
-3.65078e+13
-4.05137e+13
-4.47778e+13
-4.93071e+13
-5.4099e+13
-5.91202e+13
-6.4291e+13
-6.94558e+13
-7.43524e+13
-7.85813e+13
-8.16223e+13
-8.28213e+13
-8.12944e+13
-7.57449e+13
-6.40758e+13
-4.27562e+13
-5.44515e+12
5.9657e+13
1.81361e+14
4.65085e+14
8.9613e+14
1.22402e+15
1.47731e+15
1.70806e+15
2.12503e+15
2.63828e+15
3.43722e+15
3.69325e+15
4.91379e+15
6.47817e+15
1.05535e+16
1.96094e+16
3.63921e+16
4.90092e+16
5.92653e+16
-2.95122e+09
-1.0667e+10
-2.34941e+10
-4.08718e+10
-6.25368e+10
-8.85987e+10
-1.19288e+11
-1.5504e+11
-1.96491e+11
-2.44528e+11
-3.00349e+11
-3.65503e+11
-4.41909e+11
-5.318e+11
-6.3743e+11
-7.60041e+11
-8.96791e+11
-1.02154e+12
-1.12871e+12
-1.26373e+12
-1.46606e+12
-1.74389e+12
-2.1017e+12
-2.52407e+12
-2.97032e+12
-3.41117e+12
-3.87967e+12
-4.42453e+12
-5.04297e+12
-5.74805e+12
-6.5573e+12
-7.49168e+12
-8.57433e+12
-9.82915e+12
-1.128e+13
-1.29496e+13
-1.48587e+13
-1.7025e+13
-1.94625e+13
-2.21809e+13
-2.51847e+13
-2.84728e+13
-3.20407e+13
-3.58828e+13
-3.99977e+13
-4.43873e+13
-4.90609e+13
-5.40287e+13
-5.92899e+13
-6.48118e+13
-7.05111e+13
-7.62224e+13
-8.16623e+13
-8.63989e+13
-8.98678e+13
-9.13649e+13
-8.99398e+13
-8.41945e+13
-7.18453e+13
-4.90997e+13
-9.06288e+12
6.11524e+13
1.92816e+14
4.97201e+14
9.77795e+14
1.34454e+15
1.62749e+15
1.89413e+15
2.35181e+15
2.93324e+15
3.8115e+15
4.18715e+15
5.55049e+15
7.25958e+15
1.17497e+16
2.17585e+16
4.02618e+16
5.48326e+16
6.72128e+16
-3.28615e+09
-1.18187e+10
-2.5833e+10
-4.47515e+10
-6.83023e+10
-9.66204e+10
-1.29957e+11
-1.6879e+11
-2.13813e+11
-2.65991e+11
-3.26609e+11
-3.97317e+11
-4.80143e+11
-5.77434e+11
-6.91558e+11
-8.23888e+11
-9.72164e+11
-1.11253e+12
-1.23329e+12
-1.37658e+12
-1.59262e+12
-1.89514e+12
-2.28321e+12
-2.73539e+12
-3.2171e+12
-3.69733e+12
-4.20548e+12
-4.79883e+12
-5.4716e+12
-6.23833e+12
-7.11811e+12
-8.13388e+12
-9.31088e+12
-1.06753e+13
-1.2253e+13
-1.40689e+13
-1.61455e+13
-1.85021e+13
-2.11539e+13
-2.41113e+13
-2.73792e+13
-3.09561e+13
-3.48369e+13
-3.90153e+13
-4.34896e+13
-4.82631e+13
-5.33471e+13
-5.87552e+13
-6.44889e+13
-7.05173e+13
-7.67544e+13
-8.30265e+13
-8.90302e+13
-9.43023e+13
-9.82356e+13
-1.00078e+14
-9.88196e+13
-9.29692e+13
-8.00658e+13
-5.60535e+13
-1.35335e+13
6.14046e+13
2.02353e+14
5.25933e+14
1.05524e+15
1.46345e+15
1.77774e+15
2.08155e+15
2.58141e+15
3.23262e+15
4.19254e+15
4.69163e+15
6.22046e+15
8.06603e+15
1.29822e+16
2.39766e+16
4.42157e+16
6.0921e+16
7.6142e+16
-3.6337e+09
-1.30073e+10
-2.82207e+10
-4.86816e+10
-7.41139e+10
-1.0468e+11
-1.40654e+11
-1.82557e+11
-2.31139e+11
-2.87437e+11
-3.52821e+11
-4.2903e+11
-5.18191e+11
-6.2275e+11
-7.4517e+11
-8.86942e+11
-1.04629e+12
-1.20259e+12
-1.3391e+12
-1.49118e+12
-1.7188e+12
-2.045e+12
-2.46409e+12
-2.94573e+12
-3.4608e+12
-3.98098e+12
-4.52861e+12
-5.1706e+12
-5.89767e+12
-6.72596e+12
-7.67615e+12
-8.7732e+12
-1.00445e+13
-1.15184e+13
-1.32231e+13
-1.51854e+13
-1.74298e+13
-1.99772e+13
-2.28438e+13
-2.60408e+13
-2.95734e+13
-3.34398e+13
-3.76342e+13
-4.21492e+13
-4.6983e+13
-5.21407e+13
-5.76361e+13
-6.34861e+13
-6.96958e+13
-7.62366e+13
-8.30213e+13
-8.98695e+13
-9.6459e+13
-1.02296e+14
-1.06733e+14
-1.08973e+14
-1.07949e+14
-1.02091e+14
-8.877e+13
-6.3668e+13
-1.89305e+13
6.0292e+13
2.09827e+14
5.51039e+14
1.12771e+15
1.58014e+15
1.92777e+15
2.27151e+15
2.8142e+15
3.5382e+15
4.58673e+15
5.24858e+15
6.90902e+15
8.88648e+15
1.42402e+16
2.62552e+16
4.82558e+16
6.73091e+16
8.60332e+16
-3.99385e+09
-1.42324e+10
-3.06569e+10
-5.26606e+10
-7.99693e+10
-1.12776e+11
-1.51375e+11
-1.96335e+11
-2.48459e+11
-3.08855e+11
-3.78968e+11
-4.60619e+11
-5.5602e+11
-6.67708e+11
-7.9822e+11
-9.49163e+11
-1.11918e+12
-1.29109e+12
-1.44554e+12
-1.60788e+12
-1.84476e+12
-2.19318e+12
-2.64404e+12
-3.15499e+12
-3.70113e+12
-4.2619e+12
-4.84891e+12
-5.53966e+12
-6.32099e+12
-7.21069e+12
-8.23109e+12
-9.40923e+12
-1.07747e+13
-1.23581e+13
-1.41898e+13
-1.62987e+13
-1.87111e+13
-2.14496e+13
-2.45315e+13
-2.79689e+13
-3.17669e+13
-3.59235e+13
-4.04319e+13
-4.52839e+13
-5.04773e+13
-5.60195e+13
-6.19268e+13
-6.82205e+13
-7.49094e+13
-8.19687e+13
-8.93116e+13
-9.67518e+13
-1.0395e+14
-1.10385e+14
-1.15367e+14
-1.18056e+14
-1.1734e+14
-1.11579e+14
-9.79896e+13
-7.20018e+13
-2.53383e+13
5.77248e+13
2.15081e+14
5.72159e+14
1.19463e+15
1.69377e+15
2.07641e+15
2.46131e+15
3.04816e+15
3.84627e+15
4.98368e+15
5.81099e+15
7.62335e+15
9.72543e+15
1.55341e+16
2.85931e+16
5.23932e+16
7.40595e+16
9.72238e+16
-4.36682e+09
-1.54945e+10
-3.31411e+10
-5.66867e+10
-8.58659e+10
-1.20902e+11
-1.62116e+11
-2.10118e+11
-2.65766e+11
-3.30232e+11
-4.05031e+11
-4.92058e+11
-5.93602e+11
-7.12271e+11
-8.50669e+11
-1.01051e+12
-1.19079e+12
-1.37754e+12
-1.55157e+12
-1.72656e+12
-1.97113e+12
-2.33945e+12
-2.8223e+12
-3.3635e+12
-3.93792e+12
-4.53968e+12
-5.16629e+12
-5.90587e+12
-6.74141e+12
-7.69231e+12
-8.78266e+12
-1.00417e+13
-1.15011e+13
-1.31939e+13
-1.51526e+13
-1.74082e+13
-1.99889e+13
-2.29188e+13
-2.62166e+13
-2.98949e+13
-3.39592e+13
-3.84068e+13
-4.32295e+13
-4.84186e+13
-5.3972e+13
-5.98987e+13
-6.62187e+13
-7.29575e+13
-8.01291e+13
-8.77134e+13
-9.56251e+13
-1.03674e+14
-1.11507e+14
-1.18572e+14
-1.24143e+14
-1.2734e+14
-1.27008e+14
-1.21454e+14
-1.07754e+14
-8.11044e+13
-3.28352e+13
5.35755e+13
2.17891e+14
5.88999e+14
1.25522e+15
1.80359e+15
2.22321e+15
2.65179e+15
3.28416e+15
4.15826e+15
5.39136e+15
6.42132e+15
8.34875e+15
1.05594e+16
1.68532e+16
3.09653e+16
5.6636e+16
8.13141e+16
1.09549e+17
-4.75262e+09
-1.67935e+10
-3.56726e+10
-6.07581e+10
-9.1801e+10
-1.29057e+11
-1.72871e+11
-2.23899e+11
-2.83051e+11
-3.51557e+11
-4.30995e+11
-5.23327e+11
-6.30907e+11
-7.56406e+11
-9.02482e+11
-1.07095e+12
-1.26113e+12
-1.4618e+12
-1.65614e+12
-1.84697e+12
-2.09845e+12
-2.48369e+12
-2.9986e+12
-3.57091e+12
-4.17108e+12
-4.81404e+12
-5.48067e+12
-6.26911e+12
-7.15878e+12
-8.17062e+12
-9.33056e+12
-1.06701e+13
-1.22233e+13
-1.40253e+13
-1.6111e+13
-1.85134e+13
-2.12626e+13
-2.43844e+13
-2.78985e+13
-3.18184e+13
-3.61497e+13
-4.08889e+13
-4.60264e+13
-5.15528e+13
-5.74661e+13
-6.37776e+13
-7.05107e+13
-7.76961e+13
-8.53536e+13
-9.34693e+13
-1.01961e+14
-1.10637e+14
-1.19129e+14
-1.26861e+14
-1.33068e+14
-1.3683e+14
-1.36963e+14
-1.31731e+14
-1.18089e+14
-9.10169e+13
-4.14833e+13
4.77612e+13
2.18121e+14
6.01299e+14
1.30895e+15
1.90873e+15
2.36701e+15
2.84041e+15
3.51949e+15
4.47007e+15
5.79899e+15
7.03655e+15
9.09057e+15
1.13962e+16
1.81938e+16
3.33671e+16
6.09979e+16
8.92058e+16
1.22617e+17
-5.15152e+09
-1.81298e+10
-3.82508e+10
-6.48719e+10
-9.77716e+10
-1.37235e+11
-1.83636e+11
-2.37673e+11
-3.00305e+11
-3.72816e+11
-4.56843e+11
-5.54402e+11
-6.67908e+11
-8.00082e+11
-9.53627e+11
-1.13045e+12
-1.3302e+12
-1.54392e+12
-1.75832e+12
-1.96825e+12
-2.22773e+12
-2.6261e+12
-3.17205e+12
-3.77709e+12
-4.40081e+12
-5.08442e+12
-5.79213e+12
-6.62927e+12
-7.57303e+12
-8.64545e+12
-9.87457e+12
-1.12942e+13
-1.29408e+13
-1.48519e+13
-1.70645e+13
-1.96137e+13
-2.25316e+13
-2.58456e+13
-2.95766e+13
-3.37388e+13
-3.83378e+13
-4.33693e+13
-4.8822e+13
-5.46858e+13
-6.09592e+13
-6.76553e+13
-7.48018e+13
-8.24351e+13
-9.05819e+13
-9.92353e+13
-1.08319e+14
-1.17639e+14
-1.26818e+14
-1.35254e+14
-1.42145e+14
-1.46535e+14
-1.47216e+14
-1.42427e+14
-1.2902e+14
-1.01777e+14
-5.13422e+13
4.01702e+13
2.15587e+14
6.08834e+14
1.35507e+15
2.00846e+15
2.50724e+15
3.02731e+15
3.75486e+15
4.78252e+15
6.21509e+15
7.69215e+15
9.83605e+15
1.22097e+16
1.95454e+16
3.57957e+16
6.55366e+16
9.78949e+16
1.36564e+17
-5.56356e+09
-1.95033e+10
-4.0874e+10
-6.90254e+10
-1.03774e+11
-1.45433e+11
-1.94406e+11
-2.51434e+11
-3.1752e+11
-3.94e+11
-4.82558e+11
-5.85263e+11
-7.04579e+11
-8.43271e+11
-1.00408e+12
-1.18901e+12
-1.39799e+12
-1.624e+12
-1.85713e+12
-2.08911e+12
-2.359e+12
-2.7668e+12
-3.34242e+12
-3.98148e+12
-4.62714e+12
-5.35064e+12
-6.1007e+12
-6.98629e+12
-7.98402e+12
-9.11661e+12
-1.04144e+13
-1.19137e+13
-1.36534e+13
-1.56732e+13
-1.80125e+13
-2.07086e+13
-2.37954e+13
-2.73019e+13
-3.12503e+13
-3.56554e+13
-4.05229e+13
-4.58473e+13
-5.16156e+13
-5.7817e+13
-6.44502e+13
-7.15308e+13
-7.90907e+13
-8.71729e+13
-9.58121e+13
-1.0501e+14
-1.14696e+14
-1.2468e+14
-1.34574e+14
-1.43752e+14
-1.51378e+14
-1.5646e+14
-1.57775e+14
-1.53555e+14
-1.40567e+14
-1.13421e+14
-6.24658e+13
3.07364e+13
2.10199e+14
6.11453e+14
1.39308e+15
2.10189e+15
2.64252e+15
3.20976e+15
3.98664e+15
5.0915e+15
6.62811e+15
8.35068e+15
1.05913e+16
1.30116e+16
2.09104e+16
3.82618e+16
7.02907e+16
1.07445e+17
1.50791e+17
-5.98898e+09
-2.09143e+10
-4.35407e+10
-7.32152e+10
-1.09805e+11
-1.53648e+11
-2.05178e+11
-2.65176e+11
-3.3469e+11
-4.15097e+11
-5.08125e+11
-6.15888e+11
-7.40896e+11
-8.85948e+11
-1.05381e+12
-1.24658e+12
-1.46451e+12
-1.7021e+12
-1.9523e+12
-2.20802e+12
-2.49159e+12
-2.90734e+12
-3.50887e+12
-4.1831e+12
-4.85081e+12
-5.61206e+12
-6.40651e+12
-7.34011e+12
-8.39167e+12
-9.58395e+12
-1.09499e+13
-1.25282e+13
-1.43605e+13
-1.64888e+13
-1.89547e+13
-2.17976e+13
-2.50534e+13
-2.87527e+13
-3.2919e+13
-3.75677e+13
-4.27043e+13
-4.83222e+13
-5.44064e+13
-6.09455e+13
-6.79384e+13
-7.54031e+13
-8.33764e+13
-9.19085e+13
-1.01043e+14
-1.10791e+14
-1.21093e+14
-1.3176e+14
-1.42397e+14
-1.52359e+14
-1.60772e+14
-1.66612e+14
-1.68651e+14
-1.65127e+14
-1.52753e+14
-1.25979e+14
-7.49041e+13
1.93641e+13
2.01815e+14
6.08989e+14
1.42224e+15
2.18817e+15
2.77202e+15
3.38737e+15
4.21598e+15
5.39809e+15
7.04538e+15
9.0357e+15
1.13228e+16
1.37718e+16
2.22783e+16
4.07643e+16
7.53285e+16
1.17721e+17
1.64996e+17
-6.42784e+09
-2.23622e+10
-4.62483e+10
-7.74376e+10
-1.1586e+11
-1.61874e+11
-2.15946e+11
-2.78896e+11
-3.51808e+11
-4.36096e+11
-5.33527e+11
-6.46258e+11
-7.76837e+11
-9.28089e+11
-1.10281e+12
-1.30318e+12
-1.52973e+12
-1.7783e+12
-2.0441e+12
-2.32365e+12
-2.62518e+12
-3.04835e+12
-3.67153e+12
-4.38077e+12
-5.07181e+12
-5.86844e+12
-6.70958e+12
-7.69071e+12
-8.79588e+12
-1.00473e+13
-1.14807e+13
-1.31375e+13
-1.50619e+13
-1.72983e+13
-1.98904e+13
-2.28801e+13
-2.63049e+13
-3.01973e+13
-3.4582e+13
-3.9475e+13
-4.48813e+13
-5.07932e+13
-5.71939e+13
-6.40706e+13
-7.14228e+13
-7.9271e+13
-8.76574e+13
-9.66399e+13
-1.06272e+14
-1.16578e+14
-1.27506e+14
-1.38876e+14
-1.50286e+14
-1.61074e+14
-1.7033e+14
-1.76996e+14
-1.79851e+14
-1.77155e+14
-1.65593e+14
-1.39481e+14
-8.87003e+13
6.00684e+12
1.90387e+14
6.01388e+14
1.44218e+15
2.26638e+15
2.89421e+15
3.55768e+15
4.43919e+15
5.698e+15
7.45193e+15
9.70548e+15
1.20195e+16
1.45106e+16
2.36583e+16
4.3323e+16
8.06472e+16
1.28685e+17
1.79807e+17
-6.88026e+09
-2.38466e+10
-4.89938e+10
-8.16885e+10
-1.21937e+11
-1.70109e+11
-2.26709e+11
-2.9259e+11
-3.68866e+11
-4.56984e+11
-5.58748e+11
-6.76353e+11
-8.12379e+11
-9.69674e+11
-1.15106e+12
-1.35878e+12
-1.59367e+12
-1.85267e+12
-2.13277e+12
-2.43443e+12
-2.75806e+12
-3.19031e+12
-3.83053e+12
-4.57253e+12
-5.29069e+12
-6.11925e+12
-7.00991e+12
-8.03805e+12
-9.19647e+12
-1.05063e+13
-1.20066e+13
-1.37413e+13
-1.57571e+13
-1.81011e+13
-2.08192e+13
-2.39554e+13
-2.75494e+13
-3.16352e+13
-3.62386e+13
-4.13764e+13
-4.70531e+13
-5.32597e+13
-5.99772e+13
-6.71915e+13
-7.49025e+13
-8.31335e+13
-9.19325e+13
-1.01366e+14
-1.11498e+14
-1.22367e+14
-1.33934e+14
-1.46026e+14
-1.58242e+14
-1.69898e+14
-1.80053e+14
-1.87617e+14
-1.91379e+14
-1.89648e+14
-1.791e+14
-1.53947e+14
-1.03894e+14
-9.41251e+12
1.75818e+14
5.88557e+14
1.45224e+15
2.33566e+15
3.0082e+15
3.72024e+15
4.65737e+15
5.99197e+15
7.85124e+15
1.03718e+16
1.25846e+16
1.52046e+16
2.50415e+16
4.59411e+16
8.62756e+16
1.40299e+17
1.95079e+17
-7.34615e+09
-2.5366e+10
-5.17729e+10
-8.59636e+10
-1.28031e+11
-1.78352e+11
-2.37467e+11
-3.06253e+11
-3.85855e+11
-4.77748e+11
-5.83771e+11
-7.06152e+11
-8.47502e+11
-1.01068e+12
-1.19854e+12
-1.41339e+12
-1.65632e+12
-1.92527e+12
-2.2185e+12
-2.53933e+12
-2.88811e+12
-3.33186e+12
-3.9868e+12
-4.75715e+12
-5.50706e+12
-6.36461e+12
-7.30746e+12
-8.38184e+12
-9.59292e+12
-1.09605e+13
-1.2527e+13
-1.43389e+13
-1.64457e+13
-1.88967e+13
-2.17405e+13
-2.5023e+13
-2.87861e+13
-3.30654e+13
-3.7888e+13
-4.32713e+13
-4.9219e+13
-5.57207e+13
-6.27553e+13
-7.03071e+13
-7.83764e+13
-8.69892e+13
-9.61999e+13
-1.06084e+14
-1.16719e+14
-1.28156e+14
-1.40374e+14
-1.5321e+14
-1.66261e+14
-1.78831e+14
-1.89942e+14
-1.98475e+14
-2.03242e+14
-2.02611e+14
-1.93286e+14
-1.69396e+14
-1.20516e+14
-2.69229e+13
1.58102e+14
5.70567e+14
1.45228e+15
2.39499e+15
3.11246e+15
3.87297e+15
4.86658e+15
6.27462e+15
8.23159e+15
1.09644e+16
1.30836e+16
1.59495e+16
2.64446e+16
4.86422e+16
9.22265e+16
1.52519e+17
2.11385e+17
-7.82523e+09
-2.69179e+10
-5.45809e+10
-9.02597e+10
-1.34143e+11
-1.86602e+11
-2.48216e+11
-3.19882e+11
-4.02767e+11
-4.98375e+11
-6.08579e+11
-7.35639e+11
-8.82188e+11
-1.0511e+12
-1.24523e+12
-1.46698e+12
-1.71769e+12
-1.9961e+12
-2.30148e+12
-2.63904e+12
-3.01394e+12
-3.47179e+12
-4.14398e+12
-4.93246e+12
-5.72136e+12
-6.60467e+12
-7.60193e+12
-8.72175e+12
-9.98445e+12
-1.1409e+13
-1.3041e+13
-1.49297e+13
-1.71269e+13
-1.96845e+13
-2.26535e+13
-2.60821e+13