/*--------------------------------*- C++ -*----------------------------------*\
| =========                 |                                                 |
| \\      /  F ield         | OpenFOAM: The Open Source CFD Toolbox           |
|  \\    /   O peration     | Version:  4.1                                   |
|   \\  /    A nd           | Web:      www.OpenFOAM.org                      |
|    \\/     M anipulation  |                                                 |
\*---------------------------------------------------------------------------*/
FoamFile
{
    version     2.0;
    format      ascii;
    class       volScalarField;
    location    "18";
    object      p;
}
// * * * * * * * * * * * * * * * * * * * * * * * * * * * * * * * * * * * * * //

dimensions      [0 2 -2 0 0 0 0];

internalField   nonuniform List<scalar> 
6785
(
633.978
579.782
527.915
479.207
434.041
391.731
352.093
314.833
279.514
245.872
214.525
186.098
157.243
122.3
91.8051
160.835
138.962
134.275
130.75
125.385
119.868
114.914
110.714
107.423
105.155
104.117
104.741
107.029
109.177
109.129
62.712
57.0698
63.0094
66.7305
69.5002
72.8194
76.4203
80.0686
83.6985
87.1627
90.247
93.0394
95.9038
98.2274
98.8126
107.213
107.123
111.517
111.635
111.478
111.529
111.305
110.819
110.149
109.321
108.306
107.126
106.094
105.743
105.977
120.532
121.441
123.18
121.441
120.142
119.072
117.797
116.528
115.383
114.404
113.605
112.958
112.459
112.367
112.49
110.051
110.823
111.931
111.459
111.561
111.786
111.901
112.103
112.401
112.75
113.132
113.514
113.774
114.025
113.951
105.98
106.771
108.229
109.111
109.94
110.561
111.04
111.519
111.96
112.328
112.623
112.843
112.859
112.887
112.447
108.118
108.658
110.109
111.295
111.861
112.129
112.305
112.459
112.557
112.601
112.608
112.59
112.368
112.303
111.758
110.421
110.534
111.598
112.591
112.714
112.672
112.632
112.591
112.526
112.453
112.377
112.313
111.996
111.93
111.373
110.882
110.74
111.437
112.274
112.185
112.077
112.005
111.93
111.848
111.775
111.7
111.653
111.29
111.23
110.665
109.832
109.661
110.176
111.009
110.933
110.912
110.905
110.876
110.84
110.81
110.761
110.747
110.367
110.327
109.752
107.949
107.874
108.357
109.254
109.297
109.434
109.551
109.635
109.707
109.774
109.799
109.853
109.501
109.52
108.979
105.806
105.782
106.316
107.358
107.545
107.869
108.143
108.394
108.633
108.874
109.051
109.267
109
109.133
108.735
101.6
101.979
102.886
104.245
104.943
105.933
106.901
107.861
108.798
109.66
110.419
111.017
111.105
111.508
110.993
103.371
100.551
98.8595
98.3963
98.0455
98.8211
100.044
101.693
103.456
105.34
107.074
108.597
109.914
111.65
112.756
153.509
153.434
153.449
153.156
153.113
152.867
152.677
152.134
151.93
151.744
151.428
150.482
150.1
149.911
148.911
148.461
148.81
148.518
146.881
146.797
146.942
145.561
144.935
146.088
145.932
144.074
143.436
145.063
145.331
142.966
143.45
144.477
142.902
142.249
144.287
145.061
142.646
143.373
144.886
143.45
142.862
145.039
145.896
144.09
143.592
145.807
146.961
145.063
145.72
147.289
146.318
146.048
147.698
148.667
147.592
147.425
148.771
149.777
148.86
149.127
150.244
149.874
149.889
150.356
151.047
150.744
150.639
151.267
151.155
151.24
151.001
151.312
151.22
151.291
150.785
150.75
150.815
149.697
148.512
148.743
149.277
148.948
147.927
153.273
146.349
146.946
147.072
147.133
147.287
147.667
147.53
146.495
150.877
142.521
142.777
143.6
144.195
144.322
144.778
144.548
143.177
145.257
137.409
137.184
136.969
137.181
137.625
137.784
137.862
137.248
135.029
132.116
125.322
124.691
124.008
123.321
123.372
123.854
123.003
119.611
107.966
106.03
106.066
105.621
104.377
103.214
102.655
102.189
99.2031
82.9366
80.7417
78.4625
77.8908
77.1794
75.5631
73.7163
71.4672
68.3081
50.9035
54.4079
50.5894
47.3837
44.2904
41.9945
39.5113
36.4548
33.6962
31.881
14.18
24.9299
21.3703
19.3905
17.2504
13.8248
9.45262
8.67293
10.9573
-7.10569
11.1623
8.99295
6.43194
7.27696
6.1595
6.27237
6.38008
6.63866
6.89158
5.94583
6.40211
6.4758
5.12746
5.17049
5.11898
5.76691
5.97766
4.03394
4.05991
3.84121
4.76156
5.01103
2.88599
4.7448
5.30041
2.14581
2.02039
1.6768
3.85296
5.10106
1.32452
1.22885
0.677667
2.60356
3.20264
-0.686599
2.97067
4.83933
0.322876
-0.233038
-1.05367
2.20351
4.68407
0.0356996
-0.0711954
-0.759265
1.79822
2.7485
-2.05291
2.30321
4.80822
0.133812
-0.328645
-1.24018
2.22393
4.9068
0.44788
0.628751
0.0206736
2.71252
3.72881
-0.443233
3.50365
5.3956
1.73637
1.96977
1.4027
4.18928
5.72355
2.8403
3.5822
3.29364
5.30164
5.5139
3.25092
5.13677
5.1553
3.19889
3.35025
2.43355
2.97804
2.15459
-0.00269209
-0.00406028
-0.0041353
-0.00330479
-0.00235375
-0.00140095
-0.000352237
0.000747742
0.0018828
0.00298661
0.00397228
0.00509739
0.00668222
0.00810426
0.00955109
0.0110162
0.0125948
0.0141775
0.0156415
0.0167174
0.0173883
0.0174739
0.0170771
0.0160396
0.0139321
0.0106094
0.0060469
0.000164261
-0.00720968
-0.0162632
-0.0271545
-0.0399667
-0.0546089
-0.0708489
-0.0872125
-0.0995339
-0.098148
-0.0630008
0.0436094
0.285223
0.753392
1.54494
2.69171
4.07349
5.45759
6.73301
7.99781
9.20334
9.76584
8.71273
5.41318
0.284132
-5.32613
-10.5368
-13.7951
-9.0046
-0.328184
-1.15325
-0.937634
-0.400924
0.135462
0.287889
0.218323
0.110052
0.107577
0.114175
0.0866425
0.185804
0.101558
0.0533475
0.232358
0.152227
0.0922395
-0.0852263
-0.24447
-0.290857
-0.225416
-0.290271
-1.0119
-0.00260799
-0.00555594
-0.0058692
-0.00397602
-0.00158911
0.000838276
0.00339517
0.00605747
0.00875362
0.0114467
0.0140962
0.0175366
0.0220278
0.0259984
0.030112
0.0344588
0.038985
0.0433603
0.0474548
0.0509077
0.0538931
0.0559968
0.0570261
0.0563443
0.0531541
0.0473782
0.0380296
0.0240641
0.00410418
-0.0239246
-0.0627216
-0.115733
-0.186922
-0.281152
-0.401063
-0.543335
-0.690955
-0.800849
-0.787833
-0.513157
0.202609
1.50749
3.37437
5.48128
7.34761
8.77135
10.0591
11.5975
13.1508
13.6482
11.863
7.52927
1.70417
-4.7772
-10.5817
-8.10962
-0.979631
-2.50076
-2.37502
-1.19826
-0.113492
0.262289
0.284897
0.220632
0.266527
0.276024
0.190011
0.257912
0.170835
0.12581
0.322094
0.290632
0.184028
-0.0785261
-0.348234
-0.50592
-0.494327
-0.470114
-0.220533
-0.00158379
-0.00384771
-0.00326381
-0.000345157
0.00345462
0.00747349
0.0115136
0.0156435
0.0197972
0.0242548
0.0296248
0.036777
0.0446982
0.0524659
0.0604859
0.0690384
0.0777522
0.0866728
0.0959876
0.105606
0.115573
0.124953
0.13332
0.140621
0.146654
0.151277
0.152805
0.150344
0.143328
0.129249
0.105501
0.0685429
0.0147259
-0.060794
-0.159551
-0.275752
-0.386787
-0.439598
-0.333598
0.0868289
1.0086
2.55726
4.64363
6.87191
8.74067
10.1197
11.452
13.2523
15.2991
16.3601
14.9428
10.6347
4.38029
-3.18666
-9.89285
-7.57687
-2.20768
-3.74465
-3.62741
-1.98925
-0.485871
0.148749
0.282432
0.280696
0.36437
0.379719
0.26996
0.309182
0.244459
0.217207
0.383386
0.381843
0.244713
-0.0336058
-0.327997
-0.560693
-0.613906
-0.648284
0.423826
-0.000512777
-0.0021256
-0.000459327
0.00361512
0.00882915
0.0145043
0.0202513
0.0260783
0.0319661
0.0385016
0.0471711
0.0580776
0.0692078
0.0815105
0.0942222
0.107575
0.121353
0.13616
0.152366
0.170198
0.189295
0.208553
0.227567
0.246947
0.267073
0.288011
0.308836
0.328638
0.347448
0.364729
0.379089
0.389278
0.394162
0.390547
0.381284
0.376052
0.401417
0.511977
0.804908
1.42163
2.51622
4.16527
6.24085
8.37643
10.2042
11.7722
13.6129
16.1194
18.7132
19.7278
17.4654
11.7389
3.74726
-5.44045
-11.4809
-8.40029
-3.77377
-5.27075
-4.72437
-2.77293
-0.921742
-0.0276448
0.246189
0.310675
0.424558
0.4468
0.341246
0.364957
0.30858
0.293851
0.439546
0.447965
0.304736
0.0219282
-0.273342
-0.559206
-0.643428
-0.832605
0.418288
-0.000107054
-0.000981652
0.00158902
0.006629
0.0129619
0.0199935
0.027404
0.0351713
0.0434189
0.05277
0.0646592
0.0786579
0.0933407
0.109976
0.127088
0.144692
0.163498
0.184366
0.207779
0.234271
0.262961
0.292876
0.323483
0.355638
0.390638
0.429576
0.472052
0.517285
0.56637
0.620245
0.678526
0.743161
0.815408
0.89475
0.985053
1.09727
1.25688
1.51306
1.94808
2.67835
3.82132
5.42203
7.36027
9.36188
11.2283
13.1556
15.6583
18.8671
21.7566
22.2864
18.7763
11.4495
1.86961
-8.06289
-12.6044
-9.73318
-5.64039
-6.94503
-5.77657
-3.56101
-1.39116
-0.238534
0.182653
0.319097
0.455046
0.484473
0.39166
0.409606
0.353383
0.347867
0.484333
0.491987
0.354774
0.0751933
-0.210143
-0.52775
-0.619473
-0.958923
0.406498
0.000589823
0.000670368
0.00421896
0.0100432
0.0172464
0.0253724
0.0342115
0.0438434
0.0546371
0.0671665
0.0820784
0.0991588
0.118111
0.139009
0.160427
0.18226
0.205982
0.232617
0.263042
0.298313
0.337066
0.378121
0.420469
0.46542
0.515487
0.572432
0.636086
0.707138
0.787542
0.87942
0.982917
1.10147
1.23803
1.39569
1.57636
1.78835
2.05064
2.40223
2.90668
3.6549
4.74087
6.2038
7.96774
9.87125
11.8607
14.21
17.3362
21.0818
24.0539
24.018
19.4853
11.0837
0.73307
-8.97176
-12.753
-10.9945
-7.56331
-8.41236
-6.79039
-4.32143
-1.87992
-0.472578
0.0985669
0.312634
0.468525
0.506105
0.424268
0.442108
0.387329
0.387943
0.518004
0.517085
0.39202
0.124423
-0.143376
-0.475884
-0.572413
-1.01887
0.396772
0.00109211
0.00218387
0.0068039
0.0134856
0.0217012
0.0309838
0.0412438
0.0526552
0.0657869
0.0812918
0.0993815
0.120121
0.143603
0.168997
0.195015
0.221518
0.250078
0.282181
0.31948
0.363672
0.412946
0.465538
0.520328
0.57944
0.645852
0.721427
0.806683
0.90384
1.01588
1.14656
1.29686
1.47002
1.66966
1.901
2.16488
2.4643
2.80908
3.22468
3.75756
4.4774
5.46726
6.77905
8.39487
10.26
12.4362
15.2333
18.9607
23.2184
26.3426
25.9921
20.856
11.8518
1.25138
-8.06899
-12.46
-11.8496
-9.21928
-9.44074
-7.68549
-4.98364
-2.33484
-0.703288
0.00677066
0.296997
0.472935
0.520058
0.450133
0.46964
0.421243
0.425229
0.54748
0.534341
0.422814
0.170379
-0.0767759
-0.411325
-0.519689
-1.05011
0.382217
0.00145603
0.00340253
0.0090721
0.0168011
0.0263368
0.0370565
0.0489704
0.0623244
0.0777325
0.0959682
0.117351
0.142125
0.170283
0.200705
0.231997
0.263842
0.297553
0.33524
0.379561
0.432666
0.492288
0.556244
0.624011
0.69862
0.783151
0.879246
0.987967
1.11301
1.25823
1.42903
1.62837
1.85935
2.12504
2.43032
2.77568
3.15846
3.57858
4.04671
4.59411
5.27483
6.16693
7.34561
8.85242
10.7279
13.1351
16.416
20.8035
25.7037
29.2113
28.8449
23.3496
13.8132
2.84115
-6.48325
-12.256
-12.2763
-10.5598
-10.1102
-8.36236
-5.51656
-2.71294
-0.906693
-0.082321
0.276022
0.472715
0.526478
0.475116
0.49674
0.458731
0.464989
0.578169
0.552732
0.452031
0.212648
-0.0148588
-0.341859
-0.47343
-1.09595
0.254723
0.00156287
0.00416126
0.0108436
0.0198331
0.0309786
0.0435039
0.0574435
0.0730575
0.090943
0.111852
0.136371
0.165031
0.197842
0.233682
0.270895
0.308845
0.348608
0.392918
0.445384
0.508129
0.578144
0.65328
0.734235
0.825162
0.929197
1.04759
1.18211
1.33781
1.51924
1.73274
1.98378
2.27662
2.61315
2.99609
3.42434
3.88966
4.38163
4.89613
5.44962
6.08547
6.88064
7.93727
9.35818
11.2748
13.9471
17.766
22.9155
28.6244
32.7095
32.4627
26.5797
16.2598
4.58281
-5.07202
-12.1435
-12.358
-11.5255
-10.6022
-8.83453
-5.93276
-3.00356
-1.07387
-0.157368
0.256762
0.47129
0.526701
0.494559
0.521747
0.497189
0.505719
0.608703
0.575987
0.480838
0.250016
0.0388704
-0.273419
-0.438203
-1.16235
-0.00889099
0.0014944
0.0045688
0.0122072
0.0225563
0.035495
0.050148
0.0665383
0.0848521
0.105619
0.129467
0.15718
0.18957
0.226882
0.268066
0.311276
0.355631
0.402282
0.454655
0.517024
0.590746
0.671983
0.759145
0.854264
0.962409
1.08722
1.22968
1.39222
1.58127
1.80259
2.06249
2.36867
2.72694
3.13892
3.60398
4.11716
4.66413
5.22293
5.77461
6.32094
6.89893
7.59003
8.52448
9.86961
11.8503
14.8235
19.2411
25.246
31.8774
36.6162
36.4484
29.9817
18.6188
6.38912
-4.07707
-12.0051
-12.3193
-11.9981
-11.0465
-9.19193
-6.25495
-3.22542
-1.21248
-0.231925
0.228056
0.466951
0.527148
0.505882
0.542252
0.533323
0.544741
0.636
0.60071
0.50716
0.28165
0.0833778
-0.209097
-0.411096
-1.23383
-0.301275
0.00148645
0.00488383
0.0133763
0.0250151
0.0397282
0.0566561
0.0757988
0.097271
0.121415
0.148735
0.180096
0.216488
0.258394
0.30482
0.353824
0.404558
0.458678
0.520328
0.594007
0.679819
0.773714
0.87466
0.985568
1.11253
1.25988
1.42862
1.6218
1.84695
2.11181
2.42259
2.78785
3.21524
3.70623
4.25686
4.85621
5.48229
6.10086
6.67766
7.20083
7.7053
8.28377
9.09714
10.3774
12.4452
15.756
20.8239
27.7467
35.3534
40.7416
40.5309
33.2522
20.6964
8.22445
-3.52576
-12.0218
-12.4807
-12.097
-11.4124
-9.48214
-6.52545
-3.39809
-1.3197
-0.317583
0.174637
0.445818
0.525897
0.514949
0.558751
0.565551
0.58016
0.657892
0.621909
0.528534
0.307787
0.120199
-0.14781
-0.3856
-1.31002
-0.50324
0.00185501
0.00559503
0.0148423
0.0276397
0.0440209
0.0632051
0.0852258
0.1101
0.137967
0.169225
0.204786
0.245762
0.29271
0.344577
0.39942
0.456769
0.519022
0.59087
0.676673
0.775383
0.883442
1.00008
1.12886
1.27669
1.44866
1.64637
1.87355
2.1382
2.45012
2.81639
3.2456
3.74596
4.31881
4.95712
5.64237
6.34323
7.01314
7.60308
8.08978
8.50952
8.97287
9.6741
10.9057
13.0806
16.7546
22.5035
30.3782
38.9847
45.0055
44.6312
36.3581
22.5983
9.80471
-3.27552
-12.1527
-12.9307
-12.0769
-11.5899
-9.72773
-6.78611
-3.55409
-1.43254
-0.443315
0.0839682
0.400539
0.509864
0.523391
0.573555
0.593532
0.610039
0.67192
0.636175
0.544399
0.330009
0.152498
-0.0877189
-0.355311
-1.37413
-0.682547
0.00256919
0.00682256
0.0168886
0.0308635
0.0489065
0.0703677
0.0952847
0.123595
0.155302
0.190779
0.231011
0.277182
0.329709
0.387396
0.448513
0.513198
0.584486
0.667368
0.76593
0.878368
1.00192
1.13617
1.28524
1.4563
1.65503
1.88451
2.14938
2.45766
2.82054
3.24703
3.74523
4.32297
4.98062
5.70756
6.47741
7.24772
7.96018
8.55318
8.99513
9.3257
9.67749
10.2787
11.4755
13.7652
17.8055
24.2407
33.0835
42.715
49.3693
48.7303
39.3796
24.7581
10.9842
-3.17249
-12.2209
-13.3526
-12.2011
-11.6276
-9.94455
-7.04396
-3.72367
-1.6085
-0.658071
-0.0668926
0.321703
0.469716
0.522458
0.58921
0.617897
0.635076
0.677223
0.641965
0.555582
0.350367
0.184123
-0.027969
-0.317801
-1.41002
-0.877355
0.00337996
0.00839894
0.0195158
0.0349172
0.05482
0.0786782
0.106499
0.138195
0.173784
0.213717
0.259026
0.310847
0.369379
0.433362
0.501473
0.57444
0.655742
0.750591
0.862661
0.989806
1.1302
1.28411
1.45615
1.65313
1.88117
2.14512
2.4512
2.80777
3.22623
3.71745
4.28992
4.94999
5.69573
6.51218
7.36488
8.1994
8.9462
9.53431
9.92723
10.1689
10.4132
10.9205
12.0834
14.4758
18.8611
25.9677
35.786
46.4753
53.7666
52.7464
42.2961
27.2663
11.6392
-3.55409
-12.309
-13.5361
-12.4586
-11.6217
-10.1148
-7.25389
-3.92609
-1.92684
-1.08008
-0.377375
0.161194
0.399315
0.503483
0.60417
0.639968
0.65871
0.676707
0.640597
0.561672
0.370233
0.218965
0.0316919
-0.275716
-1.41567
-0.950489
0.0040437
0.0101373
0.0227039
0.0399381
0.0619918
0.0883856
0.119129
0.154245
0.193895
0.238605
0.289356
0.347155
0.412064
0.482917
0.558829
0.641001
0.733339
0.841166
0.967562
1.11064
1.26937
1.44507
1.64288
1.86888
2.12938
2.43093
2.78174
3.19089
3.66985
4.23076
4.8827
5.62997
6.46752
7.3748
8.30854
9.20275
9.97681
10.5536
10.8952
11.0496
11.1863
11.5942
12.7061
15.169
19.8596
27.6117
38.4124
50.1974
58.1144
56.5552
44.9494
29.4531
11.8151
-4.16994
-12.513
-13.6569
-12.6084
-11.6326
-10.2107
-7.41501
-4.22653
-2.52338
-1.86474
-0.978448
-0.17963
0.257148
0.457302
0.609097
0.662034
0.680881
0.672688
0.635005
0.563678
0.389886
0.26062
0.0919172
-0.236475
-1.38006
-1.0083
0.00451056
0.0120674
0.0264828
0.0459389
0.0704002
0.0994823
0.133301
0.17209
0.216155
0.266015
0.322557
0.386687
0.458411
0.536724
0.621206
0.713583
0.818143
0.940013
1.08167
1.24197
1.42061
1.62023
1.8465
2.10488
2.40163
2.74463
3.14381
3.60966
4.15409
4.78957
5.5256
6.36461
7.29734
8.2966
9.30975
10.2594
11.0548
11.6152
11.9037
11.9721
11.9969
12.2882
13.3158
15.8014
20.7488
29.1192
40.9156
53.8387
62.3482
60.0784
47.524
31.0255
11.7633
-4.55861
-12.733
-13.8768
-12.67
-11.6353
-10.276
-7.69007
-4.94692
-3.80536
-3.31601
-2.08832
-0.842267
-0.0418454
0.361455
0.594645
0.685064
0.699811
0.669524
0.627667
0.565058
0.409547
0.311168
0.150864
-0.21335
-1.31606
-0.978279
0.00493863
0.0143155
0.030838
0.0527514
0.0798301
0.111896
0.149185
0.192103
0.241022
0.296444
0.359201
0.430127
0.50915
0.595508
0.689398
0.793141
0.911224
1.04836
1.20649
1.38524
1.58542
1.81108
2.06825
2.36227
2.69924
3.08808
3.54007
4.0669
4.68131
5.39584
6.22
7.1541
8.18401
9.27538
10.3658
11.3666
12.1785
12.7184
12.9528
12.9354
12.8421
12.9928
13.8918
16.3437
21.4976
30.4648
43.2786
57.3794
66.3984
63.253
50.1323
31.9333
11.2321
-4.57709
-12.7539
-14.2273
-12.8619
-11.6692
-10.5138
-8.49876
-6.62875
-6.23599
-5.81891
-4.08485
-2.09095
-0.628997
0.157322
0.547415
0.702612
0.717379
0.668583
0.618195
0.566528
0.42868
0.367535
0.200537
-0.215011
-1.22352
-0.903812
0.00553806
0.0169825
0.0356844
0.0601842
0.0901395
0.125623
0.166931
0.214565
0.26889
0.330419
0.399933
0.47815
0.564982
0.660082
0.764354
0.880736
1.01372
1.16748
1.3436
1.54231
1.76572
2.01945
2.30989
2.64246
3.02355
3.4628
3.97234
4.56476
5.25351
6.05127
6.96666
7.99759
9.12493
10.3066
11.4708
12.5187
13.343
13.8596
14.0395
13.9363
13.7179
13.7019
14.4237
16.7817
22.0936
31.6424
45.4996
60.8052
70.1918
66.005
52.1497
32.3085
10.575
-4.34259
-12.5086
-14.5421
-13.141
-11.9042
-11.3055
-10.3075
-9.62201
-10.0085
-9.58191
-7.2574
-4.28465
-1.76432
-0.266772
0.443966
0.701678
0.739084
0.665408
0.606791
0.565411
0.445452
0.421992
0.231294
-0.235863
-1.09794
-0.894108
0.00642639
0.0200966
0.0410323
0.0682856
0.10142
0.140771
0.186663
0.239653
0.300081
0.368397
0.445278
0.531318
0.626594
0.731295
0.847047
0.977403
1.12679
1.29873
1.49455
1.7151
1.96381
2.2476
2.5736
2.94751
3.37617
3.87007
4.4418
5.10456
5.87205
6.75668
7.76554
8.89376
10.1169
11.3851
12.6181
13.7086
14.5428
15.0355
15.1609
14.9716
14.6204
14.4114
14.9064
17.1095
22.5314
32.6482
47.5664
64.067
73.6677
68.5893
53.3686
32.3297
10.3461
-4.05004
-12.0694
-14.7372
-13.4867
-12.6395
-13.0198
-13.375
-14.0066
-15.113
-14.6402
-11.7135
-7.65311
-3.77253
-1.10744
0.2016
0.66867
0.766315
0.658265
0.594533
0.559058
0.458357
0.467945
0.243756
-0.26175
-0.963762
-0.777205
0.00760446
0.0237383
0.0470711
0.0773196
0.113952
0.157572
0.208568
0.267568
0.334872
0.410727
0.495634
0.59016
0.694686
0.81001
0.938494
1.08425
1.25165
1.44359
1.66108
1.90561
2.18199
2.49819
2.86201
3.27983
3.75924
4.3115
4.94961
5.68699
6.53714
7.51162
8.61553
9.84033
11.156
12.5056
13.8011
14.9297
15.7729
16.2434
16.3158
16.0387
15.5454
15.1165
15.3348
17.32
22.8006
33.4644
49.4327
67.0388
76.6731
70.8649
53.7956
31.873
10.9414
-3.5499
-11.6824
-14.8746
-14.092
-14.1596
-15.8554
-17.7312
-19.6771
-21.4037
-20.8839
-17.4058
-12.2622
-6.87438
-2.64587
-0.306265
0.595042
0.787833
0.653076
0.57628
0.545243
0.465527
0.502284
0.245452
-0.280333
-0.834583
-0.624315
0.00904284
0.0280039
0.0540431
0.0876182
0.128072
0.176363
0.232999
0.298668
0.373563
0.457705
0.551378
0.65517
0.769868
0.896989
1.03965
1.20236
1.38944
1.60334
1.84486
2.11598
2.42259
2.77376
3.17801
3.64234
4.17532
4.78907
5.49697
6.31231
7.24807
8.31449
9.51385
10.8334
12.2375
13.6622
15.0137
16.1758
17.0286
17.4815
17.5049
17.1378
16.4898
15.8112
15.6998
17.3993
22.8784
34.056
51.03
69.5692
79.0171
72.0947
53.5135
31.4482
12.2516
-2.60736
-11.3937
-15.0667
-15.2112
-16.6264
-19.8251
-23.237
-26.4007
-28.6273
-28.0812
-24.155
-18.0345
-11.1436
-5.12585
-1.26911
0.394204
0.786084
0.664578
0.547781
0.524817
0.464983
0.524087
0.242268
-0.285316
-0.718632
-0.590195
0.0107404
0.0330317
0.0621888
0.0994779
0.144144
0.197589
0.26044
0.333422
0.416578
0.509718
0.612937
0.726859
0.852736
0.99292
1.15131
1.33271
1.54126
1.77921
2.04731
2.34798
2.6879
3.07694
3.52437
4.03801
4.62731
5.3051
6.08524
6.98084
8.0039
9.16273
10.4564
11.8676
13.355
14.8487
16.2501
17.442
18.306
18.7487
18.7304
18.2718
17.4531
16.4899
15.9898
17.3269
22.7315
34.3731
52.2659
71.4977
80.7527
72.2278
52.6619
31.4755
13.6967
-1.18951
-11.0077
-15.462
-17.0307
-20.0673
-24.8007
-29.6414
-33.8594
-36.4564
-35.9146
-31.68
-24.7709
-16.5154
-8.65703
-2.92709
-0.0654474
0.773516
0.700458
0.513612
0.496049
0.456683
0.533704
0.235732
-0.276817
-0.62655
-0.450734
0.0127539
0.0389204
0.0716651
0.113123
0.162519
0.221704
0.291408
0.372342
0.464401
0.567223
0.680782
0.805802
0.944032
1.09865
1.27429
1.47602
1.70795
1.97222
2.26965
2.60301
2.97958
3.40986
3.90369
4.46963
5.11799
5.86213
6.71619
7.69312
8.8036
10.0536
11.4389
12.9373
14.5023
16.0592
17.5062
18.7261
19.6044
20.0463
19.9968
19.4475
18.4403
17.1513
16.1948
17.081
22.3251
34.3618
53.0148
72.4721
81.3527
71.4934
51.7202
32.3021
15.1049
0.352213
-10.5652
-16.2492
-19.6361
-24.3983
-30.562
-36.631
-41.6944
-44.5347
-44.0286
-39.642
-32.1867
-22.8134
-13.2268
-5.44149
-0.914962
0.701176
0.736942
0.487248
0.455199
0.441547
0.534005
0.223989
-0.25374
-0.540377
-0.346775
0.0151256
0.0456882
0.0825632
0.128739
0.183519
0.249147
0.326408
0.415952
0.517534
0.630698
0.755419
0.89263
1.04459
1.21516
1.40955
1.63316
1.89024
2.18304
2.5126
2.88196
3.2988
3.7739
4.31766
4.93924
5.64957
6.46231
7.39155
8.4498
9.64654
10.9853
12.4578
14.0379
15.6747
17.2898
18.7803
20.0302
20.9285
21.3802
21.3123
20.6767
19.4629
17.8013
16.3116
16.6466
21.6337
33.9849
53.2083
72.4003
80.6785
70.1227
51.1395
33.8979
16.6825
1.71767
-10.2898
-17.6019
-23.0202
-29.4555
-36.8407
-43.876
-49.5552
-52.5268
-52.082
-47.6937
-39.9527
-29.7786
-18.7119
-8.8696
-2.30546
0.454834
0.771533
0.485421
0.403292
0.415183
0.523477
0.209229
-0.213143
-0.438778
-0.22962
0.0178388
0.0532961
0.0949671
0.14652
0.207421
0.280248
0.365799
0.464635
0.576397
0.700622
0.837425
0.988048
1.15523
1.34334
1.55801
1.805
2.08895
2.41235
2.77663
3.18515
3.6458
4.16946
4.76684
5.44762
6.223
7.10651
8.11199
9.25123
10.5322
11.9559
13.5107
15.1667
16.8699
18.5402
20.0751
21.361
22.2892
22.7633
22.691
21.9757
20.539
18.4544
16.3455
16.0175
20.6402
33.2045
52.7515
71.2615
79.1513
68.535
51.0387
35.6718
18.6766
2.89854
-10.3853
-19.6257
-27.099
-35.027
-43.3599
-51.075
-57.1461
-60.1623
-59.7951
-55.5283
-47.7434
-37.1092
-24.9089
-13.1848
-4.40509
-0.0780549
0.818752
0.503703
0.344405
0.37986
0.500098
0.196823
-0.152524
-0.314045
-0.101536
0.0208599
0.0616934
0.108965
0.166655
0.234487
0.315264
0.409798
0.518593
0.64125
0.777401
0.927388
1.0928
1.27676
1.48402
1.7205
1.99239
2.3048
2.66075
3.06217
3.51273
4.02034
4.59593
5.25048
5.99394
6.83743
7.79387
8.87649
10.0962
11.459
12.9637
14.5958
16.3225
18.0882
19.8131
21.3968
22.7291
23.7022
24.2146
24.1522
23.3642
21.69
19.1306
16.3097
15.1959
19.3367
31.9867
51.4893
69.1024
77.3787
67.2311
51.5674
37.1522
20.8732
3.80186
-11.0101
-22.3392
-31.7291
-40.8825
-49.8682
-57.9895
-64.2585
-67.2634
-66.9806
-62.9175
-55.2799
-44.501
-31.5564
-18.2569
-7.25677
-0.965501
0.780251
0.511361
0.290209
0.345015
0.466839
0.186877
-0.0732932
-0.16953
-0.045743
0.024154
0.0708359
0.12465
0.189317
0.264935
0.354409
0.458561
0.577918
0.712185
0.861211
1.02563
1.20734
1.40974
1.63782
1.89778
2.19616
2.53856
2.92877
3.36939
3.86446
4.42177
5.05214
5.76681
6.57594
7.49011
8.52136
9.68185
10.9812
12.4236
14.0058
15.711
17.5045
19.3311
21.1131
22.7538
24.1472
25.1851
25.756
25.7188
24.8641
22.9373
19.8508
16.22
14.1922
17.7412
30.3913
49.5624
66.3174
75.5842
66.2792
52.9561
38.605
22.5995
4.25053
-12.2661
-25.6805
-36.7289
-46.8
-56.1647
-64.4631
-70.783
-73.7523
-73.5532
-69.7307
-62.3618
-51.6891
-38.3788
-23.8992
-10.8624
-2.38802
0.522714
0.527404
0.269867
0.316688
0.427857
0.174999
0.0228947
-0.0150351
0.0960429
0.0277338
0.080721
0.142134
0.21466
0.298897
0.397761
0.512127
0.642637
0.789247
0.952138
1.13227
1.33179
1.5543
1.80497
2.09018
2.41673
2.79075
3.21684
3.69845
4.24002
4.84915
5.53648
6.31348
7.19035
8.17694
9.28415
10.5228
11.9009
13.4208
15.0774
16.8527
18.7116
20.6002
22.4451
24.1549
25.628
26.7548
27.4087
27.4139
26.4962
24.2995
20.6317
16.0898
13.0184
15.8842
28.5027
47.1185
63.3475
73.8518
65.6045
54.8707
40.4939
23.7581
4.16803
-14.1834
-29.5257
-41.9012
-52.5868
-62.1106
-70.4233
-76.7018
-79.6378
-79.5178
-75.9321
-68.8797
-58.4758
-45.1199
-29.8869
-15.1448
-4.45268
-0.0168934
0.565945
0.30165
0.283859
0.381169
0.160833
0.136294
0.15514
0.287273
0.0316962
0.0914153
0.161528
0.242763
0.336367
0.445223
0.570356
0.712634
0.872367
1.05013
1.24721
1.46599
1.71026
1.9853
2.29756
2.65401
3.06128
3.52486
4.04912
4.63883
5.30133
6.04709
6.88775
7.8334
8.89308
10.0765
11.3929
12.8483
14.4436
16.1724
18.0164
19.9413
21.8961
23.8132
25.6079
27.1828
28.4255
29.1904
29.2576
28.279
25.7908
21.4843
15.9277
11.6869
13.7951
26.3203
44.2251
60.5538
72.3272
65.1537
56.515
43.0139
24.6515
3.53912
-16.7208
-33.7105
-47.0553
-58.0941
-67.63
-75.8669
-82.0659
-84.9895
-84.9433
-81.5609
-74.8097
-64.7439
-51.5704
-35.9823
-19.9511
-7.15616
-0.845837
0.529894
0.363608
0.237332
0.328273
0.151951
0.266393
0.345472
0.378299
0.0361879
0.103035
0.182893
0.273593
0.37722
0.496613
0.633048
0.787721
0.961359
1.15494
1.37009
1.60945
1.87703
2.17816
2.51926
2.90734
3.34952
3.85218
4.42057
5.05978
5.77683
6.58195
7.48679
8.50127
9.63363
10.8924
12.2852
13.8163
15.4851
17.2846
19.1973
21.191
23.2191
25.2207
27.119
28.8203
30.2081
31.1133
31.2642
30.2268
27.4216
22.4154
15.7406
10.2164
11.522
23.8197
41.0228
58.0258
71.0582
65.1821
57.3015
45.5298
25.2527
2.33871
-19.7803
-38.0553
-52.0272
-63.2234
-72.7002
-80.8393
-86.966
-89.9072
-89.9306
-86.7021
-80.1929
-70.454
-57.5866
-41.9674
-25.0924
-10.4623
-2.10203
0.29768
0.459742
0.191034
0.276384
0.151529
0.411386
0.542982
0.623716
0.0413424
0.115666
0.206182
0.306977
0.421212
0.551672
0.699962
0.86764
1.05589
1.26611
1.50029
1.76142
2.05369
2.38247
2.75403
3.17545
3.6542
4.19745
4.81129
5.50107
6.27357
7.13865
8.10768
9.19029
10.3941
11.7266
13.1939
14.7985
16.5389
18.4084
20.391
22.4585
24.5697
26.6708
28.6937
30.5482
32.1105
33.1851
33.4412
32.3482
29.1995
23.4303
15.5385
8.64932
9.18535
21.1102
37.7288
55.7338
69.9984
66.1692
57.6254
46.931
25.2137
0.538311
-23.2294
-42.3888
-56.6933
-67.9251
-77.3379
-85.4103
-91.5038
-94.4933
-94.5842
-91.4573
-85.1095
-75.6292
-63.0941
-47.6644
-30.3609
-14.267
-3.85693
-0.186005
0.583994
0.176627
0.224045
0.151641
0.559441
0.744513
0.910534
0.0472494
0.129336
0.231247
0.34265
0.468002
0.610043
0.770737
0.951993
1.15545
1.38297
1.63701
1.92089
2.23907
2.59685
3.00038
3.45665
3.97346
4.55865
5.21902
5.9603
6.789
7.71441
8.74734
9.89703
11.1706
12.5747
14.1141
15.7902
17.601
19.5404
21.5956
23.7435
25.9494
28.1678
30.338
32.3735
34.14
35.4114
35.7924
34.6471
31.1295
24.5358
15.3388
7.04529
6.91849
18.3347
34.6509
53.6779
69.0302
67.9555
58.3376
47.0006
24.4179
-1.8456
-26.9207
-46.567
-60.9771
-72.1915
-81.5848
-89.6547
-95.7698
-98.8325
-98.9908
-95.9202
-89.6514
-80.3319
-68.0803
-52.9493
-35.5513
-18.4016
-6.06704
-0.886494
0.623889
0.213978
0.152486
0.147639
0.694563
0.951922
1.24011
0.0538923
0.14396
0.257827
0.380261
0.51718
0.671282
0.844897
1.04026
1.25944
1.5048
1.7793
2.08671
2.43174
2.81967
3.25644
3.7489
4.30501
4.9332
5.64098
6.43453
7.3201
8.3061
9.4026
10.6183
11.9599
13.4335
15.043
16.7889
18.6693
20.6799
22.8117
25.048
27.3624
29.7176
32.0598
34.3047
36.3049
37.7982
38.3207
37.1253
33.2165
25.7432
15.169
5.47146
4.7949
15.5723
31.9392
51.8633
68.0547
69.9317
60.1293
46.4563
22.9883
-4.73793
-30.7081
-50.4851
-64.8481
-76.0469
-85.4932
-93.6374
-99.8294
-102.981
-103.207
-100.16
-93.9016
-84.6411
-72.5788
-57.7562
-40.4905
-22.6833
-8.68682
-1.89716
0.401324
0.338586
0.0584266
0.141338
0.805818
1.1641
1.59375
0.0611011
0.159303
0.285527
0.419382
0.568302
0.734932
0.921946
1.13189
1.36722
1.63082
1.92621
2.2577
2.63027
3.0492
3.52021
4.0499
4.64631
5.31833
6.07422
6.92067
7.86359
8.9104
10.0702
11.3512
12.7597
14.3013
15.9793
17.7941
19.7448
21.8292
24.043
26.3774
28.8152
31.3284
33.8693
36.3523
38.6151
40.3539
41.0316
39.7865
35.4675
27.0686
15.0676
4.0071
2.81771
12.8754
29.6117
50.2653
67.0744
71.4902
62.6452
45.7348
21.0656
-8.02329
-34.4611
-54.0812
-68.3135
-79.536
-89.1156
-97.4046
-103.717
-106.962
-107.256
-104.216
-97.9209
-88.6325
-76.6497
-62.0725
-45.0526
-26.938
-11.6437
-3.32266
-0.165883
0.602215
-0.0517368
0.140399
0.898101
1.38488
1.89646
0.0685687
0.175061
0.313923
0.459615
0.621003
0.800642
1.00148
1.22633
1.47806
1.76011
2.07665
2.43259
2.83322
3.2838
3.78975
4.35736
4.99473
5.71122
6.51587
7.41577
8.41644
9.5242
10.7472
12.0932
13.5682
15.177
16.9231
18.8073
20.8303
22.9927
25.296
27.7396
30.3173
33.0107
35.7779
38.529
41.0824
43.0891
43.9337
42.6378
37.8917
28.5326
15.0915
2.79376
1.09684
10.3674
27.5799
48.8205
66.2118
72.1951
65.0486
45.011
18.7317
-11.5712
-38.0751
-57.3323
-71.4077
-82.7128
-92.4965
-100.981
-107.439
-110.773
-111.134
-108.096
-101.743
-92.3652
-80.3612
-65.9252
-49.1625
-31.0029
-14.7919
-5.02372
-0.884734
0.962212
-0.163937
0.15609
0.996221
1.6278
2.27207
0.0759445
0.190994
0.342711
0.500701
0.67503
0.868123
1.08309
1.32302
1.59121
1.89177
2.22959
2.61025
3.03934
3.52203
4.06333
4.66927
5.34801
6.10946
6.96338
7.91717
8.97586
10.1448
11.4313
12.8428
14.3847
16.0612
17.8761
19.8317
21.9305
24.1773
26.5794
29.1454
31.8805
34.7771
37.7985
40.848
43.7194
46.0151
47.0374
45.6887
40.5009
30.1599
15.3073
1.97399
-0.28529
8.1792
25.7524
47.3521
65.5384
72.0329
66.3595
44.128
16.0191
-15.2554
-41.4766
-60.2452
-74.1797
-85.6316
-95.6685
-104.372
-110.981
-114.397
-114.822
-111.791
-105.376
-95.8764
-83.7743
-69.366
-52.7952
-34.7455
-17.96
-6.82619
-1.5167
1.23034
-0.261615
0.192786
1.14491
1.90305
2.71561
0.0829929
0.207052
0.371773
0.542506
0.730153
0.936995
1.16624
1.42125
1.70588
2.02497
2.38426
2.78991
3.24774
3.76271
4.33947
4.98389
5.70432
6.51126
7.41503
8.42303
9.53985
10.7702
12.121
13.5992
15.2094
16.9552
18.8412
20.8717
23.0518
25.391
27.9033
30.6067
33.5183
36.6416
39.9446
43.322
46.538
49.1417
50.3514
48.9486
43.3076
31.9769
15.7783
1.62419
-1.33498
6.40245
24.0813
45.7367
64.8808
71.389
66.0247
42.6548
12.9446
-18.9648
-44.6216
-62.8453
-76.6826
-88.3395
-98.6509
-107.571
-114.32
-117.807
-118.297
-115.281
-108.814
-99.1816
-86.9343
-72.4548
-55.9668
-38.0752
-20.9902
-8.62631
-2.11754
1.15279
-0.237197
0.254567
1.37032
2.20419
3.06942
0.0896496
0.223354
0.401118
0.584926
0.786081
1.00677
1.25028
1.52033
1.82142
2.15923
2.54026
2.97119
3.45788
4.00504
4.61709
5.29997
6.06246
6.91557
7.86983
8.93238
10.1075
11.3998
12.8161
14.3629
16.0437
17.8618
19.8228
21.9332
24.2016