/*--------------------------------*- C++ -*----------------------------------*\
| =========                 |                                                 |
| \\      /  F ield         | OpenFOAM: The Open Source CFD Toolbox           |
|  \\    /   O peration     | Version:  4.1                                   |
|   \\  /    A nd           | Web:      www.OpenFOAM.org                      |
|    \\/     M anipulation  |                                                 |
\*---------------------------------------------------------------------------*/
FoamFile
{
    version     2.0;
    format      ascii;
    class       volScalarField;
    location    "18";
    object      p;
}
// * * * * * * * * * * * * * * * * * * * * * * * * * * * * * * * * * * * * * //

dimensions      [0 2 -2 0 0 0 0];

internalField   nonuniform List<scalar> 
225
(
34216.7
35243.9
36315.3
36902.4
37188.9
37267.6
37171.6
36976.8
36689.2
36368
36068.1
35752.2
35445
35119.4
34692.5
33212.4
32772
30925.8
30000
30097.6
30484.8
31081.1
31518.1
31580.4
31478.8
31720.7
32331
33109.9
34284.5
35500.2
32293.2
32349.6
31775.6
31062.1
29887.9
29109.9
29435.9
30505.9
31330.2
31460.1
31564.4
31920
32690.5
33682.5
34760.6
23524.9
23941.2
24313.3
24932.2
25869.5
26698.8
27562.9
28490.6
29615.7
30253.8
30184.3
29802.3
29487.9
29165.1
29170
24319.7
22747.7
21816.1
21352.6
21470
22059.6
22696.2
23109.1
23349.9
23689.2
24354.6
25017
25693
25432.6
24674.5
25196.3
24010.3
23651.3
24074.5
23754.8
23482.4
24226.3
25475.6
25488.5
25058.6
25096
25279.5
25641.9
26090.2
25491.5
24911
25335.4
25551.2
25404.4
24831.1
23923.8
22926.4
22373.4
22785.6
23513.8
24442.1
25313.1
26293.6
28305
30062.9
20001.3
19542.8
20074.5
20818.5
21545.6
21873.7
22157.7
22326.8
22356.7
22829.6
23796.9
24875.2
25626.8
26270
27505.2
16442.1
15169.7
14503
13908.7
13817.2
14329
15215.3
16526.2
17773.4
18650.9
19640.1
20895.5
22227.7
23196.4
23920.6
6528.4
6985.21
7546.6
7327.82
7601.55
8394.8
9103.2
9986.59
11112.5
12264.2
13531.7
14954
16439.4
17246.8
17331.5
4804.35
5722.96
6098.67
6282.71
6525.64
6849.29
7007.62
7106.21
7301.31
7413.5
7544.58
7457.13
7754.58
8187.07
7720.18
6604.72
6632.1
6671.55
6631.15
6647.05
6798.26
7139.22
7570.52
8161.66
8935.78
9629.97
9782.88
9518.08
9650.18
9610.89
5875.58
5582.42
5416.05
5288.18
5317.14
5333.52
5301.6
5328.17
5713.59
6348.29
6924.42
7290.26
7567.87
7732.36
7550.76
5993.73
5318.8
4892.85
4625.71
4492.26
4365.48
4286.04
4300.74
4450.5
4593.64
4841.52
5382.02
5863.53
6066.33
5563.12
2862.49
2669.31
2561.03
2564.56
2501.87
2422.74
2461.62
2418.95
2236.56
2234.02
1871.42
1336.08
1252.66
971.794
941.241
)
;

boundaryField
{
    inletFace
    {
        type            zeroGradient;
    }
    inlet
    {
        type            zeroGradient;
    }
    inletWalls
    {
        type            zeroGradient;
    }
    outletInlet
    {
        type            fixedValue;
        value           uniform 0;
    }
}


// ************************************************************************* //
