/*--------------------------------*- C++ -*----------------------------------*\
| =========                 |                                                 |
| \\      /  F ield         | OpenFOAM: The Open Source CFD Toolbox           |
|  \\    /   O peration     | Version:  4.1                                   |
|   \\  /    A nd           | Web:      www.OpenFOAM.org                      |
|    \\/     M anipulation  |                                                 |
\*---------------------------------------------------------------------------*/
FoamFile
{
    version     2.0;
    format      ascii;
    class       surfaceScalarField;
    location    "18";
    object      phi;
}
// * * * * * * * * * * * * * * * * * * * * * * * * * * * * * * * * * * * * * //

dimensions      [0 3 -1 0 0 0 0];

internalField   nonuniform List<scalar> 
13220
(
-815.906
2115.8
-1270.81
1755.1
-1725.82
1754.91
-2062.92
1637
-2332.89
1570.17
-2525.83
1492.84
-2647.26
1421.33
-2697.87
1350.8
-2680.84
1282.87
-2594.35
1213.41
-2429.53
1135.38
-2154.8
1025.17
-1692.92
838.021
-972.098
579.376
327.802
-168.055
2283.86
-389.572
1976.61
-657.091
2022.43
-874.623
1854.53
-1087.93
1783.48
-1265.81
1670.71
-1420.64
1576.15
-1547.93
1478.1
-1652.24
1387.18
-1726.92
1288.09
-1731.73
1140.18
-1557.13
850.567
-1074.48
355.366
-439.644
-55.46
-111.842
-151.237
2435.09
-374.199
2199.57
-540.261
2188.49
-645.133
1959.4
-737.982
1876.32
-789.053
1721.78
-817.09
1604.19
-817.996
1479
-794.442
1363.62
-747.274
1240.92
-676.37
1069.27
-569.155
743.341
-411.436
197.625
-281.167
-185.756
-393.01
93.1305
2341.96
52.6903
2240.01
78.4186
2162.76
129.366
1908.45
187.039
1818.65
261.69
1647.13
349.84
1516.04
453.377
1375.46
571.349
1245.65
694.454
1117.81
789.134
974.591
757.027
775.448
477.311
477.341
84.3538
207.2
-308.656
145.919
2196.04
169.176
2216.75
237.548
2094.38
313.552
1832.45
391.108
1741.09
473.19
1565.04
555.315
1433.91
635.085
1295.69
709.525
1171.21
773.87
1053.47
813.856
934.605
781.055
808.245
614.034
644.357
355.014
466.211
46.3584
78.9901
2117.05
132.454
2163.29
191.109
2035.73
253.199
1770.36
311.141
1683.15
381.389
1494.79
452.786
1362.51
541.722
1206.75
637.462
1075.47
724.181
966.748
770.267
888.519
742.162
836.357
597.812
788.715
354.133
709.903
400.491
-19.3851
2136.43
20.6379
2123.26
43.5848
2012.78
40.2155
1773.73
35.6457
1687.72
27.7365
1502.7
46.2217
1344.03
138.795
1114.18
303.377
910.884
500.054
770.071
656.792
731.782
698.428
794.716
577.134
910.005
330.122
956.911
730.613
-110.38
2246.81
-223.005
2235.89
-315.469
2105.25
-451.947
1910.2
-592.596
1828.37
-751.853
1661.96
-889.22
1481.39
-962.884
1187.85
-951.77
899.772
-852.861
671.164
-659.198
538.12
-386.45
521.975
-123.005
646.568
15.2571
818.658
745.87
27.6706
2219.14
-196.297
2459.86
-358.012
2266.96
-511.942
2064.14
-664.095
1980.52
-831.042
1828.91
-1020.57
1670.92
-1240.73
1408.01
-1466.95
1125.99
-1645.3
849.512
-1694.92
587.748
-1517.54
344.584
-1062.92
191.953
-448.549
204.276
297.322
293.961
1925.18
184.345
2569.47
68.6306
2382.68
11.0613
2121.71
-5.29427
1996.88
-23.0049
1846.62
-60.7971
1708.71
-162.709
1509.93
-321.321
1284.6
-510.895
1039.09
-703.213
780.067
-849.819
491.199
-829.403
171.547
-557.538
-67.5775
-260.217
389.443
1535.74
454.633
2504.29
442.662
2394.65
480.865
2083.51
576.21
1901.54
681.823
1741.01
785.151
1605.39
845.526
1449.55
848.625
1281.5
786.324
1101.39
658.359
908.035
450.083
699.475
169.605
452.027
-65.1128
167.144
-325.329
268.439
1267.31
373.41
2399.32
414.1
2353.96
462.04
2035.57
539.177
1824.4
623.45
1656.74
708.721
1520.12
775.472
1382.8
814.817
1242.16
817.616
1098.59
776.916
948.736
683.452
792.945
522.038
613.449
282.688
406.51
-42.6418
172.894
1094.41
290.704
2281.51
379.407
2265.26
475.366
1939.61
582.891
1716.88
677.484
1562.15
751.123
1446.48
797.935
1335.99
812.696
1227.4
793.127
1118.16
736.472
1005.39
639.546
889.872
495.53
757.467
296.032
606.012
253.39
239.002
855.412
390.482
2130.03
393.527
2262.22
329.339
2003.8
286.598
1759.62
272.55
1576.19
284.483
1434.55
314.971
1305.5
358.638
1183.74
410.372
1066.43
459.725
956.039
479.766
869.833
418.703
818.531
256.795
767.922
510.185
314.323
1232.87
1987.95
2347.5
2423.22
2392.98
2238.35
2024.15
1783.18
1534.72
1266.71
992.3
711.338
388.79
-5.70064e-07
-536.457
536.457
-536.457
-536.457
-536.457
70.8332
-607.29
70.8332
70.8332
70.8332
568.696
-497.863
568.696
568.696
966.972
-398.276
966.972
966.972
966.972
1274.97
-307.998
1274.97
1274.97
1486.59
-211.623
1486.59
1486.59
1486.59
1614.6
-128.006
1614.6
1614.6
1614.6
1665.18
-50.5789
1665.18
1665.18
1640.52
24.6549
1640.52
1640.52
1640.52
1547.16
93.3607
1547.16
1547.16
1394.37
152.789
1394.37
1394.37
1394.37
1203.89
190.482
1203.89
1203.89
1203.89
1068.89
135.002
1068.89
1068.89
957.873
111.017
957.873
957.873
957.873
725.141
232.732
725.141
725.141
725.141
385.345
339.795
385.345
385.345
18.7661
366.579
18.7662
18.766
18.7662
-603.282
622.048
-603.282
-603.282
-1833.98
1230.69
-1833.98
-1833.98
-1833.98
-3542.34
1708.36
-3542.34
-3542.34
-3542.34
-5546.32
2003.99
-5546.32
-5546.32
-7755.87
2209.55
-7755.87
-7755.87
-7588.87
-7423.71
-7257.03
-9435.46
2346.67
-9262.16
-9069.65
-8866.07
-8661.5
-8455.64
-8248.58
-8044
-7840.6
-10129.3
2488.62
-9919
-9708.79
-9498.67
-9287.63
-9073.64
-8857.6
-8641.04
-8423.41
-10723.8
2515.73
-10494
-10262.6
-10030.4
-9798.29
-9561.16
-9313.95
-9065.19
-8814.57
-8563.35
-10752.7
2427.76
-10488.2
-10222.1
-9955.04
-9687.52
-9419.13
-9137.09
-8846.86
-8556.13
-10509
2228.63
-10224.3
-9933.45
-9632.36
-9333.09
-9035.07
-8739.31
-8444.43
-8131.87
-9543.25
1709.61
-9242.83
-8944.5
-8646.84
-8333.99
-8014.75
-7696.79
-7378.69
-7063.32
-7932.22
1183.1
-7610.16
-7296.32
-6989.6
-6691.67
-6403.07
-6105.83
-5818.38
-5538.41
-5266.79
-4869.48
-114.73
-4621.81
-4388.67
-4158.62
-3932.74
-3710.13
-3529.22
-3429.43
-3328.31
-2846.72
-373.47
-2752.69
-2661.24
-2661.24
-2413.84
-247.399
-2126.17
-287.669
-2126.17
-1872.12
-254.049
-1872.12
-1629.24
-242.885
-1387.29
-241.942
-1387.29
-1146.23
-241.066
-908.339
-237.889
-908.339
-672.871
-235.468
-672.871
-446.069
-226.802
-247.393
-198.676
-247.393
-59.9448
-187.448
-59.945
98.1249
-158.07
209.853
-111.728
209.853
292
-82.1476
358.362
-66.3621
358.362
423.537
-65.1744
423.537
500.279
-76.7421
591.298
-91.0194
591.298
695.421
-104.123
695.421
797.421
-102
891.423
-94.0016
891.423
967.118
-75.6948
1019.08
-51.9655
1019.08
1052.52
-33.4321
1052.52
1067.84
-15.3201
1074.39
-6.55051
1074.39
1083.05
-8.66762
1083.05
1097.06
-14.004
1119.97
-22.9114
1119.97
1152.15
-32.1763
1183.83
-31.6896
1183.83
1240.77
-56.937
1240.77
1295.96
-55.1904
1336.3
-40.3368
1336.3
1382.24
-45.9455
1382.24
1408.01
-25.7611
1430.52
-22.5155
1430.52
1451.05
-20.5256
1464.67
-13.6207
1464.67
1483.39
-18.7215
1483.39
1493.87
-10.4794
1502.07
-8.19857
1502.07
1519.22
-17.1484
1519.22
1534.97
-15.753
1550
-15.0314
1550
1577.63
-27.6333
1602.03
-24.3944
1602.03
1645.04
-43.0078
1645.04
-47.7497
-258.044
-878.506
-261.832
-1007.32
-266.591
-1045.1
-272.486
-1111.39
-279.701
-1157.67
-288.956
-1208.5
-301.228
-1250.91
-318.229
-1289.08
-341.994
-1317.6
-374.607
-1335.36
-417.265
-1340.49
-469.431
-1334.49
-528.344
-1321.2
-589.427
-1306.43
-647.424
-1295.73
-697.759
-1292.71
-737.48
-1298.03
-765.51
-1309.8
-782.348
-1324.65
-789.51
-1339.01
-788.995
-1350.37
-782.874
-1357.93
-773.039
-1362.72
-761.067
-1366.66
-748.226
-1371.14
-735.577
-1375.62
-724.096
-1377.22
-714.705
-1371.28
-708.252
-1352.02
-705.586
-1314.51
-706.985
-1259.81
-706.122
-1185.88
-677.848
-999.026
-607.539
-431.399
-547.788
430.584
-520.889
880.391
-498.764
1118.04
-477.074
1334.3
-455.314
1571.99
-433.883
1819.54
-412.973
2069.65
-392.717
2316.86
-372.906
2557.28
-352.937
2786.88
-332.668
3000.38
-312.08
3195.24
-291.085
3370.55
-269.643
3525.32
-247.633
3659.5
-225.108
3772.34
-201.914
3865.07
-178.124
3936.67
-153.626
3990.54
-128.135
4025.75
-102.036
4030.79
-75.5585
4006.41
-49.7946
3945.93
-24.2096
3861.51
-1.90915
3616.03
16.1163
3297.17
30.029
2952.22
38.8237
2512.16
44.8875
2162.62
48.9035
1872.2
51.7472
1616.99
54.2109
1412.43
56.5332
1242.23
58.9209
1109.15
60.8461
930.666
63.5199
799.285
64.0559
483.986
72.9827
274.793
79.0566
-16.4653
65.4662
-966.719
31.6581
-1942.89
22.3468
-2418.12
3.65932
-2915.69
18.2116
-2869.77
1309.8
-272.117
-876.202
-275.745
-1003.69
-281.085
-1039.76
-287.946
-1104.53
-296.9
-1148.72
-309.193
-1196.21
-326.489
-1233.61
-351.269
-1264.3
-385.934
-1282.94
-432.055
-1289.24
-489.034
-1283.52
-553.505
-1270.02
-619.775
-1254.93
-681.423
-1244.78
-733.145
-1244.01
-771.93
-1253.92
-797.179
-1272.78
-810.061
-1296.92
-812.674
-1322.03
-807.406
-1344.28
-796.595
-1361.18
-782.388
-1372.14
-766.677
-1378.43
-751.054
-1382.29
-736.816
-1385.38
-725.05
-1387.38
-716.713
-1385.56
-712.605
-1375.38
-713.235
-1351.39
-718.834
-1308.91
-729.059
-1249.59
-737.226
-1177.71
-712.901
-1023.35
-620.998
-523.302
-535.595
345.181
-510.002
854.798
-492.561
1100.59
-471.445
1313.18
-450.145
1550.69
-429.715
1799.12
-409.843
2049.78
-390.485
2297.5
-371.405
2538.2
-352.015
2767.49
-332.203
2980.57
-311.967
3175
-291.236
3349.82
-269.979
3504.07
-248.099
3637.62
-225.651
3749.9
-202.496
3841.91
-178.717
3912.89
-154.214
3966.04
-128.709
4000.24
-102.596
4004.67
-76.1114
3979.93
-50.3637
3920.18
-24.7537
3835.9
-2.35595
3593.63
15.833
3278.99
30.0071
2938.04
39.1387
2503.03
45.6658
2156.09
50.2353
1867.63
53.6609
1613.56
56.7096
1409.38
59.5309
1239.41
62.3537
1106.33
64.3605
928.659
67.4598
796.186
66.7172
484.729
78.5118
262.998
88.1304
-26.084
69.4989
-948.087
32.1454
-1905.54
21.7728
-2407.75
5.07757
-2899
16.9508
-2881.64
1283.74
-280.199
-873.609
-283.786
-1000.11
-289.754
-1033.79
-297.679
-1096.6
-308.596
-1137.8
-324.221
-1180.58
-346.717
-1211.11
-378.779
-1232.24
-422.282
-1239.44
-477.29
-1234.23
-540.979
-1219.83
-607.936
-1203.07
-671.609
-1191.26
-726.3
-1190.09
-768.533
-1201.78
-797.314
-1225.14
-813.516
-1256.58
-819.008
-1291.43
-815.973
-1325.07
-806.568
-1353.68
-792.845
-1374.9
-776.763
-1388.22
-760.178
-1395.01
-744.767
-1397.7
-731.965
-1398.18
-722.962
-1396.39
-718.69
-1389.83
-719.728
-1374.35
-726.101
-1345.01
-737.299
-1297.71
-752.287
-1234.6
-764.968
-1165.03
-746.216
-1042.1
-648.233
-621.286
-533.432
230.38
-495.427
816.793
-482.06
1087.23
-463.939
1295.06
-443.277
1530.03
-423.782
1779.62
-405.252
2031.25
-387.179
2279.43
-369.171
2520.19
-350.659
2748.98
-331.558
2961.46
-311.874
3155.32
-291.564
3329.51
-270.609
3483.11
-248.939
3615.95
-226.619
3727.58
-203.532
3818.83
-179.777
3889.14
-155.255
3941.52
-129.713
3974.7
-103.547
3978.51
-77.0194
3953.4
-51.2298
3894.4
-25.5124
3810.18
-2.9502
3571.07
15.4735
3260.56
29.9997
2923.52
39.5823
2493.45
46.6962
2148.98
51.9959
1862.33
56.2412
1609.31
60.1279
1405.49
63.7151
1235.82
67.1325
1102.91
69.4547
926.337
72.7692
792.872
71.1304
486.368
81.9438
252.185
92.8436
-36.9838
72.3606
-927.604
33.327
-1866.51
21.1372
-2395.56
5.49064
-2883.35
7.97099
-2884.12
1267.31
-289.945
-870.612
-293.706
-996.345
-300.675
-1026.82
-310.342
-1086.94
-324.33
-1123.81
-344.93
-1159.98
-374.705
-1181.34
-416.145
-1190.8
-469.882
-1185.7
-533.784
-1170.33
-602.646
-1150.97
-669.603
-1136.11
-728.24
-1132.62
-774.352
-1143.98
-806.454
-1169.67
-825.237
-1206.36
-832.58
-1249.23
-830.727
-1293.28
-821.838
-1333.96
-807.89
-1367.63
-790.777
-1392.02
-772.425
-1406.58
-754.797
-1412.64
-739.771
-1412.72
-728.975
-1408.98
-723.66
-1401.7
-724.592
-1388.9
-731.893
-1367.05
-744.853
-1332.05
-762.028
-1280.54
-781.684
-1214.94
-798.569
-1148.15
-786.171
-1054.5
-688.193
-719.263
-543.745
85.9324
-483.524
756.572
-468.052
1071.76
-453.917
1280.92
-435.277
1511.39
-416.735
1761.08
-399.51
2014.03
-382.961
2262.88
-366.32
2503.55
-348.952
2731.61
-330.792
2943.3
-311.85
3136.38
-292.11
3309.77
-271.568
3462.57
-250.189
3594.57
-228.048
3705.44
-205.057
3795.83
-181.33
3865.41
-156.777
3916.96
-131.171
3949.1
-104.915
3952.25
-78.3034
3926.79
-52.4149
3868.51
-26.5394
3784.3
-3.75669
3548.29
14.9586
3241.85
29.9067
2908.57
40.0393
2483.32
47.8459
2141.17
54.0142
1856.17
59.2604
1604.07
64.1952
1400.56
68.7598
1231.25
72.9637
1098.71
75.7335
923.567
79.3702
789.235
76.9472
488.791
86.881
242.251
98.8728
-48.9756
76.5064
-905.238
34.9991
-1825
20.2318
-2380.79
4.46105
-2867.58
1.07392
-2880.74
1240.76
-299.787
-867.06
-304.018
-992.113
-312.517
-1018.32
-324.856
-1074.6
-343.326
-1105.34
-370.748
-1132.56
-409.676
-1142.41
-461.591
-1138.88
-524.98
-1122.31
-595.085
-1100.22
-664.817
-1081.23
-727.104
-1073.82
-776.973
-1082.75
-812.427
-1108.52
-833.968
-1148.13
-843.522
-1196.8
-843.431
-1249.32
-835.884
-1300.83
-822.76
-1347.08
-805.753
-1384.64
-786.606
-1411.16
-767.281
-1425.9
-749.951
-1429.97
-736.771
-1425.9
-729.559
-1416.19
-729.499
-1401.76
-736.947
-1381.45
-751.283
-1352.71
-770.825
-1312.51
-793.103
-1258.26
-815.757
-1192.29
-834.854
-1129.05
-828.664
-1060.69
-737.994
-809.933
-568.583
-83.4784
-476.464
664.453
-452.689
1047.98
-440.889
1269.12
-425.438
1495.94
-408.635
1744.27
-392.704
1998.09
-377.739
2247.92
-362.74
2488.55
-346.819
2715.69
-329.862
2926.35
-311.884
3118.4
-292.892
3290.78
-272.901
3442.58
-251.91
3573.58
-230.014
3683.54
-207.155
3772.97
-183.469
3841.72
-158.876
3892.37
-133.178
3923.4
-106.792
3925.86
-80.0446
3900.04
-54
3842.46
-27.8952
3758.2
-4.82229
3525.21
14.254
3222.77
29.7107
2893.11
40.4922
2472.54
49.1088
2132.55
56.2938
1848.98
62.7304
1597.63
68.9331
1394.36
74.6999
1225.49
79.9013
1093.51
83.2723
920.196
87.3645
785.143
84.3688
491.786
92.9738
233.646
104.948
-60.9495
81.1886
-881.479
37.1954
-1781.01
19.0702
-2362.66
2.17756
-2850.69
-11.1108
-2867.45
1214.61
-310.283
-862.715
-315.474
-986.923
-326.331
-1007.46
-342.683
-1058.25
-367.473
-1080.55
-403.757
-1096.28
-453.336
-1092.83
-515.711
-1076.51
-586.586
-1051.44
-658.889
-1027.92
-724.883
-1015.24
-778.751
-1019.96
-817.835
-1043.67
-842.37
-1083.99
-854.307
-1136.2
-856.138
-1194.97
-850.163
-1255.3
-838.25
-1312.74
-821.931
-1363.4
-802.681
-1403.89
-782.23
-1431.61
-762.75
-1445.38
-746.769
-1445.95
-736.778
-1435.89
-734.675
-1418.29
-741.303
-1395.13
-756.246
-1366.51
-777.829
-1331.13
-803.278
-1287.06
-829.194
-1232.34
-852.819
-1168.66
-871.834
-1110.04
-870.583
-1061.94
-791.46
-889.056
-605.039
-269.9
-475.596
535.01
-437.874
1010.26
-425.647
1256.9
-413.173
1483.47
-399.167
1730.27
-384.958
1983.89
-371.546
2234.5
-358.315
2475.32
-344.123
2701.5
-328.648
2910.87
-311.872
3101.62
-293.825
3272.73
-274.542
3423.3
-254.059
3553.09
-232.491
3661.97
-209.816
3750.3
-186.195
3818.1
-161.562
3867.74
-135.752
3897.59
-109.199
3899.31
-82.2667
3873.11
-56.0052
3816.2
-29.596
3731.79
-6.15874
3501.78
13.349
3203.26
29.3946
2877.07
40.913
2461.02
50.4378
2123.03
58.7658
1840.65
66.5589
1589.84
74.2243
1386.69
81.3992
1218.31
87.7893
1087.12
91.924
916.061
96.5615
780.505
93.3047
495.043
100.281
226.67
111.523
-72.1916
86.5641
-856.52
39.89
-1734.33
17.6888
-2340.46
-1.41102
-2831.59
-23.2782
-2845.58
1175.58
-321.658
-857.215
-328.563
-980.018
-342.989
-993.038
-365.135
-1036.1
-398.355
-1047.33
-445.294
-1049.34
-505.978
-1032.15
-577.069
-1005.41
-651.544
-976.96
-721.162
-958.299
-779.147
-957.254
-822.055
-977.047
-849.732
-1015.99
-864.128
-1069.59
-867.918
-1132.4
-863.594
-1199.3
-853.102
-1265.79
-837.896
-1327.95
-819.208
-1382.09
-798.424
-1424.67
-777.44
-1452.6
-758.822
-1464
-745.58
-1459.2
-740.492
-1440.98
-745.263
-1413.52
-759.952
-1380.44
-782.937
-1343.52
-811.284
-1302.78
-841.217
-1257.13
-868.73
-1204.83
-890.977
-1146.42
-907.296
-1093.72
-908.697
-1060.54
-843.744
-954.009
-651.291
-462.354
-482.283
366.002
-424.684
952.66
-409.364
1241.58
-398.574
1472.68
-387.796
1719.49
-376.138
1972.23
-364.475
2222.84
-353.014
2463.86
-340.732
2689.22
-327.016
2897.16
-311.698
3086.31
-294.811
3255.84
-276.412
3404.9
-256.573
3533.25
-235.433
3640.83
-213.011
3727.88
-189.493
3794.59
-164.83
3843.08
-138.897
3871.66
-112.146
3872.56
-84.9866
3845.95
-58.4501
3789.66
-31.6663
3705.01
-7.79436
3477.91
12.212
3183.26
28.92
2860.36
41.2568
2448.68
51.7769
2112.51
61.3589
1831.07
70.6559
1580.54
79.9571
1377.39
88.7247
1209.54
96.4766
1079.36
101.529
911.009
106.787
775.247
103.576
498.255
108.797
221.448
118.624
-82.0178
92.5446
-830.441
43.1081
-1684.9
16.1659
-2313.52
-6.23181
-2809.19
-32.1704
-2819.64
1126.26
-334.405
-850.008
-344.17
-970.252
-363.829
-973.38
-393.918
-1006.01
-437.609
-1003.64
-496.126
-990.823
-566.683
-961.592
-642.857
-929.241
-715.887
-903.93
-778.081
-896.105
-825.022
-910.313
-856.037
-946.033
-872.999
-999.029
-878.779
-1063.81
-876.11
-1135.07
-867.098
-1208.31
-853.208
-1279.68
-835.51
-1345.65
-815.058
-1402.54
-793.332
-1446.4
-772.614
-1473.32
-756.069
-1480.54
-747.254
-1468.01
-749.031
-1439.2
-762.416
-1400.14
-786.103
-1356.76
-816.899
-1312.73
-850.637
-1269.04
-882.911
-1224.85
-909.616
-1178.13
-928.156
-1127.88
-939.26
-1082.61
-940.232
-1059.57
-890.733
-1003.51
-708.45
-644.637
-501.254
158.807
-414.278
865.684
-392.708
1220.01
-382.222
1462.19
-374.201
1711.47
-365.809
1963.84
-356.481
2213.51
-346.879
2454.25
-336.571
2678.91
-324.838
2885.42
-311.245
3072.71
-295.752
3240.35
-278.433
3387.58
-259.395
3514.22
-238.803
3620.24
-216.718
3705.79
-193.354
3771.22
-168.684
3818.41
-142.626
3845.6
-115.655
3845.59
-88.2306
3818.53
-61.3648
3762.8
-34.1396
3677.78
-9.76467
3453.53
10.8064
3162.69
28.2496
2842.91
41.4841
2435.45
53.0846
2100.91
64.0268
1820.13
74.967
1569.6
86.0665
1366.29
96.5974
1199.01
105.871
1070.09
111.983
904.898
117.929
769.3
115.021
501.163
118.503
217.966
126.362
-89.8775
99.1321
-803.211
46.8756
-1632.64
14.6102
-2281.26
-12.3992
-2782.18
-48.0173
-2784.02
1070.05
-349.248
-840.278
-363.517
-955.982
-390.503
-946.393
-430.773
-965.74
-486.302
-948.11
-555.726
-921.399
-632.895
-884.423
-709.041
-853.094
-775.437
-837.534
-826.618
-844.924
-861.187
-875.745
-880.847
-926.372
-888.642
-991.235
-887.587
-1064.87
-880.016
-1142.65
-867.486
-1220.84
-850.997
-1296.17
-831.349
-1365.29
-809.594
-1424.29
-787.527
-1468.47
-768.067
-1492.78
-755.162
-1493.45
-752.846
-1470.33
-763.608
-1428.44
-787.048
-1376.7
-819.893
-1323.91
-857.272
-1275.35
-894.157
-1232.16
-926.122
-1192.89
-949.545
-1154.7
-962.352
-1115.07
-966.167
-1078.8
-963.254
-1062.48
-927.346
-1039.42
-774.21
-797.773
-539.553
-75.8503
-409.159
735.289
-376.015
1186.86
-364.711
1450.89
-358.482
1705.24
-353.503
1958.86
-347.279
2207.29
-339.926
2446.9
-331.644
2670.63
-322.014
2875.79
-310.39
3061.09
-296.543
3226.5
-280.518
3371.55
-262.459
3496.16
-242.554
3600.33
-220.907
3684.15
-197.765
3748.08
-173.124
3793.77
-146.948
3819.42
-119.743
3818.38
-92.0219
3790.81
-64.7769
3735.55
-37.0462
3650.05
-12.1016
3428.59
9.09972
3141.48
27.3493
2824.67
41.559
2421.24
54.3236
2088.14
66.7292
1807.72
79.447
1556.88
92.4987
1353.24
104.951
1186.56
115.892
1059.15
123.188
897.601
129.872
762.616
127.46
503.574
129.268
216.159
134.74
-95.3495
106.302
-774.773
51.2262
-1577.56
13.2088
-2243.24
-19.5825
-2749.39
-61.8457
-2741.76
997.722
-367.238
-826.867
-388.202
-935.019
-424.838
-909.757
-477.064
-913.515
-544.357
-880.816
-621.905
-843.851
-700.634
-805.694
-771.157
-782.571
-826.728
-781.963
-865.089
-806.563
-887.61
-853.223
-897.47
-916.513
-897.988
-990.717
-891.779
-1071.07
-880.563
-1153.86
-865.353
-1236.05
-846.79
-1314.73
-825.568
-1386.52
-802.941
-1446.92
-781.285
-1490.12
-764.42
-1509.64
-757.178
-1500.69
-763.763
-1463.74
-785.502
-1406.7
-819.699
-1342.5
-860.735
-1282.88
-902.387
-1233.7
-939.5
-1195.04
-968.328
-1164.06
-986.197
-1136.83
-991.722
-1109.55
-986.863
-1083.66
-976.878
-1072.47
-948.729
-1067.57
-829.712
-916.79
-587.362
-318.2
-410.665
558.592
-359.718
1135.92
-346.457
1437.63
-341.049
1699.83
-338.999
1956.81
-336.432
2204.72
-332.013
2442.48
-325.984
2664.6
-318.508
2868.32
-309.02
3051.6
-297.07
3214.55
-282.573
3357.06
-265.685
3479.27
-246.625
3581.27
-225.539
3663.06
-202.701
3725.24
-178.137
3769.2
-151.864
3793.15
-124.42
3790.94
-96.3783
3762.76
-68.7089
3707.88
-40.4132
3621.75
-14.8358
3403.01
7.05948
3119.59
26.1838
2805.54
41.444
2405.98
55.4552
2074.13
69.4262
1793.75
84.0534
1542.26
99.2055
1338.09
113.726
1172.04
126.462
1046.41
135.051
889.013
142.503
755.163
140.709
505.368
140.962
215.907
143.773
-98.161
114.047
-745.047
56.2013
-1519.72
12.0437
-2199.08
-27.5831
-2709.76
-70.677
-2698.67
908.324
-389.795
-808.246
-420.085
-904.729
-468.445
-861.397
-533.152
-848.807
-610.018
-803.951
-690.833
-763.035
-765.198
-731.33
-825.278
-722.491
-867.655
-739.587
-893.239
-780.98
-905.244
-841.218
-907.309
-914.448
-902.37
-995.656
-892.369
-1081.08
-878.403
-1167.83
-861.044
-1253.41
-840.73
-1335.05
-818.237
-1409.01
-795.267
-1469.89
-775.073
-1510.32
-762.628
-1522.09
-763.57
-1499.75
-781.584
-1445.73
-815.714
-1372.57
-860.165
-1298.05
-907.104
-1235.94
-949.822
-1190.98
-983.953
-1160.91
-1007
-1141.02
-1017.46
-1126.37
-1014.66
-1112.34
-1000.49
-1097.83
-981.202
-1091.75
-953.887
-1094.88
-863.328
-1007.35
-634.879
-546.648
-420.628
344.34
-344.862
1060.15
-327.57
1420.33
-322.386
1694.65
-322.442
1956.86
-323.563
2205.84
-322.808
2441.73
-319.544
2661.33
-314.336
2863.11
-307.068
3044.33
-297.219
3204.7
-284.492
3344.33
-268.989
3463.77
-250.95
3563.23
-230.562
3642.67
-208.129
3702.81
-183.707
3744.78
-157.369
3766.81
-129.692
3763.26
-101.314
3734.39
-73.181
3679.75
-44.2666
3592.84
-17.9972
3376.74
4.65304
3096.94
24.717
2785.48
41.1
2389.59
56.441
2058.79
72.0805
1778.11
88.7504
1525.59
106.149
1320.69
122.876
1155.31
137.524
1031.76
147.491
879.046
155.726
746.928
154.605
506.489
153.442
217.069
153.447
-98.1657
122.355
-713.955
61.8575
-1459.22
11.2134
-2148.44
-36.3864
-2662.16
-87.1072
-2647.95
807.596
-418.651
-782.589
-460.973
-862.407
-522.112
-800.258
-597.775
-773.144
-679.71
-722.016
-757.651
-685.094
-822.202
-666.779
-868.826
-675.867
-897.679
-710.733
-911.949
-766.71
-915.555
-837.612
-911.799
-918.204
-902.891
-1004.56
-890.07
-1093.9
-873.913
-1183.99
-854.706
-1272.61
-832.858
-1356.9
-809.44
-1432.43
-786.893
-1492.44
-769.679
-1527.53
-764.085
-1527.68
-776.132
-1487.7
-807.807
-1414.05
-854.574
-1325.81
-907.211
-1245.41
-956.554
-1186.6
-996.659
-1150.88
-1024.77
-1132.81
-1039.86
-1125.92
-1041.58
-1124.66
-1029.88
-1124.04
-1006.4
-1121.31
-977.019
-1121.13
-945.021
-1126.88
-875.1
-1077.27
-680.868
-740.88
-442.778
106.25
-333.958
951.33
-308.297
1394.67
-302.792
1689.14
-304.226
1958.3
-308.555
2210.17
-311.891
2445.06
-312.106
2661.55
-309.498
2860.5
-304.522
3039.36
-296.901
3197.08
-286.168
3333.6
-272.278
3449.88
-255.452
3546.41
-235.92
3623.14
-214.009
3680.9
-189.809
3720.58
-163.452
3740.45
-135.56
3735.37
-106.84
3705.66
-78.2102
3651.12
-48.6294
3563.26
-21.6137
3349.72
1.84895
3073.48
22.912
2764.41
40.487
2372.02
57.2419
2042.04
74.6568
1760.7
93.5072
1506.74
113.3
1300.89
132.368
1136.25
149.032
1015.1
160.443
867.635
169.455
737.917
169.002
506.942
166.565
219.506
163.73
-95.3306
131.214
-681.439
68.2603
-1396.27
10.8986
-2091.07
-45.3655
-2605.9
-96.8036
-2596.51
690.267
-455.633
-748.025
-512.048
-805.993
-585.111
-727.196
-667.727
-690.527
-748.52
-641.223
-817.539
-616.075
-868.54
-615.778
-900.907
-643.5
-917.575
-694.065
-922.746
-761.539
-920.096
-840.262
-912.155
-926.145
-900.344
-1016.37
-885.304
-1108.94
-867.255
-1202.03
-846.363
-1293.51
-823.191
-1380.07
-799.359
-1456.26
-778.396
-1513.4
-766.307
-1539.62
-770.622
-1523.37
-796.779
-1461.54
-843.405
-1367.42
-901.321
-1267.89
-958.465
-1188.27
-1005.95
-1139.11
-1039.86
-1116.96
-1059.47
-1113.2
-1065.13
-1120.25
-1057.33
-1132.46
-1036.54
-1144.83
-1004.21
-1153.65
-965.231
-1160.11
-925.624
-1166.49
-866.884
-1136.01
-714.355
-893.408
-471.727
-136.379
-327.704
807.307
-289.344
1356.31
-282.425
1682.22
-284.737
1960.61
-291.593
2217.03
-298.942
2452.41
-303.294
2665.9
-303.883
2861.09
-301.393
3036.86
-296.071
3191.76
-287.501
3325.03
-275.452
3437.83
-260.049
3531
-241.545
3604.64
-220.292
3659.64
-196.411
3696.7
-170.097
3714.14
-142.021
3707.29
-112.96
3676.6
-83.8094
3621.97
-53.522
3532.97
-25.7115
3321.91
-1.38528
3049.15
20.7308
2742.3
39.5641
2353.18
57.8177
2023.78
77.1194
1741.4
98.2955
1485.56
120.636
1278.55
142.177
1114.71
160.951
996.326
173.854
854.732
183.614
728.156
183.771
506.784
180.183
223.095
174.573
-89.7205
140.615
-647.481
75.4785
-1331.13
11.2762
-2026.87
-54.6384
-2539.98
-110.471
-2540.68
557.281
-502.191
-703.134
-573.137
-735.046
-654.706
-645.627
-738.166
-607.068
-811.241
-568.147
-866.825
-560.492
-902.895
-579.707
-922.139
-624.257
-928.912
-687.292
-927.311
-763.14
-920.209
-847.363
-909.259
-937.096
-895.202
-1030.43
-878.255
-1125.88
-858.445
-1221.84
-835.982
-1315.97
-811.795
-1404.25
-788.367
-1479.69
-770.722
-1531.04
-766.654
-1543.69
-784.406
-1505.61
-827.157
-1418.79
-888.31
-1306.27
-953.845
-1202.36
-1010.59
-1131.52
-1051.88
-1097.82
-1076.67
-1092.17
-1086.12
-1103.75
-1081.57
-1124.81
-1064.03
-1149.99
-1034.36
-1174.5
-993.935
-1194.07
-946.699
-1207.34
-899.095
-1214.09
-843.804
-1191.3
-723.824
-1013.39
-492.914
-367.289
-323.804
638.197
-271.557
1304.07
-261.615
1672.28
-264.228
1963.22
-273.032
2225.83
-283.897
2463.28
-292.7
2674.71
-297.218
2865.61
-297.64
3037.29
-294.726
3188.85
-288.421
3318.72
-278.411
3427.82
-264.652
3517.25
-247.365
3587.35
-226.921
3639.2
-203.474
3673.25
-177.279
3687.95
-149.062
3679.08
-119.677
3647.22
-89.9871
3592.28
-58.9623
3501.95
-30.3175
3293.27
-5.08038
3023.91
18.1388
2719.08
38.2903
2333.03
58.1261
2003.95
79.4321
1720.09
103.089
1461.9
128.138
1253.5
152.286
1090.56
173.254
975.358
187.679
840.308
198.139
717.696
198.798
506.125
194.157
227.736
185.918
-81.481
150.545
-612.108
83.5799
-1264.16
12.624
-1955.92
-63.0752
-2464.29
-120.211
-2483.54
411.308
-558.719
-647.614
-642.082
-651.683
-726.255
-561.454
-803.584
-529.739
-863.614
-508.117
-903.69
-520.416
-925.658
-557.739
-934.108
-615.808
-933.501
-687.899
-927.122
-769.518
-916.876
-857.609
-903.645
-950.327
-887.679
-1046.4
-868.942
-1144.62
-847.425
-1243.36
-823.552
-1339.84
-798.877
-1428.93
-777.144
-1501.42
-765.308
-1542.88
-772.916
-1536.08
-807.651
-1470.88
-868.073
-1358.37
-940.962
-1233.38
-1008.74
-1134.58
-1059.78
-1080.48
-1091.23
-1066.37
-1104.96
-1078.45
-1103.47
-1105.23
-1088.59
-1139.69
-1061.62
-1176.96
-1023.7
-1212.42
-976.289
-1241.49
-922.578
-1261.05
-868.331
-1268.34
-812.449
-1247.18
-714.352
-1111.49
-504.374
-577.267
-320.365
454.188
-255.823
1239.52
-241.11
1657.57
-242.938
1965.05
-253.207
2236.1
-266.964
2477.03
-280.057
2687.8
-289.102
2874.65
-293.092
3041.28
-292.857
3188.61
-288.898
3314.76
-281.068
3419.99
-269.165
3505.34
-253.3
3571.48
-233.831
3619.73
-210.948
3650.37
-184.967
3661.96
-156.668
3650.78
-126.983
3617.53
-96.7471
3562.05
-64.9648
3470.16
-35.4556
3263.76
-9.2639
2997.72
15.1045
2694.71
36.6249
2311.51
58.1239
1982.45
81.558
1696.66
107.863
1435.6
135.792
1225.57
162.683
1063.67
185.923
952.118
201.884
824.346
212.974
706.606
213.989
505.11
208.362
233.362
197.7
-70.8183
160.997
-575.406
92.6144
-1195.78
15.2204
-1878.52
-70.3682
-2378.7
-123.347
-2430.56
242.016
-623.858
-582.923
-714.602
-560.939
-794.048
-482.008
-859.141
-464.647
-903.238
-464.02
-928.222
-495.431
-938.4
-547.561
-938.759
-615.449
-932.979
-693.679
-923.284
-779.213
-910.708
-870.186
-895.565
-965.47
-877.804
-1064.16
-857.293
-1165.13
-834.13
-1266.52
-809.155
-1364.82
-784.882
-1453.2
-766.806
-1519.5
-764.162
-1545.53
-787.636
-1512.61
-842.089
-1416.43
-918.867
-1281.59
-998.148
-1154.1
-1061.74
-1070.99
-1102.35
-1039.87
-1121.55
-1047.17
-1123.39
-1076.61
-1110.97
-1117.65
-1086.25
-1164.41
-1050.69
-1212.53
-1005.63
-1257.47
-952.66
-1294.46
-894.459
-1319.25
-835.729
-1327.07
-778.157
-1304.76
-694.838
-1194.8
-510.925
-761.181
-315.824
259.088
-241.963
1165.66
-221.855
1637.46
-221.356
1964.55
-232.362
2247.11
-248.499
2493.17
-265.352
2704.65
-279.138
2888.44
-287.424
3049.56
-290.377
3191.57
-288.923
3313.31
-283.365
3414.43
-273.496
3495.47
-259.262
3557.25
-240.952
3601.42
-218.78
3628.2
-193.122
3636.31
-164.816
3622.47
-134.868
3587.59
-104.088
3531.27
-71.5397
3437.62
-41.1462
3233.36
-13.9599
2970.53
11.5989
2669.15
34.5281
2288.58
57.7669
1959.21
83.4605
1670.96
112.596
1406.46
143.59
1194.58
173.366
1033.89
198.949
926.535
216.446
806.849
228.077
694.975
229.271
503.916
222.694
239.939
209.852
-57.976
171.962
-537.516
102.614
-1126.43
19.4222
-1795.33
-75.7324
-2283.54
-138.833
-2367.46
62.8461
-694.158
-512.519
-784.938
-470.159
-852.692
-414.254
-901.796
-415.543
-929.813
-436.002
-941.927
-483.318
-943.191
-546.296
-937.901
-620.739
-928.588
-702.992
-916.492
-791.309
-901.997
-884.681
-885.065
-982.402
-865.505
-1083.72
-843.219
-1187.42
-818.565
-1291.18
-793.058
-1390.33
-770.617
-1475.64
-759.035
-1531.08
-769.861
-1534.7
-813.319
-1469.15
-888.24
-1341.51
-976.957
-1192.88
-1055.31
-1075.75
-1108.5
-1017.8
-1135.4
-1012.97
-1141.36
-1041.21
-1131.46
-1086.5
-1108.8
-1140.31
-1075.27
-1197.95
-1032.41
-1255.38
-981.76
-1308.12
-924.962
-1351.26
-864.268
-1379.95
-803.251
-1388.09
-744.394
-1363.61
-671.197
-1268
-517.265
-915.112
-313.446
55.2694
-228.246
1080.46
-204.115
1613.33
-200.332
1960.77
-210.816
2257.59
-228.835
2511.19
-248.824
2724.64
-267.087
2906.7
-280.211
3062.69
-287.069
3198.42
-288.465
3314.7
-285.279
3411.24
-277.568
3487.76
-265.162
3544.84
-248.207
3584.47
-226.909
3606.9
-201.698
3611.1
-173.474
3594.25
-143.314
3557.43
-112.003
3499.95
-78.6929
3404.31
-47.4053
3202.08
-19.187
2942.32
7.59694
2642.37
31.9601
2264.22
57.0098
1934.16
85.1038
1642.87
117.268
1374.3
151.528
1160.32
184.34
1001.08
212.331
898.544
231.35
787.83
243.418
682.907
244.596
502.738
237.072
247.464
222.308
-43.2119
183.43
-498.639
113.575
-1056.58
25.645
-1707.4
-77.1351
-2180.76
-145.279
-2299.32
-137.623
-764.441
-441.456
-847.188
-387.412
-898.448
-362.994
-930.759
-383.231
-944.71
-422.052
-946.985
-481.043
-942.026
-551.255
-932.933
-629.833
-921.123
-714.802
-907.093
-805.339
-890.815
-900.958
-872.08
-1001.14
-850.682
-1105.12
-826.679
-1211.42
-800.874
-1316.98