/*--------------------------------*- C++ -*----------------------------------*\
| =========                 |                                                 |
| \\      /  F ield         | OpenFOAM: The Open Source CFD Toolbox           |
|  \\    /   O peration     | Version:  4.1                                   |
|   \\  /    A nd           | Web:      www.OpenFOAM.org                      |
|    \\/     M anipulation  |                                                 |
\*---------------------------------------------------------------------------*/
FoamFile
{
    version     2.0;
    format      ascii;
    class       surfaceScalarField;
    location    "12";
    object      phi;
}
// * * * * * * * * * * * * * * * * * * * * * * * * * * * * * * * * * * * * * //

dimensions      [0 3 -1 0 0 0 0];

internalField   nonuniform List<scalar> 
13220
(
-890.947
2190.81
-1375.74
1784.95
-1828.53
1752.66
-2169.14
1640.48
-2425.11
1556.14
-2599.26
1474.02
-2693.01
1393.63
-2705.59
1312.75
-2636.59
1230.88
-2490.83
1154.12
-2281.38
1090.74
-1998.4
1016.89
-1572.58
874.035
-921.821
649.399
378.078
17.5183
2173.22
-5.83649
1808.23
-119.754
1866.51
-209.663
1730.32
-305.87
1652.28
-389.089
1557.17
-459.045
1463.53
-513.693
1367.35
-553.297
1270.44
-565.294
1166.07
-502.485
1027.9
-317.535
831.881
-79.017
635.434
16.8679
553.381
394.935
-181.67
2354.85
-426.062
2052.58
-667.425
2107.84
-844.379
1907.23
-1014.49
1822.35
-1153.9
1696.53
-1275.92
1585.5
-1384.29
1475.68
-1479.62
1365.72
-1533.45
1219.81
-1458.75
953.15
-1135.27
508.15
-609.389
109.15
-171.217
114.525
223.717
-40.6664
2395.5
-165.381
2177.27
-255.607
2198.03
-312.657
1964.24
-370.519
1880.18
-409.051
1735.02
-437.573
1613.98
-454.909
1492.95
-465.595
1376.33
-476.064
1230.24
-495.689
972.689
-506.269
518.747
-463.456
66.3256
-320.979
-27.9775
-97.2651
119.724
2275.77
78.8807
2218.11
102.139
2174.77
137.194
1929.18
171.03
1846.33
211.92
1694.12
255.963
1569.92
304.789
1444.13
356.753
1324.37
390.762
1196.22
349.892
1013.62
148.801
719.645
-142.487
357.352
-195.561
24.8207
-292.818
158.403
2117.37
133.49
2243.03
166.784
2141.48
208.098
1887.88
248.12
1806.33
291.282
1650.97
335.554
1525.68
381.314
1398.38
430.167
1275.54
472.231
1154.22
473.937
1011.89
379.81
814.08
200.185
537.436
28.1918
197.458
-264.629
140.555
1976.83
124.667
2258.93
143.176
2123
169.202
1861.88
196.501
1779.06
224.514
1622.99
252.031
1498.19
281.835
1368.61
313.649
1243.75
344.857
1123.01
361.143
995.651
331.809
843.303
242.884
626.258
105.316
334.852
-159.304
114.065
1862.8
112.25
2260.77
124.535
2110.73
139.522
1846.92
160.605
1758.01
179.067
1604.56
195.686
1481.6
213.186
1351.14
231.345
1225.62
248.352
1106.05
259.612
984.401
250.796
852.267
204.762
672.464
114.007
426.151
-45.2968
86.4422
1776.37
107.635
2239.6
121.345
2097.05
133.582
1834.71
156.129
1735.48
170.968
1589.74
181.824
1470.77
183.543
1349.44
182.931
1226.25
182.591
1106.4
180.785
986.228
171.811
861.224
140.188
704.089
72.8153
493.547
27.5248
60.4839
1715.91
118.616
2181.49
157.647
2058.03
195.234
1797.14
237.728
1693.01
276.054
1551.43
315.482
1431.36
353.688
1311.25
365.55
1214.4
359.666
1112.32
337.698
1008.2
297.116
901.88
228.185
773.096
105.26
616.657
132.787
-14.4988
1730.43
48.3903
2118.62
102.801
2003.65
137.209
1762.76
171.491
1658.75
225.197
1497.74
306.342
1350.23
399.124
1218.49
439.933
1173.61
418.738
1133.54
327.446
1099.52
170.979
1058.37
12.3314
931.79
1.50661
627.589
134.295
-168.128
1898.58
-215.962
2166.47
-250.477
2038.18
-346.29
1858.59
-437.411
1749.89
-531.349
1591.7
-609.705
1428.6
-680.727
1289.52
-760.259
1253.16
-869.074
1242.37
-1013.99
1244.45
-1159.87
1204.28
-1195.08
967.038
-868.793
301.354
-734.498
-332.97
2231.56
-545.319
2378.83
-792.197
2285.07
-1009.48
2075.88
-1234.88
1975.3
-1415.47
1772.3
-1554.29
1567.42
-1649.23
1384.47
-1622.74
1226.67
-1505.89
1125.53
-1201.63
940.199
-783.089
785.739
-329.057
513.027
-34.8831
7.20828
-769.381
303.165
1928.41
239.848
2442.15
482.175
2042.75
600.741
1957.32
916.889
1659.16
1094.89
1594.3
1300.11
1362.21
1464.07
1220.52
1521.71
1169.04
1703.66
943.58
1858.24
785.612
1869.78
774.208
1665.75
717.058
1292.67
380.295
523.293
-64.6434
135.58
203.569
-14.0199
63.746
-87.7307
240.377
369.877
909.717
1508.24
2127.94
2780.54
2357.07
1630.63
-9.41602e-05
-2883.39
2883.39
-2883.39
-2883.39
-2883.39
-6300.81
3417.42
-6300.81
-6300.81
-6300.81
-9901.8
3600.99
-9901.8
-9901.8
-13547.7
3645.85
-13547.7
-13547.7
-13547.7
-17057.2
3509.51
-17057.2
-17057.2
-20417.6
3360.44
-20417.6
-20417.6
-20417.6
-23561.7
3144.11
-23561.7
-23561.7
-23561.7
-26418
2856.25
-26418
-26418
-28991.6
2573.6
-28991.6
-28991.6
-28991.6
-31216.9
2225.35
-31216.9
-31216.9
-33082.1
1865.18
-33082.1
-33082.1
-33082.1
-34554.2
1472.07
-34554.2
-34554.2
-34554.2
-35530
975.824
-35530
-35530
-36008
477.981
-36008
-36008
-36008
-35946.9
-61.02
-35946.9
-35946.9
-35946.9
-35252
-694.918
-35252
-35252
-33945.9
-1306.1
-33945.9
-33945.9
-33945.9
-31974.1
-1971.88
-31974.1
-31974.1
-29443.5
-2530.53
-29443.5
-29443.5
-29443.5
-26527.6
-2915.9
-26527.6
-26527.6
-26527.6
-23275.5
-3252.15
-23275.5
-23275.5
-19511.7
-3763.75
-19511.7
-19511.7
-19195.6
-18873.7
-18427.5
-14750.5
-3175.78
-14356.3
-14018.3
-13728.7
-13490.9
-13314.1
-13197.3
-13090.8
-12912.3
-8380.01
-4257.43
-8138.06
-7913.81
-7742.62
-7630.87
-7575.97
-7578.3
-7654.99
-7671.07
-1478.84
-6066.98
-1411.21
-1410.4
-1436.14
-1423.33
-1408.17
-1396.2
-1365.8
-1327.5
-1214.96
4823.71
-5905.67
4980.9
5092.6
5163.11
5272.22
5401.46
5531.29
5660.29
5865.01
11437.3
-5329.32
11699.9
11904.4
12048.7
12235.7
12449.1
12659.4
12865.7
13168.5
18276.7
-4758.72
18691.5
19019.7
19251.3
19509.6
19790.4
20060.8
20321.4
20646.2
25474.7
-4439.15
26025.1
26473
26777.8
27114.5
27485.2
27821.1
28124.8
28412.6
28766.5
33112.4
-3922.16
33767.8
34299.5
34620.5
34955.4
35325.3
35633.4
35823.8
36031.3
39293.4
-2962.69
39922.8
40435.1
40435.1
43777
-3341.84
46529.1
-2752.1
46529.1
49590.8
-3061.78
49590.8
52765.6
-3174.8
55247.3
-2481.67
55247.3
57966.2
-2718.87
59878
-1911.85
59878
61770.7
-1892.67
61770.7
63548.8
-1778.09
64415.5
-866.74
64415.5
65249.1
-833.551
65249.1
65971.1
-721.979
65753.7
217.313
65753.7
65808
-54.2193
64930.7
877.227
64930.7
64181.6
749.178
64181.6
63486.1
695.504
62045.5
1440.58
62045.5
60875.6
1169.86
60875.6
59857.1
1018.56
58308.8
1548.29
58308.8
57241.7
1067.02
55715.9
1525.88
55715.9
54557.5
1158.38
54557.5
53628
929.497
52404.8
1223.2
52404.8
51560.1
844.678
51560.1
50937.4
622.685
50137.4
799.996
50137.4
49742.4
395.032
49183
559.388
49183
48967.7
215.333
48967.7
48949.5
18.2258
48850.7
98.7544
48850.7
49072.4
-221.664
49072.4
49450.8
-378.451
49778.8
-327.933
49778.8
50370.5
-591.711
50871.5
-501.022
50871.5
51611.1
-739.633
51611.1
52442.7
-831.56
53194.4
-751.734
53194.4
54170
-975.567
54170
55217.3
-1047.33
56174.4
-957.121
56174.4
57341.9
-1167.42
58372.5
-1030.64
58372.5
59626.7
-1254.19
59626.7
-1393.1
-2246.52
-13827.5
-1966.62
-14321
-1776.81
-13590.3
-1638.31
-13035
-1560.83
-12165.4
-1518.8
-11398.4
-1492.69
-10600.7
-1468.56
-9918.22
-1437.78
-9372.23
-1393.59
-9095.82
-1333.03
-9225.56
-1262.12
-9860.28
-1194.36
-10991.6
-1144.72
-12554.3
-1125.67
-14444.5
-1145.94
-16490.7
-1212.83
-18565
-1333.75
-20541.8
-1509.63
-22376.6
-1729.53
-24095.9
-1977.59
-25746.5
-2251.95
-27363.3
-2572.97
-28886
-2964.82
-30228.7
-3421.37
-31352.8
-3895.23
-32120.5
-4377.33
-32372.6
-4987.17
-32856.6
-5758.16
-35018.8
-6447.97
-38370.8
-6919.13
-41249.8
-7219.22
-43298.6
-7319.32
-44109.9
-7143.82
-43075.9
-6443.57
-40061.5
-4453.84
-32074.4
-1299.86
-9911.83
264.474
16815.5
696.807
29134.8
945.569
37044.8
1047.81
43215.3
1131.23
48224.4
1220.33
52081.6
1549.88
58577.6
2092.24
65721.7
2471.51
66145.6
2337.87
56104.8
1987.42
44671.1
1906.82
45795.6
2049.23
55565.8
2265.34
63858.8
2483.59
68399.1
2667.85
68404.1
3015.9
72028.5
3586.64
82709.1
4157.53
91486.6
4485.03
89967.4
4462.38
75552.6
4216.44
52859.5
4040.98
27975.3
3706.37
5094.11
2807.55
-6054.18
1958.79
-289.343
1700.7
6716.8
1723.51
4951.62
1696.38
-1918.49
1477.09
-9569.61
1036.18
-15567.8
10.8719
-22777.6
13.0579
-22551.8
1402.37
-6825.2
2811.08
16731.4
3928.08
12177
3618.4
-29079
2076.88
-63156.4
1060.48
-70203.9
582.193
-75627
768.555
-83222.4
-87627.7
-2291.38
-13982.4
-2014.94
-14597.5
-1811.48
-13793.8
-1660.22
-13186.2
-1572.13
-12253.5
-1525.3
-11445.2
-1498.85
-10627.1
-1477.96
-9939.11
-1453.29
-9396.9
-1417.55
-9131.55
-1367.17
-9275.93
-1307.88
-9919.57
-1253.11
-11046.4
-1216.58
-12590.9
-1209.1
-14452
-1241.35
-16458.4
-1325.2
-18481.1
-1469.55
-20397.5
-1671.45
-22174.7
-1914.28
-23853.1
-2182.05
-25478.7
-2479.52
-27065.8
-2832.7
-28532.8
-3265.82
-29795.5
-3770.59
-30848
-4294.63
-31596.4
-4808.28
-31858.9
-5416.03
-32248.9
-6187.32
-34247.5
-6902.23
-37655.9
-7406.79
-40745.3
-7748.53
-42956.9
-7896
-43962.4
-7756.77
-43215.2
-7093.94
-40724.4
-5101.61
-34066.7
-1366.11
-13647.3
374.295
15075.1
734.921
28774.2
939.516
36840.2
1020.82
43134
1101.82
48143.4
1196.64
51986.8
1523.58
58250.7
2057.25
65188
2433.14
65769.7
2312.93
56225
1971.88
45012.1
1898.93
45868.5
2048.77
55416
2265.74
63641.8
2481.23
68183.6
2660.68
68224.7
3008.51
71680.7
3585.18
82132.4
4161.82
90909.9
4492.94
89636.3
4469.12
75576.4
4210.61
53118
3946.41
28239.5
3474.47
5566.05
2584.42
-5164.12
1866.78
428.297
1691.31
6892.27
1720.36
4922.56
1652.14
-1850.27
1364.78
-9282.25
915.82
-15118.9
-155.911
-21705.8
-201.4
-22506.3
1150.81
-8177.41
2914.83
14967.3
4289.42
10802.4
3978.37
-28767.9
2243.89
-61421.9
1106.35
-69066.4
545.666
-75066.3
616.377
-83293.1
-88265.5
-2297.95
-14114.1
-2033.9
-14861.5
-1826.53
-14001.2
-1669.93
-13342.8
-1575.98
-12347.4
-1526.64
-11494.5
-1500.51
-10653.3
-1481.84
-9957.78
-1461.19
-9417.55
-1430.87
-9161.88
-1387.12
-9319.68
-1335.4
-9971.29
-1288.52
-11093.2
-1259.16
-12620.2
-1258.17
-14453
-1299.14
-16417.5
-1396.13
-18384.1
-1556.36
-20237.3
-1772.75
-21958.3
-2026.6
-23599.2
-2305.09
-25200.2
-2618.22
-26752.7
-2993.14
-28157.9
-3451.34
-29337.3
-3983.5
-30315.8
-4537.24
-31042.7
-5070.28
-31325.9
-5668.12
-31651
-6424.83
-33490.8
-7154.72
-36926
-7689.27
-40210.7
-8062.43
-42583.7
-8241.18
-43783.7
-8122.65
-43333.7
-7488.57
-41358.4
-5562.6
-35992.7
-1472.89
-17737
745.123
12857.1
854.318
28665
956.736
36737.8
1001.04
43089.6
1066.41
48078
1158.36
51894.9
1479.99
57929.1
2007.6
64660.4
2387.68
65389.7
2283.28
56329.4
1953.72
45341.7
1885.14
45937.1
2041.39
55259.7
2262.34
63420.9
2477.44
67968.5
2652.24
68049.8
2996.36
71336.6
3578.36
81550.4
4163.89
90324.4
4502
89298.1
4479.75
75598.7
4214.22
53383.5
3930.81
28523
3449.38
6047.49
2559.62
-4274.37
1853.37
1134.54
1694.49
7051.15
1708.18
4908.88
1611.39
-1753.48
1305.39
-8976.26
866.545
-14680
-216.136
-20623.2
-380.54
-22341.9
901.307
-9459.26
3001.3
12867.3
4605.51
9198.21
4143.36
-28305.8
2348.02
-59626.5
1147.52
-67865.9
536.173
-74455
599.231
-83356.2
-88696.9
-2300.84
-14219
-2052.41
-15109.9
-1841.33
-14212.3
-1679.08
-13505.1
-1578.4
-12448.1
-1526.45
-11546.5
-1501.04
-10678.7
-1485.2
-9973.62
-1469.23
-9433.51
-1445.04
-9186.07
-1408.56
-9356.15
-1364.91
-10014.9
-1326.52
-11131.6
-1305.51
-12641.2
-1313.31
-14445.2
-1366.12
-16364.6
-1479.22
-18271
-1657.68
-20058.8
-1890.58
-21725.4
-2157.89
-23331.9
-2450.6
-24907.5
-2783.59
-26419.7
-3184.54
-27756.9
-3672.13
-28849.7
-4236.53
-29751.5
-4824.9
-30454.3
-5380.26
-30770.5
-5967.37
-31063.9
-6708.81
-32749.3
-7459.2
-36175.7
-8031.82
-39638.1
-8443.73
-42171.8
-8661.67
-43565.7
-8570.16
-43425.2
-7960.32
-41968.3
-6094.71
-37858.3
-1724.25
-22107.5
1117.39
10015.4
1025.24
28757.1
985.196
36777.9
983.328
43091.5
1025.59
48035.8
1111.13
51809.3
1426.33
57613.9
1948.01
64138.8
2334.88
65002.8
2252.34
56412
1937.43
45656.6
1870
46004.5
2029.61
55100.1
2255.01
63195.5
2472.25
67751.2
2642.95
67879.1
2981.93
70997.6
3567.54
80964.8
4161.59
89730.3
4508.67
88951.1
4493.08
75614.3
4229.22
53647.4
3961.3
28790.9
3489.53
6519.26
2571.44
-3356.28
1859.05
1846.94
1708.44
7201.76
1706.75
4910.56
1588.62
-1635.35
1272.17
-8659.8
847.438
-14255.3
-241.971
-19533.7
-571.08
-22012.8
632.041
-10662.4
3023.8
10475.6
4860.56
7361.45
4301.08
-27746.3
2460.25
-57785.7
1193.18
-66598.8
523.038
-73784.8
549.638
-83382.8
-89314.7
-2289.28
-14291.6
-2063.17
-15336
-1851.32
-14424.1
-1685.18
-13671.2
-1578.19
-12555.1
-1523.88
-11600.8
-1499.52
-10703
-1486.76
-9986.39
-1475.62
-9444.65
-1457.57
-9204.13
-1428.37
-9385.35
-1392.72
-10050.6
-1362.44
-11161.9
-1349.46
-12654.2
-1366.7
-14427.9
-1432.88
-16298.5
-1563.45
-18140.5
-1760.27
-19862
-2008.59
-21477.1
-2288.59
-23051.9
-2596.21
-24599.9
-2950.63
-26065.3
-3378.43
-27329.1
-3894.66
-28333.5
-4489.54
-29156.6
-5111.29
-29832.5
-5689.4
-30192.4
-6264.24
-30489.1
-6983.26
-32030.3
-7753.16
-35405.8
-8370.02
-39021.2
-8824.99
-41716.8
-9085
-43305.7
-9022.74
-43487.5
-8437.58
-42553.4
-6673.27
-39622.6
-2277.8
-26503
1391.47
6346.15
1225.09
28923.5
1034.28
36968.7
967.778
43158
979.626
48023.9
1055.04
51733.9
1362.36
57306.5
1877.51
63623.6
2272.27
64608
2215.47
56468.8
1918.94
45953.1
1852.77
46070.7
2014.22
54938.7
2244.07
62965.6
2465.67
67529.7
2632.47
67712.3
2965.74
70664.3
3554.3
80376.3
4157.06
89127.6
4514.45
88593.7
4508.06
75620.7
4249.5
53905.9
4000.47
29039.9
3540.54
6979.19
2610.13
-2425.87
1887.25
2569.82
1730.24
7358.77
1710.47
4930.33
1577.38
-1502.26
1262.77
-8345.19
866.779
-13859.3
-178.241
-18488.7
-735.156
-21455.9
322.879
-11720.4
3018.02
7780.44
5015.48
5363.99
4394.39
-27125.2
2559.7
-55951
1244.15
-65283.2
516.032
-73056.7
481.221
-83347.9
-89790.6
-2264.74
-14327.5
-2066.88
-15533.9
-1856.97
-14634
-1688.43
-13839.8
-1575.57
-12668
-1519.09
-11657.3
-1496.06
-10726.1
-1486.66
-9995.79
-1480.67
-9450.64
-1469.08
-9215.72
-1447.45
-9406.98
-1419.84
-10078.2
-1397.41
-11184.3
-1392.65
-12659
-1420.64
-14399.9
-1502.06
-16217
-1651.5
-17991
-1866.75
-19646.7
-2129.77
-21214.1
-2422.71
-22759
-2746.97
-24275.6
-3124.91
-25687.4
-3580.63
-26873.4
-4125.25
-27788.9
-4749.66
-28532.2
-5404.06
-29178.2
-6006.08
-29590.4
-6570.1
-29925.1
-7261.33
-31339.1
-8047.9
-34619.2
-8714.38
-38354.8
-9217.32
-41213.9
-9523.28
-42999.8
-9494.45
-43516.3
-8937.4
-43110.5
-7315.31
-41244.7
-3314.67
-30503.6
1361.72
1669.77
1444.24
28841
1120.94
37292
957.677
43321.3
929.414
48052.2
989.846
51673.5
1287.48
57008.9
1796.15
63114.9
2200
64204.2
2171.2
56497.6
1895.84
46228.5
1831.77
46134.7
1994.49
54776
2229.2
62730.9
2456.92
67301.9
2621.16
67548.1
2948.47
70337
3538.9
79785.8
4150.94
88515.5
4519.79
88224.8
4524.19
75616.3
4275.88
54154.2
4051.89
29263.9
3599.7
7431.37
2652.54
-1478.7
1925.49
3296.87
1758.97
7525.29
1723.16
4966.14
1582.63
-1361.74
1280.54
-8043.09
922.445
-13501.2
-30.2022
-17536.1
-838.148
-20648
46.3028
-12604.9
3017.27
4809.48
5094.3
3286.95
4431.33
-26462.2
2647.84
-54167.5
1300.04
-63935.5
513.974
-72270.6
463.018
-83297
-90374.9
-2225.54
-14322.4
-2062.45
-15697
-1857.64
-14838.8
-1688.45
-14009
-1570.47
-12785.9
-1512.07
-11715.7
-1490.62
-10747.5
-1484.81
-10001.6
-1484.21
-9451.24
-1479.4
-9220.53
-1465.68
-9420.7
-1446.23
-10097.7
-1431.5
-11199.1
-1435.39
-12655.1
-1475.51
-14359.8
-1573.8
-16118.7
-1743
-17821.8
-1976.22
-19413.5
-2253.09
-20937.2
-2559.29
-22452.8
-2901.85
-23933.1
-3304.96
-25284.2
-3789
-26389.4
-4361.04
-27216.9
-5013.06
-27880.1
-5698.15
-28493.1
-6324.96
-28963.6
-6881.7
-29368.3
-7540.77
-30680
-8338.1
-33821.8
-9057.56
-37635.3
-9613.43
-40658
-9969.15
-42644
-9978.71
-43506.8
-9457.97
-43631.2
-7983.45
-42719.2
-4477.9
-34009.1
680.534
-3488.67
1690.5
27831
1258.47
37724
957.152
43622.6
875.698
48133.6
916.214
51633
1202.29
56722.8
1704.66
62612.6
2118.68
63790.2
2119.57
56496.7
1867.57
46480.5
1806.26
46196.1
1969.82
54612.4
2210.04
62490.7
2445.3
67066.7
2609.24
67384.2
2930.6
70015.6
3521
79195.4
4142.74
87893.8
4524.33
87843.2
4541.36
75599.2
4309.04
54386.5
4114.61
29458.3
3669.72
7876.26
2707.43
-516.408
1973.47
4030.83
1794.31
7704.45
1744.65
5015.8
1603.47
-1220.55
1323.61
-7763.23
1007.39
-13185
188.023
-16716.7
-807.584
-19652.4
-123.539
-13288.9
2982.5
1703.44
5067.15
1202.31
4408.83
-25803.9
2724.92
-52483.6
1361.97
-62572.5
514.719
-71423.4
335.519
-83117.8
-91014.9
-2170.86
-14272.5
-2049
-15818.9
-1852.81
-15035
-1684.87
-14176.9
-1562.82
-12908
-1502.81
-11775.7
-1483.18
-10767.2
-1481.2
-10003.6
-1486.23
-9446.21
-1488.5
-9218.26
-1482.94
-9426.25
-1471.68
-10108.9
-1464.72
-11206
-1478.11
-12641.7
-1531.99
-14305.9
-1648.66
-16002.1
-1838.04
-17632.4
-2088.34
-19163.2
-2378.24
-20647.3
-2698.35
-22132.7
-3060.9
-23570.5
-3490.46
-24854.7
-4002.78
-25877
-4600.91
-26618.7
-5277.97
-27203.1
-5990.67
-27780.4
-6642.56
-28311.7
-7197.86
-28813
-7823.86
-30054
-8623.69
-33022
-9396.28
-36862.7
-10010
-40044.3
-10419.4
-42234.7
-10472.5
-43453.6
-9992.57
-44111.2
-8627.91
-44083.9
-5342.59
-37294.5
135.617
-8966.88
1973.33
25993.3
1454.29
38243
970.98
44105.9
819.262
48285.3
835.043
51617.2
1107.57
56450.3
1603.5
62116.6
2028.26
63365.4
2059.95
56465
1833.21
46707.2
1775.44
46253.8
1939.66
54448.2
2186.31
62244
2430.22
66822.8
2597.43
67216.9
2913
69700.1
3500.67
78607.8
4132.18
87262.3
4527.92
87447.5
4559.07
75568.1
4348.34
54597.3
4190.9
29615.8
3753.97
8313.19
2773.74
463.824
2030.29
4774.28
1836.23
7898.51
1775.76
5076.27
1640.75
-1085.54
1391.47
-7513.95
1117.09
-12910.6
455.375
-16055
-603.564
-18593.4
-166.18
-13726.3
2849.59
-1312.34
4908.63
-856.735
4337.58
-25232.9
2793.57
-50939.6
1430.56
-61209.5
523.183
-70516
307.017
-82901.6
-91459.6
-2099.67
-14174.6
-2025.41
-15893.1
-1841.83
-15218.6
-1677.24
-14341.5
-1552.52
-13032.7
-1491.35
-11836.8
-1473.74
-10784.8
-1475.86
-10001.5
-1486.71
-9435.36
-1496.27
-9208.69
-1499.01
-9423.51
-1496.07
-10111.9
-1497.32
-11204.8
-1521.37
-12617.7
-1590.72
-14236.6
-1727.01
-15865.8
-1936.36
-17423.1
-2202.49
-18897.1
-2504.79
-20345
-2839.66
-21797.8
-3223.78
-23186.4
-3680.6
-24397.9
-4220.71
-25336.9
-4843.27
-25996.2
-5542.09
-26504.3
-6278.03
-27044.4
-6954.35
-27635.4
-7515.75
-28251.6
-8112.15
-29457.6
-8904.57
-32229.6
-9726.38
-36040.9
-10402.7
-39367.9
-10869.6
-41767.8
-10972
-43351.2
-10537.8
-44545.4
-9262.56
-45359.1
-6114.01
-40443
-314.868
-14766
2285.62
23392.8
1703.19
38825.4
1004
44805.1
761.486
48527.9
747.073
51631.6
1003.93
56193.4
1492.96
61627.6
1928.58
62929.8
1991.36
56402.2
1791.24
46907.3
1738.03
46307
1903.11
54283.1
2157.42
61989.7
2411.14
66569
2587.38
67040.7
2897.23
69390.2
3478.38
78026.6
4119.27
86621.4
4530.48
87036.3
4576.85
75521.7
4393.61
54780.5
4280.34
29729
3851.91
8741.62
2851.65
1464.08
2095.44
5530.48
1884.98
8108.97
1816.93
5144.32
1693.69
-962.301
1481.68
-7301.93
1249.88
-12678.8
746.364
-15551.5
-240.476
-17606.6
-48.7975
-13918
2618.44
-3979.57
4633.66
-2871.96
4240.3
-24839.5
2857.15
-49556.5
1505.48
-59857.8
538.244
-69548.8
269.269
-82632.7
-92021.9
-2011.12
-14026.7
-1990.41
-15913.8
-1823.96
-15385
-1665.04
-14500.4
-1539.42
-13158.3
-1477.73
-11898.5
-1462.34
-10800.2
-1468.82
-9994.99
-1485.65
-9418.53
-1502.65
-9191.7
-1513.78
-9412.38
-1519.4
-10106.2
-1529.6
-11194.6
-1565.7
-12581.6
-1652.22
-14150.1
-1809.04
-15709
-2037.55
-17194.6
-2318.03
-18616.6
-2632.36
-20030.7
-2983.07
-21447.1
-3390.1
-22779.4
-3874.53
-23913.4
-4441.56
-24769.9
-5086.66
-25351.1
-5803.46
-25787.5
-6557.07
-26290.8
-7255.67
-26936.8
-7831.2
-27676.1
-8406.24
-28882.5
-9181.5
-31454.3
-10044.6
-35177.8
-10787.3
-38625.2
-11315.5
-41239.6
-11473.4
-43193.3
-11091
-44927.8
-9897.53
-46552.6
-6859.63
-43480.9
-758.587
-20867.1
2612.89
20021.3
1983.96
39454.4
1060.33
45728.7
704.623
48883.6
652.925
51683.3
891.885
55954.5
1373.44
61146.1
1819.74
62483.5
1913.14
56308.8
1740.13
47080.4
1692.58
46354.6
1859.09
54116.6
2122.43
61726.4
2387.48
66304
2578.34
66849.8
2881.82
69086.7
3454.31
77454.1
4104
85971.7
4531.92
86608.4
4594.38
75459.3
4445.18
54929.7
4377.71
29796.5
3952.65
9166.68
2934.55
2482.18
2167.19
6297.84
1940.85
8335.32
1868.48
5216.69
1761.47
-855.296
1591.07
-7131.53
1400.34
-12488.1
1030.66
-15181.8
225.477
-16801.4
247.506
-13940
2395.46
-6127.52
4318.12
-4794.62
4146.73
-24668.1
2918.38
-48328.1
1587.6
-58527
557.601
-68518.8
146.938
-82222
-92614.6
-1904.64
-13828.1
-1942.64
-15875.8
-1798.33
-15529.4
-1647.69
-14651
-1523.32
-13282.7
-1461.99
-11959.9
-1449.03
-10813.1
-1460.14
-9983.87
-1483.09
-9395.59
-1507.62
-9167.16
-1527.24
-9392.76
-1541.82
-10091.7
-1561.95
-11174.4
-1611.66
-12531.8
-1717
-14044.7
-1894.72
-15531.2
-2140.99
-16948.3
-2434.31
-18323.3
-2760.67
-19704.3
-3128.41
-21079.4
-3559.41
-22348.4
-4071.31
-23401.5
-4664.17
-24177
-5329.82
-24685.4
-6060.55
-25056.7
-6825.47
-25525.9
-7542.49
-26219.7
-8138.92
-27079.7
-8704.58
-28316.9
-9455.74
-30703.2
-10349.1
-34284.5
-11159.8
-37814.4
-11752.9
-40646.6
-11972.1
-42974.1
-11648.5
-45251.4
-10536
-47665.1
-7620.05
-46396.9
-1241.27
-27245.8
2929.09
15851
2264.23
40119.2
1143.91
46849.1
651.987
49375.5
553.217
51782.1
772.023
55735.7
1245.43
60672.7
1702
62026.9
1824.78
56186
1678.46
47226.7
1637.71
46395.3
1806.56
53947.7
2080.25
61452.7
2358.36
66025.9
2566.1
66642.1
2864.38
68788.5
3429.57
76888.9
4086.52
85314.8
4532.17
86162.7
4611.11
75380.3
4501.05
55039.8
4470.53
29827
4036.55
9600.67
3010.94
3507.79
2242.79
7065.98
2004.19
8573.92
1930.62
5290.26
1842.82
-767.491
1715.5
-7004.22
1562.83
-12335.4
1288.32
-14907.3
704.66
-16217.7
662.61
-13897.9
2310.76
-7775.68
4078.66
-6562.52
4078.92
-24668.4
2978.66
-47227.8
1677.55
-57225.9
585.539
-67426.8
107.701
-81744.1
-93007.9
-1780.3
-13579.7
-1880.79
-15775.4
-1763.99
-15646.2
-1624.59
-14790.4
-1503.99
-13403.3
-1444.2
-12019.7
-1433.88
-10823.4
-1449.92
-9967.83
-1479.06
-9366.44
-1511.22
-9135.01
-1539.48
-9364.49
-1563.6
-10067.5
-1594.86
-11143.2
-1659.88
-12466.8
-1785.41
-13919.2
-1983.76
-15332.9
-2245.95
-16686.1
-2550.77
-18018.5
-2889.53
-19365.6
-3275.53
-20693.4
-3731.2
-21892.7
-4270.01
-22862.7
-4887.39
-23559.7
-5571.69
-24001.1
-6312.42
-24316
-7082.23
-24756.1
-7812.5
-25489.5
-8433.89
-26458.3
-9003.91
-27746.9
-9730.36
-29976.7
-10641.3
-33373.5
-11517.1
-36938.7
-12177.4
-39986.3
-12463.5
-42688
-12206.4
-45508.4
-11177.6
-48693.9
-8432.03
-49142.5
-1946.36
-33731.5
3117.66
10787
2505.12
40731.8
1259.72
48094.5
608.012
50027.2
448.744
51941.3
644.952
55539.5
1109.53
60208.1
1575.71
61560.7
1725.82
56035.9
1604.83
47347.7
1572.08
46428.1
1744.65
53775.2
2029.89
61167.5
2323.28
65732.5
2547.48
66417.9
2844.97
68491
3404.67
76329.2
4067.1
84652.3
4531.19
85698.6
4626.34
75285.2
4555.29
55110.8
4541.85
29840.5
4083.74
10058.8
3069.57
4521.96
2319.42
7816.13
2075.51
8817.84
2003.57
5362.2
1936.36
-700.28
1850.49
-6918.35
1731.09
-12216
1522.03
-14698.2
1121.01
-15816.7
1114.31
-13891.3
2417.82
-9079.19
3973.06
-8117.75
4037.32
-24732.6
3038.79
-46229.3
1775.3
-55962.4
621.392
-66272.9
51.2285
-81174
-93548.4
-1638.97
-13284.3
-1803.85
-15610.5
-1720.02
-15730
-1595.09
-14915.4
-1481.13
-13517.2
-1424.43
-12076.4
-1416.99
-10830.9
-1438.26
-9946.56
-1473.66
-9331.04
-1513.47
-9095.2
-1550.59
-9327.37
-1585
-10033.1
-1628.87
-11099.3
-1710.95
-12384.7
-1857.62
-13772.5
-2075.61
-15114.9
-2351.63
-16410.1
-2666.96
-17703.1
-3018.86
-19013.7
-3424.28
-20287.9
-3904.86
-21412.1
-4469.56
-22298
-5109.97
-22919.2
-5811.2
-23299.9
-6558.72
-23568.5
-7327.95
-23986.9
-8065.99
-24751.4
-8713.44
-25810.8
-9301.03
-27159.3
-10010.6
-29267.1
-10926.9
-32457.2
-11857.4
-36008.3
-12585.2
-39258.5
-12942.4
-42330.8
-12760.7
-45690.1
-11822.8
-49631.9
-9321.21
-51644
-3300.78
-39751.9
2907.94
4578.24
2682.88
40956.8
1412.21
49365.1
577.48
50861.9
340.706
52178.1
511.305
55368.9
966.356
59753
1441.27
61085.8
1615.87
55861.3
1517.97
47445.6
1494.48
46451.6
1672.73
53596.9
1970.66
60869.5
2281.37
65421.8
2521.34
66177.9
2824.38
68187.9
3379.29
75774.3
4045.82
83985.8
4528.77
85215.7
4639.86
75174.1
4600.71
55150
4577.46
29863.7
4082.9
10553.3
3104.17
5500.7
2395.3
8524.99
2155.3
9057.85
2087.42
5430.08
2040.54
-653.399
1991.18
-6868.99
1897.96
-12122.8
1730.68
-14530.9
1453.05
-15539.1
1538.5
-13976.7
2638.18
-10178.9
3952.19
-9431.76
4007.47
-24787.9
3099.96
-45321.8
1881.34
-54743.8
665.848
-65057.4
-18.2927
-80489.8
-93894.7
-1482.53
-12946.6
-1711.28
-15381.7
-1665.58
-15775.7
-1558.55
-15022.4
-1454.42
-13621.4
-1402.73
-12128.1
-1398.48
-10835.1
-1425.26
-9919.79
-1466.97
-9289.33
-1514.43
-9047.75
-1560.58
-9281.22
-1606.2
-9987.51
-1664.42
-11041.1
-1765.34
-12283.8
-1933.48
-13604.4
-2169.43
-14878.9
-2457.23
-16122.3
-2782.64
-17377.7
-3148.66
-18647.7
-3574.45
-19862.1
-4079.72
-20906.9
-4668.89
-21708.9
-5330.62
-22257.5
-6047.31
-22583.2
-6799.58
-22816.2
-7564.64
-23221.8
-8306.05
-24010
-8978.75
-25138.1
-9594.71
-26543.3
-10301.6
-28560.2
-11213.7
-31545.1
-12181.8
-35040.2
-12973.1
-38467.2
-13404
-41899.9
-13307.1
-45787
-12478.3
-50460.6
-10267
-53855.4
-5182.31
-44836.6
1841.34
-2445.41
2831.25
39966.9
1601.23
50595.1
563.874
51899.3
230.93
52511.1
371.798
55228
816.604
59308.2
1299.22
60603.2
1494.77
55665.8
1417.06
47523.3
1404.15
46464.5
1590.44
53410.6
1902.21
60557.8
2231.47
65092.5
2487.67
65921.7
2801.56
67874
3352.62
75223.3
4022.42
83316
4524.29
84713.8
4652.28
75046.1
4633.05
55169.2
4572.32
29924.4
4035.29
11090.4
3115.52
6420.47
2470.32
9170.19
2243.86
9284.3
2181.82
5492.12
2153.12
-624.702
2132.25
-6848.12
2055.44
-12046
1912.78
-14388.3
1712.35
-15338.7
1879.78
-14144.1
2839.8
-11138.9
3937.56
-10529.5
3978.14
-24828.5
3163.55
-44507.2
1995.6
-53575.9
720.563
-63782.3
-43.9194
-79725.4
-94317
-1313.77
-12573.2
-1603.23
-15092.3
-1600.12
-15778.8
-1514.46
-15108.1
-1423.5
-13712.3
-1379.13
-12172.4
-1378.47
-10835.8
-1411.03
-9887.22
-1459.1
-9241.26
-1514.11
-8992.74
-1569.41
-9225.92
-1627.21
-9929.7
-1701.77
-10966.5
-1823.2
-12162.4
-2012.46
-13415.1
-2264.17
-14627.2
-2562.07
-15824.4
-2897.69
-17042.1
-3278.95
-18266.4
-3725.78
-19415.3
-4255.03
-20377.6
-4866.86
-21097
-5548.1
-21576.3
-6279.13
-21852.2
-7035.55
-22059.8
-7795.42
-22461.9
-8538.01
-23267.4
-9234.74
-24441.4
-9886.54
-25891.5
-10605.4
-27841.3
-11509.3
-30641.2
-12496
-34053.5
-13339.9
-37623.3
-13843.7
-41396
-13839
-45791.7
-13132.8
-51166.8
-11173.7
-55814.4
-6580.95
-49429.4
816.402
-9842.77
2999.21
37784.1
1822.97
51771.4
568.061
53154.2
122.004
52957.1
227.31
55122.7
661.048
58874.5
1150.19
60114.1
1362.77
55453.2
1302.1
47584
1300.98
46465.6
1497.71
53213.9
1824.43
60231
2172.88
64744.1
2446.51
65648.1
2772.96
67547.6
3321.55
74674.7
3995.52
82642
4516.64
84192.7
4664.49
74898.2
4652.45
55181.2
4531.64
30045.3
3952.91
11669.1
3110.29
7263.08
2545.69
9734.79
2340.92
9489.07
2285.48
5547.56
2270.61
-609.838
2267.41
-6844.92
2195.25
-11973.9
2064.7
-14257.7
1914.86
-15188.8
2130.23
-14359.5
2970.62
-11979.3
3898.37
-11457.3
3947.56
-24877.7
3230.66
-43790.3
2118.34
-52463.5
783.785
-62447.8
-149.844
-78791.7
-94688.5
-1136.25
-12172.5
-1480.5
-14748
-1523.41
-15735.9
-1462.41
-15169.1
-1388.02
-13786.7
-1353.65
-12206.8
-1357.04
-10832.4
-1395.6
-9848.66
-1450.07
-9186.79
-1512.52
-8930.28
-1577
-9161.45
-1648.03
-9858.68
-1741.03
-10873.5
-1884.31
-12019.1
-2093.6
-13205.9
-2358.74
-14362.1
-2665.61
-15517.5
-3012.06
-16695.7
-3409.66
-17868.8
-3877.83
-18947.1
-4429.94
-19825.5
-5062.38
-20464.6
-5761.22
-20877.4
-6505.86
-21107.6
-7267.47
-21298.2
-8024.12
-21705.3
-8768.54
-22523
-9488.6
-23721.4
-10180.4
-25199.7
-10922.2
-27099.6
-11819.2
-29744.2
-12807.9
-33064.8
-13686.9
-36744.4
-14258
-40824.9
-14350.4
-45699.3
-13776.2
-51741
-12037.9
-57552.8
-7740.12
-53727.2
-0.609553
-17582.3
3161.64
34621.9
2055.01
52878
588.513
54620.7
17.3137
53528.3
78.9273
55061.1
500.527
58452.9
994.986
59619.6
1220.64
55227.5
1173.56
47631
1185.02
46454.2
1394.66
53004.2
1737.36
59888.3
2105.3
64376.1
2397.35
65356.1
2735.21
67209.7
3283.08
74126.8
3962.97
81962.1
4503.87
83651.8
4676.34
74725.8
4661.97
55195.6
4467.14
30240.1
3852.8
12283.4
3097.98
8017.9
2623.16
10209.6
2445.28
9666.95
2395.72
5597.13
2387.98
-602.097
2389.49
-6846.42
2309.69
-11894.1
2181.47
-14129.5
2070.77
-15078.1
2313.45
-14602.2
3044.87
-12710.7
3839.73
-12252.1
3918.54
-24956.5
3302.25
-43174
2249.83
-51411.1
861.641
-61059.6
-171.791
-77758.3
-94761.6
-953.965
-11754.2
-1344.53
-14357.4
-1435.64
-15644.8
-1402.26
-15202.5
-1347.65
-13841.3
-1326.22
-12228.2
-1334.25
-10824.4
-1378.92
-9803.99
-1439.85
-9125.86
-1509.67
-8860.47
-1583.4
-9087.71
-1668.71
-9773.37
-1782.16
-10760.1
-1948.08
-11853.2
-2175.69
-12978.2
-2452.07
-14085.7
-2767.53
-15202.1
-3125.73
-16337.4
-3540.54
-17454
-4029.94
-18457.7
-4603.44
-19252
-5254.33
-19813.7
-5968.91
-20162.9
-6726.86
-20349.6
-7496.24
-20528.8
-8254.63
-20946.9
-9004.57
-21773.1
-9748.13
-22977.8
-10481
-24466.8
-11250.8
-26329.7
-12144.4
-28850.6
-13124.2
-32085
-14018.6
-35850
-14645.9
-40197.6
-14836.2
-45508.9
-14402.2
-52175.1
-12875
-59079.9
-8815.29
-57786.9
-804.851
-25592.7
3259.75
30557.3
2259.85
53877.9
624.73
56255.8
-78.9388
54232
-71.9973
55054.1
335.904
58045
834.489
59121
1069.15
54992.9
1031.11
47669.1
1055.72
46429.5
1281.64
52778.3
1641.24
59528.7
2028.58
63988.8
2339.32
65045.3
2686.85
66862.2
3236.47
73577.2
3923.41
81275.2
4483.6
83091.6
4685.8
74523.6
4665.12
55216.3
4392.18
30513
3751.31
12924.3
3087.8
8681.41
2704.27
10593.1
2554.82
9816.4
2508.5
5643.45
2498.97
-592.574
2491.01
-6838.46
2392.32
-11795.4
2259.96
-13997.2
2185.09
-15003.3
2448.36
-14865.4
3083.29
-13345.7
3772.35
-12941.2
3894.52
-25078.7
3379.52
-42659
2389.47
-50421.1
953.263
-59623.4
-188.577
-76616.5
-94931.9
-771.012
-11328.7
-1197.18
-13931.3
-1337.33
-15504.6
-1334.16
-15205.6
-1302.15
-13873.3
-1296.71
-12233.7
-1310.06
-10811
-1360.8
-9753.25
-1428.23
-9058.43
-1505.49
-8783.21
-1588.81
-9004.38
-1689.51
-9672.68
-1825.05
-10624.5
-2013.57
-11664.7
-2257.36
-12734.5
-2543.35
-13799.7
-2867.64
-14877.8
-3238.55
-15966.5
-3671.08
-17021.5
-4181.21
-17947.6
-4774.36
-18658.9
-5441.49
-19146.6
-6170.22
-19434.1
-6941.68
-19578.2
-7722.73
-19747.7
-8490.31
-20179.3
-9252.18
-21011.2
-10020.3
-22209.6
-10791.9
-23695.3
-11590.5
-25531.1
-12482.7
-27958.4
-13446.9
-31120.8
-14340.6
-34956.3
-15008.7
-39529.5
-15292.8