/*--------------------------------*- C++ -*----------------------------------*\
| =========                 |                                                 |
| \\      /  F ield         | OpenFOAM: The Open Source CFD Toolbox           |
|  \\    /   O peration     | Version:  4.1                                   |
|   \\  /    A nd           | Web:      www.OpenFOAM.org                      |
|    \\/     M anipulation  |                                                 |
\*---------------------------------------------------------------------------*/
FoamFile
{
    version     2.0;
    format      ascii;
    class       volVectorField;
    location    "12";
    object      U;
}
// * * * * * * * * * * * * * * * * * * * * * * * * * * * * * * * * * * * * * //

dimensions      [0 1 -1 0 0 0 0];

internalField   nonuniform List<vector> 
6785
(
(1.62139e-13 -0.587752 16.0347)
(1.148e-13 -6.52282 12.4107)
(-4.48386e-14 -4.77691 12.7373)
(6.74447e-14 -4.26564 12.5072)
(2.49399e-14 -3.67896 12.3328)
(-2.10533e-14 -3.23173 12.1045)
(6.44155e-14 -2.87253 11.8402)
(1.28398e-14 -2.61577 11.5225)
(-2.28341e-14 -2.4549 11.1411)
(6.72365e-14 -2.34814 10.7136)
(1.10689e-14 -2.28779 10.272)
(-3.04467e-14 -2.48961 9.73234)
(8.40714e-14 -3.01268 9.00398)
(-3.83544e-16 -2.31108 8.5867)
(-1.29293e-13 1.26736 7.63623)
(4.01049e-13 -7.28591 25.8543)
(2.37702e-13 -16.5668 21.5109)
(-3.15902e-14 -11.6412 21.9609)
(2.78788e-13 -11.8788 20.5616)
(1.19254e-14 -10.9471 19.5592)
(5.02051e-14 -10.2308 18.4987)
(1.29834e-13 -9.49028 17.4312)
(4.118e-15 -8.75993 16.3353)
(1.00827e-13 -8.07139 15.2432)
(2.66423e-13 -7.48681 14.3218)
(1.08864e-13 -7.05602 13.7238)
(2.27566e-13 -6.89119 13.077)
(4.31201e-13 -6.95529 11.6503)
(-2.02777e-14 -6.18732 9.2815)
(-2.37339e-13 -2.49442 4.75337)
(1.53289e-13 -10.2414 27.8307)
(2.51159e-13 -17.5213 24.2621)
(-7.45223e-14 -11.8189 24.7373)
(-2.11727e-14 -12.5195 22.6481)
(8.73607e-14 -10.9568 21.526)
(-2.31452e-14 -10.0642 20.1186)
(-3.91773e-14 -9.05809 18.7757)
(6.02581e-14 -8.11529 17.4436)
(-2.45562e-14 -7.17161 16.0892)
(-9.27875e-14 -6.03206 14.3778)
(-1.58408e-13 -4.38966 11.599)
(-6.30628e-13 -2.4004 7.6355)
(-6.05886e-13 -1.25023 4.56753)
(-7.69574e-14 -2.06246 4.66357)
(-1.0886e-13 -2.3969 4.32633)
(2.66691e-13 -11.4904 27.6912)
(1.08261e-13 -17.3956 24.3027)
(4.20936e-14 -11.8891 24.8789)
(-8.72081e-14 -13.3088 22.2485)
(-5.96897e-14 -11.3495 21.2506)
(2.12612e-13 -10.7662 19.6124)
(-1.21328e-13 -9.77548 18.2408)
(-7.90448e-14 -8.97369 16.8702)
(2.73941e-13 -8.14828 15.5327)
(-1.95879e-13 -7.03864 13.7152)
(-4.56411e-13 -4.93438 10.168)
(-6.80507e-13 -1.0776 3.61929)
(-1.84696e-12 3.39496 -3.06253)
(-6.84684e-13 3.59635 -3.30822)
(1.81913e-12 0.822999 -0.729892)
(1.70798e-13 -11.8575 26.9102)
(-7.58806e-14 -17.6429 25.1442)
(-5.82882e-14 -12.3891 25.0481)
(-1.92841e-13 -13.9859 22.2429)
(-2.88831e-13 -11.9645 21.3034)
(-5.60049e-14 -11.5517 19.5706)
(-2.28406e-13 -10.6443 18.1584)
(-4.40626e-13 -9.90951 16.74)
(-8.51825e-14 -9.19411 15.3907)
(-2.3806e-13 -8.36517 13.8605)
(-7.4667e-13 -6.98342 11.4473)
(-7.84873e-13 -4.39982 7.2955)
(-1.36901e-12 -0.959076 2.52516)
(-1.58789e-12 2.73425 -1.17279)
(1.98739e-12 1.47842 -3.78936)
(1.74866e-13 -11.7284 25.3529)
(-1.14327e-13 -17.6387 25.7901)
(6.68356e-14 -12.6862 24.9022)
(-1.90421e-13 -13.9645 22.0275)
(-3.57367e-13 -12.0041 21.077)
(6.59764e-14 -11.5905 19.3079)
(-2.85297e-13 -10.6814 17.8592)
(-3.4374e-13 -9.91088 16.3978)
(2.23173e-14 -9.18279 15.0001)
(-1.35403e-13 -8.43378 13.5874)
(-4.42171e-13 -7.48618 11.8195)
(-3.14391e-13 -5.89087 9.20236)
(-6.04311e-13 -3.7035 5.64261)
(-9.65129e-13 -0.499483 1.68691)
(2.25731e-12 0.655085 -3.18524)
(4.98428e-13 -11.3849 23.5838)
(4.31953e-14 -17.3811 26.0251)
(2.47269e-13 -12.7558 24.5924)
(-1.59165e-13 -13.6887 21.6234)
(-2.29373e-13 -11.7493 20.6796)
(3.68066e-13 -11.3539 18.8753)
(-9.63361e-14 -10.3914 17.434)
(-2.29465e-13 -9.59718 15.9505)
(3.56522e-13 -8.83581 14.5227)
(-3.53235e-15 -8.07851 13.1392)
(-3.16078e-13 -7.28125 11.6263)
(2.33167e-13 -6.13238 9.70735)
(-1.27435e-13 -4.58596 6.94675)
(-1.05658e-12 -2.00487 3.33521)
(-2.87391e-14 0.114909 -2.18177)
(3.80403e-13 -11.0032 22.0379)
(7.72547e-14 -17.0161 26.0967)
(2.04266e-13 -12.8423 24.3828)
(-1.33611e-13 -13.4165 21.3388)
(-2.08569e-13 -11.5317 20.3678)
(3.2744e-13 -11.1451 18.563)
(-9.5109e-15 -10.1408 17.1355)
(-2.19189e-13 -9.32997 15.6298)
(2.17246e-13 -8.53093 14.1744)
(5.93397e-14 -7.73767 12.7829)
(-1.70304e-13 -6.96835 11.3612)
(1.07436e-13 -5.99952 9.76464)
(6.30585e-14 -4.77942 7.52117)
(-8.04911e-13 -2.60676 4.40824)
(-3.16811e-12 -0.200726 -1.30603)
(3.91996e-13 -10.7091 20.9126)
(9.4131e-14 -16.6081 26.0378)
(2.86629e-14 -13.0197 24.291)
(-6.38337e-14 -13.2026 21.2371)
(-2.12455e-13 -11.4578 20.1588)
(-1.64417e-14 -11.0248 18.4227)
(1.08974e-13 -10.0448 17.0029)
(-1.924e-13 -9.21659 15.5025)
(-2.5999e-13 -8.39533 14.0607)
(8.35247e-14 -7.57694 12.6828)
(-7.5637e-14 -6.79214 11.2932)
(-2.49647e-13 -5.88125 9.82547)
(1.38603e-14 -4.84645 7.8891)
(-5.38465e-13 -2.98881 5.25111)
(-4.51681e-12 -0.449848 -0.613981)
(3.01559e-13 -10.4033 19.9335)
(9.41837e-14 -16.0603 25.514)
(3.32093e-14 -13.0797 23.9932)
(-2.41385e-13 -12.9854 20.9839)
(-2.5316e-13 -11.4385 19.7623)
(-1.44984e-13 -10.9503 18.1453)
(-1.43298e-13 -10.1508 16.8229)
(-5.82212e-14 -9.46296 15.5255)
(-2.00313e-13 -8.71531 14.1283)
(-2.93349e-13 -7.90903 12.7348)
(-4.59451e-14 -7.09309 11.3335)
(-2.58588e-13 -6.18348 9.90772)
(-2.92702e-13 -5.21386 8.19445)
(-1.65278e-13 -3.50967 5.91062)
(-2.32231e-12 -1.11596 0.453644)
(-7.88302e-14 -10.5663 19.9118)
(1.84145e-13 -15.5767 25.0373)
(-2.31345e-13 -12.9004 23.7077)
(-9.33566e-14 -12.845 20.734)
(-1.27063e-13 -11.2277 19.5669)
(-6.37081e-13 -10.8513 17.8795)
(-3.54522e-14 -9.82045 16.4174)
(7.86895e-14 -9.26955 14.9779)
(-7.2778e-13 -8.9544 14.2162)
(-2.29815e-13 -8.46737 13.3239)
(5.43613e-13 -7.84723 12.3775)
(-6.20461e-13 -7.07802 11.4223)
(-2.14706e-13 -6.22783 10.3176)
(-9.55541e-13 -5.40989 9.28307)
(-2.93783e-12 -3.21307 5.59805)
(-4.45317e-14 -10.8866 19.8683)
(1.89079e-13 -14.3255 23.8019)
(-5.99619e-13 -12.0934 22.4985)
(-9.42558e-14 -11.7379 19.9417)
(-2.7768e-13 -10.086 18.7705)
(-8.7126e-13 -9.26413 16.7926)
(-6.70252e-13 -7.69971 14.8697)
(-1.46265e-12 -6.81176 13.3075)
(-1.91535e-12 -6.53892 13.0778)
(-1.06928e-12 -6.38862 13.0758)
(-5.96493e-13 -6.22158 13.2224)
(-8.37127e-13 -5.95113 13.1823)
(-8.21762e-13 -4.6414 11.297)
(-2.06664e-12 -0.938533 5.24645)
(-2.08115e-12 3.62086 -3.37718)
(-9.82634e-14 -13.8349 25.9266)
(1.45292e-15 -15.7675 27.7461)
(-5.32388e-13 -13.5599 25.928)
(-3.50302e-13 -12.8369 24.2388)
(-6.04147e-13 -11.1331 22.6994)
(-1.13912e-12 -9.9705 20.7726)
(-1.6389e-12 -8.32652 18.6945)
(-3.04112e-12 -7.203 16.9394)
(-4.11612e-12 -6.66629 16.2534)
(-3.43386e-12 -6.58028 15.8782)
(-2.68671e-12 -6.82449 15.6649)
(-1.99895e-12 -6.73157 14.6298)
(-1.80436e-12 -4.43516 10.7784)
(-2.81889e-12 1.12285 1.18604)
(-3.33343e-12 7.87503 -14.6501)
(-3.3094e-13 -9.99429 20.3888)
(-5.30559e-14 -14.6049 22.491)
(-6.80566e-13 -12.0842 21.7271)
(-5.40349e-13 -11.4605 18.3102)
(-5.76491e-13 -10.919 17.5953)
(-9.41625e-13 -10.0634 15.1755)
(-1.23663e-12 -9.11077 12.77)
(-1.95834e-12 -7.99707 10.4376)
(-2.94585e-12 -6.7233 7.61162)
(-3.32553e-12 -5.85906 6.17258)
(-3.41564e-12 -4.55962 2.93362)
(-3.27107e-12 -3.15222 0.635458)
(-2.92161e-12 -1.04083 -2.5891)
(-3.05285e-12 2.53323 -8.31399)
(-2.96759e-12 3.47482 -10.0005)
(-5.50407e-13 -25.1548 31.0592)
(-2.26247e-13 -23.7131 44.5821)
(-6.74412e-13 -20.9716 36.1715)
(-6.35248e-13 -22.6271 40.3947)
(-6.69025e-13 -18.586 32.8678)
(-8.86795e-13 -19.6412 34.3421)
(-1.09095e-12 -17.4898 32.1681)
(-1.23251e-12 -18.2231 29.3965)
(-1.37295e-12 -17.584 31.2066)
(-1.63346e-12 -17.304 25.6012)
(-2.01509e-12 -17.7786 26.13)
(-2.16793e-12 -19.3199 26.634)
(-2.17012e-12 -18.9331 28.4763)
(-2.2122e-12 -21.7074 30.968)
(-2.8635e-12 -15.003 41.5767)
(8.06819e-16 2.2389 0.0490485)
(1.42444e-14 -4.53459 6.68703)
(1.60365e-14 -3.87974 5.661)
(1.64875e-14 -3.8587 5.52822)
(1.69141e-14 -3.30203 5.51525)
(2.34083e-14 -7.40247 9.6998)
(1.8271e-14 -8.46271 6.40739)
(1.93078e-14 -8.50278 6.45727)
(2.14741e-14 -7.95744 6.29824)
(2.70484e-14 -14.0084 10.4234)
(6.17527e-15 -13.2752 6.04806)
(9.01862e-15 -12.262 6.43031)
(1.27057e-14 -19.0359 10.2231)
(1.0305e-14 -17.7775 5.47648)
(1.1295e-14 -18.3343 5.72813)
(1.1908e-14 -16.994 5.51563)
(1.66344e-14 -26.2739 9.09423)
(1.23389e-14 -22.5677 4.19185)
(1.17698e-14 -21.2737 4.73668)
(1.58702e-14 -30.4552 7.8076)
(1.12248e-14 -26.8276 3.29692)
(1.13992e-14 -27.8776 3.82546)
(1.10292e-14 -25.3441 3.77996)
(1.24767e-14 -36.4998 6.84574)
(9.33775e-15 -30.9473 2.42687)
(1.00563e-14 -32.0577 3.0861)
(1.09454e-14 -29.5475 3.18584)
(1.73002e-14 -43.1015 5.87198)
(1.32315e-14 -34.7584 1.60895)
(1.55288e-14 -33.2755 2.45531)
(2.0563e-14 -45.5839 4.61489)
(1.56093e-14 -38.1078 0.988814)
(1.72526e-14 -39.4308 1.82885)
(1.7146e-14 -36.3478 2.06155)
(2.31988e-14 -51.9806 4.10532)
(1.60737e-14 -40.9715 0.525618)
(1.6276e-14 -39.3917 1.36932)
(1.90581e-14 -52.9049 2.76761)
(1.24942e-14 -43.5529 -0.0581719)
(1.14841e-14 -45.3059 0.811418)
(9.86143e-15 -41.2033 1.03993)
(9.14417e-15 -56.773 2.28585)
(5.06728e-15 -45.288 -0.434503)
(3.71617e-15 -47.1104 0.379654)
(2.44301e-15 -43.3971 0.639342)
(1.48001e-15 -60.6934 1.23051)
(3.64259e-16 -46.4747 -1.23872)
(5.67648e-16 -45.0193 -0.620435)
(-7.79732e-17 -59.1646 -0.907514)
(-1.50317e-16 -47.4521 -2.36764)
(-1.05599e-15 -49.3674 -1.78401)
(-1.2925e-15 -44.8612 -1.65633)
(-2.9639e-15 -60.7355 -2.47468)
(-3.70033e-15 -47.1318 -3.48026)
(-5.58278e-15 -49.0339 -3.05295)
(-7.6544e-15 -45.0136 -2.94384)
(-1.41702e-14 -61.7984 -4.76494)
(-1.23562e-14 -45.9905 -5.15628)
(-1.45507e-14 -44.7105 -5.09863)
(-1.98717e-14 -57.7728 -7.99962)
(-1.5997e-14 -44.8259 -7.10464)
(-1.71728e-14 -46.3152 -7.03197)
(-1.71862e-14 -42.3595 -7.05489)
(-2.161e-14 -57.6399 -10.8528)
(-1.46078e-14 -41.7816 -8.94875)
(-1.20198e-14 -40.5401 -9.19291)
(-1.06473e-14 -51.9648 -13.6807)
(-3.64971e-15 -39.2869 -10.3175)
(4.4129e-16 -40.4879 -10.0806)
(3.37125e-15 -36.3638 -9.6587)
(9.16956e-15 -48.5449 -13.9002)
(1.1374e-14 -34.9902 -9.55899)
(1.42919e-14 -36.1926 -9.03097)
(1.70416e-14 -32.815 -8.53929)
(3.0096e-14 -44.6079 -13.3794)
(3.68716e-14 -30.0306 -9.78094)
(4.37166e-14 -29.4747 -10.4339)
(6.7643e-14 -37.8388 -15.6394)
(4.63277e-14 -25.9938 -8.39511)
(-3.06711e-14 -25.8928 -5.60938)
(-3.68443e-13 -26.6226 0.832718)
(-3.55133e-13 -25.4794 3.43231)
(-3.75959e-13 -24.5143 4.94174)
(3.85061e-14 -29.1318 -5.1886)
(-4.43571e-13 -19.0148 6.07431)
(-3.69852e-13 -18.9938 3.89284)
(-3.51465e-13 -18.6453 1.13278)
(-3.05387e-13 -18.4366 -3.69206)
(-2.27867e-13 -18.0614 -9.22581)
(-1.42436e-13 -17.4665 -13.6808)
(-1.00166e-13 -16.3919 -14.5912)
(-1.26968e-13 -15.8657 -12.324)
(6.41121e-14 -21.5707 -13.8563)
(-2.00272e-13 -11.1128 -0.195347)
(-1.60259e-13 -10.7075 -3.13339)
(-1.05913e-13 -10.6331 -8.35855)
(-7.73122e-14 -10.307 -14.293)
(-2.83186e-14 -10.2926 -18.9453)
(-1.46675e-14 -9.53124 -21.7048)
(-2.57991e-14 -9.12932 -22.8155)
(-7.74106e-14 -7.89049 -21.5122)
(-4.54016e-14 -17.8395 -33.5039)
(-2.8663e-13 -4.18155 -21.0481)
(-2.02966e-13 -2.27616 -20.0948)
(-1.30157e-13 -3.89249 -19.6128)
(-9.07659e-14 -2.70385 -18.8075)
(-5.53905e-14 -2.0751 -17.9355)
(-2.24893e-14 -1.98747 -17.4843)
(-3.70519e-14 -1.44989 -15.8905)
(-4.97784e-14 -1.65419 -14.5281)
(-8.47079e-14 1.06435 -10.7185)
(1.17823e-13 -5.92554 -30.2797)
(-5.24075e-14 3.97767 -17.9207)
(-5.67691e-14 6.74484 -15.3161)
(-6.09465e-14 6.13295 -13.1656)
(-6.83299e-14 6.42318 -11.0314)
(-8.62234e-14 7.00552 -8.87075)
(-8.16935e-14 7.39018 -6.8913)
(-7.2687e-14 7.25679 -5.45671)
(-9.45077e-14 8.68145 -1.95791)
(4.0433e-14 7.34479 -20.0497)
(-1.13968e-13 13.8412 -8.96155)
(-1.1431e-13 15.9399 -6.43151)
(-1.26182e-13 15.687 -3.96087)
(-1.37645e-13 15.7393 -1.77743)
(-1.46367e-13 16.2172 0.246474)
(-1.55552e-13 16.4991 2.2501)
(-1.56276e-13 16.5201 3.45719)
(-1.69248e-13 17.2002 6.68074)
(-4.72763e-14 19.2592 -10.9729)
(-2.05023e-13 23.8671 0.163984)
(-2.16233e-13 25.7531 2.06721)
(-2.25029e-13 25.5701 3.7975)
(-2.09429e-13 25.567 5.31359)
(-2.04257e-13 25.9599 6.74627)
(-2.16842e-13 26.1921 8.23912)
(-2.28543e-13 26.2457 9.10245)
(-2.4962e-13 26.6933 11.4628)
(-1.51122e-13 30.948 -5.86573)
(-2.51564e-13 33.9961 6.05054)
(-2.63723e-13 36.015 7.72844)
(-2.71638e-13 35.9166 9.20765)
(-2.79241e-13 35.8129 10.6561)
(-2.80518e-13 36.1658 12.0091)
(-2.92988e-13 36.5318 12.8095)
(-2.92267e-13 36.5037 14.0014)
(-2.84213e-13 36.5854 14.6177)
(-2.84412e-13 36.6633 16.7076)
(-1.79858e-13 42.6563 0.0776339)
(-2.20323e-13 44.5968 12.0691)
(-2.03348e-13 46.6127 14.2464)
(-1.99356e-13 46.4322 15.9345)
(-1.95832e-13 46.1006 17.4526)
(-1.8778e-13 46.3434 18.8813)
(-1.87305e-13 46.3885 19.8864)
(-2.02171e-13 46.4187 19.5595)
(-2.04785e-13 46.0869 21.6595)
(-1.1716e-13 53.0544 7.81891)
(-1.93507e-13 52.811 17.739)
(-2.04294e-13 56.3572 20.563)
(-1.27393e-13 49.7445 15.8137)
(-1.29081e-13 53.4419 15.2936)
(-1.43092e-13 70.0219 15.3965)
(-9.56052e-14 54.9374 11.6447)
(-1.26777e-13 78.2166 12.5274)
(-9.65706e-14 60.966 10.6859)
(-1.16873e-13 69.0397 10.4703)
(-1.46111e-13 82.2947 11.5348)
(-1.06207e-13 66.3475 9.72364)
(-1.29249e-13 79.4491 9.96959)
(-1.65964e-13 93.5708 12.178)
(-1.17468e-13 68.7657 9.45142)
(-1.73166e-13 100.262 11.8025)
(-1.35931e-13 76.1267 10.1499)
(-1.75925e-13 85.5365 11.2431)
(-2.31676e-13 100.349 15.0523)
(-1.63509e-13 73.7393 11.2593)
(-2.43298e-13 107.217 15.209)
(-1.89348e-13 79.8553 12.4013)
(-2.41764e-13 90.5896 14.4602)
(-3.07416e-13 100.991 18.845)
(-2.21432e-13 77.395 14.0784)
(-2.77372e-13 94.5057 16.6843)
(-3.48507e-13 104.403 21.0565)
(-2.41915e-13 73.9726 14.4642)
(-3.43022e-13 107.055 19.0717)
(-2.57652e-13 78.7141 14.2611)
(-3.22847e-13 88.4082 16.5401)
(-3.95328e-13 98.3127 19.9541)
(-2.69534e-13 70.5342 13.3112)
(-3.78752e-13 102.087 17.09)
(-2.81374e-13 74.2889 12.4276)
(-3.49147e-13 84.1976 14.0063)
(-4.21898e-13 90.5571 16.148)
(-2.91922e-13 68.0647 10.9794)
(-3.57622e-13 83.8886 12.3498)
(-4.27725e-13 90.1585 14.1053)
(-2.86467e-13 62.9122 9.02475)
(-3.93465e-13 91.9169 10.8978)
(-2.85686e-13 66.8008 7.64302)
(-3.48623e-13 75.5151 8.16425)
(-4.04174e-13 83.0712 9.06863)
(-2.66657e-13 59.0451 5.67634)
(-3.60128e-13 86.999 6.4142)
(-2.57141e-13 62.9392 4.4006)
(-3.0962e-13 72.1049 4.16089)
(-3.5564e-13 77.5859 4.25672)
(-2.37824e-13 58.2396 2.70981)
(-2.84021e-13 72.8941 2.30425)
(-3.25572e-13 78.954 2.14942)
(-2.11278e-13 54.9396 1.04883)
(-2.84362e-13 82.2692 0.00263866)
(-2.01344e-13 59.9777 -0.31301)
(-2.42905e-13 68.5942 -1.53786)
(-2.83213e-13 76.7256 -2.40362)
(-1.829e-13 54.6598 -1.94422)
(-2.4956e-13 82.4388 -3.98542)
(-1.7683e-13 60.0632 -3.12847)
(-2.15137e-13 69.7031 -4.99752)
(-2.50501e-13 76.2064 -6.24665)
(-1.67077e-13 57.7895 -4.32593)
(-2.0334e-13 73.1856 -6.12517)
(-2.36616e-13 80.6082 -7.21998)
(-1.53099e-13 56.5753 -4.9811)
(-2.11407e-13 85.935 -7.82939)
(-1.50202e-13 63.3605 -5.70192)
(-1.83866e-13 72.9153 -7.83087)
(-2.16516e-13 82.7611 -8.9893)
(-1.39879e-13 59.5768 -6.02166)
(-1.92474e-13 90.269 -9.0904)
(-1.36112e-13 66.4918 -6.4709)
(-1.66761e-13 77.3502 -8.82926)
(-1.91678e-13 85.4162 -10.0834)
(-1.26237e-13 65.4574 -6.58926)
(-1.54043e-13 82.6456 -8.71419)
(-1.79351e-13 91.9986 -9.84973)
(-1.1548e-13 65.0611 -6.47383)
(-1.58714e-13 99.073 -9.93158)
(-1.10213e-13 72.6522 -6.85862)
(-1.44476e-13 87.4077 -10.3709)
(1.68242e-21 18.2404 16.1474)
(-3.62707e-24 18.7701 13.7977)
(-7.75781e-23 17.9033 12.4258)
(-9.60456e-24 17.2217 11.2623)
(8.3481e-24 16.1362 10.5835)
(-2.16921e-24 15.1559 10.2262)
(3.89124e-25 14.1133 10.0253)
(-5.41398e-26 13.2068 9.87652)
(8.66356e-27 12.4719 9.70417)
(5.92287e-27 12.0877 9.46573)
(-1.1652e-27 12.2408 9.11514)
(-1.18778e-25 13.0723 8.65794)
(-6.97086e-25 14.5815 8.16979)
(-1.9044e-24 16.6839 7.7547)
(2.49671e-24 19.2378 7.50793)
(4.65594e-23 22.0105 7.50089)
(1.30656e-22 24.8304 7.77825)
(-6.05876e-22 27.5289 8.39261)
(-5.53478e-21 30.0399 9.39044)
(-7.11514e-21 32.3855 10.7382)
(9.21416e-20 34.6206 12.3227)
(4.99965e-19 36.8085 14.0456)
(4.50507e-19 38.8961 15.9807)
(-5.25356e-18 40.7728 18.3255)
(-2.68131e-17 42.3524 21.2054)
(-6.86647e-17 43.4025 24.4148)
(-1.47463e-16 43.748 27.5256)
(-4.11166e-16 44.5331 30.8384)
(-1.17619e-15 47.6036 35.6505)
(-2.47903e-15 51.9872 41.1253)
(-3.83337e-15 55.5789 44.8541)
(-5.0281e-15 58.1185 47.4018)
(-5.95391e-15 58.9742 48.8562)
(-6.44646e-15 57.2687 48.7335)
(-6.48195e-15 52.6193 46.5047)
(-6.2168e-15 40.4024 39.4283)
(-5.83665e-15 8.96775 19.3913)
(-5.57061e-15 -21.3436 -0.762744)
(-4.98564e-15 -38.2713 -3.07583)
(-3.91417e-15 -48.8116 -6.1939)
(-2.45498e-15 -57.1027 -6.43538)
(-1.30021e-15 -63.9513 -7.55445)
(-3.31388e-16 -69.2364 -7.54863)
(3.37998e-19 -78.216 -8.71326)
(2.14186e-17 -88.0022 -11.9347)
(-2.90771e-17 -88.4678 -15.9614)
(-1.01755e-16 -74.6921 -17.0225)
(-9.25263e-17 -59.3747 -14.1471)
(-2.97615e-17 -61.2394 -12.3443)
(-2.38101e-18 -74.4672 -13.0746)
(-1.81924e-19 -85.5357 -14.24)
(-1.14041e-18 -91.5596 -15.9623)
(-1.52277e-18 -91.5331 -17.1589)
(-1.2484e-18 -96.5466 -18.4198)
(-6.75314e-19 -110.972 -21.7863)
(-2.4413e-19 -122.594 -26.0268)
(-2.70383e-20 -120.242 -29.4042)
(5.50765e-20 -100.605 -30.3992)
(7.34121e-20 -70.0862 -29.1019)
(7.18483e-20 -36.9711 -27.1019)
(7.32307e-20 -6.44307 -26.8559)
(4.83811e-20 9.17613 -22.5103)
(1.43625e-20 1.56315 -14.8526)
(-8.20001e-22 -8.68768 -11.3465)
(-6.27026e-21 -6.62123 -11.3007)
(6.66914e-20 2.62615 -11.6773)
(-3.46282e-19 13.0466 -10.955)
(9.66332e-19 21.2739 -8.72378)
(7.32837e-19 31.6037 -5.12786)
(-8.44913e-19 29.932 4.94555)
(1.62996e-16 9.114 -4.43653)
(5.59621e-16 -24.2986 -15.0429)
(2.15335e-15 -17.1817 -22.1583)
(-1.9161e-15 38.7639 -30.3701)
(-1.44749e-14 86.0219 -17.8729)
(-3.30541e-14 94.7683 -9.80496)
(-6.23138e-14 101.389 -4.32623)
(-7.13231e-14 110.773 -3.43201)
(-1.54148e-13 116.142 -7.17187)
(2.92692e-21 18.5967 16.3252)
(2.3369e-22 19.3414 14.2019)
(-1.25049e-22 18.2951 12.6785)
(-3.02886e-23 17.5058 11.4649)
(1.54058e-23 16.2904 10.6775)
(-3.47995e-24 15.2319 10.2804)
(6.02277e-25 14.1504 10.0589)
(-8.53546e-26 13.2334 9.92391)
(1.37307e-26 12.505 9.78198)
(9.20312e-27 12.1412 9.59376)
(2.1539e-27 12.3234 9.30606)
(-1.61294e-25 13.1769 8.9215)
(-9.96393e-25 14.6835 8.51588)
(-2.75586e-24 16.7539 8.19173)
(3.73729e-24 19.2509 8.02872)
(6.73301e-23 21.948 8.09244)
(1.77244e-22 24.6747 8.45894)
(-9.48341e-22 27.2637 9.21054)
(-8.01481e-21 29.6625 10.3839)
(-8.74504e-21 31.919 11.9035)
(1.40144e-19 34.0983 13.6217)
(7.37606e-19 36.2332 15.4732)
(6.41685e-19 38.2236 17.5888)
(-8.1169e-18 39.9521 20.1826)
(-4.28313e-17 41.3943 23.3636)
(-1.14903e-16 42.4052 26.9146)
(-2.38646e-16 42.7436 30.3544)
(-5.61213e-16 43.2849 33.7599)
(-1.43384e-15 46.0195 38.4428)
(-2.89419e-15 50.5578 44.049)
(-4.30788e-15 54.5951 47.9927)
(-5.44113e-15 57.4803 50.7687)
(-6.23601e-15 58.7386 52.5492)
(-6.55893e-15 57.5986 52.728)
(-6.42276e-15 54.024 50.6553)
(-6.02784e-15 44.6048 43.9281)
(-5.64253e-15 16.9198 23.7478)
(-5.5563e-15 -21.77 -3.05632)
(-4.99825e-15 -39.1183 -3.46348)
(-3.93301e-15 -49.764 -6.28856)
(-2.47548e-15 -58.0521 -6.36595)
(-1.31397e-15 -64.6608 -7.3603)
(-3.41395e-16 -69.7037 -7.38405)
(-1.19734e-18 -78.1754 -8.56498)
(2.24576e-17 -87.5432 -11.7325)
(-2.76303e-17 -88.1405 -15.6906)
(-1.00635e-16 -74.9302 -16.7899)
(-9.36374e-17 -59.6796 -14.0266)
(-3.1344e-17 -60.9326 -12.2653)
(-2.65306e-18 -73.8441 -13.0438)
(-9.60149e-20 -84.9063 -14.2448)
(-1.10743e-18 -90.9824 -15.9523)
(-1.52071e-18 -91.0073 -17.1339)
(-1.25969e-18 -95.7243 -18.3672)
(-6.88808e-19 -109.861 -21.751)
(-2.522e-19 -121.628 -26.0315)
(-3.04814e-20 -119.811 -29.4385)
(5.40585e-20 -100.856 -30.4548)
(7.34907e-20 -70.7773 -29.1354)
(7.24091e-20 -37.594 -26.9977)
(6.70646e-20 -7.04367 -25.7166)
(3.66977e-20 7.07985 -20.5558)
(9.70979e-21 -0.497148 -13.8099)
(-9.26747e-22 -9.0962 -11.188)
(-5.91335e-21 -6.57126 -11.3311)
(5.67639e-20 2.47103 -11.5999)
(-3.22683e-19 12.5151 -10.4475)
(4.42124e-19 20.3413 -7.72128)
(3.70355e-18 29.4741 -4.50578)
(-7.04206e-18 29.9285 6.42348)
(1.65092e-16 10.5665 -2.60105)
(5.11263e-16 -21.0114 -14.3696)
(2.16568e-15 -15.9872 -23.8032)
(-1.23772e-15 38.3324 -33.6173)
(-1.24884e-14 82.7548 -19.4156)
(-3.20718e-14 92.664 -10.4981)
(-6.47277e-14 100.376 -4.23101)
(-7.61934e-14 111.043 -3.05956)
(-1.66196e-13 117.389 -5.54418)
(4.2559e-21 18.7283 16.2296)
(6.36871e-22 19.6227 14.3656)
(-1.44172e-22 18.5191 12.7757)
(-6.28571e-23 17.6775 11.5626)
(2.22593e-23 16.3981 10.7126)
(-4.31888e-24 15.2944 10.2943)
(7.2964e-25 14.1911 10.0643)
(-1.09058e-25 13.2693 9.93968)
(1.91005e-26 12.5477 9.81805)
(1.36079e-26 12.1989 9.66219)
(5.70786e-27 12.398 9.41469)
(-2.19641e-25 13.2587 9.07819)
(-1.35935e-24 14.7559 8.72555)
(-3.58632e-24 16.803 8.45372)
(6.06021e-24 19.2667 8.33381)
(8.99319e-23 21.9171 8.44132)
(2.00122e-22 24.5813 8.88026)
(-1.41567e-21 27.099 9.73499)
(-1.03186e-20 29.4351 11.0169)
(-6.93494e-21 31.6522 12.6216)
(1.97702e-19 33.808 14.4019)
(9.56886e-19 35.9067 16.3344)
(6.25335e-19 37.8287 18.578)
(-1.16896e-17 39.4655 21.3334)
(-6.04118e-17 40.8286 24.687)
(-1.64156e-16 41.8189 28.4322)
(-3.33425e-16 42.1842 32.0769)
(-6.99733e-16 42.6629 35.5339)
(-1.61262e-15 45.2347 40.0218)
(-3.1238e-15 49.8036 45.6341)
(-4.53818e-15 54.0445 49.7821)
(-5.59542e-15 57.0902 52.7488)
(-6.27791e-15 58.5463 54.7558)
(-6.48258e-15 57.721 55.1207)
(-6.24755e-15 54.7271 53.1223)
(-5.78445e-15 46.8616 46.7806)
(-5.4005e-15 22.0731 27.5891)
(-5.52179e-15 -18.0125 -6.43416)
(-5.01798e-15 -38.2963 -4.8449)
(-3.9593e-15 -49.1887 -6.54319)
(-2.50201e-15 -57.701 -6.36184)
(-1.33125e-15 -64.3531 -7.12697)
(-3.53702e-16 -69.4165 -7.13529)
(-3.19564e-18 -77.5637 -8.30974)
(2.37168e-17 -86.6326 -11.4237)
(-2.58456e-17 -87.4948 -15.3413)
(-9.93598e-17 -75.0965 -16.5184)
(-9.49146e-17 -60.2583 -13.8907)
(-3.32573e-17 -61.1544 -12.155)
(-3.01674e-18 -73.707 -12.973)
(7.82006e-21 -84.6392 -14.2224)
(-1.0636e-18 -90.7056 -15.9282)
(-1.5176e-18 -90.7888 -17.105)
(-1.27346e-18 -95.2606 -18.2811)
(-7.05611e-19 -109.035 -21.6776)
(-2.62436e-19 -120.764 -26.0177)
(-3.48907e-20 -119.276 -29.4788)
(5.27381e-20 -100.809 -30.5325)
(7.35565e-20 -71.0331 -29.2017)
(7.32335e-20 -37.8444 -26.9846)
(6.50446e-20 -7.71491 -25.4827)
(3.42605e-20 6.5959 -20.4886)
(7.39883e-21 -0.936797 -13.5735)
(-1.09586e-21 -9.31621 -11.2066)
(-5.78305e-21 -6.54915 -11.3622)
(5.6376e-20 2.46601 -11.3994)
(-2.85259e-19 12.2347 -10.1156)
(-2.02853e-19 19.9161 -7.2442)
(5.1815e-18 28.341 -4.34445)
(-1.00968e-17 29.8771 6.99676)
(1.55356e-16 11.2212 -0.62808)
(4.46014e-16 -18.6025 -13.1867)
(2.16674e-15 -13.6045 -26.3126)
(-1.02657e-15 38.0312 -35.0511)
(-1.15681e-14 80.7925 -20.2895)
(-3.13428e-14 91.357 -10.988)
(-6.55664e-14 99.7147 -4.28419)
(-7.84815e-14 111.087 -2.86907)
(-1.72825e-13 117.923 -4.75135)
(6.07075e-21 18.9103 16.0843)
(1.3198e-21 19.9953 14.5293)
(-1.24167e-22 18.8163 12.869)
(-1.14809e-22 17.9024 11.6606)
(2.92429e-23 16.5324 10.74)
(-4.53377e-24 15.3624 10.297)
(7.3704e-25 14.2233 10.0603)
(-1.2104e-25 13.2885 9.94972)
(2.45272e-26 12.5672 9.85288)
(1.96757e-26 12.2301 9.73388)
(1.08167e-26 12.447 9.53129)
(-2.95225e-25 13.3194 9.24665)
(-1.81512e-24 14.812 8.95014)
(-4.5034e-24 16.8365 8.7356)
(9.57312e-24 19.2606 8.66941)
(1.16799e-22 21.8507 8.84066)
(2.03019e-22 24.4342 9.37391)
(-2.06855e-21 26.8622 10.3494)
(-1.28182e-20 29.12 11.7537)
(-1.61706e-21 31.2846 13.4564)
(2.7529e-19 33.4039 15.3185)
(1.20725e-18 35.4508 17.3587)
(4.21728e-19 37.2832 19.7599)
(-1.67705e-17 38.801 22.705)
(-8.38618e-17 40.0571 26.2607)
(-2.28806e-16 41.0141 30.2337)
(-4.56798e-16 41.412 34.1139)
(-8.74356e-16 41.8094 37.6352)
(-1.82137e-15 44.1524 41.9064)
(-3.38057e-15 48.7451 47.5306)
(-4.79731e-15 53.2596 51.95)
(-5.76588e-15 56.5389 55.152)
(-6.31805e-15 58.275 57.4372)
(-6.38848e-15 57.8829 58.0432)
(-6.04407e-15 55.6304 56.1601)
(-5.50211e-15 49.546 50.0949)
(-5.0929e-15 27.6471 31.8269)
(-5.42156e-15 -15.1875 -8.78668)
(-5.02753e-15 -37.998 -6.85442)
(-3.98967e-15 -48.7909 -6.91994)
(-2.53199e-15 -57.3567 -6.39267)
(-1.34982e-15 -64.0211 -6.88006)
(-3.66462e-16 -69.1031 -6.83384)
(-5.39288e-18 -76.9994 -7.98313)
(2.49921e-17 -85.8343 -11.0406)
(-2.40033e-17 -86.9151 -14.9351)
(-9.75825e-17 -75.192 -16.2229)
(-9.61135e-17 -60.7259 -13.7661)
(-3.5209e-17 -61.3483 -12.049)
(-3.42926e-18 -73.6078 -12.8756)
(1.12162e-19 -84.432 -14.1685)
(-1.01402e-18 -90.4951 -15.8846)
(-1.5135e-18 -90.632 -17.0786)
(-1.2876e-18 -94.9014 -18.1837)
(-7.23329e-19 -108.347 -21.5792)
(-2.73458e-19 -120.03 -25.9731)
(-3.96953e-20 -118.819 -29.4951)
(5.12771e-20 -100.788 -30.6069)
(7.35825e-20 -71.3248 -29.3044)
(7.41468e-20 -38.1928 -27.0761)
(6.45048e-20 -8.41929 -25.7979)
(3.31003e-20 4.91992 -20.701)
(6.16356e-21 -1.99275 -13.5345)
(-1.25801e-21 -9.49744 -11.3166)
(-5.9129e-21 -6.53482 -11.4353)
(5.64987e-20 2.24576 -11.2981)
(-2.09768e-19 11.7406 -9.92764)
(-9.02767e-19 19.2608 -6.97354)
(6.11829e-18 26.7523 -4.36299)
(-9.5874e-18 29.5816 7.32541)
(1.27286e-16 13.3277 1.49677)
(3.73499e-16 -15.8384 -11.6783)
(2.12853e-15 -11.1113 -28.253)
(-8.29756e-16 37.3411 -36.2961)
(-1.05244e-14 78.2184 -21.224)
(-3.04437e-14 89.6321 -11.5346)
(-6.6378e-14 98.8249 -4.34527)
(-8.10031e-14 111.167 -2.63943)
(-1.80528e-13 118.686 -5.15356)
(8.38664e-21 19.0202 15.8082)
(2.39381e-21 20.3035 14.6295)
(-1.58472e-23 19.0927 12.9219)
(-1.8977e-22 18.1177 11.7351)
(3.32054e-23 16.6696 10.7499)
(-3.16431e-24 15.4335 10.2824)
(4.66022e-25 14.2577 10.0417)
(-1.02274e-25 13.3095 9.94688)
(2.83515e-26 12.5876 9.8765)
(2.79286e-26 12.2617 9.7949)
(1.74888e-26 12.4957 9.63709)
(-3.92985e-25 13.3773 9.40446)
(-2.37135e-24 14.8605 9.1627)
(-5.40164e-24 16.8597 9.00143)
(1.47914e-23 19.245 8.98891)
(1.4627e-22 21.774 9.23274)
(1.62644e-22 24.2754 9.87179)
(-2.95147e-21 26.6166 10.9749)
(-1.50838e-20 28.8049 12.4965)
(9.9781e-21 30.927 14.2875)
(3.76329e-19 33.0129 16.2308)
(1.45771e-18 35.0029 18.3887)
(-1.55472e-19 36.7419 20.9584)
(-2.38518e-17 38.1443 24.0933)
(-1.13855e-16 39.2986 27.8408)
(-3.09231e-16 40.2226 32.0285)
(-6.08725e-16 40.6739 36.1399)
(-1.08286e-15 41.0593 39.7366)
(-2.04245e-15 43.2084 43.7608)
(-3.61287e-15 47.7586 49.3308)
(-5.01561e-15 52.4865 54.0717)
(-5.87978e-15 55.9725 57.5444)
(-6.28948e-15 57.9591 60.1286)
(-6.224e-15 57.9814 60.9954)
(-5.77982e-15 56.41 59.2508)
(-5.17028e-15 51.8485 53.4336)
(-4.71933e-15 32.6398 36.3453)
(-5.15075e-15 -14.1986 -8.46756)
(-5.02035e-15 -38.391 -9.05529)
(-4.02733e-15 -48.9885 -7.5411)
(-2.56683e-15 -57.4263 -6.46338)
(-1.36946e-15 -64.0134 -6.62272)
(-3.79253e-16 -69.0259 -6.48086)
(-7.70866e-18 -76.6261 -7.59013)
(2.62291e-17 -85.1953 -10.5838)
(-2.22042e-17 -86.4343 -14.4558)
(-9.57114e-17 -75.2912 -15.8712)
(-9.71766e-17 -61.1154 -13.6201)
(-3.71237e-17 -61.4239 -11.9371)
(-3.87706e-18 -73.394 -12.7552)
(2.11661e-19 -84.1356 -14.086)
(-9.6014e-19 -90.2112 -15.8213)
(-1.50835e-18 -90.4153 -17.0482)
(-1.30159e-18 -94.4662 -18.0807)
(-7.41382e-19 -107.586 -21.465)
(-2.84949e-19 -119.257 -25.91)
(-4.4768e-20 -118.371 -29.4971)
(4.97109e-20 -100.822 -30.6811)
(7.35665e-20 -71.6994 -29.4278)
(7.49965e-20 -38.562 -27.2231)
(6.39964e-20 -8.96294 -26.1633)
(3.207e-20 3.95377 -21.0333)
(5.37829e-21 -2.93961 -13.715)
(-1.38681e-21 -9.70623 -11.5063)
(-6.19392e-21 -6.55171 -11.5364)
(5.44533e-20 2.10993 -11.2413)
(-1.01665e-19 11.3583 -9.84339)
(-1.56466e-18 18.7482 -6.91847)
(6.22513e-18 25.349 -4.68281)
(-5.30586e-18 29.0663 6.78769)
(7.34258e-17 14.8819 4.1363)
(3.05253e-16 -12.3968 -10.2232)
(2.04111e-15 -8.45354 -29.6244)
(-7.76241e-16 36.6527 -36.8503)
(-9.66001e-15 75.8061 -21.9825)
(-2.94435e-14 87.9347 -12.0873)
(-6.67007e-14 97.9053 -4.47567)
(-8.30113e-14 111.162 -2.40803)
(-1.8774e-13 119.365 -3.59363)
(1.12317e-20 19.0967 15.4168)
(3.97626e-21 20.5923 14.6716)
(2.50977e-22 19.377 12.9391)
(-2.86753e-22 18.343 11.7875)
(2.87877e-23 16.8168 10.7438)
(1.15102e-24 15.5074 10.2518)
(-2.99388e-25 14.2889 10.0095)
(-2.5878e-26 13.3237 9.932)
(2.79243e-26 12.598 9.89007)
(3.90104e-26 12.279 9.84798)
(2.56488e-26 12.5256 9.73721)
(-5.17999e-25 13.4152 9.55813)
(-3.02917e-24 14.8926 9.37002)
(-6.12899e-24 16.8708 9.25992)
(2.22506e-23 19.2156 9.30594)
(1.75242e-22 21.6761 9.63478)
(4.87961e-23 24.0886 10.3921)
(-4.09796e-21 26.341 11.6288)
(-1.64808e-20 28.4625 13.2627)
(3.12861e-20 30.5432 15.1376)
(5.03977e-19 32.5897 17.1697)
(1.66604e-18 34.5126 19.4609)
(-1.34901e-18 36.1503 22.2113)
(-3.36052e-17 37.4335 25.538)
(-1.51458e-16 38.4812 29.4722)
(-4.06324e-16 39.3668 33.8668)
(-7.89831e-16 39.8821 38.2065)
(-1.328e-15 40.2934 41.8981)
(-2.2833e-15 42.2565 45.6777)
(-3.82737e-15 46.7107 51.1167)
(-5.2014e-15 51.6258 56.2153)
(-5.95077e-15 55.3314 59.9976)
(-6.20989e-15 57.5822 62.9065)
(-6.00869e-15 58.0475 64.0627)
(-5.47365e-15 57.1696 62.4915)
(-4.80629e-15 53.9791 56.8957)
(-4.29784e-15 37.5528 41.2419)
(-4.61034e-15 -12.6872 -2.66458)
(-5.01979e-15 -38.5642 -11.1596)
(-4.08076e-15 -49.4591 -8.57662)
(-2.60871e-15 -57.6515 -6.61205)
(-1.39043e-15 -64.0936 -6.35938)
(-3.92044e-16 -68.9904 -6.07626)
(-1.01033e-17 -76.2649 -7.12721)
(2.7408e-17 -84.5457 -10.0528)
(-2.04284e-17 -85.9258 -13.9047)
(-9.38496e-17 -75.3597 -15.4583)
(-9.80955e-17 -61.4896 -13.4362)
(-3.89727e-17 -61.4891 -11.8043)
(-4.3517e-18 -73.1547 -12.6067)
(3.03936e-19 -83.8075 -13.9733)
(-9.02776e-19 -89.8958 -15.7367)
(-1.50204e-18 -90.1777 -17.0058)
(-1.31529e-18 -94.006 -17.9807)
(-7.59613e-19 -106.782 -21.3354)
(-2.96847e-19 -118.437 -25.8333)
(-5.00875e-20 -117.887 -29.4907)
(4.80453e-20 -100.831 -30.7572)
(7.35167e-20 -72.0457 -29.5651)
(7.56723e-20 -38.8747 -27.4397)
(6.3326e-20 -9.61839 -26.6232)
(3.10594e-20 2.57701 -21.3657)
(4.79826e-21 -3.91041 -13.9639)
(-1.48248e-21 -9.92018 -11.7538)
(-6.51057e-21 -6.5902 -11.6732)
(4.88336e-20 1.91462 -11.2666)
(3.468e-20 10.9177 -9.89769)
(-2.0764e-18 18.2235 -7.08955)
(5.05917e-18 23.9701 -5.26027)
(3.6534e-18 28.1722 5.40508)