/*--------------------------------*- C++ -*----------------------------------*\
| =========                 |                                                 |
| \\      /  F ield         | OpenFOAM: The Open Source CFD Toolbox           |
|  \\    /   O peration     | Version:  4.1                                   |
|   \\  /    A nd           | Web:      www.OpenFOAM.org                      |
|    \\/     M anipulation  |                                                 |
\*---------------------------------------------------------------------------*/
FoamFile
{
    version     2.0;
    format      ascii;
    class       volVectorField;
    location    "20";
    object      U;
}
// * * * * * * * * * * * * * * * * * * * * * * * * * * * * * * * * * * * * * //

dimensions      [0 1 -1 0 0 0 0];

internalField   nonuniform List<vector> 
6785
(
(1.54415e-14 -1.84446 16.4098)
(1.08099e-14 -7.58173 12.8596)
(-3.16809e-15 -5.04521 13.5372)
(3.15541e-15 -4.81805 13.1374)
(9.36626e-16 -4.08938 12.9799)
(1.91091e-17 -3.62692 12.7164)
(2.69528e-15 -3.20638 12.4398)
(5.52383e-16 -2.89018 12.1284)
(-6.08429e-16 -2.67167 11.7971)
(1.55965e-15 -2.56945 11.4708)
(1.5696e-16 -2.55002 11.2294)
(-5.15093e-16 -2.69722 11.0462)
(6.50361e-16 -3.31514 10.5314)
(-1.92912e-16 -3.26079 9.56031)
(-1.3071e-16 0.148543 7.55155)
(1.91697e-14 -9.58659 26.8226)
(1.33067e-14 -16.4866 23.0445)
(-3.08687e-15 -11.322 23.4434)
(3.794e-15 -11.9945 21.7276)
(8.26123e-16 -10.4618 20.842)
(8.83876e-16 -9.768 19.6803)
(2.03974e-15 -8.85077 18.6081)
(7.93143e-17 -8.06887 17.5225)
(-1.89033e-16 -7.32528 16.4793)
(5.67704e-16 -6.63825 15.437)
(-3.59943e-16 -5.84425 14.1822)
(-7.48591e-16 -4.66891 12.1368)
(-5.77581e-16 -2.93063 8.45177)
(-4.31682e-16 -0.596753 3.10758)
(-2.86833e-16 0.807995 -1.05914)
(2.07551e-14 -12.2308 28.4627)
(1.18593e-14 -17.3493 25.0656)
(-2.19538e-15 -12.0478 25.2412)
(4.72022e-15 -13.3217 22.7309)
(6.24826e-16 -11.2396 21.7242)
(1.62858e-15 -10.8005 20.0308)
(2.54094e-15 -9.74269 18.6732)
(-1.0592e-16 -9.03018 17.2263)
(5.32383e-16 -8.27871 15.8981)
(1.53465e-15 -7.61757 14.5628)
(-5.87783e-16 -6.79012 12.9396)
(1.41262e-17 -5.26755 10.0469)
(2.93197e-15 -1.53332 3.68729)
(-1.35838e-16 4.2216 -6.08532)
(-6.43399e-16 1.61149 -5.61347)
(2.14286e-14 -12.7643 27.3628)
(1.26243e-14 -17.4066 25.1538)
(-1.74257e-15 -12.4489 24.7186)
(4.63237e-15 -14.0021 21.7926)
(1.21638e-15 -11.8036 20.7983)
(1.59469e-15 -11.5858 18.8495)
(2.73379e-15 -10.5831 17.3595)
(8.97392e-16 -9.91656 15.7622)
(5.17173e-16 -9.22961 14.2941)
(1.67578e-15 -8.60355 12.9092)
(8.1341e-16 -7.95098 11.4512)
(-1.97571e-16 -6.95827 9.55183)
(8.59942e-16 -5.17332 6.39796)
(1.0721e-15 -2.73751 3.19177)
(-1.06732e-15 -0.13086 -1.85734)
(2.12571e-14 -12.5205 26.0128)
(1.32591e-14 -16.9669 24.9333)
(-1.76093e-15 -12.3229 24.0466)
(3.8921e-15 -13.7012 20.9668)
(7.7319e-16 -11.3819 20.0107)
(1.04551e-15 -11.2121 17.8804)
(2.44558e-15 -10.0447 16.3593)
(-1.40507e-16 -9.36883 14.7514)
(-6.44869e-16 -8.71091 13.3968)
(3.68869e-16 -8.14131 12.1294)
(-1.02476e-15 -7.56617 10.8204)
(-1.59369e-15 -6.81009 9.44161)
(-7.33134e-16 -5.81786 7.75239)
(-1.82079e-15 -4.29708 5.94227)
(-4.11347e-15 -1.73715 1.15138)
(2.15178e-14 -12.5063 25.3558)
(1.23666e-14 -16.1116 24.2753)
(-1.07182e-15 -11.902 23.4095)
(3.4649e-15 -13.0555 20.3355)
(7.03417e-16 -10.4965 19.4371)
(1.87046e-15 -10.387 17.1552)
(1.25383e-15 -8.83 15.6801)
(1.68353e-16 -7.98512 13.6609)
(1.16768e-15 -6.90629 11.8178)
(4.27441e-16 -6.4125 10.375)
(1.63709e-16 -6.29199 9.6555)
(4.62025e-16 -6.39808 9.42443)
(-7.58873e-16 -6.40431 9.4225)
(-2.01113e-15 -6.0594 9.04423)
(-1.28707e-15 -3.99775 6.26707)
(2.17298e-14 -13.3069 26.2323)
(9.7745e-15 -15.6785 24.6491)
(-7.0532e-17 -12.1635 23.8993)
(2.61936e-15 -12.7366 21.3372)
(6.5702e-16 -10.4381 20.4048)
(1.44182e-15 -10.0855 18.4798)
(-2.06698e-16 -8.31696 16.8676)
(7.49644e-16 -6.68988 13.9135)
(2.17073e-15 -4.36039 10.4103)
(1.25309e-15 -2.70858 7.39593)
(1.00749e-16 -2.11622 6.15877)
(-1.58052e-15 -2.97893 6.99462)
(-3.65655e-15 -4.90918 9.36655)
(-3.97698e-15 -6.63516 11.2473)
(-9.00235e-16 -5.01246 9.53267)
(2.07521e-14 -14.018 27.1328)
(9.1009e-15 -17.0309 27.0013)
(-7.65003e-16 -13.1635 25.446)
(2.0999e-15 -13.7429 23.182)
(4.50666e-17 -11.582 22.3308)
(5.99784e-16 -11.3959 20.5854)
(-8.07455e-16 -9.72815 19.1587)
(-7.04899e-17 -8.20326 16.2425)
(1.39347e-15 -5.53538 12.5163)
(1.39005e-15 -3.05922 8.63771)
(7.04043e-16 -0.794601 5.32491)
(5.32508e-16 0.805165 2.6102)
(4.02193e-16 0.9742 1.84001)
(8.77748e-16 -0.779979 3.66846)
(1.09517e-15 -1.97649 5.05835)
(1.87226e-14 -13.2838 25.0244)
(1.20319e-14 -18.5404 29.3637)
(9.68909e-16 -14.7089 26.8707)
(1.49061e-15 -14.779 24.1645)
(-3.12999e-17 -12.9416 23.0977)
(1.09547e-15 -12.7825 21.3701)
(-2.70529e-16 -11.5672 20.0768)
(-5.49294e-16 -10.616 17.9418)
(1.16482e-15 -8.82007 15.2618)
(1.05129e-15 -6.76407 12.0459)
(8.31148e-16 -4.33734 8.57807)
(3.34005e-15 -1.7516 4.63374)
(2.36321e-15 1.37684 0.176589)
(3.90825e-15 3.6479 -3.59204)
(3.6109e-15 1.60521 -3.45985)
(1.71651e-14 -11.4544 20.8463)
(1.50594e-14 -18.3706 29.396)
(3.87482e-15 -15.6022 27.1815)
(1.85131e-15 -14.7844 23.7998)
(3.91606e-16 -13.2251 22.1389)
(1.39323e-15 -12.763 20.3381)
(1.22608e-15 -11.861 18.8701)
(2.25807e-16 -11.1081 17.1238)
(1.08115e-15 -10.0795 15.1968)
(1.43906e-15 -8.85067 13.0279)
(8.7487e-16 -7.40687 10.6407)
(2.08461e-15 -5.65682 8.0113)
(2.51071e-15 -3.63944 4.9005)
(2.49687e-15 -0.901881 1.70121)
(-2.33572e-15 0.849088 -3.62141)
(1.569e-14 -9.85281 17.5264)
(1.65463e-14 -17.3844 28.4412)
(5.72292e-15 -15.4721 26.7414)
(1.78776e-15 -14.1347 23.0289)
(7.83878e-16 -12.6052 21.0062)
(1.28829e-15 -11.9292 19.1688)
(1.38572e-15 -11.0557 17.6282)
(1.05242e-15 -10.272 16.0039)
(7.38595e-16 -9.42123 14.359)
(9.21767e-16 -8.48434 12.6708)
(1.27206e-15 -7.47858 10.8811)
(7.38761e-16 -6.25508 8.98477)
(6.42451e-16 -4.91189 6.72239)
(-9.75394e-17 -2.82158 4.01825)
(-6.10992e-15 -0.477878 -1.50945)
(1.48467e-14 -8.9853 15.8569)
(1.74845e-14 -16.4755 27.5339)
(5.95157e-15 -15.0842 26.1231)
(1.59892e-15 -13.5225 22.3329)
(1.35492e-15 -11.9268 20.0804)
(5.4615e-16 -11.1414 18.2475)
(1.02055e-15 -10.2645 16.7661)
(1.65321e-15 -9.4834 15.2761)
(3.26451e-16 -8.68749 13.8271)
(1.44524e-17 -7.87369 12.4119)
(7.18311e-16 -7.0699 10.9698)
(-9.0049e-16 -6.13627 9.49776)
(-3.96827e-16 -5.1659 7.7821)
(-1.96462e-15 -3.61341 5.71568)
(-7.11708e-15 -1.03682 0.494802)
(1.35184e-14 -8.96817 15.7443)
(1.75081e-14 -15.8501 26.678)
(6.01198e-15 -14.7035 25.3377)
(8.25192e-16 -13.3945 22.051)
(2.25468e-15 -12.0638 19.9423)
(6.92922e-16 -11.378 18.1989)
(-1.5628e-15 -10.6446 16.7734)
(2.16537e-15 -9.96193 15.3802)
(1.55675e-15 -9.23976 13.9873)
(-7.687e-16 -8.45197 12.5917)
(-3.82897e-16 -7.64265 11.2001)
(-1.8654e-15 -6.78443 9.92292)
(-2.11859e-15 -6.00046 8.73983)
(-2.07345e-15 -4.91424 7.57772)
(-7.64386e-15 -2.5786 3.52423)
(1.08665e-14 -8.28275 13.7203)
(1.78116e-14 -15.309 25.2394)
(4.17842e-15 -14.1505 23.7028)
(-2.19331e-15 -11.9798 19.5607)
(1.56359e-15 -10.1783 17.1452)
(-9.21217e-16 -9.38884 15.6288)
(-1.55429e-15 -8.65972 14.6621)
(3.25231e-15 -8.20505 13.7339)
(1.39348e-15 -7.81655 12.9935)
(-1.30494e-15 -7.5822 12.3516)
(-2.21649e-15 -7.44414 11.8412)
(-3.034e-15 -7.36757 11.5052)
(-2.78513e-15 -7.24051 11.2468)
(-3.69978e-15 -6.68467 10.7311)
(-8.05107e-15 -4.5444 7.5294)
(5.03707e-15 -6.57827 11.64)
(1.49748e-14 -15.5023 24.1553)
(1.04105e-14 -18.1202 26.7013)
(2.99434e-15 -17.9278 24.8233)
(7.4541e-16 -16.4464 22.3436)
(-7.58055e-16 -15.0335 19.9147)
(-1.62326e-15 -13.3495 17.4827)
(3.06596e-16 -11.5762 15.0449)
(8.84232e-16 -9.72937 12.6244)
(-3.4428e-16 -8.03406 10.4103)
(-2.71633e-15 -6.69886 8.91653)
(-3.92858e-15 -6.2585 8.84219)
(-5.0859e-15 -6.69429 10.345)
(-8.2052e-15 -7.28567 11.502)
(-1.08625e-14 -4.3732 8.34136)
(-1.36156e-17 725.401 306.896)
(-6.57946e-16 56.4476 -77.5487)
(-7.03368e-16 -12.7048 24.8529)
(-7.17633e-16 8.35865 5.87976)
(-6.97012e-16 4.65262 -1.43581)
(-7.90554e-16 5.8187 3.19577)
(-3.32874e-16 1.51181 -1.56736)
(-1.96109e-16 3.03518 -4.77253)
(4.39019e-18 3.51672 -5.61235)
(1.36952e-15 3.574 -2.83042)
(5.89626e-16 1.99184 -2.38325)
(2.62175e-16 2.69588 -3.20335)
(-5.2576e-16 4.27607 -1.82436)
(-5.49051e-16 2.08503 -3.19006)
(-4.67914e-16 2.78021 -3.84879)
(-2.72514e-16 2.81636 -3.18239)
(-5.86427e-16 3.86667 -1.61487)
(-2.9901e-16 2.53277 -2.10149)
(-2.75464e-16 2.67347 -2.33932)
(-5.13835e-16 3.99621 -1.60217)
(-2.98042e-16 2.59298 -1.51037)
(-2.52781e-16 2.97175 -1.62597)
(-1.05577e-16 2.85272 -1.38942)
(-3.02934e-16 3.85211 -0.751636)
(-1.43437e-16 2.66499 -0.885892)
(-5.27548e-17 2.99321 -0.967112)
(-7.81936e-17 2.84792 -0.832552)
(-1.74047e-16 3.63821 -0.320929)
(-8.94822e-17 2.65772 -0.49982)
(-7.93887e-18 2.72517 -0.544709)
(-4.4545e-17 3.48045 -0.112295)
(-3.36392e-18 2.42984 -0.293422)
(7.21701e-17 2.67848 -0.292107)
(9.12599e-17 2.5488 -0.252015)
(8.66382e-17 3.06607 0.127811)
(1.74631e-16 2.22711 -0.136658)
(1.99788e-16 2.31081 -0.166661)
(2.7356e-16 2.75054 0.197903)
(2.92415e-16 1.89958 -0.0569781)
(2.81149e-16 2.07717 -0.0316701)
(3.09737e-16 1.98909 -0.0303601)
(4.82376e-16 2.27643 0.253633)
(3.94297e-16 1.58177 -0.0328644)
(3.69099e-16 1.72704 0.00090045)
(3.16946e-16 1.65853 0.0010126)
(4.49727e-16 1.87404 0.236132)
(2.30847e-16 1.37023 0.0685765)
(1.99288e-16 1.4379 0.0871248)
(2.071e-16 1.61398 0.386319)
(3.01872e-16 1.20831 0.252124)
(3.78229e-16 1.28119 0.312059)
(4.33128e-16 1.23243 0.307175)
(6.40224e-16 1.24905 0.555708)
(5.27743e-16 0.879545 0.289082)
(4.5513e-16 0.912652 0.335972)
(6.41277e-16 0.893393 0.36349)
(8.2427e-16 0.796169 0.185038)
(7.05392e-16 0.390451 -0.220334)
(4.91987e-16 0.358621 0.00572664)
(4.38656e-16 0.992945 -1.84684)
(2.17461e-16 -0.542245 -1.55421)
(2.56552e-16 -0.0317092 -1.55861)
(3.87183e-16 0.249989 -1.91641)
(3.20011e-16 -0.180647 -1.32704)
(-1.00975e-15 -1.11661 1.08677)
(-9.02888e-16 -0.755497 1.02088)
(-1.48015e-15 -1.77903 3.50278)
(-1.26992e-15 -2.35154 4.11535)
(-1.31963e-15 -2.62036 4.17211)
(-1.43712e-15 -2.58076 4.44998)
(-1.91605e-15 -4.23116 7.67727)
(-1.40371e-15 -4.54248 6.69502)
(-1.40727e-15 -5.13085 6.89643)
(-1.27765e-15 -5.04499 7.07997)
(-1.09345e-15 -7.67318 10.7986)
(-3.56423e-16 -7.4873 8.43036)
(-1.31228e-16 -7.58835 8.81462)
(5.17815e-16 -10.5802 12.6556)
(5.57551e-16 -10.0756 9.64365)
(3.54783e-16 -10.426 10.5377)
(-9.20864e-16 -11.2305 13.0053)
(-7.18238e-16 -11.0266 12.7998)
(-6.69584e-16 -11.1166 13.0525)
(1.84189e-15 -12.5378 14.5125)
(-9.51595e-17 -11.6178 13.5507)
(3.31116e-17 -11.8115 14.2074)
(2.17243e-17 -11.7384 14.4172)
(-2.61998e-17 -11.7934 14.6379)
(-4.93513e-17 -11.797 14.8764)
(3.83506e-17 -11.8522 15.0878)
(3.90716e-16 -11.9031 15.2021)
(8.34607e-16 -11.8772 15.2677)
(2.30342e-15 -12.8203 16.5446)
(1.18059e-15 -12.2021 15.7452)
(1.35027e-15 -12.3115 16.0153)
(1.49078e-15 -12.3391 16.0214)
(1.75746e-15 -12.3927 15.856)
(1.65266e-15 -12.4657 16.0727)
(1.63954e-15 -12.534 16.2635)
(1.61089e-15 -12.6391 16.5068)
(1.69155e-15 -12.6572 16.7792)
(3.36518e-15 -13.488 18.2592)
(2.5603e-15 -12.7792 17.0579)
(2.6344e-15 -12.9264 17.3586)
(2.64304e-15 -12.9555 17.5049)
(2.71543e-15 -13.046 17.6901)
(2.91476e-15 -13.1035 17.8749)
(3.11494e-15 -13.2067 18.028)
(3.00351e-15 -13.2392 18.0165)
(2.94215e-15 -13.3545 18.0924)
(2.88951e-15 -13.3857 18.2097)
(3.58156e-15 -13.5535 19.0956)
(3.13878e-15 -13.0844 18.3401)
(3.24995e-15 -13.1626 18.3986)
(3.31464e-15 -13.194 18.4073)
(3.40248e-15 -13.2735 18.4467)
(3.51002e-15 -13.2805 18.5263)
(3.63943e-15 -13.3735 18.83)
(3.78702e-15 -13.3955 18.9195)
(3.93315e-15 -13.4657 18.9849)
(4.8106e-15 -12.5977 18.5488)
(4.34142e-15 -12.5874 18.7543)
(4.4567e-15 -12.5424 19.0511)
(4.38192e-15 -12.6144 19.2541)
(4.51123e-15 -12.5672 19.1013)
(4.57071e-15 -12.6157 18.9768)
(4.59006e-15 -12.6109 18.7686)
(4.55938e-15 -12.5595 18.5974)
(4.61997e-15 -12.7137 18.6794)
(5.62521e-15 -10.5406 15.9607)
(4.80646e-15 -11.2549 17.422)
(4.97387e-15 -11.1035 17.0872)
(5.14661e-15 -11.117 17.0571)
(5.51546e-15 -11.0765 17.1646)
(5.75188e-15 -11.0346 17.094)
(6.00384e-15 -10.944 16.985)
(6.29605e-15 -10.886 16.9049)
(6.57297e-15 -10.9287 16.744)
(7.55692e-15 -8.21231 13.6228)
(6.99506e-15 -9.15727 16.0821)
(6.91464e-15 -8.86209 15.4015)
(6.6431e-15 -8.91731 14.8423)
(6.25804e-15 -8.77877 14.0019)
(5.8767e-15 -8.71296 13.0748)
(6.2415e-15 -8.56296 12.2121)
(5.26625e-15 -8.36912 10.9483)
(4.63739e-15 -8.12529 9.64082)
(4.0032e-15 -7.92026 8.34008)
(1.78199e-15 -4.33407 1.80372)
(3.52305e-15 -5.92314 6.67955)
(2.99206e-15 -5.33209 5.18597)
(2.64368e-15 -5.42194 4.82671)
(2.29263e-15 -5.05213 4.09154)
(1.96287e-15 -4.95856 3.36539)
(1.16041e-15 -4.75519 1.92853)
(3.64516e-16 -4.39329 0.533973)
(6.71657e-16 -4.31445 0.581745)
(-1.70137e-16 -3.00875 -2.60363)
(4.44416e-16 -3.33069 0.389918)
(3.88611e-16 -3.12061 -0.562197)
(-5.31964e-16 -2.1106 -3.03046)
(-2.58207e-16 -3.32931 -2.6209)
(-3.81834e-16 -1.90583 -2.27456)
(-3.12473e-16 -1.73667 -1.56107)
(-3.74158e-16 -1.60693 -2.26372)
(-2.75895e-16 -1.0624 -1.37081)
(-3.99508e-16 -0.93163 -2.1318)
(-1.22073e-16 -0.521178 -1.49736)
(5.27756e-17 -0.34971 -1.13316)
(7.46177e-18 0.0164744 -1.72167)
(4.92478e-18 0.162115 -1.44093)
(8.77048e-18 0.271826 -0.748568)
(-2.02322e-17 0.648981 -0.824998)
(1.77545e-17 0.586789 -0.527279)
(-3.85401e-17 0.770478 -0.675769)
(-2.68851e-16 1.06397 -0.795138)
(-2.42655e-16 0.8972 -0.52535)
(-6.61612e-16 1.39996 -0.673124)
(-6.43121e-16 1.14523 -0.454402)
(-8.13896e-16 1.39607 -0.549142)
(-8.07226e-16 1.62196 -0.575108)
(-4.81424e-16 1.39016 -0.362502)
(-4.2477e-16 1.7131 -0.417435)
(-6.01715e-16 1.96959 -0.373401)
(-4.50494e-16 1.53 -0.217829)
(-6.64936e-16 2.23639 -0.286003)
(-5.18744e-16 1.73647 -0.187911)
(-6.8901e-16 1.99145 -0.249656)
(-7.34477e-16 2.30822 -0.244425)
(-4.50135e-16 1.78 -0.150187)
(-4.79837e-16 2.57852 -0.185668)
(-2.88974e-16 1.96471 -0.0848727)
(-2.40118e-16 2.26992 -0.0835178)
(-4.46146e-16 2.49033 0.0459942)
(-4.58403e-16 2.01467 0.0999039)
(-7.10484e-16 2.41717 0.15531)
(-1.14904e-15 2.63051 0.300647)
(-8.68564e-16 1.95638 0.21449)
(-1.21749e-15 2.79118 0.279164)
(-8.75182e-16 2.06851 0.191397)
(-1.0443e-15 2.33507 0.187582)
(-1.08563e-15 2.56578 0.183965)
(-6.8601e-16 1.91688 0.0745631)
(-8.65578e-16 2.74718 0.0303865)
(-6.12121e-16 2.02573 -0.0100726)
(-6.57014e-16 2.34218 -0.0606779)
(-6.64914e-16 2.47541 -0.0705817)
(-4.19264e-16 1.97768 -0.0574435)
(-4.33029e-16 2.41465 -0.0948684)
(-5.30778e-16 2.5706 -0.0853538)
(-4.1867e-16 1.91091 -0.0800551)
(-7.48107e-16 2.78623 -0.151578)
(-7.35368e-16 2.07068 -0.141314)
(-1.09116e-15 2.38465 -0.226863)
(-1.74222e-15 2.60299 -0.304293)
(-1.3707e-15 1.96226 -0.264311)
(-2.05154e-15 2.8614 -0.433112)
(-1.57628e-15 2.11342 -0.369878)
(-1.94653e-15 2.49693 -0.507536)
(-2.1874e-15 2.56004 -0.610181)
(-1.39807e-15 2.04144 -0.459187)
(-1.56154e-15 2.57508 -0.588803)
(-1.39122e-15 2.60428 -0.661824)
(-7.20919e-16 1.944 -0.479618)
(-7.0991e-16 2.86272 -0.663208)
(-3.71685e-16 2.12595 -0.501153)
(-3.13304e-16 2.46761 -0.625124)
(-3.89278e-16 2.6207 -0.696405)
(-2.80615e-16 1.99975 -0.49077)
(-5.17514e-16 2.91074 -0.673721)
(-4.83124e-16 2.1776 -0.497923)
(-7.41147e-16 2.55811 -0.62119)
(-1.03985e-15 2.64959 -0.674369)
(-7.67711e-16 2.14285 -0.456632)
(-1.01849e-15 2.66537 -0.553658)
(-1.16281e-15 2.75524 -0.563549)
(-7.10475e-16 2.07096 -0.372606)
(-8.78003e-16 3.01372 -0.489759)
(-5.23519e-16 2.23345 -0.326758)
(-5.75847e-16 2.65593 -0.425908)
(8.83274e-16 1.35492 3.38789)
(1.37716e-15 1.53551 3.9374)
(1.72028e-15 1.45274 4.32857)
(2.05823e-15 1.48509 4.75117)
(2.32286e-15 1.48983 5.10598)
(2.48884e-15 1.52506 5.39319)
(2.5452e-15 1.57088 5.59675)
(2.49782e-15 1.63249 5.72355)
(2.36522e-15 1.70284 5.78286)
(2.17191e-15 1.77841 5.78767)
(1.94241e-15 1.85392 5.74928)
(1.69573e-15 1.9247 5.67722)
(1.44018e-15 1.98551 5.57945)
(1.16793e-15 2.03058 5.46414)
(8.49812e-16 2.05337 5.34196)
(4.33139e-16 2.04745 5.22812)
(-1.52129e-16 2.00851 5.14237)
(-9.73863e-16 1.93694 5.10529)
(-2.06838e-15 1.83863 5.13071)
(-3.4202e-15 1.72258 5.21889)
(-4.97731e-15 1.59824 5.35724)
(-6.69338e-15 1.47193 5.52721)
(-8.45408e-15 1.30947 5.68644)
(-9.67857e-15 0.947755 5.68264)
(-9.27718e-15 0.202822 5.27475)
(-7.89517e-15 -0.557457 4.77201)
(-7.14602e-15 -0.990375 4.56731)
(-6.55476e-15 -1.27996 4.41885)
(-5.99263e-15 -1.55943 4.27366)
(-5.44303e-15 -1.85847 4.13187)
(-4.9029e-15 -2.16724 3.99394)
(-4.37649e-15 -2.47708 3.86112)
(-3.86024e-15 -2.78088 3.73159)
(-3.35342e-15 -3.07262 3.60482)
(-2.85752e-15 -3.34764 3.48097)
(-2.37082e-15 -3.60342 3.35916)
(-1.89392e-15 -3.83928 3.24001)
(-1.41736e-15 -4.05303 3.12001)
(-9.38362e-16 -4.23933 2.99715)
(-4.61569e-16 -4.39618 2.87306)
(1.11282e-17 -4.52548 2.74884)
(4.774e-16 -4.63106 2.62558)
(9.37525e-16 -4.71679 2.50265)
(1.39377e-15 -4.7825 2.37743)
(1.84217e-15 -4.82586 2.24854)
(2.26994e-15 -4.84884 2.11708)
(2.66523e-15 -4.85309 1.98167)
(3.01057e-15 -4.83967 1.84329)
(3.2869e-15 -4.8094 1.7006)
(3.4726e-15 -4.7621 1.5543)
(3.5508e-15 -4.69949 1.40406)
(3.51247e-15 -4.62052 1.24902)
(3.35507e-15 -4.52961 1.09103)
(3.08774e-15 -4.41807 0.926689)
(2.73022e-15 -4.26858 0.757102)
(2.3136e-15 -4.08325 0.585445)
(1.86851e-15 -3.85889 0.411304)
(1.41797e-15 -3.60431 0.248758)
(9.70421e-16 -3.06685 0.0743949)
(5.52566e-16 -2.44089 -0.0558434)
(2.53845e-16 -1.88368 -0.188803)
(8.39706e-17 -1.12224 -0.276094)
(1.68934e-17 -0.484894 -0.350671)
(2.43834e-19 0.0724989 -0.444411)
(-3.94675e-18 0.25834 -0.55764)
(-3.84479e-18 0.368839 -0.681452)
(-2.45772e-18 0.435061 -0.758417)
(-1.10355e-18 0.486725 -0.733894)
(-3.12738e-19 0.523115 -0.630833)
(-3.61596e-20 0.530358 -0.511294)
(1.22286e-20 0.420209 -0.450646)
(6.27769e-21 0.167386 -0.450896)
(-6.1762e-23 -0.272708 -0.484479)
(-1.60126e-21 -0.684239 -0.523791)
(-3.95302e-20 -0.213287 -0.642356)
(1.60986e-18 2.77204 0.0616087)
(2.57498e-17 3.83387 0.235513)
(-3.90338e-17 2.45693 1.01174)
(-3.65875e-16 0.560775 -0.0349059)
(1.29807e-15 1.26142 3.94234)
(1.86672e-15 1.3836 4.58876)
(2.17228e-15 1.32281 4.95903)
(2.42562e-15 1.36376 5.33801)
(2.55686e-15 1.39212 5.60346)
(2.56724e-15 1.4525 5.78706)
(2.47064e-15 1.52398 5.88615)
(2.29357e-15 1.60799 5.92104)
(2.06676e-15 1.6969 5.90531)
(1.81859e-15 1.78712 5.85211)
(1.57033e-15 1.87406 5.7699)
(1.33167e-15 1.95365 5.66508)
(1.09585e-15 2.0208 5.54348)
(8.33451e-16 2.06919 5.41334)
(4.8669e-16 2.09102 5.28819)
(-3.03338e-17 2.0783 5.18873)
(-8.15857e-16 2.02586 5.14081)
(-1.94319e-15 1.93522 5.16713)
(-3.41541e-15 1.81598 5.27485)
(-5.14899e-15 1.68173 5.44848)
(-7.01767e-15 1.54494 5.65706)
(-8.93031e-15 1.41598 5.87071)
(-1.07772e-14 1.28104 6.05172)
(-1.19519e-14 1.01089 6.05517)
(-1.09679e-14 0.354735 5.54488)
(-8.07777e-15 -0.511154 4.70277)
(-6.81701e-15 -0.993611 4.43596)
(-6.3185e-15 -1.27868 4.34549)
(-5.84274e-15 -1.56128 4.21945)
(-5.32757e-15 -1.86544 4.08466)
(-4.80647e-15 -2.17756 3.95511)
(-4.29522e-15 -2.48885 3.8307)
(-3.79136e-15 -2.79235 3.7084)
(-3.29444e-15 -3.08259 3.58763)
(-2.8062e-15 -3.35507 3.46858)
(-2.32584e-15 -3.60767 3.35068)
(-1.85344e-15 -3.83959 3.23442)
(-1.38023e-15 -4.04836 3.11649)
(-9.04322e-16 -4.22944 2.99524)
(-4.30325e-16 -4.38139 2.87237)
(3.9787e-17 -4.50613 2.74906)
(5.03753e-16 -4.60738 2.62642)
(9.61985e-16 -4.68854 2.50379)
(1.41647e-15 -4.74933 2.3786)
(1.86275e-15 -4.78794 2.24968)
(2.28808e-15 -4.80633 2.11807)
(2.68051e-15 -4.80613 1.98253)
(3.02254e-15 -4.78838 1.84398)
(3.29513e-15 -4.7538 1.70118)
(3.47689e-15 -4.70234 1.55482)
(3.55132e-15 -4.63545 1.40452)
(3.50969e-15 -4.55237 1.24952)
(3.34979e-15 -4.45716 1.09152)
(3.081e-15 -4.3409 0.926998)
(2.72321e-15 -4.18719 0.756928)
(2.30736e-15 -3.99812 0.584112)
(1.86372e-15 -3.77236 0.408332)
(1.41496e-15 -3.51564 0.242313)
(9.69395e-16 -2.97901 0.0621492)
(5.5369e-16 -2.35607 -0.077585)
(2.56416e-16 -1.80902 -0.222972)
(8.70056e-17 -1.06181 -0.326153)
(1.92479e-17 -0.426194 -0.417371)
(1.92326e-18 0.0961613 -0.582697)
(-3.58403e-18 0.299338 -0.729538)
(-4.40111e-18 0.399642 -0.868769)
(-3.22758e-18 0.442373 -0.941716)
(-1.67172e-18 0.465594 -0.907562)
(-5.8789e-19 0.485895 -0.785618)
(-1.21477e-19 0.499224 -0.633194)
(-8.55011e-22 0.407442 -0.518233)
(9.50242e-21 0.171775 -0.464808)
(6.83655e-22 -0.239698 -0.493562)
(1.45891e-22 -0.660082 -0.524847)
(-1.41756e-19 -0.303252 -0.732596)
(3.89994e-18 2.61641 0.0290898)
(3.03079e-17 3.67616 0.500773)
(-1.64001e-16 2.45478 1.18944)
(-7.8307e-16 0.814445 0.52682)
(1.56156e-15 1.20779 4.29977)
(2.10056e-15 1.31084 4.94004)
(2.32288e-15 1.27786 5.24668)
(2.47916e-15 1.33229 5.5609)
(2.51025e-15 1.3778 5.75533)
(2.43614e-15 1.45009 5.87985)
(2.28016e-15 1.53014 5.93354)
(2.07194e-15 1.61937 5.93692)
(1.83995e-15 1.71155 5.89995)
(1.60692e-15 1.80398 5.8323)
(1.38616e-15 1.89268 5.73958)
(1.17738e-15 1.97359 5.62685)
(9.60879e-16 2.04117 5.50024)
(6.90154e-16 2.08811 5.37031)
(2.86064e-16 2.10526 5.25492)
(-3.58311e-16 2.08355 5.18014)
(-1.3492e-15 2.01807 5.17521)
(-2.7379e-15 1.91297 5.25953)
(-4.47119e-15 1.78211 5.4281)
(-6.39831e-15 1.64262 5.64915)
(-8.34878e-15 1.50736 5.8802)
(-1.02251e-14 1.38515 6.08969)
(-1.19663e-14 1.26856 6.25403)
(-1.31113e-14 1.0552 6.26894)
(-1.21981e-14 0.494852 5.7969)
(-8.66805e-15 -0.362527 4.77031)
(-6.61145e-15 -0.917882 4.3036)
(-5.98021e-15 -1.2386 4.22061)
(-5.60303e-15 -1.51558 4.1356)
(-5.16654e-15 -1.81596 4.01994)
(-4.68132e-15 -2.12856 3.90083)
(-4.18935e-15 -2.44083 3.78655)
(-3.70122e-15 -2.74544 3.67442)
(-3.21774e-15 -3.03722 3.56255)
(-2.74006e-15 -3.31159 3.45076)
(-2.26815e-15 -3.56631 3.33878)
(-1.80171e-15 -3.8002 3.22693)
(-1.333e-15 -4.01053 3.11224)
(-8.61213e-16 -4.19326 2.99353)
(-3.90925e-16 -4.34717 2.87257)
(7.57937e-17 -4.47405 2.75072)
(5.3677e-16 -4.5774 2.62908)
(9.92549e-16 -4.66022 2.50694)
(1.44473e-15 -4.72218 2.38187)
(1.88828e-15 -4.76185 2.25291)
(2.31051e-15 -4.78119 2.12108)
(2.69931e-15 -4.7818 1.9853)
(3.03721e-15 -4.76475 1.84646)
(3.30513e-15 -4.73076 1.70343)
(3.48203e-15 -4.67985 1.5569)
(3.55184e-15 -4.61337 1.40645)
(3.50618e-15 -4.53076 1.25142)
(3.34325e-15 -4.4358 1.09333)
(3.07273e-15 -4.31951 0.928457)
(2.71466e-15 -4.16618 0.757634)
(2.29979e-15 -3.97764 0.583162)
(1.85796e-15 -3.75353 0.404946)
(1.41143e-15 -3.49676 0.233959)
(9.6842e-16 -2.96405 0.0457543)
(5.55494e-16 -2.34526 -0.106793)
(2.6003e-16 -1.79984 -0.268822)
(9.11553e-17 -1.05718 -0.392887)
(2.24526e-17 -0.409641 -0.505804)
(4.07959e-18 0.0998701 -0.710998)
(-2.82256e-18 0.325739 -0.866798)
(-4.47957e-18 0.417124 -1.00183)
(-3.62663e-18 0.443982 -1.0641)
(-2.0802e-18 0.45242 -1.02011)
(-8.51394e-19 0.462583 -0.88918)
(-2.35799e-19 0.473516 -0.72913)
(-3.4744e-20 0.388123 -0.601476)
(6.01157e-21 0.135547 -0.521776)
(1.48651e-21 -0.244805 -0.517344)
(3.45904e-21 -0.639466 -0.536522)
(-2.67477e-19 -0.321817 -0.786375)
(5.67389e-18 2.49354 -0.00498089)
(2.81142e-17 3.57868 0.639932)
(-2.15826e-16 2.45703 1.20344)
(-8.73176e-16 0.962858 0.568507)
(1.84262e-15 1.13413 4.70242)
(2.32017e-15 1.21154 5.31712)
(2.44442e-15 1.20954 5.55239)
(2.49875e-15 1.27616 5.7987)
(2.43306e-15 1.34047 5.92404)
(2.28248e-15 1.42743 5.99157)
(2.07597e-15 1.52055 5.99982)
(1.84403e-15 1.62019 5.96895)
(1.61185e-15 1.72093 5.90602)
(1.39611e-15 1.82031 5.81834)
(1.20173e-15 1.91465 5.70976)
(1.01712e-15 1.99975 5.58492)
(8.06918e-16 2.06937 5.45121)
(5.0301e-16 2.11486 5.32273)
(-1.05246e-19 2.12534 5.22303)
(-8.31519e-16 2.09065 5.18427)
(-2.09586e-15 2.00702 5.23732)
(-3.79984e-15 1.88288 5.39318)
(-5.81064e-15 1.7379 5.62866)
(-7.9055e-15 1.59292 5.89386)
(-9.88561e-15 1.46005 6.13819)
(-1.16641e-14 1.3454 6.33333)
(-1.32314e-14 1.24849 6.47141)
(-1.4288e-14 1.09787 6.48928)
(-1.3547e-14 0.649377 6.08199)
(-9.74771e-15 -0.203161 4.9642)
(-6.68412e-15 -0.852188 4.22659)
(-5.68869e-15 -1.22314 4.07933)
(-5.30493e-15 -1.49918 4.02131)
(-4.95663e-15 -1.79312 3.93667)
(-4.53538e-15 -2.10411 3.83528)
(-4.07316e-15 -2.41634 3.73249)
(-3.6021e-15 -2.7208 3.6317)
(-3.13294e-15 -3.01235 3.5309)
(-2.6674e-15 -3.28659 3.42863)
(-2.20518e-15 -3.54139 3.32439)
(-1.74548e-15 -3.77525 3.21837)
(-1.28192e-15 -3.98532 3.10805)
(-8.14821e-16 -4.16797 2.99277)
(-3.48718e-16 -4.32214 2.87445)
(1.14212e-16 -4.44955 2.75456)
(5.71893e-16 -4.55346 2.63425)
(1.02497e-15 -4.63655 2.51279)
(1.47459e-15 -4.69848 2.38792)
(1.91514e-15 -4.73813 2.25892)
(2.33401e-15 -4.75743 2.12679)
(2.71891e-15 -4.75798 1.99067)
(3.0524e-15 -4.74082 1.85139)
(3.31541e-15 -4.70668 1.70797)
(3.48721e-15 -4.65565 1.56112)
(3.55223e-15 -4.58894 1.41039)
(3.5024e-15 -4.50618 1.2552)
(3.33638e-15 -4.41085 1.09687)
(3.06411e-15 -4.29392 0.931474)
(2.70581e-15 -4.14024 0.759666)
(2.292e-15 -3.95148 0.583188)
(1.8521e-15 -3.72804 0.401913)
(1.40797e-15 -3.47031 0.224975)
(9.67727e-16 -2.93962 0.0273922)
(5.5787e-16 -2.32279 -0.140018)
(2.64351e-16 -1.77807 -0.321378)
(9.60354e-17 -1.03973 -0.469135)
(2.63543e-17 -0.376518 -0.608719)
(6.81888e-18 0.137606 -0.853687)
(-1.5832e-18 0.363292 -1.02265)
(-4.34208e-18 0.438322 -1.15555)
(-4.00292e-18 0.444792 -1.2089)
(-2.55396e-18 0.432718 -1.15527)
(-1.19458e-18 0.430262 -1.01304)
(-4.06456e-19 0.441826 -0.838909)
(-9.75091e-20 0.369476 -0.69243)
(-7.14838e-21 0.129955 -0.5924)
(2.09948e-21 -0.244894 -0.549276)
(9.39553e-21 -0.619573 -0.561686)
(-4.21587e-19 -0.363328 -0.848775)
(6.76658e-18 2.32542 -0.0561289)
(2.58093e-17 3.44871 0.771324)
(-2.1842e-16 2.48949 1.20338)
(-7.94597e-16 1.13807 0.363321)
(2.07671e-15 1.07359 5.07865)
(2.44536e-15 1.14072 5.62746)
(2.46166e-15 1.17297 5.78302)
(2.41787e-15 1.25235 5.95973)
(2.27315e-15 1.33282 6.02368)
(2.07191e-15 1.42972 6.04513)
(1.84326e-15 1.53044 6.01941)
(1.61432e-15 1.63518 5.96425)
(1.40392e-15 1.73986 5.88325)
(1.22069e-15 1.84243 5.78147)
(1.05952e-15 1.93937 5.66158)
(8.95565e-16 2.02594 5.52878)
(6.74776e-16 2.09474 5.39317)
(3.03547e-16 2.13521 5.27411)
(-3.51969e-16 2.1346 5.20237)
(-1.43613e-15 2.08233 5.21568)
(-3.02889e-15 1.97769 5.34199)
(-5.05884e-15 1.83563 5.57595)
(-7.29452e-15 1.68222 5.87079)
(-9.45621e-15 1.54017 6.16102)
(-1.13515e-14 1.41812 6.39606)
(-1.2928e-14 1.31664 6.5568)
(-1.42256e-14 1.23649 6.65106)
(-1.51106e-14 1.1326 6.65707)
(-1.46186e-14 0.795918 6.33569)
(-1.11508e-14 0.0136155 5.2665)
(-7.08962e-15 -0.7468 4.21952)
(-5.55088e-15 -1.20042 3.94876)
(-5.01697e-15 -1.49086 3.88668)
(-4.70165e-15 -1.78121 3.82938)
(-4.3569e-15 -2.08979 3.75448)
(-3.94445e-15 -2.40167 3.66831)
(-3.49743e-15 -2.7063 3.58019)
(-3.04308e-15 -2.99754 3.49188)
(-2.59004e-15 -3.27102 3.40135)
(-2.13838e-15 -3.52492 3.30699)
(-1.68618e-15 -3.7576 3.2085)
(-1.22835e-15 -3.96619 3.10391)
(-7.66384e-16 -4.14748 2.99317)
(-3.04845e-16 -4.30065 2.87832)
(1.53996e-16 -4.42733 2.76103)
(6.08162e-16 -4.53056 2.64247)
(1.05834e-15 -4.61271 2.52193)
(1.50521e-15 -4.67343 2.39737)
(1.94257e-15 -4.71193 2.26835)
(2.3579e-15 -4.73014 2.13587)
(2.73874e-15 -4.72961 1.99927)
(3.06766e-15 -4.7114 1.85939)
(3.32563e-15 -4.67619 1.71539)
(3.49226e-15 -4.62413 1.56803)
(3.55244e-15 -4.55631 1.41682)
(3.49846e-15 -4.47251 1.26131)
(3.32936e-15 -4.37588 1.10255)
(3.05539e-15 -4.25727 0.936425)
(2.69691e-15 -4.10213 0.763355)
(2.28422e-15 -3.91201 0.584474)
(1.8463e-15 -3.68813 0.399512)
(1.40464e-15 -3.42811 0.215619)
(9.67345e-16 -2.89774 0.0071843)
(5.60781e-16 -2.28138 -0.177312)
(2.69324e-16 -1.7378 -0.38094)
(1.01629e-16 -1.00529 -0.555722)
(3.11066e-17 -0.326695 -0.728709)
(1.02256e-17 0.176126 -1.01161)
(1.90621e-19 0.396198 -1.18814)
(-3.88968e-18 0.455675 -1.31447)
(-4.24612e-18 0.443197 -1.35791)
(-3.02043e-18 0.412976 -1.29524)
(-1.5966e-18 0.398178 -1.14354)
(-6.41808e-19 0.407668 -0.959499)
(-2.02011e-19 0.340649 -0.795702)
(-3.65262e-20 0.11299 -0.671352)
(1.9749e-21 -0.244888 -0.584328)
(1.7537e-20 -0.596732 -0.596849)
(-5.44912e-19 -0.395129 -0.915783)
(6.71448e-18 2.14676 -0.127396)
(2.54345e-17 3.3235 0.860202)
(-1.77852e-16 2.526 1.20007)
(-6.29671e-16 1.33256 0.512998)
(2.24663e-15 1.01696 5.41711)
(2.47603e-15 1.07926 5.87421)
(2.39299e-15 1.14302 5.95533)
(2.26846e-15 1.23205 6.06967)
(2.0698e-15 1.32601 6.08407)
(1.84416e-15 1.43105 6.06995)
(1.61672e-15 1.53882 6.01828)
(1.4087e-15 1.649 5.9439)
(1.23141e-15 1.75848 5.84758)
(1.08475e-15 1.86516 5.733)
(9.52659e-16 1.96529 5.60281)
(7.94899e-16 2.05322 5.46408)
(5.34856e-16 2.11985 5.33126)
(4.89447e-17 2.1524 5.23083)
(-8.24689e-16 2.1363 5.2016)
(-2.23064e-15 2.06196 5.28429)
(-4.19008e-15 1.93425 5.49625)
(-6.51918e-15 1.77657 5.80691)
(-8.8875e-15 1.62063 6.14436)
(-1.0996e-14 1.48797 6.43568)
(-1.26996e-14 1.38136 6.64023)
(-1.39965e-14 1.29519 6.75234)
(-1.49613e-14 1.22967 6.79173)
(-1.55839e-14 1.16085 6.7685)
(-1.52622e-14 0.923611 6.52171)
(-1.24542e-14 0.247588 5.5929)
(-7.83741e-15 -0.600361 4.29687)
(-5.63077e-15 -1.15518 3.84462)
(-4.81251e-15 -1.47863 3.74755)
(-4.43678e-15 -1.76993 3.70177)
(-4.14224e-15 -2.07569 3.6545)
(-3.79272e-15 -2.38555 3.59172)
(-3.3844e-15 -2.68972 3.51978)
(-2.94949e-15 -2.98076 3.44516)
(-2.50899e-15 -3.25357 3.36786)
(-2.06793e-15 -3.50651 3.2854)
(-1.62389e-15 -3.73796 3.19636)
(-1.17246e-15 -3.94514 3.09909)
(-7.16094e-16 -4.12526 2.99413)
(-2.59463e-16 -4.27763 2.88376)
(1.9501e-16 -4.40379 2.76981)
(6.45459e-16 -4.50657 2.65352)
(1.09257e-15 -4.58798 2.53423)
(1.53649e-15 -4.64774 2.41017)
(1.97048e-15 -4.68535 2.2812)
(2.38209e-15 -4.7027 2.14836)
(2.75872e-15 -4.70135 2.01119)
(3.08293e-15 -4.68232 1.87055)
(3.33576e-15 -4.6463 1.72579)
(3.49715e-15 -4.59346 1.5777)
(3.55248e-15 -4.52475 1.42583)
(3.49434e-15 -4.44012 1.26981)
(3.32221e-15 -4.34233 1.11043)
(3.04659e-15 -4.22215 0.943367)
(2.68797e-15 -4.06557 0.76879)
(2.27643e-15 -3.87401 0.587178)
(1.84054e-15 -3.6494 0.398042)
(1.40144e-15 -3.38642 0.206391)
(9.67229e-16 -2.85563 -0.0141153)
(5.64176e-16 -2.23884 -0.21751)
(2.7492e-16 -1.69521 -0.445841)
(1.07959e-16 -0.968025 -0.650361)
(3.68896e-17 -0.274153 -0.8627)
(1.43229e-17 0.217914 -1.17345)
(2.51386e-18 0.429971 -1.35819)
(-3.07494e-18 0.472594 -1.47934)
(-4.31469e-18 0.440017 -1.51417)
(-3.45002e-18 0.39069 -1.44271)