/*--------------------------------*- C++ -*----------------------------------*\
| =========                 |                                                 |
| \\      /  F ield         | OpenFOAM: The Open Source CFD Toolbox           |
|  \\    /   O peration     | Version:  4.1                                   |
|   \\  /    A nd           | Web:      www.OpenFOAM.org                      |
|    \\/     M anipulation  |                                                 |
\*---------------------------------------------------------------------------*/
FoamFile
{
    version     2.0;
    format      ascii;
    class       volVectorField;
    location    "20";
    object      U;
}
// * * * * * * * * * * * * * * * * * * * * * * * * * * * * * * * * * * * * * //

dimensions      [0 1 -1 0 0 0 0];

internalField   nonuniform List<vector> 
6785
(
(5.99298e-15 0.8522 15.7945)
(8.38045e-15 -4.89458 12.1215)
(-1.90078e-15 -4.1955 12.1321)
(4.76953e-15 -3.60117 11.9966)
(2.59758e-16 -3.00467 11.8778)
(-1.56547e-16 -2.55318 11.6992)
(2.07529e-15 -2.2088 11.4768)
(5.23216e-16 -1.96602 11.2116)
(-1.04785e-15 -1.79854 10.916)
(2.83725e-15 -1.71237 10.5882)
(2.82571e-16 -1.83745 10.156)
(-4.46088e-16 -2.28566 9.5376)
(6.81639e-16 -2.513 8.96375)
(-4.50627e-17 -1.06552 8.91352)
(-2.74702e-16 1.76573 7.47087)
(2.26427e-14 -5.35013 22.4931)
(1.73844e-14 -14.6049 21.3941)
(3.067e-16 -13.2707 20.3413)
(5.7457e-15 -11.7696 19.5067)
(2.02765e-15 -11.156 18.5045)
(7.65411e-17 -10.6594 17.5176)
(2.74687e-15 -10.0901 16.5716)
(1.61077e-15 -9.52494 15.6238)
(-7.79109e-16 -8.96539 14.664)
(-1.27739e-15 -8.36727 13.6948)
(8.98832e-16 -7.75706 12.7181)
(-4.25266e-16 -7.30335 11.7197)
(9.89977e-16 -7.01712 10.6248)
(-4.03294e-17 -5.73107 9.16167)
(-4.43371e-16 -2.30513 4.58363)
(2.48015e-14 -7.71567 23.9806)
(1.89042e-14 -16.7731 24.6731)
(1.35294e-15 -13.7365 23.9375)
(6.87563e-15 -12.3061 22.6252)
(1.7861e-15 -11.6447 21.2416)
(1.18203e-15 -10.814 20.0015)
(5.53024e-15 -9.94025 18.774)
(5.0486e-16 -9.10012 17.5249)
(5.461e-16 -8.2834 16.2657)
(3.52009e-15 -7.47526 15.0265)
(8.28986e-17 -6.66765 13.8179)
(-3.23064e-16 -5.84164 12.4303)
(2.6177e-15 -4.81379 10.2754)
(-1.45036e-15 -3.12608 6.68468)
(-4.96442e-16 -0.83206 1.69016)
(2.2264e-14 -8.50259 22.0467)
(1.87036e-14 -16.6211 24.3323)
(7.61543e-16 -12.9298 23.7974)
(4.40107e-15 -12.1535 21.9989)
(8.40903e-16 -11.4199 20.5031)
(1.37013e-15 -10.4934 19.1725)
(3.15482e-15 -9.63364 17.817)
(2.58977e-15 -8.82332 16.4593)
(-5.84271e-16 -8.05334 15.1233)
(1.42092e-15 -7.32345 13.8168)
(2.44196e-15 -6.55208 12.4397)
(-1.59608e-15 -5.49037 10.5831)
(8.74247e-16 -3.7846 7.50853)
(5.41837e-16 -1.49298 2.76629)
(-6.50515e-16 0.153561 -1.77294)
(2.04251e-14 -8.47594 19.7479)
(1.59029e-14 -16.3601 24.3126)
(2.82181e-15 -13.0989 23.6605)
(3.38633e-15 -12.6278 21.5369)
(1.17189e-15 -11.8563 20.0252)
(9.85073e-16 -10.9572 18.6641)
(1.84385e-15 -10.1696 17.2591)
(-7.00372e-16 -9.40252 15.8715)
(2.92955e-15 -8.65237 14.524)
(3.61171e-15 -7.93031 13.214)
(-5.84183e-16 -7.16579 11.8296)
(-3.06627e-16 -6.11602 9.99652)
(3.252e-15 -4.42367 7.15579)
(-3.07816e-15 -2.30489 3.28894)
(-3.99396e-15 -0.786963 0.318267)
(1.82632e-14 -8.02064 17.5504)
(1.57516e-14 -16.0192 24.5281)
(3.36529e-15 -13.6444 24.0468)
(3.01473e-15 -12.9943 21.7655)
(-2.46182e-16 -12.1264 20.2161)
(2.52482e-15 -11.2246 18.8475)
(1.94022e-15 -10.4388 17.4347)
(-2.65602e-15 -9.64867 16.0441)
(-1.93906e-15 -8.86014 14.6941)
(5.09851e-15 -8.09303 13.3828)
(-3.35947e-15 -7.29702 12.0183)
(3.41294e-16 -6.28434 10.2833)
(-8.84901e-16 -4.73322 7.72309)
(-1.46295e-15 -2.7569 4.37677)
(-1.78659e-15 -0.949845 1.3004)
(1.57706e-14 -7.33235 15.2402)
(2.02015e-14 -15.4892 24.3525)
(5.10898e-15 -14.0273 24.4232)
(2.56031e-15 -13.1299 22.0688)
(1.18545e-15 -12.1468 20.4404)
(7.38172e-16 -11.2379 19.0552)
(1.51696e-15 -10.4383 17.6446)
(3.13806e-16 -9.62228 16.2587)
(-7.11632e-16 -8.81283 14.9081)
(-7.31256e-17 -8.03006 13.5937)
(-1.4602e-15 -7.22718 12.2393)
(-1.22031e-15 -6.24383 10.5527)
(-4.54096e-16 -4.79129 8.11388)
(5.1774e-15 -2.918 4.95722)
(7.09241e-15 -1.01327 1.80494)
(1.7317e-14 -6.53953 12.9922)
(1.86232e-14 -14.8387 23.8006)
(9.5754e-15 -14.2761 24.6719)
(1.59925e-15 -13.2443 22.3258)
(1.22874e-15 -12.1737 20.5839)
(4.51211e-15 -11.2716 19.1677)
(4.53904e-16 -10.471 17.7607)
(7.67235e-16 -9.64931 16.3794)
(4.68673e-15 -8.84116 15.0284)
(-1.3235e-15 -8.06153 13.7122)
(-1.54724e-15 -7.26136 12.3642)
(4.96535e-15 -6.29416 10.7094)
(-5.23748e-16 -4.90061 8.34636)
(-2.53151e-15 -3.09639 5.28997)
(4.16589e-15 -1.1292 2.06178)
(1.21226e-14 -5.73538 11.0257)
(1.84903e-14 -14.1493 23.0388)
(8.1406e-15 -14.4687 24.8505)
(3.98519e-15 -13.4196 22.6301)
(1.55671e-15 -12.2731 20.7613)
(3.37508e-15 -11.3679 19.3006)
(3.14255e-15 -10.5666 17.8975)
(1.17726e-15 -9.74513 16.5197)
(3.45962e-15 -8.93935 15.1666)
(-7.64034e-16 -8.16019 13.8474)
(-3.92692e-16 -7.36083 12.5019)
(4.61139e-15 -6.4031 10.8741)
(3.56269e-17 -5.04983 8.5822)
(-2.23355e-15 -3.29427 5.60714)
(-2.42137e-15 -1.25698 2.29117)
(1.34204e-14 -4.98055 9.37098)
(1.77249e-14 -13.4459 22.1499)
(8.26413e-15 -14.5794 24.9436)
(5.46934e-15 -13.6037 22.9666)
(1.60415e-15 -12.3855 20.9797)
(-1.87454e-15 -11.4586 19.4608)
(1.19769e-15 -10.6506 18.0586)
(1.11226e-15 -9.82856 16.6841)
(3.11699e-15 -9.02217 15.3294)
(2.61261e-15 -8.24001 14.0072)
(-2.55839e-16 -7.43958 12.662)
(5.81574e-16 -6.4906 11.053)
(3.03229e-15 -5.17258 8.81608)
(-1.34647e-15 -3.4587 5.90059)
(-3.40262e-15 -1.35478 2.50725)
(4.62567e-15 -4.3415 8.05619)
(1.70008e-14 -12.7743 21.2359)
(1.01739e-14 -14.6142 24.9504)
(4.15512e-15 -13.7887 23.3141)
(1.64479e-15 -12.5241 21.2437)
(4.38983e-16 -11.5694 19.6562)
(3.98694e-15 -10.754 18.2462)
(3.63338e-15 -9.93392 16.8718)
(2.40128e-15 -9.12814 15.514)
(4.49817e-15 -8.343 14.187)
(3.54876e-16 -7.5425 12.8401)
(-3.36582e-15 -6.6019 11.2487)
(-1.88155e-15 -5.31249 9.06624)
(-6.42685e-15 -3.63462 6.20733)
(-8.59514e-15 -1.46097 2.73639)
(4.55796e-15 -3.71946 6.7554)
(1.73064e-14 -12.0516 20.1538)
(1.00978e-14 -14.5335 24.7733)
(2.38511e-15 -13.904 23.5305)
(3.15769e-15 -12.5946 21.3918)
(1.72449e-15 -11.5979 19.736)
(-4.91319e-16 -10.7761 18.331)
(-4.62257e-16 -9.96412 16.9726)
(-3.49128e-15 -9.16675 15.6275)
(-1.38575e-15 -8.389 14.3115)
(7.22582e-16 -7.59571 12.9746)
(-1.91087e-15 -6.66705 11.4002)
(-3.76252e-15 -5.40387 9.25486)
(-5.23077e-15 -3.75344 6.43028)
(-4.61969e-15 -1.52386 2.88987)
(2.91106e-15 -3.43225 6.27683)
(1.7816e-14 -11.5765 19.4009)
(9.91262e-15 -14.609 24.7002)
(6.42423e-15 -14.3184 24.0253)
(1.56523e-15 -13.0702 21.9268)
(-1.26167e-15 -12.0384 20.1539)
(8.5583e-16 -11.1885 18.6699)
(1.66903e-15 -10.3624 17.2686)
(-1.04515e-15 -9.54435 15.8895)
(-1.46144e-15 -8.73813 14.5429)
(-3.49328e-16 -7.92204 13.1901)
(-3.42819e-15 -6.98582 11.6437)
(-4.19937e-15 -5.73605 9.58751)
(-6.4159e-15 -4.09125 6.83366)
(-8.7853e-15 -1.71721 3.19386)
(2.60397e-15 -1.88833 2.70843)
(1.31001e-14 -9.84517 16.3065)
(1.31266e-14 -13.8626 23.2698)
(5.52019e-15 -13.9046 23.3561)
(2.11661e-15 -12.5418 21.2339)
(-1.04057e-15 -11.4329 19.5064)
(2.57772e-16 -10.6743 18.2768)
(2.59798e-15 -9.98289 17.1327)
(-4.44457e-16 -9.29947 15.9689)
(-1.3015e-15 -8.6249 14.7991)
(-6.19451e-16 -7.9351 13.6047)
(-2.90651e-15 -7.13347 12.2115)
(-2.86537e-15 -6.03527 10.3393)
(-8.78291e-15 -4.58656 7.8966)
(-6.29661e-15 -2.3121 4.61295)
(2.37693e-16 -4.38121 9.49121)
(1.32076e-14 -11.1748 19.1326)
(1.38913e-14 -15.3758 25.4308)
(7.4008e-15 -16.885 26.4704)
(3.62985e-15 -16.3517 24.721)
(3.65306e-16 -15.1641 22.2457)
(-1.44709e-15 -13.8557 19.9702)
(1.12139e-15 -12.6139 18.0271)
(-7.24789e-16 -11.4209 16.2573)
(-2.17602e-15 -10.258 14.6436)
(-5.64831e-16 -9.11937 13.1206)
(-4.17111e-15 -7.90758 11.5317)
(-4.04827e-15 -6.51607 9.62636)
(-6.5284e-15 -4.68181 6.74688)
(-7.76298e-15 -1.13978 2.37647)
(-3.02478e-16 0.70826 -3.70376)
(-2.29422e-16 0.597365 -6.33668)
(-6.97989e-17 0.811104 -4.26676)
(-8.12328e-17 1.28397 -4.24308)
(-1.21282e-16 1.72866 -4.01316)
(-3.05556e-16 1.95951 -5.57622)
(-1.87802e-16 2.08262 -3.74953)
(-1.78228e-16 2.39653 -3.68961)
(1.4928e-16 2.73991 -3.51339)
(2.11354e-15 3.04606 -4.57596)
(-8.38655e-16 2.97377 -3.21023)
(-5.7766e-16 3.26754 -3.00005)
(-5.79694e-16 3.92114 -3.69988)
(-4.47726e-16 3.49829 -2.65716)
(-4.30978e-16 3.74875 -2.5975)
(-3.87856e-16 3.92556 -2.50686)
(-5.22164e-16 4.67473 -2.89986)
(-3.88669e-16 3.88519 -2.20626)
(-3.27317e-16 4.07045 -2.10474)
(-3.99356e-16 5.1907 -2.22263)
(-3.09895e-16 4.04966 -1.75648)
(-2.62155e-16 4.2968 -1.72104)
(3.97915e-17 4.36105 -1.70258)
(-4.67948e-16 5.44369 -1.55686)
(-3.19809e-16 4.00844 -1.35203)
(-3.11616e-16 4.33272 -1.32328)
(-2.78948e-16 4.35952 -1.32971)
(-3.72893e-16 5.5754 -1.00769)
(-3.3299e-16 3.90689 -0.973272)
(-3.4886e-16 3.97323 -0.994529)
(-5.3417e-16 5.64116 -0.555283)
(-3.92351e-16 3.66288 -0.602502)
(-4.07126e-16 3.8968 -0.587249)
(-4.02593e-16 3.84475 -0.61777)
(-6.47798e-16 5.23128 -0.176023)
(-4.69397e-16 3.36683 -0.258092)
(-4.42675e-16 3.36406 -0.301391)
(-6.4606e-16 5.00481 0.127154)
(-4.46107e-16 3.04741 0.0653855)
(-4.56498e-16 3.21985 0.0705575)
(-4.00686e-16 3.15506 0.0384134)
(-5.43745e-16 4.31574 0.408364)
(-3.77513e-16 2.66372 0.36823)
(-3.7338e-16 2.85129 0.375487)
(-3.47124e-16 2.8149 0.349752)
(-4.64477e-16 3.6178 0.655434)
(-3.45483e-16 2.4227 0.697797)
(-3.39e-16 2.38672 0.68214)
(-4.6232e-16 3.3363 0.977444)
(-3.28791e-16 2.32236 1.04877)
(-3.12768e-16 2.33288 1.05834)
(-2.83084e-16 2.2946 1.03409)
(-3.57632e-16 2.56642 1.35945)
(-2.45913e-16 1.92633 1.22506)
(-2.62522e-16 1.91697 1.22273)
(-1.22575e-16 1.88995 1.21296)
(-1.15046e-16 1.87996 1.35991)
(-4.64624e-17 1.35661 1.04539)
(-4.16408e-17 1.24734 1.08915)
(1.13878e-17 1.30348 0.558633)
(5.61715e-17 0.628077 0.245564)
(5.88321e-17 0.519859 0.238436)
(5.19797e-17 0.641755 0.280703)
(9.01711e-16 1.01504 -1.62133)
(-1.12529e-15 -0.462217 0.494237)
(-1.4133e-15 -0.0439562 0.668973)
(-2.01545e-15 -0.323386 2.50592)
(-1.54824e-15 -1.51567 4.10577)
(-1.47781e-15 -1.55052 4.07227)
(-1.52324e-15 -1.58863 4.24959)
(-1.87638e-15 -3.01678 7.30985)
(-1.37047e-15 -3.54141 6.68278)
(-1.44256e-15 -3.81475 6.83859)
(-1.45266e-15 -4.01702 7.02242)
(-1.64712e-15 -6.60335 10.7498)
(-1.08978e-15 -6.11683 8.65255)
(-1.17483e-15 -6.43173 9.16926)
(-1.23928e-15 -9.72983 13.2755)
(-9.55153e-16 -8.81742 10.2393)
(-1.19941e-15 -9.11376 11.0099)
(-2.39091e-15 -10.1076 12.8071)
(-2.24156e-15 -9.94954 12.6956)
(-2.22266e-15 -10.1478 12.9657)
(-4.0454e-16 -11.7305 15.5358)
(-1.56626e-15 -10.7687 13.8592)
(-1.11851e-15 -11.1066 14.5299)
(-8.51238e-16 -11.1062 14.6791)
(-7.40087e-16 -11.1851 14.7976)
(-6.41831e-16 -11.2861 14.9401)
(-5.04674e-16 -11.3771 15.1037)
(-3.20988e-16 -11.4779 15.4057)
(-1.81299e-16 -11.6044 15.7765)
(8.21103e-16 -12.2266 16.9293)
(1.93385e-16 -11.8398 16.1081)
(3.11646e-16 -11.9695 16.3192)
(3.55347e-16 -11.9535 16.4465)
(4.86874e-16 -12.1158 16.8178)
(5.21491e-16 -12.0917 16.8548)
(5.70158e-16 -12.1759 16.9973)
(6.17491e-16 -12.235 17.1192)
(7.00608e-16 -12.2952 17.2588)
(2.55286e-15 -12.6246 18.0616)
(1.57971e-15 -12.2366 17.5448)
(1.68555e-15 -12.3328 17.7059)
(1.72829e-15 -12.3618 17.7941)
(1.79217e-15 -12.3991 17.9226)
(1.81013e-15 -12.4381 18.1206)
(1.80416e-15 -12.5084 18.3435)
(1.88358e-15 -12.5106 18.4109)
(1.9649e-15 -12.5805 18.5278)
(2.07489e-15 -12.6329 18.6203)
(2.51256e-15 -12.2542 18.5836)
(2.22792e-15 -12.1944 18.5457)
(2.31603e-15 -12.2206 18.6344)
(2.33138e-15 -12.2463 18.7003)
(2.3649e-15 -12.2762 18.781)
(2.39887e-15 -12.2602 18.8844)
(2.83106e-15 -12.3121 19.1277)
(3.14959e-15 -12.34 19.2057)
(3.29539e-15 -12.3795 19.1928)
(3.61031e-15 -11.1978 17.9062)
(3.55762e-15 -11.4704 18.4484)
(3.66921e-15 -11.4201 18.5538)
(3.57279e-15 -11.4519 18.702)
(3.67316e-15 -11.3893 18.6265)
(3.79114e-15 -11.3824 18.6114)
(3.93041e-15 -11.3569 18.5779)
(4.09105e-15 -11.345 18.5737)
(4.36178e-15 -11.4193 18.7508)
(5.22511e-15 -9.0759 15.6843)
(4.71998e-15 -10.0055 17.3667)
(4.89243e-15 -9.81732 17.0855)
(5.03214e-15 -9.78347 17.0009)
(5.44677e-15 -9.73867 17.0334)
(5.57828e-15 -9.63116 16.8217)
(5.6264e-15 -9.53017 16.4988)
(5.70659e-15 -9.49475 16.1498)
(5.79243e-15 -9.35731 15.696)
(6.8004e-15 -6.29777 11.2075)
(6.46673e-15 -7.66679 14.3111)
(6.34396e-15 -7.26472 13.5192)
(6.27154e-15 -7.21437 13.0802)
(6.19032e-15 -7.05911 12.4683)
(6.19255e-15 -6.98584 11.797)
(6.65637e-15 -6.6972 10.9513)
(6.12035e-15 -6.65758 10.3282)
(5.80849e-15 -6.47674 9.53956)
(5.38739e-15 -6.11775 8.65598)
(2.58558e-15 -2.95651 2.41734)
(4.73214e-15 -4.48965 7.0448)
(4.1007e-15 -3.86138 5.54443)
(3.82274e-15 -3.88181 4.98154)
(3.41698e-15 -3.63421 4.0945)
(2.89946e-15 -3.59491 3.06636)
(1.85023e-15 -3.45145 1.48432)
(8.41522e-16 -3.01906 -0.0663911)
(1.09491e-15 -2.80348 -0.352038)
(2.33155e-15 -4.81925 -3.53812)
(1.01815e-15 -2.18186 -0.326243)
(1.1021e-15 -1.73904 -1.48364)
(8.96859e-16 -2.86935 -4.07423)
(-9.59302e-16 -1.03627 -4.00229)
(2.47791e-16 -0.567791 -2.77668)
(-8.88109e-17 -0.795186 -2.08646)
(3.03948e-15 0.305893 -2.60891)
(-1.40846e-15 0.405036 -2.18793)
(-3.79062e-15 0.762548 -2.55278)
(3.26638e-15 1.2528 -2.41842)
(4.06399e-16 1.2327 -1.85897)
(2.8679e-16 1.63398 -2.13439)
(1.03447e-16 2.22048 -2.01079)
(1.83877e-16 1.78061 -1.53123)
(1.94673e-16 2.7231 -1.77166)
(1.45109e-16 2.26632 -1.37995)
(1.22911e-15 2.73766 -1.55708)
(3.77348e-16 3.28349 -1.4654)
(2.18428e-16 2.48705 -1.0963)
(4.85702e-16 3.68902 -1.27751)
(-1.99695e-16 2.93057 -0.979225)
(1.96204e-16 3.46543 -1.12097)
(2.78538e-16 3.91124 -1.06214)
(1.05019e-16 3.07609 -0.779501)
(5.21929e-17 3.8086 -0.870286)
(4.17151e-16 4.33545 -0.810496)
(3.33288e-16 3.2232 -0.61764)
(4.17094e-16 4.58863 -0.691183)
(2.01653e-16 3.57053 -0.554425)
(4.48357e-16 4.159 -0.616271)
(3.72354e-16 4.66443 -0.558303)
(2.51757e-16 3.44457 -0.438046)
(2.79881e-16 4.98309 -0.46523)
(2.22448e-16 3.79264 -0.383832)
(3.29341e-16 4.43164 -0.422569)
(2.86072e-16 4.85065 -0.3703)
(7.84656e-17 3.67294 -0.294223)
(1.59125e-16 4.58236 -0.286464)
(1.17899e-16 5.10757 -0.220667)
(1.17651e-16 3.64747 -0.210418)
(7.77666e-17 5.28799 -0.174631)
(5.11379e-17 3.94426 -0.173147)
(5.23222e-17 4.61656 -0.167258)
(1.44973e-16 5.11002 -0.100946)
(7.52415e-17 3.64429 -0.112012)
(4.31088e-17 5.37983 -0.0675177)
(7.27082e-17 3.97081 -0.0794854)
(-1.68895e-18 4.64332 -0.0764131)
(-2.14251e-16 5.04467 -0.0166924)
(3.03874e-18 3.72228 -0.034133)
(4.87388e-18 4.68958 0.00640294)
(-1.34222e-16 5.19349 0.0767153)
(-1.92951e-17 3.61876 0.0115819)
(-5.72204e-18 5.27876 0.0807683)
(-1.02168e-16 3.8901 0.0271818)
(-6.75683e-17 4.53329 0.0546859)
(-3.80054e-16 4.99462 0.116841)
(-2.38516e-16 3.50063 0.0546806)
(-4.35298e-16 5.20021 0.112447)
(-1.75067e-16 3.82047 0.0647758)
(-2.51535e-16 4.43058 0.0762086)
(-3.73866e-16 4.80189 0.118482)
(-3.0019e-16 3.49566 0.0767922)
(-2.18895e-16 4.43196 0.112963)
(-2.34215e-16 4.91456 0.154263)
(-1.59709e-16 3.37767 0.0909067)
(-2.94351e-16 4.92719 0.134732)
(-3.42208e-16 3.65356 0.0806108)
(-3.8939e-16 4.22185 0.0930426)
(-5.30971e-16 4.6675 0.113111)
(-3.47267e-16 3.23634 0.0777732)
(-4.72827e-16 4.84046 0.087596)
(-3.5286e-16 3.57943 0.0623137)
(-4.48545e-16 4.12319 0.0418566)
(-6.83835e-16 4.50208 0.0300622)
(-3.76056e-16 3.2541 0.0388082)
(-3.19073e-16 4.16387 0.0277426)
(-4.15673e-16 4.67157 0.00207667)
(-2.9104e-16 3.18795 0.0180615)
(-4.45773e-16 4.67647 -0.0289736)
(-3.51711e-16 3.49843 -0.0192403)
(-5.06979e-16 4.1151 -0.109797)
(-9.09292e-16 -0.397297 0.268969)
(-9.10559e-16 -0.2284 0.140511)
(-9.11532e-16 -0.132855 0.157009)
(-9.11374e-16 -0.307384 0.2489)
(-9.11036e-16 -0.552082 0.375883)
(-9.1005e-16 -0.74061 0.478781)
(-9.07709e-16 -0.765669 0.46008)
(-9.04095e-16 -0.794184 0.304882)
(-9.01792e-16 -1.08897 0.118231)
(-9.00895e-16 -0.52241 -0.164923)
(-9.00741e-16 -0.6627 -0.264384)
(-9.00906e-16 -0.466685 -0.279124)
(-9.00623e-16 0.311812 -0.198765)
(-9.00776e-16 0.783709 -0.176648)
(-9.01606e-16 1.04596 0.0513582)
(-9.01594e-16 0.847161 -0.10175)
(-9.01481e-16 0.919396 -0.102804)
(-9.00978e-16 1.14313 -0.224185)
(-9.00678e-16 0.0897374 0.0164736)
(-9.06287e-16 -4.25719 -0.181782)
(-8.58372e-16 -3.04096 -0.266833)
(-7.9679e-16 0.506488 0.30449)
(-7.79711e-16 -1.07206 0.366873)
(-7.71499e-16 -0.285254 0.102549)
(-7.75015e-16 0.105363 0.25204)
(-7.8921e-16 1.65242 0.503201)
(-8.26479e-16 1.07824 1.17962)
(-8.61612e-16 0.221218 0.926693)
(-8.6424e-16 -0.560039 0.512593)
(-8.54557e-16 -0.614569 0.602644)
(-8.4677e-16 -1.0793 0.560981)
(-8.4708e-16 -1.78858 0.375109)
(-8.47075e-16 0.297313 -0.174142)
(-8.46883e-16 0.195744 0.0520384)
(-8.47198e-16 -0.708369 -0.0426921)
(-8.47045e-16 0.28337 -0.315262)
(-8.45895e-16 1.57859 -0.262131)
(-8.46731e-16 -0.90332 -0.0391102)
(-8.46869e-16 -0.456225 -0.27607)
(-8.4687e-16 -0.226402 -0.263239)
(-8.46842e-16 -0.336373 -0.315646)
(-8.46821e-16 -0.221297 -0.648313)
(-8.46818e-16 -0.0366905 -0.855648)
(-8.4682e-16 0.0582399 -1.02613)
(-8.46772e-16 0.208789 -1.14929)
(-8.46683e-16 0.276875 -1.2126)
(-8.46594e-16 0.259071 -1.23064)
(-8.46518e-16 0.195078 -1.21753)
(-8.46463e-16 0.143159 -1.19121)
(-8.46426e-16 0.132716 -1.17706)
(-8.46439e-16 0.168292 -1.1256)
(-8.46501e-16 0.330968 -1.07162)
(-8.46138e-16 0.524927 -0.890714)
(-8.46682e-16 1.08675 -0.726251)
(-8.55184e-16 1.65902 -0.05402)
(-5.00747e-16 -7.73378 -0.320389)
(-3.29586e-16 -8.19845 -0.279019)
(-2.23642e-16 -3.49902 -0.20641)
(-1.63569e-16 0.820481 0.239183)
(-1.40157e-16 1.52335 0.15483)
(-1.42188e-16 0.737867 0.462661)
(-1.42286e-16 -0.630948 0.229678)
(-1.44122e-16 -1.23911 0.409097)
(-1.34318e-16 -1.71312 0.379749)
(-1.00261e-17 0.884412 0.118607)
(-1.80739e-17 0.29789 0.33835)
(-1.86877e-17 0.106225 0.831044)
(-1.83267e-17 -0.835402 0.743888)
(-1.84994e-17 -1.17901 0.819276)
(-1.86716e-17 -1.39059 0.883484)
(-9.91443e-18 -1.31876 0.855362)
(1.71204e-17 -1.2438 0.756205)
(3.11964e-17 -1.3838 0.740214)
(4.24527e-17 -1.2866 0.664038)
(1.33675e-16 -1.08602 1.01058)
(3.48557e-16 -0.298647 0.557848)
(4.64529e-16 1.13546 0.385898)
(5.37401e-16 2.7232 0.304284)
(4.60514e-16 3.77721 0.0500005)
(-9.09362e-16 -0.360914 0.313334)
(-9.10697e-16 -0.144597 0.164364)
(-9.1154e-16 -0.0235958 0.207706)
(-9.11355e-16 -0.225106 0.334646)
(-9.10975e-16 -0.464169 0.454829)
(-9.09881e-16 -0.620492 0.519412)
(-9.07424e-16 -0.619943 0.462198)
(-9.03933e-16 -0.670424 0.304018)
(-9.0177e-16 -0.936414 0.124801)
(-9.00914e-16 -0.265594 -0.181268)
(-9.00737e-16 -0.459088 -0.348671)
(-9.00894e-16 -0.288475 -0.429739)
(-9.00714e-16 0.556611 -0.378083)
(-9.00818e-16 0.803762 -0.216013)
(-9.01606e-16 1.04658 0.091154)
(-9.01611e-16 1.06806 -0.229806)
(-9.01482e-16 0.947224 -0.153607)
(-9.00994e-16 1.10116 -0.229904)
(-9.00766e-16 0.245842 0.164386)
(-9.06334e-16 -4.24008 -0.149417)
(-8.58983e-16 -2.96966 -0.237671)
(-7.96407e-16 0.319547 0.319101)
(-7.78911e-16 -0.761343 0.410891)
(-7.71378e-16 0.355566 0.0880354)
(-7.74701e-16 0.992991 0.0256403)
(-7.86766e-16 1.4991 0.476564)
(-8.23351e-16 0.986858 1.25974)
(-8.58443e-16 0.306628 0.997539)
(-8.64182e-16 -0.428589 0.540499)
(-8.5361e-16 -0.593369 0.526417)
(-8.46683e-16 -1.10742 0.425764)
(-8.47085e-16 -1.69665 0.312841)
(-8.47033e-16 0.30658 -0.26487)
(-8.46704e-16 0.418231 0.206939)
(-8.47196e-16 -0.621125 -0.0267259)
(-8.47043e-16 0.30536 -0.359267)
(-8.45755e-16 1.5072 -0.260256)
(-8.46725e-16 -0.683632 -0.104504)
(-8.46853e-16 -0.621788 -0.546093)
(-8.46871e-16 -0.325721 -0.212915)
(-8.46856e-16 -0.23648 -0.411424)
(-8.46848e-16 -0.126694 -0.733956)
(-8.46849e-16 -0.00818835 -0.976819)
(-8.46843e-16 0.0787166 -1.11552)
(-8.46787e-16 0.211805 -1.21905)
(-8.46699e-16 0.272803 -1.27202)
(-8.46608e-16 0.245087 -1.28221)
(-8.4653e-16 0.17439 -1.26244)
(-8.46469e-16 0.118084 -1.22808)
(-8.46429e-16 0.109653 -1.20682)
(-8.46438e-16 0.145051 -1.145)
(-8.46496e-16 0.295523 -1.08528)
(-8.4609e-16 0.470984 -0.88426)
(-8.46777e-16 0.985364 -0.729403)
(-8.54046e-16 1.55147 -0.0303193)
(-5.02218e-16 -7.63248 -0.318597)
(-3.30186e-16 -8.20494 -0.308811)
(-2.24082e-16 -3.57716 -0.226367)
(-1.65297e-16 0.740843 0.264451)
(-1.40547e-16 1.48822 0.129397)
(-1.42888e-16 0.789357 0.524637)
(-1.42757e-16 -0.419491 0.310416)
(-1.44944e-16 -1.1462 0.446832)
(-1.31607e-16 -1.58035 0.332233)
(-1.06999e-17 0.75128 0.109762)
(-1.84326e-17 0.769781 0.424274)
(-1.86063e-17 0.06725 0.744085)
(-1.83543e-17 -0.780181 0.808549)
(-1.86983e-17 -1.15981 0.866856)
(-1.82751e-17 -1.36459 0.889932)
(-7.73116e-18 -1.32762 0.818578)
(1.83436e-17 -1.35635 0.698447)
(3.08372e-17 -1.51525 0.65024)
(4.87661e-17 -1.49125 0.607003)
(1.69225e-16 -1.22058 0.951752)
(4.09478e-16 -0.220888 0.666322)
(4.86149e-16 1.18208 0.392437)
(5.66652e-16 2.76324 0.333627)
(4.86645e-16 3.86248 0.134679)
(-9.09462e-16 -0.34901 0.325174)
(-9.10867e-16 -0.159479 0.181705)
(-9.11544e-16 -0.104258 0.246254)
(-9.11328e-16 -0.302692 0.379868)
(-9.10887e-16 -0.533522 0.495827)
(-9.09657e-16 -0.67108 0.536674)
(-9.07081e-16 -0.645593 0.450801)
(-9.03742e-16 -0.684473 0.297256)
(-9.01742e-16 -0.933514 0.130679)
(-9.00933e-16 -0.302058 -0.165384)
(-9.00735e-16 -0.49452 -0.356719)
(-9.0088e-16 -0.337646 -0.453718)
(-9.00758e-16 0.35012 -0.419716)
(-9.0085e-16 0.684029 -0.176355)
(-9.0161e-16 1.09012 0.0835216)
(-9.01605e-16 0.8372 -0.248005)
(-9.01471e-16 0.949594 -0.0940415)
(-9.00995e-16 1.06268 -0.260446)
(-9.00848e-16 0.0676424 0.171959)
(-9.06392e-16 -4.20095 -0.132993)
(-8.59696e-16 -3.02476 -0.21938)
(-7.95478e-16 0.228218 0.331302)
(-7.77839e-16 -0.80432 0.404058)
(-7.71317e-16 0.119079 0.119038)
(-7.7504e-16 0.609516 0.023924)
(-7.85753e-16 1.27661 0.706192)
(-8.20652e-16 0.986355 1.28853)
(-8.5619e-16 0.359926 1.06018)
(-8.63282e-16 -0.402084 0.57703)
(-8.52511e-16 -0.549534 0.510299)
(-8.46541e-16 -1.03221 0.424203)
(-8.471e-16 -1.59733 0.27868)
(-8.46996e-16 0.152627 -0.3033)
(-8.46442e-16 0.293248 0.212054)
(-8.47198e-16 -0.549614 -0.0177996)
(-8.47025e-16 0.317542 -0.37459)
(-8.45598e-16 1.47186 -0.289705)
(-8.46712e-16 -0.61834 -0.13795)
(-8.46832e-16 -0.532328 -0.617736)
(-8.46862e-16 -0.320817 -0.373182)
(-8.46826e-16 -0.172694 -0.534621)
(-8.46831e-16 -0.0985846 -0.82535)
(-8.46847e-16 0.0232844 -1.05721)
(-8.46845e-16 0.109748 -1.17839)
(-8.46793e-16 0.236419 -1.26558)
(-8.4671e-16 0.286834 -1.31248)
(-8.46623e-16 0.250197 -1.31738)
(-8.46542e-16 0.176708 -1.29199)
(-8.46478e-16 0.120479 -1.25084)
(-8.46434e-16 0.108481 -1.22264)
(-8.46439e-16 0.137657 -1.15358)
(-8.46495e-16 0.274178 -1.08964)
(-8.46067e-16 0.436756 -0.879599)
(-8.46813e-16 0.923581 -0.72987)
(-8.54339e-16 1.50084 -0.0497138)
(-5.04092e-16 -7.59923 -0.318712)
(-3.30971e-16 -8.22465 -0.329946)
(-2.24712e-16 -3.62619 -0.241343)
(-1.66851e-16 0.699799 0.260938)
(-1.40839e-16 1.47914 0.10504)
(-1.43253e-16 0.668198 0.501011)
(-1.43328e-16 -0.487557 0.327113)
(-1.45638e-16 -1.20491 0.448713)
(-1.28262e-16 -1.53513 0.321096)
(-9.93396e-18 0.739132 0.0816476)
(-1.86704e-17 0.503592 0.420338)
(-1.85559e-17 -0.0210675 0.709236)
(-1.84153e-17 -0.824699 0.809301)
(-1.88929e-17 -1.194 0.863882)
(-1.77006e-17 -1.38313 0.867326)
(-5.54378e-18 -1.31714 0.759639)
(1.91762e-17 -1.3247 0.633187)
(3.09257e-17 -1.48908 0.600127)
(6.07582e-17 -1.48632 0.645308)
(2.09797e-16 -1.19701 0.943454)
(4.65012e-16 -0.230456 0.614409)
(4.95064e-16 1.21791 0.376102)
(5.81814e-16 2.77824 0.340582)
(5.05717e-16 3.89426 0.174278)
(-9.09582e-16 -0.330602 0.332845)
(-9.11038e-16 -0.152925 0.202765)
(-9.1154e-16 -0.137048 0.286093)
(-9.11292e-16 -0.336633 0.419639)
(-9.10781e-16 -0.555741 0.528211)
(-9.09413e-16 -0.672451 0.547179)
(-9.0674e-16 -0.628162 0.438875)
(-9.03557e-16 -0.658699 0.290624)
(-9.0171e-16 -0.899913 0.135233)
(-9.00949e-16 -0.260503 -0.149585)
(-9.00734e-16 -0.476167 -0.352914)
(-9.00869e-16 -0.338245 -0.453024)
(-9.00776e-16 0.247416 -0.424651)
(-9.00867e-16 0.726699 -0.17137)
(-9.01604e-16 1.13101 0.0651235)
(-9.01598e-16 0.840861 -0.254644)
(-9.01469e-16 1.00413 -0.0871755)
(-9.00994e-16 1.08836 -0.280383)
(-9.00856e-16 0.107114 0.137851)
(-9.06445e-16 -4.17934 -0.117726)
(-8.60263e-16 -3.04032 -0.203265)
(-7.94016e-16 0.188365 0.3751)
(-7.76877e-16 -0.78633 0.396245)
(-7.71357e-16 0.0968184 0.145119)
(-7.75721e-16 0.532458 0.0611922)
(-7.83257e-16 1.24048 0.718233)
(-8.16419e-16 0.945425 1.30092)
(-8.53272e-16 0.418514 1.14316)
(-8.62312e-16 -0.334156 0.632868)
(-8.51467e-16 -0.510572 0.541769)
(-8.46383e-16 -0.995179 0.433212)
(-8.47119e-16 -1.52511 0.258439)
(-8.4697e-16 0.157087 -0.324047)
(-8.46166e-16 0.387748 0.123918)
(-8.47203e-16 -0.529781 -0.0380897)
(-8.47e-16 0.328911 -0.407481)
(-8.45419e-16 1.4194 -0.318102)
(-8.46695e-16 -0.546337 -0.168886)
(-8.46811e-16 -0.522614 -0.656707)
(-8.46841e-16 -0.360139 -0.549385)
(-8.46798e-16 -0.0984617 -0.655425)
(-8.46813e-16 -0.0278219 -0.924512)
(-8.46844e-16 0.0560213 -1.13741)
(-8.46846e-16 0.130211 -1.24464)
(-8.46799e-16 0.248357 -1.31851)
(-8.46722e-16 0.292718 -1.35534)
(-8.46638e-16 0.249505 -1.35311)
(-8.46555e-16 0.171544 -1.32183)
(-8.46487e-16 0.114584 -1.27529)
(-8.46439e-16 0.0987842 -1.24163)
(-8.46439e-16 0.123397 -1.16577)
(-8.46492e-16 0.246403 -1.09782)
(-8.46037e-16 0.395359 -0.879263)
(-8.46856e-16 0.855243 -0.734529)
(-8.54311e-16 1.42841 -0.0680141)
(-5.06121e-16 -7.55483 -0.319628)
(-3.31825e-16 -8.23976 -0.347269)
(-2.25425e-16 -3.67609 -0.253043)
(-1.68552e-16 0.641879 0.256977)
(-1.41174e-16 1.46725 0.0805798)
(-1.43555e-16 0.708967 0.487294)
(-1.43928e-16 -0.51215 0.322941)
(-1.46165e-16 -1.22283 0.434779)
(-1.25166e-16 -1.4802 0.321053)
(-9.15657e-18 0.673916 0.0625959)
(-1.88171e-17 0.437974 0.384718)
(-1.85302e-17 -0.104425 0.683448)
(-1.85222e-17 -0.835836 0.797902)
(-1.90946e-17 -1.18953 0.849538)
(-1.71077e-17 -1.35618 0.834102)
(-3.64776e-18 -1.27328 0.694891)
(1.98063e-17 -1.27546 0.570552)
(3.2155e-17 -1.47517 0.584153)
(7.48072e-17 -1.49616 0.693133)
(2.42589e-16 -1.20195 0.892703)
(5.06831e-16 -0.200997 0.57858)
(5.04249e-16 1.24492 0.355986)
(5.98459e-16 2.80185 0.344138)
(5.28968e-16 3.93787 0.178072)
(-9.09719e-16 -0.312299 0.340833)
(-9.11196e-16 -0.147351 0.23018)
(-9.11528e-16 -0.162262 0.328409)
(-9.1125e-16 -0.360091 0.458272)
(-9.10663e-16 -0.564648 0.556393)
(-9.0916e-16 -0.65834 0.553147)
(-9.06411e-16 -0.599994 0.426647)
(-9.03381e-16 -0.631631 0.28511)
(-9.01677e-16 -0.859382 0.139628)
(-9.0096e-16 -0.20253 -0.135813)
(-9.00735e-16 -0.437277 -0.345884)
(-9.00859e-16 -0.319971 -0.448757)
(-9.00781e-16 0.183634 -0.436877)
(-9.00876e-16 0.697319 -0.186811)
(-9.01597e-16 1.13505 0.0451511)
(-9.01592e-16 0.845491 -0.257268)
(-9.01468e-16 0.994442 -0.106594)
(-9.0099e-16 1.04847 -0.294369)
(-9.00883e-16 0.093704 0.115811)
(-9.06487e-16 -4.16081 -0.100683)
(-8.60691e-16 -3.04286 -0.188098)
(-7.92297e-16 0.114203 0.41057)
(-7.7605e-16 -0.725923 0.385925)
(-7.71519e-16 0.146015 0.155131)
(-7.76591e-16 0.552241 0.0679872)
(-7.8011e-16 1.05512 0.762824)
(-8.11218e-16 0.904538 1.34192)
(-8.49872e-16 0.476385 1.2249)
(-8.6146e-16 -0.258067 0.69134)
(-8.50466e-16 -0.486645 0.582869)
(-8.46227e-16 -0.958425 0.43056)
(-8.47141e-16 -1.44971 0.232975)
(-8.46955e-16 0.11796 -0.342901)
(-8.45893e-16 0.417886 0.0846963)
(-8.47208e-16 -0.486301 -0.0473357)
(-8.46963e-16 0.343976 -0.439754)
(-8.45211e-16 1.36995 -0.357017)
(-8.46671e-16 -0.439626 -0.199969)
(-8.4679e-16 -0.497405 -0.682699)
(-8.46811e-16 -0.397249 -0.729625)
(-8.46771e-16 -0.0537588 -0.771336)
(-8.468e-16 0.00940903 -1.01996)
(-8.46839e-16 0.0750985 -1.20819)
(-8.46844e-16 0.147174 -1.30426)
(-8.46804e-16 0.258456 -1.37194)
(-8.46736e-16 0.294218 -1.40046)
(-8.46654e-16 0.24387 -1.38993)
(-8.4657e-16 0.162412 -1.35314)
(-8.46497e-16 0.104489 -1.30138)
(-8.46445e-16 0.0870509 -1.26164)
(-8.46439e-16 0.107929 -1.17869)
(-8.46487e-16 0.219437 -1.1065)
(-8.46009e-16 0.35519 -0.881808)
(-8.46889e-16 0.790687 -0.741173)
(-8.54363e-16 1.35919 -0.0874161)
(-5.08246e-16 -7.50551 -0.320552)
(-3.32716e-16 -8.25214 -0.363161)
(-2.26178e-16 -3.72404 -0.262597)
(-1.70419e-16 0.581291 0.251775)
(-1.41546e-16 1.45525 0.0488987)
(-1.43819e-16 0.693159 0.481881)
(-1.44544e-16 -0.515028 0.319094)
(-1.46568e-16 -1.22467 0.419276)
(-1.22525e-16 -1.42394 0.323747)
(-8.33753e-18 0.644806 0.0487551)
(-1.9005e-17 0.406385 0.346219)
(-1.85638e-17 -0.152552 0.658096)
(-1.86954e-17 -0.843516 0.781481)
(-1.93103e-17 -1.18557 0.827384)
(-1.6441e-17 -1.33095 0.792365)
(-1.74572e-18 -1.24253 0.63114)
(2.06687e-17 -1.26185 0.524833)
(3.45945e-17 -1.49093 0.588176)
(8.84881e-17 -1.52492 0.720952)
(2.67121e-16 -1.2114 0.820533)
(5.20904e-16 -0.152279 0.507126)
(5.11526e-16 1.25787 0.327856)
(6.1583e-16 2.81801 0.342003)
(5.5012e-16 3.97699 0.233584)
(-9.09871e-16 -0.295191 0.350409)
(-9.11332e-16 -0.147027 0.263698)
(-9.11509e-16 -0.18954 0.372001)
(-9.112e-16 -0.383562 0.495819)
(-9.10532e-16 -0.572178 0.581373)
(-9.08898e-16 -0.642204 0.556508)
(-9.0609e-16 -0.571199 0.416187)
(-9.03212e-16 -0.60641 0.282283)
(-9.01644e-16 -0.81971 0.143853)
(-9.00969e-16 -0.145615 -0.125584)
(-9.00736e-16 -0.39974 -0.338268)
(-9.0085e-16 -0.303505 -0.445522)
(-9.0078e-16 0.141617 -0.452582)
(-9.00876e-16 0.674066 -0.211792)
(-9.01588e-16 1.14569 0.0208057)
(-9.01588e-16 0.849323 -0.259249)
(-9.01467e-16 1.00317 -0.123154)
(-9.00991e-16 1.04723 -0.311354)
(-9.00926e-16 0.0606828 0.0840287)
(-9.06518e-16 -4.14509 -0.082445)
(-8.61001e-16 -3.05026 -0.17174)
(-7.91156e-16 -0.0336213 0.366707)
(-7.75345e-16 -0.665447 0.371185)
(-7.71728e-16 0.198179 0.162679)
(-7.76784e-16 0.560737 0.139318)
(-7.76435e-16 0.933363 0.82075)
(-8.04742e-16 0.875808 1.3632)
(-8.45497e-16 0.526855 1.30536)
(-8.61013e-16 -0.186725 0.747875)
(-8.49604e-16 -0.453885 0.626482)
(-8.46071e-16 -0.901677 0.419041)
(-8.4716e-16 -1.36658 0.198081)
(-8.46952e-16 0.0693876 -0.379167)
(-8.45611e-16 0.445253 0.0129043)
(-8.47215e-16 -0.42517 -0.0569301)
(-8.46908e-16 0.36233 -0.479905)
(-8.44965e-16 1.31763 -0.402893)
(-8.46635e-16 -0.327205 -0.229175)
(-8.46769e-16 -0.450324 -0.696866)
(-8.46779e-16 -0.401562 -0.879741)
(-8.46743e-16 -0.0019475 -0.88051)
(-8.46785e-16 0.0600371 -1.11231)
(-8.4683e-16 0.10074 -1.2757)