/*--------------------------------*- C++ -*----------------------------------*\
| =========                 |                                                 |
| \\      /  F ield         | OpenFOAM: The Open Source CFD Toolbox           |
|  \\    /   O peration     | Version:  4.1                                   |
|   \\  /    A nd           | Web:      www.OpenFOAM.org                      |
|    \\/     M anipulation  |                                                 |
\*---------------------------------------------------------------------------*/
FoamFile
{
    version     2.0;
    format      ascii;
    class       surfaceScalarField;
    location    "22";
    object      phi;
}
// * * * * * * * * * * * * * * * * * * * * * * * * * * * * * * * * * * * * * //

dimensions      [0 3 -1 0 0 0 0];

internalField   nonuniform List<scalar> 
420
(
-949.879
2249.78
-1573.95
1924.28
-2054
1779.95
-2424.23
1670.13
-2699.86
1575.82
-2888.38
1488.42
-2993.05
1404.58
-3013.86
1321
-2949.61
1235.66
-2797.23
1147.52
-2551.17
1054.13
-2193
941.735
-1687.17
794.064
-1012.67
625.702
287.228
373.336
1876.44
442.749
1854.86
437.301
1785.39
406.698
1700.74
380.58
1601.94
359.901
1509.1
345.292
1419.19
337.535
1328.76
333.483
1239.71
326.951
1154.05
309.607
1071.48
267.465
983.877
191.429
870.102
111.451
705.682
398.679
33.576
1842.87
-97.3886
1985.83
-253.613
1941.62
-371.12
1818.24
-473.183
1704.01
-567.532
1603.45
-651.749
1503.4
-725.797
1402.8
-788.075
1301.99
-837.308
1203.28
-868.227
1102.4
-856.089
971.738
-740.335
754.349
-434.284
399.631
-35.6051
28.775
1814.09
-100.653
2115.26
-225.56
2066.52
-304.496
1897.18
-368.157
1767.67
-416.954
1652.24
-446.23
1532.68
-457.018
1413.59
-451.856
1296.83
-430.156
1181.58
-387.227
1059.47
-311.872
896.383
-192.865
635.34
-48.4088
255.175
-84.0139
169.623
1644.47
146.157
2138.72
123.732
2088.95
122.87
1898.04
126.941
1763.6
135.804
1643.38
149.101
1519.38
166.589
1396.1
186.941
1276.47
208.129
1160.4
229.13
1038.47
243.822
881.691
233.005
646.157
155.23
332.948
71.216
223.073
1421.4
244.177
2117.62
234.74
2098.39
236.019
1896.76
240.367
1759.25
244.302
1639.45
246.544
1517.14
245.248
1397.4
241.159
1280.56
233.986
1167.57
221.38
1051.07
199.137
903.934
156.14
689.155
78.3019
410.787
149.518
203.311
1218.08
238.361
2082.57
213.609
2123.14
191.399
1918.97
177.193
1773.45
163.763
1652.88
150.031
1530.87
135.89
1411.54
121.066
1295.39
106.915
1181.72
92.8198
1065.17
75.7692
920.985
52.0239
712.902
19.0226
443.79
168.541
171.843
1046.24
221.97
2032.44
199.413
2145.7
170.396
1947.99
152.045
1791.8
137.664
1667.26
122.775
1545.76
108.577
1425.74
95.5839
1308.38
83.1062
1194.2
71.487
1076.79
58.6384
933.835
40.3285
731.213
15.7531
468.367
184.294
146.089
900.154
210.051
1968.48
196.869
2158.88
170.049
1974.81
152.401
1809.45
139.531
1680.13
127.067
1558.23
113.862
1438.95
101.317
1320.93
89.4183
1206.1
76.9843
1089.22
63.0907
947.731
44.3095
749.996
19.1693
493.508
203.463
116.757
783.399
184.842
1900.4
179.618
2164.1
154.309
2000.12
137.223
1826.54
124.005
1693.35
111.377
1570.85
98.9692
1451.35
86.115
1333.78
73.8742
1218.34
62.1088
1100.99
49.0273
960.812
32.853
766.167
13.1801
513.178
216.643
83.1528
700.245
143.111
1840.44
144.664
2162.55
122.748
2022.04
106.146
1843.14
94.4636
1705.03
82.5873
1582.73
71.1822
1462.76
60.4032
1344.56
49.4771
1229.27
39.4445
1111.02
29.7568
970.496
18.0885
777.83
5.24075
526.021
221.884
51.234
649.006
97.9025
1793.76
102.689
2157.76
87.3597
2037.36
73.1316
1857.37
63.1254
1715.03
54.2308
1591.62
44.8563
1472.13
36.1521
1353.26
28.18
1237.23
20.4363
1118.76
13.7007
977.229
6.76566
784.767
-0.386573
533.175
221.497
25.1319
623.868
57.7157
1761.17
63.51
2151.97
53.4566
2047.41
43.8739
1866.95
36.1521
1722.75
29.5231
1598.25
23.4739
1478.18
17.0339
1359.7
11.2936
1242.97
6.60445
1123.45
2.48258
981.351
-1.05403
788.31
-3.66767
535.795
217.83
1.43153
622.438
24.078
1738.51
33.3827
2142.66
27.7406
2053.05
20.3848
1874.31
15.0748
1728.06
9.53946
1603.79
4.57616
1483.14
0.0269696
1364.26
-4.84444
1247.85
-8.35874
1126.97
-9.66659
982.671
-9.7395
788.391
-7.15325
533.216
210.676
-11.7203
-3.10148
1.49312
-0.354615
-5.04582
-8.78942
-11.7407
-15.178
-18.0484
-20.1836
-21.7555
-21.1029
-18.1311
-12.4036
)
;

boundaryField
{
    inletFace
    {
        type            calculated;
        value           nonuniform List<scalar> 
450
(
-1.13894e-13
5.97526e-13
-1.06029e-13
-1.7852e-13
1.17437e-13
-1.93901e-13
-7.16805e-14
7.99832e-14
-9.3431e-14
-5.43311e-14
2.5418e-14
-5.55847e-14
1.89828e-15
1.58361e-14
-2.02602e-15
-2.00481e-12
-2.13923e-12
8.99241e-14
-2.78787e-13
-2.21981e-13
1.22772e-14
-2.94362e-13
-1.3145e-13
2.71509e-14
-9.22434e-14
-4.65282e-14
7.57426e-15
-8.07751e-14
-9.93481e-15
-5.07108e-16
-2.10861e-12
-2.23118e-12
-4.11352e-14
-2.3878e-13
-1.81995e-13
-1.13358e-13
-2.80854e-13
-8.69213e-14
-7.11109e-14
-1.22665e-13
-3.08292e-14
-4.77759e-14
-5.52045e-14
6.26335e-15
4.1183e-15
-2.59977e-12
-2.3204e-12
-1.21513e-13
-5.59158e-13
-1.65702e-13
-2.21776e-13
-4.128e-13
-1.11215e-13
-1.3242e-13
-2.38375e-13
-7.85248e-14
-7.05061e-14
-1.05351e-13
2.89191e-14
7.74516e-14
-2.48344e-12
-2.42666e-12
-2.78563e-13
-5.40867e-13
-1.75962e-13
-2.45623e-13
-4.29667e-13
-1.39788e-13
-1.66989e-13
-2.28405e-13
-7.3527e-14
-3.99161e-14
-9.16484e-14
-1.8088e-14
5.1517e-14
-2.18861e-12
-2.41138e-12
-4.96804e-13
-4.19315e-13
-1.62207e-13
-2.06786e-13
-4.03082e-13
-1.20167e-13
-1.82444e-13
-2.23923e-13
-7.47563e-14
-2.79919e-14
-6.59216e-14
2.96545e-15
-7.36149e-16
-1.96441e-12
-2.50796e-12
-7.64155e-13
-4.21211e-13
-1.98156e-13
-2.10468e-13
-3.52965e-13
-1.73501e-13
-1.95724e-13
-2.59889e-13
-1.24829e-13
-1.20523e-13
-5.27318e-14
-6.64199e-14
-1.88011e-13
-1.72825e-12
-2.57263e-12
-1.01188e-12
-4.34054e-13
-2.19778e-13
-2.28527e-13
-3.30946e-13
-2.32142e-13
-2.29922e-13
-2.66823e-13
-1.68175e-13
-2.1147e-13
-6.83029e-14
-2.03446e-14
-2.13595e-13
-1.47807e-12
-2.57383e-12
-1.21192e-12
-4.4026e-13
-2.26663e-13
-2.15235e-13
-3.53504e-13
-2.56237e-13
-2.23502e-13
-2.28578e-13
-1.77521e-13
-1.75791e-13
-6.60661e-14
-1.5756e-14
-6.04565e-14
-1.27662e-12
-2.53623e-12
-1.37027e-12
-4.96661e-13
-2.25693e-13
-1.81505e-13
-3.37879e-13
-2.67418e-13
-1.89595e-13
-2.12766e-13
-1.75537e-13
-1.08751e-13
-5.92774e-14
-2.24612e-14
8.4739e-14
-1.05499e-12
-2.47817e-12
-1.49806e-12
-5.60052e-13
-2.27285e-13
-1.69031e-13
-2.85871e-13
-2.7649e-13
-1.89885e-13
-2.09297e-13
-1.74218e-13
-7.49538e-14
-1.29613e-15
-4.10565e-17
1.5748e-13
-9.28597e-13
-2.41647e-12
-1.56175e-12
-6.08773e-13
-2.59032e-13
-1.58212e-13
-2.76192e-13
-2.89613e-13
-1.87278e-13
-2.10871e-13
-1.83382e-13
-4.97867e-14
4.22871e-15
1.24784e-13
1.7768e-13
-8.74503e-13
-2.35358e-12
-1.60744e-12
-6.4908e-13
-2.90203e-13
-1.536e-13
-2.69307e-13
-2.94137e-13
-1.77037e-13
-2.0124e-13
-1.82699e-13
-5.3341e-14
-2.50251e-15
1.32243e-13
1.44598e-13
-8.36093e-13
-2.31029e-12
-1.63851e-12
-6.75535e-13
-2.97054e-13
-1.52897e-13
-2.58713e-13
-3.08938e-13
-1.6823e-13
-2.00339e-13
-1.89557e-13
-3.97268e-14
-9.04052e-16
1.11009e-13
1.21366e-13
-8.35803e-13
-2.23694e-12
-1.6355e-12
-7.02387e-13
-3.03298e-13
-1.60928e-13
-2.57801e-13
-2.99726e-13
-1.77734e-13
-1.99994e-13
-1.73087e-13
-3.65528e-14
2.49796e-15
1.03449e-13
7.21546e-14
1.13894e-13
-5.97526e-13
1.06029e-13
1.7852e-13
-1.17437e-13
1.93901e-13
7.16805e-14
-7.99832e-14
9.3431e-14
5.43311e-14
-2.5418e-14
5.55847e-14
-1.89828e-15
-1.58361e-14
2.02602e-15
2.00481e-12
2.13923e-12
-8.99241e-14
2.78787e-13
2.21981e-13
-1.22772e-14
2.94362e-13
1.3145e-13
-2.71509e-14
9.22434e-14
4.65282e-14
-7.57426e-15
8.07751e-14
9.93481e-15
5.07108e-16
2.10861e-12
2.23118e-12
4.11352e-14
2.3878e-13
1.81995e-13
1.13358e-13
2.80854e-13
8.69213e-14
7.11109e-14
1.22665e-13
3.08292e-14
4.77759e-14
5.52045e-14
-6.26335e-15
-4.1183e-15
2.59977e-12
2.3204e-12
1.21513e-13
5.59158e-13
1.65702e-13
2.21776e-13
4.128e-13
1.11215e-13
1.3242e-13
2.38375e-13
7.85248e-14
7.05061e-14
1.05351e-13
-2.89191e-14
-7.74516e-14
2.48344e-12
2.42666e-12
2.78563e-13
5.40867e-13
1.75962e-13
2.45623e-13
4.29667e-13
1.39788e-13
1.66989e-13
2.28405e-13
7.3527e-14
3.99161e-14
9.16484e-14
1.8088e-14
-5.1517e-14
2.18861e-12
2.41138e-12
4.96804e-13
4.19315e-13
1.62207e-13
2.06786e-13
4.03082e-13
1.20167e-13
1.82444e-13
2.23923e-13
7.47563e-14
2.79919e-14
6.59216e-14
-2.96545e-15
7.36149e-16
1.96441e-12
2.50796e-12
7.64155e-13
4.21211e-13
1.98156e-13
2.10468e-13
3.52965e-13
1.73501e-13
1.95724e-13
2.59889e-13
1.24829e-13
1.20523e-13
5.27318e-14
6.64199e-14
1.88011e-13
1.72825e-12
2.57263e-12
1.01188e-12
4.34054e-13
2.19778e-13
2.28527e-13
3.30946e-13
2.32142e-13
2.29922e-13
2.66823e-13
1.68175e-13
2.1147e-13
6.83029e-14
2.03446e-14
2.13595e-13
1.47807e-12
2.57383e-12
1.21192e-12
4.4026e-13
2.26663e-13
2.15235e-13
3.53504e-13
2.56237e-13
2.23502e-13
2.28578e-13
1.77521e-13
1.75791e-13
6.60661e-14
1.5756e-14
6.04565e-14
1.27662e-12
2.53623e-12
1.37027e-12
4.96661e-13
2.25693e-13
1.81505e-13
3.37879e-13
2.67418e-13
1.89595e-13
2.12766e-13
1.75537e-13
1.08751e-13
5.92774e-14
2.24612e-14
-8.4739e-14
1.05499e-12
2.47817e-12
1.49806e-12
5.60052e-13
2.27285e-13
1.69031e-13
2.85871e-13
2.7649e-13
1.89885e-13
2.09297e-13
1.74218e-13
7.49538e-14
1.29613e-15
4.10565e-17
-1.5748e-13
9.28597e-13
2.41647e-12
1.56175e-12
6.08773e-13
2.59032e-13
1.58212e-13
2.76192e-13
2.89613e-13
1.87278e-13
2.10871e-13
1.83382e-13
4.97867e-14
-4.22871e-15
-1.24784e-13
-1.7768e-13
8.74503e-13
2.35358e-12
1.60744e-12
6.4908e-13
2.90203e-13
1.536e-13
2.69307e-13
2.94137e-13
1.77037e-13
2.0124e-13
1.82699e-13
5.3341e-14
2.50251e-15
-1.32243e-13
-1.44598e-13
8.36093e-13
2.31029e-12
1.63851e-12
6.75535e-13
2.97054e-13
1.52897e-13
2.58713e-13
3.08938e-13
1.6823e-13
2.00339e-13
1.89557e-13
3.97268e-14
9.04052e-16
-1.11009e-13
-1.21366e-13
8.35803e-13
2.23694e-12
1.6355e-12
7.02387e-13
3.03298e-13
1.60928e-13
2.57801e-13
2.99726e-13
1.77734e-13
1.99994e-13
1.73087e-13
3.65528e-14
-2.49796e-15
-1.03449e-13
-7.21546e-14
)
;
    }
    inlet
    {
        type            calculated;
        value           nonuniform List<scalar> 
15
(
-1299.9
-1300.2
-1299.9
-1299.9
-1300.2
-1299.9
-1299.9
-1300.2
-1299.9
-1299.9
-1300.2
-1299.9
-1299.9
-1300.2
-1299.9
)
;
    }
    inletWalls
    {
        type            calculated;
        value           uniform 0;
    }
    outletInlet
    {
        type            calculated;
        value           nonuniform List<scalar> 
15
(
198.273
527.483
785.413
982.016
1128.54
1249.99
1367.13
1486.58
1606.74
1731.8
1879
2054.9
2138.07
1729.9
634.161
)
;
    }
}


// ************************************************************************* //
