/*--------------------------------*- C++ -*----------------------------------*\
| =========                 |                                                 |
| \\      /  F ield         | OpenFOAM: The Open Source CFD Toolbox           |
|  \\    /   O peration     | Version:  4.1                                   |
|   \\  /    A nd           | Web:      www.OpenFOAM.org                      |
|    \\/     M anipulation  |                                                 |
\*---------------------------------------------------------------------------*/
FoamFile
{
    version     2.0;
    format      ascii;
    class       volVectorField;
    location    "22";
    object      U;
}
// * * * * * * * * * * * * * * * * * * * * * * * * * * * * * * * * * * * * * //

dimensions      [0 1 -1 0 0 0 0];

internalField   nonuniform List<vector> 
225
(
(1.18197e-14 0.852191 15.7946)
(9.14693e-15 -4.89458 12.1215)
(-3.07586e-15 -4.19551 12.1321)
(2.95573e-15 -3.60119 11.9966)
(7.9053e-16 -3.00468 11.8778)
(-1.90538e-16 -2.55319 11.6992)
(1.9925e-15 -2.20881 11.4769)
(1.90809e-16 -1.96603 11.2116)
(-1.08802e-16 -1.79855 10.916)
(1.15931e-15 -1.71238 10.5882)
(2.40065e-16 -1.83746 10.1561)
(-7.29241e-17 -2.28567 9.53762)
(-3.38668e-17 -2.513 8.96378)
(-1.0963e-16 -1.06552 8.91355)
(1.40258e-17 1.76575 7.47092)
(9.30927e-15 -5.35016 22.493)
(1.48112e-14 -14.6049 21.394)
(-6.22526e-16 -13.2708 20.3411)
(3.98515e-15 -11.7697 19.5066)
(1.53691e-15 -11.1561 18.5043)
(-8.49928e-17 -10.6594 17.5174)
(2.14857e-15 -10.0901 16.5714)
(9.10104e-16 -9.525 15.6236)
(-1.8796e-16 -8.96544 14.6638)
(6.05875e-16 -8.36731 13.6946)
(3.22142e-16 -7.75709 12.7179)
(-5.2435e-17 -7.30335 11.7194)
(5.58492e-16 -7.01705 10.6244)
(6.87846e-17 -5.73093 9.16113)
(3.51061e-18 -2.30501 4.58318)
(1.36553e-14 -7.71565 23.9801)
(1.14898e-14 -16.7731 24.6729)
(2.84804e-16 -13.7365 23.9372)
(-6.25985e-16 -12.3062 22.6249)
(1.25992e-15 -11.6447 21.2414)
(7.84844e-16 -10.814 20.0013)
(3.08429e-15 -9.94025 18.7738)
(6.0174e-16 -9.1001 17.5247)
(4.92345e-16 -8.28337 16.2654)
(-3.34539e-16 -7.47523 15.0263)
(-1.6075e-15 -6.66761 13.8176)
(3.30782e-16 -5.84164 12.4301)
(8.65493e-16 -4.81388 10.2752)
(-4.336e-17 -3.12624 6.6844)
(-2.85135e-17 -0.832137 1.68991)
(1.79908e-14 -8.50258 22.0462)
(1.60639e-14 -16.6211 24.332)
(8.41219e-16 -12.93 23.7971)
(3.87143e-15 -12.1536 21.9985)
(1.07593e-15 -11.4201 20.5028)
(1.55965e-15 -10.4936 19.1722)
(2.85809e-15 -9.63387 17.8167)
(6.90935e-16 -8.82358 16.459)
(9.44576e-16 -8.05362 15.123)
(1.63553e-15 -7.32377 13.8164)
(5.35486e-16 -6.55246 12.4394)
(3.8517e-16 -5.49086 10.583)
(7.04591e-16 -3.78523 7.50863)
(-7.5798e-18 -1.49362 2.76597)
(-7.28238e-16 0.153284 -1.773)
(1.69809e-14 -8.47615 19.748)
(1.81836e-14 -16.3601 24.312)
(1.75013e-15 -13.099 23.6602)
(3.54973e-15 -12.628 21.5365)
(9.07219e-16 -11.8565 20.0248)
(1.48061e-15 -10.9574 18.6637)
(2.85762e-15 -10.1698 17.2587)
(1.83817e-15 -9.40276 15.8711)
(1.15601e-15 -8.65257 14.5236)
(1.51069e-15 -7.9305 13.2135)
(-3.99933e-16 -7.16586 11.8292)
(1.91672e-16 -6.11612 9.99622)
(5.28126e-16 -4.42399 7.15549)
(1.55794e-15 -2.30526 3.28785)
(-7.22819e-16 -0.787187 0.317717)
(1.53756e-14 -8.02194 17.5537)
(1.67355e-14 -16.0195 24.5277)
(3.18564e-15 -13.6434 24.0461)
(2.4873e-15 -12.9943 21.7651)
(1.17206e-15 -12.1264 20.2157)
(1.53576e-15 -11.2247 18.847)
(3.34451e-15 -10.439 17.4341)
(8.91188e-16 -9.64887 16.0434)
(1.3907e-15 -8.86034 14.6933)
(9.29957e-16 -8.09323 13.3817)
(5.93007e-16 -7.29728 12.0171)
(-3.23728e-16 -6.28455 10.2817)
(1.44821e-15 -4.73296 7.72083)
(3.37083e-16 -2.75609 4.37239)
(3.7641e-16 -0.949374 1.29733)
(1.37337e-14 -7.33743 15.2535)
(1.73836e-14 -15.491 24.355)
(5.37472e-15 -14.0225 24.4218)
(2.91633e-15 -13.1278 22.0675)
(1.42212e-15 -12.1447 20.4401)
(1.56476e-15 -11.2358 19.0547)
(2.44382e-15 -10.436 17.6437)
(6.99126e-16 -9.61982 16.2576)
(1.55966e-15 -8.81014 14.9066)
(1.79939e-15 -8.02721 13.5918)
(1.02906e-15 -7.22393 12.2368)
(1.21336e-15 -6.24023 10.5488)
(3.65098e-16 -4.78747 8.10742)
(8.4994e-17 -2.91407 4.94707)
(3.21624e-15 -1.01086 1.79738)
(1.17793e-14 -6.55627 13.033)
(1.78115e-14 -14.847 23.8164)
(6.96279e-15 -14.2638 24.669)
(2.95834e-15 -13.2372 22.3215)
(1.52163e-15 -12.1674 20.5831)
(1.47363e-15 -11.2657 19.1666)
(2.34944e-15 -10.4651 17.7586)
(1.60723e-15 -9.64312 16.3765)
(1.45407e-15 -8.83492 15.0245)
(2.59922e-15 -8.05528 13.7073)
(1.16435e-15 -7.25499 12.3576)
(1.27368e-15 -6.28688 10.6995)
(1.66998e-15 -4.89098 8.33091)
(1.40855e-16 -3.0852 5.26761)
(9.82078e-16 -1.1222 2.04392)
(1.02325e-14 -5.77845 11.1239)
(1.78183e-14 -14.1745 23.0906)
(8.26507e-15 -14.4412 24.8462)
(3.04787e-15 -13.3963 22.6148)
(1.56916e-15 -12.2528 20.7553)
(1.3289e-15 -11.3493 19.2955)
(2.44726e-15 -10.5477 17.8904)
(1.7739e-15 -9.72542 16.5109)
(2.02323e-15 -8.91942 15.1561)
(1.58242e-15 -8.14022 13.8351)
(1.22896e-15 -7.33994 12.4864)
(1.87182e-15 -6.38014 10.8512)
(4.57368e-16 -5.0235 8.54668)
(1.09077e-16 -3.26576 5.55828)
(-5.18214e-16 -1.23753 2.24764)
(8.53922e-15 -5.08507 9.59944)
(1.7558e-14 -13.5192 22.3001)
(9.44403e-15 -14.5349 24.9522)
(2.88999e-15 -13.5531 22.9353)
(1.56244e-15 -12.3447 20.9698)
(1.2027e-15 -11.425 19.4566)
(2.74507e-15 -10.6174 18.0506)
(1.8513e-15 -9.79446 16.6721)
(1.24447e-15 -8.98826 15.3136)
(1.32434e-15 -8.20621 13.9873)
(1.21522e-15 -7.4047 12.6355)
(6.59257e-16 -6.45144 11.0132)
(1.22231e-15 -5.12519 8.75503)
(1.55496e-16 -3.40649 5.81946)
(-2.39373e-16 -1.31903 2.43086)
(7.15345e-15 -4.53878 8.4624)
(1.71823e-14 -12.9256 21.5505)
(1.04348e-14 -14.5348 24.9757)
(4.08372e-15 -13.6653 23.2208)
(1.62394e-15 -12.4128 21.1811)
(4.63611e-16 -11.4735 19.612)
(1.97899e-15 -10.659 18.2003)
(1.97755e-15 -9.83695 16.8209)
(1.10824e-15 -9.03207 15.4585)
(1.44889e-15 -8.24858 14.1269)
(1.28913e-15 -7.44648 12.7691)
(-7.08862e-16 -6.49772 11.1497)
(8.97266e-18 -5.19255 8.91838)
(-6.65835e-16 -3.50178 6.0104)
(-1.64875e-15 -1.3637 2.54237)
(6.42856e-15 -4.17056 7.70296)
(1.67549e-14 -12.4379 20.928)
(1.07694e-14 -14.4732 24.9365)
(4.21446e-15 -13.7314 23.4376)
(1.59e-15 -12.4591 21.3592)
(1.01295e-15 -11.5038 19.7403)
(1.91205e-15 -10.6831 18.3205)
(2.38862e-15 -9.8635 16.939)
(1.22717e-15 -9.06113 15.5728)
(1.45983e-15 -8.27761 14.2363)
(1.26953e-15 -7.47491 12.8709)
(-2.26875e-16 -6.52682 11.2465)
(2.92162e-17 -5.23303 9.02642)
(-9.46873e-16 -3.55794 6.12603)
(-1.89354e-15 -1.37727 2.57257)
(5.95553e-15 -3.97353 7.2799)
(1.62666e-14 -12.0684 20.4614)
(1.11504e-14 -14.3843 24.8626)
(4.44717e-15 -13.7598 23.5826)
(2.00904e-15 -12.4874 21.4968)
(1.06335e-15 -11.5228 19.8405)
(1.8347e-15 -10.6964 18.4119)
(2.13312e-15 -9.87979 17.0277)
(1.19057e-15 -9.08037 15.6582)
(1.39332e-15 -8.29706 14.3168)
(1.30698e-15 -7.49301 12.942)
(3.21325e-16 -6.54199 11.3059)
(1.73266e-17 -5.25082 9.08413)
(-8.32983e-16 -3.57874 6.1753)
(-1.14903e-15 -1.36521 2.53891)
(5.65478e-15 -3.90376 7.11034)
(1.59814e-14 -11.8313 20.1817)
(1.13202e-14 -14.2998 24.79)
(4.66468e-15 -13.7668 23.6685)
(2.04371e-15 -12.5019 21.5898)
(1.05845e-15 -11.532 19.9095)
(1.80606e-15 -10.7003 18.4746)
(2.12264e-15 -9.8854 17.0883)
(1.1646e-15 -9.08779 15.7171)
(1.4061e-15 -8.30391 14.3728)
(1.29134e-15 -7.49767 12.9904)
(2.75015e-16 -6.543 11.3432)
(3.52881e-17 -5.25329 9.11707)
(-8.09425e-16 -3.58367 6.20159)
(-8.40178e-16 -1.35026 2.50666)
(5.77137e-15 -4.03931 7.28646)
(1.5479e-14 -11.6269 19.9519)
(1.13294e-14 -14.1917 24.6679)
(4.86254e-15 -13.7464 23.7082)
(2.09318e-15 -12.5066 21.6737)
(1.12124e-15 -11.5393 19.9773)
(1.78473e-15 -10.6996 18.535)
(2.06688e-15 -9.88705 17.1438)
(1.23931e-15 -9.09061 15.7695)
(1.38454e-15 -8.30503 14.4183)
(1.19307e-15 -7.48998 13.0147)
(2.58966e-16 -6.51537 11.3281)
(-1.72931e-17 -5.20604 9.06124)
(-7.26342e-16 -3.50173 6.08284)
(-4.8045e-16 -1.25255 2.30733)
)
;

boundaryField
{
    inletFace
    {
        type            zeroGradient;
    }
    inlet
    {
        type            fixedValue;
        value           uniform (0 8.7 15);
    }
    inletWalls
    {
        type            noSlip;
    }
    outletInlet
    {
        type            zeroGradient;
    }
}


// ************************************************************************* //
