/*--------------------------------*- C++ -*----------------------------------*\
| =========                 |                                                 |
| \\      /  F ield         | OpenFOAM: The Open Source CFD Toolbox           |
|  \\    /   O peration     | Version:  4.1                                   |
|   \\  /    A nd           | Web:      www.OpenFOAM.org                      |
|    \\/     M anipulation  |                                                 |
\*---------------------------------------------------------------------------*/
FoamFile
{
    version     2.0;
    format      ascii;
    class       surfaceScalarField;
    location    "2";
    object      phi;
}
// * * * * * * * * * * * * * * * * * * * * * * * * * * * * * * * * * * * * * //

dimensions      [0 3 -1 0 0 0 0];

internalField   nonuniform List<scalar> 
420
(
-948.786
2249.27
-1570.99
1923.04
-2048.84
1778.25
-2417.88
1669.49
-2693.2
1575.94
-2881.48
1488.64
-2985.96
1404.72
-3006.62
1321.19
-2942.46
1235.98
-2790.17
1147.89
-2544.33
1054.47
-2186.14
942.103
-1680.64
794.731
-1006.27
626.148
293.634
367.909
1883.54
441.715
1851.93
438.051
1784.3
407.604
1702.63
380.975
1604.68
360.963
1511.12
346.568
1420.95
339.104
1330.6
334.699
1241.79
327.175
1156.83
307.038
1075.29
263.06
987.356
187.395
871.579
109.863
704.738
403.48
25.3739
1855.46
-105.612
1979.54
-270.77
1946.52
-397.436
1826.24
-505.417
1710.17
-605.328
1608.27
-694.894
1508.4
-774.901
1407.84
-841.916
1306.79
-895.693
1208.5
-931.356
1107.74
-914.428
971.349
-781.296
737.129
-443.123
364.977
-39.7759
21.9982
1828.2
-119.57
2114.93
-255.869
2077.32
-342.062
1906.19
-409.623
1772.21
-463.372
1655.88
-497.213
1536.66
-511.605
1416.92
-509.226
1298.91
-488.819
1182.13
-439.657
1056.24
-361.702
880.919
-234.088
592.391
-77.5367
190.995
-117.425
161.718
1664.06
129.817
2144.09
106.184
2098.18
107.615
1901.46
114.01
1762.55
124.491
1642.05
140.163
1517.62
161.971
1392.63
186.744
1271.34
212.254
1153.2
242.589
1026.35
254.312
858.028
231.76
601.419
130.408
279.359
13.1025
215.651
1448.84
236.373
2123.83
235.189
2099.53
246.282
1891.09
257.914
1751.7
267.174
1633.77
274.509
1511.37
277.439
1390.35
275.907
1273.61
270.572
1161.1
253.239
1042.27
235.618
887.884
190.337
660.511
101.321
381.5
114.382
212.66
1237.06
255.283
2082.19
239.548
2116.31
223.619
1908.4
211.725
1764.53
199.615
1647.73
186.054
1525.68
173.383
1405.48
157.298
1290.57
140.46
1178.84
123.731
1061.23
95.8205
910.434
60.1567
690.993
19.0804
417.997
133.538
192.134
1045.39
250.765
2023.92
229.414
2137.95
196.948
1941.55
173.557
1788.76
154.407
1667.62
136.42
1544.96
118.248
1423.76
102.243
1307.62
87.4623
1195.18
71.6664
1076.5
64.0117
926.612
51.4891
712.775
32.443
445.393
165.94
162.544
882.314
232.075
1954.05
215.535
2154.13
181.318
1975.36
156.728
1812.67
139.767
1684.09
125.267
1558.89
111.157
1437.51
98.9224
1319.62
87.9272
1205.03
79.3017
1085.7
64.5041
936.367
44.7763
727.521
18.7713
466.984
184.761
122.025
760.606
192.522
1884.06
184.423
2162.25
154.573
2005.52
134.454
1832.9
121.211
1697.46
110.021
1570.13
99.0195
1448.41
88.1143
1330.61
79.3155
1214.76
69.4418
1094.96
62.9587
948.277
50.7334
745.705
29.287
493.843
214.069
77.8076
684.612
136.371
1827.54
137.44
2162.78
115.877
2029.1
100.98
1849.69
93.1632
1707.28
85.6135
1579.79
77.5487
1458.3
70.1693
1340.06
62.5393
1224.15
56.0943
1103.81
47.1965
958.231
34.4973
760.912
15.5089
515.199
229.623
38.3485
648.433
78.5533
1789.46
83.5193
2159.4
71.9111
2042.78
62.2397
1861.39
57.7308
1714.13
53.4366
1586.29
47.6494
1466.51
41.9916
1348.04
37.3253
1231.52
31.0653
1111.45
28.0478
966.13
22.8977
771.591
13.3944
529.729
243.061
6.96694
643.206
29.1341
1768.72
34.5085
2155.47
29.0266
2049.47
24.5615
1867.39
20.7752
1718.94
17.2309
1591.46
12.0524
1472.31
6.78555
1354.69
1.91874
1237.8
-3.30573
1117.23
-4.48955
971.96
-5.34698
777.735
-6.96019
536.051
236.073
-19.9294
663.754
-10.2881
1759.16
-1.31218
2147.05
-1.48951
2049.7
-2.88556
1869.23
-3.96338
1720.23
-7.18247
1594.93
-10.4565
1476.2
-13.6927
1358.32
-17.8302
1241.94
-20.2797
1120.29
-23.8106
972.681
-25.5317
776.094
-19.9711
527.337
216.026
-24.5211
-23.8198
-19.6397
-17.1632
-18.0388
-17.6537
-19.257
-20.6537
-24.0307
-25.1427
-27.2549
-28.3367
-30.9737
-27.7128
)
;

boundaryField
{
    inletFace
    {
        type            calculated;
        value           nonuniform List<scalar> 
450
(
-5.90825e-15
6.4941e-13
-8.07933e-14
-1.44467e-13
1.27899e-13
-1.86437e-13
-6.30175e-14
7.10341e-14
-1.01074e-13
-2.49252e-14
5.57725e-14
-3.0636e-14
-5.52928e-15
9.5707e-15
-1.19765e-16
-2.10626e-12
-2.14664e-12
1.2613e-13
-4.15815e-13
-2.18028e-13
3.38516e-14
-2.85825e-13
-1.38209e-13
1.35305e-15
-1.07479e-13
-6.42156e-14
4.43238e-14
-3.39514e-14
-9.21263e-15
-1.02473e-16
-2.28216e-12
-2.52e-12
-4.17064e-14
-3.41593e-13
-3.72663e-13
-1.03151e-13
-2.95087e-13
-1.03678e-13
-1.35822e-13
-1.49598e-13
5.95432e-14
-2.87889e-14
-2.60384e-14
-3.14407e-15
1.12769e-14
-2.58668e-12
-2.36782e-12
-1.70966e-13
-4.05253e-13
-3.6145e-13
-2.12669e-13
-3.9379e-13
-1.06282e-13
-1.69963e-13
-2.12564e-13
3.07633e-14
-3.53875e-14
-7.5173e-14
7.44743e-14
1.1132e-13
-2.37086e-12
-2.22379e-12
-1.83574e-13
-4.9593e-13
-2.46549e-13
-2.15928e-13
-3.49341e-13
-9.07698e-14
-1.79559e-13
-1.4323e-13
-1.45564e-14
-3.94744e-15
-6.11239e-14
2.51066e-14
3.68553e-15
-2.12196e-12
-2.33428e-12
-3.35261e-13
-3.89518e-13
-2.3605e-13
-2.19105e-13
-3.48197e-13
-1.01874e-13
-1.18919e-13
-1.34507e-13
5.88939e-15
-2.69073e-14
-4.00636e-14
2.26382e-14
-3.43191e-14
-1.94054e-12
-2.41498e-12
-6.81486e-13
-3.88013e-13
-2.50689e-13
-2.49136e-13
-3.62979e-13
-1.59523e-13
-1.4194e-13
-1.39661e-13
-6.34507e-14
-8.01032e-14
2.19022e-14
-1.01981e-13
-2.39154e-13
-1.67251e-12
-2.44563e-12
-9.58361e-13
-4.00701e-13
-2.65717e-13
-2.75054e-13
-2.99662e-13
-1.90569e-13
-1.93733e-13
-1.25552e-13
-1.2343e-13
-9.55475e-14
-1.11876e-13
-7.95733e-14
-2.62841e-13
-1.39557e-12
-2.42233e-12
-1.15975e-12
-4.52376e-13
-2.7353e-13
-2.20905e-13
-2.73137e-13
-2.09247e-13
-1.6885e-13
-1.16803e-13
-1.40169e-13
-1.48333e-13
-2.06672e-13
-6.32539e-14
-8.82552e-14
-1.20874e-12
-2.36749e-12
-1.31537e-12
-5.55913e-13
-2.67538e-13
-1.9714e-13
-3.01705e-13
-2.22663e-13
-8.00659e-14
-1.67753e-13
-1.49786e-13
-2.39664e-13
-1.52991e-13
-1.15876e-13
8.26801e-14
-1.01162e-12
-2.26039e-12
-1.42625e-12
-5.67064e-13
-3.14585e-13
-2.13229e-13
-2.51051e-13
-2.24287e-13
-8.36596e-14
-1.252e-13
-1.12419e-13
-1.19671e-13
-8.95532e-14
-8.50269e-14
1.4716e-13
-8.50224e-13
-2.1977e-12
-1.42954e-12
-5.87489e-13
-3.50725e-13
-1.11162e-13
-2.22667e-13
-2.15002e-13
-5.21604e-14
-1.15693e-13
-1.24891e-13
2.36095e-14
-2.13703e-14
1.44874e-13
1.71448e-13
-8.06666e-13
-2.16181e-12
-1.42643e-12
-6.46723e-13
-3.26428e-13
-1.04158e-13
-2.16362e-13
-2.23007e-13
-3.36149e-14
-1.15664e-13
-1.50931e-13
2.49024e-14
-1.3384e-14
1.61291e-13
1.701e-13
-7.69782e-13
-2.11692e-12
-1.45832e-12
-6.58811e-13
-3.42536e-13
-1.34213e-13
-2.06616e-13
-2.47922e-13
-4.5838e-14
-1.11442e-13
-1.42847e-13
3.4016e-14
-1.32014e-14
1.30538e-13
1.40693e-13
-7.9294e-13
-2.03851e-12
-1.43474e-12
-6.65914e-13
-3.50919e-13
-1.40828e-13
-2.11208e-13
-2.38989e-13
-5.74673e-14
-1.1318e-13
-1.23049e-13
2.12916e-14
2.85413e-15
1.26898e-13
8.32536e-14
5.90825e-15
-6.4941e-13
8.07933e-14
1.44467e-13
-1.27899e-13
1.86437e-13
6.30175e-14
-7.10341e-14
1.01074e-13
2.49252e-14
-5.57725e-14
3.0636e-14
5.52928e-15
-9.5707e-15
1.19765e-16
2.10626e-12
2.14664e-12
-1.2613e-13
4.15815e-13
2.18028e-13
-3.38516e-14
2.85825e-13
1.38209e-13
-1.35305e-15
1.07479e-13
6.42156e-14
-4.43238e-14
3.39514e-14
9.21263e-15
1.02473e-16
2.28216e-12
2.52e-12
4.17064e-14
3.41593e-13
3.72663e-13
1.03151e-13
2.95087e-13
1.03678e-13
1.35822e-13
1.49598e-13
-5.95432e-14
2.87889e-14
2.60384e-14
3.14407e-15
-1.12769e-14
2.58668e-12
2.36782e-12
1.70966e-13
4.05253e-13
3.6145e-13
2.12669e-13
3.9379e-13
1.06282e-13
1.69963e-13
2.12564e-13
-3.07633e-14
3.53875e-14
7.5173e-14
-7.44743e-14
-1.1132e-13
2.37086e-12
2.22379e-12
1.83574e-13
4.9593e-13
2.46549e-13
2.15928e-13
3.49341e-13
9.07698e-14
1.79559e-13
1.4323e-13
1.45564e-14
3.94744e-15
6.11239e-14
-2.51066e-14
-3.68553e-15
2.12196e-12
2.33428e-12
3.35261e-13
3.89518e-13
2.3605e-13
2.19105e-13
3.48197e-13
1.01874e-13
1.18919e-13
1.34507e-13
-5.88939e-15
2.69073e-14
4.00636e-14
-2.26382e-14
3.43191e-14
1.94054e-12
2.41498e-12
6.81486e-13
3.88013e-13
2.50689e-13
2.49136e-13
3.62979e-13
1.59523e-13
1.4194e-13
1.39661e-13
6.34507e-14
8.01032e-14
-2.19022e-14
1.01981e-13
2.39154e-13
1.67251e-12
2.44563e-12
9.58361e-13
4.00701e-13
2.65717e-13
2.75054e-13
2.99662e-13
1.90569e-13
1.93733e-13
1.25552e-13
1.2343e-13
9.55475e-14
1.11876e-13
7.95733e-14
2.62841e-13
1.39557e-12
2.42233e-12
1.15975e-12
4.52376e-13
2.7353e-13
2.20905e-13
2.73137e-13
2.09247e-13
1.6885e-13
1.16803e-13
1.40169e-13
1.48333e-13
2.06672e-13
6.32539e-14
8.82552e-14
1.20874e-12
2.36749e-12
1.31537e-12
5.55913e-13
2.67538e-13
1.9714e-13
3.01705e-13
2.22663e-13
8.00659e-14
1.67753e-13
1.49786e-13
2.39664e-13
1.52991e-13
1.15876e-13
-8.26801e-14
1.01162e-12
2.26039e-12
1.42625e-12
5.67064e-13
3.14585e-13
2.13229e-13
2.51051e-13
2.24287e-13
8.36596e-14
1.252e-13
1.12419e-13
1.19671e-13
8.95532e-14
8.50269e-14
-1.4716e-13
8.50224e-13
2.1977e-12
1.42954e-12
5.87489e-13
3.50725e-13
1.11162e-13
2.22667e-13
2.15002e-13
5.21604e-14
1.15693e-13
1.24891e-13
-2.36095e-14
2.13703e-14
-1.44874e-13
-1.71448e-13
8.06666e-13
2.16181e-12
1.42643e-12
6.46723e-13
3.26428e-13
1.04158e-13
2.16362e-13
2.23007e-13
3.36149e-14
1.15664e-13
1.50931e-13
-2.49024e-14
1.3384e-14
-1.61291e-13
-1.701e-13
7.69782e-13
2.11692e-12
1.45832e-12
6.58811e-13
3.42536e-13
1.34213e-13
2.06616e-13
2.47922e-13
4.5838e-14
1.11442e-13
1.42847e-13
-3.4016e-14
1.32014e-14
-1.30538e-13
-1.40693e-13
7.9294e-13
2.03851e-12
1.43474e-12
6.65914e-13
3.50919e-13
1.40828e-13
2.11208e-13
2.38989e-13
5.74673e-14
1.1318e-13
1.23049e-13
-2.12916e-14
-2.85413e-15
-1.26898e-13
-8.32536e-14
)
;
    }
    inlet
    {
        type            calculated;
        value           nonuniform List<scalar> 
15
(
-1299.9
-1300.2
-1299.9
-1299.9
-1300.2
-1299.9
-1299.9
-1300.2
-1299.9
-1299.9
-1300.2
-1299.9
-1299.9
-1300.2
-1299.9
)
;
    }
    inletWalls
    {
        type            calculated;
        value           uniform 0;
    }
    outletInlet
    {
        type            calculated;
        value           nonuniform List<scalar> 
15
(
188.313
515.93
769.714
968.567
1118.29
1240.25
1356.91
1474.92
1592.41
1717.48
1866.75
2044.94
2139.94
1755.79
684.46
)
;
    }
}


// ************************************************************************* //
