/*--------------------------------*- C++ -*----------------------------------*\
| =========                 |                                                 |
| \\      /  F ield         | OpenFOAM: The Open Source CFD Toolbox           |
|  \\    /   O peration     | Version:  4.1                                   |
|   \\  /    A nd           | Web:      www.OpenFOAM.org                      |
|    \\/     M anipulation  |                                                 |
\*---------------------------------------------------------------------------*/
FoamFile
{
    version     2.0;
    format      ascii;
    class       volScalarField;
    location    "4";
    object      p;
}
// * * * * * * * * * * * * * * * * * * * * * * * * * * * * * * * * * * * * * //

dimensions      [0 2 -2 0 0 0 0];

internalField   nonuniform List<scalar> 
225
(
523.393
469.996
418.164
369.752
324.86
282.842
243.487
206.483
171.388
138.024
107.082
78.9432
49.9141
14.9953
-14.1559
56.9605
34.6974
28.9267
25.2095
19.7389
14.0332
8.8791
4.48997
1.00676
-1.45114
-2.64181
-2.13997
-0.0433877
1.82891
2.08885
-45.8985
-52.5509
-46.7699
-42.596
-39.4903
-35.8918
-32.0006
-28.0571
-24.146
-20.4277
-17.0834
-14.0164
-10.9367
-8.28313
-7.04716
0.34697
-2.04796
2.57562
2.90233
2.94121
3.14796
3.05367
2.66794
2.07796
1.31483
0.351536
-0.771739
-1.69123
-1.8425
-1.53309
16.9058
14.5766
16.0944
13.9372
12.4788
11.2194
9.79399
8.39609
7.12499
6.03213
5.14005
4.43681
3.96546
3.93634
4.17976
7.45672
5.39722
6.31485
5.0664
4.88188
4.89576
4.82886
4.88214
5.0609
5.32516
5.66368
6.04626
6.37104
6.62342
6.79499
3.77511
2.60656
3.71636
3.46544
3.93093
4.37171
4.69782
5.07287
5.45065
5.78018
6.06095
6.30032
6.46725
6.54202
6.55659
5.69071
5.17028
6.10272
5.95164
6.17541
6.26862
6.26527
6.28862
6.29021
6.25519
6.19878
6.14464
6.09292
6.03753
5.98886
6.27044
5.97134
6.50048
6.19909
6.16894
6.06093
5.93054
5.84458
5.75466
5.66759
5.59258
5.5355
5.4929
5.45246
5.40323
4.79591
4.56865
4.85628
4.5944
4.58766
4.55619
4.53573
4.54767
4.54998
4.55751
4.5714
4.58255
4.58095
4.55557
4.49648
3.11384
2.96461
3.20364
3.10395
3.21775
3.29958
3.3768
3.45315
3.50217
3.54261
3.57144
3.58335
3.57246
3.53836
3.46866
2.05463
1.98451
2.23124
2.25262
2.42176
2.52405
2.60078
2.6543
2.67667
2.68473
2.67705
2.64834
2.61226
2.57166
2.50694
1.41182
1.39306
1.62955
1.69522
1.84941
1.91363
1.94831
1.9596
1.95038
1.93366
1.90686
1.86849
1.82544
1.78501
1.72934
0.899763
0.909224
1.10657
1.14945
1.24974
1.26175
1.2591
1.24649
1.22781
1.20885
1.18435
1.15507
1.12164
1.0886
1.03738
0.496744
0.465006
0.538681
0.516311
0.542943
0.499024
0.464585
0.432841
0.405063
0.378772
0.34933
0.320084
0.290002
0.261352
0.220512
)
;

boundaryField
{
    inletFace
    {
        type            zeroGradient;
    }
    inlet
    {
        type            zeroGradient;
    }
    inletWalls
    {
        type            zeroGradient;
    }
    outletInlet
    {
        type            fixedValue;
        value           uniform 0;
    }
}


// ************************************************************************* //
