/*--------------------------------*- C++ -*----------------------------------*\
| =========                 |                                                 |
| \\      /  F ield         | OpenFOAM: The Open Source CFD Toolbox           |
|  \\    /   O peration     | Version:  4.1                                   |
|   \\  /    A nd           | Web:      www.OpenFOAM.org                      |
|    \\/     M anipulation  |                                                 |
\*---------------------------------------------------------------------------*/
FoamFile
{
    version     2.0;
    format      ascii;
    class       volVectorField;
    location    "4";
    object      U;
}
// * * * * * * * * * * * * * * * * * * * * * * * * * * * * * * * * * * * * * //

dimensions      [0 1 -1 0 0 0 0];

internalField   nonuniform List<vector> 
225
(
(8.59648e-15 0.852244 15.7944)
(8.51409e-15 -4.8947 12.1217)
(-1.45658e-15 -4.19571 12.1323)
(5.13659e-15 -3.60134 11.9968)
(2.37803e-16 -3.00481 11.878)
(-2.22599e-16 -2.55329 11.6994)
(1.94085e-15 -2.20888 11.4771)
(2.1975e-16 -1.96607 11.2118)
(-4.3864e-17 -1.79855 10.9162)
(1.02743e-15 -1.71235 10.5884)
(-1.19455e-17 -1.8374 10.1562)
(-3.13521e-16 -2.28557 9.53777)
(3.40579e-16 -2.51282 8.9639)
(-3.45773e-17 -1.06535 8.91358)
(-1.06682e-17 1.7656 7.47065)
(2.66494e-14 -5.35051 22.4937)
(1.54439e-14 -14.6057 21.3936)
(5.97122e-16 -13.2712 20.3412)
(5.32497e-15 -11.7702 19.5065)
(1.80262e-15 -11.1562 18.5042)
(-7.83128e-17 -10.6593 17.5174)
(2.0982e-15 -10.09 16.5714)
(1.22859e-15 -9.52493 15.6235)
(-5.28483e-17 -8.96523 14.6638)
(4.59184e-16 -8.36706 13.6945)
(3.19887e-16 -7.7569 12.7178)
(-4.03953e-16 -7.30328 11.7195)
(5.96505e-18 -7.01728 10.6249)
(4.04404e-17 -5.73103 9.16198)
(-1.62092e-18 -2.30528 4.58271)
(2.05475e-14 -7.71542 23.9783)
(1.76174e-14 -16.7739 24.675)
(1.78786e-15 -13.7373 23.9371)
(7.22061e-15 -12.3056 22.625)
(1.59639e-15 -11.6437 21.2414)
(8.27114e-16 -10.8134 20.001)
(2.87136e-15 -9.93972 18.7734)
(1.98517e-15 -9.09948 17.5243)
(1.06738e-15 -8.28286 16.2649)
(5.91849e-17 -7.47482 15.0257)
(1.34976e-18 -6.66738 13.8169)
(1.74119e-16 -5.84129 12.4286)
(5.57358e-16 -4.81247 10.2725)
(-8.39108e-17 -3.12367 6.68023)
(-1.18282e-17 -0.829974 1.68541)
(2.18688e-14 -8.50106 22.0417)
(1.67392e-14 -16.6206 24.335)
(2.14863e-15 -12.9281 23.7982)
(4.03068e-15 -12.1513 21.9994)
(1.39375e-15 -11.4195 20.5027)
(1.79279e-15 -10.4938 19.1718)
(2.55143e-15 -9.63393 17.8165)
(2.22228e-17 -8.82367 16.4589)
(1.52637e-15 -8.05418 15.1226)
(1.885e-15 -7.3249 13.8156)
(1.38575e-16 -6.55337 12.4386)
(5.55338e-16 -5.49169 10.5834)
(5.95081e-16 -3.78801 7.51228)
(-1.13945e-16 -1.49834 2.77358)
(-6.17148e-16 0.152005 -1.77341)
(1.96033e-14 -8.47599 19.7481)
(1.66084e-14 -16.3587 24.3121)
(2.77437e-15 -13.0958 23.6599)
(4.51215e-15 -12.6286 21.5354)
(1.29104e-15 -11.8587 20.0235)
(1.48365e-15 -10.9589 18.6632)
(2.036e-15 -10.1709 17.2586)
(2.69789e-16 -9.4041 15.8713)
(8.26422e-16 -8.65385 14.5241)
(9.46806e-16 -7.93163 13.2141)
(-3.45599e-16 -7.16717 11.8296)
(3.84554e-16 -6.11702 9.99759)
(3.65859e-16 -4.42464 7.15971)
(-5.21929e-16 -2.30616 3.2933)
(-9.45037e-16 -0.78669 0.321687)
(1.6673e-14 -8.02436 17.5571)
(1.78266e-14 -16.0214 24.528)
(4.51542e-15 -13.6475 24.045)
(3.58103e-15 -13.0005 21.7636)
(1.52436e-15 -12.1308 20.2155)
(1.93479e-15 -11.2264 18.848)
(1.71367e-15 -10.4403 17.4351)
(6.24763e-16 -9.65046 16.0442)
(1.41185e-16 -8.86092 14.6944)
(1.30885e-15 -8.09198 13.3833)
(6.29821e-16 -7.29551 12.0181)
(6.77804e-16 -6.28287 10.2818)
(1.28813e-15 -4.73066 7.72181)
(1.57652e-16 -2.7543 4.37475)
(6.93112e-16 -0.951891 1.30038)
(1.56651e-14 -7.33574 15.2452)
(1.76648e-14 -15.4923 24.3542)
(5.97265e-15 -14.0314 24.4236)
(3.38453e-15 -13.1321 22.0701)
(1.7361e-15 -12.1442 20.4432)
(1.54529e-15 -11.2335 19.0576)
(2.24143e-15 -10.4348 17.6455)
(8.05066e-16 -9.61879 16.2587)
(1.2324e-15 -8.80828 14.9074)
(1.48681e-15 -8.02463 13.5925)
(7.13319e-16 -7.22124 12.2369)
(7.48226e-16 -6.23866 10.5474)
(5.30017e-18 -4.78678 8.10513)
(-6.63071e-17 -2.91328 4.94444)
(2.85281e-15 -1.0126 1.79638)
(1.35291e-14 -6.54647 13.0112)
(1.76451e-14 -14.8419 23.8119)
(7.21074e-15 -14.2654 24.6734)
(3.5438e-15 -13.2327 22.327)
(1.87597e-15 -12.1606 20.5874)
(1.59764e-15 -11.2613 19.1689)
(1.71376e-15 -10.4633 17.7595)
(1.00998e-15 -9.64161 16.3773)
(1.11809e-15 -8.83383 15.025)
(2.03356e-15 -8.0557 13.7072)
(8.18889e-16 -7.25659 12.3575)
(6.35703e-16 -6.29031 10.7)
(-9.15467e-16 -4.89709 8.33365)
(3.98133e-17 -3.09294 5.27431)
(9.37118e-16 -1.13031 2.05287)
(1.11166e-14 -5.77082 11.1129)
(1.74953e-14 -14.169 23.0907)
(7.78258e-15 -14.4346 24.8494)
(3.67154e-15 -13.3886 22.6169)
(1.95197e-15 -12.2486 20.7562)
(1.52969e-15 -11.3503 19.2948)
(2.14212e-15 -10.5505 17.8899)
(1.37146e-15 -9.72767 16.5117)
(7.87901e-16 -8.92242 15.1574)
(1.23082e-15 -8.14516 13.8363)
(8.75848e-16 -7.34508 12.4884)
(1.89998e-16 -6.386 10.8556)
(5.24111e-16 -5.03378 8.55671)
(1.07598e-16 -3.28083 5.57687)
(2.82525e-16 -1.24805 2.27253)
(9.88746e-15 -5.09178 9.61827)
(1.698e-14 -13.5234 22.3119)
(8.79887e-15 -14.5314 24.9541)
(3.32466e-15 -13.5524 22.9335)
(1.99592e-15 -12.35 20.9686)
(1.80923e-15 -11.4334 19.456)
(1.97613e-15 -10.6249 18.052)
(1.50869e-15 -9.80061 16.6755)
(7.10571e-16 -8.9951 15.3178)
(9.51998e-16 -8.2142 13.9919)
(8.33198e-16 -7.41223 12.6413)
(2.57321e-16 -6.4583 11.0217)
(2.34542e-16 -5.13375 8.76866)
(2.912e-16 -3.41801 5.83887)
(-9.50683e-16 -1.32499 2.45286)
(7.64118e-15 -4.55628 8.49591)
(1.65111e-14 -12.9378 21.5668)
(9.90176e-15 -14.5391 24.9776)
(4.0795e-15 -13.6719 23.2194)
(1.98831e-15 -12.422 21.1814)
(1.1583e-15 -11.4814 19.6144)
(1.96631e-15 -10.6635 18.205)
(1.84379e-15 -9.83984 16.8267)
(1.86839e-16 -9.03496 15.4644)
(5.71918e-16 -8.25105 14.1329)
(9.08291e-16 -7.44692 12.7753)
(7.69842e-16 -6.49713 11.1565)
(1.20302e-16 -5.19461 8.92732)
(-7.61359e-16 -3.50823 6.022)
(-1.72259e-15 -1.36864 2.55426)
(6.70137e-15 -4.18431 7.72201)
(1.60071e-14 -12.4482 20.9375)
(1.03212e-14 -14.4804 24.9386)
(4.4124e-15 -13.7386 23.4393)
(2.08194e-15 -12.4646 21.3623)
(8.15746e-16 -11.5053 19.7453)
(1.75917e-15 -10.6816 18.3264)
(1.85667e-15 -9.86164 16.9444)
(7.98932e-16 -9.05953 15.5774)
(1.00046e-15 -8.27526 14.2404)
(9.07824e-16 -7.47123 12.8742)
(-3.61615e-16 -6.5218 11.2485)
(1.02527e-16 -5.22741 9.02647)
(-1.04136e-15 -3.55225 6.1226)
(-1.15197e-15 -1.37042 2.55702)
(6.02801e-15 -3.9736 7.27309)
(1.52365e-14 -12.0706 20.4607)
(1.03862e-14 -14.3884 24.865)
(4.5119e-15 -13.7627 23.5872)
(2.19028e-15 -12.487 21.5015)
(9.39464e-16 -11.5191 19.8455)
(1.66898e-15 -10.6921 18.4163)
(1.76812e-15 -9.87724 17.0305)
(6.61722e-16 -9.07876 15.66)
(9.80061e-16 -8.29491 14.3183)
(9.45577e-16 -7.49137 12.9424)
(-9.99462e-17 -6.54011 11.3046)
(-3.28585e-18 -5.24588 9.07943)
(-7.54144e-16 -3.56973 6.16399)
(-1.06532e-15 -1.35493 2.50951)
(5.52201e-15 -3.89711 7.09663)
(1.4928e-14 -11.8304 20.1835)
(1.03666e-14 -14.2979 24.7934)
(4.45225e-15 -13.7623 23.6718)
(2.192e-15 -12.4954 21.5929)
(1.03092e-15 -11.5254 19.9129)
(1.64192e-15 -10.6957 18.4766)
(1.83554e-15 -9.88331 17.0885)
(7.2907e-16 -9.08616 15.7167)
(9.83711e-16 -8.30143 14.3722)
(9.18493e-16 -7.49564 12.9888)
(-1.542e-16 -6.54154 11.3395)
(3.11943e-17 -5.25096 9.11111)
(-8.11759e-16 -3.57995 6.19194)
(-8.32483e-16 -1.34645 2.49135)
(5.40768e-15 -4.04758 7.31039)
(1.42901e-14 -11.6339 19.9711)
(1.02805e-14 -14.1904 24.6753)
(4.69935e-15 -13.7389 23.7067)
(2.22057e-15 -12.4985 21.6706)
(1.10071e-15 -11.5328 19.9735)
(1.63975e-15 -10.6953 18.5299)
(1.75144e-15 -9.88438 17.1381)
(8.23508e-16 -9.08779 15.7646)
(9.80515e-16 -8.30196 14.4142)
(8.18516e-16 -7.48814 13.0102)
(-8.80141e-17 -6.51423 11.323)
(-3.32693e-17 -5.20327 9.05599)
(-7.54546e-16 -3.49749 6.07591)
(-4.29439e-16 -1.24811 2.30394)
)
;

boundaryField
{
    inletFace
    {
        type            zeroGradient;
    }
    inlet
    {
        type            fixedValue;
        value           uniform (0 8.7 15);
    }
    inletWalls
    {
        type            noSlip;
    }
    outletInlet
    {
        type            zeroGradient;
    }
}


// ************************************************************************* //
