/*--------------------------------*- C++ -*----------------------------------*\
| =========                 |                                                 |
| \\      /  F ield         | OpenFOAM: The Open Source CFD Toolbox           |
|  \\    /   O peration     | Version:  4.1                                   |
|   \\  /    A nd           | Web:      www.OpenFOAM.org                      |
|    \\/     M anipulation  |                                                 |
\*---------------------------------------------------------------------------*/
FoamFile
{
    version     2.0;
    format      ascii;
    class       volScalarField;
    location    "25";
    object      p;
}
// * * * * * * * * * * * * * * * * * * * * * * * * * * * * * * * * * * * * * //

dimensions      [0 2 -2 0 0 0 0];

internalField   nonuniform List<scalar> 
6785
(
597.864
519.963
473.475
420.51
374.134
329.388
287.642
248.032
210.504
174.962
140.753
107.581
79.3388
50.2636
8.67118
-1.58754
-19.6675
-9.53036
-16.6985
-15.8269
-18.1586
-18.5728
-18.8813
-18.1724
-16.5484
-13.896
-10.1587
-4.62188
1.00348
2.91382
4.06183
-1.68266
6.30393
0.405408
2.84496
0.270962
-0.369242
-2.2915
-4.00878
-6.0941
-8.12168
-9.31806
-9.80392
-10.6291
-10.6287
-2.70053
-6.56303
-4.6516
-10.5945
-10.1517
-14.4048
-16.0133
-18.9282
-21.1266
-23.398
-25.1104
-25.9279
-25.3693
-25.0227
-23.6792
-8.48937
-10.1385
-6.91905
-9.5605
-6.13443
-7.28316
-5.35161
-4.84822
-3.56112
-2.45133
-1.05939
0.235756
2.20947
3.62716
6.52295
16.0769
16.4047
19.8318
18.7986
22.412
22.4001
24.7566
25.9408
27.6423
29.1921
30.8823
32.4392
34.2608
35.5545
37.5205
37.812
38.6364
41.2285
40.4096
43.1194
43.0025
44.6913
45.4577
46.5932
47.6264
48.6788
49.6487
50.8058
51.6517
52.9634
54.5317
55.5999
57.449
57.1097
59.251
59.268
60.6817
60.8278
61.1198
60.8687
60.5998
60.7253
61.3422
61.9859
62.6324
64.6603
64.679
65.579
64.5803
65.5374
64.5161
64.5865
63.6147
62.9728
62.1219
61.4906
61.014
60.5163
60.5226
59.6126
61.8589
58.7422
58.939
56.5155
56.2977
54.369
53.4814
51.4851
49.4936
46.7247
43.7573
41.0305
39.7446
39.1081
35.344
13.0982
7.13883
5.34251
0.714456
-2.02906
-6.3702
-9.57632
-13.1009
-15.6251
-17.6945
-18.7207
-18.744
-18.6191
-19.4962
-20.9538
-27.4338
-30.9624
-31.6095
-34.2698
-35.1805
-37.3056
-38.2391
-39.2224
-39.4685
-39.5115
-39.2563
-38.9216
-38.5677
-38.3607
-36.2859
-9.2924
-8.81305
-8.46006
-9.16083
-8.71461
-9.2357
-9.27448
-9.50513
-9.53742
-9.51106
-9.19563
-8.72954
-7.39057
-5.77777
-2.71117
11.6405
15.2596
15.7356
15.9024
16.6206
17.3326
18.5329
19.6619
20.8604
22.0303
23.2419
24.3663
25.6431
26.683
27.8391
72.9859
72.1759
67.6316
60.6779
54.0283
49.1222
44.316
39.9406
36.5446
33.7714
31.1564
29.0632
27.2498
26.0212
23.7104
35.5143
35.4994
42.5889
36.0726
36.5375
38.5551
36.9216
35.6729
35.6011
35.3022
34.9826
33.2502
33.5739
33.2216
31.3718
31.0707
31.7441
31.7608
29.1991
30.7123
30.8291
28.7466
28.522
30.095
30.4358
28.4374
28.3189
29.775
30.6904
28.4185
30.0493
31.0215
29.4282
29.4063
30.6765
31.7154
30.1498
31.3072
32.2222
31.2323
31.1854
32.1251
32.4539
31.6782
31.6141
32.2581
32.4498
31.749
32.3126
32.6052
32.2702
32.2536
32.6019
33.1622
33.0291
32.9913
33.1604
33.9754
33.8816
33.9176
34.1259
34.0865
34.1708
34.1519
34.4747
34.8367
36.2081
33.965
32.0589
33.9133
36.2097
26.0962
21.7851
26.4756
31.9637
1.91767
14.461
23.4444
-29.2164
-14.1936
-6.93511
-9.71336
-4.63148
-11.7871
-9.5775
-4.29544
-4.1233
-3.11559
-2.45725
-1.54244
-0.308494
3.73036
3.69916
-0.717828
1.27222
3.79138
6.58879
7.11551
8.41578
8.83195
11.2777
14.7464
11.2948
13.5367
13.8112
15.3879
17.9097
19.4434
19.938
20.697
20.4593
24.9674
24.5636
26.0735
26.5618
26.896
28.3923
30.7623
31.5614
28.8735
32.0599
35.2907
37.3586
38.0377
37.5167
37.0326
36.3549
38.445
35.075
38.224
45.1844
41.9837
42.7086
42.8254
40.6412
38.9865
37.3929
30.4991
38.7193
45.3967
38.7552
35.7437
31.0632
27.5506
23.7706
20.5829
17.1316
10.9149
9.64975
17.6816
11.453
10.0601
7.58644
4.55055
-2.74549
-5.18857
-2.73879
-13.1713
3.41412
-0.240327
-2.46999
5.27065
2.23275
5.25247
5.73511
6.85468
8.19215
8.20303
8.70965
8.88411
8.99804
9.04041
8.90774
8.92161
8.59476
8.70069
8.34306
7.90885
7.93189
7.40149
7.93498
7.33737
6.49857
7.60905
6.67378
6.11
6.39425
5.654
7.13256
5.91348
5.29338
5.715
4.92688
6.67468
5.57117
4.21507
6.58482
5.27941
4.26722
5.07461
4.0053
6.13255
5.04821
3.673
4.71669
3.52744
5.54769
4.77039
2.84056
5.34672
4.35882
2.81265
3.67563
2.38005
4.58936
3.30457
1.71948
2.68854
1.31246
3.76476
2.65405
0.465798
3.60739
2.23234
0.775235
1.79486
0.607118
3.11327
1.59585
0.545246
1.27097
0.293
2.44021
1.11726
-0.497896
2.0769
0.294536
-0.510817
-0.293588
-1.02481
-0.0103782
0.0338966
0.0209163
0.0354865
0.0386635
0.0508406
0.0641089
0.0808277
0.0954534
0.104351
0.104282
0.0955579
0.0808575
0.0639301
0.0476637
0.0334202
0.0212553
0.0106139
0.000904685
-0.00819304
-0.0166702
-0.0242687
-0.0306914
-0.0358655
-0.0400253
-0.0432979
-0.0451648
-0.0501141
-0.0904331
-0.151168
-0.0152506
-0.459761
-0.362546
-0.415376
-0.561243
-0.705649
-0.840032
-0.949136
-1.02664
-1.06485
-1.06766
-1.03544
-0.969417
-0.875499
-0.758453
-0.624662
-0.481358
-0.333657
-0.185494
-0.0390382
0.105591
0.246055
0.379404
0.503347
0.619569
0.7256
0.816181
0.887373
0.930105
0.925347
0.855189
0.717098
0.53621
0.349963
0.196757
0.0892864
0.0243322
0.0217284
0.0330362
0.0716256
0.0255588
0.00599049
-0.00164032
0.00967991
-0.00175435
-0.00636909
0.0928881
-0.296572
0.00168512
-0.0387412
0.0881137
0.0456762
0.0799265
0.0721208
0.0755448
0.0660925
0.0555381
0.0426412
0.0334075
0.0299149
0.0332301
0.0415139
0.0521114
0.0622647
0.0698761
0.0734325
0.0719116
0.064679
0.0515969
0.0332853
0.0112475
-0.0127578
-0.0379494
-0.0651478
-0.0957065
-0.128401
-0.161966
-0.231348
-0.309521
0.032337
-0.662876
-0.472993
-0.599195
-0.862383
-1.11854
-1.35797
-1.54892
-1.67919
-1.73221
-1.71664
-1.63386
-1.48793
-1.29148
-1.0537
-0.786468
-0.500829
-0.205067
0.094161
0.392413
0.685201
0.966269
1.23134
1.47896
1.7049
1.8987
2.05002
2.14528
2.16014
2.05929
1.82746
1.49301
1.10241
0.719421
0.410833
0.19736
0.0676899
0.0635911
0.0800251
0.138873
0.0546603
0.0186595
0.0103162
0.0297607
-0.0878302
-0.0636711
0.212902
-0.868277
-0.0244345
-0.0658704
0.150466
0.0814666
0.142526
0.135737
0.152769
0.152457
0.153727
0.149855
0.146059
0.141763
0.1383
0.135458
0.133151
0.130458
0.125965
0.117807
0.104173
0.0837444
0.0562038
0.0227067
-0.0140996
-0.0513603
-0.0881074
-0.12606
-0.167546
-0.210708
-0.254246
-0.349087
-0.495221
-0.0619087
-0.67621
-0.480279
-0.639888
-0.956186
-1.26351
-1.5497
-1.777
-1.93078
-1.99024
-1.96742
-1.86329
-1.68324
-1.44281
-1.15257
-0.82656
-0.477574
-0.115553
0.251085
0.616198
0.973876
1.31712
1.6411
1.94291
2.21623
2.44848
2.62632
2.73161
2.73472
2.59581
2.29916
1.88034
1.39475
0.919349
0.536005
0.272522
0.116815
0.114784
0.118412
0.167808
0.0723748
0.031215
0.0208533
0.0455401
-0.0690321
-0.070548
0.373936
-1.38911
-0.0919982
-0.0981491
0.208972
0.110316
0.193701
0.181168
0.20001
0.192298
0.185022
0.1706
0.15898
0.151489
0.150415
0.15415
0.160414
0.165986
0.167701
0.162498
0.147834
0.122055
0.0850317
0.0388534
-0.0121948
-0.0637112
-0.114363
-0.166868
-0.224824
-0.286085
-0.345838
-0.449565
-0.630607
-0.263592
-0.724958
-0.579901
-0.755475
-1.14782
-1.53131
-1.88404
-2.16381
-2.35194
-2.42272
-2.39246
-2.26198
-2.03835
-1.74073
-1.3819
-0.978982
-0.547592
-0.100093
0.352835
0.803136
1.24361
1.66623
2.0652
2.43598
2.77082
3.05505
3.27204
3.3994
3.40171
3.23323
2.87409
2.36256
1.76538
1.17724
0.699671
0.371122
0.177879
0.170699
0.163256
0.206159
0.0929946
0.0428235
0.0286372
0.0580314
-0.0694754
-0.077836
0.520488
-1.88655
-0.128412
-0.134667
0.269599
0.138838
0.243869
0.225769
0.248565
0.239123
0.233001
0.220117
0.211452
0.206515
0.206983
0.210896
0.216247
0.219951
0.218671
0.2088
0.187116
0.151466
0.101799
0.0411902
-0.0243199
-0.0888736
-0.151152
-0.215185
-0.285745
-0.360344
-0.431993
-0.541437
-0.750996
-0.511183
-0.640216
-0.675015
-0.866453
-1.34123
-1.80851
-2.23304
-2.5706
-2.79654
-2.87974
-2.84148
-2.68215
-2.41079
-2.05052
-1.61664
-1.12969
-0.608221
-0.0671388
0.480562
1.02488
1.55689
2.0671
2.54876
2.99613
3.39944
3.74125
4.00151
4.15313
4.15375
3.94984
3.51735
2.90021
2.17789
1.46387
0.880515
0.478874
0.240017
0.219958
0.203566
0.243038
0.113707
0.0542133
0.0382145
0.0692948
-0.0400792
-0.0582704
0.682755
-2.25468
-0.0116936
-0.178177
0.32988
0.162759
0.286755
0.260538
0.284004
0.269602
0.260906
0.245754
0.236928
0.233481
0.237176
0.245395
0.255357
0.262966
0.263888
0.253545
0.227911
0.18439
0.123225
0.0488984
-0.0303226
-0.106986
-0.180127
-0.255421
-0.338861
-0.427874
-0.513408
-0.627681
-0.844214
-0.729955
-0.485228
-0.792357
-0.973908
-1.52284
-2.07294
-2.56403
-2.95529
-3.21521
-3.30773
-3.26007
-3.0717
-2.7538
-2.33326
-1.82766
-1.26078
-0.653855
-0.0241839
0.613045
1.246
1.86413
2.45671
3.01612
3.53545
4.00305
4.39908
4.70029
4.87535
4.87554
4.64001
4.14015
3.42413
2.58316
1.74847
1.06256
0.589912
0.306759
0.27141
0.24064
0.273965
0.13305
0.0658011
0.0496068
0.0801704
-0.00430982
-0.0190997
0.851346
-2.46547
0.102724
-0.229854
0.390527
0.18244
0.323172
0.288005
0.312163
0.295123
0.287737
0.275079
0.270363
0.271189
0.278924
0.290524
0.303069
0.312148
0.312907
0.300009
0.268633
0.215711
0.141892
0.0534102
-0.0389154
-0.126305
-0.20891
-0.29439
-0.389618
-0.4919
-0.591207
-0.712697
-0.923368
-0.889981
-0.411974
-0.916226
-1.09247
-1.70971
-2.34916
-2.9069
-3.35219
-3.64538
-3.74585
-3.68763
-3.46897
-3.10357
-2.62203
-2.04421
-1.39718
-0.704812
0.01314
0.739318
1.46009
2.16341
2.83739
3.47357
4.06393
4.59513
5.04521
5.38796
5.58817
5.59122
5.32913
4.76776
3.95737
3.00021
2.04516
1.25515
0.708947
0.378804
0.3239
0.27582
0.301263
0.15174
0.0777343
0.0631583
0.0927348
0.0466034
0.046223
1.03327
-2.57899
0.304223
-0.291026
0.449666
0.196221
0.351074
0.306512
0.331145
0.312396
0.306924
0.296935
0.296067
0.301044
0.313217
0.329243
0.345885
0.358121
0.360284
0.346055
0.309691
0.247661
0.161305
0.0591984
-0.0448949
-0.141407
-0.232542
-0.327986
-0.434965
-0.55072
-0.665071
-0.797347
-1.00065
-1.01987
-0.510364
-0.936465
-1.2239
-1.89963
-2.63603
-3.26144
-3.76188
-4.08812
-4.19556
-4.12577
-3.87537
-3.46103
-2.91702
-2.2656
-1.53716
-0.758224
0.0489829
0.86493
1.67421
2.46332
3.2192
3.93264
4.59456
5.19005
5.69516
6.08087
6.30833
6.31717
6.03199
5.41222
4.50893
3.43497
2.35695
1.45892
0.8345
0.45403
0.375608
0.310327
0.325
0.169527
0.0902511
0.0797486
0.10897
0.107971
0.13727
1.22539
-2.49038
0.549211
-0.360763
0.504935
0.203773
0.370302
0.317323
0.343518
0.325366
0.323905
0.318546
0.323034
0.333216
0.35036
0.370911
0.391441
0.406471
0.4096
0.393523
0.351519
0.279639
0.180277
0.0650367
-0.0492546
-0.15342
-0.252685
-0.358282
-0.477097
-0.606364
-0.736551
-0.883036
-1.085
-1.13932
-0.71283
-0.810552
-1.38933
-2.0952
-2.93206
-3.62564
-4.18147
-4.53941
-4.65198
-4.56914
-4.28535
-3.82066
-3.21303
-2.48714
-1.67673
-0.810913
0.0856072
0.991168
1.88865
2.76309
3.60041
4.39065
5.1238
5.78346
6.34392
6.77349
7.02996
7.0474
6.74276
6.06815
5.07418
3.88363
2.68078
1.6715
0.964218
0.531421
0.426146
0.345172
0.345183
0.186078
0.103632
0.100023
0.130867
0.180503
0.253988
1.42123
-2.23571
0.802385
-0.434842
0.552046
0.204849
0.380752
0.321419
0.350384
0.33455
0.337978
0.33773
0.347679
0.363151
0.385481
0.41099
0.436024
0.45454
0.459254
0.44171
0.394082
0.312089
0.199757
0.0725681
-0.049957
-0.160764
-0.268484
-0.384853
-0.515963
-0.659265
-0.806323
-0.969616
-1.17676
-1.25306
-0.909163
-0.673308
-1.59958
-2.30338
-3.23879
-4.00234
-4.61426
-5.00229
-5.11786
-5.02022
-4.70113
-4.18441
-3.51173
-2.71027
-1.81713
-0.863986
0.121994
1.11705
2.1024
3.06171
3.97993
4.84648
5.65044
6.37411
6.99022
7.46462
7.75197
7.78106
7.46097
6.73549
5.65337
4.34642
3.01656
1.89245
1.09652
0.609732
0.474323
0.379216
0.361839
0.20124
0.118092
0.124365
0.159883
0.262253
0.393613
1.61869
-1.88938
1.18384
-0.50453
0.585621
0.200134
0.383354
0.320667
0.353653
0.341762
0.350932
0.356493
0.372378
0.39357
0.42145
0.452246
0.48207
0.504306
0.510721
0.491591
0.437886
0.345172
0.21997
0.0824403
-0.0465442
-0.163938
-0.281064
-0.408973
-0.552987
-0.711056
-0.876042
-1.05816
-1.27602
-1.37183
-1.09475
-0.699015
-1.80037
-2.53131
-3.55682
-4.39342
-5.06272
-5.47914
-5.59538
-5.48091
-5.1244
-4.55374
-3.81425
-2.93582
-1.95894
-0.917741
0.158087
1.24274
2.31583
3.35973
4.35851
5.30102
6.17557
6.96324
7.63547
8.15583
8.47611
8.52006
8.18855
7.41601
6.24794
4.8242
3.3643
2.12091
1.22902
0.687033
0.518452
0.410449
0.374518
0.214718
0.133727
0.152953
0.196957
0.352102
0.552807
1.81814
-1.36704
1.6442
-0.557871
0.600156
0.19095
0.379395
0.316719
0.354521
0.347674
0.362901
0.374511
0.396437
0.423536
0.457247
0.493743
0.528861
0.555337
0.563845
0.543194
0.483004
0.379046
0.241603
0.0958319
-0.0385386
-0.16345
-0.291097
-0.431218
-0.58884
-0.762668
-0.946886
-1.14976
-1.38314
-1.50486
-1.30665
-0.936782
-1.89464
-2.78584
-3.88785
-4.80023
-5.52869
-5.97148
-6.08579
-5.95207
-5.5557
-4.92896
-4.12071
-3.16373
-2.10193
-0.971869
0.194248
1.36863
2.52934
3.65751
4.73646
5.75457
6.69945
7.55111
8.27994
8.84743
9.20273
9.26481
8.92596
8.11007
6.8581
5.31672
3.72309
2.3553
1.35869
0.76096
0.556474
0.436724
0.382528
0.22613
0.150519
0.185747
0.242425
0.448407
0.726435
2.01089
-0.793432
2.12555
-0.583278
0.592099
0.179219
0.370412
0.311082
0.354036
0.353044
0.374507
0.392438
0.420629
0.453963
0.493895
0.536553
0.577458
0.608624
0.619477
0.597114
0.529672
0.413867
0.265372
0.113362
-0.0266372
-0.160596
-0.29962
-0.452465
-0.624447
-0.815163
-1.0201
-1.24582
-1.49896
-1.6542
-1.54521
-1.28139
-1.84871
-3.08372
-4.23716
-5.224
-6.01441
-6.48117
-6.59081
-6.43502
-5.99599
-5.31076
-4.43156
-3.39425
-2.24619
-1.02633
0.230586
1.49486
2.74306
3.95517
5.11388
6.20718
7.2221
8.1377
8.92362
9.53942
9.93186
10.0155
9.67343
8.81787
7.48391
5.82364
4.09186
2.5938
1.48392
0.829488
0.586778
0.455936
0.385044
0.235052
0.168335
0.222512
0.296118
0.549677
0.908906
2.20047
-0.110713
2.64846
-0.574103
0.561441
0.166931
0.357785
0.304806
0.352813
0.358225
0.385953
0.410399
0.445041
0.484931
0.531499
0.580846
0.628124
0.66452
0.677972
0.653508
0.577727
0.449723
0.292021
0.134903
-0.0122252
-0.156548
-0.307298
-0.473244
-0.660357
-0.869176
-1.09646
-1.34728
-1.62422
-1.81887
-1.79711
-1.62811
-1.75879
-3.44567
-4.61411
-5.66529
-6.52206
-7.0102
-7.11224
-6.9313
-6.44646
-5.69997
-4.74738
-3.62774
-2.39189
-1.08115
0.26719
1.62158
2.95718
4.25292
5.49096
6.65904
7.74368
8.72318
9.56664
10.232
10.6637
10.7723
10.4314
9.53975
8.12552
6.34459
4.46933
2.8327
1.60496
0.891195
0.608305
0.466256
0.381149
0.240995
0.18692
0.262856
0.357443
0.654326
1.09393
2.373
0.590162
3.15606
-0.531241
0.511993
0.155735
0.342675
0.298613
0.351302
0.363563
0.397583
0.428801
0.470169
0.517029
0.57074
0.62738
0.681667
0.72381
0.739916
0.712456
0.626813
0.486819
0.321887
0.159161
0.00296986
-0.152196
-0.314629
-0.494006
-0.697028
-0.925194
-1.17651
-1.45481
-1.75953
-1.99795
-2.05658
-1.95666
-1.7825
-3.86861
-5.02863
-6.12398
-7.05343
-7.56051
-7.65188
-7.44241
-6.9083
-6.09741
-5.06868
-3.86451
-2.53916
-1.13629
0.304201
1.749
3.17194
4.55099
5.86792
7.11034
8.26436
9.30767
10.2091
10.9252
11.3985
11.5356
11.2
10.2759
8.78291
6.87892
4.85384
3.06605
1.7215
0.943833
0.618778
0.465659
0.369806
0.243398
0.205908
0.306253
0.425511
0.760887
1.27588
2.53041
1.18809
3.56844
-0.462314
0.450025
0.146646
0.325988
0.292933
0.34981
0.369324
0.409693
0.447989
0.496411
0.550713
0.612136
0.676745
0.738728
0.787079
0.805543
0.773469
0.676277
0.525373
0.35431
0.184033
0.0176502
-0.147919
-0.321831
-0.514967
-0.734668
-0.983415
-1.26043
-1.56862
-1.90514
-2.1911
-2.32669
-2.30468
-2.03536
-4.30658
-5.48828
-6.60013
-7.60969
-8.13398
-8.21153
-7.9699
-7.3828
-6.50397
-5.39598
-4.10486
-2.68811
-1.19171
0.341762
1.87732
3.38757
4.8496
6.24496
7.56122
8.78425
9.89126
10.8512
11.6192
12.1361
12.3053
11.9797
11.0265
9.45592
7.42576
5.24336
3.28776
1.83141
0.984469
0.615759
0.451881
0.349832
0.241642
0.224843
0.352064
0.499245
0.867938
1.45004
2.67361
1.83036
3.89247
-0.378274
0.382195
0.14005
0.308461
0.288049
0.348631
0.375823
0.422674
0.468432
0.524319
0.586617
0.656404
0.729723
0.800092
0.854903
0.874731
0.835503
0.725508
0.565281
0.387368
0.207483
0.0313184
-0.143729
-0.328955
-0.536187
-0.773327
-1.04385
-1.34817
-1.68862
-2.0608
-2.39789
-2.61185
-2.70017
-2.53497
-4.68337
-5.99704
-7.09597
-8.1918
-8.73233
-8.79297
-8.51533
-7.87134
-6.92068
-5.72992
-4.34911
-2.83887
-1.2474
0.380008
2.00675
3.6043
5.14898
6.62228
8.01186
9.30346
10.474
11.4927
12.3139
12.8765
13.0815
12.7702
11.7911
10.1442
7.98393
5.63433
3.49774
1.93116
1.00984
0.597444
0.42289
0.319993
0.235057
0.243191
0.399558
0.577517
0.974247
1.61327
2.7869
2.34059
4.06769
-0.289626
0.313896
0.13587
0.290705
0.284173
0.348079
0.383414
0.436964
0.490639
0.554473
0.625389
0.70426
0.787071
0.866433
0.927497
0.946584
0.896996
0.774062
0.605426
0.418446
0.228486
0.0442207
-0.139408
-0.335887
-0.557565
-0.812885
-1.10633
-1.43945
-1.81438
-2.2259
-2.61761
-2.91404
-3.14134
-3.19683
-4.92781
-6.56017
-7.61704
-8.80062
-9.357
-9.39785
-9.08025
-8.3753
-7.34862
-6.07118
-4.59762
-2.99157
-1.30331
0.419081
2.13751
3.82238
5.44938
7.00009
8.46242
9.82211
11.056
12.1338
13.0093
13.6196
13.8642
13.5718
12.5699
10.8474
8.552
6.01658
3.70335
2.01689
1.01608
0.561136
0.3765
0.278976
0.222937
0.260365
0.447927
0.659244
1.07883
1.76321
2.88837
2.67299
4.12498
-0.204005
0.248582
0.133796
0.273268
0.281523
0.348526
0.392517
0.453073
0.515191
0.587528
0.66775
0.756476
0.849548
0.938268
1.00449
1.0193
0.95638
0.821406
0.643435
0.445552
0.247325
0.0569858
-0.134638
-0.342407
-0.5789
-0.853114
-1.17054
-1.53387
-1.94536
-2.39964
-2.84948
-3.23351
-3.61109
-3.89698
-5.02572
-7.19216
-8.17452
-9.43775
-10.0093
-10.0275
-9.66614
-8.8961
-7.78892
-6.42054
-4.85082
-3.14636
-1.35943
0.459132
2.26984
4.04208
5.75104
7.37861
8.91304
10.3403
11.6371
12.7743
13.7051
14.3652
14.6531
14.3846
13.363
11.5647
9.12866
6.37346
3.90926
2.08457
0.998761
0.502878
0.309959
0.225306
0.20454
0.275745
0.496302
0.74349
1.18082
1.89816
2.9789
3.03285
4.1289
-0.125536
0.187916
0.133485
0.256657
0.280349
0.3504
0.4036
0.471557
0.5427
0.624154
0.714417
0.813787
0.91778
1.01568
1.08454
1.09036
1.01255
0.866164
0.676531
0.46839
0.265161
0.0703018
-0.129056
-0.348234
-0.599924
-0.893715
-1.23611
-1.63095
-2.08095
-2.58123
-3.09282
-3.56925
-4.08928
-4.52955
-5.06724
-7.92563
-8.78316
-10.1047
-10.6908
-10.683
-10.2742
-9.43513
-8.24273
-6.77883
-5.10919
-3.3034
-1.41571
0.500318
2.40395
4.26366
6.05424
7.75805
9.3639
10.8581
12.2175
13.4142
14.4013
15.1129
15.448
15.209
14.1712
12.2956
9.71314
6.70332
4.10779
2.1287
0.953167
0.417814
0.219884
0.157327
0.1791
0.288702
0.543743
0.829185
1.2796
2.01778
3.03971
3.24301
4.12302
-0.0554468
0.132334
0.134682
0.241366
0.28095
0.354174
0.41717
0.493
0.573796
0.665024
0.76608
0.87684
0.992134
1.09802
1.16511
1.15728
1.06474
0.905829
0.703187
0.488389
0.28334
0.0847574
-0.122311
-0.353078
-0.620355
-0.934366
-1.30263
-1.73022
-2.22059
-2.76996
-3.34718
-3.92026
-4.56762
-5.07848
-5.22114
-8.7972
-9.4608
-10.8035
-11.4033
-11.3654
-10.9055
-9.99367
-8.71118
-7.1469
-5.37328
-3.46292
-1.47213
0.542804
2.54011
4.48742
6.35925
8.13865
9.81515
11.3755
12.7971
14.0533
15.0976
15.8623
16.2484
16.0451
14.9945
13.0391
10.2915
7.0261
4.28854
2.14372
0.874795
0.300463
0.102333
0.0732019
0.14585
0.298617
0.589182
0.913642
1.3746
2.12049
3.09034
3.48156
4.11482
0.00682714
0.0816463
0.137271
0.227871
0.283657
0.360347
0.433743
0.517977
0.609077
0.710753
0.823337
0.946097
1.07249
1.18351
1.24281
1.21851
1.11163
0.937825
0.724226
0.507769
0.302924
0.1008
-0.114101
-0.35668
-0.639928
-0.974755
-1.36974
-1.83124
-2.36382
-2.96532
-3.61224
-4.28616
-5.05186
-5.62063
-5.64794
-9.78952
-10.2184
-11.5344
-12.1489
-12.0761
-11.5607
-10.5728
-9.19536
-7.5256
-5.64367
-3.62519
-1.52868
0.586761
2.67856
4.71364
6.66636
8.52066
10.267
11.8928
13.3759
14.6915
15.7937
16.6129
17.0537
16.8926
15.8327
13.796
10.8302
7.36495
4.44699
2.12514
0.758653
0.144424
-0.0472505
-0.0290842
0.104034
0.304911
0.631567
0.992605
1.46533
2.20723
3.11721
3.60456
4.10265
0.062582
0.0355156
0.141252
0.216631
0.288814
0.369403
0.453808
0.547021
0.649076
0.761866
0.886636
1.02171
1.15793
1.26902
1.31449
1.27333
1.15088
0.961419
0.742396
0.52849
0.324571
0.118731
-0.104206
-0.358833
-0.65841
-1.01459
-1.43708
-1.93362
-2.51021
-3.16684
-3.88764
-4.66652
-5.55014
-6.2231
-6.45069
-10.8481
-11.0675
-12.2979
-12.9297
-12.817
-12.2405
-11.1733
-9.69625
-7.91573
-5.92097
-3.79053
-1.58539
0.632358
2.8196
4.94265
6.97587
8.90433
10.7195
12.41
13.954
15.3286
16.4893
17.3641
17.8632
17.7515
16.6854
14.5716
11.3063
7.7107
4.57898
2.06992
0.599195
-0.0576975
-0.234192
-0.151776
0.0529332
0.307086
0.670306
1.06322
1.55224
2.28183
3.1472
3.7263
4.03999
0.113099
-0.00626888
0.146706
0.208067
0.296742
0.381782
0.477789
0.580582
0.694222
0.818749
0.956213
1.10335
1.24634
1.35054
1.37842
1.32081
1.18036
0.978688
0.760871
0.551745
0.348598
0.13871
-0.0924847
-0.359372
-0.675584
-1.0536
-1.50431
-2.03703
-2.65942
-3.37413
-4.17284
-5.06034
-6.06644
-6.90693
-7.61244
-11.9059
-11.9968
-13.0921
-13.7471
-13.5907
-12.946
-11.7959
-10.2146
-8.31803
-6.20573
-3.95926
-1.64232
0.679756
2.96348
5.17476
7.28811
9.28992
11.1731
12.9271
14.5312
15.9644
17.184
18.1151
18.6761
18.6213
17.5521
15.3703
11.7486
8.02964
4.67864
1.97531
0.39047
-0.313904
-0.464473
-0.297348
-0.00811444
0.3048
0.705243
1.1257
1.63663
2.35121
3.1838
3.77738
4.0215
0.159254
-0.0436961
0.153729
0.202536
0.307706
0.397843
0.506022
0.619002
0.744817
0.881625
1.03201
1.18988
1.33421
1.4245
1.43431
1.35897
1.20018
0.993573
0.78194
0.578003
0.375083
0.16079
-0.0788429
-0.358145
-0.691225
-1.09147
-1.5711
-2.1411
-2.81108
-3.5867
-4.46707
-5.4661
-6.60186
-7.67259
-9.06253
-12.9
-13.0045
-13.9174
-14.6016
-14.4001
-13.6787
-12.441
-10.7508
-8.73308
-6.49848
-4.13171
-1.69955
0.729101
3.11051
5.41031
7.60339
9.67772
11.6277
13.4443
15.1075
16.5987
17.8774
18.8651
19.4913
19.5017
18.4326
16.1501
12.217
8.31129
4.74342
1.83795
0.125825
-0.63288
-0.744827
-0.468524
-0.0796951
0.297934
0.736247
1.18088
1.71966
2.42257
3.22802
3.79682
4.01559
0.201448
-0.0765728
0.162389
0.200317
0.32189
0.417846
0.538736
0.662506
0.801026
0.950522
1.11351
1.27903
1.41715
1.48932
1.48174
1.3861
1.21347
1.00988
0.806631
0.607278
0.403964
0.184983
-0.0631824
-0.354962
-0.70506
-1.12788
-1.63707
-2.24543
-2.96474
-3.80397
-4.76926
-5.88178
-7.15407
-8.50243
-10.6773
-13.7446
-14.0546
-14.7714
-15.4937
-15.2481
-14.4405
-13.1095
-11.3053
-9.16123
-6.79963
-4.30815
-1.75716
0.780533
3.26098
5.64965
7.92206
10.068
12.0837
13.9618
15.6831
17.2313
18.5692
19.6132
20.3075
20.3919
19.3328
16.8304
12.7429
8.56255
4.77369
1.65392
-0.201466
-1.0236
-1.08279
-0.668352
-0.16231
0.28662
0.763085
1.22834
1.80177
2.49709
3.27675
3.86465
4.04007
0.239725
-0.104626
0.172698
0.2016
0.339393
0.441955
0.576058
0.711208
0.862878
1.02522
1.19952
1.36711
1.49148
1.54529
1.51912
1.4029
1.22504
1.02991
0.835054
0.639367
0.435141
0.211326
-0.0453414
-0.349557
-0.716738
-1.16241
-1.70177
-2.34955
-3.11987
-4.02519
-5.07803
-6.30486
-7.71815
-9.3627
-12.269
-14.3898
-15.127
-15.6549
-16.4219
-16.137
-15.2339
-13.8026
-11.8784
-9.6026
-7.10945
-4.4888
-1.81519
0.834195
3.41521
5.89317
8.24446
10.4611
12.5413
14.4796
16.2578
17.8621
19.2588
20.3583
21.1236
21.2908
20.2744
17.3682
13.2821
8.77759
4.76794
1.41896
-0.59733
-1.49448
-1.48617
-0.900156
-0.256372
0.271257
0.785554
1.2666
1.88067
2.57486
3.33589
3.9485
4.13661
0.273935
-0.127583
0.184609
0.206496
0.360236
0.470246
0.618026
0.765116
0.930249
1.10513
1.28768
1.44958
1.5559
1.59256
1.54488
1.41322
1.23898
1.05435
0.866899
0.674035
0.468576
0.239957
-0.0250507
-0.341562
-0.72582
-1.19458
-1.76468
-2.4529
-3.27583
-4.24939
-5.39166
-6.73231
-8.28672
-10.2124
-13.6611
-14.8239
-16.1818
-16.5706
-17.3849
-17.0676
-16.061
-14.5219
-12.4705
-10.0572
-7.428
-4.67375
-1.87362
0.890257
3.57352
6.14125
8.57098
10.8573
13.0007
14.9979
16.8317
18.4907
19.9459
21.0991
21.9382
22.1959
21.3086
17.8324
13.7686
8.95472
4.72361
1.12897
-1.06676
-2.05367
-1.96263
-1.16736
-0.362164
0.252551
0.803548
1.29393
1.9509
2.65556
3.40423
4.03753
4.22489
0.303829
-0.145188
0.198035
0.215054
0.384382
0.502721
0.664599
0.824138
1.00282
1.18902
1.37431
1.52279
1.61135
1.62969
1.56
1.42235
1.25739
1.08296
0.901775
0.711138
0.504371
0.271153
-0.0019151
-0.330503
-0.731782
-1.22382
-1.82521
-2.55485
-3.43182
-4.47539
-5.70802
-7.16037
-8.85097
-11.0107
-14.7088
-15.0892
-17.2069
-17.5231
-18.3834
-18.0419
-16.9229
-15.2689
-13.0825
-10.5248
-7.75515
-4.86298
-1.93239
0.948935
3.73628
6.39434
8.90202
11.2569
13.4622
15.517
17.405
19.117
20.63
21.8344
22.7498
23.0996
22.4183
18.3376
14.1913
9.10158
4.63919
0.780151
-1.61476
-2.71026
-2.52009
-1.47344
-0.47981
0.231597
0.817083
1.30925
2.00833
2.73863
3.47827
4.14081
4.37633
0.329094
-0.157195
0.212864
0.227272
0.411741
0.539314
0.71566
0.888061
1.07997
1.27461
1.45486
1.58588
1.65841
1.65503
1.56873
1.43443
1.28063
1.11523
0.939409
0.750718
0.542803
0.305337
0.0245735
-0.315824
-0.734037
-1.24954
-1.88272
-2.65466
-3.58692
-4.70174
-6.02451
-7.58443
-9.40099
-11.7273
-15.3988
-15.3094
-18.2056
-18.5058
-19.4121
-19.061
-17.8212
-16.0447
-13.7153
-11.0057
-8.0906
-5.05627
-1.99131
1.0105
3.90388
6.65293
9.23803
11.6603
13.9261
16.0369
17.9777
19.7409
21.3107
22.5626
23.5565
23.9922
23.4272
18.9743
14.5741
9.22297
4.5134
0.369176
-2.24697
-3.47451
-3.16667
-1.82174
-0.609213
0.209966
0.826369
1.31166
2.0533
2.82446
3.55867
4.23602
4.49899
0.349381
-0.163366
0.22897
0.243093
0.442168
0.579886
0.771003
0.956514
1.16049
1.35827
1.52586
1.6403
1.69557
1.66956
1.57656
1.45137
1.30828
1.15076
0.979744
0.793029
0.584317
0.34305
0.0550016
-0.296917
-0.731966
-1.27109
-1.93653
-2.75155
-3.74006
-4.92667
-6.33788
-7.9988
-9.92612
-12.3496
-15.8229
-15.6237
-19.1877
-19.5201
-20.4597
-20.1203
-18.7566
-16.8499
-14.3697
-11.4999
-8.43401
-5.25322
-2.05008
1.07528
4.07679
6.91756
9.57953
12.0678
14.3925
16.558
18.5499
20.3622
21.9877
23.2823
24.3561
24.8805
24.1627
19.6825
14.9023
9.31848
4.34553
-0.106188
-2.96905
-4.35662
-3.91064
-2.21508
-0.749917
0.189801
0.831891
1.29967
2.08598
2.91308
3.6449
4.34824
4.64685
0.364352
-0.163509
0.246204
0.262395
0.475457
0.62422
0.830329
1.02886
1.24221
1.43559
1.58686
1.68689
1.72087
1.67771
1.58766
1.47332
1.33981
1.18935
1.02298
0.838519
0.629481
0.384904
0.089986
-0.27317
-0.724959
-1.28784
-1.98595
-2.84468
-3.89001
-5.14805
-6.64418
-8.39674
-10.4164
-12.8821
-16.1153
-16.1427
-20.1306
-20.5682
-21.5171
-21.21
-19.7268
-17.6845
-15.0463
-12.0078
-8.78511
-5.45331
-2.10824
1.14371
4.25549
7.1888
9.92709
12.48
14.8619
17.0805
19.1218
20.9809
22.6606
23.9919
25.1477
25.8088
24.5981
20.3743
15.1655
9.38754
4.13628
-0.646238
-3.7851
-5.36474
-4.7597
-2.65538
-0.900894
0.173955
0.834398
1.27133
2.10431
3.00097
3.73539
4.45586
4.81591
0.373749
-0.157536
0.264382
0.284973
0.511333
0.67202
0.893212
1.10398
1.32163
1.50333
1.63975
1.72385
1.73521
1.68515
1.60374
1.4998
1.37487
1.2311
1.06952
0.887766
0.678921
0.431517
0.130124
-0.244007
-0.71245
-1.29921
-2.03032
-2.93318
-4.03539
-5.36332
-6.93869
-8.77082
-10.8637
-13.3404
-16.3907
-16.9639
-20.9523
-21.6427
-22.5839
-22.3205
-20.7252
-18.5465
-15.7446
-12.5296
-9.14373
-5.65601
-2.16521
1.21629
4.44055
7.46729
10.2814
12.8973
15.3346
17.6045
19.6937
21.5968
23.3293
24.6905
25.9312
26.9266
24.892
20.9774
15.3842
9.43136
3.88755
-1.2491
-4.69662
-6.5037
-5.72
-3.14309
-1.06021
0.166225
0.8349
1.22436
2.10647
3.08263
3.82926
4.56024
4.97137
0.377468
-0.145516
0.283285
0.310544
0.549457
0.722907
0.959023
1.17982
1.39453
1.56145
1.68542
1.74886
1.74317
1.696
1.62486
1.53035
1.41344
1.27635
1.11995
0.941402
0.733254
0.483467
0.175949
-0.208931
-0.693949
-1.30468
-2.06902
-3.01613
-4.17461
-5.56944
-7.21608
-9.11393
-11.2633
-13.7421
-16.6949
-18.0091
-21.5432
-22.7373
-23.667
-23.4499
-21.7477
-19.4325
-16.4633
-13.0649
-9.5097
-5.86078
-2.22032
1.29368
4.63256
7.75369
10.6431
13.3204
15.8109
18.1305
20.2658
22.2102
23.9934
25.3766
26.6925
28.3194
25.2208
21.4931
15.5801
9.45152
3.60236
-1.91025
-5.70138
-7.77398
-6.79495
-3.67685
-1.22466
0.171648
0.83474
1.15601
2.09192
3.15578
3.92635
4.67173
5.13883
0.375588
-0.127691
0.302656
0.338748
0.589436
0.776413
1.02671
1.25311
1.45798
1.6122
1.72166
1.7627
1.75056
1.71185
1.65057
1.56478
1.45573
1.32562
1.17487
1.00003
0.793027
0.541236
0.227888
-0.167549
-0.669074
-1.30383
-2.10146
-3.09258
-4.30583
-5.76291
-7.47086
-9.42101
-11.616
-14.1043
-17.0339
-19.0964
-21.8149
-23.8687
-24.7808
-24.6004
-22.7932
-20.3391
-17.2
-13.6129
-9.88267
-6.0671
-2.27283
1.37662
4.83222
8.04867
11.0129
13.7499
16.2916
18.6588
20.8384
22.8211
24.6524
26.049
27.3942
29.7494
25.7061
21.9573
15.7583
9.4494
3.28541
-2.6223
-6.79254
-9.17038
-7.98334
-4.25285
-1.3894
0.196871
0.835631
1.06291
2.05952
3.22165
4.02644
4.77766
5.32065
0.36834
-0.104445
0.322214
0.369165
0.630826
0.831918
1.09441
1.31989
1.51236
1.65637
1.74571
1.77016
1.76149
1.73272
1.68054
1.60318
1.50218
1.37949
1.23487
1.06416
0.858673
0.605181
0.286236
-0.119605
-0.637571
-1.29634
-2.12714
-3.16153
-4.42697
-5.93986
-7.69843
-9.69068
-11.9268
-14.4389
-17.3813
-19.9991
-21.8664
-25.0886
-25.9519
-25.7738
-23.8599
-21.2631
-17.9517
-14.1716
-10.2618
-6.27442
-2.32203
1.46593
5.0403
8.35295
11.3916
14.1867
16.7773
19.19
21.412
23.4298
25.3058
26.7073
28.0041
30.9219
26.2813
22.3463
15.9175
9.4274
2.94241
-3.37682
-7.96056
-10.6828
-9.27846
-4.86419
-1.54745
0.250712
0.839765
0.940892
2.00736
3.28027
4.12796
4.8798
5.48931
0.356056
-0.0762585
0.341654
0.401322
0.673123
0.888459
1.1591
1.37759
1.56023
1.69128
1.75833
1.77725
1.77746
1.75823
1.71472
1.64587
1.55333
1.43851
1.30043
1.13419
0.930478
0.675507
0.351135
-0.0649942
-0.599327
-1.28201
-2.14562
-3.22191
-4.53567
-6.09664
-7.89651
-9.92568
-12.2036
-14.7533
-17.7145
-20.6227
-22.0195
-26.4355
-27.2115
-26.9746
-24.9468
-22.2015
-18.7147
-14.7385
-10.6459
-6.48196
-2.36715
1.56247
5.25767
8.66725
11.7799