/*--------------------------------*- C++ -*----------------------------------*\
| =========                 |                                                 |
| \\      /  F ield         | OpenFOAM: The Open Source CFD Toolbox           |
|  \\    /   O peration     | Version:  4.1                                   |
|   \\  /    A nd           | Web:      www.OpenFOAM.org                      |
|    \\/     M anipulation  |                                                 |
\*---------------------------------------------------------------------------*/
FoamFile
{
    version     2.0;
    format      ascii;
    class       surfaceScalarField;
    location    "25";
    object      phi;
}
// * * * * * * * * * * * * * * * * * * * * * * * * * * * * * * * * * * * * * //

dimensions      [0 3 -1 0 0 0 0];

internalField   nonuniform List<scalar> 
13220
(
-780.612
2080.51
-1209.62
1729.21
-1650.33
1740.61
-1969.54
1619.11
-2228.01
1558.68
-2409.08
1480.96
-2521.86
1412.68
-2566.16
1344.51
-2544.74
1278.48
-2451.55
1206.71
-2274.53
1123.18
-1992.29
1017.66
-1561.92
869.536
-929.61
667.889
370.29
-229.75
2310.26
-512.753
2012.21
-817.176
2045.03
-1070.86
1872.8
-1316.78
1804.6
-1524.98
1689.17
-1712.06
1599.76
-1871.2
1503.65
-1997.92
1405.19
-2057.76
1266.55
-1963.85
1029.26
-1596.57
650.383
-989.609
262.571
-407.467
85.7488
-37.1771
-202.048
2512.31
-438.711
2248.88
-623.39
2229.71
-755.559
2004.96
-878.201
1927.24
-960.369
1771.33
-1026.7
1666.09
-1070.56
1547.52
-1095.55
1430.18
-1089.46
1260.46
-1018.76
958.563
-832.491
464.122
-598.609
28.6955
-351.138
-161.714
-388.315
35.1248
2477.19
-24.2053
2308.21
-22.9881
2228.49
1.03844
1980.94
30.1995
1898.08
81.0408
1720.49
143.649
1603.48
224.158
1467.01
313.537
1340.81
386.157
1187.85
378.042
966.679
206.368
635.8
-45.4264
280.498
-101.719
-105.414
-490.034
146.484
2330.71
128.422
2326.27
187.661
2169.26
253.973
1914.63
330.7
1821.36
411.063
1640.13
500.749
1513.8
599.572
1368.19
705.559
1234.82
796.893
1096.51
828.115
935.457
727.779
736.14
512.366
495.916
210.009
196.949
-280.025
145.147
2185.56
154.486
2316.93
211.511
2112.23
274.784
1851.36
348.563
1747.58
416.21
1572.49
486.723
1443.29
551.809
1303.1
613.109
1173.52
662.521
1047.1
680.496
917.482
634.07
782.562
509.105
620.877
290.149
415.896
10.1242
95.5893
2089.97
155.204
2257.32
223.512
2043.93
298.616
1776.25
378.728
1667.47
456.635
1494.58
530.223
1369.7
601.08
1232.24
666.004
1108.6
720.168
992.937
742.453
895.197
701.971
823.047
564.958
757.893
321.679
659.181
331.803
12.7643
2077.21
89.9173
2180.16
154.311
1979.53
197.375
1733.19
247.195
1617.65
322.086
1419.69
441.931
1249.85
612.491
1061.68
801.081
920.005
959.232
834.785
1021.47
832.964
949.347
895.16
728.612
978.624
401.811
985.975
733.614
-127.228
2204.43
-128.246
2181.18
-165.746
2017.03
-266.088
1833.53
-360.241
1711.8
-421.211
1480.66
-400.476
1229.12
-306.173
967.379
-151.709
765.541
47.5961
635.48
249.772
630.788
382.846
762.09
375.76
985.713
219.869
1141.87
953.483
-189.094
2393.53
-409.361
2401.45
-607.305
2214.98
-848.701
2074.93
-1101.95
1965.05
-1359.8
1738.5
-1595.61
1464.93
-1801.08
1172.85
-1946.24
910.703
-1972.26
661.494
-1807.8
466.334
-1422.82
377.106
-875.141
438.026
-337.529
604.252
615.954
130.032
2263.49
-113.529
2645.01
-307.035
2408.48
-447.205
2215.1
-577.762
2095.61
-740.057
1900.79
-945.54
1670.41
-1180.01
1407.32
-1420.85
1151.54
-1643.44
884.089
-1783.64
606.53
-1734.36
327.827
-1390.71
94.3772
-720.682
-65.7756
-104.729
486.007
1777.49
480.028
2650.99
384.899
2503.61
378.316
2221.68
434.545
2039.38
477.898
1857.44
474.488
1673.82
412.05
1469.75
305.02
1258.57
152.422
1036.69
-38.0513
797.002
-235.228
524.995
-335.66
194.799
-284.486
-116.958
-389.215
547.333
1230.15
747.136
2451.18
792.829
2457.91
894.22
2120.28
1063.46
1870.14
1229.99
1690.92
1360.75
1543.05
1436.38
1394.12
1455.73
1239.22
1413.97
1078.44
1299.56
911.412
1085.96
738.598
740.75
540.01
306.091
317.7
-83.1238
438.68
791.471
661.075
2228.79
674.576
2444.41
622.105
2172.75
615.796
1876.44
655.642
1651.07
717.224
1481.47
777.657
1333.69
820.765
1196.11
832.238
1066.97
804.033
939.616
730.778
811.851
584.07
686.717
358.553
543.215
275.429
333.548
1238.85
2033.25
2538.89
2690.38
2703.42
2629.58
2460.89
2218.46
1963.39
1676.35
1341.71
982.016
541.373
3.16406e-06
467.467
-467.467
467.467
467.467
467.467
1093.14
-625.67
1093.14
1093.14
1093.14
1580.71
-487.572
1580.71
1580.71
1913.37
-332.664
1913.37
1913.37
1913.37
2107.92
-194.55
2107.92
2107.92
2186.96
-79.0325
2186.96
2186.96
2186.96
2178.03
8.92348
2178.03
2178.03
2178.03
2104.08
73.9511
2104.08
2104.08
1971.51
132.575
1971.51
1971.51
1971.51
1791.94
179.563
1791.94
1791.94
1578.27
213.675
1578.27
1578.27
1578.27
1393.53
184.742
1393.53
1393.53
1393.53
1245.86
147.668
1245.86
1245.86
1034.95
210.911
1034.95
1034.95
1034.95
721.665
313.283
721.665
721.665
721.665
324.517
397.148
324.517
324.517
-40.9841
365.501
-40.9841
-40.984
-40.984
-766.694
725.71
-766.694
-766.694
-2036.58
1269.89
-2036.58
-2036.58
-2036.58
-3678.48
1641.9
-3678.48
-3678.48
-3678.48
-5597.39
1918.91
-5597.38
-5597.39
-7775.45
2178.06
-7775.45
-7775.45
-7623.08
-7473.01
-7322.15
-9543.65
2371.81
-9383.42
-9206.77
-9021.05
-8836.04
-8651.39
-8466.99
-8281.16
-8087.8
-10344.6
2445.72
-10144.3
-9943.26
-9741.48
-9527.97
-9312.78
-9096.67
-8880.4
-8663.39
-10943.1
2496.91
-10712.6
-10482
-10250.8
-10018.5
-9780.54
-9532.6
-9283.28
-9031.95
-8779.35
-11002.2
2464.35
-10737.3
-10469.6
-10199.8
-9928.36
-9655.59
-9371.25
-9081.01
-8791.84
-10767.7
2247.98
-10489.9
-10208.3
-9916.31
-9625.3
-9333.89
-9042.74
-8750.14
-8435.32
-9917.75
1786.32
-9612.11
-9306.38
-9000.4
-8675.39
-8343.31
-8015.02
-7689.96
-7371.17
-8104.31
1050.12
-7779.94
-7465.52
-7156.62
-6853.57
-6555.03
-6241.5
-5932
-5623.97
-5320.93
-5098.23
91.788
-4822.16
-4562.69
-4308.23
-4061.16
-3822.46
-3636.3
-3546.83
-3460.65
-2838.85
-534.216
-2760.52
-2687.47
-2687.47
-2239.01
-448.456
-1759.31
-479.703
-1759.31
-1307.52
-451.785
-1307.52
-876.709
-430.813
-504.4
-372.31
-504.4
-159.972
-344.428
102.036
-262.008
102.036
328.019
-225.983
328.019
519.878
-191.859
680.842
-160.963
680.842
818.133
-137.291
818.133
932.966
-114.833
1024.83
-91.8674
1024.83
1108.44
-83.606
1178.15
-69.7115
1178.15
1245.56
-67.4123
1245.56
1310.93
-65.362
1358.87
-47.9408
1358.87
1400.82
-41.9552
1400.82
1438.51
-37.6905
1455.31
-16.8004
1455.31
1471.59
-16.2795
1464.28
7.30662
1464.28
1456.3
7.98956
1456.3
1446.85
9.44624
1427.2
19.6482
1427.2
1418.59
8.60708
1418.59
1420.59
-2.00076
1426.73
-6.13835
1426.73
1453.85
-27.1174
1474.4
-20.5517
1474.4
1535.61
-61.2091
1535.61
1584.82
-49.2135
1611.34
-26.5145
1611.34
1649.88
-38.5428
1649.88
1664.11
-14.2273
1673.73
-9.62312
1673.73
1680.53
-6.7974
1677.13
3.39971
1677.13
1679.37
-2.24409
1679.37
1673.1
6.27303
1664.63
8.47472
1664.63
1667.69
-3.06155
1667.69
1670.95
-3.26451
1672.99
-2.03698
1672.99
1690.03
-17.0406
1701.49
-11.4582
1701.49
1731.5
-30.0094
1731.5
-34.1689
-295.106
-949.49
-300.455
-1125.03
-309.753
-1132.13
-325.794
-1199.25
-352.345
-1216.38
-394.404
-1228.72
-453.836
-1212.61
-528.402
-1183.77
-610.574
-1149.88
-690.464
-1126.31
-759.259
-1121.86
-811.879
-1139.63
-847.306
-1176.37
-867.353
-1225.88
-874.994
-1281.21
-873.155
-1336.05
-864.18
-1385.05
-849.828
-1423.88
-831.518
-1449.34
-810.636
-1459.85
-788.731
-1456.01
-767.563
-1440.63
-749.009
-1417.4
-734.918
-1388.36
-726.954
-1351.71
-726.578
-1302.09
-734.986
-1236.94
-749.511
-1161.64
-750.375
-1039.12
-703.841
-674.896
-635.731
70.4873
-600.243
650.349
-575.897
918.631
-553.192
1120.57
-531.258
1341.83
-510.241
1579.19
-489.953
1824.89
-470.237
2072.07
-450.922
2315.56
-431.694
2550.34
-412.328
2772.1
-392.707
2977.65
-372.806
3164.02
-352.681
3329.34
-332.407
3472.94
-312.05
3595.64
-291.537
3699.72
-270.718
3787.16
-249.381
3859.12
-227.293
3914.4
-204.433
3949.39
-180.911
3963.4
-156.772
3959.51
-131.812
3938.34
-106.149
3888.6
-80.2215
3803.39
-54.4589
3681.74
-29.5374
3506.02
-6.5321
3236.32
13.0896
2819.42
28.1434
2254.82
39.2433
1683.34
47.3454
1165.45
53.3869
724.638
58.2854
376.569
64.0974
139.174
64.5952
-96.0538
62.5116
-178.006
62.2298
-126.335
67.3295
181.025
68.3303
255.383
67.5214
170.498
76.1373
177.644
86.5295
-4.84755
45.7814
-1436.41
33.1736
-2284.34
24.1225
-3003.73
26.031
-2334.34
1658.03
-312.45
-945.334
-319.578
-1117.9
-335.003
-1116.71
-362.762
-1171.49
-407.494
-1171.64
-472.846
-1163.37
-555.369
-1130.09
-645.866
-1093.27
-731.587
-1064.16
-802.124
-1055.77
-852.557
-1071.43
-883.443
-1108.74
-898.414
-1161.4
-901.725
-1222.57
-896.823
-1286.11
-885.972
-1346.9
-870.497
-1400.52
-851.235
-1443.14
-829.016
-1471.56
-805.055
-1483.81
-781.177
-1479.89
-759.793
-1462.01
-743.619
-1433.57
-735.17
-1396.81
-736.19
-1350.69
-747.312
-1290.97
-768.18
-1216.08
-794.642
-1135.18
-803.612
-1030.15
-746.604
-731.905
-640.575
-35.5413
-587.585
597.358
-566.85
897.896
-546.433
1100.16
-525.196
1320.59
-505.187
1559.18
-485.999
1805.7
-467.247
2053.32
-448.74
2297.05
-430.148
2531.75
-411.288
2753.24
-392.07
2958.44
-372.483
3144.43
-352.6
3309.46
-332.508
3452.84
-312.281
3575.42
-291.855
3679.29
-271.092
3766.4
-249.788
3837.81
-227.714
3892.33
-204.858
3926.53
-181.336
3939.88
-157.195
3935.37
-132.221
3913.36
-106.523
3862.9
-80.5297
3777.4
-54.6451
3655.85
-29.4861
3480.86
-6.04784
3212.88
14.2572
2799.11
30.2516
2238.83
42.57
1671.02
52.1472
1155.88
59.8369
716.949
66.594
369.812
75.513
130.255
75.1168
-95.6576
68.5225
-171.411
63.4888
-121.301
70.0632
174.45
71.1266
254.319
68.4203
173.204
78.682
167.383
96.8115
-22.9771
50.7498
-1390.35
36.0851
-2269.68
28.1678
-2995.81
24.6954
-2330.87
1652.72
-323.968
-939.255
-334.586
-1107.28
-357.949
-1093.34
-398.204
-1131.23
-458.354
-1111.49
-537.738
-1083.99
-627.388
-1040.44
-715.011
-1005.65
-789.231
-989.937
-844.241
-1000.76
-879.87
-1035.8
-899.402
-1089.21
-906.958
-1153.84
-905.963
-1223.57
-898.681
-1293.39
-886.396
-1359.18
-869.806
-1417.11
-849.467
-1463.48
-826.225
-1494.8
-801.591
-1508.44
-777.951
-1503.53
-758.445
-1481.52
-746.402
-1445.61
-744.453
-1398.76
-753.622
-1341.52
-772.978
-1271.61
-800.282
-1188.77
-830.816
-1104.64
-844.096
-1016.87
-788.913
-787.088
-659.291
-165.163
-577.721
515.789
-552.987
873.162
-536.423
1083.59
-516.989
1301.15
-498.087
1540.28
-480.227
1787.84
-462.834
2035.93
-445.514
2279.73
-427.891
2514.13
-409.808
2735.16
-391.212
2939.84
-372.118
3125.34
-352.615
3289.95
-332.81
3433.04
-312.791
3555.4
-292.508
3659.01
-271.835
3745.73
-250.578
3816.55
-228.523
3870.27
-205.671
3903.68
-182.147
3916.36
-157.993
3911.21
-132.985
3888.35
-107.226
3837.14
-81.1269
3751.3
-55.0527
3629.78
-29.5488
3455.36
-5.52194
3188.85
15.6862
2777.91
32.9291
2221.59
46.8478
1657.1
58.3349
1144.39
68.1098
707.174
76.8843
361.037
86.8002
120.339
86.1001
-94.9575
78.7956
-164.107
70.3869
-112.892
74.7157
170.121
75.5971
253.438
71.5633
177.238
81.0511
157.895
101.359
-43.2848
54.2171
-1343.21
37.187
-2252.65
28.4026
-2987.03
12.3592
-2314.82
1653.62
-339.803
-929.853
-357.079
-1090
-392.396
-1058.03
-448.899
-1074.73
-525.715
-1034.68
-616.554
-993.149
-708.056
-948.934
-787.776
-925.931
-848.049
-929.663
-887.811
-960.998
-910.201
-1013.41
-919.733
-1079.68
-920.314
-1153.26
-914.572
-1229.31
-903.945
-1304.02
-889.083
-1374.04
-870.286
-1435.91
-847.964
-1485.8
-823.087
-1519.68
-797.626
-1533.91
-774.744
-1526.41
-758.462
-1497.8
-752.618
-1451.46
-759.439
-1391.94
-778.449
-1322.51
-806.528
-1243.53
-839.473
-1155.83
-872.581
-1071.53
-889.282
-1000.17
-838.706
-837.664
-690.98
-312.89
-575.632
400.442
-538.37
835.9
-523.312
1068.53
-506.745
1284.59
-489.504
1523.04
-473.03
1771.36
-457.185
2020.08
-441.37
2263.92
-425.026
2497.78
-407.988
2718.12
-390.233
2922.08
-371.808
3106.91
-352.825
3270.97
-333.415
3413.63
-313.679
3535.66
-293.587
3638.91
-273.033
3725.17
-251.836
3795.36
-229.802
3848.24
-206.948
3880.83
-183.411
3892.82
-159.227
3887.03
-134.166
3863.29
-108.322
3811.3
-82.0852
3725.06
-55.7768
3603.47
-29.8654
3429.44
-5.15938
3164.15
17.0952
2755.65
35.8103
2202.87
51.6272
1641.29
65.3774
1130.64
77.5926
694.959
88.6553
349.975
100.007
108.987
99.4778
-94.4279
91.5008
-156.13
79.9368
-101.328
81.7749
168.283
81.854
253.359
77.1156
181.977
86.2806
148.73
107.858
-64.8624
58.4886
-1293.84
37.9622
-2232.12
26.6199
-2975.69
2.46383
-2290.67
1639.04
-360.003
-915.012
-388.114
-1061.89
-439.148
-1006.99
-513.212
-1000.67
-603.388
-944.501
-698.04
-898.497
-782.541
-864.433
-847.837
-860.636
-891.583
-885.916
-916.826
-935.755
-928.444
-1001.79
-930.839
-1077.28
-926.97
-1157.13
-918.42
-1237.86
-905.804
-1316.64
-889.243
-1390.6
-868.793
-1456.36
-844.894
-1509.7
-818.891
-1545.68
-793.516
-1559.28
-773
-1546.93
-762.295
-1508.51
-765.287
-1448.47
-782.847
-1374.38
-812.055
-1293.3
-847.248
-1208.34
-882.624
-1120.45
-914.327
-1039.83
-931.69
-982.809
-889.349
-880.004
-733.668
-468.571
-582.751
249.524
-525.602
778.751
-508.185
1051.12
-494.014
1270.42
-479.221
1508.25
-464.477
1756.62
-450.263
2005.87
-436.178
2249.83
-421.436
2483.04
-405.746
2702.43
-389.086
2905.42
-371.537
3089.36
-353.24
3252.67
-334.35
3394.74
-314.99
3516.3
-295.153
3619.08
-274.757
3704.78
-253.638
3774.24
-231.629
3826.23
-208.768
3857.97
-185.206
3869.26
-160.974
3862.8
-135.836
3838.16
-109.88
3785.34
-83.4699
3698.65
-56.8798
3576.88
-30.4927
3403.06
-5.00554
3138.66
18.452
2732.19
38.8668
2182.46
56.888
1623.27
73.2802
1114.25
88.3582
679.881
102.127
336.205
115.166
95.9477
114.904
-94.1655
106.116
-147.342
91.6609
-86.8733
91.0853
168.859
89.9893
254.455
84.5965
187.369
92.8517
140.475
113.958
-85.9691
63.0009
-1242.88
37.9963
-2207.12
22.163
-2959.85
-15.1364
-2253.37
1621.87
-387.751
-891.878
-431.406
-1018.24
-500.418
-937.98
-589.9
-911.184
-686.468
-847.933
-775.962
-809.003
-846.549
-793.846
-894.773
-812.411
-923.113
-857.577
-936.84
-922.028
-940.865
-997.765
-938.583
-1079.57
-931.798
-1163.92
-921.193
-1248.47
-906.812
-1331.02
-888.48
-1408.93
-866.209
-1478.63
-840.681
-1535.23
-813.883
-1572.48
-789.65
-1583.51
-773.516
-1563.06
-771.132
-1510.89
-785.505
-1434.09
-814.895
-1344.99
-853.232
-1254.97
-892.665
-1168.91
-926.787
-1086.33
-953.305
-1013.31
-968.078
-968.036
-935.955
-912.127
-787.384
-617.142
-603.161
65.3013
-516.459
692.049
-492.473
1027.13
-479.113
1257.06
-466.915
1496.05
-454.498
1744.2
-442.122
1993.49
-429.867
2237.58
-416.969
2470.14
-402.932
2688.39
-387.643
2890.14
-371.198
3072.92
-353.772
3235.25
-335.549
3376.52
-316.674
3497.43
-297.171
3599.57
-276.983
3684.59
-255.973
3753.23
-234.002
3804.26
-211.135
3835.1
-187.538
3845.66
-163.242
3838.5
-138.008
3812.92
-111.914
3759.25
-85.301
3672.04
-58.39
3549.97
-31.4719
3376.14
-5.12147
3112.31
19.6647
2707.41
41.9651
2160.15
62.4435
1602.79
81.7952
1094.9
100.082
661.594
116.844
319.444
131.451
81.3408
131.542
-94.2567
122.508
-138.308
105.545
-69.9105
102.431
171.973
99.9265
256.96
93.722
193.574
100.847
133.35
120.589
-105.711
67.8266
-1190.12
37.2883
-2176.58
14.9443
-2937.51
-32.9783
-2205.45
1585.62
-426.163
-857.28
-489.253
-955.147
-575.227
-852.007
-673.818
-812.593
-767.451
-754.3
-843.779
-732.675
-896.74
-740.885
-928.42
-780.732
-944.193
-841.804
-949.633
-916.587
-948.635
-998.763
-943.328
-1084.87
-934.516
-1172.73
-922.23
-1260.75
-906.155
-1347.09
-885.988
-1429.1
-861.85
-1502.77
-834.891
-1562.18
-808.08
-1599.29
-786.732
-1604.86
-777.759
-1572.03
-786.82
-1501.83
-814.581
-1406.33
-855.423
-1304.15
-900.131
-1210.26
-939.872
-1129.17
-968.945
-1057.25
-986.918
-995.341
-995.431
-959.523
-972.378
-935.18
-846.506
-743.014
-639.258
-141.947
-512.563
565.354
-476.868
991.437
-462.766
1242.95
-452.509
1485.79
-442.813
1734.51
-432.724
1983.4
-422.437
2227.29
-411.517
2459.22
-399.391
2676.26
-385.763
2876.51
-370.676
3057.83
-354.329
3218.9
-336.939
3359.13
-318.679
3479.17
-299.603
3580.5
-279.688
3664.67
-258.827
3732.37
-236.915
3782.34
-214.049
3812.23
-190.414
3822.02
-166.041
3814.13
-140.691
3787.57
-114.437
3732.99
-87.5968
3645.2
-60.3339
3522.71
-32.8427
3348.65
-5.56655
3085.03
20.6485
2681.19
44.9917
2135.81
68.151
1579.63
90.7503
1072.3
112.563
639.781
132.579
299.428
148.776
65.1434
149.345
-94.8255
140.104
-129.068
121.177
-50.9829
115.611
177.539
111.549
261.022
104.525
200.597
110.218
127.657
127.536
-123.029
72.9301
-1135.51
35.7384
-2139.39
4.87705
-2906.65
-48.2389
-2152.33
1534.32
-478.052
-808.647
-561.736
-871.462
-659.242
-754.501
-757.509
-714.326
-839.172
-672.637
-897.493
-674.354
-932.76
-705.619
-950.726
-762.766
-957.453
-835.076
-957.505
-916.535
-953.378
-1002.89
-946.067
-1092.18
-935.641
-1183.15
-921.724
-1274.67
-903.822
-1365
-881.646
-1451.28
-855.609
-1528.81
-827.624
-1590.17
-802.069
-1624.84
-786.085
-1620.84
-787.676
-1570.44
-811.119
-1478.39
-852.897
-1364.55
-902.819
-1254.22
-949.615
-1163.46
-985.305
-1093.48
-1006.12
-1036.44
-1013.27
-988.19
-1012.25
-960.545
-993.429
-953.998
-895.038
-841.405
-683.196
-353.789
-516.133
398.291
-461.931
937.234
-445.533
1226.56
-436.313
1476.57
-429.188
1727.38
-421.86
1976.08
-413.87
2219.3
-405.041
2450.4
-394.998
2666.22
-383.302
2864.81
-369.848
3044.37
-354.812
3203.87
-338.444
3342.76
-320.949
3461.67
-302.414
3561.96
-282.853
3645.11
-262.193
3711.71
-240.371
3760.52
-217.52
3789.38
-193.846
3798.35
-169.387
3789.67
-143.903
3762.09
-117.47
3706.56
-90.3791
3618.11
-62.7373
3495.06
-34.6375
3320.55
-6.38145
3056.78
21.3525
2653.46
47.8838
2109.28
73.9404
1553.57
100.076
1046.16
125.741
614.116
149.286
275.884
167.091
47.3377
168.181
-95.9148
158.481
-119.367
138.242
-30.7446
130.395
185.386
124.679
266.738
116.935
208.34
121.015
123.577
134.92
-136.934
78.3258
-1078.92
33.2218
-2094.28
-8.21208
-2865.21
-72.2561
-2088.29
1470.54
-544.44
-745.331
-645.405
-770.498
-745.106
-654.799
-833.117
-626.315
-896.715
-609.04
-936.197
-634.872
-956.474
-685.342
-964.484
-754.756
-965.347
-834.213
-962.093
-919.789
-955.939
-1009.05
-947.054
-1101.07
-935.056
-1195.15
-919.357
-1290.37
-899.41
-1384.94
-875.077
-1475.61
-847.286
-1556.6
-819.106
-1618.35
-796.822
-1647.13
-789.558
-1628.11
-805.438
-1554.56
-845.214
-1438.61
-899.511
-1310.26
-954.109
-1199.63
-997.859
-1119.71
-1025.49
-1065.85
-1035.81
-1026.12
-1031.13
-992.866
-1018.49
-973.19
-997.81
-974.677
-923.421
-915.794
-727.887
-549.323
-529.679
200.082
-449.213
856.769
-427.685
1205.03
-418.747
1467.63
-413.662
1722.3
-409.272
1971.69
-404.038
2214.07
-397.534
2443.89
-389.688
2658.37
-380.126
2855.25
-368.577
3032.83
-355.109
3190.4
-339.975
3327.62
-323.415
3445.11
-305.554
3544.1
-286.444
3626
-266.053
3691.32
-244.364
3738.83
-221.55
3766.57
-197.846
3774.65
-173.293
3765.12
-147.661
3736.46
-121.03
3679.93
-93.6667
3590.74
-65.6218
3467.02
-36.8825
3291.81
-7.5982
3027.49
21.7366
2624.12
50.5921
2080.42
79.7589
1524.4
109.727
1016.19
139.58
584.263
166.922
248.542
186.282
27.978
187.883
-97.5166
177.662
-109.146
156.581
-9.66398
146.549
195.418
139.105
274.182
130.666
216.779
132.923
121.32
142.633
-146.644
84.0312
-1020.31
29.8842
-2040.14
-23.991
-2811.34
-93.449
-2018.83
1383.37
-623.241
-669.741
-733.324
-660.414
-824.386
-563.737
-894.741
-555.96
-938.433
-565.348
-961.519
-611.786
-970.771
-676.09
-972.334
-753.193
-969.669
-836.878
-964.352
-925.105
-956.661
-1016.74
-946.264
-1111.47
-932.539
-1208.88
-914.812
-1308.09
-892.592
-1407.16
-866.048
-1502.16
-836.94
-1585.7
-810.011
-1645.28
-793.939
-1663.2
-799.5
-1622.55
-833.003
-1521.06
-889.059
-1382.56
-951.823
-1247.49
-1005.23
-1146.22
-1040.93
-1084.02
-1057.47
-1049.3
-1056.15
-1027.45
-1039.73
-1009.28
-1015.02
-997.9
-987.531
-1002.17
-929.496
-973.829
-767.044
-711.774
-553.032
-13.9296
-440.296
744.033
-409.518
1174.25
-400.053
1458.17
-396.484
1718.73
-394.838
1970.04
-392.709
2211.94
-388.927
2440.11
-383.445
2652.89
-376.146
2847.95
-366.729
3023.41
-355.094
3178.76
-341.43
3313.96
-325.997
3429.68
-308.963
3527.07
-290.421
3607.46
-270.381
3671.28
-248.881
3717.33
-226.138
3743.82
-202.415
3750.92
-177.768
3740.47
-151.978
3710.67
-125.131
3653.08
-97.4771
3563.09
-69.0077
3438.55
-39.6014
3262.4
-9.2454
2997.14
21.7659
2593.11
53.0758
2049.11
85.5684
1491.91
119.681
982.079
154.086
549.858
185.509
217.119
206.319
7.16788
208.371
-99.5683
197.578
-98.3526
175.925
11.9885
163.82
207.523
154.602
283.4
145.353
226.028
145.589
121.085
150.628
-151.684
90.058
-959.744
25.8555
-1975.93
-42.2705
-2743.21
-109.143
-1951.96
1271.98
-708.805
-587.514
-816.69
-552.529
-890.151
-490.276
-939.874
-506.237
-965.648
-539.573
-976.477
-600.957
-978.574
-673.993
-976.32
-755.447
-971.527
-841.671
-964.695
-931.937
-955.533
-1025.9
-943.452
-1123.55
-927.732
-1224.6
-907.701
-1328.13
-883.026
-1431.84
-854.41
-1530.77
-824.893
-1615.22
-801.518
-1668.65
-795.631
-1669.09
-818.427
-1599.75
-871.4
-1468.09
-940.807
-1313.15
-1005.71
-1182.59
-1051.74
-1100.19
-1075.44
-1060.32
-1079.2
-1045.54
-1066
-1040.65
-1038.66
-1036.62
-1002.85
-1033.71
-966.24
-1038.78
-915.688
-1024.38
-788.82
-838.642
-577.536
-225.214
-435.838
602.335
-391.977
1130.39
-380.465
1446.66
-377.878
1716.14
-378.631
1970.79
-379.676
2212.98
-379.045
2439.48
-376.238
2650.09
-371.328
2843.04
-364.199
3016.28
-354.64
3169.2
-342.697
3302.02
-328.605
3415.59
-312.57
3511.03
-294.73
3589.62
-275.143
3651.69
-253.902
3696.09
-231.275
3721.2
-207.558
3727.21
-182.821
3715.73
-156.866
3684.71
-129.791
3626.01
-101.829
3535.13
-72.9154
3409.64
-42.8175
3232.31
-11.3488
2965.67
21.412
2560.35
55.3054
2015.22
91.3523
1455.86
129.959
943.473
169.331
510.486
205.154
181.296
227.247
-14.9249
229.614
-101.936
218.132
-86.8707
196.01
34.1112
181.951
221.582
170.932
294.419
160.664
236.295
158.699
123.05
158.853
-151.837
96.4314
-897.322
21.2748
-1900.78
-62.4738
-2659.46
-134.563
-1879.87
1140.82
-793.035
-506.313
-887.508
-458.056
-938.882
-438.902
-969.37
-475.749
-981.429
-527.514
-984.255
-598.132
-982.16
-676.088
-977.684
-759.922
-971.388
-847.968
-963.12
-940.205
-952.308
-1036.71
-938.261
-1137.59
-920.242
-1242.62
-897.648
-1350.72
-870.455
-1459.03
-840.235
-1560.99
-811.913
-1643.54
-795.481
-1685.09
-804.629
-1659.94
-848.426
-1555.96
-919.959
-1396.55
-996.654
-1236.45
-1056.2
-1123.04
-1089.6
-1066.79
-1099.03
-1050.89
-1089.63
-1054.94
-1065.11
-1065.17
-1028.07
-1073.66
-983.011
-1078.76
-937.586
-1084.21
-888.054
-1073.91
-787.407
-939.289
-591.745
-420.876
-433.128
443.717
-375.948
1073.21
-360.535
1431.24
-357.987
1713.59
-360.808
1973.61
-364.878
2217.05
-367.659
2442.26
-367.948
2650.37
-365.656
2840.75
-360.929
3011.55
-353.629
3161.9
-343.654
3292.04
-331.138
3403.07
-316.296
3496.19
-299.312
3572.64
-280.296
3632.67
-259.401
3675.2
-236.948
3698.74
-213.27
3703.53
-188.456
3690.92
-162.336
3658.59
-135.023
3598.69
-106.74
3506.84
-77.3661
3380.26
-46.554
3201.49
-13.9318
2933.05
20.6514
2525.77
57.2603
1978.61
97.1122
1416.01
140.616
899.969
185.449
465.653
226.041
140.704
249.155
-38.0386
251.607
-104.388
239.24
-74.5034
216.613
56.7379
200.701
237.494
187.859
307.261
176.327
247.827
172.027
127.35
167.29
-147.1
103.201
-833.234
16.5523
-1814.13
-82.7313
-2560.18
-148.64
-1813.96
985.378
-867.755
-433.691
-940.951
-384.86
-970.837
-409.016
-986.273
-460.314
-989.236
-524.551
-987.415
-599.952
-982.958
-680.545
-976.981
-765.9
-969.276
-855.673
-959.38
-950.101
-946.62
-1049.47
-930.284
-1153.93
-909.664
-1263.24
-884.319
-1376.07
-854.759
-1488.59
-823.918
-1591.83
-799.363
-1668.1
-794.459
-1689.99
-823.78
-1630.62
-890.285
-1489.45
-975.765
-1311.07
-1051.3
-1160.92
-1098.43
-1075.9
-1115.91
-1049.32
-1110.57
-1056.22
-1088.74
-1076.77
-1054.08
-1099.83
-1008.92
-1118.82
-956.883
-1130.8
-904.647
-1136.44
-853.484
-1125.08
-770.508
-1022.26
-596.353
-595.031
-429.018
276.383
-361.114
1005.31
-341.02
1411.15
-337.123
1709.7
-341.496
1977.99
-348.386
2223.94
-354.597
2448.47
-358.365
2654.14
-359.061
2841.45
-356.898
3009.39
-351.983
3156.99
-344.183
3284.24
-333.485
3392.37
-320.05
3482.76
-304.096
3556.68
-285.788
3614.37
-265.342
3654.75
-243.136
3676.54
-219.542
3679.94
-194.675
3666.05
-168.396
3632.31
-140.843
3571.14
-112.228
3478.23
-82.3811
3350.42
-50.8341
3169.95
-17.0171
2899.23
19.4632
2489.29
58.9262
1939.15
102.867
1372.07
151.748
851.088
202.648
414.752
247.761
95.5911
271.848
-62.1255
274.123
-106.663
260.693
-61.0731
237.529
79.902
219.85
255.173
205.166
321.945
192.134
260.859
185.402
134.082
175.929
-137.626
110.431
-767.736
12.2594
-1715.96
-102.714
-2445.21
-168.254
-1748.42
807.501
-927.161
-375.05
-976.259
-335.762
-988.98
-396.295
-994.293
-455.001
-991.949
-526.895
-987.595
-604.306
-981.618
-686.521
-974.26
-773.259
-964.942
-864.99
-953.102
-961.941
-938.054
-1064.52
-919.107
-1172.87
-895.631
-1286.71
-867.486
-1404.21
-836.067
-1520.01
-806.352
-1621.55
-789.364
-1685.09
-801.582
-1677.77
-855.291
-1576.91
-942.612
-1402.13
-1033.72
-1219.96
-1098.98
-1095.66
-1128.65
-1046.22
-1129.23
-1048.75
-1110.11
-1075.34
-1077.41
-1109.48
-1034.32
-1142.92
-982.997
-1170.14
-926.405
-1187.39
-869.986
-1192.86
-817.059
-1178
-746.144
-1093.18
-596.545
-744.63
-423.402
103.239
-346.223
928.128
-322.352
1387.28
-315.965
1703.31
-320.864
1982.89
-330.295
2233.37
-339.817
2457.99
-347.263
2661.59
-351.382
2845.56
-352.073
3010.08
-349.665
3154.58
-344.188
3278.77
-335.529
3383.71
-323.73
3470.96
-309
3541.95
-291.557
3596.92
-271.682
3634.88
-249.812
3654.67
-226.362
3656.48
-201.474
3641.17
-175.051
3605.89
-147.261
3543.35
-118.312
3449.28
-87.9817
3320.09
-55.6813
3137.65
-20.6274
2864.18
17.8271
2450.83
60.2948
1896.68
108.654
1323.71
163.499
796.242
221.26
356.991
270.349
46.5025
295.378
-87.1549
297.228
-108.513
282.518
-46.3627
258.648
103.771
239.218
274.603
222.663
338.501
207.929
275.593
198.703
143.307
184.768
-123.691
118.203
-701.171
9.25201
-1607.01
-119.212
-2316.74
-178.086
-1689.54
615.188
-969.094
-332.603
-995.979
-308.878
-997.309
-394.965
-996.646
-455.663
-991.46
-532.081
-985.568
-610.198
-978.228
-693.861
-969.271
-782.216
-958.004
-876.258
-943.866
-976.079
-926.198
-1082.19
-904.353
-1194.72
-877.86
-1313.21
-847.105
-1434.97
-814.89
-1552.22
-789.113
-1647.33
-784.85
-1689.35
-820.051
-1642.57
-899.688
-1497.27
-1001.34
-1300.48
-1087.39
-1133.91
-1134.76
-1048.29
-1144.85
-1036.14
-1129.62
-1063.98
-1098.73
-1106.23
-1057.28
-1150.93
-1007.93
-1192.27
-952.66
-1225.41
-893.909
-1246.15
-835.81
-1250.96
-781.977
-1231.84
-719.192
-1155.96
-593.853
-869.969
-417.4
-73.2142
-329.366
840.094
-303.983
1361.9
-295.294
1694.62
-299.34
1986.93
-310.697
2244.73
-323.37
2470.66
-334.496
2672.71
-342.385
2853.45
-346.348
3014.04
-346.653
3154.88
-343.611
3275.72
-337.164
3377.27
-327.228
3461.02
-313.934
3528.66
-297.531
3580.52
-278.368
3615.71
-256.94
3633.24
-233.705
3633.25
-208.843
3616.3
-182.302
3579.35
-154.286
3515.34
-125.005
3420
-94.1882
3289.27
-61.1191
3104.58
-24.7872
2827.84
15.7218
2410.32
61.3655
1851.04
114.537
1270.54
176.082
734.697
241.788
291.286
294.443
-6.15322
319.988
-112.7
321.239
-109.763
304.907
-30.0315
279.935
128.744
258.662
295.876
240.189
356.974
223.592
292.19
211.835
155.064
193.795
-105.651
126.581
-633.956
8.35816
-1488.78
-132.08
-2176.3
-175.751
-1645.87
400.894
-994.774
-305.565
-1004.29
-299.366
-999.442
-399.808
-995.502
-459.604
-988.696
-538.887
-981.468
-617.426
-972.539
-702.791
-961.621
-793.133
-948.034
-889.845
-931.26
-992.853
-910.678
-1102.77
-885.726
-1219.67
-856.221
-1342.71
-823.432
-1467.75
-792.308
-1583.35
-774.632
-1665
-789.381
-1674.6
-852.219
-1579.73
-954.82
-1394.67
-1060.09
-1195.21
-1130.49
-1063.51
-1155.6
-1023.18
-1146.88
-1044.87
-1118.38
-1092.47
-1078.35
-1146.25
-1030.65
-1198.64
-977.452
-1245.46
-920.508
-1282.36
-861.69
-1304.96
-803.822
-1308.83
-749.875
-1285.78
-692.217
-1213.62
-586.066
-976.119
-409.003
-250.278
-308.969
740.06
-284.291
1337.22
-275.364
1685.69
-277.643
1989.21
-289.812
2256.9
-305.332
2486.18
-320.034
2687.42
-331.847
2865.27
-339.523
3021.72
-342.89
3158.25
-342.424
3275.26
-338.313
3373.16
-330.435
3453.14
-318.799
3517.02
-303.631
3565.35
-285.337
3597.42
-264.474
3612.38
-241.544
3610.32
-216.765
3591.52
-190.143
3552.73
-161.924
3487.12
-132.321
3390.4
-101.019
3257.97
-67.171
3070.73
-29.5232
2790.2
13.1259
2367.68
62.1476
1802.02
120.612
1212.08
189.8
665.509
264.542
216.544
320.231
-61.8427
345.707
-138.175
346.044
-110.101
327.776
-11.7639
301.324
155.197
278.068
319.131
257.613
377.429
239.034
310.768
224.727
169.371
202.997
-83.9202
135.626
-566.586
10.3285
-1363.49
-140.347
-2025.63
-190.001
-1596.22
184.379
-1007.49
-291.198
-1005.34
-301.525
-997.883
-407.262
-991.964
-465.522
-983.859
-546.992
-975.051
-626.234
-964.144
-713.697
-950.879
-806.398
-934.631
-906.093
-914.932
-1012.55
-891.215
-1126.49
-863.074
-1247.81
-830.834
-1374.95
-797.177
-1501.41
-770.161
-1610.36
-766.243
-1668.92
-806.542
-1634.3
-898.355
-1487.92
-1015.46
-1277.56
-1111.42
-1099.25
-1158.37
-1016.57
-1160.77
-1020.78
-1136.2
-1069.43
-1097.75
-1130.93
-1051.5
-1192.5
-1000.18
-1249.95
-945.538
-1300.1
-888.924
-1338.97
-831.552
-1362.34
-775.014
-1365.37
-721.226
-1339.57
-666.136
-1268.71
-573.51
-1068.75
-397.691
-426.096
-284.912
627.28
-261.501
1313.81
-255.44
1679.63
-256.449
1990.22
-268.149
2268.6
-285.82
2503.86
-303.92
2705.52
-319.637
2880.98
-331.342
3033.42
-338.228
3165.14
-340.597
3277.63
-338.933
3371.49
-333.26
3447.47
-323.49
3507.25
-309.767
3551.63
-292.519
3580.17
-272.361
3592.22
-249.84
3587.8
-225.219
3566.9
-198.565
3526.07
-170.174
3458.73
-140.269
3360.49
-108.491
3226.19
-73.8594
3036.1
-34.8624
2751.2
10.0204
2322.79
62.6625
1749.37
127.015
1147.72
205.127
587.397
288.334
133.338
347.018
-120.527
372.507
-163.665
371.597
-109.19
351.119
8.71339
322.792
183.524
297.36
344.562
274.834
399.956
254.188
331.415
237.327
186.231
212.357
-58.9499
145.35
-499.578
15.4402
-1233.58
-141.579
-1868.61
-181.942
-1555.86
-46.7766
-1011.12
-286.07
-1002.24
-310.4
-993.912
-415.593
-986.322
-473.112
-976.714
-556.6
-965.9
-637.048
-952.611
-726.985
-936.652
-822.357
-917.464
-925.281
-894.632
-1035.38
-867.678
-1153.44
-836.47
-1279.02
-802.183
-1409.24
-769.673
-1533.92
-751.223
-1628.81