/*--------------------------------*- C++ -*----------------------------------*\
| =========                 |                                                 |
| \\      /  F ield         | OpenFOAM: The Open Source CFD Toolbox           |
|  \\    /   O peration     | Version:  4.1                                   |
|   \\  /    A nd           | Web:      www.OpenFOAM.org                      |
|    \\/     M anipulation  |                                                 |
\*---------------------------------------------------------------------------*/
FoamFile
{
    version     2.0;
    format      ascii;
    class       volVectorField;
    location    "25";
    object      U;
}
// * * * * * * * * * * * * * * * * * * * * * * * * * * * * * * * * * * * * * //

dimensions      [0 1 -1 0 0 0 0];

internalField   nonuniform List<vector> 
6785
(
(1.5049e-14 -2.26257 16.4307)
(1.11863e-14 -7.90125 12.8658)
(-2.94501e-15 -5.11068 13.6685)
(4.08102e-15 -5.07471 13.1648)
(8.89295e-16 -4.28774 13.0153)
(-1.79968e-16 -3.87229 12.7151)
(2.62327e-15 -3.45553 12.4239)
(7.01334e-16 -3.16597 12.1129)
(-6.65273e-16 -2.97631 11.8241)
(1.81519e-15 -2.92325 11.5602)
(2.88129e-16 -2.95941 11.3247)
(-4.37933e-16 -3.05137 11.0566)
(8.58682e-16 -3.5339 10.3985)
(4.83263e-17 -3.6309 9.27222)
(-4.16769e-16 -0.0304101 7.55788)
(2.20157e-14 -10.3048 26.7984)
(1.25718e-14 -16.0793 23.1432)
(-2.65533e-15 -11.0598 23.4982)
(4.43313e-15 -11.7616 21.7093)
(7.25883e-16 -10.0173 20.8889)
(8.05813e-16 -9.34405 19.7)
(1.80588e-15 -8.32721 18.6846)
(1.88925e-16 -7.51399 17.6407)
(-3.78261e-17 -6.66764 16.5903)
(5.00584e-16 -5.81792 15.3752)
(-4.94943e-16 -4.90231 13.8416)
(-5.93859e-16 -4.02974 11.8315)
(-9.61033e-17 -3.46895 9.29706)
(-5.75929e-16 -2.99777 6.38127)
(-7.18656e-16 -1.15694 2.42697)
(2.17425e-14 -13.2035 28.8053)
(1.027e-14 -16.8923 25.5288)
(-1.68971e-15 -12.2367 25.4793)
(3.83353e-15 -13.202 23.0631)
(5.4665e-16 -11.0818 22.0979)
(1.30559e-15 -10.6428 20.4522)
(1.1122e-15 -9.52636 19.2427)
(-9.30346e-17 -8.82917 17.9387)
(5.11308e-16 -7.93214 16.5873)
(3.34278e-16 -6.71626 14.4765)
(1.47909e-16 -4.37668 10.4395)
(2.79883e-15 -0.686747 3.62408)
(2.21757e-15 2.71199 -2.90158)
(-2.39525e-15 3.38134 -4.15819)
(-3.93284e-15 2.03857 -3.4227)
(2.0973e-14 -14.249 29.1221)
(1.03055e-14 -17.4847 26.2617)
(-1.87872e-15 -13.063 25.8403)
(3.9503e-15 -14.505 23.0482)
(1.01499e-15 -12.0957 22.1688)
(1.22926e-15 -12.1014 20.1932)
(1.31707e-15 -10.919 18.9452)
(6.34234e-16 -10.4193 17.4776)
(2.121e-16 -9.66172 16.1107)
(6.69307e-16 -8.76428 14.2854)
(1.20961e-15 -7.10746 11.3106)
(1.60332e-15 -4.21533 6.55895)
(2.10884e-15 -1.45431 2.20732)
(8.77947e-15 2.51913 -1.99829)
(-3.57018e-15 2.29131 -6.43292)
(2.01006e-14 -14.204 27.926)
(1.20264e-14 -17.6549 26.8798)
(-1.39968e-15 -13.3727 25.4789)
(3.39441e-15 -14.4762 22.5793)
(1.73729e-15 -12.2258 21.5767)
(1.12146e-15 -12.1457 19.472)
(1.44202e-15 -10.9572 18.0619)
(1.12434e-15 -10.3483 16.4129)
(1.52442e-16 -9.56794 14.8942)
(3.58856e-16 -8.76033 13.2321)
(8.29758e-16 -7.72278 11.1554)
(3.53592e-16 -5.9905 8.38643)
(-5.68326e-19 -4.10305 5.1862)
(-4.14474e-16 -0.938251 1.41111)
(2.27391e-15 1.17045 -4.21335)
(1.94671e-14 -13.6278 25.9661)
(1.35584e-14 -17.2722 26.9244)
(2.00623e-17 -13.3188 24.7094)
(2.61355e-15 -13.7944 21.7331)
(2.08898e-15 -11.8411 20.5872)
(1.35456e-15 -11.5469 18.5149)
(1.50144e-15 -10.395 16.9972)
(1.5863e-15 -9.65367 15.2919)
(9.1069e-16 -8.81943 13.7294)
(8.83903e-17 -7.99887 12.1913)
(6.30927e-16 -7.16796 10.56)
(1.29158e-15 -6.02525 8.74556)
(8.10832e-17 -4.73332 6.43979)
(-1.40227e-16 -2.41392 3.44875)
(8.15499e-15 -0.181093 -1.72204)
(2.02529e-14 -13.0542 24.4798)
(1.53051e-14 -16.6966 26.5368)
(2.48217e-15 -13.2097 24.0377)
(2.13537e-15 -13.2086 20.9874)
(3.03084e-15 -11.504 19.7234)
(3.4003e-15 -11.1002 17.7582)
(2.0444e-15 -10.0835 16.288)
(2.52629e-15 -9.39503 14.7466)
(3.56082e-15 -8.6609 13.3204)
(1.761e-15 -7.93615 11.9369)
(1.36582e-15 -7.24293 10.5661)
(3.50709e-15 -6.43642 9.26091)
(2.46107e-15 -5.58351 7.81478)
(-1.02442e-15 -4.06563 6.01965)
(8.06683e-15 -1.7033 1.64546)
(1.96283e-14 -12.6945 23.7724)
(1.57262e-14 -15.8825 25.5812)
(2.36704e-15 -12.6788 23.1463)
(2.4623e-15 -12.53 20.0362)
(3.43631e-15 -10.7273 18.7934)
(3.12927e-15 -10.3865 16.7673)
(2.61369e-15 -9.29724 15.3701)
(2.69828e-15 -8.7763 13.7384)
(2.51363e-15 -8.15646 12.304)
(2.13977e-15 -7.72145 11.0228)
(1.41034e-15 -7.40302 10.137)
(1.33601e-15 -7.21184 9.77357)
(1.97538e-15 -6.97195 9.72031)
(-8.92585e-16 -6.20891 9.2444)
(2.22354e-15 -3.99235 6.08442)
(1.95026e-14 -13.0253 24.166)
(1.24874e-14 -14.8878 24.7508)
(2.58646e-16 -12.2163 22.5524)
(2.87427e-15 -11.7622 19.9691)
(2.30392e-15 -9.923 18.5532)
(6.90552e-16 -8.90814 16.0102)
(1.81045e-15 -7.04446 13.4854)
(1.16594e-15 -5.81267 10.7992)
(8.297e-17 -4.85863 9.00288)
(2.18364e-15 -4.84913 8.38376)
(9.37956e-16 -5.69724 9.31306)
(-1.73335e-15 -7.02418 11.089)
(1.11755e-15 -8.08305 12.9803)
(-1.14544e-15 -8.56034 13.6086)
(-2.08953e-15 -6.24762 10.9629)
(1.86066e-14 -14.59 26.8934)
(8.16445e-15 -15.1171 25.7463)
(-9.7815e-16 -12.747 24.1643)
(1.75745e-15 -12.3034 22.5123)
(8.11755e-16 -10.5306 21.1041)
(-4.29958e-16 -8.90741 18.3225)
(2.87149e-16 -6.39965 15.0434)
(1.43548e-15 -4.25428 11.6818)
(2.80974e-15 -2.23348 8.81574)
(4.64872e-15 -0.725524 6.41313)
(4.12713e-15 -0.138143 5.32535)
(1.2263e-15 -1.24946 6.52055)
(-6.69845e-16 -3.96753 9.81453)
(-1.23542e-15 -6.78321 12.8609)
(-1.94235e-15 -5.65357 11.1921)
(1.89236e-14 -15.4855 28.1651)
(9.15826e-15 -17.8509 29.4908)
(-9.16308e-17 -14.5205 26.7321)
(1.71596e-15 -14.3423 25.148)
(2.94809e-16 -12.8272 24.0057)
(1.01046e-15 -11.6261 21.5245)
(4.21074e-16 -9.30263 18.4735)
(1.52306e-15 -7.17582 15.0737)
(5.45134e-15 -4.87007 11.8791)
(5.42599e-15 -2.62992 8.53953)
(9.40906e-15 -0.326585 5.13428)
(1.41789e-14 1.6112 1.88661)
(1.19012e-14 2.48545 -0.023355)
(8.24134e-15 1.39246 0.650734)
(-4.45483e-16 -0.471109 2.30511)
(1.79151e-14 -13.5789 23.83)
(1.36362e-14 -19.4906 31.3909)
(4.94494e-15 -16.7773 28.6964)
(2.3448e-15 -15.7033 25.8033)
(-1.65151e-16 -14.3778 24.212)
(2.25509e-15 -13.6088 22.2126)
(1.78041e-15 -12.1699 19.9522)
(-2.16439e-16 -10.6613 17.2915)
(3.34873e-15 -8.89575 14.5606)
(3.79952e-15 -7.00782 11.6564)
(4.49174e-15 -4.8644 8.49319)
(1.04082e-14 -2.32445 4.85604)
(6.93863e-15 0.755194 0.467963)
(5.17521e-15 3.93589 -3.79693)
(1.88765e-16 2.05143 -5.68311)
(1.60451e-14 -10.3257 17.3481)
(1.72235e-14 -18.5797 29.8869)
(9.51179e-15 -17.8134 29.2109)
(4.274e-15 -16.152 25.6104)
(7.75573e-16 -14.6511 22.99)
(1.48428e-15 -13.7673 20.8046)
(1.71424e-15 -12.8133 18.8286)
(7.4453e-16 -11.7962 16.7757)
(1.5774e-15 -10.641 14.6497)
(1.74034e-15 -9.34828 12.4585)
(1.66469e-15 -7.94335 10.1677)
(2.58476e-15 -6.26707 7.77432)
(1.82528e-15 -4.45126 5.08745)
(1.96432e-15 -1.98252 2.33454)
(-2.57105e-16 0.122326 -2.29508)
(1.36276e-14 -6.98073 10.7735)
(1.84493e-14 -16.2932 26.5817)
(1.0101e-14 -16.8237 27.4198)
(2.78454e-15 -14.469 23.2545)
(1.38222e-16 -12.501 20.1211)
(8.39534e-16 -11.4874 18.1876)
(1.69448e-15 -10.7451 16.7945)
(1.8719e-15 -10.0673 15.4469)
(1.86243e-15 -9.34516 14.0292)
(1.84368e-15 -8.52722 12.5584)
(9.89527e-16 -7.67764 11.0456)
(4.98705e-16 -6.67475 9.51233)
(1.02715e-15 -5.58866 7.713)
(5.72669e-16 -3.88376 5.49306)
(-2.8931e-16 -1.74817 1.46278)
(8.90061e-15 -5.21826 9.25045)
(1.87942e-14 -15.8687 25.3986)
(1.65141e-14 -19.4375 29.3479)
(9.77541e-15 -19.2584 27.1348)
(3.55849e-15 -17.5397 23.3892)
(1.15796e-15 -15.6976 20.0749)
(2.14197e-16 -14.1438 17.5103)
(-3.94726e-16 -12.7729 15.4131)
(-1.13343e-16 -11.4119 13.6256)
(4.69576e-16 -10.1284 12.0859)
(1.28429e-16 -8.8976 10.6448)
(-9.12016e-17 -7.62263 9.21009)
(-6.85848e-16 -6.39663 8.09385)
(-2.3775e-15 -5.36248 6.99219)
(-2.56243e-15 -2.60024 4.49298)
(-1.31583e-15 52.9929 7.05365)
(-2.80323e-15 14.7946 0.0203792)
(-2.36579e-15 -1.92068 -1.86002)
(-2.46466e-15 1.40912 -2.10321)
(-2.4914e-15 0.922804 -2.00585)
(-3.51157e-15 1.05924 -3.35644)
(-2.6613e-15 1.22613 -2.39536)
(-2.69971e-15 1.59347 -2.34573)
(-2.71498e-15 1.60654 -2.22323)
(-3.3091e-15 2.18382 -2.94908)
(-2.37098e-15 1.97742 -2.00467)
(-2.2179e-15 2.18816 -1.85957)
(-3.1978e-15 2.805 -2.27803)
(-2.30567e-15 2.32662 -1.51549)
(-2.24425e-15 2.6449 -1.45043)
(-2.07744e-15 2.59244 -1.38051)
(-2.98942e-15 3.16084 -1.58187)
(-2.15057e-15 2.66701 -1.04787)
(-1.97814e-15 2.83138 -0.997722)
(-2.89879e-15 3.4235 -1.05312)
(-2.11891e-15 2.70362 -0.737463)
(-2.10064e-15 3.00652 -0.731949)
(-1.97271e-15 2.89267 -0.755628)
(-2.82865e-15 3.46526 -0.752768)
(-1.97613e-15 2.71902 -0.585188)
(-1.84945e-15 2.99967 -0.589494)
(-1.74395e-15 2.89953 -0.625749)
(-2.41105e-15 3.34454 -0.561555)
(-1.64613e-15 2.6749 -0.45699)
(-1.46326e-15 2.82171 -0.483956)
(-2.03637e-15 3.23817 -0.322976)
(-1.34194e-15 2.46275 -0.30407)
(-1.25957e-15 2.70173 -0.298649)
(-1.11844e-15 2.61155 -0.326162)
(-1.51628e-15 2.9208 -0.100591)
(-9.60911e-16 2.27746 -0.120798)
(-8.08708e-16 2.39508 -0.145055)
(-1.02761e-15 2.68062 0.178017)
(-5.70073e-16 1.98876 0.085163)
(-4.78164e-16 2.16469 0.110819)
(-3.51698e-16 2.06711 0.0945661)
(-3.12009e-16 2.3386 0.482613)
(-1.00197e-16 1.77405 0.349619)
(-1.49293e-17 1.9103 0.365871)
(5.04567e-17 1.80558 0.326692)
(1.59134e-16 2.01955 0.719482)
(4.96065e-17 1.61812 0.598614)
(6.4071e-17 1.64056 0.544618)
(-2.19975e-17 1.79386 1.00417)
(2.51407e-16 1.36234 0.752129)
(2.4005e-16 1.4152 0.765792)
(1.6805e-16 1.32407 0.727182)
(1.04731e-16 1.34094 1.09365)
(3.3032e-17 0.944496 0.689961)
(-1.70738e-16 0.961185 0.673242)
(-7.60433e-17 0.905912 0.699714)
(-2.99166e-16 0.821081 0.422265)
(-1.65964e-16 0.403772 -0.228785)
(-1.04213e-15 0.354504 0.037281)
(-1.24062e-15 1.00736 -2.22214)
(5.86792e-16 -0.50443 -1.85748)
(2.98924e-16 0.000102453 -1.85261)
(1.45384e-16 0.18034 -1.72422)
(-5.5612e-16 -0.140171 -0.31657)
(-1.42912e-15 -1.18294 1.77074)
(-1.40067e-15 -0.884938 1.7502)
(-1.70826e-15 -1.89925 4.19867)
(-1.04838e-15 -2.44023 4.39123)
(-8.90727e-16 -2.7665 4.39642)
(-7.45751e-16 -2.72295 4.52458)
(-3.61033e-16 -4.31945 7.36543)
(6.05454e-17 -4.54777 6.12397)
(1.51243e-16 -5.1614 6.22333)
(1.98881e-16 -5.00811 6.3752)
(5.00083e-16 -7.35734 9.92094)
(3.8028e-16 -7.32493 7.93131)
(2.12387e-16 -7.40714 8.56678)
(2.92903e-16 -10.0831 12.6951)
(6.80049e-17 -9.73792 9.89905)
(-1.40368e-16 -10.1503 10.8172)
(-5.43173e-16 -10.9001 12.9017)
(-4.29296e-16 -10.7818 12.7124)
(-4.50149e-16 -10.8604 13.0907)
(7.03617e-16 -12.4163 15.4347)
(4.76634e-17 -11.4428 14.1506)
(3.68846e-16 -11.6731 14.5888)
(5.44698e-16 -11.6623 14.6111)
(7.89919e-16 -11.7595 14.6054)
(1.00348e-15 -11.8141 14.5701)
(1.18437e-15 -11.8956 14.5648)
(1.40693e-15 -11.9814 14.6589)
(1.63245e-15 -11.9956 14.8664)
(2.44096e-15 -12.9399 16.4386)
(1.76343e-15 -12.3583 15.3807)
(1.86646e-15 -12.5208 15.6288)
(1.97804e-15 -12.4922 15.7975)
(2.25215e-15 -12.6354 16.1108)
(2.32935e-15 -12.6385 16.2075)
(2.46767e-15 -12.7343 16.3099)
(2.54004e-15 -12.8052 16.414)
(2.61947e-15 -12.8412 16.5288)
(3.59867e-15 -13.4612 17.7615)
(3.06118e-15 -12.9496 16.7498)
(3.19367e-15 -13.0796 16.8474)
(3.26724e-15 -13.0978 16.8904)
(3.36779e-15 -13.1709 17.057)
(3.48232e-15 -13.2054 17.3222)
(3.61057e-15 -13.2949 17.6186)
(3.72323e-15 -13.3178 17.7448)
(3.85565e-15 -13.3933 17.9102)
(3.9667e-15 -13.4649 18.0544)
(4.89433e-15 -13.4672 18.769)
(4.13774e-15 -13.2041 18.2637)
(4.26143e-15 -13.2727 18.5502)
(4.2151e-15 -13.2876 18.7545)
(4.16063e-15 -13.3577 18.9952)
(4.10506e-15 -13.3814 19.2069)
(4.0851e-15 -13.4618 19.4896)
(4.15704e-15 -13.4686 19.5262)
(4.21703e-15 -13.5739 19.4375)
(5.03515e-15 -12.7683 18.5848)
(4.04175e-15 -12.8199 18.3158)
(4.04067e-15 -12.8339 18.2152)
(4.04739e-15 -12.8756 18.2341)
(4.07859e-15 -12.8462 18.1007)
(4.21689e-15 -12.8756 18.1001)
(4.43203e-15 -12.8787 18.1376)
(4.67808e-15 -12.8232 18.2711)
(5.01558e-15 -13.0249 18.6661)
(5.74009e-15 -11.093 16.6044)
(5.34598e-15 -11.6804 17.7046)
(5.61903e-15 -11.5726 17.7265)
(5.76332e-15 -11.5553 17.8352)
(6.08054e-15 -11.5338 18.1032)
(6.10254e-15 -11.486 17.9772)
(5.96235e-15 -11.3976 17.6187)
(5.76259e-15 -11.3011 17.1317)
(5.52821e-15 -11.3447 16.466)
(5.11035e-15 -8.52985 12.0269)
(5.51644e-15 -9.53889 14.3271)
(5.10177e-15 -9.24113 13.1241)
(5.00825e-15 -9.2604 12.5209)
(4.99504e-15 -9.07382 11.8597)
(5.17563e-15 -8.95758 11.4224)
(6.09128e-15 -8.79473 11.3324)
(5.59057e-15 -8.57835 10.8488)
(5.62953e-15 -8.38194 10.5789)
(5.45611e-15 -8.27407 10.146)
(3.03418e-15 -4.51814 4.64802)
(5.57694e-15 -6.28746 9.21343)
(5.27678e-15 -5.68016 8.21211)
(4.96828e-15 -5.81046 7.84365)
(4.47255e-15 -5.44718 6.95975)
(3.78354e-15 -5.36587 5.79472)
(2.57038e-15 -5.14469 3.61516)
(1.46001e-15 -4.77013 1.42493)
(1.55104e-15 -4.73305 1.16824)
(-3.21068e-16 -3.62868 -2.1269)
(1.09129e-15 -3.82533 0.309387)
(7.14688e-16 -3.72651 -0.792558)
(-9.70017e-16 -2.73322 -2.75411)
(-1.39225e-16 -4.00311 -2.45853)
(-5.18023e-16 -2.52746 -2.34754)
(-4.00178e-16 -2.29828 -1.64685)
(-5.36012e-16 -2.28154 -2.50231)
(-3.98543e-16 -1.53825 -1.62778)
(-4.78359e-16 -1.48904 -2.56404)
(-2.59457e-16 -0.904418 -1.8996)
(-6.30589e-17 -0.662677 -1.4026)
(-6.64657e-17 -0.350591 -2.04368)
(-3.30064e-17 -0.114182 -1.33943)
(-5.45338e-17 0.0986335 -0.71335)
(-5.36957e-17 0.358044 -1.19145)
(5.69637e-17 0.420515 -0.940269)
(-6.83468e-16 0.652252 -0.992716)
(-1.0242e-15 0.891738 -0.905072)
(-6.41475e-16 0.789774 -0.596659)
(-8.10576e-16 1.23374 -0.763508)
(-5.0985e-16 1.02889 -0.530791)
(-5.13248e-16 1.26716 -0.555799)
(-6.05325e-16 1.43941 -0.449691)
(-5.02231e-16 1.25283 -0.262338)
(-6.07735e-16 1.51973 -0.308004)
(-8.0847e-16 1.72883 -0.295663)
(-5.59555e-16 1.37113 -0.206993)
(-6.04398e-16 1.97497 -0.27669)
(-3.41048e-16 1.54256 -0.194559)
(-4.33555e-16 1.77831 -0.245236)
(-4.97597e-16 2.02721 -0.20874)
(-3.78931e-16 1.58594 -0.137393)
(-6.7174e-16 2.26407 -0.168639)
(-6.70792e-16 1.72326 -0.111788)
(-9.49738e-16 2.01002 -0.1424)
(-1.50963e-15 2.13768 -0.0994502)
(-1.21053e-15 1.75782 -0.0727059)
(-1.57362e-15 2.12737 -0.104077)
(-2.38423e-15 2.2112 -0.118148)
(-1.81779e-15 1.69289 -0.153417)
(-2.6033e-15 2.40903 -0.312128)
(-1.87247e-15 1.78341 -0.332052)
(-2.13769e-15 2.10536 -0.504379)
(-2.00271e-15 2.1203 -0.710362)
(-1.10212e-15 1.63954 -0.586158)
(-1.50968e-15 2.37341 -0.887755)
(-1.16587e-15 1.74801 -0.719889)
(-1.51894e-15 2.1216 -0.920253)
(-2.0698e-15 2.05039 -1.08352)
(-1.46357e-15 1.70079 -0.779925)
(-1.80145e-15 2.17492 -0.95683)
(-2.08441e-15 2.12669 -1.11243)
(-1.37331e-15 1.68646 -0.790348)
(-1.75072e-15 2.44678 -1.10771)
(-1.20023e-15 1.91194 -0.824355)
(-1.36949e-15 2.25643 -1.02364)
(-1.38236e-15 2.33499 -1.18092)
(-7.35005e-16 1.87644 -0.801082)
(-7.58083e-16 2.66401 -1.06939)
(-4.44163e-16 2.0561 -0.746304)
(-4.87404e-16 2.42809 -0.892129)
(-7.59783e-16 2.40505 -0.941407)
(-6.97893e-16 2.02159 -0.603542)
(-1.13224e-15 2.47967 -0.691543)
(-1.63542e-15 2.46983 -0.654339)
(-1.27368e-15 1.94847 -0.412543)
(-1.89541e-15 2.72236 -0.482578)
(-1.41148e-15 2.08579 -0.30694)
(-1.63345e-15 2.3657 -0.329815)
(-1.63599e-15 2.47832 -0.250291)
(-8.92686e-16 1.96066 -0.151938)
(-9.01744e-16 2.69064 -0.149341)
(-5.15151e-16 2.06739 -0.076953)
(-5.83471e-16 2.35021 -0.067507)
(-8.35104e-16 2.4335 0.0153145)
(-8.00211e-16 2.05182 0.0344211)
(-1.28214e-15 2.38456 0.0489075)
(-2.03786e-15 2.54896 0.109925)
(-1.58491e-15 2.01731 0.0769374)
(-2.23537e-15 2.75418 0.0594989)
(-1.61615e-15 2.1383 0.0561801)
(-1.71309e-15 2.48085 0.00257002)
(1.65378e-18 1.2695 1.9485)
(2.84514e-17 1.50638 1.98482)
(1.05252e-16 1.52097 2.02215)
(3.02377e-16 1.619 2.10749)
(7.34167e-16 1.65499 2.23663)
(1.54694e-15 1.69059 2.46122)
(2.86703e-15 1.69006 2.79752)
(4.71079e-15 1.66925 3.25358)
(6.92391e-15 1.63206 3.79176)
(9.19934e-15 1.59657 4.34923)
(1.11812e-14 1.57628 4.85699)
(1.25851e-14 1.58009 5.26651)
(1.32711e-14 1.60853 5.55858)
(1.32505e-14 1.65651 5.73885)
(1.26454e-14 1.71591 5.82586)
(1.16376e-14 1.77812 5.84072)
(1.04244e-14 1.83525 5.80133)
(9.18804e-15 1.88083 5.72106)
(8.07355e-15 1.91019 5.60997)
(7.17065e-15 1.92124 5.47694)
(6.49683e-15 1.91501 5.33154)
(5.98294e-15 1.89554 5.18487)
(5.46608e-15 1.86792 5.04929)
(4.69731e-15 1.83485 4.93749)
(3.37412e-15 1.79364 4.86142)
(1.19204e-15 1.73683 4.83131)
(-2.14503e-15 1.66063 4.85636)
(-6.95818e-15 1.56775 4.9432)
(-1.30242e-14 1.38907 5.05056)
(-1.75203e-14 0.845491 4.95659)
(-1.59e-14 -0.18505 4.41196)
(-1.296e-14 -0.887204 4.08187)
(-1.11446e-14 -1.23909 3.9161)
(-9.5793e-15 -1.5065 3.76324)
(-8.12669e-15 -1.79859 3.61317)
(-6.77132e-15 -2.11264 3.4703)
(-5.49281e-15 -2.43871 3.33295)
(-4.26648e-15 -2.76759 3.19975)
(-3.06646e-15 -3.09226 3.07006)
(-1.85722e-15 -3.40617 2.94219)
(-5.96529e-16 -3.70323 2.81371)
(7.50098e-16 -3.97906 2.68398)
(2.21011e-15 -4.22949 2.55209)
(3.79197e-15 -4.45189 2.41864)
(5.47939e-15 -4.64529 2.28375)
(7.22067e-15 -4.81075 2.14832)
(8.93507e-15 -4.9514 2.01234)
(1.05174e-14 -5.07 1.87481)
(1.18442e-14 -5.16811 1.73475)
(1.27994e-14 -5.2442 1.59033)
(1.32885e-14 -5.29321 1.44024)
(1.3258e-14 -5.31407 1.28554)
(1.27234e-14 -5.31093 1.1266)
(1.17522e-14 -5.28493 0.963696)
(1.04525e-14 -5.2207 0.7938)
(8.9567e-15 -5.10866 0.621516)
(7.35939e-15 -4.94752 0.4481)
(5.68917e-15 -4.71352 0.278005)
(3.95758e-15 -4.35308 0.115789)
(2.28723e-15 -3.79482 -0.0287403)
(9.27383e-16 -3.03844 -0.145814)
(2.1559e-16 -2.27319 -0.229368)
(1.3331e-18 -1.57972 -0.293699)
(-1.7843e-17 -0.989115 -0.337213)
(-6.05625e-18 -0.522615 -0.374196)
(-5.49339e-19 -0.204826 -0.402404)
(5.34402e-19 0.129212 -0.446532)
(3.41692e-19 0.240176 -0.421905)
(7.62166e-20 0.166805 -0.406148)
(-4.91526e-21 -0.260478 -0.432687)
(-2.47455e-21 -0.345444 -0.461837)
(1.0571e-21 -0.226967 -0.449394)
(-5.67127e-21 -0.24703 -0.450794)
(9.33802e-21 -0.0106617 -0.567531)
(-3.64268e-20 1.96594 -0.582712)
(1.2418e-19 3.06117 -0.027196)
(-2.43812e-19 4.01547 -0.418185)
(2.63092e-17 3.11076 0.10332)
(-4.15951e-17 -2.22204 -0.460801)
(1.89943e-17 1.26311 2.05779)
(1.0649e-16 1.49474 2.10388)
(3.09042e-16 1.49953 2.15977)
(7.62155e-16 1.58129 2.30572)
(1.63517e-15 1.59244 2.53164)
(3.07727e-15 1.5924 2.9014)
(5.11246e-15 1.5536 3.40333)
(7.54296e-15 1.50166 4.00159)
(9.97742e-15 1.45194 4.61002)
(1.19778e-14 1.42625 5.14448)
(1.32333e-14 1.43397 5.5505)
(1.36428e-14 1.47478 5.8169)
(1.32916e-14 1.54043 5.96232)
(1.23757e-14 1.62042 6.01652)
(1.11299e-14 1.70495 6.00647)
(9.7814e-15 1.78608 5.95115)
(8.52378e-15 1.85741 5.86181)
(7.50099e-15 1.91377 5.74482)
(6.79291e-15 1.95114 5.60499)
(6.3982e-15 1.96735 5.44858)
(6.2158e-15 1.96293 5.28551)
(6.03244e-15 1.94132 5.13019)
(5.52908e-15 1.90726 5.00039)
(4.3209e-15 1.8635 4.91452)
(2.03854e-15 1.80793 4.88774)
(-1.57153e-15 1.73377 4.92813)
(-6.62708e-15 1.638 5.03602)
(-1.32166e-14 1.53138 5.20608)
(-2.08366e-14 1.38135 5.3896)
(-2.56656e-14 0.944585 5.32925)
(-2.06254e-14 -0.0374336 4.59843)
(-1.27984e-14 -0.867161 3.97585)
(-1.04704e-14 -1.22567 3.84409)
(-9.1879e-15 -1.49202 3.71714)
(-7.87113e-15 -1.78998 3.56981)
(-6.56958e-15 -2.10885 3.43289)
(-5.32819e-15 -2.43776 3.30311)
(-4.13085e-15 -2.76781 3.17687)
(-2.95056e-15 -3.09224 3.05307)
(-1.75324e-15 -3.40429 2.92997)
(-4.99549e-16 -3.69848 2.80525)
(8.43198e-16 -3.97076 2.67849)
(2.30073e-15 -4.21723 2.54899)
(3.88e-15 -4.43559 2.41737)
(5.5631e-15 -4.625 2.28388)
(7.2974e-15 -4.7866 2.14948)
(9.00174e-15 -4.92334 2.01421)
(1.05708e-14 -5.03787 1.87716)
(1.18821e-14 -5.13167 1.73739)
(1.28209e-14 -5.20314 1.5931)
(1.32942e-14 -5.24759 1.44306)
(1.32506e-14 -5.26422 1.28837)
(1.2707e-14 -5.25709 1.12945)
(1.17313e-14 -5.22683 0.96648)
(1.04312e-14 -5.15858 0.796442)
(8.93809e-15 -5.04338 0.623836)
(7.34475e-15 -4.87993 0.449858)
(5.67911e-15 -4.64487 0.278665)
(3.95298e-15 -4.28516 0.114341)
(2.28829e-15 -3.73008 -0.0337856)
(9.32481e-16 -2.97865 -0.156181)
(2.19936e-16 -2.21784 -0.246857)
(2.26895e-18 -1.52844 -0.320047)
(-1.8924e-17 -0.941905 -0.37388)
(-7.14805e-18 -0.478832 -0.422479)
(-9.88221e-19 -0.163267 -0.46454)
(5.13919e-19 0.134399 -0.533342)
(4.54227e-19 0.23491 -0.482825)
(1.41181e-19 0.17729 -0.421865)
(-1.49279e-21 -0.223529 -0.44334)
(-4.22511e-21 -0.336937 -0.480528)
(6.32453e-22 -0.229453 -0.467899)
(-5.00558e-21 -0.231571 -0.444794)
(6.73181e-21 0.0147805 -0.619709)
(-2.4082e-20 1.87354 -0.654825)
(6.2484e-20 3.03348 -0.0217386)
(1.77553e-19 3.99716 -0.467727)
(3.00302e-17 3.11558 0.11111)
(-3.41706e-17 -2.20002 -0.464472)
(5.89439e-17 1.2575 2.1235)
(2.46599e-16 1.48557 2.18876)
(6.22189e-16 1.47736 2.2768)
(1.37373e-15 1.54113 2.49382)
(2.66514e-15 1.52951 2.81648)
(4.5539e-15 1.50595 3.29453)
(6.89145e-15 1.45388 3.8755)
(9.31094e-15 1.40525 4.48962)
(1.13711e-14 1.37527 5.0439)
(1.27364e-14 1.37757 5.47917)
(1.32796e-14 1.41194 5.77739)
(1.30657e-14 1.47221 5.95421)
(1.22776e-14 1.54927 6.03782)
(1.11423e-14 1.63485 6.05494)
(9.88312e-15 1.72196 6.02454)
(8.69429e-15 1.80471 5.95786)
(7.72609e-15 1.87776 5.86075)
(7.07232e-15 1.93608 5.73666)
(6.75365e-15 1.97525 5.58957)
(6.69574e-15 1.99222 5.42678)
(6.70686e-15 1.98647 5.26113)
(6.47024e-15 1.96048 5.11158)
(5.57363e-15 1.91855 5.00102)
(3.59339e-15 1.86392 4.95099)
(2.22663e-16 1.79597 4.97503)
(-4.61209e-15 1.71007 5.07327)
(-1.07685e-14 1.60504 5.23309)
(-1.80921e-14 1.49495 5.4369)
(-2.60401e-14 1.36569 5.64095)
(-3.10558e-14 1.01046 5.61931)
(-2.54325e-14 0.125524 4.87198)
(-1.38932e-14 -0.738767 3.95209)
(-9.86033e-15 -1.17914 3.73513)
(-8.55912e-15 -1.45171 3.64183)
(-7.4899e-15 -1.74414 3.51183)
(-6.30876e-15 -2.06329 3.38147)
(-5.11666e-15 -2.3929 3.25988)
(-3.95358e-15 -2.72359 3.14315)
(-2.79931e-15 -3.04892 3.02797)
(-1.61839e-15 -3.36193 2.91203)
(-3.74275e-16 -3.65715 2.79308)
(9.62962e-16 -3.93056 2.67091)
(2.41673e-15 -4.17833 2.54512)
(3.99209e-15 -4.39816 2.41635)
(5.66912e-15 -4.58919 2.28508)
(7.39407e-15 -4.7525 2.15232)
(9.08528e-15 -4.89081 2.01818)
(1.06374e-14 -5.00666 1.88188)
(1.19291e-14 -5.10141 1.74256)
(1.28472e-14 -5.17346 1.59846)
(1.33008e-14 -5.21842 1.44849)
(1.32412e-14 -5.23565 1.29377)
(1.26865e-14 -5.22909 1.13484)
(1.17051e-14 -5.19904 0.97171)
(1.04048e-14 -5.13112 0.801392)
(8.91501e-15 -5.01678 0.628253)
(7.32662e-15 -4.85467 0.453385)
(5.66667e-15 -4.62173 0.28055)
(3.94735e-15 -4.26552 0.113269)
(2.28973e-15 -3.71598 -0.0397338)
(9.38984e-16 -2.972 -0.169251)
(2.25469e-16 -2.21756 -0.269424)
(3.53335e-18 -1.53271 -0.354368)
(-2.01861e-17 -0.949043 -0.421747)
(-8.45343e-18 -0.487599 -0.484514)
(-1.54405e-18 -0.169386 -0.539447)
(4.13285e-19 0.119003 -0.60818)
(5.31378e-19 0.214711 -0.558279)
(2.00434e-19 0.144399 -0.482259)
(3.31622e-21 -0.231283 -0.474451)
(-6.34308e-21 -0.339044 -0.510931)
(-1.78269e-22 -0.233842 -0.497191)
(-4.16738e-21 -0.216047 -0.456872)
(5.72312e-21 0.0420272 -0.639416)
(-1.88183e-20 1.82807 -0.696431)
(3.20411e-20 3.01732 -0.0249312)
(6.10317e-19 3.99037 -0.484701)
(3.52103e-17 3.09959 0.13653)
(-3.1759e-17 -2.20399 -0.31207)
(1.47246e-16 1.24735 2.20878)
(5.15973e-16 1.46739 2.31147)
(1.16486e-15 1.43856 2.45581)
(2.32977e-15 1.47601 2.77328)
(4.11013e-15 1.43538 3.21332)
(6.40301e-15 1.38628 3.79569)
(8.872e-15 1.32324 4.4253)
(1.10525e-14 1.2804 5.01539)
(1.256e-14 1.26967 5.48838)
(1.32218e-14 1.29698 5.81895)
(1.30827e-14 1.35604 6.01854)
(1.23274e-14 1.43753 6.11745)
(1.11953e-14 1.53169 6.14564)
(9.92404e-15 1.6308 6.12519)
(8.72006e-15 1.72875 6.06908)
(7.74506e-15 1.82049 5.98351)
(7.10637e-15 1.90121 5.87092)
(6.84419e-15 1.96601 5.73291)
(6.91101e-15 2.01001 5.57329)
(7.14304e-15 2.02918 5.40123)
(7.23456e-15 2.0217 5.23382)
(6.74373e-15 1.98897 5.09614)
(5.16666e-15 1.9352 5.0167)
(2.08967e-15 1.86502 5.01819)
(-2.63693e-15 1.78058 5.10763)
(-8.8101e-15 1.68038 5.27171)
(-1.59818e-14 1.56493 5.482)
(-2.37711e-14 1.451 5.71057)
(-3.16786e-14 1.34539 5.92385)
(-3.67073e-14 1.08619 5.93856)
(-3.11294e-14 0.316637 5.2222)
(-1.6247e-14 -0.616198 4.02004)
(-9.85368e-15 -1.14497 3.63907)
(-7.92618e-15 -1.43394 3.54269)
(-6.97657e-15 -1.7212 3.43679)
(-5.98982e-15 -2.03956 3.32)
(-4.8863e-15 -2.37013 3.20692)
(-3.75995e-15 -2.70115 3.10017)
(-2.63139e-15 -3.02623 2.99562)
(-1.46911e-15 -3.33858 2.88906)
(-2.36471e-16 -3.63309 2.77783)
(1.0941e-15 -3.90585 2.66185)
(2.54311e-15 -4.15307 2.54108)
(4.11349e-15 -4.37254 2.41624)
(5.78327e-15 -4.5634 2.28798)
(7.49752e-15 -4.72668 2.15746)
(9.17414e-15 -4.86493 2.02486)
(1.07078e-14 -4.98059 1.88958)
(1.19783e-14 -5.07492 1.75083)
(1.28745e-14 -5.14629 1.60696)
(1.33073e-14 -5.1906 1.45703)
(1.32308e-14 -5.20733 1.30225)
(1.26645e-14 -5.20031 1.14321)
(1.16774e-14 -5.16952 0.97979)
(1.03769e-14 -5.10099 0.809048)
(8.89062e-15 -4.98654 0.635202)
(7.30744e-15 -4.82473 0.459199)
(5.65348e-15 -4.5927 0.28437)
(3.94135e-15 -4.23847 0.113645)
(2.29123e-15 -3.69248 -0.0449676)
(9.45884e-16 -2.95339 -0.182799)
(2.3141e-16 -2.20293 -0.294218)
(5.00127e-18 -1.52078 -0.39311)
(-2.14275e-17 -0.938717 -0.476515)
(-9.82747e-18 -0.477606 -0.555647)
(-2.20019e-18 -0.155983 -0.624895)
(2.42602e-19 0.127461 -0.698672)
(5.85605e-19 0.216861 -0.648696)
(2.62078e-19 0.143103 -0.56093)
(1.08189e-20 -0.227153 -0.523503)
(-8.67955e-21 -0.338479 -0.555097)
(-1.44892e-21 -0.239731 -0.536542)
(-3.36333e-21 -0.204467 -0.49101)
(4.29889e-21 0.0706077 -0.676164)
(-1.2454e-20 1.75638 -0.745909)
(-6.94726e-21 2.9906 -0.0314951)
(1.2905e-18 3.97584 -0.493533)
(4.615e-17 3.07709 0.180504)
(-2.87107e-17 -2.20024 -0.259619)
(3.23776e-16 1.23223 2.30922)
(9.88841e-16 1.43906 2.47697)
(2.01903e-15 1.38262 2.70605)
(3.66918e-15 1.38963 3.14556)
(5.88924e-15 1.32336 3.69893)
(8.37219e-15 1.26148 4.34557)
(1.06492e-14 1.20622 4.96199)
(1.22864e-14 1.18713 5.47181)
(1.30655e-14 1.20718 5.83277)
(1.30082e-14 1.26296 6.05499)
(1.22997e-14 1.34352 6.16936)
(1.11905e-14 1.43899 6.20986)
(9.92934e-15 1.54155 6.2013)
(8.73104e-15 1.64585 6.15828)
(7.76341e-15 1.74772 6.08729)
(7.1417e-15 1.8432 5.99007)
(6.92101e-15 1.92785 5.86649)
(7.0805e-15 1.99639 5.71741)
(7.49492e-15 2.04295 5.54786)
(7.89593e-15 2.06187 5.37072)
(7.84596e-15 2.04947 5.20954)
(6.77499e-15 2.00595 5.09717)
(4.13242e-15 1.93613 5.06677)
(-3.72507e-16 1.84755 5.13703)
(-6.58947e-15 1.74676 5.3009)
(-1.39534e-14 1.6362 5.52652)
(-2.17315e-14 1.51752 5.77013)
(-2.94008e-14 1.40638 5.99782)
(-3.6618e-14 1.32138 6.19291)
(-4.12922e-14 1.14801 6.23408)
(-3.6576e-14 0.524448 5.61059)
(-1.97915e-14 -0.449056 4.18766)
(-1.05796e-14 -1.08688 3.5733)
(-7.58315e-15 -1.41532 3.4364)
(-6.41682e-15 -1.70329 3.34211)
(-5.58151e-15 -2.02063 3.24502)
(-4.62345e-15 -2.3521 3.14479)
(-3.55692e-15 -2.68421 3.04827)
(-2.45314e-15 -3.0094 2.95523)
(-1.30879e-15 -3.3208 2.86017)
(-8.92179e-17 -3.61401 2.75884)
(1.23336e-15 -3.88538 2.65092)
(2.67668e-15 -4.13127 2.53668)
(4.24108e-15 -4.34954 2.41699)
(5.90251e-15 -4.53937 2.29273)
(7.60496e-15 -4.70177 2.16516)
(9.26586e-15 -4.83911 2.03462)
(1.07799e-14 -4.95373 1.90069)
(1.20284e-14 -5.04681 1.76269)
(1.29017e-14 -5.1167 1.61912)
(1.33133e-14 -5.15956 1.46924)
(1.32195e-14 -5.17505 1.31432)
(1.26416e-14 -5.16685 1.15507)
(1.16488e-14 -5.13458 0.991219)
(1.03481e-14 -5.06469 0.819883)
(8.86548e-15 -4.94939 0.645124)
(7.2876e-15 -4.78715 0.467724)
(5.63972e-15 -4.55526 0.290527)
(3.93493e-15 -4.20217 0.115818)
(2.29254e-15 -3.65889 -0.0492185)
(9.5282e-16 -2.92386 -0.196618)
(2.37552e-16 -2.17662 -0.321066)
(6.66269e-18 -1.49672 -0.436198)
(-2.26135e-17 -0.916408 -0.538372)
(-1.12857e-17 -0.456808 -0.6367)
(-2.99319e-18 -0.135523 -0.723234)
(-1.43565e-20 0.126246 -0.802745)
(6.09385e-19 0.201841 -0.751559)
(3.25825e-19 0.125848 -0.652863)
(2.23022e-20 -0.223851 -0.588768)
(-1.1089e-20 -0.338361 -0.613353)
(-3.27213e-21 -0.246439 -0.586649)
(-2.87453e-21 -0.19284 -0.540523)
(2.81401e-21 0.100238 -0.712591)
(-6.9619e-21 1.6927 -0.793201)
(-4.56069e-20 2.96144 -0.0431333)
(2.28949e-18 3.95915 -0.4868)
(6.29606e-17 3.03249 0.243539)
(-3.03664e-17 -2.17767 -0.0726698)
(6.47748e-16 1.2079 2.4412)
(1.75336e-15 1.3926 2.7112)
(3.25068e-15 1.30274 3.05113)
(5.37167e-15 1.2789 3.61654)
(7.85092e-15 1.19552 4.25083)
(1.02138e-14 1.13489 4.90126)
(1.19888e-14 1.09957 5.44534)
(1.29002e-14 1.10884 5.84188)
(1.29392e-14 1.15652 6.08854)
(1.22863e-14 1.23387 6.21961)
(1.12024e-14 1.32947 6.27158)
(9.94897e-15 1.43519 6.27325)
(8.74993e-15 1.54531 6.24115)
(7.77931e-15 1.65598 6.18278)
(7.15843e-15 1.76388 6.09976)
(6.95333e-15 1.86539 5.99104)
(7.16551e-15 1.9559 5.85536)
(7.7093e-15 2.02945 5.69409)
(8.3707e-15 2.07876 5.51501)
(8.75631e-15 2.09605 5.33682)
(8.27625e-15 2.07549 5.19193)
(6.24543e-15 2.01655 5.12167)
(2.15708e-15 1.92626 5.16009)
(-3.99405e-15 1.81728 5.31327)
(-1.16216e-14 1.7019 5.55196)
(-1.97965e-14 1.58594 5.82448)
(-2.76263e-14 1.47031 6.07775)
(-3.45877e-14 1.3665 6.27911)
(-4.05505e-14 1.29905 6.43119)
(-4.44053e-14 1.19826 6.47989)
(-4.09673e-14 0.730841 5.99429)
(-2.46623e-14 -0.234535 4.50039)
(-1.20672e-14 -0.989994 3.54861)
(-7.6928e-15 -1.38827 3.33512)
(-5.98419e-15 -1.68471 3.23483)
(-5.10787e-15 -2.00194 3.15378)
(-4.29722e-15 -2.333 3.07189)
(-3.33439e-15 -2.66563 2.98815)
(-2.26776e-15 -2.99113 2.90679)
(-1.13945e-15 -3.30169 2.8244)
(6.72678e-17 -3.59352 2.73502)
(1.38043e-15 -3.86347 2.63717)
(2.81691e-15 -4.10805 2.53115)
(4.37436e-15 -4.32522 2.41798)
(6.02641e-15 -4.51417 2.29881)
(7.71598e-15 -4.67586 2.17504)
(9.36008e-15 -4.8125 2.04718)
(1.08536e-14 -4.92631 1.91502)
(1.20791e-14 -5.01838 1.77803)
(1.2929e-14 -5.08704 1.6349)
(1.33187e-14 -5.12873 1.48509)
(1.32075e-14 -5.14327 1.33002)
(1.26177e-14 -5.13416 1.17047)
(1.16192e-14 -5.10064 1.00606)
(1.03185e-14 -5.02961 0.833981)
(8.83952e-15 -4.91366 0.658132)
(7.26698e-15 -4.75109 0.479116)
(5.62522e-15 -4.51934 0.299248)
(3.92785e-15 -4.16725 0.120119)
(2.2934e-15 -3.62643 -0.0520044)
(9.59564e-16 -2.89522 -0.20999)
(2.43802e-16 -2.15094 -0.348924)
(8.52489e-18 -1.47305 -0.482217)
(-2.37351e-17 -0.894555 -0.605472)
(-1.28536e-17 -0.437173 -0.725262)
(-3.95721e-18 -0.118227 -0.830624)
(-3.78139e-19 0.124759 -0.913458)
(5.93772e-19 0.189588 -0.863443)
(3.89984e-19 0.106407 -0.758405)
(3.90823e-20 -0.226468 -0.669335)
(-1.32465e-20 -0.340735 -0.684166)