/*--------------------------------*- C++ -*----------------------------------*\
| =========                 |                                                 |
| \\      /  F ield         | OpenFOAM: The Open Source CFD Toolbox           |
|  \\    /   O peration     | Version:  4.1                                   |
|   \\  /    A nd           | Web:      www.OpenFOAM.org                      |
|    \\/     M anipulation  |                                                 |
\*---------------------------------------------------------------------------*/
FoamFile
{
    version     2.0;
    format      ascii;
    class       volScalarField;
    location    "30";
    object      p;
}
// * * * * * * * * * * * * * * * * * * * * * * * * * * * * * * * * * * * * * //

dimensions      [0 2 -2 0 0 0 0];

internalField   nonuniform List<scalar> 
225
(
523.378
469.981
418.149
369.738
324.847
282.83
243.475
206.471
171.377
138.013
107.071
78.9325
49.9036
14.9848
-14.1673
56.9434
34.6824
28.9238
25.2135
19.7395
14.032
8.87908
4.49033
1.00641
-1.45234
-2.64363
-2.14198
-0.0455527
1.82596
2.08614
-45.839
-52.482
-46.715
-42.5681
-39.4775
-35.8822
-31.9959
-28.0585
-24.1541
-20.4383
-17.0927
-14.0256
-10.9488
-8.29602
-7.06179
0.294801
-2.12323
2.46955
2.79371
2.8473
3.06248
2.97335
2.59605
2.01449
1.25531
0.298562
-0.810779
-1.72107
-1.87331
-1.56286
16.7226
14.3898
15.9435
13.8456
12.4267
11.1832
9.77322
8.39137
7.13394
6.0429
5.1419
4.42937
3.95178
3.91906
4.16392
7.49441
5.47139
6.44537
5.22606
5.02306
5.0073
4.91952
4.95285
5.10844
5.35195
5.67125
6.03413
6.3538
6.61051
6.78525
4.02295
2.86754
3.95313
3.63004
4.01687
4.411
4.70998
5.06064
5.41721
5.74199
6.03169
6.28561
6.46385
6.54488
6.5606
5.70079
5.143
5.99734
5.76834
5.96686
6.07936
6.10328
6.14859
6.17319
6.16837
6.14468
6.11689
6.08325
6.0374
5.98892
6.00809
5.68269
6.19351
5.91762
5.96044
5.92963
5.85455
5.80746
5.75183
5.69125
5.63198
5.57885
5.53212
5.48602
5.4348
4.68842
4.48073
4.82639
4.64999
4.72276
4.7317
4.7188
4.72699
4.72438
4.7176
4.70799
4.69324
4.67102
4.63573
4.578
3.31845
3.20228
3.49994
3.44602
3.56564
3.61232
3.64095
3.67592
3.69254
3.69941
3.69741
3.68488
3.66083
3.62258
3.55705
2.34451
2.28433
2.53858
2.53987
2.6582
2.69958
2.72866
2.75575
2.7633
2.76121
2.74979
2.72888
2.69902
2.66025
2.59561
1.5654
1.53043
1.73276
1.74654
1.84573
1.87213
1.89448
1.91161
1.91194
1.90509
1.89051
1.86826
1.83869
1.80396
1.74608
0.880696
0.868588
1.02951
1.0342
1.11122
1.12482
1.14265
1.15473
1.15417
1.14921
1.13831
1.12128
1.09629
1.06511
1.01087
0.438588
0.399293
0.455183
0.42309
0.459231
0.440533
0.434179
0.420111
0.399194
0.376491
0.349862
0.321159
0.290714
0.260759
0.217735
)
;

boundaryField
{
    inletFace
    {
        type            zeroGradient;
    }
    inlet
    {
        type            zeroGradient;
    }
    inletWalls
    {
        type            zeroGradient;
    }
    outletInlet
    {
        type            fixedValue;
        value           uniform 0;
    }
}


// ************************************************************************* //
