/*--------------------------------*- C++ -*----------------------------------*\
| =========                 |                                                 |
| \\      /  F ield         | OpenFOAM: The Open Source CFD Toolbox           |
|  \\    /   O peration     | Version:  4.1                                   |
|   \\  /    A nd           | Web:      www.OpenFOAM.org                      |
|    \\/     M anipulation  |                                                 |
\*---------------------------------------------------------------------------*/
FoamFile
{
    version     2.0;
    format      ascii;
    class       surfaceScalarField;
    location    "30";
    object      phi;
}
// * * * * * * * * * * * * * * * * * * * * * * * * * * * * * * * * * * * * * //

dimensions      [0 3 -1 0 0 0 0];

internalField   nonuniform List<scalar> 
420
(
-949.878
2249.78
-1573.95
1924.28
-2054
1779.95
-2424.23
1670.13
-2699.86
1575.82
-2888.38
1488.42
-2993.06
1404.58
-3013.86
1321
-2949.61
1235.66
-2797.24
1147.52
-2551.17
1054.13
-2193.01
941.736
-1687.17
794.065
-1012.67
625.697
287.232
373.335
1876.44
442.748
1854.86
437.301
1785.39
406.698
1700.74
380.58
1601.94
359.902
1509.1
345.293
1419.19
337.536
1328.76
333.487
1239.71
326.954
1154.05
309.613
1071.48
267.468
983.878
191.434
870.103
111.449
705.685
398.681
33.5751
1842.87
-97.389
1985.83
-253.614
1941.62
-371.12
1818.24
-473.184
1704.01
-567.533
1603.45
-651.748
1503.4
-725.796
1402.8
-788.074
1301.99
-837.305
1203.28
-868.221
1102.39
-856.081
971.74
-740.328
754.354
-434.282
399.644
-35.6006
28.7745
1814.09
-100.653
2115.25
-225.56
2066.53
-304.495
1897.18
-368.157
1767.67
-416.952
1652.24
-446.228
1532.68
-457.015
1413.59
-451.853
1296.83
-430.157
1181.58
-387.228
1059.47
-311.873
896.385
-192.865
635.347
-48.407
255.189
-84.0076
169.624
1644.47
146.16
2138.72
123.736
2088.95
122.874
1898.04
126.945
1763.6
135.811
1643.38
149.106
1519.38
166.597
1396.11
186.946
1276.48
208.132
1160.4
229.127
1038.47
243.817
881.696
233.002
646.165
155.232
332.96
71.2241
223.074
1421.4
244.181
2117.62
234.745
2098.39
236.025
1896.76
240.374
1759.25
244.31
1639.45
246.553
1517.14
245.259
1397.4
241.168
1280.57
233.998
1167.57
221.391
1051.08
199.144
903.943
156.14
689.165
78.2989
410.799
149.523
203.311
1218.09
238.363
2082.57
213.611
2123.14
191.403
1918.97
177.197
1773.46
163.768
1652.88
150.035
1530.87
135.896
1411.54
121.069
1295.39
106.922
1181.72
92.8258
1065.17
75.7744
920.993
52.0226
712.912
19.0188
443.798
168.542
171.843
1046.24
221.969
2032.44
199.411
2145.7
170.396
1947.99
152.045
1791.81
137.664
1667.26
122.774
1545.76
108.575
1425.74
95.5793
1308.39
83.0988
1194.2
71.4789
1076.79
58.6314
933.84
40.3249
731.22
15.7527
468.371
184.295
146.088
900.155
210.048
1968.48
196.865
2158.88
170.044
1974.81
152.396
1809.45
139.526
1680.13
127.063
1558.23
113.857
1438.95
101.315
1320.93
89.4129
1206.1
76.9788
1089.23
63.0846
947.736
44.3083
750
19.1717
493.511
203.466
116.758
783.399
184.845
1900.39
179.622
2164.1
154.306
2000.12
137.22
1826.54
123.999
1693.35
111.373
1570.85
98.967
1451.35
86.1168
1333.78
73.8798
1218.34
62.1159
1100.99
49.0359
960.818
32.8622
766.173
13.1874
513.185
216.654
83.1602
700.238
143.13
1840.42
144.685
2162.55
122.759
2022.05
106.151
1843.15
94.4644
1705.04
82.5835
1582.73
71.1775
1462.76
60.3969
1344.56
49.4768
1229.27
39.4465
1111.02
29.7642
970.5
18.0962
777.838
5.24486
526.034
221.898
51.2454
648.991
97.9299
1793.74
102.721
2157.76
87.3903
2037.38
73.158
1857.38
63.1472
1715.05
54.2463
1591.63
44.8627
1472.15
36.1491
1353.27
28.1725
1237.24
20.4247
1118.77
13.6867
977.236
6.7473
784.777
-0.403143
533.184
221.495
25.135
623.861
57.7291
1761.15
63.5263
2151.96
53.4939
2047.42
43.9172
1866.96
36.2044
1722.76
29.5747
1598.26
23.5242
1478.2
17.0725
1359.73
11.3206
1242.99
6.60743
1123.48
2.48147
981.374
-1.06271
788.332
-3.67471
535.805
217.821
1.42352
622.444
24.0654
1738.51
33.3692
2142.66
27.7469
2053.04
20.398
1874.31
15.1089
1728.05
9.57937
1603.79
4.63846
1483.14
0.0948756
1364.27
-4.77175
1247.86
-8.28563
1126.99
-9.61213
982.687
-9.70865
788.405
-7.14534
533.221
210.675
-11.7398
-3.14623
1.4392
-0.423295
-5.1194
-8.86553
-11.8164
-15.2423
-18.105
-20.2238
-21.7876
-21.118
-18.1334
-12.3997
)
;

boundaryField
{
    inletFace
    {
        type            calculated;
        value           nonuniform List<scalar> 
450
(
-5.30956e-14
5.87035e-13
-2.25873e-13
-1.25502e-13
1.50716e-13
-1.92979e-13
-6.43392e-14
6.80651e-14
-1.05721e-13
-3.51435e-14
4.21992e-14
-5.35962e-14
1.70069e-16
1.25942e-14
-1.30693e-15
-2.13393e-12
-2.25918e-12
-6.14887e-14
-6.0301e-13
-2.74866e-13
2.34016e-14
-2.84017e-13
-1.39336e-13
2.3132e-15
-1.41867e-13
-6.99326e-14
1.17976e-14
-6.99272e-14
-9.92854e-15
-8.85889e-16
-2.21611e-12
-2.38523e-12
-2.44776e-13
-6.08914e-13
-2.47482e-13
-1.03759e-13
-2.92574e-13
-1.12187e-13
-1.0076e-13
-1.27856e-13
-4.88734e-14
-6.07354e-14
-4.90349e-14
9.47089e-15
5.12387e-15
-2.55351e-12
-2.2646e-12
-3.46832e-13
-7.99205e-13
-2.20805e-13
-2.16964e-13
-4.0902e-13
-1.07819e-13
-1.6277e-13
-2.06942e-13
-5.80147e-14
-1.04511e-13
-1.02642e-13
3.72207e-14
7.08342e-14
-2.40688e-12
-2.31437e-12
-4.65576e-13
-7.4169e-13
-2.21369e-13
-2.35126e-13
-3.81271e-13
-1.15971e-13
-1.56953e-13
-1.89035e-13
-7.83465e-14
-8.80659e-14
-9.24599e-14
-1.14575e-14
5.3876e-14
-2.1156e-12
-2.35886e-12
-6.40354e-13
-6.45414e-13
-2.3004e-13
-1.8619e-13
-3.38282e-13
-1.16721e-13
-1.22064e-13
-1.77363e-13
-6.41366e-14
-3.49465e-14
-6.47191e-14
-4.13183e-15
2.14211e-14
-1.90288e-12
-2.44558e-12
-8.92589e-13
-6.26317e-13
-2.91806e-13
-2.10943e-13
-3.13993e-13
-1.50977e-13
-1.44119e-13
-1.6942e-13
-8.49549e-14
-8.16192e-14
-5.03322e-14
-7.82349e-14
-1.41503e-13
-1.67348e-12
-2.47267e-12
-1.11863e-12
-6.29094e-13
-3.27187e-13
-2.40434e-13
-2.94009e-13
-1.90236e-13
-1.68481e-13
-1.55461e-13
-1.18103e-13
-1.45622e-13
-4.75259e-14
-2.74686e-14
-2.39638e-13
-1.40418e-12
-2.45906e-12
-1.29143e-12
-6.62219e-13
-3.47133e-13
-2.28226e-13
-2.94369e-13
-2.09917e-13
-1.46682e-13
-1.63331e-13
-1.22793e-13
-1.04256e-13
-5.78226e-14
-2.25129e-14
-6.69422e-14
-1.20634e-12
-2.41397e-12
-1.42702e-12
-7.13419e-13
-3.64776e-13
-2.12927e-13
-2.83729e-13
-2.14789e-13
-1.27925e-13
-1.56586e-13
-1.18181e-13
-8.95873e-14
-6.78748e-14
-3.61885e-14
6.59118e-14
-1.01511e-12
-2.35279e-12
-1.54169e-12
-7.49134e-13
-3.80907e-13
-2.13218e-13
-2.51558e-13
-2.15832e-13
-1.22395e-13
-1.23304e-13
-1.17848e-13
-6.62667e-14
8.29467e-16
-2.10855e-14
9.20869e-14
-8.89616e-13
-2.30386e-12
-1.59583e-12
-7.91063e-13
-4.04754e-13
-1.83608e-13
-2.43278e-13
-2.2723e-13
-7.91537e-14
-1.17487e-13
-1.27443e-13
5.78839e-15
2.1614e-14
1.05478e-13
1.45423e-13
-8.31912e-13
-2.25434e-12
-1.63655e-12
-8.28597e-13
-4.21134e-13
-1.76969e-13
-2.37827e-13
-2.3698e-13
-7.93868e-14
-1.12814e-13
-1.2104e-13
2.51038e-14
2.09267e-14
1.23537e-13
1.34906e-13
-7.93128e-13
-2.215e-12
-1.66796e-12
-8.48872e-13
-4.29783e-13
-1.82479e-13
-2.29434e-13
-2.48964e-13
-8.17837e-14
-1.10949e-13
-1.21504e-13
2.96524e-14
2.48684e-14
1.1016e-13
1.14776e-13
-8.0159e-13
-2.15644e-12
-1.67091e-12
-8.67711e-13
-4.33934e-13
-1.92582e-13
-2.31098e-13
-2.39493e-13
-9.06469e-14
-1.14182e-13
-1.06862e-13
2.23184e-14
2.88049e-14
1.05509e-13
6.8203e-14
5.30956e-14
-5.87035e-13
2.25873e-13
1.25502e-13
-1.50716e-13
1.92979e-13
6.43392e-14
-6.80651e-14
1.05721e-13
3.51435e-14
-4.21992e-14
5.35962e-14
-1.70069e-16
-1.25942e-14
1.30693e-15
2.13393e-12
2.25918e-12
6.14887e-14
6.0301e-13
2.74866e-13
-2.34016e-14
2.84017e-13
1.39336e-13
-2.3132e-15
1.41867e-13
6.99326e-14
-1.17976e-14
6.99272e-14
9.92854e-15
8.85889e-16
2.21611e-12
2.38523e-12
2.44776e-13
6.08914e-13
2.47482e-13
1.03759e-13
2.92574e-13
1.12187e-13
1.0076e-13
1.27856e-13
4.88734e-14
6.07354e-14
4.90349e-14
-9.47089e-15
-5.12387e-15
2.55351e-12
2.2646e-12
3.46832e-13
7.99205e-13
2.20805e-13
2.16964e-13
4.0902e-13
1.07819e-13
1.6277e-13
2.06942e-13
5.80147e-14
1.04511e-13
1.02642e-13
-3.72207e-14
-7.08342e-14
2.40688e-12
2.31437e-12
4.65576e-13
7.4169e-13
2.21369e-13
2.35126e-13
3.81271e-13
1.15971e-13
1.56953e-13
1.89035e-13
7.83465e-14
8.80659e-14
9.24599e-14
1.14575e-14
-5.3876e-14
2.1156e-12
2.35886e-12
6.40354e-13
6.45414e-13
2.3004e-13
1.8619e-13
3.38282e-13
1.16721e-13
1.22064e-13
1.77363e-13
6.41366e-14
3.49465e-14
6.47191e-14
4.13183e-15
-2.14211e-14
1.90288e-12
2.44558e-12
8.92589e-13
6.26317e-13
2.91806e-13
2.10943e-13
3.13993e-13
1.50977e-13
1.44119e-13
1.6942e-13
8.49549e-14
8.16192e-14
5.03322e-14
7.82349e-14
1.41503e-13
1.67348e-12
2.47267e-12
1.11863e-12
6.29094e-13
3.27187e-13
2.40434e-13
2.94009e-13
1.90236e-13
1.68481e-13
1.55461e-13
1.18103e-13
1.45622e-13
4.75259e-14
2.74686e-14
2.39638e-13
1.40418e-12
2.45906e-12
1.29143e-12
6.62219e-13
3.47133e-13
2.28226e-13
2.94369e-13
2.09917e-13
1.46682e-13
1.63331e-13
1.22793e-13
1.04256e-13
5.78226e-14
2.25129e-14
6.69422e-14
1.20634e-12
2.41397e-12
1.42702e-12
7.13419e-13
3.64776e-13
2.12927e-13
2.83729e-13
2.14789e-13
1.27925e-13
1.56586e-13
1.18181e-13
8.95873e-14
6.78748e-14
3.61885e-14
-6.59118e-14
1.01511e-12
2.35279e-12
1.54169e-12
7.49134e-13
3.80907e-13
2.13218e-13
2.51558e-13
2.15832e-13
1.22395e-13
1.23304e-13
1.17848e-13
6.62667e-14
-8.29467e-16
2.10855e-14
-9.20869e-14
8.89616e-13
2.30386e-12
1.59583e-12
7.91063e-13
4.04754e-13
1.83608e-13
2.43278e-13
2.2723e-13
7.91537e-14
1.17487e-13
1.27443e-13
-5.78839e-15
-2.1614e-14
-1.05478e-13
-1.45423e-13
8.31912e-13
2.25434e-12
1.63655e-12
8.28597e-13
4.21134e-13
1.76969e-13
2.37827e-13
2.3698e-13
7.93868e-14
1.12814e-13
1.2104e-13
-2.51038e-14
-2.09267e-14
-1.23537e-13
-1.34906e-13
7.93128e-13
2.215e-12
1.66796e-12
8.48872e-13
4.29783e-13
1.82479e-13
2.29434e-13
2.48964e-13
8.17837e-14
1.10949e-13
1.21504e-13
-2.96524e-14
-2.48684e-14
-1.1016e-13
-1.14776e-13
8.0159e-13
2.15644e-12
1.67091e-12
8.67711e-13
4.33934e-13
1.92582e-13
2.31098e-13
2.39493e-13
9.06469e-14
1.14182e-13
1.06862e-13
-2.23184e-14
-2.88049e-14
-1.05509e-13
-6.8203e-14
)
;
    }
    inlet
    {
        type            calculated;
        value           nonuniform List<scalar> 
15
(
-1299.9
-1300.2
-1299.9
-1299.9
-1300.2
-1299.9
-1299.9
-1300.2
-1299.9
-1299.9
-1300.2
-1299.9
-1299.9
-1300.2
-1299.9
)
;
    }
    inletWalls
    {
        type            calculated;
        value           uniform 0;
    }
    outletInlet
    {
        type            calculated;
        value           nonuniform List<scalar> 
15
(
198.275
527.48
785.413
982.017
1128.54
1249.98
1367.12
1486.57
1606.73
1731.8
1879
2054.9
2138.07
1729.91
634.174
)
;
    }
}


// ************************************************************************* //
