/*--------------------------------*- C++ -*----------------------------------*\
| =========                 |                                                 |
| \\      /  F ield         | OpenFOAM: The Open Source CFD Toolbox           |
|  \\    /   O peration     | Version:  4.1                                   |
|   \\  /    A nd           | Web:      www.OpenFOAM.org                      |
|    \\/     M anipulation  |                                                 |
\*---------------------------------------------------------------------------*/
FoamFile
{
    version     2.0;
    format      ascii;
    class       volVectorField;
    location    "30";
    object      U;
}
// * * * * * * * * * * * * * * * * * * * * * * * * * * * * * * * * * * * * * //

dimensions      [0 1 -1 0 0 0 0];

internalField   nonuniform List<vector> 
225
(
(1.13988e-14 0.852193 15.7946)
(9.21956e-15 -4.89458 12.1215)
(-2.24621e-15 -4.19551 12.1321)
(8.80542e-17 -3.60118 11.9966)
(5.60152e-16 -3.00469 11.8778)
(-1.96923e-16 -2.55319 11.6992)
(1.94167e-15 -2.2088 11.4769)
(2.73316e-16 -1.96603 11.2116)
(-2.37235e-17 -1.79856 10.916)
(1.02647e-15 -1.71238 10.5882)
(1.23892e-16 -1.83745 10.1561)
(-8.66887e-17 -2.28566 9.53763)
(5.31948e-16 -2.51301 8.96377)
(-8.71875e-17 -1.06549 8.91356)
(9.04762e-18 1.76574 7.47087)
(1.02031e-14 -5.35016 22.493)
(1.56416e-14 -14.6049 21.394)
(4.25674e-16 -13.2708 20.3411)
(4.36135e-15 -11.7697 19.5066)
(1.90306e-15 -11.1561 18.5043)
(-1.62004e-16 -10.6595 17.5174)
(2.07695e-15 -10.0901 16.5714)
(9.64705e-16 -9.52499 15.6236)
(-1.60138e-17 -8.96544 14.6638)
(1.11294e-15 -8.36732 13.6946)
(4.84185e-16 -7.7571 12.7179)
(-8.16724e-17 -7.30335 11.7194)
(4.83393e-16 -7.01703 10.6244)
(6.87412e-17 -5.73092 9.16112)
(6.13283e-18 -2.305 4.58321)
(1.43995e-14 -7.71566 23.9801)
(2.00731e-14 -16.7731 24.6729)
(1.69474e-15 -13.7365 23.9372)
(5.73474e-15 -12.3062 22.6249)
(1.71327e-15 -11.6447 21.2414)
(7.1839e-16 -10.814 20.0013)
(3.16543e-15 -9.94025 18.7738)
(7.76652e-16 -9.10011 17.5247)
(6.97627e-16 -8.28336 16.2654)
(1.67427e-15 -7.47521 15.0262)
(3.38342e-16 -6.66762 13.8176)
(4.20508e-16 -5.84167 12.4301)
(-3.85526e-16 -4.8139 10.2752)
(-6.55653e-17 -3.12628 6.68447)
(-3.54757e-17 -0.832182 1.68996)
(1.76705e-14 -8.50258 22.0462)
(1.56775e-14 -16.621 24.332)
(2.40108e-15 -12.93 23.7971)
(5.53344e-15 -12.1536 21.9985)
(1.4574e-15 -11.4201 20.5028)
(1.52633e-15 -10.4936 19.1722)
(2.83192e-15 -9.63386 17.8167)
(6.67427e-16 -8.8236 16.459)
(1.15469e-15 -8.05365 15.123)
(1.4179e-15 -7.32376 13.8164)
(3.93497e-16 -6.55243 12.4394)
(7.98382e-16 -5.49088 10.583)
(6.85832e-16 -3.7853 7.50874)
(-6.50496e-17 -1.49374 2.76619)
(-8.05296e-16 0.153237 -1.77295)
(1.64509e-14 -8.47616 19.748)
(1.56778e-14 -16.3601 24.312)
(3.04476e-15 -13.099 23.6602)
(4.93996e-15 -12.628 21.5365)
(1.2216e-15 -11.8565 20.0248)
(1.40794e-15 -10.9574 18.6637)
(2.52259e-15 -10.1698 17.2587)
(-6.8909e-16 -9.40277 15.8711)
(9.54217e-16 -8.65261 14.5236)
(1.23814e-15 -7.93054 13.2136)
(1.07267e-15 -7.16587 11.8292)
(1.28688e-15 -6.11613 9.99625)
(5.33744e-16 -4.42403 7.15555)
(-2.78847e-16 -2.30531 3.28796)
(-7.39143e-16 -0.787244 0.317793)
(1.48701e-14 -8.02193 17.5537)
(1.6372e-14 -16.0195 24.5277)
(4.17953e-15 -13.6434 24.0462)
(4.05256e-15 -12.9943 21.7651)
(1.64166e-15 -12.1264 20.2158)
(1.44518e-15 -11.2247 18.847)
(2.8959e-15 -10.439 17.4341)
(8.67336e-16 -9.6489 16.0434)
(9.72642e-16 -8.86037 14.6933)
(1.91701e-15 -8.09329 13.3818)
(5.19487e-16 -7.29735 12.0172)
(5.00721e-16 -6.28461 10.2818)
(1.43986e-15 -4.73304 7.72094)
(3.86202e-16 -2.75618 4.37255)
(8.59536e-16 -0.949438 1.29743)
(1.33077e-14 -7.33746 15.2535)
(1.71433e-14 -15.491 24.355)
(6.26385e-15 -14.0225 24.4218)
(4.33642e-15 -13.1278 22.0675)
(2.07045e-15 -12.1448 20.4401)
(1.56805e-15 -11.2358 19.0547)
(2.17398e-15 -10.4361 17.6437)
(1.1707e-15 -9.61986 16.2576)
(1.81648e-15 -8.81017 14.9067)
(1.17301e-15 -8.02723 13.5919)
(7.53011e-16 -7.22399 12.2369)
(9.44025e-16 -6.24033 10.5489)
(3.48484e-16 -4.78758 8.10759)
(1.66796e-16 -2.91415 4.94722)
(2.25194e-15 -1.01087 1.79742)
(1.18155e-14 -6.55629 13.0331)
(1.71194e-14 -14.847 23.8164)
(7.7018e-15 -14.2638 24.669)
(3.89025e-15 -13.2372 22.3215)
(2.26527e-15 -12.1674 20.5832)
(1.55606e-15 -11.2657 19.1667)
(1.50963e-15 -10.4651 17.7586)
(1.3171e-15 -9.64315 16.3766)
(1.02873e-15 -8.83495 15.0246)
(1.15141e-15 -8.05529 13.7073)
(8.17685e-16 -7.25499 12.3576)
(8.17846e-16 -6.28692 10.6996)
(3.29006e-16 -4.89103 8.33101)
(1.90178e-16 -3.08521 5.26766)
(1.16236e-15 -1.12218 2.04392)
(9.72095e-15 -5.77845 11.1239)
(1.70238e-14 -14.1745 23.0906)
(8.81561e-15 -14.4412 24.8462)
(4.58446e-15 -13.3963 22.6148)
(2.40316e-15 -12.2528 20.7553)
(1.41884e-15 -11.3493 19.2955)
(2.03788e-15 -10.5477 17.8904)
(1.45323e-15 -9.72543 16.5109)
(8.11677e-16 -8.91944 15.1562)
(1.13072e-15 -8.14023 13.8351)
(8.50079e-16 -7.33994 12.4864)
(-4.00521e-16 -6.38013 10.8513)
(4.00299e-16 -5.0235 8.54671)
(1.55854e-16 -3.26575 5.55829)
(-4.73314e-16 -1.23753 2.24764)
(7.57229e-15 -5.08508 9.59945)
(1.67116e-14 -13.5192 22.3001)
(9.41535e-15 -14.5349 24.9522)
(4.84803e-15 -13.5531 22.9353)
(2.5253e-15 -12.3447 20.9698)
(1.42023e-15 -11.425 19.4566)
(1.84853e-15 -10.6174 18.0506)
(1.48696e-15 -9.79445 16.6721)
(8.17534e-16 -8.98827 15.3136)
(1.91429e-16 -8.20623 13.9874)
(8.18156e-16 -7.40476 12.6356)
(1.3691e-15 -6.4515 11.0133)
(1.21998e-16 -5.12524 8.7551)
(2.50529e-16 -3.40654 5.81952)
(-7.56486e-16 -1.31908 2.43093)
(6.56664e-15 -4.5388 8.46239)
(1.60914e-14 -12.9256 21.5504)
(1.07368e-14 -14.5349 24.9757)
(5.16305e-15 -13.6654 23.2209)
(2.68754e-15 -12.4128 21.1811)
(1.80212e-15 -11.4735 19.612)
(2.32664e-15 -10.659 18.2003)
(1.55758e-15 -9.83695 16.8209)
(5.7227e-16 -9.03206 15.4585)
(8.53592e-16 -8.24857 14.1269)
(8.98856e-16 -7.44651 12.7692)
(8.09819e-17 -6.49778 11.1498)
(-5.74212e-18 -5.19262 8.91848)
(-5.20101e-16 -3.50188 6.01054)
(-1.19599e-15 -1.36381 2.54255)
(6.1587e-15 -4.17049 7.70281)
(1.59752e-14 -12.4378 20.9278)
(1.07871e-14 -14.4733 24.9365)
(5.47644e-15 -13.7316 23.4378)
(3.08152e-15 -12.4592 21.3593)
(1.46364e-15 -11.5039 19.7405)
(1.68418e-15 -10.6832 18.3206)
(1.95674e-15 -9.86357 16.9391)
(5.13294e-16 -9.06116 15.5729)
(8.13348e-16 -8.2776 14.2363)
(8.82269e-16 -7.47488 12.8709)
(-1.35339e-16 -6.52681 11.2465)
(-9.11416e-17 -5.23306 9.0265)
(-8.13219e-16 -3.55801 6.12617)
(-1.67016e-15 -1.37735 2.57268)
(5.66064e-15 -3.9734 7.27969)
(1.55796e-14 -12.0682 20.4611)
(1.13519e-14 -14.3843 24.8625)
(5.7018e-15 -13.76 23.5828)
(2.91546e-15 -12.4876 21.497)
(1.22513e-15 -11.523 19.8407)
(1.61674e-15 -10.6966 18.4121)
(1.73742e-15 -9.88002 17.028)
(5.14544e-16 -9.08059 15.6585)
(7.81088e-16 -8.29724 14.317)
(8.80116e-16 -7.49314 12.9422)
(-2.21737e-16 -6.54211 11.3061)
(-1.4489e-16 -5.25095 9.08434)
(-7.72723e-16 -3.57883 6.17545)
(-1.08193e-15 -1.3652 2.53884)
(5.44339e-15 -3.9038 7.11039)
(1.53216e-14 -11.8313 20.1817)
(1.15241e-14 -14.2998 24.79)
(5.86464e-15 -13.7667 23.6685)
(2.96266e-15 -12.5019 21.5898)
(1.26324e-15 -11.5321 19.9096)
(1.60337e-15 -10.7004 18.4746)
(1.70741e-15 -9.88558 17.0884)
(5.66162e-16 -9.08805 15.7174)
(7.87284e-16 -8.30421 14.3731)
(8.20173e-16 -7.498 12.9908)
(-2.05274e-16 -6.54332 11.3435)
(-1.43128e-16 -5.25355 9.11738)
(-8.03547e-16 -3.58376 6.2017)
(-7.94554e-16 -1.35019 2.50652)
(5.53452e-15 -4.0394 7.28661)
(1.49218e-14 -11.627 19.952)
(1.15746e-14 -14.1916 24.6679)
(6.00706e-15 -13.7463 23.7082)
(2.99756e-15 -12.5065 21.6736)
(1.3404e-15 -11.5392 19.9772)
(1.59986e-15 -10.6994 18.5349)
(1.64989e-15 -9.88689 17.1437)
(6.3634e-16 -9.09046 15.7694)
(7.90468e-16 -8.30494 14.4183)
(7.34597e-16 -7.48994 13.0147)
(-1.48639e-16 -6.51536 11.3281)
(-1.99413e-16 -5.20604 9.06124)
(-7.40602e-16 -3.50169 6.08279)
(-4.53089e-16 -1.25253 2.30737)
)
;

boundaryField
{
    inletFace
    {
        type            zeroGradient;
    }
    inlet
    {
        type            fixedValue;
        value           uniform (0 8.7 15);
    }
    inletWalls
    {
        type            noSlip;
    }
    outletInlet
    {
        type            zeroGradient;
    }
}


// ************************************************************************* //
