/*--------------------------------*- C++ -*----------------------------------*\
| =========                 |                                                 |
| \\      /  F ield         | OpenFOAM: The Open Source CFD Toolbox           |
|  \\    /   O peration     | Version:  4.1                                   |
|   \\  /    A nd           | Web:      www.OpenFOAM.org                      |
|    \\/     M anipulation  |                                                 |
\*---------------------------------------------------------------------------*/
FoamFile
{
    version     2.0;
    format      ascii;
    class       volScalarField;
    location    "13";
    object      p;
}
// * * * * * * * * * * * * * * * * * * * * * * * * * * * * * * * * * * * * * //

dimensions      [0 2 -2 0 0 0 0];

internalField   nonuniform List<scalar> 
225
(
523.377
469.98
418.149
369.738
324.847
282.83
243.475
206.471
171.377
138.013
107.071
78.9322
49.9033
14.9845
-14.1677
56.9431
34.6821
28.9234
25.2132
19.7391
14.0316
8.87875
4.48999
1.00607
-1.45268
-2.64397
-2.14232
-0.0458761
1.82565
2.08583
-45.8393
-52.4823
-46.7154
-42.5685
-39.4779
-35.8825
-31.9962
-28.0589
-24.1545
-20.4386
-17.0931
-14.026
-10.9492
-8.29634
-7.0621
0.29442
-2.12361
2.46917
2.79333
2.84692
3.06211
2.97299
2.59569
2.01414
1.25497
0.29823
-0.811104
-1.72139
-1.87363
-1.56317
16.7223
14.3895
15.9432
13.8453
12.4264
11.1829
9.77294
8.39109
7.13366
6.04262
5.14162
4.42908
3.9515
3.91878
4.16364
7.49417
5.47115
6.44512
5.22581
5.02281
5.00704
4.91927
4.9526
5.10819
5.3517
5.67099
6.03386
6.35353
6.61023
6.78497
4.02263
2.8672
3.95278
3.6297
4.01653
4.41067
4.70966
5.06032
5.41688
5.74165
6.03134
6.28525
6.46348
6.5445
6.56021
5.70044
5.14265
5.99701
5.76802
5.96654
6.07904
6.10294
6.14823
6.17281
6.16797
6.14426
6.11644
6.08278
6.03692
5.98844
6.00787
5.68249
6.19331
5.9174
5.96019
5.92934
5.85423
5.8071
5.75144
5.69084
5.63156
5.57842
5.53168
5.48558
5.43436
4.68808
4.48037
4.82597
4.6495
4.72221
4.73113
4.71822
4.7264
4.7238
4.71703
4.70743
4.69271
4.67049
4.63521
4.57748
3.31755
3.20133
3.49892
3.445
3.56464
3.61137
3.64005
3.67506
3.69173
3.69864
3.69667
3.68417
3.66014
3.62189
3.55635
2.34327
2.28309
2.53743
2.53882
2.65725
2.69869
2.72782
2.75494
2.76251
2.76042
2.749
2.72809
2.69823
2.65946
2.59482
1.56464
1.52976
1.73224
1.74613
1.84537
1.87177
1.89412
1.91124
1.91156
1.9047
1.89012
1.86787
1.83829
1.80356
1.74569
0.880674
0.868632
1.02959
1.03428
1.11126
1.12482
1.14264
1.15471
1.15415
1.1492
1.13831
1.12129
1.0963
1.06515
1.01094
0.43878
0.399457
0.455251
0.423108
0.459238
0.440561
0.434227
0.420185
0.399291
0.376612
0.350005
0.321326
0.290904
0.260964
0.217953
)
;

boundaryField
{
    inletFace
    {
        type            zeroGradient;
    }
    inlet
    {
        type            zeroGradient;
    }
    inletWalls
    {
        type            zeroGradient;
    }
    outletInlet
    {
        type            fixedValue;
        value           uniform 0;
    }
}


// ************************************************************************* //
