/*--------------------------------*- C++ -*----------------------------------*\
| =========                 |                                                 |
| \\      /  F ield         | OpenFOAM: The Open Source CFD Toolbox           |
|  \\    /   O peration     | Version:  4.1                                   |
|   \\  /    A nd           | Web:      www.OpenFOAM.org                      |
|    \\/     M anipulation  |                                                 |
\*---------------------------------------------------------------------------*/
FoamFile
{
    version     2.0;
    format      ascii;
    class       surfaceScalarField;
    location    "13";
    object      phi;
}
// * * * * * * * * * * * * * * * * * * * * * * * * * * * * * * * * * * * * * //

dimensions      [0 3 -1 0 0 0 0];

internalField   nonuniform List<scalar> 
420
(
-949.879
2249.78
-1573.95
1924.28
-2054
1779.95
-2424.23
1670.13
-2699.86
1575.82
-2888.38
1488.42
-2993.05
1404.58
-3013.85
1321
-2949.61
1235.66
-2797.23
1147.52
-2551.17
1054.13
-2193
941.735
-1687.17
794.065
-1012.67
625.704
287.232
373.335
1876.44
442.749
1854.86
437.302
1785.39
406.698
1700.74
380.581
1601.94
359.901
1509.1
345.293
1419.19
337.536
1328.76
333.484
1239.71
326.953
1154.05
309.609
1071.48
267.466
983.878
191.427
870.104
111.447
705.684
398.68
33.5756
1842.87
-97.3879
1985.83
-253.612
1941.62
-371.118
1818.24
-473.181
1704.01
-567.53
1603.45
-651.746
1503.4
-725.793
1402.8
-788.07
1301.99
-837.303
1203.28
-868.221
1102.4
-856.083
971.74
-740.331
754.352
-434.283
399.637
-35.6039
28.7746
1814.09
-100.653
2115.25
-225.559
2066.52
-304.495
1897.18
-368.156
1767.67
-416.952
1652.24
-446.227
1532.68
-457.015
1413.59
-451.853
1296.83
-430.154
1181.58
-387.226
1059.47
-311.871
896.386
-192.864
635.345
-48.4072
255.181
-84.0111
169.624
1644.47
146.157
2138.72
123.733
2088.95
122.87
1898.04
126.941
1763.6
135.805
1643.38
149.102
1519.38
166.59
1396.1
186.941
1276.47
208.129
1160.4
229.129
1038.47
243.821
881.695
233.004
646.162
155.232
332.955
71.2205
223.073
1421.4
244.179
2117.62
234.743
2098.39
236.021
1896.76
240.369
1759.25
244.303
1639.45
246.545
1517.14
245.249
1397.4
241.161
1280.56
233.988
1167.57
221.382
1051.07
199.139
903.939
156.142
689.161
78.3033
410.795
149.523
203.314
1218.08
238.366
2082.57
213.612
2123.14
191.403
1918.97
177.197
1773.45
163.766
1652.88
150.034
1530.87
135.893
1411.54
121.068
1295.39
106.918
1181.72
92.8222
1065.17
75.772
920.989
52.0253
712.908
19.0231
443.797
168.545
171.844
1046.24
221.969
2032.44
199.412
2145.7
170.398
1947.99
152.05
1791.8
137.67
1667.26
122.782
1545.76
108.584
1425.74
95.5893
1308.38
83.1103
1194.2
71.4906
1076.79
58.6407
933.838
40.3287
731.218
15.7516
468.372
184.297
146.083
900.154
210.042
1968.48
196.864
2158.88
170.046
1974.81
152.4
1809.45
139.533
1680.13
127.07
1558.23
113.866
1438.95
101.322
1320.93
89.4218
1206.1
76.9876
1089.22
63.0923
947.735
44.3114
750
19.171
493.514
203.47
116.761
783.404
184.848
1900.4
179.625
2164.1
154.312
2000.13
137.22
1826.54
123.999
1693.35
111.369
1570.85
98.9611
1451.35
86.1095
1333.78
73.8707
1218.34
62.1078
1100.99
49.0304
960.815
32.8635
766.172
13.1918
513.189
216.658
83.1723
700.241
143.143
1840.42
144.695
2162.55
122.761
2022.05
106.149
1843.15
94.4578
1705.03
82.5766
1582.73
71.1657
1462.76
60.3844
1344.56
49.4607
1229.27
39.4284
1111.02
29.7499
970.501
18.0919
777.839
5.25232
526.037
221.898
51.2322
648.986
97.9231
1793.75
102.702
2157.76
87.3643
2037.37
73.1455
1857.37
63.1383
1715.04
54.245
1591.63
44.8645
1472.14
36.1558
1353.27
28.1808
1237.24
20.4349
1118.77
13.6916
977.234
6.7413
784.772
-0.412655
533.173
221.48
25.1021
623.867
57.6798
1761.16
63.4567
2151.97
53.4419
2047.41
43.8695
1866.96
36.1617
1722.76
29.5343
1598.26
23.4912
1478.18
17.0466
1359.71
11.2998
1242.98
6.59865
1123.46
2.47193
981.354
-1.07816
788.307
-3.69383
535.78
217.798
1.41587
622.484
24.012
1738.53
33.3447
2142.66
27.7366
2053.06
20.3545
1874.32
15.0499
1728.06
9.5076
1603.79
4.55567
1483.14
0.00450582
1364.26
-4.86812
1247.85
-8.37889
1126.97
-9.69186
982.669
-9.74875
788.383
-7.14634
533.202
210.655
-11.744
-3.12841
1.49478
-0.382439
-5.07681
-8.8264
-11.771
-15.2085
-18.0703
-20.1999
-21.7646
-21.1038
-18.1196
-12.3871
)
;

boundaryField
{
    inletFace
    {
        type            calculated;
        value           nonuniform List<scalar> 
450
(
-2.65655e-14
5.91723e-13
-3.16359e-13
-2.04288e-13
1.98838e-13
-1.87502e-13
-6.37336e-14
7.00518e-14
-1.02667e-13
-2.90215e-14
5.47693e-14
-1.6089e-14
5.36541e-15
1.13829e-15
-1.16476e-15
-2.13003e-12
-2.33995e-12
-6.08675e-14
-8.71308e-13
-3.00355e-13
1.4126e-14
-2.87396e-13
-1.38405e-13
3.42214e-15
-1.35837e-13
-5.85778e-14
3.78402e-14
-3.51615e-14
-1.03189e-14
-1.21927e-15
-2.28193e-12
-2.21773e-12
-2.85485e-13
-4.91381e-13
-2.7353e-13
-1.07684e-13
-2.92642e-13
-1.06286e-13
-8.35303e-14
-1.17884e-13
-4.27748e-14
6.41701e-15
8.08849e-15
-1.35152e-14
1.75883e-15
-2.56292e-12
-1.95075e-12
-3.09675e-13
-5.31883e-13
-2.48732e-13
-2.3101e-13
-4.07287e-13
-1.01479e-13
-1.45899e-13
-1.84183e-13
-4.43077e-14
-3.46485e-14
-2.63449e-14
2.09527e-14
6.85149e-14
-2.37368e-12
-2.24089e-12
-3.61818e-13
-5.92882e-13
-2.46852e-13
-2.58445e-13
-3.82343e-13
-1.1218e-13
-1.64338e-13
-1.95748e-13
-4.09464e-14
-7.20559e-15
-5.40583e-14
6.13233e-15
6.77106e-14
-2.09468e-12
-2.36162e-12
-5.22353e-13
-4.86565e-13
-2.20031e-13
-2.04106e-13
-3.42637e-13
-1.17004e-13
-1.00033e-13
-1.33441e-13
-2.31396e-14
-3.27518e-14
-4.62165e-14
1.09808e-14
3.80741e-14
-1.8838e-12
-2.38819e-12
-7.65375e-13
-4.72847e-13
-2.41953e-13
-2.2459e-13
-3.10396e-13
-1.55308e-13
-1.10392e-13
-1.11288e-13
-7.8605e-14
-5.13755e-14
-4.96229e-14
-7.34082e-14
-1.3452e-13
-1.65389e-12
-2.41235e-12
-1.00872e-12
-4.55153e-13
-2.57119e-13
-2.43059e-13
-3.26005e-13
-1.97735e-13
-1.59591e-13
-1.3692e-13
-1.14747e-13
-6.91742e-14
-5.23126e-14
-3.04674e-14
-2.29415e-13
-1.37444e-12
-2.38992e-12
-1.18133e-12
-4.73023e-13
-2.63488e-13
-2.2244e-13
-3.36913e-13
-2.16594e-13
-1.5967e-13
-1.3611e-13
-1.19221e-13
-1.24239e-13
-9.01615e-14
-3.38217e-14
-7.1228e-14
-1.20278e-12
-2.33994e-12
-1.31839e-12
-5.47547e-13
-2.55976e-13
-1.99557e-13
-3.15041e-13
-2.24412e-13
-1.15298e-13
-1.63394e-13
-1.0391e-13
-1.26593e-13
-9.41024e-14
-1.14336e-14
1.72097e-14
-1.01954e-12
-2.27041e-12
-1.41323e-12
-5.72851e-13
-2.81189e-13
-1.91573e-13
-2.49483e-13
-2.31389e-13
-7.75434e-14
-1.4311e-13
-1.45981e-13
-6.90295e-14
-4.68581e-14
-8.28792e-14
7.42923e-14
-8.73651e-13
-2.20887e-12
-1.45164e-12
-6.12938e-13
-3.23615e-13
-1.58336e-13
-2.25343e-13
-2.20303e-13
-8.20786e-14
-1.14193e-13
-1.72103e-13
-3.15878e-14
-4.43622e-14
-1.68347e-14
1.41839e-13
-7.99274e-13
-2.14666e-12
-1.48846e-12
-6.59155e-13
-3.29246e-13
-1.53125e-13
-2.39004e-13
-2.23349e-13
-9.0344e-14
-1.13781e-13
-1.37572e-13
-3.03888e-14
-5.16405e-14
6.57507e-14
1.20661e-13
-7.49525e-13
-2.09711e-12
-1.51171e-12
-6.76419e-13
-3.26271e-13
-1.56375e-13
-2.29834e-13
-2.50549e-13
-7.60805e-14
-1.09518e-13
-1.38751e-13
-9.63288e-15
-4.26122e-14
5.07485e-14
8.97264e-14
-7.4674e-13
-2.01588e-12
-1.49501e-12
-6.88004e-13
-3.26902e-13
-1.64045e-13
-2.31219e-13
-2.39654e-13
-8.38738e-14
-1.1004e-13
-1.21089e-13
-1.53797e-14
-3.40416e-14
5.02041e-14
5.07904e-14
2.65655e-14
-5.91723e-13
3.16359e-13
2.04288e-13
-1.98838e-13
1.87502e-13
6.37336e-14
-7.00518e-14
1.02667e-13
2.90215e-14
-5.47693e-14
1.6089e-14
-5.36541e-15
-1.13829e-15
1.16476e-15
2.13003e-12
2.33995e-12
6.08675e-14
8.71308e-13
3.00355e-13
-1.4126e-14
2.87396e-13
1.38405e-13
-3.42214e-15
1.35837e-13
5.85778e-14
-3.78402e-14
3.51615e-14
1.03189e-14
1.21927e-15
2.28193e-12
2.21773e-12
2.85485e-13
4.91381e-13
2.7353e-13
1.07684e-13
2.92642e-13
1.06286e-13
8.35303e-14
1.17884e-13
4.27748e-14
-6.41701e-15
-8.08849e-15
1.35152e-14
-1.75883e-15
2.56292e-12
1.95075e-12
3.09675e-13
5.31883e-13
2.48732e-13
2.3101e-13
4.07287e-13
1.01479e-13
1.45899e-13
1.84183e-13
4.43077e-14
3.46485e-14
2.63449e-14
-2.09527e-14
-6.85149e-14
2.37368e-12
2.24089e-12
3.61818e-13
5.92882e-13
2.46852e-13
2.58445e-13
3.82343e-13
1.1218e-13
1.64338e-13
1.95748e-13
4.09464e-14
7.20559e-15
5.40583e-14
-6.13233e-15
-6.77106e-14
2.09468e-12
2.36162e-12
5.22353e-13
4.86565e-13
2.20031e-13
2.04106e-13
3.42637e-13
1.17004e-13
1.00033e-13
1.33441e-13
2.31396e-14
3.27518e-14
4.62165e-14
-1.09808e-14
-3.80741e-14
1.8838e-12
2.38819e-12
7.65375e-13
4.72847e-13
2.41953e-13
2.2459e-13
3.10396e-13
1.55308e-13
1.10392e-13
1.11288e-13
7.8605e-14
5.13755e-14
4.96229e-14
7.34082e-14
1.3452e-13
1.65389e-12
2.41235e-12
1.00872e-12
4.55153e-13
2.57119e-13
2.43059e-13
3.26005e-13
1.97735e-13
1.59591e-13
1.3692e-13
1.14747e-13
6.91742e-14
5.23126e-14
3.04674e-14
2.29415e-13
1.37444e-12
2.38992e-12
1.18133e-12
4.73023e-13
2.63488e-13
2.2244e-13
3.36913e-13
2.16594e-13
1.5967e-13
1.3611e-13
1.19221e-13
1.24239e-13
9.01615e-14
3.38217e-14
7.1228e-14
1.20278e-12
2.33994e-12
1.31839e-12
5.47547e-13
2.55976e-13
1.99557e-13
3.15041e-13
2.24412e-13
1.15298e-13
1.63394e-13
1.0391e-13
1.26593e-13
9.41024e-14
1.14336e-14
-1.72097e-14
1.01954e-12
2.27041e-12
1.41323e-12
5.72851e-13
2.81189e-13
1.91573e-13
2.49483e-13
2.31389e-13
7.75434e-14
1.4311e-13
1.45981e-13
6.90295e-14
4.68581e-14
8.28792e-14
-7.42923e-14
8.73651e-13
2.20887e-12
1.45164e-12
6.12938e-13
3.23615e-13
1.58336e-13
2.25343e-13
2.20303e-13
8.20786e-14
1.14193e-13
1.72103e-13
3.15878e-14
4.43622e-14
1.68347e-14
-1.41839e-13
7.99274e-13
2.14666e-12
1.48846e-12
6.59155e-13
3.29246e-13
1.53125e-13
2.39004e-13
2.23349e-13
9.0344e-14
1.13781e-13
1.37572e-13
3.03888e-14
5.16405e-14
-6.57507e-14
-1.20661e-13
7.49525e-13
2.09711e-12
1.51171e-12
6.76419e-13
3.26271e-13
1.56375e-13
2.29834e-13
2.50549e-13
7.60805e-14
1.09518e-13
1.38751e-13
9.63288e-15
4.26122e-14
-5.07485e-14
-8.97264e-14
7.4674e-13
2.01588e-12
1.49501e-12
6.88004e-13
3.26902e-13
1.64045e-13
2.31219e-13
2.39654e-13
8.38738e-14
1.1004e-13
1.21089e-13
1.53797e-14
3.40416e-14
-5.02041e-14
-5.07904e-14
)
;
    }
    inlet
    {
        type            calculated;
        value           nonuniform List<scalar> 
15
(
-1299.9
-1300.2
-1299.9
-1299.9
-1300.2
-1299.9
-1299.9
-1300.2
-1299.9
-1299.9
-1300.2
-1299.9
-1299.9
-1300.2
-1299.9
)
;
    }
    inletWalls
    {
        type            calculated;
        value           uniform 0;
    }
    outletInlet
    {
        type            calculated;
        value           nonuniform List<scalar> 
15
(
198.264
527.47
785.405
982.014
1128.54
1249.99
1367.12
1486.58
1606.74
1731.81
1879.01
2054.91
2138.07
1729.93
634.236
)
;
    }
}


// ************************************************************************* //
