/*--------------------------------*- C++ -*----------------------------------*\
| =========                 |                                                 |
| \\      /  F ield         | OpenFOAM: The Open Source CFD Toolbox           |
|  \\    /   O peration     | Version:  4.1                                   |
|   \\  /    A nd           | Web:      www.OpenFOAM.org                      |
|    \\/     M anipulation  |                                                 |
\*---------------------------------------------------------------------------*/
FoamFile
{
    version     2.0;
    format      ascii;
    class       volVectorField;
    location    "13";
    object      U;
}
// * * * * * * * * * * * * * * * * * * * * * * * * * * * * * * * * * * * * * //

dimensions      [0 1 -1 0 0 0 0];

internalField   nonuniform List<vector> 
225
(
(1.12151e-14 0.852191 15.7946)
(9.1871e-15 -4.89458 12.1215)
(-1.61979e-15 -4.19551 12.1321)
(4.85386e-15 -3.60119 11.9966)
(2.27012e-16 -3.00468 11.8778)
(-2.34835e-16 -2.55319 11.6992)
(1.93748e-15 -2.20881 11.4769)
(2.59562e-16 -1.96603 11.2116)
(-4.48633e-17 -1.79855 10.916)
(9.84081e-16 -1.71238 10.5882)
(3.68719e-17 -1.83746 10.1561)
(-3.46346e-16 -2.28567 9.53762)
(2.29415e-16 -2.51301 8.96378)
(-7.88017e-18 -1.06552 8.91357)
(8.0634e-18 1.76574 7.47091)
(1.54354e-14 -5.35016 22.493)
(1.62008e-14 -14.6049 21.394)
(4.21373e-16 -13.2708 20.3411)
(6.21872e-15 -11.7697 19.5066)
(2.07954e-15 -11.1561 18.5043)
(-9.77917e-17 -10.6594 17.5174)
(2.10034e-15 -10.0901 16.5714)
(9.58262e-16 -9.525 15.6236)
(-2.36908e-17 -8.96544 14.6638)
(9.07664e-16 -8.36731 13.6946)
(4.05569e-16 -7.75709 12.7179)
(-2.6196e-16 -7.30335 11.7194)
(2.42019e-16 -7.01705 10.6244)
(7.1444e-17 -5.73093 9.16113)
(8.44078e-18 -2.30501 4.58321)
(1.78431e-14 -7.71565 23.9801)
(1.49573e-14 -16.7731 24.6729)
(1.97659e-15 -13.7365 23.9372)
(4.54125e-15 -12.3062 22.6249)
(1.8936e-15 -11.6447 21.2414)
(7.4556e-16 -10.814 20.0013)
(3.1659e-15 -9.94025 18.7738)
(7.35797e-16 -9.10011 17.5247)
(5.78332e-16 -8.28338 16.2654)
(1.40795e-15 -7.47524 15.0263)
(2.96122e-16 -6.66762 13.8176)
(-4.44289e-17 -5.84166 12.4301)
(3.06497e-16 -4.81391 10.2753)
(9.35634e-17 -3.12627 6.68444)
(-1.21775e-17 -0.832138 1.68992)
(1.77357e-14 -8.50259 22.0462)
(1.35048e-14 -16.621 24.332)
(2.14384e-15 -12.93 23.7971)
(3.68258e-15 -12.1536 21.9985)
(1.65073e-15 -11.4201 20.5028)
(1.6479e-15 -10.4936 19.1722)
(2.81993e-15 -9.63388 17.8167)
(6.23539e-16 -8.82359 16.459)
(1.03789e-15 -8.05363 15.123)
(1.26033e-15 -7.32377 13.8164)
(2.98605e-16 -6.55246 12.4394)
(2.3051e-16 -5.49088 10.583)
(1.57578e-16 -3.78526 7.50869)
(4.75682e-17 -1.49368 2.76606)
(-6.66375e-16 0.153272 -1.77298)
(1.62211e-14 -8.47615 19.748)
(1.53419e-14 -16.3601 24.312)
(2.32648e-15 -13.099 23.6602)
(3.90981e-15 -12.628 21.5365)
(1.39802e-15 -11.8565 20.0248)
(1.56937e-15 -10.9574 18.6637)
(2.53001e-15 -10.1698 17.2587)
(5.28007e-16 -9.40277 15.8711)
(1.00534e-15 -8.65258 14.5236)
(1.28462e-15 -7.9305 13.2136)
(5.62433e-17 -7.16587 11.8292)
(-3.47722e-17 -6.11614 9.99626)
(2.67902e-16 -4.42402 7.15554)
(-4.0063e-16 -2.30529 3.28791)
(-8.34919e-16 -0.78721 0.317756)
(1.47253e-14 -8.02193 17.5537)
(1.63911e-14 -16.0195 24.5277)
(3.74364e-15 -13.6434 24.0462)
(3.36843e-15 -12.9943 21.7651)
(1.57238e-15 -12.1264 20.2158)
(1.56922e-15 -11.2247 18.847)
(2.37203e-15 -10.439 17.4341)
(8.69289e-16 -9.64888 16.0434)
(8.20106e-16 -8.86035 14.6933)
(9.23795e-16 -8.09325 13.3817)
(2.3567e-16 -7.2973 12.0171)
(4.85529e-16 -6.28458 10.2818)
(3.19951e-16 -4.73301 7.7209)
(2.81587e-16 -2.75614 4.37247)
(7.44255e-16 -0.949416 1.2974)
(1.31756e-14 -7.33745 15.2535)
(1.65544e-14 -15.491 24.355)
(5.38316e-15 -14.0225 24.4218)
(3.27384e-15 -13.1278 22.0675)
(1.72532e-15 -12.1447 20.4401)
(1.66253e-15 -11.2358 19.0547)
(2.14908e-15 -10.4361 17.6437)
(1.20068e-15 -9.61983 16.2576)
(9.0069e-16 -8.81015 14.9066)
(7.70524e-16 -8.02723 13.5919)
(7.09051e-16 -7.22395 12.2368)
(6.39909e-16 -6.24027 10.5488)
(3.43573e-16 -4.78753 8.10751)
(1.33378e-16 -2.91413 4.94716)
(2.20358e-15 -1.01089 1.79744)
(1.11883e-14 -6.55627 13.033)
(1.67018e-14 -14.847 23.8164)
(6.94092e-15 -14.2638 24.669)
(3.1044e-15 -13.2372 22.3215)
(1.78015e-15 -12.1674 20.5831)
(1.57424e-15 -11.2657 19.1667)
(2.31524e-15 -10.4651 17.7586)
(1.36901e-15 -9.64315 16.3766)
(9.67187e-16 -8.83494 15.0246)
(1.02306e-15 -8.0553 13.7073)
(7.94449e-16 -7.25501 12.3576)
(2.88621e-16 -6.2869 10.6996)
(4.81857e-16 -4.89102 8.33097)
(2.1094e-16 -3.08523 5.26768)
(1.09161e-15 -1.12221 2.04396)
(9.51505e-15 -5.7784 11.1239)
(1.65451e-14 -14.1745 23.0906)
(8.05332e-15 -14.4412 24.8462)
(3.27468e-15 -13.3963 22.6148)
(1.8241e-15 -12.2528 20.7553)
(1.37879e-15 -11.3493 19.2955)
(2.33241e-15 -10.5477 17.8904)
(1.49946e-15 -9.72543 16.5109)
(9.6957e-16 -8.91944 15.1562)
(9.42271e-16 -8.14024 13.8351)
(8.25351e-16 -7.33996 12.4864)
(6.73135e-16 -6.38016 10.8513)
(6.24177e-16 -5.02352 8.54673)
(2.34144e-16 -3.26579 5.55833)
(-1.31362e-16 -1.23755 2.24769)
(8.12787e-15 -5.0851 9.59948)
(1.61991e-14 -13.5192 22.3002)
(9.08489e-15 -14.5349 24.9522)
(3.69958e-15 -13.5531 22.9353)
(1.77209e-15 -12.3447 20.9698)
(1.32767e-15 -11.425 19.4566)
(2.06532e-15 -10.6174 18.0506)
(1.55357e-15 -9.79444 16.6721)
(6.62042e-16 -8.98825 15.3136)
(9.82499e-16 -8.20621 13.9873)
(7.19353e-16 -7.40472 12.6356)
(7.82772e-16 -6.45147 11.0132)
(4.19569e-16 -5.12523 8.75509)
(7.91536e-17 -3.40655 5.81953)
(-4.19331e-16 -1.31908 2.43096)
(6.90809e-15 -4.53885 8.46246)
(1.57686e-14 -12.9256 21.5504)
(9.63353e-15 -14.5349 24.9757)
(3.94269e-15 -13.6654 23.221)
(1.99714e-15 -12.4128 21.1812)
(1.1088e-15 -11.4735 19.612)
(1.72709e-15 -10.659 18.2003)
(1.66529e-15 -9.83693 16.8209)
(2.61775e-16 -9.03202 15.4585)
(9.90705e-16 -8.24854 14.1269)
(1.09364e-15 -7.44645 12.7691)
(1.00096e-16 -6.4977 11.1497)
(3.24384e-16 -5.19257 8.91843)
(7.42292e-17 -3.50189 6.01056)
(-1.0728e-15 -1.36382 2.54258)
(6.04818e-15 -4.17042 7.70277)
(1.53176e-14 -12.4378 20.9278)
(9.98519e-15 -14.4733 24.9366)
(4.2433e-15 -13.7315 23.4377)
(2.29116e-15 -12.4592 21.3592)
(1.0413e-15 -11.5039 19.7404)
(1.56002e-15 -10.6832 18.3206)
(1.58908e-15 -9.86357 16.9391)
(5.33544e-16 -9.06118 15.5729)
(7.90544e-16 -8.27764 14.2364)
(1.19145e-15 -7.47493 12.871)
(1.23441e-16 -6.52685 11.2465)
(3.65605e-16 -5.23309 9.02654)
(3.35384e-17 -3.55801 6.12618)
(-1.32164e-15 -1.3773 2.57261)
(5.40158e-15 -3.9733 7.27965)
(1.48342e-14 -12.0683 20.4613)
(1.03267e-14 -14.3842 24.8626)
(4.51693e-15 -13.7598 23.5827)
(2.27933e-15 -12.4874 21.4969)
(1.06007e-15 -11.5229 19.8406)
(1.62489e-15 -10.6965 18.412)
(1.64306e-15 -9.87991 17.0279)
(5.90398e-16 -9.08051 15.6584)
(7.87784e-16 -8.29718 14.317)
(9.94565e-16 -7.4931 12.9421)
(1.6243e-16 -6.54208 11.3061)
(3.57542e-16 -5.25088 9.08424)
(-3.72669e-16 -3.57869 6.17527)
(-9.83323e-16 -1.36508 2.53864)
(5.1415e-15 -3.90398 7.11061)
(1.45054e-14 -11.8313 20.1819)
(1.04424e-14 -14.2997 24.79)
(4.67081e-15 -13.7668 23.6686)
(2.246e-15 -12.5019 21.5899)
(1.08253e-15 -11.532 19.9096)
(1.60614e-15 -10.7003 18.4746)
(1.71839e-15 -9.88537 17.0883)
(5.26681e-16 -9.08779 15.7172)
(7.77378e-16 -8.3039 14.3728)
(9.39584e-16 -7.49765 12.9905)
(6.66853e-17 -6.54294 11.3431)
(3.24019e-16 -5.25315 9.11694)
(-3.92212e-16 -3.58347 6.20133)
(-6.21146e-16 -1.35004 2.50625)
(5.15478e-15 -4.03979 7.28726)
(1.39487e-14 -11.627 19.9522)
(1.03567e-14 -14.1917 24.6679)
(4.76297e-15 -13.7464 23.7083)
(2.25658e-15 -12.5066 21.6738)
(1.14282e-15 -11.5393 19.9773)
(1.6007e-15 -10.6995 18.535)
(1.65101e-15 -9.88694 17.1437)
(5.89446e-16 -9.09049 15.7694)
(7.61797e-16 -8.30494 14.4183)
(8.33088e-16 -7.4899 13.0147)
(1.12371e-16 -6.51526 11.328)
(2.35666e-16 -5.2059 9.0611)
(-3.57737e-16 -3.50154 6.08264)
(-3.32529e-16 -1.25243 2.30718)
)
;

boundaryField
{
    inletFace
    {
        type            zeroGradient;
    }
    inlet
    {
        type            fixedValue;
        value           uniform (0 8.7 15);
    }
    inletWalls
    {
        type            noSlip;
    }
    outletInlet
    {
        type            zeroGradient;
    }
}


// ************************************************************************* //
