/*--------------------------------*- C++ -*----------------------------------*\
| =========                 |                                                 |
| \\      /  F ield         | OpenFOAM: The Open Source CFD Toolbox           |
|  \\    /   O peration     | Version:  4.1                                   |
|   \\  /    A nd           | Web:      www.OpenFOAM.org                      |
|    \\/     M anipulation  |                                                 |
\*---------------------------------------------------------------------------*/
FoamFile
{
    version     2.0;
    format      ascii;
    class       volScalarField;
    location    "30";
    object      p;
}
// * * * * * * * * * * * * * * * * * * * * * * * * * * * * * * * * * * * * * //

dimensions      [0 2 -2 0 0 0 0];

internalField   nonuniform List<scalar> 
6785
(
585.912
507.185
460.1
406.555
359.705
314.571
272.55
232.797
195.273
159.839
125.721
92.7455
65.3804
37.2386
-3.41362
-31.1216
-49.5788
-39.8867
-47.4849
-47.206
-50.0464
-51.0707
-51.9456
-51.8471
-50.8365
-48.8085
-46.0207
-41.9081
-37.1956
-34.7261
-24.3435
-29.064
-20.5244
-25.7014
-22.6256
-24.5457
-24.5383
-25.7872
-26.8199
-28.26
-29.7552
-31.24
-32.1062
-31.645
-29.6874
-4.08887
-6.33845
-2.58389
-7.49689
-5.16407
-7.83296
-7.7459
-8.76099
-9.10506
-9.42853
-9.37126
-9.02408
-7.76256
-5.9411
-2.53595
12.218
12.0775
15.9874
14.1751
18.3885
18.2451
20.9655
22.3702
24.4082
26.3295
28.4883
30.754
33.2118
35.2509
37.4347
32.2511
33.0517
35.7914
34.9986
38.1921
38.1078
40.3321
41.1087
42.3414
42.8854
43.0656
42.7849
42.4148
42.5611
42.8365
46.1219
44.6655
46.2288
44.0346
45.5078
43.6322
43.9275
42.3445
41.2539
39.2526
37.2178
35.1702
33.8029
33.2749
31.0796
19.046
14.3683
14.272
10.4247
9.83354
6.70879
5.5848
3.30855
2.29268
1.02756
0.216518
-0.532367
-0.975321
-2.18232
-5.15556
-21.1528
-25.7191
-25.9275
-29.1942
-30.0624
-33.0631
-34.6279
-37.191
-39.0233
-41.0424
-42.8146
-44.1314
-45.0555
-45.7104
-44.2298
-31.9178
-32.8442
-31.8165
-33.1778
-32.4676
-33.5782
-33.5502
-34.277
-34.4647
-34.4942
-33.8579
-32.6362
-30.4858
-28.5721
-25.38
-6.77132
-5.11858
-3.1541
-2.48478
-0.466142
0.518749
2.26727
3.69421
5.36771
7.03848
8.85376
10.5987
12.5327
13.9557
16.0393
11.3509
13.1437
14.4547
15.1788
16.6267
17.3671
18.5552
19.4515
20.4602
21.3681
22.297
23.0885
23.9394
24.4825
25.2034
30.4971
31.2169
31.1525
30.957
31.234
30.8848
30.9038
30.7515
30.7634
30.8364
31.0463
31.2651
31.6689
31.8877
32.4585
33.3387
35.469
34.5328
33.6621
33.2773
33.0364
33.2794
33.6091
34.1895
34.7074
35.1539
35.3912
35.5372
35.5085
35.4433
88.5401
86.0396
79.0442
70.164
63.507
57.1086
50.9042
46.0582
41.4849
37.4963
34.1588
31.496
28.9329
27.1873
24.0559
33.7684
34.3258
34.9542
34.8861
35.164
36.1286
37.1493
36.9163
36.8087
36.6976
37.6671
36.9235
36.7395
37.2428
36.1325
35.8687
36.075
36.3435
34.4316
35.314
35.3751
33.5787
33.388
34.6017
34.5968
32.7294
32.6503
33.9732
34.598
32.3257
34.0407
34.8113
33.1223
33.1707
34.5252
35.5559
33.8532
35.1783
36.2764
35.1822
35.2788
36.3078
37.1409
36.358
36.4665
37.2628
37.7511
37.103
37.8244
38.3775
38.0424
38.2027
38.6307
39.4934
39.3532
39.4409
39.6298
40.7187
40.617
40.6815
41.0052
40.9575
41.1133
41.0078
41.6287
42.178
43.327
41.6151
40.0733
42.4524
44.8597
34.6843
30.8274
36.7506
42.7061
10.1665
26.1733
35.1254
-23.6443
-3.96276
6.6741
4.39133
9.92861
0.358399
3.94505
8.62733
8.25065
8.65437
8.97906
9.17997
8.08236
10.9245
15.411
6.8456
8.54088
7.93066
8.18625
8.77046
9.00025
8.30972
10.8345
20.3929
8.35551
9.18865
7.63038
7.62206
8.79594
8.95642
7.84116
6.14852
5.55134
16.8808
7.86546
6.6615
4.65257
2.18891
1.79107
2.41166
0.0693615
-4.39764
-0.15594
1.84562
2.21847
1.27137
-1.45918
-3.51751
-5.88479
-5.24695
-9.12199
-8.62929
4.48775
0.504783
0.868675
0.132637
-1.79437
-3.38516
-4.759
-11.0602
-11.4644
6.11947
1.43987
0.368912
-2.15684
-3.8305
-5.33657
-6.03585
-6.63562
-9.17216
-14.6271
3.22078
-0.632604
-0.462702
-1.53897
-2.98857
-7.87337
-9.02317
-6.00328
-18.4599
-0.0374127
-2.91371
-4.28467
0.618226
-0.430128
1.30799
1.74898
2.49074
3.40915
3.25108
3.6816
3.99918
4.01072
4.14613
4.2181
4.28594
4.35329
4.37469
4.38606
4.38885
4.38671
4.37921
4.36617
4.34633
4.3013
4.33877
4.28015
4.2201
4.24585
4.13617
4.32065
4.16162
4.05216
4.13797
3.95135
4.34493
4.03466
3.5974
4.42221
3.76745
3.50143
3.73086
3.23956
4.44638
3.3594
3.01332
3.30989
2.66238
4.30149
3.08638
1.78417
4.39041
2.53143
1.90461
2.46204
1.44662
4.26877
1.96783
1.40682
1.95102
0.966361
3.90457
1.86326
0.0427276
3.93798
1.33504
0.559186
1.29914
0.0866942
3.62076
0.922194
0.0636804
0.866184
-0.456524
3.07663
0.844752
-1.69128
2.96555
0.238481
-1.44511
-0.253139
-1.89012
0.0145075
-0.0466482
-0.0284435
-0.0395729
-0.0417039
-0.0440503
-0.0394984
-0.0271061
-0.008137
-0.0011926
-0.0398998
-0.077411
-0.00747166
-0.232113
-0.278097
-0.363302
-0.500125
-0.631533
-0.746304
-0.837101
-0.901197
-0.938329
-0.946279
-0.925998
-0.880016
-0.811261
-0.723732
-0.621863
-0.509675
-0.391394
-0.270695
-0.15063
-0.033836
0.0772144
0.180877
0.276119
0.362513
0.440115
0.509371
0.570647
0.624316
0.671094
0.711856
0.746281
0.772364
0.787696
0.790531
0.778873
0.749246
0.696442
0.614195
0.49206
0.329038
0.210741
0.000442309
0.0250422
0.0106087
0.0104816
0.00304496
-0.001839
-0.000210496
0.00808826
-0.0687945
-0.182888
-0.237897
-0.282444
-0.317661
-0.321637
-0.290556
-0.239951
-0.184466
-0.124544
-0.0768662
-0.0332297
0.00525866
0.00121502
0.0478677
0.054825
-0.0561336
0.0735002
-0.0575224
-0.00277025
-0.0163769
-0.0124619
-0.024888
-0.0506175
-0.0986324
-0.154015
-0.192771
-0.212625
-0.156118
0.0644867
-0.289415
-0.368266
-0.547443
-0.803658
-1.03943
-1.2458
-1.40662
-1.51679
-1.57586
-1.57944
-1.52975
-1.4317
-1.29094
-1.11524
-0.913088
-0.692527
-0.461676
-0.227233
0.00451451
0.22814
0.439565
0.636073
0.815829
0.978122
1.12336
1.25235
1.36515
1.4619
1.54442
1.61484
1.67198
1.71113
1.72776
1.71912
1.68115
1.60618
1.48331
1.30129
1.04173
0.6769
0.407232
0.0927367
0.114135
0.0379705
0.0304121
0.00841983
-0.014184
-0.00675642
0.000732701
-0.128418
-0.343687
-0.456382
-0.533203
-0.57885
-0.576083
-0.520048
-0.427371
-0.323519
-0.212201
-0.119787
-0.0425389
0.0249283
0.0422127
0.102056
-0.0323658
0.0521221
0.0956818
-0.112084
-0.0332764
-0.0602606
-0.0577778
-0.0762203
-0.105635
-0.154361
-0.20115
-0.229388
-0.263676
-0.24565
0.0235212
-0.243009
-0.385693
-0.597398
-0.901525
-1.18143
-1.42805
-1.61997
-1.75168
-1.82237
-1.82608
-1.76574
-1.64707
-1.47686
-1.26453
-1.02037
-0.754159
-0.475699
-0.193277
0.085566
0.354417
0.608476
0.844387
1.06002
1.25443
1.4279
1.58116
1.71465
1.82896
1.92595
2.00738
2.07198
2.11526
2.13237
2.11899
2.06882
1.97218
1.81644
1.58955
1.27452
0.818547
0.44655
0.192201
0.1715
0.0580359
0.0353811
-0.0030594
-0.0372176
-0.023061
-0.033461
-0.186344
-0.440029
-0.579617
-0.671633
-0.717719
-0.702135
-0.624877
-0.506614
-0.376731
-0.238533
-0.124858
-0.0287443
0.0456096
0.0755219
0.203536
0.136862
0.145375
0.124146
-0.134435
-0.0353929
-0.0681905
-0.0651612
-0.0920999
-0.137931
-0.21152
-0.283054
-0.327288
-0.358869
-0.327438
-0.0477834
-0.179242
-0.481754
-0.728521
-1.10223
-1.44853
-1.75271
-1.98827
-2.14937
-2.23515
-2.23809
-2.16205
-2.014
-1.80244
-1.53901
-1.2365
-0.906993
-0.562586
-0.213649
0.13059
0.462347
0.775755
1.0666
1.33231
1.57167
1.78488
1.9727
2.13594
2.27567
2.39396
2.49247
2.56979
2.6213
2.64142
2.6242
2.56104
2.43986
2.24591
1.96491
1.58194
1.07583
0.479223
0.313977
0.237014
0.0796384
0.0369837
-0.019654
-0.0692772
-0.0527122
-0.0770693
-0.268166
-0.567107
-0.738083
-0.848932
-0.900109
-0.87338
-0.771775
-0.62183
-0.458953
-0.286163
-0.145455
-0.0243167
0.0627809
0.0940574
0.264058
0.219998
0.246899
0.13751
-0.15829
-0.0483732
-0.0876307
-0.0877338
-0.124625
-0.183993
-0.269949
-0.347096
-0.393132
-0.426276
-0.404067
-0.139461
-0.0766248
-0.583287
-0.858531
-1.30126
-1.71739
-2.0825
-2.36503
-2.55852
-2.66152
-2.66464
-2.57262
-2.39372
-2.13823
-1.82021
-1.45511
-1.05756
-0.64217
-0.221499
0.193316
0.592923
0.970309
1.32037
1.64003
1.92779
2.18381
2.40895
2.60427
2.77117
2.91211
3.02882
3.11968
3.17955
3.20197
3.17947
3.10123
2.95254
2.71632
2.37544
1.9142
1.39935
0.553112
0.43852
0.292431
0.0976291
0.0283475
-0.0491625
-0.114205
-0.101568
-0.138229
-0.369939
-0.708857
-0.911428
-1.04031
-1.09553
-1.05744
-0.93119
-0.748034
-0.549976
-0.340258
-0.170458
-0.0228369
0.0774653
0.109566
0.320508
0.372275
0.454073
0.145332
-0.166966
-0.0535087
-0.0961328
-0.101138
-0.149769
-0.224863
-0.325495
-0.415346
-0.473136
-0.510377
-0.486469
-0.23637
-0.0151969
-0.703878
-0.999229
-1.49853
-1.98009
-2.40015
-2.72399
-2.94589
-3.06339
-3.06508
-2.95663
-2.7475
-2.44966
-2.07945
-1.65484
-1.19287
-0.710476
-0.222282
0.258809
0.722003
1.15924
1.56457
1.93449
2.26722
2.5629
2.82246
3.04724
3.23905
3.40067
3.53388
3.63691
3.7042
3.72854
3.70094
3.6084
3.43367
3.15785
2.76122
2.21742
1.69591
0.700435
0.573078
0.349095
0.113524
0.0122517
-0.0890101
-0.172046
-0.172774
-0.226888
-0.4963
-0.8608
-1.08702
-1.22933
-1.2857
-1.23467
-1.08383
-0.868655
-0.63699
-0.392142
-0.194989
-0.0216149
0.0891378
0.123096
0.345712
0.489247
0.578545
0.142316
-0.167464
-0.0596227
-0.104654
-0.118237
-0.180273
-0.269963
-0.381584
-0.480808
-0.548099
-0.592272
-0.574657
-0.350688
-0.045315
-0.820443
-1.16009
-1.70858
-2.25858
-2.73337
-3.09675
-3.34574
-3.47658
-3.47562
-3.34955
-3.10906
-2.76783
-2.34454
-1.85969
-1.33271
-0.782879
-0.226881
0.320644
0.847485
1.34453
1.80503
2.22502
2.60247
2.93752
3.23117
3.48508
3.70148
3.8835
4.03299
4.14806
4.22281
4.24924
4.2169
4.11053
3.91043
3.59588
3.14564
2.50958
1.91177
0.915291
0.700216
0.40137
0.124974
-0.0136124
-0.142021
-0.245501
-0.269303
-0.349937
-0.656553
-1.03671
-1.27638
-1.42595
-1.48099
-1.41563
-1.23949
-0.992138
-0.726821
-0.446909
-0.222662
-0.0227859
0.0971189
0.135937
0.348079
0.644726
0.748539
0.130199
-0.156191
-0.0629705
-0.109206
-0.134772
-0.21075
-0.314102
-0.436837
-0.547938
-0.628138
-0.683044
-0.675574
-0.488647
-0.170057
-0.899585
-1.3395
-1.92803
-2.54918
-3.07939
-3.48067
-3.75562
-3.8989
-3.89442
-3.74979
-3.47687
-3.09117
-2.6137
-2.06756
-1.47459
-0.856434
-0.231826
0.382838
0.973922
1.53127
2.04731
2.51764
2.94
3.31451
3.64227
3.92528
4.16617
4.36847
4.53416
4.66124
4.74346
4.77205
4.73507
4.615
4.38963
4.03629
3.53467
2.81552
2.04122
1.16168
0.820098
0.452067
0.13172
-0.0490943
-0.208335
-0.336484
-0.392096
-0.510812
-0.856879
-1.24618
-1.48794
-1.63452
-1.68394
-1.60255
-1.40024
-1.12032
-0.820942
-0.505735
-0.254231
-0.0268718
0.101422
0.15059
0.320547
0.782203
0.992764
0.107487
-0.134996
-0.0661239
-0.11335
-0.154338
-0.243695
-0.359728
-0.49343
-0.616186
-0.709382
-0.777818
-0.787173
-0.646953
-0.355381
-0.920898
-1.54065
-2.15892
-2.85139
-3.43789
-3.87469
-4.17344
-4.32734
-4.31779
-4.15329
-3.84676
-3.4156
-2.88314
-2.2751
-1.61574
-0.929035
-0.235759
0.445963
1.1011
1.71846
2.28967
2.80994
3.27673
3.6902
4.05155
4.36313
4.62803
4.85017
5.03169
5.17053
5.26012
5.29091
5.2495
5.11603
4.86584
4.47415
3.92461
3.18093
2.13109
1.40282
0.932568
0.500011
0.132109
-0.0953543
-0.289442
-0.447714
-0.543539
-0.711966
-1.10208
-1.49723
-1.72929
-1.85873
-1.89431
-1.79428
-1.56498
-1.25238
-0.918845
-0.568542
-0.289812
-0.0340972
0.102722
0.172471
0.27672
0.905066
1.13424
0.0741532
-0.103852
-0.0692709
-0.117475
-0.176159
-0.277401
-0.405974
-0.5511
-0.686173
-0.794144
-0.879281
-0.910068
-0.818365
-0.5651
-0.892565
-1.76887
-2.40548
-3.16645
-3.8115
-4.2821
-4.60265
-4.76512
-4.74864
-4.56262
-4.221
-3.74307
-3.15452
-2.4837
-1.75731
-1.00164
-0.239463
0.509388
1.22851
1.9057
2.53182
3.10166
3.61248
4.06444
4.45889
4.79856
5.087
5.32854
5.52555
5.67594
5.77286
5.806
5.76048
5.61399
5.33946
4.90994
4.31056
3.59573
2.25173
1.62941
1.03987
0.544778
0.125449
-0.152685
-0.385981
-0.580638
-0.724709
-0.955025
-1.3963
-1.79877
-2.01031
-2.10642
-2.11536
-1.99194
-1.73462
-1.3892
-1.02127
-0.636018
-0.329843
-0.0447577
0.100971
0.206887
0.2471
1.05008
1.3149
0.0293965
-0.0643039
-0.0741772
-0.123184
-0.20051
-0.31225
-0.453759
-0.610129
-0.75768
-0.881741
-0.986168
-1.04227
-0.996543
-0.776799
-0.856635
-2.03084
-2.67249
-3.49447
-4.20106
-4.70437
-5.04509
-5.21411
-5.18857
-4.97913
-4.60069
-4.07446
-3.4285
-2.69383
-1.89958
-1.07434
-0.242857
0.573338
1.35651
2.09346
2.77431
3.39346
3.94795
4.438
4.86512
5.23243
5.54396
5.80452
6.01669
6.17845
6.28269
6.31837
6.26908
6.10994
5.81139
5.34483
4.68445
3.98029
2.46751
1.84492
1.14414
0.585419
0.110617
-0.221901
-0.499077
-0.736738
-0.936683
-1.24149
-1.74281
-2.15861
-2.34191
-2.38757
-2.35361
-2.19791
-1.91026
-1.53149
-1.12852
-0.708164
-0.373841
-0.0585031
0.0948018
0.248174
0.264942
1.18605
1.53856
-0.027416
-0.0179357
-0.082042
-0.130698
-0.226554
-0.348025
-0.502663
-0.669798
-0.830619
-0.972648
-1.09895
-1.18332
-1.17973
-0.989207
-0.873725
-2.32747
-2.96445
-3.83563
-4.60707
-5.14244
-5.50203
-5.67567
-5.63873
-5.40358
-4.9863
-4.41002
-3.70513
-2.90539
-2.04234
-1.14686
-0.245659
0.638096
1.48536
2.28198
3.01733
3.68546
4.28324
4.81092
5.2702
5.66465
5.99879
6.27792
6.50491
6.67785
6.78942
6.82785
6.77518
6.60381
6.28136
5.77957
5.04798
4.24948
2.77508
2.04896
1.24584
0.620879
0.0868816
-0.303489
-0.629442
-0.916916
-1.18016
-1.57286
-2.14455
-2.58261
-2.73432
-2.71306
-2.61809
-2.41631
-2.09278
-1.67895
-1.23962
-0.783532
-0.41977
-0.0736225
0.0882329
0.286516
0.332609
1.31646
1.67554
-0.0970629
0.032933
-0.093871
-0.139882
-0.254008
-0.384921
-0.552231
-0.729726
-0.90491
-1.06663
-1.21713
-1.33249
-1.36989
-1.2174
-0.995796
-2.64929
-3.28487
-4.19091
-5.03034
-5.59738
-5.97473
-6.15137
-6.1007
-5.83726
-5.37874
-4.75036
-3.98481
-3.11859
-2.18566
-1.21919
-0.247777
0.703791
1.61521
2.47138
3.261
3.97779
4.61841
5.18323
5.67415
6.09518
6.45142
6.74865
6.99009
7.174
7.29292
7.33436
7.27878
7.09565
6.74924
6.21608
5.43418
4.40872
3.11203
2.23651
1.34472
0.650131
0.0534754
-0.398104
-0.777855
-1.12207
-1.45642
-1.95044
-2.60443
-3.0751
-3.1951
-3.09305
-2.91854
-2.65313
-2.28318
-1.83027
-1.3522
-0.859101
-0.463943
-0.0865196
0.0891711
0.319413
0.437499
1.46677
1.90037
-0.179881
0.085674
-0.109681
-0.150253
-0.282713
-0.42255
-0.601596
-0.789545
-0.980467
-1.16358
-1.34052
-1.48957
-1.57002
-1.4754
-1.24177
-2.97607
-3.6355
-4.56173
-5.4718
-6.07026
-6.46421
-6.64258
-6.57599
-6.28153
-5.77907
-5.09621
-4.268
-3.33369
-2.32966
-1.29131
-0.249107
0.770584
1.74624
2.66189
3.50554
4.27062
4.95365
5.55509
6.07707
6.52414
6.90192
7.21675
7.47224
7.66692
7.79322
7.83796
7.77997
7.58562
7.21512
6.65471
5.90142
4.52705
3.42228
2.40738
1.43977
0.672221
0.00975638
-0.506173
-0.944806
-1.35284
-1.76711
-2.37537
-3.12527
-3.63953
-3.72835
-3.5337
-3.26181
-2.91341
-2.48221
-1.98306
-1.46252
-0.930475
-0.501398
-0.0921073
0.10406
0.358991
0.571003
1.5934
2.04319
-0.274993
0.137343
-0.128696
-0.16172
-0.312561
-0.460239
-0.650175
-0.849185
-1.05719
-1.26322
-1.46875
-1.65429
-1.78223
-1.76777
-1.59775
-3.28032
-4.01729
-4.95095
-5.93271
-6.56236
-6.97137
-7.15035
-7.06594
-6.73771
-6.18833
-5.44831
-4.55514
-3.55091
-2.47438
-1.36315
-0.249502
0.838669
1.87869
2.85372
3.75116
4.56416
5.28912
5.92661
6.47908
6.95157
7.35031
7.68221
7.95133
8.15656
8.29028
8.33865
8.2788
8.07376
7.67885
7.08682
6.41101
4.70326
3.70328
2.56734
1.53008
0.686173
-0.0448451
-0.628092
-1.1307
-1.60963
-2.11354
-2.84865
-3.70987
-4.27909
-4.33587
-4.03619
-3.64956
-3.19809
-2.68902
-2.13433
-1.56633
-0.992854
-0.52708
-0.0853242
0.138289
0.418259
0.727286
1.75679
2.21289
-0.378957
0.184752
-0.149758
-0.174554
-0.343028
-0.497191
-0.697635
-0.908608
-1.13494
-1.3653
-1.60153
-1.8265
-2.00776
-2.09291
-2.03848
-3.53982
-4.43188
-5.3622
-6.41443
-7.07525
-7.49727
-7.67565
-7.57171
-7.20703
-6.60765
-5.80746
-4.84674
-3.77052
-2.61991
-1.43467
-0.248823
0.908241
2.01276
3.0471
3.99807
4.85859
5.62496
6.29794
6.88024
7.37751
7.79659
8.14498
8.42728
8.64281
8.78401
8.83638
8.77528
8.55997
8.14082
7.50154
6.8474
4.99778
3.96842
2.72086
1.61446
0.691159
-0.110812
-0.764131
-1.33568
-1.89243
-2.49662
-3.37095
-4.3609
-4.99704
-5.01881
-4.59881
-4.07944
-3.50455
-2.90083
-2.28109
-1.6601
-1.0425
-0.537329
-0.0627624
0.194591
0.503463
0.899957
1.90985
2.40232
-0.48442
0.224183
-0.171872
-0.189045
-0.373253
-0.532867
-0.743907
-0.967803
-1.21353
-1.46958
-1.73859
-2.00605
-2.24675
-2.4438
-2.52908
-3.73626
-4.88303
-5.80176
-6.91884
-7.61075
-8.04317
-8.21943
-8.09432
-7.69061
-7.03809
-6.17454
-5.14336
-3.99281
-2.76634
-1.5058
-0.246925
0.979503
2.14869
3.24226
4.24649
5.15412
5.96137
6.66918
7.28065
7.80202
8.24077
8.60503
8.9
9.12558
9.27432
9.33108
9.26941
9.04404
8.60251
7.90334
7.11755
5.38183
4.21476
2.86922
1.69145
0.686519
-0.188595
-0.914469
-1.55966
-2.2008
-2.91687
-3.94244
-5.08092
-5.79686
-5.77858
-5.21935
-4.54788
-3.82932
-3.11488
-2.42135
-1.74206
-1.07761
-0.530562
-0.0230699
0.272825
0.614719
1.08396
2.04963
2.55185
-0.579757
0.251212
-0.194219
-0.205121
-0.402323
-0.567034
-0.788996
-1.0267
-1.29278
-1.57583
-1.87969
-2.19278
-2.49847
-2.81018
-3.02977
-3.87288
-5.38038
-6.27666
-7.44748
-8.17082
-8.61065
-8.78284
-8.63474
-8.18941
-7.48064
-6.5504
-5.44561
-4.21811
-2.91378
-1.57652
-0.243653
1.05267
2.28674
3.43946
4.49667
5.45096
6.2985
7.04049
7.68041
8.22514
8.68285
9.06232
9.36942
9.60477
9.76109
9.82267
9.76123
9.52589
9.06769
8.3509
7.26967
5.77266
4.43692
3.01208
1.75987
0.671679
-0.278561
-1.07908
-1.80221
-2.53393
-3.37454
-4.56314
-5.87277
-6.68245
-6.61717
-5.89614
-5.05173
-4.1696
-3.32968
-2.55475
-1.81228
-1.09824
-0.506929
0.0335676
0.370909
0.748401
1.27488
2.21973
2.70768
-0.650863
0.2612
-0.215816
-0.222352
-0.429584
-0.599677
-0.832911
-1.08521
-1.37251
-1.68383
-2.0246
-2.38643
-2.76162
-3.18198
-3.51172
-3.99377
-5.94535
-6.79782
-8.00252
-8.75742
-9.20153
-9.36726
-9.19407
-8.70433
-7.93614
-6.93581
-5.75407
-4.44676
-3.06235
-1.64676
-0.238849
1.12798
2.42716
3.63898
4.74887
5.74934
6.63656
7.41202
8.07962
8.64693
9.12283
9.51678
9.83543
10.0802
10.2442
10.311
10.2507
10.0054
9.5365
8.91405
7.3943
6.11609
4.63913
3.14867
1.81871
0.646141
-0.380988
-1.2578
-2.06273
-2.89077
-3.8697
-5.23308
-6.74019
-7.6586
-7.53729
-6.62814
-5.58859
-4.52327
-3.54454
-2.68204
-1.87198
-1.10555
-0.467556
0.10607
0.485836
0.899255
1.46861
2.37942
2.87784
-0.685092
0.250734
-0.235318
-0.240208
-0.454695
-0.630838
-0.875613
-1.14321
-1.45254
-1.79339
-2.17304
-2.58661
-3.03476
-3.55395
-3.96585
-4.17075
-6.59508
-7.37289
-8.585
-9.37232
-9.81784
-9.97435
-9.7736
-9.23631
-8.40537
-7.33149
-6.06933
-4.67914
-3.2122
-1.7165
-0.232345
1.20567
2.57023
3.84111
5.00337
6.04951
6.97575
7.78391
8.47838
9.06744
9.5607
9.96835
10.2979
10.5518
10.7234
10.796
10.7378
10.4821
9.99593
9.51851
7.61585
6.43017
4.83071
3.2782
1.86709
0.609454
-0.496113
-1.4504
-2.34049
-3.27015
-4.40233
-5.95109
-7.68704
-8.73111
-8.54251
-7.41486
-6.15666
-4.88859
-3.75901
-2.80426
-1.92276
-1.1011
-0.413935
0.192943
0.614406
1.06202
1.66211
2.52765
3.01601
-0.675629
0.219274
-0.251278
-0.258251
-0.477526
-0.660535
-0.917029
-1.20056
-1.53271
-1.90428
-2.32468
-2.79274
-3.31657
-3.92618
-4.41257
-4.49494
-7.34973
-8.01272
-9.19659
-10.0172
-10.4618
-10.606
-10.3749
-9.78646
-8.88907
-7.73803
-6.39189
-4.91559
-3.36346
-1.78568
-0.223967
1.28601
2.71627
4.04615
5.26047
6.35173
7.3163
8.15635
8.87681
9.48673
9.99647
10.417
10.7567
11.0193
11.1986
11.2774
11.2221
10.9565
10.4309
10.019
7.97344
6.72708
5.01644
3.39967
1.90446
0.561152
-0.624177
-1.65663
-2.63466
-3.67082
-4.97227
-6.71384
-8.7159
-9.90638
-9.63728
-8.25613
-6.75439
-5.26391
-3.97258
-2.92239
-1.96624
-1.08655
-0.347624
0.292531
0.753583
1.23181
1.8526
2.69235
3.16769
-0.623831
0.169868
-0.262616
-0.27613
-0.498042
-0.688733
-0.957067
-1.25714
-1.61283
-2.01624
-2.47907
-3.00402
-3.60557
-4.30213
-4.8903
-5.05065
-8.17067
-8.71669
-9.837
-10.6933
-11.1356
-11.2644
-10.9998
-10.3561
-9.38809
-8.156
-6.72216
-5.1564
-3.51629
-1.85427
-0.213534
1.36925
2.8656
4.25446
5.52049
6.65631
7.65844
8.52953
9.27505
9.90487
10.4301
10.8626
11.2117
11.4826
11.6695
11.7551
11.7033
11.4307
10.8416
10.3021
8.41244
6.99821
5.19777
3.51189
1.93037
0.500807
-0.765382
-1.87616
-2.94415
-4.09107
-5.57856
-7.52125
-9.82923
-11.1909
-10.8267
-9.15199
-7.38032
-5.64748
-4.18459
-3.03738
-2.00402
-1.06361
-0.270166
0.403121
0.900627
1.40431
2.03822
2.82733
3.29644
-0.53837
0.108397
-0.268927
-0.293484
-0.51623
-0.715354
-0.995626
-1.3128
-1.69272
-2.12894
-2.63564
-3.21935
-3.89981
-4.68291
-5.40816
-5.84154
-9.01366
-9.48361
-10.5063
-11.4016
-11.8418
-11.9517
-11.6504
-10.9467
-9.9034
-8.58598
-7.06051
-5.40183
-3.67078
-1.92223
-0.200854
1.4557
3.01855
4.46638
5.78379
6.96356
8.00247
8.90366
9.67325
10.3219
10.8617
11.3051
11.6628
11.9414
12.136
12.2289
12.1811
11.9109
11.2991
10.433
8.84108
7.23828
5.37419
3.61396
1.94447
0.427996
-0.919864
-2.10837
-3.26701
-4.52763
-6.21768
-8.38005
-11.0296
-12.5905
-12.1159
-10.1024
-8.0329
-6.03731
-4.39415
-3.15013
-2.03772
-1.03404
-0.183096
0.523005
1.0531
1.57606
2.21654
2.98356
3.42169
-0.432005
0.0418558
-0.270452
-0.309874
-0.532087
-0.740291
-1.03261
-1.3674
-1.77216
-2.24203
-2.79369
-3.43742
-4.19697
-5.06837
-5.96756
-6.83494
-9.80948
-10.2986
-11.2027
-12.142
-12.5828
-12.6705
-12.3287
-11.5601
-10.4362
-9.02862
-7.40727
-5.65205
-3.82701
-1.98948
-0.185724
1.54565
3.1755
4.68231
6.05074
7.27383
8.34866
9.27899
10.0716
10.738
11.2912
11.7445
12.1099
12.3956
12.5977
12.6987
12.6553
12.4003
11.9031
10.5234
9.20971
7.45747
5.54483
3.70517
1.94648
0.342332
-1.08752
-2.35193
-3.59976
-4.9744
-6.88149
-9.29416
-12.3138
-14.1078
-13.509
-11.107
-8.71031
-6.43104
-4.60012
-3.26152
-2.06907
-0.999718
-0.0879388
0.650478
1.20893
1.74366
2.38533
3.1224
3.54348
-0.317865
-0.0233425
-0.267853
-0.324796
-0.545613
-0.763421
-1.06791
-1.42079
-1.8509
-2.35506
-2.95242
-3.65669
-4.49454
-5.4568
-6.55667
-7.94867
-10.4831
-11.1431
-11.9246
-12.9138
-13.3605
-13.4233
-13.0372
-12.1982
-10.9878
-9.48475
-7.76283
-5.90719
-3.98498
-2.05593
-0.167926
1.63945
3.33684
4.90268
6.32176
7.58749
8.69737
9.65577
10.4702
11.1533
11.7186
12.1807
12.5526
12.8449
13.0542
13.1642
13.125
12.8839
12.5867
10.725
9.54497
7.66771
5.70913
3.7851
1.9361
0.243609
-1.26768
-2.60439
-3.93702
-5.42233
-7.55714
-10.2537
-13.6682
-15.7386
-15.0066
-12.1636
-9.41012
-6.82584
-4.80101
-3.37237
-2.09984
-0.962628
0.0137989
0.783907
1.36622
1.90484
2.54291
3.24165
3.64472
-0.206784
-0.0823667
-0.26195
-0.33774
-0.556821
-0.784626
-1.10145
-1.47282
-1.92867
-2.46753
-3.11093
-3.87552
-4.78979
-5.84461
-7.15337
-9.06157
-10.9761
-11.9962
-12.6705
-13.7147
-14.1764
-14.2125
-13.7783
-12.8631
-11.5598
-9.95532
-8.12765
-6.16739
-4.14468
-2.12145
-0.14722
1.73743
3.50299
5.12792
6.59729
7.90497
9.04894
10.0343
10.8694
11.5678
12.1441
12.6137
12.9911
13.2891
13.5054
13.6248
13.5905
13.3403
13.183
11.0858
9.86442
7.87527
5.86605
3.85353
1.91316
0.131995
-1.45896
-2.86225
-4.27223
-5.86118
-8.23083
-11.2406
-15.0747
-17.4725
-16.6039
-13.2673
-10.1287
-7.21815
-4.99494
-3.48349
-2.13191
-0.924856
0.120643
0.921714
1.52376
2.05836
2.68709
3.36735
3.73493
-0.106167
-0.13219
-0.253544
-0.348245
-0.565738
-0.803795
-1.13314
-1.52331
-2.00515
-2.57888
-3.26821
-4.0921
-5.08
-6.2269
-7.72661
-10.0352
-11.274
-12.8439
-13.4404
-14.541
-15.0305
-15.04
-14.5541
-13.5568
-12.1538
-10.4414
-8.50228
-6.43282
-4.30605
-2.18586
-0.12334
1.83996
3.67439
5.35852
6.87781
8.22671
9.40378
10.415
11.2694
11.9817
12.5676
13.0434
13.425
13.7279
13.9508
14.0799
14.0542
13.7638
13.5526
11.5429
10.1586
8.0821
6.01463
3.91043
1.87771
0.00809403
-1.65944
-3.12173
-4.5993
-6.28258
-8.89295
-12.2437
-16.5195
-19.2997
-18.2919
-14.4092
-10.8602
-7.60342
-5.17957
-3.59562
-2.16726
-0.888578
0.231175
1.06239
1.68016
2.20266
2.81469
3.47489
3.81792
-0.0200886
-0.171324
-0.24331
-0.355942
-0.572405
-0.820837
-1.16291
-1.57207
-2.08001
-2.68849
-3.42315
-4.30455
-5.36234
-6.59761
-8.24771
-10.7721
-11.4529
-13.6848
-14.2358
-15.3872
-15.921
-15.9069
-15.3666
-14.2814
-12.7714
-10.9442
-8.88739
-6.70372
-4.46902
-2.24897
-0.0959971
1.94742
3.85153
5.595
7.16385
8.55321
9.76234
10.7981
11.6705
12.3954
12.9893
13.4698
13.8542
14.1611
14.3902
14.5288
14.522
14.2001
13.7081
12.0096
10.4201
8.28723
6.1539
3.95603
1.83
-0.12721
-1.86725
-3.38003
-4.91436
-6.68187
-9.54076
-13.2653
-18.0012
-21.2206
-20.0637
-15.5776
-11.5966
-7.97575
-5.35199
-3.70948
-2.20796
-0.856065
0.344065
1.20445
1.83431
2.336
2.92263
3.56308
3.88822
0.0499767
-0.199378
-0.231781
-0.36057
-0.576879
-0.835683
-1.19067
-1.61892
-2.15289
-2.7957
-3.57457
-4.5109
-5.63399
-6.95099
-8.70126
-11.2633
-11.6641
-14.5206
-15.0572
-16.2462
-16.8441
-16.8132
-16.2173
-15.0386
-13.4142
-11.4648
-9.2837
-6.98037
-4.63359
-2.31056
-0.0648744
2.06021
4.03487
5.83792
7.45597
8.885
10.1251
11.1841
12.0731
12.8088
13.4093
13.893
14.2787
14.5884
14.8233
14.9709
15.0012
14.7539
13.763
12.4197
10.6555
8.48942
6.2832
3.99052
1.77044
-0.273154
-2.0814
-3.63621
-5.21611
-7.05755
-10.177
-14.3164
-19.5363
-23.255
-21.9221
-16.7608
-12.3274
-8.32764
-5.50862
-3.82573
-2.25628
-0.829704
0.458071
1.34643
1.98522
2.45678
3.01259
3.64654
3.94591
0.104272
-0.216639
-0.219352
-0.361975
-0.579234
-0.848289
-1.21637
-1.66367
-2.22339
-2.89978
-3.72119
-4.70912
-5.89215
-7.28235
-9.09197
-11.6061
-12.0612
-15.306
-15.8986
-17.1106
-17.7941
-17.7571
-17.1064
-15.8299
-14.0836
-12.0044
-9.69194
-7.26313
-4.79975
-2.3704
-0.0296337
2.17875
4.22493
6.08784
7.75477
9.22267
10.4926
11.5735
12.4774
13.2225
13.8278
14.313
14.6984
15.0095
15.2496
15.405
15.4845
15.4288
13.8709
12.7761
10.8783
8.68735
6.40248
4.01418
1.69934
-0.429605
-2.30231
-3.8912
-5.5049
-7.4092
-10.8061
-15.407
-21.1678
-25.4459
-23.8847
-17.9511
-13.0412
-8.65006
-5.64498
-3.94485
-2.31464
-0.812032
0.572051
1.48695
2.13227
2.56274
3.08958
3.70268
3.99838
0.143982
-0.223751
-0.206317
-0.360101
-0.579561
-0.858635
-1.23995
-1.7061
-2.29109
-2.99995
-3.86168
-4.89721
-6.13427
-7.58874
-9.43383
-11.8983
-12.7074
-15.9336
-16.7499
-17.975
-18.7646
-18.7355
-18.0326
-16.6555
-14.7808
-12.5641
-10.1128
-7.55233
-4.96753
-2.42828
0.0100834
2.30347
4.42221
6.34535
8.0609
9.56686
10.8654
11.9667
12.884
13.6366
14.245
14.73
15.1131
15.4242
15.6687
15.8307
15.9497
16.0829
14.1361
13.1016
11.0982
8.87985
6.5121
4.0273
1.61668
-0.597366
-2.53175
-4.14714
-5.78138
-7.73563
-11.4309
-16.5441
-22.9598
-27.8528
-25.983
-19.1469
-13.7276
-8.9329
-5.75571
-4.067
-2.38562
-0.805738
0.68495
1.6248
2.27475
2.65299
3.15184
3.75789
4.04739
0.170663
-0.221496
-0.1929
-0.354977
-0.577961
-0.866724
-1.26134
-1.74602
-2.35555
-3.09539
-3.99468
-5.07331
-6.35825
-7.86855
-9.73907
-12.1793
-13.503
-16.3026
-17.6075
-18.8394
-19.749
-19.7439
-18.9935
-17.5148
-15.5062
-13.1444
-10.5468
-7.8483
-5.13697
-2.48398
0.054656
2.43482
4.62722
6.61104
8.37502
9.91825
11.2441
12.3643
13.2932
14.0515
14.6611
15.144
15.523
15.8321
16.0798
16.2492
16.3825
16.5531
14.5312
13.4034
11.3191
9.06596
6.61263
4.03002
1.52192
-0.778201
-2.77246
-4.40668
-6.04553
-8.03394
-12.052
-17.7378
-24.9764
-30.5444
-28.2608
-20.3534
-14.3783
-9.16563
-5.83455
-4.19183
-2.4718
-0.813637
0.795846
1.759
2.41251
2.72577
3.20033
3.80773
4.0834
0.185868
-0.210662
-0.179283
-0.346695
-0.574553
-0.872583
-1.28051
-1.7832
-2.41633
-3.18527
-4.11895
-5.23593
-6.56282
-8.12168
-10.0159
-12.4472
-14.2595
-16.4144
-18.4897
-19.7124
-20.7427
-20.7778
-19.9849
-18.4055
-16.2592
-13.7457
-10.9944
-8.15126
-5.30808
-2.53727
0.104487
2.5733
4.84049
6.88549
8.69779
10.2776
11.6296
12.767
13.7057
14.4677
15.0764
15.5552
15.9279
16.2331
16.482
16.665
16.8006
16.769
14.9739
13.6754
11.5411
9.24503
6.70463
4.02213
1.41391
-0.974646
-3.02776
-4.6725
-6.29634
-8.29944
-12.6679
-19.0005
-27.275
-33.6004
-30.7724
-21.5805
-14.9879
-9.33798
-5.87456
-4.31836
-2.57571
-0.838592
0.90401
1.88893
2.54597
2.77989
3.23426
3.84785
4.12088
0.190936
-0.191966
-0.165626
-0.335399
-0.569467
-0.876262
-1.29741
-1.81746
-2.47295
-3.26882
-4.23344
-5.38413
-6.74771
-8.34943
-10.2692
-12.6901
-14.8394
-16.4649
-19.4204
-20.6089
-21.7427
-21.8332
-21.0027
-19.3239
-17.038
-14.3675
-11.4556
-8.46129
-5.48078
-2.58789
0.160009
2.71944
5.06259
7.16931
9.02987
10.6455
12.0224
13.1754
14.1219
14.8855
15.4913
15.9639
16.328
16.6269
16.8746
17.0856
17.2812
16.8124
15.3923
13.9173
11.7624
9.41676
6.78857
4.00299
1.29091
-1.1898
-3.30133
-4.94724
-6.53174
-8.52583
-13.2747
-20.3449
-29.9171
-37.1159
-33.584
-22.8424
-15.5538
-9.44047
-5.8685
-4.44499
-2.69968
-0.8834
1.009
2.01454
2.67619
2.81474
3.25296
3.89758
4.16788
0.186885
-0.166024
-0.152084
-0.321271
-0.562848
-0.877832
-1.31203
-1.84858
-2.52499
-3.34534
-4.33742
-5.51765
-6.91377
-8.5543
-10.5024
-12.9107
-15.2593
-16.7225
-20.3501
-21.5416
-22.7485
-22.9079
-22.0429
-20.2659
-17.8395
-15.0082
-11.9298
-8.77826
-5.65493
-2.63553
0.221698
2.87383
5.29412
7.46311
9.37193
11.0228
12.4234
13.5903
14.5426
15.3056
15.9061
16.3704
16.7234
17.0136
17.2567
17.5126
17.8858
16.8239
15.7647
14.1403
11.9816
9.58126
6.86478
3.97155
1.15077
-1.42719
-3.59709
-5.23348
-6.74882
-8.70526
-13.8645
-21.7743
-32.9621
-41.1885
-36.7715
-24.1561
-16.0751
-9.46457
-5.80919
-4.56971
-2.84588
-0.95067
1.11079
2.13644
2.805
2.82942
3.25661
3.94671
4.21077
0.174381
-0.133338
-0.13881
-0.304531
-0.554863
-0.877394
-1.32437
-1.8764
-2.57208
-3.41437
-4.43063
-5.63698
-7.0627
-8.7394
-10.7191
-13.1231
-15.6275
-17.3409
-21.1113
-22.5154
-23.7641
-24.0025
-23.1036
-21.2269
-18.6599
-15.6653
-12.4158
-9.10165
-5.83021
-2.6798
0.290074
3.03709
5.53578
7.76753
9.72462
11.4103
12.8334
14.0125
14.9685
15.7286
16.3214
16.7749
17.1144
17.3927
17.6271
17.9317
18.5513
16.9464
16.109
14.3588
12.1992
9.73867
6.93328
3.92641
0.990945
-1.69066
-3.9192
-5.53393
-6.94396
-8.82638
-14.4166
-23.2484
-36.4099
-45.8588
-40.4089
-25.5403
-16.5524
-9.40262
-5.68993
-4.6904
-3.0164
-1.04273
1.20987
2.25613
2.93498
2.82288
3.24482
3.98889
4.25414
0.153761
-0.0943173
-0.125966
-0.285427
-0.5457
-0.875075
-1.33444
-1.90079
-2.61396
-3.47569
-4.51329
-5.74319
-7.19658
-8.90778
-10.9218
-13.3354
-15.9897
-18.2125
-21.5405
-23.5427
-24.8004
-25.12
-24.185
-22.2039
-19.4949