/*--------------------------------*- C++ -*----------------------------------*\
| =========                 |                                                 |
| \\      /  F ield         | OpenFOAM: The Open Source CFD Toolbox           |
|  \\    /   O peration     | Version:  4.1                                   |
|   \\  /    A nd           | Web:      www.OpenFOAM.org                      |
|    \\/     M anipulation  |                                                 |
\*---------------------------------------------------------------------------*/
FoamFile
{
    version     2.0;
    format      ascii;
    class       surfaceScalarField;
    location    "30";
    object      phi;
}
// * * * * * * * * * * * * * * * * * * * * * * * * * * * * * * * * * * * * * //

dimensions      [0 3 -1 0 0 0 0];

internalField   nonuniform List<scalar> 
13220
(
-799.915
2099.82
-1254.9
1755.18
-1720.37
1765.38
-2064.57
1644.11
-2347.76
1583.39
-2553.38
1505.52
-2689.4
1435.92
-2755.17
1365.97
-2754.93
1299.66
-2686.94
1231.91
-2539.54
1152.8
-2274.78
1035.14
-1804.14
829.263
-1031.2
527.261
268.702
-215.291
2315.11
-479.292
2019.18
-768.465
2054.55
-997.561
1873.2
-1217.57
1803.4
-1391.89
1679.84
-1538.54
1582.57
-1649.03
1476.46
-1729.43
1380.06
-1775.4
1277.87
-1762.86
1140.27
-1631.27
903.549
-1279.36
477.35
-615.615
-136.478
-346.913
-118.237
2433.35
-305.835
2206.78
-429.788
2178.51
-496.877
1940.29
-549.755
1856.28
-560.565
1690.65
-547.985
1570
-506.355
1434.83
-439.069
1312.78
-349.343
1188.15
-246.79
1037.72
-150.39
807.159
-77.1148
404.102
-40.6272
-172.936
-387.54
106.246
2327.1
101.243
2211.79
153.574
2126.18
227.513
1866.36
306.626
1777.17
403.672
1593.61
510.05
1463.62
623.951
1320.93
740.151
1196.58
853.635
1074.67
947.05
944.308
965.311
788.896
797.157
572.253
279.072
345.145
-108.468
104.972
2222.13
151.206
2165.56
221.235
2056.15
296.209
1791.38
369.313
1704.07
456.26
1506.66
540.871
1379.01
639.662
1222.14
741.011
1095.23
832.691
982.989
886.333
890.664
862.457
812.774
701.339
733.373
411.694
634.791
303.226
10.1465
2211.99
43.5002
2132.2
68.8768
2030.77
69.6879
1790.57
67.8792
1705.88
57.3049
1517.24
68.3427
1367.97
152.477
1138
321.639
926.068
539.482
765.144
723.611
706.534
784.804
751.575
660.259
857.912
388.26
906.781
691.486
-114.527
2326.51
-225.341
2243.02
-326.385
2131.81
-472.644
1936.83
-623.565
1856.8
-803.438
1697.11
-960.787
1525.32
-1048.69
1225.91
-1034.95
912.329
-918.615
648.806
-701.96
489.878
-408.445
458.062
-126.878
576.347
28.9392
750.965
720.425
-4.55405
2331.07
-232.11
2470.57
-390.943
2290.65
-550.723
2096.61
-709.085
2015.16
-883.285
1871.31
-1079.7
1721.74
-1308.31
1454.51
-1549.31
1153.33
-1748.54
848.032
-1816.8
558.136
-1647.58
288.844
-1182.66
111.42
-527.699
95.9966
192.726
284.823
2046.24
154.124
2601.27
56.1165
2388.65
17.3246
2135.4
17.7375
2014.74
23.9669
1865.08
15.2001
1730.5
-61.5968
1531.3
-206.475
1298.21
-396.175
1037.73
-601.104
763.064
-771.48
459.222
-784.215
124.156
-547.686
-140.532
-354.961
401.915
1644.33
456.496
2546.69
459.926
2385.22
522.069
2073.25
638.044
1898.77
764.76
1738.36
894.498
1600.76
982.805
1443
1007.61
1273.4
955.508
1089.83
825.141
893.43
602.238
682.121
292.882
433.506
7.17831
145.164
-347.783
260.025
1384.3
350.426
2456.28
393.882
2341.77
458.742
2008.39
554.15
1803.36
654.259
1638.25
751.661
1503.36
830.814
1363.84
879.273
1224.94
883.853
1085.25
837.348
939.934
730.228
789.241
551.222
612.512
300.558
395.825
-47.2245
103.239
1281.06
180.201
2379.32
240.305
2281.66
285.679
1963.02
333.089
1755.95
377.153
1594.19
416.886
1463.63
445.579
1335.15
461.425
1209.09
461.931
1084.74
443.379
958.485
400.595
832.022
319.438
693.666
181.039
534.217
133.815
87.2759
1193.78
184.562
2282.04
273.115
2193.11
373.429
1862.7
487.541
1641.84
588.713
1493.01
665.374
1386.97
714.895
1285.63
734.101
1189.89
724.127
1094.72
682.682
999.93
603.643
911.06
473.51
823.799
277.77
729.955
411.585
255.026
938.756
423.37
2113.69
413.54
2202.94
325.67
1950.57
248.704
1718.8
196.453
1545.26
177.77
1405.65
194.687
1268.71
246.735
1137.84
328.454
1013
421.267
907.117
475.838
856.488
419.047
880.589
243.471
905.531
655.057
427.267
1410.32
2195.37
2535.24
2596.4
2535.39
2306.76
2024.63
1725.57
1432.9
1125.63
841.093
577.877
314.701
2.35465e-07
-361.476
361.476
-361.476
-361.476
-361.476
282.171
-643.647
282.171
282.171
282.171
862.713
-580.542
862.713
862.713
1344.36
-481.645
1344.36
1344.36
1344.36
1701.02
-356.662
1701.02
1701.02
1929.72
-228.7
1929.72
1929.72
1929.72
2043.45
-113.729
2043.45
2043.45
2043.45
2060.55
-17.0992
2060.55
2060.55
1990.93
69.6189
1990.93
1990.93
1990.93
1851.73
139.204
1851.73
1851.73
1652.79
198.932
1652.79
1652.79
1652.79
1430.89
221.901
1430.89
1430.89
1430.89
1282.49
148.403
1282.49
1282.49
1080.54
201.953
1080.54
1080.54
1080.54
763.821
316.716
763.821
763.821
763.821
345.092
418.729
345.092
345.092
-83.3505
428.442
-83.3505
-83.3505
-83.3505
-819.33
735.98
-819.33
-819.33
-2146.82
1327.49
-2146.82
-2146.82
-2146.82
-3952.14
1805.32
-3952.14
-3952.14
-3952.14
-6069.74
2117.61
-6069.74
-6069.74
-8347.01
2277.27
-8347.01
-8347.01
-8166.75
-7987.93
-7807.92
-9984.3
2358.32
-9798.86
-9593.39
-9376.42
-9158.02
-8937.4
-8714.01
-8495.01
-8283.94
-10536.5
2459.22
-10318.2
-10098.8
-9879.07
-9668.74
-9455.68
-9239.98
-9023.38
-8806.18
-11043.5
2447.62
-10816.2
-10586.4
-10354.8
-10122.6
-9885.1
-9637.46
-9389.3
-9140.18
-8891.4
-10974.3
2316.57
-10707.7
-10439.5
-10169.9
-9899.93
-9629.26
-9343.07
-9047.86
-8752.1
-10580.8
2108.69
-10288.2
-9987.72
-9675.48
-9365.96
-9059.13
-8756.63
-8457.25
-8141.71
-9316.61
1473.3
-9015.36
-8718.32
-8422.7
-8114.28
-7800.67
-7488.64
-7176.4
-6865.96
-7557.66
1002.35
-7240.31
-6931.52
-6630.57
-6339.64
-6059.69
-5776.23
-5504.31
-5242.38
-4989.98
-4316.37
-408.259
-4083.45
-3865.86
-3650.63
-3439.82
-3232.93
-3066.12
-2974.2
-2880.51
-2152.79
-623.656
-2060.82
-1974.01
-1974.01
-1607.67
-366.343
-1274.86
-332.813
-1274.86
-1013.36
-261.495
-1013.36
-799.333
-214.027
-630.001
-169.332
-630.001
-480.491
-149.51
-361.41
-119.081
-361.41
-246.798
-114.612
-246.798
-137.784
-109.014
-50.936
-86.8478
-50.9359
35.2333
-86.1691
35.2334
112.387
-77.1537
194.831
-82.4443
194.831
268.673
-73.8414
344.103
-75.4301
344.103
428.804
-84.701
428.804
513.394
-84.5896
585.138
-71.7444
585.138
673.125
-87.9869
673.125
770.438
-97.313
856.638
-86.1997
856.638
954.286
-97.6484
1041.38
-87.0914
1041.38
1129.78
-88.4009
1129.78
1224.66
-94.8859
1307.55
-82.8885
1307.55
1390.96
-83.4097
1390.96
1479.38
-88.4151
1552.02
-72.6464
1552.02
1632.33
-80.3042
1692.67
-60.3465
1692.67
1752.06
-59.3847
1752.06
1813.04
-60.9803
1849.84
-36.7999
1849.84
1884.04
-34.1989
1884.04
1919.99
-35.9499
1930.48
-10.4925
1930.48
1953.68
-23.2023
1952.68
0.99887
1952.68
1961.46
-8.77824
1961.46
1981.63
-20.1708
1985.16
-3.52334
1985.16
2000.62
-15.4651
2000.62
2025.17
-24.5448
2031.81
-6.6451
2031.81
2046.94
-15.1243
2040.45
6.48783
2040.45
2038.6
1.84366
2038.6
-4.75785
-919.451
-1195.48
-897.174
-1302.1
-874.75
-1402.91
-849.311
-1490.57
-824.519
-1578.07
-805.651
-1637.7
-802.217
-1650.07
-824.778
-1581.29
-876.827
-1418.48
-941.353
-1188.29
-974.663
-919.51
-939.884
-549.333
-874.65
-32.4472
-837.189
403.98
-817.506
656.597
-800.804
862.021
-784.846
1080.04
-769.483
1307.21
-754.53
1534.94
-739.776
1757.52
-725.102
1970.97
-710.428
2172.59
-695.693
2360.03
-680.849
2531.47
-665.869
2685.52
-650.73
2821.41
-635.413
2938.63
-619.904
3037.09
-604.208
3116.9
-588.335
3178.46
-572.261
3222.3
-555.999
3248.67
-539.6
3258.43
-523.078
3252.82
-506.42
3232.94
-489.608
3199.64
-472.614
3153.83
-455.372
3095.9
-437.795
3025.41
-419.861
2941.64
-401.615
2845.1
-383.044
2736.8
-364.014
2615.62
-344.411
2478.08
-324.274
2322.66
-303.707
2152.24
-282.688
1970.36
-261.047
1776.19
-238.567
1564.82
-215.037
1331.36
-190.266
1074.57
-164.413
803.623
-130.624
524.353
-51.0178
30.6343
24.4485
-418.319
51.7778
-666.308
59.9998
-698.429
65.1922
-586.834
71.4037
-412.551
69.2459
-239.29
56.8536
-127.825
54.7482
103.147
64.5131
448.001
71.344
669.602
75.6516
858.951
81.0512
1064.63
88.5259
1238.03
95.7247
1309.14
101.141
1267.34
105.345
1151.12
108.962
995.618
111.822
810.039
115.342
627.116
116.578
414.6
117.811
246.537
135.628
220.399
105.735
-287.764
1.62539
-1419.92
-2309.28
-897.134
-1212.14
-870.017
-1329.22
-843.812
-1429.12
-815.817
-1518.57
-792.234
-1601.65
-781.206
-1648.73
-795.188
-1636.08
-843.103
-1533.38
-918.909
-1342.67
-994.162
-1113.04
-1023.17
-890.505
-969.041
-603.459
-870.069
-131.42
-816.745
350.656
-802.495
642.347
-791.201
850.726
-777.491
1066.33
-763.546
1293.27
-749.82
1521.22
-736.073
1743.77
-722.188
1957.09
-708.142
2158.55
-693.912
2345.8
-679.473
2517.03
-664.811
2670.86
-649.917
2806.51
-634.782
2923.5
-619.402
3021.71
-603.793
3101.29
-587.97
3162.64
-571.916
3206.24
-555.653
3232.4
-539.236
3242.02
-522.683
3236.26
-505.983
3216.24
-489.122
3182.78
-472.075
3136.78
-454.772
3078.6
-437.128
3007.77
-419.126
2923.64
-400.819
2826.8
-382.182
2718.17
-363.062
2596.5
-343.337
2458.35
-323.048
2302.37
-302.289
2131.48
-281.006
1949.08
-258.966
1754.15
-235.862
1541.72
-211.321
1306.82
-185.04
1048.29
-156.244
774.827
-106.079
474.189
-12.0897
-63.3549
62.281
-492.689
86.5686
-690.596
98.3046
-710.165
104.719
-593.249
109.274
-417.106
106.496
-236.512
82.0565
-103.385
64.0472
121.157
68.488
443.56
73.4756
664.614
76.7294
855.697
81.4044
1059.96
88.2632
1231.17
94.9494
1302.45
99.9509
1262.34
103.812
1147.25
107.111
992.319
109.773
807.377
112.856
624.033
114.264
413.192
114.598
246.204
132.352
202.645
144.421
-299.833
42.5245
-1318.02
-2264.91
-878.367
-1231.04
-848.77
-1358.81
-821.195
-1456.69
-793.606
-1546.16
-774.385
-1620.87
-773.62
-1649.49
-803.774
-1605.93
-867.914
-1469.24
-949.845
-1260.74
-1018.02
-1044.86
-1038.66
-869.87
-982.963
-659.152
-870.228
-244.155
-796.653
277.08
-780.118
625.813
-775.389
845.997
-766.414
1057.36
-754.925
1281.78
-742.898
1509.19
-730.607
1731.48
-717.939
1944.42
-704.87
2145.48
-691.421
2332.35
-677.61
2503.22
-663.448
2656.7
-648.944
2792.01
-634.102
2908.66
-618.936
3006.54
-603.475
3085.83
-587.741
3146.9
-571.729
3190.23
-555.475
3216.15
-539.04
3225.58
-522.446
3219.67
-505.688
3199.48
-488.759
3165.85
-471.633
3119.66
-454.24
3061.2
-436.499
2990.03
-418.403
2905.55
-400.005
2808.4
-381.269
2699.43
-362.024
2577.26
-342.141
2438.47
-321.661
2281.89
-300.659
2110.48
-279.03
1927.45
-256.469
1731.59
-232.562
1517.81
-206.756
1281.01
-178.542
1020.07
-145.355
741.641
-71.1402
399.973
20.2308
-154.726
82.5067
-554.965
105.374
-713.464
118.296
-723.087
127.322
-602.274
133.146
-422.93
131.946
-235.312
105.208
-76.647
76.3886
149.975
73.6968
446.251
76.6512
661.66
78.5603
853.788
82.0543
1056.46
87.8973
1225.33
93.7735
1296.58
98.1423
1257.97
101.469
1143.93
104.324
989.463
106.664
805.037
109.188
621.509
111.051
411.329
109.411
247.843
119.487
192.57
146.412
-326.758
67.6583
-1239.27
-2190.77
-855
-1252.45
-822.65
-1391.16
-794.216
-1485.13
-768.404
-1571.97
-756.269
-1633.01
-769.551
-1636.21
-818.682
-1556.8
-897.993
-1389.93
-981.406
-1177.33
-1038.14
-988.12
-1048.49
-859.529
-993.764
-713.873
-875.24
-362.678
-781.109
182.949
-755.42
600.124
-754.071
844.648
-751.039
1054.32
-743.644
1274.39
-734.096
1499.64
-723.644
1721.03
-712.551
1933.33
-700.805
2133.73
-688.424
2319.97
-675.469
2490.26
-661.991
2643.22
-648.022
2778.04
-633.589
2894.22
-618.724
2991.68
-603.473
3070.58
-587.869
3131.3
-571.924
3174.28
-555.692
3199.92
-539.241
3209.13
-522.598
3203.03
-505.768
3182.65
-488.75
3148.83
-471.52
3102.43
-454.01
3043.69
-436.144
2972.16
-417.928
2887.33
-399.414
2789.88
-380.551
2680.57
-361.152
2557.86
-341.086
2418.4
-320.388
2261.19
-299.104
2089.19
-277.074
1905.42
-253.908
1708.42
-229.073
1492.98
-201.83
1253.77
-171.347
989.588
-132.933
703.227
-39.0769
306.117
51.8666
-245.669
105.329
-608.428
128.232
-736.366
141.672
-736.527
152.413
-613.015
159.765
-430.281
160.015
-235.562
132.297
-48.9292
93.685
188.588
81.2021
458.734
80.8769
661.985
81.2694
853.395
83.2015
1054.53
87.5681
1220.96
92.2595
1291.89
95.7291
1254.5
98.3262
1141.33
100.604
987.186
102.479
803.161
104.421
619.567
106.775
408.975
102.473
252.145
108.685
186.358
148.703
-366.775
91.8559
-1182.42
-2114.04
-828.55
-1275.97
-794.216
-1425.5
-766.424
-1512.92
-745.007
-1593.39
-743.795
-1634.22
-774.822
-1605.18
-843.027
-1488.59
-931.54
-1301.41
-1007.44
-1101.43
-1046.39
-949.169
-1044.15
-861.767
-993.014
-765.012
-880.091
-475.601
-770.948
73.8066
-731.853
561.029
-729.248
842.043
-730.979
1056.06
-728.85
1272.26
-723.022
1493.81
-715.042
1713.05
-705.888
1924.18
-695.809
2123.65
-684.825
2308.98
-673.001
2478.44
-660.423
2630.64
-647.162
2764.78
-633.274
2880.34
-618.816
2977.22
-603.853
3055.62
-588.433
3115.88
-572.592
3158.44
-556.399
3183.72
-539.937
3192.67
-523.24
3186.33
-506.324
3165.73
-489.197
3131.7
-471.839
3085.07
-454.183
3026.04
-436.164
2954.14
-417.799
2868.96
-399.139
2771.22
-380.116
2661.55
-360.532
2538.27
-340.251
2398.12
-319.3
2240.24
-297.691
2067.58
-275.197
1882.92
-251.335
1684.56
-225.439
1467.08
-196.564
1224.89
-163.424
956.448
-118.734
658.537
-9.14783
196.531
81.7434
-336.561
126.542
-653.226
149.746
-759.571
164.234
-751.015
176.653
-625.434
185.926
-439.554
187.722
-237.357
162.428
-23.6356
118.993
232.023
94.776
482.951
87.3934
669.368
85.0829
855.706
85.0281
1054.59
87.4283
1218.56
90.4804
1288.83
92.7077
1252.27
94.3314
1139.71
95.865
985.652
97.1005
801.926
98.4734
618.194
101.2
406.249
93.7082
259.636
98.3882
181.678
146.387
-414.773
102.285
-1138.32
-2018.4
-799.491
-1301.1
-764.194
-1460.79
-739.003
-1538.11
-725.187
-1607.2
-738.908
-1620.5
-789.977
-1554.11
-874.141
-1404.43
-963.541
-1212.02
-1024.49
-1040.48
-1043.6
-930.059
-1029.29
-876.072
-981.782
-812.523
-880.938
-576.445
-764.223
-42.9084
-710.965
507.771
-703.492
834.569
-707.262
1059.83
-710.092
1275.09
-709.056
1492.78
-704.504
1708.5
-697.797
1917.47
-689.717
2115.57
-680.449
2299.72
-670.053
2468.04
-658.623
2619.21
-646.268
2752.42
-633.081
2867.15
-619.152
2963.29
-604.57
3041.04
-589.403
3100.71
-573.711
3142.75
-557.588
3167.6
-541.128
3176.21
-524.38
3169.58
-507.371
3148.72
-490.12
3114.45
-472.612
3067.56
-454.785
3008.21
-436.587
2935.94
-418.044
2850.42
-399.208
2752.39
-379.994
2642.33
-360.193
2518.47
-339.667
2377.59
-318.432
2219
-296.458
2045.61
-273.446
1859.91
-248.812
1659.93
-221.744
1440.01
-191.081
1194.23
-154.874
920.241
-102.002
605.664
17.5934
76.9358
106.949
-425.916
146.631
-692.908
170.855
-783.795
186.872
-767.032
200.928
-639.49
212.222
-450.848
215.648
-240.784
195.224
-3.21086
153.519
273.727
118.74
517.73
98.9571
689.151
90.5268
864.136
87.6316
1057.48
87.608
1218.58
88.5273
1287.91
89.1049
1251.69
89.4646
1139.35
90.0523
985.065
90.4375
801.541
91.2462
617.385
93.8971
403.598
83.7043
269.829
91.2248
174.157
143.969
-467.518
114.473
-1108.83
-1928.47
-768.7
-1327.04
-734.014
-1495.48
-714.049
-1558.07
-711.704
-1609.55
-744.053
-1588.15
-815.073
-1483.09
-908.691
-1310.81
-989.696
-1131.01
-1030.65
-999.522
-1030.78
-929.932
-1006.49
-900.368
-962.128
-856.881
-874.944
-663.63
-757.364
-160.488
-692.209
442.617
-678.483
820.843
-681.626
1062.97
-687.725
1281.18
-691.663
1496.71
-691.512
1708.35
-688.01
1913.97
-682.358
2109.92
-675.122
2292.48
-666.458
2459.38
-656.452
2609.2
-645.23
2741.2
-632.925
2854.84
-619.667
2950.03
-605.575
3026.94
-590.743
3085.88
-575.26
3127.27
-559.247
3151.59
-542.812
3159.77
-526.022
3152.79
-508.919
3131.62
-491.534
3097.07
-473.859
3049.89
-455.84
2990.19
-437.437
2917.54
-418.691
2831.68
-399.649
2733.35
-380.213
2622.9
-360.165
2498.43
-339.365
2356.79
-317.815
2197.45
-295.441
2023.24
-271.865
1836.33
-246.396
1634.46
-218.062
1411.68
-185.469
1161.64
-145.602
880.374
-79.0818
539.144
44.3203
-46.4663
128.728
-510.324
166.41
-730.589
191.667
-809.052
209.475
-784.84
225.302
-655.317
238.665
-464.212
243.919
-246.038
229.255
11.4531
194.445
308.538
153.961
558.213
118.876
724.236
98.9823
884.03
91.0975
1065.37
88.057
1221.62
86.3287
1289.64
84.7779
1253.24
83.5232
1140.6
82.9189
985.669
82.213
802.246
82.4082
617.19
84.3157
401.69
72.819
281.326
86.7937
160.183
141.389
-522.113
111.884
-1079.32
-1832.05
-737.406
-1352.73
-705.471
-1527.41
-694.024
-1569.52
-707.3
-1596.27
-760.55
-1534.9
-847.965
-1395.68
-941.805
-1216.97
-1006.22
-1066.59
-1025.62
-980.122
-1010.13
-945.421
-978.989
-931.513
-937.5
-898.37
-862.617
-738.513
-748.27
-274.835
-674.141
368.487
-654.629
801.331
-655.695
1064.04
-662.888
1288.38
-670.845
1504.67
-675.543
1713.05
-676.103
1914.53
-673.497
2107.31
-668.67
2287.65
-662.043
2452.75
-653.751
2600.91
-643.92
2731.37
-632.708
2843.63
-620.287
2937.61
-606.814
3013.47
-592.415
3071.48
-577.216
3112.07
-561.363
3135.73
-544.988
3143.4
-528.173
3135.98
-510.981
3114.43
-493.456
3079.54
-475.601
3032.03
-457.371
2971.96
-438.742
2898.91
-419.768
2812.7
-400.492
2714.07
-380.804
2603.21
-360.479
2478.1
-339.376
2335.69
-317.482
2175.56
-294.674
2000.43
-270.492
1812.15
-244.132
1608.1
-214.449
1381.99
-179.782
1126.97
-135.394
835.985
-43.6816
447.432
75.4002
-165.548
148.622
-583.546
186.168
-768.136
212.376
-835.26
231.897
-804.361
249.598
-673.017
265.144
-479.758
272.837
-253.73
264.031
20.2585
237.691
334.878
197.154
598.751
148.853
772.537
112.839
920.045
95.8291
1082.38
88.4344
1229.02
83.4859
1294.59
79.3247
1257.41
76.1034
1143.82
74.075
987.697
72.0869
804.235
71.6348
617.642
72.2221
401.103
61.6223
291.926
85.6068
136.198
139.919
-576.425
113.68
-1053.08
-1721.89
-707.088
-1376.74
-680.719
-1553.78
-681.656
-1568.58
-714.277
-1563.65
-788.031
-1461.15
-884.607
-1299.1
-968.609
-1132.97
-1011.29
-1023.91
-1010.9
-980.513
-984.281
-972.037
-949.349
-966.445
-910.603
-937.116
-846.268
-802.848
-737.328
-383.775
-655.596
286.755
-631.389
777.124
-630.342
1062.99
-637.016
1295.05
-647.303
1514.96
-656.417
1722.16
-661.612
1919.72
-662.791
2108.49
-660.886
2285.75
-656.636
2448.5
-650.353
2594.63
-642.188
2723.21
-632.309
2833.75
-620.918
2926.22
-608.215
3000.77
-594.368
3057.64
-579.542
3097.24
-563.915
3120.11
-547.642
3127.12
-530.829
3119.17
-513.561
3097.16
-495.898
3061.88
-477.854
3013.99
-459.398
2953.5
-440.524
2880.04
-421.298
2793.48
-401.763
2694.53
-381.794
2583.24
-361.162
2457.47
-339.73
2314.26
-317.465
2153.29
-294.191
1977.15
-269.364
1787.32
-242.057
1580.79
-210.951
1350.89
-174.09
1090.11
-124.564
786.46
-9.36235
332.23
103.096
-278.006
167.108
-647.558
205.581
-806.609
232.915
-862.594
253.987
-825.433
273.628
-692.658
291.519
-497.649
302.268
-264.48
299.262
23.2651
280.812
353.327
244.036
635.527
188.218
828.355
134.962
973.3
103.383
1113.96
88.6302
1243.77
79.575
1303.65
72.4345
1264.55
67.0347
1149.22
63.4833
991.249
60.2157
807.502
59.2437
618.614
58.3232
402.024
51.6031
298.646
88.1247
99.6767
139.716
-628.016
117.144
-1030.51
-1624.92
-679.518
-1397.25
-662.251
-1571.05
-679.652
-1551.18
-733.787
-1509.51
-823.95
-1370.99
-919.723
-1203.33
-985.36
-1067.33
-1005.08
-1004.19
-988.985
-996.608
-955.732
-1005.29
-919.44
-1002.74
-883.172
-973.384
-827.547
-858.473
-725.294
-486.028
-636.07
197.531
-607.902
748.956
-605.541
1060.63
-611.205
1300.71
-622.175
1525.93
-634.499
1734.49
-644.262
1929.48
-649.836
2114.07
-651.488
2287.4
-650.052
2447.06
-646.092
2590.67
-639.876
2716.99
-631.59
2825.47
-621.452
2916.08
-609.696
2989.01
-596.537
3044.48
-582.191
3082.89
-566.869
3104.79
-550.754
3111.01
-533.981
3102.39
-516.658
3079.84
-498.865
3044.09
-480.629
2995.75
-461.936
2934.81
-442.802
2860.9
-423.306
2773.98
-403.486
2674.71
-383.208
2562.96
-362.243
2436.5
-340.454
2292.47
-317.79
2130.63
-294.021
1953.38
-268.509
1761.81
-240.201
1552.48
-207.61
1318.3
-168.374
1050.88
-112.688
730.773
18.3718
201.171
127.781
-387.416
184.94
-704.717
224.339
-846.008
252.986
-891.241
275.688
-848.135
297.369
-714.339
317.737
-518.017
331.9
-278.643
334.591
20.574
323.141
364.777
291.802
666.866
234.724
885.433
167.697
1040.33
117.408
1164.24
90.3398
1270.84
75.3238
1318.66
64.8579
1275.01
57.2865
1156.8
52.3281
996.207
48.0789
811.751
46.9566
619.736
44.9447
404.036
46.0118
297.579
96.211
49.4775
140.523
-672.328
110.596
-1000.58
-1523.1
-656.732
-1411.99
-652.758
-1575.03
-690.152
-1513.79
-765.077
-1434.59
-863.708
-1272.36
-948.11
-1118.93
-990.394
-1025.05
-989.552
-1005.04
-962.762
-1023.4
-926.519
-1041.53
-890.355
-1038.9
-855.962
-1007.78
-807.133
-907.302
-712.563
-580.598
-615.703
100.671
-583.489
716.742
-580.678
1057.82
-585.84
1305.88
-596.565
1536.65
-610.629
1748.55
-624.179
1943.03
-634.321
2124.21
-640.13
2293.21
-642.051
2448.99
-640.794
2589.41
-636.824
2713.02
-630.401
2819.04
-621.76
2907.44
-611.154
2978.41
-598.848
3032.17
-585.106
3069.15
-570.184
3089.86
-554.298
3095.12
-537.612
3085.71
-520.265
3062.49
-502.357
3026.18
-483.933
2977.33
-464.999
2915.88
-445.593
2841.5
-425.809
2754.2
-405.682
2654.59
-385.071
2542.35
-363.746
2415.18
-341.574
2270.3
-318.486
2107.54
-294.191
1929.09
-267.956
1735.58
-238.591
1523.12
-204.449
1284.16
-162.487
1008.91
-97.7103
665.996
42.0197
61.441
148.477
-493.872
202.7
-758.941
242.402
-885.71
272.381
-921.221
296.972
-872.726
320.799
-738.165
343.701
-540.919
361.437
-296.38
369.729
12.2821
364.715
369.791
339.277
692.304
285.565
939.145
211.63
1114.26
143.2
1232.67
98.865
1315.17
74.4589
1343.07
59.7432
1289.73
49.9916
1166.55
43.8599
1002.34
39.1634
816.448
38.4326
620.467
36.5082
405.96
50.9296
283.157
112.196
-11.7889
142.734
-702.866
112.574
-970.423
-1409.53
-641.036
-1418.19
-654.84
-1561.22
-713.992
-1454.64
-805.058
-1343.52
-901.555
-1175.86
-966.002
-1054.48
-984.279
-1006.77
-967.577
-1021.74
-934.744
-1056.23
-897.941
-1078.34
-862.486
-1074.36
-829.043
-1041.22
-784.975
-951.371
-698.799
-666.774
-595.514
-2.61396
-557.913
679.141
-554.989
1054.89
-560.62
1311.51
-571.119
1547.15
-585.812
1763.24
-601.931
1959.15
-616.21
2138.49
-626.495
2303.49
-632.335
2454.82
-634.249
2591.33
-632.865
2711.64
-628.589
2814.77
-621.7
2900.55
-612.473
2969.18
-601.207
3020.9
-588.218
3056.16
-573.81
3075.46
-558.237
3079.55
-541.699
3069.17
-524.368
3045.16
-506.369
3008.18
-487.768
2958.73
-468.593
2896.7
-448.909
2821.81
-428.825
2734.11
-408.371
2634.13
-387.402
2521.38
-365.693
2393.47
-343.115
2247.72
-319.577
2084
-294.727
1904.24
-267.729
1708.58
-237.247
1492.63
-201.477
1248.39
-156.12
963.556
-74.2226
584.1
69.2881
-82.0697
166.782
-591.366
219.932
-812.091
259.727
-925.504
291.107
-952.601
317.766
-899.385
343.809
-764.208
369.284
-566.394
390.674
-317.769
404.494
-1.53838
405.633
368.651
386.132
711.806
338.188
987.088
264.721
1187.73
184.715
1312.68
122.356
1377.53
84.6842
1380.74
63.4961
1310.92
50.8785
1179.16
43.5211
1009.7
38.8181
821.151
38.9291
620.356
38.7349
406.154
67.0773
254.815
131.165
-75.8766
146.016
-717.718
118.211
-942.617
-1314.52
-634.897
-1412.75
-670.431
-1525.69
-749.937
-1375.13
-848.551
-1244.91
-932.031
-1092.38
-971.931
-1014.58
-969.272
-1009.43
-942.085
-1048.93
-906.72
-1091.6
-870.551
-1114.5
-835.655
-1109.25
-802.053
-1074.82
-760.592
-992.832
-682.063
-745.302
-574.729
-109.949
-530.955
635.367
-527.839
1051.78
-534.89
1318.56
-545.885
1558.15
-560.833
1778.19
-578.363
1976.68
-595.842
2155.97
-610.446
2318.1
-620.603
2464.98
-626.2
2596.92
-627.812
2713.25
-625.993
2812.95
-621.125
2895.69
-613.52
2961.57
-603.506
3010.89
-591.444
3044.1
-577.683
3061.7
-562.524
3064.39
-546.21
3052.85
-528.947
3027.9
-510.89
2990.12
-492.129
2939.97
-472.721
2877.29
-452.758
2801.85
-432.364
2713.72
-411.568
2613.34
-390.221
2500.03
-368.106
2371.35
-345.099
2224.71
-321.087
2059.99
-295.653
1878.81
-267.85
1680.78
-236.195
1460.98
-198.728
1210.92
-149.027
913.854
-36.7752
471.848
101.513
-220.358
183.801
-673.654
235.921
-864.211
276.207
-965.791
309.161
-985.555
337.897
-928.121
366.187
-792.498
394.316
-594.522
419.461
-342.914
438.734
-20.8113
445.857
361.528
432.262
725.401
390.822
1028.53
322.919
1255.63
240.885
1394.71
166.469
1451.95
114.797
1432.41
84.3882
1341.33
67.0393
1196.51
57.4947
1019.24
52.4779
826.168
53.2236
619.61
55.6654
403.712
90.457
220.023
148.57
-133.99
149.975
-719.123
116.149
-908.79
-1208.86
-640.635
-1392.71
-699.985
-1466.34
-794.292
-1280.82
-889.356
-1149.85
-951.392
-1030.34
-966.746
-999.227
-948.367
-1027.81
-915.416
-1081.88
-879.62
-1127.39
-844.282
-1149.84
-809.341
-1144.19
-774.501
-1109.66
-733.669
-1033.66
-660.909
-818.063
-551.325
-219.533
-501.847
585.89
-498.787
1048.72
-508.038
1327.81
-520.466
1570.57
-536.001
1793.73
-554.281
1994.96
-573.871
2175.56
-592.14
2336.37
-606.66
2479.5
-616.371
2606.63
-621.439
2718.32
-622.439
2813.95
-619.881
2893.13
-614.152
2955.84
-605.621
3002.36
-594.683
3033.16
-581.726
3048.74
-567.101
3049.77
-551.101
3036.85
-533.972
3010.77
-515.902
2972.05
-497.008
2921.07
-477.381
2857.67
-457.144
2781.61
-436.435
2693.01
-415.283
2592.19
-393.541
2478.29
-371
2348.81
-347.546
2201.26
-323.037
2035.48
-296.99
1852.76
-268.341
1652.13
-235.462
1428.1
-196.246
1171.7
-141.586
859.194
-5.98981
336.252
125.38
-351.728
198.737
-747.01
250.511
-915.985
291.73
-1007.01
326.275
-1020.1
357.105
-958.951
387.731
-823.125
418.636
-625.427
447.667
-371.945
472.324
-45.4683
485.277
348.575
477.539
733.139
442.512
1063.56
382.128
1316.02
305.543
1471.3
228.663
1528.83
167.642
1493.43
127.433
1381.53
103.168
1220.78
89.4209
1032.99
82.4824
833.106
82.3652
619.728
86.2978
399.78
119.624
186.697
164.997
-179.363
154.95
-709.076
125.325
-879.165
-1119.49
-659.823
-1356.08
-741.685
-1384.48
-841.284
-1181.22
-921.839
-1069.29
-958.394
-993.786
-952.902
-1004.72
-924.398
-1056.31
-889.033
-1117.24
-853.652
-1162.77
-818.69
-1184.81
-782.928
-1179.95
-746.001
-1146.59
-704.333
-1075.33
-635.756
-886.64
-525.278
-330.011
-470.328
530.94
-467.735
1046.12
-479.682
1339.76
-494.287
1585.18
-511.128
1810.57
-530.166
2014
-551.054
2196.44
-572.047
2357.36
-590.529
2497.98
-604.541
2620.65
-613.497
2727.28
-617.726
2818.18
-617.801
2893.2
-614.221
2952.26
-607.418
2995.56
-597.818
3023.56
-585.847
3036.77
-571.9
3035.82
-556.321
3021.28
-539.406
2993.85
-521.378
2954.02
-502.389
2902.09
-482.567
2837.84
-462.065
2761.11
-441.041
2671.98
-419.526
2570.67
-397.373
2456.14
-374.392
2325.83
-350.471
2177.34
-325.447
2010.46
-298.759
1826.07
-269.22
1622.59
-235.079
1393.96
-193.939
1130.56
-132.89
798.146
16.6445
186.717
143.405
-478.489
211.842
-815.447
263.929
-968.072
306.098
-1049.18
342.157
-1056.16
375.167
-991.961
408.245
-856.203
442.029
-659.21
475.043
-404.959
505.05
-75.4753
523.753
329.872
521.794
735.098
492.822
1092.53
439.735
1369.1
371.504
1539.53
299.465
1600.87
236.216
1556.68
189.048
1428.7
157.219
1252.61
137.235
1052.97
125.924
844.417
122.399
623.252
124.868
397.31
150.938
160.628
180.469
-208.895
160.436
-689.043
121.304
-840.033
-1032.38
-692.459
-1302.92
-791.142
-1285.79
-884.33
-1088.04
-942.386
-1011.24
-954.162
-982.01
-933.423
-1025.46
-899.466
-1090.27
-863.551
-1153.16
-828.539
-1197.78
-793.212
-1220.13
-755.934
-1217.23
-716.437
-1186.09
-673.057
-1118.71
-607.459
-952.238
-497.201
-440.268
-436.431
470.17
-434.537
1044.23
-449.471
1354.69
-466.775
1602.48
-485.7
1829.49
-506.053
2034.35
-527.977
2218.37
-550.822
2380.2
-572.514
2519.68
-590.641
2638.77
-603.757
2740.39
-611.626
2826.05
-614.702
2896.28
-613.571
2951.13
-608.752
2990.74
-600.723
3015.54
-589.938
3025.98
-576.834
3022.71
-561.806
3006.25
-545.2
2977.25
-527.283
2936.1
-508.249
2883.05
-488.262
2817.86
-467.516
2740.37
-446.183
2650.65
-424.299
2548.79
-401.726
2433.57
-378.291
2302.4
-353.89
2152.94
-328.331
1984.9
-300.977
1798.72
-270.502
1592.11
-235.069
1358.53
-191.614
1087.11
-120.136
726.668
38.4604
28.1201
159.39
-599.419
224.192
-880.249
276.166
-1020.05
319.147
-1092.16
356.734
-1093.75
391.936
-1027.16
427.482
-891.748
464.201
-695.929
501.278
-442.036
536.641
-110.838
561.127
305.387
564.862
731.362
541.523
1115.87
494.681
1415.95
434.244
1599.97
369.416
1665.7
308.804
1617.29
258.667
1478.84
220.605
1290.67
193.638
1079.94
176.05
862.006
166.831
632.471
164.929
399.212
180.942
144.615
194.992
-222.944
166.587
-660.639
127.221
-800.666
-941.963
-736.252
-1236.23
-841.981
-1180.06
-917.755
-1012.26
-950.07
-978.92
-941.326
-990.754
-911.024
-1055.76
-874.773
-1126.52
-838.97
-1188.96
-803.811
-1232.94
-767.4
-1256.54
-728.172
-1256.46
-686.037
-1228.22
-640.66
-1164.09
-577.247
-1015.65
-467.708
-549.808
-399.642
402.104
-398.821
1043.41
-417.095
1372.96
-437.512
1622.9
-459.153
1851.13
-481.605
2056.81
-504.868
2241.63
-529.078
2404.41
-553.139
2543.74
-574.833
2660.47
-592.089
2757.65
-603.915
2837.87
-610.379
2902.74
-612.029
2952.78
-609.474
2988.18
-603.258
3009.32
-593.876
3016.6
-581.801
3010.64
-567.476
2991.92
-551.296
2961.07
-533.575
2918.38
-514.554
2864.03
-494.447
2797.75
-473.482
2719.4
-451.852
2629.02
-429.601
2526.54
-406.602
2410.57
-382.704
2278.5
-357.812
2128.05
-331.704
1958.79
-303.656
1770.67
-272.202
1560.66
-235.443
1321.77
-188.791
1040.46
-94.9515
632.829
68.6573
-135.489
173.418
-704.18
235.372
-942.204
287.012
-1071.69
330.86
-1136.01
369.982
-1132.87
407.232
-1064.41
445.149
-929.666
484.843
-735.623
526.085
-483.278
566.872
-151.625
597.302
274.956
606.659
722.006
588.477
1134.05
546.746
1457.68
492.292
1654.42
433.627
1724.36
376.819
1674.1
326.188
1529.47
283.806
1333.05
250.473
1113.27
226.096
886.383
210.181
648.386
202.367
407.026
207.916
139.066
208.3
-223.329
173.177
-625.516
136.872
-764.361
-866.071
-786.497
-1161.96
-887.325
-1079.24
-938.236
-961.352
-946.348
-970.809
-922.946
-1014.16
-887.632
-1091.07
-850.763
-1163.39
-814.979
-1224.74
-779.049
-1268.87
-741.066
-1294.53
-699.804
-1297.72
-655.351
-1272.68
-608.191
-1211.25
-546.778
-1077.06
-439.021
-657.564
-360.905
323.988
-360.632
1043.14
-382.373
1394.7
-406.274
1646.8
-431.048
1875.91
-456.293
2082.05
-481.548
2266.89
-507.174
2430.04
-532.993
2569.56
-557.507
2684.98
-578.543
2778.68
-594.431
2853.76
-604.619
2912.93
-609.41
2957.57
-609.423
2988.2
-605.279
3005.17
-597.529
3008.85
-586.688
2999.8
-573.237
2978.47
-557.619
2945.45
-540.197
2900.96
-521.267
2845.1