/*--------------------------------*- C++ -*----------------------------------*\
| =========                 |                                                 |
| \\      /  F ield         | OpenFOAM: The Open Source CFD Toolbox           |
|  \\    /   O peration     | Version:  4.1                                   |
|   \\  /    A nd           | Web:      www.OpenFOAM.org                      |
|    \\/     M anipulation  |                                                 |
\*---------------------------------------------------------------------------*/
FoamFile
{
    version     2.0;
    format      ascii;
    class       volScalarField;
    location    "4";
    object      k;
}
// * * * * * * * * * * * * * * * * * * * * * * * * * * * * * * * * * * * * * //

dimensions      [0 2 -2 0 0 0 0];

internalField   nonuniform List<scalar> 
6785
(
0.415048
0.000186911
0.000178618
0.000178619
0.000178641
0.000178601
0.000178622
0.000178641
0.0001786
0.000178622
0.000178639
0.000178589
0.000178903
0.000487438
0.499894
0.529383
0.000905389
2.97649e-07
2.78116e-07
2.64854e-07
2.51219e-07
2.38168e-07
2.2517e-07
2.12059e-07
1.99636e-07
1.89176e-07
2.50526e-07
8.23271e-06
0.000915353
0.309183
0.635795
0.0056734
1.12336e-08
2.18573e-09
5.07733e-09
4.59697e-07
4.77941e-05
0.000481351
0.00187425
0.00521671
0.0125746
0.0267741
0.0483856
0.0754508
0.166906
0.799399
0.0115072
4.30954e-06
1.45687e-09
1.07392e-09
3.24536e-08
4.45759e-06
0.000192471
0.000884457
0.00245792
0.00555747
0.0097582
0.0122685
0.00603209
0.016166
0.961415
0.0610434
0.00269359
0.000158427
1.69316e-05
2.30411e-06
1.3572e-06
7.24957e-05
0.000376881
0.00114297
0.00207891
0.00334356
0.00444833
0.00538467
0.00762836
1.10429
0.112987
0.00919599
0.000887974
0.000136163
2.48904e-05
5.75105e-06
3.96301e-05
0.000192024
0.000610974
0.000981841
0.00180339
0.00334573
0.00601884
0.00703343
1.21708
0.152551
0.0179902
0.00237525
0.000468381
0.000107599
3.14581e-05
3.81969e-05
0.000132655
0.000401489
0.000615301
0.00127039
0.00292551
0.00556337
0.00572908
1.30364
0.169955
0.0255598
0.00440598
0.00112826
0.000322832
0.000169044
0.000154664
0.000248257
0.00045803
0.000621218
0.00104998
0.00232048
0.00514307
0.00748009
1.37364
0.159313
0.0284238
0.00565233
0.00201333
0.00093645
0.00168864
0.00194021
0.00192547
0.00156686
0.00126534
0.00119963
0.00189266
0.00489778
0.0117482
1.4237
0.147746
0.0268491
0.00580683
0.00485511
0.00702155
0.0153886
0.01552
0.00917918
0.00415789
0.00273891
0.00257988
0.00217228
0.00601568
0.0236015
1.51416
0.131028
0.0259649
0.00793334
0.0136779
0.0251742
0.0437356
0.0403605
0.0234224
0.0110894
0.0112139
0.0162289
0.0152411
0.0124078
0.0461188
1.5784
0.225968
0.0351462
0.0117831
0.0212579
0.0356333
0.0589804
0.0629589
0.0525093
0.0407401
0.034986
0.0362622
0.0419026
0.0418555
0.0619613
1.5473
0.570359
0.11325
0.0295879
0.025595
0.0344662
0.055864
0.068731
0.0744984
0.0767328
0.0811049
0.0824798
0.073316
0.0636066
0.0583775
1.40265
1.75877
0.429904
0.119562
0.0507364
0.0375013
0.0463705
0.0572475
0.0676494
0.0773932
0.0841637
0.090225
0.0876127
0.0874825
0.0341963
1.39342
4.91283
1.86126
0.81279
0.460716
0.301124
0.227726
0.184402
0.15471
0.13453
0.120987
0.113196
0.111146
0.121798
0.0962551
0.694416
0.839065
0.787424
0.78781
0.80052
0.8824
0.8298
0.825864
0.833715
0.90657
0.860131
0.85836
0.913267
0.855411
0.842379
0.838722
0.887803
0.83443
0.822869
0.854632
0.794453
0.775551
0.762826
0.789071
0.732217
0.7139
0.700847
0.723336
0.673168
0.659136
0.678426
0.626249
0.610236
0.598963
0.621647
0.573977
0.561184
0.580365
0.529135
0.513947
0.502662
0.523864
0.473529
0.45981
0.449693
0.473231
0.424545
0.413149
0.434968
0.384288
0.372497
0.363571
0.391698
0.345294
0.338009
0.333755
0.374362
0.32432
0.316134
0.343792
0.293495
0.283442
0.274205
0.280403
0.233367
0.218186
0.198336
0.173416
0.165495
0.160043
0.157751
0.155761
0.15721
0.160324
0.164963
0.166315
0.169328
0.172927
0.174148
0.17713
0.180026
0.182393
0.188657
0.190961
0.193037
0.197822
0.201092
0.207122
0.213324
0.21974
0.226112
0.231654
0.237389
0.244581
0.251663
0.258396
0.264746
0.27159
0.280026
0.288357
0.296782
0.305341
0.317792
0.32674
0.334085
0.34228
0.350481
0.358579
0.367752
0.378436
0.389229
0.403483
0.419838
0.432413
0.443892
0.457156
0.471707
0.487301
0.504122
0.522826
0.548599
0.578495
0.599
0.618607
0.640658
0.66547
0.692236
0.722263
0.752144
0.790937
0.824175
0.853737
0.888947
0.924742
0.960425
1.00033
1.04398
1.08959
1.15413
1.18583
1.21534
1.26026
1.3039
1.35346
1.4059
1.40687
1.40321
1.39486
1.39737
1.45675
1.3266
1.16144
0.952804
0.718318
0.452185
0.266274
0.223565
0.179754
0.145907
0.100202
0.053226
0.0511221
0.0468138
0.0446435
0.0447831
0.0439143
0.0444233
0.0437063
0.0436847
0.0439191
0.0436695
0.0439919
0.0442365
0.0447228
0.0452687
0.0453511
0.0459427
0.0462036
0.0468993
0.0474666
0.0476733
0.0484146
0.0486925
0.0489002
0.0496766
0.0499458
0.0508179
0.0514151
0.0517109
0.0525718
0.0528427
0.0538039
0.0544195
0.0547578
0.0557114
0.0559971
0.056313
0.057286
0.0575632
0.0586576
0.0593122
0.0597203
0.0607817
0.061066
0.0622566
0.062939
0.0633901
0.0645575
0.0648637
0.0652828
0.0664705
0.0667677
0.0681052
0.0688366
0.0693577
0.0706451
0.0709439
0.0723852
0.0731393
0.0736926
0.0750879
0.0753911
0.0758853
0.077284
0.0775538
0.0791186
0.0798795
0.0804367
0.0819017
0.0821209
0.0837485
0.0844829
0.0849927
0.0865121
0.0866671
0.0870571
0.0885313
0.0886007
0.0902481
0.0908848
0.0879646
0.0761563
0.0489535
0.0274681
0.019061
0.014877
0.0120071
0.00922019
0.00651613
0.00495497
0.00493757
0.00438043
0.0036029
0.00274519
0.0018799
0.00084004
0.000351754
0.00110315
0.00162997
0.00163141
0.00192639
0.0773185
0.223984
0.27637
0.27561
0.261526
0.252475
0.265529
0.28409
0.280359
0.242566
0.187606
0.137486
0.0980113
0.0592223
0.0114481
0.00172473
0.00176459
0.00338391
0.0160479
0.0357575
0.0544404
0.0810473
0.119089
0.170939
0.243971
0.338864
0.445402
0.544288
0.619989
0.666185
0.70197
0.735809
0.769393
0.802017
0.832425
0.859285
0.881316
0.897286
0.905919
0.906851
0.900152
0.884219
0.856288
0.809308
0.752703
0.693307
0.639507
0.603286
0.591625
0.602432
0.611458
0.565284
0.432472
0.17782
0.0288609
0.00307375
0.0210062
0.0624934
0.0890034
0.0776193
0.0506208
0.0283749
0.0192686
0.0149748
0.0120743
0.00925882
0.00653687
0.00497685
0.00495741
0.00440054
0.00362414
0.00276665
0.00190218
0.000856787
0.000359749
0.00109158
0.00161408
0.00160864
0.00318299
0.087877
0.233152
0.281724
0.278923
0.264375
0.256253
0.270529
0.290169
0.287047
0.248878
0.192663
0.141105
0.101005
0.0631392
0.0154521
0.00178739
0.00179651
0.0041808
0.0180667
0.0372251
0.0561582
0.0833116
0.122138
0.175232
0.24965
0.345429
0.451615
0.548478
0.621546
0.668764
0.705773
0.740846
0.775619
0.809343
0.840754
0.868487
0.891239
0.907763
0.916765
0.917869
0.91119
0.89512
0.866904
0.819252
0.761555
0.700716
0.645367
0.607648
0.594876
0.604329
0.61229
0.570106
0.442316
0.192674
0.035782
0.00351654
0.022415
0.0634405
0.0908492
0.0802542
0.0528147
0.0293238
0.0192956
0.0148931
0.0119917
0.00917827
0.00647056
0.00492881
0.00490649
0.00435437
0.00358671
0.00273681
0.00188605
0.000853929
0.000358104
0.00105326
0.00155853
0.00153886
0.00483821
0.100352
0.244914
0.289108
0.28385
0.26923
0.263204
0.279287
0.300417
0.298057
0.259059
0.200889
0.146834
0.105457
0.0674746
0.0204377
0.00186095
0.00181986
0.00500336
0.0197802
0.0386068
0.0577829
0.0854586
0.125106
0.179518
0.255504
0.352551
0.458859
0.554242
0.625968
0.674219
0.712788
0.7494
0.785647
0.820718
0.853351
0.88213
0.905721
0.92285
0.932185
0.933339
0.926493
0.91002
0.881202
0.832425
0.773074
0.710195
0.652707
0.613223
0.599533
0.607874
0.615546
0.577853
0.453358
0.207074
0.042991
0.00408091
0.0235789
0.0640245
0.0931605
0.08389
0.0557599
0.0307077
0.0194591
0.0148669
0.0119427
0.009122
0.00642231
0.00489469
0.00486999
0.00432272
0.00356267
0.00271944
0.00187892
0.000856089
0.000359548
0.00102275
0.00151505
0.00148757
0.00546677
0.108239
0.257202
0.296899
0.289563
0.274937
0.27126
0.289718
0.312892
0.311553
0.27114
0.210436
0.153354
0.110514
0.0718858
0.0241607
0.00199169
0.00187598
0.00587533
0.0213021
0.0398812
0.0593028
0.0875323
0.128089
0.183967
0.261732
0.36023
0.466656
0.561054
0.632607
0.682209
0.722674
0.761041
0.798878
0.835354
0.869227
0.899037
0.923427
0.941092
0.950663
0.95175
0.944611
0.927612
0.89808
0.848025
0.786779
0.721628
0.661741
0.620441
0.605977
0.613364
0.620823
0.586631
0.464715
0.221284
0.0504893
0.00477763
0.0247364
0.0646036
0.0958981
0.0882388
0.0593392
0.0325291
0.0197485
0.0148825
0.0119206
0.00908611
0.00638964
0.00487387
0.00484777
0.00430421
0.00355078
0.0027131
0.00188058
0.000863241
0.000363865
0.000998812
0.00148062
0.0014509
0.00629494
0.117247
0.270615
0.30491
0.295751
0.281338
0.280225
0.301257
0.326733
0.326621
0.284216
0.220559
0.16025
0.115962
0.0773506
0.028025
0.00216306
0.00196126
0.00674261
0.0225934
0.0409805
0.0606669
0.0895176
0.131127
0.18866
0.268352
0.36826
0.47472
0.56861
0.64053
0.691837
0.734273
0.774384
0.813765
0.851601
0.886679
0.917494
0.942653
0.960814
0.970556
0.97149
0.963952
0.946288
0.915894
0.864384
0.800999
0.733375
0.670884
0.627812
0.612874
0.619524
0.626901
0.595862
0.476277
0.235293
0.0582446
0.00560853
0.0256937
0.0647245
0.0987624
0.0930169
0.0635011
0.0348296
0.020158
0.0149071
0.011897
0.00904744
0.00635458
0.00485187
0.00482419
0.00428311
0.00353631
0.00270417
0.00188061
0.00086973
0.000368087
0.000974232
0.00144419
0.00141523
0.0076907
0.128227
0.283977
0.312757
0.30209
0.288019
0.289595
0.313346
0.341375
0.342721
0.297835
0.230822
0.167254
0.121445
0.0828052
0.0327296
0.00237111
0.00206178
0.00754671
0.0236572
0.0418986
0.0618838
0.0914578
0.13429
0.19364
0.275295
0.376483
0.483114
0.577117
0.649931
0.703005
0.747375
0.789131
0.829965
0.869094
0.905339
0.937138
0.963046
0.981673
0.991532
0.992252
0.98423
0.965785
0.934404
0.881316
0.815594
0.745336
0.680067
0.635288
0.620166
0.626316
0.633811
0.605342
0.488085
0.24915
0.0662397
0.00658356
0.0265429
0.0648403
0.101558
0.0979384
0.0682126
0.0376955
0.0207507
0.01494
0.0118657
0.00900041
0.00631328
0.00482581
0.00479584
0.00425747
0.0035172
0.00269088
0.00187751
0.000874633
0.000371807
0.000948774
0.00140559
0.00138017
0.00926887
0.140852
0.296723
0.320379
0.308356
0.294803
0.299279
0.325766
0.356522
0.359549
0.311848
0.241043
0.174262
0.126798
0.0881728
0.0383164
0.00255936
0.00216798
0.00827244
0.0245067
0.0426274
0.0629625
0.0933865
0.137604
0.198861
0.282436
0.384816
0.491829
0.586267
0.660243
0.715273
0.761514
0.804823
0.847037
0.887427
0.924838
0.957635
0.984306
1.00339
1.01334
1.0138
1.00521
0.985854
0.953332
0.89853
0.830247
0.757163
0.688909
0.642479
0.627473
0.633307
0.641184
0.614796
0.499976
0.262831
0.074434
0.00771329
0.0272889
0.0649621
0.104151
0.102689
0.0734352
0.0412092
0.0216337
0.0149977
0.0118302
0.00894709
0.0062675
0.00479734
0.00476428
0.00422987
0.00349578
0.00267536
0.00187286
0.000878672
0.000375401
0.000923877
0.00136711
0.00134745
0.0102209
0.155078
0.308644
0.32766
0.314303
0.301462
0.309086
0.338281
0.371933
0.376874
0.326205
0.25111
0.181125
0.131808
0.0934156
0.0448375
0.00290687
0.00227853
0.00889565
0.0251354
0.0431587
0.0639128
0.0953201
0.141062
0.20426
0.289692
0.393277
0.500923
0.59612
0.671547
0.72852
0.776538
0.821306
0.864844
0.906481
0.945076
0.978906
1.00637
1.02593
1.03594
1.03609
1.02687
1.00647
0.972644
0.916001
0.844925
0.768801
0.697332
0.649304
0.634709
0.640334
0.648794
0.624087
0.511793
0.276294
0.0827723
0.00900336
0.0278672
0.0646529
0.106476
0.10715
0.0789597
0.0453811
0.0229552
0.0151068
0.0117957
0.00888993
0.00621873
0.0047676
0.00473058
0.00420013
0.00347395
0.00265807
0.00186697
0.00088177
0.000378778
0.000899883
0.00132913
0.00131809
0.0123674
0.171057
0.319473
0.334496
0.319734
0.307857
0.318883
0.350719
0.387423
0.394529
0.340868
0.26098
0.187763
0.136304
0.0985055
0.0524601
0.00326088
0.00237308
0.00939534
0.0255494
0.0434951
0.064749
0.0972681
0.144656
0.209792
0.297047
0.401908
0.510388
0.606549
0.683561
0.742529
0.792254
0.83842
0.883259
0.926159
0.965979
1.0009
1.02921
1.04927
1.05932
1.05915
1.04921
1.02764
0.99231
0.933701
0.859582
0.780174
0.70522
0.655643
0.641775
0.647208
0.656389
0.633107
0.523408
0.289498
0.0911975
0.0104584
0.028387
0.0643024
0.108553
0.111243
0.0846913
0.050016
0.0249168
0.0153076
0.0117675
0.00883075
0.00616754
0.00473663
0.00469449
0.00416768
0.00345139
0.00263855
0.00185937
0.000883411
0.000381591
0.000876688
0.00129142
0.00129458
0.0158377
0.188714
0.329146
0.340768
0.324464
0.31386
0.328501
0.36293
0.402845
0.412371
0.355731
0.270594
0.194178
0.140387
0.1033
0.0608703
0.00389222
0.00245498
0.00977788
0.0257371
0.0436442
0.0654866
0.099243
0.148387
0.215447
0.304524
0.41075
0.520216
0.617517
0.696248
0.757205
0.808576
0.856101
0.902236
0.946432
0.987534
1.02361
1.05283
1.07343
1.08351
1.083
1.07227
1.04939
1.01234
0.951648
0.874222
0.79126
0.71251
0.661449
0.648666
0.653826
0.663781
0.641788
0.534701
0.302388
0.0996476
0.0120778
0.0288249
0.0640503
0.11041
0.114933
0.0905218
0.0550214
0.0275243
0.0156787
0.0117531
0.00877028
0.00611432
0.00470406
0.0046555
0.00413207
0.00342616
0.00261795
0.00184979
0.000883181
0.000383586
0.000854394
0.00125411
0.0012814
0.0204096
0.207665
0.337567
0.346289
0.328302
0.319354
0.33779
0.374831
0.418117
0.430218
0.370639
0.280006
0.200278
0.144187
0.107582
0.0693624
0.00514885
0.00254937
0.0100016
0.0256969
0.0436152
0.0661419
0.101265
0.15226
0.221241
0.312165
0.419829
0.53039
0.628958
0.709479
0.772441
0.825425
0.874297
0.921743
0.967286
1.00974
1.04705
1.07725
1.09844
1.10858
1.1077
1.09612
1.07176
1.03277
0.969843
0.888853
0.80204
0.719137
0.666676
0.655413
0.660119
0.670787
0.650072
0.545574
0.314908
0.108054
0.0138536
0.0291319
0.063491
0.112098
0.11822
0.0963292
0.0603131
0.0307033
0.0163346
0.0117662
0.008711
0.00605999
0.00466995
0.00461347
0.00409321
0.00339783
0.00259577
0.0018391
0.000880802
0.000384548
0.000833225
0.00121751
0.00128289
0.0271169
0.227183
0.344659
0.350841
0.331022
0.324226
0.346631
0.386415
0.433216
0.447741
0.385497
0.289201
0.205939
0.147723
0.111381
0.0770422
0.00741476
0.00266157
0.010096
0.0254268
0.0434139
0.0667303
0.10336
0.156288
0.227203
0.320005
0.429156
0.540891
0.640825
0.723195
0.788177
0.842758
0.892985
0.941772
0.988721
1.03261
1.07125
1.10252
1.12435
1.13456
1.1333
1.1208
1.09482
1.05365
0.988293
0.903487
0.812496
0.725034
0.671291
0.662109
0.666081
0.67727
0.657905
0.555952
0.326998
0.116346
0.0157724
0.0294111
0.062961
0.113686
0.121139
0.101984
0.0658236
0.0343722
0.0173484
0.0118371
0.00865737
0.00600535
0.0046348
0.00456858
0.00405132
0.00336635
0.00257093
0.00182866
0.000875976
0.000384287
0.000813392
0.0011819
0.0013206
0.0353302
0.245976
0.350664
0.354156
0.332419
0.328415
0.354975
0.397758
0.44816
0.464369
0.400452
0.298031
0.211068
0.150827
0.114765
0.0835196
0.0107153
0.0028342
0.0101166
0.0249441
0.0430323
0.0672598
0.105559
0.160493
0.233363
0.328067
0.438732
0.551696
0.65307
0.737331
0.80436
0.860544
0.912153
0.96232
1.01075
1.05615
1.09623
1.12867
1.1512
1.16152
1.15989
1.14639
1.11862
1.07502
1.00701
0.918133
0.822602
0.730122
0.675252
0.668886
0.671784
0.683134
0.665229
0.56579
0.338608
0.124453
0.0178107
0.0296022
0.0623226
0.115251
0.123747
0.107365
0.071502
0.0384456
0.0187723
0.0120062
0.00861612
0.0059524
0.00459918
0.00452113
0.00400666
0.0033317
0.00254353
0.00181808
0.000868734
0.000382589
0.0007951
0.0011476
0.00142058
0.0457964
0.263116
0.355473
0.355936
0.332376
0.331965
0.362877
0.408984
0.462964
0.479305
0.41577
0.306367
0.215577
0.153314
0.1176
0.0888665
0.0166738
0.0032398
0.0100764
0.0243557
0.0424399
0.0677166
0.107887
0.164896
0.239747
0.336365
0.448548
0.56278
0.66565
0.75184
0.820955
0.878767
0.931802
0.983397
1.03338
1.08041
1.12203
1.15574
1.17906
1.18954
1.18754
1.17297
1.14324
1.09692
1.02598
0.932785
0.832304
0.734291
0.678482
0.675896
0.677401
0.68835
0.671988
0.57505
0.349693
0.132306
0.0199394
0.0297635
0.061727
0.116872
0.126114
0.11239
0.0772879
0.0428513
0.0206406
0.0123057
0.0086008
0.00590336
0.00456327
0.00447164
0.00395955
0.00329388
0.0025137
0.0018044
0.00086203
0.000379263
0.00077854
0.00111498
0.00162905
0.0568214
0.277622
0.358882
0.355887
0.330959
0.335106
0.370478
0.420208
0.477625
0.491755
0.431359
0.314317
0.219343
0.155159
0.119902
0.0932453
0.0267216
0.0042049
0.010003
0.0236902
0.0417352
0.0680518
0.110364
0.169522
0.246373
0.344901
0.458591
0.574115
0.678525
0.766682
0.83794
0.897419
0.951936
1.00502
1.05664
1.10539
1.14869
1.1838
1.208
1.2187
1.21634
1.20064
1.16875
1.1194
1.04521
0.947408
0.841498
0.737373
0.68084
0.683265
0.683227
0.692973
0.678135
0.583686
0.360218
0.139836
0.0221215
0.029887
0.0612319
0.118621
0.128315
0.117022
0.0831031
0.047529
0.0229596
0.0127683
0.00862964
0.00586058
0.00452784
0.00442085
0.00391033
0.00325302
0.00248159
0.00178739
0.000855665
0.000374381
0.00076386
0.0010842
0.00196671
0.0690069
0.288807
0.360601
0.353783
0.328513
0.338289
0.377904
0.431451
0.492108
0.501438
0.446295
0.322152
0.222276
0.156482
0.121756
0.0969756
0.0381883
0.00605007
0.00996801
0.0229876
0.0410115
0.0682516
0.113011
0.174387
0.253252
0.353668
0.468841
0.585668
0.691656
0.781827
0.855303
0.916502
0.97257
1.0272
1.08055
1.13114
1.17626
1.2129
1.23807
1.24908
1.24639
1.22948
1.19523
1.1425
1.06464
0.961916
0.850003
0.73911
0.68209
0.691009
0.689677
0.697153
0.68364
0.591649
0.370155
0.146977
0.024314
0.0299413
0.060511
0.120558
0.130425
0.121269
0.0888626
0.0524249
0.025711
0.013435
0.0087134
0.00582788
0.00449377
0.0043696
0.00385941
0.0032093
0.00244737
0.00176685
0.000848242
0.000369476
0.000751112
0.00105595
0.00260944
0.0838281
0.296055
0.360242
0.349595
0.325741
0.342029
0.385026
0.442497
0.506303
0.508712
0.459127
0.330079
0.224399
0.157369
0.123188
0.100189
0.0492161
0.00939224
0.0101135
0.0222808
0.04029
0.0683895
0.115831
0.1795
0.260383
0.362651
0.479276
0.597408
0.70501
0.797251
0.873048
0.936022
0.993724
1.04996
1.10514
1.15769
1.20477
1.2431
1.26937
1.28079
1.2778
1.2596
1.22276
1.16623
1.08417
0.976137
0.85752
0.739152
0.681893
0.698928
0.697231
0.701143
0.688495
0.598884
0.379477
0.15366
0.0264702
0.0300002
0.0598149
0.122724
0.132517
0.12517
0.0944875
0.0574849
0.0288575
0.0143442
0.0088566
0.00581692
0.0044617
0.00431838
0.00380721
0.003163
0.00241117
0.0017427
0.00083903
0.000365826
0.000739971
0.00103167
0.00394738
0.101939
0.298477
0.357332
0.343608
0.323629
0.346474
0.391272
0.452792
0.519907
0.514768
0.468336
0.337986
0.225807
0.157819
0.124243
0.102987
0.0591025
0.0142588
0.0106364
0.0216308
0.0395992
0.068565
0.118798
0.184862
0.267759
0.371832
0.489868
0.609303
0.718555
0.812933
0.891197
0.955997
1.01542
1.07335
1.13045
1.18509
1.23428
1.27448
1.30199
1.31393
1.31068
1.29111
1.25142
1.19059
1.1036
0.989778
0.86362
0.737093
0.679861
0.706518
0.706299
0.705261
0.692715
0.605346
0.388159
0.159803
0.0285537
0.0300457
0.059259
0.125144
0.134652
0.128783
0.0999163
0.0626523
0.0323492
0.0155278
0.00907143
0.00583303
0.00443206
0.00426794
0.00375401
0.00311447
0.00237306
0.00171487
0.000827926
0.000364504
0.000729254
0.00101244
0.00599024
0.120451
0.296537
0.351466
0.336476
0.323122
0.350925
0.395718
0.461574
0.532291
0.521296
0.473086
0.345343
0.226578
0.15778
0.124925
0.105408
0.0676761
0.0208151
0.0117711
0.0211253
0.038973
0.0689061
0.121883
0.19046
0.275364
0.381186
0.50059
0.621324
0.732266
0.828848
0.909747
0.976448
1.0377
1.0974
1.15653
1.21339
1.26487
1.3071
1.33601
1.34861
1.34516
1.32412
1.28127
1.21554
1.12262
1.00239
0.867778
0.732625
0.675734
0.712958
0.717009
0.709805
0.696319
0.610993
0.396156
0.16525
0.0306255
0.0300458
0.0585332
0.127824
0.136881
0.132175
0.105114
0.0678622
0.0361285
0.0170092
0.00937447
0.00587857
0.0044058
0.00421899
0.00370022
0.00306412
0.00233316
0.00168346
0.000814912
0.000365341
0.000719335
0.00101601
0.00972534
0.136794
0.29137
0.342537
0.329059
0.324588
0.353891
0.397718
0.468357
0.542494
0.529534
0.473761
0.35131
0.226761
0.157261
0.125244
0.107438
0.0750696
0.0282209
0.0136494
0.0208826
0.0384749
0.0694491
0.125125
0.196277
0.283175
0.390685
0.511411
0.63344
0.746116
0.844962
0.928511
0.997403
1.0606
1.12216
1.18345
1.24267
1.2966
1.34106
1.37155
1.38497
1.38136
1.35871
1.31233
1.24094
1.14071
1.0134
0.869514
0.725802
0.669554
0.717183
0.728916
0.714914
0.699315
0.615786
0.403404
0.169895
0.0327119
0.0300761
0.0578578
0.130755
0.139242
0.135412
0.110066
0.0730628
0.0401344
0.0188005
0.00978412
0.00595217
0.00438774
0.00417195
0.00364623
0.00301227
0.00229162
0.0016487
0.000800083
0.000368165
0.000711498
0.00111449
0.0157358
0.14939
0.283499
0.330851
0.321904
0.327301
0.353944
0.397734
0.4736
0.549535
0.539285
0.471743
0.354976
0.226418
0.156337
0.125268
0.109073
0.0813628
0.0360852
0.0164421
0.0210182
0.0381662
0.0702122
0.12856
0.202292
0.291166
0.400298
0.522299
0.645623
0.760084
0.861265
0.947541
1.01889
1.08416
1.1477
1.21126
1.27301
1.32956
1.37645
1.40871
1.42314
1.41943
1.39498
1.34456
1.26656
1.15751
1.02178
0.868693
0.717294
0.661676
0.717943
0.740765
0.720417
0.701665
0.619686
0.409816
0.173703
0.0347825
0.0300884
0.0571675
0.133911
0.141755
0.138552
0.114774
0.0782226
0.0443113
0.0209017
0.0103198
0.00605589
0.00437959
0.00412692
0.00359251
0.00295931
0.00224872
0.00161106
0.000783696
0.000372929
0.0007125
0.00151108
0.0253697
0.156876
0.273399
0.317778
0.314957
0.32964
0.350904
0.397481
0.478865
0.553096
0.548662
0.4685
0.355618
0.225581
0.155124
0.12507
0.110331
0.0866075
0.0439874
0.0200877
0.0216303
0.038117
0.0712212
0.132209
0.20848
0.299308
0.409993
0.533221
0.657849
0.774156
0.877764
0.96689
1.04097
1.10844
1.17408
1.24007
1.3045
1.36385
1.41338
1.44762
1.46327
1.45949
1.43295
1.37782
1.29201
1.17266
1.02652
0.865903
0.708463
0.652511
0.713925
0.750482
0.725762
0.703251
0.622619
0.415287
0.176644
0.0368047
0.0301254
0.0565315
0.137254
0.144427
0.141645
0.119255
0.083311
0.0486087
0.0233003
0.0110008
0.00619417
0.00438159
0.0040839
0.00353938
0.00290567
0.00220458
0.00157116
0.000766139
0.000380375
0.000748351
0.00279385
0.036748
0.160194
0.261577
0.303776
0.308104
0.330198
0.346239
0.398873
0.485688
0.554433
0.554966
0.464691
0.352843
0.224125
0.153765
0.124717
0.111236
0.090882
0.0515353
0.0245491
0.0228007
0.0383661
0.0724937
0.136097
0.214816
0.30757
0.419735
0.544148
0.670098
0.788324
0.894477
0.98662
1.06367
1.13352
1.20142
1.26999
1.33726
1.39959
1.45194
1.48841
1.5055
1.50167
1.47259
1.41182
1.31674
1.18571
1.0283
0.861431
0.700966
0.642127
0.704009
0.755536
0.729973
0.703873
0.6245
0.419683
0.178693
0.0387412
0.0301841
0.0560116
0.140736
0.14725
0.144729
0.123537
0.0883017
0.052981
0.0259724
0.0118448
0.00637259
0.00439349
0.00404353
0.00348716
0.00285169
0.00215959
0.00152967
0.000748111
0.000393528
0.00088259
0.00539033
0.0480191
0.160281
0.248633
0.289316
0.301318
0.328902
0.342108
0.402995
0.494588
0.555941
0.556145
0.459864
0.346628
0.221781
0.152384
0.124266
0.111811
0.0942806
0.0584504
0.0295485
0.0245199
0.0389597
0.0740427
0.140242
0.221279
0.315923
0.429492
0.555053
0.682355
0.802587
0.911431
1.0068
1.08709
1.15949
1.22983
1.30114
1.37144
1.43691
1.49229
1.53124
1.54999
1.54603
1.51375
1.44609
1.34008
1.19644
1.02862
0.856959
0.695294
0.630199
0.687634
0.753628
0.731781
0.703209
0.625275
0.422892
0.179836
0.0405592
0.0302265
0.0553809
0.144297
0.150204
0.14783
0.127655
0.0931775
0.0573891
0.0288842
0.0128662
0.00659775
0.00441531
0.00400614
0.00343585
0.00279779
0.00211394
0.00148748
0.000730559
0.000419598
0.00121816
0.00927045
0.0579235
0.157917
0.235204
0.27492
0.295223
0.326765
0.340241
0.409224
0.506526
0.559085
0.551632
0.452892
0.337351
0.218348
0.151042
0.123761
0.112074
0.0968925
0.064554
0.0348396
0.0267411
0.0399058
0.0758926
0.144655
0.227847
0.324334
0.43923
0.565914
0.694608
0.81695
0.928663
1.02748
1.11128
1.18645
1.25944
1.33369
1.40721
1.47597
1.53455
1.57624
1.59686
1.59258
1.55612
1.47996
1.36143
1.20522
1.02941
0.855137
0.690848
0.616472
0.665145
0.74348
0.729991
0.7009
0.624841
0.424781
0.180104
0.042235
0.0303118
0.0547918
0.147868
0.153253
0.150963
0.131643
0.0979318
0.0618015
0.0319956
0.0140749
0.00687706
0.00444778
0.00397149
0.0033854
0.00274411
0.00206814
0.0014454
0.000714907
0.000470933
0.00186877
0.0140441
0.0658767
0.153856
0.221841
0.261197
0.290897
0.324881
0.340707
0.417492
0.521947
0.564447
0.542138
0.442623
0.325674
0.21388
0.149773
0.123231
0.112036
0.0987959
0.0697659
0.0401119
0.0293484
0.0411871
0.0780651
0.149336
0.234498
0.332769
0.44892
0.57671
0.706848
0.831423
0.946212
1.04875
1.13636
1.21453
1.29043
1.36784
1.44478
1.51698
1.57891
1.62358
1.64621
1.64122
1.5992
1.51262
1.38052
1.2133
1.03302
0.857443
0.687477
0.601206
0.637751
0.725197
0.723774
0.696637
0.623119
0.425035
0.17973
0.0437614
0.030415
0.0543405
0.151372
0.156348
0.154128
0.135533
0.102566
0.0661954
0.0352646
0.0154746
0.00721822
0.00449203
0.00393907
0.00333581
0.00269097
0.00202222
0.00140424
0.000703012
0.000563288
0.00289798
0.0191457
0.0717522
0.148691
0.209011
0.248864
0.289307
0.323782
0.34316
0.428027
0.540984
0.572003
0.528786
0.428314
0.312348
0.208748
0.148616
0.122701
0.111709
0.100051
0.0740676
0.0451063
0.0322087
0.0427962
0.0805441
0.154273
0.241213
0.341193
0.458533
0.587422
0.719068
0.846025
0.964128
1.07068
1.16246
1.24389
1.32299
1.40381
1.48439
1.56015
1.62554
1.6734
1.69809
1.69164
1.64226
1.5433
1.39781
1.2229
1.04175
0.864448
0.685295
0.585167
0.607186
0.699917
0.712784
0.69019
0.62001
0.423451
0.178899
0.0451206
0.0305123
0.0538239
0.154727
0.159427
0.157315
0.139349
0.107088
0.0705553
0.0386506
0.017063
0.00762878
0.00454943
0.00390764
0.00328809
0.00263822
0.00197679
0.00136471
0.000696909
0.000710664
0.00427535
0.0240534
0.0757165
0.142931
0.19708
0.238839
0.290455
0.323921
0.347204
0.44095
0.56376
0.581635
0.512517
0.409958
0.298134
0.203537
0.147639
0.122187
0.111106
0.100702
0.0774629
0.0496484
0.0351611
0.0446736
0.0833375
0.159439
0.247971
0.349574
0.468044
0.598032
0.731268
0.860784
0.98247
1.09338
1.18975
1.2747
1.35737
1.44188
1.52634
1.60578
1.67467
1.72582
1.75242
1.74335
1.68447
1.57172
1.41484
1.23689
1.05734
0.876056
0.684624
0.569313
0.575315
0.669154
0.697122
0.681459
0.615447
0.419957
0.177611
0.0463262
0.0306658
0.0533625
0.157845
0.162412
0.160503
0.143111
0.11151
0.0748729
0.0421176
0.0188319
0.00811549
0.00462162
0.00387662
0.00324214
0.00258611
0.00193144
0.00132728
0.000698389
0.000920203
0.00588624
0.0284072
0.0780759
0.136992
0.186402
0.232293
0.293392
0.325474
0.352587
0.456272
0.590254
0.593251
0.494022
0.38833
0.283875
0.198847
0.14694
0.121698
0.110249
0.100785
0.0799739
0.0536103
0.0380634
0.046772
0.086458
0.16478
0.254749
0.357884
0.477434
0.608528
0.743451
0.875728
1.0013
1.11697
1.21847
1.3072
1.39385
1.4824
1.57099
1.65418
1.72654
1.78094
1.80898
1.79559
1.72504
1.59842
1.43429
1.25824
1.08065
0.89185
0.685898
0.554486
0.543823
0.634368
0.677256
0.6705
0.609409
0.414535
0.175813
0.047367
0.0308174
0.0529337
0.160634
0.165222
0.163656
0.146832
0.115849
0.0791455
0.0456356
0.0207683
0.00868392
0.00471031
0.00384614
0.00319728
0.00253407
0.00188706
0.00129254
0.000708533
0.00118834
0.00758295
0.0320279
0.079176
0.131204
0.177339
0.229867
0.29761
0.328117
0.359178
0.473878
0.620148
0.60669
0.473899
0.364868
0.270546
0.195177
0.146624
0.121235
0.109162
0.100339
0.0816537
0.0568975
0.0407963
0.049046
0.0899809
0.170186
0.261523
0.366098
0.486684
0.618899
0.75562
0.890887
1.02069
1.14152
1.2487
1.34162
1.43276
1.52574
1.61878
1.70574
1.78141
1.8388
1.86736
1.84751
1.76365
1.62522
1.45969
1.28934
1.11176
0.911387
0.689472
0.541229
0.514031
0.596937
0.653964
0.65754
0.601909
0.407183
0.17352
0.0482477
0.0310067
0.0525641
0.162998
0.167762
0.16672
0.150517
0.120121
0.0833753
0.0491814
0.0228553
0.00933797
0.00481721
0.00381601
0.00315291
0.00248244
0.00184263
0.0012603
0.000727508
0.00150364
0.00923496
0.0348698
0.0793321
0.125798
0.170236
0.231103
0.302897
0.33156
0.366898
0.493484
0.652775
0.621613
0.453004
0.341656
0.259169
0.192841
0.146736
0.120798
0.107879
0.0994121
0.0825765
0.0594714
0.0432677
0.051456
0.0939128
0.175609
0.268265
0.37419
0.495777
0.629138
0.767779
0.906291
1.04069
1.16711
1.2803
1.37827
1.47449
1.57239
1.6702
1.76094
1.83959
1.89933
1.92697
1.89831
1.80092
1.65529
1.49479
1.3316
1.15027
0.934332
0.695486
0.529765
0.486839
0.558206
0.628255
0.642937
0.592892
0.398043
0.170726
0.048972
0.0312152
0.0523157
0.164832
0.169916
0.169632
0.154159
0.124343
0.0875684
0.052739
0.0250744
0.0100797
0.00494388
0.00378653
0.00310805
0.00243012
0.0017993
0.00123087
0.000754603
0.0018486
0.0107423
0.0369719
0.0788003
0.120903
0.16549
0.234977
0.308799
0.335747
0.37568
0.514646
0.687153
0.637555
0.433095
0.321188
0.250564
0.191935
0.147243
0.120397
0.106443
0.0980646
0.0828156
0.0613421
0.0454207
0.0539711
0.098206
0.181045
0.274949
0.38214
0.504697
0.639238
0.779933
0.921981
1.06141
1.19388
1.31358
1.41749
1.51948
1.62286
1.72584
1.82031
1.9014
1.96241
1.98708
1.94766
1.83886
1.69288
1.54273
1.38542
1.19565
0.960467
0.703871
0.520087
0.462764
0.51942
0.601358
0.627164
0.581795
0.387981
0.167454
0.0495411
0.0314219
0.0520397
0.166021
0.171558
0.172302
0.157737
0.128525
0.0917331
0.0562984
0.0274062
0.0109095
0.00509142
0.00375726
0.00306236
0.00237781
0.00175566
0.00120367
0.000788437
0.00220496
0.0120432
0.0384077
0.0777666
0.116529
0.162875
0.240668
0.314903
0.340769
0.385437
0.536777
0.721905
0.654051
0.417467
0.305918
0.24522
0.192294
0.148044
0.12004
0.104906
0.0963719
0.082454
0.0625501
0.0472376
0.0565728
0.102816
0.186493
0.281554
0.389926
0.513434
0.649197
0.792091
0.93801
1.08295
1.22201
1.34886
1.45968
1.56824
1.67779
1.7864
1.88448
1.96718
2.0278
2.04705
1.99614
1.88086
1.74246
1.60548
1.45052
1.24748
0.989699
0.714435
0.512082
0.442025
0.481579
0.574643
0.610786
0.568723
0.377125
0.163729
0.0499547
0.0316814
0.0518001
0.166448
0.172548
0.174629
0.161216
0.132675
0.0958797
0.0598549
0.0298322
0.0118256
0.00526071
0.00372867
0.00301445
0.00232388
0.00171224
0.00117916
0.00082721
0.00255397
0.0131037
0.0392654
0.0763672
0.112602
0.162033
0.247444
0.321076
0.346733
0.396127
0.559292
0.755408
0.67062
0.411382
0.298157
0.24321
0.193581
0.149018
0.119723
0.10332