/*--------------------------------*- C++ -*----------------------------------*\
| =========                 |                                                 |
| \\      /  F ield         | OpenFOAM: The Open Source CFD Toolbox           |
|  \\    /   O peration     | Version:  4.1                                   |
|   \\  /    A nd           | Web:      www.OpenFOAM.org                      |
|    \\/     M anipulation  |                                                 |
\*---------------------------------------------------------------------------*/
FoamFile
{
    version     2.0;
    format      ascii;
    class       volScalarField;
    location    "4";
    object      nut;
}
// * * * * * * * * * * * * * * * * * * * * * * * * * * * * * * * * * * * * * //

dimensions      [0 2 -1 0 0 0 0];

internalField   nonuniform List<scalar> 
6785
(
0.271623
1.07404e-08
1.00369e-08
1.00354e-08
1.00366e-08
1.00346e-08
1.00361e-08
1.00366e-08
1.00343e-08
1.00359e-08
1.00361e-08
1.0033e-08
1.0073e-08
4.83489e-08
0.36408
0.307658
1.38464e-05
1.12372e-10
1.04894e-10
1.00017e-10
9.48956e-11
9.00037e-11
8.50987e-11
8.01762e-11
7.55026e-11
7.16341e-11
1.08648e-10
1.54928e-08
2.10519e-05
0.250331
0.335371
0.00147934
5.66806e-11
4.96234e-12
2.13771e-11
4.31295e-08
3.45091e-05
0.000246144
0.00139442
0.00350313
0.00731054
0.0148069
0.0315397
0.0656519
0.237444
0.374843
0.00409705
2.00564e-06
3.75884e-11
2.57744e-11
2.03398e-09
1.61969e-06
0.00013975
0.000471127
0.00103778
0.00214105
0.00263534
0.0035243
0.0107771
0.0726496
0.413234
0.033893
0.00647051
0.0013206
0.000278055
4.92128e-06
3.8612e-07
0.000160703
0.000237858
0.000805211
0.000692095
0.00125477
0.00130025
0.00448221
0.0866523
0.444312
0.0518588
0.0120169
0.00340826
0.00448556
0.000265261
7.84323e-06
0.000215816
0.000182233
0.000582107
0.000438977
0.00105171
0.00115304
0.00291562
0.0374321
0.466193
0.0723962
0.0225986
0.00764914
0.00321084
0.00164531
7.69421e-05
0.000128108
0.000168039
0.000532839
0.000402738
0.00124986
0.00133887
0.00263258
0.0316135
0.480183
0.0820549
0.021615
0.00944942
0.00655505
0.00694031
0.00143404
0.000966359
0.000600025
0.00102852
0.000599276
0.00146935
0.00147158
0.00263924
0.0316041
0.492474
0.0806516
0.0239699
0.00787135
0.00719982
0.0072617
0.0205764
0.01422
0.0164237
0.00613485
0.0031619
0.00207561
0.00255958
0.00320798
0.034274
0.493417
0.101654
0.0234163
0.00852306
0.0237656
0.111004
0.084822
0.0794954
0.0217296
0.0106286
0.00935939
0.00899993
0.00478184
0.00683327
0.045097
0.501761
0.0769667
0.0252311
0.0127836
0.0275043
0.029143
0.0459645
0.0386612
0.0505114
0.0357752
0.0183506
0.0212867
0.0236012
0.0301262
0.0757798
0.520721
0.250949
0.042184
0.0219587
0.0223357
0.0199093
0.0325091
0.0389624
0.0444495
0.0573692
0.0394478
0.0469695
0.0496742
0.0586112
0.108105
0.530712
0.271671
0.484496
0.0775627
0.0263137
0.0212573
0.0292898
0.0365392
0.0415852
0.045851
0.0507064
0.0710828
0.118995
0.118601
0.138595
0.510635
1.21754
0.315568
0.94123
0.108339
0.039184
0.0259695
0.0297896
0.0363796
0.0445713
0.0471196
0.052384
0.0400304
0.0855267
0.0990734
0.517971
0.980687
0.394859
0.311813
0.958253
1.15507
3.31293
0.895509
0.369641
0.199268
0.141862
0.103851
0.0860687
0.0666194
0.163271
2.4305
4.74022
2.57423
2.57319
2.59131
4.83882
2.63157
2.6247
2.63568
4.89149
2.67195
2.66855
4.9012
2.66145
2.64168
2.636
4.83132
2.62827
2.61061
4.74158
2.56609
2.53659
2.51671
4.56351
2.46747
2.43735
2.41557
4.37283
2.36792
2.34382
4.23668
2.28575
2.25748
2.23698
4.05785
2.18981
2.16584
3.92021
2.10406
2.07443
2.05161
3.72308
1.99028
1.96161
1.93952
3.53238
1.88218
1.85641
3.37944
1.78901
1.76106
1.73928
3.20054
1.69506
1.67797
1.6697
3.14458
1.64012
1.60989
2.94515
1.52573
1.49174
1.46211
2.61322
1.34003
1.29445
2.21278
1.169
1.15464
1.15643
2.12144
1.20238
1.22145
1.24746
2.28554
1.29525
1.31374
2.38296
1.34672
1.3634
0.353321
0.37604
0.405963
0.41978
0.379104
0.389803
0.391905
0.431637
0.450199
0.471553
0.484765
0.519511
0.464931
0.423656
0.445454
0.433582
0.437854
0.428475
0.424988
0.421975
0.417737
0.352141
0.337595
0.341871
0.338205
0.340634
0.345462
0.353865
0.369553
0.395907
0.412313
0.458203
0.454016
0.457133
0.478687
0.48482
0.502539
0.510187
0.518455
0.524459
0.430305
0.489274
0.491007
0.516181
0.516443
0.532818
0.528288
0.535043
0.527302
0.456851
0.503024
0.502846
0.495911
0.479561
0.483246
0.463806
0.45714
0.439452
0.459974
0.45818
0.455802
0.418886
0.406865
0.386153
0.378796
0.380826
0.361899
0.356655
0.348851
0.345005
0.356631
0.299727
0.277314
0.230229
0.331138
0.17581
0.116463
0.138766
0.112049
0.331427
0.624846
0.968818
0.953302
0.590381
0.960104
0.590597
0.962939
0.954977
0.589108
0.956637
0.953215
0.590439
0.958867
0.595059
0.969563
0.970136
0.602784
0.97904
0.608931
0.992169
0.994154
0.618604
1.00475
1.0068
0.626583
1.01757
0.633742
1.03242
1.03522
0.644546
1.04655
0.652042
1.06201
1.0652
0.663431
1.07722
1.08007
0.672661
1.09201
0.680624
1.10839
1.11206
0.692717
1.12451
0.701012
1.14151
1.14536
0.713698
1.15856
1.16212
0.724033
1.1752
0.73279
1.19311
1.19734
0.746115
1.21084
0.755125
1.22922
1.23362
0.76882
1.24758
1.25133
0.779673
1.26479
0.78868
1.28329
1.28744
0.802037
1.30055
0.810798
1.31874
1.32227
0.823623
1.33489
1.33754
0.832716
1.34894
0.84048
1.36578
4.14249
4.43387
4.11028
2.22986
1.26915
0.91123
0.699141
0.504372
0.357029
0.291302
0.357813
0.501135
0.444815
0.337292
0.198801
0.0455548
0.0110047
0.0915092
0.215157
0.210514
0.110369
1.90501
4.00547
5.37743
5.8464
5.67585
5.26069
5.01578
5.14688
4.9855
4.6354
4.0739
3.53866
2.91853
1.91691
0.353467
0.203907
0.205767
0.429894
2.69482
5.52867
6.77819
7.02582
7.0977
7.25106
7.4739
7.86126
8.45387
9.10656
9.54715
9.68974
9.64666
9.60443
9.62116
9.69031
9.77939
9.87268
9.95874
10.0227
10.0156
9.93412
9.79634
9.57397
9.24696
8.73039
8.20617
7.75396
7.32
7.3389
7.58748
8.14379
8.59261
8.38794
7.34836
5.87805
1.85294
0.116634
0.696086
1.19606
4.12147
4.40239
4.15392
2.32161
1.28492
0.916513
0.702647
0.506715
0.358392
0.292605
0.358582
0.503738
0.448705
0.342261
0.202921
0.0474418
0.0116068
0.0900359
0.211879
0.20529
0.140588
2.24629
3.99177
5.37097
5.82812
5.64322
5.21837
4.98668
5.11401
4.95734
4.60368
4.04268
3.52206
2.92693
1.95128
0.527696
0.209554
0.214524
0.630695
3.14821
5.63022
6.7545
6.98877
7.07824
7.26849
7.52682
7.9223
8.49848
9.11963
9.54321
9.66044
9.60048
9.54499
9.54994
9.60886
9.68775
9.77076
9.84718
9.9037
9.88949
9.7965
9.65217
9.4304
9.12741
8.62914
8.11426
7.65187
7.20071
7.24339
7.50696
8.10129
8.57616
8.40503
7.40848
6.22792
2.5116
0.150158
0.772357
1.22564
4.09634
4.33193
4.1408
2.42094
1.30166
0.916742
0.700796
0.502327
0.35322
0.288499
0.352292
0.490562
0.438305
0.330286
0.199091
0.0465724
0.0115294
0.0830588
0.194951
0.183544
0.335384
2.29847
4.15364
5.49008
5.89461
5.68632
5.30144
5.07164
5.17739
5.03055
4.67283
4.10577
3.59386
3.02883
2.10978
0.801499
0.20953
0.217197
0.853182
3.36955
5.55795
6.55254
6.77738
6.91168
7.16235
7.48792
7.91691
8.50297
9.11823
9.527
9.6223
9.56005
9.51197
9.52649
9.59557
9.68215
9.76934
9.84742
9.90522
9.88931
9.78566
9.63124
9.39604
9.08391
8.57843
8.05775
7.58867
7.12479
7.17197
7.42604
8.03962
8.53375
8.40144
7.37228
6.22354
2.96676
0.196772
0.824866
1.23778
4.08126
4.25978
4.11894
2.53694
1.32579
0.924349
0.704402
0.504939
0.353401
0.288336
0.349758
0.482006
0.430445
0.325014
0.197032
0.0469033
0.0117059
0.0784199
0.180597
0.164928
0.109624
2.31767
4.33687
5.64145
5.98588
5.76526
5.39881
5.19545
5.30127
5.16297
4.79839
4.21921
3.70446
3.16166
2.26641
0.958311
0.219287
0.227742
1.08775
3.52233
5.47556
6.36362
6.58439
6.76921
7.08635
7.46841
7.92367
8.51799
9.12758
9.51786
9.59751
9.54193
9.50992
9.54004
9.62273
9.7185
9.80967
9.88814
9.94554
9.92586
9.8083
9.63658
9.38588
9.06436
8.55828
8.03007
7.53941
7.05994
7.10998
7.35131
7.97694
8.48564
8.40559
7.35594
6.24937
3.34189
0.257233
0.893476
1.25187
4.0749
4.19737
4.08639
2.66897
1.3627
0.930445
0.706429
0.505884
0.354881
0.289964
0.350979
0.48054
0.429451
0.326286
0.198349
0.0481797
0.0122594
0.0753852
0.171964
0.154335
0.104014
2.33073
4.51584
5.79381
6.08527
5.85621
5.53221
5.35375
5.45616
5.32582
4.94745
4.35059
3.82648
3.30475
2.41995
0.961824
0.207555
0.243337
1.33771
3.6241
5.3837
6.16709
6.40184
6.65142
7.04358
7.46256
7.93966
8.54345
9.147
9.51993
9.59198
9.55093
9.53988
9.58741
9.68373
9.78779
9.88138
9.9585
10.014
9.98927
9.85317
9.66171
9.39398
9.06227
8.54928
8.01108
7.50767
7.01104
7.06478
7.29286
7.92541
8.44332
8.41405
7.35668
6.29829
3.68653
0.335078
0.947689
1.24623
4.07824
4.15207
4.04186
2.81592
1.40597
0.935442
0.707563
0.505796
0.355432
0.290999
0.352392
0.481266
0.429535
0.327159
0.200445
0.0496506
0.0128116
0.0723718
0.162653
0.144125
0.161178
2.40241
4.71866
5.94931
6.18902
5.95711
5.66647
5.51908
5.62886
5.50515
5.10406
4.48696
3.95319
3.45677
2.60234
1.01342
0.253018
0.267372
1.55566
3.68947
5.28184
5.97051
6.23933
6.56587
7.03343
7.46667
7.96387
8.57715
9.17271
9.53133
9.60331
9.5804
9.58915
9.65238
9.76141
9.87227
9.96645
10.0405
10.0929
10.0623
9.90358
9.68972
9.40311
9.06005
8.53954
7.99229
7.47539
6.96089
7.02136
7.24125
7.88258
8.40897
8.42344
7.37125
6.35788
4.00084
0.43233
1.00402
1.253
4.08843
4.12529
3.98562
2.96835
1.4751
0.942353
0.708667
0.504733
0.354906
0.291578
0.352337
0.480071
0.427944
0.324204
0.201764
0.0508037
0.0132871
0.0695707
0.152788
0.135399
0.215726
2.5031
4.92944
6.10047
6.2922
6.06091
5.80404
5.69193
5.81185
5.69324
5.25982
4.62096
4.08072
3.6116
2.78867
1.116
0.149056
0.293386
1.67617
3.72983
5.17105
5.77968
6.10266
6.51121
7.03525
7.47959
7.99623
8.61817
9.20555
9.55314
9.63042
9.62513
9.65127
9.72791
9.84834
9.9669
10.061
10.131
10.1794
10.1427
9.95774
9.71901
9.41201
9.05657
8.52834
7.97061
7.4429
6.90915
6.97827
7.19461
7.8485
8.38223
8.43242
7.39811
6.41939
4.28581
0.550714
1.04904
1.23999
4.10231
4.11267
3.91888
3.11623
1.56826
0.949744
0.711675
0.504648
0.354497
0.291882
0.351354
0.477754
0.425519
0.320634
0.202524
0.051821
0.0137486
0.0658703
0.142958
0.130372
0.169205
2.64602
5.13834
6.24828
6.39208
6.16464
5.93828
5.87032
6.00165
5.88607
5.41122
4.74918
4.20867
3.76728
2.97547
1.2834
0.216855
0.31058
1.87923
3.7482
5.05393
5.59917
5.9928
6.4834
7.04457
7.50107
8.03614
8.66475
9.24358
9.58311
9.6693
9.67953
9.72029
9.80833
9.93916
10.0657
10.1615
10.2268
10.2708
10.2248
10.012
9.74678
9.41782
9.0487
8.51265
7.94275
7.40583
6.85246
6.93188
7.14988
7.82119
8.3606
8.43959
7.43317
6.4834
4.54468
0.689667
1.09121
1.23474
4.11766
4.11469
3.84041
3.24952
1.70038
0.960137
0.708782
0.502222
0.353155
0.291349
0.349493
0.474515
0.422854
0.317165
0.202946
0.0527511
0.014224
0.0623599
0.133861
0.112782
0.189532
2.86096
5.33721
6.39221
6.48514
6.264
6.07314
6.05116
6.19583
6.08077
5.55698
4.86912
4.33548
3.9223
3.16209
1.54198
0.136168
0.342673
1.83563
3.74726
4.93314
5.43418
5.90937
6.47942
7.06166
7.53103
8.08275
8.7159
9.28645
9.62093
9.71683
9.74023
9.79306
9.89103
10.0318
10.1669
10.2659
10.3274
10.3668
10.3078
10.0653
9.77262
9.42027
9.0361
8.49248
7.90884
7.36111
6.79082
6.88182
7.10691
7.79976
8.3426
8.44444
7.47295
6.54965
4.78035
0.848701
1.08202
1.25713
4.13225
4.12582
3.76494
3.35109
1.88517
0.976358
0.703905
0.503924
0.352132
0.290565
0.347191
0.470395
0.419817
0.313477
0.202967
0.0535302
0.0146456
0.0589183
0.124991
0.108054
0.288205
3.11441
5.52012
6.53082
6.56853
6.3554
6.20881
6.23195
6.39282
6.27521
5.6968
4.97966
4.46457
4.07429
3.34135
1.84617
0.134755
0.344612
1.93879
3.7332
4.79875
5.28885
5.85242
6.49817
7.08699
7.56914
8.13513
8.77075
9.33311
9.6649
9.77016
9.80434
9.86708
9.97404
10.1247
10.2691
10.3725
10.4323
10.4675
10.3912
10.1175
9.79624
9.41891
9.01817
8.46748
7.86859
7.30827
6.724
6.82774
7.06639
7.78368
8.32726
8.44698
7.5147
6.61763
4.9952
1.02439
1.10638
1.27424
4.14475
4.14265
3.70077
3.42205
2.11012
1.00603
0.698964
0.500325
0.35303
0.288962
0.34414
0.465146
0.415907
0.309875
0.202343
0.0540815
0.0150607
0.0556493
0.116384
0.110613
0.374675
3.39346
5.68487
6.66335
6.6403
6.4351
6.34103
6.41025
6.59157
6.46761
5.82988
5.08623
4.59494
4.21845
3.51087
2.17172
0.185105
0.370753
2.05973
3.69855
4.66945
5.1664
5.82292
6.53847
7.12088
7.61473
8.1923
8.82852
9.38287
9.71332
9.82722
9.86991
9.9408
10.0562
10.2169
10.3719
10.481
10.5411
10.5733
10.4749
10.169
9.81757
9.41375
8.99509
8.43748
7.8223
7.24764
6.65194
6.7701
7.03038
7.77321
8.31456
8.44802
7.55642
6.68671
5.19133
1.21311
1.12851
1.29109
4.15427
4.1621
3.6559
3.46524
2.34994
1.06026
0.694607
0.493009
0.356054
0.287655
0.340415
0.459018
0.411005
0.306066
0.201519
0.0544054
0.0153626
0.0525374
0.108572
0.0903541
0.534114
3.68738
5.82874
6.79121
6.70062
6.49897
6.46639
6.58215
6.79181
6.65626
5.95435
5.19422
4.72417
4.35486
3.67696
2.47778
0.38074
0.427882
2.0224
3.59123
4.55163
5.07775
5.82274
6.58886
7.16316
7.66695
8.2534
8.88853
9.43505
9.76463
9.88628
9.93542
10.013
10.1366
10.3079
10.4747
10.5909
10.6525
10.6846
10.559
10.2196
9.83659
9.40485
8.96707
8.40226
7.77025
7.17964
6.56905
6.70957
7.00195
7.76919
8.30522
8.44891
7.5967
6.75605
5.37043
1.41046
1.11614
1.31234
4.16028
4.18209
3.64296
3.46559
2.57997
1.14475
0.692968
0.48447
0.349878
0.287407
0.336248
0.451957
0.405283
0.301842
0.200568
0.054317
0.0155853
0.0496151
0.100822
0.095998
0.656618
3.97138
5.95503
6.90197
6.74341
6.54176
6.5828
6.74493
6.99413
6.83859
6.07129
5.30357
4.84987
4.48556
3.84299
2.73074
0.469247
0.392903
1.98918
3.50977
4.4233
5.02636
5.85468
6.6453
7.21327
7.72491
8.31757
8.9501
9.48914
9.81766
9.94605
9.99972
10.0829
10.2145
10.3969
10.5771
10.7023
10.7665
10.801
10.6434
10.2692
9.85273
9.39254
8.93432
8.36178
7.71286
7.10483
6.47516
6.64758
6.9852
7.77283
8.30074
8.45137
7.63448
6.82478
5.53398
1.61159
1.12163
1.32341
4.16253
4.20141
3.66055
3.43118
2.78193
1.26276
0.697294
0.475099
0.341816
0.288431
0.331507
0.44429
0.39876
0.297124
0.199778
0.0539906
0.0156644
0.0468952
0.0938992
0.0776049
0.90253
4.24209
6.06709
6.98098
6.75661
6.55677
6.68878
6.90037
7.19734
7.01007
6.18597
5.40945
4.9709
4.59973
4.00413
2.93549
0.570596
0.410092
2.04752
3.43492
4.33443
5.00708
5.91959
6.70848
7.27047
7.78764
8.38406
9.01262
9.54458
9.87139
10.0055
10.0619
10.1496
10.2894
10.4834
10.6786
10.8149
10.8831
10.9191
10.728
10.3179
9.86701
9.37667
8.89706
8.31602
7.65064
7.02379
6.37068
6.5859
6.98518
7.7855
8.30316
8.45665
7.67522
6.89388
5.68352
1.81262
1.14835
1.34053
4.161
4.21899
3.69973
3.38278
2.94765
1.41545
0.709862
0.465737
0.333032
0.283607
0.32734
0.436286
0.391505
0.292129
0.198288
0.0537094
0.0155594
0.044425
0.0875562
0.100261
1.23394
4.47387
6.16137
7.04374
6.76693
6.53087
6.78349
7.05022
7.40142
7.16367
6.30355
5.50868
5.08753
4.70544
4.15038
3.10552
1.00363
0.706695
2.13388
3.37648
4.25392
5.01146
5.99152
6.77842
7.33387
7.85423
8.45212
9.07548
9.60047
9.92501
10.0637
10.1214
10.2125
10.3606
10.5669
10.7789
10.9285
11.0024
11.0389
10.8128
10.3658
9.87959
9.35745
8.85552
8.26496
7.58418
6.93722
6.25634
6.52641
7.00744
7.80844
8.31473
8.46398
7.72056
6.96397
5.82022
2.00681
1.14196
1.35171
4.15591
4.23363
3.75206
3.33369
3.0771
1.60004
0.733063
0.45773
0.323149
0.278061
0.324381
0.427605
0.383801
0.286714
0.196263
0.053546
0.0154003
0.0422206
0.0813082
0.0755852
1.443
4.67101
6.22257
7.07516
6.76354
6.46957
6.91216
7.2132
7.60639
7.29234
6.42229
5.60334
5.19734
4.79652
4.27763
3.26381
1.3583
0.478365
1.93433
3.33415
4.21135
5.00003
6.06898
6.85433
7.40251
7.92379
8.52108
9.13814
9.6561
9.97779
10.1202
10.1775
10.2712
10.4275
10.6467
10.8774
11.0431
11.1247
11.1602
10.8981
10.413
9.89076
9.33518
8.81003
8.20858
7.51414
6.84589
6.13312
6.47072
7.05736
7.84261
8.33797
8.47466
7.7681
7.03476
5.94487
2.19007
1.15978
1.35801
4.1476
4.24411
3.81
3.29169
3.1751
1.8096
0.77052
0.451657
0.31219
0.272055
0.322947
0.419401
0.375339
0.281095
0.193233
0.0533676
0.0150645
0.0403187
0.0765073
0.0801808
1.72159
4.8334
6.26793
7.05762
6.72656
6.44107
7.08391
7.40358
7.80874
7.38781
6.5356
5.69848
5.27963
4.85721
4.38306
3.41948
1.6882
0.894529
1.88163
3.32582
4.20942
5.026
6.15215
6.93515
7.47531
7.99546
8.59034
9.20013
9.71085
10.0291
10.1745
10.2298
10.3252
10.4897
10.7223
10.9735
11.1582
11.2503
11.2832
10.9837
10.4596
9.90087
9.31022
8.76099
8.14676
7.44128
6.75062
6.00216
6.42292
7.13881
7.88895
8.37482
8.48952
7.81663
7.1057
6.05754
2.36116
1.16313
1.3608
4.13652
4.24938
3.86727
3.26042
3.24829
2.03422
0.825775
0.447551
0.301079
0.265135
0.315107
0.412592
0.3665
0.27524
0.190012
0.053079
0.0151835
0.0387292
0.071902
0.196434
2.15988
4.93025
6.30257
6.97091
6.65193
6.4971
7.25535
7.5962
8.00064
7.4446
6.63585
5.79996
5.33111
4.89354
4.48927
3.57278
1.95737
0.84812
1.86113
3.34699
4.24157
5.08148
6.24623
7.01964
7.55121
8.06845
8.65934
9.261
9.76413
10.0784
10.2265
10.278
10.3741
10.5466
10.793
11.0666
11.2736
11.3793
11.4079
11.07
10.5057
9.91034
9.28305
8.70893
8.07927
7.36639
6.65217
5.86479
6.37013
7.25281
7.94921
8.42567
8.50854
7.86579
7.17606
6.15627
2.51845
1.18071
1.37362
4.1231
4.24867
3.91893
3.24092
3.30291
2.26273
0.901867
0.44637
0.290272
0.256878
0.305786
0.400894
0.358044
0.268683
0.185422
0.0526666
0.015077
0.0372637
0.0683481
0.159544
2.46909
4.96406
6.31394
6.8201
6.51775
6.5688
7.34522
7.77616
8.17989
7.46625
6.69601
5.91036
5.37421
4.94089
4.58921
3.72325
2.17309
1.2657
2.11472
3.4129
4.29856
5.06137
6.34326
7.10632
7.62904
8.14201
8.72754
9.32032
9.81535
10.1248
10.2755
10.3218
10.4175
10.5978
10.8584
11.156
11.3887
11.5121
11.5343
11.1569
10.5515
9.91964
9.25428
8.65458
8.00567
7.29019
6.55093
5.72151
6.31099
7.37172
8.02807
8.48801
8.5305
7.91611
7.24552
6.23597
2.67459
1.19861
1.37519
4.1077
4.24158
3.96147
3.23333
3.34655
2.48533
1.00101
0.449562
0.27998
0.246978
0.295746
0.388307
0.350524
0.262067
0.181171
0.0520403
0.0149293
0.0360243
0.0665554
0.382146
2.72062
4.96277
6.28513
6.63945
6.39869
6.56758
7.3936
7.92761
8.34802
7.46798
6.68952
6.0308
5.4391
4.9817
4.67906
3.86485
2.37006
1.44988
1.83741
3.40221
4.38775
5.11435
6.44671
7.19434
7.70777
8.21544
8.79446
9.37773
9.86399
10.1673
10.3169
10.361
10.4555
10.6429
10.9178
11.241
11.503
11.6487
11.6623
11.2447
10.597
9.92928
9.22477
8.59815
7.92503
7.21299
6.44627
5.58442
6.25237
7.50601
8.13837
8.55223
8.55168
7.96788
7.31379
6.29507
2.8239
1.20355
1.38081
4.0905
4.22807
3.99286
3.24644
3.35725
2.69179
1.12415
0.458656
0.270133
0.235668
0.284021
0.372558
0.338249
0.255852
0.176053
0.0511902
0.0149111
0.0350283
0.0767505
0.704761
2.8937
4.92994
6.18636
6.48261
6.22053
6.54757
7.39581
8.00671
8.48968
7.47079
6.64425
6.12913
5.49943
5.00815
4.7556
3.99886
2.57658
1.61468
1.98501
3.42246
4.52617
5.19694
6.55804
7.28995
7.78656
8.28811
8.8597
9.43293
9.90968
10.2057
10.352
10.3953
10.4878
10.6816
10.9708
11.321
11.6158
11.7894
11.792
11.3337
10.6426
9.93977
9.19568
8.54081
7.84088
7.12829
6.33627
5.44464
6.18296
7.65928
8.29857
8.58654
8.57894
8.02342
7.37997
6.33308
2.96341
1.2281
1.38443
4.07138
4.2084
4.01255
3.27396
3.35394
2.87692
1.27073
0.475139
0.261047
0.223275
0.270986
0.355842
0.32389
0.250806
0.170917
0.050301
0.0150456
0.0347098
0.113762
1.10146
2.97739
4.86924
6.0543
6.32126
6.05636
6.50205
7.37537
8.00678
8.54855
7.48806
6.56392
6.18194
5.55314
5.01782
4.81716
4.13219
2.78853
1.75659
1.83657
3.25472
4.68949
5.36151
6.67747
7.39055
7.86469
8.35945
8.92294
9.48571
9.9522
10.24
10.3817
10.4248
10.5146
10.7137
11.0171
11.3953
11.7262
11.9344
11.9234
11.4239
10.6887
9.95156
9.16868
8.48409
7.75762
7.02617
6.21792
5.30565
6.10441
7.80263
8.50832
8.61243
8.59958
8.09732
7.44267
6.35191
3.09383
1.25743
1.38986
4.0499
4.18292
4.02098
3.30953
3.35167
3.04031
1.43864
0.500461
0.253176
0.210088
0.255505
0.335169
0.309025
0.239806
0.165844
0.0490199
0.0153788
0.0379221
0.261483
1.46645
3.00891
4.78907
5.90498
6.14356
5.97694
6.43213
7.34462
7.93817
8.51724
7.52381
6.48807
6.23884
5.5987
5.00982
4.86313
4.26308
2.99796
1.88841
1.91872
3.30652
4.77684
5.54881
6.80446
7.49381
7.94149
8.42896
8.98397
9.53606
9.99144
10.2702
10.4066
10.4496
10.5361
10.7393
11.0565
11.4633
11.8334
12.0837
12.0564
11.5158
10.7358
9.9649
9.14601
8.42979
7.67677
6.91236
6.07205
5.17337
6.01929
7.97339
8.75387
8.68531
8.64272
8.09507
7.49677
6.33989
3.20316
1.32894
1.40223
4.02532
4.15205
4.01925
3.3491
3.3572
3.18397
1.62435
0.535939
0.247068
0.196539
0.238824
0.313488
0.291096
0.230355
0.158423
0.0480817
0.0161514
0.0509839
0.488336
1.78237
3.04291
4.70844
5.76147
6.00494
5.92429
6.31617
7.33224
7.80546
8.51812
7.51388
6.43553
6.2856
5.62654
4.98465
4.89204
4.38924
3.20282
2.01534
1.94609
3.18878
4.95552
5.73028
6.93797
7.5978
8.01672
8.49622
9.04258
9.58379
10.0274
10.2967
10.4272
10.4702
10.5528
10.7588
11.0892
11.5249
11.9365
12.2361
12.1907
11.6096
10.7854
9.97986
9.13086
8.37994
7.59907
6.79019
5.89532
5.00174
5.93142
8.13721
9.04051
8.76662
8.68143
8.11811
7.52079
6.29598
3.28643
1.32316
1.40636
3.99653
4.11587
4.00916
3.38945
3.37319
3.31105
1.82331
0.582769
0.243058
0.18313
0.220263
0.287798
0.273594
0.215602
0.152566
0.0468319
0.0180244
0.0888201
0.773059
2.02054
3.01821
4.63156
5.63661
5.93161
5.89234
6.23101
7.33268
7.7144
8.37031
7.42422
6.39913
6.31825
5.62625
4.94423
4.9043
4.50867
3.40149
2.141
2.00107
3.09945
5.09575
5.91491
7.07642
7.70123
8.09378
8.56096
9.0986
9.62874
10.0601
10.3198
10.4443
10.4874
10.5653
10.7726
11.1155
11.5798
12.0344
12.3865
12.326
11.7055
10.8398
9.99534
9.12752
8.33633
7.52331
6.65909
5.70436
4.81759
5.84162
8.27537
9.38225
8.83054
8.68194
8.12487
7.5079
6.22508
3.34479
1.33176
1.41803
3.96209
4.07408
3.99497
3.42849
3.39986
3.42475
2.03049
0.641919
0.241668
0.17015
0.20151
0.26138
0.251218
0.205245
0.145847
0.0456787
0.0221091
0.174251
1.07666
2.18979
3.00677
4.5477
5.54852
5.92103
5.87734
6.14766
7.35774
7.66396
8.21833
7.31744
6.3872
6.33413
5.58787
4.89082
4.90132
4.61858
3.58226
2.26838
2.06276
3.00663
5.01284
6.10038
7.21799
7.80295
8.17162
8.62298
9.15187
9.67086
10.0898
10.3398
10.4587
10.5021
10.5745
10.7816
11.1361
11.6283
12.1267
12.5336
12.4618
11.8037
10.903
10.0079
9.14166
8.29975
7.44605
6.51891
5.51046
4.62196
5.74864
8.37328
9.69708
8.85974
8.68505
8.16442
7.45029
6.16181
3.38275
1.34156
1.4283
3.92032
4.02614
3.9748
3.46383
3.43575
3.52773
2.2408
0.714102
0.243095
0.158112
0.182063
0.233006
0.231241
0.186578
0.139549
0.0448479
0.030747
0.324938
1.36451
2.30189
2.99185
4.45445
5.50165
5.9567
5.85848
6.09888
7.40249
7.64347
8.06211
7.1214
6.40471
6.32732
5.50404
4.82243
4.88504
4.71539
3.75202
2.41134
2.09663
2.93072
5.17636
6.2838
7.36076
7.90201
8.24903
8.68215
9.20227
9.71017
10.1168
10.3574
10.4712
10.5154
10.5816
10.787
11.1519
11.6709
12.2131
12.6761
12.5972
11.9039
10.9767
10.0281
9.15599
8.26942
7.3631
6.37346
5.32193
4.4317
5.65483
8.42345
9.94516
8.84198
8.6855
8.21537
7.40073
6.00235
3.39526
1.38935
1.44047
3.86931
3.97108
3.94672
3.49305
3.47875
3.6221
2.44956
0.799639
0.247817
0.14702
0.163584
0.20522
0.205099
0.176635
0.133847
0.0445735
0.0466718
0.526456
1.61322
2.36392
2.97192
4.34356
5.50751
6.01192
5.83637
6.06658
7.45823
7.64947
7.93153
6.8514
6.47437
6.28469
5.37425
4.73387
4.85881
4.81431
3.91152
2.57405
2.10885
2.86428
5.24996
6.46607
7.5021
7.99765
8.32521
8.73847
9.24972
9.74674
10.1412
10.373
10.4829
10.5288
10.5879
10.7901
11.1643
11.7085
12.2936
12.8124
12.7313
12.0067
11.0621
10.0579
9.17892
8.24155
7.27292
6.23064
5.14333
4.25189
5.5674
8.42813
10.069
8.78533
8.68317
8.2566
7.3443
5.92622
3.39104
1.45487
1.45543
3.80699
3.90722
3.90935
3.51398
3.52636
3.70928
2.65269
0.898489
0.255926
0.137181
0.145384
0.17875
0.184457
0.153927
0.126751
0.0452145
0.0746121
0.764014
1.81411
2.38491
2.93379
4.26131
5.58596
6.04425
5.80522
6.03854
7.51141
7.67249
7.79024
6.60341
6.50989
6.18122
5.18241
4.61626
4.82917
4.91437
4.06466
2.75514
2.12902
2.79951
5.32918
6.64068
7.6379
8.0892
8.39961
8.79325
9.2942
9.78065
10.1635
10.3873
10.4945
10.5448
10.5951
10.7926
11.1748
11.7426
12.3687
12.9407
12.8629
12.1159
11.1602
10.1033
9.21027
8.21152
7.17978
6.09881
4.97618
4.09143
5.49743
8.38525
10.035
8.71028
8.68423
8.28578
7.29272
5.78091
3.37454
1.45699
1.46605
3.73125
3.83282
3.86176
3.52492
3.57731
3.79022
2.84688
1.01005
0.267805
0.128599
0.129235
0.153906
0.157442
0.145598
0.123424
0.0469754
0.116462
0.989988
1.96651
2.38054
2.89877
4.23476
5.74034
6.03324
5.77139
6.00888
7.53879
7.72741
7.63687
6.3872
6.40994
6.00463
4.96746
4.53111
4.80401
5.0162
4.21536
2.92026
2.15858
2.7553
5.42176
6.81485
7.76141
8.17589
8.47203
8.84967
9.33577
9.81202
10.1839
10.4008
10.5064
10.5621
10.6046
10.7964
11.1851
11.7749
12.4394
13.0593
12.9899
12.2347
11.2722
10.1706
9.24535
8.17792
7.09347
5.98287
4.81998
3.95791
5.45714
8.2973
9.86688
8.63585
8.68966
8.31643
7.21885
5.64558
3.35183
1.50184
1.48544
3.63998
3.74599
3.8032
3.52528
3.62967
3.86527
3.02959
1.13325
0.28352
0.121295
0.1138
0.132544
0.139007
0.121555
0.112595
0.0498472
0.175518
1.20598
2.08103
2.36324
2.8819
4.25642
5.95056
5.97944
5.73398
5.97575
7.50903
7.73562
7.49911
6.15549
6.23422
5.75792
4.74117
4.47391
4.78828
5.12096
4.36633
3.08889
2.19383
2.73842
5.53053
6.989
7.8704
8.25706
8.54225
8.90696
9.37448
9.84097
10.2029
10.414
10.5186
10.577
10.6178
10.8035
11.1972
11.8073
12.5073
13.1668
13.1097
12.3665
11.3995
10.2665
9.27924
8.14585
7.02504
5.88336
4.6741
3.85676
5.45905
8.17974
9.58111
8.54718
8.63105
8.33838
7.1066
5.52619
3.32733
1.50225
1.50052
3.53137
3.64472
3.73267
3.52113
3.68149
3.93436
3.19892
1.26654
0.303222
0.115362
0.101018
0.11258
0.114792
0.113982
0.108825
0.0539233
0.247313
1.39317
2.16307
2.34958
2.88589
4.32153
6.18537
5.89732
5.68779
5.94012
7.45673
7.69812
7.37862
5.90064
5.99492
5.45124
4.57387
4.44957
4.78541
5.2308
4.51961
3.2547
2.23742
2.7464
5.65887
7.15948
7.96601
8.3323
8.61009
8.96467
9.41066
9.86767
10.2211
10.4276
10.5322
10.5932
10.6362
10.8158
11.2127
11.842
12.5745
13.2619
13.2189
12.5133
11.5443
10.3993
9.31205
8.12666
6.98185
5.79816
4.53861
3.79275
5.51352
8.04006
9.18917
8.47608
8.51603
8.34026
6.98134
5.42748
3.29854
1.51555
1.51182
3.40396
3.52737
3.64946
3.51028
3.7303
3.99706
3.35346
1.40786
0.327031
0.110426
0.0886949
0.0971279
0.100518
0.0938987
0.0963363
0.0588724
0.332221
1.56452
2.22647
2.3282
2.90128
4.42262
6.43168
5.80695
5.6304
5.90604
7.39434
7.6904
7.27187
5.5895
5.67055
5.14032
4.46407
4.45961
4.79822
5.34974
4.67775
3.41066
2.31448
2.75644
5.80601
7.32326
8.04931
8.40139
8.67544
9.0227
9.44794
9.8925
10.2391
10.4426
10.5488
10.6135
10.661
10.835
11.2328
11.8808
12.6438
13.3441
13.3134
12.6726
11.6951
10.581
9.3547
8.13307
6.96592
5.72482
4.41403
3.77242
5.62757
7.8769
8.68826
8.37546
8.35963
8.28081
6.84671
5.32015
3.271
1.54121
1.54616
3.25684
3.39262
3.55276
3.49074
3.7736
4.05259
3.49223
1.55484
0.354822
0.106875
0.079126
0.0818415
0.0813353
0.0814116
0.0947663
0.0646736
0.422248
1.70309
2.26493
2.31244
2.91588
4.55492
6.66798
5.72323
5.56532
5.87841
7.32836
7.70172
7.14385
5.42362
5.36882
4.87123
4.4141
4.50324
4.82894
5.45514
4.83403
3.55472
2.39468
2.77283
5.97252
7.4774
8.12124
8.4643
8.73822
9.08112
9.4897
9.91598
10.2575
10.4599
10.57
10.6403
10.6946
10.8634
11.2581
11.925
12.7153
13.4137
13.3891
12.8321
11.8816
10.7361
9.4308
8.17369
6.97568
5.69118
4.33718
3.85178
5.80357
7.6829
8.02818
8.19214
8.17393
8.16834
6.70716
5.2092
3.24542
1.60868
1.53926
3.0899
3.23977
3.44167
3.46175
3.80456
4.09902
3.61429
1.70476
0.386493
0.103835
0.0695494
0.0714611
0.0713222
0.0729322
0.0918519
0.07073
0.513909
1.81592
2.29805
2.29335
2.93543
4.71644
6.86974
5.6518
5.49943
5.85561
7.27468
7.72889
6.97642
5.3952
5.04863
4.66321
4.41923
4.56076
4.87784
5.55356
4.98685
3.68955
2.46554
2.80228
6.15931
7.61929
8.18276
8.52115
8.79842
9.13998
9.53534
9.93873
10.2771
10.4808
10.5975
10.676
10.7395
10.9042
11.2895
11.9756
12.7852
13.472
13.446
12.9743
12.1099
10.9061
9.58599
8.25158
7.05829
5.70637
4.29229
4.048
6.03787
7.45219
7.1015
7.94805
7.97745
8.01239
6.5674
5.10015
3.20461
1.66747
1.55231
2.90416
3.06903
3.31581
3.42047
3.82118
4.13416
3.71847
1.85475
0.422
0.102172
0.062532
0.0597772
0.0573385
0.0687335
0.0890972
0.0774633
0.598149
1.88427
2.24122
2.27592
2.97029
4.9029
7.028
5.59117
5.43793
5.84312
7.25916
7.76164
6.86293
5.39684
4.76255
4.50994
4.46988
4.62288
4.94797
5.64569
5.13554
3.81654
2.5494
2.86317
6.37804
7.74266
8.23479
8.57222
8.85612
9.19937
9.58481
9.96354
10.2986
10.5066
10.633
10.723
10.7992
10.963
11.3317
12.0331
12.8532
13.5198
13.4863
13.0856
12.4021
11.2295
9.81819
8.50847
7.21722
5.75576
4.28207
4.33773
6.31271
7.16175
6.12471
7.71356
7.77945
7.81727
6.43368
5.00015
3.19244
1.70637
1.57544
2.70207
2.88213
3.17548
3.36436
3.82187
4.15569
3.80349
2.00128
0.460538
0.100384
0.0551008
0.0531712
0.0507607
0.061869
0.0819902
0.0835372
0.66875
1.93646
2.21597
2.2634
3.03938
5.10713
7.13846
5.5373
5.38424
5.84696
7.28639
7.79598
6.83701
5.37343
4.51745
4.41398
4.55798
4.73441
5.04088
5.73542
5.2788
3.93922
2.63213
2.86077
6.61707
7.84073
8.27822
8.61797
8.91154
9.25954
9.63894
10.0006
10.3226
10.5386
10.6784
10.784
10.8773
11.047
11.4149
12.1231
12.9375
13.5522
13.5133
13.191
12.5834
11.5103
10.1203
8.85511
7.44198
5.84831
4.30744
4.3867
6.61604
7.11006
5.40156
7.57197
7.58662
7.59539
6.31213
4.91593
3.0819
1.75174
1.56785
2.48779
2.68383
3.0226
3.29112
3.80452
4.16068
3.86783
2.14163
0.501758
0.10002
0.0498918
0.0439789
0.0407909
0.0560396
0.0779713
0.0897622
0.725995
1.95219
2.18192
2.25795
3.14601
5.33272
7.19763
5.48856
5.34274
5.87345
7.35386
7.83785
6.8836
5.38696
4.32787
4.38091
4.6822
4.87273
5.15472
5.82696
5.41494
4.0692
2.69633
2.93481
6.87596
7.91228
8.31386
8.65896
8.96494
9.32068
9.6981
10.0486
10.3502
10.578
10.7357
10.8616
10.9768
11.1581
11.5551
12.2674
13.0853
13.5719
13.5269
13.2264
12.7741
11.8584
10.5945
9.29278
7.72896
5.98643
4.36917
5.09117
6.97588
6.895
5.25816
7.49181
7.41033
7.35643
6.20945
4.8546
3.03435
1.74694
1.58786
2.26741
2.48702
2.85303
3.20132
3.76183
4.14488
3.90875
2.27062
0.545458
0.0987791
0.0440551
0.0402389
0.0367549
0.0517588
0.0717579
0.0954257
0.771414
1.97698
2.18457
2.26828
3.28675
5.57848
7.2004
5.44795
5.31922
5.92549
7.46076
7.89796
6.96555
5.42962
4.2005
4.4177
4.84542
5.03337
5.28824
5.92516
5.54213
4.18154
2.7377
3.04403
7.14572
7.96216
8.34274
8.69582
9.01664
9.38293
9.7627
10.1077
10.3879