/*--------------------------------*- C++ -*----------------------------------*\
| =========                 |                                                 |
| \\      /  F ield         | OpenFOAM: The Open Source CFD Toolbox           |
|  \\    /   O peration     | Version:  4.1                                   |
|   \\  /    A nd           | Web:      www.OpenFOAM.org                      |
|    \\/     M anipulation  |                                                 |
\*---------------------------------------------------------------------------*/
FoamFile
{
    version     2.0;
    format      ascii;
    class       surfaceScalarField;
    location    "4";
    object      phi;
}
// * * * * * * * * * * * * * * * * * * * * * * * * * * * * * * * * * * * * * //

dimensions      [0 3 -1 0 0 0 0];

internalField   nonuniform List<scalar> 
13220
(
-877.501
2177.4
-1353.12
1775.82
-1804.91
1751.69
-2143.3
1638.28
-2400.35
1557.25
-2576.75
1476.3
-2674.38
1397.53
-2692.94
1318.76
-2633.15
1240.11
-2499.9
1166.65
-2305.18
1105.47
-2040.18
1034.91
-1638.81
898.53
-998.37
659.758
301.53
-20.8416
2198.24
-84.7996
1839.78
-233.071
1899.97
-351.645
1756.86
-474.564
1680.17
-580.456
1582.19
-671.077
1488.15
-745.092
1392.78
-804.135
1299.16
-835.951
1198.47
-788.73
1058.25
-595.331
841.508
-282.77
585.971
-30.0783
407.069
271.452
-186.347
2384.59
-429.939
2083.37
-658.436
2128.46
-821.67
1920.09
-978.452
1836.96
-1101.72
1705.46
-1208.08
1594.52
-1300.45
1485.15
-1382.09
1380.8
-1432.25
1248.63
-1383.98
1009.99
-1142.45
599.98
-704.119
147.649
-262.762
-34.275
8.69036
-12.2381
2396.83
-118.599
2189.73
-182.11
2191.98
-213.606
1951.59
-246.394
1869.74
-258.418
1717.48
-260.478
1596.58
-249.241
1473.91
-228.767
1360.33
-208.339
1228.2
-212.133
1013.78
-257.817
645.668
-289.444
179.281
-262.368
-61.3439
-253.678
138.441
2258.39
102.618
2225.56
137.745
2156.85
184.524
1904.81
232.134
1822.14
286.533
1663.09
345.376
1537.74
411.003
1408.29
485.239
1286.09
552.019
1161.43
563.192
1002.61
437.349
771.515
158.403
458.234
-50.9854
148.056
-304.663
158.299
2100.09
143.121
2240.74
180.418
2119.55
223.134
1862.1
270.638
1774.63
316.083
1617.64
364.059
1489.76
413.222
1359.12
466.903
1232.41
518.261
1110.07
541.93
978.942
491.832
821.608
342.772
607.287
151.903
338.912
-152.76
122.339
1977.76
143.801
2219.28
180.063
2083.29
218.939
1823.22
265.236
1728.34
305.498
1577.38
345.135
1450.12
380.621
1323.64
410.953
1202.08
436.274
1084.75
448.242
966.973
425.343
844.511
341.644
690.991
191.827
488.741
39.0669
70.5352
1907.22
134.674
2155.14
185.287
2032.68
237.5
1771.01
288.88
1676.96
342.748
1523.51
389.761
1403.11
432.259
1281.14
468.258
1166.08
496.022
1056.98
506.346
956.649
482.167
868.684
395.53
777.623
233.008
651.251
272.075
5.37662
1901.84
79.6877
2080.83
133.862
1978.51
180.453
1724.42
222.437
1634.97
278.326
1467.62
346.068
1335.37
440.795
1186.41
542.319
1064.55
626.44
972.861
662.798
920.291
626.056
905.43
499.334
904.348
295.008
855.582
567.083
-56.6026
1958.45
-45.2616
2069.48
-28.0299
1961.27
-43.6068
1740
-53.4605
1644.83
-46.1278
1460.29
8.81402
1280.43
126.257
1068.97
271.205
919.604
408.567
835.497
503.639
825.219
517.34
891.723
424.469
997.214
242.348
1037.7
809.431
-36.4446
1994.89
-177.677
2210.72
-254.937
2038.53
-359.169
1844.23
-461.591
1747.25
-556.988
1555.69
-619.63
1343.07
-636.182
1085.52
-608.545
891.965
-529.723
756.674
-388.458
683.952
-198.993
702.259
-30.4263
828.648
33.3288
973.942
842.76
130.715
1864.17
-57.512
2398.94
-226.272
2207.29
-372.645
1990.6
-507.898
1882.5
-655.478
1703.26
-818.274
1505.86
-987.236
1254.48
-1127.71
1032.44
-1205.71
834.667
-1177.01
655.252
-991.55
516.794
-642.315
479.408
-237.18
568.799
605.58
348.163
1516.01
345.716
2401.39
226.619
2326.39
152.259
2064.96
115.482
1919.27
44.9435
1773.8
-74.7119
1625.51
-248.941
1428.71
-441.028
1224.53
-624.421
1018.06
-773.67
804.5
-841.045
584.169
-736.474
374.836
-387.345
219.668
218.235
478.307
1037.7
649.323
2230.37
575.875
2399.83
450.563
2190.27
399.133
1970.7
396.143
1776.79
413.919
1607.74
404.277
1438.35
361.109
1267.69
277.792
1101.37
149.505
932.786
-17.2923
750.964
-177.397
534.938
-224.327
266.593
-6.09168
485.961
1370.09
2000.34
2372.19
2509.3
2509.68
2390.92
2213.73
1993.21
1787.2
1578.56
1339.26
1004.24
531.484
2.11704e-06
129.413
-129.413
129.413
129.413
129.413
221.861
-92.4484
221.861
221.861
221.861
304.005
-82.1437
304.005
304.005
381.138
-77.133
381.138
381.138
381.138
441.437
-60.2988
441.437
441.437
481.122
-39.6847
481.122
481.122
481.122
500.316
-19.1948
500.316
500.316
500.316
499.869
0.447563
499.869
499.869
477.596
22.2734
477.596
477.596
477.596
440.383
37.2125
440.383
440.383
387.918
52.4655
387.918
387.918
387.918
333.719
54.1986
333.719
333.719
333.719
284.288
49.4313
284.288
284.288
239.505
44.7823
239.505
239.505
239.505
226.908
12.5977
226.908
226.908
226.908
240.748
-13.8398
240.748
240.748
165.831
74.9165
165.831
165.831
165.831
16.0612
149.77
16.0611
16.0612
-479.97
496.031
-479.97
-479.97
-479.97
-1621.44
1141.47
-1621.44
-1621.44
-1621.44
-3186.15
1564.72
-3186.15
-3186.15
-5099.71
1913.55
-5099.71
-5099.71
-5002.94
-4906.56
-4804.48
-6843.36
2137.72
-6743.19
-6616.31
-6475.17
-6334.92
-6195.88
-6059.95
-5917.78
-5757.43
-7883.44
2288.19
-7716.57
-7550.85
-7385.86
-7203.09
-7019.48
-6835.47
-6649.99
-6460.25
-8810.49
2553.09
-8600.13
-8387.25
-8171.75
-7953.3
-7727.09
-7488.81
-7247.03
-7000.1
-6747.98
-9428.68
2930.23
-9156.85
-8880.59
-8601.42
-8320.02
-8036.66
-7738.75
-7431.63
-7122.67
-9707.79
2880.85
-9405.47
-9095.41
-8772.62
-8449.28
-8125.06
-7800.9
-7475.69
-7128.66
-9159.03
2360.73
-8827.31
-8497.46
-8169.27
-7824.27
-7473.42
-7125.69
-6779.93
-6439.84
-7611.83
1509.3
-7265.91
-6924.33
-6584.96
-6248.65
-5915.66
-5571.8
-5232.38
-4897.2
-4571.52
-4739.8
493.292
-4453.98
-4187.44
-3929.24
-3680.12
-3439.53
-3248.39
-3146.34
-3044.51
-2699.49
-234.852
-2604.42
-2511.16
-2511.16
-2369.61
-141.551
-2218.43
-151.18
-2218.43
-2103.32
-115.116
-2103.32
-2017.98
-85.3387
-1946.68
-71.2932
-1946.68
-1895.1
-51.5852
-1849.98
-45.1199
-1849.98
-1815.22
-34.7574
-1815.22
-1794.84
-20.3845
-1774.07
-20.7728
-1774.07
-1759.69
-14.3705
-1759.69
-1756.01
-3.68255
-1747.09
-8.92084
-1747.09
-1748.71
1.61948
-1744.95
-3.75801
-1744.95
-1745.32
0.366842
-1745.32
-1753.98
8.65696
-1755.4
1.42497
-1755.4
-1759.97
4.57184
-1759.97
-1771.87
11.8942
-1774.33
2.465
-1774.33
-1785.48
11.1458
-1788.39
2.90888
-1788.39
-1793.97
5.57968
-1793.97
-1806.67
12.7004
-1810.6
3.92887
-1810.6
-1817.3
6.70708
-1817.3
-1831.37
14.0708
-1835.78
4.41074
-1835.78
-1849.81
14.0227
-1856.22
6.41704
-1856.22
-1866.82
10.5961
-1866.82
-1886.88
20.0596
-1899.7
12.8214
-1899.7
-1918.48
18.7768
-1918.48
-1949.1
30.6219
-1971.95
22.85
-1971.95
-2011
39.0469
-2044.32
33.3237
-2044.32
-2088.58
44.2631
-2088.58
-2151.14
62.5549
-2207.1
55.958
-2207.1
-2278.42
71.3217
-2278.42
-2373.66
95.2368
-2459.27
85.6138
-2459.27
-2579.19
119.921
-2689.73
110.537
-2689.73
-2826.02
136.298
-2826.02
177.867
-23.7986
-110.851
-20.2828
121.973
-17.3648
369.037
-13.6245
621.572
-9.79743
850.079
-6.21319
1055.19
-2.20926
1228.93
0.893192
1354.63
1.72617
1423.29
3.40388
1497.34
6.80692
1541.19
9.93247
1497.26
13.6813
1471.19
15.2647
1389.81
18.4977
1372.32
19.5142
1267.29
15.2076
1026.56
13.0253
924.902
11.9354
778.788
11.5184
566.434
25.3544
221.7
22.2777
-565.42
21.0678
-791.14
14.013
-999.56
5.6348
-1134.32
-11.3525
-1206.05
-33.711
-1223.82
-39.0103
-1139.67
-33.1082
-1070.97
-26.2443
-947.946
-19.8004
-806.817
-17.8847
-694.46
-17.2071
-602.293
-15.8511
-508.398
-15.0481
-400.121
-13.9796
-267.585
-4.6759
238.063
-5.9731
400.114
-10.7847
478.429
-24.5235
457.464
-46.973
522.169
-63.9194
707.139
-72.8891
779.737
-81.8147
788.713
-90.4264
831.606
-97.991
819.981
-104.588
717.833
-111.709
521.7
-120.283
264.936
-128.557
-13.4936
-134.655
-295.639
-138.226
-565.304
-138.861
-825.694
-136.749
-1076.15
-132.193
-1314.64
-125.465
-1537.91
-116.812
-1742.67
-106.361
-1925.44
-94.1284
-2083.03
-80.0653
-2211.87
-63.9263
-2309.58
-45.2632
-2375.09
-23.3726
-2405.8
2.32233
-2400.66
31.8624
-2346.05
64.5524
-2239.68
98.6843
-2057.74
130.838
-1804.13
155.407
-1446.38
165.541
-1017.2
157.752
-507.531
130.115
5.20135
92.4269
447.679
58.0788
934.619
38.6527
1604.47
13.3766
1887.22
-9.67504
2200.86
-94.811
2017.69
2644.94
-23.8455
-111.248
-21.8921
120.02
-19.1465
366.291
-15.4128
617.838
-11.2556
845.921
-7.41235
1051.35
-3.26779
1224.78
-0.0117667
1351.37
1.03483
1422.24
2.90622
1495.47
6.4758
1537.62
9.70826
1494.03
13.5954
1467.3
15.3861
1388.02
18.8379
1368.87
20.2165
1265.91
16.217
1030.56
14.5405
926.578
14.0365
779.292
15.8259
564.644
41.7666
195.76
25.3456
-548.999
19.7597
-785.554
7.4674
-987.268
-4.78694
-1122.07
-22.1725
-1188.67
-41.1275
-1204.87
-43.1101
-1137.68
-34.5066
-1079.57
-26.332
-956.12
-20.0143
-813.135
-17.2475
-697.227
-15.5023
-604.039
-14.7656
-509.135
-14.3497
-400.537
-19.5528
-262.382
-6.30778
224.818
-5.97714
399.784
-10.5525
483.004
-24.7862
471.698
-47.3423
544.726
-64.1495
723.946
-72.9812
788.569
-81.9009
797.633
-90.5717
840.277
-98.2172
827.626
-105.364
724.98
-114.326
530.662
-125.734
276.344
-136.476
-2.75158
-144.337
-287.778
-149.17
-560.471
-150.721
-824.143
-149.129
-1077.74
-144.694
-1319.07
-137.677
-1544.93
-128.342
-1752
-116.854
-1936.93
-103.278
-2096.61
-87.6082
-2227.54
-69.627
-2327.56
-48.9157
-2395.8
-24.7843
-2429.93
3.39639
-2428.84
35.7502
-2378.4
71.6331
-2275.56
109.152
-2095.26
144.678
-1839.66
171.7
-1473.4
182.71
-1028.21
172.517
-497.338
138.927
38.7909
95.9727
490.633
60.0114
970.581
39.4799
1625
13.1563
1913.55
-11.437
2225.46
-91.2418
2097.49
2690
-21.9036
-110.463
-21.4696
119.586
-19.6089
364.431
-16.5848
614.814
-12.5282
841.865
-8.67834
1047.5
-4.53024
1220.63
-1.21555
1348.06
-0.0684365
1421.09
1.95368
1493.45
5.7103
1533.87
9.11001
1490.63
13.2402
1463.17
15.2912
1385.97
19.0768
1365.08
20.9355
1264.05
17.3995
1034.1
16.2703
927.707
16.6232
778.939
19.9447
561.323
40.9495
174.755
23.7194
-531.769
14.8688
-776.704
0.806625
-973.206
-12.5727
-1108.69
-30.001
-1171.24
-46.4499
-1188.42
-46.1828
-1137.95
-35.7753
-1089.98
-26.1371
-965.758
-19.4092
-819.862
-16.1845
-700.452
-13.054
-607.169
-11.8631
-510.326
-12.8193
-399.581
-17.3778
-257.824
-6.71102
214.151
-5.68343
398.756
-10.3127
487.633
-25.0848
486.47
-47.6066
567.247
-64.0764
740.416
-72.6392
797.131
-81.3907
806.384
-90.1407
849.027
-98.3169
835.803
-107.077
733.739
-118.331
541.916
-131.124
289.137
-142.752
8.87593
-151.759
-278.771
-157.359
-554.87
-159.466
-822.036
-158.165
-1079.04
-153.759
-1323.48
-146.497
-1552.19
-136.657
-1761.84
-124.427
-1949.16
-109.909
-2111.13
-93.1245
-2244.32
-73.8682
-2346.82
-51.7205
-2417.95
-26.0017
-2455.65
3.95113
-2458.79
38.295
-2412.75
76.4396
-2313.7
116.362
-2135.18
154.385
-1877.68
183.34
-1502.35
195.532
-1040.41
184.556
-486.362
148.164
75.1822
101.161
537.637
62.4974
1009.24
40.4593
1647.04
13.1811
1940.82
-11.8283
2250.47
-80.6251
2166.29
2719.91
-18.6999
-109.707
-18.7628
119.649
-18.5103
364.178
-16.9096
613.213
-13.415
838.37
-9.82039
1043.9
-5.83897
1216.65
-2.59412
1344.81
-1.43495
1419.94
0.667364
1491.35
4.58189
1529.95
8.20435
1487
12.617
1458.76
15.0068
1383.58
19.1619
1360.93
21.5221
1261.69
18.481
1037.14
17.8207
928.368
18.7613
777.999
22.2019
557.882
40.3967
156.56
23.7458
-515.118
11.4609
-764.419
-5.45948
-956.285
-20.6998
-1093.45
-38.6677
-1153.27
-52.8146
-1174.27
-49.7566
-1141.01
-37.4916
-1102.24
-26.1126
-977.137
-18.2065
-827.769
-14.8136
-703.845
-11.5786
-610.404
-10.2587
-511.645
-13.2958
-396.544
-15.6199
-255.5
-6.62222
205.154
-5.26792
397.402
-10.226
492.591
-25.355
501.599
-47.5425
589.435
-63.3724
756.246
-71.5504
805.309
-80.1697
815.004
-89.3387
858.196
-98.8323
845.296
-109.825
744.732
-122.966
555.058
-136.996
303.166
-149.878
21.7576
-160.034
-268.614
-166.431
-548.473
-169.1
-819.368
-168.083
-1080.05
-163.68
-1327.89
-156.131
-1559.74
-145.727
-1772.25
-132.689
-1962.2
-117.159
-2126.66
-99.1919
-2262.29
-78.5969
-2367.41
-54.9477
-2441.6
-27.5567
-2483.04
4.29704
-2490.65
40.8439
-2449.29
81.5652
-2354.42
124.328
-2177.94
165.355
-1918.71
196.713
-1533.71
210.328
-1054.02
198.382
-474.416
159.089
114.475
107.447
589.279
65.1694
1051.52
41.3031
1670.91
13.3591
1968.77
-12.6538
2276.48
-78.4359
2232.07
2761.39
-13.8845
-109.48
-14.0121
119.776
-15.8225
365.988
-16.3534
613.744
-13.9027
835.919
-10.8198
1040.82
-7.19816
1213.03
-4.17068
1341.79
-3.09982
1418.86
-0.989761
1489.24
3.05075
1525.91
6.91605
1483.14
11.6597
1454.02
14.45
1380.79
19.0326
1356.34
21.9528
1258.77
19.4585
1039.63
19.2959
928.53
20.7846
776.51
24.2606
554.406
40.8952
139.926
22.8818
-497.105
7.29776
-748.835
-12.0212
-936.966
-29.2412
-1076.23
-47.9639
-1134.55
-59.5251
-1162.71
-53.0771
-1147.46
-39.0079
-1116.31
-25.9495
-990.196
-16.4026
-837.315
-12.7317
-707.515
-9.85648
-613.279
-8.46487
-513.037
-12.2387
-392.77
-13.9582
-253.78
-6.29302
197.488
-4.77385
395.883
-9.99597
497.814
-25.2811
516.884
-46.8623
611.016
-61.8626
771.246
-69.738
813.185
-78.6036
823.869
-88.7932
868.385
-100.144
856.646
-113.151
757.739
-127.643
569.55
-142.845
318.368
-156.989
35.9007
-168.193
-257.41
-175.387
-541.279
-178.631
-816.124
-177.914
-1080.77
-173.527
-1332.27
-165.709
-1567.56
-154.765
-1783.19
-140.951
-1976.01
-124.454
-2143.15
-105.359
-2281.38
-83.4918
-2389.28
-58.4114
-2466.68
-29.4123
-2512.04
4.29763
-2524.36
43.0449
-2488.04
86.3922
-2397.77
132.12
-2223.67
176.34
-1962.93
210.299
-1567.67
225.457
-1069.18
212.351
-461.311
170.524
156.303
114.587
645.215
68.067
1098.04
42.0547
1696.92
13.4759
1997.35
-13.0672
2303.02
-71.9535
2290.96
2775.06
-8.05486
-110.116
-7.6259
119.347
-11.4127
369.775
-14.6708
617.002
-13.9116
835.16
-11.6204
1038.53
-8.55601
1209.97
-5.90919
1339.14
-5.05335
1418.01
-3.02069
1487.21
1.10054
1521.79
5.19787
1479.04
10.3105
1448.9
13.5417
1377.56
18.6185
1351.27
22.1708
1255.22
20.2836
1041.52
20.675
928.139
22.7551
774.43
26.4071
550.754
41.4298
124.903
20.6665
-476.342
2.03274
-730.201
-19.1518
-915.782
-38.8239
-1056.55
-58.3868
-1114.99
-66.6998
-1154.4
-56.0649
-1158.09
-40.0579
-1132.32
-25.6353
-1004.62
-14.3097
-848.641
-10.2443
-711.581
-7.95605
-615.568
-6.24466
-514.748
-10.1865
-388.828
-12.1462
-251.82
-5.79806
191.14
-4.13667
394.221
-9.49721
503.174
-24.6896
532.076
-45.3628
631.689
-59.52
785.403
-67.4418
821.106
-77.1481
833.576
-88.8921
880.129
-102.136
869.891
-116.687
772.29
-132.331
585.194
-148.717
334.754
-164.068
51.2516
-176.417
-245.061
-184.466
-533.23
-188.305
-812.285
-187.894
-1081.18
-183.522
-1336.64
-175.432
-1575.65
-163.952
-1794.67
-149.375
-1990.59
-131.93
-2160.6
-111.741
-2301.57
-88.6444
-2412.38
-62.1819
-2493.14
-31.6144
-2542.61
3.94025
-2559.91
44.9362
-2529.04
91.0304
-2443.87
139.947
-2272.59
187.662
-2010.64
224.542
-1604.55
241.492
-1086.13
227.09
-446.909
182.584
200.809
122.397
705.402
71.2506
1149.19
42.7821
1725.39
13.5868
2026.54
-13.0702
2329.68
-67.2734
2345.16
2803.02
-1.39896
-111.625
-0.0798203
118.028
-5.27817
374.974
-11.5092
623.233
-13.2582
836.909
-12.133
1037.4
-9.83266
1207.67
-7.73525
1337.04
-7.23642
1417.51
-5.38726
1485.36
-1.25623
1517.66
3.04213
1474.74
8.53699
1443.41
12.2377
1373.86
17.8641
1345.64
22.1058
1250.98
20.8812
1042.75
21.874
927.146
24.6004
771.703
28.5783
546.776
41.5961
111.885
17.6553
-452.401
-4.25486
-708.291
-27.397
-892.64
-50.269
-1033.68
-70.2986
-1094.96
-74.2551
-1150.44
-58.5664
-1173.78
-40.3131
-1150.57
-25.0145
-1019.92
-12.0396
-861.616
-7.28315
-716.337
-5.45669
-617.394
-3.64386
-516.561
-7.76795
-384.704
-10.5982
-248.99
-5.1462
185.688
-3.35644
392.431
-8.71944
508.537
-23.4552
546.812
-42.9296
651.164
-56.4121
798.886
-64.8761
829.57
-75.9858
844.685
-89.557
893.7
-104.428
884.762
-120.169
788.032
-136.938
601.963
-154.598
352.414
-171.226
67.8791
-184.735
-231.552
-193.658
-524.307
-198.105
-807.838
-198.008
-1081.28
-193.652
-1341
-185.292
-1584.01
-173.283
-1806.68
-157.956
-2005.92
-139.588
-2178.97
-118.339
-2322.82
-94.0606
-2436.66
-66.2689
-2520.93
-34.1791
-2574.7
3.20099
-2597.29
46.4861
-2572.32
95.44
-2492.82
147.761
-2324.91
199.27
-2062.15
239.391
-1644.67
258.39
-1105.13
242.562
-431.08
195.12
248.25
130.684
769.838
74.6847
1205.19
43.4828
1756.59
13.7055
2056.32
-12.8388
2356.22
-63.6087
2395.93
2810.73
5.87815
-113.979
8.20269
115.704
2.35613
380.82
-6.59979
632.189
-11.6256
841.935
-12.2121
1037.99
-10.9439
1206.4
-9.57624
1335.68
-9.58403
1417.52
-8.04467
1483.82
-4.001
1513.62
0.445975
1470.3
6.31228
1437.54
10.4969
1369.68
16.714
1339.42
21.6883
1246.01
21.1762
1043.26
22.819
925.503
26.2481
768.274
30.7051
542.319
41.376
101.214
13.8463
-424.871
-11.5119
-682.933
-37.0486
-867.103
-63.8247
-1006.91
-83.7391
-1075.04
-82.1895
-1151.99
-60.5889
-1195.38
-39.634
-1171.53
-23.9856
-1035.57
-9.74455
-875.857
-3.96238
-722.119
-2.03028
-619.326
-0.533086
-518.059
-5.65587
-379.581
-9.95607
-244.69
-4.35295
180.085
-2.42587
390.504
-7.61058
513.722
-21.478
560.68
-39.5269
669.213
-52.622
811.981
-62.1274
839.076
-75.0297
857.588
-90.4753
909.146
-106.709
900.995
-123.545
804.868
-141.544
619.961
-160.518
371.388
-178.414
85.7757
-193.128
-216.838
-202.972
-514.462
-208.047
-802.763
-208.273
-1081.05
-203.935
-1345.34
-195.306
-1592.64
-182.773
-1819.21
-166.712
-2021.98
-147.445
-2198.23
-125.173
-2345.09
-99.7604
-2462.07
-70.6954
-2550
-37.1322
-2608.26
2.05267
-2636.48
47.6717
-2617.94
99.607
-2544.76
155.567
-2380.87
211.189
-2117.78
254.905
-1688.39
276.263
-1126.48
258.91
-413.727
208.12
299.041
139.313
838.644
78.3028
1266.2
44.123
1790.77
13.8204
2086.62
-12.2458
2382.29
-55.0226
2438.71
2811.67
13.6037
-117.104
16.911
112.396
11.054
386.677
0.0583643
643.185
-8.62082
850.614
-11.6181
1040.99
-11.7664
1206.55
-11.3545
1335.26
-12.0306
1418.19
-10.9411
1482.73
-7.10576
1509.78
-2.58384
1465.77
3.6241
1431.34
8.28277
1365.02
15.118
1332.59
20.8587
1240.27
21.1017
1043.01
23.451
923.154
27.6392
764.086
32.7275
537.231
40.8801
93.0616
9.43952
-393.431
-19.5887
-653.904
-48.3995
-838.292
-79.5836
-975.722
-98.7152
-1055.91
-90.6623
-1160.04
-62.2845
-1223.76
-38.0091
-1195.8
-22.3727
-1051.2
-7.40571
-890.824
-0.437527
-729.088
1.9986
-621.762
2.78009
-518.84
-3.84308
-372.958
-10.1005
-238.432
-3.41158
173.396
-1.29609
388.389
-6.09471
518.52
-18.7168
573.302
-35.1955
685.691
-48.2073
824.993
-59.1823
850.051
-74.1105
872.516
-91.3748
926.41
-108.848
918.468
-126.839
822.859
-146.156
639.278
-166.46
391.693
-185.668
104.984
-201.624
-200.883
-212.425
-503.661
-218.148
-797.04
-218.707
-1080.49
-214.388
-1349.66
-205.489
-1601.54
-192.439
-1832.26
-175.657
-2038.76
-155.515
-2218.38
-132.256
-2368.35
-105.76
-2488.56
-75.4798
-2580.28
-40.4961
-2643.25
0.470311
-2677.44
48.4672
-2665.94
103.505
-2599.79
163.338
-2440.7
223.392
-2177.83
271.08
-1736.07
295.153
-1150.56
276.206
-394.78
221.542
353.705
148.15
912.036
82.0278
1332.32
44.6536
1828.14
13.8598
2117.42
-11.7337
2407.88
-51.6872
2478.66
2822.53
21.6695
-120.922
25.8891
108.177
20.3658
392.2
8.1764
655.374
-3.96351
862.754
-10.0308
1047.05
-12.099
1208.61
-12.9574
1336.12
-14.4977
1419.73
-14.0122
1482.24
-10.5267
1506.3
-6.02216
1461.27
0.475885
1424.84
5.57327
1359.92
13.0465
1325.12
19.5751
1233.74
20.6039
1041.99
23.7205
920.037
28.7226
759.084
34.6027
531.351
39.8476
87.8168
4.52385
-358.107
-28.4468
-620.934
-61.6262
-805.113
-97.7112
-939.637
-115.442
-1038.18
-100.115
-1175.37
-64.0723
-1259.8
-35.5833
-1224.29
-19.9524
-1066.83
-4.78269
-905.994
3.2599
-737.13
5.85216
-624.355
5.88278
-518.871
-1.32491
-365.751
-10.0506
-229.707
-2.2733
165.619
0.10008
386.016
-4.09907
522.72
-15.1858
584.388
-30.0352
700.541
-43.223
838.18
-56.01
862.838
-73.118
889.624
-92.1305
945.423
-110.845
937.183
-130.098
842.112
-150.794
659.975
-172.443
413.342
-192.982
125.523
-210.219
-183.645
-222.022
-491.859
-228.416
-790.646
-229.322
-1079.59
-225.025
-1353.95
-215.857
-1610.7
-202.293
-1845.83
-184.804
-2056.25
-163.811
-2239.37
-139.601
-2392.56
-112.075
-2516.09
-80.6438
-2611.71
-44.2975
-2679.59
-1.57761
-2720.16
48.8368
-2716.35
107.091
-2658.05
171.018
-2504.63
235.806
-2242.62
287.857
-1788.13
315.061
-1177.76
294.511
-374.23
235.389
412.826
157.077
990.348
85.7704
1403.63
45.0188
1868.9
13.7352
2148.7
-11.1802
2432.8
-48.6833
2516.16
2818.11
30.0111
-125.323
35.0741
103.114
29.9863
397.288
17.3101
668.05
2.37076
877.693
-7.13138
1056.55
-11.6615
1213.14
-14.2045
1338.67
-16.8734
1422.4
-17.1794
1482.55
-14.2088
1503.33
-9.83612
1456.9
-3.12157
1418.12
2.36973
1354.43
10.4932
1316.99
17.8107
1226.42
19.6414
1040.16
23.5858
916.093
29.4453
753.225
36.3728
524.423
37.8358
86.3538
-1.17848
-319.093
-38.3758
-583.736
-77.0948
-766.394
-118.563
-898.169
-134.355
-1022.39
-111.29
-1198.44
-66.654
-1304.44
-32.5431
-1258.4
-16.5419
-1082.83
-1.65675
-920.879
7.23729
-746.024
9.2523
-626.37
8.79844
-518.417
2.42395
-359.376
-9.04677
-218.236
-0.934398
157.507
1.82172
383.259
-1.57058
526.112
-10.9252
593.743
-24.1807
713.796
-37.7638
851.763
-52.6232
877.697
-72.0323
909.033
-92.7386
966.129
-112.753
957.197
-133.359
862.717
-155.462
682.078
-178.463
436.342
-200.364
147.424
-218.924
-165.085
-231.774
-479.01
-238.864
-783.555
-240.134
-1078.32
-235.861
-1358.23
-226.424
-1620.14
-212.351
-1859.9
-194.167
-2074.44
-172.345
-2261.19
-147.223
-2417.69
-118.724
-2544.59
-86.2096
-2644.22
-48.5655
-2717.24
-4.12741
-2764.6
48.7327
-2769.21
110.294
-2719.61
178.498
-2572.83
248.268
-2312.39
305.07
-1844.93
335.914
-1208.6
313.846
-352.163
249.668
477.005
165.998
1074.02
89.4364
1480.19
45.1674
1913.16
13.4255
2180.44
-10.4727
2456.7
-41.3833
2547.07
2810.05
38.5496
-130.185
44.4054
97.258
39.7586
401.935
27.0231
680.786
10.1427
894.574
-2.72428
1069.42
-10.1502
1220.57
-14.8409
1343.36
-18.9872
1426.55
-20.3356
1483.9
-18.0797
1501.07
-13.9817
1452.8
-7.14943
1411.29
-1.3056
1348.58
7.46647
1308.22
15.5462
1218.34
18.1831
1037.52
23.0124
911.264
29.7602
746.477
37.9259
516.257
34.6513
89.6283
-7.81147
-276.63
-49.6089
-541.939
-95.2619
-720.741
-142.492
-850.938
-155.977
-1008.9
-125.107
-1229.31
-70.8995
-1358.65
-28.9778
-1300.33
-12.0129
-1099.8
1.94321
-934.835
11.5072
-755.588
12.6191
-627.482
11.9677
-517.765
6.98748
-354.396
-6.8254
-204.423
0.622648
150.058
3.91878
379.963
1.52741
528.503
-5.98407
601.254
-17.7881
725.6
-31.977
865.952
-49.0901
894.81
-70.8908
930.834
-93.2537
988.492
-114.635
978.578
-136.645
884.727
-160.161
705.595
-184.523
460.704
-207.815
170.716
-227.739
-145.161
-241.686
-465.063
-249.503
-775.738
-251.154
-1076.67
-246.912
-1362.47
-237.207
-1629.85
-222.627
-1874.48
-203.76
-2093.3
-181.131
-2283.82
-155.135
-2443.68
-125.722
-2574
-92.2009
-2677.74
-53.3331
-2756.1
-7.22557
-2810.71
48.0835
-2824.52
112.993
-2784.52
185.573
-2645.41
260.47
-2387.29
322.383
-1906.84
357.499
-1243.72
334.152
-328.815
264.374
546.782
174.84
1163.55
92.9377
1562.09
45.0498
1961.05
12.8601
2212.63
-10.104
2479.66
-39.4293
2576.4
2809.67
47.2211
-135.399
53.8169
90.6623
49.6059
406.146
36.9844
693.407
18.9599
912.598
3.1758
1085.21
-7.33273
1231.08
-14.5754
1350.6
-20.5997
1432.57
-23.3194
1486.62
-22.0263
1499.78
-18.3859
1449.16
-11.5668
1404.47
-5.41136
1342.43
3.97848
1298.83
12.7676
1209.55
16.209
1034.08
21.974
905.499
29.6327
738.818
38.9735
506.917
30.33
98.2718
-15.2984
-231.001
-62.2699
-494.967
-116.452
-666.558
-169.667
-797.723
-180.67
-997.901
-142.236
-1267.74
-77.5233
-1423.36
-24.8397
-1353.01
-6.17778
-1118.46
5.74835
-946.761
15.8488
-765.689
16.3248
-627.957
15.8706
-517.311
11.7043
-350.23
-3.17956
-189.539
2.50954
144.369
6.44624
376.027
5.21974
529.73
-0.410586
606.885
-11.0114
736.201
-26.0329
880.974
-45.5183
914.296
-69.7519
955.067
-93.7425
1012.48
-116.537
1001.37
-139.97
908.16
-164.892
730.516
-190.622
486.434
-215.336
195.43
-236.665
-123.832
-251.764
-449.963
-260.342
-767.16
-262.396
-1074.61
-258.194
-1366.67
-248.222
-1639.82
-233.138
-1889.56
-213.598
-2112.84
-190.181
-2307.24
-163.348
-2470.51
-133.088
-2604.26
-98.6429
-2712.19
-58.6388
-2796.11
-10.9335
-2858.41
46.7807
-2882.24
114.988
-2852.72
191.893
-2722.32
271.88
-2467.27
339.204
-1974.16
379.397
-1283.91
355.255
-304.673
279.477
622.561
183.545
1259.48
96.1976
1649.44
44.6185
2012.63
11.9682
2245.28
-9.84248
2501.47
-35.3876
2601.94
2797.13
55.9816
-140.864
63.2411
83.4028
59.4875
409.9
46.9756
705.919
28.3861
931.188
10.3397
1103.25
-3.12987
1244.55
-13.151
1360.62
-21.424
1440.85
-25.8978
1491.09
-25.8697
1499.75
-22.9236
1446.21
-16.3017
1397.85
-9.89999
1336.03
0.0408157
1288.89
9.47002
1200.12
13.712
1029.83
20.458
898.753
29.0656
730.21
39.3328
496.649
25.1749
112.43
-23.6895
-182.137
-76.5241
-442.133
-140.727
-602.355
-199.833
-738.618
-208.129
-989.605
-162.466
-1313.4
-86.6615
-1499.16
-20.0435
-1419.63
1.33578
-1139.84
9.52405
-954.949
20.008
-776.173
20.3492
-628.299
20.2958
-517.258
16.1742
-346.108
1.66008
-175.025
5.08126
140.948
9.45866
371.649
9.50621
529.682
5.74541
610.646
-3.97114
745.918
-20.0847
897.088
-42.0334
936.244
-68.6768
981.711
-94.2643
1038.07
-118.495
1025.6
-143.345
933.01
-169.657
756.828
-196.763
513.54
-222.926
221.594
-245.701
-101.058
-262.014
-433.65
-271.391
-757.783
-273.874
-1072.13
-269.721
-1370.82
-259.486
-1650.05
-243.9
-1905.15
-223.693
-2133.05
-199.508
-2331.42
-171.877
-2498.14
-140.836
-2635.3
-105.564
-2747.46
-64.5301
-2837.14
-15.3378
-2907.61
44.6539
-2942.23
115.951
-2924.02
196.875
-2803.24
281.64
-2552.04
354.587
-2047.11
400.891
-1330.22
376.824
-280.606
294.905
704.479
192.069
1362.32
99.1501
1742.36
43.8251
2067.96
10.7163
2278.39
-9.82832
2522.02
-32.9545
2625.07
2794.8
64.8133
-146.505
72.6263
75.5898
69.367
413.159
56.8887
718.398
38.0552
950.021
18.4097
1122.9
2.35864
1260.6
-10.4167
1373.39
-21.181
1451.61
-27.7805
1497.69
-29.3602
1501.33
-27.4055
1444.26
-21.2334
1391.68
-14.7027
1329.5
-4.31252
1278.5
5.67514
1190.13
10.7043
1024.81
18.4706
890.986
28.0984
720.583
38.8051
485.943
19.1039
132.131
-32.9649
-130.068
-92.4014
-382.696
-167.672
-527.085
-231.804
-674.485
-236.677
-984.733
-184.088
-1365.99
-97.4869
-1585.76
-14.6383
-1502.48
11.025
-1165.5
13.4079
-957.332
23.6728
-786.438
24.3809
-629.007
24.5376
-517.414
20.5141
-342.084
7.35555
-161.867
8.67892
139.625
13.0417
367.286
14.374
528.35
12.4054
612.614
3.22876
755.094
-14.2647
914.581
-38.7596
960.739
-67.7264
1010.68
-94.8668
1065.21
-120.529
1051.27
-146.774
959.256
-174.458
784.512
-202.944
542.026
-230.583
249.232
-254.843
-76.7974
-272.438
-416.056
-282.66
-747.56
-285.602
-1069.19
-281.511
-1374.91
-271.015
-1660.55
-254.927
-1921.24
-234.06
-2153.92
-209.122
-2356.36
-180.732
-2526.54
-148.986
-2667.05
-112.995
-2783.45
-71.0701
-2879.07
-20.5664
-2958.11
41.4351
-3004.23
115.356
-2997.94
199.613
-2887.5
288.465
-2640.89
367.148
-2125.79
420.902
-1383.97
398.315
-258.019
310.525
792.268
200.363
1472.48
101.736
1840.98
42.6218
2127.07
9.05406
2311.96
-10.1192
2541.19
-31.6495
2646.6
2781.93
73.7158
-152.264
81.9278
67.3778
79.1922
415.894
66.6913
730.898
47.7228
968.99
27.0043
1143.62
8.88769
1278.72
-6.37003
1388.65
-19.6656
1464.91
-28.6678
1506.69
-32.2044
1504.87
-31.5874
1443.64
-26.1821
1386.27
-19.7095
1323.02
-9.02852
1267.82
1.41147
1179.69
7.21378
1019
16.027
882.173
26.7478
709.862
36.9596
475.731
12.0523
157.038
-42.8785
-75.1375
-109.696
-315.879
-196.03
-440.75
-262.889
-607.627
-262.678
-984.944
-203.513
-1425.16
-107.882
-1681.4
-8.86218
-1601.5
23.1255
-1197.49
18.038
-952.245
26.382
-794.782
27.9343
-630.559
28.2943
-517.774
25.222
-339.012
13.8983
-150.543
13.379
140.144
17.2894
363.376
19.8106
525.829
19.4597
612.965
10.4401
764.114
-8.71562
933.737
-35.8101
987.834
-66.9602
1041.83
-95.5861
1093.84
-122.649
1078.33
-150.256
986.862
-179.292
813.547
-209.162
571.896
-238.3
278.371
-264.086
-51.0112
-283.04
-397.102
-294.159
-736.441
-297.592
-1065.75
-293.579
-1378.93
-282.826
-1671.3
-266.235
-1937.83
-244.712
-2175.44
-219.037
-2382.03
-189.926
-2555.65
-157.557
-2699.42
-120.979
-2820.03
-78.3486
-2921.7
-26.8145
-3009.64
36.7059
-3067.75
112.399
-3073.64
198.78
-2973.88
290.587
-2732.7
375.076
-2210.28
437.988
-1446.88
418.938
-238.969
326.112
885.094
208.353
1590.24
103.901
1945.43
40.9728
2190
6.95535
2345.98
-10.6329
2558.78
-26.9246
2662.89
2767.83
82.6959
-158.094
91.1216
58.9521
88.9119
418.104
76.3765
743.434
57.2541
988.112
35.8021
1165.07
16.1385
1298.38
-1.15644
1405.95
-16.7994
1480.55
-28.3195
1518.21
-34.1164
1510.66
-35.2009
1444.72
-30.9179
1381.99
-24.7616
1316.87
-14.0125
1257.07
-3.25962
1168.94
3.29258
1012.45
13.1648
872.301
25.0355
697.991
33.3547
467.412
3.99242
186.4
-53.0178
-18.1273
-127.762
-241.135
-223.328
-345.184
-288.52
-542.435
-280.456
-993.007
-215.402
-1490.21
-114.265
-1782.53
-2.96108
-1712.8
37.0245
-1237.48
24.261
-939.481
27.9621
-798.483
31.0559
-633.653
32.0441
-518.763
30.4946
-337.463
21.0493
-141.098
19.1816
142.012
22.246
360.312
25.7911
522.284
26.7853
611.971
17.4851
773.414
-3.58546
954.807
-33.2843
1017.53
-66.4336
1074.98
-96.4468
1123.85
-124.858
1106.74
-153.784
1015.79
-184.148
843.911
-215.407
603.156
-246.07
309.034
-273.424
-23.6573
-293.823
-376.703
-305.899
-724.365
-309.861
-1061.79
-305.94
-1382.85
-294.933
-1682.31
-277.839
-1954.92
-255.663
-2197.61
-229.264
-2408.43
-199.473
-2585.44
-166.576
-2732.32
-129.577
-2857.03
-86.5011
-2964.77
-34.3823
-3061.76
29.8313
-3131.96
105.906
-3149.71
192.595
-3060.57
285.867
-2825.97
376.35
-2300.76
450.505
-1521.04
437.684
-226.148
341.33
981.448
215.927
1715.65
105.59
2055.77
38.8579
2256.73
4.36254
2380.47
-11.6462
2574.79
-26.6258
2677.87
2761.26
91.785
-163.97
100.224
50.5135
98.4811
419.847
85.9359
755.979
66.5928
1007.46
44.5723
1187.09
23.7719
1319.18
4.94866
1424.77
-12.6607
1498.16
-26.6151
1532.17
-34.8736
1518.92
-37.9972
1447.85
-35.1895
1379.18
-29.6585
1311.34
-19.1292
1246.54
-8.24477
1158.06
-0.984577
1005.19
9.94478
861.371
22.9052
685.031
27.791
462.526
-5.01724
219.209
-62.905
39.7605
-145.195
-158.845
-245.691
-244.689
-302.669
-485.456
-283.319
-1012.36
-213.716
-1559.81
-112.023
-1884.22
3.18121
-1828