/*--------------------------------*- C++ -*----------------------------------*\
| =========                 |                                                 |
| \\      /  F ield         | OpenFOAM: The Open Source CFD Toolbox           |
|  \\    /   O peration     | Version:  4.1                                   |
|   \\  /    A nd           | Web:      www.OpenFOAM.org                      |
|    \\/     M anipulation  |                                                 |
\*---------------------------------------------------------------------------*/
FoamFile
{
    version     2.0;
    format      ascii;
    class       volSymmTensorField;
    location    "4";
    object      R;
}
// * * * * * * * * * * * * * * * * * * * * * * * * * * * * * * * * * * * * * //

dimensions      [0 2 -2 0 0 0 0];

internalField   nonuniform List<symmTensor> 
6785
(
(0.265947 4.30594e-17 5.46862e-17 0.19228 0.0370411 0.37187)
(0.000124547 2.52514e-22 3.54103e-22 0.000124044 2.29742e-07 0.000125232)
(0.000119076 -5.41877e-24 -4.76963e-24 0.000119085 1.1003e-08 0.000119074)
(0.000119079 5.03467e-24 3.26056e-24 0.000119083 8.49155e-09 0.000119076)
(0.000119094 -9.50623e-24 -2.93541e-24 0.000119097 8.11836e-09 0.000119092)
(0.000119067 3.83029e-24 -8.0684e-25 0.00011907 7.40762e-09 0.000119065)
(0.000119081 9.30093e-25 1.03088e-24 0.000119083 6.78454e-09 0.00011908)
(0.000119093 -6.09483e-24 -2.32901e-24 0.000119095 6.12997e-09 0.000119093)
(0.000119066 1.6756e-24 -3.60266e-25 0.000119067 5.55802e-09 0.000119066)
(0.000119081 1.1949e-24 2.73191e-24 0.000119082 5.19834e-09 0.000119082)
(0.000119093 -4.0796e-24 -8.77126e-25 0.000119092 4.64046e-09 0.000119093)
(0.00011906 1.037e-24 -6.48778e-25 0.000119058 3.51702e-09 0.00011906)
(0.00011927 6.86736e-25 2.15888e-24 0.000119265 -3.05879e-09 0.000119271)
(0.000336278 1.17961e-22 -2.75013e-21 0.000304979 -3.84587e-05 0.000333619)
(0.387018 4.5451e-19 -1.34376e-17 0.235162 -0.187845 0.377607)
(0.333546 5.82258e-17 1.63565e-16 0.135278 -0.0043046 0.589942)
(0.000591514 3.29177e-20 1.44238e-19 0.000357632 -1.51846e-05 0.000861632)
(1.98408e-07 -1.1792e-25 -7.02125e-26 1.98538e-07 4.5488e-11 1.98352e-07)
(1.85426e-07 4.01874e-26 5.92405e-26 1.85447e-07 -3.30902e-12 1.85358e-07)
(1.76573e-07 -7.25086e-26 -3.92514e-26 1.76618e-07 6.72984e-12 1.76517e-07)
(1.67484e-07 2.60455e-26 1.00108e-26 1.6752e-07 2.40589e-12 1.67433e-07)
(1.58783e-07 -8.72578e-27 1.4605e-26 1.58816e-07 9.15545e-13 1.58737e-07)
(1.50117e-07 -3.11579e-26 -1.64834e-26 1.50146e-07 -8.92065e-13 1.50077e-07)
(1.41375e-07 1.03346e-26 3.37285e-27 1.414e-07 -1.51727e-12 1.41342e-07)
(1.33091e-07 -8.81405e-27 1.27718e-26 1.33112e-07 -3.15359e-12 1.33068e-07)
(1.26111e-07 -1.93207e-26 -6.69024e-27 1.26137e-07 -2.57996e-11 1.26104e-07)
(1.66997e-07 -1.14878e-26 1.60033e-26 1.67042e-07 -4.02639e-10 1.67012e-07)
(5.54723e-06 -6.9891e-24 -1.70455e-24 5.42758e-06 -4.11076e-07 5.49059e-06)
(0.000646825 -1.35223e-21 -5.99702e-21 0.000559264 -0.000234687 0.000624617)
(0.228704 2.23103e-20 -3.65275e-18 0.168843 -0.121605 0.220818)
(0.394673 4.82235e-17 2.139e-16 0.126141 -0.0662602 0.750776)
(0.00377349 -4.9118e-19 9.44667e-20 0.00144589 -0.000742703 0.00612741)
(7.48055e-09 -4.36904e-25 -8.99353e-26 5.56098e-09 -6.36664e-10 9.42567e-09)
(1.45703e-09 2.40082e-27 -1.3807e-27 1.45904e-09 -2.63025e-12 1.45539e-09)
(3.1607e-09 -7.92056e-26 -3.67584e-26 3.6593e-09 -6.47455e-10 3.33466e-09)
(2.52059e-07 -1.81376e-23 -8.31171e-24 3.71997e-07 -1.57245e-07 2.95339e-07)
(2.60331e-05 -1.94565e-21 -8.9164e-22 3.88783e-05 -1.6845e-05 3.06768e-05)
(0.000260683 -2.04494e-20 -7.96079e-21 0.000392844 -0.00017399 0.000309175)
(0.00100047 -7.22747e-20 -2.31653e-20 0.00153259 -0.000723996 0.00121543)
(0.0027598 -2.34321e-19 -7.74964e-20 0.00423216 -0.00211845 0.00344144)
(0.00662887 -6.79487e-19 2.93833e-19 0.00998338 -0.0053311 0.00853701)
(0.0142693 -1.51803e-18 5.77311e-19 0.0202165 -0.0115857 0.0190623)
(0.0269599 -2.16813e-18 5.73024e-19 0.0327301 -0.0205066 0.0370813)
(0.0471377 2.67351e-18 1.03479e-18 0.0416561 -0.0300653 0.0621078)
(0.125019 6.57631e-18 -2.02257e-19 0.0858362 -0.0653918 0.122957)
(0.493157 3.04041e-17 2.95575e-16 0.154028 -0.137454 0.951613)
(0.0077653 -9.30742e-19 -3.50692e-18 0.00299592 -0.00207804 0.0122531)
(2.63601e-06 -2.19492e-21 -8.55986e-22 2.74404e-06 -4.62076e-07 3.23902e-06)
(9.77857e-10 -1.43455e-25 -2.61871e-25 8.17546e-10 -1.38406e-10 1.11834e-09)
(6.66507e-10 -2.1008e-26 -2.86972e-26 7.86327e-10 -1.41901e-10 6.95005e-10)
(1.8051e-08 -1.17933e-24 -5.54688e-25 2.60032e-08 -1.03829e-08 2.08529e-08)
(2.4468e-06 -1.71631e-22 -8.34273e-23 3.61135e-06 -1.51847e-06 2.85704e-06)
(0.000105538 -7.03431e-21 -3.77744e-21 0.000156407 -6.59345e-05 0.000122997)
(0.000481455 -2.99626e-20 1.86075e-21 0.000721638 -0.000313012 0.000565821)
(0.00132561 -1.20308e-19 -1.70166e-20 0.00201912 -0.000907213 0.00157111)
(0.00295328 -1.83759e-19 2.87951e-22 0.00465857 -0.00217739 0.00350309)
(0.00512511 -3.31211e-19 2.30474e-19 0.00847821 -0.00380312 0.00591308)
(0.00644996 -5.06196e-19 -8.6971e-20 0.0111871 -0.00469928 0.00689986)
(0.00443594 -8.87626e-19 -1.30309e-18 0.00316649 -0.00397508 0.00446176)
(0.0102233 -2.20258e-18 -5.3768e-18 0.00688736 -0.00560934 0.0152213)
(0.593234 1.58085e-17 3.41982e-16 0.193654 -0.203364 1.13594)
(0.0400846 -2.81704e-18 -1.74175e-17 0.0147369 -0.013733 0.0672653)
(0.00178463 -7.54875e-19 -1.14298e-18 0.00101833 -0.00051554 0.00258422)
(0.000111357 -3.43579e-20 -5.94156e-20 6.3081e-05 -4.47313e-05 0.000142417)
(1.1261e-05 -4.64256e-21 -8.37005e-21 9.59369e-06 -5.15496e-06 1.30085e-05)
(1.47885e-06 -3.05654e-22 -8.9358e-22 1.51025e-06 -8.77685e-07 1.61913e-06)
(7.75514e-07 -6.06884e-23 -7.24416e-23 1.07506e-06 -4.14916e-07 8.63816e-07)
(3.99351e-05 -2.51845e-21 -1.88327e-21 5.89493e-05 -2.44587e-05 4.6107e-05)
(0.000207917 -7.22715e-21 -3.32803e-21 0.000307653 -0.000126455 0.000238193)
(0.00062284 -3.93988e-20 -2.06391e-20 0.000946426 -0.000405068 0.000716677)
(0.00112701 -4.1686e-20 -4.52549e-20 0.00175965 -0.00074077 0.00127116)
(0.00177611 -8.87771e-20 2.03383e-20 0.00302392 -0.00122934 0.00188709)
(0.00228527 -1.83402e-19 1.43962e-20 0.00442121 -0.00148813 0.00219018)
(0.00284006 3.36423e-18 -5.65418e-19 0.00696299 -0.0038847 0.000966288)
(0.00405897 -5.68854e-18 -6.59282e-18 0.00571087 -0.00197907 0.00548688)
(0.684918 1.85383e-18 3.96124e-16 0.234681 -0.257474 1.28899)
(0.0733576 -1.84337e-17 -2.01468e-17 0.030402 -0.0260675 0.122214)
(0.00598649 -5.15509e-18 -1.19172e-18 0.00415047 -0.00202196 0.00825501)
(0.000596879 -4.48506e-19 -5.13845e-21 0.000434569 -0.000279329 0.0007445)
(8.53159e-05 -7.95016e-20 1.09699e-20 8.77482e-05 -4.6878e-05 9.92619e-05)
(1.48329e-05 -1.38264e-20 6.24046e-21 1.76544e-05 -1.04671e-05 1.72934e-05)
(3.28146e-06 -2.3117e-21 1.05228e-21 4.56452e-06 -2.33692e-06 3.65612e-06)
(2.18778e-05 -1.98683e-21 -6.4425e-22 3.24397e-05 -1.3469e-05 2.49426e-05)
(0.000106346 -7.20956e-21 4.16922e-21 0.000158533 -6.3639e-05 0.000119168)
(0.000333682 -1.81139e-20 -6.73975e-21 0.000512291 -0.000214258 0.000375974)
(0.000537606 -2.69024e-20 -3.22269e-21 0.000837133 -0.000331407 0.000588942)
(0.000956453 -1.09441e-19 8.00233e-20 0.00166058 -0.000664577 0.000989746)
(0.00169659 -2.16048e-19 6.70186e-20 0.00326353 -0.00117815 0.00173133)
(0.00306935 3.99628e-18 -1.03663e-18 0.00660813 -0.00341203 0.00236019)
(0.00348254 -5.70413e-18 -1.90511e-18 0.00813475 -0.0026218 0.00244957)
(0.761027 -5.32443e-18 4.49525e-16 0.270058 -0.296646 1.40308)
(0.0978216 -3.37184e-17 -3.39565e-17 0.0441365 -0.0346572 0.163143)
(0.0114283 -1.4493e-17 -1.14744e-18 0.00945738 -0.0044311 0.0150947)
(0.00153206 -1.6423e-18 2.80921e-19 0.00135883 -0.000830902 0.0018596)
(0.000278777 -2.94021e-19 1.28059e-19 0.000332778 -0.000174749 0.000325206)
(6.04559e-05 -6.10325e-20 4.3583e-20 8.14811e-05 -4.80151e-05 7.32605e-05)
(1.6487e-05 -1.31989e-20 9.53937e-21 2.59524e-05 -1.43834e-05 2.04769e-05)
(2.02693e-05 -4.47048e-21 1.82488e-21 3.23231e-05 -1.48194e-05 2.38014e-05)
(7.22703e-05 -1.1256e-20 1.02499e-20 0.000112525 -4.62381e-05 8.05151e-05)
(0.000216995 -2.24485e-20 6.15505e-22 0.000344448 -0.000144591 0.000241535)
(0.00033527 6.5277e-21 1.34832e-20 0.000534008 -0.00020815 0.000361325)
(0.000665518 -7.18591e-20 7.80004e-20 0.00118753 -0.000486365 0.000687735)
(0.00146732 -6.9292e-19 2.33597e-19 0.00280269 -0.00107526 0.001581)
(0.00282072 3.06267e-18 -1.05616e-18 0.00577649 -0.0029082 0.00252952)
(0.00310824 5.82427e-19 -8.34699e-19 0.00580435 -0.00281226 0.00254556)
(0.822205 -1.51183e-17 4.55033e-16 0.297586 -0.323025 1.4875)
(0.107886 -3.92262e-17 -5.3058e-17 0.0519684 -0.0370344 0.180056)
(0.0158936 -2.13749e-17 -3.05409e-18 0.0149373 -0.00662904 0.0202887)
(0.00275076 -3.27264e-18 5.6478e-19 0.00278865 -0.0016165 0.00327254)
(0.000647956 -6.71615e-19 2.50186e-19 0.0008543 -0.000442173 0.000754254)
(0.000174985 -1.59541e-19 8.27124e-20 0.000255524 -0.000150381 0.000215154)
(8.05926e-05 -4.62517e-20 2.91576e-20 0.000145778 -8.52985e-05 0.000111717)
(6.97754e-05 -3.72025e-21 3.54764e-21 0.000135754 -7.95052e-05 0.000103799)
(0.000117659 -2.72199e-20 6.12416e-21 0.000217939 -0.00011496 0.000160916)
(0.000228925 -6.01382e-20 3.15758e-20 0.000404658 -0.000194688 0.000282477)
(0.000322031 2.97225e-20 3.70221e-21 0.000550471 -0.000236099 0.000369934)
(0.000540022 3.69261e-20 1.89135e-20 0.000988159 -0.000418857 0.000571776)
(0.00116276 -6.78124e-19 2.52765e-19 0.00222466 -0.000855154 0.00125353)
(0.00258739 6.43091e-19 -4.04971e-19 0.00519806 -0.00246604 0.00250069)
(0.00408795 1.13889e-20 -3.68311e-20 0.00725336 -0.00393081 0.00361888)
(0.872403 -1.21241e-17 4.76037e-16 0.317859 -0.341372 1.55701)
(0.100686 -4.75573e-17 -7.38029e-17 0.0522405 -0.0325506 0.165699)
(0.0172612 -2.59494e-17 -4.39577e-18 0.0184619 -0.00786572 0.0211244)
(0.00343344 -3.86081e-18 7.65314e-19 0.00386082 -0.00214451 0.0040104)
(0.00108912 -1.1481e-18 4.36296e-19 0.00165659 -0.000820803 0.00128094)
(0.000460106 -1.84436e-19 1.4095e-20 0.000756235 -0.000474767 0.000656558)
(0.000750487 3.10723e-19 -1.36886e-19 0.00147871 -0.000942569 0.00114808)
(0.000844052 -4.66204e-19 3.34802e-19 0.00161958 -0.0011125 0.00141679)
(0.000841846 -3.59673e-19 2.43974e-20 0.00160209 -0.00109446 0.00140701)
(0.000700798 -9.98531e-20 7.92631e-20 0.00132111 -0.000836941 0.00111181)
(0.000592573 -1.10929e-19 7.07883e-20 0.00109082 -0.000611573 0.000847286)
(0.00059342 1.05046e-20 -1.92427e-20 0.00109277 -0.000516082 0.00071307)
(0.000944267 -3.6842e-19 1.76354e-19 0.00183588 -0.000703636 0.00100517)
(0.0024395 -1.16539e-18 2.70061e-19 0.00495199 -0.00218513 0.00240407)
(0.00642126 4.85672e-20 5.68688e-21 0.0108865 -0.00662487 0.00618852)
(0.90764 7.37266e-19 4.57284e-16 0.329774 -0.352562 1.61)
(0.0942324 -6.18722e-17 -8.43866e-17 0.0511159 -0.0291097 0.150143)
(0.0158148 -2.83484e-17 -6.59272e-19 0.0198077 -0.00813139 0.0180757)
(0.00336753 -2.49798e-18 2.68535e-19 0.00432431 -0.00243611 0.00392183)
(0.00227965 -1.74835e-18 7.84668e-19 0.00455866 -0.00227058 0.00287192)
(0.00327723 -1.04694e-18 1.33596e-19 0.00611105 -0.00444182 0.00465482)
(0.00668932 3.07496e-18 -1.12204e-18 0.0142919 -0.00868854 0.00979605)
(0.00678865 -4.63551e-18 3.4652e-18 0.0131922 -0.00922296 0.0110592)
(0.00404123 -3.34061e-18 1.31853e-18 0.00757581 -0.00506743 0.00674131)
(0.00186745 1.08256e-19 -2.73778e-19 0.00331869 -0.00218598 0.00312963)
(0.00126169 -1.82858e-19 4.33844e-20 0.00204604 -0.00133325 0.00217009)
(0.00125377 -1.08462e-19 -2.63776e-19 0.00169731 -0.00112874 0.00220867)
(0.00112362 2.31708e-19 7.28593e-20 0.00170682 -0.000840665 0.00151412)
(0.0029681 -2.15826e-18 8.25628e-19 0.00613096 -0.00264084 0.00293231)
(0.0130688 9.11785e-19 -3.52505e-19 0.0204105 -0.0139423 0.0137237)
(0.966756 -1.5686e-17 4.31241e-16 0.350254 -0.374317 1.71132)
(0.0858559 -8.44192e-17 -8.08368e-17 0.0487045 -0.02426 0.127496)
(0.0146769 -2.71118e-17 -1.54165e-18 0.0213385 -0.00847449 0.0159144)
(0.00414665 -1.26887e-18 3.22094e-19 0.00681571 -0.00360527 0.00490432)
(0.00617924 -4.29696e-18 1.49113e-18 0.0134399 -0.00643516 0.00773657)
(0.0114104 -3.97299e-19 -2.48088e-18 0.0237512 -0.0128921 0.0151869)
(0.0194862 1.12925e-18 5.81992e-19 0.0417848 -0.0216405 0.0262002)
(0.0180788 -1.26931e-17 5.73789e-18 0.0369558 -0.0205645 0.0256863)
(0.0104483 1.08386e-18 -3.70729e-18 0.0207166 -0.0121456 0.0156798)
(0.00517181 2.42764e-18 -1.91763e-18 0.00764704 -0.00531959 0.00935997)
(0.00534372 -1.78224e-18 -3.49405e-18 0.00498227 -0.00408895 0.0121019)
(0.00764662 2.19069e-18 -6.34487e-18 0.00578011 -0.00516638 0.0190311)
(0.00733798 4.6659e-19 -1.06418e-19 0.00497642 -0.00499725 0.0181677)
(0.00617636 -3.67792e-18 -4.64219e-18 0.0116009 -0.00590269 0.00703839)
(0.0260645 7.29753e-18 -3.65471e-18 0.0370839 -0.0277793 0.0290893)
(1.0108 -1.54548e-17 4.37132e-16 0.368755 -0.392281 1.77724)
(0.148031 -1.40885e-16 -1.5039e-16 0.0686287 -0.0418631 0.235276)
(0.0189778 -3.93222e-17 2.02103e-18 0.0304706 -0.0125174 0.0208439)
(0.00580284 -1.25553e-19 1.7114e-19 0.0108512 -0.00540646 0.00691212)
(0.00985987 -6.39054e-18 2.00322e-18 0.0209172 -0.00919986 0.0117387)
(0.0168688 -5.99044e-19 -2.995e-18 0.0338307 -0.0158833 0.0205672)
(0.0275279 2.51919e-19 1.36553e-18 0.0569984 -0.025862 0.0334346)
(0.029326 -1.13808e-17 5.4193e-18 0.0599294 -0.0285955 0.0366624)
(0.0244997 2.05921e-18 -5.18716e-18 0.048651 -0.0239191 0.031868)
(0.0195016 2.22652e-18 -5.03534e-18 0.0328983 -0.0184127 0.0290804)
(0.0174052 -2.79484e-18 -6.93479e-18 0.0210876 -0.0137648 0.0314791)
(0.018137 1.95317e-18 -1.063e-17 0.0150564 -0.0123119 0.0393309)
(0.0207965 -3.30469e-19 -5.8115e-18 0.0166569 -0.0138902 0.0463518)
(0.0216601 -9.4286e-19 -9.01572e-18 0.0241543 -0.0173906 0.0378967)
(0.0359492 1.07949e-17 -5.7334e-18 0.0465999 -0.0375415 0.0413735)
(0.998005 -2.74164e-18 3.8928e-16 0.371534 -0.387517 1.72505)
(0.340295 -7.86475e-17 -3.35748e-16 0.15556 -0.115403 0.644862)
(0.0668085 -1.05071e-16 -5.66758e-17 0.0645068 -0.0305174 0.0951852)
(0.0159776 -1.36685e-17 -6.87988e-18 0.0235795 -0.0120087 0.0196188)
(0.0121376 -8.46711e-18 2.51039e-18 0.0247002 -0.0108297 0.0143521)
(0.0166912 -2.46816e-18 -1.20859e-18 0.0323367 -0.0146735 0.0199045)
(0.0268988 1.71739e-18 -6.04941e-19 0.0538482 -0.0226284 0.0309809)
(0.0330215 -1.05418e-17 9.06405e-18 0.0663262 -0.0286158 0.0381142)
(0.0357998 4.08972e-18 -5.79487e-18 0.0720708 -0.0305938 0.0411262)
(0.0373466 5.23817e-18 -2.89141e-18 0.0719109 -0.032011 0.0442081)
(0.0399518 -8.83115e-18 1.41315e-18 0.0721826 -0.0341123 0.0500753)
(0.0410052 -2.23148e-17 2.09054e-18 0.0669019 -0.0356811 0.0570526)
(0.0377661 -3.15904e-17 5.42545e-18 0.0484835 -0.0321365 0.0603825)
(0.0345833 -6.87834e-18 -3.52936e-18 0.0343866 -0.028119 0.0582433)
(0.035275 1.45343e-17 -7.17991e-18 0.0393562 -0.0346984 0.0421238)
(0.91428 -5.23828e-18 2.89425e-16 0.348463 -0.354446 1.54256)
(0.981808 4.75422e-18 -5.91804e-16 0.319286 -0.407815 2.21644)
(0.252841 -1.16472e-16 -3.11412e-16 0.125522 -0.0934097 0.481445)
(0.0697716 -6.28191e-17 -8.02803e-17 0.0628459 -0.0348772 0.106506)
(0.026959 -2.11412e-17 -1.2783e-17 0.0391851 -0.0186672 0.0353287)
(0.0188144 -5.32051e-18 -2.17834e-18 0.0334421 -0.0153717 0.0227461)
(0.023111 -7.48449e-19 6.96372e-19 0.0431467 -0.0178238 0.0264832)
(0.0284193 -7.13965e-18 3.76599e-18 0.0536937 -0.0224724 0.032382)
(0.0334483 -4.38716e-18 -1.62154e-18 0.0641092 -0.0265407 0.0377412)
(0.0383259 -6.11875e-18 -7.84358e-19 0.0731753 -0.0309704 0.0432851)
(0.0419024 -6.90198e-18 -3.52328e-18 0.0793157 -0.0335782 0.0471093)
(0.0447329 -8.40233e-18 -3.45114e-18 0.0850202 -0.0361561 0.0506968)
(0.0437563 -5.95891e-18 -1.54756e-18 0.08116 -0.0344148 0.0503092)
(0.0449935 6.84854e-17 -3.95845e-17 0.0714071 -0.0423922 0.0585644)
(0.0242695 4.94287e-18 -4.01552e-17 0.01018 -0.020536 0.0339431)
(0.901911 2.78084e-18 2.58466e-16 0.376069 -0.347283 1.50886)
(2.56616 6.97406e-17 4.02048e-16 1.31875 -1.13161 5.94074)
(1.00653 -1.21566e-16 -1.46506e-16 0.614565 -0.423336 2.10142)
(0.452027 -1.27198e-16 -1.4668e-16 0.330799 -0.208755 0.842754)
(0.256743 -1.08575e-16 -9.14886e-17 0.23376 -0.146075 0.430929)
(0.16748 -8.52048e-17 -3.19048e-17 0.18583 -0.114163 0.248938)
(0.12585 -5.67075e-17 -7.75126e-18 0.163473 -0.102518 0.166129)
(0.0989551 -3.04047e-17 -2.55822e-18 0.147021 -0.0857331 0.122828)
(0.0803658 6.08911e-19 4.63173e-18 0.134331 -0.0709662 0.0947232)
(0.0684295 2.17408e-17 9.16874e-18 0.123398 -0.0592135 0.0772323)
(0.060966 2.11799e-17 1.39029e-17 0.114729 -0.0508811 0.0662787)
(0.0567759 1.06674e-18 2.04838e-17 0.109734 -0.0456849 0.0598813)
(0.0554198 -1.81715e-17 2.28718e-17 0.110605 -0.0431827 0.056267)
(0.0606252 6.27765e-17 -7.20504e-18 0.121883 -0.0489129 0.0610875)
(0.0535304 -6.42449e-19 -3.09741e-18 0.0869771 -0.0383039 0.0520027)
(0.490143 -1.30701e-18 1.65458e-16 0.349224 -0.00265586 0.549466)
(0.577698 -7.80605e-18 3.86024e-16 0.429297 -0.0159617 0.671136)
(0.554951 -1.35039e-17 2.5698e-16 0.425306 -0.0171303 0.594591)
(0.557555 -1.84535e-17 2.61771e-16 0.432914 -0.0215495 0.585151)
(0.566697 -2.33626e-17 2.78707e-16 0.444162 -0.025662 0.590181)
(0.612874 -4.85998e-17 4.87592e-16 0.483181 -0.048848 0.668745)
(0.587601 -5.17812e-17 3.25614e-16 0.471339 -0.0390112 0.600659)
(0.586624 -6.1738e-17 3.22383e-16 0.473908 -0.0426253 0.591197)
(0.591992 -7.28919e-17 3.31904e-16 0.480621 -0.0465461 0.594817)
(0.631446 -1.15597e-16 5.63333e-16 0.513462 -0.0771328 0.668231)
(0.609154 -8.52858e-17 3.71043e-16 0.502017 -0.0569619 0.609092)
(0.608852 -8.88582e-17 3.65942e-16 0.504153 -0.0591625 0.603714)
(0.637256 -1.47908e-16 5.96506e-16 0.529322 -0.0977807 0.659956)
(0.607217 -1.20989e-16 3.86481e-16 0.508959 -0.0735398 0.594646)
(0.600308 -1.17434e-16 3.63762e-16 0.505858 -0.0737491 0.578592)
(0.598471 -1.11428e-16 3.51281e-16 0.506586 -0.0744574 0.572386)
(0.623186 -1.52451e-16 5.77073e-16 0.529629 -0.114946 0.622792)
(0.595676 -9.59965e-17 3.68633e-16 0.511317 -0.082335 0.561868)
(0.589339 -8.47688e-17 3.45277e-16 0.508273 -0.0816571 0.548124)
(0.60432 -1.14979e-16 5.2958e-16 0.525132 -0.12639 0.579811)
(0.571756 -5.78931e-17 3.27788e-16 0.500438 -0.0952281 0.516712)
(0.560867 -4.79572e-17 3.00779e-16 0.493711 -0.0934629 0.496523)
(0.553415 -3.95756e-17 2.80213e-16 0.489839 -0.092406 0.482397)
(0.564978 -7.11997e-17 4.38111e-16 0.504745 -0.133324 0.508417)
(0.533591 -3.90153e-17 2.79586e-16 0.480701 -0.0940925 0.450143)
(0.522696 -2.99638e-17 2.55922e-16 0.473554 -0.0907073 0.431549)
(0.514714 -2.45935e-17 2.38517e-16 0.468636 -0.086613 0.418344)
(0.524238 -5.29198e-17 3.65739e-16 0.482296 -0.12389 0.440138)
(0.495751 -3.27578e-17 2.3575e-16 0.458541 -0.0845952 0.392044)
(0.486986 -3.09387e-17 2.18179e-16 0.45256 -0.0798473 0.378725)
(0.495122 -4.98671e-17 3.23175e-16 0.468302 -0.116281 0.393427)
(0.465172 -2.5268e-17 2.02304e-16 0.442322 -0.0794823 0.345004)
(0.454948 -1.56952e-17 1.83372e-16 0.435063 -0.0751101 0.330461)
(0.447237 -1.33946e-17 1.70192e-16 0.42985 -0.0711362 0.320838)
(0.457056 -2.12389e-17 2.55043e-16 0.448846 -0.104949 0.337392)
(0.428229 -1.52168e-17 1.64173e-16 0.42044 -0.0689055 0.299286)
(0.419562 -1.6111e-17 1.52442e-16 0.414143 -0.0644432 0.288665)
(0.427781 -2.02453e-17 2.20014e-16 0.434984 -0.0946962 0.297965)
(0.396616 -2.42474e-17 1.4397e-16 0.402805 -0.0597193 0.25885)
(0.38609 -2.25232e-17 1.31558e-16 0.393959 -0.0557789 0.247846)
(0.377958 -1.93735e-17 1.20703e-16 0.387937 -0.0527664 0.239429)
(0.387231 -4.40911e-19 1.69429e-16 0.411512 -0.0804399 0.248986)
(0.355312 -4.20609e-18 1.04742e-16 0.374321 -0.0501655 0.217425)
(0.345552 1.01132e-18 9.42814e-17 0.365958 -0.0466798 0.208109)
(0.338124 5.89768e-18 8.57605e-17 0.360556 -0.0437691 0.200707)
(0.349062 5.14916e-17 1.18338e-16 0.388297 -0.0674719 0.209103)
(0.318053 2.58167e-17 7.45629e-17 0.349479 -0.0401438 0.181556)
(0.309779 2.95315e-17 6.82284e-17 0.342542 -0.0365923 0.173976)
(0.319335 9.86796e-17 8.54831e-17 0.370768 -0.0559954 0.179833)
(0.287239 4.87114e-17 5.5077e-17 0.328014 -0.0303761 0.153323)
(0.278607 5.39153e-17 4.97877e-17 0.320328 -0.0267746 0.14606)
(0.2719 5.83443e-17 4.5954e-17 0.315224 -0.0232629 0.140018)
(0.284397 1.70687e-16 4.17069e-17 0.349681 -0.039688 0.149317)
(0.255826 8.58893e-17 3.58118e-17 0.30893 -0.0152394 0.125833)
(0.24988 8.70097e-17 3.15863e-17 0.304679 -0.0154278 0.121458)
(0.24591 8.89565e-17 2.78857e-17 0.303412 -0.0157527 0.118188)
(0.263018 2.59655e-16 -2.1492e-17 0.346888 -0.0444056 0.138818)
(0.234875 1.05889e-16 1.91133e-17 0.302516 -0.0177548 0.111249)
(0.228755 9.10049e-17 2.353e-17 0.296733 -0.0151074 0.106779)
(0.236271 2.244e-16 -3.55202e-17 0.323256 -0.0407276 0.128058)
(0.208644 8.16926e-17 1.31867e-17 0.278352 -0.0153341 0.0999947)
(0.200577 7.54475e-17 1.32399e-17 0.268685 -0.015465 0.0976213)
(0.192892 7.03089e-17 1.25792e-17 0.259787 -0.0158171 0.0957311)
(0.187631 1.60139e-16 -3.73555e-18 0.263026 -0.0399166 0.110149)
(0.158487 7.763e-17 4.75826e-18 0.215335 -0.0217581 0.092913)
(0.146611 5.05895e-17 1.96089e-17 0.199685 -0.0228954 0.0900756)
(0.127316 2.45968e-17 8.13323e-17 0.177405 -0.0411667 0.0919512)
(0.109374 -2.85592e-17 1.12686e-16 0.152705 -0.0294841 0.0847526)
(0.102367 -5.36528e-17 1.29305e-16 0.144091 -0.0330402 0.0845317)
(0.0970834 -7.56233e-17 1.43058e-16 0.137898 -0.0356151 0.0851048)
(0.0927432 -1.23275e-16 1.66384e-16 0.133547 -0.0500805 0.089213)
(0.0904143 -1.19068e-16 1.73252e-16 0.130784 -0.0417813 0.0903243)
(0.0904078 -1.30848e-16 1.76644e-16 0.130483 -0.0464726 0.0935281)
(0.0910113 -1.40041e-16 1.77654e-16 0.130638 -0.0498058 0.0989988)
(0.0927706 -1.65821e-16 1.80774e-16 0.132611 -0.0596095 0.104544)
(0.0928775 -1.54449e-16 1.876e-16 0.13237 -0.0518911 0.107383)
(0.0941476 -1.64171e-16 1.86303e-16 0.134151 -0.0567626 0.110358)
(0.0958797 -1.82466e-16 1.82123e-16 0.13631 -0.0644386 0.113664)
(0.0959034 -1.7108e-16 1.9177e-16 0.135673 -0.0576818 0.116719)
(0.0972245 -1.78742e-16 1.88412e-16 0.137439 -0.0625123 0.119596)
(0.098647 -1.81843e-16 1.89624e-16 0.139349 -0.0636065 0.122055)
(0.10011 -1.83439e-16 1.88493e-16 0.140419 -0.063662 0.124257)
(0.103119 -1.76481e-16 1.85065e-16 0.144362 -0.0662053 0.129833)
(0.104789 -1.78421e-16 1.83322e-16 0.144383 -0.0657787 0.13275)
(0.105711 -1.44227e-16 1.58367e-16 0.139767 -0.0650831 0.140597)
(0.108142 -1.28677e-16 1.48424e-16 0.142261 -0.0665845 0.145241)
(0.110106 -1.08105e-16 1.35178e-16 0.143512 -0.0671963 0.148566)
(0.113201 -8.76095e-17 1.23989e-16 0.146389 -0.0696338 0.154654)
(0.116366 -7.27269e-17 1.16305e-16 0.148972 -0.072385 0.161311)
(0.119659 -6.75382e-17 1.13775e-16 0.151688 -0.0751304 0.168134)
(0.123005 -7.28346e-17 1.16411e-16 0.154645 -0.0774304 0.174573)
(0.126133 -8.63627e-17 1.22786e-16 0.157107 -0.0788279 0.180069)
(0.129759 -1.08009e-16 1.328e-16 0.158859 -0.0796093 0.18616)
(0.133017 -1.40725e-16 1.44175e-16 0.156587 -0.0806802 0.199558)
(0.136771 -1.49134e-16 1.48487e-16 0.159445 -0.0831272 0.207111)
(0.140452 -1.62318e-16 1.54976e-16 0.162461 -0.0851434 0.213878)
(0.144047 -1.69897e-16 1.57002e-16 0.165245 -0.0867282 0.2202)
(0.147935 -1.78059e-16 1.58943e-16 0.168128 -0.0884708 0.227116)
(0.152512 -1.87692e-16 1.61768e-16 0.17196 -0.0909866 0.23558)
(0.157128 -1.98818e-16 1.64518e-16 0.175612 -0.0931863 0.243975)
(0.161865 -2.13351e-16 1.68106e-16 0.179157 -0.095159 0.252542)
(0.167004 -2.35272e-16 1.73484e-16 0.181731 -0.0965122 0.261946)
(0.173187 -2.63715e-16 1.94395e-16 0.181696 -0.0974906 0.280702)
(0.178138 -2.74454e-16 1.96709e-16 0.185152 -0.0996254 0.29019)
(0.182555 -2.89996e-16 1.99546e-16 0.187924 -0.10052 0.297691)
(0.187404 -2.99145e-16 1.97277e-16 0.191213 -0.101464 0.305943)
(0.192363 -3.02797e-16 1.90406e-16 0.194352 -0.101934 0.314247)
(0.197399 -3.00241e-16 1.79336e-16 0.197021 -0.101849 0.322738)
(0.202991 -2.90955e-16 1.65496e-16 0.199948 -0.101815 0.332566)
(0.20932 -2.75083e-16 1.49303e-16 0.203466 -0.102011 0.344086)
(0.21585 -2.56043e-16 1.32498e-16 0.206079 -0.101793 0.356528)
(0.224274 -2.48123e-16 1.20589e-16 0.209628 -0.101906 0.373063)
(0.232925 -2.03483e-16 9.39967e-17 0.211672 -0.101196 0.395079)
(0.240033 -1.9212e-16 8.23668e-17 0.215292 -0.102205 0.409502)
(0.246867 -1.75588e-16 6.65153e-17 0.21828 -0.101818 0.422636)
(0.254554 -1.62907e-16 5.40697e-17 0.221785 -0.101849 0.437972)
(0.262927 -1.51453e-16 4.28904e-17 0.22559 -0.101772 0.454897)
(0.271904 -1.42243e-16 3.30897e-17 0.229489 -0.101217 0.47321)
(0.281518 -1.32857e-16 2.45914e-17 0.233424 -0.10027 0.493303)
(0.292063 -1.22378e-16 1.75466e-17 0.237124 -0.0999931 0.516465)
(0.306166 -1.16386e-16 1.26923e-17 0.243856 -0.100814 0.547175)
(0.321825 -9.7801e-17 9.59121e-18 0.253633 -0.106568 0.581532)
(0.332994 -9.31602e-17 5.18069e-18 0.258899 -0.107849 0.606106)
(0.343954 -8.43428e-17 -1.75582e-18 0.263385 -0.10749 0.629875)
(0.355968 -7.62112e-17 -6.85735e-18 0.268798 -0.107712 0.65655)
(0.369315 -6.87748e-17 -1.07229e-17 0.274958 -0.108609 0.686668)
(0.383717 -6.27733e-17 -1.3337e-17 0.281307 -0.109438 0.719448)
(0.399744 -5.82295e-17 -1.48727e-17 0.289033 -0.11032 0.755749)
(0.416058 -5.46626e-17 -1.57638e-17 0.294157 -0.109595 0.794073)
(0.4366 -5.10834e-17 -1.43097e-17 0.30505 -0.110397 0.840224)
(0.456026 -6.5935e-17 4.32167e-18 0.319287 -0.120252 0.873036)
(0.472049 -6.60346e-17 6.92377e-18 0.325505 -0.121695 0.90992)
(0.490644 -6.54673e-17 9.45902e-18 0.335041 -0.124587 0.952208)
(0.509848 -6.38079e-17 1.17884e-17 0.343545 -0.126217 0.996092)
(0.528949 -6.12074e-17 1.60466e-17 0.35187 -0.127581 1.04003)
(0.549825 -5.96559e-17 2.30246e-17 0.362598 -0.131504 1.08825)
(0.572622 -5.82466e-17 3.1385e-17 0.373745 -0.137007 1.14159)
(0.596708 -5.62677e-17 4.1067e-17 0.383055 -0.143779 1.19942)
(0.629592 -5.44828e-17 5.35762e-17 0.405698 -0.15498 1.27297)
(0.652755 -5.16262e-17 5.0242e-17 0.414931 -0.168455 1.30397)
(0.668935 -4.77159e-17 5.93248e-17 0.41914 -0.168771 1.34261)
(0.691615 -4.26939e-17 6.95996e-17 0.43184 -0.175741 1.39707)
(0.714314 -3.53262e-17 8.02162e-17 0.440381 -0.180678 1.45311)
(0.739925 -2.54317e-17 9.17129e-17 0.451255 -0.186543 1.51574)
(0.767332 -6.29374e-18 1.02149e-16 0.461234 -0.190718 1.58322)
(0.767346 7.9188e-18 1.13564e-16 0.457831 -0.186161 1.58856)
(0.764816 1.18885e-17 1.29944e-16 0.452269 -0.184327 1.58934)
(0.760171 1.79992e-17 1.47459e-16 0.442994 -0.183931 1.58656)
(0.759382 2.13426e-17 1.68255e-16 0.452319 -0.190626 1.58303)
(0.795548 5.37115e-17 1.59837e-16 0.422984 -0.24209 1.69496)
(0.728444 6.04732e-17 1.52657e-16 0.374537 -0.212725 1.55022)
(0.638846 5.34825e-17 1.3761e-16 0.331023 -0.186465 1.35301)
(0.529063 4.38299e-17 1.20119e-16 0.269344 -0.148825 1.1072)
(0.406129 3.17012e-17 9.85933e-17 0.205677 -0.109087 0.82483)
(0.267929 1.49369e-17 7.39653e-17 0.132619 -0.0667136 0.503822)
(0.168613 4.8735e-19 5.27426e-17 0.0892591 -0.0414234 0.274676)
(0.142095 -4.12284e-18 4.37119e-17 0.0823931 -0.0378684 0.222642)
(0.115357 -5.18955e-18 3.36666e-17 0.0730031 -0.028783 0.171148)
(0.100138 -8.99189e-18 2.27627e-17 0.0645575 -0.0219499 0.127118)
(0.0714355 -1.01211e-17 1.35488e-17 0.0532153 -0.0112722 0.075754)
(0.0404739 -1.37012e-17 4.85825e-18 0.0447404 -0.00313335 0.0212377)
(0.0390142 -1.4801e-17 4.74438e-18 0.0448434 -0.00374069 0.0183866)
(0.0368963 -1.42857e-17 3.76061e-18 0.041837 -0.00116784 0.0148943)
(0.0360449 -1.35199e-17 2.85403e-18 0.0396599 0.00102736 0.0135822)
(0.0361893 -1.46601e-17 3.16915e-18 0.0397902 0.00030991 0.0135866)
(0.0359605 -1.3603e-17 2.30906e-18 0.0387174 0.00192895 0.0131507)
(0.0363112 -1.4819e-17 2.55031e-18 0.0393347 0.00131907 0.0132006)
(0.0361115 -1.43661e-17 2.03944e-18 0.0382591 0.00205109 0.0130422)
(0.0362667 -1.37808e-17 1.48592e-18 0.0380409 0.00287038 0.0130618)
(0.0364811 -1.51002e-17 1.66245e-18 0.038283 0.00225987 0.0130742)
(0.0365142 -1.47269e-17 1.29612e-18 0.0377742 0.00262936 0.0130506)
(0.0368462 -1.41707e-17 8.68906e-19 0.0379957 0.0031985 0.0131419)
(0.0370599 -1.55407e-17 1.00996e-18 0.038201 0.0027294 0.0132121)
(0.0374833 -1.46247e-17 5.86316e-19 0.0386529 0.00322048 0.0133094)
(0.0378609 -1.6087e-17 6.93092e-19 0.0392667 0.00270731 0.0134098)
(0.0380689 -1.58008e-17 4.49631e-19 0.0391794 0.00291742 0.0134539)
(0.0385481 -1.52798e-17 1.56456e-19 0.0397494 0.00332654 0.0135878)
(0.0387751 -1.68211e-17 2.9254e-19 0.0399535 0.00285685 0.0136787)
(0.0393129 -1.57875e-17 -3.44216e-20 0.0406628 0.00321211 0.0138228)
(0.0397057 -1.72764e-17 1.45907e-19 0.0412823 0.00258448 0.0139453)
(0.0399844 -1.69166e-17 9.73814e-21 0.0413431 0.00272859 0.0140191)
(0.0405518 -1.63442e-17 -2.64377e-19 0.0420997 0.00307701 0.0141777)
(0.0407938 -1.79205e-17 7.70614e-20 0.0423158 0.00247815 0.0142753)
(0.0410789 -1.75372e-17 -5.79408e-20 0.0423666 0.00260904 0.014355)
(0.0416705 -1.70755e-17 -3.54639e-19 0.0431594 0.00293775 0.0145234)
(0.041907 -1.88664e-17 5.59682e-20 0.0433439 0.00237843 0.0146408)
(0.0425507 -1.77591e-17 -3.28346e-19 0.0442535 0.00261391 0.0148315)
(0.0429598 -1.96046e-17 1.74947e-19 0.0448714 0.00191547 0.0149991)
(0.0433036 -1.93339e-17 -7.22272e-21 0.0450234 0.00204475 0.0150948)
(0.0439512 -1.88577e-17 -2.97093e-19 0.0459136 0.00238231 0.0152788)
(0.04419 -2.08885e-17 1.62686e-19 0.0460853 0.00171852 0.0154101)
(0.0448964 -1.97062e-17 -2.44071e-19 0.0471009 0.00204145 0.0156105)
(0.0453171 -2.17185e-17 3.06053e-19 0.0477302 0.001188 0.0157917)
(0.0456966 -2.13315e-17 1.31056e-19 0.0479257 0.00132784 0.0158932)
(0.0464088 -2.07816e-17 -1.93787e-19 0.0489274 0.00169997 0.0160866)
(0.0466595 -2.28979e-17 4.33287e-19 0.0491142 0.000796865 0.0162206)
(0.0470358 -2.2452e-17 2.57307e-19 0.0492709 0.000929361 0.0163193)
(0.0477688 -2.18515e-17 -1.08331e-19 0.0502899 0.00131228 0.0165133)
(0.0480139 -2.42111e-17 5.42717e-19 0.0504501 0.00044972 0.0166624)
(0.0488191 -2.28043e-17 7.84838e-21 0.0516225 0.000846651 0.0168737)
(0.0492623 -2.52387e-17 7.64586e-19 0.0522811 -0.000142259 0.017081)
(0.0497012 -2.48288e-17 5.4278e-19 0.052545 1.19537e-05 0.0171943)
(0.0504986 -2.42225e-17 1.50063e-19 0.0536683 0.000446447 0.0173965)
(0.0507485 -2.69219e-17 8.6201e-19 0.053827 -0.000574617 0.0175566)