/*--------------------------------*- C++ -*----------------------------------*\
| =========                 |                                                 |
| \\      /  F ield         | OpenFOAM: The Open Source CFD Toolbox           |
|  \\    /   O peration     | Version:  4.1                                   |
|   \\  /    A nd           | Web:      www.OpenFOAM.org                      |
|    \\/     M anipulation  |                                                 |
\*---------------------------------------------------------------------------*/
FoamFile
{
    version     2.0;
    format      ascii;
    class       volVectorField;
    location    "4";
    object      U;
}
// * * * * * * * * * * * * * * * * * * * * * * * * * * * * * * * * * * * * * //

dimensions      [0 1 -1 0 0 0 0];

internalField   nonuniform List<vector> 
6785
(
(1.26452e-14 -0.824341 16.1168)
(7.58181e-15 -6.74768 12.4792)
(-2.31878e-15 -4.83475 12.8785)
(4.60086e-15 -4.3692 12.6193)
(7.48565e-16 -3.76623 12.4417)
(-1.48753e-16 -3.31578 12.206)
(2.46107e-15 -2.94873 11.9379)
(6.88569e-16 -2.68218 11.6223)
(-6.48683e-16 -2.51499 11.25)
(1.40869e-15 -2.41282 10.8369)
(1.78741e-16 -2.34906 10.4211)
(-6.01024e-16 -2.50459 9.92464)
(5.61064e-16 -2.94534 9.21086)
(-5.59134e-17 -2.27179 8.60401)
(-2.36794e-16 0.955924 7.18597)
(2.18355e-14 -7.73307 26.0794)
(1.47788e-14 -16.5535 21.7721)
(-2.92368e-15 -11.4948 22.2514)
(6.12112e-15 -11.8579 20.7752)
(7.07911e-16 -10.7942 19.7973)
(5.90485e-16 -10.068 18.7203)
(2.78648e-15 -9.29019 17.6504)
(3.95329e-16 -8.53832 16.56)
(1.04784e-16 -7.83591 15.4904)
(1.37223e-15 -7.24492 14.5854)
(-2.75294e-16 -6.79803 13.9607)
(-2.58728e-16 -6.56686 13.2524)
(7.1674e-16 -6.52641 11.6797)
(-1.80339e-16 -5.79867 8.98531)
(1.8053e-16 -2.69355 4.45738)
(2.34103e-14 -10.6872 28.0097)
(1.25443e-14 -17.4258 24.421)
(-1.80589e-15 -11.8063 24.8452)
(5.39023e-15 -12.6201 22.6752)
(6.11156e-16 -10.9627 21.5746)
(1.48502e-15 -10.1353 20.1314)
(1.93182e-15 -9.14127 18.7959)
(2.60017e-16 -8.24841 17.4905)
(6.84074e-16 -7.37235 16.204)
(5.28874e-16 -6.31052 14.5808)
(-1.66707e-16 -4.66216 11.7982)
(-5.03324e-17 -2.36688 7.40371)
(-1.50455e-15 -0.346762 3.0484)
(-2.17106e-15 0.0692021 1.38259)
(-7.50675e-16 -0.744817 1.59128)
(2.38214e-14 -11.8759 27.8806)
(1.11364e-14 -17.4453 24.5145)
(-1.48543e-15 -11.9931 24.9554)
(5.14848e-15 -13.5546 22.2488)
(2.07118e-16 -11.4661 21.2961)
(2.05461e-15 -11.0172 19.5904)
(1.92528e-15 -10.0113 18.2386)
(-1.19228e-16 -9.28018 16.8728)
(1.11787e-15 -8.53291 15.613)
(7.45373e-16 -7.60743 14.0287)
(-1.50868e-17 -5.87365 11.1169)
(4.08933e-16 -2.7155 5.75282)
(5.44582e-17 2.00984 -1.1689)
(-4.49926e-16 4.44216 -4.25451)
(4.92611e-16 1.68996 -3.5295)
(2.22319e-14 -12.1307 26.8745)
(1.24071e-14 -17.6966 25.3725)
(-1.50665e-15 -12.469 24.9916)
(4.51739e-15 -14.0878 22.1217)
(6.61756e-16 -11.9658 21.2)
(1.64929e-15 -11.6473 19.3823)
(2.0953e-15 -10.6978 17.9633)
(3.23473e-16 -9.98825 16.5103)
(5.23411e-16 -9.29875 15.1603)
(8.38982e-16 -8.56675 13.7257)
(5.1557e-16 -7.47789 11.7038)
(1.9522e-16 -5.52158 8.48041)
(1.06955e-16 -2.72459 4.22739)
(-6.21327e-16 0.494997 0.905935)
(7.01711e-15 1.09889 -3.79575)
(2.05772e-14 -11.8953 25.1368)
(1.40021e-14 -17.5622 25.8917)
(-8.30087e-16 -12.7074 24.7088)
(3.56334e-15 -13.8731 21.7639)
(1.23498e-15 -11.8763 20.7933)
(1.33629e-15 -11.4961 18.9555)
(1.97719e-15 -10.5444 17.4864)
(9.38484e-16 -9.76116 15.9719)
(6.03443e-16 -9.00786 14.5161)
(5.98327e-16 -8.25469 13.0834)
(6.7797e-16 -7.42083 11.4717)
(6.28025e-16 -6.18143 9.40086)
(-1.52354e-16 -4.50048 6.52546)
(-4.54887e-16 -1.84201 3.14331)
(9.51471e-15 -0.0163528 -2.51262)
(2.01973e-14 -11.5089 23.3906)
(1.54139e-14 -17.0832 25.8593)
(1.02452e-15 -12.8054 24.2714)
(2.77415e-15 -13.4419 21.28)
(1.86069e-15 -11.659 20.2133)
(2.36199e-15 -11.1926 18.4378)
(2.17654e-15 -10.2752 16.9509)
(1.77767e-15 -9.46044 15.4387)
(2.21317e-15 -8.68474 13.9735)
(9.46868e-16 -7.91362 12.5789)
(1.18914e-15 -7.15002 11.1557)
(2.62768e-15 -6.21274 9.60134)
(1.28351e-15 -5.06646 7.53756)
(-1.4855e-15 -3.06111 4.78054)
(8.97811e-15 -0.964609 -0.681985)
(1.89492e-14 -11.1992 22.2413)
(1.59625e-14 -16.4664 25.346)
(1.84627e-15 -12.7366 23.7929)
(2.31033e-15 -13.0851 20.7862)
(2.37434e-15 -11.438 19.6639)
(2.5221e-15 -10.9599 17.948)
(1.97866e-15 -10.1041 16.5067)
(2.25784e-15 -9.36557 15.1087)
(2.61294e-15 -8.68075 13.7695)
(1.21169e-15 -7.97898 12.4754)
(1.35392e-15 -7.28943 11.1893)
(2.54228e-15 -6.52973 9.92415)
(2.32735e-15 -5.70121 8.46276)
(-6.31312e-16 -4.24244 6.57579)
(1.84385e-15 -2.07871 1.80033)
(1.88947e-14 -11.2061 21.8189)
(1.54054e-14 -15.7384 24.4585)
(5.5991e-16 -12.354 23.1862)
(2.55366e-15 -12.7767 20.1562)
(2.47541e-15 -10.9632 19.1333)
(8.48608e-16 -10.6535 17.3224)
(2.48797e-15 -9.71143 15.9958)
(2.676e-15 -9.12303 14.6087)
(7.03972e-16 -8.52049 13.309)
(1.40417e-15 -7.97929 12.0978)
(1.72886e-15 -7.50883 11.0847)
(4.19312e-16 -7.07935 10.3341)
(1.67372e-15 -6.6253 9.70293)
(3.06691e-16 -5.7098 8.72801)
(-2.66472e-15 -3.7061 5.01738)
(1.82003e-14 -11.7652 22.2211)
(1.25925e-14 -14.9348 23.7102)
(-6.20511e-16 -12.0244 22.6251)
(1.35096e-15 -12.3173 19.8195)
(1.84377e-15 -10.3939 18.7793)
(1.30421e-16 -9.99555 16.754)
(4.48012e-16 -8.64782 15.0509)
(1.21323e-15 -7.85566 13.0419)
(-1.23434e-15 -7.20399 11.6048)
(-1.53813e-15 -7.01406 10.7554)
(6.77711e-16 -7.01056 10.5257)
(-2.16319e-15 -7.28991 10.8925)
(-1.54362e-15 -7.51205 11.4668)
(5.94836e-16 -7.34819 11.3559)
(-4.34206e-15 -5.38698 8.551)
(1.72099e-14 -12.5722 23.2703)
(1.06242e-14 -15.0282 24.3277)
(-3.24197e-15 -12.1259 22.9026)
(1.6489e-15 -12.222 20.6332)
(1.46957e-15 -10.3425 19.4766)
(-2.16266e-15 -9.53394 17.2436)
(6.35994e-17 -7.63591 14.8152)
(-4.34072e-16 -6.12281 11.9699)
(-3.96611e-15 -4.86612 9.97999)
(-2.64064e-16 -4.33692 8.89268)
(-8.32908e-16 -4.43222 8.84305)
(-5.27096e-15 -5.41437 9.9942)
(-2.28246e-15 -6.90498 11.9051)
(-4.98995e-15 -7.91239 13.0155)
(-6.0812e-15 -5.92028 10.584)
(1.65226e-14 -12.472 22.8495)
(1.24512e-14 -16.5112 26.7736)
(-3.49166e-15 -12.9839 24.211)
(1.88323e-15 -12.8883 21.9823)
(1.26861e-15 -11.027 20.9013)
(-2.17915e-15 -10.2283 18.7049)
(4.57286e-17 -8.14563 16.2123)
(-3.87064e-16 -6.32566 13.1097)
(-2.31815e-15 -4.50257 10.6214)
(-5.28785e-16 -3.17869 8.57316)
(-1.17164e-15 -2.16649 6.95367)
(-2.54308e-15 -1.93781 6.2582)
(-1.70776e-15 -2.96267 7.30057)
(-4.12145e-15 -4.75387 9.49405)
(-3.58094e-15 -4.25617 8.79892)
(1.44004e-14 -11.1001 20.0357)
(1.51703e-14 -17.6154 28.4561)
(1.82534e-15 -15.1898 26.5914)
(1.5157e-15 -14.3722 23.8)
(1.42129e-15 -12.7405 22.3615)
(-5.77251e-16 -12.0432 20.4135)
(-7.74746e-17 -10.3895 18.3218)
(2.83506e-16 -8.71231 15.5645)
(-1.01989e-15 -6.7164 12.86)
(5.43605e-16 -4.93493 10.2837)
(9.3377e-16 -3.17475 7.71813)
(6.70554e-16 -1.54378 5.17196)
(-9.95904e-16 -0.217933 3.15824)
(-4.79568e-15 -0.158998 2.76568)
(-5.0484e-15 -1.2619 3.94272)
(1.15302e-14 -8.4298 14.3553)
(1.6898e-14 -16.5825 26.6581)
(6.12745e-15 -16.0955 26.8068)
(1.33994e-15 -14.4883 23.5537)
(7.6101e-16 -12.8527 21.6239)
(5.23408e-16 -12.2458 20.2052)
(8.22936e-16 -11.357 18.8824)
(5.16793e-16 -10.3729 17.0731)
(-6.78975e-16 -9.11609 15.0207)
(-1.86102e-15 -7.72942 12.7972)
(-3.23941e-15 -6.17195 10.3921)
(-3.72805e-15 -4.36982 7.74913)
(-4.17045e-15 -2.15219 4.6548)
(-5.3462e-15 0.58198 0.95243)
(6.30229e-15 1.18673 -1.11772)
(7.96263e-15 -6.0269 10.945)
(1.80516e-14 -16.029 25.2769)
(1.46113e-14 -19.1884 28.8549)
(8.31469e-15 -19.0668 27.1378)
(3.55204e-15 -17.4991 23.9388)
(1.41021e-15 -15.8071 20.813)
(7.76173e-16 -14.1696 18.1624)
(1.24306e-15 -12.6934 16.0212)
(4.05233e-15 -11.2992 14.1047)
(9.58705e-15 -10.0438 12.5087)
(1.39154e-14 -8.89258 11.0797)
(1.57666e-14 -7.69808 9.54592)
(1.49155e-14 -6.25497 7.72355)
(1.34088e-14 -4.19557 5.28602)
(2.85722e-14 -1.39251 1.24147)
(-1.31787e-16 -0.019115 -0.0423824)
(-1.64251e-15 0.116491 -0.63288)
(-6.66631e-16 0.140008 -0.35683)
(-2.67456e-16 0.187097 -0.152623)
(-1.55305e-16 0.161845 -0.0312922)
(-1.22274e-15 0.271989 -0.303909)
(-6.73062e-16 0.272952 -0.266998)
(-1.19335e-16 0.312471 -0.190006)
(-5.46072e-17 0.291398 -0.0800662)
(1.29984e-15 0.383494 -0.230047)
(1.0896e-15 0.399567 -0.160318)
(1.05293e-15 0.403962 -0.108158)
(4.18491e-16 0.520728 -0.241785)
(1.06831e-15 0.475821 -0.150469)
(1.87476e-15 0.532375 -0.108824)
(2.18677e-15 0.490697 -0.0547664)
(2.34581e-15 0.623087 -0.119568)
(1.85935e-15 0.576546 -0.0297623)
(1.6052e-15 0.583323 0.00425412)
(1.38776e-15 0.712034 -0.015153)
(9.32493e-16 0.60853 0.0249266)
(7.33422e-16 0.674784 0.0481788)
(5.71348e-16 0.607356 0.0589864)
(2.75289e-16 0.790708 0.0837927)
(2.35736e-16 0.637542 0.103549)
(3.42529e-16 0.693683 0.115264)
(-2.99231e-17 0.634316 0.102442)
(-4.14052e-16 0.772411 0.156553)
(-2.07275e-16 0.648683 0.141204)
(-7.07528e-17 0.661314 0.124183)
(-4.53829e-17 0.756936 0.214683)
(2.65859e-16 0.610985 0.171989)
(1.49852e-16 0.666048 0.161679)
(-4.80713e-17 0.604656 0.126153)
(-4.42293e-16 0.722223 0.225561)
(-5.67734e-16 0.570203 0.168488)
(-6.44479e-16 0.585865 0.129738)
(-1.05477e-15 0.645243 0.243546)
(-6.96144e-16 0.498741 0.169661)
(-6.03006e-16 0.542124 0.134435)
(-3.15631e-16 0.493434 0.0789884)
(-2.69756e-16 0.589388 0.176838)
(-3.91431e-17 0.423556 0.111454)
(3.77181e-17 0.461991 0.0653526)
(3.67e-17 0.428427 0.00615531)
(2.2419e-16 0.507684 0.0909327)
(-2.17386e-16 0.358464 0.0462021)
(-3.31141e-16 0.382891 -0.00963015)
(-4.10498e-16 0.410656 0.0749305)
(6.15382e-16 0.302196 0.0246552)
(5.28998e-16 0.331731 -0.0569989)
(2.45395e-16 0.312918 -0.12556)
(5.07433e-16 0.403322 -0.0591753)
(4.9062e-16 0.275118 -0.136041)
(2.9937e-16 0.324267 -0.273611)
(1.15631e-15 0.306223 -0.328809)
(1.96618e-15 0.457125 -0.325393)
(1.49228e-15 0.285663 -0.329092)
(7.68456e-17 0.349329 -0.352878)
(2.81751e-15 0.295406 -0.792357)
(3.49266e-15 0.176023 -0.680655)
(3.3943e-15 0.216793 -0.674945)
(4.27807e-15 0.276121 -0.739285)
(1.82967e-14 0.440623 -2.24215)
(8.20285e-15 -0.171867 -1.3135)
(8.9025e-15 0.180202 -1.5075)
(-1.60711e-15 -0.19756 -0.758529)
(-1.56425e-14 -0.578787 1.586)
(-1.78552e-14 -0.638654 2.13455)
(-1.8131e-14 -0.68557 2.47131)
(-2.57008e-14 -1.35009 4.45092)
(-2.48495e-14 -1.97925 4.57913)
(-2.53629e-14 -2.26439 4.57924)
(-2.70524e-14 -2.31016 4.74259)
(-4.36801e-14 -3.8704 7.70867)
(-3.70745e-14 -4.13003 6.60781)
(-4.00045e-14 -4.21989 6.99125)
(-5.82363e-14 -6.36449 10.477)
(-4.47837e-14 -6.30516 8.29682)
(-4.64985e-14 -6.60497 8.81333)
(-4.86957e-14 -7.24581 10.1264)
(-4.70393e-14 -7.13464 9.86047)
(-4.54169e-14 -7.26839 10.0377)
(-5.45511e-14 -8.7212 12.5484)
(-3.98367e-14 -8.1277 11.0312)
(-3.65382e-14 -8.36105 11.4862)
(-3.24511e-14 -8.35672 11.4348)
(-2.9196e-14 -8.4269 11.3312)
(-2.74985e-14 -8.49685 11.2608)
(-2.75241e-14 -8.55106 11.2317)
(-2.88578e-14 -8.58286 11.3559)
(-3.10337e-14 -8.68005 11.5862)
(-4.48598e-14 -9.40156 13.0929)
(-3.80053e-14 -9.38641 12.3031)
(-4.06169e-14 -9.48353 12.4413)
(-4.10657e-14 -9.45778 12.5295)
(-4.12913e-14 -9.57856 12.823)
(-4.18791e-14 -9.55395 12.8293)
(-4.23811e-14 -9.61373 12.9598)
(-4.32523e-14 -9.61961 13.1134)
(-4.45489e-14 -9.69921 13.3303)
(-5.52353e-14 -10.411 15.1933)
(-4.64095e-14 -10.3262 14.5308)
(-4.81798e-14 -10.3948 14.9237)
(-4.80804e-14 -10.4061 15.2339)
(-4.73148e-14 -10.4373 15.6228)
(-4.55998e-14 -10.4701 16.0811)
(-4.31315e-14 -10.5492 16.5754)
(-3.95803e-14 -10.5693 16.9468)
(-3.56477e-14 -10.6323 17.3816)
(-3.19836e-14 -10.7669 17.8145)
(-2.89179e-14 -11.0314 19.6802)
(-2.15784e-14 -11.0509 18.8831)
(-1.75991e-14 -11.1232 19.3885)
(-1.50859e-14 -11.1507 19.6685)
(-1.26592e-14 -11.2236 20.0099)
(-1.06112e-14 -11.2533 20.3295)
(-9.00299e-15 -11.341 20.7857)
(-7.16059e-15 -11.3763 21.0558)
(-5.58283e-15 -11.5351 21.2404)
(-2.55923e-15 -10.9964 21.5787)
(-1.42563e-15 -11.1869 20.7029)
(1.7622e-16 -11.2291 21.0154)
(1.2386e-15 -11.2806 21.208)
(2.30064e-15 -11.2723 21.2169)
(3.06225e-15 -11.3261 21.2741)
(3.67314e-15 -11.3402 21.318)
(4.06904e-15 -11.3329 21.408)
(4.39002e-15 -11.5602 21.74)
(5.05773e-15 -9.65169 19.8158)
(4.78173e-15 -10.4559 19.9779)
(4.93964e-15 -10.3931 19.8245)
(5.04289e-15 -10.3759 19.7241)
(5.37553e-15 -10.3948 19.8239)
(5.48535e-15 -10.3351 19.5861)
(5.54847e-15 -10.2473 19.2241)
(5.63478e-15 -10.2174 18.8445)
(5.75204e-15 -10.2439 18.3889)
(6.05956e-15 -7.45657 14.7627)
(6.54582e-15 -8.65595 16.6062)
(6.62797e-15 -8.36174 15.9475)
(6.83113e-15 -8.36275 15.6654)
(7.07366e-15 -8.21775 15.2904)
(7.42362e-15 -8.12089 14.9841)
(8.41245e-15 -7.98276 14.8255)
(7.91579e-15 -7.79061 14.2186)
(7.85293e-15 -7.66171 13.661)
(7.52829e-15 -7.49343 12.883)
(5.01248e-15 -3.76534 6.9155)
(6.95281e-15 -5.72914 10.3217)
(6.44064e-15 -5.16247 8.90445)
(5.93494e-15 -5.25901 8.22649)
(5.30543e-15 -4.91311 7.09135)
(4.5109e-15 -4.85191 5.78348)
(3.20071e-15 -4.64389 3.65555)
(2.04009e-15 -4.21101 1.73391)
(2.17157e-15 -4.23004 1.75666)
(4.25397e-16 -3.25723 -1.01983)
(1.66595e-15 -3.58742 1.01186)
(1.25794e-15 -3.46245 0.25529)
(-4.72781e-16 -2.35658 -1.78999)
(5.68986e-16 -4.07321 -0.937514)
(1.84158e-16 -3.03686 -0.976949)
(1.66086e-16 -2.78044 -0.600983)
(1.51057e-16 -3.51526 -0.851985)
(1.0726e-16 -2.38471 -0.487414)
(1.27505e-16 -3.19478 -0.725245)
(-4.20396e-17 -2.85331 -0.505968)
(-6.58465e-17 -2.30397 -0.353231)
(-9.88491e-17 -2.90112 -0.511373)
(-1.09661e-16 -2.63163 -0.367401)
(-9.06736e-17 -2.27982 -0.248635)
(-1.26758e-16 -3.04454 -0.340511)
(-8.6628e-17 -2.06277 -0.19308)
(-1.16057e-16 -2.79422 -0.283371)
(-7.19733e-17 -2.4824 -0.212536)
(8.24627e-19 -2.18616 -0.141969)
(7.09759e-17 -2.93604 -0.197934)
(1.16352e-16 -1.98408 -0.109561)
(3.09338e-16 -2.75892 -0.159193)
(4.70094e-16 -2.54859 -0.135324)
(4.97307e-16 -2.0555 -0.0884995)
(8.5983e-16 -2.65082 -0.136528)
(8.49977e-16 -2.46159 -0.12045)
(7.2803e-16 -2.14128 -0.076093)
(1.04845e-15 -2.91465 -0.110778)
(7.75055e-16 -1.97885 -0.0631099)
(1.13384e-15 -2.71396 -0.0899376)
(9.13632e-16 -2.45126 -0.093447)
(7.41704e-16 -2.15866 -0.0598597)
(1.01367e-15 -2.93218 -0.0883229)
(7.62679e-16 -1.98204 -0.0504331)
(1.19965e-15 -2.7758 -0.0694918)
(1.08405e-15 -2.59133 -0.0848528)
(9.05977e-16 -2.08288 -0.0548933)
(1.42693e-15 -2.70152 -0.0880333)
(1.32958e-15 -2.52369 -0.094912)
(1.0919e-15 -2.19232 -0.0592581)
(1.54585e-15 -2.99597 -0.0868354)
(1.1302e-15 -2.03241 -0.051727)
(1.64902e-15 -2.79354 -0.0707392)
(1.35514e-15 -2.53057 -0.0847989)
(1.05183e-15 -2.22507 -0.0535028)
(1.33681e-15 -3.02864 -0.0790576)
(8.62711e-16 -2.04605 -0.0454446)
(1.25422e-15 -2.86834 -0.0608129)
(9.80422e-16 -2.68098 -0.0798689)
(7.7584e-16 -2.15433 -0.0501061)
(1.16235e-15 -2.79784 -0.0810931)
(1.0178e-15 -2.61728 -0.0876355)
(8.59825e-16 -2.27486 -0.0505704)
(1.23809e-15 -3.113 -0.0739946)
(9.77057e-16 -2.11563 -0.0381713)
(1.48555e-15 -2.91135 -0.0467413)
(1.26253e-15 -2.64863 -0.0544673)
(1.03878e-15 -2.33434 -0.0213853)
(1.48249e-15 -3.18494 -0.0290218)
(1.08092e-15 -2.16392 0.00217949)
(1.67982e-15 -3.03921 0.0200108)
(1.49059e-15 -2.86524 0.00971182)
(1.26872e-15 -2.31602 0.0355056)
(1.92862e-15 -3.02026 0.057332)
(1.74307e-15 -2.85581 0.0578927)
(1.49455e-15 -2.50366 0.0840672)
(2.08494e-15 -3.4435 0.125371)
(1.60052e-15 -2.37729 0.129006)
(2.46659e-15 -3.28247 0.22171)
(2.20752e-15 -3.04079 0.209477)
(1.81571e-15 -2.7121 0.214466)
(2.57145e-15 -3.72648 0.314343)
(1.94301e-15 -2.59064 0.28076)
(2.99706e-15 -3.65606 0.461431)
(2.68364e-15 -3.5235 0.428585)
(2.32667e-15 -2.89644 0.403637)
(3.47534e-15 -3.81401 0.624057)
(3.10387e-15 -3.68229 0.589396)
(2.60478e-15 -3.28271 0.544117)
(3.68836e-15 -4.5767 0.787879)
(2.84189e-15 -3.29747 0.654673)
(4.48188e-15 -4.39313 1.09206)
(4.72294e-55 0.147767 0.17273)
(-5.16483e-54 -0.167204 0.14394)
(-1.52605e-53 -0.503338 0.125745)
(-3.41775e-53 -0.849796 0.104629)
(-6.11767e-53 -1.16022 0.076336)
(-9.01203e-53 -1.43572 0.0539989)
(-1.19763e-52 -1.66901 0.02877)
(-1.50147e-52 -1.83722 0.000574617)
(-1.62581e-52 -1.92829 -0.012696)
(-1.47574e-52 -2.02817 -0.0101825)
(-1.1559e-52 -2.08808 -0.0350001)
(-6.89508e-53 -2.02984 -0.055661)
(-3.77457e-53 -1.99623 -0.0765294)
(-1.68367e-53 -1.8873 -0.106038)
(-6.81686e-54 -1.8655 -0.0971284)
(-2.64952e-54 -1.72469 -0.149491)
(-9.9844e-55 -1.40315 -0.110803)
(-1.25647e-54 -1.27041 -0.091896)
(-8.17107e-51 -1.07759 -0.0816484)
(-3.03308e-48 -0.802599 -0.0788909)
(1.3561e-43 -0.383975 -0.0843918)
(-3.18272e-41 0.891146 -0.197025)
(8.03904e-39 1.04332 -0.150374)
(1.4545e-37 1.34003 -0.124306)
(-1.08214e-36 1.52187 -0.0614243)
(-2.56334e-34 1.62747 -0.0141978)
(-1.73878e-33 1.65764 0.16587)
(1.61269e-31 1.52552 0.283907)
(5.44544e-31 1.42149 0.236273)
(-2.91895e-29 1.25673 0.2052)
(-1.69003e-28 1.06906 0.144533)
(5.89544e-27 0.924263 0.119519)
(5.82291e-26 0.804007 0.119231)
(-8.05569e-25 0.674883 0.108369)
(-8.22653e-24 0.530484 0.103275)
(6.22574e-23 0.515935 0.132366)
(3.83184e-22 -0.333381 0.0286306)
(1.66436e-21 -0.545793 0.0324994)
(-2.18402e-19 -0.644024 0.0476357)
(-1.15124e-18 -0.601536 0.0971099)
(-2.06812e-18 -0.675879 0.229112)
(-2.09079e-18 -0.927759 0.397106)
(-2.10628e-18 -1.03278 0.455365)
(-1.71215e-18 -1.04436 0.516392)
(-1.09717e-19 -1.10159 0.574436)
(-6.22258e-19 -1.08702 0.63124)
(-9.17872e-19 -0.951633 0.675356)
(-1.14446e-18 -0.689311 0.719225)
(-1.3027e-18 -0.345723 0.770327)
(-1.52451e-18 0.0237539 0.833391)
(-4.03279e-18 0.397956 0.880754)
(-1.63199e-17 0.754758 0.914583)
(-5.35978e-17 1.09881 0.928493)
(-7.25212e-17 1.4299 0.92301)
(-6.85634e-17 1.74547 0.900354)
(-7.9571e-17 2.04105 0.862256)
(-9.01087e-17 2.31225 0.810641)
(-1.10609e-16 2.55427 0.746886)
(-1.23483e-16 2.76269 0.671283)
(-1.28723e-16 2.93266 0.583766)
(-1.41307e-16 3.06079 0.483776)
(-1.61007e-16 3.14539 0.368556)
(-1.84782e-16 3.18273 0.234969)
(-2.12505e-16 3.17151 0.0766465)
(-2.24408e-16 3.09414 -0.107567)
(-2.09333e-16 2.94844 -0.3173)
(-1.69433e-16 2.70388 -0.543249)
(-1.09664e-16 2.36753 -0.772644)
(-5.0142e-17 1.89862 -0.971607)
(3.15522e-18 1.34218 -1.10094)
(6.78203e-17 0.682051 -1.10578)
(2.07761e-16 0.0187967 -0.998873)
(4.58566e-16 -0.556017 -0.735054)
(3.37885e-16 -1.20899 -0.497799)
(1.04635e-16 -2.11771 -0.276019)
(1.94516e-17 -2.48861 -0.239875)
(2.06034e-19 -2.91055 0.0635115)
(-6.87813e-18 -2.61276 0.0595834)
(1.32526e-15 -3.43606 1.23182)
(2.00651e-54 0.144846 0.162342)
(-5.01703e-54 -0.162163 0.154385)
(-1.55811e-53 -0.486461 0.136136)
(-3.44225e-53 -0.817557 0.11633)
(-6.13692e-53 -1.12039 0.0863418)
(-9.02569e-53 -1.3934 0.0620918)
(-1.19839e-52 -1.62418 0.0358674)
(-1.50158e-52 -1.79097 0.00713704)
(-1.62581e-52 -1.88186 -0.00719637)
(-1.47591e-52 -1.979 -0.00610548)
(-1.15654e-52 -2.0356 -0.0319596)
(-6.90779e-53 -1.97555 -0.0534868)
(-3.78493e-53 -1.93913 -0.075055)
(-1.69216e-53 -1.82968 -0.105752)
(-6.85172e-54 -1.80499 -0.0985099)
(-2.34592e-54 -1.66462 -0.152078)
(-2.24538e-53 -1.3428 -0.11664)
(5.07065e-52 -1.20602 -0.100161)
(-5.89997e-49 -1.01157 -0.0934549)
(-4.72176e-46 -0.729167 -0.0987896)
(1.64625e-42 -0.272384 -0.167543)
(-8.98739e-41 0.638796 -0.253239)
(2.0634e-38 1.03224 -0.159599)
(3.50085e-37 1.31775 -0.0927443)
(-3.27755e-37 1.49913 -0.00476667)
(-3.47947e-34 1.58953 0.0678146)
(-2.04622e-33 1.61076 0.229104)
(1.37778e-31 1.51342 0.318965)
(5.83094e-31 1.43151 0.255778)
(-2.60867e-29 1.2679 0.204666)
(-1.91664e-28 1.07843 0.145902)
(5.81797e-27 0.924805 0.121408)
(6.84014e-26 0.801229 0.10907)
(-1.04032e-24 0.675094 0.0947497)
(-1.20458e-23 0.52015 0.102033)
(1.66569e-22 0.338083 0.151299)
(1.11233e-21 -0.297016 0.0455189)
(1.45435e-21 -0.5232 0.0364123)
(-3.4833e-19 -0.631127 0.0457702)
(-1.6432e-18 -0.613331 0.0969261)
(-2.17744e-18 -0.708675 0.232258)
(-2.08299e-18 -0.95221 0.398819)
(-2.08688e-18 -1.04406 0.45639)
(-1.65261e-18 -1.05665 0.516717)
(-1.07585e-19 -1.11413 0.575262)
(-6.34103e-19 -1.09823 0.63232)
(-9.23444e-19 -0.961735 0.677303)
(-1.14194e-18 -0.701153 0.727615)
(-1.24763e-18 -0.359058 0.797013)
(-1.48877e-18 0.014632 0.879295)
(-4.64702e-18 0.391636 0.940501)
(-1.96969e-17 0.753248 0.983925)
(-6.12886e-17 1.10297 1.00516)
(-6.96933e-17 1.43921 1.0045)
(-6.61563e-17 1.75927 0.983999)
(-7.87965e-17 2.05874 0.945323)
(-9.16689e-17 2.33331 0.89043)
(-1.16357e-16 2.57843 0.820858)
(-1.21225e-16 2.78994 0.737229)
(-1.27633e-16 2.96315 0.639812)
(-1.43428e-16 3.09509 0.528305)
(-1.62898e-16 3.18451 0.400005)
(-1.93812e-16 3.22824 0.252228)
(-2.26117e-16 3.22478 0.0781525)
(-2.37137e-16 3.15564 -0.123346)
(-2.26505e-16 3.01699 -0.353443)
(-1.91937e-16 2.77636 -0.601314)
(-1.36417e-16 2.43707 -0.854308)
(-8.86239e-17 1.9543 -1.07402)
(-4.80953e-17 1.36994 -1.21619)
(1.26601e-17 0.676426 -1.21862)
(1.40933e-16 -0.022956 -1.08448)
(4.2902e-16 -0.624818 -0.765792)
(3.52746e-16 -1.27059 -0.514297)
(1.19135e-16 -2.15393 -0.285821)
(2.54108e-17 -2.53476 -0.241428)
(2.49936e-19 -2.95124 0.0671026)
(6.66849e-18 -2.73325 0.0766576)
(1.40398e-15 -3.5797 1.11335)
(5.49806e-54 0.147755 0.140587)
(-4.72777e-54 -0.162348 0.149218)
(-1.55621e-53 -0.490274 0.135904)
(-3.48917e-53 -0.823094 0.123278)
(-6.1541e-53 -1.12507 0.0947526)
(-9.04041e-53 -1.39822 0.0704384)
(-1.19957e-52 -1.62844 0.04424)
(-1.50193e-52 -1.79695 0.0155512)
(-1.62579e-52 -1.892 0.000674522)
(-1.47597e-52 -1.9882 0.000753558)
(-1.15711e-52 -2.04258 -0.0261765)
(-6.92084e-53 -1.98413 -0.0488849)
(-3.79641e-53 -1.94731 -0.0716977)
(-1.70144e-53 -1.84224 -0.104073)
(-6.84528e-54 -1.81492 -0.0990785)
(-6.49819e-54 -1.67849 -0.154677)
(7.6548e-53 -1.3679 -0.123342)
(-1.19544e-51 -1.22837 -0.109692)
(-2.3224e-48 -1.03332 -0.107369)
(-2.36676e-45 -0.751152 -0.120175)
(4.40272e-42 -0.273666 -0.205159)
(-8.23282e-41 0.682105 -0.231168)
(5.51489e-38 1.03639 -0.140733)
(7.94166e-37 1.30544 -0.0458909)
(2.8543e-37 1.48647 0.0382027)
(-3.85113e-34 1.57425 0.128247)
(-1.41422e-33 1.59731 0.27383)
(1.20502e-31 1.51701 0.345193)
(4.42903e-31 1.44565 0.270464)
(-2.35159e-29 1.28045 0.207096)
(-1.72764e-28 1.08784 0.140491)
(5.44303e-27 0.93176 0.119069)
(6.34845e-26 0.807558 0.0972293)
(-1.18548e-24 0.680288 0.0737796)
(-1.39571e-23 0.553302 0.0874973)
(2.71388e-22 0.321093 0.128973)
(2.1293e-21 -0.29176 0.0485929)
(-9.19295e-22 -0.531074 0.0370233)
(-5.57728e-19 -0.64583 0.0422235)
(-1.97576e-18 -0.641374 0.0966225)
(-2.33506e-18 -0.7442 0.235863)
(-2.0748e-18 -0.978326 0.399152)
(-2.0548e-18 -1.05857 0.455098)
(-1.55801e-18 -1.07065 0.513402)
(-8.67911e-20 -1.12731 0.571802)
(-6.45103e-19 -1.10973 0.630041)
(-9.24717e-19 -0.972796 0.68092)
(-1.12579e-18 -0.715764 0.746747)
(-1.17014e-18 -0.380111 0.831253)
(-1.60028e-18 -0.00959035 0.916731)
(-6.02459e-18 0.37471 0.986992)
(-2.40158e-17 0.741083 1.03636)
(-6.4809e-17 1.09527 1.06205)
(-6.98366e-17 1.43584 1.06424)
(-6.69179e-17 1.75989 1.04482)
(-8.23523e-17 2.06309 1.00542)
(-9.78943e-17 2.34107 0.947993)
(-1.214e-16 2.58937 0.874198)
(-1.23128e-16 2.80389 0.784894)
(-1.30443e-16 2.98001 0.680565)
(-1.48881e-16 3.11499 0.561109)
(-1.69875e-16 3.20776 0.423712)
(-2.04543e-16 3.25541 0.265934)
(-2.36752e-16 3.25643 0.0806206)
(-2.48423e-16 3.19169 -0.133138)
(-2.35165e-16 3.05665 -0.377664)
(-2.0064e-16 2.81712 -0.640921)
(-1.47243e-16 2.47488 -0.91103)
(-9.80654e-17 1.98083 -1.14619)
(-6.84876e-17 1.37678 -1.29994)
(-1.6088e-17 0.654652 -1.30473)
(1.04231e-16 -0.0763727 -1.16016)
(3.93622e-16 -0.684398 -0.813198)
(3.72103e-16 -1.32044 -0.536019)
(1.38013e-16 -2.18231 -0.297206)
(3.26837e-17 -2.57208 -0.243497)
(5.66325e-19 -2.98685 0.0667907)
(2.43197e-17 -2.85184 0.0897818)
(1.4241e-15 -3.61244 0.957699)
(1.3484e-53 0.145725 0.118942)
(-5.0648e-54 -0.162249 0.126618)
(-1.44811e-53 -0.489679 0.122068)
(-3.55461e-53 -0.824194 0.122941)
(-6.17923e-53 -1.1265 0.0994641)
(-9.04704e-53 -1.4007 0.077314)
(-1.20055e-52 -1.63114 0.0525032)
(-1.50257e-52 -1.80154 0.0247155)
(-1.62587e-52 -1.90047 0.0100218)
(-1.47584e-52 -1.99614 0.00971681)
(-1.15735e-52 -2.04865 -0.0179902)
(-6.9304e-53 -1.99135 -0.041968)
(-3.80624e-53 -1.95425 -0.0664447)
(-1.7112e-53 -1.85301 -0.10086)
(-7.61145e-54 -1.82386 -0.0984179)
(4.9361e-54 -1.69084 -0.156443)
(3.67226e-52 -1.38938 -0.129333)
(-2.44294e-50 -1.24675 -0.11832)
(-5.42217e-48 -1.04921 -0.119806)
(-8.18129e-45 -0.763192 -0.137211)
(1.01589e-41 -0.258951 -0.220271)
(1.37218e-40 0.680379 -0.225484)
(1.44421e-37 1.02037 -0.134407)
(1.76703e-36 1.28307 -0.00725043)
(-1.93639e-36 1.4661 0.0840281)
(-3.76225e-34 1.54756 0.19063)
(-7.56533e-34 1.5724 0.327802)
(8.8773e-32 1.51689 0.37585)
(2.80712e-31 1.4601 0.287381)
(-1.7198e-29 1.29406 0.213284)
(-1.26452e-28 1.0971 0.133663)
(4.15851e-27 0.935166 0.110273)
(4.96059e-26 0.811025 0.0874911)
(-1.16851e-24 0.679521 0.063302)
(-1.47173e-23 0.530994 0.0820579)
(3.44357e-22 0.331625 0.120874)
(2.8116e-21 -0.286621 0.0471274)
(-4.9378e-20 -0.535948 0.0356336)
(-7.01499e-19 -0.657162 0.0389592)
(-2.2064e-18 -0.661397 0.0974514)
(-2.50482e-18 -0.7721 0.238521)
(-2.1057e-18 -0.998662 0.395965)
(-2.08665e-18 -1.06919 0.448926)
(-1.48947e-18 -1.08164 0.504971)
(-7.62639e-20 -1.13862 0.563964)
(-6.56834e-19 -1.12091 0.627174)
(-9.36048e-19 -0.985688 0.69068)
(-1.0927e-18 -0.731408 0.773607)
(-1.10767e-18 -0.393477 0.866208)
(-1.84186e-18 -0.0171889 0.959929)
(-8.02565e-18 0.366173 1.03903)
(-3.11131e-17 0.736384 1.09463)
(-6.6038e-17 1.09497 1.12486)
(-6.94458e-17 1.44004 1.12992)
(-6.66474e-17 1.76822 1.11147)
(-8.65912e-17 2.07525 1.0711)
(-1.04031e-16 2.35669 1.0108)
(-1.22634e-16 2.6082 0.93236)
(-1.24239e-16 2.82582 0.836919)
(-1.32451e-16 3.00503 0.725209)
(-1.52686e-16 3.14345 0.597366)
(-1.78119e-16 3.24033 0.450467)
(-2.12033e-16 3.29314 0.282216)
(-2.42616e-16 3.30037 0.0850143)
(-2.57783e-16 3.24219 -0.142081)
(-2.45133e-16 3.11298 -0.402782)
(-2.11625e-16 2.87647 -0.68391)
(-1.55471e-16 2.53204 -0.974405)
(-1.06813e-16 2.02549 -1.22856)
(-8.26841e-17 1.39784 -1.39651)
(-4.50741e-17 0.643003 -1.40436)
(6.97838e-17 -0.123995 -1.24624)
(3.61604e-16 -0.748729 -0.872499)
(3.91514e-16 -1.37171 -0.560783)
(1.59015e-16 -2.21086 -0.307824)
(4.0276e-17 -2.60588 -0.244667)
(1.06446e-18 -3.0181 0.0653185)
(3.73462e-17 -2.93717 0.104576)
(1.47054e-15 -3.65736 0.952129)
(3.07257e-53 0.144351 0.0897232)
(-6.75142e-54 -0.162476 0.0903963)
(-1.26743e-53 -0.489928 0.0945046)
(-3.54928e-53 -0.82252 0.114573)
(-6.2391e-53 -1.12225 0.100413)
(-9.0569e-53 -1.39645 0.082481)
(-1.20065e-52 -1.62644 0.0605166)
(-1.50295e-52 -1.79769 0.034754)
(-1.62602e-52 -1.89906 0.0210772)
(-1.47559e-52 -1.99328 0.0209852)
(-1.15722e-52 -2.04312 -0.00709987)
(-6.9348e-53 -1.9857 -0.0323063)
(-3.81368e-53 -1.94723 -0.0587543)
(-1.73346e-53 -1.84824 -0.0955938)
(-5.48465e-54 -1.81669 -0.0960755)
(1.06039e-52 -1.68566 -0.156967)
(-3.73359e-51 -1.39054 -0.134418)
(6.03853e-50 -1.24446 -0.126349)
(-1.24801e-47 -1.04408 -0.131634)
(-2.53419e-44 -0.753155 -0.153229)
(2.13712e-41 -0.223921 -0.233388)
(1.48374e-39 0.660914 -0.226537)
(3.74137e-37 1.00166 -0.117952)
(3.75131e-36 1.25996 0.0325072)
(-9.50222e-36 1.44514 0.13239)
(-3.85699e-34 1.52467 0.256046)
(-7.50275e-34 1.55709 0.386966)
(5.20243e-32 1.524 0.406042)
(1.73459e-31 1.47799 0.301385)
(-9.51992e-30 1.31059 0.219671)
(-7.4155e-29 1.10883 0.12487)
(2.4454e-27 0.940296 0.0953175)
(3.14589e-26 0.815785 0.0745585)
(-9.50916e-25 0.681228 0.0528039)
(-1.31302e-23 0.527241 0.0712123)
(3.93858e-22 0.330482 0.108254)
(3.50626e-21 -0.273505 0.044679)
(-6.48668e-20 -0.532454 0.0329404)
(-8.10575e-19 -0.662289 0.0354587)
(-2.45707e-18 -0.679709 0.0972639)
(-2.67666e-18 -0.800897 0.23779)
(-2.20554e-18 -1.01904 0.38773)
(-2.25785e-18 -1.07958 0.437007)
(-1.5292e-18 -1.09299 0.492668)
(-1.35035e-19 -1.15128 0.555392)
(-6.81407e-19 -1.13474 0.628446)
(-9.67999e-19 -1.00191 0.706894)
(-1.04084e-18 -0.750437 0.801659)
(-1.02158e-18 -0.416041 0.900602)
(-1.95655e-18 -0.0415244 1.00347)
(-1.06878e-17 0.349069 1.09038)
(-4.37846e-17 0.725359 1.15208)
(-6.60672e-17 1.08947 1.18694)
(-6.76856e-17 1.43987 1.19498)
(-7.00153e-17 1.77294 1.17757)
(-9.14328e-17 2.08449 1.13635)
(-1.1164e-16 2.37004 1.07331)
(-1.22984e-16 2.62532 0.990402)
(-1.25969e-16 2.84645 0.889072)
(-1.35177e-16 3.02907 0.770314)
(-1.55959e-16 3.17108 0.634493)
(-1.87232e-16 3.27209 0.478567)
(-2.18534e-16 3.32988 0.300303)
(-2.47987e-16 3.34305 0.0916103)
(-2.6539e-16 3.29112 -0.148626)
(-2.55051e-16 3.16753 -0.425653)
(-2.19056e-16 2.93372 -0.725171)
(-1.61316e-16 2.587 -1.03718)
(-1.03519e-16 2.06711 -1.3117)
(-8.88426e-17 1.4153 -1.49513)
(-6.61474e-17 0.624799 -1.50635)
(3.86361e-17 -0.179062 -1.33181)
(3.27885e-16 -0.821161 -0.939361)
(4.0904e-16 -1.43122 -0.589226)
(1.80442e-16 -2.24432 -0.317921)
(4.79433e-17 -2.64351 -0.244931)
(1.88478e-18 -3.05272 0.0637575)
(5.16341e-17 -3.01674 0.110902)
(1.45249e-15 -3.68961 0.812685)
(6.66073e-53 0.145442 0.0559783)
(-9.38062e-54 -0.162597 0.0451322)
(-1.21163e-53 -0.493608 0.0543513)
(-3.33329e-53 -0.824262 0.0956317)
(-6.30844e-53 -1.11897 0.0969737)
(-9.10212e-53 -1.39178 0.0856237)
(-1.20089e-52 -1.6208 0.0679216)
(-1.50229e-52 -1.79251 0.0453936)
(-1.62566e-52 -1.89611 0.0337124)
(-1.47511e-52 -1.98864 0.0345248)
(-1.15666e-52 -2.03559 0.00652459)
(-6.93316e-53 -1.97806 -0.0197202)
(-3.82069e-53 -1.93815 -0.0482867)
(-1.62572e-53 -1.84141 -0.0878461)
(1.57594e-53 -1.80727 -0.0915739)
(-5.89614e-52 -1.67809 -0.155871)
(-1.8839e-51 -1.3897 -0.138257)
(5.42426e-49 -1.2404 -0.133606)
(-3.30428e-47 -1.03758 -0.142887)
(-8.06235e-44 -0.742819 -0.168844)
(3.46195e-41 -0.191302 -0.248429)
(7.20807e-39 0.633862 -0.224674)
(9.64562e-37 0.982119 -0.0877086)
(7.73998e-36 1.23359 0.0736742)
(-2.74295e-35 1.42078 0.186432)
(-5.16475e-34 1.49861 0.329821)
(-1.46647e-33 1.54268 0.452716)
(2.27388e-32 1.53471 0.435782)
(1.04975e-31 1.49784 0.311399)
(-3.74631e-30 1.32897 0.223807)
(-3.28549e-29 1.12275 0.116403)
(1.06527e-27 0.945097 0.0760811)
(1.54135e-26 0.818557 0.0605254)
(-6.09694e-25 0.684163 0.0413244)
(-8.66305e-24 0.520244 0.0541392)
(4.69863e-22 0.326532 0.0921432)
(3.54522e-21 -0.263635 0.0416873)
(-1.02477e-19 -0.529051 0.0290664)
(-8.94032e-19 -0.668562 0.0310239)
(-2.6809e-18 -0.700192 0.0948509)
(-2.89879e-18 -0.829635 0.232189)
(-2.37443e-18 -1.0387 0.37345)