/*--------------------------------*- C++ -*----------------------------------*\
| =========                 |                                                 |
| \\      /  F ield         | OpenFOAM: The Open Source CFD Toolbox           |
|  \\    /   O peration     | Version:  4.1                                   |
|   \\  /    A nd           | Web:      www.OpenFOAM.org                      |
|    \\/     M anipulation  |                                                 |
\*---------------------------------------------------------------------------*/
FoamFile
{
    version     2.0;
    format      ascii;
    class       volScalarField;
    location    "6";
    object      p;
}
// * * * * * * * * * * * * * * * * * * * * * * * * * * * * * * * * * * * * * //

dimensions      [0 2 -2 0 0 0 0];

internalField   nonuniform List<scalar> 
6785
(
551.38
484.915
433.923
383.909
337.628
294.134
253.296
214.849
178.629
144.163
111.007
80.4588
52.608
19.0348
-15.0787
1.72117
-16.1076
-12.4343
-17.2127
-20.4005
-23.7982
-26.7333
-29.0331
-30.4973
-31.0047
-30.6307
-29.1472
-25.7069
-21.7229
-20.4719
-42.3789
-47.9923
-38.1
-39.2578
-35.8163
-33.7633
-31.4266
-29.2932
-27.304
-25.4753
-23.8889
-22.7418
-21.9623
-20.6976
-18.8021
12.1055
10.3102
15.5289
12.0087
13.1764
12.0537
11.549
10.8644
10.2865
9.78594
9.35123
8.93412
8.45539
8.49091
10.3839
20.5401
19.3039
22.489
19.7694
21.8559
21.4295
22.2346
22.7749
23.527
24.2543
24.8926
25.4238
25.9467
26.6552
27.8007
18.4317
16.8736
19.2672
17.042
19.073
18.3876
19.1727
19.2693
19.5254
19.491
19.2534
18.8077
18.1466
17.3788
16.6723
7.36179
5.35534
6.4125
3.82636
4.57806
2.77257
2.43158
1.25885
0.375305
-0.600878
-1.35843
-2.08013
-3.1594
-4.25917
-4.78331
-8.84177
-10.5306
-9.93681
-12.332
-11.9467
-13.7971
-14.3174
-15.5189
-16.4489
-17.3207
-17.9014
-18.2671
-18.678
-18.7095
-17.7554
-13.8788
-14.2971
-13.3086
-14.753
-13.8825
-14.7809
-14.6432
-14.9415
-15.0895
-15.1874
-15.1406
-14.9475
-14.5594
-14.0384
-12.8537
-6.99801
-6.21742
-4.92602
-5.45141
-4.1908
-4.2357
-3.53357
-3.09627
-2.57614
-2.02629
-1.43027
-0.832684
-0.11618
0.473658
1.46506
3.43451
4.74147
5.8995
5.74972
6.97138
7.15486
7.89795
8.43738
9.02037
9.61585
10.2317
10.8193
11.4905
12.0147
12.76
12.4836
14.0276
14.9278
14.9232
15.9893
16.1998
16.8582
17.3439
17.867
18.3965
18.9479
19.4837
20.1101
20.5909
21.3463
25.9757
27.202
27.6089
27.4432
28.017
27.7933
27.948
27.9145
27.9498
28.0774
28.3386
28.726
29.2501
29.65
30.27
33.1157
34.3773
33.4749
32.4244
32.2007
31.7027
31.9081
32.1079
32.5873
33.0469
33.4504
33.6806
33.8243
33.9095
33.978
59.6333
57.02
51.2651
45.9582
42.2734
38.2521
34.9492
32.2919
29.8624
28.0073
26.7107
26.1714
26.0984
26.3473
26.3384
44.7574
44.6847
44.711
44.7042
44.6999
44.6876
44.6905
44.6846
44.6955
44.6714
44.7036
44.6434
44.764
44.7016
44.6745
44.7161
44.7251
44.7846
44.6854
44.9136
44.8206
44.7788
44.8361
44.9372
44.956
44.9146
44.9875
45.0773
45.1576
45.0593
45.3598
45.2964
45.2648
45.3638
45.451
45.5619
45.5118
45.7638
45.7618
45.7774
45.886
45.9632
46.0773
46.1194
46.2389
46.2639
46.4345
46.487
46.6214
46.698
46.8024
46.941
46.9679
47.1229
47.26
47.4472
47.4333
47.7237
47.9202
47.8744
48.3417
48.4201
48.6708
48.4487
49.0296
49.3106
49.4675
49.7514
49.6516
50.7532
50.412
48.4418
47.8824
50.0696
48.1578
41.6153
47.2285
43.6756
25.0284
34.4362
40.9955
41.6885
43.1741
38.3685
39.9055
43.3576
43.9639
45.0565
46.2612
47.0437
47.0566
47.8085
50.1727
43.7498
44.7274
44.0667
44.1373
44.804
44.8122
44.2227
45.3773
50.878
40.0561
40.3366
39.1494
38.9544
39.8476
39.779
38.4454
37.0503
37.2988
45.4119
35.6357
34.8103
33.0912
31.259
31.281
31.8853
30.3936
28.1749
29.9487
28.3895
29.4063
28.7922
26.5906
24.3782
22.4637
22.506
21.0021
25.5692
25.7308
22.6753
22.2548
21.3471
19.2552
17.5065
14.7126
10.7599
17.8292
22.7788
18.8503
16.5292
13.671
11.6093
9.56196
7.55937
5.10959
2.32397
1.43861
9.70719
5.97913
4.84286
3.56592
0.905298
-4.2313
-5.2995
-3.33117
-12.787
0.785545
-2.39551
-5.68231
0.0446014
-3.38642
-1.67403
-1.8001
-0.0951181
1.81635
-0.757458
1.13374
2.51132
0.667606
1.23135
0.845955
1.77592
3.04152
1.23328
1.67605
1.19792
2.09414
3.01676
0.892908
2.17076
3.04807
1.34588
1.70925
1.14951
1.96274
3.0347
1.19011
1.56459
0.947311
1.87975
2.78641
0.432844
1.82161
2.76336
0.808879
1.205
0.506777
1.46509
2.69234
0.499787
0.929823
0.163206
1.30591
2.39277
-0.518064
1.21391
2.41004
-0.0915504
0.387891
-0.52568
0.764254
2.44504
-0.572329
-0.0391638
-1.10629
0.565262
2.21461
-2.26189
0.432803
2.50114
-1.73654
-1.10936
-2.67072
-0.333814
3.04516
-3.0086
-2.30603
-4.41865
-0.933411
2.96967
-7.81454
-1.52251
4.123
-7.49283
-6.36817
-10.9292
-6.10749
11.4187
0.00113995
-0.00222266
0.000290565
0.000957546
0.00318028
0.00501468
0.0104592
0.0160842
0.0223183
0.025257
0.0270328
0.0318625
0.0331835
0.0351201
0.0380021
0.0336021
0.0327715
0.041059
0.0442002
0.0404453
0.0444099
0.0497401
0.0500325
0.0536254
0.0398218
0.00242954
-0.0307814
-0.0345839
-0.0210035
-0.0065355
-0.00154134
0.00497798
0.013156
0.0169013
0.0226128
0.0246086
0.0241144
0.0222513
0.0206381
0.0233492
0.0281245
0.0374627
0.0423463
0.0451
0.0447071
0.0390131
0.0273877
0.0101178
-0.00882879
-0.0133807
-0.0152193
-0.02011
-0.0291437
-0.0408383
-0.054232
-0.0680806
-0.0812667
-0.092767
-0.102277
-0.110391
-0.117838
-0.126053
-0.139195
-0.153898
-0.172683
-0.185916
-0.196267
-0.192484
-0.182935
-0.16296
-0.130057
-0.0877061
-0.0109133
0.0731604
0.155149
0.3969
0.573432
0.829474
0.210548
0.00736684
-0.00136083
0.00572587
0.00793511
0.019061
0.0291939
0.0446288
0.0590039
0.0766766
0.0925199
0.102925
0.113697
0.119799
0.125523
0.129156
0.127374
0.129354
0.132853
0.133705
0.128198
0.118592
0.104964
0.0820744
0.0409627
-0.0174728
-0.0481072
-0.0461026
0.0121599
0.0608026
0.0638002
0.0516504
0.0459924
0.0489027
0.0521713
0.0610915
0.066479
0.0714389
0.070922
0.0713956
0.0741239
0.0770055
0.0890584
0.0957745
0.09526
0.0882252
0.069228
0.0379536
0.00239761
-0.0229819
-0.0352668
-0.0598842
-0.0905683
-0.125987
-0.163181
-0.198965
-0.229569
-0.251683
-0.262313
-0.260873
-0.249142
-0.230233
-0.210834
-0.206491
-0.21427
-0.257946
-0.31696
-0.410212
-0.493112
-0.581116
-0.603207
-0.540534
-0.473399
-0.334206
-0.145451
0.0594831
0.571238
0.799711
0.845342
-0.271391
0.0130233
-0.00279021
0.00924082
0.0130119
0.0312251
0.0478039
0.074331
0.0993481
0.129762
0.156725
0.175729
0.196964
0.209151
0.220119
0.229335
0.225495
0.227066
0.236161
0.245459
0.238396
0.225257
0.205467
0.162946
0.0852968
-0.0277394
-0.0927348
-0.101868
-0.00473887
0.0871753
0.103004
0.0868622
0.0836725
0.0922796
0.0990278
0.116251
0.126168
0.135497
0.137715
0.150336
0.161965
0.165752
0.16848
0.171433
0.165162
0.150331
0.123444
0.0882146
0.0510787
0.0114961
-0.0302728
-0.0858919
-0.149792
-0.222826
-0.298796
-0.372041
-0.435693
-0.4839
-0.511382
-0.517536
-0.505845
-0.482663
-0.459963
-0.465892
-0.49432
-0.586815
-0.701111
-0.868906
-1.00904
-1.15023
-1.16711
-0.996949
-0.814416
-0.56325
-0.282268
-0.034925
0.637278
0.810205
1.10259
0.738303
0.0178211
-0.00419764
0.0124478
0.0176997
0.0440991
0.0680922
0.105428
0.140626
0.183128
0.222328
0.25016
0.279957
0.297709
0.313446
0.32585
0.322456
0.325267
0.333999
0.345448
0.336761
0.31543
0.283221
0.217349
0.094342
-0.0831212
-0.168661
-0.165471
-0.0103567
0.129048
0.153368
0.128118
0.120988
0.130652
0.138776
0.161491
0.1756
0.190237
0.194284
0.207892
0.218683
0.229705
0.237537
0.242112
0.232519
0.211392
0.174536
0.126426
0.0704226
0.0076378
-0.053387
-0.134285
-0.228795
-0.335423
-0.445987
-0.552121
-0.643877
-0.712755
-0.751076
-0.758038
-0.738588
-0.701901
-0.665834
-0.670615
-0.709503
-0.844024
-1.01516
-1.26968
-1.49074
-1.71148
-1.73209
-1.45953
-1.17628
-0.803502
-0.404612
-0.0878762
0.765531
0.96961
1.64479
1.56753
0.0217193
-0.00639554
0.0149179
0.0218113
0.0563765
0.087954
0.136552
0.182393
0.23713
0.288304
0.325211
0.364065
0.387401
0.407885
0.42426
0.420478
0.423685
0.433466
0.448204
0.437749
0.41111
0.369193
0.278937
0.108042
-0.144952
-0.261117
-0.252468
-0.0377706
0.155482
0.195161
0.163212
0.155895
0.168986
0.179395
0.208769
0.227542
0.247638
0.25556
0.278761
0.294046
0.304
0.307141
0.311036
0.297439
0.269588
0.223258
0.164864
0.0978354
0.0210115
-0.0654417
-0.179407
-0.309573
-0.455372
-0.60592
-0.750186
-0.87501
-0.969107
-1.02224
-1.03352
-1.00952
-0.962479
-0.916704
-0.9249
-0.980218
-1.16355
-1.39835
-1.74652
-2.05558
-2.36021
-2.37954
-1.98701
-1.57307
-1.07109
-0.555681
-0.162614
0.860821
1.11646
2.00993
1.4485
0.0244896
-0.00912167
0.0166757
0.0253558
0.0682499
0.107849
0.167896
0.22457
0.291503
0.354652
0.40021
0.447975
0.476799
0.50226
0.522098
0.51845
0.522358
0.531492
0.547408
0.535319
0.502237
0.449022
0.332079
0.106066
-0.235143
-0.380147
-0.357646
-0.0755045
0.177205
0.235503
0.196501
0.188894
0.204941
0.217194
0.252536
0.276081
0.30206
0.313441
0.339869
0.356488
0.374169
0.376881
0.380683
0.363199
0.328681
0.272868
0.202905
0.119987
0.0206625
-0.0920855
-0.235372
-0.400442
-0.584783
-0.775148
-0.957529
-1.11535
-1.23431
-1.30137
-1.3155
-1.28481
-1.22456
-1.16609
-1.17454
-1.24417
-1.47546
-1.77586
-2.22528
-2.63555
-3.04127
-3.06164
-2.5392
-1.99072
-1.34837
-0.713183
-0.250831
0.909597
1.19833
2.23597
1.65483
0.0261116
-0.0124405
0.0177643
0.0286414
0.0798001
0.127684
0.199578
0.267458
0.346803
0.421609
0.475945
0.532715
0.567118
0.597298
0.620555
0.617018
0.621271
0.629493
0.646
0.632232
0.59324
0.528907
0.383396
0.0948773
-0.346459
-0.520367
-0.479578
-0.127659
0.188766
0.268623
0.224791
0.219339
0.239303
0.253712
0.295279
0.323824
0.356111
0.372307
0.405345
0.422714
0.444457
0.44551
0.449509
0.428284
0.387266
0.321782
0.239437
0.140751
0.0215455
-0.117555
-0.29404
-0.497003
-0.722746
-0.955645
-1.17865
-1.37166
-1.51719
-1.59914
-1.6164
-1.57865
-1.50421
-1.43212
-1.44005
-1.52423
-1.80432
-2.17279
-2.73033
-3.25424
-3.77932
-3.80674
-3.14442
-2.44009
-1.64174
-0.878938
-0.345137
0.931016
1.2535
2.37632
1.69928
0.0264836
-0.0163905
0.0180416
0.0317088
0.0910829
0.147453
0.231516
0.310981
0.403016
0.488917
0.552383
0.617915
0.658049
0.692741
0.719218
0.715889
0.720428
0.726926
0.742764
0.727398
0.682066
0.605618
0.429575
0.069316
-0.482061
-0.679509
-0.611348
-0.189268
0.19204
0.293404
0.248246
0.246899
0.271447
0.28809
0.335726
0.369345
0.408457
0.429464
0.467959
0.4859
0.514394
0.513681
0.517834
0.492804
0.445392
0.370264
0.275189
0.159705
0.0181319
-0.149681
-0.359143
-0.600656
-0.86886
-1.14565
-1.41072
-1.6402
-1.81316
-1.91014
-1.92991
-1.88372
-1.79289
-1.70479
-1.70954
-1.80604
-2.13282
-2.56886
-3.23987
-3.88941
-4.55585
-4.59861
-3.78898
-2.92047
-1.95274
-1.05625
-0.448445
0.927235
1.2896
2.46915
1.77427
0.0255525
-0.0210925
0.0173736
0.0346644
0.102253
0.167211
0.263708
0.355236
0.460295
0.556748
0.629602
0.703663
0.749665
0.788787
0.818395
0.815303
0.81983
0.824006
0.838202
0.821125
0.769362
0.680036
0.471693
0.0302863
-0.636507
-0.848808
-0.744286
-0.256436
0.185774
0.306639
0.265655
0.270978
0.301342
0.320529
0.37434
0.413048
0.459571
0.486018
0.530448
0.548253
0.583538
0.581285
0.585738
0.556897
0.503285
0.418478
0.31013
0.176749
0.0119038
-0.185557
-0.428693
-0.710795
-1.02347
-1.34629
-1.65551
-1.92331
-2.12505
-2.23751
-2.25942
-2.2036
-2.0943
-1.98783
-1.98652
-2.09249
-2.46272
-2.9647
-3.75373
-4.54053
-5.37294
-5.44309
-4.47959
-3.43419
-2.28138
-1.24419
-0.561197
0.898253
1.30209
2.56571
1.71078
0.0232394
-0.026736
0.0155013
0.0374129
0.113384
0.186995
0.296065
0.40013
0.518513
0.625144
0.707953
0.790237
0.842204
0.885512
0.918025
0.915161
0.919468
0.920648
0.932119
0.913102
0.8545
0.751137
0.508998
-0.0223623
-0.803626
-1.01825
-0.86866
-0.324026
0.169944
0.30608
0.276068
0.290924
0.328721
0.350746
0.410771
0.454507
0.509055
0.540992
0.59198
0.609782
0.65192
0.648191
0.65306
0.620467
0.560919
0.466393
0.344345
0.192317
0.00356246
-0.224293
-0.503153
-0.82727
-1.18626
-1.55714
-1.9126
-2.22057
-2.45244
-2.58079
-2.60435
-2.53744
-2.40727
-2.27953
-2.26836
-2.37934
-2.78813
-3.35301
-4.26445
-5.19925
-6.22347
-6.33354
-5.21151
-3.98216
-2.62865
-1.44254
-0.682569
0.84784
1.28655
2.57513
1.5016
0.0194718
-0.0335549
0.0121403
0.0397592
0.124553
0.206947
0.328589
0.445601
0.577622
0.694234
0.787582
0.877753
0.935725
0.983016
1.01822
1.01551
1.01935
1.01692
1.0247
1.00334
0.93735
0.818801
0.541775
-0.0859306
-0.972855
-1.1758
-0.975305
-0.387957
0.144302
0.288852
0.277622
0.305962
0.353468
0.378684
0.445042
0.493718
0.5569
0.594374
0.652415
0.670337
0.719321
0.714377
0.719794
0.683604
0.618396
0.514109
0.377945
0.206421
-0.00754731
-0.267285
-0.582471
-0.950338
-1.35769
-1.77894
-2.183
-2.53328
-2.79684
-2.94159
-2.96633
-2.8869
-2.73339
-2.5812
-2.55571
-2.66602
-3.10772
-3.73252
-4.77274
-5.86656
-7.10885
-7.2705
-5.98382
-4.56489
-2.99513
-1.65114
-0.811977
0.779499
1.24951
2.53001
1.48815
0.0141531
-0.0418318
0.00692545
0.0413471
0.135724
0.227277
0.36137
0.491594
0.637588
0.764206
0.868461
0.966296
1.03035
1.0814
1.11902
1.11635
1.11948
1.11288
1.11605
1.09176
1.01754
0.88266
0.570139
-0.156235
-1.13152
-1.31003
-1.05635
-0.445014
0.108633
0.252312
0.267841
0.315237
0.375475
0.404193
0.476999
0.530528
0.602856
0.645789
0.711538
0.729766
0.785507
0.779776
0.785966
0.746451
0.675825
0.56173
0.411047
0.219384
-0.0204144
-0.31246
-0.666398
-1.07977
-1.53777
-2.01191
-2.46715
-2.86209
-3.15909
-3.32086
-3.34634
-3.25291
-3.07356
-2.8935
-2.84854
-2.95138
-3.42026
-4.10351
-5.28299
-6.54833
-8.03443
-8.25496
-6.79375
-5.18204
-3.38103
-1.86938
-0.948484
0.696584
1.20032
2.50744
1.45437
0.00718081
-0.0518559
-0.000544789
0.0417262
0.14666
0.248187
0.394606
0.538103
0.698311
0.835205
0.950658
1.05589
1.12618
1.18076
1.22045
1.2177
1.21984
1.20859
1.20634
1.17839
1.09488
0.942741
0.594793
-0.226961
-1.26584
-1.41119
-1.1054
-0.492999
0.0617075
0.193985
0.243903
0.317839
0.394718
0.427217
0.506605
0.564926
0.646747
0.694965
0.769013
0.787842
0.850283
0.844331
0.851614
0.809156
0.733288
0.609361
0.443793
0.231368
-0.0353696
-0.361273
-0.755245
-1.21588
-1.72696
-2.2567
-2.76594
-3.20815
-3.54058
-3.72014
-3.746
-3.63718
-3.42966
-3.21822
-3.14826
-3.23636
-3.7276
-4.47045
-5.80582
-7.25919
-9.01456
-9.29469
-7.64069
-5.83274
-3.78625
-2.09642
-1.09074
0.602654
1.13771
2.44918
1.23815
-0.00157139
-0.0639379
-0.0107174
0.0403643
0.156919
0.269756
0.42855
0.585246
0.759691
0.907268
1.03434
1.1466
1.22329
1.28117
1.32257
1.31954
1.32041
1.30411
1.29566
1.26314
1.16923
0.999195
0.616812
-0.290489
-1.36398
-1.47289
-1.11909
-0.527898
0.00239395
0.111679
0.20338
0.312907
0.411227
0.447736
0.533835
0.596925
0.6882
0.741928
0.824409
0.844353
0.913463
0.908007
0.916789
0.871862
0.79089
0.657127
0.476358
0.242615
-0.0519074
-0.412631
-0.848806
-1.35867
-1.92549
-2.51383
-3.08017
-3.57254
-3.94266
-4.14095
-4.16699
-4.0416
-3.80395
-3.55782
-3.45724
-3.52345
-4.03412
-4.84109
-6.35524
-8.02035
-10.0715
-10.4033
-8.52649
-6.51565
-4.21028
-2.3312
-1.23723
0.500429
1.06651
2.373
1.21755
-0.0122317
-0.078398
-0.0240313
0.0366717
0.165987
0.291795
0.463416
0.633246
0.821707
0.980287
1.11956
1.23853
1.32175
1.3827
1.4254
1.42187
1.42115
1.39951
1.38402
1.34589
1.24067
1.05249
0.637873
-0.338417
-1.41843
-1.49215
-1.09775
-0.544917
-0.0687058
0.00449585
0.145012
0.299949
0.425123
0.465805
0.558732
0.626578
0.727017
0.786631
0.877297
0.89912
0.974874
0.970775
0.981526
0.934669
0.848736
0.705165
0.508929
0.253327
-0.0699812
-0.467028
-0.947348
-1.50835
-2.13382
-2.78398
-3.4108
-3.95651
-4.36688
-4.58516
-4.61143
-4.46869
-4.1996
-3.91599
-3.77944
-3.81732
-4.34688
-5.22658
-6.94835
-8.85792
-11.2354
-11.6009
-9.45688
-7.22938
-4.65216
-2.57235
-1.38632
0.393144
0.990947
2.27616
1.14364
-0.0249149
-0.0955768
-0.0408991
0.0300254
0.173399
0.313805
0.499298
0.682306
0.884362
1.05419
1.20623
1.33177
1.42159
1.48538
1.52899
1.52467
1.52205
1.49489
1.47146
1.42652
1.30955
1.10333
0.660128
-0.362547
-1.42772
-1.46713
-1.04413
-0.541716
-0.149
-0.125547
0.0697085
0.279364
0.43666
0.48153
0.581348
0.653964
0.763117
0.828936
0.927327
0.951985
1.03437
1.03261
1.04585
0.997622
0.906921
0.753618
0.541701
0.263717
-0.0893239
-0.524021
-1.05041
-1.66507
-2.35233
-3.0678
-3.75878
-4.36138
-4.81495
-5.05483
-5.0818
-4.9216
-4.62068
-4.29771
-4.12045
-4.12449
-4.67508
-5.64004
-7.60458
-9.80054
-12.542
-12.9128
-10.4414
-7.97296
-5.11038
-2.81824
-1.53623
0.283834
0.914272
2.17193
1.15198
-0.0396817
-0.115816
-0.0617028
0.0198297
0.178713
0.33524
0.536169
0.732602
0.947803
1.12933
1.29429
1.42639
1.52283
1.58925
1.63337
1.62794
1.6231
1.59046
1.55823
1.50533
1.3767
1.15298
0.685958
-0.355951
-1.39727
-1.39578
-0.961903
-0.51697
-0.233368
-0.271856
-0.0182422
0.253032
0.44631
0.495072
0.601742
0.679157
0.796429
0.868871
0.974155
1.00283
1.09185
1.09349
1.10976
1.06074
0.965535
0.802635
0.574872
0.273999
-0.109754
-0.583594
-1.15809
-1.82913
-2.58147
-3.36605
-4.12516
-4.78855
-5.28874
-5.55242
-5.58116
-5.40438
-5.07244
-4.7094
-4.48733
-4.45286
-5.02905
-6.09579
-8.3435
-10.8775
-14.0314
-14.3684
-11.4921
-8.74624
-5.58297
-3.06694
-1.68495
0.17541
0.840943
2.10006
1.15029
-0.0564985
-0.13943
-0.0867954
0.00556696
0.181414
0.355765
0.574007
0.784518
1.01258
1.20647
1.38369
1.5224
1.62549
1.69428
1.73854
1.73167
1.7244
1.68661
1.64499
1.58339
1.4436
1.20375
0.71727
-0.316511
-1.33092
-1.28224
-0.854114
-0.470055
-0.313837
-0.421974
-0.110143
0.224669
0.454851
0.506674
0.619974
0.702191
0.826939
0.906275
1.01761
1.05155
1.14722
1.15339
1.17327
1.12403
1.02467
0.852374
0.608645
0.284392
-0.131055
-0.645558
-1.27039
-2.00076
-2.82171
-3.67948
-4.51104
-5.23957
-5.79039
-6.08079
-6.11331
-5.92213
-5.56138
-5.15873
-4.8881
-4.81089
-5.41902
-6.60822
-9.18379
-12.1174
-15.7458
-16
-12.6223
-9.55004
-6.06738
-3.31623
-1.83021
0.0707044
0.771365
2.01427
1.09308
-0.0751868
-0.16665
-0.116476
-0.0131947
0.180959
0.375007
0.612566
0.838326
1.07927
1.28588
1.47456
1.61984
1.72951
1.80044
1.84451
1.83585
1.82606
1.78385
1.73285
1.66263
1.51228
1.25838
0.756889
-0.250122
-1.22592
-1.13774
-0.723997
-0.401788
-0.380142
-0.55754
-0.192785
0.199777
0.463373
0.516685
0.636118
0.723044
0.854657
0.941223
1.05742
1.09807
1.20039
1.2123
1.23638
1.18753
1.08444
0.903
0.643228
0.295127
-0.153006
-0.709775
-1.38739
-2.18026
-3.07354
-4.00888
-4.91756
-5.71608
-6.32231
-6.64339
-6.68296
-6.48112
-6.09526
-5.65417
-5.33099
-5.20683
-5.85437
-7.19062
-10.143
-13.549
-17.73
-17.8421
-13.8444
-10.3858
-6.56053
-3.5635
-1.96962
-0.0278115
0.70879
1.9221
1.14224
-0.0953668
-0.197549
-0.150928
-0.0368026
0.176889
0.392523
0.651393
0.893811
1.14806
1.36729
1.56713
1.71883
1.83482
1.90768
1.9513
1.94051
1.92828
1.88271
1.82316
1.74532
1.585
1.31892
0.808741
-0.163572
-1.08633
-0.972242
-0.576166
-0.314097
-0.420966
-0.656474
-0.250187
0.184938
0.473116
0.525541
0.650253
0.741618
0.879559
0.973638
1.09344
1.14224
1.25132
1.2702
1.29909
1.25127
1.14494
0.954687
0.67884
0.306449
-0.17537
-0.776076
-1.5091
-2.36788
-3.33745
-4.35509
-5.34594
-6.21992
-6.8873
-7.24435
-7.29597
-7.08894
-6.68284
-6.20428
-5.82349
-5.64798
-6.34309
-7.85464
-11.2371
-15.2023
-20.0301
-19.9314
-15.1703
-11.2548
-7.05875
-3.80569
-2.10078
-0.117517
0.657888
1.86924
1.19426
-0.11642
-0.231928
-0.19014
-0.065495
0.168812
0.407943
0.690159
0.950675
1.21895
1.45064
1.66159
1.81952
1.94135
2.01592
2.05886
2.04569
2.03125
1.98358
1.91716
1.83331
1.66365
1.38591
0.874373
-0.0578423
-0.923117
-0.794029
-0.416551
-0.209977
-0.426229
-0.698028
-0.267611
0.186323
0.485163
0.533697
0.662436
0.757735
0.901564
1.00313
1.1257
1.18383
1.29999
1.32706
1.36143
1.31532
1.20631
1.00763
0.715716
0.318626
-0.197883
-0.84427
-1.63547
-2.56386
-3.61396
-4.71895
-5.79746
-6.75312
-7.48865
-7.88861
-7.95945
-7.7544
-7.33337
-6.81681
-6.37169
-6.14023
-6.89151
-8.6099
-12.4813
-17.1094
-22.6962
-22.3106
-16.6113
-12.1574
-7.55777
-4.03934
-2.22115
-0.195803
0.617969
1.81739
1.17293
-0.137515
-0.269162
-0.233805
-0.0993467
0.156414
0.420899
0.728606
1.00866
1.29183
1.53596
1.75777
1.92202
2.04908
2.12506
2.16717
2.15146
2.13513
2.0866
2.01552
1.92735
1.74913
1.46026
0.951996
0.0629886
-0.745381
-0.610598
-0.251693
-0.0940164
-0.3906
-0.669904
-0.236863
0.207679
0.500063
0.541485
0.672639
0.771143
0.920521
1.02942
1.15436
1.22257
1.34643
1.38287
1.42346
1.37977
1.26872
1.06202
0.75411
0.331946
-0.220259
-0.914144
-1.76639
-2.76851
-3.90363
-5.10137
-6.27349
-7.31797
-8.13019
-8.58196
-8.68171
-8.48738
-8.05588
-7.49786
-6.97973
-6.68787
-7.50411
-9.46387
-13.8895
-19.3049
-25.7822
-25.034
-18.178
-13.0927
-8.05251
-4.26129
-2.32777
-0.260657
0.591863
1.7774
1.24168
-0.15775
-0.308099
-0.281213
-0.138205
0.139506
0.431052
0.766427
1.06757
1.36659
1.62326
1.85544
2.0263
2.158
2.23507
2.27619
2.25792
2.24004
2.19165
2.11811
2.0269
1.84088
1.54163
1.03904
0.192574
-0.56121
-0.427952
-0.0879235
0.0273755
-0.316225
-0.574037
-0.159939
0.248598
0.517476
0.54893
0.680664
0.781509
0.936214
1.05216
1.17993
1.25843
1.39063
1.43761
1.48523
1.44474
1.33234
1.11811
0.794301
0.346727
-0.242178
-0.985447
-1.90178
-2.98211
-4.207
-5.50323
-6.7755
-7.91712
-8.81647
-9.33114
-9.47197
-9.29817
-8.85828
-8.25121
-7.64986
-7.2935
-8.18345
-10.4218
-15.4747
-21.8256
-29.3456
-28.1644
-19.8797
-14.0578
-8.53711
-4.46877
-2.41721
-0.309829
0.581217
1.7452
1.27199
-0.176442
-0.347117
-0.33112
-0.181619
0.118051
0.438139
0.803264
1.12721
1.44312
1.71254
1.95458
2.13225
2.26809
2.34595
2.38587
2.36518
2.34601
2.29842
2.22406
2.13055
1.93731
1.62856
1.13291
0.326489
-0.377939
-0.251183
0.0690317
0.146826
-0.210276
-0.428523
-0.0473914
0.304253
0.536132
0.555614
0.686082
0.788412
0.948388
1.07116
1.20286
1.29159
1.43267
1.49132
1.54687
1.5104
1.39737
1.17614
0.836594
0.363314
-0.26329
-1.0579
-2.04156
-3.2049
-4.52465
-5.92547
-7.30514
-8.55364
-9.55281
-10.1438
-10.3399
-10.1964
-9.74647
-9.07824
-8.38261
-7.95812
-8.93016
-11.4865
-17.2472
-24.7076
-33.4426
-31.7602
-21.7233
-15.0476
-9.00489
-4.65905
-2.48606
-0.341309
0.587328
1.72313
1.356
-0.193721
-0.384353
-0.381693
-0.228762
0.0922028
0.441962
0.838812
1.18741
1.52125
1.80375
2.05518
2.2397
2.37925
2.45768
2.49621
2.47334
2.45301
2.40655
2.33218
2.2366
2.03653
1.71919
1.23092
0.461116
-0.201014
-0.0848067
0.214461
0.257792
-0.0836195
-0.259384
0.0849812
0.367255
0.554362
0.56065
0.688235
0.791345
0.956773
1.08622
1.2234
1.32225
1.47273
1.54406
1.60849
1.57694
1.46408
1.23639
0.881324
0.382087
-0.283205
-1.13117
-2.18558
-3.43702
-4.85718
-6.36906
-7.86424
-9.23111
-10.3453
-11.0285
-11.2953
-11.1899
-10.7237
-9.97838
-9.17702
-8.68107
-9.74279
-12.6574
-19.2127
-27.9809
-38.1211
-35.8656
-23.7096
-16.0547
-9.44808
-4.82949
-2.5311
-0.353172
0.612445
1.73946
1.43731
-0.21144
-0.4181
-0.430676
-0.278382
0.0623443
0.442473
0.872875
1.24809
1.60086
1.89679
2.1572
2.34852
2.49141
2.57022
2.60724
2.58247
2.56098
2.51566
2.44136
2.34353
2.13682
1.81178
1.33079
0.592822
-0.034484
0.0675557
0.345274
0.355847
0.0474748
-0.0871641
0.220143
0.430377
0.570633
0.562797
0.686311
0.78975
0.961123
1.0972
1.24161
1.35066
1.511
1.5959
1.67028
1.64463
1.53272
1.29918
0.928856
0.403462
-0.301492
-1.2049
-2.33367
-3.67856
-5.2055
-6.83501
-8.45489
-9.9537
-11.2008
-11.9945
-12.3475
-12.284
-11.7903
-10.9497
-10.0309
-9.45997
-10.6175
-13.9293
-21.3696
-31.6617
-43.4081
-40.504
-25.8319
-17.068
-9.86003
-4.97468
-2.54931
-0.343466
0.655929
1.75832
1.47992
-0.231495
-0.4471
-0.475696
-0.328771
0.0290797
0.439877
0.905343
1.30922
1.68185
1.99156
2.26063
2.45856
2.60446
2.68354
2.71897
2.69255
2.66984
2.62542
2.5507
2.45017
2.23693
1.90487
1.43067
0.718663
0.118914
0.203722
0.460405
0.440033
0.169916
0.0759633
0.344833
0.487968
0.583486
0.560721
0.679457
0.783055
0.961234
1.10404
1.25753
1.37712
1.54759
1.64699
1.73245
1.71375
1.60361
1.36485
0.979589
0.427891
-0.317676
-1.27867
-2.48563
-3.92953
-5.57068
-7.3244
-9.07953
-10.7261
-12.1269
-13.0515
-13.5046
-13.4813
-12.9441
-11.9894
-10.9406
-10.2906
-11.5478
-15.2916
-23.7052
-35.7384
-49.2863
-45.6612
-28.0728
-18.0726
-10.2349
-5.08648
-2.53804
-0.310672
0.719048
1.78154
1.58945
-0.253677
-0.471792
-0.514679
-0.377894
-0.0069126
0.434575
0.936176
1.37069
1.76412
2.08792
2.36545
2.56971
2.71828
2.79754
2.83145
2.80352
2.77944
2.73552
2.65946
2.55568
2.33597
1.99729
1.5292
0.836877
0.258086
0.323359
0.560741
0.512777
0.278595
0.223027
0.452089
0.536055
0.59141
0.553251
0.666874
0.770726
0.956956
1.10678
1.27124
1.40198
1.5826
1.69753
1.79529
1.78463
1.67708
1.43377
1.03396
0.455869
-0.331233
-1.352
-2.64118
-4.18998
-5.95331
-7.83838
-9.74098
-11.5536
-13.1317
-14.2091
-14.7724
-14.7816
-14.181
-13.0933
-11.9014
-11.1668
-12.523
-16.7263
-26.1917
-40.151
-55.6583
-51.2536
-30.3986
-19.0487
-10.5639
-5.15892
-2.49511
-0.253374
0.8041
1.8446
1.70114
-0.276945
-0.493803
-0.546789
-0.423958
-0.0448425
0.426959
0.965428
1.43237
1.84764
2.18571
2.47156
2.68182
2.83274
2.91213
2.94466
2.91525
2.88966
2.84568
2.767
2.65949
2.43348
2.08823
1.62526
0.946787
0.38317
0.427704
0.648494
0.578017
0.37249
0.351698
0.540794
0.572253
0.592991
0.53944
0.64786
0.75229
0.948177
1.10548
1.28281
1.42557
1.61616
1.74779
1.85915
1.85765
1.75351
1.50634
1.09242
0.487929
-0.341588
-1.42436
-2.79999
-4.45992
-6.35373
-8.37828
-10.4425
-12.4419
-14.2237
-15.476
-16.1542
-16.1817
-15.4956
-14.257
-12.9076
-12.0801
-13.5282
-18.2065
-28.7813
-44.7636
-62.3038
-57.0808
-32.7518
-19.9713
-10.8356
-5.18878
-2.41862
-0.170283
0.909407
1.9129
1.76647
-0.300966
-0.514059
-0.572516
-0.465797
-0.0835172
0.417395
0.993223
1.49424
1.93237
2.28486
2.57882
2.7947
2.9477
3.02719
3.05859
3.02769
3.00036
2.95563
2.87276
2.76118
2.52927
2.17726
1.71805
1.04858
0.494905
0.518761
0.726365
0.639836
0.452654
0.462939
0.612666
0.595837
0.587317
0.518521
0.621821
0.727354
0.934797
1.10032
1.2924
1.44817
1.64846
1.7981
1.92442
1.93321
1.83329
1.58301
1.15549
0.524649
-0.348115
-1.49515
-2.96167
-4.73929
-6.77246
-8.94575
-11.1878
-13.397
-15.4117
-16.8593
-17.6506
-17.677
-16.8822
-15.4749
-13.9524
-13.0191
-14.5445
-19.6972
-31.4013
-49.3363
-68.8372
-62.7787
-35.0422
-20.8108
-11.0373
-5.1733
-2.30704
-0.0609114
1.03631
1.9969
1.89288
-0.325842
-0.53266
-0.592096
-0.502342
-0.121482
0.406357
1.01975
1.55629
2.01827
2.38532
2.68711
2.90817
3.06301
3.1426
3.17318
3.14086
3.11144
3.06518
2.9763
2.86042
2.62335
2.26422
1.80715
1.14288
0.594328
0.598532
0.796867
0.701029
0.52295
0.559503
0.669305
0.607614
0.573956
0.489898
0.588281
0.69562
0.91676
1.09173
1.30023
1.47001
1.67973
1.84886
1.99153
2.01173
1.91685
1.66423
1.22368
0.566645
-0.35013
-1.56371
-3.12572
-5.02801
-7.21001
-9.54378
-11.9809
-14.4254
-16.7044
-18.3643
-19.2596
-19.2611
-18.3347
-16.741
-15.0283
-13.9701
-15.5509
-21.1578
-33.9537
-53.529
-74.7002
-67.8164
-37.1435
-21.5354
-11.156
-5.10878
-2.15924
0.0751801
1.18482
2.09091
1.9899
-0.351628
-0.549619
-0.605293
-0.532384
-0.157379
0.394462
1.04527
1.61856
2.10531
2.48704
2.79627
3.02204
3.17851
3.25822
3.28834
3.2548
3.2228
3.17425
3.07743
2.95702
2.71588
2.34925
1.89272
1.23053
0.68266
0.668526
0.861656
0.763212
0.589617
0.644454
0.712387
0.608942
0.552755
0.453175
0.546914
0.656906
0.894127
1.08017
1.30658
1.49125
1.71025
1.90053
2.06097
2.09369
2.00463
1.75047
1.29755
0.614576
-0.346891
-1.62929
-3.29161
-5.32592
-7.66698
-10.1774
-12.8262
-15.5338
-18.1098
-19.9937
-20.9773
-20.9276
-19.8474
-18.0486
-16.1255
-14.9185
-16.525
-22.5461
-36.3211
-56.9873
-79.3087
-71.6034
-38.9036
-22.1165
-11.1787
-4.99157
-1.97477
0.237954
1.35478
2.19477
2.13037
-0.378346
-0.56505
-0.612252
-0.555049
-0.189827
0.382481
1.07013
1.68114
2.19348
2.58998
2.90619
3.13612
3.29403
3.37388
3.4039
3.36952
3.33438
3.28294
3.17615
3.05098
2.80711
2.4327
1.97536
1.31233
0.761053
0.729515
0.921291
0.828676
0.658434
0.720533
0.744042
0.601066
0.523862
0.408184
0.497599
0.611189
0.867085
1.06601
1.31173
1.51198
1.74035
1.95366
2.13326
2.17954
2.09709
1.84224
1.37769
0.669137
-0.337601
-1.69109
-3.45867
-5.63281
-8.14423
-10.8519
-13.7301
-16.7304
-19.6353
-21.7485
-22.7985
-22.67
-21.4143
-19.3902
-17.2326
-15.8498
-17.4454
-23.8267
-38.3801
-59.5028
-82.3258
-73.7179
-40.2169
-22.5
-11.0939
-4.81904
-1.75396
0.426966
1.54667
2.33338
2.27131
-0.406084
-0.579048
-0.613417
-0.569785
-0.217479
0.371319
1.09475
1.74417
2.28277
2.69411
3.0168
3.25029
3.40938
3.48939
3.51963
3.48501
3.44609
3.39147
3.27267
3.14245
2.89742
2.5151
2.05591
1.38903
0.830265
0.781496
0.975361
0.899863
0.73364
0.791216
0.766427
0.585155
0.487672
0.354977
0.440445
0.558638
0.835934
1.04963
1.31603
1.5323
1.77042
2.0089
2.20891
2.26977
2.19468
1.94004
1.4647
0.731063
-0.3214
-1.7482
-3.62615
-5.9484
-8.64292
-11.5714
-14.7063
-18.0324
-21.2894
-23.6277
-24.7175
-24.482
-23.0294
-20.7576
-18.3372
-16.7491
-18.2914
-24.9679
-40.0339
-61.0493
-83.6542
-74.2652
-41.0306
-22.6204
-10.8946
-4.58986
-1.49794
0.641476
1.75821
2.47282
2.38754
-0.434963
-0.591641
-0.609209
-0.576306
-0.239127
0.361987
1.11962
1.80781
2.37321
2.79944
3.12808
3.36441
3.52439
3.60452
3.63525
3.6012
3.55792
3.50017
3.36736
3.23171
2.98724
2.59719
2.13531
1.46145
0.890548
0.823794
1.02262
0.978078
0.819096
0.860319
0.781876
0.562461
0.444686
0.293817
0.375791
0.499636
0.801118
1.03146
1.31986
1.55231
1.80094
2.06701
2.28852
2.36486
2.29787
2.04438
1.5592
0.801123
-0.297371
-1.79966
-3.79321
-6.27236
-9.16444
-12.3405
-15.7739
-19.4688
-23.0869
-25.6295
-26.7283
-26.3579
-24.6867
-22.1416
-19.4272
-17.6019
-19.0437
-25.9356
-41.2425
-61.596
-83.2816
-73.6606
-41.2592
-22.4627
-10.5788
-4.30414
-1.20861
0.880001
1.98899
2.61441
2.56016
-0.465084
-0.602799
-0.600024
-0.574583
-0.253684
0.355591
1.14528
1.87227
2.46481
2.90594
3.24003
3.4784
3.63887
3.71905
3.75042
3.71792
3.66983
3.6094
3.46075
3.31918
3.0771
2.6798
2.21465
1.53041
0.941684
0.855106
1.06107
1.06342
0.918049
0.931227
0.793195
0.534455
0.395482
0.225188
0.304212
0.434791
0.763232
1.01203
1.3236
1.57212
1.83233
2.12889
2.37267
2.46528
2.40713
2.15579
1.66182
0.88012
-0.264536
-1.84439
-3.95887
-6.60425
-9.7104
-13.1637
-16.9451
-21.062
-25.0427
-27.7518
-28.8258
-28.2921
-26.3795
-23.5325
-20.4904
-18.3941
-19.6837
-26.6983
-41.9915
-61.1618
-81.3352
-72.0624
-40.8084
-22.0436
-10.1473
-3.96366
-0.888628
1.14071
2.23927
2.79036
2.73445