/*--------------------------------*- C++ -*----------------------------------*\
| =========                 |                                                 |
| \\      /  F ield         | OpenFOAM: The Open Source CFD Toolbox           |
|  \\    /   O peration     | Version:  4.1                                   |
|   \\  /    A nd           | Web:      www.OpenFOAM.org                      |
|    \\/     M anipulation  |                                                 |
\*---------------------------------------------------------------------------*/
FoamFile
{
    version     2.0;
    format      ascii;
    class       surfaceScalarField;
    location    "6";
    object      phi;
}
// * * * * * * * * * * * * * * * * * * * * * * * * * * * * * * * * * * * * * //

dimensions      [0 3 -1 0 0 0 0];

internalField   nonuniform List<scalar> 
13220
(
-894.29
2194.19
-1387.57
1793.48
-1856.36
1768.69
-2213.33
1656.87
-2489.66
1576.53
-2686.95
1497.19
-2807.17
1420.12
-2850.55
1343.59
-2816.51
1265.86
-2703.01
1186.4
-2513.42
1110.61
-2245.8
1032.28
-1847.08
901.182
-1170.06
623.174
129.84
-22.6365
2216.82
-76.9358
1847.77
-218.081
1909.83
-323.183
1761.97
-430.461
1683.8
-517.566
1584.29
-585.991
1488.54
-632.631
1390.23
-659.827
1293.05
-672.306
1198.88
-673.633
1111.93
-662.446
1021.1
-587
825.734
-308.442
344.613
-178.602
-109.378
2326.2
-277.145
2015.54
-432.677
2065.37
-510.669
1839.96
-581.226
1754.36
-611.622
1614.69
-615.568
1492.49
-593.195
1367.85
-550.54
1250.4
-495.756
1144.09
-430.309
1046.48
-342.787
933.572
-229.257
712.197
-90.9412
206.284
-269.544
29.7063
2296.49
12.8217
2032.42
8.98156
2069.2
44.198
1804.74
73.0159
1725.54
128.991
1558.71
196.338
1425.14
281.301
1282.88
383.226
1148.47
505.353
1021.96
636.332
915.501
748.619
821.284
760.518
700.295
479.263
487.536
209.719
30.0824
2266.41
33.9046
2028.6
48.5041
2054.6
60.8484
1792.4
66.4671
1719.92
78.1847
1546.99
80.072
1423.25
88.3492
1274.6
135.351
1101.47
264.211
893.098
453.961
725.751
603.534
671.705
604.33
699.495
384.56
707.299
594.279
-25.864
2292.27
-128.098
2130.83
-191.078
2117.58
-273.63
1874.95
-360.753
1807.04
-449.481
1635.72
-551.371
1525.14
-648.384
1371.62
-701.405
1154.49
-643.969
835.662
-456.194
537.975
-198.706
414.221
18.7842
482.009
76.842
649.246
671.121
33.1018
2259.17
-133.935
2297.87
-222.772
2206.42
-318.596
1970.77
-415.388
1903.83
-515.414
1735.74
-623.14
1632.86
-739.482
1487.96
-877.395
1292.4
-1030.46
988.73
-1136.21
643.724
-1082.3
360.306
-793.703
193.401
-354.174
209.707
316.947
166.272
2092.9
60.8826
2403.26
24.1238
2243.18
-0.800133
1995.7
-10.2063
1913.24
-25.3064
1750.84
-33.6455
1641.2
-51.4651
1505.78
-108.137
1349.07
-249.019
1129.61
-456.617
851.322
-642.941
546.639
-672.345
222.815
-468.529
5.90265
-151.582
225.876
1867.02
218.564
2410.57
230.934
2230.81
264.133
1962.5
320.318
1857.05
369.235
1701.93
429.747
1580.69
487.03
1448.5
526.387
1309.72
506.755
1149.24
399.823
958.255
211.324
735.13
-22.9754
457.1
-140.142
123.05
-291.724
182.149
1684.87
222.022
2370.7
249.84
2202.99
289.052
1923.29
346.832
1799.28
398.157
1650.6
453.636
1525.21
508.042
1394.09
554.856
1262.9
578.076
1126.03
560.368
975.964
487.014
808.494
345.692
598.435
131.705
337.062
-160.018
109.026
1575.85
162.3
2317.42
194.765
2170.52
227.133
1890.92
274.797
1751.61
317.713
1607.69
357.37
1485.56
391.799
1359.66
418.936
1235.77
432.575
1112.39
425.817
982.724
388.934
845.376
308.718
678.651
172.46
473.32
12.4416
59.1463
1516.7
139.67
2236.9
187.695
2122.5
217.498
1861.12
257.054
1712.06
291.807
1572.94
321.413
1455.95
342.604
1338.47
357.84
1220.53
366.243
1103.99
361.82
987.148
336.123
871.081
273.153
741.629
155.715
590.778
168.156
54.4227
1462.28
144.675
2146.65
252.339
2014.84
356.655
1756.8
449.364
1619.35
534.475
1487.83
607.296
1383.13
664.389
1281.38
695.216
1189.71
695.616
1103.59
657.55
1025.22
576.315
952.315
445.002
872.943
262.367
773.414
430.523
217.811
1244.47
258.251
2106.21
196.399
2076.69
109.853
1843.35
51.5276
1677.68
27.4627
1511.89
47.9845
1362.61
109.181
1220.19
205.023
1093.87
320.041
988.571
426.559
918.698
460.034
918.842
376.174
956.804
213.298
936.292
643.821
543.183
1347.66
1812.31
1951.25
1919.03
1788.48
1552.5
1298.34
1013.74
762.016
519.498
334.118
189.47
113.19
-1.97548e-06
122.054
-122.054
122.054
122.054
122.054
201.806
-79.7519
201.806
201.806
201.806
274.409
-72.6038
274.409
274.409
335.275
-60.8656
335.275
335.275
335.275
388.735
-53.4597
388.735
388.735
428.361
-39.6258
428.361
428.361
428.361
449.537
-21.1763
449.537
449.537
449.537
452.739
-3.20194
452.739
452.739
435.494
17.2445
435.494
435.494
435.494
401.816
33.6787
401.816
401.816
350.885
50.9304
350.885
350.885
350.885
290.352
60.5335
290.352
290.352
290.352
226.973
63.3783
226.973
226.973
178.079
48.8939
178.079
178.079
178.079
179.808
-1.72909
179.808
179.808
179.808
97.8473
81.9611
97.8473
97.8473
-65.777
163.624
-65.777
-65.7771
-65.7771
-358.109
292.332
-358.109
-358.109
-1126.52
768.408
-1126.52
-1126.52
-1126.52
-2329.66
1203.14
-2329.66
-2329.66
-2329.66
-3953.81
1624.15
-3953.81
-3953.81
-5901.64
1947.83
-5901.64
-5901.64
-5772.7
-5637.59
-5495.01
-7618.33
2275.05
-7471.06
-7301.07
-7115.33
-6928.12
-6736.98
-6540.12
-6342.2
-6145.24
-8548.6
2605.57
-8338.35
-8125.68
-7910.57
-7707.29
-7501.98
-7292.83
-7083.82
-6875.18
-9448.18
2777.23
-9229.78
-9009.85
-8788.51
-8567.6
-8341.97
-8106.85
-7870.55
-7634.39
-7399.51
-9898.73
2722.75
-9642.59
-9384.6
-9125.27
-8866.34
-8608.02
-8334.29
-8051.88
-7770.26
-9956.93
2452.3
-9680.4
-9395.27
-9095.02
-8794.3
-8493.35
-8194.19
-7895.61
-7577.04
-9260.78
1985.72
-8952.52
-8645.73
-8340.2
-8020.44
-7695.31
-7371.76
-7048.39
-6728.99
-7815.37
1400.66
-7489.08
-7166.11
-6846.43
-6531.76
-6223.2
-5901.66
-5588.71
-5284.33
-4991.63
-4955.97
255.833
-4687.43
-4432.28
-4184.6
-3944.44
-3709.68
-3512.48
-3383.7
-3253.96
-2841.63
-270.129
-2718.49
-2598.77
-2598.77
-2407.31
-191.461
-2216.22
-191.088
-2216.22
-2062.9
-153.327
-2062.9
-1940.67
-122.228
-1843.98
-96.6884
-1843.98
-1765.05
-78.9274
-1702.79
-62.2593
-1702.79
-1651.51
-51.2784
-1651.51
-1615.57
-35.9461
-1587.46
-28.1114
-1587.46
-1566.22
-21.2329
-1566.22
-1556.14
-10.0797
-1546.96
-9.18438
-1546.96
-1546.53
-0.433961
-1545.69
-0.832699
-1545.69
-1548.62
2.92727
-1548.62
-1559.3
10.6831
-1566.73
7.4249
-1566.73
-1577.02
10.2941
-1577.02
-1594.38
17.36
-1606.14
11.7568
-1606.14
-1625.65
19.5147
-1640.92
15.2704
-1640.92
-1659.6
18.6753
-1659.6
-1686.37
26.7726
-1708.57
22.1937
-1708.57
-1735.31
26.7423
-1735.31
-1771.95
36.6427
-1803.47
31.5192
-1803.47
-1847.98
44.5126
-1890
42.0186
-1890
-1941.3
51.2979
-1941.3
-2008.92
67.6249
-2074.57
65.6414
-2074.57
-2154.2
79.6372
-2154.2
-2256.53
102.328
-2356.24
99.7092
-2356.24
-2487.9
131.657
-2619.73
131.834
-2619.73
-2778.79
159.057
-2778.79
-2977.96
199.176
-3174.49
196.525
-3174.49
-3409.36
234.87
-3409.36
-3698.33
288.97
-3976.03
277.704
-3976.03
-4331.74
355.706
-4672.16
340.418
-4672.16
-5073.73
401.576
-5073.73
492.753
-70.88
-429.391
-65.4889
-518.042
-62.0918
-597.412
-58.7759
-673.125
-51.4086
-743.991
-39.3844
-747.015
-28.0233
-766.088
-18.9783
-813.895
-11.8983
-863.658
-0.281091
-821.804
14.7925
-745.978
23.9748
-747.776
32.8707
-737.559
39.9868
-782.637
42.1645
-841.14
50.9275
-820.185
62.4629
-853.126
61.9509
-986.546
54.3047
-1033.97
47.4808
-1012.94
33.4993
-1042.09
8.86509
-1072.49
-22.012
-1101.62
-67.2021
-1085.08
-113.596
-1067.61
-128.254
-1181.55
-107.373
-1377.49
-64.5329
-1554.03
-21.4005
-1553.91
4.58589
-1412.12
20.1327
-1272.72
27.5881
-1124.13
26.1825
-1015.28
21.338
-920.837
12.1041
-843.531
1.58991
-777.097
-6.82246
-720.059
-13.1653
-537.599
-25.36
-261.502
-46.2046
-147.428
-64.9397
35.9639
-77.3165
254.04
-88.2068
345.501
-99.1081
430.48
-109.531
507.719
-120.764
488.846
-134.585
367.502
-150.966
180.523
-165.207
-4.7361
-176.648
-159.942
-188.632
-305.378
-200.346
-458.743
-210.035
-622.066
-216.74
-798.853
-219.659
-989.872
-218.175
-1193.56
-211.816
-1406.17
-200.201
-1622.07
-182.941
-1834.23
-159.496
-2034.58
-129.283
-2214.53
-91.7538
-2360.03
-46.4435
-2456.64
6.16145
-2485.05
63.7576
-2423.17
122.056
-2245.12
175.309
-1942.09
215.855
-1502.66
235.839
-940.43
234.033
-295.941
214.397
284.61
178.655
705.707
132.473
959.882
83.8935
1133.72
46.9058
1545.4
3.02027
1595.15
-121.531
793.133
-355.236
1581.65
4476.38
-76.7187
-434.511
-70.1826
-524.578
-66.8325
-600.762
-63.9992
-675.958
-56.6446
-751.345
-43.6112
-760.048
-30.7222
-778.977
-19.9595
-824.658
-11.5012
-872.116
0.723483
-834.028
15.8045
-761.059
25.4022
-757.374
34.8965
-747.053
42.4701
-790.21
45.5769
-844.247
54.1535
-828.762
65.3311
-864.304
66.3407
-987.556
59.3835
-1027.01
51.3004
-1004.85
35.6662
-1026.45
8.02546
-1044.85
-28.6299
-1064.97
-82.2262
-1031.48
-133.896
-1015.94
-147.234
-1168.21
-121.393
-1403.33
-69.8301
-1605.6
-16.4335
-1607.31
12.8197
-1441.37
26.44
-1286.34
32.8416
-1130.53
30.1969
-1012.63
24.1239
-914.764
13.9182
-833.325
2.25946
-765.438
-7.5136
-710.286
-13.4555
-531.657
-23.2298
-251.728
-43.6124
-127.045
-64.0943
56.4458
-77.2957
267.241
-88.1236
356.329
-99.0253
441.382
-109.265
517.959
-119.701
499.282
-131.471
379.272
-145.221
194.273
-160.155
10.1974
-175.529
-144.568
-191.003
-289.903
-205.377
-444.369
-217.276
-610.167
-225.844
-790.285
-230.32
-985.396
-230.09
-1193.79
-224.669
-1411.59
-213.635
-1633.1
-196.536
-1851.33
-172.69
-2058.43
-141.353
-2245.87
-101.849
-2399.53
-53.6864
-2504.8
2.73742
-2541.47
65.104
-2485.54
129.015
-2309.03
188.227
-2001.3
233.885
-1548.32
255.627
-962.172
249.343
-289.656
221.408
312.544
180.143
746.972
132.431
1007.59
83.3395
1182.82
44.9433
1583.79
0.281071
1639.82
-132.649
926.063
-354.185
1803.19
4523.77
-79.412
-440.868
-71.8309
-532.159
-68.4262
-604.167
-66.2434
-678.141
-59.3989
-758.19
-46.0662
-773.381
-32.2958
-792.748
-20.5264
-836.427
-11.3338
-881.309
0.994364
-846.356
15.8522
-775.917
25.7822
-767.304
35.8206
-757.091
43.9267
-798.316
47.621
-847.941
55.6902
-836.831
66.508
-875.122
68.6443
-989.692
62.3656
-1020.73
53.5281
-996.016
36.3393
-1009.26
6.33508
-1014.84
-35.6085
-1023.02
-96.1186
-970.973
-150.117
-961.94
-161.171
-1157.16
-131.526
-1432.97
-73.9036
-1663.22
-12.0575
-1669.15
20.9964
-1474.42
32.4211
-1297.77
37.2038
-1135.31
33.6389
-1009.07
26.5734
-907.699
15.7699
-822.522
3.11214
-752.78
-7.95383
-699.22
-14.7032
-524.907
-23.9975
-242.433
-43.3108
-107.732
-63.7877
76.9227
-77.3385
280.792
-88.0793
367.07
-98.9346
452.237
-109.04
528.064
-118.906
509.148
-129.814
390.18
-144.072
208.531
-161.453
27.5782
-179.221
-126.799
-196.127
-272.997
-211.521
-428.976
-224.334
-597.353
-233.739
-780.88
-238.958
-980.177
-239.35
-1193.4
-234.393
-1416.55
-223.615
-1643.88
-206.502
-1868.45
-182.279
-2082.65
-150.098
-2278.05
-109.224
-2440.41
-59.188
-2554.84
-0.378592
-2600.28
64.8282
-2550.74
132.167
-2376.37
195.38
-2064.52
245.218
-1598.16
269.095
-986.049
261.156
-281.718
228.514
345.186
182.142
793.344
131.922
1057.81
82.1364
1232.6
42.2673
1623.66
-4.14184
1686.23
-142.668
1064.59
-337.501
1998.02
4526.69
-82.2391
-448.485
-73.3143
-541.084
-69.4926
-607.988
-67.9971
-679.637
-62.0028
-764.184
-48.5511
-786.833
-33.8914
-807.407
-21.0675
-849.251
-11.0565
-891.32
1.17422
-858.587
15.743
-790.485
26.2757
-777.836
36.8831
-767.699
45.3521
-806.785
49.5914
-852.181
57.5207
-844.76
68.1303
-885.731
70.9771
-992.539
65.3584
-1015.12
56.1611
-986.819
37.2657
-990.367
4.39315
-981.971
-43.7066
-974.922
-111.503
-903.177
-167.356
-906.087
-175.332
-1149.18
-140.854
-1467.45
-77.053
-1727.02
-6.97252
-1739.24
30.5552
-1511.95
39.6921
-1306.9
41.9513
-1137.57
37.1116
-1004.23
29.122
-899.709
17.9993
-811.399
4.20274
-738.983
-8.38816
-686.629
-15.7363
-517.559
-25.1265
-233.043
-44.1287
-88.7299
-64.1965
96.9904
-77.5279
294.123
-88.0363
377.578
-98.7567
462.958
-108.661
537.968
-118.08
518.568
-129.028
401.128
-144.885
224.388
-164.514
47.2072
-183.737
-107.577
-201.626
-255.108
-218.011
-412.591
-231.841
-583.523
-242.203
-770.518
-248.28
-974.1
-249.396
-1192.28
-244.989
-1420.96
-234.542
-1654.32
-217.485
-1885.5
-192.953
-2107.18
-160.001
-2311
-117.84
-2482.57
-66.0303
-2606.65
-4.96219
-2661.35
62.9858
-2618.69
133.825
-2447.21
201.539
-2132.23
256.47
-1653.09
283.489
-1013.07
274.223
-272.451
236.792
382.617
184.659
845.477
130.813
1111.66
79.9906
1283.42
38.7428
1664.91
-10.3498
1735.32
-153.41
1207.65
-333.736
2178.35
4548.66
-84.529
-457.369
-74.0246
-551.588
-69.3796
-612.633
-68.4703
-680.546
-63.762
-768.893
-50.6356
-799.959
-35.2734
-822.769
-21.5716
-862.953
-10.8239
-902.067
1.22736
-870.639
15.3621
-804.62
26.5383
-789.012
37.7474
-778.908
46.5062
-815.544
51.1927
-856.867
59.0806
-852.648
69.5467
-896.197
72.9428
-995.935
68.0014
-1010.17
58.567
-977.385
37.872
-969.672
1.92499
-946.024
-52.658
-920.339
-127.066
-828.769
-183.059
-850.094
-186.435
-1145.81
-146.388
-1507.5
-77.473
-1795.94
-1.16571
-1815.54
40.8199
-1553.94
47.8996
-1313.98
46.7587
-1136.43
40.4516
-997.923
31.6991
-890.956
20.5052
-800.205
5.56276
-724.041
-8.84839
-672.218
-16.9046
-509.503
-26.3292
-223.619
-44.9567
-70.1024
-64.5328
116.566
-77.6039
307.194
-87.86
387.834
-98.3711
473.469
-108.021
547.618
-117.274
527.821
-129.056
412.909
-146.607
241.939
-167.551
68.1508
-187.719
-87.4081
-206.664
-236.163
-224.148
-395.107
-239.036
-568.635
-250.391
-759.164
-257.367
-967.123
-259.253
-1190.4
-255.451
-1424.76
-245.404
-1664.37
-228.495
-1902.41
-203.785
-2131.89
-170.263
-2344.52
-127.123
-2525.71
-73.9907
-2659.78
-11.2917
-2724.05
58.6443
-2688.63
132.34
-2520.9
204.417
-2204.31
264.973
-1713.64
296.088
-1044.18
286.512
-262.875
245.135
423.994
187.439
903.173
129.33
1169.77
76.9806
1335.77
34.4227
1707.47
-17.6582
1787.4
-160.729
1350.72
-318.13
2335.75
4508.24
-86.5687
-467.439
-74.3216
-563.835
-68.3332
-618.622
-67.6371
-681.242
-64.543
-771.987
-52.2882
-812.214
-36.4702
-838.587
-22.0643
-877.359
-10.729
-913.403
1.20727
-882.575
14.9675
-818.38
26.7358
-800.781
38.4881
-790.66
47.4751
-824.531
52.4978
-861.89
60.4283
-860.578
70.8977
-906.667
74.6952
-999.733
70.4425
-1005.92
60.9085
-967.851
38.3142
-947.078
-0.994577
-906.716
-62.2433
-859.09
-142.149
-748.863
-196.119
-796.123
-192.861
-1149.06
-146.238
-1554.12
-73.3845
-1868.79
5.86643
-1894.79
51.3448
-1599.42
57.0367
-1319.68
51.7409
-1131.14
43.7311
-989.913
34.3622
-881.587
23.159
-789.002
7.1617
-708.044
-9.10728
-655.949
-17.8828
-500.727
-27.4598
-214.042
-45.8938
-51.6684
-64.8234
135.496
-77.494
319.865
-87.4427
397.783
-97.6517
483.678
-107.035
557.002
-116.476
537.262
-129.515
425.949
-148.499
260.922
-170.446
90.098
-191.709
-66.1445
-211.781
-216.091
-230.345
-376.544
-246.313
-552.667
-258.7
-746.776
-266.623
-959.201
-269.328
-1187.69
-266.185
-1427.9
-256.606
-1673.95
-239.942
-1919.08
-215.204
-2156.63
-181.355
-2378.37
-137.621
-2569.44
-83.7285
-2713.67
-20.1377
-2787.64
50.9796
-2759.74
126.955
-2596.88
203.434
-2280.79
270.369
-1780.58
306.794
-1080.61
298.076
-254.157
253.437
468.633
190.36
966.25
127.656
1232.47
73.3991
1390.03
29.6416
1751.23
-24.7053
1841.75
-164.546
1490.56
-303.721
2474.92
4493.48
-88.4753
-478.573
-74.4367
-577.874
-66.5702
-626.488
-65.4119
-682.4
-64.0559
-773.343
-53.3316
-822.938
-37.4081
-854.511
-22.482
-892.285
-10.7721
-925.112
1.1635
-894.51
14.7322
-831.949
26.9747
-813.023
39.0889
-802.774
48.1947
-833.637
53.4711
-867.166
61.4549
-868.562
72.0904
-917.302
76.3112
-1003.95
72.7819
-1002.39
63.211
-958.28
38.6678
-922.534
-4.28006
-863.768
-72.0138
-791.357
-155.548
-665.329
-204.654
-747.016
-192.489
-1161.23
-138.632
-1607.98
-63.2126
-1944.21
14.822
-1972.83
61.663
-1646.26
66.7899
-1324.8
56.9118
-1121.26
46.9018
-979.903
37.0098
-871.695
25.763
-777.755
8.95859
-691.239
-9.06359
-637.927
-18.6973
-491.094
-28.3699
-204.369
-46.6197
-33.4186
-64.8959
153.772
-77.1053
332.074
-86.661
407.339
-96.4796
493.496
-105.699
566.222
-115.755
547.318
-130.27
440.463
-150.453
281.106
-173.278
112.923
-195.63
-43.7924
-216.804
-194.917
-236.486
-356.861
-253.596
-535.558
-267.076
-733.296
-276.002
-950.275
-279.584
-1184.11
-277.164
-1430.32
-268.135
-1682.98
-251.843
-1935.37
-227.283
-2181.19
-193.452
-2412.2
-149.671
-2613.22
-95.7884
-2767.56
-32.2486
-2851.18
39.131
-2831.12
116.851
-2674.6
197.852
-2361.79
271.865
-1854.59
314.812
-1123.55
308.385
-247.73
261.34
515.678
193.208
1034.38
125.827
1299.85
69.4129
1446.44
24.6125
1796.03
-31.2088
1897.57
-166.025
1625.38
-288.984
2597.88
4439.37
-90.3529
-490.59
-74.6394
-593.588
-64.4654
-636.662
-61.9107
-684.955
-62.0648
-773.189
-53.5498
-831.454
-38.0187
-870.042
-22.7949
-907.509
-10.963
-936.944
1.11403
-906.587
14.7617
-845.597
27.3241
-825.586
39.5676
-815.018
48.6962
-842.766
54.0972
-872.567
62.0746
-876.54
73.0451
-928.273
77.8917
-1008.8
75.2575
-999.758
65.6536
-948.676
39.0658
-895.947
-7.75247
-816.949
-81.3018
-717.807
-165.876
-580.755
-206.932
-705.96
-183.948
-1184.21
-122.999
-1668.93
-46.3641
-2020.84
26.5824
-2045.77
71.7888
-1691.46
76.8211
-1329.84
62.3387
-1106.78
49.9343
-967.498
39.527
-861.288
28.2099
-766.438
10.9673
-673.997
-8.57769
-618.382
-19.2642
-480.407
-29.0218
-194.611
-47.0814
-15.359
-64.6514
171.342
-76.3267
343.75
-85.4024
416.414
-94.8162
502.91
-104.126
575.532
-115.204
558.396
-131.203
456.462
-152.366
302.268
-175.999
136.556
-199.45
-20.3415
-221.798
-172.569
-242.662
-335.998
-260.963
-517.256
-275.592
-718.668
-285.576
-940.291
-290.091
-1179.6
-288.46
-1431.95
-280.077
-1691.36
-264.315
-1951.13
-240.212
-2205.29
-206.878
-2445.54
-163.789
-2656.31
-110.884
-2820.46
-48.4373
-2913.63
22.4245
-2901.99
101.737
-2753.91
187.681
-2447.73
269.347
-1936.26
319.683
-1173.89
317.011
-245.058
268.705
563.984
195.901
1107.19
123.853
1371.9
65.1262
1505.17
19.4384
1841.71
-37.0956
1954.1
-165.17
1753.45
-266.406
2699.12
4369.49
-92.2781
-503.257
-75.1717
-610.694
-62.4644
-649.37
-57.4317
-689.988
-58.3848
-772.235
-52.6216
-837.217
-38.1759
-884.488
-22.9761
-922.709
-11.2319
-948.689
1.13414
-918.953
15.053
-859.516
27.718
-838.251
39.8578
-827.157
48.925
-851.833
54.3329
-877.975
62.2471
-884.454
73.63
-939.656
79.3516
-1014.52
77.9172
-998.323
68.2391
-938.998
39.5074
-867.215
-11.1831
-766.259
-89.252
-639.738
-171.641
-498.366
-201.488
-676.113
-166.786
-1218.91
-100.185
-1735.53
-23.6294
-2097.4
41.87
-2111.27
82.2828
-1731.88
86.8196
-1334.37
68.0473
-1088
52.816
-952.267
41.815
-850.287
30.5161
-755.139
13.2705
-656.751
-7.57506
-597.536
-19.5461
-468.436
-29.3433
-184.814
-47.1502
2.44796
-63.9832
188.175
-75.0705
354.837
-83.634
424.978
-92.7556
512.032
-102.505
585.282
-114.873
570.763
-132.202
473.791
-154.18
324.247
-178.65
161.025
-203.239
4.24735
-226.79
-149.018
-248.871
-313.917
-268.426
-497.7
-284.264
-702.83
-295.365
-929.19
-300.871
-1174.09
-300.101
-1432.72
-292.481
-1698.98
-277.46
-1966.15
-254.201
-2228.55
-222.016
-2477.72
-180.578
-2697.75
-129.78
-2871.26
-69.3889
-2974.02
0.653329
-2972.03
82.1705
-2835.43
173.958
-2539.52
263.579
-2025.88
321.416
-1231.73
323.542
-247.184
275.267
612.259
198.341
1184.11
121.714
1448.53
60.612
1566.27
14.1855
1888.14
-42.3169
2010.6
-163.006
1874.14
-250.313
2786.43
4318.35
-94.2891
-516.308
-76.192
-628.791
-60.99
-664.572
-52.479
-698.499
-53.0055
-771.709
-50.1587
-840.064
-37.6609
-896.986
-22.9834
-937.386
-11.5092
-960.163
1.31459
-931.777
15.5729
-873.774
28.0453
-850.723
39.8855
-838.998
48.8058
-860.753
54.1346
-883.304
61.9656
-892.285
73.7295
-951.42
80.5176
-1021.31
80.6336
-998.439
70.864
-929.228
39.9835
-836.334
-14.2255
-712.05
-94.8612
-559.103
-171.48
-421.747
-187.479
-660.114
-141.675
-1264.72
-72.2673
-1804.94
2.91129
-2172.58
60.8139
-2169.18
94.0674
-1765.13
96.6516
-1336.96
74.0084
-1065.36
55.6013
-933.86
43.8637
-838.55
32.7665
-744.042
15.9454
-639.93
-6.02239
-575.569
-19.5
-454.959
-29.2977
-175.016
-46.7329
19.8831
-62.7994
204.242
-73.3004
365.338
-81.4296
433.107
-90.4979
521.1
-101.023
595.806
-114.751
584.491
-133.2
492.24
-155.923
346.969
-181.238
186.341
-206.947
29.9561
-231.761
-124.205
-255.135
-290.542
-276.007
-476.828
-293.116
-685.721
-305.39
-916.916
-311.947
-1167.53
-312.121
-1432.55
-305.412
-1705.69
-291.42
-1980.14
-269.533
-2250.44
-239.367
-2507.89
-200.751
-2736.36
-153.228
-2918.78
-95.4799
-3031.77
-25.651
-3041.86
59.8095
-2920.89
158.941
-2638.65
256.467
-2123.4
320.77
-1296.03
327.793
-254.207
280.781
659.271
200.427
1264.47
119.368
1529.59
55.9021
1629.74
8.8953
1935.15
-46.9435
2066.44
-159.487
1986.68
-234.172
2861.11
4243.24
-96.3838
-529.459
-77.7461
-647.429
-60.3361
-681.982
-47.7082
-711.127
-46.2064
-773.211
-45.8057
-840.464
-36.1492
-906.642
-22.6986
-950.837
-11.7176
-971.144
1.71956
-945.214
16.3153
-888.37
28.275
-862.683
39.6425
-850.365
48.312
-869.423
53.5197
-888.512
61.2629
-900.028
73.2582
-963.415
81.2305
-1029.28
83.237
-1000.45
73.3834
-919.375
40.487
-803.438
-16.4415
-655.122
-97.1167
-478.427
-164.409
-354.454
-164.86
-659.663
-110.178
-1319.4
-41.7323
-1873.38
30.6805
-2244.99
82.6516
-2221.15
107.905
-1790.38
106.378
-1335.43
80.1192
-1039.1
58.3665
-912.107
45.7194
-825.902
35.0224
-733.345
18.9857
-623.893
-3.9228
-552.66
-19.0613
-439.82
-28.8557
-165.222
-45.7616
36.789
-61.0466
219.527
-71.0427
375.334
-78.9364
441
-88.2628
530.427
-99.7876
607.331
-114.775
599.478
-134.139
511.605
-157.58
370.41
-183.772
212.533
-210.632
56.8165
-236.746
-98.0907
-261.466
-265.822
-283.719
-454.576
-302.16
-667.28
-315.665
-903.411
-323.335
-1159.86
-324.551
-1431.33
-318.949
-1711.29
-306.38
-1992.71
-286.584
-2270.23
-259.543
-2534.93
-225.071
-2770.84
-181.805
-2962.05
-126.554
-3087.02
-55.1053
-3113.31
37.291
-3013.28
145.806
-2747.17
250.878
-2228.48
319.381
-1364.53
329.947
-264.773
285
704.219
202.034
1347.43
116.759
1614.86
50.996
1695.5
3.58379
1982.56
-50.9886
2121.02
-154.719
2090.41
-213.389
2919.78
4161.68
-98.5164
-542.422
-79.773
-666.172
-60.6057
-701.149
-43.7936
-727.939
-38.6027
-778.402
-39.3968
-839.67
-33.2453
-912.794
-21.8742
-962.208
-11.6905
-981.328
2.37134
-959.276
17.2537
-903.252
28.4736
-873.903
39.205
-861.097
47.4748
-877.692
52.5377
-893.574
60.1902
-907.681
72.2481
-975.473
81.5093
-1038.54
85.6421
-1004.58
75.6787
-909.411
41.056
-768.815
-17.3315
-596.734
-95.1493
-400.61
-150.021
-299.583
-134.516
-675.168
-74.4339
-1379.48
-10.6085
-1937.21
57.7422
-2313.34
105.968
-2269.37
123.859
-1808.28
116.144
-1327.71
86.2201
-1009.18
61.134
-887.021
47.3996
-812.168
37.2518
-723.197
22.2737
-608.915
-1.30055
-529.086
-18.1482
-422.972
-28.001
-155.369
-44.2014
52.9894
-58.7106
234.036
-68.3648
384.988
-76.3087
448.944
-86.2005
540.319
-98.8079
619.938
-114.861
615.532
-135
531.744
-159.175
394.585
-186.26
239.617
-214.269
84.8262
-241.728
-70.6323
-267.867
-239.682
-291.568
-430.875
-311.404
-647.443
-326.195
-888.62
-335.047
-1151.01
-337.428
-1428.95
-333.199
-1715.52
-322.594
-2003.32
-305.838
-2286.99
-283.257
-2557.51
-254.244
-2799.85
-215.7
-3000.59
-161.72
-3141
-85.5441
-3189.48
17.6831
-3116.51
137.819
-2867.3
249.959
-2340.62
319.555
-1434.13
330.675
-275.893
287.748
747.146
203.013
1432.17
113.818
1704.06
45.8692
1763.45
-1.76591
2030.19
-54.5482
2173.8
-149.814
2185.68
-198.94
2968.91
4094.4
-100.596
-554.91
-82.1449
-684.624
-61.7225
-721.571
-41.2466
-748.415
-31.0679
-788.58
-31.1173
-839.621
-28.5681
-915.343
-20.1322
-970.644
-11.1286
-990.331
3.28519
-973.69
18.3029
-918.27
28.7323
-884.332
38.6739
-871.038
46.3317
-885.35
51.2055
-898.448
58.7925
-915.268
70.9066
-987.587
81.6255
-1049.26
87.8717
-1010.82
77.6471
-899.187
41.7693
-732.937
-16.4017
-538.563
-88.387
-328.624
-128.588
-259.382
-98.3101
-705.446
-36.8514
-1440.94
19.8414
-1993.9
83.1804
-2376.68
129.076
-2315.27
141.008
-1820.21
125.912
-1312.62
92.0891
-975.354
63.8252
-858.757
48.8476
-797.19
39.3427
-713.692
25.6434
-595.216
1.82978
-505.272
-16.6744
-404.468
-26.7387
-145.305
-42.0527
68.3034
-55.8064
247.789
-65.3377
394.52
-73.6499
457.257
-84.3524
551.021
-98.0133
633.599
-114.936
632.454
-135.776
552.584
-160.706
419.515
-188.693
267.604
-217.872
114.006
-246.719
-41.786
-274.343
-212.057
-299.56
-405.659
-320.852
-626.15
-336.987
-872.486
-347.094
-1140.9
-350.8
-1425.25
-348.312
-1718.01
-340.408
-2011.22
-327.902
-2299.5
-311.264
-2574.15
-288.754
-2822.36
-254.493
-3034.85
-199.244
-3196.25
-114.271
-3274.45
3.7187
-3234.5
137.3
-3000.88
256.175
-2459.49
323.759
-1501.71
331.115
-283.249
288.973
789.289
203.193
1517.95
110.463
1796.79
40.4855
1833.43
-7.18453
2077.86
-57.8353
2224.45
-144.419
2272.26
-182.655
3007.14
4011.45
-102.484
-566.62
-84.7096
-702.398
-63.5063
-742.775
-40.2468
-771.674
-24.5281
-804.299
-21.6108
-842.538
-21.8861
-915.068
-17.0154
-975.514
-9.6373
-997.709
4.5054
-987.833
19.3373
-933.102
29.0846
-894.08
38.1083
-880.062
44.9073
-892.149
49.5167
-903.058
57.1184
-922.869
69.5584
-1000.03
81.9924
-1061.7
89.9904
-1018.82
79.1816
-888.378
42.7261
-696.482
-13.2603
-482.577
-76.682
-265.203
-101.052
-235.012
-58.9571
-747.54
0.158139
-1500.06
48.9476
-2042.69
106.572
-2434.3
150.179
-2358.88
157.521
-1827.55
135.169
-1290.27
97.4035
-937.588
66.2931
-827.647
50.0002
-780.897
41.1924
-704.884
28.9825
-583.006
5.4597
-481.75
-14.5952
-384.413
-25.0928
-134.807
-39.3491
82.5598
-52.3662
260.807
-62.0088
404.162
-70.9923
466.24
-82.6707
562.699
-97.3036
648.232
-114.952
650.102
-136.472
574.104
-162.177
445.22
-191.071
296.498
-221.426
144.361
-251.707
-11.5053
-280.893
-182.871
-307.695
-378.857
-330.506
-603.34
-348.04
-854.952
-359.493
-1129.45
-364.741
-1420
-364.502
-1718.25
-360.277
-2015.45
-353.48
-2306.29
-344.248
-2583.38
-328.654
-2837.95
-296.996
-3066.51
-236.722
-3256.52
-138.629
-3372.55
-2.93407
-3370.2
144.967
-3148.78
270.557
-2585.08
333.962
-1565.12
332.708
-281.995
288.798
833.199
202.395
1604.35
106.593
1892.59
34.794
1905.23
-12.7061
2125.36
-60.8807
2272.62
-138.913
2350.3
-168.715
3036.95
3945.07
-103.976
-577.22
-87.3038
-719.07
-65.7495
-764.329
-40.5903
-796.833
-19.6754
-825.214
-11.903
-850.31
-13.2789
-913.692
-12.1078
-976.686
-6.82068
-1003
6.11792
-1000.77
20.2319
-947.216
29.4694
-903.317
37.5127
-888.105
43.2503
-897.887
47.514
-907.321
55.2541
-930.609
68.4785
-1013.25
82.869
-1076.09
91.9388
-1027.89
80.1203
-876.559
43.9874
-660.349
-7.7167
-430.872
-60.3787
-212.541
-68.855
-226.536
-19.4665
-796.929
34.4923
-1554.02
76.2657
-2084.46
127.312
-2485.35
167.357
-2398.92
170.936
-1831.13
142.752
-1262.08
101.674
-896.511
68.3921
-794.365
50.9074
-763.413
42.8046
-696.782
32.2747
-572.476
9.56264
-459.037
-11.9433
-362.907
-23.1006
-123.65
-36.1497
95.6088
-48.4321
273.089
-58.3964
414.127
-68.313
476.157
-81.0686
575.455
-96.591
663.755
-114.89
668.401
-137.098
596.313
-163.583
471.704
-193.383
326.298
-224.909
175.887
-256.675
20.261
-287.513
-152.034
-315.974
-350.396
-340.363
-578.95
-359.354
-835.96
-372.264
-1116.54
-379.356
-1412.91
-382.066
-1715.54
-382.775
-2014.74
-383.324
-2305.74
-382.659
-2584.05
-373.367
-2847.24
-341.265
-3098.61
-271.496
-3326.29
-156.65
-3487.39
-1.9849
-3524.86
160.019
-3310.79
292.581
-2717.64
351.121
-1623.66
336.868
-267.742
287.534
882.533
200.457
1691.43
102.094
1990.95
28.7338
1978.59
-18.3721
2172.47
-63.7912
2318.04
-133.52
2420.02
-156.547
3059.97
3868.16
-104.798
-586.337
-89.7353
-734.133
-68.2486
-785.816
-41.8334
-823.249
-16.7491
-850.298
-3.09962
-863.96
-3.2591
-913.532
-5.19387
-974.751
-2.38812
-1005.8
8.23511
-1011.39
20.9314
-959.912
29.8032
-912.189
36.8932
-895.195
41.4728
-902.466
45.3278
-911.176
53.334
-938.616
67.7533
-1027.67
84.0783
-1092.41
93.3391
-1037.15
80.1833
-863.404
45.5143
-625.68
0.151865
-385.51
-40.2952
-172.094
-33.7941
-233.037
17.927
-848.65
64.7998
-1600.89
100.911
-2120.58
144.132
-2528.57
178.449
-2433.24
178.449
-1831.13
146.865
-1230.5
104.18
-853.826
70.0062
-760.191
51.7844
-745.191
44.3202
-689.317
35.5245
-563.68
14.0778
-437.591
-8.77137
-340.058
-20.81
-111.611
-32.5274
107.326
-44.0577
284.619
-54.5031
424.572
-65.5668
487.22
-79.4679
589.356
-95.8228
680.11
-114.752
687.33
-137.661
619.221
-164.924
498.968
-195.631
357.005
-228.338
208.594
-261.636
53.5587
-294.202
-119.467
-324.393
-320.205
-350.421
-552.922
-370.932
-815.449
-385.447
-1102.03
-394.804
-1403.55
-401.405
-1708.94
-408.585
-2007.56
-418.127
-2296.2
-426.516
-2575.66
-421.579
-2852.18
-384.841
-3135.35
-301.224
-3409.91
-167.461
-3621.16
5.62681
-3697.95
180.691
-3485.85
320.671
-2857.62
375.025
-1678.01
344.587
-237.304
285.626
941.494
197.244
1779.81
96.8394
2091.36
22.2346
2053.19
-24.2287
2218.93
-66.6451
2360.46
-128.257
2481.64
-142.123
3073.84
3791.68
-104.586
-593.553
-91.75
-746.969
-70.7851
-806.78
-43.5338
-850.5
-15.4903
-878.342
4.03875
-883.489
7.28434
-916.778
3.60713
-971.074
3.75886
-1005.95
11.0031
-1018.64
21.5696
-970.478
30.1218
-920.741
36.323
-901.396
39.7388
-905.882
43.1281
-914.566
51.5052
-946.993
67.2937
-1043.46
85.0174
-1110.14
93.4787
-1045.61
78.9727
-848.898
47.1336
-593.841
9.99142
-348.368
-17.5735
-144.529
1.92027
-252.531
52.0834
-898.813
90.8426
-1639.65
121.502
-2151.24
155.178
-2562.25
181.05
-2459.11
177.19
-1827.27
145.322
-1198.63
103.966
-812.47
70.9967
-727.222
52.9312
-727.126
45.971
-682.357
38.7463
-556.456
18.9199
-417.764
-5.13837
-316
-18.2602
-98.4896
-28.5551
117.621
-39.3128
295.377
-50.338
435.597
-62.7165
499.599
-77.8239
604.463
-94.9829
697.269
-114.553
706.9
-138.167
642.836
-166.2
527
-197.822
388.628
-231.735
242.507
-266.6
88.4232
-300.952
-85.1152
-332.948
-288.209
-360.674
-525.196
-382.776
-793.347
-399.103
-1085.7
-411.313
-1391.34
-423.033
-1697.22
-438.449
-1992.14
-458.363
-2276.29
-475.221
-2558.8
-471.284
-2856.12
-425.19
-3181.44
-324.429
-3510.67
-171.457
-3774.13
18.1212
-3887.53
204.949
-3672.68
352.95
-3005.62
404.523
-1729.59
356.14
-188.921
283.535
1014.1
192.664
1870.68
90.6884
2193.33
15.218
2128.66
-30.3272
2264.48
-69.5354
2399.67
-123.574
2535.67
-132.429
3082.69
3726.87
-102.881
-598.404
-93.0067
-756.844
-73.0926
-826.694
-45.3802
-878.212
-15.3345
-908.387
9.35025
-908.174
17.42
-924.847
13.8455
-967.499
11.5215
-1003.63
14.6891
-1021.81
22.5866
-978.376
30.6541