/*--------------------------------*- C++ -*----------------------------------*\
| =========                 |                                                 |
| \\      /  F ield         | OpenFOAM: The Open Source CFD Toolbox           |
|  \\    /   O peration     | Version:  4.1                                   |
|   \\  /    A nd           | Web:      www.OpenFOAM.org                      |
|    \\/     M anipulation  |                                                 |
\*---------------------------------------------------------------------------*/
FoamFile
{
    version     2.0;
    format      ascii;
    class       volSymmTensorField;
    location    "6";
    object      R;
}
// * * * * * * * * * * * * * * * * * * * * * * * * * * * * * * * * * * * * * //

dimensions      [0 2 -2 0 0 0 0];

internalField   nonuniform List<symmTensor> 
6785
(
(0.264128 4.73289e-17 5.76031e-17 0.191445 0.0371135 0.369258)
(0.000125708 2.77071e-22 3.70949e-22 0.000125202 2.35066e-07 0.000126403)
(0.000120279 -1.23358e-23 -8.52635e-24 0.000120288 1.12197e-08 0.000120276)
(0.000120277 5.85821e-24 3.11428e-24 0.000120281 8.69634e-09 0.000120274)
(0.000120292 -7.37942e-24 -1.70835e-24 0.000120296 8.3221e-09 0.00012029)
(0.000120266 3.57326e-24 -9.19123e-25 0.000120269 7.60799e-09 0.000120264)
(0.000120281 9.30437e-25 2.05084e-24 0.000120284 6.99708e-09 0.00012028)
(0.000120291 -6.37289e-24 -2.38058e-24 0.000120292 6.38126e-09 0.00012029)
(0.000120263 1.52992e-24 -2.36688e-25 0.000120264 5.86216e-09 0.000120263)
(0.000120278 1.24539e-24 1.72608e-24 0.000120279 5.49703e-09 0.000120279)
(0.000120287 -2.80686e-24 -7.64532e-26 0.000120286 4.85373e-09 0.000120288)
(0.000120254 1.36564e-24 -5.5094e-25 0.000120251 3.7096e-09 0.000120255)
(0.00012061 -2.68055e-25 8.94759e-25 0.000120603 -7.3944e-09 0.000120612)
(0.000366287 -5.08308e-22 -2.47511e-21 0.000329237 -5.39426e-05 0.000365058)
(0.414014 -2.11888e-18 -1.01608e-17 0.262798 -0.218139 0.411545)
(0.332753 5.73102e-17 1.52195e-16 0.135241 -0.00391387 0.589314)
(0.000649316 4.11029e-20 1.60632e-19 0.000377937 -1.75607e-05 0.000963909)
(2.14124e-07 -1.56602e-25 -9.10803e-26 2.14266e-07 5.03384e-11 2.14063e-07)
(2.00249e-07 5.75711e-26 5.25128e-26 2.00271e-07 -2.93971e-12 2.00175e-07)
(1.90755e-07 -6.6942e-26 -3.58728e-26 1.90803e-07 8.05415e-12 1.90695e-07)
(1.81063e-07 2.14545e-26 7.02919e-27 1.811e-07 3.76004e-12 1.81008e-07)
(1.71739e-07 -7.34473e-27 1.57802e-26 1.71773e-07 2.21969e-12 1.71691e-07)
(1.62403e-07 -3.72931e-26 -1.95275e-26 1.62434e-07 1.30977e-13 1.62361e-07)
(1.52842e-07 7.00498e-27 1.5334e-27 1.5287e-07 -1.68291e-12 1.52805e-07)
(1.43236e-07 -2.01354e-27 1.49819e-26 1.43261e-07 -2.17239e-12 1.43205e-07)
(1.34118e-07 -1.24609e-26 -5.77131e-27 1.34139e-07 -5.40067e-12 1.34092e-07)
(1.51225e-07 1.84339e-25 8.49792e-27 1.49394e-07 -6.20934e-09 1.50329e-07)
(4.01834e-05 4.05704e-22 1.9303e-23 3.60154e-05 -1.38323e-05 3.83127e-05)
(0.00608492 7.79951e-20 1.61817e-21 0.00526901 -0.00260076 0.00575929)
(0.113971 2.14482e-18 2.37554e-19 0.07433 -0.0550712 0.113813)
(0.407227 5.05198e-17 1.99157e-16 0.130606 -0.0696624 0.77342)
(0.00434232 -5.39362e-19 1.94966e-19 0.00154267 -0.000942089 0.00719382)
(8.94444e-09 -5.76059e-25 1.13681e-25 6.04402e-09 -1.00385e-09 1.19271e-08)
(7.51049e-09 -5.09093e-26 -9.55223e-26 7.72991e-09 -1.28743e-10 7.38263e-09)
(4.36059e-07 -3.09519e-23 -2.077e-23 4.9673e-07 -2.98402e-08 4.05585e-07)
(2.11948e-06 2.61478e-22 -9.27299e-23 2.65367e-06 -3.91042e-07 1.85062e-06)
(4.61252e-06 -2.57215e-22 -1.48555e-21 6.38315e-06 -1.32818e-06 4.01475e-06)
(7.73852e-06 -1.84505e-21 -4.33303e-22 1.13104e-05 -3.07239e-06 6.90255e-06)
(1.42528e-05 3.49703e-21 -2.02946e-21 2.18854e-05 -7.17751e-06 1.314e-05)
(3.6266e-05 1.22643e-21 -1.1013e-20 6.02259e-05 -2.36951e-05 3.38595e-05)
(0.000125165 -9.83379e-21 -4.12997e-21 0.000222622 -9.77128e-05 0.00011521)
(0.000492909 3.44045e-20 -1.85703e-20 0.000926066 -0.000439037 0.000433805)
(0.00213808 -2.87733e-19 -8.02631e-20 0.0042029 -0.00223547 0.00169451)
(0.0100204 -3.01501e-18 1.15757e-18 0.0198343 -0.0139719 0.00608266)
(0.0103535 5.88125e-18 6.76362e-18 0.0124383 0.00443846 0.0181123)
(0.501715 3.3878e-17 2.80615e-16 0.157797 -0.140863 0.96135)
(0.0120834 -9.87614e-19 -1.71e-18 0.00470589 -0.00338863 0.020144)
(8.58968e-06 -7.26169e-22 -1.19185e-21 3.58777e-06 -2.31002e-06 1.40755e-05)
(2.32246e-08 7.01615e-25 -6.4024e-25 1.88502e-08 -4.53348e-09 2.70149e-08)
(7.92992e-07 -2.39122e-22 -2.15651e-22 1.18607e-06 -1.68572e-07 6.82732e-07)
(4.30354e-06 1.99847e-21 6.15571e-22 6.64006e-06 -2.60201e-06 3.78228e-06)
(1.69634e-05 -9.64014e-21 2.51422e-21 2.91705e-05 -1.13016e-05 1.77679e-05)
(3.50044e-05 -1.80434e-20 -6.21345e-21 6.04754e-05 -2.7961e-05 4.18462e-05)
(6.53546e-05 3.48362e-20 -8.89265e-21 0.000114218 -5.75556e-05 8.49393e-05)
(0.000107747 -3.1468e-20 1.77851e-20 0.000184634 -9.80209e-05 0.000144542)
(0.000203639 -6.27203e-20 -2.83189e-20 0.000345736 -0.000181351 0.000260273)
(0.000518986 5.4077e-20 3.52032e-20 0.000962111 -0.000494838 0.000569115)
(0.00173086 -8.1774e-20 3.69747e-20 0.0032806 -0.00152858 0.00169075)
(0.00400253 -1.12861e-18 1.17979e-19 0.00863182 -0.00511847 0.00211617)
(0.00522383 -6.59193e-19 1.7803e-19 0.0112136 -0.00553042 0.00285228)
(0.59977 2.0044e-17 3.29395e-16 0.196275 -0.206575 1.14028)
(0.018858 -2.05199e-18 -4.56673e-18 0.00792442 -0.00588088 0.0308043)
(2.2792e-05 -2.50289e-21 -5.2542e-21 1.06274e-05 -6.61779e-06 3.61688e-05)
(4.7244e-07 2.68005e-23 -1.04697e-22 3.58519e-07 -1.93666e-07 6.68542e-07)
(4.63003e-06 -3.31017e-21 -8.51172e-22 9.567e-06 -2.64525e-06 4.60213e-06)
(2.13741e-05 1.98877e-20 -1.03306e-20 3.94915e-05 -2.2367e-05 2.7541e-05)
(0.000127992 -1.09198e-19 3.18404e-20 0.000283136 -0.0001342 0.000162413)
(0.000393746 -1.25021e-19 -1.01856e-19 0.000867224 -0.000488666 0.000569217)
(0.00115317 6.25818e-19 -3.53056e-19 0.00247922 -0.00148309 0.00176378)
(0.00205675 -8.24428e-19 2.78741e-19 0.00400414 -0.00262697 0.0034085)
(0.00203679 3.99537e-19 -9.1845e-19 0.00358658 -0.00242447 0.00353031)
(0.00169294 9.12262e-19 -9.41831e-19 0.00290148 -0.00188185 0.00270102)
(0.00220506 6.23491e-20 -4.15902e-19 0.00398793 -0.00204478 0.00267781)
(0.00337469 -1.10816e-18 -3.12207e-19 0.00699348 -0.00371245 0.00231309)
(0.00916079 8.18661e-19 -3.39042e-19 0.0172243 -0.00970742 0.00695669)
(0.699775 4.55001e-18 3.9289e-16 0.237959 -0.262997 1.31831)
(0.0197831 -6.69491e-18 -5.48073e-18 0.00888711 -0.00630707 0.0304595)
(2.57143e-05 -1.82896e-20 3.49816e-21 2.82845e-05 -8.12115e-06 3.25892e-05)
(1.28871e-05 -3.83721e-21 4.12121e-21 2.84093e-05 -1.42475e-05 1.56848e-05)
(8.34726e-05 -3.90273e-20 2.31657e-20 0.000191033 -8.08095e-05 9.70319e-05)
(0.000338977 -9.4938e-20 8.69488e-20 0.000736233 -0.000362433 0.000413973)
(0.00117182 -3.90104e-19 1.63582e-19 0.0025401 -0.00115989 0.0014218)
(0.0029655 -8.94345e-20 2.02411e-19 0.00614955 -0.00301442 0.00376689)
(0.00619524 5.01256e-19 1.87787e-19 0.0125088 -0.00636691 0.00822582)
(0.00907189 1.19658e-18 -6.71121e-19 0.0174722 -0.00989443 0.0131833)
(0.00755149 1.9817e-18 -1.21449e-18 0.0117947 -0.00810755 0.0130734)
(0.00646403 -5.02369e-19 -1.26313e-18 0.00594752 -0.00530504 0.0146578)
(0.00872394 -7.04421e-19 -3.48461e-18 0.0072241 -0.00543099 0.0201678)
(0.00652262 -1.62988e-18 2.29422e-18 0.00893 -0.00520911 0.00918702)
(0.0197159 3.98666e-19 -2.45856e-19 0.0309939 -0.0214503 0.0188318)
(0.804998 -6.61369e-18 4.50617e-16 0.281672 -0.313843 1.50122)
(0.0354943 -1.92141e-17 -1.11801e-17 0.015132 -0.0117952 0.0533638)
(0.000196991 -4.13702e-19 1.56962e-19 0.000345109 -0.000122177 0.0002297)
(3.48441e-05 -1.01271e-20 8.94422e-21 7.29192e-05 -3.37631e-05 4.0863e-05)
(0.000173663 -6.57843e-20 4.53132e-20 0.000365893 -0.000146114 0.000195783)
(0.000615663 -1.55462e-19 1.45293e-19 0.00122388 -0.000541786 0.000712502)
(0.00181574 -4.61862e-19 2.04848e-19 0.00360218 -0.00148192 0.00208661)
(0.00402633 -2.35849e-19 3.78488e-19 0.00772877 -0.00340869 0.00477362)
(0.00769084 -4.32152e-20 4.26039e-19 0.0146513 -0.00662195 0.00937607)
(0.0124646 -6.55484e-19 -1.50529e-19 0.0231019 -0.0112932 0.0162359)
(0.0155589 -3.78773e-18 8.1839e-19 0.0254695 -0.0135742 0.022751)
(0.016313 -6.50561e-18 -1.99552e-19 0.0192967 -0.0121734 0.0292694)
(0.0179572 -1.81287e-18 -3.18066e-18 0.015715 -0.0114878 0.0368037)
(0.0202669 2.41328e-18 6.39745e-19 0.0199285 -0.0147892 0.0376661)
(0.0247652 3.667e-18 -2.05048e-18 0.0322766 -0.0257833 0.0271622)
(0.886943 -1.78668e-17 4.46279e-16 0.317744 -0.350489 1.62943)
(0.0933841 -3.5847e-17 -3.95711e-17 0.0391777 -0.0325393 0.151744)
(0.00372162 -5.17069e-18 -1.32333e-18 0.00372358 -0.00175715 0.00446273)
(0.000157387 -1.59792e-19 1.04946e-19 0.000239583 -0.000159545 0.0001777)
(0.000187799 -9.31705e-20 4.89227e-20 0.000392394 -0.000148265 0.000209275)
(0.00053505 -8.23261e-20 7.49673e-20 0.00102129 -0.000457712 0.000618458)
(0.00153315 -3.92512e-19 8.70477e-20 0.00293381 -0.00113389 0.00172071)
(0.00309749 -3.08424e-19 2.34986e-19 0.00564092 -0.00235263 0.00355142)
(0.00512154 1.35261e-19 -7.16046e-20 0.0092834 -0.00376411 0.0058399)
(0.00763466 -4.02281e-19 -5.47389e-21 0.0140015 -0.00598402 0.00889322)
(0.00997711 -1.38492e-18 3.88631e-19 0.0181588 -0.00795691 0.0117805)
(0.0117706 -1.14978e-18 -5.56422e-20 0.0204012 -0.00970283 0.0140781)
(0.0136173 1.57312e-18 -9.39641e-19 0.0187984 -0.0124008 0.0173143)
(0.0161573 2.88207e-18 -1.21138e-18 0.0125837 -0.0154316 0.0247477)
(0.0168087 3.43096e-19 -3.61385e-18 0.0150261 -0.0121036 0.023962)
(0.931495 -1.4583e-17 4.49207e-16 0.340571 -0.368225 1.67653)
(0.164199 -4.667e-17 -8.36877e-17 0.0728243 -0.0567328 0.282973)
(0.0188299 -1.94436e-17 -1.13839e-17 0.0155032 -0.00832116 0.0256856)
(0.00242601 -2.73218e-18 -2.123e-19 0.002548 -0.00162711 0.00304285)
(0.000577094 -5.41588e-19 1.22945e-19 0.000935159 -0.000452376 0.000697351)
(0.000546484 -7.66248e-20 -1.43739e-20 0.00101071 -0.000485489 0.000653105)
(0.00128747 -3.37493e-19 8.15948e-20 0.00244564 -0.000978926 0.00146408)
(0.00247147 -3.29428e-19 1.69879e-19 0.00445854 -0.00188871 0.0028477)
(0.0037271 1.93763e-19 -3.95221e-19 0.00660221 -0.00265363 0.00420288)
(0.00487492 -1.98551e-19 -7.74116e-20 0.00870605 -0.00352395 0.00545181)
(0.00557965 -3.38834e-19 8.95533e-20 0.010089 -0.00404863 0.0061201)
(0.00574469 6.00538e-20 -2.76079e-19 0.0104929 -0.00422259 0.00609807)
(0.00646338 3.5535e-19 -2.75713e-19 0.01237 -0.00482819 0.0063848)
(0.00831883 1.34901e-19 -2.22422e-18 0.0142528 -0.00931051 0.00894118)
(0.00735046 -7.14294e-18 -1.07786e-17 1e-15 0.00801932 0.0265296)
(0.938319 -3.01858e-18 4.32402e-16 0.347963 -0.367633 1.65183)
(0.225846 -5.04461e-17 -1.5217e-16 0.105719 -0.0740104 0.413041)
(0.0370464 -4.13972e-17 -1.94163e-17 0.0326459 -0.0167759 0.0514706)
(0.00709778 -7.48676e-18 -1.66765e-18 0.00809929 -0.00490767 0.00907998)
(0.00181067 -1.82238e-18 2.32353e-19 0.00277944 -0.00150092 0.00227884)
(0.000844476 -3.08562e-19 2.17456e-20 0.00148949 -0.000785765 0.00106876)
(0.00123232 -2.07337e-19 -5.85056e-20 0.00234242 -0.00101009 0.00144987)
(0.00221242 -3.45211e-19 1.30385e-19 0.00406246 -0.00180261 0.00260878)
(0.00320876 1.87126e-19 -3.56976e-19 0.0057451 -0.00241892 0.00368283)
(0.00386168 6.67712e-20 -5.20053e-19 0.00686624 -0.00281357 0.00432521)
(0.00387273 -1.06839e-19 -8.55324e-20 0.00690317 -0.00271817 0.00418374)
(0.00373802 7.27272e-20 -1.70776e-19 0.00678637 -0.0026535 0.00389294)
(0.00462636 6.75928e-19 -4.26669e-19 0.00888852 -0.00336844 0.00469898)
(0.00745978 -1.87058e-18 3.95691e-19 0.0146065 -0.00748868 0.00737028)
(0.0071163 -1.05143e-18 1.15096e-18 0.0132912 -0.0053019 0.00627288)
(0.921028 -6.87391e-18 4.09616e-16 0.343726 -0.355477 1.59193)
(0.275779 -6.394e-17 -2.12637e-16 0.134188 -0.0836401 0.536094)
(0.0536053 -6.42092e-17 -3.93999e-17 0.0526871 -0.0262435 0.0744046)
(0.0131827 -1.62073e-17 -1.03367e-19 0.0170362 -0.0100415 0.0169445)
(0.00393139 -4.44409e-18 1.31518e-18 0.00640912 -0.00350956 0.00506082)
(0.00154807 -4.96892e-19 -1.95314e-19 0.00276232 -0.00155272 0.00205783)
(0.00141662 -2.85436e-19 -1.27076e-20 0.00271062 -0.00126732 0.00174804)
(0.00220067 -6.12953e-19 3.08213e-19 0.00414748 -0.00192809 0.00267057)
(0.00316407 2.56728e-19 -9.92749e-19 0.00585344 -0.00260816 0.00373623)
(0.00363032 1.62238e-19 -5.51682e-19 0.00660331 -0.0028224 0.00414469)
(0.00326144 -2.81438e-19 8.85299e-21 0.00583739 -0.00233045 0.00354462)
(0.00295477 1.81955e-20 -3.46635e-19 0.00535131 -0.00210402 0.00309169)
(0.00377919 1.62797e-19 -1.27993e-20 0.00715278 -0.00274352 0.00395542)
(0.0066597 -3.50873e-18 1.12492e-18 0.0127814 -0.00630558 0.00696681)
(0.00637435 -5.59377e-19 1.1265e-18 0.010488 -0.00519746 0.00607938)
(0.894889 8.9086e-19 4.22253e-16 0.334039 -0.339806 1.52737)
(0.311135 -6.99086e-17 -2.76741e-16 0.156741 -0.0860113 0.633105)
(0.0676072 -1.01022e-16 -4.35358e-17 0.0713847 -0.0344658 0.0938926)
(0.0214913 -2.9124e-17 4.08099e-18 0.0306095 -0.0177186 0.027676)
(0.00766122 -9.21674e-18 3.67658e-18 0.0132325 -0.00736768 0.00993297)
(0.00296529 -1.69678e-18 2.60177e-19 0.00540418 -0.00312104 0.00404658)
(0.0019565 -3.57244e-19 1.21635e-19 0.00377607 -0.00190562 0.00254399)
(0.00235127 -7.49823e-19 6.1615e-19 0.00450646 -0.00217104 0.00293686)
(0.00319296 -4.22492e-19 -4.48183e-19 0.00602428 -0.00277415 0.00385393)
(0.00353667 -2.5659e-20 -2.70892e-19 0.00651266 -0.00285611 0.00411066)
(0.00313825 -3.85364e-19 4.49329e-20 0.00569638 -0.00234161 0.00346586)
(0.00270872 -2.89208e-19 -2.05648e-19 0.00492367 -0.00197565 0.00287306)
(0.00322038 -4.65871e-19 2.69095e-19 0.00604388 -0.00230687 0.00338739)
(0.00583122 -4.44463e-18 1.84891e-18 0.0110478 -0.00521471 0.00622485)
(0.00678745 2.64617e-19 9.49747e-19 0.010266 -0.0055263 0.00656424)
(0.876248 9.6798e-18 4.04123e-16 0.326271 -0.329205 1.48649)
(0.332273 -4.28028e-17 -3.68147e-16 0.172095 -0.0840306 0.689363)
(0.0824953 -1.50398e-16 -3.16358e-17 0.0874612 -0.0425801 0.118616)
(0.0321882 -4.16264e-17 4.70041e-18 0.0462723 -0.0264629 0.0426254)
(0.0145437 -1.52856e-17 5.84728e-18 0.0248311 -0.0140096 0.0194268)
(0.00695254 -7.94135e-18 3.09513e-18 0.0123707 -0.00769286 0.00939351)
(0.00403687 -1.24356e-18 4.5574e-19 0.00763674 -0.00441317 0.005565)
(0.00338845 -1.70209e-19 9.79471e-19 0.00654973 -0.00351754 0.00456586)
(0.00369546 -1.72761e-18 3.36735e-19 0.00712456 -0.00356321 0.00474233)
(0.00383129 -1.21526e-18 2.92653e-19 0.00725161 -0.0033792 0.00465007)
(0.00344635 -7.48045e-19 3.58045e-19 0.00643777 -0.00277119 0.00393064)
(0.00289854 -8.20477e-19 1.22765e-19 0.00538792 -0.00217847 0.00311242)
(0.00294843 -6.1049e-19 2.85615e-19 0.00562796 -0.00207056 0.00301596)
(0.00535404 -4.63912e-18 2.27195e-18 0.0104017 -0.00460575 0.00564138)
(0.00878626 1.00109e-18 5.78359e-19 0.0140259 -0.00804553 0.00858416)
(0.845188 -3.45699e-18 3.83582e-16 0.316491 -0.319786 1.41678)
(0.374725 -5.17298e-17 -4.19333e-16 0.193262 -0.0829615 0.758311)
(0.108757 -2.09682e-16 -4.63352e-17 0.116356 -0.051853 0.153395)
(0.0436603 -4.99994e-17 5.28542e-18 0.0655917 -0.0346476 0.0551718)
(0.0139852 -1.12252e-17 3.86604e-18 0.0230257 -0.0110212 0.0171254)
(0.00673791 -6.93609e-18 3.0206e-18 0.011315 -0.0060842 0.0086121)
(0.00432401 1.33547e-18 1.18626e-19 0.0075485 -0.00370793 0.0055193)
(0.00328924 1.63136e-19 4.44551e-19 0.00568701 -0.00275682 0.00421976)
(0.00376104 -3.54944e-18 1.15112e-18 0.00668988 -0.00327928 0.00489525)
(0.00324078 -1.5679e-18 6.86211e-19 0.00558038 -0.00252458 0.00400158)
(0.00288877 -7.77477e-19 2.29566e-19 0.00495472 -0.00210099 0.00342788)
(0.00260312 -1.06412e-18 2.54098e-19 0.00454489 -0.0018352 0.00291522)
(0.00258234 -1.1494e-18 4.26645e-19 0.00476105 -0.00171142 0.00265901)
(0.00680141 -9.05163e-18 3.99763e-18 0.0134539 -0.00588148 0.00736252)
(0.0163089 5.8304e-18 -2.02988e-18 0.0244552 -0.0161565 0.0171693)
(0.813124 -1.14245e-17 3.12907e-16 0.322283 -0.313642 1.34563)
(1.07269 1.54767e-17 -1.62035e-16 0.598596 -0.448604 2.40699)
(0.458665 -1.74665e-16 -1.81243e-16 0.319026 -0.198253 0.901201)
(0.245388 -1.53373e-16 -1.00518e-16 0.21665 -0.13462 0.425395)
(0.142394 -1.02195e-16 -4.52474e-17 0.155329 -0.0903942 0.220156)
(0.0923971 -7.64998e-17 -6.15154e-18 0.121578 -0.0684221 0.126535)
(0.0668384 -4.16909e-17 2.07777e-18 0.106495 -0.0567861 0.0835914)
(0.0569245 -2.66032e-17 4.16144e-18 0.106647 -0.0564188 0.0687643)
(0.0559833 -3.70643e-17 1.55154e-17 0.114672 -0.0617649 0.0647147)
(0.0498694 -4.27141e-17 1.66263e-17 0.104771 -0.0582224 0.0544766)
(0.0289262 -2.70221e-17 8.37229e-18 0.0645463 -0.0325441 0.0292814)
(0.0100015 -7.75296e-18 1.82286e-18 0.0220795 -0.00933613 0.00810491)
(0.00377988 -2.33556e-18 5.41874e-19 0.00725661 -0.00235673 0.00328669)
(0.00921265 -9.12786e-18 5.21212e-18 0.0180448 -0.00771336 0.00979061)
(0.0249095 6.47564e-18 -2.15148e-18 0.0342263 -0.0244537 0.0270737)
(0.828277 -1.42844e-18 9.63731e-16 0.64479 0.000143149 0.749155)
(0.86828 -1.30976e-17 1.56723e-15 0.705382 -0.00267394 0.812909)
(0.829948 -6.89044e-17 1.02953e-15 0.679783 -0.0168762 0.735184)
(0.823488 -9.82637e-17 1.01241e-15 0.680197 -0.0258305 0.719318)
(0.822231 -1.22337e-16 1.01514e-15 0.684373 -0.0323771 0.715068)
(0.849189 -2.2592e-16 1.59297e-15 0.717861 -0.056039 0.765945)
(0.813334 -2.65395e-16 1.09043e-15 0.686889 -0.0449594 0.705099)
(0.806936 -3.16393e-16 1.08043e-15 0.683709 -0.0482887 0.694638)
(0.80539 -3.60827e-16 1.08575e-15 0.684709 -0.0502256 0.693845)
(0.831189 -5.80482e-16 1.69977e-15 0.713244 -0.0782536 0.747027)
(0.8024 -3.70256e-16 1.0947e-15 0.694911 -0.0571432 0.681401)
(0.798284 -3.24585e-16 1.0432e-15 0.695879 -0.0589201 0.6686)
(0.818064 -3.89646e-16 1.54907e-15 0.723656 -0.0949518 0.698156)
(0.783756 -2.73918e-16 1.0333e-15 0.692763 -0.0705287 0.64074)
(0.774928 -2.70198e-16 1.00456e-15 0.685934 -0.0733096 0.628423)
(0.770084 -2.56785e-16 9.88087e-16 0.68357 -0.0732502 0.621767)
(0.787615 -3.64771e-16 1.52743e-15 0.705129 -0.111576 0.658231)
(0.757892 -2.51985e-16 9.92405e-16 0.682819 -0.0784674 0.600076)
(0.751025 -2.39783e-16 9.2846e-16 0.680657 -0.0776902 0.585026)
(0.764051 -3.40982e-16 1.33575e-15 0.704019 -0.118836 0.601469)
(0.729941 -2.35345e-16 8.69558e-16 0.673277 -0.0856607 0.546648)
(0.719342 -2.25239e-16 8.13474e-16 0.666103 -0.0854051 0.529791)
(0.711278 -2.08962e-16 7.62452e-16 0.661725 -0.0844988 0.517007)
(0.721071 -2.81825e-16 1.11718e-15 0.680729 -0.12628 0.532999)
(0.68784 -1.75656e-16 7.19495e-16 0.650228 -0.0889058 0.482781)
(0.677049 -1.54684e-16 6.69109e-16 0.642296 -0.0872408 0.467507)
(0.668404 -1.43012e-16 6.25829e-16 0.636792 -0.0838142 0.455471)
(0.676368 -2.08922e-16 9.16495e-16 0.653934 -0.122443 0.469625)
(0.645099 -1.35076e-16 5.9132e-16 0.624405 -0.0826435 0.425335)
(0.63558 -1.29984e-16 5.51435e-16 0.617633 -0.0787264 0.412804)
(0.641759 -2.038e-16 7.9671e-16 0.634552 -0.115173 0.422759)
(0.609236 -1.39864e-16 5.21196e-16 0.602179 -0.0777362 0.379804)
(0.598785 -1.38346e-16 4.89338e-16 0.594316 -0.0748751 0.367049)
(0.589941 -1.35107e-16 4.56932e-16 0.58814 -0.0712032 0.357179)
(0.597067 -2.11755e-16 6.59378e-16 0.606952 -0.105412 0.369377)
(0.56499 -1.44687e-16 4.22523e-16 0.573259 -0.0683113 0.331648)
(0.555113 -1.40443e-16 3.92225e-16 0.565473 -0.0644356 0.3214)
(0.560393 -2.07166e-16 5.60527e-16 0.58394 -0.0952182 0.330337)
(0.526178 -1.42763e-16 3.54983e-16 0.545989 -0.0595134 0.292442)
(0.515214 -1.40055e-16 3.29709e-16 0.536886 -0.055721 0.281487)
(0.505537 -1.30217e-16 3.04029e-16 0.52916 -0.0522311 0.272905)
(0.511377 -1.72591e-16 4.34488e-16 0.549916 -0.0793055 0.282704)
(0.476323 -1.12934e-16 2.68108e-16 0.508338 -0.0467488 0.248263)
(0.46558 -1.03604e-16 2.4669e-16 0.498856 -0.0430247 0.239166)
(0.456306 -9.32788e-17 2.26319e-16 0.491343 -0.040021 0.231962)
(0.46369 -1.09262e-16 3.19428e-16 0.516509 -0.0636668 0.242745)
(0.428957 -7.29896e-17 1.96425e-16 0.472386 -0.0346267 0.211864)
(0.419555 -6.64234e-17 1.80467e-16 0.46429 -0.0324958 0.205279)
(0.427801 -6.29342e-17 2.41264e-16 0.494109 -0.0566451 0.217493)
(0.39261 -5.21355e-17 1.47555e-16 0.44496 -0.029385 0.189051)
(0.383921 -4.44778e-17 1.33543e-16 0.437626 -0.0275971 0.183845)
(0.376527 -3.49728e-17 1.20448e-16 0.432206 -0.0264259 0.179729)
(0.389291 2.29198e-17 1.40069e-16 0.471823 -0.0599534 0.201872)
(0.354238 -8.3867e-18 9.2436e-17 0.418591 -0.0277413 0.171099)
(0.345794 -3.55105e-18 8.12018e-17 0.411078 -0.0268755 0.167269)
(0.338284 1.62623e-18 7.0021e-17 0.405257 -0.0263082 0.16431)
(0.350238 8.94008e-17 4.45384e-17 0.445701 -0.0699006 0.19775)
(0.311629 1.07542e-17 4.44894e-17 0.385451 -0.0268289 0.157784)
(0.301907 4.99777e-18 3.97484e-17 0.376433 -0.0252641 0.154359)
(0.303884 4.74882e-17 2.23958e-17 0.402234 -0.0640139 0.181255)
(0.263543 -1.0718e-17 2.39572e-17 0.335215 -0.028749 0.151707)
(0.251381 -2.18053e-17 2.61971e-17 0.320959 -0.0303401 0.150436)
(0.24062 -3.4218e-17 3.0114e-17 0.309529 -0.0320247 0.150431)
(0.232725 -1.75635e-17 5.41082e-17 0.313399 -0.0732506 0.16886)
(0.207394 -4.8366e-17 7.99054e-17 0.274116 -0.0451278 0.153826)
(0.199583 -7.00608e-17 9.81194e-17 0.2653 -0.0498595 0.155597)
(0.192154 -1.26409e-16 1.3125e-16 0.260341 -0.0801503 0.165908)
(0.184276 -1.25945e-16 1.48339e-16 0.248928 -0.0617133 0.166249)
(0.182194 -1.42029e-16 1.56742e-16 0.246417 -0.0695933 0.170386)
(0.180674 -1.53297e-16 1.62878e-16 0.244593 -0.0756554 0.174541)
(0.179245 -1.98154e-16 1.8193e-16 0.24309 -0.0998836 0.180372)
(0.177044 -1.76374e-16 1.8189e-16 0.239433 -0.0810254 0.182932)
(0.173513 -1.86804e-16 1.69326e-16 0.229646 -0.0928527 0.19649)
(0.170954 -1.94842e-16 1.62547e-16 0.22369 -0.0986927 0.204085)
(0.168417 -2.23849e-16 1.58042e-16 0.218704 -0.115794 0.208168)
(0.164996 -1.9993e-16 1.59207e-16 0.211422 -0.097918 0.213986)
(0.163627 -2.10454e-16 1.56678e-16 0.209205 -0.105623 0.215524)
(0.161706 -2.29951e-16 1.51837e-16 0.205992 -0.118171 0.215498)
(0.157431 -2.05026e-16 1.50476e-16 0.196106 -0.102532 0.223722)
(0.155961 -2.12254e-16 1.47546e-16 0.193682 -0.109366 0.224614)
(0.154321 -2.12744e-16 1.46099e-16 0.19133 -0.10836 0.223311)
(0.152403 -2.18291e-16 1.41417e-16 0.188094 -0.102263 0.215662)
(0.153122 -2.17547e-16 1.34705e-16 0.18936 -0.100315 0.21437)
(0.153629 -2.19024e-16 1.27954e-16 0.187148 -0.0968564 0.213241)
(0.152834 -1.9526e-16 1.1595e-16 0.178624 -0.0942202 0.223462)
(0.154244 -1.91181e-16 1.09297e-16 0.179755 -0.0937277 0.224979)
(0.154142 -1.81144e-16 9.60139e-17 0.179042 -0.0906541 0.221434)
(0.155381 -1.69872e-16 8.3271e-17 0.180699 -0.0892414 0.22055)
(0.156688 -1.58288e-16 7.1199e-17 0.182184 -0.0878211 0.220053)
(0.158158 -1.46198e-16 5.95058e-17 0.183795 -0.086322 0.219905)
(0.159774 -1.33593e-16 4.85227e-17 0.18524 -0.0849299 0.220406)
(0.161662 -1.21044e-16 3.85156e-17 0.186915 -0.0837591 0.221681)
(0.165085 -1.12087e-16 3.01486e-17 0.189076 -0.0826737 0.225391)
(0.165771 -9.06214e-17 2.03748e-17 0.184379 -0.0806675 0.234379)
(0.168847 -8.72607e-17 1.69587e-17 0.187608 -0.0816435 0.238927)
(0.17028 -8.09729e-17 1.14434e-17 0.188563 -0.0807728 0.24004)
(0.172695 -7.63179e-17 7.81718e-18 0.19104 -0.0817304 0.243932)
(0.174823 -7.17653e-17 4.69931e-18 0.192733 -0.0824953 0.247968)
(0.176425 -6.74006e-17 1.41457e-18 0.193542 -0.0818992 0.250523)
(0.177942 -6.37145e-17 -1.51849e-18 0.194011 -0.080775 0.252845)
(0.179478 -6.05007e-17 -4.25335e-18 0.194517 -0.0790816 0.25503)
(0.182238 -5.73707e-17 -7.31219e-18 0.195177 -0.076852 0.259222)
(0.183346 -5.62301e-17 1.30582e-19 0.191265 -0.0759114 0.268716)
(0.185867 -5.59609e-17 6.34165e-20 0.192821 -0.0765272 0.274294)
(0.18654 -5.47211e-17 -8.76853e-19 0.191639 -0.0752067 0.276199)
(0.187575 -5.41137e-17 -1.41099e-18 0.191175 -0.0742217 0.278844)
(0.188556 -5.31498e-17 -2.17582e-18 0.190521 -0.0728757 0.281341)
(0.189488 -5.17046e-17 -3.18948e-18 0.18945 -0.0712388 0.283954)
(0.190571 -5.08672e-17 -3.91231e-18 0.188083 -0.0698204 0.287391)
(0.191893 -5.08535e-17 -4.24838e-18 0.186668 -0.0687376 0.29162)
(0.193328 -5.05956e-17 -4.84397e-18 0.185273 -0.0671923 0.295952)
(0.195936 -4.93137e-17 -6.11418e-18 0.184581 -0.0648398 0.302292)
(0.19837 -4.46376e-17 -1.69022e-17 0.183726 -0.0635772 0.310249)
(0.20074 -4.47847e-17 -1.75861e-17 0.184185 -0.0633067 0.315957)
(0.202045 -4.41383e-17 -1.8717e-17 0.182835 -0.0619095 0.319664)
(0.203678 -4.36298e-17 -1.97992e-17 0.181685 -0.0607191 0.324162)
(0.205614 -4.30583e-17 -2.10243e-17 0.180854 -0.0593867 0.329165)
(0.207606 -4.20669e-17 -2.26136e-17 0.179747 -0.0573322 0.334229)
(0.210061 -4.10554e-17 -2.41947e-17 0.178745 -0.0553601 0.340212)
(0.213469 -4.04392e-17 -2.54577e-17 0.178757 -0.0544792 0.348206)
(0.218512 -3.98191e-17 -2.67754e-17 0.180772 -0.0541419 0.35919)
(0.227879 -4.0619e-17 -3.24141e-17 0.187234 -0.0575525 0.377592)
(0.231867 -4.13286e-17 -3.36364e-17 0.188675 -0.0570873 0.386403)
(0.235359 -4.14051e-17 -3.53194e-17 0.188937 -0.0554562 0.394253)
(0.239877 -4.17236e-17 -3.65913e-17 0.190138 -0.0549874 0.404669)
(0.245346 -4.1937e-17 -3.7835e-17 0.191996 -0.0555046 0.417522)
(0.251329 -4.21778e-17 -3.91507e-17 0.193606 -0.056134 0.431875)
(0.258327 -4.26103e-17 -4.04868e-17 0.196371 -0.0570536 0.448327)
(0.265317 -4.31563e-17 -4.2054e-17 0.197506 -0.0568378 0.465544)
(0.274058 -4.19263e-17 -4.31198e-17 0.2024 -0.0574734 0.485338)
(0.289108 -5.45472e-17 -3.55218e-17 0.213211 -0.0641035 0.512154)
(0.296034 -5.45425e-17 -3.63551e-17 0.215176 -0.0643263 0.52896)
(0.304158 -5.30177e-17 -3.77821e-17 0.218947 -0.0654904 0.548438)
(0.312105 -5.05856e-17 -3.96927e-17 0.221169 -0.0653374 0.567974)
(0.31952 -4.69235e-17 -4.07027e-17 0.223013 -0.0646118 0.586402)
(0.327739 -4.34766e-17 -4.05266e-17 0.225854 -0.0649272 0.606918)
(0.336652 -3.96784e-17 -3.99664e-17 0.228484 -0.0656265 0.629534)
(0.34627 -3.53606e-17 -3.90542e-17 0.230202 -0.0667665 0.654681)
(0.359975 -3.10607e-17 -3.72938e-17 0.23966 -0.0702817 0.68635)
(0.372158 -3.86779e-17 -3.96635e-17 0.242094 -0.0717627 0.703218)
(0.378143 -3.55406e-17 -3.5746e-17 0.241526 -0.0690626 0.720131)
(0.387287 -3.20269e-17 -3.10719e-17 0.244734 -0.0705845 0.745581)
(0.395687 -2.8911e-17 -2.53415e-17 0.245292 -0.0718182 0.770414)
(0.405626 -2.58592e-17 -1.881e-17 0.247672 -0.0748045 0.798809)
(0.415065 -1.88961e-17 -1.25576e-17 0.249035 -0.0772506 0.825888)
(0.414541 -1.3197e-17 -2.89747e-18 0.246308 -0.0789318 0.829727)
(0.413733 -1.27828e-17 8.74601e-18 0.244157 -0.084353 0.832502)
(0.411993 -1.06585e-17 2.07592e-17 0.240825 -0.0909543 0.832746)
(0.412466 -6.49784e-18 3.42729e-17 0.246008 -0.0991642 0.833154)
(0.411493 7.3695e-18 1.92656e-17 0.225496 -0.111823 0.821357)
(0.386259 1.04311e-17 2.74763e-17 0.206593 -0.101283 0.76638)
(0.355736 4.75176e-18 3.79797e-17 0.192529 -0.0963534 0.700447)
(0.316301 -3.01105e-18 5.02468e-17 0.170198 -0.0853807 0.611981)
(0.274026 -1.08691e-17 6.37038e-17 0.147855 -0.074945 0.515903)
(0.225598 -2.05189e-17 7.93426e-17 0.120964 -0.0647851 0.406189)
(0.186817 -3.06134e-17 8.87938e-17 0.106168 -0.0613294 0.326304)
(0.164238 -3.5347e-17 8.50475e-17 0.102 -0.0599546 0.294378)
(0.128504 -3.87054e-17 7.53909e-17 0.0916777 -0.0504776 0.241646)
(0.131232 -3.87509e-17 4.95899e-17 0.0986296 -0.0401623 0.168877)
(0.0926654 -4.05779e-17 3.25346e-17 0.0869418 -0.0256549 0.0942852)
(0.0599942 -4.65074e-17 2.28198e-17 0.0841647 -0.0212358 0.0365753)
(0.0592529 -5.03794e-17 2.45755e-17 0.0860832 -0.0242605 0.0348139)
(0.0531745 -4.56524e-17 1.98985e-17 0.0762405 -0.0170308 0.0267279)
(0.0480738 -3.89718e-17 1.46883e-17 0.0656508 -0.00962271 0.0215628)
(0.0481502 -4.29639e-17 1.64379e-17 0.0658067 -0.011549 0.0213113)
(0.04499 -3.63087e-17 1.19908e-17 0.0587478 -0.00624111 0.0187572)
(0.0454695 -4.01304e-17 1.35406e-17 0.0597117 -0.00777781 0.0188146)
(0.0432233 -3.61631e-17 1.09616e-17 0.0544379 -0.00519226 0.0174896)
(0.0414982 -3.17497e-17 8.07499e-18 0.0504321 -0.00257112 0.0165312)
(0.0419346 -3.51995e-17 9.65894e-18 0.0512333 -0.00452488 0.0162784)
(0.0407375 -3.21902e-17 7.95151e-18 0.0482951 -0.00340212 0.0156297)
(0.039861 -2.87898e-17 5.82049e-18 0.0461717 -0.00183088 0.0151371)
(0.0402861 -3.22671e-17 7.09141e-18 0.0468041 -0.00300907 0.015289)
(0.0397253 -2.83526e-17 4.96642e-18 0.0453916 -0.00153197 0.0149273)
(0.0403533 -3.18416e-17 6.18936e-18 0.0465098 -0.00262749 0.0151355)
(0.039943 -2.99654e-17 5.10352e-18 0.0452531 -0.00200451 0.0149144)
(0.0397612 -2.76186e-17 3.68168e-18 0.0445917 -0.00101968 0.0147413)
(0.0402628 -3.12539e-17 4.8894e-18 0.0453243 -0.00212497 0.0149582)
(0.0402209 -2.81614e-17 3.36921e-18 0.0449771 -0.00109569 0.0148281)
(0.0409057 -3.18916e-17 4.56157e-18 0.0461602 -0.0022195 0.0150848)
(0.0409235 -3.0777e-17 3.97653e-18 0.045754 -0.00186467 0.0150497)
(0.041135 -2.89914e-17 3.02116e-18 0.0458732 -0.00113847 0.0150428)
(0.0417012 -3.29069e-17 4.33145e-18 0.0467137 -0.00252387 0.0152596)
(0.0418617 -3.20692e-17 4.01074e-18 0.0465585 -0.00234179 0.0152966)
(0.0422228 -3.05237e-17 3.26091e-18 0.0469529 -0.00171036 0.0153547)
(0.0427926 -3.4765e-17 4.54272e-18 0.0477643 -0.00301967 0.0156481)
(0.0431525 -3.19769e-17 3.52157e-18 0.0481858 -0.00220117 0.0156933)
(0.043891 -3.62878e-17 4.85131e-18 0.0494279 -0.00357633 0.0160357)
(0.0441293 -3.53812e-17 4.50851e-18 0.049416 -0.00334849 0.0161016)
(0.0445636 -3.36973e-17 3.71738e-18 0.0499422 -0.0026719 0.0161699)
(0.0451378 -3.83369e-17 5.16869e-18 0.0507455 -0.00417622 0.0164938)
(0.0455649 -3.53055e-17 4.03936e-18 0.0512868 -0.00323978 0.0165391)
(0.0463156 -3.99943e-17 5.57151e-18 0.0525441 -0.00482873 0.0169113)
(0.0465936 -3.9063e-17 5.21271e-18 0.0525891 -0.00457251 0.0169814)
(0.0470918 -3.73096e-17 4.33378e-18 0.053233 -0.0038246 0.0170466)
(0.0476884 -4.20162e-17 6.23582e-18 0.0540903 -0.00595927 0.0173462)
(0.0479659 -4.10146e-17 5.95588e-18 0.054102 -0.00582409 0.017415)
(0.0484737 -3.92361e-17 5.05914e-18 0.0547453 -0.00505027 0.0174612)
(0.0490528 -4.45208e-17 6.87738e-18 0.0555438 -0.00698777 0.0178296)
(0.0495694 -4.11901e-17 5.56728e-18 0.0562343 -0.00583616 0.0178579)
(0.0503401 -4.6523e-17 7.45315e-18 0.0575271 -0.00783528 0.0182858)
(0.0506746 -4.54991e-17 7.09622e-18 0.0576468 -0.00758192 0.0183735)