/*--------------------------------*- C++ -*----------------------------------*\
| =========                 |                                                 |
| \\      /  F ield         | OpenFOAM: The Open Source CFD Toolbox           |
|  \\    /   O peration     | Version:  4.1                                   |
|   \\  /    A nd           | Web:      www.OpenFOAM.org                      |
|    \\/     M anipulation  |                                                 |
\*---------------------------------------------------------------------------*/
FoamFile
{
    version     2.0;
    format      ascii;
    class       volVectorField;
    location    "6";
    object      U;
}
// * * * * * * * * * * * * * * * * * * * * * * * * * * * * * * * * * * * * * //

dimensions      [0 1 -1 0 0 0 0];

internalField   nonuniform List<vector> 
6785
(
(1.17181e-14 -0.836819 16.1542)
(1.0237e-14 -6.69983 12.529)
(-2.60644e-15 -4.78007 12.9243)
(3.31618e-15 -4.28577 12.6698)
(8.02032e-16 -3.66032 12.4983)
(-1.55216e-16 -3.18352 12.2685)
(2.34801e-15 -2.7881 12.0073)
(5.04805e-16 -2.49149 11.7044)
(-8.46118e-16 -2.298 11.3643)
(1.14055e-15 -2.18926 11.0109)
(-9.39652e-18 -2.15737 10.6708)
(-1.59425e-16 -2.37528 10.2567)
(5.41265e-16 -2.85466 9.66261)
(-7.88508e-17 -2.18672 9.11787)
(1.77473e-17 0.760307 7.16131)
(1.67807e-14 -7.73193 26.2809)
(1.49536e-14 -16.5955 21.9547)
(-3.70631e-15 -11.5483 22.4252)
(4.951e-15 -11.9091 20.9615)
(8.29591e-16 -10.8892 19.9808)
(2.51738e-16 -10.1876 18.9229)
(2.31865e-15 -9.46068 17.8747)
(2.09005e-16 -8.76281 16.8145)
(-6.22968e-16 -8.09102 15.7282)
(7.65763e-16 -7.43743 14.6263)
(-2.53384e-16 -6.78346 13.5891)
(-4.04066e-16 -6.17929 12.5641)
(-2.21595e-16 -5.39181 10.6708)
(-3.2134e-16 -2.98528 5.99048)
(-3.55304e-16 1.00587 -1.55778)
(1.94297e-14 -10.3644 27.9678)
(1.44556e-14 -17.6871 24.1478)
(-2.85694e-15 -11.794 24.6695)
(6.08522e-15 -12.8801 22.3941)
(7.33144e-16 -11.2732 21.2897)
(1.37587e-15 -10.5781 19.8079)
(3.2455e-15 -9.69878 18.4263)
(-9.957e-17 -8.92292 17.0342)
(3.53866e-16 -8.19679 15.6892)
(2.17485e-15 -7.54069 14.4029)
(-2.90243e-16 -6.93644 13.1911)
(3.66677e-16 -6.20572 11.8002)
(1.74152e-15 -4.43921 8.73508)
(-7.68666e-16 -0.421374 1.40055)
(-1.00423e-15 0.31088 -4.36463)
(2.05689e-14 -11.1583 26.7652)
(1.39137e-14 -17.348 23.4921)
(-2.22601e-15 -11.5336 23.9582)
(6.2054e-15 -13.3812 21.0269)
(5.05191e-16 -11.2988 20.0649)
(1.91191e-15 -10.8915 18.2664)
(3.47876e-15 -9.96069 16.7629)
(-4.55528e-16 -9.2211 15.2134)
(8.07345e-16 -8.54168 13.8034)
(1.99624e-15 -8.01069 12.5928)
(-2.65833e-16 -7.57709 11.5168)
(-2.8074e-16 -7.09814 10.3197)
(1.02179e-15 -6.11467 8.42534)
(-1.83382e-16 -3.95288 4.94682)
(-8.85554e-16 -2.60235 0.984926)
(2.11779e-14 -11.6609 26.1013)
(1.25032e-14 -16.7877 23.2632)
(-1.9364e-15 -11.4686 23.6346)
(5.52318e-15 -13.4255 20.4993)
(-3.50707e-16 -10.9444 19.6737)
(1.56763e-15 -10.6961 17.6655)
(2.29054e-15 -9.52318 16.165)
(-9.79619e-16 -8.68527 14.5167)
(1.64982e-16 -7.78709 12.9324)
(3.37436e-16 -7.06682 11.4084)
(-1.65086e-15 -6.62034 10.1784)
(-4.40291e-16 -6.38368 9.22932)
(3.27046e-16 -6.0738 8.37622)
(-1.4319e-15 -5.15825 7.11675)
(-1.74689e-15 -4.26312 5.08989)
(2.18948e-14 -12.3875 26.4008)
(1.07401e-14 -16.3617 23.7925)
(-4.82229e-16 -11.7253 24.0084)
(4.34586e-15 -13.2066 21.107)
(2.22852e-16 -10.6558 20.2737)
(2.19062e-15 -10.3607 18.2905)
(7.92821e-16 -8.98371 16.921)
(-1.80073e-16 -7.96135 15.1317)
(5.44555e-16 -6.34854 12.6977)
(1.98244e-16 -4.41546 9.38061)
(1.41223e-15 -3.05991 6.74285)
(1.79392e-15 -3.35353 6.50972)
(-2.76894e-16 -4.75524 8.07365)
(-9.28361e-16 -5.77536 9.48148)
(-4.20282e-17 -4.97005 8.64947)
(2.11687e-14 -12.8456 26.5828)
(1.03483e-14 -16.93 25.4492)
(-5.30642e-16 -12.265 24.9094)
(3.85087e-15 -13.6731 22.1971)
(-3.75262e-18 -11.0522 21.4352)
(1.6922e-15 -10.9413 19.4517)
(2.60171e-16 -9.47235 18.2489)
(-4.88435e-16 -8.56186 16.4649)
(-1.59758e-16 -6.75513 13.8771)
(-2.09729e-16 -4.218 9.81124)
(3.2495e-17 -1.5339 5.55211)
(-1.02789e-15 0.107998 2.90944)
(-3.60393e-15 0.0213123 2.8426)
(-4.72865e-15 -1.7223 5.10483)
(-1.49267e-15 -2.59601 6.27936)
(1.96637e-14 -12.5724 25.2727)
(1.20117e-14 -17.7608 27.2895)
(-4.32313e-16 -13.2021 25.6788)
(3.36013e-15 -14.28 22.9241)
(-2.20904e-17 -11.9296 22.1223)
(1.05552e-15 -11.8867 20.1837)
(5.10992e-16 -10.5971 18.9919)
(-5.6858e-16 -9.89236 17.3939)
(-5.67919e-16 -8.59856 15.4124)
(-3.63511e-16 -6.68375 12.362)
(-6.84405e-16 -4.069 8.43172)
(-8.50883e-16 -1.18364 4.26186)
(-1.10409e-15 1.90845 0.179407)
(-4.87433e-17 2.95425 -2.12836)
(1.00509e-15 0.826262 -1.1065)
(1.84347e-14 -11.7506 22.7583)
(1.43279e-14 -17.8402 27.9433)
(1.45858e-15 -14.0226 25.8617)
(2.49668e-15 -14.2913 22.8748)
(5.62654e-16 -12.4546 21.7813)
(1.19319e-15 -12.1742 19.9672)
(9.86363e-16 -11.1665 18.6178)
(1.34581e-16 -10.4714 17.0952)
(2.70469e-16 -9.59091 15.4621)
(4.73693e-17 -8.43966 13.4338)
(-2.27349e-16 -6.91203 10.9221)
(3.73039e-16 -4.94025 7.96183)
(3.26508e-16 -2.45537 4.37461)
(6.00733e-16 0.658598 0.660936)
(1.22232e-15 0.803063 -3.51377)
(1.7916e-14 -10.8694 20.2856)
(1.61394e-14 -17.3037 27.6416)
(3.3131e-15 -14.2653 25.6043)
(2.3752e-15 -13.8983 22.4072)
(1.07701e-15 -12.3033 21.0621)
(1.35909e-15 -11.8345 19.3191)
(1.56964e-15 -10.9135 17.8832)
(9.00772e-16 -10.1549 16.36)
(9.04803e-16 -9.35395 14.818)
(7.37459e-16 -8.44896 13.1679)
(3.99626e-16 -7.40902 11.3053)
(6.64432e-16 -6.08242 9.17869)
(6.5172e-16 -4.49094 6.49838)
(1.62129e-15 -2.0483 3.24754)
(-1.77255e-15 -0.147578 -2.17848)
(1.74358e-14 -10.2495 18.6434)
(1.73063e-14 -16.6277 27.1002)
(4.48409e-15 -14.2212 25.2656)
(2.22094e-15 -13.4868 22.0245)
(1.39439e-15 -11.9908 20.5091)
(1.20524e-15 -11.4263 18.8174)
(1.63912e-15 -10.5343 17.373)
(1.36717e-15 -9.74584 15.8732)
(6.02298e-16 -8.94728 14.3868)
(7.00367e-16 -8.10194 12.8911)
(9.71249e-16 -7.21823 11.3005)
(-2.88831e-17 -6.14696 9.5738)
(-2.89874e-18 -4.93885 7.43719)
(-2.30609e-16 -3.0179 4.74759)
(-5.29963e-15 -0.752561 -0.847322)
(1.72285e-14 -9.88879 17.6463)
(1.83351e-14 -15.912 26.3388)
(4.83959e-15 -14.094 24.7879)
(1.84662e-15 -13.1093 21.561)
(1.93289e-15 -11.6604 19.8711)
(6.40708e-16 -11.0336 18.2436)
(9.90168e-16 -10.198 16.8626)
(1.76681e-15 -9.43957 15.4656)
(3.83455e-16 -8.682 14.0924)
(-1.1165e-16 -7.90138 12.7329)
(5.30503e-16 -7.11937 11.3322)
(-9.69539e-16 -6.21739 9.88143)
(-6.25353e-16 -5.26513 8.15497)
(-2.00911e-15 -3.71259 6.07793)
(-6.94535e-15 -1.34477 0.770628)
(1.66887e-14 -9.96826 17.4651)
(1.82388e-14 -15.1826 25.3465)
(5.3966e-15 -13.951 24.2746)
(7.44188e-16 -13.1501 21.4712)
(2.7523e-15 -11.8736 19.7129)
(3.28191e-16 -11.2785 18.1336)
(-1.70931e-15 -10.5895 16.8076)
(3.12316e-15 -9.9283 15.4824)
(1.64256e-15 -9.23866 14.1345)
(-1.4508e-15 -8.49521 12.8036)
(-3.74178e-17 -7.73095 11.5017)
(-1.40755e-15 -6.9134 10.2845)
(-2.06874e-15 -6.10676 9.03536)
(-1.71566e-15 -4.88694 7.65189)
(-7.09481e-15 -2.71997 3.37474)
(1.46265e-14 -9.69626 16.087)
(1.79336e-14 -14.6264 24.1126)
(1.55027e-15 -12.83 22.1463)
(-1.26285e-15 -11.5834 19.024)
(2.34174e-15 -10.1787 17.6457)
(-1.44044e-15 -9.62921 16.2358)
(-5.91296e-16 -8.86209 15.2223)
(3.61283e-15 -8.4726 14.2816)
(3.06264e-16 -8.15067 13.5847)
(-1.85654e-15 -7.9577 12.9719)
(-1.20508e-15 -7.82324 12.4652)
(-2.71407e-15 -7.62877 11.9737)
(-3.04384e-15 -7.29084 11.3814)
(-4.43838e-15 -6.50404 10.5055)
(-9.99087e-15 -4.50937 7.07993)
(9.26798e-15 -8.22996 14.1697)
(1.71362e-14 -16.1393 25.2312)
(8.63122e-15 -17.5223 26.3284)
(1.80414e-15 -16.9116 23.9438)
(2.75006e-16 -15.2713 21.4639)
(-1.79898e-15 -13.7929 18.949)
(-1.78659e-15 -11.9853 16.4061)
(-6.34744e-16 -10.2101 13.9483)
(-1.69611e-15 -8.41961 11.6009)
(-2.93758e-15 -6.89628 9.62287)
(-4.74213e-15 -5.78013 8.38491)
(-4.21574e-15 -5.67052 8.72689)
(-3.05167e-15 -6.11628 10.1326)
(-3.83613e-15 -6.15408 10.4839)
(-4.24277e-15 -3.91112 6.99303)
(-4.33972e-16 -0.0115798 -0.0288567)
(-4.06029e-15 0.086283 -0.629204)
(-2.55515e-15 0.117935 -0.553019)
(-1.44811e-15 0.175149 -0.378724)
(-8.39042e-16 0.162605 -0.175546)
(-2.77086e-15 0.251653 -0.300076)
(-1.96367e-15 0.249251 -0.23335)
(-1.38776e-15 0.282003 -0.248777)
(-1.14488e-15 0.27622 -0.185683)
(9.00932e-17 0.347765 -0.307488)
(1.27921e-15 0.357001 -0.219083)
(1.45742e-15 0.371355 -0.164596)
(2.7227e-16 0.448649 -0.251333)
(-1.36236e-16 0.417739 -0.184923)
(-1.58995e-16 0.465315 -0.190859)
(1.75024e-16 0.442282 -0.153799)
(-1.08167e-15 0.537075 -0.223293)
(1.86223e-16 0.502207 -0.162978)
(7.03211e-16 0.521694 -0.128053)
(3.04999e-16 0.60934 -0.164737)
(6.49894e-16 0.534789 -0.10864)
(7.03199e-16 0.597767 -0.0922498)
(1.20999e-15 0.549734 -0.0566637)
(9.19288e-16 0.689754 -0.0449502)
(7.67061e-16 0.569649 -0.015142)
(7.10536e-16 0.623352 -0.00276564)
(2.21925e-16 0.578609 0.0185842)
(8.61797e-16 0.67383 0.0669598)
(-2.85922e-16 0.590052 0.0703872)
(-5.51909e-16 0.602624 0.0794135)
(-1.20476e-15 0.662409 0.162611)
(-1.41926e-15 0.558155 0.118811)
(-1.21295e-15 0.605794 0.118235)
(-1.36601e-15 0.554571 0.120477)
(-2.08102e-15 0.624496 0.233194)
(-1.20339e-15 0.526285 0.169334)
(-8.69319e-16 0.536738 0.158077)
(-1.18692e-15 0.556185 0.290018)
(-6.65082e-16 0.454886 0.17816)
(-8.04412e-16 0.490973 0.162515)
(-2.76805e-16 0.44465 0.152075)
(-5.55987e-16 0.493733 0.297845)
(-4.35355e-16 0.373163 0.171516)
(-4.34425e-16 0.400454 0.146813)
(-3.88377e-16 0.369453 0.127919)
(-4.3316e-16 0.36681 0.279894)
(-1.08017e-15 0.293535 0.130401)
(-9.63193e-16 0.308001 0.0942996)
(-1.63084e-15 0.278459 0.232298)
(5.85705e-17 0.224482 0.0958422)
(3.79683e-16 0.250825 0.0667995)
(3.74607e-16 0.22362 0.0428142)
(8.65562e-16 0.256953 0.0327176)
(6.69328e-16 0.22526 -0.0131887)
(2.99096e-16 0.243051 -0.02528)
(9.12806e-16 0.242526 -0.0336062)
(1.42197e-15 0.195538 -0.0715063)
(2.26602e-15 0.0876729 -0.322957)
(8.39755e-16 0.185171 -0.249821)
(3.50392e-15 -0.0654333 -0.862018)
(3.90556e-15 -0.177675 -0.947025)
(3.42079e-15 -0.0825023 -0.787345)
(3.27022e-15 -0.0204904 -0.694936)
(1.00658e-14 -0.141575 -1.67046)
(-5.96474e-15 -0.601007 -0.147864)
(-8.73954e-15 -0.34802 0.0274719)
(-1.52551e-14 -1.07769 1.4038)
(-1.31598e-14 -1.41294 2.04637)
(-1.13937e-14 -1.53 1.83765)
(-1.16425e-14 -1.45854 1.99442)
(-1.98292e-14 -2.60066 4.16306)
(-1.74356e-14 -2.94674 3.9075)
(-1.85929e-14 -3.22388 4.00352)
(-1.95746e-14 -3.17108 4.24495)
(-2.78497e-14 -5.21427 7.1056)
(-2.11672e-14 -5.13975 5.79952)
(-2.19112e-14 -5.16512 6.12129)
(-2.825e-14 -7.74645 9.35226)
(-2.03664e-14 -7.47987 7.28091)
(-2.12984e-14 -7.64995 8.03641)
(-2.43807e-14 -8.32747 10.1551)
(-2.35321e-14 -8.15668 10.2223)
(-2.31486e-14 -8.30028 10.596)
(-2.24022e-14 -9.61168 12.6102)
(-1.94038e-14 -9.06541 11.67)
(-1.80304e-14 -9.26226 12.3567)
(-1.62653e-14 -9.20499 12.6459)
(-1.46928e-14 -9.24605 12.9405)
(-1.30654e-14 -9.24988 13.2486)
(-1.14671e-14 -9.29293 13.5545)
(-9.85999e-15 -9.34109 13.8172)
(-8.40468e-15 -9.39097 14.0849)
(-5.63238e-15 -10.3875 15.9212)
(-5.02439e-15 -9.9582 14.9862)
(-3.85362e-15 -10.0874 15.3848)
(-3.129e-15 -10.1077 15.5196)
(-2.53791e-15 -10.1453 15.4409)
(-1.89113e-15 -10.2177 15.6382)
(-1.38829e-15 -10.2915 15.8762)
(-9.40022e-16 -10.3874 16.1421)
(-5.47977e-16 -10.4493 16.4861)
(1.64136e-15 -11.4733 18.5857)
(9.76692e-16 -10.8986 17.0306)
(1.28393e-15 -11.0643 17.312)
(1.35459e-15 -11.1095 17.4133)
(1.47386e-15 -11.2014 17.5905)
(1.66811e-15 -11.265 17.796)
(1.87185e-15 -11.3714 17.9795)
(1.80259e-15 -11.4236 18.002)
(1.79543e-15 -11.5516 18.1168)
(1.82511e-15 -11.597 18.2818)
(3.18382e-15 -12.1205 19.8829)
(2.23254e-15 -11.6839 18.697)
(2.36615e-15 -11.7855 18.8606)
(2.42258e-15 -11.8338 18.9189)
(2.51048e-15 -11.927 19.0282)
(2.60813e-15 -11.9508 19.1658)
(2.83099e-15 -12.0712 19.5032)
(3.00165e-15 -12.1129 19.6024)
(3.1725e-15 -12.1846 19.66)
(4.38841e-15 -11.7265 19.7415)
(3.58504e-15 -11.6643 19.2715)
(3.78552e-15 -11.6669 19.5662)
(3.81251e-15 -11.7405 19.7844)
(3.9021e-15 -11.7097 19.7091)
(4.00072e-15 -11.7762 19.6994)
(4.10494e-15 -11.7942 19.6431)
(4.20144e-15 -11.7792 19.6335)
(4.27466e-15 -11.9504 19.8934)
(5.6884e-15 -10.0845 17.8652)
(4.86091e-15 -10.7418 18.6377)
(5.15968e-15 -10.6379 18.4676)
(5.40146e-15 -10.6395 18.4494)
(5.857e-15 -10.6481 18.5847)
(6.13504e-15 -10.6067 18.4764)
(6.3846e-15 -10.5371 18.2924)
(6.65567e-15 -10.5277 18.1057)
(6.91895e-15 -10.5298 17.8475)
(8.03747e-15 -8.02341 14.8671)
(7.31018e-15 -8.92793 16.8179)
(7.34808e-15 -8.66555 16.2569)
(7.25131e-15 -8.70222 15.893)
(7.11653e-15 -8.59118 15.3313)
(6.97958e-15 -8.51332 14.7379)
(7.4479e-15 -8.42491 14.2782)
(6.66859e-15 -8.22648 13.264)
(6.22363e-15 -8.06742 12.2609)
(5.73086e-15 -7.86447 11.165)
(4.32094e-15 -4.51494 5.2669)
(5.61066e-15 -6.0959 9.12097)
(5.23262e-15 -5.57552 7.68104)
(4.64396e-15 -5.62084 7.07363)
(4.09041e-15 -5.28777 6.12986)
(3.53631e-15 -5.20575 5.18109)
(2.69253e-15 -5.00477 3.6525)
(1.98713e-15 -4.60851 2.28256)
(2.1859e-15 -4.56053 2.29664)
(6.32011e-16 -3.21369 -1.01533)
(1.92287e-15 -3.75414 1.54364)
(1.75226e-15 -3.60596 0.596698)
(2.10177e-17 -2.24458 -2.4314)
(1.07724e-15 -4.28123 -1.29907)
(8.20804e-16 -3.01683 -1.26286)
(7.39243e-16 -2.78549 -0.817232)
(1.01593e-15 -3.47256 -1.1753)
(7.53986e-16 -2.3307 -0.694665)
(1.14912e-15 -3.09601 -1.0599)
(1.00821e-15 -2.71389 -0.742563)
(8.43035e-16 -2.18094 -0.52994)
(1.26983e-15 -2.72893 -0.785624)
(1.12018e-15 -2.44179 -0.561234)
(9.33568e-16 -2.09943 -0.392277)
(1.30795e-15 -2.79679 -0.549394)
(9.64514e-16 -1.86637 -0.327929)
(1.42894e-15 -2.53159 -0.49272)
(1.22199e-15 -2.23185 -0.359959)
(9.65724e-16 -1.95378 -0.252062)
(1.31291e-15 -2.63136 -0.351385)
(9.08794e-16 -1.75297 -0.209712)
(1.33863e-15 -2.44967 -0.310138)
(1.06194e-15 -2.26737 -0.242898)
(8.43664e-16 -1.81248 -0.171466)
(1.22541e-15 -2.34755 -0.254445)
(1.02276e-15 -2.18912 -0.205604)
(8.34035e-16 -1.89397 -0.142549)
(1.17435e-15 -2.59935 -0.199401)
(8.46599e-16 -1.74622 -0.12476)
(1.36042e-15 -2.41012 -0.179281)
(1.19955e-15 -2.19216 -0.160529)
(9.85195e-16 -1.9232 -0.113791)
(1.41617e-15 -2.6378 -0.158439)
(1.04463e-15 -1.76396 -0.101129)
(1.63944e-15 -2.49132 -0.141241)
(1.42374e-15 -2.35596 -0.140753)
(1.18251e-15 -1.87711 -0.100787)
(1.80204e-15 -2.45132 -0.148715)
(1.57428e-15 -2.31801 -0.141791)
(1.29143e-15 -2.00777 -0.0981095)
(1.84446e-15 -2.77755 -0.133933)
(1.35085e-15 -1.87048 -0.0868359)
(2.11982e-15 -2.59294 -0.11524)
(1.84505e-15 -2.38557 -0.116913)
(1.50711e-15 -2.09585 -0.0786512)
(2.15182e-15 -2.89263 -0.10419)
(1.58079e-15 -1.94147 -0.061978)
(2.48307e-15 -2.75557 -0.0734402)
(2.15917e-15 -2.63769 -0.0807931)
(1.78117e-15 -2.10629 -0.046302)
(2.72975e-15 -2.76739 -0.0588012)
(2.39712e-15 -2.65006 -0.0528762)
(1.97289e-15 -2.31107 -0.0152562)
(2.83394e-15 -3.21825 -0.00810833)
(2.08445e-15 -2.19337 0.0188905)
(3.26272e-15 -3.05542 0.0606824)
(2.89028e-15 -2.86709 0.059227)
(2.36783e-15 -2.54526 0.0831377)
(3.39978e-15 -3.54095 0.136709)
(2.51318e-15 -2.42538 0.13933)
(3.94812e-15 -3.46506 0.254444)
(3.49889e-15 -3.40059 0.243109)
(2.91675e-15 -2.75709 0.246885)
(4.47276e-15 -3.66248 0.404017)
(4.05233e-15 -3.59601 0.404915)
(3.38444e-15 -3.20027 0.396212)
(4.8386e-15 -4.49662 0.593359)
(3.6229e-15 -3.16857 0.510754)
(5.65618e-15 -4.43962 0.845578)
(5.0756e-15 -4.29796 0.814567)
(4.20984e-15 -3.89672 0.750658)
(6.0229e-15 -5.46802 1.10316)
(4.55925e-15 -3.89286 0.91784)
(7.12928e-15 -5.59354 1.48295)
(6.46822e-15 -5.6242 1.39773)
(5.50165e-15 -4.67365 1.25359)
(8.31916e-15 -6.27856 1.94568)
(7.50148e-15 -6.27311 1.84045)
(6.27446e-15 -5.68082 1.63193)
(8.95071e-15 -8.05076 2.36015)
(6.90437e-15 -5.96552 1.90281)
(1.09462e-14 -8.04516 3.12017)
(-9.76373e-44 0.568642 0.496936)
(-2.33168e-43 0.685144 0.448739)
(-3.89198e-43 0.793531 0.424154)
(-5.2764e-43 0.894732 0.403912)
(-5.57726e-43 0.98448 0.379696)
(-4.85113e-43 0.983159 0.305885)
(-4.18193e-43 1.00963 0.219187)
(-2.98445e-43 1.076 0.154473)
(-1.3785e-43 1.14453 0.0984129)
(-5.18884e-44 1.08383 0.0602784)
(-1.10391e-44 0.978917 -0.0564743)
(5.90343e-47 0.98827 -0.14098)
(-3.85036e-44 0.974933 -0.178633)
(4.31218e-43 1.03713 -0.259617)
(-3.84707e-42 1.12081 -0.27374)
(2.78256e-41 1.08536 -0.288224)
(-1.3312e-40 1.12597 -0.390666)
(3.96289e-40 1.31726 -0.44246)
(-1.3081e-39 1.38883 -0.383613)
(1.71342e-38 1.35992 -0.340251)
(-5.35069e-37 1.40681 -0.292912)
(3.77191e-35 1.45947 -0.153847)
(1.13892e-33 1.50508 0.0357161)
(1.25094e-33 1.49884 0.257491)
(-5.43987e-32 1.47656 0.638576)
(-3.47877e-31 1.59212 0.876525)
(-8.85657e-31 1.81268 0.833865)
(-3.44298e-31 2.02288 0.59759)
(5.87587e-30 2.02261 0.262621)
(1.71823e-29 1.85377 0.0224993)
(-7.41434e-29 1.68015 -0.0835392)
(-3.84828e-27 1.49131 -0.184876)
(1.07102e-25 1.3563 -0.183082)
(5.74441e-26 1.23427 -0.165927)
(-1.83157e-22 1.13627 -0.118684)
(6.36096e-21 1.04926 -0.0426917)
(-9.13265e-20 0.971028 0.0215148)
(-1.05211e-18 0.725568 0.0694962)
(-1.3388e-18 0.365779 0.106117)
(-2.04193e-18 0.224548 0.231937)
(-2.11885e-18 -0.0234383 0.384309)
(-2.12075e-18 -0.32383 0.481388)
(-1.7226e-18 -0.448224 0.549532)
(-7.92474e-19 -0.561932 0.626539)
(-3.14243e-19 -0.665673 0.694878)
(-8.27257e-19 -0.639481 0.765522)
(-5.29065e-19 -0.474152 0.844662)
(-8.55396e-19 -0.220593 0.949854)
(-8.22036e-18 0.0257735 1.06326)
(-2.66323e-17 0.228885 1.1393)
(-5.07046e-17 0.42219 1.21592)
(-6.85473e-17 0.625436 1.29916)
(-8.37359e-17 0.840167 1.37214)
(-1.21004e-16 1.07194 1.42833)
(-1.90097e-16 1.32194 1.46155)
(-3.2173e-16 1.58827 1.46725)
(-4.05868e-16 1.86606 1.44176)
(-4.19093e-16 2.14789 1.38246)
(-4.35787e-16 2.42437 1.28689)
(-4.84382e-16 2.6845 1.15233)
(-5.88706e-16 2.91675 0.97429)
(-6.45598e-16 3.10238 0.749471)
(-6.48851e-16 3.22222 0.473949)
(-5.94182e-16 3.25157 0.145291)
(-3.90228e-16 3.16293 -0.22737)
(-1.50275e-16 2.92416 -0.622748)
(2.1453e-17 2.52513 -1.00458)
(2.85735e-17 1.95305 -1.33294)
(-7.23312e-17 1.2261 -1.54506)
(-1.68848e-16 0.390626 -1.59946)
(-1.23363e-16 -0.361361 -1.52097)
(-5.62838e-17 -0.902767 -1.33756)
(1.42873e-16 -1.23094 -1.04484)
(3.22467e-16 -1.46208 -0.721629)
(1.81273e-16 -2.02595 -0.395847)
(6.95605e-17 -2.0933 -0.231583)
(-2.81432e-17 -0.951508 0.194845)
(1.43585e-15 -1.87663 1.41449)
(6.04778e-15 -5.79902 3.37118)
(-2.43049e-43 0.575936 0.544837)
(-6.01145e-43 0.696286 0.479788)
(-1.00836e-42 0.80034 0.455395)
(-1.36782e-42 0.901217 0.436246)
(-1.43475e-42 0.99929 0.416739)
(-1.23048e-42 1.00776 0.338736)
(-1.04512e-42 1.03296 0.242738)
(-7.36706e-43 1.09446 0.166946)
(-3.38424e-43 1.15871 0.0989369)
(-1.27228e-43 1.10646 0.05433)
(-2.70573e-44 1.00739 -0.0640537)
(-8.60405e-46 1.00409 -0.146822)
(-7.33324e-44 0.989423 -0.191969)
(8.14682e-43 1.04774 -0.273347)
(-7.33413e-42 1.1214 -0.292982)
(5.3982e-41 1.09877 -0.314597)
(-2.66103e-40 1.14515 -0.407526)
(8.16203e-40 1.31324 -0.463606)
(-2.39748e-39 1.36978 -0.420981)
(3.1493e-38 1.34208 -0.370781)
(-1.01721e-36 1.37479 -0.313228)
(6.43882e-35 1.40583 -0.162375)
(1.78561e-33 1.43945 0.0552949)
(3.22775e-34 1.40551 0.3265)
(-6.51252e-32 1.38231 0.7704)
(-3.69072e-31 1.56334 1.01501)
(-1.02259e-30 1.8563 0.948293)
(-1.82178e-30 2.11104 0.669553)
(-5.35923e-31 2.11056 0.261096)
(1.57267e-29 1.90484 -0.0417298)
(9.93969e-29 1.70908 -0.128974)
(-1.86155e-27 1.50392 -0.223525)
(1.717e-27 1.35094 -0.214456)
(3.25256e-24 1.22204 -0.188115)
(-1.86757e-22 1.11498 -0.133652)
(3.79464e-21 1.02506 -0.0518927)
(-7.4981e-20 0.95053 0.0216982)
(-9.88963e-19 0.70894 0.0785691)
(-1.71011e-18 0.332524 0.100849)
(-2.05135e-18 0.170459 0.208806)
(-2.10466e-18 -0.0692926 0.372884)
(-2.12277e-18 -0.350164 0.481556)
(-1.72356e-18 -0.46956 0.549045)
(-7.8852e-19 -0.582352 0.62593)
(-3.1621e-19 -0.684623 0.694361)
(-8.3905e-19 -0.660201 0.762523)
(-6.0485e-19 -0.501312 0.833576)
(-5.92905e-19 -0.256442 0.91948)
(-5.43007e-18 -0.0116008 1.01678)
(-2.2187e-17 0.198179 1.11841)
(-4.91463e-17 0.393688 1.22204)
(-6.83709e-17 0.599999 1.32469)
(-8.23882e-17 0.820727 1.41369)
(-1.1842e-16 1.05991 1.48334)
(-1.8008e-16 1.31851 1.52793)
(-2.84949e-16 1.59431 1.54301)
(-3.95143e-16 1.88225 1.52487)
(-4.17695e-16 2.17477 1.47071)
(-4.36e-16 2.46257 1.37775)
(-4.95e-16 2.73507 1.2427)
(-6.14847e-16 2.98094 1.05981)
(-6.43393e-16 3.18143 0.824833)
(-6.36113e-16 3.31734 0.533179)
(-5.44982e-16 3.36204 0.182541)
(-3.10109e-16 3.28475 -0.218922)
(-4.21421e-17 3.04895 -0.649203)
(7.78363e-17 2.64176 -1.07076)
(-1.1762e-17 2.0457 -1.439)
(-1.89286e-16 1.27927 -1.67899)
(-4.02819e-16 0.401855 -1.72927)
(-3.62717e-16 -0.390146 -1.59579)
(-1.49411e-16 -0.968065 -1.35602)
(1.12525e-16 -1.31371 -1.04621)
(3.00164e-16 -1.54506 -0.720073)
(1.7508e-16 -2.08238 -0.388819)
(6.71656e-17 -2.14808 -0.217494)
(-1.11335e-17 -1.11337 0.220204)
(1.7803e-15 -2.24881 1.53027)
(6.30905e-15 -6.07786 3.15105)
(-6.58255e-43 0.583591 0.570529)
(-1.62227e-42 0.704585 0.491262)
(-2.68247e-42 0.804038 0.465485)
(-3.58331e-42 0.903914 0.447761)
(-3.6956e-42 1.00721 0.434952)
(-3.09977e-42 1.02272 0.357447)
(-2.54954e-42 1.04841 0.256731)
(-1.75844e-42 1.10796 0.173914)
(-8.06952e-43 1.16973 0.099395)
(-3.09434e-43 1.12115 0.0516716)
(-6.77173e-44 1.02521 -0.0650293)
(-5.31804e-45 1.01737 -0.146667)
(-1.27788e-43 1.0035 -0.197247)
(1.4045e-42 1.05979 -0.280369)
(-1.27844e-41 1.12925 -0.305586)
(9.63123e-41 1.11103 -0.329113)
(-4.93806e-40 1.15969 -0.413466)
(1.61854e-39 1.31891 -0.473431)
(-4.38383e-39 1.36668 -0.442053)
(5.70337e-38 1.33548 -0.389393)
(-1.88104e-36 1.35977 -0.324328)
(1.10267e-34 1.37692 -0.160365)
(2.91265e-33 1.39691 0.0758042)
(-3.67589e-33 1.34112 0.399073)
(-1.02532e-31 1.32344 0.88354)
(-3.93725e-31 1.55139 1.11828)
(-9.16274e-31 1.88864 1.03109)
(-2.14956e-30 2.17475 0.721373)
(-5.26184e-30 2.1791 0.263203)
(-6.13091e-30 1.94085 -0.102124)
(1.076e-28 1.72248 -0.177372)
(9.71033e-28 1.51112 -0.254906)
(-3.22909e-26 1.34876 -0.241314)
(2.82575e-24 1.21624 -0.207073)
(-1.27869e-22 1.10555 -0.147461)
(2.63578e-21 1.0142 -0.0627375)
(-6.9883e-20 0.941736 0.0211513)
(-9.45035e-19 0.706819 0.0851347)
(-1.99731e-18 0.335452 0.110775)
(-2.15103e-18 0.164013 0.209054)
(-2.09445e-18 -0.0853587 0.368556)
(-2.12471e-18 -0.364774 0.481974)
(-1.71283e-18 -0.482307 0.549108)
(-7.74238e-19 -0.595965 0.625279)
(-3.23324e-19 -0.697697 0.693818)
(-8.51249e-19 -0.672631 0.760082)
(-6.12101e-19 -0.51257 0.825384)
(-4.27326e-19 -0.265541 0.905447)
(-5.84854e-18 -0.0194169 1.01549)
(-2.62017e-17 0.185081 1.13713)
(-5.42495e-17 0.377702 1.25253)
(-7.03051e-17 0.583717 1.3625)
(-8.68853e-17 0.80568 1.45782)
(-1.27659e-16 1.0474 1.53334)
(-1.83561e-16 1.30972 1.58323)
(-2.75849e-16 1.59024 1.60291)
(-4.0561e-16 1.8837 1.58846)
(-4.30388e-16 2.18245 1.53678)
(-4.51699e-16 2.47719 1.44474)
(-5.19304e-16 2.75754 1.30859)
(-6.16518e-16 3.01219 1.12176)
(-6.21675e-16 3.2222 0.879433)
(-5.84065e-16 3.36793 0.57695)
(-4.36485e-16 3.42188 0.21206)
(-1.46156e-16 3.35083 -0.206772)
(1.38568e-16 3.11632 -0.657717)
(1.91768e-16 2.70291 -1.10408)
(-1.78293e-17 2.09019 -1.50111)
(-2.8134e-16 1.29251 -1.76764)
(-5.46967e-16 0.375366 -1.81992)
(-5.89325e-16 -0.441616 -1.66336)
(-3.08268e-16 -1.02621 -1.38337)
(5.44388e-17 -1.3774 -1.04572)
(2.78163e-16 -1.61297 -0.71416)
(1.66712e-16 -2.14092 -0.377391)
(6.52534e-17 -2.22172 -0.196499)
(2.55945e-17 -1.33673 0.264512)
(2.13512e-15 -2.5689 1.62204)
(6.35724e-15 -6.04388 2.83865)
(-1.74495e-42 0.592847 0.597375)
(-4.30122e-42 0.715769 0.503189)
(-7.05359e-42 0.808847 0.472975)
(-9.3197e-42 0.906435 0.454854)
(-9.45495e-42 1.01633 0.451009)
(-7.7495e-42 1.04137 0.376249)
(-6.16365e-42 1.06778 0.271025)
(-4.16137e-42 1.12451 0.18088)
(-1.90688e-42 1.18247 0.0996011)
(-7.45527e-43 1.13793 0.0477309)
(-1.67879e-43 1.04533 -0.063578)
(-1.93384e-44 1.03053 -0.146696)
(-2.13913e-43 1.01663 -0.203873)
(2.32049e-42 1.07016 -0.287923)
(-2.14174e-41 1.13304 -0.317106)
(1.65501e-40 1.12102 -0.34384)
(-8.93115e-40 1.17406 -0.423222)
(3.22566e-39 1.32085 -0.485253)
(-8.40893e-39 1.35625 -0.46142)
(1.01733e-37 1.32134 -0.409965)
(-3.37694e-36 1.33265 -0.338842)
(1.86031e-34 1.33078 -0.158271)
(4.53508e-33 1.33271 0.0995287)
(-6.49956e-33 1.25026 0.48341)
(-1.40716e-31 1.24442 1.00502)
(-5.47004e-31 1.53615 1.22658)
(-1.37468e-30 1.93288 1.11166)
(-2.70936e-30 2.25956 0.764615)
(-3.19613e-30 2.27077 0.261647)
(-1.445e-30 1.99009 -0.168226)
(-1.89007e-29 1.73774 -0.238497)
(2.36202e-28 1.51637 -0.290731)
(-2.58562e-26 1.34246 -0.268842)
(2.68982e-24 1.20484 -0.225805)
(-9.80842e-23 1.08868 -0.162778)
(1.77868e-21 0.994134 -0.0771205)
(-6.40615e-20 0.923724 0.0209282)
(-9.60245e-19 0.693979 0.0911789)
(-2.13619e-18 0.313399 0.11849)
(-2.27543e-18 0.126502 0.216515)
(-2.09607e-18 -0.117428 0.371909)
(-2.12583e-18 -0.383312 0.484039)
(-1.69732e-18 -0.496323 0.549551)
(-7.56897e-19 -0.609983 0.624279)
(-3.36576e-19 -0.710569 0.692437)
(-8.54389e-19 -0.685079 0.756418)
(-5.45996e-19 -0.527377 0.818024)
(-4.22836e-19 -0.2889 0.902356)
(-7.53452e-18 -0.0517207 1.0295)
(-3.07231e-17 0.154542 1.16383)
(-5.73945e-17 0.351201 1.28604)
(-7.18013e-17 0.560797 1.40231)
(-9.26267e-17 0.787476 1.50456)
(-1.35473e-16 1.03483 1.58671)
(-1.88454e-16 1.30369 1.64272)
(-2.72139e-16 1.59149 1.66773)
(-4.12584e-16 1.89287 1.65759)
(-4.39635e-16 2.20011 1.60893)
(-4.72147e-16 2.50403 1.51828)
(-5.44834e-16 2.79467 1.38148)
(-6.05774e-16 3.06086 1.19116)
(-5.83728e-16 3.28354 0.942014)
(-5.01928e-16 3.44269 0.629268)
(-2.73992e-16 3.50963 0.250895)
(1.00676e-16 3.44836 -0.184401)
(3.62905e-16 3.21779 -0.655575)
(2.62909e-16 2.79972 -1.12815)
(-1.3833e-16 2.16917 -1.55917)
(-4.40304e-16 1.33513 -1.85915)
(-7.06318e-16 0.373778 -1.92016)
(-7.87422e-16 -0.480478 -1.73808)
(-4.88881e-16 -1.08985 -1.41896)
(-2.71747e-17 -1.44455 -1.04395)
(2.53549e-16 -1.67684 -0.701623)
(1.59832e-16 -2.1927 -0.36017)
(6.35472e-17 -2.28315 -0.169236)
(6.81268e-17 -1.52242 0.325563)
(2.38919e-15 -2.79657 1.69867)
(6.50205e-15 -6.05582 2.77725)
(-4.49999e-42 0.603923 0.62077)
(-1.11638e-41 0.728503 0.511275)
(-1.83049e-41 0.814279 0.474023)
(-2.40523e-41 0.907947 0.452651)
(-2.40518e-41 1.02348 0.45932)
(-1.92415e-41 1.059 0.391524)
(-1.48037e-41 1.08765 0.283475)
(-9.77882e-42 1.14216 0.186837)
(-4.4706e-42 1.19643 0.100358)
(-1.78076e-42 1.15396 0.0438331)
(-4.12552e-43 1.06467 -0.0603832)
(-5.92645e-44 1.04544 -0.144911)
(-3.40029e-43 1.03173 -0.209191)
(3.61532e-42 1.08206 -0.294173)
(-3.38567e-41 1.13978 -0.326366)
(2.68973e-40 1.1319 -0.35587)
(-1.54991e-39 1.18808 -0.43202)
(6.34598e-39 1.32573 -0.495339)
(-1.7005e-38 1.35033 -0.477646)
(1.80058e-37 1.30978 -0.428971)
(-5.90177e-36 1.30772 -0.351926)
(3.10729e-34 1.28699 -0.153377)
(6.59322e-33 1.26634 0.127487)
(-9.5145e-33 1.15758 0.57483)
(-1.71414e-31 1.17177 1.12193)
(-6.48712e-31 1.52912 1.319)
(-1.82448e-30 1.98167 1.16738)
(-4.47186e-30 2.34709 0.782132)
(-6.7851e-30 2.36802 0.24941)
(7.17103e-31 2.04227 -0.233348)
(3.90452e-30 1.74774 -0.309978)
(2.42963e-28 1.51732 -0.328725)
(-3.57527e-26 1.33544 -0.295007)
(2.30549e-24 1.19423 -0.244113)
(-6.50018e-23 1.07476 -0.178909)
(1.09316e-21 0.976116 -0.0943725)
(-5.61332e-20 0.9069 0.0200091)
(-9.38643e-19 0.685603 0.0983311)
(-2.10646e-18 0.306485 0.126779)
(-2.41096e-18 0.107867 0.224214)
(-2.11179e-18 -0.142235 0.375292)
(-2.11918e-18 -0.401119 0.485232)
(-1.67771e-18 -0.510485 0.549293)
(-7.40977e-19 -0.624474 0.622193)
(-3.54958e-19 -0.723912 0.689382)
(-8.44544e-19 -0.697712 0.750954)
(-4.3513e-19 -0.542441 0.812734)
(-5.31928e-19 -0.3102 0.907989)
(-9.35349e-18 -0.0756561 1.04675)
(-3.39297e-17 0.131181 1.18711)
(-5.87264e-17 0.328423 1.3159)
(-7.37565e-17 0.539012 1.43962)
(-9.93231e-17 0.768387 1.54909)
(-1.43501e-16 1.01988 1.63812)
(-1.94788e-16 1.2941 1.7005)
(-2.77255e-16 1.58827 1.73113)
(-4.20002e-16 1.89685 1.72564)
(-4.47297e-16 2.21205 1.68038)
(-4.95776e-16 2.52475 1.59164)
(-5.69811e-16 2.82537 1.4549)
(-5.82308e-16 3.10284 1.26214)
(-5.17839e-16 3.33783 1.0078)
(-3.6416e-16 3.50978 0.68726)
(-2.81575e-17 3.58893 0.298971)
(4.10756e-16 3.5367 -0.147994)
(6.03893e-16 3.31018 -0.634148)
(1.76816e-16 2.88853 -1.12961)
(-5.02718e-16 2.24144 -1.59606)
(-8.01447e-16 1.36889 -1.93515)
(-9.34413e-16 0.355062 -2.01192)
(-9.71012e-16 -0.538213 -1.81094)
(-6.72994e-16 -1.16441 -1.4575)
(-1.30058e-16 -1.5199 -1.04262)
(2.23204e-16 -1.74611 -0.683476)
(1.53795e-16 -2.24821 -0.337271)
(6.17528e-17 -2.34854 -0.136455)
(1.15481e-16 -1.70728 0.392463)
(2.60469e-15 -3.01615 1.72078)
(6.42442e-15 -6.0367 2.48413)
(-1.12469e-41 0.616541 0.642077)
(-2.82703e-41 0.743567 0.517912)
(-4.67485e-41 0.821086 0.471064)
(-6.14934e-41 0.908718 0.441984)
(-6.08603e-41 1.02873 0.458697)
(-4.75381e-41 1.0761 0.402667)
(-3.53806e-41 1.1084 0.29428)
(-2.28425e-41 1.16078 0.191968)
(-1.04014e-41 1.21103 0.101819)
(-4.21737e-42 1.16975 0.0410203)
(-1.00502e-42 1.08288 -0.0572595)
(-1.66281e-43 1.06032 -0.142888)
(-5.07661e-43 1.04671 -0.213836)
(5.2079e-42 1.09372 -0.299459)
(-4.93968e-41 1.14597 -0.33407)
(4.04425e-40 1.14226 -0.365536)
(-2.53784e-39 1.20202 -0.440376)
(1.21074e-38 1.3303 -0.504969)
(-3.57382e-38 1.34372 -0.491446)
(3.19609e-37 1.29672 -0.447752)
(-1.00725e-35 1.27826 -0.364367)
(5.12569e-34 1.23601 -0.146939)
(8.88333e-33 1.18824 0.159878)
(-1.18213e-32 1.05316 0.670277)
(-1.8061e-31 1.09652 1.22858)
(-6.74383e-31 1.52775 1.38632)
(-2.30209e-30 2.03928 1.18574)
(-7.16633e-30 2.44258 0.761273)
(-1.32332e-29 2.47361 0.215472)
(5.56019e-31 2.10156 -0.293116)
(-1.20437e-29 1.7563 -0.390268)
(6.04179e-28 1.51328 -0.370317)
(-3.85111e-26 1.32584 -0.3199)
(1.65504e-24 1.18183 -0.262889)
(-3.60153e-23 1.05936 -0.195706)
(7.38203e-22 0.954902 -0.112934)
(-4.78313e-20 0.885903 0.0171968)
(-9.0892e-19 0.673384 0.104619)
(-2.03787e-18 0.290889 0.133525)
(-2.55377e-18 0.0802755 0.232649)
(-2.13695e-18 -0.168265 0.379177)
(-2.0961e-18 -0.41815 0.485304)
(-1.64471e-18 -0.523865 0.547708)
(-7.21317e-19 -0.638242 0.618224)
(-3.72906e-19 -0.736533 0.683758)
(-8.2399e-19 -0.709952 0.743444)
(-3.13596e-19 -0.558768 0.809583)
(-6.6666e-19 -0.334851 0.91725)
(-1.06381e-17 -0.105454 1.06274)
(-3.54141e-17 0.102477 1.20971)
(-5.91866e-17 0.301574 1.34647)
(-7.6655e-17 0.514674 1.47729)
(-1.06563e-16 0.747913 1.59406)