/*--------------------------------*- C++ -*----------------------------------*\
| =========                 |                                                 |
| \\      /  F ield         | OpenFOAM: The Open Source CFD Toolbox           |
|  \\    /   O peration     | Version:  4.1                                   |
|   \\  /    A nd           | Web:      www.OpenFOAM.org                      |
|    \\/     M anipulation  |                                                 |
\*---------------------------------------------------------------------------*/
FoamFile
{
    version     2.0;
    format      ascii;
    class       surfaceScalarField;
    location    "29";
    object      phi;
}
// * * * * * * * * * * * * * * * * * * * * * * * * * * * * * * * * * * * * * //

dimensions      [0 3 -1 0 0 0 0];

internalField   nonuniform List<scalar> 
420
(
-949.879
2249.78
-1573.95
1924.28
-2054
1779.95
-2424.23
1670.13
-2699.86
1575.83
-2888.38
1488.42
-2993.06
1404.58
-3013.86
1321
-2949.62
1235.66
-2797.25
1147.52
-2551.18
1054.13
-2193.03
941.736
-1687.23
794.068
-1012.69
625.712
287.23
373.336
1876.44
442.747
1854.86
437.299
1785.39
406.696
1700.73
380.578
1601.94
359.897
1509.1
345.287
1419.19
337.528
1328.76
333.474
1239.71
326.938
1154.05
309.591
1071.48
267.447
983.878
191.409
870.107
111.417
705.688
398.677
33.5745
1842.87
-97.392
1985.83
-253.618
1941.62
-371.124
1818.24
-473.188
1704.01
-567.538
1603.45
-651.755
1503.4
-725.803
1402.8
-788.082
1301.99
-837.314
1203.28
-868.232
1102.4
-856.096
971.74
-740.342
754.352
-434.291
399.635
-35.6055
28.7755
1814.09
-100.656
2115.26
-225.566
2066.53
-304.502
1897.18
-368.162
1767.67
-416.96
1652.24
-446.235
1532.68
-457.022
1413.59
-451.859
1296.83
-430.16
1181.58
-387.23
1059.47
-311.881
896.385
-192.874
635.341
-48.4015
255.176
-84.0119
169.626
1644.47
146.156
2138.72
123.73
2088.95
122.868
1898.04
126.94
1763.6
135.804
1643.38
149.102
1519.38
166.592
1396.1
186.946
1276.47
208.136
1160.4
229.136
1038.47
243.823
881.693
233
646.159
155.232
332.95
71.2153
223.08
1421.39
244.181
2117.62
234.743
2098.39
236.022
1896.76
240.37
1759.25
244.305
1639.45
246.549
1517.14
245.254
1397.4
241.167
1280.56
233.997
1167.57
221.394
1051.07
199.15
903.936
156.152
689.156
78.3113
410.787
149.513
203.32
1218.07
238.373
2082.57
213.617
2123.14
191.408
1918.97
177.201
1773.45
163.771
1652.88
150.038
1530.87
135.898
1411.54
121.074
1295.39
106.925
1181.72
92.8323
1065.17
75.7829
920.986
52.0335
712.901
19.0234
443.786
168.531
171.854
1046.22
221.986
2032.44
199.426
2145.7
170.41
1947.99
152.061
1791.81
137.68
1667.26
122.791
1545.76
108.592
1425.74
95.5972
1308.39
83.1195
1194.2
71.4979
1076.79
58.6443
933.838
40.3266
731.215
15.7443
468.364
184.285
146.097
900.117
210.064
1968.47
196.883
2158.89
170.063
1974.81
152.416
1809.45
139.548
1680.13
127.086
1558.23
113.882
1438.95
101.338
1320.93
89.4363
1206.1
76.9988
1089.23
63.0955
947.738
44.3075
750.002
19.1681
493.51
203.459
116.762
783.356
184.853
1900.38
179.63
2164.11
154.314
2000.13
137.226
1826.54
124.006
1693.35
111.379
1570.85
98.9725
1451.35
86.122
1333.78
73.883
1218.34
62.1208
1100.99
49.0411
960.812
32.8712
766.167
13.2034
513.18
216.646
83.161
700.193
143.131
1840.41
144.68
2162.56
122.751
2022.06
106.139
1843.15
94.4499
1705.04
82.5662
1582.73
71.1563
1462.76
60.3768
1344.56
49.4551
1229.26
39.4312
1111.01
29.7555
970.487
18.1031
777.82
5.26271
526.02
221.888
51.2432
648.941
97.928
1793.72
102.714
2157.77
87.3812
2037.39
73.1481
1857.39
63.1342
1715.05
54.2306
1591.64
44.8439
1472.15
36.1293
1353.28
28.1531
1237.25
20.4061
1118.77
13.6732
977.235
6.74599
784.771
-0.401838
533.176
221.488
25.1308
623.806
57.7238
1761.13
63.5238
2151.97
53.4917
2047.43
43.915
1866.96
36.2021
1722.76
29.5758
1598.27
23.5281
1478.2
17.0778
1359.73
11.33
1243
6.62136
1123.48
2.4867
981.382
-1.06741
788.34
-3.69158
535.805
217.809
1.4203
622.395
24.0536
1738.5
33.3603
2142.67
27.7344
2053.05
20.3857
1874.31
15.0923
1728.06
9.56761
1603.8
4.62371
1483.14
0.0815867
1364.27
-4.78785
1247.86
-8.30385
1126.99
-9.62672
982.69
-9.7209
788.406
-7.1501
533.216
210.652
-11.7346
-3.13463
1.45591
-0.401353
-5.09544
-8.84426
-11.7908
-15.2259
-18.0839
-20.2155
-21.7804
-21.1201
-18.1357
-12.3948
)
;

boundaryField
{
    inletFace
    {
        type            calculated;
        value           nonuniform List<scalar> 
450
(
1.02584e-13
4.83416e-13
-1.6183e-13
-1.68768e-13
9.96804e-14
-1.87712e-13
-6.6542e-14
6.87325e-14
-1.04055e-13
-3.36878e-14
4.34007e-14
-5.15669e-14
1.10008e-15
1.2548e-14
-3.81861e-16
-1.86047e-12
-1.31801e-12
2.65109e-13
-2.17306e-13
-2.48826e-13
2.05747e-14
-2.88009e-13
-1.4435e-13
-3.78026e-15
-1.68168e-13
-7.72042e-14
7.99463e-15
-7.92341e-14
-9.64523e-15
1.0943e-15
-1.96021e-12
-1.48214e-12
1.64535e-13
-3.03951e-13
-2.08995e-13
-1.04936e-13
-2.92064e-13
-1.13867e-13
-7.83483e-14
-1.35972e-13
-6.9357e-14
-5.98757e-14
-5.96259e-14
6.2796e-15
9.37368e-15
-2.33118e-12
-1.60446e-12
1.6165e-14
-5.80701e-13
-1.91376e-13
-2.1081e-13
-4.07018e-13
-9.28091e-14
-1.28137e-13
-1.56905e-13
-6.24564e-14
-8.54813e-14
-9.44123e-14
2.98998e-14
7.26034e-14
-2.18131e-12
-1.74397e-12
-1.33676e-13
-5.3626e-13
-1.87406e-13
-2.1191e-13
-3.74096e-13
-9.54473e-14
-9.76505e-14
-1.43246e-13
-5.02004e-14
-5.22943e-14
-6.93305e-14
7.67181e-15
7.46459e-14
-1.89896e-12
-1.84667e-12
-2.80657e-13
-4.40015e-13
-1.75833e-13
-1.79338e-13
-3.33738e-13
-1.06441e-13
-7.97888e-14
-1.38547e-13
-3.35817e-14
-4.07741e-14
-5.65767e-14
1.09195e-14
2.11781e-14
-1.72766e-12
-1.95467e-12
-5.24159e-13
-4.12317e-13
-2.25366e-13
-2.11562e-13
-3.10567e-13
-1.4353e-13
-1.39404e-13
-1.24564e-13
-6.43203e-14
-9.31104e-14
-6.25139e-14
-7.20586e-14
-1.9644e-13
-1.51672e-12
-2.01149e-12
-7.5825e-13
-4.22248e-13
-2.57177e-13
-2.33932e-13
-2.9574e-13
-1.87309e-13
-1.57847e-13
-1.17417e-13
-1.0182e-13
-1.15247e-13
-4.95667e-14
-2.66322e-14
-2.68938e-13
-1.26881e-12
-2.02327e-12
-9.21631e-13
-4.38727e-13
-2.6707e-13
-2.13864e-13
-3.16307e-13
-2.15162e-13
-1.3784e-13
-1.65683e-13
-1.1205e-13
-7.83393e-14
-6.06459e-14
-2.63706e-14
-7.29735e-14
-1.09188e-12
-1.99629e-12
-1.04518e-12
-4.72178e-13
-2.7541e-13
-1.91028e-13
-2.91945e-13
-2.22105e-13
-1.2172e-13
-1.64003e-13
-1.10334e-13
-4.07916e-14
-6.16043e-14
-4.24209e-14
6.45843e-14
-8.83581e-13
-1.94056e-12
-1.14456e-12
-5.03929e-13
-2.91673e-13
-1.84775e-13
-2.46598e-13
-2.28069e-13
-1.21232e-13
-9.28963e-14
-1.0614e-13
-2.18362e-14
2.30464e-14
-1.01196e-14
1.04227e-13
-7.53664e-13
-1.89631e-12
-1.18922e-12
-5.53998e-13
-3.13623e-13
-1.57145e-13
-2.62847e-13
-2.41862e-13
-8.53542e-14
-8.57469e-14
-1.12627e-13
1.00628e-14
2.23773e-14
1.24901e-13
1.64347e-13
-7.04999e-13
-1.86097e-12
-1.22843e-12
-5.85223e-13
-3.20596e-13
-1.50551e-13
-2.57655e-13
-2.48088e-13
-6.92615e-14
-9.05036e-14
-1.11741e-13
2.3416e-14
8.01861e-15
1.34313e-13
1.64724e-13
-6.58704e-13
-1.8191e-12
-1.25507e-12
-5.908e-13
-3.24297e-13
-1.53055e-13
-2.41486e-13
-2.61026e-13
-6.82646e-14
-9.27215e-14
-1.15173e-13
2.93563e-14
4.73391e-15
1.18562e-13
1.36428e-13
-6.4475e-13
-1.75104e-12
-1.2557e-12
-6.04819e-13
-3.21533e-13
-1.56182e-13
-2.34207e-13
-2.46295e-13
-8.06902e-14
-9.69268e-14
-9.88271e-14
1.82659e-14
1.42939e-14
1.17853e-13
7.54692e-14
-1.02584e-13
-4.83416e-13
1.6183e-13
1.68768e-13
-9.96804e-14
1.87712e-13
6.6542e-14
-6.87325e-14
1.04055e-13
3.36878e-14
-4.34007e-14
5.15669e-14
-1.10008e-15
-1.2548e-14
3.81861e-16
1.86047e-12
1.31801e-12
-2.65109e-13
2.17306e-13
2.48826e-13
-2.05747e-14
2.88009e-13
1.4435e-13
3.78026e-15
1.68168e-13
7.72042e-14
-7.99463e-15
7.92341e-14
9.64523e-15
-1.0943e-15
1.96021e-12
1.48214e-12
-1.64535e-13
3.03951e-13
2.08995e-13
1.04936e-13
2.92064e-13
1.13867e-13
7.83483e-14
1.35972e-13
6.9357e-14
5.98757e-14
5.96259e-14
-6.2796e-15
-9.37368e-15
2.33118e-12
1.60446e-12
-1.6165e-14
5.80701e-13
1.91376e-13
2.1081e-13
4.07018e-13
9.28091e-14
1.28137e-13
1.56905e-13
6.24564e-14
8.54813e-14
9.44123e-14
-2.98998e-14
-7.26034e-14
2.18131e-12
1.74397e-12
1.33676e-13
5.3626e-13
1.87406e-13
2.1191e-13
3.74096e-13
9.54473e-14
9.76505e-14
1.43246e-13
5.02004e-14
5.22943e-14
6.93305e-14
-7.67181e-15
-7.46459e-14
1.89896e-12
1.84667e-12
2.80657e-13
4.40015e-13
1.75833e-13
1.79338e-13
3.33738e-13
1.06441e-13
7.97888e-14
1.38547e-13
3.35817e-14
4.07741e-14
5.65767e-14
-1.09195e-14
-2.11781e-14
1.72766e-12
1.95467e-12
5.24159e-13
4.12317e-13
2.25366e-13
2.11562e-13
3.10567e-13
1.4353e-13
1.39404e-13
1.24564e-13
6.43203e-14
9.31104e-14
6.25139e-14
7.20586e-14
1.9644e-13
1.51672e-12
2.01149e-12
7.5825e-13
4.22248e-13
2.57177e-13
2.33932e-13
2.9574e-13
1.87309e-13
1.57847e-13
1.17417e-13
1.0182e-13
1.15247e-13
4.95667e-14
2.66322e-14
2.68938e-13
1.26881e-12
2.02327e-12
9.21631e-13
4.38727e-13
2.6707e-13
2.13864e-13
3.16307e-13
2.15162e-13
1.3784e-13
1.65683e-13
1.1205e-13
7.83393e-14
6.06459e-14
2.63706e-14
7.29735e-14
1.09188e-12
1.99629e-12
1.04518e-12
4.72178e-13
2.7541e-13
1.91028e-13
2.91945e-13
2.22105e-13
1.2172e-13
1.64003e-13
1.10334e-13
4.07916e-14
6.16043e-14
4.24209e-14
-6.45843e-14
8.83581e-13
1.94056e-12
1.14456e-12
5.03929e-13
2.91673e-13
1.84775e-13
2.46598e-13
2.28069e-13
1.21232e-13
9.28963e-14
1.0614e-13
2.18362e-14
-2.30464e-14
1.01196e-14
-1.04227e-13
7.53664e-13
1.89631e-12
1.18922e-12
5.53998e-13
3.13623e-13
1.57145e-13
2.62847e-13
2.41862e-13
8.53542e-14
8.57469e-14
1.12627e-13
-1.00628e-14
-2.23773e-14
-1.24901e-13
-1.64347e-13
7.04999e-13
1.86097e-12
1.22843e-12
5.85223e-13
3.20596e-13
1.50551e-13
2.57655e-13
2.48088e-13
6.92615e-14
9.05036e-14
1.11741e-13
-2.3416e-14
-8.01861e-15
-1.34313e-13
-1.64724e-13
6.58704e-13
1.8191e-12
1.25507e-12
5.908e-13
3.24297e-13
1.53055e-13
2.41486e-13
2.61026e-13
6.82646e-14
9.27215e-14
1.15173e-13
-2.93563e-14
-4.73391e-15
-1.18562e-13
-1.36428e-13
6.4475e-13
1.75104e-12
1.2557e-12
6.04819e-13
3.21533e-13
1.56182e-13
2.34207e-13
2.46295e-13
8.06902e-14
9.69268e-14
9.88271e-14
-1.82659e-14
-1.42939e-14
-1.17853e-13
-7.54692e-14
)
;
    }
    inlet
    {
        type            calculated;
        value           nonuniform List<scalar> 
15
(
-1299.9
-1300.2
-1299.9
-1299.9
-1300.2
-1299.9
-1299.9
-1300.2
-1299.9
-1299.9
-1300.2
-1299.9
-1299.9
-1300.2
-1299.9
)
;
    }
    inletWalls
    {
        type            calculated;
        value           uniform 0;
    }
    outletInlet
    {
        type            calculated;
        value           nonuniform List<scalar> 
15
(
198.251
527.468
785.406
982.016
1128.55
1249.99
1367.12
1486.58
1606.74
1731.81
1879.01
2054.91
2138.08
1729.9
634.132
)
;
    }
}


// ************************************************************************* //
