/*--------------------------------*- C++ -*----------------------------------*\
| =========                 |                                                 |
| \\      /  F ield         | OpenFOAM: The Open Source CFD Toolbox           |
|  \\    /   O peration     | Version:  4.1                                   |
|   \\  /    A nd           | Web:      www.OpenFOAM.org                      |
|    \\/     M anipulation  |                                                 |
\*---------------------------------------------------------------------------*/
FoamFile
{
    version     2.0;
    format      ascii;
    class       volScalarField;
    location    "18";
    object      p;
}
// * * * * * * * * * * * * * * * * * * * * * * * * * * * * * * * * * * * * * //

dimensions      [0 2 -2 0 0 0 0];

internalField   nonuniform List<scalar> 
225
(
523.378
469.981
418.149
369.738
324.847
282.83
243.475
206.472
171.377
138.013
107.071
78.9327
49.9038
14.985
-14.1672
56.9436
34.6826
28.924
25.2137
19.7396
14.0322
8.87926
4.4905
1.00657
-1.45218
-2.64348
-2.14183
-0.0453913
1.82613
2.08631
-45.8389
-52.4819
-46.7149
-42.5681
-39.4775
-35.8821
-31.9958
-28.0585
-24.1541
-20.4382
-17.0927
-14.0256
-10.9488
-8.29596
-7.06172
0.294799
-2.12326
2.46955
2.79369
2.84727
3.06246
2.97333
2.59603
2.01447
1.25529
0.298543
-0.810803
-1.72111
-1.87335
-1.56288
16.7226
14.3898
15.9436
13.8456
12.4267
11.1832
9.77323
8.39138
7.13395
6.0429
5.14189
4.42936
3.95176
3.91904
4.1639
7.49452
5.47146
6.44544
5.22611
5.02311
5.00734
4.91956
4.95288
5.10846
5.35196
5.67125
6.03413
6.3538
6.61051
6.78525
4.02308
2.86762
3.95321
3.63011
4.01692
4.41104
4.71002
5.06067
5.41723
5.742
6.0317
6.28561
6.46385
6.54487
6.56058
5.70087
5.14305
5.9974
5.76839
5.96689
6.07939
6.10329
6.14859
6.17318
6.16835
6.14465
6.11684
6.08319
6.03733
5.98885
6.00807
5.68267
6.19349
5.9176
5.96042
5.92961
5.85454
5.80744
5.75181
5.69123
5.63197
5.57884
5.5321
5.486
5.43478
4.68822
4.48052
4.82619
4.6498
4.72258
4.73154
4.71865
4.72685
4.72426
4.71749
4.70789
4.69315
4.67094
4.63567
4.57794
3.31809
3.20192
3.49961
3.44574
3.56538
3.61209
3.64074
3.67572
3.69235
3.69924
3.69725
3.68474
3.66069
3.62245
3.55692
2.3442
2.28404
2.53834
2.53968
2.65804
2.69944
2.72853
2.75563
2.76318
2.7611
2.74968
2.72877
2.69892
2.66014
2.5955
1.56521
1.53025
1.73263
1.74644
1.84564
1.87204
1.8944
1.91153
1.91185
1.90499
1.89041
1.86816
1.83859
1.80385
1.74598
0.880565
0.868464
1.02942
1.03413
1.11117
1.12479
1.14264
1.15474
1.15419
1.14925
1.13835
1.12133
1.09633
1.06516
1.01092
0.438644
0.399324
0.455172
0.423066
0.459215
0.440524
0.434176
0.420115
0.399208
0.376513
0.349888
0.32118
0.290733
0.260785
0.217775
)
;

boundaryField
{
    inletFace
    {
        type            zeroGradient;
    }
    inlet
    {
        type            zeroGradient;
    }
    inletWalls
    {
        type            zeroGradient;
    }
    outletInlet
    {
        type            fixedValue;
        value           uniform 0;
    }
}


// ************************************************************************* //
