/*--------------------------------*- C++ -*----------------------------------*\
| =========                 |                                                 |
| \\      /  F ield         | OpenFOAM: The Open Source CFD Toolbox           |
|  \\    /   O peration     | Version:  4.1                                   |
|   \\  /    A nd           | Web:      www.OpenFOAM.org                      |
|    \\/     M anipulation  |                                                 |
\*---------------------------------------------------------------------------*/
FoamFile
{
    version     2.0;
    format      ascii;
    class       surfaceScalarField;
    location    "18";
    object      phi;
}
// * * * * * * * * * * * * * * * * * * * * * * * * * * * * * * * * * * * * * //

dimensions      [0 3 -1 0 0 0 0];

internalField   nonuniform List<scalar> 
420
(
-949.879
2249.78
-1573.96
1924.28
-2054
1779.95
-2424.23
1670.13
-2699.86
1575.83
-2888.38
1488.42
-2993.05
1404.58
-3013.85
1321
-2949.61
1235.66
-2797.23
1147.52
-2551.17
1054.13
-2193
941.735
-1687.16
794.065
-1012.67
625.705
287.232
373.336
1876.44
442.748
1854.86
437.3
1785.39
406.697
1700.74
380.58
1601.94
359.9
1509.1
345.292
1419.19
337.535
1328.76
333.484
1239.71
326.953
1154.05
309.609
1071.48
267.468
983.878
191.433
870.103
111.453
705.685
398.678
33.5756
1842.87
-97.3896
1985.83
-253.614
1941.62
-371.12
1818.24
-473.183
1704.01
-567.532
1603.45
-651.748
1503.4
-725.795
1402.8
-788.073
1301.99
-837.305
1203.28
-868.224
1102.4
-856.088
971.741
-740.335
754.351
-434.281
399.633
-35.6073
28.7764
1814.09
-100.653
2115.26
-225.561
2066.53
-304.496
1897.18
-368.157
1767.67
-416.954
1652.24
-446.229
1532.68
-457.016
1413.59
-451.853
1296.83
-430.154
1181.59
-387.225
1059.47
-311.872
896.388
-192.864
635.346
-48.4084
255.179
-84.0143
169.627
1644.46
146.159
2138.73
123.734
2088.95
122.871
1898.04
126.943
1763.6
135.806
1643.38
149.103
1519.38
166.592
1396.1
186.944
1276.48
208.133
1160.4
229.134
1038.47
243.826
881.698
233.007
646.166
155.234
332.954
71.2136
223.08
1421.39
244.183
2117.62
234.746
2098.39
236.025
1896.76
240.373
1759.25
244.307
1639.45
246.55
1517.14
245.254
1397.4
241.165
1280.56
233.993
1167.57
221.388
1051.07
199.144
903.938
156.142
689.158
78.2971
410.785
149.51
203.322
1218.06
238.373
2082.57
213.618
2123.14
191.41
1918.97
177.201
1773.45
163.77
1652.88
150.036
1530.87
135.893
1411.54
121.067
1295.39
106.914
1181.72
92.8158
1065.17
75.7637
920.984
52.0153
712.898
19.0156
443.783
168.531
171.855
1046.21
221.982
2032.43
199.422
2145.7
170.408
1947.99
152.054
1791.81
137.671
1667.26
122.779
1545.76
108.578
1425.74
95.5816
1308.38
83.0996
1194.2
71.4767
1076.79
58.6244
933.836
40.3163
731.214
15.7475
468.368
184.291
146.096
900.114
210.06
1968.47
196.876
2158.89
170.055
1974.81
152.406
1809.46
139.535
1680.13
127.071
1558.23
113.865
1438.95
101.321
1320.93
89.4206
1206.11
76.9851
1089.23
63.0896
947.743
44.3139
750.009
19.1784
493.521
203.466
116.761
783.351
184.851
1900.38
179.627
2164.11
154.311
2000.13
137.223
1826.54
124.003
1693.35
111.377
1570.86
98.9714
1451.36
86.1218
1333.78
73.8839
1218.35
62.1225
1100.99
49.0435
960.824
32.8724
766.181
13.1957
513.19
216.645
83.1609
700.187
143.126
1840.41
144.679
2162.56
122.752
2022.05
106.144
1843.15
94.4568
1705.03
82.5777
1582.73
71.171
1462.76
60.3944
1344.56
49.472
1229.26
39.4437
1111.02
29.7639
970.496
18.0963
777.831
5.24393
526.021
221.878
51.2418
648.95
97.9128
1793.73
102.698
2157.77
87.3672
2037.38
73.1389
1857.38
63.1296
1715.04
54.2283
1591.63
44.8463
1472.14
36.1373
1353.26
28.1644
1237.23
20.4181
1118.75
13.6812
977.218
6.73767
784.751
-0.412584
533.153
221.468
25.1221
623.838
57.7045
1761.15
63.4907
2151.97
53.4553
2047.42
43.8768
1866.96
36.1632
1722.76
29.5304
1598.26
23.4793
1478.19
17.0281
1359.71
11.2818
1242.98
6.58077
1123.46
2.44881
981.348
-1.0931
788.297
-3.69663
535.77
217.793
1.3982
622.423
24.0379
1738.52
33.3426
2142.67
27.7164
2053.05
20.3611
1874.32
15.0622
1728.06
9.5308
1603.8
4.57839
1483.15
0.0264765
1364.27
-4.85228
1247.87
-8.37453
1126.99
-9.69043
982.685
-9.74774
788.398
-7.14529
533.212
210.66
-11.7357
-3.13994
1.45389
-0.396935
-5.08481
-8.83067
-11.7719
-15.2045
-18.0597
-20.1924
-21.7578
-21.0987
-18.1167
-12.3894
)
;

boundaryField
{
    inletFace
    {
        type            calculated;
        value           nonuniform List<scalar> 
450
(
-1.77196e-14
5.84372e-13
-2.26301e-13
-1.23226e-13
1.51673e-13
-1.90796e-13
-6.3603e-14
6.95963e-14
-1.01391e-13
-2.70456e-14
5.69658e-14
-3.02316e-14
-7.04289e-15
8.19015e-15
7.24335e-16
-2.11832e-12
-2.26274e-12
-4.86981e-14
-6.05354e-13
-2.78044e-13
2.65545e-14
-2.86414e-13
-1.37922e-13
8.15163e-15
-1.34031e-13
-5.15042e-14
4.47812e-14
-2.60173e-14
-4.40747e-15
1.06699e-17
-2.28833e-12
-2.40141e-12
-2.40488e-13
-6.49578e-13
-2.52441e-13
-1.06863e-13
-2.93793e-13
-1.09268e-13
-9.02618e-14
-1.08188e-13
-1.65258e-14
-1.38925e-14
-1.75552e-14
9.44571e-15
4.34266e-15
-2.53328e-12
-2.34246e-12
-3.48513e-13
-8.41123e-13
-2.7033e-13
-2.18246e-13
-4.11826e-13
-1.07845e-13
-1.5418e-13
-1.80247e-13
-1.23582e-14
-5.35865e-14
-7.09197e-14
3.63752e-14
6.75518e-14
-2.34759e-12
-2.37638e-12
-4.72818e-13
-7.78646e-13
-2.8013e-13
-2.28576e-13
-3.7759e-13
-1.14487e-13
-1.50518e-13
-1.61471e-13
-2.27617e-14
-2.62452e-14
-4.96295e-14
1.47497e-14
7.77219e-14
-2.05561e-12
-2.39358e-12
-6.61637e-13
-6.87512e-13
-2.88771e-13
-1.82258e-13
-3.24022e-13
-1.10348e-13
-1.14756e-13
-1.51139e-13
-1.46082e-14
7.8915e-15
-2.23133e-14
2.83503e-14
3.55485e-14
-1.84722e-12
-2.45194e-12
-9.12046e-13
-6.70288e-13
-3.40529e-13
-2.17078e-13
-2.99782e-13
-1.46348e-13
-1.49483e-13
-1.62138e-13
-5.27113e-14
-5.09575e-14
-1.65209e-14
-4.66935e-14
-1.44605e-13
-1.62208e-12
-2.4561e-12
-1.12937e-12
-6.7969e-13
-3.7826e-13
-2.51622e-13
-2.8796e-13
-1.84499e-13
-1.86006e-13
-1.61944e-13
-9.71145e-14
-1.2671e-13
-2.13285e-14
1.57631e-15
-2.33843e-13
-1.36889e-12
-2.42133e-12
-1.29302e-12
-7.10255e-13
-4.06413e-13
-2.46421e-13
-2.94064e-13
-1.99524e-13
-1.6362e-13
-1.77241e-13
-1.09692e-13
-9.02288e-14
-3.10904e-14
4.67894e-15
-5.09107e-14
-1.17383e-12
-2.35796e-12
-1.41801e-12
-7.545e-13
-4.29023e-13
-2.3766e-13
-2.81669e-13
-2.07534e-13
-1.40851e-13
-1.66035e-13
-1.09007e-13
-5.13623e-14
-2.8345e-14
-9.32947e-15
8.27101e-14
-9.80213e-13
-2.28104e-12
-1.51388e-12
-7.82589e-13
-4.45615e-13
-2.3546e-13
-2.47187e-13
-2.09917e-13
-1.25153e-13
-1.23181e-13
-1.10875e-13
-3.12156e-14
3.8192e-14
1.63147e-14
1.17714e-13
-8.44256e-13
-2.21621e-12
-1.5551e-12
-8.25089e-13
-4.65899e-13
-2.06397e-13
-2.42155e-13
-2.20177e-13
-8.42572e-14
-1.21322e-13
-1.20742e-13
3.21868e-14
4.48464e-14
1.2688e-13
1.65542e-13
-7.80363e-13
-2.15343e-12
-1.58701e-12
-8.58361e-13
-4.82801e-13
-2.04086e-13
-2.40035e-13
-2.40721e-13
-8.08743e-14
-1.14748e-13
-1.18846e-13
5.23475e-14
4.32905e-14
1.38133e-13
1.525e-13
-7.31157e-13
-2.10304e-12
-1.60975e-12
-8.73755e-13
-4.93778e-13
-2.13312e-13
-2.35002e-13
-2.57916e-13
-7.96975e-14
-1.11685e-13
-1.2011e-13
5.80278e-14
4.49173e-14
1.1989e-13
1.2978e-13
-7.29182e-13
-2.03052e-12
-1.60284e-12
-8.85121e-13
-4.92418e-13
-2.25921e-13
-2.40059e-13
-2.4795e-13
-9.18871e-14
-1.16988e-13
-1.02167e-13
4.61793e-14
4.5245e-14
1.19828e-13
7.05523e-14
1.77196e-14
-5.84372e-13
2.26301e-13
1.23226e-13
-1.51673e-13
1.90796e-13
6.3603e-14
-6.95963e-14
1.01391e-13
2.70456e-14
-5.69658e-14
3.02316e-14
7.04289e-15
-8.19015e-15
-7.24335e-16
2.11832e-12
2.26274e-12
4.86981e-14
6.05354e-13
2.78044e-13
-2.65545e-14
2.86414e-13
1.37922e-13
-8.15163e-15
1.34031e-13
5.15042e-14
-4.47812e-14
2.60173e-14
4.40747e-15
-1.06699e-17
2.28833e-12
2.40141e-12
2.40488e-13
6.49578e-13
2.52441e-13
1.06863e-13
2.93793e-13
1.09268e-13
9.02618e-14
1.08188e-13
1.65258e-14
1.38925e-14
1.75552e-14
-9.44571e-15
-4.34266e-15
2.53328e-12
2.34246e-12
3.48513e-13
8.41123e-13
2.7033e-13
2.18246e-13
4.11826e-13
1.07845e-13
1.5418e-13
1.80247e-13
1.23582e-14
5.35865e-14
7.09197e-14
-3.63752e-14
-6.75518e-14
2.34759e-12
2.37638e-12
4.72818e-13
7.78646e-13
2.8013e-13
2.28576e-13
3.7759e-13
1.14487e-13
1.50518e-13
1.61471e-13
2.27617e-14
2.62452e-14
4.96295e-14
-1.47497e-14
-7.77219e-14
2.05561e-12
2.39358e-12
6.61637e-13
6.87512e-13
2.88771e-13
1.82258e-13
3.24022e-13
1.10348e-13
1.14756e-13
1.51139e-13
1.46082e-14
-7.8915e-15
2.23133e-14
-2.83503e-14
-3.55485e-14
1.84722e-12
2.45194e-12
9.12046e-13
6.70288e-13
3.40529e-13
2.17078e-13
2.99782e-13
1.46348e-13
1.49483e-13
1.62138e-13
5.27113e-14
5.09575e-14
1.65209e-14
4.66935e-14
1.44605e-13
1.62208e-12
2.4561e-12
1.12937e-12
6.7969e-13
3.7826e-13
2.51622e-13
2.8796e-13
1.84499e-13
1.86006e-13
1.61944e-13
9.71145e-14
1.2671e-13
2.13285e-14
-1.57631e-15
2.33843e-13
1.36889e-12
2.42133e-12
1.29302e-12
7.10255e-13
4.06413e-13
2.46421e-13
2.94064e-13
1.99524e-13
1.6362e-13
1.77241e-13
1.09692e-13
9.02288e-14
3.10904e-14
-4.67894e-15
5.09107e-14
1.17383e-12
2.35796e-12
1.41801e-12
7.545e-13
4.29023e-13
2.3766e-13
2.81669e-13
2.07534e-13
1.40851e-13
1.66035e-13
1.09007e-13
5.13623e-14
2.8345e-14
9.32947e-15
-8.27101e-14
9.80213e-13
2.28104e-12
1.51388e-12
7.82589e-13
4.45615e-13
2.3546e-13
2.47187e-13
2.09917e-13
1.25153e-13
1.23181e-13
1.10875e-13
3.12156e-14
-3.8192e-14
-1.63147e-14
-1.17714e-13
8.44256e-13
2.21621e-12
1.5551e-12
8.25089e-13
4.65899e-13
2.06397e-13
2.42155e-13
2.20177e-13
8.42572e-14
1.21322e-13
1.20742e-13
-3.21868e-14
-4.48464e-14
-1.2688e-13
-1.65542e-13
7.80363e-13
2.15343e-12
1.58701e-12
8.58361e-13
4.82801e-13
2.04086e-13
2.40035e-13
2.40721e-13
8.08743e-14
1.14748e-13
1.18846e-13
-5.23475e-14
-4.32905e-14
-1.38133e-13
-1.525e-13
7.31157e-13
2.10304e-12
1.60975e-12
8.73755e-13
4.93778e-13
2.13312e-13
2.35002e-13
2.57916e-13
7.96975e-14
1.11685e-13
1.2011e-13
-5.80278e-14
-4.49173e-14
-1.1989e-13
-1.2978e-13
7.29182e-13
2.03052e-12
1.60284e-12
8.85121e-13
4.92418e-13
2.25921e-13
2.40059e-13
2.4795e-13
9.18871e-14
1.16988e-13
1.02167e-13
-4.61793e-14
-4.5245e-14
-1.19828e-13
-7.05523e-14
)
;
    }
    inlet
    {
        type            calculated;
        value           nonuniform List<scalar> 
15
(
-1299.9
-1300.2
-1299.9
-1299.9
-1300.2
-1299.9
-1299.9
-1300.2
-1299.9
-1299.9
-1300.2
-1299.9
-1299.9
-1300.2
-1299.9
)
;
    }
    inletWalls
    {
        type            calculated;
        value           uniform 0;
    }
    outletInlet
    {
        type            calculated;
        value           nonuniform List<scalar> 
15
(
198.262
527.484
785.426
982.034
1128.56
1250.01
1367.14
1486.59
1606.75
1731.81
1879.01
2054.91
2138.08
1729.91
634.15
)
;
    }
}


// ************************************************************************* //
