/*--------------------------------*- C++ -*----------------------------------*\
| =========                 |                                                 |
| \\      /  F ield         | OpenFOAM: The Open Source CFD Toolbox           |
|  \\    /   O peration     | Version:  4.1                                   |
|   \\  /    A nd           | Web:      www.OpenFOAM.org                      |
|    \\/     M anipulation  |                                                 |
\*---------------------------------------------------------------------------*/
FoamFile
{
    version     2.0;
    format      ascii;
    class       volVectorField;
    location    "18";
    object      U;
}
// * * * * * * * * * * * * * * * * * * * * * * * * * * * * * * * * * * * * * //

dimensions      [0 1 -1 0 0 0 0];

internalField   nonuniform List<vector> 
225
(
(1.11538e-14 0.852193 15.7946)
(9.23799e-15 -4.89458 12.1215)
(-2.24325e-15 -4.19551 12.1321)
(4.29262e-15 -3.60118 11.9966)
(5.53526e-16 -3.00468 11.8778)
(-2.12034e-16 -2.55319 11.6992)
(1.93658e-15 -2.20881 11.4769)
(2.62715e-16 -1.96603 11.2116)
(-5.3697e-17 -1.79856 10.916)
(9.704e-16 -1.71238 10.5882)
(2.16659e-17 -1.83746 10.1561)
(-2.48439e-16 -2.28568 9.53762)
(3.15326e-16 -2.51302 8.96378)
(-5.66989e-17 -1.06553 8.91356)
(-5.01444e-18 1.76574 7.47091)
(1.53543e-14 -5.35014 22.493)
(1.56663e-14 -14.6049 21.394)
(3.37127e-16 -13.2708 20.3412)
(4.56441e-15 -11.7697 19.5066)
(1.92506e-15 -11.1561 18.5044)
(-1.83832e-16 -10.6594 17.5174)
(2.09355e-15 -10.0901 16.5714)
(9.54915e-16 -9.525 15.6236)
(-5.64321e-17 -8.96544 14.6638)
(8.9516e-16 -8.36731 13.6946)
(3.56594e-16 -7.75709 12.7179)
(-3.10011e-16 -7.30335 11.7194)
(1.78716e-16 -7.01706 10.6244)
(3.05155e-17 -5.73096 9.16117)
(-7.38652e-20 -2.30501 4.58321)
(1.74783e-14 -7.71562 23.9801)
(1.66245e-14 -16.7731 24.6729)
(1.66505e-15 -13.7365 23.9372)
(6.01625e-15 -12.3062 22.6249)
(2.12686e-15 -11.6447 21.2414)
(7.39879e-16 -10.814 20.0013)
(3.17387e-15 -9.94025 18.7738)
(7.56441e-16 -9.10011 17.5247)
(6.24938e-16 -8.28338 16.2654)
(1.53812e-15 -7.47524 15.0263)
(1.14405e-16 -6.66762 13.8176)
(9.61863e-17 -5.84165 12.4301)
(4.84023e-16 -4.81389 10.2752)
(-6.53909e-17 -3.12625 6.68441)
(-3.00669e-17 -0.83211 1.68988)
(1.75304e-14 -8.50255 22.0462)
(1.62166e-14 -16.6211 24.332)
(2.41271e-15 -12.93 23.7971)
(5.82366e-15 -12.1536 21.9985)
(1.80025e-15 -11.4201 20.5028)
(1.55953e-15 -10.4936 19.1722)
(2.85135e-15 -9.63388 17.8167)
(6.67607e-16 -8.82359 16.459)
(1.09522e-15 -8.05363 15.123)
(1.23307e-15 -7.32378 13.8165)
(7.74225e-17 -6.55248 12.4394)
(3.52257e-16 -5.49089 10.583)
(4.66199e-16 -3.78525 7.50868)
(-5.91988e-17 -1.49363 2.76599)
(-7.82531e-16 0.153296 -1.77303)
(1.60404e-14 -8.47609 19.748)
(1.61071e-14 -16.3601 24.312)
(3.0949e-15 -13.099 23.6602)
(5.1958e-15 -12.628 21.5365)
(1.62842e-15 -11.8565 20.0248)
(1.36259e-15 -10.9574 18.6637)
(2.4971e-15 -10.1698 17.2587)
(5.43978e-16 -9.40278 15.8711)
(9.09668e-16 -8.65259 14.5236)
(1.04733e-15 -7.93052 13.2136)
(-6.96568e-17 -7.1659 11.8292)
(9.70336e-17 -6.11617 9.99631)
(2.37244e-16 -4.42405 7.15559)
(-4.60291e-16 -2.30531 3.28793)
(-9.04223e-16 -0.7872 0.317737)
(1.44548e-14 -8.02185 17.5536)
(1.66123e-14 -16.0195 24.5277)
(4.708e-15 -13.6434 24.0462)
(4.75956e-15 -12.9943 21.7651)
(2.04826e-15 -12.1264 20.2158)
(1.41796e-15 -11.2247 18.847)
(2.24316e-15 -10.439 17.4341)
(8.23215e-16 -9.64889 16.0434)
(9.85801e-16 -8.86036 14.6933)
(1.11523e-15 -8.09326 13.3818)
(1.76609e-16 -7.29732 12.0171)
(2.04127e-16 -6.28461 10.2818)
(4.42686e-17 -4.73303 7.72093)
(1.61345e-16 -2.75612 4.37243)
(7.61824e-16 -0.949336 1.29727)
(1.29223e-14 -7.33733 15.2534)
(1.69745e-14 -15.491 24.3551)
(6.39855e-15 -14.0225 24.4218)
(4.64086e-15 -13.1278 22.0675)
(2.40775e-15 -12.1448 20.4401)
(1.61052e-15 -11.2358 19.0547)
(2.07559e-15 -10.4361 17.6437)
(1.13865e-15 -9.61982 16.2576)
(1.23954e-15 -8.81014 14.9066)
(1.12259e-15 -8.02721 13.5918)
(5.29793e-16 -7.22392 12.2368)
(7.31767e-16 -6.24023 10.5488)
(1.14385e-16 -4.78746 8.10741)
(-5.15782e-17 -2.91401 4.94699)
(2.2735e-15 -1.01077 1.79725)
(1.10442e-14 -6.5561 13.0327)
(1.70047e-14 -14.847 23.8163)
(7.77612e-15 -14.2638 24.6691)
(4.6588e-15 -13.2372 22.3215)
(2.61887e-15 -12.1674 20.5832)
(1.63352e-15 -11.2657 19.1667)
(2.05186e-15 -10.4651 17.7586)
(1.27738e-15 -9.64313 16.3766)
(1.15005e-15 -8.83492 15.0245)
(1.1963e-15 -8.05527 13.7073)
(6.72369e-16 -7.25496 12.3576)
(6.86919e-16 -6.28683 10.6995)
(1.4765e-16 -4.89092 8.33084)
(-1.09135e-17 -3.08513 5.26753)
(1.12221e-15 -1.12214 2.04383)
(9.47668e-15 -5.77818 11.1235)
(1.67626e-14 -14.1745 23.0905)
(8.82661e-15 -14.4413 24.8463)
(4.91701e-15 -13.3963 22.6148)
(2.81355e-15 -12.2528 20.7554)
(1.54483e-15 -11.3493 19.2955)
(2.03577e-15 -10.5477 17.8904)
(1.38128e-15 -9.72546 16.511)
(9.28948e-16 -8.91946 15.1562)
(1.22702e-15 -8.14025 13.8352)
(7.59385e-16 -7.33998 12.4864)
(3.44132e-16 -6.38017 10.8513)
(2.15235e-16 -5.02354 8.54677)
(-3.23917e-17 -3.26582 5.55838)
(-5.84293e-16 -1.23755 2.24767)
(7.92742e-15 -5.08477 9.59893)
(1.63239e-14 -13.5191 22.3)
(9.77455e-15 -14.535 24.9523)
(5.13246e-15 -13.5531 22.9353)
(2.97008e-15 -12.3448 20.9699)
(1.59145e-15 -11.425 19.4566)
(1.83427e-15 -10.6174 18.0506)
(1.43674e-15 -9.79449 16.6721)
(9.07022e-16 -8.98831 15.3136)
(9.26395e-16 -8.20628 13.9874)
(7.54645e-16 -7.4048 12.6357)
(2.61963e-16 -6.45157 11.0134)
(-1.51692e-16 -5.12535 8.75526)
(6.45868e-17 -3.40662 5.81964)
(-8.72788e-16 -1.31905 2.4309)
(6.57943e-15 -4.53846 8.4618)
(1.58422e-14 -12.9255 21.5502)
(1.03517e-14 -14.5349 24.9758)
(5.4176e-15 -13.6654 23.221)
(3.13555e-15 -12.4128 21.1811)
(1.41262e-15 -11.4735 19.612)
(1.7112e-15 -10.659 18.2003)
(1.51663e-15 -9.83693 16.8208)
(5.91358e-16 -9.03204 15.4585)
(8.5274e-16 -8.24857 14.1269)
(8.50581e-16 -7.4465 12.7691)
(-1.61675e-16 -6.49776 11.1498)
(-2.6439e-16 -5.19262 8.91848)
(-6.1254e-16 -3.50184 6.01049)
(-1.37346e-15 -1.36369 2.54236)
(5.84468e-15 -4.17016 7.70223)
(1.53685e-14 -12.4377 20.9276)
(1.07233e-14 -14.4733 24.9366)
(5.71199e-15 -13.7315 23.4378)
(3.25077e-15 -12.4592 21.3593)
(1.34657e-15 -11.5039 19.7404)
(1.67641e-15 -10.6832 18.3206)
(1.62018e-15 -9.86348 16.939)
(5.13886e-16 -9.06108 15.5728)
(8.39896e-16 -8.27754 14.2363)
(8.35884e-16 -7.47483 12.8708)
(-3.65748e-16 -6.52674 11.2464)
(-2.51974e-16 -5.23295 9.02632)
(-9.61383e-16 -3.55786 6.12593)
(-1.338e-15 -1.37717 2.5724)
(5.30373e-15 -3.97318 7.27934)
(1.4881e-14 -12.0682 20.4611)
(1.1009e-14 -14.3843 24.8627)
(5.89617e-15 -13.7599 23.5828)
(3.34238e-15 -12.4875 21.4969)
(1.41286e-15 -11.5229 19.8406)
(1.63202e-15 -10.6965 18.412)
(1.76332e-15 -9.87987 17.0278)
(5.2484e-16 -9.08042 15.6583)
(7.94478e-16 -8.29706 14.3168)
(8.64925e-16 -7.49297 12.9419)
(-4.10344e-16 -6.54191 11.3058)
(-2.99729e-16 -5.25067 9.08394)
(-8.73764e-16 -3.57852 6.175)
(-1.20374e-15 -1.36496 2.53848)
(5.01435e-15 -3.90362 7.11021)
(1.45465e-14 -11.8313 20.1817)
(1.11211e-14 -14.2998 24.7901)
(6.0369e-15 -13.7668 23.6686)
(3.40572e-15 -12.5019 21.5899)
(1.47669e-15 -11.532 19.9096)
(1.64192e-15 -10.7004 18.4747)
(1.76939e-15 -9.88549 17.0884)
(5.51719e-16 -9.08791 15.7173)
(7.92377e-16 -8.30401 14.373)
(8.10525e-16 -7.49773 12.9906)
(-4.01707e-16 -6.543 11.3433)
(-2.81919e-16 -5.2532 9.11701)
(-8.7091e-16 -3.58349 6.20136)
(-8.98423e-16 -1.35002 2.50628)
(5.03323e-15 -4.03914 7.28627)
(1.40501e-14 -11.6269 19.952)
(1.11033e-14 -14.1917 24.6681)
(6.12758e-15 -13.7464 23.7083)
(3.40243e-15 -12.5066 21.6738)
(1.57123e-15 -11.5393 19.9774)
(1.6619e-15 -10.6995 18.5351)
(1.70844e-15 -9.88701 17.1439)
(6.44927e-16 -9.0906 15.7696)
(8.09897e-16 -8.30507 14.4185)
(7.02098e-16 -7.49003 13.0149)
(-3.13844e-16 -6.51542 11.3283)
(-3.13226e-16 -5.20605 9.06136)
(-8.39732e-16 -3.50165 6.08283)
(-4.69354e-16 -1.25244 2.30721)
)
;

boundaryField
{
    inletFace
    {
        type            zeroGradient;
    }
    inlet
    {
        type            fixedValue;
        value           uniform (0 8.7 15);
    }
    inletWalls
    {
        type            noSlip;
    }
    outletInlet
    {
        type            zeroGradient;
    }
}


// ************************************************************************* //
