/*--------------------------------*- C++ -*----------------------------------*\
| =========                 |                                                 |
| \\      /  F ield         | OpenFOAM: The Open Source CFD Toolbox           |
|  \\    /   O peration     | Version:  4.1                                   |
|   \\  /    A nd           | Web:      www.OpenFOAM.org                      |
|    \\/     M anipulation  |                                                 |
\*---------------------------------------------------------------------------*/
FoamFile
{
    version     2.0;
    format      ascii;
    class       volScalarField;
    location    "8";
    object      p;
}
// * * * * * * * * * * * * * * * * * * * * * * * * * * * * * * * * * * * * * //

dimensions      [0 2 -2 0 0 0 0];

internalField   nonuniform List<scalar> 
225
(
3.17852e+09
3.52821e+09
3.83976e+09
3.68638e+09
3.39773e+09
3.35224e+09
3.45802e+09
3.48412e+09
3.38968e+09
3.22536e+09
2.99403e+09
2.72133e+09
2.54138e+09
2.57454e+09
2.64869e+09
2.39559e+09
1.96417e+09
1.77463e+09
1.84329e+09
2.09016e+09
2.58687e+09
2.63495e+09
2.32609e+09
2.13231e+09
2.16193e+09
2.23652e+09
2.24104e+09
2.11337e+09
1.80642e+09
1.7014e+09
3.0467e+09
2.7371e+09
2.63598e+09
2.54457e+09
2.15771e+09
1.66459e+09
1.47475e+09
1.38875e+09
1.01644e+09
5.45416e+08
-173792
-4.90973e+08
-1.90753e+08
3.67374e+08
8.82018e+08
3.38722e+09
2.91154e+09
2.38889e+09
1.62997e+09
8.38575e+08
2.5823e+08
1.45764e+07
6.37766e+07
4.06676e+08
7.66897e+08
9.43709e+08
1.11395e+09
1.34933e+09
1.59837e+09
2.013e+09
3.26951e+09
2.69196e+09
2.137e+09
1.57725e+09
9.85277e+08
5.27677e+08
2.22584e+08
-2.21789e+08
-4.59791e+08
-2.09532e+08
2.20624e+08
6.32862e+08
1.10036e+09
1.23506e+09
1.64394e+09
8.88016e+08
7.40109e+08
7.7316e+08
8.42443e+08
7.76684e+08
6.13771e+08
6.60671e+08
9.74715e+08
1.34249e+09
1.78574e+09
2.14716e+09
2.20248e+09
2.31411e+09
2.30093e+09
2.01837e+09
2.06353e+09
1.96333e+09
1.72383e+09
1.51213e+09
1.54953e+09
1.52156e+09
1.30368e+09
1.25377e+09
1.38924e+09
1.55094e+09
1.79566e+09
2.1587e+09
2.49974e+09
2.6466e+09
2.42151e+09
2.68167e+09
2.60646e+09
2.4043e+09
2.18217e+09
2.03958e+09
1.97948e+09
1.90407e+09
1.68345e+09
1.38288e+09
1.15038e+09
8.93048e+08
6.59735e+08
5.88392e+08
4.9906e+08
3.63316e+08
1.51131e+09
1.33852e+09
1.08229e+09
8.77415e+08
7.20833e+08
5.04748e+08
2.86254e+08
9.97778e+07
-2.26567e+07
-8.98099e+07
-1.28865e+08
-1.72576e+08
-2.10743e+08
-2.7995e+08
-3.51418e+08
7.25945e+07
-1.56411e+07
-1.26334e+08
-2.92481e+08
-4.59695e+08
-5.66178e+08
-6.26137e+08
-6.77322e+08
-7.15533e+08
-7.27122e+08
-7.13563e+08
-6.80209e+08
-5.91284e+08
-5.13977e+08
-4.41085e+08
-7.31485e+08
-7.25382e+08
-6.70518e+08
-6.1856e+08
-5.90618e+08
-5.76788e+08
-5.76329e+08
-6.01274e+08
-6.41922e+08
-7.08991e+08
-7.26802e+08
-6.69467e+08
-6.06275e+08
-6.25115e+08
-6.10512e+08
-7.00481e+08
-7.21872e+08
-7.09113e+08
-6.92054e+08
-6.87761e+08
-6.78196e+08
-6.57821e+08
-6.46592e+08
-6.46664e+08
-6.59415e+08
-6.44695e+08
-6.16807e+08
-6.23311e+08
-7.22923e+08
-7.38476e+08
-6.61499e+08
-6.57197e+08
-6.22452e+08
-6.14593e+08
-6.26607e+08
-6.19668e+08
-6.06926e+08
-6.06967e+08
-6.16057e+08
-6.30127e+08
-6.22946e+08
-5.96695e+08
-5.83505e+08
-6.55054e+08
-5.65993e+08
-5.24915e+08
-4.87566e+08
-5.358e+08
-5.9126e+08
-5.88942e+08
-5.55454e+08
-5.33523e+08
-5.16009e+08
-4.91455e+08
-4.5648e+08
-4.24257e+08
-3.84916e+08
-3.3267e+08
-3.79347e+08
-2.51184e+08
-4.34206e+08
-4.12119e+08
-4.14882e+08
-3.19174e+08
-2.10913e+08
-1.55061e+08
-1.25675e+08
-7.73264e+07
-6.62012e+07
-7.10755e+07
-5.20268e+07
-2.90482e+07
3.45578e+07
-6.01174e+07
6.42657e+06
)
;

boundaryField
{
    inletFace
    {
        type            zeroGradient;
    }
    inlet
    {
        type            zeroGradient;
    }
    inletWalls
    {
        type            zeroGradient;
    }
    outletInlet
    {
        type            fixedValue;
        value           uniform 0;
    }
}


// ************************************************************************* //
