/*--------------------------------*- C++ -*----------------------------------*\
| =========                 |                                                 |
| \\      /  F ield         | OpenFOAM: The Open Source CFD Toolbox           |
|  \\    /   O peration     | Version:  4.1                                   |
|   \\  /    A nd           | Web:      www.OpenFOAM.org                      |
|    \\/     M anipulation  |                                                 |
\*---------------------------------------------------------------------------*/
FoamFile
{
    version     2.0;
    format      ascii;
    class       surfaceScalarField;
    location    "8";
    object      phi;
}
// * * * * * * * * * * * * * * * * * * * * * * * * * * * * * * * * * * * * * //

dimensions      [0 3 -1 0 0 0 0];

internalField   nonuniform List<scalar> 
420
(
7.49669e+06
-7.49499e+06
5.44736e+06
2.05106e+06
8.92386e+06
-3.47465e+06
1.01297e+07
-1.20402e+06
1.35458e+07
-3.4143e+06
1.42043e+07
-656764
1.38151e+07
390942
1.26226e+07
1.1941e+06
1.21625e+07
461819
1.5144e+07
-2.97981e+06
1.84527e+07
-3.30712e+06
1.34726e+07
4.98171e+06
1.11721e+07
2.30226e+06
2.94923e+06
8.22476e+06
2.95053e+06
-2.46416e+06
-5.03054e+06
1.02946e+06
-1.44224e+06
164320
-2.60915e+06
1.8077e+06
-2.84699e+06
4.26475e+06
-5.871e+06
4.48453e+06
-876233
962125
3.91357e+06
-2.07262e+06
4.2291e+06
-4.2469e+06
2.63643e+06
-9.88428e+06
2.65792e+06
-1.72609e+07
4.06975e+06
-2.2541e+07
1.02619e+07
-2.2657e+07
2.41831e+06
-2.25038e+07
8.0717e+06
-1.95532e+07
-1.17769e+07
6.7465e+06
-1.53702e+07
2.15114e+06
-2.16037e+07
3.6245e+06
-2.91331e+07
4.68247e+06
-4.09953e+07
5.9913e+06
-4.94978e+07
7.6263e+06
-5.2149e+07
6.56479e+06
-5.16924e+07
3.77254e+06
-5.22765e+07
3.22065e+06
-5.08513e+07
1.2329e+06
-4.64287e+07
-352699
-3.72227e+07
1.05656e+06
-3.07795e+07
-4.02368e+06
-2.09731e+07
-1.73108e+06
-4.05263e+07
-1.86855e+06
8.61519e+06
-265025
547753
240555
3.11901e+06
-567289
5.49038e+06
-1.95365e+06
7.37771e+06
295605
5.37712e+06
8.66414e+06
-1.80364e+06
1.53367e+07
-2.89984e+06
2.04388e+07
-1.88132e+06
2.45279e+07
-2.85604e+06
2.60564e+07
-1.881e+06
2.6341e+07
771754
2.21472e+07
169770
2.24324e+07
-2.01681e+06
-1.80939e+07
4.03701e+06
4.5782e+06
4.44439e+06
140393
5.58669e+06
1.97674e+06
7.10355e+06
3.97352e+06
9.32896e+06
5.15231e+06
1.29149e+07
1.79113e+06
1.48307e+07
-3.71942e+06
1.29425e+07
-1.01177e+06
1.19507e+07
-889486
1.01597e+07
-1.06514e+06
8.62066e+06
-342146
8.39092e+06
1.00172e+06
8.19379e+06
366930
8.14028e+06
-1.96324e+06
-9.95363e+06
7.15459e+06
-2.57634e+06
5.92633e+06
1.36871e+06
5.86609e+06
2.03701e+06
7.74228e+06
2.09736e+06
1.06457e+07
2.24891e+06
1.01237e+07
2.31317e+06
4.27918e+06
2.12502e+06
1.66713e+06
1.60027e+06
-458063
1.23565e+06
-2.40692e+06
883582
-2.51134e+06
-237764
160051
-1.67033e+06
2.5027e+06
-1.97658e+06
3.74742e+06
-3.20929e+06
-6.20621e+06
5.7918e+06
-8.36812e+06
9.06946e+06
-1.90895e+06
1.15874e+07
-480933
1.36736e+07
11120.6
1.5108e+07
814568
1.60961e+07
1.325e+06
1.65621e+07
1.65902e+06
1.59761e+07
2.18621e+06
1.41323e+07
3.07939e+06
1.18892e+07
3.12674e+06
1.01385e+07
1.51271e+06
7.10104e+06
1.36771e+06
3.86405e+06
1.26069e+06
2.63525e+06
-1.98026e+06
-3.57097e+06
-1.38715e+07
5.50343e+06
-2.0833e+07
5.05258e+06
-2.5007e+07
3.69313e+06
-2.78206e+07
2.82468e+06
-2.9652e+07
2.64598e+06
-3.03086e+07
1.98159e+06
-3.00272e+07
1.3776e+06
-2.87258e+07
884805
-2.62874e+07
641011
-2.27168e+07
-443998
-1.84764e+07
-2.72761e+06
-1.28479e+07
-4.26119e+06
-6.91614e+06
-4.67162e+06
-3.11498e+06
-5.78233e+06
-6.68594e+06
-3.57782e+06
9.08121e+06
-6.09601e+06
7.57073e+06
-7.8859e+06
5.48298e+06
-8.53156e+06
3.47033e+06
-8.2233e+06
2.33773e+06
-7.18899e+06
947270
-5.89959e+06
88229.5
-4.9165e+06
-98294.6
-3.30741e+06
-968049
-1.03331e+06
-2.71806e+06
324934
-4.08583e+06
1.91518e+06
-5.85125e+06
4.51882e+06
-7.27503e+06
4.54518e+06
-5.80827e+06
-2.14077e+06
1.0011e+06
8.07998e+06
1.36095e+06
7.21076e+06
1.76056e+06
5.08324e+06
1.99006e+06
3.24074e+06
2.00101e+06
2.32666e+06
1.81372e+06
1.1345e+06
1.18115e+06
720737
360389
722420
-1.14879e+06
541090
-2.67948e+06
-1.18751e+06
-5.55415e+06
-1.21116e+06
-7.67717e+06
-3.7285e+06
-7.7962e+06
-7.15621e+06
-4.07441e+06
-9.53037e+06
-6.21518e+06
2.11909e+06
5.96067e+06
2.97322e+06
6.35641e+06
3.56664e+06
4.4896e+06
3.73691e+06
3.07025e+06
3.80355e+06
2.25974e+06
3.55071e+06
1.38703e+06
3.1769e+06
1.09419e+06
3.20416e+06
694684
3.22119e+06
523449
1.92524e+06
107884
284415
429295
-614676
-2.82948e+06
-1.74246e+06
-6.02849e+06
-1.75688e+06
-9.51602e+06
-7.97206e+06
1.55787e+06
4.40259e+06
1.50891e+06
6.40521e+06
702724
5.29561e+06
347355
3.42542e+06
349605
2.25729e+06
31778
1.70468e+06
-328939
1.45473e+06
-787523
1.15309e+06
-716897
452567
-573365
-35947.7
-1.16877e+06
1.02451e+06
-486302
-3.51221e+06
-326967
-6.18799e+06
-408455
-9.43468e+06
-8.38052e+06
3.30254e+06
1.09983e+06
4.54781e+06
5.15981e+06
4.40343e+06
5.43983e+06
3.61573e+06
4.21293e+06
2.91188e+06
2.96087e+06
2.48103e+06
2.13525e+06
2.18323e+06
1.75222e+06
1.78897e+06
1.54698e+06
1.188e+06
1.05278e+06
254169
897271
140264
1.13819e+06
329061
-3.70108e+06
169304
-6.0283e+06
150290
-9.41573e+06
-8.23023e+06
542136
557525
3.77411e+06
1.9278e+06
5.66653e+06
3.54736e+06
5.79622e+06
4.08322e+06
4.83214e+06
3.92491e+06
3.53782e+06
3.42954e+06
2.39077e+06
2.89923e+06
1.49034e+06
2.44737e+06
560827
1.98226e+06
308084
1.14998e+06
1144.53
1.44513e+06
690026
-4.39002e+06
366563
-5.70487e+06
244637
-9.29382e+06
-7.98559e+06
3.51975e+06
6.31221e+06
7.11513e+06
7.33355e+06
6.70219e+06
5.49591e+06
4.1703e+06
2.91689e+06
1.69044e+06
913439
-518554
44120.8
-86058.9
-90815.1
)
;

boundaryField
{
    inletFace
    {
        type            calculated;
        value           nonuniform List<scalar> 
450
(
-6.01768e-06
-1.07154e-05
-9.77923e-06
-1.05074e-05
-9.95924e-06
-4.38468e-06
-3.59567e-06
-7.95779e-06
-8.21431e-06
-8.2709e-06
-7.94165e-06
-8.82762e-06
-1.08165e-05
-1.00385e-05
-6.1414e-06
-8.94171e-06
-1.41127e-05
-1.1804e-05
-1.11503e-05
-1.02836e-05
-8.49589e-06
-7.22989e-06
-7.27197e-06
-7.68932e-06
-8.115e-06
-8.38388e-06
-1.05287e-05
-1.23779e-05
-1.09436e-05
-4.31236e-06
-1.16117e-05
-1.15752e-05
-1.16837e-05
-1.14192e-05
-1.12241e-05
-1.12455e-05
-1.12661e-05
-1.11938e-05
-1.11909e-05
-1.12844e-05
-1.17375e-05
-1.20346e-05
-1.12659e-05
-1.13251e-05
-6.75208e-06
-1.16262e-05
-1.13347e-05
-1.13149e-05
-1.12087e-05
-1.10966e-05
-1.11933e-05
-1.12779e-05
-1.11428e-05
-1.09867e-05
-1.09225e-05
-1.09258e-05
-1.07835e-05
-1.06942e-05
-1.15327e-05
-9.0659e-06
-1.27285e-05
-1.27615e-05
-1.19129e-05
-1.16298e-05
-1.14652e-05
-1.13512e-05
-1.1433e-05
-1.08847e-05
-1.05845e-05
-1.0581e-05
-1.06887e-05
-1.08194e-05
-1.09782e-05
-1.15106e-05
-9.69968e-06
-8.75161e-06
-1.19382e-05
-1.23582e-05
-1.20844e-05
-1.16852e-05
-1.15443e-05
-1.13397e-05
-1.10219e-05
-1.07666e-05
-1.06308e-05
-1.06725e-05
-1.08619e-05
-1.10625e-05
-1.22401e-05
-1.07491e-05
-4.43724e-06
-1.04137e-05
-1.05329e-05
-1.07225e-05
-1.06728e-05
-1.05694e-05
-1.05008e-05
-1.04469e-05
-1.04518e-05
-1.04866e-05
-1.07249e-05
-1.23103e-05
-1.22169e-05
-1.06261e-05
-8.28263e-06
-1.09269e-05
-1.06923e-05
-1.09317e-05
-1.0898e-05
-1.09061e-05
-1.09213e-05
-1.08637e-05
-1.07802e-05
-1.07081e-05
-1.06699e-05
-1.04193e-05
-9.44188e-06
-7.82329e-06
-6.03443e-06
-7.80572e-06
-1.12004e-05
-1.1256e-05
-1.19865e-05
-1.28249e-05
-1.37817e-05
-1.46093e-05
-1.46741e-05
-1.43208e-05
-1.40486e-05
-1.38557e-05
-1.34596e-05
-1.199e-05
-9.10448e-06
-5.1302e-06
-2.54816e-06
-1.07465e-05
-1.14643e-05
-1.18877e-05
-1.25972e-05
-1.39541e-05
-1.49671e-05
-1.52689e-05
-1.52694e-05
-1.54499e-05
-1.58883e-05
-1.6072e-05
-1.59973e-05
-1.45374e-05
-9.51753e-06
-2.62138e-06
-1.06708e-05
-1.22973e-05
-1.18501e-05
-1.2782e-05
-1.40207e-05
-1.46729e-05
-1.49011e-05
-1.51367e-05
-1.52392e-05
-1.54891e-05
-1.47745e-05
-1.47614e-05
-1.64992e-05
-1.24919e-05
-5.00698e-06
-8.98937e-06
-1.28732e-05
-1.25247e-05
-1.2712e-05
-1.36855e-05
-1.43613e-05
-1.46621e-05
-1.48287e-05
-1.49079e-05
-1.49414e-05
-1.48986e-05
-1.50328e-05
-1.64089e-05
-1.28307e-05
-5.60564e-06
-6.75492e-06
-1.19119e-05
-1.27622e-05
-1.26523e-05
-1.33485e-05
-1.41194e-05
-1.45034e-05
-1.47092e-05
-1.46362e-05
-1.41308e-05
-1.43917e-05
-1.53547e-05
-1.64086e-05
-1.23872e-05
-5.5152e-06
-2.60358e-06
-8.87345e-06
-1.2067e-05
-1.28727e-05
-1.31769e-05
-1.33869e-05
-1.36403e-05
-1.39012e-05
-1.40812e-05
-1.41471e-05
-1.38803e-05
-1.55516e-05
-1.64426e-05
-1.21986e-05
-5.35277e-06
-5.25979e-07
-3.33566e-06
-6.82683e-06
-9.24433e-06
-1.06832e-05
-1.14887e-05
-1.19989e-05
-1.23724e-05
-1.26852e-05
-1.29602e-05
-1.35011e-05
-1.59375e-05
-1.64353e-05
-1.21877e-05
-5.31683e-06
6.01768e-06
1.07154e-05
9.77923e-06
1.05074e-05
9.95924e-06
4.38468e-06
3.59567e-06
7.95779e-06
8.21431e-06
8.2709e-06
7.94165e-06
8.82762e-06
1.08165e-05
1.00385e-05
6.1414e-06
8.94171e-06
1.41127e-05
1.1804e-05
1.11503e-05
1.02836e-05
8.49589e-06
7.22989e-06
7.27197e-06
7.68932e-06
8.115e-06
8.38388e-06
1.05287e-05
1.23779e-05
1.09436e-05
4.31236e-06
1.16117e-05
1.15752e-05
1.16837e-05
1.14192e-05
1.12241e-05
1.12455e-05
1.12661e-05
1.11938e-05
1.11909e-05
1.12844e-05
1.17375e-05
1.20346e-05
1.12659e-05
1.13251e-05
6.75208e-06
1.16262e-05
1.13347e-05
1.13149e-05
1.12087e-05
1.10966e-05
1.11933e-05
1.12779e-05
1.11428e-05
1.09867e-05
1.09225e-05
1.09258e-05
1.07835e-05
1.06942e-05
1.15327e-05
9.0659e-06
1.27285e-05
1.27615e-05
1.19129e-05
1.16298e-05
1.14652e-05
1.13512e-05
1.1433e-05
1.08847e-05
1.05845e-05
1.0581e-05
1.06887e-05
1.08194e-05
1.09782e-05
1.15106e-05
9.69968e-06
8.75161e-06
1.19382e-05
1.23582e-05
1.20844e-05
1.16852e-05
1.15443e-05
1.13397e-05
1.10219e-05
1.07666e-05
1.06308e-05
1.06725e-05
1.08619e-05
1.10625e-05
1.22401e-05
1.07491e-05
4.43724e-06
1.04137e-05
1.05329e-05
1.07225e-05
1.06728e-05
1.05694e-05
1.05008e-05
1.04469e-05
1.04518e-05
1.04866e-05
1.07249e-05
1.23103e-05
1.22169e-05
1.06261e-05
8.28263e-06
1.09269e-05
1.06923e-05
1.09317e-05
1.0898e-05
1.09061e-05
1.09213e-05
1.08637e-05
1.07802e-05
1.07081e-05
1.06699e-05
1.04193e-05
9.44188e-06
7.82329e-06
6.03443e-06
7.80572e-06
1.12004e-05
1.1256e-05
1.19865e-05
1.28249e-05
1.37817e-05
1.46093e-05
1.46741e-05
1.43208e-05
1.40486e-05
1.38557e-05
1.34596e-05
1.199e-05
9.10448e-06
5.1302e-06
2.54816e-06
1.07465e-05
1.14643e-05
1.18877e-05
1.25972e-05
1.39541e-05
1.49671e-05
1.52689e-05
1.52694e-05
1.54499e-05
1.58883e-05
1.6072e-05
1.59973e-05
1.45374e-05
9.51753e-06
2.62138e-06
1.06708e-05
1.22973e-05
1.18501e-05
1.2782e-05
1.40207e-05
1.46729e-05
1.49011e-05
1.51367e-05
1.52392e-05
1.54891e-05
1.47745e-05
1.47614e-05
1.64992e-05
1.24919e-05
5.00698e-06
8.98937e-06
1.28732e-05
1.25247e-05
1.2712e-05
1.36855e-05
1.43613e-05
1.46621e-05
1.48287e-05
1.49079e-05
1.49414e-05
1.48986e-05
1.50328e-05
1.64089e-05
1.28307e-05
5.60564e-06
6.75492e-06
1.19119e-05
1.27622e-05
1.26523e-05
1.33485e-05
1.41194e-05
1.45034e-05
1.47092e-05
1.46362e-05
1.41308e-05
1.43917e-05
1.53547e-05
1.64086e-05
1.23872e-05
5.5152e-06
2.60358e-06
8.87345e-06
1.2067e-05
1.28727e-05
1.31769e-05
1.33869e-05
1.36403e-05
1.39012e-05
1.40812e-05
1.41471e-05
1.38803e-05
1.55516e-05
1.64426e-05
1.21986e-05
5.35277e-06
5.25979e-07
3.33566e-06
6.82683e-06
9.24433e-06
1.06832e-05
1.14887e-05
1.19989e-05
1.23724e-05
1.26852e-05
1.29602e-05
1.35011e-05
1.59375e-05
1.64353e-05
1.21877e-05
5.31683e-06
)
;
    }
    inlet
    {
        type            calculated;
        value           nonuniform List<scalar> 
15
(
-1299.9
-1300.2
-1299.9
-1299.9
-1300.2
-1299.9
-1299.9
-1300.2
-1299.9
-1299.9
-1300.2
-1299.9
-1299.9
-1300.2
-1299.9
)
;
    }
    inletWalls
    {
        type            calculated;
        value           uniform 0;
    }
    outletInlet
    {
        type            calculated;
        value           nonuniform List<scalar> 
15
(
-8.07641e+06
-9.28905e+06
-5.57467e+06
-4.95266e+06
2.8774e+06
1.92762e+06
3.20936e+06
3.70125e+06
4.22534e+06
4.63615e+06
4.55666e+06
3.86512e+06
2.74488e+06
-864390
-2.96208e+06
)
;
    }
}


// ************************************************************************* //
