/*--------------------------------*- C++ -*----------------------------------*\
| =========                 |                                                 |
| \\      /  F ield         | OpenFOAM: The Open Source CFD Toolbox           |
|  \\    /   O peration     | Version:  4.1                                   |
|   \\  /    A nd           | Web:      www.OpenFOAM.org                      |
|    \\/     M anipulation  |                                                 |
\*---------------------------------------------------------------------------*/
FoamFile
{
    version     2.0;
    format      ascii;
    class       surfaceScalarField;
    location    "9";
    object      phi;
}
// * * * * * * * * * * * * * * * * * * * * * * * * * * * * * * * * * * * * * //

dimensions      [0 3 -1 0 0 0 0];

internalField   nonuniform List<scalar> 
13220
(
-818.378
2118.28
-1277.92
1759.74
-1742.23
1764.22
-2086.47
1644.13
-2365.33
1579.07
-2566.12
1500.69
-2694.15
1427.93
-2747.83
1353.88
-2729.18
1281.25
-2638.26
1208.98
-2474.61
1136.55
-2219.07
1044.35
-1790.24
871.074
-1060.7
570.667
239.196
-157.068
2275.35
-361.435
1964.11
-603.789
2006.57
-784.86
1825.21
-958.497
1752.7
-1088.75
1630.94
-1190.89
1530.07
-1259.26
1422.25
-1299.79
1321.78
-1314.15
1223.35
-1294.25
1116.65
-1212.24
962.348
-1005.48
664.313
-592.423
157.614
-353.228
-97.5944
2372.94
-251.425
2117.94
-357.456
2112.6
-397.208
1864.96
-428.442
1783.94
-411.819
1614.32
-373.601
1491.85
-310.884
1359.53
-235.208
1246.1
-147.893
1136.04
-47.3019
1016.06
54.4689
860.584
115.69
603.103
94.8006
178.518
-258.427
55.2744
2317.67
61.3705
2111.85
95.1083
2078.86
148.6
1811.47
199.65
1732.89
271.824
1542.15
346.72
1416.96
444.546
1261.71
574.445
1116.2
734.543
975.941
880.295
870.311
955.444
785.431
878.507
680.036
538.352
518.667
279.925
1.0973
2316.57
-12.1016
2125.05
-15.2223
2081.98
-41.5405
1837.79
-68.5932
1759.94
-109.094
1582.65
-159.774
1467.63
-175.058
1276.99
-95.9963
1037.14
95.703
784.24
335.996
630.015
529.742
591.685
560.488
649.289
356.753
722.399
636.678
-71.4069
2387.98
-220.889
2274.53
-330.673
2191.77
-470.124
1977.23
-613.435
1903.25
-776.759
1745.97
-954.1
1644.97
-1120.16
1443.05
-1231.86
1148.84
-1239.73
792.107
-1114.38
504.667
-841.527
318.825
-472.592
280.35
-153.848
403.649
482.83
72.8985
2315.08
-110.236
2457.66
-209.762
2291.29
-299.523
2066.99
-379.315
1983.04
-460.557
1827.21
-541.743
1726.16
-649.586
1550.89
-813.47
1312.72
-1023.13
1001.76
-1208.91
690.447
-1268.03
377.943
-1090.99
103.308
-612.927
-74.4156
-130.097
275.53
2039.55
207.064
2526.12
190.809
2307.55
216.41
2041.39
273.753
1925.7
334.798
1766.17
412.057
1648.9
464.933
1498.01
451.005
1326.65
334.909
1117.86
141.52
883.835
-98.8118
618.274
-281.862
286.355
-265.256
-91.0241
-395.353
291.915
1747.63
330.18
2487.86
360.975
2276.75
428.56
1973.81
525.932
1828.32
624.316
1667.78
735.914
1537.3
839.524
1394.4
916.786
1249.38
938.414
1096.23
892.034
930.215
761.962
748.342
521.13
527.183
167.153
262.945
-228.199
172.921
1574.71
234.479
2426.3
273.635
2237.59
325.556
1921.89
394.839
1759.04
459.582
1603.04
523.795
1473.09
580.105
1338.09
621.732
1207.76
638.955
1079.01
622.131
947.038
560.101
810.375
438.474
648.813
249.051
452.375
20.8519
62.9269
1511.78
129.981
2359.25
182.914
2184.66
232.397
1872.4
293.516
1697.92
349.441
1547.11
397.22
1425.31
434.912
1300.4
462.901
1179.77
479.527
1062.38
479.118
947.448
447.109
842.383
359.808
736.114
200.12
612.062
220.972
-12.1412
1523.92
79.3396
2267.77
186.042
2077.96
259.076
1799.37
321.003
1636
382.752
1485.37
444.902
1363.16
506.803
1238.5
567.948
1118.62
622.814
1007.52
649.501
920.761
617.557
874.33
494.212
859.461
281.194
825.083
502.166
-1.65137
1525.57
21.5406
2244.58
84.9703
2014.53
183.587
1700.75
296.66
1522.92
424.456
1357.57
565.161
1222.46
714.781
1088.88
850.169
983.237
936.384
921.3
930.157
926.988
811.122
993.365
583.284
1087.3
295.952
1112.42
798.118
292.829
1232.75
383.499
2153.91
248.641
2149.39
35.4136
1913.98
-168.388
1726.73
-338.425
1527.61
-438.406
1322.44
-461.19
1111.67
-402.918
924.965
-273.145
791.528
-109.347
763.189
-11.5418
895.561
-4.64667
1080.4
-31.7474
1139.52
766.371
657.293
1666.43
2226.11
2366.06
2321.64
2122.16
1723.6
1256.44
736.114
281.594
-70.6271
-210.716
-178.528
-26.5124
-2.53668e-05
-52.1524
52.1524
-52.1524
-52.1524
-52.1524
158.853
-211.005
158.853
158.853
158.852
328.495
-169.643
328.495
328.495
453.052
-124.557
453.052
453.052
453.052
537.5
-84.4481
537.5
537.5
590.187
-52.6869
590.187
590.187
590.187
622.624
-32.4368
622.624
622.624
622.624
637.525
-14.9009
637.525
637.525
631.506
6.01915
631.506
631.506
631.506
607.868
23.638
607.868
607.868
564.242
43.626
564.242
564.242
564.242
506.672
57.5703
506.672
506.672
506.672
450.805
55.8662
450.805
450.805
467.802
-16.9962
467.802
467.802
467.802
420.212
47.5895
420.212
420.212
420.212
229.952
190.26
229.952
229.952
-27.9521
257.904
-27.9521
-27.9521
-27.9521
-388.863
360.911
-388.863
-388.863
-1253.85
864.988
-1253.85
-1253.85
-1253.85
-2601.08
1347.23
-2601.08
-2601.08
-2601.08
-4365.57
1764.5
-4365.57
-4365.57
-6417.49
2051.91
-6417.49
-6417.49
-6285.59
-6153.4
-6014.39
-8103.5
2237.97
-7964.04
-7797.75
-7614.83
-7431.52
-7245.87
-7056.03
-6867.4
-6682.22
-8966.34
2479.62
-8768.8
-8567.2
-8360.28
-8171.6
-7980.66
-7784.61
-7588.29
-7392.06
-9987.2
2785.5
-9779.13
-9567.64
-9352.87
-9137.26
-8913.99
-8676.79
-8437.06
-8197.57
-7961.14
-10555.8
2814.95
-10288
-10018.2
-9746.65
-9474.86
-9203.15
-8910.25
-8606.34
-8304.03
-10497.2
2475.13
-10201
-9894.36
-9568.89
-9244.17
-8920.07
-8599.17
-8280.83
-7940.13
-9415.77
1795.56
-9091.99
-8772.27
-8454.74
-8123.86
-7788.28
-7455.06
-7121.82
-6791.02
-7695.6
1233.8
-7358.16
-7022.48
-6688.69
-6359.34
-6036.89
-5714.41
-5401.09
-5099.31
-4811.73
-4649.49
120.862
-4403.18
-4178.47
-3960.74
-3751.15
-3546.8
-3379.51
-3278.75
-3173.58
-2802.57
-250.836
-2700.64
-2598.61
-2598.61
-2442.26
-156.345
-2287.46
-154.807
-2287.46
-2167.59
-119.868
-2167.59
-2077.15
-90.441
-2004.33
-72.8205
-2004.33
-1950.71
-53.6217
-1907.7
-43.0037
-1907.7
-1876.27
-31.4362
-1876.27
-1859.72
-16.5508
-1845.48
-14.2314
-1845.48
-1840.38
-5.10197
-1840.38
-1850.21
9.82615
-1856.01
5.79751
-1856.01
-1877.89
21.884
-1894.18
16.2932
-1894.18
-1919.46
25.2765
-1919.46
-1955.24
35.7818
-1978.13
22.8867
-1978.13
-2005.24
27.1155
-2005.24
-2039.38
34.1388
-2056.18
16.7998
-2056.18
-2083.25
27.0722
-2094.88
11.6245
-2094.88
-2109.25
14.3683
-2109.25
-2127.71
18.4633
-2128.72
1.00578
-2128.72
-2128.86
0.145177
-2128.86
-2130.22
1.35427
-2113.25
-16.9648
-2113.25
-2098.8
-14.4464
-2070.03
-28.7755
-2070.03
-2038
-32.0267
-2038
-2005.08
-32.9234
-1960.46
-44.6187
-1960.46
-1912.12
-48.3396
-1912.12
-1863.34
-48.7809
-1804.33
-59.014
-1804.33
-1743.01
-61.3162
-1675.02
-67.987
-1675.02
-1601.96
-73.0666
-1601.96
-1525.94
-76.0166
-1445.56
-80.3764
-1445.56
-1358.83
-86.7374
-1358.83
-1268.1
-90.7293
-1174.77
-93.3268
-1174.77
-1072.65
-102.124
-971.558
-101.087
-971.558
-863.306
-108.253
-863.306
-114.957
-30.5362
-143.201
-30.4597
-179.357
-30.6208
-202.329
-30.8389
-224.881
-31.1766
-246.852
-31.5897
-267.746
-32.0949
-288.283
-32.6794
-308.281
-33.3476
-328.017
-34.095
-347.492
-34.9226
-366.834
-35.8288
-386.085
-36.8135
-405.323
-37.8761
-424.598
-39.0167
-443.966
-40.2353
-463.474
-41.5322
-483.17
-42.9079
-503.095
-44.363
-523.291
-45.8982
-543.794
-47.5143
-564.639
-49.212
-585.855
-50.9919
-607.467
-52.8543
-629.493
-54.7991
-651.944
-56.8255
-674.82
-58.9321
-698.107
-61.1163
-721.779
-63.3749
-745.795
-65.7031
-770.097
-68.0953
-794.616
-70.5453
-819.27
-73.0458
-843.979
-75.5897
-868.667
-78.1701
-893.276
-80.7803
-917.772
-83.4145
-942.156
-86.0668
-966.465
-88.7317
-990.764
-91.4029
-1015.14
-94.0732
-1039.7
-96.7346
-1064.56
-99.3783
-1089.83
-101.994
-1115.68
-104.569
-1142.32
-107.08
-1169.96
-109.485
-1198.76
-111.721
-1228.7
-113.691
-1259.44
-115.264
-1290.38
-116.27
-1320.63
-116.495
-1349.05
-115.677
-1374.22
-113.497
-1394.41
-109.571
-1407.39
-103.452
-1410.2
-94.6425
-1398.77
-82.6225
-1367.34
-66.9369
-1307.98
-47.3366
-1208.56
-23.8862
-1050.47
2.61877
-802.779
32.9831
-360.948
49.0452
457.312
53.3564
890.371
56.174
1285.04
58.0996
1642.96
59.7919
1982.19
60.4192
2268.1
60.2935
2505.8
57.7458
2652.3
54.9025
2779.83
48.5514
2788.35
46.9842
2929.86
38.7351
2787.63
46.0849
3166.95
46.649
2754.81
55.6393
3463.18
4398.45
-33.2255
-143.517
-33.0586
-179.524
-33.1865
-202.201
-33.3836
-224.683
-33.7189
-246.516
-34.1391
-267.326
-34.6616
-287.761
-35.271
-307.672
-35.9713
-327.317
-36.7574
-346.706
-37.6299
-365.961
-38.5865
-385.129
-39.6273
-404.283
-40.7512
-423.474
-41.9583
-442.759
-43.2485
-462.184
-44.6219
-481.797
-46.0789
-501.638
-47.6201
-521.75
-49.2461
-542.168
-50.9573
-562.927
-52.7544
-584.058
-54.6375
-605.584
-56.6064
-627.524
-58.6604
-649.89
-60.7979
-672.682
-63.0164
-695.888
-65.3123
-719.483
-67.681
-743.426
-70.1167
-767.662
-72.6126
-792.12
-75.1618
-816.721
-77.7569
-841.384
-80.3912
-866.033
-83.0588
-890.608
-85.7547
-915.076
-88.4748
-939.436
-91.2153
-963.724
-93.9721
-988.007
-96.7397
-1012.38
-99.5118
-1036.93
-102.281
-1061.79
-105.041
-1087.07
-107.783
-1112.94
-110.495
-1139.61
-113.149
-1167.31
-115.694
-1196.22
-118.049
-1226.34
-120.096
-1257.39
-121.684
-1288.79
-122.622
-1319.69
-122.676
-1349
-121.56
-1375.34
-118.929
-1397.04
-114.364
-1411.96
-107.375
-1417.19
-97.414
-1408.73
-83.9078
-1380.85
-66.3608
-1325.53
-44.5132
-1230.41
-18.3674
-1076.61
10.5416
-831.688
43.8113
-394.218
57.2259
443.898
57.1223
890.475
58.4254
1283.74
59.4974
1641.89
60.2855
1981.41
60.2337
2268.16
59.5859
2506.45
56.7252
2655.16
53.6998
2782.86
47.4158
2794.63
45.8131
2931.46
37.8755
2795.57
45.0258
3159.8
45.8148
2754.02
55.194
3453.8
4345.39
-34.6739
-143.885
-34.475
-179.723
-34.5824
-202.094
-34.7704
-224.495
-35.1042
-246.182
-35.5291
-266.901
-36.0613
-287.229
-36.6848
-307.048
-37.4031
-326.599
-38.2107
-345.899
-39.108
-365.064
-40.0926
-384.144
-41.1642
-403.211
-42.3219
-422.316
-43.5656
-441.515
-44.8951
-460.855
-46.3105
-480.381
-47.8122
-500.137
-49.4006
-520.161
-51.0762
-540.493
-52.8395
-561.164
-54.6908
-582.206
-56.6302
-603.644
-58.6571
-625.498
-60.7703
-647.777
-62.9678
-670.485
-65.2466
-693.61
-67.6024
-717.127
-70.0298
-740.999
-72.5225
-765.169
-75.0733
-789.569
-77.6748
-814.12
-80.3199
-838.739
-83.0024
-863.351
-85.717
-887.893
-88.46
-912.333
-91.2283
-936.668
-94.0192
-960.933
-96.8291
-985.197
-99.6531
-1009.55
-102.485
-1034.1
-105.318
-1058.96
-108.147
-1084.24
-110.965
-1110.12
-113.759
-1136.81
-116.501
-1164.56
-119.131
-1193.59
-121.557
-1223.92
-123.652
-1255.3
-125.254
-1287.19
-126.162
-1318.79
-126.134
-1349.02
-124.872
-1376.6
-122.017
-1399.9
-117.133
-1416.84
-109.704
-1424.62
-99.1503
-1419.28
-84.868
-1395.13
-66.3313
-1344.07
-43.2543
-1253.49
-15.5868
-1104.28
14.5892
-861.864
51.4363
-431.065
67.9524
427.382
64.2159
894.212
62.284
1285.67
61.7795
1642.39
61.2698
1981.91
60.1179
2269.31
58.6784
2507.89
55.289
2658.55
51.9878
2786.16
45.6648
2800.95
44.0983
2933.03
36.3618
2803.3
43.4652
3152.7
44.2793
2753.21
54.8308
3443.25
4299.14
-36.3748
-144.301
-36.1462
-179.952
-36.2357
-202.004
-36.4162
-224.315
-36.7511
-245.847
-37.1838
-266.468
-37.7295
-286.683
-38.3714
-306.406
-39.1126
-325.857
-39.9473
-345.064
-40.8755
-364.136
-41.8948
-383.125
-43.0045
-402.101
-44.2038
-421.117
-45.4923
-440.227
-46.8699
-459.477
-48.3366
-478.914
-49.8927
-498.581
-51.5386
-518.516
-53.2747
-538.756
-55.1015
-559.337
-57.0189
-580.289
-59.0269
-601.636
-61.1246
-623.4
-63.3104
-645.591
-65.5817
-668.213
-67.9349
-691.256
-70.3648
-714.698
-72.8654
-738.498
-75.4295
-762.605
-78.0492
-786.949
-80.7169
-811.452
-83.4253
-836.031
-86.1686
-860.607
-88.9424
-885.12
-91.744
-909.531
-94.5718
-933.84
-97.4242
-958.081
-100.298
-982.323
-103.19
-1006.66
-106.094
-1031.2
-109.003
-1056.05
-111.914
-1081.33
-114.822
-1107.21
-117.715
-1133.92
-120.562
-1161.72
-123.296
-1190.85
-125.815
-1221.4
-127.98
-1253.13
-129.614
-1285.55
-130.505
-1317.89
-130.4
-1349.13
-128.989
-1378.01
-125.898
-1402.99
-120.667
-1422.07
-112.753
-1432.54
-101.539
-1430.49
-86.3825
-1410.28
-66.7199
-1363.73
-42.2168
-1277.99
-12.7705
-1133.72
19.3506
-893.985
58.7194
-470.434
79.2186
406.883
74.2786
899.152
68.0123
1291.94
65.0088
1645.4
62.7719
1984.15
60.1424
2271.94
57.6097
2510.42
53.4989
2662.66
49.7821
2789.87
43.3996
2807.34
41.8207
2934.6
34.3793
2810.75
41.4407
3145.64
42.2773
2752.37
52.1463
3433.38
4249.16
-37.9965
-144.75
-37.7498
-180.198
-37.8248
-201.929
-38.0012
-224.139
-38.3389
-245.51
-38.7807
-266.026
-39.3407
-286.123
-40.0017
-305.745
-40.7662
-325.093
-41.6282
-344.202
-42.5873
-363.177
-43.6409
-382.071
-44.7884
-400.954
-46.0287
-419.877
-47.3615
-438.894
-48.7864
-458.052
-50.3035
-477.397
-51.913
-496.971
-53.6154
-516.813
-55.4109
-536.961
-57.2998
-557.448
-59.2821
-578.307
-61.3574
-599.561
-63.5245
-621.233
-65.7815
-643.334
-68.1252
-665.87
-70.5512
-688.83
-73.054
-712.195
-75.6265
-735.926
-78.2607
-759.971
-80.9483
-784.262
-83.6811
-808.719
-86.4518
-833.26
-89.2551
-857.804
-92.0874
-882.287
-94.9471
-906.672
-97.8339
-930.953
-100.747
-955.167
-103.686
-979.385
-106.646
-1003.7
-109.621
-1028.22
-112.606
-1053.06
-115.599
-1078.34
-118.597
-1104.22
-121.591
-1130.92
-124.546
-1158.76
-127.39
-1188.01
-130.008
-1218.78
-132.25
-1250.89
-133.928
-1283.88
-134.819
-1317
-134.66
-1349.29
-133.13
-1379.54
-129.841
-1406.28
-124.313
-1427.6
-115.975
-1440.87
-104.178
-1442.29
-88.2409
-1426.22
-67.5668
-1384.41
-41.7636
-1303.79
-10.6674
-1164.82
23.4915
-928.144
65.631
-512.574
91.5271
380.987
86.9568
903.722
76.1362
1302.76
69.5065
1652.03
64.9342
1988.72
60.4091
2276.46
56.4344
2514.4
51.356
2667.74
47.0749
2794.16
40.554
2813.86
38.9708
2936.19
31.8218
2817.89
38.9575
3138.5
39.7548
2751.57
50.3883
3422.74
4206.22
-39.6158
-145.222
-39.3585
-180.456
-39.4228
-201.865
-39.598
-223.963
-39.9406
-245.167
-40.3934
-265.573
-40.9694
-285.547
-41.651
-305.064
-42.4404
-324.303
-43.3311
-343.311
-44.3225
-362.185
-45.412
-380.982
-46.5988
-399.767
-47.8816
-418.594
-49.26
-437.516
-50.7337
-456.579
-52.3028
-475.828
-53.9674
-495.306
-55.7278
-515.053
-57.5843
-535.104
-59.5372
-555.496
-61.5862
-576.258
-63.7306
-597.417
-65.9692
-618.994
-68.2995
-641.004
-70.7178
-663.451
-73.2192
-686.329
-75.7973
-709.617
-78.4442
-733.279
-81.1513
-757.264
-83.9094
-781.504
-86.7101
-805.919
-89.5459
-830.424
-92.4117
-854.938
-95.3049
-879.394
-98.2252
-903.751
-101.174
-928.005
-104.151
-952.19
-107.156
-976.379
-110.187
-1000.67
-113.236
-1025.17
-116.3
-1050
-119.379
-1075.26
-122.471
-1101.12
-125.569
-1127.83
-128.639
-1155.69
-131.601
-1185.05
-134.329
-1216.05
-136.662
-1248.56
-138.399
-1282.14
-139.309
-1316.09
-139.117
-1349.48
-137.494
-1381.16
-134.038
-1409.74
-128.251
-1433.39
-119.536
-1449.59
-107.213
-1454.61
-90.5709
-1442.86
-68.9854
-1405.99
-42.0055
-1330.77
-9.40399
-1197.42
26.8489
-964.397
72.3769
-558.102
104.387
348.977
101.348
906.761
86.9267
1317.18
75.6577
1663.29
67.8928
1996.49
61.026
2283.33
55.246
2520.18
48.9299
2674.05
43.9175
2799.17
37.1614
2820.61
35.5639
2937.79
28.6989
2824.76
36.0083
3131.19
36.7095
2750.87
46.5659
3412.89
4162.06
-41.2181
-145.708
-40.9569
-180.717
-41.0142
-201.808
-41.1911
-223.786
-41.5405
-244.818
-42.0061
-265.108
-42.5996
-284.954
-43.3033
-304.36
-44.1187
-323.488
-45.0393
-342.391
-46.0643
-361.16
-47.1908
-379.855
-48.4179
-398.54
-49.7442
-417.268
-51.1694
-436.09
-52.693
-455.055
-54.315
-474.206
-56.0357
-493.586
-57.8552
-513.233
-59.7739
-533.186
-61.7918
-553.478
-63.9086
-574.141
-66.1235
-595.202
-68.4349
-616.683
-70.8399
-638.599
-73.3344
-660.957
-75.9128
-683.75
-78.5679
-706.962
-81.2911
-730.556
-84.0729
-754.482
-86.9035
-778.673
-89.7739
-803.048
-92.6766
-827.521
-95.6068
-852.008
-98.5628
-876.438
-101.545
-900.769
-104.557
-924.993
-107.6
-949.147
-110.675
-973.304
-113.778
-997.567
-116.904
-1022.05
-120.05
-1046.85
-123.215
-1072.09
-126.405
-1097.93
-129.613
-1124.62
-132.804
-1152.5
-135.892
-1181.96
-138.742
-1213.2
-141.178
-1246.12
-142.991
-1280.33
-143.937
-1315.15
-143.735
-1349.68
-142.047
-1382.85
-138.46
-1413.32
-132.459
-1439.39
-123.426
-1458.62
-110.661
-1467.38
-93.4336
-1460.09
-71.1123
-1428.31
-43.195
-1358.69
-9.38867
-1231.23
28.8628
-1002.65
78.2112
-607.45
116.913
310.275
116.552
907.122
100.292
1333.44
83.894
1679.69
71.8464
2008.54
62.0873
2293.09
54.1277
2528.14
46.2819
2681.9
40.3534
2805.1
33.2569
2827.71
31.6177
2939.42
25.0388
2831.34
32.6013
3123.63
33.2405
2750.23
42.5763
3403.55
4117.89
-42.8089
-146.202
-42.5494
-180.976
-42.6031
-201.754
-42.7847
-223.605
-43.143
-244.459
-43.6232
-264.628
-44.2357
-284.341
-44.9629
-303.633
-45.8058
-322.645
-46.7577
-341.439
-47.8175
-360.101
-48.9821
-378.69
-50.2507
-397.271
-51.6218
-415.897
-53.0949
-434.617
-54.6696
-453.48
-56.3459
-472.53
-58.1238
-491.808
-60.0037
-511.353
-61.9858
-531.204
-64.0701
-551.393
-66.2562
-571.955
-68.5431
-592.915
-70.9288
-614.297
-73.4102
-636.118
-75.9827
-658.384
-78.64
-681.093
-81.3742
-704.227
-84.1759
-727.754
-87.0346
-751.623
-89.9399
-775.768
-92.8822
-800.106
-95.854
-824.55
-98.8508
-849.011
-101.872
-873.417
-104.919
-897.722
-107.996
-921.916
-111.107
-946.036
-114.253
-970.158
-117.431
-994.389
-120.637
-1018.84
-123.866
-1043.62
-127.122
-1068.84
-130.412
-1094.64
-133.734
-1121.3
-137.053
-1149.18
-140.278
-1178.73
-143.261
-1210.22
-145.815
-1243.57
-147.72
-1278.42
-148.724
-1314.14
-148.536
-1349.87
-146.813
-1384.57
-143.133
-1417
-136.971
-1445.55
-127.697
-1467.9
-114.605
-1480.47
-96.9746
-1477.72
-74.1893
-1451.1
-45.7112
-1387.17
-11.1683
-1265.77
28.8277
-1042.64
82.2904
-660.913
128.728
263.837
131.984
903.866
115.79
1349.63
94.5772
1700.91
77.1221
2025.99
63.7042
2306.51
53.1558
2538.69
43.4649
2691.59
36.4153
2812.15
28.8589
2835.27
27.1444
2941.14
20.8478
2837.64
28.7706
3115.71
29.3441
2749.66
40.3212
3392.57
4077.84
-44.3892
-146.696
-44.1362
-181.229
-44.1897
-201.7
-44.3786
-223.416
-44.748
-244.09
-45.2446
-264.131
-45.8778
-283.708
-46.6299
-302.881
-47.5017
-321.773
-48.4861
-340.455
-49.5819
-359.005
-50.7861
-377.486
-52.0974
-395.96
-53.5145
-414.479
-55.0367
-433.095
-56.6637
-451.853
-58.3954
-470.798
-60.2319
-489.971
-62.1734
-509.412
-64.2203
-529.157
-66.3723
-549.241
-68.6291
-569.698
-70.9895
-590.555
-73.4512
-611.835
-76.0108
-633.558
-78.6631
-655.732
-81.4013
-678.355
-84.2168
-701.412
-87.0991
-724.872
-90.0371
-748.685
-93.0195
-772.785
-96.036
-797.09
-99.0791
-821.507
-102.144
-845.946
-105.232
-870.33
-108.346
-894.608
-111.49
-918.771
-114.671
-942.855
-117.891
-966.939
-121.148
-991.133
-124.435
-1015.55
-127.751
-1040.31
-131.1
-1065.49
-134.494
-1091.25
-137.935
-1117.85
-141.391
-1145.73
-144.762
-1175.36
-147.891
-1207.09
-150.579
-1240.88
-152.594
-1276.41
-153.675
-1313.06
-153.528
-1350.02
-151.803
-1386.3
-148.075
-1420.73
-141.818
-1451.81
-132.411
-1477.3
-119.171
-1493.71
-101.42
-1495.47
-78.589
-1473.93
-50.11
-1415.65
-15.4935
-1300.39
25.794
-1083.93
83.1912
-718.31
139.245
207.783
147.17
895.941
132.757
1364.05
107.841
1725.82
84.154
2049.68
66.0477
2324.61
52.4094
2552.32
40.538
2703.46
32.1412
2820.54
23.99
2843.42
22.1586
2942.97
16.133
2843.66
24.507
3107.33
25.0136
2749.15
34.8371
3382.75
4036.66
-45.9608
-147.185
-45.7182
-181.472
-45.7749
-201.644
-45.9738
-223.217
-46.3563
-243.708
-46.8712
-263.616
-47.5266
-283.052
-48.3053
-302.102
-49.2073
-320.871
-50.2256
-339.436
-51.3589
-357.872
-52.6038
-376.241
-53.9591
-394.605
-55.4234
-413.015
-56.9961
-431.522
-58.6766
-450.173
-60.465
-469.01
-62.3613
-488.075
-64.3659
-507.407
-66.4788
-527.044
-68.7001
-547.02
-71.0291
-567.369
-73.4646
-588.119
-76.004
-609.296
-78.6436
-630.919
-81.3778
-652.998
-84.1991
-675.534
-87.098
-698.513
-90.0635
-721.906
-93.0832
-745.666
-96.145
-769.723
-99.2383
-793.996
-102.355
-818.39
-105.491
-842.81
-108.648
-867.173
-111.83
-891.426
-115.044
-915.557
-118.298
-939.601
-121.594
-963.642
-124.932
-987.795
-128.304
-1012.18
-131.709
-1036.9
-135.154
-1062.04
-138.655
-1087.75
-142.221
-1114.29
-145.821
-1142.13
-149.35
-1171.83
-152.639
-1203.8
-155.477
-1238.04
-157.622
-1274.26
-158.803
-1311.88
-158.724
-1350.1
-157.033
-1387.99
-153.313
-1424.45
-147.058
-1458.06
-137.683
-1486.68
-124.574
-1506.82
-107.141
-1512.91
-84.876
-1496.19
-57.1569
-1443.37
-23.2929
-1334.25
18.6564
-1125.88
78.8809
-778.534
147.719
138.945
161.659
882
150.528
1375.18
123.511
1752.84
93.3753
2079.82
69.3901
2348.6
51.9805
2569.73
37.5629
2717.88
27.5729
2830.53
18.6776
2852.31
16.6778
2944.97
10.9075
2849.43
19.816
3098.42
20.34
2748.63
29.5595
3373.53
3993.15
-47.5253
-147.665
-47.2966
-181.701
-47.3596
-201.581
-47.5711
-223.005
-47.9687
-243.31
-48.5037
-263.081
-49.1831
-282.373
-49.9898
-301.295
-50.9235
-319.938
-51.9772
-338.383
-53.1492
-356.7
-54.4362
-374.954
-55.8369
-393.204
-57.3498
-411.502
-58.9741
-429.898
-60.7095
-448.437
-62.5559
-467.164
-64.5135
-486.117
-66.5824
-505.338
-68.7629
-524.863
-71.0549
-544.728
-73.4578
-564.966
-75.97
-585.607
-78.589
-606.677
-81.3106
-628.197
-84.1288
-650.18
-87.0354
-672.627
-90.0202
-695.528
-93.0712
-718.855
-96.1752
-742.561
-99.3192
-766.579
-102.492
-790.824
-105.684
-815.197
-108.894
-839.6
-112.122
-863.945
-115.374
-888.174
-118.661
-912.271
-121.989
-936.272
-125.365
-960.266
-128.786
-984.375
-132.246
-1008.72
-135.743
-1033.4
-139.286
-1058.5
-142.898
-1084.14
-146.595
-1110.59
-150.348
-1138.37
-154.047
-1168.13
-157.511
-1200.34
-160.518
-1235.04
-162.812
-1271.97
-164.118
-1310.57
-164.137
-1350.08
-162.527
-1389.6
-158.895
-1428.08
-152.788
-1464.17
-143.712
-1495.75
-131.175
-1519.36
-114.71
-1529.37
-93.847
-1517.06
-67.8189
-1469.39
-35.59
-1366.48
6.33904
-1167.81
66.8289
-839.024
152.625
53.149
174.979
859.646
168.6
1381.56
141.141
1780.3
105.07
2115.89
74.1169
2379.55
52.0037
2591.85
34.6007
2735.28
22.7537
2842.38
12.9503
2862.12
10.7218
2947.2
5.18748
2854.97
14.7591
3088.85
15.3232
2748.07
26.8302
3362.02
3952
-49.0841
-148.132
-48.8725
-181.912
-48.9447
-201.508
-49.1712
-222.779
-49.5861
-242.895
-50.1431
-262.524
-50.848
-281.668
-51.6844
-300.459
-52.6513
-318.971
-53.7418
-337.292
-54.954
-355.487
-56.2845
-373.624
-57.7318
-391.757
-59.2946
-409.94
-60.972
-428.221
-62.7636
-446.646
-64.6695
-465.258
-66.6896
-484.097
-68.8244
-503.203
-71.074
-522.614
-73.4383
-542.364
-75.9167
-562.488
-78.5075
-583.016
-81.208
-603.977
-84.0136
-625.391
-86.918
-647.275
-89.9123
-669.633
-92.9856
-692.455
-96.1249
-715.716
-99.3159
-739.37
-102.545
-763.351
-105.799
-787.569
-109.071
-811.926
-112.356
-836.315
-115.657
-860.644
-118.982
-884.848
-122.343
-908.91
-125.75
-932.866
-129.208
-956.808
-132.715
-980.867
-136.266
-1005.17
-139.858
-1029.81
-143.502
-1054.86
-147.229
-1080.41
-151.062
-1106.76
-154.978
-1134.46
-158.861
-1164.25
-162.516
-1196.68
-165.709
-1231.84
-168.174
-1269.5
-169.631
-1309.12
-169.785
-1349.92
-168.32
-1391.06
-164.902
-1431.5
-159.186
-1469.88
-150.839
-1504.1
-139.548
-1530.65
-124.961
-1543.96
-106.54
-1535.48
-83.1934
-1492.74
-53.3301
-1396.34
-11.911
-1209.23
47.9586
-898.894
148.358
-47.2504
186.552
821.452
186.628
1381.48
160.15
1806.78
119.258
2156.78
80.6737
2418.14
52.7
2619.82
31.7219
2756.26
17.7288
2856.37
6.83943
2873.01
4.31455
2949.72
-1.01161
2860.29
9.31454
3078.53
9.88344
2747.5
19.6753
3352.23
3910.35
-50.6388
-148.583
-50.4468
-182.104
-50.5312
-201.424
-50.7751
-222.535
-51.2093
-242.461
-51.7902
-261.943
-52.5224
-280.936
-53.3901
-299.591
-54.3917
-317.969
-55.5205
-336.163
-56.7742
-354.234
-58.1496
-372.248
-59.6451
-390.261
-61.2592
-408.326
-62.9911
-426.489
-64.8404
-444.797
-66.807
-463.291
-68.8913
-482.013
-71.0935
-501.001
-73.4137
-520.293
-75.852
-539.926
-78.4076
-559.932
-81.0789
-580.345
-83.8629
-601.193
-86.7548
-622.499
-89.7477
-644.282
-92.8323
-666.548
-95.9967
-689.291
-99.2271
-712.486
-102.508
-736.089
-105.825
-760.034
-109.164
-784.23
-112.517
-808.573
-115.88
-832.952
-119.257
-857.267
-122.658
-881.448
-126.095
-905.472
-129.582
-929.379
-133.125
-953.265
-136.723
-977.269
-140.369
-1001.52
-144.058
-1026.12
-147.807
-1051.11
-151.652
-1076.57
-155.628
-1102.78
-159.717
-1130.37
-163.797
-1160.17
-167.661
-1192.82
-171.061
-1228.44
-173.721
-1266.84
-175.359
-1307.48
-175.699
-1349.58
-174.481
-1392.28
-171.489
-1434.49
-166.57
-1474.8
-159.63
-1511.04
-150.551
-1539.73
-139.005
-1555.5
-124.168
-1550.31
-104.356
-1512.55
-77.1764
-1423.52
-36.3454
-1250.06
23.9658
-959.205
136.344
-159.629
195.905
761.892
204.327
1373.06
179.986
1831.12
135.683
2201.08
89.4506
2464.37
54.4034
2654.87
29.028
2781.63
12.5443
2872.86
0.378215
2885.17
-2.54212
2952.64
-7.66948
2865.42
3.55027
3067.31
4.18668
2746.86
15.7379
3340.68
3867.08
-52.1908
-149.014
-52.0207
-182.274
-52.1201
-201.325
-52.3838
-222.271
-52.8394
-242.005
-53.4459
-261.337
-54.2072
-280.175
-55.1077
-298.691
-56.1457
-316.931
-57.3143
-334.995
-58.6111
-352.937
-60.0329
-370.827
-61.578
-388.716
-63.2448
-406.659
-65.0327
-424.701
-66.9411
-442.888
-68.9701
-461.262
-71.12
-479.863
-73.3911
-498.73
-75.7837
-517.901
-78.2978
-537.412
-80.9325
-557.297
-83.6862
-577.591
-86.5558
-598.323
-89.5362
-619.519
-92.6202
-641.198
-95.7977
-663.371
-99.0562
-686.032
-102.381
-709.161
-105.755
-732.715
-109.162
-756.626
-112.589
-780.803
-116.026
-805.136
-119.47
-829.508
-122.926
-853.811
-126.404
-877.969
-129.921
-901.956
-133.491
-925.809
-137.123
-949.633
-140.814
-973.577
-144.558
-997.782
-148.348
-1022.33
-152.204
-1047.25
-156.171
-1072.6
-160.297
-1098.66
-164.57
-1126.1
-168.863
-1155.88
-172.954
-1188.73
-176.583
-1224.81
-179.463
-1263.96
-181.322
-1305.62
-181.929
-1348.98
-181.138
-1393.07
-178.941
-1436.69
-175.479
-1478.27
-170.951
-1515.57
-165.365
-1545.31
-158.183
-1562.69
-147.959
-1560.54
-132.136
-1528.37
-107.364
-1448.3
-66.6455
-1290.78
-5.09104
-1020.76
120.101
-284.821
202.646
679.347
221.356
1354.35
200.224
1852.25
153.885
2247.42
100.651
2517.6
57.5391
2697.98
26.686
2812.49
7.25019
2892.29
-6.38605
2898.81
-9.83009
2956.09
-14.7484
2870.34
-2.52543
3055.08
-1.88865
2746.22
8.62354
3330.17
3826.92
-53.7414
-149.422
-53.5955
-182.42
-53.7125
-201.208
-53.9981
-221.986
-54.4772
-241.526
-55.1114
-260.703
-55.9035
-279.383
-56.8386
-297.756
-57.9145
-315.855
-59.1244
-333.785
-60.4659
-351.595
-61.9356
-369.357
-63.5318
-387.12
-65.2529
-404.938
-67.0982
-422.856
-69.0673
-440.919
-71.1602
-459.169
-73.3774
-477.646
-75.7191
-496.388
-78.1858
-515.434
-80.7774
-534.82
-83.4931
-554.581
-86.3314
-574.753
-89.2888
-595.366
-92.3602
-616.448
-95.5378
-638.021
-98.8111
-660.097
-102.167
-682.677
-105.588
-705.74
-109.059
-729.245
-112.56
-753.125
-116.078
-777.286
-119.602
-801.612
-123.13
-825.98
-126.666
-850.275
-130.225
-874.411
-133.824
-898.357
-137.48
-922.153
-141.204
-945.91
-144.994
-969.787
-148.838
-993.937
-152.733
-1018.44
-156.699
-1043.29
-160.792
-1068.51
-165.074
-1094.37
-169.544
-1121.63
-174.066
-1151.36
-178.405
-1184.39
-182.286
-1220.93
-185.419
-1260.83
-187.562
-1303.48
-188.581
-1347.96
-188.538
-1393.12
-187.758
-1437.47
-186.773
-1479.25
-186.039
-1516.3
-185.456
-1545.9
-183.886
-1564.26
-178.887
-1565.54
-166.848
-1540.41
-143.513
-1471.63
-101.836
-1332.46
-37.4399
-1085.16
100.133
-422.393
206.528
572.951
237.271
1323.6
220.565
1868.95
173.337
2294.65
114.215
2576.72
62.5412
2749.65
24.9594
2850.07
1.9187
2915.33
-13.4136
2914.14
-17.5268
2960.2
-22.1928
2875
-8.95061
3041.84
-8.24987
2745.52
2.1032
3319.82
3780.68
-55.2921
-149.807
-55.1724
-182.54
-55.3095
-201.071
-55.6192
-221.676
-56.1238
-241.022
-56.7876
-260.039
-57.6123
-278.558
-58.5837
-296.784
-59.6991
-314.74
-60.9521
-332.532
-62.3399
-350.208
-63.859
-367.838
-65.5079
-385.471
-67.2848
-403.161
-69.1891
-420.951
-71.2205
-438.888
-73.3791
-457.01
-75.6651
-475.36
-78.0792
-493.974
-80.6218
-512.892
-83.2928
-532.149
-86.0916
-551.783
-89.0165
-571.828
-92.0642
-592.318
-95.2291
-613.283
-98.5031
-634.747
-101.875
-656.725
-105.331
-679.221
-108.853
-702.217
-112.424
-725.675
-116.023
-749.526
-119.635
-773.673
-123.249
-797.998
-126.864
-822.366
-130.484
-846.655
-134.125
-870.769
-137.808
-894.674
-141.554
-918.407
-145.374
-942.09
-149.266
-965.895
-153.217
-989.986
-157.22
-1014.43
-161.299
-1039.21
-165.521
-1064.28
-169.967
-1089.93
-174.645
-1116.95
-179.414
-1146.59
-184.022
-1179.78
-188.182
-1216.77
-191.617
-1257.39
-194.158
-1300.94
-195.858
-1346.26
-197.129
-1391.84
-198.77
-1435.83
-201.721
-1476.3
-206.48
-1511.54
-212.399
-1539.98
-217.259
-1559.4
-217.356
-1565.44
-208.078
-1549.69
-184.567
-1495.14
-140.459
-1376.56
-71.6683
-1153.95
78.3461
-572.408
208.21
443.088
251.608
1280.21
240.769
1879.79
193.574
2341.84
129.828
2640.47
69.7351
2809.75
24.2146
2895.59
-3.33277
2942.88
-20.6671
2931.47
-25.602
2965.14
-29.9695
2879.37
-15.6961
3027.57
-14.867
2744.69
-0.790449
3305.74
3735.28
-56.8442
-150.165
-56.7525
-182.632
-56.9122
-200.911
-57.2481
-221.34
-57.7804
-240.489
-58.4756
-259.344
-59.3347
-277.699
-60.3442
-295.775
-61.501
-313.583
-62.7986
-331.234
-64.2343
-348.772
-65.8045
-366.267
-67.5077
-383.768
-69.3421
-401.326
-71.3071
-418.986
-73.4025
-436.792
-75.6283
-454.785
-77.985
-473.003
-80.4733
-491.486
-83.0936
-510.271
-85.8461
-529.397
-88.7302
-548.899
-91.744
-568.814
-94.8843
-589.178
-98.1454
-610.022
-101.519
-631.373
-104.993
-653.251
-108.552
-675.661
-112.179
-698.591
-115.853
-722.001
-119.553
-745.825
-123.263
-769.963
-126.971
-794.289
-130.675
-818.663
-134.382
-842.948
-138.109
-867.042
-141.88
-890.903
-145.718
-914.569
-149.638
-938.17
-153.636
-961.897
-157.698
-985.924
-161.813
-1010.32
-166.008
-1035.01
-170.363
-1059.93
-174.98
-1085.31
-179.881
-1112.05
-184.916
-1141.55
-189.816
-1174.88
-194.295
-1212.29
-198.117
-1253.57
-201.271
-1297.78
-204.15
-1343.38
-207.69
-1388.3
-213.25
-1430.27
-222.014
-1467.54
-234.048
-1499.51
-247.551
-1526.48
-258.829
-1548.12
-262.931
-1561.34
-254.601
-1558.02
-228.863
-1520.88
-180.545
-1424.88
-105.829
-1228.66
57.3044