/*--------------------------------*- C++ -*----------------------------------*\
| =========                 |                                                 |
| \\      /  F ield         | OpenFOAM: The Open Source CFD Toolbox           |
|  \\    /   O peration     | Version:  4.1                                   |
|   \\  /    A nd           | Web:      www.OpenFOAM.org                      |
|    \\/     M anipulation  |                                                 |
\*---------------------------------------------------------------------------*/
FoamFile
{
    version     2.0;
    format      ascii;
    class       volVectorField;
    location    "9";
    object      U;
}
// * * * * * * * * * * * * * * * * * * * * * * * * * * * * * * * * * * * * * //

dimensions      [0 1 -1 0 0 0 0];

internalField   nonuniform List<vector> 
6785
(
(1.43703e-14 -2.03167 16.4591)
(1.07923e-14 -7.7053 12.9266)
(-2.9473e-15 -5.07216 13.645)
(4.33006e-15 -4.89578 13.2142)
(8.69091e-16 -4.14197 13.0633)
(-1.81493e-16 -3.68274 12.7892)
(2.46236e-15 -3.24982 12.4985)
(5.40788e-16 -2.92234 12.1634)
(-7.18429e-16 -2.69085 11.806)
(1.51734e-15 -2.58133 11.4453)
(1.72737e-16 -2.55809 11.15)
(-5.47406e-16 -2.67135 10.9329)
(4.93844e-16 -3.25579 10.4618)
(-1.74422e-16 -3.29613 9.54688)
(-1.22646e-16 0.0428724 7.52668)
(2.11243e-14 -9.82181 26.8929)
(1.33876e-14 -16.4935 23.1134)
(-2.95343e-15 -11.3058 23.5111)
(4.42671e-15 -12.0921 21.7323)
(7.82074e-16 -10.5049 20.8542)
(8.67274e-16 -9.87857 19.6573)
(1.94783e-15 -8.97346 18.5651)
(1.46408e-16 -8.22625 17.4326)
(-4.88931e-17 -7.4909 16.3216)
(7.22868e-16 -6.82559 15.2215)
(1.34635e-17 -6.13843 14.042)
(-2.63902e-16 -5.16989 12.3078)
(-3.5047e-16 -3.48974 8.95286)
(-7.28329e-16 -0.757531 3.33327)
(-6.31589e-16 1.33321 -2.07271)
(2.27139e-14 -12.2353 28.0935)
(1.27312e-14 -17.1972 24.7454)
(-2.25159e-15 -11.9071 24.86)
(5.06659e-15 -13.3001 22.2303)
(8.42535e-16 -11.1475 21.2264)
(1.4318e-15 -10.7952 19.4469)
(2.38171e-15 -9.74216 18.0578)
(1.44488e-16 -9.08341 16.5783)
(2.83881e-16 -8.3668 15.2399)
(1.58133e-15 -7.73707 13.9195)
(4.04781e-16 -7.04165 12.4789)
(1.44454e-16 -5.97836 10.4731)
(7.8611e-16 -4.0888 6.77428)
(1.03417e-16 0.258941 0.339689)
(-2.52513e-15 1.45438 -5.82546)
(2.31444e-14 -12.6437 26.9619)
(1.29515e-14 -16.9056 24.3993)
(-1.72353e-15 -11.9593 24.1157)
(4.95928e-15 -13.6724 21.0257)
(5.60753e-16 -11.1502 20.118)
(1.90277e-15 -11.0862 17.9676)
(2.21943e-15 -9.85252 16.508)
(-2.95341e-16 -9.25716 14.9056)
(5.81574e-16 -8.60886 13.6173)
(9.09718e-16 -8.13832 12.3905)
(-9.91202e-16 -7.64426 11.0644)
(-3.42012e-16 -6.88726 9.51858)
(1.19192e-16 -5.81847 7.36133)
(-2.24814e-15 -3.52769 4.34291)
(-3.41353e-15 -1.56961 0.596575)
(2.24973e-14 -12.8972 26.4013)
(1.10119e-14 -16.2183 24.205)
(-1.66948e-15 -11.9053 23.7288)
(3.73909e-15 -13.2492 20.671)
(-4.02351e-16 -10.5743 19.7828)
(1.32065e-15 -10.5057 17.5433)
(2.07017e-16 -8.95343 16.1479)
(-1.31157e-15 -8.08772 14.1986)
(-8.04614e-17 -6.80286 12.1735)
(-4.65862e-16 -6.0013 10.272)
(-1.31338e-15 -5.79082 9.27828)
(1.54056e-16 -5.8765 8.85478)
(-7.56026e-16 -5.85193 8.52884)
(-5.78146e-15 -5.42963 7.82095)
(-5.57916e-15 -3.94693 6.09857)
(2.21769e-14 -13.738 27.2243)
(8.44109e-15 -16.0057 25.017)
(-6.4559e-16 -12.3941 24.4952)
(2.37028e-15 -13.0985 21.9144)
(-3.5125e-16 -10.7093 21.0101)
(9.45213e-16 -10.4519 19.1526)
(-1.11953e-15 -8.84313 17.8771)
(-9.41935e-16 -7.48359 15.4231)
(6.45199e-16 -5.04646 11.9013)
(1.94556e-15 -2.73404 7.94143)
(3.09496e-15 -1.24181 5.33698)
(1.50474e-15 -1.2825 4.8541)
(-2.02809e-15 -2.85871 6.55684)
(-4.53728e-15 -4.97565 9.01508)
(-3.05962e-15 -4.33185 8.68891)
(2.04133e-14 -14.3058 27.7693)
(8.45461e-15 -17.3646 27.3331)
(-1.25513e-15 -13.4141 25.9353)
(1.90769e-15 -14.1859 23.5422)
(-8.02552e-16 -11.9016 22.7104)
(-3.3622e-16 -11.8979 20.9226)
(-1.3653e-15 -10.4093 19.8434)
(-1.70837e-15 -9.42777 17.5966)
(-9.93909e-16 -7.06948 14.2977)
(1.41346e-15 -4.41852 9.9824)
(1.27387e-15 -1.67946 5.92299)
(4.69066e-16 0.679642 2.0904)
(-7.38691e-16 2.26641 -0.57755)
(-4.92197e-15 1.73855 -0.374574)
(-5.26365e-15 -0.116132 1.4842)
(1.8872e-14 -13.5217 25.4554)
(1.1603e-14 -18.5226 29.2053)
(1.79442e-16 -14.6511 26.7473)
(1.55601e-15 -14.8762 23.963)
(-3.4003e-16 -13.0123 22.8655)
(3.98653e-17 -12.8968 21.0502)
(-4.13675e-16 -11.7905 19.8205)
(-1.04777e-15 -11.1362 18.0385)
(-7.78978e-16 -9.79186 15.848)
(3.93353e-16 -8.08963 12.9877)
(4.19091e-16 -5.96042 9.79795)
(1.15349e-15 -3.449 6.18368)
(2.32121e-15 -0.279264 1.83897)
(1.42677e-15 3.53297 -3.10223)
(-9.24709e-16 1.90087 -5.22728)
(1.67439e-14 -11.8836 21.6425)
(1.4593e-14 -18.2138 29.1389)
(2.90136e-15 -15.1288 26.5735)
(1.36928e-15 -14.486 23.2189)
(6.25909e-16 -12.9077 21.6685)
(9.60599e-16 -12.4631 19.8171)
(7.27864e-16 -11.5267 18.3403)
(3.54508e-16 -10.8213 16.6615)
(3.12514e-16 -9.93044 14.9118)
(5.39894e-16 -8.88062 12.968)
(8.98649e-16 -7.64014 10.8034)
(1.12162e-15 -6.0607 8.40668)
(1.1544e-15 -4.25674 5.51567)
(2.66505e-15 -1.54933 2.28077)
(-8.56861e-16 0.613786 -3.14906)
(1.56204e-14 -10.5049 18.7864)
(1.62296e-14 -17.3091 28.3299)
(4.65224e-15 -14.9281 26.0418)
(1.47053e-15 -13.7614 22.4124)
(1.15986e-15 -12.2364 20.5967)
(1.46576e-15 -11.6016 18.7556)
(1.24542e-15 -10.663 17.2226)
(1.17587e-15 -9.87096 15.5991)
(1.03234e-15 -9.03159 14.0159)
(7.75754e-16 -8.1528 12.4364)
(1.35901e-15 -7.2405 10.7845)
(8.97686e-16 -6.11376 9.02446)
(-2.55218e-16 -4.87734 6.88179)
(2.79589e-15 -2.88273 4.20411)
(-1.59122e-15 -0.453483 -1.24249)
(1.43163e-14 -9.82567 17.5614)
(1.72582e-14 -16.5829 27.6641)
(5.00768e-15 -14.64 25.5813)
(1.07498e-15 -13.2637 21.9304)
(1.65932e-15 -11.7754 19.9831)
(6.69223e-16 -11.0976 18.2089)
(5.41403e-16 -10.2116 16.745)
(1.44786e-15 -9.44934 15.2453)
(-3.49662e-16 -8.66507 13.8059)
(-7.08238e-16 -7.87756 12.4105)
(7.95454e-16 -7.1104 11.0044)
(-1.30126e-15 -6.22408 9.58922)
(-1.76576e-15 -5.30919 7.97883)
(-2.01976e-15 -3.8319 6.05424)
(-6.70941e-15 -1.32048 1.168)
(1.41168e-14 -9.66236 17.2315)
(1.8261e-14 -15.8125 26.7308)
(3.46272e-15 -14.2264 24.7845)
(2.93202e-16 -12.8402 21.2141)
(2.86751e-15 -11.36 19.146)
(-1.2888e-15 -10.6848 17.4415)
(-1.7392e-15 -9.89576 16.0905)
(1.92253e-15 -9.23194 14.7208)
(-6.26782e-16 -8.54612 13.3821)
(-3.44142e-15 -7.87 12.0696)
(-1.67891e-15 -7.24354 10.8347)
(-3.05923e-15 -6.6396 9.82862)
(-2.88625e-15 -6.11872 8.98575)
(-4.89801e-15 -5.16298 8.04811)
(-9.51104e-15 -2.79468 3.88924)
(1.28787e-14 -10.2484 18.12)
(1.73614e-14 -15.1508 25.7151)
(5.49497e-16 -13.2541 23.3036)
(-6.66269e-16 -12.2835 20.4689)
(3.9215e-15 -11.0419 18.7707)
(-3.2748e-15 -10.4757 17.013)
(-3.86301e-15 -9.68447 15.5427)
(5.60738e-15 -9.08741 14.0205)
(-3.32124e-16 -8.4602 12.5867)
(-4.16537e-15 -7.92502 11.3236)
(-1.16899e-15 -7.54447 10.5408)
(-4.03618e-15 -7.44197 10.477)
(-4.7586e-15 -7.45346 10.9765)
(-5.60631e-15 -7.12918 11.136)
(-1.19562e-14 -4.88451 7.94418)
(9.75133e-15 -9.93279 16.8355)
(1.6432e-14 -15.7904 25.944)
(-1.3039e-15 -13.6169 23.0327)
(-3.95614e-15 -11.18 18.6119)
(7.97523e-16 -9.11521 16.1909)
(-3.16957e-15 -7.89182 14.1321)
(2.8026e-15 -6.56918 12.5055)
(5.58458e-15 -5.6934 10.9617)
(3.49589e-16 -5.10323 9.98499)
(-1.25724e-15 -5.21118 9.86081)
(-3.07564e-15 -5.99028 10.8062)
(-5.52987e-15 -7.15558 12.4032)
(-5.72859e-15 -8.13656 14.0589)
(-8.92698e-15 -8.44137 14.4573)
(-1.19154e-14 -5.71747 10.3204)
(3.68763e-15 -7.21802 12.5393)
(1.19957e-14 -15.8207 24.1694)
(7.36454e-15 -18.513 26.8674)
(2.57734e-15 -18.5781 25.8059)
(1.18588e-15 -17.326 23.915)
(-3.87781e-16 -15.7339 21.3191)
(1.40542e-15 -13.4315 18.1648)
(2.73528e-15 -10.8293 14.8174)
(3.56965e-15 -8.0994 11.4613)
(5.03953e-15 -5.6286 8.41629)
(1.38282e-15 -3.95775 6.71664)
(-2.08035e-15 -4.40043 8.01884)
(-5.92732e-15 -5.73155 10.5824)
(-1.02816e-14 -6.64149 11.5022)
(-8.53854e-15 -3.75437 7.02383)
(1.53022e-17 3.68707 14.3084)
(5.5655e-16 -0.371964 2.12192)
(9.52694e-17 -0.10766 -0.837263)
(-5.83017e-17 -0.113444 -0.593125)
(-2.30934e-16 -0.0144389 -0.730924)
(-5.67662e-16 0.244821 -1.06781)
(-2.84564e-16 0.142983 -0.687355)
(-3.24793e-17 0.231119 -0.639981)
(-1.41837e-16 0.251152 -0.564835)
(3.00088e-15 0.481271 -0.773698)
(2.87188e-15 0.4037 -0.481141)
(3.14133e-15 0.445508 -0.42718)
(3.4549e-15 0.69918 -0.521082)
(2.74217e-15 0.544953 -0.310716)
(2.8623e-15 0.630478 -0.302521)
(2.92528e-15 0.607664 -0.305917)
(3.23479e-15 0.826168 -0.343469)
(2.82703e-15 0.676081 -0.218003)
(2.63367e-15 0.716345 -0.240814)
(2.98296e-15 0.95306 -0.239746)
(2.01236e-15 0.72239 -0.172634)
(1.70027e-15 0.815339 -0.204562)
(1.81715e-15 0.780247 -0.251882)
(2.20898e-15 1.00343 -0.248418)
(1.55765e-15 0.766318 -0.196877)
(1.51269e-15 0.862224 -0.226296)
(1.06763e-15 0.834089 -0.269748)
(1.3502e-15 1.01764 -0.256566)
(6.58788e-16 0.801039 -0.201836)
(5.7592e-16 0.858189 -0.234797)
(9.19861e-16 1.03905 -0.191965)
(4.51786e-16 0.776399 -0.161712)
(5.53034e-16 0.866504 -0.181893)
(3.15291e-16 0.843806 -0.220872)
(4.98571e-16 0.982001 -0.161195)
(5.51703e-16 0.758426 -0.140515)
(6.19247e-16 0.820715 -0.178433)
(9.43848e-16 0.942346 -0.0778663)
(7.69244e-16 0.6919 -0.0909278)
(6.73087e-16 0.769267 -0.116128)
(9.01286e-16 0.754545 -0.163952)
(1.16661e-15 0.841021 -0.0440864)
(7.15152e-16 0.621907 -0.06876)
(5.61292e-16 0.690971 -0.0892945)
(3.90007e-16 0.682629 -0.124727)
(5.67679e-16 0.732511 0.0295366)
(-8.78727e-17 0.559485 0.0117469)
(-9.36863e-17 0.612211 0.000569871)
(5.90946e-17 0.686721 0.042111)
(5.79022e-16 0.585632 -0.00279322)
(6.69329e-16 0.632398 -0.0416009)
(6.3462e-16 0.628204 -0.0740833)
(6.86612e-16 0.640781 0.121785)
(4.56473e-16 0.532696 0.11798)
(2.58066e-16 0.558332 0.12329)
(4.69574e-16 0.558901 0.121853)
(4.81034e-16 0.465361 0.233389)
(4.61152e-16 0.268691 -0.00482857)
(-3.78861e-16 0.297904 0.0437041)
(-9.28676e-17 0.467767 -0.851715)
(1.38453e-16 -0.573303 -1.00492)
(1.82428e-16 -0.231152 -0.975744)
(1.57541e-16 0.897347 -0.841987)
(3.65803e-16 0.0191713 -1.95997)
(-2.87421e-15 -0.705118 -0.133956)
(-2.24291e-15 -0.361629 -0.236019)
(-3.35745e-15 -1.09331 1.59721)
(-2.61589e-15 -1.56569 2.50882)
(-2.26301e-15 -1.70223 2.42449)
(-2.21197e-15 -1.65162 2.662)
(-2.99204e-15 -2.89417 5.15071)
(-2.35933e-15 -3.23631 4.77817)
(-2.46294e-15 -3.64097 4.89396)
(-2.58058e-15 -3.57018 5.1335)
(-3.68042e-15 -5.65788 8.37224)
(-2.65156e-15 -5.69292 6.80786)
(-2.83166e-15 -5.76059 7.1611)
(-3.5279e-15 -8.293 10.5657)
(-2.33329e-15 -8.07883 7.94708)
(-2.29818e-15 -8.41691 8.38309)
(-3.29107e-15 -8.98787 10.2263)
(-3.08878e-15 -8.85446 10.1104)
(-2.86877e-15 -8.94309 10.4493)
(-7.67901e-16 -10.5675 12.371)
(-9.1386e-16 -9.75476 11.0448)
(-2.9936e-16 -9.97645 11.5262)
(2.64531e-16 -9.88766 11.6336)
(8.30552e-16 -9.92685 11.7494)
(1.232e-15 -9.90699 11.9282)
(1.50479e-15 -9.93983 12.155)
(1.85701e-15 -9.97383 12.3571)
(2.19316e-15 -9.9407 12.5785)
(2.91698e-15 -11.183 14.455)
(1.95312e-15 -10.664 13.4405)
(1.6556e-15 -10.7527 13.898)
(1.42618e-15 -10.752 14.2309)
(1.71392e-15 -10.7754 14.2859)
(1.15002e-15 -10.8405 14.5448)
(6.18985e-16 -10.9155 14.8772)
(-1.35105e-16 -11.0264 15.2311)
(-1.00988e-15 -11.04 15.6998)
(-2.45322e-15 -12.2131 18.4749)
(-2.10847e-15 -11.6446 16.9817)
(-3.29789e-15 -11.7969 17.467)
(-4.13948e-15 -11.8459 17.731)
(-4.96277e-15 -11.9516 18.1131)
(-5.3508e-15 -12.0269 18.5696)
(-5.26226e-15 -12.173 19.0023)
(-5.08199e-15 -12.2273 19.1262)
(-4.54337e-15 -12.3939 19.2704)
(-3.83024e-15 -12.4312 19.3804)
(-2.75586e-15 -12.9562 21.0858)
(-9.91019e-16 -12.4686 20.0054)
(6.20947e-16 -12.5842 20.212)
(1.70958e-15 -12.6334 20.3198)
(2.66685e-15 -12.7522 20.5042)
(3.34579e-15 -12.7782 20.72)
(3.70579e-15 -12.925 21.1895)
(4.05388e-15 -12.9669 21.3092)
(4.31303e-15 -13.0631 21.2861)
(4.91873e-15 -12.3366 20.9451)
(4.6157e-15 -12.2673 20.72)
(4.85493e-15 -12.2655 21.0252)
(4.94619e-15 -12.3554 21.2549)
(5.19109e-15 -12.3127 21.0992)
(5.39318e-15 -12.3808 20.9866)
(5.57511e-15 -12.3954 20.7636)
(5.67953e-15 -12.3324 20.5167)
(5.52373e-15 -12.5392 20.5281)
(6.27476e-15 -10.1578 17.2135)
(5.6829e-15 -10.9557 18.6361)
(5.78041e-15 -10.8192 18.1914)
(5.93803e-15 -10.8304 18.0609)
(6.24779e-15 -10.7932 18.0853)
(6.44327e-15 -10.7468 17.9111)
(6.7031e-15 -10.6477 17.7165)
(7.03087e-15 -10.572 17.5572)
(7.37928e-15 -10.6361 17.3195)
(8.54455e-15 -7.77487 13.9519)
(8.27597e-15 -8.77324 16.7996)
(8.44968e-15 -8.4622 16.4905)
(8.49843e-15 -8.50475 16.2868)
(8.45045e-15 -8.35255 15.7603)
(8.32197e-15 -8.31667 15.0597)
(8.52019e-15 -8.15232 14.261)
(7.72106e-15 -8.01713 13.2605)
(7.0336e-15 -7.76565 11.9325)
(6.2157e-15 -7.60933 10.4549)
(4.01106e-15 -4.23301 3.51986)
(5.07382e-15 -5.81587 7.37585)
(4.26478e-15 -5.29816 5.58413)
(3.69071e-15 -5.39353 4.9834)
(2.9915e-15 -5.03276 4.03587)
(2.35484e-15 -4.94052 3.24902)
(1.44292e-15 -4.73683 1.95815)
(7.00982e-16 -4.38153 0.879023)
(9.45547e-16 -4.3778 1.22788)
(3.02244e-16 -3.47478 -1.26811)
(7.45947e-16 -3.69328 0.913872)
(7.3848e-16 -3.589 0.524872)
(8.74211e-17 -2.45798 -1.89123)
(2.80745e-16 -4.2139 -1.1882)
(1.17596e-16 -3.10352 -1.06797)
(1.13143e-16 -2.8691 -0.707573)
(1.38096e-16 -3.60472 -1.02185)
(1.19678e-16 -2.48509 -0.60723)
(2.12284e-16 -3.20395 -0.919978)
(2.10802e-16 -2.93906 -0.676635)
(1.4826e-16 -2.40505 -0.478113)
(1.49275e-16 -2.9223 -0.708771)
(5.93009e-17 -2.74055 -0.52632)
(1.94671e-17 -2.34335 -0.363309)
(1.11236e-18 -3.13493 -0.504056)
(-2.03875e-18 -2.15504 -0.293571)
(2.92032e-17 -2.84257 -0.417995)
(1.23004e-16 -2.59148 -0.299129)
(9.76093e-17 -2.26592 -0.186956)
(1.90179e-16 -3.05428 -0.242328)
(2.10657e-16 -2.10494 -0.10789)
(3.24312e-16 -2.82395 -0.118262)
(2.92213e-16 -2.68932 -0.0594822)
(2.32358e-16 -2.22145 0.00731827)
(3.15893e-16 -2.77726 0.0367235)
(2.33844e-16 -2.66041 0.065703)
(1.95119e-16 -2.31112 0.0993623)
(1.92118e-16 -3.16333 0.140793)
(8.64779e-17 -2.2176 0.139272)
(8.00614e-17 -2.96937 0.222415)
(6.9475e-17 -2.73778 0.169611)
(-8.72229e-18 -2.42457 0.158929)
(-7.39444e-17 -3.30853 0.194596)
(-9.9445e-17 -2.30766 0.156278)
(-1.75753e-16 -3.11397 0.237583)
(-1.50268e-16 -2.96703 0.153925)
(-1.01676e-16 -2.46401 0.146723)
(-1.36472e-16 -3.08597 0.192003)
(-9.33743e-17 -2.94311 0.127107)
(-4.32333e-17 -2.5562 0.12435)
(-5.29606e-17 -3.49069 0.142003)
(-3.56524e-17 -2.43404 0.111109)
(-7.2123e-17 -3.25238 0.156453)
(-8.46777e-17 -2.9633 0.0692103)
(-1.01526e-16 -2.61019 0.0629862)
(-1.37175e-16 -3.54025 0.0382761)
(-1.13741e-16 -2.43938 0.0224223)
(-2.04801e-16 -3.27959 0.0129594)
(-1.98167e-16 -3.07578 -0.0733178)
(-1.71389e-16 -2.5282 -0.0540665)
(-2.70083e-16 -3.1416 -0.131637)
(-2.47101e-16 -2.95356 -0.179814)
(-2.09889e-16 -2.53 -0.137911)
(-2.98345e-16 -3.42783 -0.236887)
(-2.43517e-16 -2.33507 -0.174885)
(-3.28793e-16 -3.10449 -0.280517)
(-1.84765e-16 -2.77376 -0.302473)
(-1.57153e-16 -2.40273 -0.236627)
(-1.96746e-16 -3.23542 -0.362554)
(-1.20332e-16 -2.16783 -0.260134)
(-1.74365e-16 -2.90608 -0.397626)
(-1.42048e-16 -2.66824 -0.400545)
(-1.17142e-16 -2.14718 -0.316797)
(-1.60839e-16 -2.65455 -0.497166)
(-6.59891e-17 -2.44381 -0.473419)
(-1.06764e-16 -2.04365 -0.373577)
(-1.43026e-16 -2.77428 -0.543472)
(-1.32277e-16 -1.80626 -0.393879)
(-1.77199e-16 -2.4241 -0.601847)
(-1.4446e-16 -2.09216 -0.564897)
(-1.22986e-16 -1.7609 -0.453307)
(-1.74196e-16 -2.39306 -0.65035)
(-1.22455e-16 -1.49499 -0.474541)
(-1.67606e-16 -2.05233 -0.721551)
(-1.13335e-16 -1.79871 -0.674723)
(-1.31223e-16 -1.36536 -0.550055)
(-1.91003e-16 -1.72369 -0.833808)
(-1.81655e-16 -1.49646 -0.762794)
(-1.55946e-16 -1.16274 -0.613014)
(-2.1825e-16 -1.68929 -0.864787)
(-1.80536e-16 -0.90283 -0.639578)
(-2.73315e-16 -1.21763 -0.983584)
(2.7765e-50 0.19064 0.204875)
(1.47997e-49 0.239004 0.202331)
(3.40616e-49 0.269926 0.203778)
(-3.11951e-51 0.300066 0.204511)
(-3.78666e-48 0.329506 0.206668)
(-1.67103e-47 0.357456 0.209023)
(-2.92032e-47 0.38495 0.212172)
(6.42568e-47 0.411708 0.215761)
(5.75647e-46 0.438123 0.219964)
(1.54981e-45 0.464185 0.22467)
(-2.5564e-47 0.490068 0.22993)
(-1.47081e-44 0.51583 0.235706)
(-5.09436e-44 0.541574 0.242011)
(-6.98215e-44 0.567366 0.248835)
(6.35605e-45 0.593283 0.256179)
(3.31447e-43 0.619387 0.264043)
(5.00988e-42 0.64574 0.272427)
(3.93958e-41 0.672401 0.281335)
(1.19231e-40 0.699422 0.29077)
(-3.01063e-40 0.726855 0.300736)
(-4.05505e-39 0.754743 0.31124)
(-1.28074e-38 0.783128 0.322285)
(1.78617e-38 0.812042 0.333876)
(2.95658e-37 0.841509 0.346017)
(9.15289e-37 0.871542 0.358708)
(-9.84492e-37 0.90214 0.371947)
(-1.7611e-35 0.933285 0.385727)
(-5.33533e-35 0.964942 0.400034)
(4.37083e-35 0.997053 0.41485)
(8.80642e-34 1.02954 0.430148)
(2.68737e-33 1.06231 0.445893)
(-1.19175e-33 1.09525 0.462045)
(-3.68449e-32 1.12826 0.478559)
(-1.19059e-31 1.16123 0.495386)
(-1.12256e-32 1.19409 0.512478)
(1.25966e-30 1.22679 0.529791)
(4.60315e-30 1.25933 0.547281)
(3.47748e-30 1.29176 0.564912)
(-3.31798e-29 1.32417 0.582646)
(-1.50645e-28 1.35669 0.600444)
(-2.24493e-28 1.38943 0.618262)
(5.62669e-28 1.42256 0.636048)
(3.94748e-27 1.45623 0.653747)
(9.16471e-27 1.49067 0.671297)
(-1.86447e-28 1.52613 0.688627)
(-7.4085e-26 1.56291 0.705626)
(-2.59774e-25 1.60119 0.722099)
(-3.55132e-25 1.6409 0.737705)
(6.52234e-25 1.68158 0.751913)
(4.79617e-24 1.72236 0.763972)
(1.23394e-23 1.76203 0.772885)
(1.17945e-23 1.799 0.777383)
(-3.56262e-23 1.83133 0.775889)
(-1.93447e-22 1.85664 0.766477)
(-4.75691e-22 1.87188 0.746814)
(-6.6081e-22 1.87303 0.714129)
(-6.87485e-23 1.85459 0.665234)
(2.53905e-21 1.80888 0.596671)
(9.39688e-21 1.72538 0.504973)
(2.74785e-20 1.58813 0.387509)
(8.18176e-20 1.3727 0.243772)
(2.33201e-19 1.03906 0.0750087)
(5.15842e-19 0.44023 -0.11932)
(-8.4572e-22 -0.601621 -0.309458)
(-2.86045e-20 -1.1711 -0.345509)
(-6.81879e-21 -1.69885 -0.366322)
(-4.35013e-22 -2.17574 -0.382472)
(7.13252e-23 -2.62861 -0.392011)
(3.54093e-24 -3.01026 -0.405368)
(-1.31951e-23 -3.32821 -0.400181)
(-2.56187e-23 -3.52314 -0.403941)
(2.42946e-23 -3.69516 -0.365885)
(-9.9831e-23 -3.70529 -0.366617)
(3.93985e-22 -3.90087 -0.280092)
(-1.26675e-21 -3.70663 -0.347517)
(1.69931e-20 -4.22944 -0.16754)
(-3.03801e-19 -3.67443 -0.447946)
(4.29246e-18 -4.62961 -0.175299)
(1.22004e-17 -5.92587 -0.559488)
(6.36114e-50 0.19119 0.223481)
(4.21557e-49 0.239269 0.219686)
(1.151e-48 0.269643 0.221039)
(8.7444e-49 0.299652 0.221476)
(-8.77635e-48 0.328825 0.223625)
(-4.92379e-47 0.356608 0.225967)
(-1.15426e-46 0.3839 0.229216)
(6.6522e-47 0.410486 0.232939)
(1.57079e-45 0.43672 0.237338)
(5.62048e-45 0.46261 0.242279)
(5.31201e-45 0.488322 0.247819)
(-3.80658e-44 0.513915 0.253912)
(-2.0106e-43 0.539491 0.260574)
(-4.27115e-43 0.565116 0.267789)
(6.99375e-44 0.590866 0.27556)
(4.2455e-42 0.616803 0.283884)
(2.29316e-41 0.64299 0.292762)
(8.65039e-41 0.669482 0.302196)
(1.23115e-40 0.696335 0.312189)
(-1.11056e-39 0.723597 0.322745)
(-8.7299e-39 0.751314 0.333868)
(-2.25408e-38 0.779525 0.345562)
(5.3075e-38 0.808264 0.357829)
(6.22507e-37 0.837556 0.37067)
(1.77347e-36 0.867415 0.384081)
(-2.45374e-36 0.89784 0.398056)
(-3.63479e-35 0.928817 0.412581)
(-1.06369e-34 0.96031 0.427637)
(9.66928e-35 0.992265 0.443194)
(1.78361e-33 1.02461 0.45922)
(5.37774e-33 1.05724 0.47567)
(-2.41042e-33 1.09007 0.4925)
(-7.32238e-32 1.12297 0.509659)
(-2.36085e-31 1.15585 0.527102)
(-2.64739e-32 1.18863 0.544784)
(2.45745e-30 1.22127 0.562669)
(8.98538e-30 1.25376 0.580728)
(6.87028e-30 1.28615 0.598937)
(-6.38109e-29 1.31854 0.617268)
(-2.89382e-28 1.35103 0.635692)
(-4.27733e-28 1.38378 0.65417)
(1.08736e-27 1.41692 0.672654)
(7.52624e-27 1.45063 0.691097)
(1.71843e-26 1.48512 0.709451)
(-1.69825e-27 1.52067 0.727658)
(-1.43715e-25 1.55758 0.745601)
(-4.90983e-25 1.59608 0.763041)
(-6.31365e-25 1.63616 0.77954)
(1.40831e-24 1.67741 0.794437)
(9.47744e-24 1.71905 0.806841)
(2.36787e-23 1.75995 0.815614)
(2.06456e-23 1.7986 0.819349)
(-7.78995e-23 1.83317 0.816331)
(-4.05882e-22 1.8614 0.804472)
(-1.02422e-21 1.88038 0.78124)
(-1.56416e-21 1.88624 0.743605)
(-6.31919e-22 1.87357 0.688056)
(5.26996e-21 1.83475 0.610799)
(2.55814e-20 1.75913 0.507981)
(9.05548e-20 1.63034 0.376769)
(2.90473e-19 1.42334 0.217102)
(8.08826e-19 1.09584 0.0282208)
(1.68695e-18 0.510712 -0.181694)
(9.25175e-20 -0.6266 -0.385526)
(-3.25992e-20 -1.20631 -0.379457)
(-8.05605e-21 -1.72952 -0.383614)
(-4.82283e-22 -2.20659 -0.394527)
(9.09906e-23 -2.65853 -0.398281)
(6.75384e-24 -3.03897 -0.406068)
(-1.31497e-23 -3.35461 -0.397055)
(-2.56679e-23 -3.54935 -0.397958)
(2.40545e-23 -3.71726 -0.358337)
(-9.95992e-23 -3.72829 -0.358575)
(3.93028e-22 -3.91195 -0.272636)
(-1.2843e-21 -3.72404 -0.340031)
(1.74583e-20 -4.21908 -0.162868)
(-3.10564e-19 -3.67211 -0.438883)
(4.24348e-18 -4.60929 -0.172376)
(1.28175e-17 -5.82879 -0.562109)
(1.11358e-49 0.191551 0.233422)
(9.36377e-49 0.239469 0.22914)
(2.90228e-48 0.269525 0.23043)
(3.64376e-48 0.299457 0.230717)
(-1.54755e-47 0.328484 0.232863)
(-1.11437e-46 0.356178 0.235204)
(-3.15198e-46 0.383364 0.23851)
(-8.09464e-47 0.40986 0.242309)
(3.26996e-45 0.436 0.246817)
(1.44631e-44 0.461802 0.25189)
(2.21206e-44 0.487425 0.257585)
(-7.13441e-44 0.512932 0.263854)
(-5.28327e-43 0.538421 0.270712)
(-1.37947e-42 0.563961 0.278143)
(-1.51506e-43 0.589626 0.286149)
(1.4021e-41 0.615478 0.294725)
(6.75377e-41 0.641579 0.303875)
(1.71822e-40 0.667986 0.313598)
(-3.09121e-41 0.694752 0.323897)
(-3.00855e-39 0.721928 0.334776)
(-1.59967e-38 0.749557 0.346239)
(-2.99681e-38 0.777682 0.358287)
(1.29273e-37 0.806334 0.370923)
(1.09152e-36 0.835539 0.384145)
(2.71355e-36 0.865313 0.397948)
(-5.34497e-36 0.895656 0.412322)
(-6.1803e-35 0.926553 0.427249)
(-1.68597e-34 0.957972 0.442706)
(1.94027e-34 0.989859 0.45866)
(2.95981e-33 1.02214 0.475072)
(8.57061e-33 1.05472 0.491896)
(-4.8088e-33 1.0875 0.509083)
(-1.19023e-31 1.12036 0.526584)
(-3.73274e-31 1.15321 0.544352)
(-1.62871e-32 1.18596 0.56235)
(3.93039e-30 1.21857 0.580547)
(1.40094e-29 1.25104 0.598922)
(9.77393e-30 1.28341 0.617457)
(-1.01678e-28 1.31577 0.636133)
(-4.45701e-28 1.34825 0.654922)
(-6.19174e-28 1.38099 0.673786)
(1.81007e-27 1.41413 0.69268)
(1.16249e-26 1.44784 0.711562)
(2.50284e-26 1.48233 0.730396)
(-8.88933e-27 1.5179 0.749132)
(-2.32391e-25 1.55486 0.767651)
(-7.39929e-25 1.59347 0.785679)
(-7.9828e-25 1.63376 0.802719)
(2.76513e-24 1.67535 0.818034)
(1.56686e-23 1.7175 0.830661)
(3.62841e-23 1.75911 0.839398)
(2.26261e-23 1.79872 0.842773)
(-1.60569e-22 1.83456 0.83901)
(-7.48769e-22 1.86441 0.825945)
(-1.87185e-21 1.88546 0.80094)
(-2.88627e-21 1.8939 0.760819)
(-8.40902e-22 1.8844 0.701879)
(1.33895e-20 1.84937 0.62013)
(6.71187e-20 1.77807 0.511461)
(2.42251e-19 1.65384 0.372873)
(7.55944e-19 1.45149 0.204501)
(1.99589e-18 1.12631 0.00339824)
(3.94884e-18 0.545245 -0.208244)
(4.27751e-19 -0.581377 -0.4645)
(-2.66779e-20 -1.19018 -0.442241)
(-1.21327e-20 -1.71296 -0.415358)
(-7.76738e-22 -2.19021 -0.413914)
(1.25246e-22 -2.64318 -0.409231)
(1.24858e-23 -3.02608 -0.40838)
(-1.3061e-23 -3.34406 -0.393226)
(-2.57388e-23 -3.54378 -0.38975)
(2.37575e-23 -3.7139 -0.347477)
(-9.93158e-23 -3.73174 -0.346599)
(3.91922e-22 -3.91043 -0.26137)
(-1.30571e-21 -3.73372 -0.328276)
(1.80259e-20 -4.20793 -0.154574)
(-3.18361e-19 -3.67155 -0.42677)
(4.18394e-18 -4.59719 -0.161807)
(1.3274e-17 -5.75669 -0.571285)
(1.71381e-49 0.192123 0.245025)
(2.02094e-48 0.239777 0.240289)
(7.05154e-48 0.269381 0.241528)
(1.17402e-47 0.299188 0.241679)
(-2.40693e-47 0.327996 0.243835)
(-2.43528e-46 0.355552 0.246194)
(-8.07292e-46 0.382578 0.249579)
(-6.93311e-46 0.408936 0.253482)
(6.42596e-45 0.434935 0.258131)
(3.50133e-44 0.460603 0.26337)
(7.03988e-44 0.486091 0.269259)
(-1.14709e-43 0.511468 0.275747)
(-1.27123e-42 0.536827 0.282848)
(-3.89061e-42 0.562239 0.290544)
(-1.72414e-42 0.587775 0.298838)
(3.67318e-41 0.613499 0.307725)
(1.80019e-40 0.639472 0.317206)
(3.79498e-40 0.665751 0.327281)
(-4.87205e-40 0.692388 0.337954)
(-7.61101e-39 0.719433 0.349226)
(-3.08956e-38 0.746932 0.361102)
(-3.63299e-38 0.774926 0.373583)
(3.05263e-37 0.803447 0.386669)
(1.96873e-36 0.832522 0.400356)
(4.09145e-36 0.862167 0.414638)
(-1.16377e-35 0.892384 0.4295)
(-1.0661e-34 0.923161 0.444923)
(-2.6518e-34 0.954465 0.460876)
(3.95086e-34 0.986245 0.477322)
(4.94087e-33 1.01843 0.494218)
(1.35483e-32 1.05092 0.511511)
(-9.79214e-33 1.08362 0.529149)
(-1.93548e-31 1.11642 0.547081)
(-5.83722e-31 1.14921 0.565262)
(3.56694e-32 1.18192 0.583658)
(6.26906e-30 1.21448 0.602246)
(2.1507e-29 1.24691 0.621012)
(1.26921e-29 1.27925 0.639948)
(-1.61942e-28 1.31159 0.659042)
(-6.73043e-28 1.34405 0.67827)
(-8.36185e-28 1.37677 0.697598)
(3.0755e-27 1.40991 0.716983)
(1.76527e-26 1.44362 0.73639)
(3.41819e-26 1.47813 0.755794)
(-2.93478e-26 1.51373 0.775158)
(-3.7868e-25 1.55077 0.794363)
(-1.07132e-24 1.58955 0.813107)
(-7.36546e-25 1.63014 0.830828)
(5.76563e-24 1.67222 0.846702)
(2.63818e-23 1.71511 0.859687)
(5.31195e-23 1.75775 0.868495)
(4.02958e-24 1.79875 0.871579)
(-3.67544e-22 1.83642 0.867089)
(-1.47968e-21 1.86864 0.852769)
(-3.51159e-21 1.8927 0.82586)
(-4.89314e-21 1.90492 0.78302)
(1.8358e-21 1.90006 0.720323)
(4.11544e-20 1.87057 0.633537)
(1.85285e-19 1.8056 0.518245)
(6.3364e-19 1.68815 0.371244)
(1.86603e-18 1.49268 0.192556)
(4.64707e-18 1.17121 -0.0227698)
(8.7703e-18 0.601372 -0.243354)
(1.51056e-18 -0.551797 -0.528565)
(4.24162e-20 -1.19192 -0.527771)
(-2.5739e-20 -1.71351 -0.464256)
(-2.18057e-21 -2.18752 -0.441051)
(2.09673e-22 -2.64023 -0.424968)
(2.49317e-23 -3.0241 -0.412851)
(-1.31832e-23 -3.34265 -0.389097)
(-2.58392e-23 -3.54513 -0.379748)
(2.34483e-23 -3.71559 -0.333653)
(-9.90228e-23 -3.73768 -0.331155)
(3.90857e-22 -3.91102 -0.246489)
(-1.32739e-21 -3.74248 -0.31306)
(1.86009e-20 -4.19882 -0.142928)
(-3.25751e-19 -3.67059 -0.412177)
(4.12458e-18 -4.58495 -0.148778)
(1.3874e-17 -5.69962 -0.542748)
(1.94102e-49 0.192684 0.256011)
(4.19509e-48 0.240089 0.250985)
(1.64683e-47 0.269278 0.252181)
(3.33706e-47 0.298961 0.252232)
(-2.7977e-47 0.327567 0.254407)
(-5.09239e-46 0.354994 0.256796)
(-1.95625e-45 0.38187 0.260266)
(-2.63134e-45 0.408103 0.264279)
(1.16425e-44 0.433971 0.269071)
(8.01228e-44 0.459517 0.274478)
(1.96511e-43 0.484883 0.280561)
(-1.32361e-43 0.510141 0.287267)
(-2.84209e-42 0.535382 0.294609)
(-1.00348e-41 0.560677 0.302568)
(-7.90455e-42 0.586097 0.311146)
(8.42939e-41 0.611705 0.320338)
(4.44829e-40 0.637562 0.330145)
(8.94042e-40 0.663724 0.340566)
(-1.5225e-39 0.690244 0.351606)
(-1.80878e-38 0.717172 0.363264)
(-6.22194e-38 0.744554 0.375545)
(-3.87936e-38 0.772429 0.38845)
(6.90176e-37 0.800833 0.401976)
(3.62859e-36 0.829793 0.41612)
(6.09098e-36 0.859324 0.430872)
(-2.47349e-35 0.889432 0.446213)
(-1.85132e-34 0.920104 0.462121)
(-4.11774e-34 0.951311 0.478562)
(7.93493e-34 0.983003 0.495492)
(8.21219e-33 1.01511 0.512862)
(2.10445e-32 1.04753 0.530617)
(-1.95521e-32 1.08018 0.548698)
(-3.10612e-31 1.11293 0.567055)
(-8.90947e-31 1.14568 0.585643)
(1.76391e-31 1.17834 0.604432)
(9.7912e-30 1.21088 0.623406)
(3.19e-29 1.24327 0.64256)
(1.40264e-29 1.27557 0.661895)
(-2.51541e-28 1.30788 0.681405)
(-9.69095e-28 1.34032 0.701074)
(-9.85244e-28 1.37302 0.720866)
(5.16264e-27 1.40615 0.740743)
(2.54133e-26 1.43986 0.760673)
(4.02578e-26 1.47436 0.780648)
(-7.91582e-26 1.50997 0.800645)
(-6.00868e-25 1.54706 0.820551)
(-1.38721e-24 1.58598 0.840035)
(1.77919e-25 1.62685 0.858471)
(1.21975e-23 1.66941 0.874956)
(4.36125e-23 1.71301 0.888366)
(6.66203e-23 1.75664 0.897338)
(-8.78927e-23 1.79897 0.900258)
(-8.79147e-22 1.83836 0.895209)
(-3.00439e-21 1.8728 0.879858)
(-6.38916e-21 1.89969 0.851338)
(-6.4123e-21 1.91545 0.806148)
(1.68732e-20 1.91496 0.740151)
(1.26797e-19 1.89069 0.648891)
(4.99395e-19 1.83169 0.527662)
(1.58068e-18 1.72069 0.373105)
(4.35328e-18 1.53186 0.184884)
(1.02266e-17 1.21398 -0.043897)
(1.85133e-17 0.654222 -0.274735)
(4.57513e-18 -0.524182 -0.591787)
(3.44649e-19 -1.20191 -0.627608)
(-6.5492e-20 -1.72842 -0.534004)
(-7.74452e-21 -2.19686 -0.47925)
(4.33983e-22 -2.64775 -0.446504)
(6.24233e-23 -3.0317 -0.420344)
(-1.42187e-23 -3.34949 -0.385185)
(-2.6048e-23 -3.55339 -0.3681)
(2.31417e-23 -3.72264 -0.316807)
(-9.87262e-23 -3.7475 -0.312008)
(3.89876e-22 -3.91402 -0.227651)
(-1.34787e-21 -3.75257 -0.294053)
(1.91511e-20 -4.18969 -0.127577)
(-3.32312e-19 -3.66941 -0.395012)
(4.06912e-18 -4.57104 -0.130778)
(1.39085e-17 -5.6364 -0.547062)
(5.26882e-51 0.193309 0.266927)
(8.35723e-48 0.24043 0.26171)
(3.70958e-47 0.269184 0.262875)
(8.75335e-47 0.298724 0.262859)
(-3.72808e-48 0.327106 0.265063)
(-1.01677e-45 0.354388 0.267498)
(-4.52242e-45 0.381101 0.271064)
(-7.98841e-45 0.407194 0.275197)
(1.88386e-44 0.432919 0.280143)
(1.74318e-43 0.45833 0.285728)
(5.03571e-43 0.483562 0.292016)
(4.76467e-45 0.508689 0.298949)
(-5.95334e-42 0.533802 0.306542)
(-2.41862e-41 0.558968 0.314773)
(-2.74014e-41 0.584261 0.323645)
(1.74612e-40 0.609742 0.333152)
(1.033e-39 0.635472 0.343295)
(2.15792e-39 0.661507 0.354073)
(-3.44014e-39 0.687899 0.36549)
(-4.06283e-38 0.714699 0.377546)
(-1.29547e-37 0.741952 0.390243)
(-4.04485e-38 0.769699 0.403583)
(1.48917e-36 0.797975 0.417563)
(6.8525e-36 0.826808 0.432177)
(9.32556e-36 0.856216 0.447411)
(-5.07521e-35 0.886205 0.463247)
(-3.25556e-34 0.916765 0.479656)
(-6.44698e-34 0.947868 0.4966)
(1.54661e-33 0.979465 0.514031)
(1.36682e-32 1.01149 0.531894)
(3.25712e-32 1.04384 0.550127)
(-3.72799e-32 1.07642 0.568671)
(-4.93459e-31 1.10912 0.58747)
(-1.33956e-30 1.14183 0.606483)
(4.53721e-31 1.17446 0.625682)
(1.49189e-29 1.20695 0.645059)
(4.57581e-29 1.23931 0.664617)
(1.21128e-29 1.27158 0.684367)
(-3.74707e-28 1.30385 0.704312)
(-1.30744e-27 1.33625 0.724439)
(-9.00704e-28 1.36893 0.744714)
(8.2858e-27 1.40204 0.765101)
(3.3258e-26 1.43574 0.785575)
(3.2735e-26 1.47023 0.806142)
(-1.84807e-25 1.50584 0.8268)
(-8.91769e-25 1.54298 0.847442)
(-1.35111e-24 1.58205 0.867717)
(3.40403e-24 1.62323 0.886935)
(2.52536e-23 1.66631 0.90411)
(6.75708e-23 1.71069 0.91804)
(4.72711e-23 1.75541 0.927288)
(-3.93333e-22 1.79919 0.930174)
(-2.09591e-21 1.84048 0.924724)
(-6.02606e-21 1.87735 0.908531)
(-1.05262e-20 1.90732 0.878627)
(-1.73467e-21 1.92697 0.831363)