/*--------------------------------*- C++ -*----------------------------------*\
| =========                 |                                                 |
| \\      /  F ield         | OpenFOAM: The Open Source CFD Toolbox           |
|  \\    /   O peration     | Version:  4.1                                   |
|   \\  /    A nd           | Web:      www.OpenFOAM.org                      |
|    \\/     M anipulation  |                                                 |
\*---------------------------------------------------------------------------*/
FoamFile
{
    version     2.0;
    format      ascii;
    class       volScalarField;
    location    "17";
    object      p;
}
// * * * * * * * * * * * * * * * * * * * * * * * * * * * * * * * * * * * * * //

dimensions      [0 2 -2 0 0 0 0];

internalField   nonuniform List<scalar> 
6785
(
634.392
580.196
528.329
479.621
434.455
392.145
352.507
315.247
279.928
246.286
214.939
186.512
157.657
122.714
92.2193
161.249
139.377
134.689
131.164
125.799
120.282
115.328
111.128
107.837
105.569
104.531
105.155
107.443
109.591
109.543
63.1264
57.4841
63.4236
67.1447
69.9144
73.2335
76.8344
80.4826
84.1125
87.5766
90.6609
93.4532
96.3175
98.6411
99.2262
107.628
107.538
111.932
112.05
111.892
111.944
111.719
111.234
110.564
109.736
108.72
107.541
106.509
106.157
106.391
120.949
121.857
123.597
121.857
120.559
119.488
118.213
116.944
115.799
114.82
114.021
113.374
112.875
112.783
112.906
110.47
111.242
112.35
111.877
111.98
112.204
112.319
112.521
112.819
113.168
113.549
113.932
114.192
114.442
114.368
106.402
107.192
108.65
109.532
110.361
110.981
111.459
111.938
112.379
112.748
113.042
113.262
113.278
113.306
112.866
108.543
109.082
110.533
111.718
112.284
112.551
112.727
112.881
112.978
113.022
113.028
113.011
112.788
112.723
112.178
110.85
110.963
112.026
113.019
113.141
113.098
113.057
113.015
112.949
112.875
112.798
112.735
112.417
112.351
111.793
111.318
111.175
111.871
112.705
112.614
112.505
112.43
112.354
112.27
112.195
112.119
112.072
111.708
111.648
111.081
110.274
110.104
110.615
111.445
111.364
111.339
111.329
111.297
111.258
111.225
111.173
111.158
110.777
110.735
110.159
108.395
108.319
108.794
109.685
109.721
109.851
109.962
110.041
110.109
110.171
110.193
110.244
109.889
109.906
109.362
106.196
106.181
106.711
107.751
107.938
108.257
108.529
108.776
109.011
109.247
109.419
109.629
109.359
109.489
109.085
102.06
102.412
103.281
104.606
105.285
106.268
107.233
108.193
109.129
109.989
110.744
111.34
111.427
111.827
111.306
103.182
100.505
98.8302
98.4013
98.0853
98.8791
100.149
101.837
103.64
105.556
107.316
108.861
110.189
111.929
113.03
156.967
156.88
156.953
156.742
156.728
156.547
156.47
156.071
155.952
155.861
155.714
154.997
154.753
154.699
153.93
153.62
153.971
153.854
152.534
152.444
152.582
151.419
150.897
151.832
151.813
150.291
149.666
150.781
151.089
149.168
149.488
150.174
148.718
148.071
149.612
150.349
148.398
148.864
149.894
148.561
147.995
149.66
150.456
149.042
148.555
150.072
151.028
149.548
150.104
151.26
150.375
150.093
151.3
152.163
151.355
151.183
152.06
152.905
152.23
152.468
153.319
152.978
152.964
153.246
153.852
153.636
153.521
154.028
153.928
153.979
153.737
153.997
153.918
153.95
153.464
153.368
153.415
152.296
150.928
151.116
151.611
151.247
150.189
155.328
148.268
148.778
148.779
148.701
148.748
149.08
148.936
147.905
152.244
143.672
143.815
144.511
144.97
144.988
145.382
145.125
143.766
145.935
138.223
137.984
137.674
137.715
137.95
137.929
137.902
137.28
135.149
132.643
125.811
125.018
124.024
122.983
122.746
123.085
122.267
119.061
108.166
106.419
106.287
105.332
103.334
101.406
100.372
99.9181
97.3373
82.819
81.529
79.2512
78.1725
76.45
73.4838
70.4307
67.65
64.7342
49.3539
55.2415
51.9611
48.8104
45.3522
42.2612
38.7114
34.7279
31.7503
30.5111
15.121
25.9164
22.263
20.2419
18.1672
14.8246
10.5044
9.85787
12.4553
-5.0844
12.9181
10.9604
9.17088
10.3606
10.1604
10.3495
10.4984
10.5575
10.6553
10.4588
10.5245
10.5685
10.4149
10.44
10.4278
10.514
10.4955
10.1158
10.1412
10.0136
10.2876
10.2339
9.37173
9.97432
9.9048
8.12645
8.1255
7.79651
8.89648
9.18337
6.10855
6.12922
5.69195
7.29155
7.70728
4.03255
7.21079
8.38648
3.24852
3.11475
2.60548
6.07856
8.26308
2.34108
2.49331
1.93304
5.14125
6.50869
0.842909
6.20367
8.67204
2.23472
2.28123
1.73757
6.24988
9.21044
3.07464
3.6482
3.17473
6.80268
8.31415
3.40609
8.41543
10.3167
5.60407
6.40717
6.06341
9.54948
11.062
7.58051
8.67574
8.29511
10.4704
10.4433
8.05957
10.2148
9.91367
7.13881
6.48695
4.46084
4.01232
2.63802
0.00970801
-0.00608681
-0.00236436
-0.00166131
-0.00102945
-0.000371298
0.000666144
0.0017944
0.00298005
0.00398397
0.00463466
0.00507709
0.00563453
0.00585823
0.00613712
0.00658054
0.00718241
0.00769057
0.00837044
0.00952691
0.0116379
0.014683
0.0177157
0.0197948
0.0213373
0.0238476
0.0275122
0.0318646
0.0366342
0.0419343
0.0484976
0.0571775
0.0689247
0.0850471
0.107859
0.141001
0.189491
0.259625
0.358615
0.49323
0.666898
0.871746
1.06567
1.12412
0.803598
-0.128871
-1.52085
-2.68833
-3.0842
-3.01996
-3.24279
-4.04934
-4.94345
-5.19293
-4.88385
-4.63747
-3.46823
-1.17764
0.136294
0.410707
0.139924
0.098852
0.0667331
0.0589405
0.0540903
0.0301495
0.0532791
0.0184659
0.0224056
0.0155907
0.0310292
-0.0043653
-0.00212738
0.0237948
-0.00845755
0.0510362
-0.0431669
0.21018
0.0227897
0.025462
-0.00576064
-0.00165209
-0.00150552
-0.000110262
0.00166737
0.00450447
0.00783339
0.0111987
0.0140358
0.0158255
0.0169468
0.0177479
0.0173229
0.0172543
0.0183383
0.0205866
0.0234274
0.0271284
0.0318788
0.0379838
0.0445137
0.0496495
0.0533342
0.0581289
0.0664569
0.0747209
0.0832757
0.0926626
0.102816
0.114567
0.127661
0.142288
0.158157
0.175369
0.194024
0.214531
0.238697
0.272741
0.331212
0.443487
0.650044
0.96766
1.28437
1.22464
0.222612
-1.96027
-4.7378
-7.11862
-8.54749
-8.9306
-8.29345
-6.61447
-4.03991
-1.47565
-0.00492172
0.772362
0.51472
0.340315
0.434043
0.245999
0.152851
0.0742264
0.0688937
0.0732409
0.0441128
0.0769215
0.0557571
0.0819132
0.102482
0.0808042
0.0145396
0.00313839
0.0263333
-0.014074
0.0611568
-0.0808776
1.28369
1.44986
0.0269471
-0.00692082
-0.00173092
-0.0023688
-0.000479391
0.0019238
0.00567205
0.0102045
0.0149095
0.0193087
0.0231712
0.0265058
0.028187
0.0281188
0.0280678
0.0296796
0.0331921
0.0386169
0.0460929
0.0551045
0.0648735
0.0736516
0.080982
0.0894796
0.102165
0.118697
0.132808
0.14755
0.167141
0.188532
0.21329
0.240134
0.270265
0.304358
0.34265
0.385164
0.433214
0.489746
0.565114
0.679377
0.873239
1.19444
1.65486
2.10081
2.07969
0.958061
-1.50813
-4.66001
-7.34749
-8.75006
-8.55328
-6.8037
-3.84868
-0.392343
2.20403
2.96658
2.69596
1.19148
0.530617
0.469063
0.293645
0.168768
0.0385735
0.0232773
0.0400229
0.0170841
0.0566239
0.0787932
0.154659
0.191004
0.131046
0.0357098
0.00528253
0.0217887
-0.0239108
0.0570503
-0.0625943
1.67382
2.25661
0.0277501
-0.00495154
0.00119838
0.000617427
0.00315471
0.00619581
0.0106464
0.0158252
0.0211141
0.0262157
0.0316003
0.0363652
0.0383051
0.0393066
0.0404549
0.0439296
0.0504047
0.0599811
0.0718135
0.0843434
0.0960757
0.106501
0.117782
0.134043
0.156393
0.181454
0.204461
0.228533
0.258557
0.294884
0.338734
0.390033
0.45083
0.519637
0.604648
0.710243
0.844133
1.01362
1.23744
1.54273
1.96774
2.53794
3.20625
3.73214
3.61431
2.2925
-0.268401
-3.21241
-5.32758
-5.8933
-4.87215
-2.64963
0.150094
2.68355
3.68733
2.93068
2.09389
0.816457
0.745999
0.633844
0.378674
0.206559
0.0499588
0.0218443
0.0390404
0.0223964
0.0705533
0.141821
0.253636
0.297974
0.206071
0.0815142
0.0347079
0.0313928
-0.0212558
0.066291
-0.093897
1.40293
1.88379
0.0259532
-0.00447969
0.00243459
0.00233626
0.0058544
0.00998931
0.0156942
0.022089
0.0284927
0.0344644
0.0403807
0.0449488
0.0467448
0.0484203
0.05105
0.0569917
0.0675124
0.0817087
0.0972925
0.112095
0.124837
0.137066
0.15274
0.176245
0.208202
0.244603
0.279752
0.31564
0.359665
0.413364
0.477043
0.557363
0.656774
0.77389
0.919312
1.10512
1.34711
1.65969
2.06394
2.58861
3.25297
4.04392
4.8414
5.34065
5.05872
3.60251
1.17117
-1.27546
-2.65634
-2.54723
-1.24939
0.635687
2.48463
3.58071
3.00109
1.42618
1.00154
0.3338
0.824868
0.719806
0.445085
0.230419
0.0754001
0.0387502
0.0406977
0.0321831
0.097267
0.211255
0.346034
0.401068
0.283606
0.132814
0.0648444
0.0385186
-0.0165112
0.0790123
-0.130297
1.08134
1.3377
0.024936
-0.00347257
0.00432671
0.00460581
0.00902915
0.0143649
0.0215117
0.0293384
0.0371156
0.0441211
0.0499815
0.0539488
0.0561609
0.0587926
0.0635791
0.0728841
0.088058
0.107012
0.126549
0.14444
0.159245
0.173109
0.19102
0.219517
0.260309
0.307298
0.353152
0.403248
0.464812
0.539182
0.625423
0.735817
0.875351
1.04843
1.26211
1.5347
1.88725
2.34188
2.91513
3.62532
4.46806
5.38143
6.19133
6.57838
6.13697
4.66899
2.53213
0.639386
-0.202085
0.120861
1.14323
2.30625
3.17247
3.18507
1.75766
0.270144
0.491485
0.0956063
0.716365
0.657041
0.435559
0.227899
0.0840424
0.0489249
0.0444037
0.04664
0.127919
0.273201
0.423195
0.486351
0.346285
0.172907
0.085067
0.0397088
-0.0115973
0.0867232
-0.140604
0.899353
0.851446
0.0244827
-0.00245335
0.00628291
0.00688927
0.012167
0.0185743
0.0270526
0.0361342
0.0450202
0.052881
0.0589109
0.0629621
0.0659289
0.0695958
0.0762675
0.0885165
0.107633
0.131413
0.156417
0.179873
0.198901
0.21545
0.23697
0.272595
0.322009
0.377028
0.432557
0.49713
0.577007
0.674392
0.787425
0.929834
1.11073
1.3419
1.63012
1.99494
2.46014
3.04987
3.77518
4.63429
5.59992
6.56678
7.33251
7.60472
7.08901
5.7432
3.98516
2.57115
2.0148
2.23214
2.79012
3.31949
3.55398
2.99579
1.32595
0.244478
0.58012
0.12441
0.533868
0.534803
0.391257
0.223213
0.0738913
0.0423467
0.041188
0.0635751
0.161764
0.327481
0.489763
0.554447
0.394387
0.200405
0.0985198
0.0384962
-0.0067139
0.0860132
-0.129415
0.755455
0.658073
0.0248508
-0.000980794
0.00869338
0.00960244
0.0155707
0.0227476
0.0322254
0.0424593
0.0524559
0.0614587
0.0687007
0.0742797
0.0789268
0.0840867
0.0921595
0.106108
0.127623
0.155295
0.185677
0.214766
0.238317
0.259234
0.28807
0.33394
0.393094
0.456714
0.522937
0.603121
0.701829
0.82327
0.967248
1.14623
1.37209
1.66306
2.03022
2.49218
3.07364
3.79604
4.66487
5.65601
6.71609
7.71694
8.44768
8.66134
8.18189
7.06415
5.71307
4.68421
4.25667
4.28333
4.46204
4.60927
4.51835
3.66922
1.96552
1.05013
0.847752
0.300078
0.412216
0.435191
0.37191
0.230595
0.0543222
0.0216933
0.0240103
0.0707352
0.202783
0.381168
0.551846
0.611201
0.434259
0.221734
0.110345
0.0382546
-0.00284932
0.078505
-0.105309
0.579737
0.549187
0.0259649
0.00113337
0.0117713
0.0129254
0.0191772
0.0266013
0.0364581
0.0473684
0.0583971
0.068779
0.0780622
0.0863686
0.0939999
0.101864
0.112028
0.12777
0.151475
0.182634
0.217629
0.250988
0.27812
0.304239
0.342618
0.400746
0.470982
0.544566
0.624125
0.722608
0.84243
0.989473
1.16772
1.38928
1.66586
2.02045
2.47051
3.03377
3.73473
4.59086
5.60105
6.72024
7.86759
8.90665
9.63669
9.85899
9.49486
8.65596
7.69334
6.9712
6.61029
6.48418
6.42172
6.34924
6.03334
4.93006
3.13184
2.04176
1.03921
0.50872
0.374591
0.353468
0.389484
0.248072
0.0598765
0.0237541
0.00853068
0.0617371
0.23543
0.432795
0.610308
0.659134
0.468947
0.244262
0.124979
0.0421901
0.00015803
0.0666537
-0.0735853
0.402248
0.408228
0.0277215
0.00417946
0.0159559
0.0174362
0.0238039
0.0311026
0.0408809
0.0519138
0.063561
0.0751168
0.0865325
0.0978793
0.109161
0.120641
0.133932
0.152532
0.179535
0.214928
0.254432
0.290985
0.321153
0.353658
0.40317
0.473938
0.556282
0.641733
0.736917
0.856093
1.0009
1.17641
1.39293
1.66213
1.99714
2.42207
2.9602
3.63084
4.45528
5.4474
6.59733
7.84292
9.07737
10.1596
10.9151
11.1947
10.9833
10.4249
9.79498
9.30371
8.97579
8.7311
8.48597
8.2107
7.62585
6.20227
4.16171
2.75606
1.13429
0.681361
0.347618
0.297207
0.397087
0.229188
0.0290652
0.00860129
0.00410172
0.0634869
0.249873
0.475502
0.663594
0.701832
0.501546
0.270753
0.144477
0.0517414
0.00320852
0.0511531
-0.0375583
0.270788
0.325937
0.0295071
0.00742178
0.0206509
0.0227907
0.0294582
0.036766
0.0464231
0.0574589
0.0693791
0.0818214
0.0950738
0.109219
0.124122
0.139476
0.156541
0.179107
0.210819
0.251414
0.295463
0.335018
0.36951
0.410213
0.471298
0.555284
0.651442
0.751257
0.864404
1.0062
1.18012
1.38901
1.64724
1.97033
2.37179
2.87618
3.51059
4.29677
5.25145
6.38229
7.66894
9.03704
10.3565
11.4824
12.2749
12.637
12.5915
12.29
11.9223
11.5858
11.251
10.8749
10.421
9.87596
8.94121
7.13705
4.75585
3.02198
1.20359
0.780337
0.270969
0.25676
0.433924
0.226032
-0.0505831
-0.0640597
-0.0366723
0.0734545
0.26622
0.507094
0.708844
0.743157
0.537668
0.302441
0.167032
0.0654
0.00694571
0.033153
-0.000653621
0.187072
0.380734
0.0309247
0.0103343
0.0251485
0.0283439
0.0357884
0.0435116
0.0533961
0.0645456
0.0766759
0.0898554
0.104732
0.121477
0.139776
0.158919
0.180096
0.207502
0.244893
0.29106
0.339695
0.383293
0.424155
0.47442
0.547648
0.645682
0.757543
0.875297
1.01004
1.17701
1.38334
1.63113
1.93701
2.31972
2.79546
3.38996
4.13038
5.04121
6.13422
7.40701
8.82735
10.3115
11.7133
12.8847
13.721
14.1771
14.3016
14.229
14.0643
13.8222
13.4426
12.8932
12.1676
11.2662
9.91438
7.71541
5.03192
2.97095
1.29436
0.777004
0.111791
0.206004
0.50748
0.138871
-0.24519
-0.221536
-0.137225
0.039086
0.284055
0.531407
0.743057
0.780564
0.576174
0.339458
0.189879
0.0806137
0.0110565
0.0140243
0.0345857
0.139033
0.478184
0.0317506
0.0126641
0.0292271
0.0338949
0.0425676
0.0511987
0.0616501
0.0731462
0.085674
0.0997422
0.116299
0.135625
0.15705
0.179748
0.205337
0.238316
0.2818
0.333527
0.387292
0.436583
0.485373
0.546584
0.633051
0.745724
0.874726
1.0145
1.17563
1.37162
1.61372
1.90679
2.26632
2.71513
3.27286
3.96652
4.82305
5.86677
7.1053
8.52331
10.0753
11.6684
13.1524
14.3771
15.268
15.8275
16.1245
16.2607
16.2655
16.086
15.6395
14.8683
13.801
12.4587
10.6399
8.07962
5.23501
2.81984
1.40476
0.653593
-0.159292
0.0730791
0.427489
-0.284907
-0.679911
-0.503369
-0.300033
-0.0563677
0.266928
0.550996
0.763991
0.808059
0.610903
0.37752
0.211785
0.0945696
0.0141512
-0.00586927
0.0633609
0.114334
0.524861
0.0320724
0.0147613
0.0331305
0.0395833
0.0497839
0.059617
0.0709124
0.0830772
0.096442
0.111844
0.130333
0.152147
0.17648
0.202772
0.233241
0.272189
0.321803
0.379478
0.439339
0.495667
0.553894
0.627778
0.728702
0.856447
1.0038
1.16878
1.36107
1.59222
1.8749
2.21838
2.63892
3.16109
3.80767
4.60812
5.58922
6.77236
8.16121
9.72696
11.4088
13.1047
14.6715
15.962
16.9244
17.6002
18.0746
18.4118
18.575
18.4473
17.9173
16.8772
15.3932
13.5294
11.2148
8.35706
5.43464
2.69545
1.48141
0.373676
-0.605585
-0.318349
-0.235088
-1.42094
-1.71527
-1.21096
-0.638403
-0.19743
0.200548
0.553752
0.773855
0.828153
0.640139
0.412004
0.229513
0.104436
0.0144091
-0.0274157
0.0820548
0.0972196
0.635105
0.0321743
0.0170971
0.0372877
0.0455991
0.0572922
0.0683698
0.0807603
0.0941538
0.109102
0.126412
0.147018
0.171239
0.19856
0.228901
0.264708
0.309712
0.365656
0.429944
0.496644
0.561409
0.630996
0.719374
0.836079
0.979625
1.14675
1.33926
1.56702
1.83884
2.16797
2.56868
3.05827
3.6611
4.40409
5.31832
6.42984
7.75738
9.29816
11.0114
12.8192
14.6116
16.258
17.6266
18.6812
19.4913
20.1523
20.6916
21.0098
20.9247
20.2813
18.9207
16.9397
14.4905
11.6954
8.62141
5.51244
2.66583
1.44976
-0.128683
-1.35971
-1.28517
-1.77088
-3.42204
-3.56216
-2.6135
-1.44344
-0.496395
0.100964
0.522565
0.77268
0.841005
0.656928
0.439521
0.24158
0.10573
0.00991607
-0.0509669
0.0932137
0.0848237
0.677786
0.0324032
0.0200935
0.0418224
0.0518757
0.0649214
0.0773071
0.0912187
0.106538
0.123719
0.143296
0.166187
0.19307
0.223868
0.258831
0.300414
0.351921
0.414777
0.486041
0.560093
0.634833
0.717997
0.822708
0.956751
1.11798
1.30673
1.5289
1.79428
2.11149
2.49424
2.95914
3.52545
4.21781
5.0653
6.09976
7.34623
8.81974
10.5106
12.3665
14.2933
16.1734
17.8913
19.3446
20.5126
21.4797
22.3407
23.0845
23.5499
23.4865
22.6815
20.937
18.3875
15.3278
12.1252
8.91979
5.46714
2.74873
1.22348
-0.956817
-2.64917
-3.11683
-4.37315
-6.46883
-6.39563
-4.88601
-2.9256
-1.19264
-0.0841856
0.464884
0.759866
0.84094
0.661036
0.458611
0.251547
0.0969062
-0.00154924
-0.0774657
0.102273
0.0634103
0.782248
0.0328258
0.023611
0.0465186
0.058293
0.0728333
0.0869714
0.102911
0.120496
0.140024
0.161979
0.187527
0.217731
0.252696
0.292975
0.341168
0.400061
0.470374
0.549032
0.631205
0.717288
0.816144
0.939439
1.09254
1.27401
1.48677
1.7406
2.04626
2.41245
2.85418
3.38956
4.04037
4.8309
5.79042
6.9513
8.33574
9.95288
11.7867
13.775
15.8101
17.7672
19.5473
21.0866
22.3864
23.5351
24.6119
25.5612
26.1585
26.085
25.0577
22.8633
19.7005
16.0531
12.5537
9.25805
5.41225
2.86961
0.706278
-2.27922
-4.71986
-6.0336
-8.19682
-10.6901
-10.361
-8.19211
-5.25821
-2.48027
-0.543309
0.366372
0.732813
0.828237
0.657954
0.46189
0.259531
0.0796341
-0.0223911
-0.108622
0.114463
0.0311914
0.924248
0.0331399
0.027341
0.0511912
0.0650514
0.0816897
0.0981579
0.116383
0.1362
0.157912
0.182367
0.211024
0.245168
0.285113
0.331824
0.387804
0.455082
0.533402
0.619954
0.711518
0.810515
0.926711
1.07076
1.24549
1.45002
1.69028
1.9786
2.32675
2.74473
3.24936
3.86093
4.60217
5.49728
6.57522
7.86649
9.38927
11.1447
13.1089
15.2135
17.343
19.3681
21.2049
22.832
24.2798
25.6342
26.9437
28.0993
28.81
28.6922
27.3787
24.6835
20.893
16.7184
13.0248
9.56058
5.43387
2.87632
-0.231914
-4.30383
-7.76862
-10.171
-13.2882
-16.0972
-15.4992
-12.6239
-8.58863
-4.53089
-1.44911
0.154968
0.68653
0.808803
0.649258
0.445845
0.259912
0.0557602
-0.0555136
-0.146425
0.127067
-0.000787014
0.922222
0.0330778
0.031174
0.0561129
0.0727422
0.0920873
0.11125
0.131845
0.153801
0.177671
0.204709
0.236791
0.27544
0.321411
0.375845
0.440742
0.517355
0.604519
0.699725
0.801941
0.9158
1.05149
1.21823
1.4176
1.64905
1.92029
2.24631
2.63971
3.11261
3.68368
4.37516
5.21038
6.21418
7.41381
8.83617
10.4942
12.3797
14.4583
16.6592
18.8674
20.9559
22.8531
24.5768
26.191
27.775
29.3363
30.701
31.5074
31.3097
29.6566
26.4274
22.0153
17.3903
13.5571
9.76291
5.54957
2.61103
-1.76583
-7.20903
-11.9076
-15.5441
-19.5701
-22.5883
-21.7355
-18.1674
-12.9878
-7.48696
-2.97489
-0.342359
0.579272
0.780874
0.635632
0.423325
0.247687
0.0280839
-0.101161
-0.195251
0.128115
-0.0314931
1.00161
0.0326101
0.0354986
0.0617981
0.0817422
0.104185
0.126244
0.149304
0.173505
0.199745
0.229529
0.265295
0.309158
0.362265
0.42555
0.500357
0.58716
0.684223
0.789416
0.903696
1.03409
1.19151
1.38362
1.61063
1.87287
2.17964
2.54743
2.98983
3.52111
4.16171
4.93554
5.86723
6.9811
8.30202
9.85282
11.6393
13.6444
15.8216
18.0985
20.3701
22.5227
24.4966
26.3377
28.1435
29.9836
31.818
33.3959
34.2782
33.9579
31.9277
28.1368
23.1164
18.119
14.1318
9.87052
5.6954
1.89586
-4.07075
-11.0915
-17.1397
-22.0413
-26.8538
-29.9586
-28.8887
-24.7018
-18.4313
-11.4296
-5.26767
-1.2713
0.364101
0.729398
0.612469
0.400898
0.217311
-0.00544318
-0.160164
-0.257571
0.106027
-0.064793
1.12875
0.0319894
0.0406638
0.0685342
0.0921783
0.117916
0.143121
0.168963
0.195715
0.224527
0.257368
0.297304
0.347113
0.4083
0.481511
0.567238
0.664973
0.772787
0.889468
1.0178
1.1667
1.34757
1.56751
1.82589
2.12322
2.47027
2.88467
3.38089
3.97449
4.68799
5.54715
6.57656
7.79976
9.23951
10.9127
12.8183
14.9308
17.1934
19.5311
21.8553
24.0778
26.1554
28.149
30.1807
32.308
34.4351
36.2264
37.158
36.6632
34.2164
29.8292
24.2194
18.9198
14.6934
9.92508
5.72649
0.549639
-7.26197
-15.9466
-23.3562
-29.4442
-34.8641
-37.928
-36.694
-32.0118
-24.794
-16.3535
-8.42926
-2.77777
-0.0962976
0.597837
0.573806
0.376566
0.178903
-0.0486762
-0.233187
-0.327508
0.0590705
-0.113101
1.04954
0.0315065
0.0469262
0.0764267
0.104008
0.133266
0.16201
0.191006
0.220656
0.25239
0.288777
0.333536
0.390037
0.460111
0.544223
0.641962
0.75166
0.871264
1.00084
1.14505
1.31444
1.52077
1.77076
2.06366
2.40059
2.793
3.25901
3.81431
4.47568
5.26658
6.21369
7.34168
8.6732
10.2275
12.0156
14.0296
16.2371
18.5757
20.9677
23.3424
25.6455
27.8607
30.0544
32.3545
34.8012
37.2336
39.2269
40.1697
39.4369
36.5126
31.4886
25.3241
19.7718
15.159
9.97556
5.43294
-1.56391
-11.3596
-21.671
-30.355
-37.4603
-43.2759
-46.1816
-44.842
-39.8182
-31.8648
-22.1611
-12.495
-4.98466
-0.926614
0.351014
0.510683
0.338741
0.141008
-0.0985759
-0.320802
-0.403135
-0.00814532
-0.189668
1.12123
0.0312806
0.0541585
0.0853091
0.117124
0.150282
0.182965
0.215499
0.248416
0.283584
0.324228
0.374676
0.43877
0.518585
0.614356
0.724857
0.847551
0.980506
1.12494
1.28702
1.47843
1.71182
1.99402
2.32453
2.7049
3.14727
3.67003
4.28986
5.02461
5.89762
6.93577
8.16375
9.60213
11.2664
13.1616
15.2738
17.5652
19.9738
22.4233
24.8582
27.2599
29.6485
32.0947
34.7099
37.5034
40.2403
42.4055
43.3056
42.2544
38.7752
33.0818
26.4257
20.6379
15.4718
10.0347
4.5953
-4.50548
-16.2856
-28.0822
-37.872
-45.7643
-51.7597
-54.415
-53.0234
-47.8175
-39.3757
-28.6723
-17.4175
-7.96561
-2.23196
-0.0703238
0.381021
0.270828
0.096072
-0.144903
-0.415847
-0.493832
-0.0846297
-0.278307
1.17553
0.0311199
0.0620886
0.0950706
0.131555
0.169114
0.20617
0.242601
0.279174
0.318325
0.364019
0.421173
0.493951
0.584479
0.692642
0.816503
0.953156
1.10112
1.26254
1.44475
1.66023
1.92234
2.23831
2.60874
3.03584
3.53217
4.11627
4.80549
5.61823
6.57797
7.71079
9.0396
10.5833
12.3532
14.3484
16.5502
18.9177
21.3938
23.9115
26.428
28.9555
31.5537
34.2999
37.273
40.4295
43.4537
45.7409
46.5264
45.0645
40.9531
34.5839
27.525
21.4751
15.6573
10.022
3.05976
-8.25093
-21.8824
-34.9456
-45.6172
-54.04
-60.0229
-62.3716
-60.9691
-55.7235
-47.0395
-35.6485
-23.0701
-11.7342
-4.1091
-0.758246
0.12913
0.161859
0.0269755
-0.18521
-0.508728
-0.596747
-0.154667
-0.353147
1.30025
0.0307174
0.070587
0.10582
0.147452
0.189808
0.231608
0.272332
0.313065
0.356868
0.408474
0.473339
0.555821
0.657922
0.779137
0.917118
1.06909
1.23409
1.41478
1.61929
1.86076
2.15326
2.50473
2.9171
3.39356
3.94679
4.5954
5.35776
6.25261
7.30253
8.53192
9.96231
11.6096
13.4807
15.5701
17.8553
20.2958
22.8415
25.4421
28.0707
30.7605
33.6034
36.6876
40.0483
43.5693
46.8467
49.1902
49.7748
47.8127
43.0077
35.9957
28.6225
22.2252
15.7967
9.74881
0.768064
-12.6989
-27.942
-42.007
-53.3116
-62.0176
-67.8409
-69.8675
-68.4788
-63.3014
-54.588
-42.8252
-29.2624
-16.2358
-6.62233
-1.78505
-0.250321
0.0186932
-0.0648654
-0.223103
-0.586398
-0.692548
-0.208139
-0.397945
1.50609
0.0300278
0.0797285
0.117751
0.164916
0.212342
0.259115
0.304531
0.350111
0.399508
0.458082
0.531659
0.624658
0.738913
0.873684
1.02661
1.19538
1.37952
1.58211
1.81154
2.0811
2.40544
2.79394
3.25018
3.77819
4.39043
5.10559
5.94332
6.92261
8.06416
9.39102
10.9224
12.6706
14.6392
16.8183
19.1834
21.6978
24.3208
27.0221
29.7965
32.6912
35.815
39.2635
43.0243
46.895
50.3782
52.7043
52.9966
50.4583
44.9266
37.3443
29.7148
22.8434
15.9476
9.00281
-2.25168
-17.69
-34.2367
-49.0233
-60.7174
-69.4979
-75.0718
-76.7994
-75.4336
-70.3888
-61.8022
-49.9464
-35.7638
-21.3483
-9.78468
-3.21348
-0.758674
-0.126919
-0.145553
-0.238759
-0.634641
-0.765126
-0.250663
-0.420811
1.63142
0.0292732
0.0896778
0.131043
0.183954
0.236603
0.288538
0.339037
0.390186
0.446205
0.512891
0.596202
0.70047
0.827411
0.976339
1.14522
1.33221
1.53733
1.7641
2.02095
2.32102
2.67917
3.10635
3.60816
4.18943
4.86205
5.64502
6.55898
7.62288
8.85599
10.2796
11.9098
13.7555
15.8177
18.0837
20.5284
23.1215
25.834
28.6568
31.6095
34.7525
38.1942
42.0239
46.1816
50.3724
54.0057
56.2407
56.1546
52.9792
46.7226
38.6661
30.79
23.3464
16.0735
7.64515
-5.90482
-23.0335
-40.5481
-55.788
-67.6596
-76.3621
-81.6556
-83.1387
-81.7926
-76.9021
-68.5315
-56.7938
-42.3342
-26.8972
-13.5514
-5.0849
-1.41822
-0.240469
-0.149502
-0.207968
-0.645962
-0.82316
-0.287008
-0.412137
1.8821
0.0288616
0.100503
0.145756
0.204456
0.262349
0.319627
0.375716
0.433278
0.496997
0.572888
0.666828
0.782978
0.923095
1.08683
1.27263
1.47921
1.70715
1.96029
2.2469
2.57971
2.97369
3.44136
3.99042
4.62627
5.36015
6.2115
7.20173
8.34915
9.67188
11.1895
12.9154
14.8549
17.007
19.3588
21.8859
24.5661
27.3843
30.3516
33.5122
36.942
40.7364
44.9585
49.4983
53.9695
57.6938
59.7671
59.2263
55.3684
48.4237
39.9856
31.8183
23.7973
16.0305
5.64032
-10.0512
-28.5334
-46.6887
-62.1477
-74.0331
-82.5684
-87.6012
-88.9144
-87.5779
-82.828
-74.6978
-63.2072
-48.7517
-32.6772
-17.8235
-7.40558
-2.24719
-0.315842
-0.0360781
-0.160116
-0.635334
-0.883129
-0.318027
-0.346486
2.26797
0.0292175
0.11203
0.161671
0.226082
0.289209
0.352088
0.414433
0.4794
0.551909
0.637964
0.743262
0.871846
1.02569
1.20488
1.40841
1.63564
1.8879
2.16943
2.48808
2.85575
3.28737
3.79717
4.39497
5.08655
5.88247
6.8024
7.86786
9.0966
10.5062
12.1146
13.9321
15.9616
18.2009
20.6389
23.2547
26.0341
28.9777
32.1147
35.5108
39.2567
43.4317
48.0534
52.9533
57.6604
61.4152
63.2568
62.1939
57.6272
50.0602
41.3066
32.7665
24.244
15.6384
3.03671
-14.5275
-34.0109
-52.5163
-68.0092
-79.8007
-88.1387
-92.9678
-94.1914
-92.8521
-88.2049
-80.2883
-69.0925
-54.8364
-38.4765
-22.4579
-10.1497
-3.27533
-0.41807
0.143755
-0.139538
-0.616778
-0.936298
-0.336401
-0.224861
2.508
0.0305485
0.123896
0.178386
0.24845
0.316927
0.385811
0.455158
0.528488
0.610739
0.707724
0.82494
0.966472
1.13462
1.32992
1.55193
1.8008
2.07865
2.39016
2.74267
3.14704
3.61803
4.17152
4.8191
5.56716
6.42574
7.41422
8.55353
9.86111
11.3544
13.0495
14.9551
17.0717
19.3971
21.9238
24.6374
27.5315
30.6233
33.9575
37.6165
41.6997
46.272
51.2948
56.5291
61.4255
65.1479
66.6856
65.0397
59.7594
51.6537
42.6158
33.6295
24.6666
14.7679
-0.0623716
-19.1678
-39.3188
-57.9388
-73.3366
-84.9809
-93.1393
-97.8424
-99.0486
-97.6952
-93.1019
-85.3384
-74.4178
-60.4639
-44.1014
-27.2855
-13.2643
-4.54464
-0.630637
0.287196
-0.170188
-0.599489
-0.964997
-0.323234
-0.0583342
2.95612
0.0326886
0.135611
0.195463
0.271281
0.345462
0.420908
0.497981
0.580428
0.673119
0.781639
0.911311
1.06634
1.24931
1.46118
1.70221
1.97347
2.27797
2.62066
3.00834
3.45091
3.96291
4.56139
5.25941
6.06433
6.98592
8.0428
9.25482
10.6389
12.2126
13.9912
15.9821
18.1847
20.5973
23.2175
26.0404
29.0683
32.3323
35.8933
39.8425
44.2809
49.2562
54.6722
60.2115
65.2477
68.8715
70.029
67.7443
61.7695
53.2113
43.888
34.4329
24.9699
13.376
-3.52407
-23.8198
-44.349
-62.9113
-78.1412
-89.6316
-97.6598
-102.318
-103.561
-102.186
-97.5979
-89.9127
-79.2008
-65.5677
-49.395
-32.1304
-16.6695
-6.09419
-1.02048
0.330048
-0.226696
-0.628434
-0.96223
-0.268993
0.14293
3.4712
0.0352805
0.146797
0.212653
0.2945
0.374877
0.457468
0.54287
0.634951
0.738535
0.859067
1.00175
1.17084
1.36913
1.59795
1.85833
2.1524
2.48413
2.85886
3.28283
3.76499
4.31933
4.96349
5.71215
6.57393
7.55852
8.68346
9.96733
11.4264
13.0783
14.9381
17.0131
19.3029
21.8069
24.5285
27.4734
30.6565
34.1188
37.9355
42.2023
47.0121
52.388
58.1794
63.9875
69.1095
72.5635
73.2576
70.2894
63.6631
54.729
45.0969
35.2034
25.0265
11.4958
-7.20577
-28.3559
-49.0325
-67.4278
-82.4665
-93.8308
-101.793
-106.476
-107.791
-106.391
-101.767
-94.0855
-83.4922
-70.1338
-54.248
-36.8275
-20.2627
-7.93926
-1.60985
0.292527
-0.222183
-0.77303
-0.913539
-0.175533
0.399548
4.07882
0.0380516
0.157412
0.230052
0.318284
0.405314
0.495494
0.589644
0.691712
0.806479
0.939352
1.09547
1.27907
1.49308
1.7392
2.01921
2.33629
2.69549
3.10267
3.56372
4.08667
4.6844
5.37463
6.1738
7.09219
8.13967
9.33243
10.6876
12.2207
13.9497
15.8901
18.0503
20.431
23.0337
25.8681
28.95
32.3096
35.9974
40.0974
44.707
49.9019
55.6713
61.8115
67.8441
72.9876
76.1919
76.3386
72.6609
65.4473
56.1979
46.2334
35.9363
24.7346
9.21151
-10.9704
-32.678
-53.3345
-71.5096
-86.3724
-97.6602
-105.622
-110.38
-111.779
-110.356
-105.666
-97.927
-87.3584
-74.1882
-58.6017
-41.2376
-23.9238
-10.0582
-2.37465
0.249664
-0.0821073
-1.04249
-0.803218
-0.0429424
0.742593
4.77555
0.0409472
0.167695
0.247913
0.342827
0.436784
0.534746
0.637822
0.750082
0.876298
1.02184
1.19178
1.3903
1.62036
1.88399
2.18376
2.52396
2.91079
3.35069
3.84929
4.41351
5.05494
5.7913
6.64088
7.61594
8.72641
9.98683
11.4131
13.0203
14.8272
16.8496
19.0978
21.5756
24.2879
27.2497
30.4868
34.0435
37.9829
42.3912
47.3635
52.9527
59.1046
65.5593
71.7617
76.8489
79.7134
79.2409
74.8522
67.1307
57.6088
47.3101
36.5844
24.0501
6.63394
-14.6966
-36.7172
-57.2467
-75.1929
-89.9213
-101.192
-109.21
-114.073
-115.552
-114.11
-109.338
-101.494
-90.8666
-77.7815
-62.4424
-45.2568
-27.5235
-12.3875
-3.26425
0.274417
0.204102
-1.41393
-0.63214
0.155034
1.18324
5.43153
0.0441276
0.178082
0.266476
0.368169
0.469051
0.574698
0.68662
0.809119
0.947028
1.10567
1.28998
1.50396
1.75046
2.03175
2.35118
2.71432
3.12869
3.60143
4.13794
4.74365
5.42875
6.2111
7.11106
8.14298
9.31646
10.6444
12.1422
13.8255
15.7127
17.8203
20.1618
22.7453
25.5802
28.6867
32.1004
35.8758
40.0894
44.8278
50.1758
56.1606
62.6777
69.4034
75.709
80.6523
83.0835
81.9389
76.8668
68.7228
58.9557
48.3474
37.0746
22.9861
3.88181
-18.2852
-40.4316
-60.7789
-78.5188
-93.1678
-104.483
-112.599
-117.575
-119.122
-117.667
-112.807
-104.828
-94.0756
-80.9746
-65.7922
-48.8221
-30.9351
-14.8277
-4.22431
0.367754
0.539346
-1.78279
-0.379742
0.488322
1.77817
6.18191
0.0477501
0.188937
0.285736
0.394037
0.501571
0.614617
0.735222
0.868038
1.01802
1.19038
1.38979
1.61983
1.88308
2.18202
2.52088
2.90669
3.34842
3.85389
4.42811
5.07508
5.80386
6.6327
7.58378
8.67296
9.90915
11.3045
12.8755
14.6381
16.6096
18.8084
21.2508
23.9501
26.9225
30.1931
33.8059
37.8234
42.3308
47.4158
53.1458
59.5172
66.3719
73.3164
79.6481
84.3537
86.2639
84.4154
78.7166
70.2337
60.241
49.3525
37.3385
21.5981
1.06866
-21.6611
-43.8012
-63.9508
-81.5256
-96.1538
-107.57
-115.815
-120.896
-122.495
-121.034
-116.084
-107.954
-97.0305
-83.8269
-68.695
-51.9096
-34.0477
-17.2602
-5.211
0.470941
0.767531
-1.95269
-0.0147899
1.05313
2.58585
7.02481
0.0518115
0.200369
0.305326
0.41983
0.533592
0.653749
0.783013
0.926467
1.08915
1.27603
1.49122
1.73771
2.01772
2.33406
2.69212
3.10057
3.56976
4.10796
4.71949
5.40704
6.17931
7.05543
8.05903
9.20628
10.5053
11.9688
13.6157
15.4617
17.523
19.821
22.3744
25.2018
28.3272
31.7819
35.6163
39.8993
44.7184
50.16
56.2712
63.01
70.1631
77.2642
83.5364
87.908
89.2217
86.6621
80.419
71.6731
61.4781
50.3075
37.336
19.9661
-1.7054
-24.7726
-46.8227
-66.7862
-84.245
-98.9078
-110.474
-118.866
-124.037
-125.674
-124.214
-119.176
-110.887
-99.7624
-86.3893
-71.2053
-54.5292
-36.7775
-19.564
-6.19249
0.536292
0.831209
-1.68441
0.488921