/*--------------------------------*- C++ -*----------------------------------*\
| =========                 |                                                 |
| \\      /  F ield         | OpenFOAM: The Open Source CFD Toolbox           |
|  \\    /   O peration     | Version:  4.1                                   |
|   \\  /    A nd           | Web:      www.OpenFOAM.org                      |
|    \\/     M anipulation  |                                                 |
\*---------------------------------------------------------------------------*/
FoamFile
{
    version     2.0;
    format      ascii;
    class       surfaceScalarField;
    location    "17";
    object      phi;
}
// * * * * * * * * * * * * * * * * * * * * * * * * * * * * * * * * * * * * * //

dimensions      [0 3 -1 0 0 0 0];

internalField   nonuniform List<scalar> 
13220
(
-906.843
2206.74
-1504.66
1898.02
-1985.12
1780.36
-2354.93
1669.71
-2630.26
1575.53
-2818.69
1488.33
-2923.49
1404.7
-2944.47
1321.17
-2880.28
1235.72
-2727.83
1147.45
-2482.45
1054.82
-2127.45
944.893
-1626.89
799.339
-956.023
629.336
343.877
423.567
1783.18
466.658
1854.93
450.469
1796.54
411.027
1709.16
378.584
1607.97
352.466
1514.45
333.206
1423.96
321.502
1332.87
314.072
1243.15
304.757
1156.77
285.416
1074.16
242.305
988.003
165.812
875.831
88.5163
706.632
432.393
181.151
1602.02
21.0042
2015.07
-139.987
1957.54
-258.578
1827.75
-362.825
1712.22
-459.856
1611.48
-546.934
1511.04
-624.457
1410.4
-690.603
1309.29
-742.927
1209.09
-777.137
1108.37
-774.518
985.383
-684.665
785.978
-432.729
454.695
-0.335716
215.914
1386.11
135.984
2095
1.96083
2091.56
-93.4324
1923.14
-169.543
1788.33
-229.57
1671.51
-269.444
1550.91
-289.377
1430.33
-291.358
1311.27
-275.874
1193.61
-241.701
1074.2
-184.074
927.755
-101.141
703.044
-9.77894
363.331
-10.1147
282.537
1103.57
349.084
2028.45
326.157
2114.48
305.668
1943.63
296.237
1797.76
292.698
1675.05
292.758
1550.85
296.727
1426.36
303.394
1304.61
310.826
1186.17
318.404
1066.62
320.386
925.773
297.085
726.343
215.914
444.501
205.799
248.909
854.663
359.326
1918.04
370.293
2103.52
350.997
1962.92
335.88
1812.88
324.908
1686.02
313.526
1562.23
299.454
1440.43
283.59
1320.47
265.927
1203.83
245.069
1087.47
219.13
951.71
177.824
767.648
109.144
513.18
314.943
131.265
723.397
214.495
1834.8
239.25
2078.76
216.881
1985.29
193.49
1836.27
173.768
1705.74
155.173
1580.83
137.058
1458.54
119.144
1338.38
102.811
1220.17
88.1202
1102.16
75.3858
964.443
61.3665
781.665
44.6017
529.943
359.545
36.2588
687.137
86.3559
1784.71
126.385
2038.73
116.233
1995.44
100.914
1851.58
89.0815
1717.57
77.3071
1592.6
66.4767
1469.37
56.9293
1347.93
47.7659
1229.33
39.9232
1110.01
36.1871
968.179
32.8499
785.001
28.566
534.226
388.111
12.958
674.178
51.8338
1745.83
96.2954
1994.27
96.3782
1995.36
86.9264
1861.03
79.0157
1725.48
71.7677
1599.85
63.9416
1477.2
56.6374
1355.23
49.7076
1236.26
42.48
1117.23
39.8058
970.849
38.0192
786.784
29.2067
543.035
417.317
30.3528
643.825
74.1951
1701.98
113.288
1955.18
114.504
1994.14
104.705
1870.83
93.9767
1736.21
84.2973
1609.53
75.3102
1486.18
65.8419
1364.7
56.9538
1245.14
48.7032
1125.48
44.7708
974.782
41.8711
789.684
29.7577
555.148
447.075
46.1387
597.687
93.4051
1654.72
126.53
1922.05
127.181
1993.49
116.039
1881.98
103.916
1748.33
91.6834
1621.76
80.3395
1497.52
69.5314
1375.51
58.6405
1256.03
49.0879
1135.04
45.4528
978.413
42.0446
793.089
27.6971
569.493
474.772
32.3592
565.331
65.4067
1621.67
86.6662
1900.8
81.7426
1998.41
66.5621
1897.16
51.6753
1763.21
39.8219
1633.62
29.0125
1508.33
20.0468
1384.48
13.2484
1262.83
7.80219
1140.48
10.8217
975.4
16.8852
787.032
15.6907
570.693
490.463
1.28624
564.051
32.8105
1590.14
54.8733
1878.74
63.0292
1990.26
60.4276
1899.77
49.3341
1774.31
35.7305
1647.22
22.7464
1521.32
9.60245
1397.62
-1.05237
1273.49
-4.33347
1143.76
2.63846
968.427
11.6293
778.039
-0.388859
582.709
490.074
-167.777
731.834
-279.425
1701.79
-350.282
1949.6
-410.501
2050.47
-442.614
1931.88
-456.13
1787.82
-454.257
1645.35
-444.679
1511.73
-425.568
1378.51
-398.581
1246.49
-337.554
1082.73
-253.996
884.861
-160.116
684.143
-87.7416
510.318
402.332
-161.404
33.9531
109.702
133.752
33.3933
-97.4495
-235.538
-346.671
-430.625
-446.345
-441.892
-386.634
-312.614
-204.003
-0.000931147
412.765
-412.767
412.763
412.762
412.761
799.412
-386.653
799.411
799.41
799.409
1159.13
-359.722
1159.13
1159.13
1489.99
-330.868
1489.99
1489.99
1489.99
1779.27
-289.276
1779.27
1779.27
2029.88
-250.617
2029.88
2029.88
2029.88
2228.05
-198.172
2228.05
2228.05
2228.05
2375.1
-147.058
2375.1
2375.1
2471.62
-96.5127
2471.61
2471.61
2471.61
2504.55
-32.9399
2504.55
2504.55
2482.36
22.1891
2482.36
2482.36
2482.36
2391.82
90.5363
2391.82
2391.82
2391.82
2241.21
150.607
2241.21
2241.21
2033.97
207.234
2033.97
2033.97
2033.97
1767.69
266.274
1767.69
1767.69
1767.69
1453.12
314.571
1453.11
1453.12
1096.43
356.684
1096.43
1096.42
1096.43
709.618
386.803
709.618
709.612
307.421
402.193
307.415
307.415
307.408
-113.183
420.593
-113.192
-113.191
-113.2
-733.815
620.62
-733.825
-733.813
-1562.91
829.089
-1562.9
-1562.9
-1536.33
-1497.92
-1465.5
-2731.67
1300.37
-2677.27
-2615.52
-2543.4
-2469.43
-2394.94
-2317.15
-2224.13
-2119.24
-3885.64
1873.22
-3760.06
-3638.91
-3517.04
-3368.72
-3218.77
-3065.68
-2904.64
-2742.05
-5055.96
2494.95
-4852.58
-4649.48
-4445.18
-4239.68
-4025.44
-3796.47
-3564.47
-3324.24
-3080.87
-5879.88
3041.68
-5609.53
-5336.92
-5061.86
-4786.34
-4511.35
-4223.2
-3920.59
-3612.21
-6716.57
3406.3
-6407.54
-6090.14
-5759.26
-5424.82
-5089.57
-4755.12
-4415.06
-4051.38
-7170.65
3473.99
-6812.56
-6452.04
-6091.76
-5715.86
-5332.21
-4949.01
-4565.62
-4181.17
-6653.2
2847.72
-6275.63
-5893.46
-5512.32
-5133.79
-4758.66
-4389.25
-4023.44
-3667.57
-3317.85
-4072.7
1086.8
-3770.35
-3473.4
-3186.51
-2905.99
-2631.03
-2392.6
-2226.25
-2056.13
-1416.38
-461.911
-1265.67
-1117.99
-1117.99
-953.08
-164.908
-782.937
-170.148
-782.937
-684.41
-98.5318
-684.411
-648.181
-36.2344
-683.346
35.1646
-683.349
-767.194
83.8427
-895.772
128.576
-895.773
-1058.98
163.207
-1058.98
-1256.24
197.261
-1457.32
201.076
-1457.32
-1675.96
218.639
-1675.96
-1910.65
234.693
-2121.55
210.898
-2121.55
-2349.21
227.665
-2540.97
191.759
-2540.97
-2733.23
192.254
-2733.23
-2927.96
194.738
-3076.43
148.462
-3076.43
-3220.28
143.85
-3220.28
-3362.02
141.742
-3458.26
96.2419
-3458.26
-3566.41
108.154
-3629.34
62.934
-3629.34
-3684.21
54.8665
-3684.21
-3746.07
61.8572
-3765.73
19.6642
-3765.73
-3779.34
13.6089
-3779.34
-3795.02
15.681
-3776.06
-18.9633
-3776.06
-3772.01
-4.04994
-3734.25
-37.7579
-3734.25
-3688.02
-46.2283
-3688.02
-3650.1
-37.9188
-3580.44
-69.6602
-3580.44
-3499.25
-81.1921
-3499.25
-3411.76
-87.4857
-3296.53
-115.234
-3296.53
-3172.46
-124.072
-3021.29
-151.163
-3021.29
-2841.98
-179.313
-2841.98
-2641.21
-200.771
-2419.5
-221.709
-2419.5
-2161.52
-257.982
-2161.52
-1864.03
-297.49
-1548.23
-315.802
-1548.23
-1175.02
-373.208
-794.921
-380.102
-794.921
-375.906
-419.015
-375.906
-464.998
-629.039
3.79356
-630.228
-0.758037
-631.138
-1.49598
-632.043
-1.32303
-632.959
-0.926989
-633.881
0.314305
-634.83
2.06273
-635.824
4.51661
-636.877
7.66295
-638.004
11.5955
-639.232
16.3819
-640.587
22.1338
-642.082
28.8488
-643.773
36.8252
-645.689
45.9983
-647.871
56.604
-650.366
68.8853
-653.236
83.1087
-656.548
99.5363
-660.392
118.432
-664.868
140.099
-670.097
165.249
-676.236
194.247
-683.479
227.682
-692.066
266.154
-702.285
310.614
-714.545
362.221
-729.402
422.069
-747.586
491.986
-770.082
574.202
-798.223
671.556
-833.815
788.188
-879.234
929.652
-937.447
1103.53
-1011.88
1319.87
-1106.01
1591.17
-1222.63
1931.77
-1362.78
2355.84
-1524.46
2873.73
-1701.36
3486.63
-1881.79
4179.46
-2048.39
4912.82
-2180.43
5618.61
-2261.7
6213.71
-2297
6656.19
-2329
7043.03
-2427.65
7636.1
-2636.45
8673.89
-2924.47
10138.2
-3200.85
11754.6
-3369.88
13135.3
-3371.46
13928.1
-3188.46
13911
-2828.84
12976.1
-2288.97
11043
-1546.69
8072.64
-706.932
4465.37
-68.9853
1285.48
59.2077
-499.853
30.2336
-453.627
3.69254
-546.432
-45.1911
-532.467
-89.5308
-327.87
-103.461
-277.911
-89.3288
-293.036
-62.0041
-231.679
-32.7846
-108.795
-28.8791
88.4658
4.52412
719.219
51.6143
895.283
63.8215
636.514
67.4386
403.003
68.6621
249.781
71.4613
171.902
27.7734
84.9694
-84.1241
-86.5208
-7.27628
-488.306
306.006
962.829
4871.53
-637.422
4.64858
-638.657
0.476342
-639.857
-0.295388
-640.957
-0.222271
-642.085
0.20211
-643.225
1.45556
-644.394
3.23223
-645.602
5.72646
-646.872
8.93445
-648.215
12.94
-649.668
17.8364
-651.255
23.7236
-652.976
30.5714
-654.902
38.7544
-657.051
48.1494
-659.474
59.0306
-662.229
71.6438
-665.387
86.2699
-669.027
103.18
-673.266
122.675
-678.194
145.032
-683.925
170.985
-690.601
200.927
-698.435
235.522
-707.758
275.481
-718.917
321.778
-732.322
375.632
-748.598
438.351
-768.542
511.935
-793.237
598.903
-824.136
702.46
-863.135
827.192
-912.67
979.192
-975.683
1166.55
-1055.42
1399.61
-1154.98
1690.73
-1276.55
2053.35
-1420.37
2499.67
-1583.5
3036.86
-1758.51
3661.65
-1932.44
4353.39
-2086.81
5067.19
-2201.13
5732.94
-2263.75
6276.33
-2290.74
6683.19
-2336.4
7088.68
-2465.4
7765.11
-2697.88
8906.37
-2986.75
10427.1
-3243.84
12011.6
-3383.85
13275.3
-3355.22
13899.5
-3143.06
13698.8
-2750.21
12583.3
-2169.8
10462.6
-1404.44
7307.28
-587.439
3648.37
39.4941
658.554
106.954
-567.308
74.8248
-421.488
4.37069
-475.972
-83.5098
-444.58
-120.848
-290.526
-122.079
-276.675
-107.13
-307.982
-80.1919
-258.614
-53.5057
-135.478
-45.4216
80.3907
2.2265
671.574
54.4029
843.109
70.3325
620.587
74.1472
399.193
71.6711
252.263
71.4674
172.112
39.3779
117.065
-57.1557
10.0172
-21.5303
-523.929
283.664
657.637
4736.18
-650.327
5.6643
-651.681
1.8294
-653.038
1.06168
-654.315
1.05375
-655.619
1.5051
-656.938
2.77356
-658.293
4.58616
-659.682
7.11364
-661.125
10.3758
-662.642
14.456
-664.28
19.4727
-666.06
25.5016
-668.017
32.5265
-670.192
40.9269
-672.62
50.576
-675.343
61.7513
-678.429
74.7283
-681.948
89.7874
-685.988
107.218
-690.68
127.366
-696.134
150.485
-702.477
177.327
-709.879
208.329
-718.586
244.229
-728.959
285.854
-741.385
334.205
-756.34
390.587
-774.526
456.537
-796.835
534.245
-824.466
626.535
-858.975
736.97
-902.344
870.562
-957.027
1033.88
-1025.88
1235.41
-1111.88
1485.6
-1217.61
1796.46
-1344.53
2180.26
-1491.91
2647.06
-1655.68
3200.64
-1827.16
3833.13
-1992.1
4518.34
-2131.37
5206.46
-2226.04
5827.61
-2270.88
6321.16
-2293.11
6705.42
-2354.51
7150.08
-2511.76
7922.36
-2765.26
9159.88
-3053.88
10715.7
-3289.44
12247.2
-3395.52
13381.4
-3329.91
13833.9
-3081.8
13450.7
-2649.25
12150.7
-2019.6
9832.94
-1215.93
6503.61
-417.501
2849.95
97.3276
143.728
116.974
-586.96
63.1021
-367.63
-24.2597
-388.618
-112.22
-356.628
-138.251
-264.502
-133.439
-281.493
-120.596
-320.829
-97.1805
-282.033
-69.7811
-162.882
-54.0979
64.7056
0.963098
616.514
55.8771
788.196
74.06
602.405
77.7396
395.514
75.8254
254.178
71.918
176.016
49.3795
139.604
-22.958
82.35
-33.6921
-513.196
246.337
377.609
4602.42
-666.216
6.76974
-667.634
3.24719
-669.05
2.4786
-670.424
2.42821
-671.832
2.91375
-673.267
4.20986
-674.76
6.07998
-676.313
8.66814
-677.945
12.0087
-679.682
16.1948
-681.536
21.3282
-683.507
27.4746
-685.693
34.7153
-688.093
43.329
-690.784
53.2702
-693.802
64.7722
-697.227
78.1558
-701.132
93.6965
-705.622
111.712
-710.82
132.568
-716.873
156.541
-723.931
184.389
-732.188
216.591
-741.938
253.984
-753.565
297.486
-767.506
348.15
-784.301
407.387
-804.74
476.982
-829.806
559.316
-860.786
657.519
-899.335
775.525
-947.49
918.722
-1007.66
1094.05
-1082.55
1310.3
-1174.77
1577.82
-1286.35
1908.04
-1417.93
2311.85
-1567.81
2796.94
-1730.72
3363.55
-1896.65
3999.06
-2050.17
4671.86
-2172.05
5328.34
-2246.43
5901.99
-2276.27
6351.01
-2299.78
6728.94
-2382.08
7232.38
-2567.55
8107.83
-2837.5
9429.83
-3120.32
10998.6
-3330.06
12456.9
-3399.56
13450.9
-3295.28
13729.6
-3008.62
13164
-2531.63
11673.7
-1849.57
9150.87
-1012.82
5666.86
-248.302
2085.43
165.117
-269.676
122.111
-543.951
27.2907
-272.807
-57.3906
-303.935
-130.38
-283.635
-148.955
-245.924
-143.112
-287.332
-133.907
-330.031
-113.514
-302.423
-86.4929
-189.901
-62.1439
40.3637
0.00496914
554.369
57.4221
730.782
78.2424
581.588
82.0303
391.731
80.192
256.021
74.2208
181.992
60.75
153.081
7.7831
135.322
-48.0368
-457.374
203.429
126.146
4432.64
-684.958
7.96769
-686.427
4.71652
-687.88
3.93044
-689.327
3.87476
-690.812
4.39782
-692.335
5.73182
-693.925
7.66887
-695.597
10.3389
-697.373
13.7829
-699.28
18.1
-701.304
23.3502
-703.457
29.6258
-705.849
37.1051
-708.477
45.9547
-711.424
56.2155
-714.748
68.0946
-718.524
81.9296
-722.843
98.0142
-727.825
116.693
-733.587
138.327
-740.307
163.261
-748.158
192.239
-757.377
225.809
-768.301
264.907
-781.341
310.526
-796.984
363.794
-815.851
426.253
-838.81
499.94
-866.935
587.442
-901.571
692.155
-944.436
818.39
-997.579
971.865
-1063.33
1159.81
-1144.15
1391.12
-1242.23
1675.91
-1358.99
2024.8
-1494.26
2447.12
-1645.28
2947.96
-1805.57
3523.84
-1963.79
4157.27
-2103.59
4811.67
-2206.52
5431.27
-2261.36
5956.83
-2280.58
6370.23
-2311.82
6760.19
-2418.88
7339.44
-2630.72
8319.67
-2911.48
9710.59
-3182.86
11269.9
-3363.2
12637.3
-3394.65
13482.3
-3251.01
13586
-2923.82
12836.8
-2398.91
11148.8
-1665.45
8417.42
-810.523
4811.93
-111.146
1386.06
194.954
-575.774
118.32
-467.323
-11.4666
-143.038
-86.5296
-228.882
-143.073
-227.101
-157.271
-231.733
-153.738
-290.871
-146.915
-336.859
-127.481
-321.86
-100.312
-217.074
-68.0333
8.081
-0.239548
486.575
59.4565
671.087
83.1168
557.929
87.6806
387.167
85.6477
258.054
78.742
188.895
70.5006
161.321
26.0382
179.78
-71.3597
-359.977
158.782
-103.994
4275.62
-706.559
9.19165
-708.079
6.23657
-709.57
5.42142
-711.092
5.39735
-712.657
5.96408
-714.269
7.34392
-715.95
9.35119
-717.719
12.1095
-719.6
15.6649
-721.613
20.115
-723.769
25.508
-726.11
31.9681
-728.703
39.7005
-731.572
48.8262
-734.791
59.4376
-738.448
71.7544
-742.613
86.0977
-747.393
102.797
-752.922
122.225
-759.318
144.727
-766.793
170.739
-775.542
200.992
-785.851
236.123
-798.088
277.147
-812.697
325.14
-830.22
381.321
-851.356
447.394
-877.044
525.633
-908.437
618.839
-946.92
730.642
-994.238
865.713
-1052.41
1030.04
-1123.64
1231.04
-1210.06
1477.54
-1313.44
1779.29
-1434.52
2145.89
-1572.29
2584.9
-1722.91
3098.58
-1878.64
3679.57
-2026.92
4305.56
-2150.95
4935.7
-2234.16
5514.48
-2271.55
5994.22
-2285.55
6384.24
-2330.66
6805.29
-2464.68
7473.46
-2699.5
8554.49
-2984.98
9996.07
-3239.62
11524.6
-3387.66
12785.3
-3380.24
13474.9
-3196.93
13402.7
-2827.32
12467.2
-2252.04
10573.5
-1471.57
7636.95
-614.514
3954.87
22.3463
749.205
207.801
-761.22
100.476
-359.995
-28.6281
-13.9397
-98.6892
-158.82
-149.678
-176.109
-164.967
-216.441
-165.649
-290.186
-159.656
-342.849
-139.871
-341.643
-109.829
-247.114
-70.053
-31.6901
0.257574
416.268
61.9053
609.442
88.5949
531.242
94.6326
381.133
92.3931
260.298
85.0551
196.237
81.6745
164.707
50.9151
210.542
-76.4198
-232.638
127.195
-307.605
4105.32
-730.985
10.4206
-732.54
7.79112
-734.061
6.94212
-735.649
6.98434
-737.29
7.60398
-738.99
9.04253
-740.771
11.1306
-742.651
13.9884
-744.655
17.6672
-746.802
22.2603
-749.129
27.8334
-751.69
34.5265
-754.523
42.5313
-757.674
51.9754
-761.22
62.9814
-765.257
75.7893
-769.867
90.7055
-775.165
108.093
-781.308
128.366
-788.427
151.845
-796.756
179.066
-806.522
210.756
-818.055
247.654
-831.755
290.846
-848.1
341.484
-867.683
400.903
-891.278
470.988
-919.873
554.227
-954.678
653.644
-997.114
773.078
-1048.91
917.508
-1112.01
1093.14
-1188.44
1307.46
-1279.98
1569.08
-1387.9
1887.21
-1512.27
2270.27
-1651.18
2723.8
-1799.68
3247.08
-1948.77
3828.66
-2084.91
4441.7
-2191.5
5042.28
-2255.15
5578.13
-2278.38
6017.44
-2293.17
6399.03
-2357.36
6869.49
-2518.82
7634.92
-2772.17
8807.84
-3056.24
10280.1
-3289.39
11757.7
-3402.86
12898.8
-3356.21
13428.3
-3132.9
13179.4
-2718.85
12053.2
-2091.63
9946.32
-1270.66
6815.99
-420.831
3105.04
141.313
187.061
211.508
-831.417
56.9739
-205.473
-32.2476
75.2541
-107.538
-83.5449
-155.81
-127.85
-174.463
-197.798
-178.541
-286.115
-172.898
-348.497
-152.411
-362.134
-118.012
-281.517
-70.652
-79.0547
1.28026
344.336
64.3803
546.342
94.2623
501.36
102.299
373.096
100.249
262.346
92.8866
203.596
93.4167
164.175
88.9751
214.98
-5.84735
-137.817
122.989
-436.44
3970.33
-758.426
11.6262
-760.007
9.37138
-761.56
8.49593
-763.209
8.63401
-764.925
9.32085
-766.719
10.837
-768.612
13.0249
-770.626
16.003
-772.786
19.8288
-775.116
24.5914
-777.66
30.3792
-780.471
37.3398
-783.59
45.6524
-787.075
55.4624
-791.009
66.9172
-795.488
80.2713
-800.614
95.8346
-806.515
113.996
-813.362
135.217
-821.306
159.792
-830.595
188.359
-841.499
221.664
-854.392
260.552
-869.698
306.155
-887.928
359.718
-909.733
422.712
-935.948
497.206
-967.589
585.873
-1005.9
691.959
-1052.32
819.502
-1108.53
973.716
-1176.34
1160.97
-1257.54
1388.67
-1353.58
1665.12
-1465.15
1998.79
-1591.64
2396.75
-1730.16
2862.33
-1874.67
3391.59
-2014.99
3968.98
-2136.92
4563.63
-2224.97
5130.34
-2270.27
5623.43
-2283.66
6030.84
-2305.33
6420.7
-2392.6
6956.76
-2580.35
7822.68
-2847.02
9074.51
-3123.81
10556.9
-3331.36
11965.3
-3408.56
12976
-3322.52
13342.2
-3058.62
12915.5
-2597.84
11592.4
-1918.16
9266.63
-1062.5
5960.33
-211.487
2254.04
223.112
-247.527
145.79
-754.089
-22.4013
-37.2811
-56.9406
109.789
-125.835
-14.6483
-171.108
-82.5715
-191.376
-177.524
-195.607
-281.88
-188.526
-355.575
-166.414
-384.243
-127.461
-320.469
-72.3216
-134.192
2.77263
269.245
66.8181
482.299
99.911
468.27
110.277
362.734
108.992
263.634
102.015
210.578
104.444
161.75
127.146
192.28
72.003
-82.6688
125.871
-490.306
3874.49
-789.315
12.7955
-790.915
10.9711
-792.507
10.0873
-794.219
10.3448
-796.017
11.118
-797.915
12.7337
-799.935
15.0438
-802.1
18.166
-804.436
22.164
-806.975
27.1278
-809.761
33.1635
-812.847
40.4237
-816.285
49.088
-820.141
59.3166
-824.507
71.2805
-829.485
85.2471
-835.197
101.544
-841.783
120.58
-849.425
142.856
-858.288
168.653
-868.648
198.717
-880.815
233.829
-895.194
274.929
-912.231
323.191
-932.475
379.96
-956.629
446.863
-985.576
526.152
-1020.35
620.644
-1062.19
733.803
-1112.55
869.854
-1172.99
1034.16
-1245.19
1233.16
-1330.65
1474.12
-1430.43
1764.89
-1544.65
2113.02
-1671.93
2524.03
-1808.42
2998.82
-1946.95
3530.12
-2076.36
4098.39
-2182.33
4669.6
-2251.5
5199.51
-2280.72
5652.66
-2289.42
6039.53
-2323.74
6455.01
-2436.6
7069.63
-2648.07
8034.14
-2922.43
9348.87
-3186.43
10820.9
-3364.87
12143.7
-3404.6
13015.7
-3279.09
13216.7
-2973.5
12609.9
-2463.13
11082
-1730.67
8534.18
-851.932
5081.59
-48.3461
1450.45
214.013
-509.887
33.2747
-573.355
-98.3057
94.2857
-119.206
130.671
-178.689
44.8216
-219.154
-42.1192
-234.273
-162.415
-229.248
-286.912
-211.863
-372.965
-183.492
-412.617
-139.279
-364.686
-76.1179
-197.357
4.85769
188.268
69.6414
417.516
105.931
431.98
118.581
350.083
118.396
263.817
112.222
216.749
113.153
160.816
135.933
169.497
111.467
-58.2034
118.878
-497.717
3792.6
-824.148
13.9276
-825.751
12.5747
-827.376
11.7119
-829.14
12.1097
-831.017
12.9956
-833.019
14.737
-835.171
17.1963
-837.495
20.4909
-840.02
24.6901
-842.781
29.8905
-845.827
36.2115
-849.215
43.8126
-853.003
52.8784
-857.266
63.5821
-862.103
76.1194
-867.629
90.7756
-873.983
107.9
-881.322
127.923
-889.83
151.367
-899.697
178.523
-911.224
210.247
-924.756
247.364
-940.721
290.898
-959.594
342.068
-981.949
402.319
-1008.54
473.454
-1040.27
557.891
-1078.19
658.572
-1123.52
779.136
-1177.66
923.996
-1242.08
1098.59
-1318.23
1309.31
-1407.32
1563.21
-1509.97
1867.55
-1625.73
2228.78
-1752.36
2650.66
-1885.05
3131.52
-2015.56
3660.64
-2132.06
4214.89
-2220.78
4758.32
-2271.6
5250.34
-2288.09
5669.14
-2297.71
6049.16
-2349.7
6507.01
-2489.12
7209.05
-2720.56
8265.58
-2996.81
9625.13
-3242.95
11067
-3389.41
12290.2
-3390.86
13017.2
-3225.69
13051.5
-2876.58
12260.8
-2313.01
10518.5
-1526.89
7748.05
-638.216
4192.92
32.8038
779.437
139.52
-616.596
-65.7045
-368.125
-166.122
194.705
-228.775
193.326
-298.426
114.479
-331.883
-8.65209
-327.729
-166.562
-296.474
-318.161
-252.813
-416.621
-207.409
-458.018
-154.502
-417.592
-82.8768
-268.98
7.85375
97.5416
72.7179
352.655
112.143
392.558
127.094
335.136
128.226
262.689
123.194
221.783
120.92
163.094
134.855
155.566
122.055
-45.3995
97.9038
-473.563
3711.19
-863.415
15.0179
-864.994
14.1538
-866.629
13.3461
-868.425
13.9049
-870.364
14.9342
-872.458
16.8296
-874.732
19.4692
-877.212
22.9686
-879.928
27.4046
-882.922
32.8822
-886.244
39.5313
-889.955
47.5214
-894.121
57.042
-898.821
68.2801
-904.164
81.4598
-910.281
96.8902
-917.326
114.942
-925.47
136.065
-934.897
160.791
-945.833
189.456
-958.598
223.01
-973.565
262.328
-991.185
308.515
-1011.96
362.837
-1036.48
426.841
-1065.53
502.505
-1100.05
592.404
-1141.06
699.582
-1189.74
827.814
-1247.42
981.677
-1315.44
1166.6
-1395.01
1388.88
-1487
1655.2
-1591.57
1972.12
-1707.61
2344.81
-1832.03
2775.09
-1959.06
3258.54
-2079.53
3781.11
-2181.35
4316.71
-2252.17
4829.14
-2286.18
5284.35
-2294.18
5677.14
-2310.47
6065.45
-2384.11
6580.65
-2549.48
7374.42
-2796.26
8512.37
-3068.61
9897.47
-3292.35
11290.8
-3404.53
12402.4
-3367.24
12979.9
-3161.86
12846.2
-2766.56
11865.5
-2146.45
9898.36
-1308.5
6910.11
-417.148
3301.56
113.913
248.376
92.7469
-595.436
-154.419
-120.969
-277.132
317.408
-400.57
316.752
-495.828
209.727
-522.073
17.5819
-488.008
-200.636
-414.084
-392.093
-325.777
-504.933
-246.491
-537.308
-176.009
-488.078
-96.9876
-348.006
11.6151
-11.0643
75.472
288.797
117.644
350.385
134.907
317.872
137.773
259.82
134.217
225.336
128.921
168.387
133.858
150.626
122.324
-33.8672
84.3268
-435.567
3644.36
-907.596
16.0337
-909.117
15.6753
-910.731
14.961
-912.528
15.7023
-914.503
16.9099
-916.665
18.9916
-919.042
21.8476
-921.662
25.5896
-924.561
30.3046
-927.783
36.1058
-931.383
43.1324
-935.424
51.5648
-939.98
61.5992
-945.136
73.4389
-951.014
87.3395
-957.757
103.635
-965.529
122.717
-974.513
145.052
-984.895
171.177
-996.945
201.508
-1010.99
237.062
-1027.43
278.773
-1046.74
327.823
-1069.43
385.529
-1096.12
453.54
-1127.62
534.002
-1164.83
629.622
-1208.79
743.546
-1260.61
879.636
-1321.51
1042.58
-1392.66
1237.76
-1475.02
1471.24
-1569.08
1749.26
-1674.48
2077.52
-1789.43
2459.76
-1909.98
2895.65
-2029.42
3377.98
-2137.93
3889.63
-2223.72
4402.49
-2276.78
4882.2
-2296.53
5304.1
-2301.01
5681.62
-2329.41
6093.85
-2427.34
6678.58
-2616.62
7563.71
-2873.51
8769.25
-3136.33
10160.3
-3333.73
11488.2
-3409.93
12478.6
-3333.54
12903.5
-3086.77
12599.4
-2641.98
11420.7
-1963.51
9219.89
-1079.71
6026.31
-166.036
2387.89
214.807
-132.453
10.8384
-391.464
-277.819
167.693
-465.568
505.16
-649.498
500.686
-773.282
333.518
-793.273
37.5819
-726.516
-267.386
-599.285
-519.319
-448.856
-655.358
-314.52
-671.64
-210.255
-592.34
-122.597
-435.663
2.56573
-136.223
77.5992
213.767
122.588
305.398
141.947
298.516
146.612
255.159
144.558
227.393
137.188
175.761
134.124
153.692
118.769
-18.5068
70.2617
-387.057
3590.55
-957.143
16.9276
-958.563
17.0946
-960.119
16.5167
-961.879
17.4618
-963.855
18.8845
-966.052
21.1871
-968.503
24.2978
-971.239
28.3237
-974.3
33.3635
-977.734
39.5376
-981.598
46.9951
-985.963
55.9272
-990.906
66.5395
-996.524
79.0548
-1002.95
93.7606
-1010.33
111.015
-1018.84
131.226
-1028.68
154.883
-1040.03
182.529
-1053.21
214.687
-1068.56
252.402
-1086.47
296.689
-1107.45
348.797
-1132.03
410.101
-1160.84
482.351
-1194.68
567.844
-1234.46
669.392
-1281.15
790.237
-1335.81
934.289
-1399.5
1106.27
-1473.23
1311.49
-1557.65
1555.66
-1652.84
1844.45
-1757.87
2182.56
-1870.24
2572.12
-1985.17
3010.57
-2095.12
3487.93
-2189.98
3984.49
-2258.93
4471.44
-2295.25
4918.53
-2304.27
5313.11
-2310.62
5687.97
-2355.93
6139.16
-2479.3
6801.95
-2689.24
7773.65
-2950.6
9030.61
-3198.64
10408.3
-3366.38
11655.9
-3405.35
12517.5
-3289.42
12787.6
-2999.35
12309.3
-2501.6
10922.9
-1765.35
8483.64
-852.841
5113.8
95.5541
1439.5
292.099
-328.999
-114.786
15.4121
-472.998
525.897
-741.715
773.87
-980.899
739.862
-1125.69
478.298
-1138.5
50.3872
-1041.83
-364.065
-860.557
-700.598
-638.037
-877.884
-428.165
-881.516
-266.668
-753.841
-150.477
-551.858
-18.9168
-267.787
80.1899
114.659
127.832
257.755
149.224
277.123
155.25
249.131
154.174
228.466
145.558
184.374
135.41
163.838
112.594
4.30705
54.0177
-328.482
3529.33
-1012.43
17.6641
-1013.7
18.3649
-1015.16
17.9729
-1016.84
19.1436
-1018.78
20.8205
-1020.97
23.3811
-1023.46
26.7882
-1026.28
31.143
-1029.47
36.5563
-1033.09
43.1559
-1037.19
51.1019
-1041.86
60.5956
-1047.17
71.8538
-1053.24
85.1228
-1060.19
100.72
-1068.2
119.026
-1077.44
140.467
-1088.11
165.557
-1100.43
194.851
-1114.73
228.986
-1131.34
269.019
-1150.7
316.053
-1173.3
371.395
-1199.68
436.487
-1230.51
513.179
-1266.55
603.89
-1308.67
711.518
-1357.81
839.378
-1414.92
991.405
-1480.92
1172.27
-1556.57
1387.14
-1642.21
1641.3
-1737.47
1939.72
-1840.83
2285.92
-1949.03
2680.33
-2056.53
3118.07
-2155.19
3586.59
-2235.07
4064.37
-2287.1
4523.47
-2308.69
4940.13
-2311.32
5315.74
-2325
5701.66
-2390.98
6205.14
-2539.44
6950.41
-2765.77
7999.98
-3025.89
9290.73
-3254.35
10636.8
-3389.74
11791.3
-3390.58
12518.4
-3234.3
12631.3
-2898.3
11973.3
-2344.16
10368.8
-1550.9
7690.39
-624.76
4187.67
146.762
667.982
72.6109
-254.836
-353.544
441.57
-745.043
917.4
-1096.73
1125.56
-1376.39
1019.53
-1528.93
630.85
-1534.22
55.6821
-1414.27
-484.007
-1188.23
-926.635
-897.025
-1169.08
-601.4
-1177.14
-359.293
-995.945
-189.76
-721.388
-43.2482
-414.296
83.5053
-12.09
131.588
209.674
155.673
253.041
163.521
241.286
163.398
228.592
154.064
193.712
137.83
180.074
107.22
34.9215
47.6937
-268.952
3489.54
-1073.71
18.2233
-1074.78
19.4377
-1076.09
19.2874
-1077.65
20.704
-1079.51
22.6726
-1081.66
25.5276
-1084.14
29.2714
-1087
34
-1090.28
39.8358
-1094.04
46.9148
-1098.35
55.4082
-1103.28
65.5267
-1108.93
77.5012
-1115.42
91.6033
-1122.88
108.177
-1131.48
127.625
-1141.41
150.396
-1152.88
177.025
-1166.13
208.096
-1181.49
244.343
-1199.32
286.844
-1220.05
336.782
-1244.17
395.511
-1272.24
464.554
-1304.91
545.851
-1342.94
641.918
-1387.14
755.714
-1438.36
890.599
-1497.47
1050.5
-1565.18
1239.99
-1642
1463.95
-1727.92
1727.22
-1822.08
2033.88
-1922.33
2386.17
-2024.71
2782.71
-2123
3216.36
-2208.81
3672.4
-2272.91
4128.46
-2308.77
4559.33
-2318.59
4949.94
-2319.77
5316.92
-2345.89
5727.79
-2435.02
6294.26
-2606.79
7122.18
-2844.54
8237.73
-3097.79
9543.98
-3302.45
10841.5
-3403.34
11892.2
-3365.33
12480.4
-3167.36
12433.3
-2782.18
11588.1
-2168.95
9755.55
-1321.2
6842.64
-378.495
3244.96
125.592
163.893
-162.113
32.8614
-623.809
903.26
-1090.22
1383.8
-1503.47
1538.81
-1799.28
1315.32
-1947.31
778.879
-1947.28
55.6429
-1813.67
-617.621
-1558.49
-1181.82
-1213.76
-1513.82
-837.267
-1553.64
-502.095
-1331.12
-257.829
-965.658
-88.834
-583.294
64.2315
-165.158
128.271
145.633
158.28
223.03
169.642
229.922
171.47
226.761
162.312
202.867
141.339
201.044
102.928
73.3296
35.0912
-201.115
3443.44
-1141.03
18.5922
-1141.87
20.2766
-1143.01
20.4301
-1144.42
22.1108
-1146.15
24.4054
-1148.21
27.5893
-1150.65
31.7085
-1153.5
36.8549
-1156.83
43.1622
-1160.69
50.7747
-1165.15
59.8745
-1170.31
70.6822
-1176.25
83.445
-1183.1
98.4598
-1191.02
116.093
-1200.16
136.772
-1210.73
160.968
-1222.94
189.239
-1237.06
222.21
-1253.4
260.694
-1272.35
305.798
-1294.34
358.773
-1319.85
421.019
-1349.43
494.142
-1383.75
580.166
-1423.49
681.671
-1469.43
801.65
-1522.31
943.484
-1582.86
1111.05
-1651.61
1308.74
-1728.75
1541.1
-1813.9
1812.37
-1905.67
2125.66
-2001.31
2481.81
-2096.19
2877.58
-2183.62
3303.79
-2255.35
3744.13
-2303.53
4176.65
-2324.9
4580.69
-2326.76
4951.81
-2331.7
5321.86
-2374.67
5770.75
-2487.99
6407.59
-2680.06
7314.25
-2923.81
8481.48
-3164.84
9785.01
-3342.08
11018.7
-3406.88
11957
-3329.18
12402.7
-3087.46
12191.6
-2649.52
11150.2
-1975.99
9082.01
-1082.25
5948.91
-122.15
2284.86
79.407
-37.6552
-411.931
524.204
-949.867
1441.2
-1485.74
1919.68
-1924.64
1977.72
-2213.91
1604.59
-2350.85
915.826
-2348.41
53.2089
-2210.92
-755.107
-1943.83
-1448.9
-1566.77
-1890.88
-1126.49
-1993.91
-699.727
-1757.88
-364.69
-1300.69
-146.759
-801.222
25.1608
-337.076
119.898
50.8977
155.598
187.332
171.972
213.551
177.054
221.682
169.383
210.542
145.311
225.118
101.358
117.286
31.5881
-131.34
3405.37
-1214.32
18.7589
-1214.91
20.8626
-1215.86
21.38
-1217.09
23.3383
-1218.67
25.9865
-1220.61
29.5293
-1222.96
34.0587
-1225.77
39.6627
-1229.1
46.4862
-1233.01
54.6816
-1237.58
64.4431
-1242.9
76.0015
-1249.08
89.6214
-1256.24
105.624
-1264.55
124.396
-1274.17
146.388
-1285.3
172.098
-1298.17
202.107
-1313.05
237.09
-1330.28
277.918
-1350.23
325.743
-1373.32
381.864
-1400.04
447.731
-1430.92
525.027
-1466.61
615.845
-1507.74
722.805
-1555
848.908
-1609.04
997.518
-1670.41
1172.42
-1739.42
1377.74
-1815.94
1617.62
-1899.16
1895.58
-1987.18
2213.68
-2076.64
2571.27
-2162.39
2963.33
-2237.55
3378.96
-2294.5
3801.08
-2327.41
4209.56
-2336.88
4590.15
-2335.28
4950.21
-2349.08
5335.66
-2412.23
5833.9
-2549.36
6544.72
-2757.69
7522.58
-3001.85
8725.64
-3225.79
10008.9
-3372.64
11165.6
-3400.01
11984.4
-3281.4
12284.1
-2993.15
11903.3
-2499.05
10656.1
-1766.38
8349.34
-846.067
5028.6
-1.17279
1439.97
-103.239
64.4039
-714.759
1135.72
-1325.97
2052.4
-1897.03
2490.73
-2326.63
2407.32
-2594.31
1872.27
-2717.02
1038.54
-2714.35
50.5281
-2581.98
-887.489
-2319.47
-1711.42
-1932.73
-2277.62
-1452.54
-2474.1
-948.477
-2261.95
-515.816
-1733.36
-219.078
-1097.96
-18.6246
-537.532
105.329
-73.0591
144.022
148.636
167.927
189.644
178.306
211.3
173.974
214.872
149.037
250.053
103.407
162.913
22.909
-50.8427
3390.36
-1293.31
18.7258
-1293.65
21.2036
-1294.4
22.1362
-1295.45
24.3818
-1296.86
27.4049
-1298.67
31.3323
-1300.91
36.3015
-1303.64
42.3972
-1306.93
49.7759
-1310.85
58.5987
-1315.47
69.0716
-1320.91
81.4361
-1327.26
95.9754
-1334.67
113.033
-1343.28
133.016
-1353.29
156.396
-1364.89
183.699
-1378.32
215.535
-1393.85
252.625
-1411.82
295.893
-1432.61
346.531
-1456.62
405.88
-1484.32
475.438
-1516.25
556.954
-1552.98
652.579
-1595.11
764.942
-1643.22
897.025
-1697.84
1052.13
-1759.32
1233.9
-1827.72
1446.15
-1902.57
1692.48
-1982.61
1975.62
-2065.44
2296.51
-2147.19
2653.02
-2222.34
3038.49
-2284.2