/*--------------------------------*- C++ -*----------------------------------*\
| =========                 |                                                 |
| \\      /  F ield         | OpenFOAM: The Open Source CFD Toolbox           |
|  \\    /   O peration     | Version:  4.1                                   |
|   \\  /    A nd           | Web:      www.OpenFOAM.org                      |
|    \\/     M anipulation  |                                                 |
\*---------------------------------------------------------------------------*/
FoamFile
{
    version     2.0;
    format      ascii;
    class       volSymmTensorField;
    location    "17";
    object      R;
}
// * * * * * * * * * * * * * * * * * * * * * * * * * * * * * * * * * * * * * //

dimensions      [0 2 -2 0 0 0 0];

internalField   nonuniform List<symmTensor> 
6785
(
(0.908979 3.6521e-16 8.02243e-16 0.457905 0.233409 2.08322)
(0.000209684 7.93348e-21 1.89106e-20 0.000198078 4.92988e-06 0.000238526)
(0.000128384 -9.96238e-24 -2.51285e-24 0.000128351 3.65853e-09 0.000128406)
(0.000128277 5.82771e-24 4.01949e-24 0.000128262 9.47797e-09 0.000128276)
(0.000128289 -1.51465e-23 -5.99722e-24 0.000128274 9.23379e-09 0.000128288)
(0.000128258 9.45995e-25 3.27258e-24 0.000128242 8.44514e-09 0.000128257)
(0.000128271 5.35833e-24 2.59561e-24 0.000128255 7.76607e-09 0.000128271)
(0.000128285 -2.8748e-24 -7.30415e-24 0.000128267 7.16892e-09 0.000128285)
(0.000128254 5.33962e-24 -2.36443e-25 0.000128236 6.6616e-09 0.000128255)
(0.000128264 -5.1289e-25 2.16389e-24 0.000128244 5.90281e-09 0.000128265)
(0.000128264 -8.79455e-24 -1.98428e-24 0.000128242 4.53397e-09 0.000128265)
(0.000128226 3.42622e-24 2.19003e-25 0.000128203 3.90483e-09 0.000128227)
(0.0001284 1.9309e-24 -6.43641e-25 0.000128377 2.47561e-09 0.000128407)
(0.000303551 3.04835e-21 5.7997e-21 0.000265275 -2.70435e-05 0.000326937)
(0.420987 1.64525e-17 3.45309e-17 0.198345 -0.14122 0.589396)
(2.26923 9.27743e-17 2.40373e-15 0.749326 -0.450203 4.76475)
(0.21943 -7.85235e-18 9.08694e-17 0.0802025 -0.0520871 0.379579)
(0.0143146 -1.40931e-18 2.4644e-18 0.00872866 -0.00179812 0.0201444)
(0.000146592 -8.82449e-21 1.50807e-20 0.000113929 -1.09338e-05 0.000180141)
(6.6037e-07 -4.38793e-24 5.6653e-24 6.43457e-07 -4.13731e-09 6.75799e-07)
(4.60736e-07 1.50528e-25 6.13972e-25 4.58347e-07 1.56221e-09 4.60017e-07)
(4.33152e-07 2.10942e-24 -5.68225e-25 4.28121e-07 4.36156e-09 4.31579e-07)
(3.99212e-07 5.48303e-25 -3.86978e-25 3.90923e-07 7.84673e-09 3.96422e-07)
(3.67814e-07 9.1833e-26 1.93933e-24 3.61047e-07 5.3763e-09 3.64802e-07)
(3.59265e-07 1.10222e-23 -6.33841e-24 3.65568e-07 -5.19457e-09 3.58428e-07)
(3.44701e-07 -1.20843e-23 9.51927e-24 3.65559e-07 -1.18372e-08 3.45043e-07)
(2.91092e-07 -6.32149e-23 1.64631e-23 3.22403e-07 -1.43981e-08 2.90124e-07)
(2.11913e-06 1.4699e-22 -2.85253e-22 2.45374e-06 -6.02558e-07 2.11829e-06)
(0.00941917 9.96754e-21 -1.12919e-19 0.0111803 -0.0053513 0.00934605)
(0.644107 6.00529e-17 1.05688e-17 0.743304 -0.556144 0.627178)
(3.70001 7.84566e-17 2.71376e-15 1.28932 -1.20558 7.08615)
(0.4528 -4.67998e-17 7.76084e-17 0.180707 -0.157017 0.762277)
(0.0226303 -8.30624e-18 -1.82355e-18 0.0181189 -0.00373176 0.0302286)
(0.000244189 -3.1528e-20 -1.5175e-20 0.000225189 -3.89659e-05 0.000285983)
(1.50648e-05 -4.45978e-21 2.10411e-21 2.48388e-05 -2.13223e-05 1.73279e-05)
(0.000281631 -8.03836e-20 1.22501e-20 0.000531789 -0.000343417 0.000338632)
(0.00155548 -4.41373e-20 2.50902e-19 0.00310887 -0.00191057 0.00195187)
(0.00505248 6.09396e-19 1.87108e-18 0.0100525 -0.00610336 0.00643943)
(0.0128117 8.51889e-19 -2.68797e-19 0.0245363 -0.0148375 0.0161466)
(0.0280197 1.67589e-18 -2.12322e-18 0.0510577 -0.0304809 0.0348653)
(0.0562388 -3.23873e-18 7.26689e-18 0.0966952 -0.0575106 0.0697357)
(0.108167 -5.56895e-18 -5.8033e-18 0.17521 -0.10521 0.133419)
(0.199509 2.17791e-17 -9.73777e-17 0.307187 -0.184111 0.240733)
(0.340308 1.87674e-17 -9.67687e-17 0.480303 -0.295036 0.387989)
(0.573913 1.70407e-16 -5.26664e-17 0.598172 -0.456297 0.575017)
(4.23226 -3.99496e-17 3.03927e-15 1.53857 -1.55381 7.59738)
(0.870633 -6.00389e-17 -1.38376e-16 0.395216 -0.298495 1.53381)
(0.0945375 -9.67242e-17 -5.57781e-17 0.0871933 -0.0193935 0.129713)
(0.00216042 -1.03199e-18 -4.63746e-19 0.0022885 -0.0004812 0.00254632)
(0.000130933 -8.57203e-20 -1.50174e-20 0.000194197 -8.78043e-05 0.000152196)
(0.000607052 -2.17044e-19 -6.38883e-21 0.0011491 -0.000753407 0.000759041)
(0.0030999 9.35459e-20 -1.4426e-19 0.00608486 -0.00400874 0.00406364)
(0.00975468 2.04193e-18 1.12221e-18 0.0189746 -0.0122789 0.0130884)
(0.0229159 -3.25137e-18 1.06097e-17 0.0428798 -0.0268533 0.0304522)
(0.0457832 -3.00624e-17 1.77006e-17 0.0816772 -0.0484724 0.0592791)
(0.0865556 5.87803e-18 2.19592e-17 0.148216 -0.0830094 0.108997)
(0.163664 -2.08769e-17 5.14817e-17 0.272159 -0.147233 0.201453)
(0.311318 -7.54426e-17 -6.09223e-18 0.501277 -0.275217 0.379028)
(0.556491 7.9181e-16 -9.99218e-16 0.824693 -0.516418 0.683426)
(0.353353 -9.02064e-16 4.95576e-16 0.416811 -0.248943 0.347221)
(3.95021 -4.49388e-17 2.15835e-15 1.42822 -1.51836 6.81623)
(1.50189 5.61738e-18 -8.37028e-16 0.690819 -0.494622 2.88795)
(0.304599 -1.47565e-16 -2.39475e-16 0.222369 -0.0769485 0.487791)
(0.0473824 -2.59777e-17 -2.96809e-17 0.0396331 -0.0160914 0.0664606)
(0.00777412 -4.18915e-18 -3.54445e-18 0.00771943 -0.00367715 0.00983165)
(0.00183611 -5.49472e-19 -6.90614e-19 0.00256165 -0.00150485 0.00220172)
(0.00291746 -3.03652e-18 1.01868e-18 0.00555037 -0.00392961 0.00376335)
(0.00945102 -1.17583e-18 -6.20984e-19 0.0184162 -0.0126614 0.0127493)
(0.0230023 1.76106e-17 2.55341e-18 0.0434553 -0.0287409 0.0308993)
(0.0457673 -3.20941e-17 4.9172e-17 0.0830007 -0.051364 0.0596205)
(0.0836405 -5.84458e-18 1.11067e-17 0.146597 -0.0837248 0.104226)
(0.153689 -9.88285e-18 2.60217e-17 0.266056 -0.142186 0.183094)
(0.273423 -4.92036e-16 2.69685e-16 0.461703 -0.243648 0.316528)
(0.438617 -4.60577e-16 1.45962e-16 0.702871 -0.384064 0.492663)
(0.415653 1.3579e-15 -5.66813e-16 0.51375 -0.328518 0.413202)
(3.38367 -2.56216e-17 1.50495e-15 1.13496 -1.34095 5.79846)
(2.47443 -1.17483e-16 -7.62584e-16 1.09808 -0.845665 5.16524)
(0.628181 -3.66685e-16 -4.38041e-16 0.387139 -0.1652 1.10352)
(0.131246 -1.11781e-16 -1.06238e-16 0.100656 -0.0424846 0.188812)
(0.028584 -2.95047e-17 -1.42099e-17 0.02778 -0.0120301 0.0355456)
(0.00703951 -5.96066e-18 -1.41667e-18 0.00878705 -0.00415936 0.00806523)
(0.00390104 -3.58143e-18 2.27029e-18 0.00677746 -0.00438538 0.0047303)
(0.00901756 -1.67507e-18 -7.56947e-18 0.0176282 -0.0124219 0.0119217)
(0.0223245 1.71243e-18 -3.88201e-18 0.0431306 -0.0288653 0.0295258)
(0.0446983 -5.05031e-17 6.32907e-17 0.0835633 -0.0520796 0.0571087)
(0.0804115 -5.37865e-18 1.84717e-17 0.146108 -0.0842133 0.0977684)
(0.141489 -1.93249e-16 6.54647e-17 0.253475 -0.135755 0.163227)
(0.251775 -2.95432e-16 2.79146e-16 0.436836 -0.230963 0.283276)
(0.454164 8.67502e-16 -1.1918e-16 0.754749 -0.384961 0.494259)
(0.589186 6.57591e-16 -1.6973e-15 0.597426 -0.502645 0.699879)
(2.98346 5.62115e-17 1.6684e-15 1.01853 -1.17618 5.10984)
(3.70145 -5.93771e-17 -2.46009e-15 1.61068 -1.30102 8.01987)
(0.978139 -4.86897e-16 -9.88083e-16 0.558698 -0.270013 1.80383)
(0.219309 -2.26561e-16 -2.05214e-16 0.168737 -0.070194 0.319882)
(0.0536588 -4.42955e-17 -5.48885e-18 0.0568267 -0.0232779 0.0650301)
(0.014506 -1.18983e-17 3.32795e-18 0.0198603 -0.00875606 0.0161982)
(0.00594832 -7.44222e-18 4.72942e-18 0.0103162 -0.00594855 0.00698724)
(0.00933692 -3.79474e-18 -1.41735e-17 0.0183623 -0.0129835 0.0120937)
(0.0227221 -1.02745e-17 -1.25298e-17 0.0447832 -0.0304302 0.0295306)
(0.0442415 -4.21329e-17 1.01003e-16 0.08417 -0.053951 0.0553771)
(0.0742896 5.54221e-19 8.42784e-18 0.13593 -0.0801998 0.0884372)
(0.124767 -1.12291e-16 6.795e-17 0.223586 -0.122328 0.141091)
(0.254617 -2.23301e-16 3.83467e-16 0.43316 -0.237021 0.285415)
(0.59883 9.1869e-16 -7.14833e-16 0.992151 -0.4994 0.631023)
(0.782478 2.95934e-16 -6.68975e-16 0.884462 -0.661259 0.801489)
(2.75312 1.45475e-16 2.05583e-15 1.30914 -0.892397 4.43024)
(4.48318 2.81012e-16 -2.27514e-15 2.06135 -1.4846 9.66931)
(1.15077 -3.68572e-16 -1.3195e-15 0.664114 -0.306846 2.11945)
(0.265486 -3.06526e-16 -2.68962e-16 0.219662 -0.0828428 0.375988)
(0.0712986 -7.04081e-17 -1.15209e-17 0.085411 -0.0338808 0.0824502)
(0.021706 -1.59293e-17 9.11504e-18 0.0332631 -0.0146368 0.0240264)
(0.00845308 -8.53936e-18 7.67018e-18 0.0153357 -0.00834597 0.0100291)
(0.00986322 -7.57126e-19 -1.31595e-17 0.0195038 -0.0136454 0.0126167)
(0.0217333 -1.56119e-17 -1.41151e-17 0.0427111 -0.0296738 0.0277476)
(0.040632 -3.97441e-17 8.91794e-17 0.0771206 -0.0495851 0.0499611)
(0.0628429 3.87617e-17 -3.45952e-17 0.113896 -0.0683783 0.0735848)
(0.104448 -9.14613e-17 6.31082e-17 0.184372 -0.101766 0.116653)
(0.273875 -4.00372e-16 3.74641e-16 0.451197 -0.255194 0.308098)
(0.709573 8.17955e-16 -3.95257e-16 1.15947 -0.572468 0.718379)
(0.853511 3.05585e-16 -2.18276e-16 1.06618 -0.708658 0.704523)
(2.63598 1.36194e-16 2.2008e-15 1.30284 -0.786342 4.26033)
(4.55582 2.09986e-16 -7.7219e-16 2.15026 -1.45645 9.74799)
(1.16945 -2.66756e-16 -1.47036e-15 0.685006 -0.300616 2.13586)
(0.281129 -3.36561e-16 -2.83887e-16 0.251335 -0.0855051 0.384621)
(0.0835704 -9.42527e-17 -1.93355e-17 0.110633 -0.0441111 0.0931692)
(0.0287959 -2.03092e-17 7.48736e-18 0.0475557 -0.0216475 0.032266)
(0.0115248 -1.16814e-17 1.07621e-17 0.0216491 -0.0115655 0.0140409)
(0.0104928 -8.33438e-18 -1.33752e-17 0.0208071 -0.0139959 0.0133354)
(0.019457 -1.48295e-17 -1.36834e-17 0.0378949 -0.0260406 0.0244349)
(0.0337035 -9.75827e-18 6.67683e-17 0.0632242 -0.0408835 0.0407274)
(0.0487636 2.32622e-17 -1.29774e-17 0.0870916 -0.0524254 0.056227)
(0.0878611 -7.07301e-17 3.65899e-17 0.153036 -0.0833496 0.0973646)
(0.294937 -3.97649e-16 3.02671e-16 0.472391 -0.273599 0.335316)
(0.791917 1.10452e-16 1.3655e-16 1.26138 -0.624579 0.817605)
(0.973334 6.44724e-16 -6.30881e-16 1.01584 -0.782817 1.04661)
(2.50586 -3.60247e-17 1.49389e-15 1.0926 -0.82053 4.22913)
(3.98901 2.59787e-17 2.79726e-15 1.9506 -1.21778 8.44971)
(1.07513 -3.31055e-16 -1.31269e-15 0.641937 -0.2612 1.94353)
(0.280032 -3.19881e-16 -3.98039e-16 0.26474 -0.0805131 0.373473)
(0.0942091 -1.35151e-16 -1.25629e-17 0.132507 -0.0537115 0.10328)
(0.0374191 -5.18345e-17 1.23133e-17 0.0644894 -0.0306526 0.0427823)
(0.0158771 -3.36996e-18 1.12016e-17 0.0303941 -0.0163164 0.0198514)
(0.0114093 -8.72519e-20 -1.79543e-17 0.0226229 -0.0144737 0.0144622)
(0.0166113 -1.47679e-17 -6.0357e-18 0.0320216 -0.021406 0.0205393)
(0.0259589 -9.38816e-18 4.62842e-17 0.0480496 -0.0305294 0.0308288)
(0.0360867 1.6966e-18 -4.00858e-18 0.0634936 -0.0377452 0.0409813)
(0.0785813 -7.55155e-17 6.86378e-17 0.135958 -0.0729945 0.0867501)
(0.318551 -2.04161e-16 4.58646e-16 0.501626 -0.295348 0.365244)
(0.849534 -7.43225e-16 5.26551e-16 1.33028 -0.661211 0.889289)
(1.03498 1.05439e-15 -1.13685e-15 0.980648 -0.823435 1.21175)
(2.36239 2.3866e-17 3.66231e-16 0.822418 -0.883934 4.21201)
(3.33124 -5.79693e-16 3.34949e-15 1.67381 -0.965016 7.04197)
(0.931168 -1.98923e-16 -8.24227e-16 0.569363 -0.210338 1.67187)
(0.266861 -2.2701e-16 -3.72376e-16 0.259154 -0.0705122 0.351581)
(0.1021 -2.2839e-16 2.36119e-18 0.147142 -0.0603772 0.111567)
(0.0467796 -9.89018e-17 2.1003e-17 0.0818441 -0.0398633 0.0543243)
(0.0217325 1.59084e-17 4.58081e-18 0.0419284 -0.0226041 0.0275347)
(0.0130177 4.34656e-18 -1.0429e-17 0.0258648 -0.0156734 0.0165071)
(0.0141534 -1.43884e-17 -2.27335e-18 0.0271197 -0.017155 0.0172731)
(0.0194476 1.54569e-18 1.98978e-17 0.0356024 -0.0219925 0.0227178)
(0.0279735 -2.29909e-17 1.70601e-17 0.0489871 -0.0281305 0.0314079)
(0.0789427 -1.41461e-16 1.39915e-16 0.137881 -0.0712954 0.0870826)
(0.346903 -5.7486e-16 6.01507e-16 0.541078 -0.322623 0.399822)
(0.894838 -1.51632e-15 8.54165e-16 1.38248 -0.690791 0.941787)
(1.08264 2.55044e-15 -2.49875e-15 0.984324 -0.870142 1.3009)
(2.22393 -1.79957e-17 6.70858e-16 0.635264 -0.896446 4.10744)
(2.75724 -2.63184e-16 1.37093e-15 1.41963 -0.745593 5.85051)
(0.793265 -1.91554e-16 -1.02056e-15 0.490006 -0.16902 1.43541)
(0.243695 -1.21519e-16 -2.03599e-16 0.237494 -0.0582151 0.320458)
(0.106114 -2.98205e-16 2.80854e-17 0.154264 -0.0641547 0.115955)
(0.0562596 -1.26129e-16 4.52005e-17 0.0994661 -0.0495234 0.0658229)
(0.0286495 6.01532e-17 -1.4189e-17 0.0554691 -0.0300632 0.0364614)
(0.0152304 -8.8541e-18 -1.14553e-18 0.0302438 -0.0175302 0.0193265)
(0.0121542 -2.54522e-17 7.38643e-18 0.023069 -0.0139704 0.0146629)
(0.0152041 5.3349e-18 7.94929e-18 0.02772 -0.0161102 0.0175259)
(0.0232521 -3.35879e-17 3.26282e-17 0.0405469 -0.0224413 0.0259215)
(0.0849086 -1.3689e-16 1.70498e-16 0.14861 -0.0763161 0.0938214)
(0.378948 -6.47064e-16 6.71795e-16 0.583136 -0.35272 0.439197)
(0.931613 -1.83163e-15 1.18473e-15 1.41366 -0.711132 0.987066)
(1.08914 2.7655e-15 -4.0193e-15 0.956778 -0.869613 1.3422)
(2.0952 -9.07171e-17 4.46859e-16 0.60111 -0.85342 3.85248)
(2.30286 1.07801e-16 2.49008e-15 1.22265 -0.575093 4.90862)
(0.637082 -9.35243e-17 -1.09444e-15 0.404481 -0.125633 1.15756)
(0.216351 -5.69271e-17 -1.25272e-16 0.205497 -0.0470957 0.290265)
(0.107848 -3.15687e-16 6.11814e-17 0.154251 -0.0655877 0.119159)
(0.0648173 -1.60689e-16 8.11764e-17 0.113514 -0.0571451 0.0754513)
(0.0369239 1.18443e-16 -6.46098e-17 0.0711871 -0.0392899 0.0462604)
(0.0189305 -1.84598e-17 1.88099e-17 0.03758 -0.0214391 0.0238138)
(0.0115975 -3.75607e-17 1.85906e-17 0.0220581 -0.0126574 0.0138935)
(0.0125325 1.23539e-17 -1.05739e-17 0.0228969 -0.0127653 0.014289)
(0.0219428 -5.67138e-17 5.72626e-17 0.0387146 -0.0203596 0.0244506)
(0.0976716 -1.93467e-16 2.14037e-16 0.17413 -0.0888723 0.108189)
(0.414243 -4.98313e-16 5.25358e-16 0.636128 -0.390037 0.483326)
(0.938793 -2.31896e-15 1.08993e-15 1.40883 -0.723393 0.994281)
(1.07144 2.7323e-15 -4.05575e-15 0.933215 -0.856286 1.32809)
(1.86763 -1.65711e-17 6.50884e-17 0.590003 -0.701273 3.33881)
(1.92945 2.67151e-17 1.49459e-15 1.04492 -0.392526 4.163)
(0.475861 -5.55763e-17 -8.34694e-16 0.302113 -0.080512 0.872081)
(0.158802 -5.56159e-17 -5.24224e-17 0.153392 -0.0322249 0.205643)
(0.0937374 -2.65358e-16 7.66405e-17 0.137748 -0.0583235 0.101315)
(0.062841 -1.04022e-16 4.23083e-17 0.111213 -0.0561774 0.0730002)
(0.0379479 9.72177e-17 -5.66014e-17 0.0729185 -0.0390902 0.0473971)
(0.0197179 -3.40527e-17 3.09848e-17 0.0388841 -0.0209061 0.024741)
(0.0128931 -3.06845e-17 2.22687e-17 0.0244103 -0.013075 0.0155609)
(0.0198641 -2.23128e-17 3.96471e-17 0.0366317 -0.0197943 0.0235082)
(0.0548365 -1.90632e-16 2.05962e-16 0.0978797 -0.0548382 0.0649805)
(0.189632 -3.03953e-16 3.36541e-16 0.325736 -0.180232 0.221226)
(0.515428 -8.77661e-16 7.92536e-16 0.759554 -0.470919 0.608361)
(1.02398 -2.06635e-15 6.78915e-16 1.48728 -0.771499 1.10366)
(1.16692 2.84469e-15 -4.26051e-15 1.03358 -0.953829 1.41705)
(2.40152 2.31189e-18 -5.33448e-16 0.9756 -0.9208 4.18466)
(1.70712 9.36792e-17 1.84456e-15 0.989558 -0.486657 3.63966)
(0.466313 -8.276e-17 -4.2786e-16 0.3077 -0.129492 0.887513)
(0.249 -8.67537e-17 -9.8128e-17 0.209868 -0.0821978 0.3832)
(0.15205 -2.95443e-16 1.09709e-16 0.187918 -0.0949148 0.196464)
(0.100129 -1.00573e-16 1.91592e-17 0.173028 -0.0986236 0.117913)
(0.0651404 8.85926e-17 -2.58757e-17 0.130219 -0.0781784 0.0766762)
(0.034773 -5.66057e-17 5.21165e-17 0.0731566 -0.0425876 0.041005)
(0.0181575 -3.45833e-17 3.64394e-17 0.0370068 -0.0179471 0.0209642)
(0.0241374 -5.85514e-17 7.22843e-17 0.0472125 -0.0227995 0.027663)
(0.0613915 -1.72515e-16 1.58323e-16 0.113559 -0.0565744 0.0693593)
(0.172466 -2.28691e-16 1.7892e-16 0.301995 -0.154985 0.189532)
(0.409734 -5.33363e-16 2.37166e-16 0.619666 -0.372282 0.461551)
(0.662002 3.79741e-16 -5.17328e-16 0.933408 -0.520464 0.687691)
(0.698077 2.10588e-15 -1.40499e-15 0.569883 -0.498288 0.805418)
(0.165421 4.62249e-19 6.37281e-17 0.212741 0.00327132 0.190552)
(0.129934 -4.3803e-20 6.95916e-17 0.15745 0.00998558 0.15234)
(0.124886 -3.32706e-18 6.0453e-17 0.141587 0.00979912 0.162033)
(0.117135 -3.56668e-18 5.98665e-17 0.126441 0.00654386 0.161584)
(0.107671 -2.06981e-18 5.97678e-17 0.11186 0.00162683 0.152113)
(0.0818871 -3.45161e-18 6.63278e-17 0.0829428 -0.00795665 0.111369)
(0.0898324 -5.98814e-18 6.44966e-17 0.0848812 -0.0110068 0.123172)
(0.0936338 -7.72634e-18 6.05492e-17 0.08543 -0.0136402 0.128814)
(0.0948737 -6.23079e-18 5.79519e-17 0.084817 -0.0131047 0.130393)
(0.0866846 -1.26612e-17 6.34556e-17 0.0764132 -0.0156306 0.118227)
(0.0970195 -1.37983e-17 5.10676e-17 0.0831994 -0.016604 0.128179)
(0.102998 -1.23665e-17 4.24317e-17 0.0875327 -0.0181478 0.132992)
(0.105422 -1.06333e-17 4.71504e-17 0.0903546 -0.0232651 0.128544)
(0.118858 -9.7067e-18 3.74456e-17 0.100179 -0.0238323 0.142978)
(0.127468 -9.95166e-18 3.15681e-17 0.106811 -0.0266572 0.151595)
(0.133034 -8.42271e-18 2.78448e-17 0.111579 -0.0265081 0.155212)
(0.130831 -8.36842e-18 3.74858e-17 0.109466 -0.028824 0.144914)
(0.143795 -7.4955e-18 3.14328e-17 0.118003 -0.026028 0.163263)
(0.152318 -6.67848e-18 2.85375e-17 0.12635 -0.024094 0.167998)
(0.156764 -6.7372e-18 4.04798e-17 0.133597 -0.0279168 0.160896)
(0.175377 -7.24648e-18 3.31074e-17 0.151336 -0.0275844 0.172843)
(0.187228 -9.7173e-18 3.04189e-17 0.163233 -0.0299297 0.178598)
(0.195855 -9.29605e-18 2.7828e-17 0.172249 -0.0313021 0.181897)
(0.19868 -9.78877e-18 3.98748e-17 0.174647 -0.0384508 0.178737)
(0.216379 -8.7768e-18 3.12786e-17 0.194155 -0.0377282 0.183124)
(0.226813 -7.70517e-18 2.75792e-17 0.206915 -0.0413079 0.183217)
(0.233465 -6.33478e-18 2.71931e-17 0.215146 -0.0418565 0.181688)
(0.232868 -5.24883e-18 3.8561e-17 0.216212 -0.0519867 0.170526)
(0.245897 -4.84583e-18 3.63308e-17 0.230661 -0.0447509 0.173952)
(0.251938 -4.38669e-18 3.4795e-17 0.238245 -0.0440529 0.174093)
(0.25083 -3.38356e-18 3.73664e-17 0.238979 -0.0541761 0.166266)
(0.263783 -3.43109e-18 3.70805e-17 0.253335 -0.0467559 0.169923)
(0.269574 -3.18994e-18 3.83876e-17 0.26034 -0.0478547 0.170407)
(0.272523 -2.6774e-18 3.96138e-17 0.264117 -0.0453557 0.169143)
(0.266783 -4.17087e-18 4.72339e-17 0.258881 -0.0539752 0.159176)
(0.27617 -4.62814e-18 4.44211e-17 0.269068 -0.0408207 0.163761)
(0.278645 -5.15346e-18 4.39503e-17 0.27226 -0.039264 0.164256)
(0.271833 -8.71144e-18 5.58712e-17 0.265621 -0.0473684 0.157406)
(0.28198 -9.80786e-18 4.81812e-17 0.277371 -0.0381627 0.162535)
(0.284346 -1.27389e-17 4.55372e-17 0.280396 -0.0381671 0.163383)
(0.284757 -1.3027e-17 4.236e-17 0.281459 -0.0373423 0.162317)
(0.275293 -1.73089e-17 5.43017e-17 0.271768 -0.0469665 0.154075)
(0.286017 -1.63528e-17 4.39451e-17 0.285071 -0.0392109 0.159966)
(0.288003 -1.68513e-17 4.04432e-17 0.288036 -0.0402015 0.160917)
(0.287942 -1.5944e-17 3.70344e-17 0.28872 -0.0398477 0.160211)
(0.276777 -1.87567e-17 4.09161e-17 0.276454 -0.0516197 0.154152)
(0.287586 -1.67015e-17 3.76116e-17 0.289875 -0.043884 0.1615)
(0.28948 -1.64085e-17 3.78449e-17 0.294107 -0.0426137 0.159795)
(0.28098 -2.30055e-17 5.11434e-17 0.28782 -0.0495573 0.152574)
(0.293302 -2.05236e-17 3.93973e-17 0.305198 -0.0377146 0.155358)
(0.295283 -2.04816e-17 3.5027e-17 0.31007 -0.0355272 0.154259)
(0.292429 -1.91394e-17 3.25396e-17 0.307056 -0.0298324 0.155731)
(0.273402 -2.43697e-17 3.95265e-17 0.28625 -0.0285686 0.153959)
(0.29022 -2.13532e-17 3.08034e-17 0.304998 -0.0246279 0.159852)
(0.293761 -2.22535e-17 2.6467e-17 0.310002 -0.0251306 0.161806)
(0.292769 -2.21811e-17 2.36271e-17 0.310444 -0.0237031 0.162)
(0.279199 -2.84267e-17 2.74554e-17 0.301817 -0.0304079 0.160959)
(0.291073 -2.1781e-17 1.87821e-17 0.312884 -0.0229235 0.159029)
(0.293559 -2.0684e-17 1.45127e-17 0.316563 -0.0222507 0.157829)
(0.287631 -3.43681e-17 1.51167e-18 0.317638 -0.0349233 0.154467)
(0.293745 -3.22763e-17 -3.50604e-18 0.318507 -0.0239016 0.153723)
(0.293951 -3.89383e-17 -1.1085e-17 0.317994 -0.0241473 0.153278)
(0.290474 -4.22963e-17 -1.54098e-17 0.314271 -0.0236824 0.149958)
(0.2752 -8.39579e-17 -2.9837e-17 0.302363 -0.0393445 0.141893)
(0.267658 -5.61568e-17 -2.51055e-17 0.291626 -0.0267705 0.134154)
(0.259528 -4.1979e-17 -2.47411e-17 0.284158 -0.0280948 0.12929)
(0.234391 -3.59391e-17 -3.50326e-17 0.262541 -0.0469598 0.118671)
(0.213905 -6.86796e-18 -2.39796e-17 0.24096 -0.032678 0.105127)
(0.200039 5.61431e-18 -2.40083e-17 0.228748 -0.0346737 0.0984005)
(0.182638 1.97599e-17 -3.16898e-17 0.212847 -0.0359759 0.09114)
(0.147257 5.96925e-17 -6.36483e-17 0.180886 -0.0610573 0.0808499)
(0.124898 6.59721e-17 -7.56915e-17 0.158889 -0.0497553 0.0739485)
(0.113991 8.26205e-17 -1.06185e-16 0.148293 -0.0578899 0.0744892)
(0.106079 9.58951e-17 -1.40841e-16 0.141227 -0.0686236 0.0795334)
(0.101229 1.6594e-16 -2.44256e-16 0.138479 -0.109671 0.0938319)
(0.102005 1.47953e-16 -2.28671e-16 0.139652 -0.101689 0.104675)
(0.107503 1.73346e-16 -2.74152e-16 0.146073 -0.118401 0.117436)
(0.121636 2.34524e-16 -4.15163e-16 0.161936 -0.157327 0.139513)
(0.130662 2.01001e-16 -3.36235e-16 0.170201 -0.144041 0.155434)
(0.141106 2.18643e-16 -3.76476e-16 0.181386 -0.161339 0.171439)
(0.157347 2.14106e-16 -3.32722e-16 0.199117 -0.171075 0.19364)
(0.161807 1.91964e-16 -2.6513e-16 0.207763 -0.17126 0.198007)
(0.159346 1.60425e-16 -2.19536e-16 0.20993 -0.169596 0.195877)
(0.14761 5.82225e-17 -1.23921e-16 0.202504 -0.159356 0.182286)
(0.163653 5.21058e-18 -2.08298e-17 0.228238 -0.171434 0.200736)
(0.15444 -6.74776e-17 9.74024e-17 0.224394 -0.164827 0.190659)
(0.146283 -1.29668e-16 1.86679e-16 0.215591 -0.156873 0.179583)
(0.13992 -1.58142e-16 2.27246e-16 0.208709 -0.150794 0.172396)
(0.132491 -1.73889e-16 2.46344e-16 0.199775 -0.143824 0.164615)
(0.1237 -1.89046e-16 2.60033e-16 0.188905 -0.13548 0.155497)
(0.112527 -1.99271e-16 2.63559e-16 0.174251 -0.124468 0.14319)
(0.0989303 -1.92365e-16 2.45666e-16 0.154669 -0.110235 0.126915)
(0.0848362 -1.58376e-16 1.94232e-16 0.133239 -0.0938079 0.109033)
(0.08623 -1.63905e-16 2.04391e-16 0.137269 -0.0905084 0.111685)
(0.0782026 -1.5092e-16 1.94803e-16 0.124787 -0.0822668 0.103308)
(0.0701929 -1.355e-16 1.76904e-16 0.112661 -0.0735685 0.0936039)
(0.0609387 -1.20465e-16 1.54624e-16 0.0990955 -0.0636038 0.0815724)
(0.0574946 -1.1389e-16 1.40646e-16 0.0929979 -0.0592011 0.076639)
(0.0551557 -1.08895e-16 1.29522e-16 0.0888803 -0.0563575 0.0741161)
(0.0517547 -1.03058e-16 1.16188e-16 0.0826726 -0.0526708 0.0703187)
(0.0469103 -9.55931e-17 1.00648e-16 0.073441 -0.0480343 0.0650757)
(0.0398109 -8.13156e-17 7.71564e-17 0.0604073 -0.0414754 0.0572162)
(0.0392999 -6.86869e-17 6.03384e-17 0.0594666 -0.0392451 0.0571428)
(0.0390924 -6.39205e-17 5.61583e-17 0.058354 -0.0390445 0.0574457)
(0.0387218 -5.77264e-17 5.00019e-17 0.0570892 -0.0385929 0.0571531)
(0.038337 -5.07513e-17 4.35113e-17 0.0558621 -0.0381822 0.0568858)
(0.0376726 -4.18388e-17 3.50426e-17 0.0541502 -0.037474 0.056118)
(0.0372929 -3.26183e-17 2.59197e-17 0.052972 -0.0368969 0.0554933)
(0.0384163 -2.89736e-17 2.25816e-17 0.0545148 -0.0375474 0.0568293)
(0.0399892 -2.73902e-17 2.15881e-17 0.0567757 -0.038535 0.0589744)
(0.0413679 -2.49777e-17 1.95323e-17 0.0581488 -0.0392707 0.0609505)
(0.043154 -2.23094e-17 1.66117e-17 0.0599718 -0.0400251 0.063411)
(0.0453262 -2.72237e-17 1.59816e-17 0.0625198 -0.0414789 0.0676996)
(0.0472991 -2.80431e-17 1.49975e-17 0.065018 -0.0428387 0.0706614)
(0.049432 -2.85448e-17 1.24208e-17 0.0678457 -0.0439605 0.0734723)
(0.0518626 -2.93306e-17 1.00183e-17 0.0709868 -0.0451311 0.0767115)
(0.0546756 -3.01606e-17 7.97356e-18 0.0747596 -0.0462237 0.0803425)
(0.0579083 -2.9751e-17 6.36832e-18 0.0793991 -0.0469904 0.0841987)
(0.0611957 -2.75723e-17 4.67691e-18 0.0837267 -0.0468802 0.088105)
(0.0646179 -2.58911e-17 3.4924e-18 0.0871501 -0.0464297 0.0926989)
(0.0690306 -2.62676e-17 4.7595e-19 0.0911698 -0.0460796 0.098841)
(0.0752368 -2.9922e-17 -1.19584e-18 0.0978383 -0.0492883 0.110233)
(0.0789206 -2.85584e-17 -1.01087e-18 0.101417 -0.0497176 0.115465)
(0.082422 -2.97542e-17 -1.27295e-18 0.104212 -0.0486753 0.119869)
(0.0856503 -3.63364e-17 2.26942e-18 0.105513 -0.0467855 0.124541)
(0.0896501 -4.48988e-17 7.39956e-18 0.107453 -0.0449263 0.130663)
(0.0944933 -5.46358e-17 1.22155e-17 0.110245 -0.0427852 0.138083)
(0.100501 -6.62978e-17 1.70639e-17 0.114351 -0.0403811 0.147307)
(0.106725 -8.23883e-17 2.21618e-17 0.116481 -0.0367077 0.157347)
(0.112415 -8.89669e-17 1.60863e-17 0.115847 -0.0316175 0.168439)
(0.127129 -1.02767e-16 2.75573e-17 0.126039 -0.0374299 0.196702)
(0.13372 -1.04165e-16 2.5296e-17 0.127545 -0.035551 0.209765)
(0.142299 -1.06014e-16 2.17449e-17 0.130548 -0.033407 0.2263)
(0.152036 -1.0662e-16 1.70331e-17 0.132616 -0.0303881 0.245758)
(0.162221 -1.00044e-16 1.41939e-17 0.135249 -0.0269339 0.267181)
(0.174222 -8.99788e-17 1.43114e-17 0.140198 -0.0240658 0.292903)
(0.189166 -7.80587e-17 1.58283e-17 0.147363 -0.0212845 0.32497)
(0.207776 -6.30669e-17 1.89806e-17 0.156772 -0.0184352 0.36512)
(0.232843 -4.24724e-17 2.48417e-17 0.170736 -0.0169771 0.419064)
(0.283881 -4.35234e-17 4.88528e-17 0.197758 -0.0234694 0.52087)
(0.305184 -4.06022e-17 6.48228e-17 0.208966 -0.0228094 0.567921)
(0.332609 -3.6588e-17 8.60608e-17 0.224398 -0.0249174 0.628027)
(0.363574 -3.14487e-17 1.12118e-16 0.238641 -0.0271533 0.697657)
(0.400342 -2.5265e-17 1.44492e-16 0.255998 -0.0308653 0.780218)
(0.443548 -1.68593e-17 1.84266e-16 0.276294 -0.0368847 0.877197)
(0.478246 -8.09498e-18 2.34371e-16 0.2933 -0.0404004 0.95401)
(0.518514 7.53554e-19 2.96688e-16 0.316037 -0.0438498 1.04113)
(0.569245 1.28078e-17 3.74691e-16 0.354374 -0.0496738 1.14483)
(0.632989 3.08094e-17 4.92665e-16 0.40548 -0.0647021 1.27024)
(0.801524 1.04207e-16 8.06171e-16 0.454488 -0.097814 1.60482)
(0.826468 1.2672e-16 7.73031e-16 0.473285 -0.085588 1.65327)
(0.836998 1.37286e-16 6.52984e-16 0.490264 -0.0827689 1.66798)
(0.83001 1.3609e-16 4.91298e-16 0.477294 -0.0703104 1.64904)
(0.805647 1.26594e-16 2.81687e-16 0.441422 -0.0640421 1.58849)
(0.753186 8.76248e-17 1.1417e-17 0.37138 -0.0760606 1.45647)
(0.679553 2.67366e-17 -1.94668e-16 0.317944 -0.0997846 1.27598)
(0.616954 6.27485e-19 -1.93196e-16 0.30809 -0.104989 1.14942)
(0.486369 1.18027e-17 -1.36964e-16 0.279698 -0.0620545 0.922222)
(0.413634 -7.41683e-18 -6.2181e-17 0.15284 -0.0681053 0.699501)
(0.277802 -9.83716e-18 -2.99693e-17 0.100918 -0.0335284 0.45561)
(0.0679138 -5.62247e-19 7.43198e-18 0.0416843 0.0134356 0.0832615)
(0.0476988 1.11715e-18 1.0768e-17 0.036556 0.0106576 0.0462401)
(0.0417143 -5.92544e-19 1.25399e-17 0.036614 0.0144962 0.0284462)
(0.0456639 -7.71794e-19 2.17002e-17 0.0422114 0.0148362 0.0268159)
(0.0450796 -4.71739e-18 1.9559e-17 0.0416601 0.0168588 0.026257)
(0.047272 -1.12403e-17 1.48143e-17 0.0431426 0.0154132 0.0269303)
(0.0466293 -3.57844e-18 8.70707e-18 0.042372 0.01675 0.0281858)
(0.0480528 -1.62245e-18 4.15488e-18 0.0424461 0.015804 0.0303925)
(0.0503034 -7.87977e-19 5.41069e-18 0.0465977 0.0153035 0.0258547)
(0.0495634 -6.45967e-19 5.44267e-18 0.04699 0.0169632 0.0243279)
(0.049902 -6.77016e-19 4.64565e-18 0.0469981 0.0162564 0.0242406)
(0.0499703 3.13936e-19 7.13852e-18 0.0466024 0.0155456 0.0238933)
(0.0476211 5.82631e-19 1.06973e-17 0.0437509 0.0175924 0.0230162)
(0.0479973 1.0099e-18 1.80275e-17 0.0442091 0.0149531 0.0233759)
(0.0462589 2.95022e-18 3.31595e-17 0.0432104 0.0158325 0.022902)
(0.0455369 4.63897e-18 3.16755e-17 0.0419753 0.015019 0.0231554)
(0.0446366 2.59692e-19 7.34219e-17 0.040559 0.0136948 0.0229371)
(0.041618 -1.27731e-18 4.17866e-17 0.03716 0.0151064 0.022111)
(0.0415811 -3.35227e-18 2.44163e-17 0.037376 0.0124819 0.0218443)
(0.0391604 -3.87247e-18 1.24738e-17 0.0355996 0.0128669 0.0206427)
(0.03835 -3.96532e-18 6.24391e-18 0.0341495 0.0122296 0.0206422)
(0.0387879 -4.04446e-18 6.61306e-18 0.0351415 0.0117348 0.0206283)
(0.0365615 -4.40928e-18 4.33146e-18 0.0339403 0.0125126 0.0195867)
(0.035923 -4.28576e-18 -3.30222e-18 0.0330717 0.0120468 0.0195529)
(0.0355909 -4.19275e-18 -4.9191e-18 0.032227 0.0109839 0.0195437)
(0.032338 -4.34684e-18 2.62841e-18 0.0287142 0.0120509 0.0183122)
(0.0328918 -4.26577e-18 7.10828e-18 0.0295913 0.0102851 0.0185263)
(0.0304277 -4.18393e-18 1.35248e-18 0.0280467 0.0106368 0.0174757)
(0.0298871 -3.98534e-18 -1.49334e-18 0.0272886 0.0102733 0.0175132)
(0.0297066 -4.26679e-18 -4.47524e-19 0.026509 0.00909704 0.0179053)
(0.0262427 -4.4261e-18 -2.37751e-18 0.022812 0.00975856 0.0166906)
(0.0267544 -4.07787e-18 -1.85576e-18 0.0234095 0.00777165 0.0169373)
(0.0240273 -4.16672e-18 1.21494e-18 0.0217734 0.00751347 0.0155842)
(0.0237174 -4.08003e-18 1.04192e-19 0.0207433 0.00703462 0.0160697)
(0.0248818 -4.11901e-18 -3.85114e-18 0.020859 0.00693822 0.0182043)
(0.0217895 -4.13502e-18 -4.06325e-19 0.0177543 0.00718622 0.0186371)
(0.0229062 -4.04497e-18 1.93681e-18 0.0207043 0.00709331 0.0158673)
(0.0247492 -4.18204e-18 -3.94829e-19 0.0221198 0.0057055 0.0159979)
(0.0211941 -4.26898e-18 -1.68812e-18 0.0186708 0.00603003 0.0140286)
(0.0231123 -4.0914e-18 -1.57962e-18 0.0196789 0.00523929 0.0151904)
(0.0203133 -4.11777e-18 -1.09042e-18 0.0181392 0.00582109 0.0139663)
(0.0216625 -3.98791e-18 -9.42644e-19 0.0205037 0.0055904 0.0151354)
(0.0246918 -3.90568e-18 -4.33032e-18 0.0231359 0.00488364 0.0164624)
(0.0229403 -3.92311e-18 -5.97608e-18 0.0214443 0.00542683 0.015314)
(0.0238779 -3.96474e-18 -3.15112e-18 0.0207191 0.00488281 0.0164492)
(0.0208754 -3.8644e-18 -3.84094e-18 0.0179119 0.00583967 0.0156631)
(0.0205284 -3.67289e-18 -4.09795e-18 0.0182059 0.00645411 0.0150381)
(0.0220234 -3.77495e-18 -4.5929e-18 0.0181807 0.00429239 0.0163794)
(0.0199328 -3.70551e-18 -5.95312e-18 0.0159125 0.00458456 0.0160486)
(0.0198571 -3.49597e-18 -6.47719e-18 0.0155206 0.00396533 0.0164798)
(0.0229731 -3.48789e-18 -6.77537e-18 0.0181764 0.00304723 0.0194187)
(0.0236087 -3.40858e-18 -7.48953e-18 0.0195969 0.00345887 0.0188902)
(0.0256245 -2.74403e-18 -7.32856e-18 0.0200521 0.00255394 0.0204173)
(0.0245736 -2.31961e-18 -8.2968e-18 0.0186296 0.00290422 0.0201162)
(0.0243449 -2.107e-18 -8.68559e-18 0.0173576 0.00238559 0.0214733)
(0.0266822 -2.22913e-18 -8.68859e-18 0.0185037 0.00167182 0.0237525)
(0.0275024 -2.01249e-18 -8.8515e-18 0.0204972 0.00224119 0.0232908)